/*--------------------------------*- C++ -*----------------------------------*\
| =========                 |                                                 |
| \\      /  F ield         | OpenFOAM: The Open Source CFD Toolbox           |
|  \\    /   O peration     | Version:  v2012                                 |
|   \\  /    A nd           | Website:  www.openfoam.com                      |
|    \\/     M anipulation  |                                                 |
\*---------------------------------------------------------------------------*/
FoamFile
{
    version     2.0;
    format      ascii;
    class       scalarField;
    location    "0.119/lagrangian/kinematicCloud";
    object      age;
}
// * * * * * * * * * * * * * * * * * * * * * * * * * * * * * * * * * * * * * //


54
(
0.1182
0.1172
0.1161
0.115
0.114
0.113
0.112
0.111
0.1099
0.1088
0.108725
0.1077
0.1066
0.1055
0.1044
0.1033
0.1022
0.1011
0.1
0.099925
0.0989
0.0978
0.0967
0.0956
0.095525
0.0945
0.0934
0.093325
0.0923
0.092225
0.0912
0.0901
0.089
0.0879
0.087825
0.0869
0.0859
0.0849
0.0839
0.0829
0.0819
0.0809
0.0799
0.0789
0.0779
0.0769
0.0759
0.0749
0.0739
0.0729
0.0719
0.0709
0.0699
0.0689
)


// ************************************************************************* //
