/*--------------------------------*- C++ -*----------------------------------*\
| =========                 |                                                 |
| \\      /  F ield         | OpenFOAM: The Open Source CFD Toolbox           |
|  \\    /   O peration     | Version:  v2012                                 |
|   \\  /    A nd           | Website:  www.openfoam.com                      |
|    \\/     M anipulation  |                                                 |
\*---------------------------------------------------------------------------*/
FoamFile
{
    version     2.0;
    format      ascii;
    class       Cloud<basicKinematicParcel>;
    location    "0.119/lagrangian/kinematicCloud";
    object      positions;
}
// * * * * * * * * * * * * * * * * * * * * * * * * * * * * * * * * * * * * * //

54
(
(1.17106 0.00410962 0.03) 378
(1.20244 0.0157563 0.03) 880
(1.19453 0.0237936 0.03) 1179
(1.17891 0.00939875 0.03) 578
(1.16685 0.0307286 0.03) 1477
(1.16334 0.0242346 0.03) 1177
(0.870259 0.000567338 0.03) 58
(1.11227 0.0346181 0.03) 1674
(1.10453 0.0342676 0.03) 1573
(1.12067 0.0129644 0.03) 774
(1.11901 0.0165879 0.03) 874
(1.09793 0.00773661 0.03) 573
(0.969819 0.0383997 0.03) 1864
(0.961075 0.00145665 0.03) 164
(0.980283 0.0379253 0.03) 1865
(1.0648 0.0188179 0.03) 970
(1.01898 0.00439173 0.03) 367
(0.975443 0.0372421 0.03) 1765
(1.02517 0.00850288 0.03) 568
(1.00895 0.0341776 0.03) 1567
(1.01873 0.0284966 0.03) 1367
(0.960781 0.0364689 0.03) 1764
(0.995576 0.0292433 0.03) 1366
(0.972881 0.00667869 0.03) 464
(0.983736 0.0149958 0.03) 865
(0.971988 0.0286106 0.03) 1364
(0.941123 0.00520791 0.03) 362
(0.955667 0.031724 0.03) 1463
(0.882783 0.00215314 0.03) 158
(0.941501 0.0325805 0.03) 1562
(0.50281 5.9485e-05 0.03) 33
(0.888464 0.00322509 0.03) 259
(0.791055 0.0387623 0.03) 1852
(0.905908 0.0216905 0.03) 1060
(0.902539 0.00956533 0.03) 660
(0.896465 0.0276315 0.03) 1259
(0.885038 0.0124619 0.03) 759
(0.876957 0.0148679 0.03) 858
(0.865185 0.0278274 0.03) 1257
(0.747823 0.000995063 0.03) 49
(0.84646 0.0112835 0.03) 656
(0.835113 0.0268267 0.03) 1255
(0.822663 0.00922411 0.03) 554
(0.81242 0.00783195 0.03) 554
(0.804851 0.0119372 0.03) 753
(0.794777 0.0253499 0.03) 1152
(0.779336 0.0326588 0.03) 1551
(0.774234 0.0185169 0.03) 951
(0.763051 0.0145372 0.03) 850
(0.75226 0.0303437 0.03) 1350
(0.728959 0.00432912 0.03) 348
(0.733216 0.0141178 0.03) 748
(0.716031 0.0342621 0.03) 1547
(0.682988 0.00250804 0.03) 145
)


// ************************************************************************* //
