/*--------------------------------*- C++ -*----------------------------------*\
| =========                 |                                                 |
| \\      /  F ield         | OpenFOAM: The Open Source CFD Toolbox           |
|  \\    /   O peration     | Version:  v2012                                 |
|   \\  /    A nd           | Website:  www.openfoam.com                      |
|    \\/     M anipulation  |                                                 |
\*---------------------------------------------------------------------------*/
FoamFile
{
    version     2.0;
    format      ascii;
    class       Cloud<basicKinematicParcel>;
    location    "0.133/lagrangian/kinematicCloud";
    object      coordinates;
}
// * * * * * * * * * * * * * * * * * * * * * * * * * * * * * * * * * * * * * //

54
(
(0.47411 0.262945 0.215904 0.0470405) 2234 4464 2
(0.18356 0.40822 0.051078 0.357142) 2745 5484 1
(0.170712 0.393063 0.0215809 0.414644) 3043 6076 1
(0.76246 0.11877 0.0170925 0.101678) 2539 5073 2
(0.376917 0.311542 0.218879 0.0926628) 3337 6463 1
(0.34302 0.0615646 0.266925 0.32849) 3039 6068 1
(0.0786066 0.288064 0.460697 0.172633) 93 184 1
(0.214491 0.392754 0.156166 0.236588) 3528 7039 2
(0.337831 0.331084 0.307194 0.0238905) 3527 6841 1
(0.104601 0.4477 0.108705 0.338994) 2733 5459 2
(0.681459 0.15927 0.135063 0.0242073) 2834 5660 2
(0.208444 0.395778 0.0115079 0.38427) 2428 4853 1
(0.16267 0.418665 0.23994 0.178725) 3805 7592 2
(0.924441 0.0337451 0.0377797 0.00403467) 2104 4208 2
(0.222008 0.388996 0.089802 0.299194) 3708 7400 1
(0.519827 0.240087 0.07674 0.163347) 2927 5845 2
(0.129814 0.435093 0.337699 0.0973944) 2315 4627 2
(0.695152 0.152424 0.0314605 0.120964) 3708 7399 2
(0.438116 0.221166 0.0597754 0.280942) 2519 5033 1
(0.230668 0.384666 0.256333 0.128333) 3515 7015 2
(0.45247 0.0867512 0.273765 0.187014) 3220 6426 1
(0.304715 0.0730494 0.347642 0.274593) 3607 7199 2
(0.0280315 0.485984 0.473395 0.0125895) 3317 6619 2
(0.271789 0.364106 0.305494 0.0586115) 2412 4821 1
(0.158185 0.420907 0.197009 0.223898) 2816 5624 2
(0.375938 0.312031 0.105691 0.20634) 3214 6417 1
(0.262995 0.368502 0.0585211 0.309981) 2407 4612 1
(0.202755 0.398623 0.0876714 0.310951) 3410 6806 2
(0.150097 0.424952 0.350632 0.0743195) 296 393 1
(0.627272 0.0679549 0.118409 0.186364) 3408 6802 1
(0.160663 0.19688 0.222788 0.419669) 41 22261 1
(0.189841 0.0655353 0.40508 0.339544) 298 597 2
(0.36818 0.0615425 0.254368 0.31591) 1883 3766 1
(0.0849178 0.457541 0.0134761 0.444065) 3007 6002 2
(0.060232 0.469884 0.182473 0.287411) 2605 5202 2
(0.0440558 0.477972 0.00129681 0.476675) 3205 6396 2
(0.573486 0.213257 0.208947 0.00430989) 2703 5399 2
(0.0584595 0.47077 0.334183 0.136587) 2802 5596 2
(0.0719477 0.382672 0.464026 0.0813543) 3201 6388 1
(0.200183 0.399909 0.183097 0.216812) 179 159 1
(0.0930436 0.42779 0.0256886 0.453478) 798 1397 2
(0.409474 0.219616 0.0756473 0.295263) 1297 2395 2
(0.336653 0.331673 0.0884763 0.243197) 695 1191 1
(0.898343 0.0356235 0.0508283 0.0152048) 593 1184 1
(0.363287 0.318356 0.107042 0.211315) 793 1586 2
(0.135898 0.24305 0.189001 0.432051) 1192 2384 1
(0.601622 0.199189 0.0196684 0.17952) 1489 2979 1
(0.758554 0.0868374 0.0338854 0.120723) 990 1980 1
(0.472289 0.263855 0.259554 0.00430176) 889 1776 2
(0.44275 0.148659 0.278625 0.129966) 1387 2772 1
(0.275243 0.27315 0.362378 0.0892286) 382 762 1
(0.186165 0.234282 0.172635 0.406917) 885 1571 2
(0.865439 0.0120974 0.0551833 0.0672806) 1581 3162 1
(0.42557 0.287215 0.182344 0.104871) 275 548 2
)


// ************************************************************************* //
