/*--------------------------------*- C++ -*----------------------------------*\
| =========                 |                                                 |
| \\      /  F ield         | OpenFOAM: The Open Source CFD Toolbox           |
|  \\    /   O peration     | Version:  v2012                                 |
|   \\  /    A nd           | Website:  www.openfoam.com                      |
|    \\/     M anipulation  |                                                 |
\*---------------------------------------------------------------------------*/
FoamFile
{
    version     2.0;
    format      ascii;
    class       volScalarField;
    location    "0.19";
    object      k.air;
}
// * * * * * * * * * * * * * * * * * * * * * * * * * * * * * * * * * * * * * //

dimensions      [0 2 -2 0 0 0 0];


internalField   nonuniform List<scalar> 
5600
(
0.60636
0.840757
0.955161
0.978167
0.949137
0.897676
0.83941
0.787439
0.743101
0.707427
0.679242
0.658351
0.643512
0.632349
0.625715
0.619617
0.616621
0.613084
0.610992
0.608917
0.606818
0.605835
0.603772
0.603498
0.602171
0.601835
0.60158
0.600657
0.601428
0.599886
0.601123
0.59937
0.600269
0.599115
0.598927
0.598945
0.597505
0.598529
0.596429
0.597696
0.595875
0.596541
0.595715
0.595419
0.595553
0.594692
0.595146
0.594442
0.594558
0.594462
0.594005
0.594479
0.593733
0.594346
0.593753
0.594107
0.593991
0.593932
0.594307
0.593913
0.594669
0.594054
0.595068
0.594339
0.595414
0.594774
0.595727
0.595379
0.596136
0.596065
0.596775
0.596671
0.597616
0.59718
0.598511
0.5978
0.599269
0.598755
0.599829
0.599958
0.600453
0.601024
0.60151
0.601654
0.602949
0.602257
0.604074
0.603564
0.604298
0.605821
0.603832
0.608811
0.602385
0.614058
0.596224
0.628232
0.572876
0.673883
0.480614
0.838622
0.371561
0.315774
0.288405
0.276009
0.27456
0.285034
0.307072
0.345052
0.387125
0.429933
0.471915
0.508344
0.542569
0.568574
0.592818
0.608992
0.624062
0.633699
0.641386
0.648606
0.651431
0.657627
0.658876
0.663869
0.665658
0.667617
0.67146
0.669988
0.675472
0.671543
0.677196
0.673217
0.67656
0.675593
0.674686
0.677681
0.67328
0.678664
0.673244
0.678184
0.674708
0.676785
0.676691
0.675846
0.677951
0.676095
0.678087
0.677318
0.677602
0.678708
0.677311
0.679619
0.677791
0.679973
0.678915
0.679851
0.680373
0.680026
0.681913
0.68041
0.6833
0.681104
0.684568
0.682168
0.685428
0.683513
0.685964
0.685025
0.686823
0.686477
0.688396
0.687552
0.690368
0.688319
0.692092
0.68953
0.693128
0.691588
0.693614
0.693893
0.694533
0.695215
0.696849
0.6954
0.699776
0.695896
0.701216
0.698411
0.700689
0.702431
0.699569
0.706913
0.697419
0.714446
0.689023
0.732605
0.663249
0.775588
0.593241
0.875255
0.369066
0.282134
0.227401
0.193447
0.168075
0.154257
0.145291
0.143667
0.14729
0.154302
0.168247
0.180341
0.201052
0.216767
0.240762
0.259438
0.283102
0.304695
0.325577
0.349606
0.367909
0.392072
0.407853
0.426393
0.44004
0.450868
0.465298
0.468879
0.483559
0.483112
0.495818
0.495877
0.503204
0.507652
0.508095
0.517117
0.512819
0.523554
0.518777
0.52701
0.525746
0.529026
0.532073
0.531609
0.536517
0.535487
0.538978
0.539996
0.54071
0.544089
0.542779
0.547092
0.545747
0.549193
0.549196
0.550604
0.552577
0.552373
0.555972
0.554277
0.558905
0.556337
0.561491
0.558832
0.563361
0.561535
0.564715
0.564164
0.566559
0.566475
0.569412
0.568304
0.572605
0.569831
0.575071
0.572052
0.576455
0.575232
0.577328
0.578228
0.579123
0.579558
0.582714
0.579662
0.586525
0.580705
0.588172
0.583949
0.588141
0.587674
0.588897
0.590355
0.590229
0.594217
0.588504
0.603153
0.579802
0.620033
0.561298
0.633564
0.369985
0.280954
0.223687
0.186597
0.157979
0.138647
0.122778
0.111036
0.10386
0.0953185
0.0958762
0.0894769
0.09597
0.092534
0.101679
0.104097
0.11285
0.12311
0.130713
0.148014
0.15659
0.177757
0.190723
0.210999
0.23007
0.245051
0.269129
0.277515
0.302692
0.307319
0.328701
0.335029
0.347532
0.359984
0.362603
0.380216
0.377083
0.394884
0.392532
0.404889
0.407748
0.412758
0.420304
0.420844
0.429027
0.42975
0.434627
0.43827
0.439429
0.445633
0.444729
0.451157
0.450871
0.455527
0.457089
0.458924
0.462639
0.462576
0.468128
0.46633
0.472838
0.470033
0.476851
0.474258
0.479865
0.478561
0.482275
0.482412
0.485383
0.485656
0.48972
0.488408
0.494258
0.491031
0.497459
0.494504
0.49926
0.49891
0.500835
0.502585
0.503845
0.504039
0.508747
0.504533
0.513246
0.50667
0.515061
0.510903
0.515686
0.514662
0.517897
0.516891
0.5209
0.519962
0.521796
0.5259
0.519715
0.532908
0.51915
0.529375
0.370127
0.281172
0.223893
0.186626
0.157917
0.137885
0.121784
0.107784
0.100154
0.0873069
0.0862686
0.073728
0.0762948
0.0664821
0.0680758
0.0647637
0.0618912
0.0669165
0.0598768
0.0706127
0.0643988
0.0751354
0.0765154
0.0821095
0.0953037
0.0944476
0.118009
0.11389
0.141264
0.140351
0.163139
0.172034
0.184613
0.204219
0.205968
0.231925
0.22926
0.253253
0.254108
0.269656
0.277893
0.284312
0.297644
0.299988
0.312348
0.31647
0.323524
0.331407
0.333768
0.344084
0.344626
0.353957
0.355855
0.362318
0.366394
0.369129
0.375327
0.375797
0.383921
0.38239
0.39132
0.388686
0.39752
0.395548
0.402424
0.402219
0.406709
0.407941
0.411811
0.412687
0.418154
0.416882
0.42441
0.421186
0.428653
0.426418
0.431209
0.432239
0.433882
0.436697
0.438402
0.438573
0.444593
0.439996
0.449636
0.44368
0.45172
0.449044
0.453194
0.453167
0.456598
0.455805
0.460571
0.459184
0.462976
0.464146
0.46421
0.468187
0.467849
0.46632
0.37011
0.281263
0.224012
0.18673
0.158334
0.137783
0.122593
0.107295
0.100992
0.0864563
0.0861573
0.0725892
0.0737649
0.0647157
0.0620144
0.0610866
0.0517172
0.0587164
0.0452516
0.0545398
0.0444875
0.0475603
0.0489791
0.0398155
0.0559366
0.0356142
0.0613775
0.0391413
0.0631856
0.0517368
0.0629062
0.0706805
0.0656783
0.0904815
0.0762224
0.106424
0.0954472
0.119046
0.11952
0.131805
0.143845
0.147791
0.165027
0.16751
0.181896
0.18922
0.196947
0.209097
0.212109
0.226111
0.22833
0.23996
0.244482
0.252491
0.259768
0.263667
0.273017
0.274467
0.285805
0.285057
0.296994
0.295196
0.306424
0.305973
0.31438
0.316158
0.321785
0.324757
0.329991
0.331883
0.339141
0.33837
0.347692
0.345209
0.353615
0.352878
0.357707
0.360741
0.362298
0.366597
0.368955
0.369665
0.376747
0.372863
0.382613
0.378691
0.385514
0.385544
0.38834
0.39053
0.393121
0.394134
0.39824
0.398254
0.402163
0.403237
0.405333
0.407327
0.409401
0.409373
0.3701
0.281246
0.224115
0.186608
0.158683
0.137497
0.123174
0.106992
0.101491
0.08655
0.0860175
0.0735068
0.0725709
0.0663715
0.0599637
0.0625522
0.049679
0.0584145
0.04416
0.0511219
0.0443964
0.0405976
0.0483838
0.0299263
0.0516849
0.0237342
0.049854
0.025332
0.0414277
0.0344172
0.0291537
0.0464209
0.0198543
0.053457
0.0211947
0.0515064
0.0326316
0.0463927
0.0471441
0.044855
0.059276
0.051779
0.0668335
0.0649334
0.0733993
0.0814177
0.0825585
0.0956532
0.0950107
0.109444
0.111341
0.122121
0.12812
0.135481
0.144598
0.147993
0.1592
0.160652
0.174406
0.174017
0.188246
0.187285
0.20003
0.201404
0.210598
0.214551
0.220867
0.225539
0.232044
0.234964
0.244086
0.244281
0.255323
0.254482
0.263634
0.265294
0.270129
0.275686
0.277512
0.283578
0.286975
0.288798
0.296792
0.294725
0.304141
0.303213
0.308893
0.311887
0.313958
0.318271
0.320595
0.323349
0.327264
0.328683
0.33275
0.334662
0.337153
0.340101
0.341437
0.344326
0.370134
0.281139
0.224257
0.186414
0.158913
0.13733
0.123292
0.107134
0.101181
0.0872912
0.0851017
0.0748273
0.0713159
0.0677199
0.0591132
0.063035
0.0500362
0.057391
0.0459206
0.0488146
0.0466833
0.0382428
0.0493732
0.0292877
0.0494659
0.0258935
0.0439236
0.0292227
0.0334055
0.0368159
0.0214104
0.043974
0.0136307
0.044092
0.0158755
0.0353048
0.0247241
0.0250194
0.0329978
0.0185945
0.0346575
0.0230171
0.0294935
0.0287269
0.0268065
0.0361863
0.0277501
0.0372476
0.0308936
0.0406686
0.0403761
0.045093
0.0488206
0.0512334
0.0579559
0.0563303
0.0651639
0.0624301
0.0760864
0.0727244
0.0868864
0.0845218
0.0959887
0.0978763
0.105476
0.110441
0.11601
0.121192
0.127723
0.130654
0.140333
0.14117
0.152508
0.153388
0.162031
0.165818
0.170069
0.177428
0.179489
0.186692
0.190886
0.193884
0.201933
0.202116
0.210618
0.212464
0.217399
0.222438
0.224569
0.230192
0.232751
0.236851
0.240855
0.243682
0.247855
0.251174
0.253698
0.25812
0.25925
0.263802
0.370201
0.280994
0.224391
0.186275
0.158955
0.137442
0.122955
0.107764
0.100298
0.0884152
0.0839474
0.0759092
0.0706355
0.0679212
0.0596635
0.061866
0.0518834
0.0553104
0.0480832
0.0472191
0.0475098
0.0387421
0.0475389
0.0326381
0.0450104
0.0311613
0.0386395
0.0338356
0.0301233
0.0378187
0.0224745
0.0398923
0.01897
0.0367052
0.0220521
0.0283788
0.0277887
0.0213404
0.0299754
0.0192831
0.0270188
0.0226346
0.0212711
0.0252262
0.0187409
0.0254718
0.0190791
0.0233345
0.0195622
0.0218983
0.0220596
0.0217052
0.0228193
0.0225131
0.0250791
0.021929
0.0267439
0.0206587
0.0304002
0.0229748
0.0330204
0.0281473
0.0345191
0.0340993
0.0367143
0.0392803
0.0411951
0.0445478
0.0477421
0.0490137
0.0552181
0.055314
0.0636574
0.0643292
0.0706132
0.0734611
0.0762932
0.0827932
0.0843331
0.0912427
0.0946174
0.0983926
0.104673
0.10649
0.113638
0.116662
0.12142
0.126799
0.129332
0.135198
0.137963
0.142828
0.146933
0.150734
0.155298
0.159383
0.16283
0.167407
0.169979
0.174307
0.370264
0.28088
0.22447
0.186234
0.158864
0.137707
0.122464
0.108481
0.0994227
0.089348
0.0831538
0.0763985
0.0706625
0.0673072
0.0609155
0.0601534
0.0538661
0.0534754
0.0494499
0.0467707
0.0468453
0.0407206
0.0444388
0.0366615
0.0406981
0.0352856
0.0354718
0.0356119
0.0302341
0.0356913
0.0266511
0.0341714
0.0255304
0.0305888
0.0266598
0.0259951
0.0277351
0.0232521
0.026408
0.0231386
0.0234174
0.024094
0.0205732
0.0240151
0.0196768
0.0223176
0.0199526
0.0204627
0.0199028
0.0189605
0.0199967
0.0182995
0.018888
0.0184169
0.0183971
0.017714
0.0184028
0.0162827
0.0190136
0.0158781
0.0188659
0.0165065
0.0187948
0.0170351
0.018578
0.0177126
0.0182901
0.0195263
0.0189487
0.0205633
0.0204162
0.0212616
0.023573
0.0229627
0.0264715
0.0255369
0.027419
0.0296459
0.0299445
0.034169
0.0345287
0.0378194
0.0399549
0.041566
0.0459896
0.0477871
0.0515942
0.0551729
0.0574628
0.0619138
0.0641905
0.0686406
0.0721793
0.0760071
0.0804194
0.0844884
0.0887931
0.0929988
0.0970436
0.101396
0.370299
0.280829
0.224498
0.186249
0.158767
0.137916
0.122139
0.108914
0.0989454
0.0897957
0.0828538
0.0764572
0.0709335
0.0666924
0.0618371
0.0590536
0.0549683
0.0525917
0.0499025
0.0469173
0.0460115
0.0422104
0.0424428
0.0388885
0.0385687
0.0369322
0.0345766
0.035506
0.0313521
0.0335891
0.0294618
0.0309706
0.0285451
0.0282141
0.0278195
0.0260349
0.0265581
0.0249096
0.0246495
0.0243752
0.0228654
0.0236801
0.0215621
0.022782
0.0206328
0.0217833
0.0199604
0.0207206
0.0197077
0.0192235
0.0200457
0.0179131
0.01975
0.0176833
0.018875
0.0180213
0.0178577
0.018522
0.017184
0.0189503
0.0172698
0.0187247
0.0187031
0.0180548
0.0202991
0.018422
0.0209774
0.020576
0.021447
0.0233393
0.0225337
0.0256646
0.0255471
0.0276016
0.0297358
0.0302797
0.0333374
0.034559
0.0373866
0.0400451
0.0421565
0.0458608
0.0479282
0.0514146
0.0548211
0.0579224
0.0618278
0.0653408
0.0690107
0.0729533
0.0764468
0.0807664
0.0845884
0.0888006
0.0929824
0.0973554
0.10168
0.105955
0.11036
0.114816
0.370311
0.280823
0.224504
0.186282
0.158712
0.138029
0.121994
0.109097
0.0987682
0.0899347
0.0827992
0.0763841
0.0711423
0.0663376
0.0622715
0.0585777
0.0553561
0.0523379
0.0498927
0.047171
0.0454589
0.0429253
0.04161
0.0396083
0.0380401
0.0370574
0.0348488
0.0347723
0.0324096
0.0323215
0.0307491
0.0298952
0.0292999
0.0280637
0.0275463
0.0269911
0.0256277
0.0261969
0.024186
0.0250293
0.0236382
0.0235153
0.0234862
0.02251
0.022925
0.0225444
0.0220208
0.0231077
0.0217811
0.0232481
0.0229122
0.0231546
0.024723
0.0239014
0.0265378
0.0260247
0.0282845
0.0294949
0.0304661
0.0337843
0.0339467
0.0381974
0.0393011
0.0428269
0.0459795
0.0484416
0.0531235
0.0554947
0.0604355
0.0639263
0.0679726
0.0730531
0.0764486
0.0821934
0.08615
0.0914073
0.0963471
0.101
0.106602
0.111059
0.116574
0.121472
0.126326
0.131509
0.136026
0.14104
0.14563
0.150415
0.155046
0.159575
0.164032
0.168431
0.172689
0.176873
0.180976
0.185131
0.18903
0.19302
0.19686
0.200848
0.370315
0.280834
0.224508
0.186311
0.158684
0.13809
0.121922
0.109177
0.0986826
0.0899795
0.0827703
0.0763174
0.0712318
0.0661328
0.0624552
0.058323
0.0554934
0.0522163
0.0498068
0.0473304
0.0451006
0.0433174
0.0411805
0.0399547
0.0379148
0.0370554
0.0352966
0.0343954
0.0333827
0.0318998
0.0319905
0.0299169
0.0306164
0.0289494
0.0289879
0.0290322
0.0275399
0.0295726
0.0272054
0.0299545
0.0285424
0.030349
0.0312245
0.0317165
0.0345093
0.0349688
0.0382079
0.040124
0.0429712
0.0465887
0.0495577
0.0540259
0.057938
0.0624125
0.0676323
0.0721393
0.0781261
0.0832642
0.0891815
0.0954374
0.100893
0.107969
0.113383
0.120413
0.126382
0.132647
0.139227
0.144754
0.151672
0.157049
0.163395
0.169322
0.17465
0.181115
0.185926
0.192143
0.197138
0.2025
0.207953
0.212522
0.218063
0.222465
0.227392
0.232092
0.23647
0.241202
0.24536
0.249828
0.253888
0.257957
0.261835
0.265615
0.26927
0.272737
0.276236
0.279545
0.282779
0.285967
0.28901
0.292275
0.370318
0.280844
0.224515
0.18632
0.158664
0.138098
0.121862
0.109185
0.0985838
0.089971
0.0826617
0.0762616
0.0711616
0.0660087
0.0624627
0.058161
0.0555766
0.0521271
0.0499302
0.0474796
0.0452665
0.0438447
0.0415477
0.0409375
0.0388409
0.0386038
0.0372169
0.0368595
0.0367624
0.0359467
0.0374852
0.0364357
0.039236
0.0389649
0.0420543
0.0438464
0.0464235
0.0508661
0.0531605
0.0596595
0.0627499
0.0699601
0.0749309
0.0818417
0.0889476
0.0955541
0.103958
0.110829
0.119423
0.127063
0.135275
0.143482
0.151228
0.159372
0.167126
0.174745
0.182504
0.189644
0.19699
0.20404
0.210595
0.217701
0.223591
0.230406
0.236132
0.242221
0.248285
0.25358
0.259751
0.264533
0.27017
0.275088
0.279756
0.285057
0.289012
0.294195
0.298065
0.302556
0.306776
0.310483
0.314914
0.318279
0.322339
0.325853
0.329347
0.33297
0.336099
0.339544
0.342521
0.345638
0.348497
0.351385
0.354122
0.356759
0.359482
0.361936
0.364526
0.36691
0.369325
0.371901
0.370318
0.280846
0.224502
0.186276
0.158603
0.138005
0.121738
0.109056
0.0984037
0.0898516
0.0824768
0.0762317
0.071111
0.0661932
0.0627703
0.0587439
0.056561
0.0534431
0.0519983
0.0500454
0.0489585
0.0484597
0.0477483
0.0488215
0.0489363
0.0514104
0.0530922
0.0567459
0.0606791
0.0653857
0.0719582
0.0778461
0.0866771
0.0938112
0.103988
0.112656
0.123047
0.133395
0.143411
0.155137
0.164627
0.176548
0.185832
0.196827
0.206329
0.215815
0.225406
0.233629
0.242709
0.250352
0.258393
0.265861
0.273022
0.280086
0.286649
0.292991
0.299178
0.304854
0.310562
0.315946
0.32098
0.326332
0.330781
0.335936
0.34017
0.34476
0.34912
0.352939
0.357334
0.360598
0.364655
0.367944
0.37128
0.374937
0.377603
0.381288
0.383776
0.387004
0.389777
0.392358
0.395417
0.397628
0.400558
0.402873
0.405405
0.407929
0.410165
0.412685
0.414792
0.417128
0.419176
0.421372
0.423382
0.42541
0.42749
0.42933
0.431411
0.433185
0.435175
0.437212
0.370301
0.280802
0.224384
0.186108
0.158396
0.137753
0.121523
0.108907
0.0984665
0.0902451
0.08337
0.0779708
0.0737585
0.0702687
0.0683067
0.0664231
0.0666122
0.0664971
0.0686568
0.0708025
0.0750063
0.0801971
0.0868007
0.0953873
0.104685
0.11631
0.127962
0.141433
0.154954
0.169375
0.184415
0.198659
0.213576
0.226565
0.240598
0.252395
0.264866
0.275921
0.286399
0.296972
0.305586
0.315505
0.322867
0.331465
0.338253
0.345222
0.351872
0.357582
0.363902
0.368995
0.374602
0.379454
0.384164
0.388676
0.392824
0.396855
0.400735
0.404294
0.407897
0.411245
0.414413
0.417779
0.420522
0.423837
0.426431
0.429438
0.432193
0.434713
0.437652
0.439749
0.442589
0.444697
0.447068
0.449531
0.451305
0.453904
0.45548
0.457832
0.459637
0.461494
0.463608
0.465116
0.467263
0.468807
0.470714
0.472469
0.474132
0.475985
0.477522
0.479308
0.480812
0.482528
0.484032
0.485646
0.487251
0.488686
0.490379
0.491711
0.493402
0.49504
0.370192
0.280549
0.224215
0.186075
0.158679
0.138565
0.123372
0.112393
0.104345
0.0993559
0.0967795
0.096603
0.0983791
0.101947
0.107743
0.11485
0.124529
0.135254
0.148774
0.163252
0.180409
0.198716
0.218231
0.238387
0.258139
0.27787
0.295633
0.312829
0.32802
0.342272
0.355059
0.366366
0.377375
0.38633
0.395813
0.403218
0.411267
0.41789
0.424322
0.430537
0.435325
0.441108
0.444859
0.449736
0.453023
0.456815
0.460205
0.46311
0.466502
0.469016
0.472128
0.474631
0.477299
0.479825
0.482179
0.484541
0.486789
0.488899
0.491061
0.493056
0.494995
0.497054
0.498714
0.500821
0.502377
0.504345
0.506051
0.507709
0.509645
0.510982
0.512971
0.514314
0.516029
0.517695
0.518982
0.520865
0.521946
0.523736
0.524946
0.52639
0.527865
0.528994
0.530597
0.531679
0.533172
0.534407
0.535707
0.53709
0.538258
0.539651
0.540794
0.542171
0.543324
0.544651
0.545908
0.547082
0.548471
0.549516
0.550957
0.552267
0.369473
0.281388
0.228604
0.193072
0.170688
0.155985
0.150078
0.150495
0.156507
0.16735
0.181593
0.198829
0.218428
0.239681
0.262419
0.285524
0.309517
0.332965
0.357066
0.380177
0.403398
0.423808
0.44174
0.457378
0.470362
0.482576
0.492308
0.501206
0.508209
0.514678
0.52014
0.52481
0.529457
0.532748
0.53674
0.539206
0.542532
0.544765
0.547293
0.549717
0.551467
0.554043
0.555348
0.557778
0.558967
0.560902
0.562314
0.563645
0.565277
0.566317
0.567913
0.568984
0.57039
0.571617
0.572844
0.574119
0.575308
0.576502
0.577709
0.578853
0.579983
0.581195
0.582168
0.583464
0.584368
0.585633
0.586643
0.587717
0.588944
0.589776
0.591143
0.591985
0.593223
0.594302
0.595239
0.596527
0.59727
0.598568
0.599351
0.600445
0.601423
0.602273
0.603422
0.604179
0.605323
0.606165
0.607181
0.608187
0.609076
0.610137
0.611004
0.612094
0.612981
0.614063
0.61503
0.616013
0.617101
0.617977
0.619172
0.620209
0.37219
0.315459
0.292819
0.279527
0.286372
0.295391
0.331445
0.373633
0.418597
0.463087
0.504538
0.541612
0.573475
0.599913
0.621246
0.63776
0.650629
0.659964
0.667538
0.672926
0.677751
0.681569
0.685163
0.688143
0.690509
0.692772
0.694155
0.695784
0.696306
0.697116
0.697236
0.697306
0.697493
0.697052
0.697369
0.696723
0.697015
0.696512
0.696593
0.696514
0.69629
0.696657
0.696301
0.69683
0.696504
0.696927
0.696817
0.696923
0.697133
0.697034
0.69738
0.697337
0.697675
0.697816
0.698103
0.698416
0.698709
0.69909
0.699464
0.699871
0.700278
0.700773
0.701136
0.701736
0.702088
0.702735
0.703174
0.703724
0.704354
0.704775
0.705568
0.706008
0.706789
0.707387
0.708015
0.708805
0.709292
0.710165
0.710644
0.711437
0.712045
0.712686
0.713464
0.714007
0.714856
0.715437
0.716237
0.716942
0.717646
0.718449
0.719127
0.71999
0.720696
0.721587
0.722351
0.723204
0.724028
0.724801
0.725724
0.726436
0.606742
0.839813
0.952198
0.969554
0.937536
0.881266
0.821353
0.769014
0.724406
0.688403
0.660657
0.640156
0.625364
0.614988
0.607633
0.602412
0.598503
0.595419
0.592946
0.590753
0.589042
0.587462
0.586402
0.585424
0.584763
0.584225
0.583712
0.583479
0.583026
0.58278
0.582312
0.581887
0.581413
0.580816
0.580378
0.579678
0.579262
0.57857
0.578132
0.577551
0.577066
0.576654
0.576126
0.575876
0.575372
0.575189
0.574785
0.57458
0.574317
0.574065
0.573916
0.57366
0.573577
0.573387
0.573326
0.573225
0.573183
0.573163
0.573164
0.573206
0.573255
0.573353
0.573439
0.573599
0.573709
0.573915
0.574068
0.574284
0.574513
0.574727
0.575047
0.575289
0.575657
0.575957
0.576312
0.57669
0.577019
0.577462
0.577798
0.578263
0.578646
0.579086
0.579544
0.579959
0.580472
0.580896
0.581414
0.581883
0.582384
0.582905
0.583406
0.583962
0.584486
0.585059
0.58562
0.586162
0.586734
0.587169
0.587515
0.587469
0.113366
2.27365
2.87749
3.08316
3.22961
3.28385
3.26008
3.18843
3.0857
2.9756
2.86581
2.75946
2.6604
2.57201
2.48939
2.41134
2.33546
2.25393
2.17235
2.09139
1.99673
1.89331
1.78879
1.66681
1.53049
1.4041
1.27954
1.1522
1.04637
0.965453
0.886859
0.813683
0.755087
0.699678
0.641615
0.589067
0.545288
0.509106
0.484574
0.475782
0.485603
0.510725
0.537722
0.556727
0.570346
0.580257
0.581516
0.575242
0.571246
0.572412
0.573106
0.567624
0.553048
0.530836
0.505065
0.478441
0.450872
0.420722
0.386739
0.348696
0.307179
0.263343
0.218989
0.176624
0.138907
0.107446
0.0824672
0.0632891
0.0487955
0.0378846
0.0296451
0.0234196
0.0187763
0.0154114
0.0130546
0.0114613
0.0104134
0.00974134
0.00930675
0.00901012
0.00877457
0.00856054
0.00834779
0.00814073
0.00794567
0.00777835
0.00764335
0.00754569
0.00747674
0.00743319
0.00740405
0.00738787
0.0073765
0.00737148
0.00736684
0.00736585
0.00736352
0.00736392
0.00736258
0.00736454
0.375533
1.11464
2.05976
2.51082
2.74474
2.84209
2.84972
2.79954
2.71528
2.61846
2.52172
2.43009
2.34713
2.27614
2.21156
2.15089
2.09237
2.02692
1.95879
1.89081
1.80721
1.71153
1.61447
1.49952
1.36718
1.24586
1.12969
1.01001
0.911446
0.840375
0.769533
0.703493
0.654283
0.607461
0.555501
0.51061
0.476336
0.448756
0.433101
0.434939
0.452408
0.479888
0.50832
0.530562
0.547886
0.560745
0.564156
0.558868
0.554287
0.554028
0.552923
0.545497
0.529205
0.505896
0.480023
0.454225
0.428256
0.400229
0.368508
0.332667
0.293193
0.251148
0.208305
0.167138
0.130296
0.0995558
0.0752769
0.0568446
0.0431909
0.0331787
0.0258378
0.0204852
0.0166376
0.0139284
0.0120571
0.0107958
0.0099592
0.00941691
0.00906012
0.00881579
0.00861962
0.00844089
0.00825756
0.00807688
0.00790205
0.00775114
0.00762559
0.00753503
0.00746902
0.00742867
0.00739991
0.00738537
0.00737336
0.00736952
0.00736394
0.00736415
0.0073609
0.00736275
0.00736072
0.00736475
0.556308
0.544484
1.01533
1.57106
1.96957
2.18204
2.27039
2.28017
2.24466
2.18418
2.11731
2.0524
1.99131
1.9394
1.89342
1.85012
1.80898
1.76052
1.70637
1.65191
1.58127
1.49551
1.4082
1.30348
1.17881
1.06589
0.960456
0.849419
0.759128
0.698871
0.637495
0.580212
0.543455
0.508604
0.46556
0.431762
0.411727
0.397011
0.39299
0.408435
0.43531
0.462169
0.485641
0.505659
0.523784
0.538443
0.543597
0.5392
0.53395
0.532052
0.528895
0.519311
0.501347
0.477293
0.451721
0.427141
0.40308
0.377394
0.348112
0.314614
0.277287
0.237154
0.195986
0.156253
0.120577
0.0908592
0.0675834
0.050198
0.0376239
0.0286735
0.0223582
0.0179468
0.0148812
0.0127639
0.0113033
0.0103068
0.00962913
0.00917824
0.00887245
0.00866056
0.00848965
0.00833651
0.00817775
0.00802091
0.0078662
0.00773227
0.00761708
0.00753311
0.00746964
0.0074314
0.0074027
0.00738895
0.00737625
0.00737297
0.00736663
0.00736751
0.00736361
0.00736638
0.00736396
0.00736942
0.532131
0.495869
0.559816
0.763208
1.06345
1.33467
1.51325
1.60757
1.64539
1.6462
1.63013
1.60749
1.57999
1.55593
1.53446
1.51224
1.4909
1.46116
1.42208
1.38178
1.32517
1.25051
1.17433
1.08151
0.966013
0.863108
0.770642
0.669536
0.590965
0.545827
0.497041
0.451378
0.431653
0.413479
0.38276
0.364641
0.365857
0.369072
0.379236
0.410403
0.448403
0.471478
0.48088
0.4892
0.50191
0.515223
0.520686
0.516633
0.510539
0.50681
0.501397
0.48955
0.470136
0.445938
0.421297
0.398489
0.376735
0.353597
0.326832
0.295637
0.260344
0.222023
0.182517
0.14433
0.110073
0.0816831
0.0597321
0.0436749
0.0323708
0.0246228
0.0193969
0.0158953
0.0135261
0.0119025
0.0107654
0.00996611
0.00939918
0.00900647
0.00872932
0.00853412
0.00837725
0.00824178
0.00810366
0.00796899
0.00783354
0.0077157
0.00761146
0.00753489
0.00747469
0.00743835
0.00740962
0.00739615
0.0073827
0.00737954
0.0073725
0.00737372
0.00736931
0.0073727
0.00737002
0.00737662
0.473114
0.46371
0.460686
0.486465
0.554516
0.663964
0.782123
0.889701
0.972538
1.02707
1.06356
1.08765
1.10035
1.11207
1.12177
1.12573
1.1282
1.12017
1.09884
1.07451
1.03352
0.97175
0.908413
0.829405
0.725548
0.636128
0.561573
0.477748
0.419416
0.397628
0.368121
0.340324
0.342637
0.344781
0.329856
0.331716
0.357947
0.381851
0.406651
0.452617
0.502352
0.520993
0.508162
0.492432
0.489687
0.495454
0.497976
0.492802
0.485366
0.479552
0.471768
0.457807
0.437475
0.414022
0.391244
0.370961
0.352001
0.331598
0.307283
0.278099
0.244405
0.207458
0.16929
0.132511
0.0997464
0.0728733
0.0524403
0.0378428
0.0278935
0.0213499
0.0171215
0.0143867
0.0125694
0.0113176
0.0104132
0.00974823
0.00925036
0.00888829
0.00862159
0.00843035
0.00827834
0.00815361
0.00803183
0.00791713
0.00779999
0.00769746
0.00760479
0.00753681
0.00748105
0.00744697
0.0074184
0.00740496
0.00739075
0.00738744
0.00737974
0.00738104
0.00737621
0.00737997
0.00737714
0.00738456
0.411274
0.411511
0.406839
0.40253
0.403022
0.414417
0.43001
0.453552
0.481872
0.510088
0.542954
0.576649
0.605253
0.637611
0.669684
0.695185
0.719854
0.733705
0.73175
0.725372
0.702134
0.656838
0.609974
0.549845
0.468006
0.404526
0.360766
0.311828
0.289637
0.298103
0.293135
0.288513
0.312027
0.330656
0.330937
0.351777
0.399307
0.440898
0.477723
0.535085
0.59602
0.613212
0.578079
0.528449
0.498343
0.487123
0.48081
0.47146
0.46142
0.452981
0.442723
0.427111
0.406778
0.385206
0.365515
0.348701
0.333055
0.31549
0.293369
0.265618
0.232729
0.196321
0.15878
0.122922
0.0913868
0.0659053
0.0468685
0.0335742
0.0247744
0.0191746
0.0156698
0.0134611
0.0120067
0.0109917
0.0102299
0.00964125
0.00917556
0.00882014
0.00854765
0.00834864
0.0081924
0.00807089
0.00795935
0.0078607
0.00776102
0.00767502
0.00759512
0.00753631
0.00748546
0.00745402
0.00742598
0.00741278
0.00739798
0.00739453
0.00738622
0.00738753
0.00738231
0.00738629
0.00738332
0.00739133
0.343826
0.34603
0.344714
0.339098
0.330643
0.322289
0.312283
0.303312
0.295225
0.286585
0.282023
0.281504
0.281701
0.29039
0.304946
0.320106
0.342356
0.360934
0.369019
0.375948
0.370091
0.347357
0.325231
0.296385
0.259397
0.244117
0.244701
0.243618
0.260715
0.290509
0.303081
0.316511
0.350254
0.374652
0.385286
0.42055
0.481826
0.535252
0.582336
0.649511
0.72014
0.740305
0.690179
0.607014
0.540984
0.502296
0.478953
0.460478
0.445327
0.433095
0.420096
0.403453
0.384282
0.36582
0.350399
0.337885
0.325807
0.310843
0.290316
0.263089
0.229845
0.192731
0.154667
0.11877
0.0876672
0.0628748
0.0445673
0.0319296
0.0236635
0.0184667
0.0152491
0.0132379
0.011913
0.0109777
0.0102555
0.00967737
0.00920013
0.00882216
0.00852251
0.00830038
0.00812725
0.00799944
0.00788993
0.00780255
0.00771749
0.00764791
0.00758003
0.0075309
0.00748477
0.00745735
0.00743004
0.00741849
0.00740302
0.00740055
0.0073912
0.00739342
0.00738719
0.00739221
0.0073885
0.0073978
0.263387
0.267144
0.268224
0.264866
0.257934
0.248321
0.236427
0.22405
0.21137
0.198919
0.188294
0.179489
0.171996
0.168198
0.166605
0.166087
0.170221
0.174625
0.177518
0.183181
0.186217
0.186754
0.191988
0.199102
0.211129
0.236038
0.264051
0.288912
0.322041
0.3545
0.371688
0.393823
0.42968
0.454348
0.473699
0.521556
0.591
0.650718
0.707285
0.783919
0.861314
0.887877
0.832956
0.726955
0.625596
0.553509
0.50583
0.47268
0.4489
0.430806
0.414178
0.396563
0.379016
0.364262
0.353561
0.345304
0.336154
0.322738
0.30259
0.274599
0.239638
0.200367
0.160331
0.122993
0.0909871
0.0656363
0.0469346
0.033965
0.025378
0.0198846
0.0164047
0.0141734
0.0126618
0.011573
0.010718
0.0100285
0.00944983
0.00898706
0.00861221
0.00833532
0.00811901
0.00796919
0.00784632
0.00776261
0.00768249
0.00762749
0.00756702
0.00753068
0.00748745
0.0074691
0.00744079
0.007436
0.00741726
0.00742066
0.00740691
0.00741486
0.00740388
0.00741501
0.00740719
0.00742347
0.175901
0.179351
0.181336
0.180311
0.176676
0.17055
0.16329
0.156178
0.149822
0.145185
0.142656
0.142049
0.143385
0.14657
0.150429
0.154976
0.161035
0.16711
0.174355
0.184451
0.195969
0.210437
0.229715
0.253039
0.281131
0.314501
0.346747
0.377666
0.412904
0.442383
0.461636
0.489924
0.526826
0.55332
0.584041
0.643128
0.713348
0.771103
0.832435
0.915936
0.998657
1.0325
0.985379
0.87368
0.747653
0.645709
0.572461
0.521211
0.485288
0.458359
0.435815
0.415493
0.398273
0.386106
0.378733
0.372927
0.364572
0.35067
0.329085
0.298858
0.26105
0.218569
0.175413
0.135428
0.101327
0.0743988
0.0545093
0.0405968
0.031143
0.0248338
0.0205823
0.0176438
0.0154733
0.0138054
0.0124346
0.0113256
0.0103914
0.00966311
0.00906878
0.00864761
0.00831257
0.00810266
0.00792484
0.0078318
0.00773171
0.00769474
0.00762832
0.00761965
0.00757018
0.00757959
0.00753949
0.00756064
0.00752463
0.00755347
0.00751885
0.00755345
0.00752008
0.00756116
0.00753347
0.00758558
0.104844
0.108504
0.111657
0.114206
0.116314
0.118013
0.120756
0.124978
0.130941
0.139196
0.148752
0.159619
0.171375
0.183063
0.194424
0.205569
0.216724
0.228008
0.240804
0.255819
0.272754
0.293003
0.316906
0.344431
0.375428
0.408042
0.440126
0.474029
0.509378
0.537894
0.563124
0.597193
0.632378
0.660683
0.69901
0.755591
0.811257
0.860054
0.923832
1.01126
1.0961
1.13891
1.11443
1.01963
0.888297
0.768672
0.676654
0.608529
0.558167
0.519001
0.486942
0.460397
0.440114
0.427089
0.419576
0.412732
0.402138
0.385352
0.360459
0.326875
0.285931
0.240428
0.194311
0.151847
0.115927
0.087886
0.06729
0.0528782
0.0428696
0.035886
0.0307319
0.0267359
0.0233153
0.0203934
0.0177477
0.0155237
0.0135759
0.0120943
0.01086
0.0100384
0.00935019
0.00897537
0.00861423
0.00849294
0.0083035
0.00832204
0.00821223
0.00829876
0.00820925
0.00832129
0.00822409
0.00834711
0.00823494
0.00836797
0.00824392
0.00839145
0.00826231
0.00843601
0.00832158
0.00854171
0.119125
0.123354
0.127971
0.133763
0.141163
0.150161
0.161378
0.174435
0.188928
0.204807
0.220705
0.236791
0.252237
0.266482
0.279771
0.292509
0.304745
0.317269
0.331222
0.346593
0.36445
0.385934
0.410824
0.438255
0.467376
0.498236
0.531504
0.567256
0.601569
0.6306
0.660158
0.693582
0.722474
0.7467
0.777638
0.815081
0.851176
0.894124
0.961054
1.04947
1.13317
1.18169
1.17877
1.11776
1.0081
0.889194
0.790122
0.709774
0.644873
0.591729
0.547639
0.511864
0.485375
0.468427
0.457421
0.446336
0.431182
0.409939
0.38088
0.343749
0.300284
0.253722
0.207703
0.166215
0.131676
0.105187
0.085686
0.0719901
0.0621955
0.0552319
0.0494855
0.0446
0.0397131
0.035226
0.0306452
0.0266507
0.0227907
0.019864
0.0172114
0.0155587
0.013997
0.0132901
0.0124332
0.0123257
0.0118937
0.0121663
0.0119358
0.0123807
0.0121574
0.0126373
0.0123367
0.0128191
0.0124367
0.0129334
0.0124997
0.0130352
0.0125815
0.0132115
0.0128039
0.0136143
0.2048
0.208805
0.213498
0.219836
0.228464
0.239017
0.25195
0.26623
0.281535
0.297395
0.312545
0.327382
0.3413
0.353863
0.365824
0.377606
0.389204
0.401337
0.414993
0.42995
0.447203
0.467583
0.490106
0.514301
0.541309
0.572632
0.607981
0.643444
0.67469
0.701418
0.727227
0.750458
0.765601
0.776055
0.790382
0.810505
0.837638
0.881063
0.950666
1.03746
1.11745
1.16718
1.1769
1.14283
1.06535
0.966014
0.869072
0.781567
0.705204
0.640438
0.586034
0.542429
0.511028