/*--------------------------------*- C++ -*----------------------------------*\
| =========                 |                                                 |
| \\      /  F ield         | OpenFOAM: The Open Source CFD Toolbox           |
|  \\    /   O peration     | Version:  v2012                                 |
|   \\  /    A nd           | Website:  www.openfoam.com                      |
|    \\/     M anipulation  |                                                 |
\*---------------------------------------------------------------------------*/
FoamFile
{
    version     2.0;
    format      ascii;
    class       volScalarField;
    location    "0.357";
    object      nut.air;
}
// * * * * * * * * * * * * * * * * * * * * * * * * * * * * * * * * * * * * * //

dimensions      [0 2 -1 0 0 0 0];


internalField   nonuniform List<scalar> 
5600
(
2.45137e-05
3.47343e-05
4.04099e-05
4.24622e-05
4.22723e-05
4.09699e-05
3.92094e-05
3.75386e-05
3.61135e-05
3.49465e-05
3.40612e-05
3.34371e-05
3.30371e-05
3.28048e-05
3.26958e-05
3.26597e-05
3.26714e-05
3.2698e-05
3.27371e-05
3.27664e-05
3.28012e-05
3.28209e-05
3.28513e-05
3.28751e-05
3.29122e-05
3.29409e-05
3.298e-05
3.30113e-05
3.30504e-05
3.30788e-05
3.31119e-05
3.31318e-05
3.31556e-05
3.31661e-05
3.31822e-05
3.31859e-05
3.3197e-05
3.31964e-05
3.32045e-05
3.32013e-05
3.3208e-05
3.32039e-05
3.32107e-05
3.32064e-05
3.32142e-05
3.32106e-05
3.32198e-05
3.32168e-05
3.32272e-05
3.3224e-05
3.32356e-05
3.32323e-05
3.32444e-05
3.32414e-05
3.3255e-05
3.3252e-05
3.32672e-05
3.32646e-05
3.32816e-05
3.32796e-05
3.32988e-05
3.32966e-05
3.33181e-05
3.33157e-05
3.33395e-05
3.33365e-05
3.33629e-05
3.33592e-05
3.33881e-05
3.33833e-05
3.34153e-05
3.3409e-05
3.34444e-05
3.34363e-05
3.34754e-05
3.34653e-05
3.35081e-05
3.3496e-05
3.35422e-05
3.35284e-05
3.35768e-05
3.35628e-05
3.36106e-05
3.36003e-05
3.36415e-05
3.36436e-05
3.36648e-05
3.3699e-05
3.3671e-05
3.37818e-05
3.364e-05
3.39263e-05
3.35128e-05
3.42324e-05
3.31015e-05
3.50342e-05
3.17321e-05
3.75741e-05
2.64774e-05
4.69968e-05
0.000151655
0.000137411
0.000112244
9.86283e-05
9.38992e-05
9.49503e-05
0.0001021
0.000110118
0.000116486
0.000124313
0.000132733
0.000141231
0.000149476
0.000157248
0.000164432
0.000170934
0.000176813
0.000182054
0.000186793
0.000191042
0.00019501
0.000198592
0.000202117
0.00020534
0.000208509
0.00021131
0.000214078
0.000216511
0.000218891
0.00022089
0.000222823
0.000224386
0.000225926
0.00022715
0.000228416
0.000229394
0.000230458
0.000231252
0.000232167
0.000232822
0.000233634
0.000234191
0.000234932
0.000235413
0.000236126
0.000236567
0.000237248
0.000237636
0.000238277
0.000238606
0.000239218
0.000239487
0.000240078
0.000240311
0.000240888
0.000241082
0.000241664
0.000241824
0.000242417
0.000242554
0.000243154
0.000243254
0.000243875
0.000243936
0.00024458
0.000244599
0.00024527
0.000245246
0.00024595
0.00024587
0.000246625
0.000246488
0.000247297
0.000247094
0.000247966
0.000247693
0.000248633
0.000248288
0.000249296
0.000248879
0.00024994
0.00024947
0.000250546
0.000250076
0.000251083
0.00025074
0.000251492
0.000251555
0.00025165
0.00025275
0.000251288
0.000254692
0.000249811
0.000258247
0.000245754
0.000265717
0.00023539
0.000282673
0.000209837
0.000288057
0.000156518
0.000151561
0.000143043
0.000135159
0.000125256
0.000120722
0.000113774
0.000109697
0.000108718
0.000109798
0.000112693
0.000117421
0.000123689
0.00013136
0.000140262
0.000150357
0.000161497
0.000173778
0.000187124
0.000201699
0.000217068
0.000232803
0.000246169
0.000258351
0.000270147
0.000281003
0.000290615
0.000298316
0.000305526
0.000311689
0.000317727
0.000322969
0.000328301
0.000332834
0.000337504
0.000341389
0.000345493
0.000348844
0.000352499
0.000355428
0.000358735
0.000361328
0.000364364
0.000366683
0.000369497
0.000371535
0.000374112
0.000375891
0.000378273
0.000379832
0.000382066
0.000383441
0.000385566
0.000386787
0.000388839
0.000389921
0.000391921
0.000392871
0.000394837
0.000395661
0.000397607
0.000398303
0.000400245
0.000400809
0.000402766
0.000403194
0.000405183
0.000405472
0.000407515
0.00040766
0.000409779
0.000409766
0.000411987
0.000411794
0.000414146
0.000413741
0.000416256
0.000415601
0.000418309
0.000417364
0.000420306
0.000419027
0.000422252
0.000420595
0.000424165
0.000422067
0.000426073
0.000423435
0.000428018
0.000424657
0.000430104
0.000425586
0.000432587
0.000425882
0.000436133
0.000424799
0.000442264
0.000421274
0.000431754
0.000409142
0.00015782
0.000153991
0.000150101
0.000146745
0.000142723
0.000139185
0.00013563
0.000131419
0.000128288
0.000124805
0.000123097
0.000119897
0.000117483
0.000115641
0.000115608
0.000116674
0.000119883
0.000124564
0.000131364
0.000139702
0.000150246
0.000162276
0.000176365
0.000191122
0.000207229
0.000223405
0.000238991
0.00025258
0.000266719
0.000279634
0.000293133
0.000305202
0.00031779
0.000329047
0.000340709
0.000351049
0.000361826
0.000371316
0.000381297
0.000389951
0.00039911
0.00040685
0.000415356
0.000422013
0.000428657
0.000433756
0.000439808
0.000444314
0.000449912
0.000453927
0.000459173
0.000462774
0.000467742
0.00047098
0.000475728
0.000478638
0.000483216
0.000485823
0.000490271
0.000492592
0.000496941
0.000498982
0.000503266
0.000505028
0.000509282
0.000510765
0.000515024
0.000516222
0.00052053
0.000521431
0.000525826
0.000526412
0.000530938
0.00053117
0.000535878
0.000535707
0.000540672
0.00054
0.000545293
0.000544028
0.000549767
0.000547792
0.000554139
0.000551293
0.000558467
0.000554507
0.000562836
0.00055738
0.000567349
0.000559827
0.000572156
0.000561725
0.00057742
0.000563056
0.000583123
0.000564204
0.000588533
0.000566577
0.000591932
0.00057177
0.00015812
0.000154599
0.000151656
0.000149045
0.000146779
0.000144433
0.000142543
0.000140271
0.000138566
0.000136341
0.000134865
0.000132734
0.000131157
0.000128896
0.000127411
0.000125348
0.000124318
0.000121671
0.000121104
0.000119633
0.000120911
0.000121774
0.000125817
0.000129863
0.000137193
0.000144575
0.000155145
0.00016562
0.000178871
0.000191872
0.000207204
0.000222009
0.000235663
0.000247559
0.000261114
0.000273006
0.000286524
0.000298283
0.000311711
0.000323296
0.000336536
0.000347858
0.000360887
0.000371805
0.000384285
0.000394468
0.000406249
0.00041567
0.000426836
0.000435561
0.000446215
0.000454288
0.000464465
0.000471905
0.000481784
0.000488658
0.000498184
0.000504499
0.000513728
0.000519477
0.000528462
0.000533639
0.000542425
0.00054702
0.000555647
0.000559674
0.000568214
0.00057168
0.000580194
0.000583125
0.000591699
0.000594114
0.000602748
0.000604644
0.000613388
0.000614658
0.000622777
0.000622868
0.000631334
0.000630606
0.000639582
0.000637911
0.000647585
0.000644803
0.000655399
0.000651298
0.00066307
0.000657409
0.000670617
0.000663201
0.000677969
0.000668868
0.000684851
0.000674876
0.000690522
0.000682023
0.000694427
0.000691061
0.000696396
0.000700602
0.000158192
0.00015477
0.000152061
0.000149653
0.000147751
0.000145799
0.000144372
0.000142618
0.000141522
0.00013982
0.000139005
0.000137274
0.000136741
0.000134888
0.000134644
0.000132601
0.000132693
0.000130315
0.000130607
0.000127928
0.000128534
0.000125737
0.00012686
0.000123997
0.000125374
0.000123046
0.000125513
0.000124622
0.000128846
0.000130133
0.000136648
0.000140588
0.000149634
0.000156047
0.000167243
0.000175812
0.00018891
0.000199304
0.000214056
0.000225959
0.000242105
0.00025183
0.000264418
0.000274133
0.000287129
0.000297096
0.000310323
0.000320336
0.00033366
0.000343599
0.00035697
0.000366772
0.000380143
0.000389774
0.000403232
0.00041261
0.000425884
0.000434784
0.000447834
0.000456138
0.000468964
0.000476681
0.000489333
0.000496461
0.000508979
0.000515559
0.000527972
0.00053402
0.000546499
0.000552186
0.000564721
0.000569834
0.00058233
0.00058686
0.000599338
0.000603256
0.000615726
0.000618957
0.000631419
0.000633919
0.000646323
0.000648222
0.000660492
0.000661983
0.000673945
0.000675298
0.000686671
0.000688297
0.000698581
0.000701114
0.000709573
0.000713786
0.000719937
0.000726164
0.000729997
0.00073746
0.000740974
0.000746745
0.000755262
0.000761718
0.000158212
0.000154826
0.000152182
0.000149837
0.000148036
0.000146181
0.000144908
0.000143275
0.000142398
0.000140832
0.000140291
0.00013869
0.000138467
0.000136757
0.000136855
0.000134971
0.000135408
0.000133299
0.000134092
0.000131701
0.000132877
0.000130161
0.000131759
0.000128676
0.00013068
0.000127195
0.000129664
0.000125842
0.000128844
0.000124849
0.000128403
0.000124218
0.000128376
0.000124614
0.000129675
0.000126916
0.000133154
0.000131941
0.000139622
0.000140389
0.000149728
0.000152665
0.000163578
0.000168373
0.000180757
0.000187243
0.000200985
0.000208943
0.000223896
0.000233072
0.00024907
0.000259219
0.000275432
0.000282421
0.00029517
0.000302529
0.000315677
0.00032321
0.000336642
0.000344281
0.000357956
0.000365628
0.000379491
0.000387141
0.000401182
0.000408767
0.000422964
0.000430413
0.000444857
0.000452246
0.000466812
0.000473953
0.000488471
0.000495264
0.000509655
0.000516078
0.000530313
0.000536455
0.000550475
0.000556382
0.000570057
0.000575859
0.00058909
0.000594931
0.000607591
0.000613721
0.000625395
0.000632161
0.000642563
0.000650207
0.000659177
0.00066784
0.000675474
0.000684736
0.000691692
0.000700706
0.000708298
0.00071668
0.000726351
0.000738981
0.000158218
0.000154849
0.000152221
0.000149908
0.000148125
0.00014632
0.000145069
0.000143507
0.000142653
0.000141186
0.00014066
0.0001392
0.000138971
0.000137446
0.000137511
0.000135859
0.00013623
0.0001344
0.00013509
0.000133037
0.00013407
0.000131748
0.000133153
0.00013052
0.000132329
0.000129347
0.00013158
0.000128227
0.000130913
0.000127161
0.000130345
0.000126139
0.000129856
0.000125191
0.000129471
0.000124401
0.000129255
0.000123883
0.000129336
0.000123685
0.000129651
0.000124025
0.000130632
0.000125398
0.000132735
0.000128303
0.000136476
0.000133235
0.000142368
0.000140653
0.000150855
0.000150851
0.000162204
0.000163972
0.000176317
0.000179583
0.000192893
0.000197566
0.000211779
0.000217735
0.000232774
0.000239869
0.000255643
0.0002637
0.000280099
0.000288947
0.000305866
0.00031245
0.000325208
0.000330786
0.000343569
0.000349577
0.000362505
0.000368989
0.000381912
0.000388927
0.000401777
0.000409187
0.000421908
0.000429811
0.0004423
0.000450743
0.000462895
0.000471934
0.000483646
0.000493364
0.000504552
0.000514963
0.00052564
0.000536686
0.000547026
0.000558561
0.000568607
0.000580624
0.0005905
0.000603159
0.000612899
0.000627044
0.00063741
0.000655485
0.000158218
0.000154864
0.000152229
0.000149947
0.000148144
0.000146394
0.000145103
0.000143628
0.000142704
0.000141368
0.00014073
0.000139455
0.000139063
0.000137788
0.000137631
0.000136304
0.000136377
0.000134963
0.000135264
0.000133733
0.00013427
0.000132588
0.000133376
0.000131515
0.000132564
0.000130509
0.000131815
0.00012956
0.00013113
0.000128649
0.000130515
0.000127768
0.00012996
0.000126936
0.000129444
0.000126164
0.000128981
0.000125444
0.000128592
0.00012478
0.00012827
0.000124182
0.000128033
0.000123679
0.000127907
0.000123318
0.000127935
0.000123174
0.000128171
0.000123289
0.000128596
0.000123755
0.000129409
0.000124845
0.000130888
0.000126842
0.00013332
0.000130078
0.000137043
0.00013486
0.000142381
0.000141467
0.000149637
0.000150151
0.000159035
0.000161056
0.000170702
0.000174296
0.000184565
0.000189497
0.00020028
0.000206522
0.000217786
0.000225272
0.000236991
0.000245644
0.000257788
0.000267517
0.000280004
0.000290721
0.000303473
0.000315079
0.000328015
0.000340389
0.000353435
0.000366473
0.000379572
0.000393161
0.000406271
0.000420265
0.000432801
0.000447373
0.000460018
0.000475054
0.000488174
0.00050259
0.000515515
0.000529983
0.000542435
0.000556688
0.000158216
0.000154875
0.000152225
0.000149975
0.000148138
0.000146445
0.000145093
0.000143709
0.000142687
0.000141486
0.000140704
0.000139619
0.000139027
0.000138003
0.000137581
0.00013658
0.000136309
0.000135311
0.000135174
0.000134162
0.000134156
0.000133106
0.000133235
0.000132131
0.000132388
0.000131232
0.0001316
0.000130397
0.000130871
0.000129604
0.0001302
0.000128848
0.000129573
0.000128144
0.000128967
0.000127489
0.000128393
0.000126866
0.000127856
0.000126276
0.000127351
0.000125721
0.00012688
0.000125203
0.000126444
0.000124731
0.000126045
0.00012432
0.00012568
0.000123982
0.00012537
0.000123719
0.000125118
0.00012356
0.000124971
0.00012352
0.000124958
0.000123659
0.000125135
0.000124051
0.000125572
0.000124781
0.000126401
0.000125932
0.000127721
0.000127691
0.000129735
0.000130363
0.000132747
0.000134202
0.000137015
0.000139462
0.000142883
0.000146405
0.000150564
0.000155256
0.000160298
0.000166264
0.000172268
0.000179534
0.000186584
0.00019518
0.000203347
0.000213247
0.000222507
0.000233643
0.000243994
0.000256282
0.000267684
0.000280997
0.0002934
0.000307646
0.000321018
0.000336137
0.000350341
0.000366049
0.000380874
0.00039698
0.000412242
0.000428424
0.000158214
0.000154881
0.000152218
0.000149987
0.000148123
0.000146466
0.000145068
0.000143742
0.000142647
0.000141534
0.000140649
0.000139683
0.000138955
0.000138086
0.000137488
0.000136686
0.000136192
0.000135442
0.00013503
0.00013432
0.000133982
0.000133294
0.00013303
0.00013235
0.000132151
0.000131483
0.000131331
0.000130678
0.000130568
0.000129921
0.00012986
0.000129205
0.000129193
0.000128538
0.000128555
0.000127917
0.000127952
0.000127329
0.000127387
0.000126779
0.000126856
0.000126267
0.000126368
0.000125796
0.000125924
0.000125376
0.000125533
0.000125025
0.000125193
0.000124749
0.000124932
0.00012457
0.000124761
0.000124523
0.000124738
0.000124632
0.000124914
0.000124971
0.000125358
0.000125621
0.000126104
0.000126659
0.000127334
0.000128276
0.000129285
0.00013072
0.000132185
0.000134287
0.000136331
0.000139239
0.000141994
0.000145836
0.000149474
0.000154332
0.000158969
0.000164919
0.000170657
0.000177769
0.000184666
0.000192953
0.000201044
0.000210517
0.000219821
0.000230348
0.000240639
0.000252113
0.00026336
0.00027575
0.000287917
0.00030113
0.000314168
0.000328135
0.000341982
0.000356605
0.00037118
0.000386392
0.000401671
0.000417445
0.000433476
0.000449927
0.000158211
0.00015488
0.000152207
0.000149982
0.000148101
0.000146455
0.000145028
0.000143725
0.000142588
0.000141508
0.000140568
0.000139645
0.000138849
0.000138035
0.000137352
0.000136619
0.000136022
0.000135357
0.000134823
0.000134215
0.000133734
0.000133168
0.000132736
0.000132201
0.000131812
0.000131306
0.00013095
0.000130473
0.000130146
0.000129693
0.000129398
0.000128965
0.000128702
0.000128297
0.000128057
0.000127694
0.000127482
0.000127164
0.000126983
0.000126716
0.000126575
0.000126377
0.0001263
0.000126196
0.000126211
0.000126244
0.0001264
0.000126579
0.000126868
0.000127293
0.000127856
0.000128675
0.000129665
0.000131053
0.000132648
0.000134774
0.000137175
0.000140207
0.000143594
0.000147695
0.000152208
0.000157492
0.000163225
0.000169762
0.000176775
0.0001845
0.000192561
0.000201311
0.000210372
0.000220109
0.000230119
0.000240793
0.000251692
0.000263217
0.000274914
0.000287193
0.000299582
0.000312508
0.000325473
0.000338924
0.000352351
0.000366224
0.000377432
0.000387778
0.000398225
0.000408894
0.000419942
0.000431316
0.00044291
0.000454945
0.000467243
0.000479984
0.000493016
0.000506524
0.000520325
0.000534595
0.000549015
0.000563782
0.000578116
0.000592436
0.000158208
0.000154872
0.000152189
0.000149958
0.000148061
0.000146409
0.000144958
0.00014365
0.00014248
0.000141396
0.000140414
0.000139485
0.000138639
0.00013782
0.000137078
0.00013634
0.000135676
0.000135005
0.000134399
0.000133784
0.000133225
0.000132655
0.000132139
0.000131607
0.000131129
0.000130631
0.000130193
0.000129732
0.000129341
0.000128921
0.000128572
0.000128192
0.000127915
0.000127612
0.000127446
0.000127284
0.000127309
0.000127347
0.000127525
0.000127863
0.000128476
0.00012937
0.000130683
0.00013241
0.000134708
0.000137558
0.000141115
0.000145349
0.000150384
0.000156172
0.00016281
0.000170191
0.00017822
0.000186972
0.00019633
0.000206369
0.000216961
0.000228175
0.000239877
0.000252123
0.000264783
0.000277901
0.000291357
0.000305189
0.000317297
0.000326972
0.000336684
0.000346553
0.000356603
0.000366785
0.000377152
0.000387626
0.000398159
0.000408818
0.000419532
0.000430354
0.000441222
0.000452177
0.000463168
0.000474213
0.000485295
0.000496396
0.00050754
0.000518774
0.000530032
0.000541312
0.000552563
0.000563776
0.000574919
0.000586012
0.000597037
0.000608054
0.000619007
0.000629962
0.000640817
0.000651679
0.000662319
0.000672846
0.000682859
0.000692623
0.000158201
0.000154852
0.000152147
0.000149893
0.000147964
0.00014628
0.000144783
0.000143432
0.0001422
0.000141063
0.000140002
0.000139011
0.000138071
0.000137184
0.000136333
0.000135526
0.000134744
0.000133999
0.000133263
0.000132567
0.000131871
0.000131224
0.000130573
0.000129935
0.000129309
0.00012873
0.000128205
0.000127784
0.000127515
0.000127332
0.000127254
0.000127554
0.000128206
0.000129464
0.000131317
0.000134007
0.000137508
0.000142038
0.00014755
0.000154178
0.000161719
0.000170213
0.000179568
0.000189788
0.0002008
0.000212558
0.00022502
0.000238083
0.000251765
0.000265897
0.000279407
0.000289753
0.00030046
0.000311288
0.000322241
0.000333343
0.000344536
0.000355835
0.000367183
0.000378605
0.000390051
0.00040155
0.000413057
0.000424596
0.000436118
0.000447742
0.00045939
0.000470992
0.000482532
0.000493939
0.000505234
0.000516374
0.000527379
0.000538223
0.000548975
0.000559559
0.000570043
0.000580355
0.000590577
0.00060062
0.000610599
0.000620376
0.000630097
0.000639755
0.000649382
0.000658916
0.000668278
0.000677507
0.000686598
0.00069555
0.000704328
0.000712992
0.000721463
0.000729802
0.000737938
0.000745884
0.000753677
0.000761093
0.000767905
0.000774298
0.00015818
0.000154796
0.000152025
0.000149708
0.000147678
0.000145885
0.00014425
0.000142742
0.000141336
0.000139995
0.000138742
0.000137534
0.000136376
0.000135254
0.000134155
0.000133114
0.000132009
0.000130917
0.000129759
0.000128735
0.000127687
0.000126989
0.000126192
0.000125617
0.000125485
0.000126056
0.000127483
0.000130024
0.000133757
0.000138906
0.000145435
0.000153381
0.000162456
0.000172788
0.000184122
0.000196524
0.000209805
0.000223957
0.000238876
0.000252112
0.000263734
0.000275574
0.000287596
0.000299794
0.000312071
0.000324414
0.000336756
0.000349116
0.000361436
0.000373756
0.000385975
0.000398236
0.00041042
0.000422465
0.000434319
0.000445962
0.000457376
0.000468563
0.000479524
0.000490273
0.000500818
0.000511175
0.00052135
0.000531347
0.000541165
0.000550919
0.0005606
0.000570086
0.000579436
0.000588592
0.000597613
0.000606431
0.000615122
0.000623601
0.000631912
0.00063999
0.000647892
0.000655582
0.000663103
0.000670452
0.000677648
0.000684641
0.000691521
0.000698229
0.000704851
0.000711333
0.000717714
0.000723963
0.000730114
0.00073616
0.000742098
0.000747907
0.000753591
0.000759156
0.000764646
0.000769891
0.000775091
0.00077989
0.000784281
0.000788341
0.000158113
0.000154621
0.000151612
0.000149104
0.000146667
0.000144525
0.000142363
0.000140373
0.000138357
0.000136484
0.000134756
0.00013283
0.000131009
0.000129044
0.000127407
0.00012579
0.000124096
0.000122533
0.000121923
0.000122154
0.000123947
0.000127099
0.000132222
0.000138946
0.000147623
0.000157905
0.000169837
0.000183112
0.000197721
0.000213313
0.000228932
0.000242197
0.000255552
0.00026898
0.000282357
0.000295723
0.000309003
0.00032225
0.000335342
0.000348353
0.000361186
0.000373824
0.000386137
0.000398075
0.00040959
0.000420739
0.000431498
0.000441957
0.000452057
0.000461894
0.000471348
0.000480613
0.00048959
0.000498319
0.000506802
0.000515048
0.000523057
0.000530836
0.00053839
0.000545726
0.000552852
0.000559777
0.000566515
0.00057307
0.000579459
0.000585678
0.000591778
0.000597723
0.000603566
0.000609252
0.000614857
0.0006203
0.000625695
0.00063043
0.000634844
0.000639137
0.000643333
0.000647421
0.000651428
0.000655336
0.000659179
0.000662927
0.000666622
0.000670226
0.000673789
0.000677262
0.000680704
0.000684052
0.000687377
0.000690606
0.000693819
0.000696937
0.000700044
0.000703058
0.000706061
0.000708966
0.00071186
0.000714636
0.000717335
0.000719895
0.000157849
0.000153942
0.0001501
0.000146712
0.000142569
0.000139331
0.000135252
0.000131833
0.0001282
0.000126014
0.000123572
0.000120696
0.00011865
0.000117785
0.000118586
0.00012103
0.000125567
0.000131889
0.000140408
0.000150791
0.000163414
0.000177688
0.000193332
0.000209789
0.000227091
0.000242474
0.000257121
0.00027149
0.000285534
0.000299174
0.000312289
0.000324999
0.000337192
0.0003489
0.000360094
0.00037086
0.000381149
0.000391039
0.000400402
0.000409337
0.000417818
0.000426067
0.000433041
0.000439198
0.000445007
0.000450519
0.00045576
0.000460767
0.000465557
0.00047016
0.000474581
0.000478845
0.000482955
0.000486931
0.000490774
0.000494501
0.000498109
0.000501614
0.000505012
0.000508318
0.000511528
0.000514656
0.000517701
0.000520673
0.000523574
0.000526409
0.000529183
0.000531895
0.000534553
0.000537148
0.000539696
0.000542181
0.000544622
0.000547009
0.000549339
0.000551605
0.000553819
0.000555973
0.000558084
0.00056014
0.000562164
0.000564134
0.000566082
0.000567977
0.000569859
0.00057169
0.000573516
0.000575289
0.000577063
0.000578778
0.0005805
0.000582162
0.000583837
0.000585446
0.000587075
0.000588622
0.000590195
0.000591648
0.000593039
0.000594294
0.000156641
0.000151208
0.000143351
0.000134629
0.000126078
0.000120991
0.000115009
0.000112504
0.000112457
0.00011419
0.000117961
0.000123463
0.000130604
0.000139124
0.000149054
0.000160159
0.000172603
0.000186205
0.000201284
0.000217285
0.000233493
0.000246946
0.000259667
0.000271868
0.000283091
0.000294115
0.000302629
0.000310054
0.00031674
0.000322879
0.000328612
0.000333955
0.000338909
0.000343511
0.000347778
0.00035176
0.000355474
0.00035897
0.000362254
0.00036537
0.000368317
0.000371131
0.000373814
0.000376352
0.000378747
0.000381013
0.000383158
0.000385201
0.000387146
0.000389013
0.000390802
0.000392533
0.000394202
0.000395821
0.000397386
0.000398908
0.000400383
0.000401819
0.000403212
0.00040457
0.000405891
0.00040718
0.000408437
0.000409667
0.000410869
0.000412048
0.000413206
0.000414343
0.000415462
0.00041656
0.000417644
0.000418705
0.000419752
0.000420779
0.000421789
0.000422775
0.000423741
0.000424682
0.000425607
0.000426508
0.000427399
0.000428265
0.000429127
0.000429964
0.000430802
0.000431615
0.000432435
0.000433229
0.000434034
0.00043481
0.0004356
0.000436359
0.000437137
0.000437878
0.000438644
0.000439353
0.000440095
0.000440743
0.000441343
0.000441815
0.000151621
0.000136817
0.000113478
9.95201e-05
9.76017e-05
9.81307e-05
0.000110573
0.000115045
0.000121818
0.000129687
0.000137976
0.000146235
0.000154211
0.000161681
0.000168583
0.000174824
0.000180491
0.000185568
0.000190197
0.000194424
0.000198337
0.000202068
0.000205555
0.00020885
0.00021187
0.000214679
0.000217312
0.000219723
0.000221894
0.000223822
0.000225516
0.000227019
0.000228355
0.000229554
0.00023063
0.000231604
0.000232487
0.000233297
0.000234044
0.000234739
0.000235393
0.000236004
0.000236596
0.000237174
0.000237731
0.000238264
0.000238769
0.00023925
0.000239705
0.000240141
0.000240557
0.00024096
0.00024135
0.000241732
0.000242104
0.000242472
0.000242833
0.000243191
0.000243543
0.000243891
0.000244234
0.000244573
0.00024491
0.00024524
0.000245565
0.000245888
0.000246207
0.000246524
0.00024684
0.000247153
0.000247465
0.000247776
0.000248087
0.000248397
0.000248707
0.000249014
0.00024932
0.000249621
0.00024992
0.000250212
0.000250502
0.000250785
0.000251068
0.000251343
0.000251621
0.000251891
0.000252165
0.000252433
0.000252706
0.000252972
0.000253244
0.00025351
0.000253781
0.000254049
0.000254319
0.000254582
0.000254848
0.000255066
0.000255286
0.000255444
2.45432e-05
3.47523e-05
4.04101e-05
4.23028e-05
4.20136e-05
4.05608e-05
3.87137e-05
3.70559e-05
3.56101e-05
3.44451e-05
3.35764e-05
3.29762e-05
3.25986e-05
3.2385e-05
3.2287e-05
3.22583e-05
3.22697e-05
3.2298e-05
3.23311e-05
3.23649e-05
3.23935e-05
3.24264e-05
3.24614e-05
3.24994e-05
3.2539e-05
3.25762e-05
3.26142e-05
3.26515e-05
3.26862e-05
3.27167e-05
3.27414e-05
3.27608e-05
3.27749e-05
3.27852e-05
3.27918e-05
3.27959e-05
3.27976e-05
3.2798e-05
3.27971e-05
3.27957e-05
3.27941e-05
3.27925e-05
3.27911e-05
3.27904e-05
3.27903e-05
3.27907e-05
3.27914e-05
3.27924e-05
3.27936e-05
3.2795e-05
3.27966e-05
3.27986e-05
3.28009e-05
3.28039e-05
3.28074e-05
3.28116e-05
3.28164e-05
3.28219e-05
3.28281e-05
3.28348e-05
3.28422e-05
3.28501e-05
3.28587e-05
3.28677e-05
3.28773e-05
3.28873e-05
3.28978e-05
3.29087e-05
3.29202e-05
3.29321e-05
3.29447e-05
3.29577e-05
3.29712e-05
3.29852e-05
3.29996e-05
3.30144e-05
3.30297e-05
3.30451e-05
3.30609e-05
3.30767e-05
3.30929e-05
3.3109e-05
3.31255e-05
3.3142e-05
3.31588e-05
3.31756e-05
3.31928e-05
3.321e-05
3.32277e-05
3.32454e-05
3.32637e-05
3.32817e-05
3.33007e-05
3.3319e-05
3.33391e-05
3.33577e-05
3.33784e-05
3.33985e-05
3.34186e-05
3.34392e-05
1.00854e-05
0.000682926
0.00119385
0.00158386
0.00194069
0.00222099
0.00242705
0.00246847
0.00246041
0.00244548
0.00242913
0.00241995
0.00242315
0.00243662
0.00245631
0.00248159
0.00251178
0.00254743
0.00259031
0.00263909
0.00269441
0.00275506
0.00281906
0.00288755
0.00296162
0.00303819
0.00311421
0.00319183
0.00326504
0.00333943
0.0033584
0.00336309
0.00336532
0.00336513
0.00336274
0.0033583
0.00335208
0.00334422
0.00333484
0.00332406
0.00331195
0.00329862
0.00328412
0.00326858
0.00325201
0.00323459
0.00321623
0.00319717
0.00317725
0.00315679
0.00313545
0.00311374
0.00309109
0.00306824
0.00304429
0.00302041
0.00299507
0.00297018
0.00294337
0.00291748
0.00288906
0.00286214
0.00283196
0.00280392
0.00277201
0.00274241
0.00270905
0.00267725
0.00264283
0.00260812
0.00257242
0.0025351
0.00249748
0.00245826
0.00241829
0.00237778
0.00233707
0.00229609
0.002256
0.00221561
0.00217722
0.00214028
0.00210462
0.0020733
0.00203901
0.00201596
0.00198186
0.00196916
0.00193442
0.00192827
0.00189524
0.00188936
0.00186459
0.00185202
0.00183622
0.00181187
0.00180266
0.00176962
0.00176748
0.00173215
0.000170024
0.000440855
0.000878124
0.00126745
0.0016153
0.00189627
0.00211024
0.00225971
0.00236358
0.0023603
0.00234108
0.00233159
0.00232914
0.00233279
0.00234252
0.0023589
0.00238182
0.00241116
0.00244821
0.00249023
0.00253611
0.00258607
0.00263995
0.00269812
0.00276253
0.00283173
0.00290396
0.00297996
0.00306371
0.00315081
0.00323833
0.00325494
0.00326321
0.00326853
0.00327126
0.00327166
0.00327004
0.00326657
0.00326138
0.0032546
0.00324633
0.00323667
0.00322569
0.00321352
0.00320016
0.0031858
0.00317038
0.00315412
0.00313686
0.00311892
0.00309998
0.00308054
0.00306003
0.00303921
0.00301715
0.00299505
0.00297135
0.00294798
0.00292257
0.00289795
0.00287065
0.00284473
0.00281544
0.00278812
0.00275686
0.00272769
0.00269479
0.00266313
0.00262901
0.00259422
0.00255868
0.00252112
0.00248361
0.00244416
0.00240431
0.00236379
0.00232339
0.00228284
0.00224343
0.00220396
0.00216689
0.00213136
0.00209797
0.00206834
0.00203745
0.00201608
0.00198649
0.00197536
0.00194588
0.00194095
0.00191317
0.0019081
0.00188812
0.00187631
0.00186417
0.00184093
0.00183345
0.00180222
0.00180025
0.00176756
0.000472185
0.000385212
0.000567475
0.000877286
0.00120386
0.00148388
0.00170605
0.00187015
0.00199059
0.00207689
0.00214187
0.00219847
0.00221559
0.00222047
0.0022316
0.00225039
0.00227645
0.00230822
0.00234313
0.00238
0.00241907
0.00246096
0.00250695
0.00255619
0.00261045
0.00266958
0.00273422
0.00280297
0.00288332
0.00296521
0.00306988
0.00311738
0.00313326
0.00314545
0.00315455
0.0031609
0.00316491
0.00316677
0.00316663
0.00316464
0.00316092
0.0031556
0.00314875
0.00314051
0.0031309
0.0031201
0.00310807
0.00309502
0.00308082
0.00306578
0.0030496
0.00303275
0.0030147
0.0029962
0.00297631
0.00295624
0.00293443
0.00291281
0.00288899
0.00286583
0.00283987
0.00281509
0.00278685
0.00276034
0.0027299
0.00270121
0.00266889
0.0026374
0.00260366
0.00256877
0.00253346
0.00249565
0.00245828
0.0024186
0.00237894
0.00233847
0.0022985
0.00225854
0.00222006
0.00218177
0.00214643
0.00211263
0.00208211
0.00205452
0.00202779
0.00200836
0.0019842
0.00197477
0.00195147
0.00194789
0.00192614
0.00192206
0.00190729
0.00189659
0.00188819
0.00186663
0.0018607
0.00183195
0.00182991
0.00180045
0.000592881
0.000584737
0.000544654
0.000614226
0.000798968
0.00102211
0.00122984
0.00139962
0.00153369
0.00163841
0.00172148
0.00179465
0.00185999
0.00192206
0.00198419
0.00204838
0.00211434
0.00217406
0.00221364
0.00225341
0.00229494
0.00233872
0.00238606
0.00243516
0.00248748
0.00254301
0.00260368
0.00266738
0.00273975
0.00281105
0.00290148
0.00294118
0.00296679
0.00298782
0.00300509
0.00301905
0.00303025
0.00303884
0.00304503
0.00304899
0.00305088
0.00305084
0.00304899
0.00304545
0.0030403
0.00303371
0.00302566
0.00301637
0.00300573
0.00299404
0.00298103
0.00296717
0.00295193
0.00293608
0.00291866
0.00290091
0.00288126
0.00286163
0.00283966
0.00281814
0.00279372
0.00277022
0.00274323
0.00271763
0.00268815
0.00265998
0.00262836
0.00259704
0.00256377
0.00252876
0.00249373
0.00245564
0.00241847
0.00237855
0.00233919
0.00229887
0.00225956
0.00222042
0.00218327
0.00214654
0.00211351
0.00208192
0.00205505
0.00202996
0.00200834
0.00199122
0.0019735
0.00196597
0.00194984
0.00194771
0.00193276
0.00192985
0.00192065
0.00191138
0.00190672
0.00188739
0.00188277
0.00185717
0.0018548
0.00182904
0.000700065
0.000706245
0.000689865
0.000664607
0.000666077
0.000723458
0.00082103
0.000935175
0.00104665
0.0011485
0.00123744
0.00131948
0.00139648
0.00147122
0.00154566
0.00162186
0.00169962
0.00177962
0.0018593
0.00193877
0.00201774
0.0020955
0.00217148
0.00224501
0.00231614
0.00238393
0.00244894
0.00250993
0.00256781
0.00262037
0.00267147
0.00271563
0.00275344
0.00278579
0.0028136
0.00283742
0.00285789
0.00287514
0.00288942
0.00290093
0.00290989
0.00291646
0.00292079
0.00292303
0.0029233
0.00292178
0.0029185
0.00291367
0.00290724
0.00289948
0.00289017
0.00287976
0.00286778
0.00285497
0.0028404
0.00282528
0.00280811
0.00279073
0.00277087
0.0027512
0.00272855
0.00270648
0.00268093
0.00265632
0.00262796
0.00260035
0.00256956
0.00253839
0.00250569
0.00247053
0.00243587
0.00239744
0.00236059
0.00232046
0.00228163
0.00224164
0.00220338
0.00216547
0.00213023
0.00209568
0.00206579
0.00203712
0.0020149
0.00199298
0.00197757
0.00196321
0.00195306
0.0019476
0.00193964
0.00193899