/*--------------------------------*- C++ -*----------------------------------*\
| =========                 |                                                 |
| \\      /  F ield         | OpenFOAM: The Open Source CFD Toolbox           |
|  \\    /   O peration     | Version:  v2012                                 |
|   \\  /    A nd           | Website:  www.openfoam.com                      |
|    \\/     M anipulation  |                                                 |
\*---------------------------------------------------------------------------*/
FoamFile
{
    version     2.0;
    format      ascii;
    class       surfaceScalarField;
    location    "0.357";
    object      phi.air;
}
// * * * * * * * * * * * * * * * * * * * * * * * * * * * * * * * * * * * * * //

dimensions      [0 3 -1 0 0 0 0];
oriented        oriented;


internalField   nonuniform List<scalar> 
10964
(
0.000657106
2.51273e-05
0.000628902
2.73627e-05
0.000601317
2.6741e-05
0.000575027
2.54448e-05
0.000551118
2.30604e-05
0.000530162
2.01067e-05
0.000512502
1.68086e-05
0.000497901
1.37487e-05
0.000485909
1.11383e-05
0.000476267
8.78748e-06
0.000468659
6.75301e-06
0.000462713
5.0905e-06
0.000458072
3.78553e-06
0.000454434
2.78282e-06
0.00045154
2.03749e-06
0.000449195
1.48952e-06
0.000447253
1.08547e-06
0.000445611
7.86832e-07
0.000444195
5.59572e-07
0.000442977
3.62214e-07
0.000441919
2.01336e-07
0.000441019
4.46384e-08
0.000440275
-1.12409e-07
0.000439661
-2.41204e-07
0.000439158
-3.53399e-07
0.00043874
-4.37358e-07
0.000438398
-5.14425e-07
0.000438106
-5.63121e-07
0.000437852
-6.02353e-07
0.000437613
-6.1642e-07
0.000437379
-6.21193e-07
0.000437142
-6.19075e-07
0.000436906
-6.19145e-07
0.00043667
-6.20353e-07
0.000436435
-6.20364e-07
0.000436206
-6.25977e-07
0.000435979
-6.28593e-07
0.00043576
-6.36868e-07
0.000435547
-6.42078e-07
0.000435344
-6.52804e-07
0.000435151
-6.62709e-07
0.000434969
-6.73732e-07
0.000434797
-6.83691e-07
0.000434641
-6.99433e-07
0.000434499
-7.13283e-07
0.000434371
-7.27906e-07
0.000434255
-7.39443e-07
0.000434151
-7.51618e-07
0.000434055
-7.59318e-07
0.00043397
-7.70274e-07
0.000433893
-7.78204e-07
0.000433822
-7.84323e-07
0.000433758
-7.92419e-07
0.000433706
-8.03067e-07
0.000433659
-8.08566e-07
0.000433623
-8.1918e-07
0.000433593
-8.25271e-07
0.000433572
-8.34984e-07
0.000433563
-8.4624e-07
0.000433563
-8.54985e-07
0.000433568
-8.60726e-07
0.000433584
-8.71204e-07
0.000433606
-8.77347e-07
0.000433637
-8.86655e-07
0.000433674
-8.93021e-07
0.000433722
-9.0265e-07
0.000433774
-9.07682e-07
0.000433836
-9.17678e-07
0.000433903
-9.21468e-07
0.000433978
-9.31105e-07
0.000434059
-9.35773e-07
0.000434149
-9.44976e-07
0.000434242
-9.49191e-07
0.000434344
-9.56898e-07
0.000434452
-9.62638e-07
0.000434566
-9.69481e-07
0.000434685
-9.74861e-07
0.000434811
-9.80717e-07
0.000434942
-9.86386e-07
0.000435078
-9.91085e-07
0.00043522
-9.96733e-07
0.000435363
-9.98557e-07
0.000435514
-1.00572e-06
0.000435662
-1.00352e-06
0.00043582
-1.01308e-06
0.000435972
-1.0068e-06
0.000436141
-1.02408e-06
0.000436294
-1.00815e-06
0.00043649
-1.05047e-06
0.000436647
-1.01214e-06
0.000436858
-1.06618e-06
0.00043701
-1.00645e-06
0.00043723
-1.07518e-06
0.000437353
-9.77085e-07
0.000437638
-1.14053e-06
0.000437737
-9.53891e-07
0.000438153
-1.27064e-06
0.000438867
-1.56782e-06
0.000437458
5.52166e-07
-1.11091e-05
0.000447715
0.000757085
2.43227e-05
0.000754877
2.95708e-05
0.000751202
3.04158e-05
0.000745928
3.07185e-05
0.000739361
2.96277e-05
0.000731832
2.76355e-05
0.000723576
2.50645e-05
0.000714971
2.23543e-05
0.000706311
1.97974e-05
0.000697783
1.73163e-05
0.000689587
1.49488e-05
0.00068184
1.28376e-05
0.00067462
1.10057e-05
0.000667976
9.42609e-06
0.000661923
8.09084e-06
0.000656454
6.95865e-06
0.000651544
5.99509e-06
0.000647161
5.17042e-06
0.000643277
4.44286e-06
0.000639871
3.7683e-06
0.000636901
3.17127e-06
0.000634312
2.63372e-06
0.000632004
2.19565e-06
0.000629934
1.82932e-06
0.00062808
1.49988e-06
0.000626416
1.22705e-06
0.000624894
1.00723e-06
0.000623478
8.52734e-07
0.000622158
7.17653e-07
0.000620928
6.14163e-07
0.000619781
5.2556e-07
0.000618715
4.46588e-07
0.000617735
3.61696e-07
0.000616828
2.86555e-07
0.00061599
2.17544e-07
0.000615213
1.5093e-07
0.000614493
9.16692e-08
0.000613824
3.17429e-08
0.000613204
-2.17077e-08
0.000612629
-7.79566e-08
0.000612098
-1.32041e-07
0.000611606
-1.81892e-07
0.000611153
-2.30677e-07
0.000610736
-2.81804e-07
0.000610349
-3.26651e-07
0.000609989
-3.68016e-07
0.000609653
-4.03292e-07
0.00060934
-4.38654e-07
0.000609048
-4.66929e-07
0.000608777
-4.99532e-07
0.000608526
-5.26842e-07
0.000608294
-5.5279e-07
0.000608081
-5.79734e-07
0.000607888
-6.09686e-07
0.000607713
-6.33685e-07
0.000607558
-6.63938e-07
0.000607419
-6.86001e-07
0.000607297
-7.13326e-07
0.000607192
-7.40955e-07
0.000607103
-7.66671e-07
0.00060703
-7.87222e-07
0.000606972
-8.13267e-07
0.000606927
-8.32638e-07
0.000606896
-8.56015e-07
0.00060688
-8.76983e-07
0.000606876
-8.98103e-07
0.000606882
-9.13854e-07
0.000606901
-9.36306e-07
0.00060693
-9.50825e-07
0.000606973
-9.73945e-07
0.000607025
-9.8809e-07
0.00060709
-1.00979e-06
0.000607164
-1.02305e-06
0.000607249
-1.04209e-06
0.000607344
-1.0574e-06
0.000607449
-1.07476e-06
0.000607562
-1.08815e-06
0.000607685
-1.10307e-06
0.000607814
-1.1156e-06
0.000607952
-1.12913e-06
0.000608095
-1.13995e-06
0.000608247
-1.15055e-06
0.000608403
-1.16111e-06
0.000608568
-1.16932e-06
0.000608733
-1.17785e-06
0.000608915
-1.18869e-06
0.00060909
-1.19863e-06
0.00060929
-1.20877e-06
0.000609473
-1.23276e-06
0.00060969
-1.22944e-06
0.000609876
-1.25199e-06
0.000610112
-1.24242e-06
0.000610286
-1.24965e-06
0.00061057
-1.26107e-06
0.000610717
-1.28775e-06
0.000611135
-1.37118e-06
0.000611259
-1.39484e-06
0.000611964
-2.27325e-06
0.000612193
3.23841e-07
-1.51268e-05
0.00061621
0.000840343
2.13132e-05
0.000842332
2.75816e-05
0.000844302
2.84453e-05
0.000845633
2.93883e-05
0.000846213
2.90477e-05
0.000845985
2.78628e-05
0.000845037
2.60131e-05
0.000843329
2.40617e-05
0.000840904
2.22227e-05
0.000837777
2.04435e-05
0.000834026
1.86996e-05
0.000829712
1.71514e-05
0.00082494
1.57781e-05
0.000819829
1.45371e-05
0.000814506
1.34132e-05
0.000809098
1.23669e-05
0.000803704
1.13893e-05
0.000798449
1.04251e-05
0.000793418
9.47377e-06
0.000788679
8.5079e-06
0.000784255
7.59502e-06
0.000780181
6.70784e-06
0.000776458
5.91802e-06
0.000773064
5.22349e-06
0.000769972
4.59225e-06
0.000767153
4.04636e-06
0.000764562
3.59764e-06
0.000762171
3.24373e-06
0.00075997
2.91872e-06
0.000757948
2.6364e-06
0.000756091
2.38257e-06
0.000754388
2.14948e-06
0.000752828
1.92157e-06
0.000751391
1.72347e-06
0.000750067
1.54197e-06
0.000748842
1.37572e-06
0.000747711
1.2229e-06
0.000746664
1.07892e-06
0.000745697
9.45081e-07
0.000744802
8.16578e-07
0.000743979
6.91594e-07
0.000743216
5.80379e-07
0.000742515
4.7023e-07
0.000741859
3.74213e-07
0.000741243
2.9026e-07
0.000740662
2.12318e-07
0.000740117
1.41412e-07
0.000739608
7.04296e-08
0.000739133
8.13366e-09
0.000738692
-5.78601e-08
0.000738282
-1.16872e-07
0.000737903
-1.74301e-07
0.000737554
-2.31006e-07
0.000737236
-2.90856e-07
0.000736945
-3.434e-07
0.000736683
-4.01736e-07
0.000736446
-4.48552e-07
0.000736233
-5.0111e-07
0.000736044
-5.51025e-07
0.000735877
-5.99942e-07
0.000735731
-6.41738e-07
0.000735606
-6.88047e-07
0.0007355
-7.26082e-07
0.000735412
-7.68045e-07
0.000735341
-8.0633e-07
0.000735287
-8.44651e-07
0.00073525
-8.76025e-07
0.000735228
-9.14448e-07
0.000735224
-9.47252e-07
0.000735233
-9.82982e-07
0.000735256
-1.0112e-06
0.000735295
-1.0485e-06
0.000735347
-1.0752e-06
0.000735414
-1.10839e-06
0.000735493
-1.13649e-06
0.000735584
-1.16661e-06
0.000735686
-1.18975e-06
0.000735798
-1.21509e-06
0.000735919
-1.23616e-06
0.00073605
-1.26008e-06
0.000736188
-1.27795e-06
0.000736336
-1.29937e-06
0.000736491
-1.31532e-06
0.000736658
-1.33635e-06
0.000736826
-1.34602e-06
0.000737013
-1.3763e-06
0.000737196
-1.38138e-06
0.000737407
-1.4193e-06
0.0007376
-1.42627e-06
0.000737831
-1.46073e-06
0.000738034
-1.45469e-06
0.000738279
-1.48708e-06
0.000738486
-1.45682e-06
0.000738768
-1.54324e-06
0.000738976
-1.496e-06
0.000739346
-1.74024e-06
0.000739578
-1.62721e-06
0.000740208
-2.90299e-06
0.000741376
-8.45012e-07
-1.58074e-05
0.000742057
0.000930296
1.80904e-05
0.000933078
2.47988e-05
0.000936234
2.52898e-05
0.000939314
2.63085e-05
0.00094213
2.62312e-05
0.000944657
2.53359e-05
0.000946786
2.38845e-05
0.000948508
2.2339e-05
0.000949817
2.09136e-05
0.000950712
1.95489e-05
0.000951157
1.82544e-05
0.000951127
1.7182e-05
0.000950718
1.61864e-05
0.000949891
1.53646e-05
0.000948629
1.46755e-05
0.000946927
1.40683e-05
0.000944789
1.35274e-05
0.000942218
1.2996e-05
0.000939239
1.24531e-05
0.000935888
1.18591e-05
0.000932207
1.12756e-05
0.000928293
1.06215e-05
0.000924255
9.95665e-06
0.000920212
9.26639e-06
0.000916222
8.58195e-06
0.000912372
7.89679e-06
0.00090873
7.23966e-06
0.000905329
6.64478e-06
0.000902176
6.07099e-06
0.000899264
5.54907e-06
0.000896575
5.07097e-06
0.000894091
4.63421e-06
0.000891765
4.24763e-06
0.000889587
3.90074e-06
0.000887553
3.57599e-06
0.000885656
3.27297e-06
0.00088389
2.9884e-06
0.000882249
2.72047e-06
0.000880728
2.46612e-06
0.000879317
2.22706e-06
0.000878019
1.99042e-06
0.000876813
1.78556e-06
0.000875696
1.58715e-06
0.000874656
1.41419e-06
0.000873689
1.25791e-06
0.000872786
1.11478e-06
0.000871945
9.82386e-07
0.000871162
8.54295e-07
0.000870432
7.37304e-07
0.000869755
6.19698e-07
0.000869127
5.11049e-07
0.000868546
4.06403e-07
0.000868011
3.04075e-07
0.000867518
2.02039e-07
0.000867068
1.06677e-07
0.000866657
9.12597e-09
0.000866281
-7.22461e-08
0.000865938
-1.57948e-07
0.000865626
-2.393e-07
0.000865344
-3.17881e-07
0.00086509
-3.87365e-07
0.000864862
-4.6018e-07
0.000864659
-5.22831e-07
0.00086448
-5.89345e-07
0.000864324
-6.50244e-07
0.00086419
-7.11234e-07
0.000864078
-7.63646e-07
0.000863987
-8.23694e-07
0.000863918
-8.78166e-07
0.000863869
-9.33794e-07
0.000863841
-9.83761e-07
0.000863831
-1.03775e-06
0.00086384
-1.08405e-06
0.000863864
-1.13253e-06
0.000863905
-1.17799e-06
0.000863959
-1.22079e-06
0.000864025
-1.25548e-06
0.000864102
-1.292e-06
0.000864191
-1.3252e-06
0.000864291
-1.36045e-06
0.000864404
-1.39032e-06
0.000864527
-1.42276e-06
0.000864663
-1.45101e-06
0.000864809
-1.4826e-06
0.000864966
-1.50327e-06
0.000865137
-1.54658e-06
0.000865317
-1.56152e-06
0.00086551
-1.61257e-06
0.000865711
-1.62748e-06
0.000865922
-1.67164e-06
0.000866145
-1.67775e-06
0.000866374
-1.71548e-06
0.00086662
-1.7035e-06
0.000866866
-1.78887e-06
0.000867148
-1.77766e-06
0.000867431
-2.02356e-06
0.000867801
-1.9973e-06
0.000868271
-3.37256e-06
0.000869612
-2.1862e-06
-1.55985e-05
0.000869403
0.00102962
1.48958e-05
0.00103284
2.15826e-05
0.0010364
2.1732e-05
0.00104004
2.26631e-05
0.00104357
2.27019e-05
0.00104697
2.194e-05
0.00105012
2.07322e-05
0.00105301
1.94472e-05
0.00105566
1.82634e-05
0.00105807
1.71461e-05
0.00106022
1.60978e-05
0.00106216
1.52488e-05
0.00106386
1.44791e-05
0.00106537
1.38586e-05
0.00106667
1.33734e-05
0.00106777
1.29699e-05
0.00106865
1.26481e-05
0.0010693
1.23474e-05
0.00106968
1.20704e-05
0.00106975
1.17933e-05
0.00106951
1.15159e-05
0.00106894
1.11918e-05
0.00106801
1.08857e-05
0.0010667
1.05689e-05
0.00106504
1.0251e-05
0.00106302
9.91126e-06
0.00106071
9.54551e-06
0.00105818
9.1808e-06
0.00105547
8.77609e-06
0.00105266
8.36707e-06
0.00104977
7.95916e-06
0.00104689
7.51219e-06
0.00104405
7.08808e-06
0.0010413
6.65271e-06
0.00103864
6.2308e-06
0.00103611
5.80727e-06
0.0010337
5.39891e-06
0.00103142
5.00051e-06
0.00102927
4.61543e-06
0.00102725
4.24722e-06
0.00102536
3.8824e-06
0.00102355
3.58906e-06
0.00102184
3.30209e-06
0.00102022
3.03084e-06
0.00101871
2.77271e-06
0.00101729
2.53263e-06
0.00101596
2.30641e-06
0.00101473
2.09111e-06
0.00101358
1.88943e-06
0.0010125
1.69313e-06
0.00101151
1.50788e-06
0.00101058
1.33247e-06
0.00100972
1.15991e-06
0.00100893
9.96736e-07
0.00100819
8.42345e-07
0.00100751
6.93773e-07
0.00100687
5.65004e-07
0.00100628
4.3434e-07
0.00100573
3.12107e-07
0.00100522
1.93169e-07
0.00100474
8.41579e-08
0.00100431
-2.54432e-08
0.00100391
-1.23142e-07
0.00100354
-2.24147e-07
0.00100321
-3.1864e-07
0.00100291
-4.11583e-07
0.00100265
-4.95949e-07
0.00100241
-5.86584e-07
0.0010022
-6.72891e-07
0.00100203
-7.55339e-07
0.00100188
-8.35573e-07
0.00100175
-9.12279e-07
0.00100165
-9.84792e-07
0.00100157
-1.05303e-06
0.00100152
-1.12254e-06
0.00100148
-1.18304e-06
0.00100146
-1.23894e-06
0.00100147
-1.29415e-06
0.00100148
-1.34461e-06
0.00100152
-1.3945e-06
0.00100157
-1.44393e-06
0.00100164
-1.48948e-06
0.00100173
-1.53933e-06
0.00100182
-1.58021e-06
0.00100195
-1.62406e-06
0.00100207
-1.67453e-06
0.00100223
-1.71424e-06
0.00100238
-1.76835e-06
0.00100256
-1.80991e-06
0.00100274
-1.85048e-06
0.00100295
-1.88902e-06
0.00100316
-1.92134e-06
0.0010034
-1.9436e-06
0.00100363
-2.0218e-06
0.0010039
-2.04691e-06
0.00100418
-2.30384e-06
0.00100454
-2.35542e-06
0.00100493
-3.75699e-06
0.00100612
-3.38042e-06
-1.53401e-05
0.00100586
0.00113955
1.17858e-05
0.00114322
1.79105e-05
0.00114711
1.78446e-05
0.00115114
1.86309e-05
0.00115511
1.87343e-05
0.00115895
1.80907e-05
0.00116259
1.70992e-05
0.00116599
1.60431e-05
0.00116919
1.50633e-05
0.00117219
1.4146e-05
0.001175
1.32907e-05
0.00117765
1.25979e-05
0.00118015
1.19814e-05
0.00118252
1.1488e-05
0.00118478
1.11114e-05
0.00118694
1.08096e-05
0.00118901
1.05783e-05
0.00119098
1.03732e-05
0.00119286
1.01907e-05
0.00119464
1.00193e-05
0.0011963
9.8587e-06
0.00119782
9.66338e-06
0.00119921
9.498e-06
0.00120045
9.33313e-06
0.00120151
9.19295e-06
0.00120238
9.04103e-06
0.00120302
8.89971e-06
0.00120345
8.75654e-06
0.0012036
8.62039e-06
0.00120347
8.49387e-06
0.0012031
8.33065e-06
0.00120247
8.14258e-06
0.0012016
7.96184e-06
0.0012005
7.75213e-06
0.00119919
7.5361e-06
0.00119771
7.29153e-06
0.00119607
7.03686e-06
0.00119431
6.76032e-06
0.00119246
6.46912e-06
0.00119054
6.16193e-06
0.00118859
5.83225e-06
0.00118664
5.54096e-06
0.0011847
5.24245e-06
0.0011828
4.93123e-06
0.00118095
4.62762e-06
0.00117916
4.32243e-06
0.00117744
4.02769e-06
0.00117579
3.73491e-06
0.00117423
3.45407e-06
0.00117274
3.17755e-06
0.00117134
2.91092e-06
0.00117001
2.65891e-06
0.00116876
2.41262e-06
0.00116756
2.20162e-06
0.0011664
1.99577e-06
0.0011653
1.79236e-06
0.00116426
1.60976e-06
0.00116327
1.42501e-06
0.00116233
1.24684e-06
0.00116145
1.07474e-06
0.00116063
9.10596e-07
0.00115985
7.51001e-07
0.00115913
5.98822e-07
0.00115845
4.49308e-07
0.00115783
3.03676e-07
0.00115725
1.65296e-07
0.00115672
3.34534e-08
0.00115624
-9.94632e-08
0.00115579
-2.28638e-07
0.00115538
-3.45363e-07
0.00115501
-4.62677e-07
0.00115467
-5.70161e-07
0.00115436
-6.74312e-07
0.00115408
-7.70655e-07
0.00115382
-8.70781e-07
0.0011536
-9.5855e-07
0.00115341
-1.04658e-06
0.00115324
-1.12982e-06
0.00115311
-1.21017e-06
0.001153
-1.28342e-06
0.00115291
-1.36135e-06
0.00115286
-1.43046e-06
0.00115282
-1.50568e-06
0.00115281
-1.57051e-06
0.00115283
-1.64193e-06
0.00115286
-1.70299e-06
0.00115292
-1.77594e-06
0.00115299
-1.83985e-06
0.00115309
-1.91043e-06
0.0011532
-1.96014e-06
0.00115334
-2.02819e-06
0.00115349
-2.07245e-06
0.00115367
-2.1171e-06
0.00115386
-2.21319e-06
0.00115407
-2.25906e-06
0.00115431
-2.54832e-06
0.00115464
-2.68555e-06
0.00115499
-4.1003e-06
0.00115601
-4.40798e-06
-1.49771e-05
0.00115565
0.0012613
8.7211e-06
0.00126542
1.37888e-05
0.00126966
1.36041e-05
0.00127409
1.42035e-05
0.00127848
1.43382e-05
0.00128274
1.38305e-05
0.00128678
1.30622e-05
0.00129058
1.22417e-05
0.00129417
1.14734e-05
0.00129756
1.07593e-05
0.00130075
1.00978e-05
0.00130379
9.55865e-06
0.00130669
9.08421e-06
0.00130947
8.70234e-06
0.00131217
8.41372e-06
0.00131479
8.18588e-06
0.00131736
8.01418e-06
0.00131986
7.8659e-06
0.00132232
7.73594e-06
0.00132472
7.61855e-06
0.00132707
7.51013e-06
0.00132936
7.3755e-06
0.00133159
7.26165e-06
0.00133377
7.15501e-06
0.0013359
7.06775e-06
0.00133796
6.98038e-06
0.00133996
6.9001e-06
0.00134188
6.82937e-06
0.00134374
6.76621e-06
0.0013455
6.72987e-06
0.00134717
6.66316e-06
0.00134872
6.59208e-06
0.00135015
6.52831e-06
0.00135145
6.46032e-06
0.00135259
6.38885e-06
0.00135358
6.30818e-06
0.00135439
6.22709e-06
0.00135502
6.12785e-06
0.00135545
6.03486e-06
0.0013557
5.91784e-06
0.00135571
5.81904e-06
0.00135557
5.68474e-06
0.00135526
5.54669e-06
0.0013548
5.39463e-06
0.00135418
5.24161e-06
0.00135343
5.0725e-06
0.00135256
4.90025e-06
0.00135158
4.71165e-06
0.00135052
4.5188e-06
0.00134939
4.31102e-06
0.0013482
4.09711e-06
0.00134698
3.87935e-06
0.00134574
3.65164e-06
0.0013445
3.44134e-06
0.00134327
3.22914e-06
0.00134205
3.00701e-06
0.00134086
2.80432e-06
0.00133969
2.59228e-06
0.00133856
2.37749e-06
0.00133747
2.16906e-06
0.00133642
1.96107e-06
0.00133541
1.75949e-06
0.00133445
1.55995e-06
0.00133353
1.36564e-06
0.00133266
1.17322e-06
0.00133184
9.88186e-07
0.00133106
8.12251e-07
0.00133031
6.50702e-07
0.00132958
4.95791e-07
0.00132889
3.53522e-07
0.00132822
2.04401e-07
0.00132758
6.57374e-08
0.00132698
-7.33646e-08
0.00132641
-2.02692e-07
0.00132588
-3.40812e-07
0.00132539
-4.62078e-07
0.00132493
-5.87189e-07
0.0013245
-7.06171e-07
0.00132412
-8.24493e-07
0.00132377
-9.33412e-07
0.00132346
-1.04864e-06
0.00132318
-1.15283e-06
0.00132294
-1.2631e-06
0.00132273
-1.36077e-06
0.00132255
-1.4668e-06
0.00132241
-1.55809e-06
0.00132229
-1.66361e-06
0.00132221
-1.75848e-06
0.00132215
-1.85257e-06
0.00132213
-1.93782e-06
0.00132213
-2.02369e-06
0.00132215
-2.09504e-06
0.0013222
-2.16373e-06
0.00132227
-2.28236e-06
0.00132237
-2.36749e-06
0.0013225
-2.67341e-06
0.00132273
-2.9193e-06
0.00132296
-4.32716e-06
0.00132376
-5.20734e-06
-1.44602e-05
0.00132324
0.00139614
5.65798e-06
0.00140075
9.18439e-06
0.00140539
8.9588e-06
0.00141024
9.35366e-06
0.00141511
9.47383e-06
0.00141982
9.11936e-06
0.00142428
8.59738e-06
0.00142849
8.03215e-06
0.00143247
7.49568e-06
0.00143623
7.00352e-06
0.00143977
6.54995e-06
0.00144315
6.17785e-06
0.00144639
5.85261e-06
0.0014495
5.58795e-06
0.00145252
5.38957e-06
0.00145548
5.23484e-06
0.00145837
5.1205e-06
0.00146121
5.02431e-06
0.00146401
4.94019e-06
0.00146676
4.86716e-06
0.00146947
4.80097e-06
0.00147213
4.71152e-06
0.00147476
4.63372e-06
0.00147735
4.56195e-06
0.00147991
4.50561e-06
0.00148245
4.44954e-06
0.00148495
4.39793e-06
0.00148742
4.35296e-06
0.00148987
4.31729e-06
0.0014923
4.30539e-06
0.00149469
4.27017e-06
0.00149705
4.23295e-06
0.00149938
4.2017e-06
0.00150166
4.17445e-06
0.00150391
4.14304e-06
0.0015061
4.11227e-06
0.00150825
4.07979e-06
0.00151034
4.04336e-06
0.00151236
4.00825e-06
0.00151431
3.96894e-06
0.00151619
3.94375e-06
0.00151797
3.90315e-06
0.00151966
3.85549e-06
0.00152124
3.80901e-06
0.00152272
3.76169e-06
0.00152408
3.71234e-06
0.00152532
3.66152e-06
0.00152643
3.60556e-06
0.0015274
3.54877e-06
0.00152823
3.48227e-06
0.00152891
3.41822e-06
0.00152945
3.33977e-06
0.00152983
3.2678e-06
0.0015301
3.16841e-06
0.00153024
3.09529e-06
0.00153026
2.98861e-06
0.00153017
2.89102e-06
0.00152999
2.77482e-06
0.00152971
2.65493e-06
0.00152935
2.53048e-06
0.00152891
2.39972e-06
0.00152841
2.26285e-06
0.00152785
2.12005e-06
0.00152724
1.97045e-06
0.0015266
1.81455e-06
0.00152593
1.65799e-06
0.00152525
1.49617e-06
0.00152455
1.34328e-06
0.00152386
1.18726e-06
0.00152317
1.04245e-06
0.00152249
8.84715e-07
0.00152182
7.36038e-07
0.00152117
5.83356e-07
0.00152052
4.38044e-07
0.00151991
2.78517e-07
0.00151931
1.37627e-07
0.00151873
-1.06434e-08
0.00151818
-1.56276e-07
0.00151766
-3.01125e-07
0.00151716
-4.39173e-07
0.0015167
-5.82762e-07
0.00151626
-7.17608e-07
0.00151585
-8.55696e-07
0.00151548
-9.83976e-07
0.00151513
-1.11687e-06
0.00151481
-1.2383e-06
0.00151451
-1.37085e-06
0.00151425
-1.49612e-06
0.00151401
-1.60888e-06
0.00151379
-1.72215e-06
0.00151359
-1.82322e-06
0.00151342
-1.92165e-06
0.00151327
-2.01059e-06
0.00151313
-2.14567e-06
0.00151303
-2.2659e-06
0.00151293
-2.57861e-06
0.00151293
-2.91645e-06
0.00151291
-4.30395e-06
0.00151332
-5.62611e-06
-1.36658e-05
0.00151253
0.00154551
2.52714e-06
0.00155064
4.05342e-06
0.00155576
3.84618e-06
0.00156107
4.03759e-06
0.00156645
4.0919e-06
0.00157167
3.90616e-06
0.0015766
3.6593e-06
0.00158126
3.37239e-06
0.00158567
3.09146e-06
0.00158983
2.84507e-06
0.00159376
2.6196e-06
0.0015975
2.43402e-06
0.00160108
2.27146e-06
0.00160453
2.13645e-06
0.00160789
2.03729e-06
0.00161116
1.96211e-06
0.00161437
1.90994e-06
0.00161752
1.86907e-06
0.00162063
1.83267e-06
0.00162369
1.80608e-06
0.00162671
1.78368e-06
0.00162968
1.73885e-06
0.00163262
1.69634e-06
0.00163552
1.6579e-06
0.0016384
1.63006e-06
0.00164125
1.60111e-06
0.00164407
1.57374e-06
0.00164688
1.54669e-06
0.00164967
1.53124e-06
0.00165244
1.5332e-06
0.00165519
1.51809e-06
0.00165792
1.49847e-06
0.00166064
1.48472e-06
0.00166334
1.4755e-06
0.00166602
1.46314e-06
0.00166868
1.45215e-06
0.00167132
1.43943e-06
0.00167394
1.42626e-06
0.00167654
1.40998e-06
0.00167911
1.39811e-06
0.00168165
1.39517e-06
0.00168417
1.38324e-06
0.00168667
1.36392e-06
0.00168913
1.34886e-06
0.00169156
1.3328e-06
0.00169395
1.31953e-06
0.00169631
1.30436e-06
0.00169862
1.29085e-06
0.00170089
1.27561e-06
0.00170312
1.25982e-06
0.00170529
1.24438e-06
0.0017074
1.22746e-06
0.00170946
1.21063e-06
0.00171144
1.18598e-06
0.00171336
1.17745e-06
0.00171519
1.15366e-06
0.00171695
1.13388e-06
0.00171862
1.10664e-06
0.0017202
1.07673e-06
0.00172168
1.04869e-06
0.00172306
1.01732e-06
0.00172434
9.84774e-07
0.00172551
9.49045e-07
0.00172657
9.08874e-07
0.00172752
8.66051e-07
0.00172836
8.2049e-07
0.00172908
7.73615e-07
0.00172971
7.16903e-07
0.00173024
6.55678e-07
0.00173068
5.96857e-07
0.00173104
5.2557e-07
0.00173133
4.54425e-07
0.00173152
3.85799e-07
0.00173166
3.01098e-07
0.00173172
2.22707e-07
0.00173171
1.38896e-07
0.00173166
3.9982e-08
0.00173156
-5.49589e-08
0.00173142
-1.5453e-07
0.00173123
-2.5389e-07
0.00173101
-3.61662e-07
0.00173076
-4.68143e-07
0.00173048
-5.79246e-07
0.00173019
-6.86835e-07
0.00172987
-8.00162e-07
0.00172954
-9.05456e-07
0.00172919
-1.02681e-06
0.00172884
-1.13877e-06
0.00172846
-1.23673e-06
0.00172808
-1.33914e-06
0.00172769
-1.42991e-06
0.00172728
-1.51783e-06
0.00172687
-1.59845e-06
0.00172644
-1.71834e-06
0.00172601
-1.83677e-06
0.00172557
-2.13095e-06
0.00172516
-2.51012e-06
0.0017247
-3.84033e-06
0.00172456
-5.4889e-06
-1.23897e-05
0.00172328
0.001711
-7.93982e-07
0.00171671
-1.64987e-06
0.00172235
-1.79973e-06
0.0017282
-1.81416e-06
0.00173416
-1.86632e-06
0.00173993
-1.86481e-06
0.0017454
-1.80353e-06
0.00175056
-1.78646e-06
0.00175543
-1.78557e-06
0.00176004
-1.75897e-06
0.00176439
-1.73332e-06
0.00176853
-1.71086e-06
0.0017725
-1.6945e-06
0.00177632
-1.68568e-06
0.00178003
-1.6749e-06
0.00178366
-1.6621e-06
0.00178721
-1.64519e-06
0.00179071
-1.62477e-06
0.00179415
-1.60917e-06
0.00179754
-1.58391e-06
0.00180088
-1.55755e-06
0.00180417
-1.55484e-06
0.00180743
-1.5586e-06
0.00181065
-1.56137e-06
0.00181384
-1.55823e-06
0.001817
-1.55855e-06
0.00182013
-1.56064e-06
0.00182325
-1.56986e-06
0.00182634
-1.56491e-06
0.00182943
-1.54834e-06
0.00183249
-1.54501e-06
0.00183553
-1.54777e-06
0.00183856
-1.54534e-06
0.00184158
-1.53888e-06
0.00184458
-1.53443e-06
0.00184756
-1.52909e-06
0.00185052
-1.52549e-06
0.00185347
-1.52061e-06
0.0018564
-1.52379e-06
0.00185932
-1.5156e-06
0.00186222
-1.503e-06
0.0018651
-1.49768e-06
0.00186796
-1.49833e-06
0.0018708
-1.49661e-06
0.00187363
-1.495e-06
0.00187644
-1.49138e-06
0.00187924
-1.48894e-06
0.00188201
-1.48483e-06
0.00188477
-1.48221e-06
0.00188751
-1.47876e-06
0.00189023
-1.47625e-06
0.00189293
-1.47021e-06
0.00189561
-1.47147e-06
0.00189826
-1.46798e-06
0.0019009
-1.45654e-06
0.0019035
-1.45237e-06
0.00190608
-1.44765e-06
0.00190864
-1.44471e-06
0.00191116
-1.4442e-06
0.00191364
-1.4393e-06
0.0019161
-1.43608e-06
0.00191851
-1.43005e-06
0.00192089
-1.42625e-06
0.00192322
-1.42138e-06
0.0019255
-1.41746e-06
0.00192773
-1.41044e-06
0.00192991
-1.4023e-06
0.00193202
-1.39776e-06
0.00193407
-1.39283e-06
0.00193605
-1.38474e-06
0.00193796
-1.38104e-06
0.00193979
-1.37518e-06
0.00194153
-1.35841e-06
0.00194319
-1.35595e-06
0.00194475
-1.33927e-06
0.00194622
-1.32796e-06
0.00194758
-1.31891e-06
0.00194883
-1.30891e-06
0.00194997
-1.29309e-06
0.001951
-1.27877e-06
0.0019519
-1.26312e-06
0.00195268
-1.24895e-06
0.00195333
-1.23134e-06
0.00195386
-1.2142e-06
0.00195426
-1.19782e-06
0.00195453
-1.17555e-06
0.00195467
-1.1714e-06
0.00195467
-1.13871e-06
0.00195456
-1.1302e-06
0.00195434
-1.11935e-06
0.00195401
-1.09773e-06
0.00195357
-1.0757e-06
0.00195302
-1.05366e-06
0.00195237
-1.06842e-06
0.00195164
-1.10211e-06
0.0019508
-1.29278e-06
0.00194992
-1.62513e-06
0.00194887
-2.79461e-06
0.00194791
-4.5314e-06
-1.03074e-05
0.00194583
0.00171104
-4.14954e-06
0.00171675
-7.36517e-06
0.0017224
-7.44967e-06
0.00172826
-7.67161e-06
0.00173422
-7.82874e-06
0.00174
-7.63659e-06
0.00174546
-7.26425e-06
0.00175062
-6.94627e-06
0.00175549
-6.66376e-06
0.0017601
-6.3628e-06
0.00176445
-6.08684e-06
0.0017686
-5.85565e-06
0.00177256
-5.66058e-06
0.00177638
-5.50824e-06
0.0017801
-5.38743e-06
0.00178372
-5.28681e-06
0.00178728
-5.20072e-06
0.00179077
-5.1187e-06
0.00179421
-5.05198e-06
0.0017976
-4.97395e-06
0.00180094
-4.89799e-06
0.00180424
-4.84898e-06
0.00180749
-4.81364e-06
0.00181071
-4.78121e-06
0.0018139
-4.74637e-06
0.00181706
-4.71846e-06
0.0018202
-4.69473e-06
0.00182331
-4.68744e-06
0.00182641
-4.66126e-06
0.00182949
-4.62911e-06
0.00183255
-4.60808e-06
0.0018356
-4.59394e-06
0.00183863
-4.57498e-06
0.00184164
-4.5525e-06
0.00184464
-4.53114e-06
0.00184762
-4.50885e-06
0.00185058
-4.4888e-06
0.00185353
-4.46477e-06
0.00185646
-4.45532e-06
0.00185937
-4.42631e-06
0.00186226
-4.39671e-06
0.00186514
-4.37396e-06
0.001868
-4.35507e-06
0.00187083
-4.33538e-06
0.00187365
-4.31505e-06
0.00187646
-4.29328e-06
0.00187924
-4.27163e-06
0.001882
-4.2483e-06
0.00188475
-4.22558e-06
0.00188747
-4.20095e-06
0.00189017
-4.17758e-06
0.00189284
-4.14534e-06
0.0018955
-4.12733e-06
0.00189813
-4.09364e-06
0.00190072
-4.05514e-06
0.00190329
-4.02063e-06
0.00190583
-3.98347e-06
0.00190833
-3.94581e-06
0.00191079
-3.90648e-06
0.00191322
-3.86201e-06
0.00191559
-3.81397e-06
0.00191792
-3.76156e-06
0.0019202
-3.70568e-06
0.00192243
-3.64637e-06
0.00192459
-3.58153e-06
0.00192669
-3.51063e-06
0.00192872
-3.43393e-06
0.00193068
-3.35577e-06
0.00193256
-3.27412e-06
0.00193436
-3.18056e-06
0.00193607
-3.09357e-06
0.00193769
-2.99184e-06
0.00193921
-2.88192e-06
0.00194063
-2.77566e-06
0.00194195
-2.6571e-06
0.00194316
-2.53666e-06
0.00194426
-2.4161e-06
0.00194524
-2.29064e-06
0.0019461
-2.16015e-06
0.00194685
-2.02593e-06
0.00194748
-1.89298e-06
0.00194799
-1.75749e-06
0.00194839
-1.63202e-06
0.00194868
-1.50752e-06
0.00194888
-1.38855e-06
0.00194896
-1.25896e-06
0.00194893
-1.14069e-06
0.00194881
-1.02045e-06
0.00194859
-9.13002e-07
0.00194828
-8.05409e-07
0.00194787
-6.90087e-07
0.00194737
-5.76274e-07
0.00194678
-4.67147e-07
0.00194611
-3.92871e-07
0.00194536
-3.48021e-07
0.0019445
-4.40661e-07
0.00194358
-7.02122e-07
0.00194248
-1.6906e-06
0.00194129
-3.34658e-06
-8.13977e-06
0.00193912
0.0015456
-7.37359e-06
0.00155077
-1.2526e-05
0.00155589
-1.25734e-05
0.00156122
-1.30026e-05
0.00156661
-1.32211e-05
0.00157183
-1.28526e-05
0.00157676
-1.21968e-05
0.00158142
-1.16086e-05
0.00158583
-1.10711e-05
0.00158999
-1.05205e-05
0.00159392
-1.00189e-05
0.00159766
-9.59901e-06
0.00160125
-9.24203e-06
0.0016047
-8.96069e-06
0.00160805
-8.74065e-06
0.00161133
-8.56071e-06
0.00161454
-8.41232e-06
0.00161769
-8.27386e-06
0.0016208
-8.16208e-06
0.00162386
-8.03467e-06
0.00162688
-7.91295e-06
0.00162985
-7.82216e-06
0.00163279
-7.7508e-06
0.00163569
-7.68558e-06
0.00163857
-7.62042e-06
0.00164141
-7.5654e-06
0.00164423
-7.51594e-06
0.00164704
-7.49336e-06
0.00164982
-7.4442e-06
0.00165259
-7.39517e-06
0.00165534
-7.35523e-06
0.00165806
-7.32212e-06
0.00166077
-7.28394e-06
0.00166346
-7.24205e-06
0.00166613
-7.19977e-06
0.00166878
-7.15548e-06
0.0016714
-7.11299e-06
0.001674
-7.06172e-06
0.00167658
-7.03208e-06
0.00167912
-6.97051e-06
0.00168164
-6.91164e-06
0.00168412
-6.85678e-06
0.00168657
-6.80171e-06
0.00168897
-6.74443e-06
0.00169134
-6.68277e-06
0.00169367
-6.61712e-06
0.00169594
-6.54654e-06
0.00169816
-6.47075e-06
0.00170033
-6.38973e-06
0.00170243
-6.30185e-06
0.00170446
-6.20972e-06
0.00170641
-6.09944e-06
0.00170829
-6.00512e-06
0.00171008
-5.88017e-06
0.00171177
-5.75073e-06
0.00171337
-5.61735e-06
0.00171486
-5.47672e-06
0.00171625
-5.32907e-06
0.00171752
-5.17533e-06
0.00171867
-5.01191e-06
0.00171969
-4.84201e-06
0.0017206
-4.66423e-06
0.00172137
-4.48244e-06
0.00172202
-4.29604e-06
0.00172256
-4.11433e-06
0.00172298
-3.93922e-06
0.00172331
-3.76323e-06
0.00172355
-3.58797e-06
0.00172369
-3.41444e-06
0.00172374
-3.23092e-06
0.0017237
-3.05883e-06
0.0017236
-2.88976e-06
0.00172343
-2.71584e-06
0.00172321
-2.54736e-06
0.00172292
-2.37603e-06
0.0017226
-2.20881e-06
0.00172223
-2.04755e-06
0.00172183
-1.88899e-06
0.0017214
-1.73134e-06
0.00172095
-1.57614e-06
0.00172048
-1.42713e-06
0.00172001
-1.28176e-06
0.00171953
-1.15098e-06
0.00171904
-1.02439e-06
0.00171856
-9.02834e-07
0.00171807
-7.75628e-07
0.00171759
-6.56109e-07
0.00171711
-5.37517e-07
0.00171662
-4.29365e-07
0.00171614
-3.22238e-07
0.00171566
-2.08585e-07
0.00171518
-9.71102e-08
0.0017147
1.16429e-08
0.00171422
8.93269e-08
0.00171373
1.36923e-07
0.00171322
6.86632e-08
0.00171269
-1.67411e-07
0.00171203
-1.03046e-06
0.00171123
-2.55019e-06
-6.56287e-06
0.00170965
0.00139628
-1.05773e-05
0.00140093
-1.71734e-05
0.00140559
-1.72371e-05
0.00141046
-1.78706e-05
0.00141534
-1.80988e-05
0.00142006
-1.75694e-05
0.00142451
-1.6653e-05
0.00142873
-1.58222e-05
0.00143271
-1.50531e-05
0.00143646
-1.42749e-05
0.00144001
-1.35692e-05
0.00144339
-1.29787e-05
0.00144663
-1.24739e-05
0.00144974
-1.20757e-05
0.00145277
-1.17656e-05
0.00145572
-1.15119e-05
0.00145861
-1.13058e-05
0.00146145
-1.1112e-05
0.00146424
-1.09586e-05
0.00146699
-1.07808e-05
0.00146969
-1.06139e-05
0.00147235
-1.04803e-05
0.00147497
-1.03716e-05
0.00147756
-1.02702e-05
0.00148011
-1.01709e-05
0.00148262
-1.0083e-05
0.00148511
-1.00005e-05
0.00148757
-9.95358e-06
0.00148999