/*--------------------------------*- C++ -*----------------------------------*\
| =========                 |                                                 |
| \\      /  F ield         | OpenFOAM: The Open Source CFD Toolbox           |
|  \\    /   O peration     | Version:  v2012                                 |
|   \\  /    A nd           | Website:  www.openfoam.com                      |
|    \\/     M anipulation  |                                                 |
\*---------------------------------------------------------------------------*/
FoamFile
{
    version     2.0;
    format      ascii;
    class       volVectorField;
    location    "0.357";
    object      U.air;
}
// * * * * * * * * * * * * * * * * * * * * * * * * * * * * * * * * * * * * * //

dimensions      [0 1 -1 0 0 0 0];


internalField   nonuniform List<vector> 
1900
(
(39.9676 0.00859687 0)
(39.9239 0.015103 0)
(39.8679 0.0180587 0)
(39.8035 0.0207993 0)
(39.73 0.0237062 0)
(39.6526 0.0267683 0)
(39.5681 0.0297565 0)
(39.4712 0.034433 0)
(39.3801 0.0347838 0)
(39.2118 0.0735029 0)
(40.0053 0.0147927 0)
(40.0212 0.0233975 0)
(40.0401 0.0257182 0)
(40.0561 0.0277458 0)
(40.0726 0.0304775 0)
(40.0898 0.0329399 0)
(40.1095 0.0364837 0)
(40.1257 0.0385578 0)
(40.1466 0.0533817 0)
(40.1568 0.0585714 0)
(40.0029 0.00824745 0)
(40.0161 0.0135856 0)
(40.0335 0.0137912 0)
(40.051 0.0145443 0)
(40.0688 0.0163129 0)
(40.0879 0.0182043 0)
(40.1087 0.0208556 0)
(40.1299 0.0248049 0)
(40.1543 0.0350812 0)
(40.1844 0.0529454 0)
(40.0018 0.00414496 0)
(40.0132 0.00782145 0)
(40.0301 0.00860527 0)
(40.0479 0.00970547 0)
(40.066 0.0114323 0)
(40.0852 0.0132518 0)
(40.1064 0.0158683 0)
(40.1291 0.0197454 0)
(40.1561 0.0288801 0)
(40.1894 0.0416246 0)
(40.0015 0.001112 0)
(40.012 0.00211928 0)
(40.0285 0.00232728 0)
(40.0464 0.00266241 0)
(40.0645 0.0032531 0)
(40.084 0.00405072 0)
(40.1056 0.00562475 0)
(40.1294 0.00842123 0)
(40.1575 0.0146681 0)
(40.1918 0.0210543 0)
(40.0016 -0.00180292 0)
(40.0122 -0.00371605 0)
(40.0288 -0.00416325 0)
(40.0468 -0.00431398 0)
(40.065 -0.00436079 0)
(40.0846 -0.00401592 0)
(40.1066 -0.00289513 0)
(40.1311 -0.000789748 0)
(40.1597 0.00317607 0)
(40.1936 0.00640816 0)
(40.0019 -0.00486279 0)
(40.0136 -0.00947526 0)
(40.0308 -0.0105123 0)
(40.0489 -0.0114613 0)
(40.0672 -0.0126727 0)
(40.0871 -0.0134371 0)
(40.1094 -0.0134428 0)
(40.1344 -0.0127054 0)
(40.163 -0.0110203 0)
(40.1957 -0.0104532 0)
(40.0032 -0.00926927 0)
(40.0168 -0.0153327 0)
(40.0348 -0.0157393 0)
(40.0527 -0.016477 0)
(40.0709 -0.01804 0)
(40.0911 -0.0194037 0)
(40.1136 -0.0202815 0)
(40.1388 -0.020797 0)
(40.1672 -0.0210301 0)
(40.1987 -0.0225689 0)
(40.0057 -0.0162088 0)
(40.0223 -0.0253699 0)
(40.042 -0.0274341 0)
(40.0582 -0.0288787 0)
(40.0751 -0.0308084 0)
(40.0938 -0.0324197 0)
(40.1145 -0.0335734 0)
(40.1374 -0.0344434 0)
(40.1628 -0.0352272 0)
(40.1893 -0.0366674 0)
(39.9675 -0.0101412 0)
(39.9214 -0.0185951 0)
(39.8645 -0.0229106 0)
(39.797 -0.0265887 0)
(39.7223 -0.0303253 0)
(39.6428 -0.0339089 0)
(39.5582 -0.0373399 0)
(39.4686 -0.0407417 0)
(39.3739 -0.044104 0)
(39.2741 -0.0480425 0)
(39.1724 -0.0392833 0)
(38.0177 -0.354715 0)
(36.4706 -0.79503 0)
(34.9649 -1.35456 0)
(33.8571 -1.88881 0)
(33.1084 -2.33222 0)
(32.5392 -2.60364 0)
(32.0829 -2.66924 0)
(31.6443 -2.56931 0)
(31.2125 -2.34917 0)
(30.7877 -2.07062 0)
(30.3642 -1.7793 0)
(29.9521 -1.50816 0)
(29.5487 -1.27235 0)
(29.1577 -1.07647 0)
(28.7779 -0.916347 0)
(28.4111 -0.787861 0)
(28.0641 -0.687649 0)
(27.7413 -0.609612 0)
(27.4425 -0.546737 0)
(27.1682 -0.494983 0)
(26.9181 -0.452331 0)
(26.6953 -0.417329 0)
(26.495 -0.387232 0)
(26.3181 -0.360328 0)
(26.1597 -0.335669 0)
(26.0249 -0.31418 0)
(25.91 -0.29577 0)
(25.8115 -0.279426 0)
(25.7267 -0.264357 0)
(25.6539 -0.250577 0)
(25.5905 -0.238104 0)
(25.5362 -0.227011 0)
(25.4877 -0.216824 0)
(25.445 -0.207391 0)
(25.4079 -0.198514 0)
(25.3758 -0.190143 0)
(25.3482 -0.182392 0)
(25.3251 -0.1754 0)
(25.306 -0.169004 0)
(25.2906 -0.163099 0)
(25.2787 -0.157581 0)
(25.2698 -0.15229 0)
(25.2631 -0.14717 0)
(25.2584 -0.142437 0)
(25.2556 -0.138137 0)
(25.2546 -0.134117 0)
(25.2551 -0.130115 0)
(25.2571 -0.126203 0)
(25.2605 -0.122516 0)
(25.2652 -0.119151 0)
(25.2711 -0.116057 0)
(25.2782 -0.113116 0)
(25.2865 -0.11025 0)
(25.2957 -0.107453 0)
(25.3058 -0.10476 0)
(25.3167 -0.102235 0)
(25.3284 -0.0998928 0)
(25.3407 -0.097695 0)
(25.3536 -0.0955677 0)
(25.3671 -0.0934749 0)
(25.381 -0.0914255 0)
(25.3953 -0.0894901 0)
(25.41 -0.0876802 0)
(25.4251 -0.0859826 0)
(25.4405 -0.0843443 0)
(25.4562 -0.0827517 0)
(25.4721 -0.081196 0)
(25.4882 -0.079701 0)
(25.5045 -0.0782637 0)
(25.5209 -0.0768964 0)
(25.5375 -0.0755799 0)
(25.5541 -0.074308 0)
(25.5708 -0.0730599 0)
(25.5875 -0.0718442 0)
(25.6042 -0.0706547 0)
(25.6208 -0.069509 0)
(25.6375 -0.0683867 0)
(25.6539 -0.067299 0)
(25.6704 -0.0662156 0)
(25.6866 -0.0651592 0)
(25.7028 -0.0641057 0)
(25.7186 -0.0630857 0)
(25.7345 -0.0620667 0)
(25.75 -0.0610752 0)
(25.7655 -0.0600793 0)
(25.7805 -0.0591112 0)
(25.7956 -0.0581443 0)
(25.8103 -0.0572132 0)
(25.8249 -0.0562907 0)
(25.8391 -0.0554162 0)
(25.8533 -0.0545558 0)
(25.867 -0.0537845 0)
(25.8809 -0.0530293 0)
(25.8941 -0.052531 0)
(25.9078 -0.0519793 0)
(25.9204 -0.0522652 0)
(25.9349 -0.0520668 0)
(25.9452 -0.0543086 0)
(25.9652 -0.0544219 0)
(40.259 0.205369 0)
(40.4989 0.295871 0)
(40.6487 -0.0460548 0)
(40.4722 -0.668261 0)
(39.9271 -1.3308 0)
(39.098 -1.8941 0)
(38.1063 -2.25378 0)
(37.0581 -2.38379 0)
(36.0566 -2.3223 0)
(35.1522 -2.13276 0)
(34.3681 -1.88023 0)
(33.6988 -1.61238 0)
(33.135 -1.36037 0)
(32.6564 -1.14028 0)
(32.2426 -0.955933 0)
(31.8708 -0.803511 0)
(31.523 -0.680081 0)
(31.1897 -0.583436 0)
(30.8661 -0.508257 0)
(30.5468 -0.447721 0)
(30.2279 -0.397898 0)
(29.9175 -0.358985 0)
(29.623 -0.33003 0)
(29.3432 -0.306901 0)
(29.0779 -0.286671 0)
(28.8285 -0.269534 0)
(28.5974 -0.256305 0)
(28.3872 -0.24582 0)
(28.1952 -0.236313 0)
(28.0212 -0.22714 0)
(27.8621 -0.218448 0)
(27.7175 -0.21039 0)
(27.5862 -0.202815 0)
(27.4679 -0.195536 0)
(27.3609 -0.188476 0)
(27.264 -0.181638 0)
(27.1763 -0.17508 0)
(27.0971 -0.168957 0)
(27.0259 -0.163405 0)
(26.9616 -0.158322 0)
(26.9039 -0.153574 0)
(26.8513 -0.149025 0)
(26.803 -0.144605 0)
(26.7589 -0.140354 0)
(26.7188 -0.136435 0)
(26.6824 -0.132886 0)
(26.6496 -0.129555 0)
(26.6201 -0.126266 0)
(26.5935 -0.123 0)
(26.5698 -0.119909 0)
(26.5488 -0.117118 0)
(26.5301 -0.114564 0)
(26.5138 -0.112138 0)
(26.4996 -0.109741 0)
(26.4874 -0.107353 0)
(26.477 -0.105014 0)
(26.4681 -0.102784 0)
(26.4606 -0.100699 0)
(26.4543 -0.0987548 0)
(26.4492 -0.0968655 0)
(26.4452 -0.0949919 0)
(26.4423 -0.0931327 0)
(26.4405 -0.0913979 0)
(26.4395 -0.089788 0)
(26.4393 -0.0882895 0)
(26.4398 -0.0867841 0)
(26.441 -0.0853155 0)
(26.4428 -0.0838745 0)
(26.4452 -0.0824811 0)
(26.448 -0.0811328 0)
(26.4512 -0.0798446 0)
(26.4548 -0.0785978 0)
(26.4588 -0.0773833 0)
(26.463 -0.0761793 0)
(26.4674 -0.0749934 0)
(26.4719 -0.0738244 0)
(26.4766 -0.0726891 0)
(26.4814 -0.0715725 0)
(26.4863 -0.0704791 0)
(26.4911 -0.069386 0)
(26.496 -0.068308 0)
(26.5009 -0.0672297 0)
(26.5057 -0.0661791 0)
(26.5106 -0.0651269 0)
(26.5153 -0.0641 0)
(26.52 -0.063064 0)
(26.5246 -0.0620558 0)
(26.5292 -0.0610439 0)
(26.5336 -0.0600701 0)
(26.538 -0.0591003 0)
(26.5423 -0.0581822 0)
(26.5465 -0.0572742 0)
(26.5506 -0.0564612 0)
(26.5547 -0.0556616 0)
(26.5586 -0.0551283 0)
(26.5626 -0.0545467 0)
(26.5663 -0.0548246 0)
(26.5703 -0.054563 0)
(26.5737 -0.0569861 0)
(26.5795 -0.0567942 0)
(40.2699 0.127743 0)
(40.4561 0.0177445 0)
(40.6021 -0.368696 0)
(40.4975 -0.9089 0)
(40.0434 -1.44081 0)
(39.2826 -1.86015 0)
(38.3233 -2.09988 0)
(37.2921 -2.15547 0)
(36.2749 -2.06655 0)
(35.365 -1.88546 0)
(34.5849 -1.65925 0)
(33.935 -1.42309 0)
(33.4067 -1.20182 0)
(32.9849 -1.00873 0)
(32.6478 -0.845366 0)
(32.372 -0.707482 0)
(32.1435 -0.594184 0)
(31.9552 -0.505266 0)
(31.7964 -0.434994 0)
(31.653 -0.376126 0)
(31.5157 -0.327118 0)
(31.3831 -0.289496 0)
(31.2498 -0.261112 0)
(31.1131 -0.238444 0)
(30.9695 -0.218901 0)
(30.8159 -0.20236 0)
(30.6526 -0.189956 0)
(30.4821 -0.181014 0)
(30.3069 -0.173669 0)
(30.129 -0.16691 0)
(29.9496 -0.160889 0)
(29.7718 -0.156014 0)
(29.5984 -0.152211 0)
(29.4343 -0.148983 0)
(29.2795 -0.145986 0)
(29.1338 -0.1431 0)
(28.9974 -0.140442 0)
(28.8709 -0.138091 0)
(28.7539 -0.135959 0)
(28.6458 -0.133868 0)
(28.5455 -0.131753 0)
(28.4522 -0.129493 0)
(28.3651 -0.126934 0)
(28.2842 -0.124215 0)
(28.2093 -0.121639 0)
(28.14 -0.119299 0)
(28.0758 -0.117055 0)
(28.0162 -0.114739 0)
(27.961 -0.112352 0)
(27.9098 -0.110023 0)
(27.8622 -0.107902 0)
(27.8178 -0.105997 0)
(27.7765 -0.104237 0)
(27.7382 -0.10252 0)
(27.7028 -0.100793 0)
(27.67 -0.099076 0)
(27.6397 -0.0974487 0)
(27.6116 -0.0959324 0)
(27.5858 -0.0945022 0)
(27.5619 -0.0930821 0)
(27.5399 -0.091638 0)
(27.5197 -0.0901798 0)
(27.5011 -0.0887546 0)
(27.4835 -0.0873777 0)
(27.4671 -0.0860872 0)
(27.4516 -0.0848337 0)
(27.4373 -0.0836133 0)
(27.4236 -0.082381 0)
(27.4109 -0.0811786 0)
(27.3987 -0.0799877 0)
(27.3873 -0.0788519 0)
(27.3762 -0.0777291 0)
(27.3658 -0.0766307 0)
(27.3556 -0.0755125 0)
(27.3458 -0.0744073 0)
(27.3362 -0.0732945 0)
(27.327 -0.0722165 0)
(27.3179 -0.0711354 0)
(27.3091 -0.070079 0)
(27.3002 -0.0690039 0)
(27.2917 -0.0679486 0)
(27.2832 -0.0668798 0)
(27.2749 -0.0658391 0)
(27.2666 -0.0647912 0)
(27.2585 -0.0637672 0)
(27.2504 -0.0627331 0)
(27.2425 -0.0617235 0)
(27.2346 -0.0607119 0)
(27.2269 -0.0597346 0)
(27.2192 -0.0587649 0)
(27.2116 -0.0578416 0)
(27.2041 -0.0569339 0)
(27.1968 -0.0561151 0)
(27.1894 -0.055316 0)
(27.1823 -0.0547767 0)
(27.1749 -0.0541999 0)
(27.1683 -0.0544651 0)
(27.1605 -0.0542665 0)
(27.1552 -0.0566432 0)
(27.1446 -0.0564505 0)
(40.2634 0.067339 0)
(40.4034 0.00416998 0)
(40.4966 -0.262167 0)
(40.3657 -0.678571 0)
(39.9156 -1.11199 0)
(39.179 -1.46757 0)
(38.2537 -1.69384 0)
(37.2568 -1.77786 0)
(36.2687 -1.7394 0)
(35.3818 -1.61418 0)
(34.6135 -1.4398 0)
(33.9656 -1.24802 0)
(33.4367 -1.06439 0)
(33.0132 -0.90174 0)
(32.6707 -0.761077 0)
(32.3885 -0.640466 0)
(32.1602 -0.541987 0)
(31.9813 -0.465465 0)
(31.8369 -0.40366 0)
(31.711 -0.349758 0)
(31.6011 -0.304521 0)
(31.513 -0.270623 0)
(31.4449 -0.245149 0)
(31.3836 -0.222105 0)
(31.3222 -0.199798 0)
(31.2655 -0.180652 0)
(31.2167 -0.16593 0)
(31.1709 -0.154106 0)
(31.1238 -0.143718 0)
(31.0723 -0.133923 0)
(31.0143 -0.124806 0)
(30.9502 -0.117329 0)
(30.8806 -0.112031 0)
(30.8052 -0.108347 0)
(30.7231 -0.105278 0)
(30.6334 -0.102359 0)
(30.5364 -0.0998315 0)
(30.4335 -0.0980718 0)
(30.3268 -0.09699 0)
(30.2182 -0.0962536 0)
(30.1091 -0.0955754 0)
(30.0005 -0.0948024 0)
(29.8936 -0.0940327 0)
(29.7898 -0.0934486 0)
(29.6906 -0.0931295 0)
(29.5961 -0.0929681 0)
(29.5062 -0.0927613 0)
(29.4205 -0.0923957 0)
(29.3392 -0.0919586 0)
(29.2626 -0.0915333 0)
(29.1905 -0.0910761 0)
(29.1224 -0.09054 0)
(29.0579 -0.0899148 0)
(28.9963 -0.0891946 0)
(28.9379 -0.0883878 0)
(28.8822 -0.0874857 0)
(28.8296 -0.0865597 0)
(28.7799 -0.0856815 0)
(28.733 -0.0848499 0)
(28.6883 -0.0839887 0)
(28.6461 -0.0830611 0)
(28.6059 -0.0821116 0)
(28.5678 -0.081181 0)
(28.5311 -0.0802446 0)
(28.4963 -0.0793218 0)
(28.4626 -0.0783816 0)
(28.4304 -0.0774237 0)
(28.3989 -0.0764217 0)
(28.3686 -0.0754147 0)
(28.3388 -0.0743944 0)
(28.31 -0.07341 0)
(28.2814 -0.0724238 0)
(28.2537 -0.0714421 0)
(28.2261 -0.0704277 0)
(28.1993 -0.0694119 0)
(28.1726 -0.0683851 0)
(28.1466 -0.0673851 0)
(28.1206 -0.066381 0)
(28.0953 -0.0653925 0)
(28.07 -0.0643854 0)
(28.0454 -0.0633966 0)
(28.0208 -0.0623975 0)
(27.9969 -0.0614225 0)
(27.973 -0.0604372 0)
(27.9498 -0.0594736 0)
(27.9265 -0.0584972 0)
(27.904 -0.0575463 0)
(27.8814 -0.0565907 0)
(27.8596 -0.0556716 0)
(27.8377 -0.0547573 0)
(27.8166 -0.0538909 0)
(27.7954 -0.0530396 0)
(27.775 -0.0522739 0)
(27.7544 -0.0515315 0)
(27.7348 -0.0510339 0)
(27.7145 -0.0505159 0)
(27.6962 -0.0507826 0)
(27.6747 -0.0506787 0)
(27.6601 -0.0528899 0)
(27.6311 -0.0531151 0)
(40.2555 0.0314289 0)
(40.3567 -0.0318831 0)
(40.4022 -0.258915 0)
(40.2468 -0.617321 0)
(39.8045 -0.995502 0)
(39.098 -1.30664 0)
(38.2123 -1.50469 0)
(37.2565 -1.57681 0)
(36.2995 -1.54025 0)
(35.432 -1.4285 0)
(34.6706 -1.27395 0)
(34.0237 -1.10524 0)
(33.4943 -0.945553 0)
(33.0668 -0.803935 0)
(32.7144 -0.679203 0)
(32.424 -0.57265 0)
(32.1957 -0.488053 0)
(32.0173 -0.422031 0)
(31.8646 -0.365775 0)
(31.7285 -0.316051 0)
(31.6185 -0.276876 0)
(31.5372 -0.249122 0)
(31.4685 -0.226283 0)
(31.4003 -0.203705 0)
(31.3377 -0.183401 0)
(31.2894 -0.168188 0)
(31.2538 -0.157098 0)
(31.2228 -0.147431 0)
(31.1909 -0.137672 0)
(31.1582 -0.127842 0)
(31.1315 -0.119425 0)
(31.1122 -0.112852 0)
(31.0963 -0.10754 0)
(31.0801 -0.102648 0)
(31.0612 -0.0973953 0)
(31.0407 -0.0919724 0)
(31.021 -0.0870864 0)
(31.0011 -0.0830284 0)
(30.9798 -0.0798824 0)
(30.9556 -0.0772538 0)
(30.9269 -0.0746701 0)
(30.8929 -0.0721184 0)
(30.8538 -0.070003 0)
(30.8102 -0.0686277 0)
(30.7626 -0.0679188 0)
(30.7108 -0.0675174 0)
(30.6547 -0.0670809 0)
(30.5942 -0.0665663 0)
(30.5298 -0.0661585 0)
(30.4625 -0.0659891 0)
(30.3937 -0.0660422 0)
(30.3243 -0.0662248 0)
(30.2547 -0.0663985 0)
(30.1851 -0.0664942 0)
(30.1155 -0.0665423 0)
(30.0464 -0.0666084 0)
(29.9787 -0.0667698 0)
(29.912 -0.0669762 0)
(29.8469 -0.0671541 0)
(29.7825 -0.0672459 0)
(29.7199 -0.0672212 0)
(29.6582 -0.0670783 0)
(29.5982 -0.0668218 0)
(29.5394 -0.0664918 0)
(29.4822 -0.066122 0)
(29.426 -0.0656951 0)
(29.3712 -0.0651897 0)
(29.317 -0.0645832 0)
(29.2643 -0.063913 0)
(29.2119 -0.063183 0)
(29.161 -0.0624501 0)
(29.1102 -0.0616845 0)
(29.0609 -0.0608971 0)
(29.0117 -0.0600579 0)
(28.9639 -0.0592008 0)
(28.9162 -0.0583201 0)
(28.8699 -0.0574604 0)
(28.8236 -0.0565902 0)
(28.7787 -0.0557326 0)
(28.7339 -0.0548565 0)
(28.6904 -0.053974 0)
(28.647 -0.053078 0)
(28.6049 -0.0522148 0)
(28.5629 -0.0513527 0)
(28.5223 -0.0505156 0)
(28.4817 -0.0496721 0)
(28.4426 -0.0488553 0)
(28.4035 -0.0480374 0)
(28.3658 -0.0472563 0)
(28.3282 -0.0464817 0)
(28.292 -0.0457541 0)
(28.2558 -0.0450441 0)
(28.2211 -0.0444125 0)
(28.1862 -0.0438119 0)
(28.1531 -0.0434222 0)
(28.119 -0.0430496 0)
(28.0883 -0.0433167 0)
(28.0523 -0.0434261 0)
(28.0279 -0.045281 0)
(27.9796 -0.0464645 0)
(40.2478 0.00636931 0)
(40.3189 -0.0529351 0)
(40.3277 -0.234955 0)
(40.154 -0.518805 0)
(39.7188 -0.818106 0)
(39.0361 -1.06199 0)
(38.1812 -1.21597 0)
(37.2551 -1.27213 0)
(36.3238 -1.24534 0)
(35.4711 -1.16093 0)
(34.7155 -1.042 0)
(34.0725 -0.911807 0)
(33.5437 -0.787336 0)
(33.1079 -0.673902 0)
(32.7447 -0.572188 0)
(32.4508 -0.486476 0)
(32.2227 -0.41982 0)
(32.0364 -0.365857 0)
(31.8689 -0.316958 0)
(31.7279 -0.275819 0)
(31.625 -0.246893 0)
(31.5435 -0.225301 0)
(31.4625 -0.204072 0)
(31.3853 -0.183506 0)
(31.3255 -0.167752 0)
(31.2823 -0.156991 0)
(31.245 -0.14786 0)
(31.2061 -0.13785 0)
(31.1663 -0.127588 0)
(31.1346 -0.119427 0)
(31.1115 -0.11338 0)
(31.093 -0.108277 0)
(31.0745 -0.103158 0)
(31.0536 -0.097673 0)
(31.0341 -0.0926166 0)
(31.0194 -0.0885456 0)
(31.0084 -0.085215 0)
(30.9987 -0.0823024 0)
(30.9884 -0.0796027 0)
(30.9765 -0.0768308 0)
(30.9652 -0.0740952 0)
(30.9559 -0.0714301 0)
(30.9475 -0.0689385 0)
(30.9389 -0.0668833 0)
(30.9292 -0.0651968 0)
(30.9177 -0.0635208 0)
(30.9044 -0.0616276 0)
(30.8895 -0.0596018 0)
(30.873 -0.0577217 0)
(30.8543 -0.0562078 0)
(30.8328 -0.0550515 0)
(30.8077 -0.0540969 0)
(30.7787 -0.0531685 0)
(30.7455 -0.0522062 0)
(30.7085 -0.0512723 0)
(30.6676 -0.0505228 0)
(30.623 -0.0499418 0)
(30.5744 -0.0494729 0)
(30.522 -0.0490317 0)
(30.4659 -0.0486004 0)
(30.4064 -0.0481722 0)
(30.3442 -0.0477499 0)
(30.2795 -0.0473573 0)
(30.2129 -0.0470083 0)
(30.1445 -0.046686 0)
(30.0748 -0.0463599 0)
(30.0042 -0.0459902 0)
(29.9329 -0.0455676 0)
(29.8616 -0.0451009 0)
(29.79 -0.044614 0)
(29.7191 -0.0441308 0)
(29.6481 -0.0436367 0)
(29.5783 -0.0431286 0)
(29.5085 -0.0425825 0)
(29.4403 -0.0420209 0)
(29.3723 -0.0414317 0)
(29.306 -0.0408602 0)
(29.24 -0.0402775 0)
(29.1758 -0.039709 0)
(29.112 -0.0391194 0)
(29.05 -0.0385587 0)
(28.9885 -0.037992 0)
(28.929 -0.037436 0)
(28.8699 -0.0368762 0)
(28.8129 -0.0363297 0)
(28.7563 -0.03578 0)
(28.7019 -0.0352493 0)
(28.6477 -0.0347223 0)
(28.5959 -0.0342246 0)
(28.5442 -0.0337363 0)
(28.495 -0.0332866 0)
(28.4457 -0.032854 0)
(28.3989 -0.0324843 0)
(28.3518 -0.0321527 0)
(28.3075 -0.031975 0)
(28.2617 -0.0318697 0)
(28.2208 -0.0321647 0)
(28.1729 -0.0326446 0)
(28.1403 -0.0339062 0)
(28.076 -0.0366339 0)
(40.2419 -0.0161658 0)
(40.2904 -0.0671903 0)
(40.2717 -0.206836 0)
(40.0832 -0.423797 0)
(39.6529 -0.656248 0)
(38.9885 -0.849195 0)
(38.1577 -0.975738 0)
(37.2543 -1.02801 0)
(36.3428 -1.01543 0)
(35.4983 -0.955254 0)
(34.7446 -0.864353 0)
(34.0995 -0.763162 0)
(33.5621 -0.665118 0)
(33.1086 -0.572387 0)
(32.7321 -0.489433 0)
(32.4382 -0.422841 0)
(32.2017 -0.369074 0)
(31.9915 -0.320558 0)
(31.8122 -0.278419 0)
(31.677 -0.247323 0)
(31.5688 -0.22428 0)
(31.4644 -0.202886 0)
(31.366 -0.182325 0)
(31.2873 -0.166054 0)
(31.2261 -0.154701 0)
(31.1699 -0.145391 0)
(31.1117 -0.135542 0)
(31.0554 -0.125573 0)
(31.0083 -0.117653 0)
(30.9689 -0.112026 0)
(30.9319 -0.107195 0)
(30.8939 -0.101948 0)
(30.8539 -0.0963696 0)
(30.8168 -0.0915776 0)
(30.7835 -0.0879233 0)
(30.7519 -0.0848825 0)
(30.7203 -0.0817218 0)
(30.6874 -0.0782754 0)
(30.6532 -0.0749141 0)
(30.6197 -0.0720501 0)
(30.5869 -0.0696347 0)
(30.5543 -0.0672786 0)
(30.5214 -0.0648572 0)
(30.4877 -0.0625772 0)
(30.4527 -0.0605029 0)
(30.4168 -0.058527 0)
(30.3803 -0.0565657 0)
(30.3437 -0.0546476 0)
(30.3069 -0.0528516 0)
(30.2696 -0.0512016 0)
(30.2315 -0.0495983 0)
(30.1924 -0.0479358 0)
(30.1524 -0.0461798 0)
(30.1119 -0.0443823 0)
(30.0712 -0.0426283 0)
(30.03 -0.0409865 0)
(29.9883 -0.039405 0)
(29.9455 -0.037803 0)
(29.9017 -0.0361734 0)
(29.8568 -0.0345807 0)
(29.8109 -0.0330732 0)
(29.764 -0.0316562 0)
(29.716 -0.0303251 0)
(29.6667 -0.0290663 0)
(29.6159 -0.0278782 0)
(29.5637 -0.0267685 0)
(29.5101 -0.0257417 0)
(29.4553 -0.0248004 0)
(29.3995 -0.0239295 0)
(29.3426 -0.0231471 0)
(29.2847 -0.0224474 0)
(29.2261 -0.0218212 0)
(29.1668 -0.021259 0)
(29.107 -0.0207526 0)
(29.047 -0.0202997 0)
(28.9867 -0.0198867 0)
(28.9267 -0.0195222 0)
(28.8665 -0.0191958 0)
(28.8071 -0.0189121 0)
(28.7476 -0.0186537 0)
(28.6893 -0.0184176 0)
(28.6309 -0.0182007 0)
(28.5741 -0.018015 0)
(28.5173 -0.0178578 0)
(28.4623 -0.0177247 0)
(28.4074 -0.0176103 0)
(28.3544 -0.0175134 0)
(28.3016 -0.0174334 0)
(28.2508 -0.0173713 0)
(28.2001 -0.0173253 0)
(28.1515 -0.0172983 0)
(28.1029 -0.0172863 0)
(28.0564 -0.0173071 0)
(28.0097 -0.0173683 0)
(27.9654 -0.0175024 0)
(27.9196 -0.0177723 0)
(27.8784 -0.0181373 0)
(27.8297 -0.0191004 0)
(27.7968 -0.019614 0)
(27.7301 -0.024158 0)
(40.2386 -0.030009 0)
(40.2709 -0.0704533 0)
(40.2318 -0.171527 0)
(40.0309 -0.327114 0)
(39.6008 -0.494845 0)
(38.9444 -0.634499 0)
(38.1223 -0.726381 0)
(37.2223 -0.765109 0)
(36.3098 -0.757847 0)
(35.4487 -0.716916 0)
(34.6806 -0.655536 0)
(34.0169 -0.586294 0)
(33.4421 -0.515142 0)
(32.9569 -0.44766 0)
(32.5625 -0.389684 0)
(32.2353 -0.341333 0)
(31.948 -0.298676 0)
(31.7024 -0.261418 0)
(31.5011 -0.231467 0)
(31.3287 -0.208217 0)
(31.1669 -0.188424 0)
(31.0185 -0.170536 0)
(30.8897 -0.155337 0)
(30.7754 -0.143521 0)
(30.666 -0.134027 0)
(30.5587 -0.125041 0)
(30.4574 -0.116107 0)
(30.3641 -0.10819 0)
(30.2757 -0.101935 0)
(30.1881 -0.0968235 0)
(30.1008 -0.0917532 0)
(30.0156 -0.0862941 0)
(29.9338 -0.0811634 0)
(29.8543 -0.0770142 0)
(29.7754 -0.0736248 0)
(29.6965 -0.070393 0)
(29.618 -0.0669044 0)
(29.5411 -0.0632971 0)
(29.4658 -0.0601092 0)
(29.3914 -0.0575169 0)
(29.3173 -0.0552026 0)
(29.2438 -0.0528076 0)
(29.1714 -0.0502932 0)
(29.1002 -0.0479008 0)
(29.0299 -0.0457771 0)
(28.9606 -0.0438658 0)
(28.8922 -0.042022 0)
(28.8251 -0.0401778 0)
(28.7592 -0.0383632 0)
(28.6946 -0.036634 0)
(28.631 -0.0349851 0)
(28.5689 -0.0334053 0)
(28.508 -0.0318871 0)
(28.4488 -0.030443 0)
(28.3909 -0.0290717 0)
(28.3347 -0.027781 0)
(28.2797 -0.0265165 0)
(28.2265 -0.0252498 0)
(28.1747 -0.0239918 0)
(28.1248 -0.0228014 0)
(28.0763 -0.0216784 0)
(28.0296 -0.0205989 0)
(27.9842 -0.01952 0)
(27.9406 -0.0184417 0)
(27.8981 -0.0173737 0)
(27.8574 -0.0163536 0)
(27.8177 -0.0153826 0)
(27.7796 -0.0144637 0)
(27.7423 -0.013572 0)
(27.7063 -0.0127223 0)
(27.671 -0.0119354 0)
(27.6368 -0.0112059 0)
(27.6031 -0.0105226 0)
(27.5703 -0.00989427 0)
(27.5379 -0.00932231 0)
(27.5061 -0.00881157 0)
(27.4747 -0.00835625 0)
(27.4436 -0.00796848 0)
(27.4129 -0.00764023 0)
(27.3824 -0.00736899 0)
(27.3522 -0.00714589 0)
(27.322 -0.00696562 0)
(27.2921 -0.00683011 0)
(27.2621 -0.00673931 0)
(27.2323 -0.00668831 0)
(27.2025 -0.00667227 0)
(27.1727 -0.00668555 0)
(27.1429 -0.00672895 0)
(27.1132 -0.00679745 0)
(27.0834 -0.0068924 0)
(27.0537 -0.00700769 0)
(27.024 -0.00714489 0)
(26.9945 -0.00730788 0)
(26.9647 -0.00751276 0)
(26.9355 -0.00772802 0)
(26.9049 -0.00811305 0)
(26.8769 -0.0083564 0)
(26.8424 -0.00948515 0)
(26.8199 -0.00918239 0)
(26.7695 -0.0145937 0)
(40.2229 -0.0441215 0)
(40.2345 -0.0683461 0)
(40.1702 -0.129278 0)
(39.943 -0.223499 0)
(39.4859 -0.326545 0)
(38.7965 -0.41377 0)
(37.9306 -0.472601 0)
(36.9721 -0.498823 0)
(35.9891 -0.496058 0)
(35.0465 -0.471945 0)
(34.182 -0.43402 0)
(33.4035 -0.389108 0)
(32.721 -0.343053 0)
(32.1352 -0.300542 0)
(31.6283 -0.263306 0)
(31.1849 -0.230782 0)
(30.7967 -0.202436 0)
(30.4601 -0.178794 0)
(30.1615 -0.159347 0)
(29.8913 -0.142865 0)
(29.6419 -0.128234 0)
(29.4158 -0.115987 0)
(29.2103 -0.105972 0)
(29.0191 -0.0973284 0)
(28.8385 -0.0895337 0)
(28.6682 -0.0825205 0)
(28.5088 -0.0762946 0)
(28.3588 -0.0706629 0)
(28.216 -0.0655185 0)
(28.0787 -0.0607872 0)
(27.9471 -0.0563874 0)
(27.8217 -0.052218 0)
(27.7022 -0.0483454 0)
(27.5879 -0.0448606 0)
(27.4776 -0.0416517 0)
(27.3712 -0.0386203 0)
(27.2689 -0.0357125 0)
(27.1711 -0.0329555 0)
(27.0775 -0.0304463 0)
(26.9875 -0.0281833 0)
(26.9006 -0.0260656 0)
(26.8169 -0.0240234 0)
(26.7366 -0.0220624 0)
(26.6597 -0.0202716 0)
(26.5857 -0.0186675 0)
(26.5147 -0.0171893 0)
(26.4461 -0.0157679 0)
(26.3804 -0.0144028 0)
(26.3172 -0.0131334 0)
(26.2567 -0.0119962 0)
(26.1983 -0.0109631 0)
(26.1426 -0.00999553 0)
(26.0888 -0.00906842 0)
(26.0376 -0.00818566 0)
(25.9883 -0.00735642 0)
(25.9414 -0.00659947 0)
(25.8962 -0.00589553 0)
(25.8534 -0.00521939 0)
(25.8122 -0.00456333 0)
(25.7734 -0.00394624 0)
(25.7362 -0.00336998 0)
(25.7011 -0.00283026 0)
(25.6674 -0.00231375 0)
(25.6359 -0.00182247 0)
(25.6058 -0.00135901 0)
(25.5776 -0.000932495 0)
(25.5507 -0.000536743 0)
(25.5256 -0.000164839 0)
(25.5016 0.000190938 0)
(25.4791 0.000524156 0)
(25.4577 0.000841438 0)
(25.4376 0.00107686 0)
(25.4184 0.0012755 0)
(25.4002 0.0014535 0)
(25.3827 0.00162426 0)
(25.3661 0.0017758 0)
(25.35 0.0019192 0)
(25.3347 0.00203707 0)
(25.3197 0.00213802 0)
(25.3052 0.00222244 0)
(25.291 0.00229625 0)
(25.2772 0.00235028 0)
(25.2636 0.00239753 0)
(25.2503 0.00244022 0)
(25.2371 0.00247495 0)
(25.224 0.00250314 0)
(25.211 0.00252444 0)
(25.1981 0.00253889 0)
(25.185 0.00254046 0)
(25.172 0.00253295 0)
(25.1588 0.00251187 0)
(25.1455 0.00247907 0)
(25.1321 0.00242652 0)
(25.1184 0.0023179 0)
(25.1048 0.00222393 0)
(25.0899 0.00194268 0)
(25.0767 0.00194558 0)
(25.0582 0.000987233 0)
(25.0479 0.0015191 0)
(25.0178 -0.00294828 0)
(39.1402 -0.0539802 0)
(38.9464 -0.0675467 0)
(38.6586 -0.0934486 0)
(38.1914 -0.131021 0)
(37.4774 -0.172078 0)
(36.5128 -0.207808 0)
(35.3544 -0.233315 0)
(34.0901 -0.246385 0)
(32.7979 -0.247917 0)
(31.5412 -0.240265 0)
(30.3737 -0.225565 0)
(29.3095 -0.206454 0)
(28.3628 -0.186199 0)
(27.5265 -0.166483 0)
(26.7953 -0.147619 0)
(26.1535 -0.129907 0)
(25.5939 -0.114268 0)
(25.0998 -0.100725 0)
(24.666 -0.0886886 0)
(24.2803 -0.0775986 0)
(23.9409 -0.0681068 0)
(23.6353 -0.0607703 0)
(23.3583 -0.0546609 0)
(23.1076 -0.0490405 0)
(22.8795 -0.0441193 0)
(22.6712 -0.0401808 0)
(22.4794 -0.0368148 0)
(22.3038 -0.0335441 0)
(22.143 -0.0304554 0)
(21.9957 -0.0278796 0)
(21.8594 -0.0257811 0)
(21.734 -0.023813 0)
(21.6189 -0.0218515 0)
(21.5135 -0.02007 0)
(21.4164 -0.0186047 0)
(21.3268 -0.0174105 0)
(21.2438 -0.0163046 0)
(21.1678 -0.0151888 0)
(21.0981 -0.0141384 0)
(21.0341 -0.0132581 0)
(20.9749 -0.0125407 0)
(20.9205 -0.0118965 0)
(20.8703 -0.0112516 0)
(20.8245 -0.0106307 0)
(20.7824 -0.0100809 0)
(20.7438 -0.0096166 0)
(20.7081 -0.00920252 0)
(20.6755 -0.00880666 0)
(20.6456 -0.00842238 0)
(20.6185 -0.00806253 0)
(20.5935 -0.00772305 0)
(20.5708 -0.00740459 0)
(20.55 -0.00710558 0)
(20.5313 -0.00682997 0)
(20.5141 -0.00657231 0)
(20.4989 -0.00633735 0)
(20.4849 -0.0061141 0)
(20.4725 -0.00590011 0)
(20.4612 -0.00569344 0)
(20.4515 -0.00550966 0)
(20.4427 -0.00534342 0)
(20.4352 -0.00519198 0)
(20.4285 -0.00503521 0)
(20.423 -0.00487793 0)
(20.4182 -0.00470833 0)
(20.4146 -0.00454411 0)
(20.4115 -0.00436339 0)
(20.4095 -0.00418478 0)
(20.4081 -0.00396643 0)
(20.4076 -0.00370902 0)
(20.4077 -0.00353107 0)
(20.4085 -0.00335007 0)
(20.4099 -0.00319365 0)
(20.412 -0.00304902 0)
(20.4145 -0.00290972 0)
(20.4176 -0.00277677 0)
(20.4212 -0.00264783 0)
(20.4253 -0.002537 0)
(20.4297 -0.00243933 0)
(20.4344 -0.00235758 0)
(20.4394 -0.00229018 0)
(20.4446 -0.00226278 0)
(20.45 -0.00225334 0)
(20.4555 -0.00225472 0)
(20.4611 -0.0022641 0)
(20.4668 -0.0022794 0)
(20.4724 -0.00229681 0)
(20.4781 -0.00231476 0)
(20.4837 -0.00233681 0)
(20.4892 -0.00235729 0)
(20.4947 -0.00238259 0)
(20.4999 -0.00240515 0)
(20.5052 -0.00243504 0)
(20.5097 -0.00249606 0)
(20.5146 -0.00253995 0)
(20.518 -0.00268045 0)
(20.5227 -0.00262408 0)
(20.524 -0.00322298 0)
(20.5277 -0.0020813 0)
(20.5227 -0.00798319 0)
(1.95437 0.421237 0)
(1.64907 2.05102 0)
(0.910905 2.40128 0)
(0.110915 2.5677 0)
(-0.665574 2.43237 0)
(-1.46651 1.98152 0)
(-2.15367 1.28401 0)
(-2.51272 0.770952 0)
(10.5778 0.318084 0)
(4.36564 1.81698 0)
(1.74411 2.17481 0)
(-0.155017 2.21102 0)
(-2.00006 2.04563 0)
(-3.8773 1.69172 0)
(-5.71493 1.11972 0)
(-6.92409 0.530807 0)
(16.8868 -0.371864 0)
(7.91511 0.751521 0)
(2.86677 1.2142 0)
(-0.390799 1.32793 0)
(-2.9925 1.24932 0)
(-5.40338 1.0588 0)
(-7.85091 0.75371 0)
(-9.97521 0.288393 0)
(20.5479 -1.17077 0)
(11.239 -0.438563 0)
(4.58036 0.0734974 0)
(0.166284 0.312115 0)
(-3.14767 0.393393 0)
(-6.02669 0.379207 0)
(-8.77042 0.303337 0)
(-11.4791 0.076039 0)
(22.4347 -1.81035 0)
(13.5547 -1.3272 0)
(6.44275 -0.873382 0)
(1.28496 -0.548986 0)
(-2.61863 -0.328244 0)
(-5.86405 -0.179408 0)
(-8.80813 -0.0646677 0)
(-11.7951 -0.0515941 0)
(23.6383 -2.31559 0)
(15.4316 -1.97617 0)
(8.25977 -1.57569 0)
(2.74329 -1.21556 0)
(-1.47203 -0.904722 0)
(-4.91752 -0.630896 0)
(-7.98475 -0.380775 0)
(-11.1055 -0.205934 0)
(24.3328 -2.60591 0)
(16.9013 -2.37073 0)
(10.0265 -2.03614 0)
(4.44227 -1.67066 0)
(0.115644 -1.30547 0)
(-3.37701 -0.946681 0)
(-6.43095 -0.597689 0)
(-9.51234 -0.307155 0)
(24.7684 -2.67811 0)
(17.9673 -2.50952 0)
(11.5151 -2.23417 0)
(6.15524 -1.89323 0)
(1.91904 -1.51318 0)
(-1.51039 -1.11244 0)
(-4.48995 -0.712748 0)
(-7.52815 -0.358468 0)
(25.0647 -2.58802 0)
(18.8341 -2.46094 0)
(12.8345 -2.23084 0)
(7.79373 -1.9191 0)
(3.76295 -1.55071 0)
(0.479171 -1.14692 0)
(-2.37455 -0.740298 0)
(-5.32867 -0.369166 0)
(25.2506 -2.38104 0)
(19.53 -2.287 0)
(13.9916 -2.09705 0)
(9.31676 -1.82106 0)
(5.5374 -1.48026 0)
(2.42559 -1.09671 0)
(-0.297187 -0.70874 0)
(-3.17841 -0.353603 0)
(25.3303 -2.11415 0)
(20.061 -2.05196 0)
(14.9677 -1.89762 0)
(10.6754 -1.65954 0)
(7.16907 -1.35439 0)
(4.24232 -1.00528 0)
(1.65849 -0.650674 0)
(-1.14563 -0.325802 0)
(25.3135 -1.83579 0)
(20.4572 -1.79952 0)
(15.8049 -1.67552 0)
(11.8636 -1.4726 0)
(8.60686 -1.20379 0)
(5.86518 -0.895543 0)
(3.41697 -0.580621 0)
(0.697402 -0.291771 0)
(25.2213 -1.5731 0)
(20.7376 -1.55729 0)
(16.5022 -1.4585 0)
(12.89 -1.28582 0)
(9.86466 -1.05184 0)
(7.293 -0.782386 0)
(4.96295 -0.504616 0)
(2.30908 -0.250239 0)
(25.0829 -1.34419 0)
(20.9382 -1.34083 0)
(17.0849 -1.26225 0)
(13.772 -1.11571 0)
(10.9562 -0.913128 0)
(8.5381 -0.679133 0)
(6.31398 -0.435864 0)
(3.7176 -0.214239 0)
(24.9178 -1.15166 0)
(21.0779 -1.15579 0)
(17.5718 -1.09233 0)
(14.5309 -0.967485 0)
(11.9025 -0.79313 0)
(9.61973 -0.590435 0)
(7.48694 -0.377615 0)
(4.93558 -0.184603 0)
(24.7443 -0.991666 0)
(21.1871 -0.99793 0)
(17.979 -0.946104 0)
(15.1721 -0.839111 0)
(12.7165 -0.690295 0)
(10.558 -0.51507 0)
(8.50805 -0.328119 0)
(5.99462 -0.161709 0)
(24.58 -0.860641 0)
(21.2815 -0.86604 0)
(18.324 -0.82169 0)
(15.7152 -0.729497 0)
(13.4164 -0.602007 0)
(11.372 -0.450005 0)
(9.40053 -0.283927 0)
(6.91648 -0.1456 0)
(24.4329 -0.754912 0)
(21.3677 -0.75871 0)
(18.6238 -0.718824 0)
(16.1848 -0.638346 0)
(14.0233 -0.527592 0)
(12.0818 -0.394631 0)
(10.1861 -0.246586 0)
(7.71751 -0.131183 0)
(24.3064 -0.669824 0)
(21.4502 -0.671734 0)
(18.8903 -0.63504 0)
(16.5978 -0.563553 0)
(14.5557 -0.465887 0)
(12.7051 -0.348534 0)
(10.8773 -0.217054 0)
(8.42334 -0.116061 0)
(24.1987 -0.599216 0)
(21.5304 -0.599721 0)
(19.1309 -0.565601 0)
(16.966 -0.50135 0)
(15.0279 -0.414259 0)
(13.2573 -0.309779 0)
(11.4892 -0.192751 0)
(9.048 -0.1024 0)
(24.1082 -0.539039 0)
(21.6087 -0.538908 0)
(19.3496 -0.506955 0)
(17.2973 -0.4491 0)
(15.4505 -0.370859 0)
(13.7501 -0.277074 0)
(12.0344 -0.172227 0)
(9.60361 -0.090749 0)
(24.0331 -0.488488 0)
(21.6843 -0.487819 0)
(19.5463 -0.458017 0)
(17.5965 -0.405653 0)
(15.8317 -0.334821 0)
(14.1938 -0.24992 0)
(12.5241 -0.155164 0)
(10.1015 -0.0811812 0)
(23.9713 -0.44728 0)
(21.7572 -0.445664 0)
(19.727 -0.417706 0)
(17.8695 -0.369675 0)
(16.1785 -0.304922 0)
(14.5968 -0.227412 0)
(12.9681 -0.141021 0)
(10.552 -0.0733342 0)
(23.921 -0.412553 0)
(21.829 -0.409862 0)
(19.8957 -0.383581 0)
(18.1212 -0.339143 0)
(16.4969 -0.279542 0)
(14.9659 -0.208326 0)
(13.3739 -0.129011 0)
(10.9628 -0.0667086 0)
(23.8801 -0.381543 0)
(21.8979 -0.378155 0)
(20.0525 -0.353327 0)
(18.3534 -0.312082 0)
(16.7899 -0.257075 0)
(15.3053 -0.191443 0)
(13.7465 -0.118365 0)
(11.339 -0.0609163 0)
(23.8482 -0.353768 0)
(21.9658 -0.349316 0)
(20.1997 -0.326225 0)
(18.5689 -0.287909 0)
(17.0604 -0.236965 0)
(15.6179 -0.176304 0)