/*--------------------------------*- C++ -*----------------------------------*\
| =========                 |                                                 |
| \\      /  F ield         | OpenFOAM: The Open Source CFD Toolbox           |
|  \\    /   O peration     | Version:  v2012                                 |
|   \\  /    A nd           | Website:  www.openfoam.com                      |
|    \\/     M anipulation  |                                                 |
\*---------------------------------------------------------------------------*/
FoamFile
{
    version     2.0;
    format      ascii;
    class       volScalarField;
    location    "0.271";
    object      epsilon.air;
}
// * * * * * * * * * * * * * * * * * * * * * * * * * * * * * * * * * * * * * //

dimensions      [0 2 -3 0 0 0 0];


internalField   nonuniform List<scalar> 
1900
(
112.724
141.424
210.097
257.591
369.051
443.457
614.739
724.909
971.32
1128.62
15.4676
16.4471
18.6372
20.4506
23.7568
27.7276
32.0037
39.2877
45.1237
56.7643
14.7926
14.6415
14.5755
14.5063
14.5148
14.5573
14.6409
14.8309
15.0774
15.4134
14.77
14.6304
14.4634
14.3354
14.1726
14.059
13.904
13.8079
13.6654
13.5937
14.7766
14.6216
14.4704
14.3204
14.1748
14.0289
13.889
13.7471
13.614
13.4768
14.7777
14.6205
14.4714
14.3196
14.1754
14.0284
13.8892
13.7472
13.6134
13.4773
14.7777
14.6207
14.473
14.3235
14.1841
14.045
13.9175
13.7914
13.6807
13.5716
14.7761
14.6497
14.5637
14.5032
14.5106
14.5516
14.6366
14.8198
15.0462
15.394
15.2127
16.5982
18.2777
20.6746
23.595
27.5652
32.2715
38.3937
45.5807
54.7947
105.935
146.56
198.348
265.738
349.966
456.028
585.598
743.662
931.787
1154.04
4099.85
15204.3
19578.4
22425.7
21087.8
17992.3
15068.3
12782.1
11298.5
10387.3
9891.73
9714.42
9535.57
9264.31
8854.27
8352.7
7796.71
7210.15
6644.3
6125.97
5649
5222.3
4838.08
4487.12
4167.66
3878.15
3615.52
3377.94
3162.12
2966.25
2787.98
2625.27
2476.45
2339.97
2214.66
2099.33
1993.03
1894.8
1803.88
1719.51
1641.12
1568.12
1500.04
1436.44
1376.95
1321.23
1268.96
1219.86
1173.69
1130.19
1089.16
1050.38
1013.68
978.893
945.864
914.444
884.527
855.979
828.729
802.651
777.71
753.782
730.86
708.816
687.676
667.296
647.741
628.843
610.714
593.148
576.319
559.969
544.347
529.119
514.626
500.434
486.997
473.755
461.301
448.914
437.37
425.742
415.038
404.077
394.159
383.782
374.615
364.749
356.32
346.893
339.209
330.145
323.23
314.437
308.327
299.696
294.435
285.832
281.452
271.135
113.158
337.88
517.991
921.97
1123.45
1147.44
1119.78
1055.8
1051.48
1091.33
1197.57
1412.71
1699.53
2031.67
2382.06
2694.42
2971.88
3204.41
3359.95
3435.67
3427.36
3388.03
3301.86
3183.92
3055.38
2924.06
2793.24
2666.8
2543.41
2426.09
2314.14
2207.25
2105.94
2010.03
1919.7
1834.64
1754.75
1679.51
1608.73
1542.07
1479.28
1420.06
1364.16
1311.36
1261.44
1214.21
1169.49
1127.09
1086.87
1048.68
1012.37
977.805
944.865
913.424
883.383
854.627
827.083
800.646
775.274
750.87
727.418
704.823
683.095
662.13
641.968
622.486
603.759
585.633
568.225
551.341
535.154
519.421
504.379
489.718
475.758
462.097
449.16
436.426
424.449
412.559
401.477
390.344
380.092
369.626
360.151
350.269
341.534
332.161
324.149
315.213
307.926
299.35
292.805
284.501
278.728
270.59
265.626
257.527
253.406
243.711
16.4284
19.8705
22.8877
29.0956
34.77
38.6969
41.6605
43.7138
46.6678
50.697
58.7895
71.0876
95.7798
130.533
190.025
268.107
374.629
509.609
667.369
838.473
1006.56
1164.04
1303.18
1419.25
1508.87
1571.54
1609.32
1627.18
1624.71
1614.22
1591.83
1561.87
1527.67
1490.49
1451.88
1412.12
1372.22
1331.81
1291.94
1252.72
1214.27
1176.72
1140.18
1104.72
1070.36
1037.05
1004.86
973.714
943.596
914.499
886.391
859.226
832.976
807.586
783.037
759.265
736.262
713.963
692.376
671.439
651.175
631.522
612.52
594.093
576.306
559.059
542.442
526.321
510.819
495.755
481.306
467.236
453.786
440.651
428.152
415.897
404.304
392.869
382.132
371.449
361.516
351.511
342.328
332.922
324.441
315.558
307.743
299.313
292.148
284.104
277.588
269.863
264.009
256.523
251.355
244.018
239.567
232.272
228.566
219.838
13.4532
13.4607
13.5467
13.8035
14.3354
15.0089
15.7202
16.3369
16.9244
17.3371
17.893
18.3583
19.3176
20.4897
22.7503
26.2749
31.8105
40.8321
54.8178
76.4224
106.76
147.413
199.028
260.712
330.031
404.446
479.489
553.169
620.455
682.199
735.693
780.052
815.057
840.94
859.159
870.369
875.808
875.229
872.475
866.352
857.532
846.811
834.744
821.383
807.118
792.05
776.462
760.263
743.793
727.136
710.339
693.483
676.657
659.905
643.302
626.838
610.611
594.583
578.847
563.354
548.198
533.338
518.844
504.673
490.918
477.501
464.527
451.876
439.68
427.766
416.324
405.115
394.4
383.862
373.847
363.95
354.607
345.302
336.599
327.848
319.76
311.515
304.007
296.208
289.245
281.833
275.391
268.311
262.383
255.588
250.173
243.605
238.714
232.317
227.972
221.68
217.909
211.646
208.472
200.973
13.33
13.1588
13.0627
13.1172
13.3063
13.7191
14.2882
14.9083
15.4502
15.873
16.2051
16.4264
16.6199
16.7563
16.908
17.0916
17.3443
17.7356
18.3247
19.3248
20.8465
23.2776
26.7749
32.1469
39.7426
50.5385
64.7969
83.2912
105.95
132.87
163.499
196.875
232.192
267.787
303.048
336.213
367.457
395.538
420.404
441.566
459.297
473.537
484.819
493.178
499.049
502.683
504.456
504.171
502.994
500.421
496.591
491.83
486.34
480.173
473.517
466.418
459.035
451.34
443.527
435.506
427.482
419.363
411.266
403.19
395.243
387.349
379.607
371.917
364.41
356.94
349.698
342.46
335.503
328.496
321.841
315.081
308.734
302.233
296.211
289.959
284.257
278.236
272.848
267.031
261.951
256.31
251.535
246.042
241.567
236.185
232.03
226.743
222.934
217.718
214.283
209.11
206.076
200.911
198.302
192.096
13.3252
13.1542
13.0317
13.0867
13.2966
13.7736
14.5008
15.4876
16.5019
17.5951
18.5869
19.5152
20.2521
20.8655
21.2995
21.6107
21.7841
21.8549
21.8398
21.7953
21.7016
21.6005
21.5282
21.5547
21.6636
21.9242
22.4516
23.3625
24.8129
26.9691
30.179
34.5468
40.5702
48.1548
57.6455
68.8966
82.0885
96.8184
113.006
130.05
147.682
165.361
182.76
199.5
215.283
229.906
243.293
255.313
266.021
275.471
283.697
290.806
296.909
302.085
306.429
310.016
312.954
315.209
316.974
318.09
318.878
319.001
318.831
318.372
317.43
316.112
314.492
312.564
310.428
308.016
305.46
302.638
299.751
296.562
293.485
290.009
286.769
283.091
279.76
275.945
272.579
268.666
265.311
261.327
258.019
253.979
250.747
246.661
243.54
239.415
236.431
232.27
229.453
225.261
222.644
218.43
216.044
211.817
209.694
204.601
13.4658
13.3601
13.4097
13.656
14.3049
15.6855
18.0356
21.4429
25.3887
29.6937
33.6016
37.0616
39.5685
41.5394
42.6336
43.3605
43.3789
43.2442
42.9122
42.4117
41.7792
41.1252
40.4799
39.8938
39.3541
38.8833
38.5102
38.2495
38.1414
38.191
38.3594
38.6942
39.3554
40.2008
41.5295
43.2161
45.5061
48.4259
52.1387
56.8283
62.5324
69.4858
77.596
87.0577
97.6744
109.508
122.26
135.903
150.049
164.638
179.249
193.838
208.055
221.884
235.08
247.615
259.369
270.293
280.389
289.599
297.983
305.51
312.183
318.076
323.177
327.531
331.173
334.124
336.385
338.089
339.18
339.781
339.728
339.418
338.761
337.417
336.158
334.14
332.419
329.897
327.826
324.925
322.624
319.435
316.995
313.583
311.074
307.489
304.968
301.246
298.758
294.93
292.516
288.616
286.315
282.382
280.234
276.31
274.367
269.712
15.9114
16.8554
18.5517
21.9209
28.4261
39.4918
55.4749
75.0199
95.3818
114.238
129.222
140.057
146.389
150.136
150.841
150.422
149.269
147.73
146.274
145.112
144.446
144.597
145.237
146.714
149.029
152.225
156.252
161.186
167.187
173.886
181.862
190.47
200.495
211.285
223.411
236.452
250.539
265.611
281.434
298.241
315.499
333.453
351.42
369.601
387.479
405.271
422.537
439.509
455.718
471.482
486.359
500.696
514.196
527.039
539.089
550.271
560.58
569.899
578.338
585.727
592.262
597.772
602.418
606.092
608.964
610.861
612.185
612.398
612.098
611.291
609.666
607.379
604.629
601.227
597.697
593.336
589.26
584.257
579.807
574.382
569.729
564.073
559.389
553.622
549.015
543.207
538.755
532.957
528.719
522.964
518.979
513.292
509.591
504.01
500.628
495.19
492.173
486.903
484.345
478.373
68.0553
90.3974
126.257
184.842
272.047
385.198
511.54
635.863
744.727
831.352
892.303
932.683
952.989
963.376
964.931
963.851
960.74
957.501
956.936
957.767
960.197
965.533
974.979
986.523
1000.25
1016.43
1035.08
1055.72
1078.02
1101.44
1126.45
1152.06
1178.9
1205.79
1233.04
1259.76
1286.05
1311.49
1335.98
1359.41
1381.26
1401.75
1420.42
1437.71
1453.25
1467.46
1480.1
1491.54
1501.48
1510.31
1517.67
1523.88
1528.82
1532.4
1534.96
1535.76
1535.4
1534.07
1531.34
1527
1522.07
1515.6
1508.7
1500.48
1491.89
1482.3
1472.24
1461.6
1450.57
1438.9
1427.11
1414.51
1402.12
1388.82
1376.13
1362.46
1349.66
1335.9
1323.28
1309.67
1297.46
1284.19
1272.57
1259.73
1248.8
1236.43
1226.25
1214.39
1205.03
1193.67
1185.18
1174.33
1166.72
1156.36
1149.66
1139.79
1134.06
1124.64
1120.03
1109.68
1464.69
1897.21
2399.13
2961.83
3563.25
4171.84
4746.01
5251.26
5654.84
5950.51
6132.6
6219.69
6207.1
6160.27
6061.65
5928.35
5777.9
5619.39
5458.85
5301.25
5149.11
5004.32
4867.69
4739.97
4621.11
4511.09
4409.52
4316.31
4231.08
4153.47
4083.17
4019.52
3962.54
3911.44
3866.18
3825.84
3790.32
3758.98
3731.75
3708.19
3687.9
3670.55
3655.82
3643.55
3633.42
3625.15
3618.43
3613.11
3608.83
3605.54
3602.92
3600.89
3599.5
3598.51
3598.07
3598.13
3598.47
3599.05
3600.28
3601.41
3603.25
3604.72
3606.56
3607.96
3609.24
3610.13
3610.59
3610.52
3610.15
3609.19
3607.98
3605.56
3603.24
3599.39
3595.87
3590.52
3585.6
3578.61
3572.24
3563.66
3555.96
3545.96
3537.2
3526.05
3516.59
3504.54
3494.67
3481.89
3471.86
3458.4
3448.32
3434.09
3424.1
3408.98
3399.27
3383.11
3373.93
3356.69
3347.88
3325.76
1108.75
1064.26
1122.15
1210.22
1239.07
1121.56
818.798
1980.38
54601
16103.7
7348.62
6106.31
6236.43
6487.98
6558.94
8032.6
74265.8
43619.7
24831.8
18468.8
16107.6
15009
14637.4
19682.3
76415.1
71040.9
54272.6
41215.5
32702.8
27170.4
24556.9
34082.7
69718.6
75714.4
67763.8
55664.1
44575.2
35846.1
30864.9
42708
57733.1
71175.7
67947.5
59042
48374.7
38729.9
32778.6
45219.9
47470.5
61822.8
62480.7
56602.7
47155.1
38166.2
32441.1
44224.5
39076.2
51807.8
53568.5
49817.8
42376.2
34660.4
29577.7
39736.5
32627.5
42983.8
44908.9
42119
36288.9
30032.8
25813.8
34027.2
27614.5
35624.6
37253.1
35108.9
30537.6
25554.2
22223
29372
23497.5
29589.7
30825.2
29122.8
25533.1
21636.7
19163.2
26020.1
20115.2
24701.4
25579.3
24189.6
21347.1
18306.5
16504.4
22990.9
17376.3
20788.7
21376.3
20218.4
17948.5
15565.9
14276.2
20377
15142.7
17663.8
18030.5
17051
15222.6
13342
12438.5
18172.5
13291.2
15152.8
15360.5
14525
13038.9
11544.4
10934
16341
11729.2
13110.6
13209.5
12493.6
11276.4
10082.4
9696.94
14816.1
10405.5
11438.4
11464
10848
9843.42
8885.1
8673.37
13540.2
9267.17
10051
10032.2
9499.53
8665.86
7894.91
7819.18
12464.1
8285.45
8889.06
8845.26
8382.98
7688.08
7068
7099.06
11548.3
7442.45
7911.03
7852.54
7450.76
6869
6371.3
6485.55
10763.6
6715.8
7082.81
7016.26
6666.31
6177.2
5779.07
5959.93
10085.3
6089.73
6378.14
6307.43
6001.58
5588.58
5271.81
5506.28
9494.35
5547.65
5774.87
5702.69
5434.5
5084.5
4834.67
5112.51
8976.67
5073.96
5254.16
5182.7
4947.08
4649.89
4455.76
4769.09
8521.75
4657.81
4801.72
4732.47
4525.2
4272.65
4125.27
4467.92
8120.2
4290.65
4406.39
4340.32
4157.81
3943.24
3835.38
4202.38
7763.94
3965.15
4058.91
3996.65
3835.91
3653.89
3579.65
3966.94
7445.92
3675.83
3752.16
3694
3552.42
3398.46
3352.97
3757.24
7160.61
3417.54
3480.07
3426.15
3301.54
3171.88
3151.13
3569.7
6903.73
3186.34
3237.85
3188.14
3078.55
2970.07
2970.77
3401.34
6671.64
2978.62
3021.33
2975.78
2879.59
2789.67
2808.63
3249.86
6461.26
2791.34
2827.04
2785.53
2701.31
2627.71
2662.58
3113.01
6270.1
2621.95
2652.05
2614.45
2540.98
2481.79
2530.66
2989.04
6096.15
2468.19
2493.87
2460.01
2396.24
2349.86
2411.12
2876.42
5937.64
2328.23
2350.39
2320.11
2265.11
2230.15
2302.45
2773.85
5792.99
2200.44
2219.81
2192.94
2145.88
2121.18
2203.36
2680.18
5660.71
2083.46
2100.62
2076.98
2037.12
2021.65
2112.73
2594.38
5539.52
1976.07
1991.49
1970.91
1937.6
1930.47
2029.57
2515.59
5428.18
1877.25
1891.32
1873.61
1846.29
1846.72
1953.06
2443.02
5325.62
1786.08
1799.12
1784.14
1762.3
1769.48
1882.53
2376.02
5230.83
1701.79
1714.06
1701.66
1684.85
1698.15
1817.34
2314.03
5142.96
1623.69
1635.42
1625.46
1613.26
1632.17
1756.94
2256.55
5061.3
1551.19
1562.57
1554.92
1546.98
1571
1700.89
2203.15
4985.21
1483.77
1494.96
1489.51
1485.5
1514.22
1648.79
2153.5
4914.22
1420.98
1432.11
1428.75
1428.38
1461.43
1600.29
2107.28
4847.93
1362.41
1373.6
1372.23
1375.21
1412.3
1555.12
2064.23
4786.05
1307.7
1319.04
1319.56
1325.63
1366.5
1512.98
2024.09
4728.28
1256.5
1268.06
1270.39
1279.37
1323.74
1473.63
1986.68
4674.42
1208.52
1220.37
1224.42
1236.13
1283.76
1436.84
1951.78
4624.27
1163.48
1175.67
1181.37
1195.65
1246.33
1402.4
1919.22
4577.64
1121.13
1133.71
1140.99
1157.68
1211.22
1370.13
1888.81
4534.34
1081.24
1094.26
1103.04
1122.02
1178.25
1339.84
1860.39
4494.14
1043.62
1057.09
1067.33
1088.46
1147.22
1311.37
1833.8
4456.81
1008.05
1022.01
1033.65
1056.82
1117.98
1284.57
1808.89
4422.08
974.386
988.86
1001.84
1026.95
1090.38
1259.3
1785.52
4389.74
942.459
957.468
971.753
998.693
1064.29
1235.43
1763.54
4359.47
912.149
927.712
943.251
971.939
1039.58
1212.85
1742.85
4331.1
883.309
899.443
916.196
946.551
1016.13
1191.45
1723.31
4304.33
855.858
872.575
890.502
922.445
993.872
1171.15
1704.84
4279.08
829.66
846.97
866.034
899.496
972.685
1151.84
1687.34
4255.06
804.666
822.576
842.739
877.65
952.512
1133.46
1670.73
4232.29
780.743
799.256
820.483
856.784
933.247
1115.92
1654.94
4210.52
757.874
776.989
799.246
836.873
914.858
1099.18
1639.9
4189.82
735.921
755.634
778.887
817.789
897.237
1083.16
1625.57
4169.97
714.903
735.207
759.423
799.545
880.385
1067.83
1611.89
4151.11
694.666
715.553
740.7
781.997
864.181
1053.12
1598.83
4133
675.273
696.734
722.782
765.207
848.669
1039.03
1586.35
4115.87
656.545
678.566
705.485
748.999
833.7
1025.46
1574.4
4099.34
638.597
661.17
688.934
733.496
819.383
1012.49
1563.02
4083.83
621.213
644.319
672.898
718.471
805.509
999.947
1552.08
4068.72
604.573
628.205
657.579
704.132
792.283
988.004
1541.72
4054.74
588.405
612.54
642.673
690.166
779.392
976.376
1531.67
4040.9
572.97
597.603
628.482
676.895
767.173
965.395
1522.28
4028.38
557.913
583.012
614.596
663.88
755.164
954.592
1513.05
4015.62
543.597
569.162
601.444
651.595
743.879
944.514
1504.59
4004.53
529.555
555.544
588.471
639.424
732.646
934.432
1496.06
3992.65
516.277
542.696
576.274
628.042
722.223
925.2
1488.49
3982.94
503.152
529.946
564.104
616.602
711.649
915.718
1480.52
3971.73
490.832
518.016
552.775
606.04
702.011
907.264
1473.78
3963.29
478.523
506.028
541.299
595.218
691.977
898.251
1466.22
3952.54
467.082
494.933
530.755
585.394
683.044
890.499
1460.24
3945.18
455.49
483.605
519.867
575.081
673.436
881.83
1452.94
3934.65
444.855
473.274
510.037
565.921
665.131
874.698
1447.62
3928.12
433.888
462.515
499.648
556.027
655.857
866.271
1440.46
3917.56
424.007
452.894
490.477
547.475
648.118
859.686
1435.7
3911.62
413.585
442.628
480.515
537.931
639.106
851.419
1428.56
3900.84
404.426
433.686
471.972
529.953
631.894
845.331
1424.28
3895.24
394.478
423.849
462.38
520.708
623.097
837.175
1417.1
3884.18
386.033
415.581
454.459
513.296
616.398
831.555
1413.23
3878.65
376.495
406.115
445.188
504.313
607.79
823.495
1406.02
3867.45
368.774
398.535
437.903
497.478
601.608
818.332
1402.5
3861.95
359.576
389.376
428.904
488.727
593.188
810.405
1395.37
3850.7
352.607
382.515
422.288
482.497
587.534
805.679
1392.08
3845.31
343.663
373.59
413.501
473.941
579.305
797.95
1385.25
3834.3
337.487
367.491
407.598
468.358
574.213
793.673
1382.2
3829.07
328.691
358.703
398.944
459.944
566.159
786.194
1375.78
3818.75
323.356
353.414
393.8
455.049
561.657
782.364
1372.95
3813.57
314.583
344.65
385.183
446.709
553.754
775.184
1367.01
3804.34
310.116
340.193
380.813
442.503
549.822
771.731
1364.37
3799.86
299.568
329.63
370.4
432.405
540.254
763.096
1357.24
3789.99
)
;

boundaryField
{
    frontAndBack
    {
        type            empty;
    }
    inlet
    {
        type            fixedValue;
        value           uniform 14.855;
    }
    outlet
    {
        type            zeroGradient;
    }
    walls
    {
        lowReCorrection 0;
        blending        stepwise;
        n               2;
        type            epsilonWallFunction;
        value           nonuniform List<scalar> 
228
(
112.724
141.424
210.097
257.591
369.051
443.457
614.739
724.909
971.32
1128.62
1108.75
1064.26
1122.15
1210.22
1239.07
1121.56
818.798
1980.38
1980.38
8032.6
19682.3
34082.7
42708
45219.9
44224.5
39736.5
34027.2
29372
26020.1
22990.9
20377
18172.5
16341
14816.1
13540.2
12464.1
11548.3
10763.6
10085.3
9494.35
8976.67
8521.75
8120.2
7763.94
7445.92
7160.61
6903.73
6671.64
6461.26
6270.1
6096.15
5937.64
5792.99
5660.71
5539.52
5428.18
5325.62
5230.83
5142.96
5061.3
4985.21
4914.22
4847.93
4786.05
4728.28
4674.42
4624.27
4577.64
4534.34
4494.14
4456.81
4422.08
4389.74
4359.47
4331.1
4304.33
4279.08
4255.06
4232.29
4210.52
4189.82
4169.97
4151.11
4133
4115.87
4099.34
4083.83
4068.72
4054.74
4040.9
4028.38
4015.62
4004.53
3992.65
3982.94
3971.73
3963.29
3952.54
3945.18
3934.65
3928.12
3917.56
3911.62
3900.84
3895.24
3884.18
3878.65
3867.45
3861.95
3850.7
3845.31
3834.3
3829.07
3818.75
3813.57
3804.34
3799.86
3789.99
105.935
146.56
198.348
265.738
349.966
456.028
585.598
743.662
931.787
1154.04
1464.69
1897.21
2399.13
2961.83
3563.25
4171.84
4746.01
5251.26
5654.84
5950.51
6132.6
6219.69
6207.1
6160.27
6061.65
5928.35
5777.9
5619.39
5458.85
5301.25
5149.11
5004.32
4867.69
4739.97
4621.11
4511.09
4409.52
4316.31
4231.08
4153.47
4083.17
4019.52
3962.54
3911.44
3866.18
3825.84
3790.32
3758.98
3731.75
3708.19
3687.9
3670.55
3655.82
3643.55
3633.42
3625.15
3618.43
3613.11
3608.83
3605.54
3602.92
3600.89
3599.5
3598.51
3598.07
3598.13
3598.47
3599.05
3600.28
3601.41
3603.25
3604.72
3606.56
3607.96
3609.24
3610.13
3610.59
3610.52
3610.15
3609.19
3607.98
3605.56
3603.24
3599.39
3595.87
3590.52
3585.6
3578.61
3572.24
3563.66
3555.96
3545.96
3537.2
3526.05
3516.59
3504.54
3494.67
3481.89
3471.86
3458.4
3448.32
3434.09
3424.1
3408.98
3399.27
3383.11
3373.93
3356.69
3347.88
3325.76
)
;
    }
}


// ************************************************************************* //
