/*--------------------------------*- C++ -*----------------------------------*\
| =========                 |                                                 |
| \\      /  F ield         | OpenFOAM: The Open Source CFD Toolbox           |
|  \\    /   O peration     | Version:  v2012                                 |
|   \\  /    A nd           | Website:  www.openfoam.com                      |
|    \\/     M anipulation  |                                                 |
\*---------------------------------------------------------------------------*/
FoamFile
{
    version     2.0;
    format      ascii;
    class       volScalarField;
    location    "0.074";
    object      omega.air;
}
// * * * * * * * * * * * * * * * * * * * * * * * * * * * * * * * * * * * * * //

dimensions      [0 0 -1 0 0 0 0];


internalField   nonuniform List<scalar> 
5600
(
6776
9486.04
11875.7
13294.4
13892.3
13969
13768.1
13435.5
13075.1
12743.7
12449.9
12202.4
12010.4
11870.6
11782
11729.8
11711.8
11707.1
11720.5
11730.1
11748.6
11755.8
11770.9
11772.3
11784.2
11783.2
11794.2
11793.1
11802.5
11803.4
11809.1
11812.8
11813.3
11818.4
11815.2
11818.8
11815.9
11814.3
11816.5
11806.9
11816.4
11799.4
11813.7
11795.1
11807.2
11795.5
11797.6
11799.3
11788.1
11801.8
11783.6
11798.9
11786.5
11789.3
11796
11776.5
11805.8
11768.2
11808.3
11771.8
11799
11789
11780.6
11811.4
11764.5
11825.3
11764.6
11821.1
11783.9
11802.3
11811.5
11786.2
11827.8
11790.3
11821.4
11815.4
11800
11844
11784.8
11854
11789.8
11840.6
11809.8
11818
11826.7
11807.3
11822.5
11819.9
11800.3
11836.5
11795.8
11816.2
11833.1
11781.6
11819.5
11900.3
11526.7
12407.6
10505.1
13763.6
2507.1
2659.65
3499.15
4407.91
5079.62
5502.95
5763.51
5918.82
5999.04
6000.33
6088.88
6224.46
6349.74
6440.83
6481.43
6480.23
6435.83
6366.78
6274.3
6171.6
6066.46
5959.54
5863.58
5769.52
5687.07
5603.37
5529.26
5457.18
5394.08
5335.47
5281.94
5235.37
5190.22
5152.27
5115.78
5084.43
5056
5029.12
5007.16
4984.83
4966.94
4948.39
4933.85
4918.52
4905.89
4894.01
4881.7
4872.09
4861.12
4852.88
4842.78
4835.76
4827.72
4819.85
4814.57
4805.92
4803.18
4793.77
4793.15
4784.49
4782.66
4777.57
4774.09
4771.81
4765.69
4767.42
4758.64
4761.76
4754.68
4755.36
4751.67
4749.23
4749.38
4744.56
4746.1
4743.25
4742.34
4743.81
4738.29
4744.81
4736.78
4742.7
4737.28
4739.28
4737.34
4737.25
4735.53
4737.66
4731.03
4741.25
4725.15
4746.38
4717.17
4759.86
4688.69
4818.38
4576.25
5018.46
4194.03
5679.5
2557.42
2210.59
2001.24
1889.59
1866.25
1937.91
2042.8
2169.75
2320.7
2455.99
2599.35
2764.8
2935.77
3110.79
3263.98
3402.83
3503.78
3585.74
3626.15
3650.02
3632.9
3603.83
3536.54
3467.46
3385.66
3319.79
3262.74
3213.19
3168.36
3126.56
3088.44
3055.66
3023.83
2994.77
2965.72
2939.19
2914.77
2890.33
2870.09
2847.87
2831.33
2810.81
2797.4
2779.57
2767.56
2753.59
2741.46
2731.63
2719.18
2712.51
2700.33
2694.67
2685.23
2677.66
2672.99
2662.05
2662.41
2648.84
2651.75
2639.78
2639.64
2634.1
2627.52
2630.25
2616.55
2625.4
2609.72
2617.29
2607.35
2607.29
2606.38
2598.17
2603.38
2594.13
2596.69
2594.86
2588.31
2597.29
2582.55
2596.7
2582.34
2592
2585.24
2586.35
2587.02
2584.76
2583.19
2589.03
2575.2
2594.5
2571.27
2593.53
2572.24
2599.21
2548.36
2651.71
2461.32
2767.78
2317.21
2904.56
2552.85
2195.01
1927.06
1721.42
1562.23
1441.04
1350.35
1282.05
1233.75
1204.15
1186.69
1199.57
1224.6
1282.31
1345.11
1444.01
1533.73
1659.39
1754.73
1885.17
1968.41
2079.25
2135.12
2208.06
2236.34
2274.54
2286.05
2297.24
2293.37
2279.1
2259.78
2228.01
2201.14
2172.37
2149.15
2127.47
2105.07
2087.34
2066.25
2049.38
2032.75
2015.38
2003.31
1986.81
1974.45
1959.37
1946.87
1934.88
1921.57
1912.78
1899.49
1891.57
1880.85
1871.46
1865.18
1852.98
1851.55
1837.49
1837.95
1826.24
1823.41
1818.02
1808.09
1810.75
1795.03
1802.05
1786.7
1790.64
1782.01
1777.98
1778.06
1767.38
1771.49
1762.45
1761.29
1761.77
1750.74
1761.55
1744.71
1757.75
1744.48
1751.1
1746.93
1745.47
1747.07
1745.2
1741.82
1750.04
1735.25
1751.82
1737.02
1744.46
1744.16
1743.83
1730.47
1774.13
1689.69
1809.82
1678.78
1769.32
2551.16
2191.55
1920.39
1709.15
1540.28
1402.87
1288.87
1194.25
1112.93
1046.05
985.56
939.273
893.623
865.597
830.812
821.827
796.795
809.114
801.101
838.839
848.508
911.382
941.261
1021.58
1071.85
1155.59
1225.67
1297.94
1378.53
1428.31
1499.35
1527.05
1571.44
1592.1
1608.46
1630.2
1621.73
1643.52
1619.54
1634.27
1608.16
1607.54
1590.52
1575.34
1569.9
1550.59
1547.9
1531.08
1524.32
1514.43
1501.92
1496.86
1483.44
1477.94
1469.44
1460.05
1456.89
1444.12
1443.69
1431.51
1428.39
1421.37
1410.5
1411.71
1395.68
1400.28
1385.71
1386.16
1378.96
1371.48
1372.09
1360.42
1362.02
1354.63
1349.17
1351.8
1337.58
1347.73
1331.31
1340.33
1330.29
1332.07
1330.89
1327.18
1328.66
1328.02
1322.89
1331.41
1319.96
1328.21
1326.96
1317.45
1335.08
1317.25
1322.77
1339.39
1301.43
1346.21
1321.64
1296.69
2550.74
2190.46
1918.75
1706.84
1537.29
1398.52
1283.14
1185.46
1102.18
1029.77
967.123
911.3
862.88
818.53
780.592
744.538
714.951
685.13
663.171
638.52
624.373
603.531
599.594
580.237
591.596
573.193
603.57
590.586
640.046
640.183
700.001
725.445
774.402
837.993
856.706
956.832
950.524
1054.71
1044.03
1136.95
1120.79
1165.58
1190.61
1190.76
1236.3
1210.85
1252.19
1229.29
1247.82
1245.2
1233.05
1251.67
1217.68
1243.03
1209.76
1221.48
1207.69
1198.66
1204.84
1182.22
1193.56
1174.59
1176.21
1170.81
1159.83
1163.59
1149.41
1150.55
1144.63
1136.79
1138.73
1128.28
1128.57
1123.83
1115.48
1120.66
1104.35
1113.71
1098.65
1103.14
1097.27
1093.93
1095.61
1090.43
1090.94
1092.32
1085.36
1093.34
1086.74
1085.7
1097.12
1075.43
1100.94
1082
1083.7
1103.26
1070.23
1098.53
1096.41
1059.02
2550.61
2190.06
1918.21
1706.05
1536.47
1397.29
1282.11
1183.6
1100.94
1026.83
965.696
906.615
861.296
811.076
778.763
732.881
712.37
667.411
658.109
611.918
612.79
565.184
573.454
527.323
537.298
499.303
502.512
481.17
470.128
470.86
444.35
464.991
431.546
461.884
438.588
465.797
464.496
484.639
507.83
518.58
566.365
570.195
638.048
625.695
712.134
700.32
770.839
776.023
817.328
861.339
844.62
928.479
886.704
961.981
917.112
962.576
959.297
949.902
998.666
939.24
1002.61
957.604
998.881
980.298
977.357
990.662
965.101
986.924
967.414
973.106
970.565
962.646
965.036
961.323
953.597
960.791
944.318
954.197
941.695
942.677
942.03
934.453
939.259
933.517
932.982
936.89
928.551
935.752
934.175
925.218
945.732
918.436
943.32
932.113
923.196
950.083
917.316
938.402
942.735
909.392
2550.56
2189.9
1917.96
1705.75
1536.1
1396.88
1281.63
1183.08
1100.36
1026.2
965.018
905.852
860.506
810.149
777.804
731.809
711.028
666.395
655.815
611.545
608.353
566.476
565.114
531.215
523.444
505.067
483.026
484.696
447.395
463.304
423.449
433.049
416.825
391.167
424.492
345.909
431.227
315.36
422.141
307.456
395.313
337.535
354.029
370.306
324.932
393.357
326.909
408.743
357.761
415.622
412.285
428.614
474.192
453.381
529.823
498.343
573.685
549.388
622.547
602.849
645.582
661.971
681.539
708.258
698.284
750.028
719.075
763.143
761.471
766.723
782.976
775.421
792.157
798.084
789.289
811.142
790.124
812.002
801.361
805.4
811.349
801.398
811.962
804.504
805.644
810.769
801.387
809.56
809.525
797.048
822.413
791.621
817.186
808.327
796.887
823.78
794.363
812.048
813.519
794.23
2550.53
2189.84
1917.83
1705.64
1535.86
1396.78
1281.25
1183.08
1099.75
1026.46
963.981
906.594
858.763
811.717
774.977
734.597
706.745
670.71
649.901
617.315
601.196
572.869
558.014
536.33
518.688
506.2
483.244
479.592
453.784
452.306
433.27
420.971
422.28
386.594
415.842
356.507
404.209
340.274
379.656
341.327
342.062
356.044
297.784
371.608
265.477
363.991
269.261
322.073
308.056
254.36
364.472
192.538
385.611
184.516
365.391
234.976
297.565
332.177
207.775
419.685
191.825
426.241
225.132
375.958
333.356
339.93
421.597
338.605
458.699
384.921
458.664
456.301
455.773
516.882
474.121
549.437
516.22
566.09
564.933
583.001
601.06
603.975
620.435
624.92
629.413
639.725
638.289
640.985
653.194
634.573
661.363
639.333
652.341
653.452
643.435
655.69
648.389
648.689
651.468
650.352
2550.51
2189.81
1917.76
1705.6
1535.75
1396.75
1281.06
1183.12
1099.41
1026.65
963.4
907.087
857.772
812.693
773.384
736.237
704.408
673.068
646.901
620.106
598.058
575.272
555.835
537.035
518.844
504.023
486.407
474.759
458.464
447.727
435.107
421.958
415.747
397.794
398.522
376.98
380.801
361.364
360.825
351.107
339.059
344.122
318.433
336.084
304.292
321.245
301.011
297.463
306.372
269.929
311.903
250.91
304.304
251.279
278.705
269.624
240.438
295.783
203.712
307.555
197.554
290.842
216.566
251.824
257.581
205.535
287.2
199.569
271.362
226.328
246.3
261.368
227.925
270.414
240.125
268.35
267.841
269.751
284.434
286.616
289.98
314.687
293.998
340.048
305.385
347.596
330.208
336.61
356.013
328.104
363.177
335.188
351.537
349.644
339.044
354.307
339.183
349.592
339.928
348.521
2550.51
2189.81
1917.76
1705.61
1535.75
1396.77
1281.04
1183.17
1099.36
1026.74
963.294
907.254
857.569
812.978
773.043
736.673
703.911
673.642
646.303
620.711
597.533
575.663
555.679
536.892
519.349
503.169
487.551
473.497
459.592
447.054
434.959
423.217
413.165
401.641
393.626
382.275
375.635
365.27
358.5
350.729
341.861
338.297
326.15
326.69
312.862
313.843
303.665
298.557
298.334
282.415
293.681
269.538
285.265
263.382
271.499
263.101
255.58
264.194
242.528
262.773
234.579
258.587
231.12
252.493
232.417
244.456
240.447
233.642
254.468
226.182
264.636
231.95
264.29
255.412
256.098
286.252
256.012
309.661
279.099
316.904
322.814
313.64
366.497
317.236
385.948
342.537
374.356
381.3
353.34
404.892
350.905
398.168
371.129
373.84
394.567
355.736
400.462
359.45
386.186
377.517
2550.52
2189.86
1917.82
1705.69
1535.84
1396.88
1281.16
1183.3
1099.49
1026.89
963.425
907.428
857.7
813.175
773.17
736.895
704.038
673.872
646.456
620.914
597.763
575.78
556.047
536.872
519.886
503.035
488.166
473.434
460.02
447.413
434.845
424.312
412.399
403.33
392.798
383.59
376.206
364.626
362.179
347.029
349.193
332.533
335.182
322.831
319.274
317.616
303.349
313.985
291.552
308.436
287.318
300.022
291.044
291.53
300.394
287.939
312.104
294.231
323.586
313.052
334.875
342.748
349.218
378.028
371.427
413.198
404.039
445.035
444.85
473.407
488.273
499.908
529.325
526.942
564.236
558.172
590.616
594.171
607.671
629.858
618.988
656.427
632.206
666.703
652.149
661.451
674.795
651.853
688.036
654.488
681.097
673.23
662.241
690.856
653.959
689.685
666.38
670.646
687.318
656.83
2550.55
2189.94
1917.95
1705.85
1536.03
1397.1
1281.39
1183.56
1099.76
1027.18
963.731
907.749
858.038
813.527
773.541
737.278
704.453
674.281
646.94
621.331
598.363
576.187
556.832
537.254
520.937
503.423
489.549
474.001
461.702
448.596
436.661
426.899
414.185
408.395
394.878
392.116
380.134
377.163
371.393
363.907
368.91
355.196
371.676
356.007
378.682
370.089
390.959
397.729
411.686
435.447
443.696
478.725
487.322
524.004
539.209
569.857
592.977
615.892
643.54
659.519
688.697
698.623
727.401
732.584
757.866
762.383
778.46
787.393
790.507
805.188
799.276
814.455
809.043
816.725
819.337
815.203
826.072
814.241
825.904
817.266
819.218
823.097
811.414
826.564
809.613
822.864
816.249
813.914
824.781
808.472
825.964
812.475
818.986
821.191
811.807
825.681
811.313
822.323
817.932
815.611
2550.6
2190.12
1918.19
1706.18
1536.4
1397.55
1281.87
1184.11
1100.34
1027.85
964.427
908.542
858.872
814.485
774.555
738.474
705.719
675.836
648.592
623.463
600.647
579.259
560.181
541.846
526.155
510.51
498.193
485.161
476.405
466.538
461.719
456.358
456.276
458.06
463.774
475.049
487.331
509.925
528.315
561.911
585.065
626.155
653.426
695.559
728.036
764.249
800.631
827.666
864.094
883.317
914.212
928.864
949.863
962.17
972.714
983.83
987.428
996.812
996.895
1002.66
1002.64
1003.12
1005.05
999.931
1003.49
995.373
997.206
990.818
987.718
986.108
978.516
980.24
972.074
972.606
967.772
963.352
963.613
954.657
957.805
949.499
950.201
948.213
942.992
948.334
939.513
946.378
941.237
942.028
945.142
938.622
946.51
939.291
943.928
942.781
940.339
945.373
939.019
944.739
941.222
942.173
2550.73
2190.51
1918.77
1706.95
1537.31
1398.67
1283.13
1185.7
1102.12
1030.16
967.028
911.91
862.762
819.51
780.489
746.135
714.928
687.881
663.483
643.109
625.126
611.556
600.508
594.791
592.644
598.19
608.243
627.39
652.764
686.677
727.403
772.413
824.202
874.217
931.399
980.502
1033.98
1077.58
1119.78
1155.48
1182.15
1209.1
1222.3
1241.92
1247.96
1259.31
1262
1265.07
1266.08
1262.54
1261.78
1254.26
1250.82
1242.63
1236.26
1229.9
1222.75
1217.87
1210.62
1205.9
1199.65
1193.85
1189.07
1181.98
1178.34
1171.12
1167.19
1161.88
1156.76
1153.67
1147.5
1145.49
1138.79
1136.25
1130.88
1126.3
1123.57
1117.07
1116.54
1110.18
1109.74
1106.28
1103.69
1104.48
1099.7
1102.83
1098.67
1100.32
1099.82
1097.79
1100.79
1096.78
1100.21
1097.56
1098.41
1099.07
1096.75
1099.97
1096.74
1099.84
2551.15
2191.6
1920.45
1709.22
1540.48
1402.93
1289.42
1194.39
1114.22
1046.41
988.215
940.108
899.144
867.051
841.274
824.672
814.831
817.717
829.734
854.957
889.816
938.148
994.315
1061.36
1132.15
1209.87
1286.11
1363.56
1432.46
1494.25
1543.06
1581.62
1611.06
1632.76
1648.65
1656.74
1661.59
1659.34
1655.05
1645.58
1634.2
1621.35
1607.42
1596.57
1583.86
1573.55
1562.15
1551.5
1541.17
1530.68
1521.14
1511.37
1502.64
1494.43
1486.32
1478.88
1470.68
1463.56
1455.81
1448.89
1441.92
1434.8
1428.82
1421.53
1416.18
1409.23
1404.1
1398.27
1392.76
1388.55
1382.49
1379.4
1373.39
1370.48
1365.59
1361.95
1359.1
1354.57
1353.59
1349
1348.71
1345.53
1344.35
1343.75
1341.01
1342.5
1339.35
1340.98
1339.35
1339.12
1339.94
1337.76
1340.08
1337.44
1339.3
1338.2
1338.01
1339.49
1337.36
1340.74
2552.74
2195.22
1927.03
1721.91
1562.97
1442.84
1354.09
1286.17
1243.21
1212.66
1204.44
1219.79
1257.18
1316.31
1395.78
1492.04
1601.03
1715.94
1832.84
1944.68
2047.22
2134.33
2203.53
2255.01
2291.36
2315.89
2329.51
2332
2323.15
2304.51
2277.71
2247.07
2218.62
2193.61
2170.21
2148.44
2127.29
2107.36
2088.06
2070.28
2053.41
2038.03
2023.12
2007.84
1993.69
1979.52
1966.82
1953.81
1942.42
1930.93
1920.32
1910.33
1900.62
1891.96
1883.13
1875.83
1867.82
1861.32
1854.33
1848.18
1842.15
1836.13
1831.13
1825.1
1820.84
1815.2
1811.15
1806.4
1802.01
1798.53
1793.55
1791.18
1786.31
1784.36
1780.56
1778.32
1776.27
1773.4
1772.96
1769.79
1770.06
1767.49
1767.21
1766.23
1764.63
1765.44
1762.98
1764.46
1762.46
1763.07
1762.82
1761.68
1763.22
1760.95
1763.04
1761.26
1762.24
1762.6
1761.63
1764.81
2556.98
2211.45
2002.16
1894.79
1875.19
1959.29
2066.2
2207.56
2362.4
2500.63
2657.97
2832.75
3015.43
3190.82
3348.82
3479.31
3580.97
3649.61
3688.53
3695.98
3676.08
3627.51
3558.66
3478.19
3403.15
3341.18
3288.26
3239.71
3195.12
3154.1
3117.38
3084.05
3052.22
3021.54
2992.79
2966.26
2940.82
2918
2895.62
2875.8
2856.52
2839.02
2823
2807.45
2794.1
2780.76
2769.5
2757.9
2748.24
2738.21
2729.54
2721.16
2713
2706.01
2698.66
2692.82
2686.14
2681.16
2675.34
2670.65
2665.94
2661.33
2657.67
2653.08
2650.33
2646.02
2643.38
2639.94
2636.75
2634.31
2630.72
2629.22
2625.71
2624.67
2621.99
2620.89
2619.59
2617.98
2617.88
2615.92
2616.34
2614.44
2614.5
2613.43
2612.59
2612.79
2611.08
2612.07
2610.24
2611.11
2610.28
2609.93
2610.69
2609.14
2610.83
2609.16
2610.59
2610.32
2610.61
2613.55
2508.53
2665.48
3511.38
4424.27
5100.46
5522.68
5790.8
5943.87
6009.48
6036.73
6165.16
6318.21
6450.65
6536.68
6572.41
6559.19
6508.5
6428.23
6330.6
6222.6
6112.27
6005.84
5906.41
5814.02
5726.8
5644.2
5567.18
5496.5
5432.79
5374.13
5321.77
5273.33
5230.54
5191.02
5155.89
5124.32
5095.59
5070.69
5046.91
5026.74
5007.3
4990.32
4974.75
4960.14
4947.48
4934.77
4923.6
4912.61
4902.75
4893.11
4884.28
4876.19
4868.01
4861.15
4854.09
4848
4841.95
4836.67
4831.35
4826.56
4822.25
4817.77
4814.25
4810.31
4807.5
4804.07
4801.28
4798.62
4795.73
4793.29
4790.95
4788.86
4786.86
4785.45
4783.95
4783.02
4782.13
4781.35
4780.82
4780.02
4779.57
4778.65
4777.97
4777.15
4776.53
4775.89
4775.21
4775.07
4774.17
4774.44
4773.61
4773.85
4773.58
4773.36
4773.83
4773.28
4774.25
4773.86
4775.51
4777.84
6772.61
9486.38
11871.2
13279.3
13857.2
13918.9
13700.3
13354.1
12989
12654.3
12355.6
12108.7
11918.2
11784.7
11699.8
11655.5
11638.5
11640.8
11651.3
11666.1
11679.5
11691.3
11700.3
11707.1
11713.2
11718.3
11723.7
11728.1
11733
11736.7
11740.9
11743.2
11745.6
11746
11746.2
11745.4
11743.6
11742.3
11739.1
11737.6
11733.8
11731.8
11728.6
11725.8
11724
11720.2
11720.2
11715.7
11716.8
11712.4
11713.4
11710.4
11709.9
11709.4
11706.7
11708.8
11704.6
11707.9
11704.1
11706.8
11705.6
11705.9
11708.4
11706
11711.3
11707.8
11713.1
11711.8
11713.9
11717.5
11715.4
11723.4
11719.3
11728
11725.5
11730.6
11732.5
11731.6
11737.5
11732.3
11739.1
11733.6
11737.3
11735.7
11733.9
11737.6
11731.4
11737.6
11731.4
11735.5
11733.9
11732.2
11736.8
11730.2
11737.5
11731.5
11734.8
11734.4
11729.5
11732.5
10872.7
6787.75
4828.17
3896.02
3335.72
2965.51
2699.26
2494.48
2325.53
2192.06
2070.76
1961.75
1874.17
1802.46
1725.69
1652.27
1590.87
1521.93
1436.12
1369.36
1359.82
1337.86
1183.38
964.71
677.276
636.496
591.576
591.303
815.175
930.043
953.536
925.97
876.823
823.765
777.516
741.112
712.567
687.889
661.697
629.792
590.236
543.419
492.471
442.579
396.748
355.213
317.269
282.878
252.714
227.587
207.834
193.086
182.43
174.789
169.257
165.235
162.392
160.567
159.64
159.43
159.623
159.819
159.705
159.179
158.316
157.299
156.334
155.573
155.053
154.734
154.557
154.464
154.419
154.398
154.388
154.382
154.379
154.376
154.375
154.373
154.373
154.372
154.372
154.371
154.372
154.371
154.372
154.37
154.372
154.37
154.372
154.37
154.372
154.369
154.372
154.368
154.371
154.366
154.367
154.359
2848.48
5085.31
4694.74
3975.82
3424.14
3021.99
2731.4
2505.98
2317.55
2175.57
2045.98
1931.12
1843.1
1772.44
1694.74
1626.12
1571.73
1500.55
1407.92
1349.27
1345.75
1305.18
1047.03
750.616
558.866
504.924
685.033
532.673
664.587
853.872
918
908.686
867.096
816.918
771.314
734.643
705.41
679.67
652.146
618.853
577.392
527.771
474.362
422.782
375.403
332.441
293.716
259.864
231.964
210.56
195.162
184.492
177.067
171.681
167.565
164.346
161.909
160.257
159.378
159.163
159.346
159.557
159.477
158.997
158.205
157.277
156.376
155.63
155.096
154.757
154.556
154.444
154.382
154.349
154.329
154.319
154.312
154.308
154.305
154.303
154.302
154.302
154.301
154.301
154.301
154.301
154.301
154.3
154.301
154.3
154.301
154.3
154.301
154.3
154.3
154.299
154.3
154.298
154.298
154.295
2172.96
2678.75
3499.22
3579.94
3317.83
2985.21
2717.74
2492.9
2293.73
2149.08
2012.21
1892.42
1805.93
1736.22
1656.48
1594.53
1548.11
1472.07
1372.15
1331.21
1328.26
1206.03
792.022
441.041
603.508
635.108
778.085
795.292
614.967
762.552
866.599
882.88
852.971
807.457
763.104
726.312
696.544
669.883
641.154
606.169
562.002
508.959
452.692
398.461
348.997
305.167
267.393
236.615
213.361
197.046
186.124
178.837
173.725
169.822
166.596
163.863
161.651
160.068
159.177
158.924
159.086
159.324
159.313
158.919
158.22
157.392
156.57
155.844
155.274
154.883
154.634
154.485
154.394
154.343
154.31
154.293
154.281
154.275
154.27
154.269
154.266
154.266
154.264
154.266
154.263
154.265
154.263
154.265
154.263
154.265
154.263
154.266
154.263
154.266
154.263
154.266
154.263
154.267
154.264
154.269
1756.83
1598.8
1978.93
2432.12
2682.68
2654.81
2544.19
2387.89
2213.84
2084.99
1947.83
1829.28
1747.64
1675.82
1595.83
1549.17
1511.87
1428.33
1325.74
1314.8
1272.69
887.344
456.451
445.359
677.975
799.882
844.283
962.629
746.671
697.406
800.946
844.731
831.795
793.634
751.62
715.059
685.024
657.784
627.857
590.429
542.236
484.922
424.788
367.783
317.636
275.523
241.936
216.941
199.606
188.148
180.651
175.575
171.848
168.805
166.099
163.652
161.556
159.976
159.023
158.69
158.804
159.074
159.184
158.955
158.406
157.689
156.928
156.211
155.601
155.148
154.836
154.638
154.509
154.433
154.381
154.354
154.333
154.325
154.315
154.314
154.308
154.31
154.306
154.309
154.305
154.309
154.304
154.309
154.304
154.309
154.304
154.309
154.304
154.31
154.304
154.311
154.305
154.313
154.309
154.322
1372.45
1268.1
1338.58
1455.44
1621.38
1817.22
1960.08
1999.26
1964.74
1899.7
1785.26
1690.75
1617.35
1526.51
1455.15
1443.51
1416.64
1328.75
1249.56
1263.38
916.084
369.852
380.477
597.473
811.008
950.718
938.821
1030.02
952.055
726.378
740.451
793.441
799.945
772.897
734.927
699.248
669.283
641.429
609.457
567.814
513.917
451.516
388.333
331.551
284.65
248.162
221.525
203.206
191.077
183.09
177.688
173.834
170.84
168.265
165.866
163.6
161.572
159.963
158.91
158.451
158.473
158.749
158.991
158.98
158.64
158.054
157.343
156.631
156.001
155.505
155.136
154.883
154.708
154.598
154.522
154.478
154.445
154.431
154.416
154.413
154.405
154.407
154.401
154.404
154.399
154.404
154.398
154.404
154.398
154.404
154.398
154.405
154.398
154.405
154.398
154.407
154.4
154.411
154.406
154.423
1121.7
1062.88
1085.06
1105.39
1075.64
1146.65
1208.71
1252.11
1405.28
1410.42
1364.76
1350.45
1242.07
1078.98
1025.61
1027.33
1032.57
955.36
1033.62
753.014
252.555
298.238
560.847
780.148
947.308
1064.9
1044.27
1069.01
1082.23
866.266
725.752
739.106
755.237
741.241
709.41
675.735
646.196
616.862
580.509
532.03
472.159
407.915
347.572
296.665
257.059
228.28
208.493
195.328
186.556
180.533
176.205
172.933
170.285
167.956
165.75
163.621
161.653
160.011
158.842
158.222
158.098
158.309
158.606
158.759
158.614
158.18
157.566
156.915
156.308
155.799
155.392
155.094
154.876
154.732
154.63
154.569
154.525
154.502
154.483
154.477
154.467
154.468
154.462
154.465
154.46
154.464
154.459
154.464
154.458
154.464
154.458
154.464
154.458
154.465
154.459
154.466
154.461
154.471
154.467
154.483
954.989
917.734
933.255
933.761
896.6
908.566
884.224
849.787
909.518
838.865
837.703
802.847
603.729
477.988
512.391
227.67
369.166
195.878
241.511
61.5453
279.529
526.697
748.874
940.825
1076.81
1159.58
1141.41
1119.74
1139.1
1025.06
810.132
713.864
704.325
695.39
669.467
639.2
610.372
577.114
533.52
481.287
427.02
374.137
324.394
280.746
246.126
221.101
204.077
192.751
185.085
179.667
175.645
172.521
169.968
167.738
165.652
163.64
161.743
160.093
158.824
158.028
157.697
157.73
157.936
158.113
158.093
157.823
157.361
156.824
156.287
155.809
155.409
155.104
154.876
154.721
154.611
154.544
154.496
154.47
154.449
154.442
154.432
154.431
154.426
154.428
154.424
154.427
154.423
154.427
154.422
154.427
154.422
154.427
154.422
154.428
154.423
154.429
154.424
154.432
154.43
154.443
818.167
798.572
814.1
795.253
784.478
776.659
716.386
747.653
654.936
634.075
620.081
456.944
412.526
440.423
214.504
372.002
347.824
268.272
272.3
496.798
637.187
761.381
931
1095.82
1198.63
1244.23
1227.04
1186.9
1181.03
1123.75
957.1
784.865
693.422
649.502
616.856
588.432
558.143
522.607
490.996
469.042
446.809
411.642
363.098
311.649
267.365
234.293
211.707
196.948
187.298
180.778
176.145
172.675
169.93
167.628
165.571
163.647
161.835
160.206
158.864
157.898
157.325
157.098
157.091
157.162
157.17
157.028
156.722
156.321
155.892
155.496
155.161
154.904
154.712
154.581
154.489
154.432
154.391
154.37
154.352
154.346
154.338
154.337
154.332
154.334
154.331
154.333
154.33
154.333
154.33
154.333
154.33
154.333
154.33
154.334
154.33
154.335
154.331
154.337
154.335
154.346
643.24
651.244
643.57
628.082
631.748
571.633
579.441
519.943
471.058
464.853
356.123
311.406
339.435
244.689
331.24
377.581
343.469
401.529
570.663
667.977
742.394
883.657
1078.7
1235.9
1306.24
1319.96
1300.58
1260.24
1233.91
1194.12
1080.76
925.33
790.277
694.588
632.713
591.878
569.754
573.494
591.664
599.682
580.952
533.291
466.676
395.27
330.421
278.421
240.556
214.793
197.874
186.839
179.522
174.498
170.874
168.11
165.865
163.921
162.15
160.528
159.103
157.955
157.129
156.619
156.359
156.256
156.203
156.109
155.918
155.649
155.347
155.067
154.83
154.651
154.52
154.432
154.371
154.335
154.308
154.295
154.284
154.281
154.275
154.275
154.272
154.274
154.27
154.273
154.27
154.273
154.27
154.273
154.27
154.273
154.27
154.274
154.27
154.274
154.271
154.276
154.274
154.283
337.206
345.902
334.798
332.907
323.989
299.661
302.889
267.523
267.565
280.638
272.045
359.921
416.683
484.384
573.276
599.717
629.06
718.576
787.89
827.824
923.817
1098.05
1281.47
1388.39
1396.93
1372.7
1348.59
1320.35
1293.91
1261.38
1182.41
1062.19
938.848
839.878
777.217
751.53
754.035
765.006
764.509
743.054
698.733
636.013
563.529
489.152
418.886
356.96
305.507
264.836
234.123
211.82
196.128
185.344
177.998
172.966
169.399
166.679
164.396
162.344
160.481
158.877
157.606
156.697
156.108
155.767
155.573
155.442
155.299
155.131
154.948
154.785
154.651
154.558
154.49
154.451
154.423
154.411
154.399
154.398
154.391
154.394
154.388
154.393
154.387
154.393
154.386
154.393
154.386
154.393
154.386
154.394
154.385
154.394
154.385
154.395
154.385
154.396
154.386
154.4
154.39
154.409
369.489
390.736
366.194
402.803
391.748
423.496
455.265
468.595
541.969
563.462
630.202
712.856
747.654
795.756
831.398
822.025
846.378
905.806
936.559
979.93
1111.96
1309.9
1466.24
1488.97
1424.3
1370.85
1349.58
1344.33
1339.94
1323.43
1269.51
1177.55
1078.78
1000.4
954.965
934.559
921.095
901.412
870.436
826.397
769.445
703.863
635.4
568.96
507.136
451.431
402.582
360.365
323.852
292.376
265.428
242.905
224.629
210.09
198.489
189.052
181.21
174.681
169.274
164.95
161.662
159.333
157.767
156.786
156.186
155.853
155.653
155.561
155.508
155.525
155.545
155.611
155.647
155.712
155.732
155.784
155.783
155.824
155.807
155.843
155.815
155.853
155.817
155.859
155.816
155.863
155.813
155.867
155.809
155.871
155.806
155.876
155.803
155.883
155.802
155.896
155.809
155.924
155.843
155.994
690.471
668.27
684.33
695.502
692.4
728.434
733.378
760.611
789.186
807.163
851.366
881.876
901.51
939.764
948.611
944.729
991.852
1033.01
1040.66
1128.27
1331.61
1537.52
1600.81
1501.31
1378.37
1314.58
1304.91
1324.63
1350.07
1360.88
1335.27
1269.11
1193.14
1132.79
1089.84
1054.62
1017.68
974.079
924.718
869.755
810.109
749.262
690.827
636.189
585.408
538.865
497.778
463.36
434.726
410.401
388.408
367.391
346.71
326.011
304.509
281.942
258.758
236.517
216.698
200.469
187.983
179.103
173.005
169.195
166.875
165.952
165.82
166.529
167.424
168.681
169.665
170.752
171.374
172.1
172.352
172.816
172.82
173.155
173.011
173.31
173.071
173.385
173.078
173.427
173.063
173.461
173.037
173.496
173.005
173.532
172.977
173.57
172.956
173.623
172.952
173.721
173.012
173.943
173.292
174.489
824.196
816.232
827.602
828.425
837.835
853.557
861.327
883.998
901.674
923.466
959.564
983.418
1017.09
1050.43
1049.58
1071.24
1124.93
1135
1172
1353.33
1599.28
1725.85
1629.7
1433.53
1297.66
1250.54
1255.59
1287.62
1329.26
1361.4
1361.81
1322.72
1268.24
1214.76
1157.1
1096.96
1040.36
984.631
929.264
874.456
821.241
772.041
727.622
686.404
647.571
611.485
579.088
551.525
528.779
510.246
494.411
479.812
465.28
450.787
435.002
416.818
395.176
371.122
345.918
322.187
301.107
284.526
272.069
264.605
260.863
261.613
264.616
270.062
275.301
281.12
285.312
289.495
291.773
294.301
295.126
296.648
296.63
297.698
297.215
298.165
297.387
298.395
297.392
298.53
297.336
298.638
297.246
298.757
297.135
298.879
297.042
298.988
296.99
299.12
297.007
299.362
297.214
299.945
298.043
301.46
945.074
943.021
950.084
952.771
964.364
976.319
989.408
1010.83
1028.17
1058.25
1091.84
1124.46
1172.21
1196.08
1202.09
1245.7
1276.38
1280.73
1404.74
1663.43
1862.37
1810.02
1560.43
1343.32
1241.55
1216.76
1227.22
1256.5
1296.12
1332.1
1345.83
1326.29
1282.12
1223.44
1151.23
1077.94
1016.4
962.968
912.934
865.536
821.939
783.499
749.474
718.526
690.423
665.573
644.404
626.669
611.369
597.815
585.489
574.383
563.948
554.646
546.177
538.307
530.544
523.211
515.761
508.721
502.362
497.765
494.932
494.745
496.835
501.758
507.946
515.1
521.411
527.275
531.525
535.166
537.331
539.286
540.142
541.166
541.358
541.959
541.834
542.289
541.986
542.441
542.001
542.534
541.962
542.613
541.893
542.71
541.795
542.835
541.68
542.988
541.573
543.201
541.509
543.565
541.63
544.337
542.414
546.195
1099.46
1101.13
1106.15
1110.98
1125.08
1137.41
1157.71
1179.4
1205.27
1244.54
1283.76
1340
1395.92
1415.93
1437.66
1474.23
1474.2
1524.85
1745.76
2002.71
2031.8
1763.47
1462.05
1291.58
1231.32
1221.5
1228.55
1245.45
1270.59
1295.2
1306.28
1291.76
1249.5
1188.37
1117.04
1050.36
998.677
957
918.262
880.481
844.79
812.648
783.902
758.68
737.631
721.068
708.67
699.354
692.245
686.965
683.22
680.567
678.272
675.49
672.19
669.701
669.333
671.691
675.786
680.032
683.712
686.502
688.861
691.336
694.815
699.251
704.361
709.137
713.43
716.847
719.603
721.513
722.953
723.835
724.524
724.869
725.207
725.297
725.488
725.459
725.591
725.518
725.615
725.555
725.601
725.596
725.565
725.654
725.502
725.749
725.399
725.912
725.254
726.168
725.106
726.595
725.091
727.39
725.681
729.141
1339.68
1343.58
1348
1357.03
1374.29
1392.76
1421.65
1449.2
1490.11
1539.27
1597.96
1679.79
1732.86
1752.49
1766.9
1763.61
1760.35
1892.28
2157.6
2280.39
2048.58
1671.12
1411.09
1301.66
1276.59
1275.28
1273.69
1272.76
1276.29
1281.14
1279.01
1259.14
1217.82
1162.75
1105.56
1059.64
1028.33
1004.56
980.216
952.092
922.478
894.157
868.304
846.647
830.633
820.559
815.591
814.079
814.952
817.496
821.291
825.895
831.02
836.232
841.337
846.023
850.023
852.924
855.02
856.51
857.492
858.048
858.821
860.4
863.547
867.923
872.964
877.664
881.891
885.289
888.003
889.944
891.364
892.293
892.947
893.346
893.631
893.785
893.906
893.955
894
894.021
894.018
894.063
893.999
894.11
893.954
894.178
893.881
894.286
893.767
894.466
893.606
894.761
893.424
895.285
893.358
896.282
894.003
898.405
1764.4
1769.87
1775.66
1790.49
1814.33
1844.23
1883.69
1923.89
1980.72
2043.16
2128.2
2220.11
2252.04
2248.13
2212.27
2161.47
2200.17
2399.58
2580.85
2437.53
2017.62
1645.38
1452.68
1399.76
1404.58
1409.31
1397.85
1377.31
1355.84
1335.9
1314.66
1285.52
1247.06
1206.2
1176.33
1164.02
1161.96
1161.68
1153.82
1134.08
1108.63
1082.71
1058.88
1040.63
1030.26
1027.84
1031.56
1038.95
1048.36
1058.54
1068.75
1078.54
1087.79
1096.22
1103.68
1109.8
1114.55
1117.88
1120.14
1121.54
1122.49
1123.4
1124.9
1127.42
1131.15
1135.55
1139.99
1143.97
1147.35
1150.06
1152.1
1153.57
1154.56
1155.24
1155.66
1155.96
1156.11
1156.24
1156.29
1156.34
1156.36
1156.38
1156.37
1156.4
1156.36
1156.43
1156.34
1156.47
1156.29
1156.56
1156.2
1156.72
1156.04
1157.08
1155.8
1157.85
1155.56
1159.46