/*--------------------------------*- C++ -*----------------------------------*\
| =========                 |                                                 |
| \\      /  F ield         | OpenFOAM: The Open Source CFD Toolbox           |
|  \\    /   O peration     | Version:  v2012                                 |
|   \\  /    A nd           | Website:  www.openfoam.com                      |
|    \\/     M anipulation  |                                                 |
\*---------------------------------------------------------------------------*/
FoamFile
{
    version     2.0;
    format      ascii;
    class       Cloud<basicKinematicParcel>;
    location    "0.011/lagrangian/kinematicCloud";
    object      coordinates;
}
// * * * * * * * * * * * * * * * * * * * * * * * * * * * * * * * * * * * * * //

11
(
(0.124347 0.161562 0.276265 0.437826) 307 415 2
(0.0434855 0.399334 0.0789236 0.478257) 806 1612 1
(0.555541 0.222229 0.19858 0.0236497) 1106 2210 2
(0.166804 0.416598 0.091512 0.325086) 505 1011 1
(0.416647 0.216819 0.0748578 0.291676) 1404 2609 2
(0.343921 0.328039 0.308586 0.0194535) 1103 2206 2
(0.0234757 0.475804 0.488262 0.0124579) 3 4 1
(0.586415 0.206792 0.106973 0.0998193) 1602 3202 2
(0.410626 0.294687 0.266036 0.028651) 1601 3003 1
(0.505591 0.247204 0.170617 0.0765874) 700 1400 2
(0.310836 0.262818 0.344582 0.0817643) 800 1601 2
)


// ************************************************************************* //
