/*--------------------------------*- C++ -*----------------------------------*\
| =========                 |                                                 |
| \\      /  F ield         | OpenFOAM: The Open Source CFD Toolbox           |
|  \\    /   O peration     | Version:  v2012                                 |
|   \\  /    A nd           | Website:  www.openfoam.com                      |
|    \\/     M anipulation  |                                                 |
\*---------------------------------------------------------------------------*/
FoamFile
{
    version     2.0;
    format      ascii;
    class       Cloud<basicKinematicParcel>;
    location    "0.011/lagrangian/kinematicCloud";
    object      coordinates;
}
// * * * * * * * * * * * * * * * * * * * * * * * * * * * * * * * * * * * * * //

11
(
(0.538464 0.0482712 0.182497 0.230768) 109 217 1
(0.232197 0.377016 0.00688604 0.383902) 407 901 1
(0.434254 0.0697744 0.213099 0.282873) 605 1295 1
(0.313464 0.198382 0.144886 0.343268) 303 496 2
(0.422228 0.00883961 0.288886 0.280046) 801 1686 2
(0.118476 0.421013 0.440762 0.0197492) 700 139 1
(0.421064 0.289468 0.00921944 0.280249) 7 12 2
(0.767022 0.116489 0.00981473 0.106674) 85 170 2
(0.412482 0.293759 0.082859 0.2109) 83 167 1
(0.846835 0.0765823 0.0732701 0.00331217) 31 43 1
(0.310875 0.344563 0.101162 0.2434) 31 43 1
)


// ************************************************************************* //
