/*--------------------------------*- C++ -*----------------------------------*\
| =========                 |                                                 |
| \\      /  F ield         | OpenFOAM: The Open Source CFD Toolbox           |
|  \\    /   O peration     | Version:  v2012                                 |
|   \\  /    A nd           | Website:  www.openfoam.com                      |
|    \\/     M anipulation  |                                                 |
\*---------------------------------------------------------------------------*/
FoamFile
{
    version     2.0;
    format      ascii;
    class       Cloud<basicKinematicParcel>;
    location    "0.011/lagrangian/kinematicCloud";
    object      positions;
}
// * * * * * * * * * * * * * * * * * * * * * * * * * * * * * * * * * * * * * //

11
(
(0.157684 0.00182227 0.03) 109
(0.140425 0.00936339 0.03) 407
(0.120791 0.015254 0.03) 605
(0.100811 0.00575848 0.03) 303
(0.0833845 0.0207963 0.03) 801
(0.0673036 0.0174077 0.03) 700
(0.0481303 0.00131038 0.03) 7
(0.0374901 0.0224102 0.03) 85
(0.0228094 0.0234793 0.03) 83
(0.00999039 0.00914053 0.03) 31
(0.0083878 0.00842502 0.03) 31
)


// ************************************************************************* //
