/*--------------------------------*- C++ -*----------------------------------*\
| =========                 |                                                 |
| \\      /  F ield         | OpenFOAM: The Open Source CFD Toolbox           |
|  \\    /   O peration     | Version:  v2012                                 |
|   \\  /    A nd           | Website:  www.openfoam.com                      |
|    \\/     M anipulation  |                                                 |
\*---------------------------------------------------------------------------*/
FoamFile
{
    version     2.0;
    format      ascii;
    class       vectorField;
    location    "0.011/lagrangian/kinematicCloud";
    object      UCorrect;
}
// * * * * * * * * * * * * * * * * * * * * * * * * * * * * * * * * * * * * * //


11
(
(0 0 0)
(-1.21239e-07 -5.59056e-12 0)
(0 0 0)
(-1.53561e-25 -5.31704e-30 0)
(-1.54377e-25 8.89626e-30 0)
(0 0 0)
(0 0 0)
(-1.21412e-09 3.46747e-14 0)
(8.7281e-10 -2.55284e-14 0)
(5.69181e-08 2.50825e-12 0)
(5.85487e-08 2.84419e-12 0)
)


// ************************************************************************* //
