/*--------------------------------*- C++ -*----------------------------------*\
| =========                 |                                                 |
| \\      /  F ield         | OpenFOAM: The Open Source CFD Toolbox           |
|  \\    /   O peration     | Version:  v2012                                 |
|   \\  /    A nd           | Website:  www.openfoam.com                      |
|    \\/     M anipulation  |                                                 |
\*---------------------------------------------------------------------------*/
FoamFile
{
    version     2.0;
    format      ascii;
    class       scalarField;
    location    "0.125/lagrangian/kinematicCloud";
    object      age;
}
// * * * * * * * * * * * * * * * * * * * * * * * * * * * * * * * * * * * * * //


54
(
0.1242
0.1232
0.1221
0.121
0.12
0.119
0.118
0.117
0.1159
0.1148
0.114725
0.1137
0.1126
0.1115
0.1104
0.1093
0.1082
0.1071
0.106
0.105925
0.1049
0.1038
0.1027
0.1016
0.101525
0.1005
0.0994
0.099325
0.0983
0.098225
0.0972
0.0961
0.095
0.0939
0.093825
0.0929
0.0919
0.0909
0.0899
0.0889
0.0879
0.0869
0.0859
0.0849
0.0839
0.0829
0.0819
0.0809
0.0799
0.0789
0.0779
0.0769
0.0759
0.0749
)


// ************************************************************************* //
