/*--------------------------------*- C++ -*----------------------------------*\
| =========                 |                                                 |
| \\      /  F ield         | OpenFOAM: The Open Source CFD Toolbox           |
|  \\    /   O peration     | Version:  v2012                                 |
|   \\  /    A nd           | Website:  www.openfoam.com                      |
|    \\/     M anipulation  |                                                 |
\*---------------------------------------------------------------------------*/
FoamFile
{
    version     2.0;
    format      ascii;
    class       volScalarField;
    location    "0.282";
    object      k.air;
}
// * * * * * * * * * * * * * * * * * * * * * * * * * * * * * * * * * * * * * //

dimensions      [0 2 -2 0 0 0 0];


internalField   nonuniform List<scalar> 
5600
(
0.606293
0.840811
0.955136
0.978136
0.949189
0.897561
0.839587
0.787249
0.74333
0.707257
0.679377
0.658339
0.643377
0.632623
0.625341
0.620011
0.616323
0.613269
0.610997
0.608775
0.607141
0.605401
0.604252
0.603095
0.602441
0.601764
0.601429
0.601035
0.600885
0.60056
0.600433
0.600029
0.599822
0.59933
0.59905
0.598523
0.598207
0.597677
0.597365
0.596847
0.596575
0.596091
0.595882
0.595446
0.595307
0.594943
0.594868
0.594556
0.594549
0.594262
0.594295
0.594049
0.59413
0.593906
0.594043
0.593851
0.594052
0.593897
0.594156
0.594045
0.594371
0.594279
0.594676
0.594604
0.595064
0.595008
0.595535
0.595487
0.596084
0.596036
0.596709
0.596652
0.597411
0.597337
0.598187
0.598088
0.59903
0.598907
0.59993
0.599789
0.600872
0.600733
0.601828
0.601757
0.60275
0.602906
0.603561
0.604296
0.604087
0.606217
0.603965
0.609282
0.602127
0.615245
0.595214
0.630174
0.571183
0.676531
0.478299
0.842531
0.371682
0.315477
0.288733
0.275566
0.275064
0.284572
0.30742
0.344912
0.387134
0.430222
0.471446
0.509029
0.541748
0.569444
0.59193
0.609752
0.623532
0.633847
0.641806
0.647702
0.652616
0.656366
0.660029
0.663028
0.665903
0.668096
0.670293
0.671725
0.673305
0.673876
0.674938
0.674915
0.675621
0.675388
0.675886
0.6756
0.675993
0.675693
0.676088
0.675794
0.676262
0.676011
0.676572
0.676394
0.677026
0.676875
0.677511
0.677348
0.67798
0.677784
0.678477
0.678248
0.67901
0.678792
0.679648
0.679446
0.680415
0.680213
0.681305
0.681083
0.682282
0.682044
0.683343
0.68307
0.684479
0.684154
0.685672
0.685284
0.686917
0.686468
0.688242
0.687689
0.689639
0.688958
0.691113
0.69028
0.692644
0.691643
0.694198
0.693024
0.69575
0.694434
0.697257
0.695924
0.698651
0.697598
0.699813
0.699686
0.700444
0.702668
0.699748
0.707617
0.696122
0.716911
0.685889
0.736363
0.658863
0.780838
0.585277
0.883966
0.369201
0.281797
0.227848
0.192853
0.168735
0.153659
0.145734
0.143529
0.147041
0.155058
0.167052
0.181954
0.199265
0.218571
0.239123
0.260608
0.282488
0.304501
0.326429
0.348212
0.369551
0.390396
0.409287
0.425609
0.439903
0.452107
0.462985
0.471873
0.480059
0.486501
0.492876
0.497633
0.502754
0.506457
0.5106
0.513541
0.516979
0.519342
0.522367
0.524309
0.527079
0.528731
0.531302
0.532731
0.535131
0.536363
0.538567
0.539592
0.541665
0.542506
0.544525
0.545231
0.547229
0.547844
0.54986
0.550392
0.55245
0.552881
0.554984
0.555309
0.557457
0.557669
0.559869
0.559953
0.562239
0.562176
0.564562
0.564358
0.566864
0.566524
0.56917
0.568665
0.571491
0.570779
0.573823
0.572868
0.576145
0.574906
0.578426
0.57687
0.580656
0.578781
0.582818
0.580689
0.584884
0.582652
0.586803
0.5848
0.588422
0.587383
0.589404
0.590845
0.589103
0.596204
0.586051
0.605648
0.577088
0.622943
0.557595
0.63676
0.370164
0.280524
0.22425
0.185878
0.158733
0.138015
0.123131
0.111197
0.103058
0.0968861
0.0936404
0.0922325
0.0930267
0.0952625
0.0995694
0.105213
0.112895
0.121842
0.132887
0.145221
0.159478
0.175183
0.192498
0.210524
0.229088
0.247416
0.265523
0.281934
0.297813
0.311655
0.325248
0.336599
0.347927
0.357356
0.366845
0.374723
0.382831
0.389478
0.396629
0.402234
0.408562
0.413218
0.418731
0.422609
0.427363
0.430481
0.434673
0.437279
0.441136
0.443353
0.446998
0.448934
0.45243
0.454139
0.457529
0.458999
0.462302
0.463527
0.466759
0.467761
0.470948
0.471741
0.474909
0.475492
0.478692
0.479072
0.482336
0.482513
0.485873
0.485846
0.489339
0.489081
0.492737
0.492202
0.496048
0.495212
0.499284
0.498099
0.502427
0.500841
0.505469
0.503469
0.508412
0.506036
0.511252
0.508577
0.513969
0.511176
0.51646
0.513998
0.518561
0.517257
0.519965
0.521469
0.520029
0.527279
0.518334
0.533808
0.518152
0.529761
0.370376
0.280626
0.224553
0.185838
0.158637
0.137431
0.121751
0.108552
0.0985531
0.0897845
0.0831328
0.0772075
0.0730052
0.0690363
0.0668003
0.0644216
0.0639704
0.0632958
0.0645046
0.0657145
0.0686911
0.0721936
0.0774173
0.0835374
0.0914502
0.100139
0.110753
0.121418
0.133894
0.145894
0.159539
0.172527
0.186579
0.199248
0.212474
0.22426
0.236439
0.247026
0.258182
0.267539
0.277661
0.285877
0.295081
0.302333
0.310564
0.316811
0.324194
0.329573
0.336343
0.341032
0.347336
0.351479
0.357368
0.360994
0.366481
0.36953
0.374667
0.377235
0.382106
0.384279
0.388951
0.390781
0.395309
0.396818
0.401282
0.402507
0.406952
0.407906
0.412361
0.413042
0.417554
0.417909
0.422494
0.422505
0.427181
0.426868
0.431642
0.430916
0.435848
0.434713
0.439869
0.438338
0.443731
0.441853
0.447446
0.445299
0.450988
0.448742
0.454284
0.45231
0.457256
0.456114
0.459765
0.4603
0.461689
0.464753
0.463613
0.467978
0.467865
0.46582
0.370422
0.280636
0.224697
0.185985
0.158863
0.137686
0.12201
0.108758
0.0986398
0.0895937
0.0826382
0.075998
0.0711527
0.0659585
0.0626318
0.0584617
0.0561819
0.0529724
0.0513832
0.0491388
0.0480875
0.0467529
0.0464386
0.0458835
0.0467415
0.0469073
0.0492329
0.0503927
0.0542572
0.0568507
0.0621784
0.0665812
0.0734116
0.0795259
0.0876597
0.0950303
0.104326
0.112424
0.122573
0.131126
0.141822
0.150701
0.161299
0.170041
0.180333
0.188638
0.19849
0.206141
0.215477
0.222419
0.231203
0.237486
0.245738
0.251409
0.259302
0.264397
0.271877
0.276377
0.283442
0.287407
0.294125
0.297617
0.304061
0.307117
0.313376
0.316058
0.322168
0.324493
0.330457
0.332417
0.338254
0.339751
0.345468
0.346563
0.352195
0.352949
0.358526
0.358925
0.364469
0.364525
0.370062
0.369852
0.37535
0.374975
0.380375
0.379934
0.385116
0.384804
0.389534
0.389653
0.393658
0.39446
0.397497
0.399138
0.401144
0.403426
0.405084
0.406688
0.409614
0.408815
0.370433
0.280628
0.22472
0.186029
0.158919
0.137797
0.122108
0.108925
0.098789
0.0897647
0.0828245
0.0760975
0.0712795
0.0658894
0.0625076
0.0580952
0.0555478
0.0520506
0.0499166
0.0472357
0.0454147
0.0432366
0.0419585
0.0398431
0.0393899
0.0371475
0.0374552
0.0353351
0.036083
0.0345073
0.0354774
0.0346761
0.0360411
0.0359059
0.0380543
0.0384511
0.0416651
0.0426894
0.0469186
0.0488823
0.0540173
0.0571093
0.063052
0.0670995
0.0738946
0.0786858
0.0862693
0.0916189
0.0998014
0.105526
0.114049
0.119978
0.128735
0.134665
0.143321
0.149067
0.157667
0.16317
0.171587
0.176782
0.184965
0.189809
0.197735
0.20218
0.209854
0.213931
0.221357
0.22509
0.232356
0.235804
0.24293
0.246033
0.252951
0.255716
0.26238
0.264861
0.271281
0.273496
0.279682
0.281664
0.287589
0.289448
0.295062
0.296899
0.302156
0.30404
0.308839
0.3109
0.315103
0.317468
0.321034
0.323667
0.326652
0.329415
0.331943
0.334658
0.337043
0.339399
0.341568
0.343864
0.370426
0.280636
0.224695
0.186062
0.158891
0.13786
0.12209
0.109008
0.0988027
0.08985
0.082883
0.076183
0.0713607
0.065996
0.062559
0.0582359
0.0555264
0.052183
0.0498174
0.0472492
0.0452387
0.0429999
0.0416433
0.0392435
0.0387232
0.0360947
0.0360944
0.0336417
0.0336404
0.0317231
0.0315394
0.0300309
0.0300187
0.0284685
0.0290127
0.0272397
0.0283351
0.0265995
0.0279282
0.026592
0.0280588
0.027142
0.0289524
0.0283157
0.0307123
0.0303676
0.0333525
0.0334617
0.0370328
0.0377397
0.0418734
0.0431943
0.0480098
0.0499535
0.0553297
0.0577649
0.0636872
0.0666657
0.073017
0.076442
0.0831661
0.0869706
0.0939995
0.0980241
0.105209
0.109385
0.116664
0.120911
0.128071
0.132152
0.139217
0.14325
0.150202
0.154182
0.160915
0.164845
0.171331
0.175188
0.181398
0.185181
0.19104
0.194805
0.200272
0.204056
0.209118
0.21294
0.217534
0.221434
0.225528
0.229504
0.233185
0.237152
0.240466
0.244377
0.247276
0.251158
0.25363
0.257551
0.259276
0.263422
0.3704
0.28067
0.224642
0.186111
0.158834
0.137915
0.122041
0.109063
0.0987678
0.0899089
0.0828522
0.0762647
0.071315
0.0661166
0.0624933
0.0583847
0.0554623
0.0523243
0.0497826
0.0473545
0.0452338
0.043071
0.0416303
0.0393131
0.0386281
0.0362039
0.0358456
0.033773
0.0332321
0.0317475
0.0310129
0.0297757
0.0293254
0.0278288
0.0279373
0.0261635
0.0265648
0.024913
0.0252013
0.0238924
0.0240943
0.0229009
0.023316
0.0219929
0.0227347
0.0213662
0.0222677
0.0210258
0.0220224
0.0209677
0.0221256
0.0211613
0.0226045
0.0217966
0.0235083
0.0228924
0.0248559
0.0245987
0.0268198
0.0268925
0.0294174
0.0298853
0.0328064
0.0337016
0.0369149
0.0382984
0.0418918
0.0437998
0.0477063
0.0499568
0.0541546
0.0568295
0.0612501
0.0643419
0.0688884
0.0723488
0.0770398
0.0808245
0.0855969
0.0896395
0.0943824
0.0986365
0.103298
0.107709
0.112252
0.116787
0.121126
0.125738
0.12984
0.134466
0.1384
0.143008
0.146772
0.151368
0.154884
0.159374
0.162615
0.16696
0.169831
0.173858
0.370367
0.280721
0.224584
0.18617
0.158779
0.137962
0.122005
0.109098
0.0987334
0.0899619
0.0827875
0.0763635
0.0712089
0.0662509
0.0623826
0.0585027
0.0554
0.0523913
0.049771
0.047399
0.045217
0.0431578
0.0415435
0.0394866
0.0384549
0.0364439
0.0356327
0.0340117
0.0330474
0.0319231
0.0308769
0.0299007
0.0291712
0.0279665
0.0276804
0.0263437
0.0261762
0.0250701
0.0247208
0.0239205
0.0235161
0.0227426
0.0225449
0.0216352
0.0216317
0.0207265
0.0207252
0.0199552
0.0199107
0.0192416
0.0192542
0.0185688
0.0186867
0.0180309
0.0182127
0.0176053
0.0178115
0.017325
0.0175704
0.0171621
0.0174705
0.0171523
0.0175581
0.0174061
0.0178291
0.0178562
0.0183784
0.0186255
0.0192967
0.0196906
0.0205352
0.0212005
0.0222193
0.0231979
0.0243833
0.0256645
0.0270965
0.0287441
0.0304501
0.0324523
0.0344441
0.0368156
0.0391212
0.0418648
0.0444833
0.0476349
0.0505457
0.0540377
0.0572044
0.0609563
0.0643848
0.0684015
0.0720557
0.0762428
0.0800601
0.0843174
0.0882767
0.0925403
0.0965812
0.100771
0.37034
0.280767
0.224543
0.18622
0.158745
0.137994
0.121992
0.109113
0.0987216
0.0899922
0.0827399
0.0764378
0.0711178
0.0663514
0.0622925
0.0585729
0.0553635
0.0524033
0.0497819
0.0473915
0.0452117
0.0432026
0.0414563
0.0396201
0.0382935
0.036611
0.0354833
0.0341251
0.0329735
0.0319667
0.0308433
0.0299537
0.029088
0.0280955
0.0275287
0.0265203
0.0260185
0.0252216
0.0246131
0.0240341
0.0234328
0.0228714
0.0224377
0.021816
0.0215067
0.0209342
0.0206237
0.0201799
0.0198499
0.019495
0.0192271
0.0188939
0.0187035
0.0184333
0.0183048
0.0181038
0.0180362
0.0179374
0.0179509
0.0179492
0.0180706
0.0181806
0.0184274
0.0187205
0.0190731
0.0195633
0.0200764
0.0208068
0.0215261
0.0224676
0.0234327
0.0246502
0.02589
0.0274162
0.0289516
0.0307915
0.0326521
0.0348607
0.0370637
0.0396214
0.0421773
0.0450834
0.047997
0.0511923
0.054379
0.0578549
0.0613
0.0650229
0.0686913
0.0725938
0.0764535
0.0805465
0.0845849
0.0888211
0.0929929
0.0972726
0.101522
0.105819
0.110141
0.114571
0.370328
0.280797
0.224528
0.186255
0.158731
0.138018
0.121988
0.109121
0.0987221
0.0899985
0.0827232
0.0764618
0.0710731
0.0663909
0.0622371
0.0586014
0.0553272
0.0523991
0.0497735
0.0473633
0.0452059
0.0431908
0.0414077
0.0396606
0.038198
0.0366742
0.0354038
0.0341515
0.0329588
0.0319576
0.0308676
0.0299841
0.0290982
0.0282232
0.0275478
0.026729
0.0261394
0.0254933
0.0249104
0.0244376
0.023932
0.0235376
0.0231975
0.0228648
0.0226789
0.0224814
0.0224179
0.0224191
0.0225023
0.0227156
0.0230207
0.0234624
0.0240278
0.024768
0.0256316
0.0267032
0.0279226
0.0293738
0.031005
0.0328705
0.0349541
0.0372711
0.0398371
0.0426505
0.045698
0.0489738
0.0524179
0.0561038
0.0599194
0.0639798
0.0681416
0.0725407
0.0770128
0.0816932
0.0864187
0.0913027
0.096201
0.101229
0.106219
0.111312
0.116319
0.121416
0.126388
0.131345
0.136156
0.140973
0.145698
0.150415
0.155022
0.159595
0.164048
0.168475
0.17277
0.177041
0.181177
0.185261
0.18923
0.193139
0.197028
0.200969
0.370324
0.280816
0.224531
0.186277
0.158728
0.138035
0.12198
0.109125
0.0987121
0.089988
0.0827077
0.0764421
0.0710445
0.0663697
0.0621921
0.0585813
0.0552726
0.0523754
0.0497258
0.0473314
0.0451781
0.0431682
0.0413954
0.0396863
0.0382126
0.0367707
0.0355048
0.0343376
0.0332231
0.0323055
0.0313722
0.03064
0.029951
0.0293739
0.0289561
0.0285892
0.0284272
0.0283737
0.0284933
0.0288199
0.0293165
0.0300581
0.0310375
0.0322661
0.0338032
0.0356173
0.0377796
0.0402549
0.0431017
0.0462912
0.0498762
0.0537813
0.057998
0.0625388
0.0673516
0.0724712
0.0778187
0.0834281
0.0892161
0.0951921
0.101294
0.107502
0.11379
0.120119
0.126484
0.13275
0.138948
0.145115
0.151226
0.157297
0.163269
0.169193
0.174991
0.180729
0.186333
0.191853
0.197246
0.202545
0.207718
0.212796
0.217749
0.222609
0.227349
0.232042
0.236619
0.241134
0.245516
0.249806
0.253954
0.257997
0.2619
0.265711
0.269375
0.27296
0.276398
0.27975
0.282978
0.286136
0.289271
0.29246
0.370324
0.280829
0.224539
0.186282
0.158719
0.138026
0.121947
0.109096
0.098658
0.089932
0.0826413
0.0763597
0.0709741
0.0662805
0.0621274
0.0585226
0.0552373
0.0523954
0.0497783
0.0474879
0.0454139
0.0435553
0.0419472
0.0404809
0.0392903
0.0382331
0.0374358
0.0368598
0.0364956
0.0364947
0.0367024
0.0373607
0.0383113
0.0397369
0.0415816
0.0439182
0.0467716
0.0501564
0.0540996
0.0586407
0.0636862
0.0692627
0.0753032
0.0818118
0.0887081
0.0959607
0.103488
0.111234
0.119148
0.127164
0.135301
0.143352
0.151358
0.159293
0.167118
0.174828
0.182369
0.18976
0.196954
0.203973
0.210795
0.217431
0.22389
0.23016
0.236271
0.242255
0.248121
0.253835
0.259384
0.264782
0.269995
0.275076
0.279974
0.284759
0.289376
0.293881
0.298245
0.302503
0.306642
0.310688
0.314625
0.318477
0.322223
0.325884
0.329447
0.332909
0.336244
0.339481
0.34261
0.345648
0.348594
0.351468
0.354241
0.356962
0.359575
0.362142
0.364618
0.367063
0.369514
0.372039
0.370322
0.280835
0.224522
0.186242
0.158654
0.137934
0.121826
0.108958
0.0984994
0.0897762
0.0825082
0.0762656
0.0709928
0.0664021
0.0624784
0.059094
0.056193
0.0537816
0.0517431
0.050173
0.0489901
0.0482651
0.0480832
0.0483936
0.049393
0.0509898
0.0534105
0.0565845
0.0606477
0.0656299
0.0715322
0.0784234
0.0860219
0.0944578
0.103438
0.113004
0.122935
0.133234
0.1438
0.154572
0.165297
0.175915
0.186342
0.196533
0.206405
0.215952
0.225126
0.233956
0.242411
0.250543
0.258313
0.265842
0.273083
0.280025
0.286663
0.293024
0.299097
0.304936
0.310524
0.315919
0.321112
0.326141
0.331013
0.335732
0.340313
0.34474
0.349022
0.353112
0.357039
0.360828
0.364468
0.368005
0.371404
0.374722
0.3779
0.380994
0.383982
0.386895
0.389725
0.39249
0.395187
0.397833
0.40042
0.402964
0.405451
0.407897
0.410285
0.412617
0.414898
0.417121
0.419299
0.421434
0.423511
0.425564
0.427545
0.429515
0.431427
0.433341
0.435284
0.437325
0.370303
0.280795
0.224398
0.186083
0.158436
0.137696
0.121597
0.108819
0.0985605
0.0901568
0.083434
0.0779488
0.0737183
0.0703841
0.0681151
0.0666807
0.0663149
0.0668045
0.068383
0.0710003
0.0749179
0.0801573
0.0869559
0.0951403
0.10498
0.116
0.12824
0.14123
0.155057
0.169411
0.184264
0.198947
0.213197
0.227001
0.240165
0.252743
0.264647
0.275942
0.28657
0.296609
0.306076
0.314991
0.323343
0.331134
0.338415
0.345253
0.351703
0.357823
0.363646
0.369193
0.374477
0.379483
0.384187
0.388634
0.392845
0.396865
0.400683
0.404355
0.407857
0.411242
0.414492
0.417645
0.4207
0.423668
0.426567
0.429385
0.432145
0.434821
0.437424
0.439955
0.442406
0.444802
0.447121
0.449384
0.451537
0.453648
0.455688
0.457693
0.459646
0.461566
0.463448
0.465303
0.467128
0.468935
0.470713
0.472478
0.47422
0.475933
0.47763
0.479293
0.480943
0.482564
0.484161
0.485744
0.487287
0.488826
0.490342
0.491864
0.49344
0.495143
0.370192
0.280547
0.224223
0.186059
0.158706
0.138525
0.123425
0.112326
0.10442
0.0992787
0.0968448
0.0965605
0.0983832
0.101995
0.107643
0.115002
0.124348
0.135455
0.148577
0.163412
0.180301
0.198743
0.218283
0.238262
0.258316
0.277666
0.295848
0.312653
0.328145
0.342252
0.354972
0.366573
0.37708
0.386684
0.395443
0.403542
0.411028
0.417972
0.424397
0.430299
0.435688
0.440699
0.445269
0.449409
0.453225
0.456776
0.460115
0.463277
0.466298
0.469195
0.471991
0.474692
0.477293
0.479797
0.482204
0.484532
0.486764
0.488939
0.491025
0.493066
0.495035
0.496964
0.498844
0.500685
0.502499
0.504275
0.506038
0.507767
0.509479
0.511159
0.51281
0.514438
0.516028
0.51761
0.519144
0.520662
0.522133
0.523587
0.525003
0.526402
0.52778
0.529139
0.530483
0.531815
0.533137
0.53445
0.535759
0.537055
0.538353
0.539629
0.540912
0.542175
0.543437
0.544688
0.545926
0.547158
0.548398
0.549634
0.550928
0.552362
0.369471
0.281389
0.228607
0.193065
0.170703
0.155961
0.15011
0.150454
0.156551
0.167302
0.181632
0.198802
0.21843
0.23971
0.262359
0.285619
0.309403
0.333095
0.356934
0.380295
0.403293
0.423865
0.441739
0.45731
0.470502
0.482401
0.49251
0.501019
0.508355
0.514611
0.520102
0.524954
0.529221
0.53304
0.536422
0.539498
0.542293
0.544883
0.5473
0.549575
0.55172
0.553738
0.555669
0.557488
0.559192
0.560793
0.562302
0.563743
0.565123
0.566467
0.567778
0.569071
0.57035
0.571614
0.572861
0.574099
0.575309
0.576515
0.577689
0.578861
0.580002
0.581139
0.582257
0.583362
0.584467
0.585555
0.586653
0.587739
0.588836
0.58992
0.591015
0.592102
0.593187
0.594268
0.595331
0.596385
0.597412
0.59843
0.599427
0.600414
0.601395
0.602366
0.603336
0.604298
0.605263
0.606224
0.607192
0.608156
0.609134
0.610102
0.611088
0.612062
0.613049
0.614033
0.615011
0.616004
0.616988
0.618026
0.619072
0.620262
0.372188
0.315461
0.29282
0.279524
0.286381
0.295378
0.331459
0.373613
0.418616
0.463063
0.504555
0.541597
0.573482
0.599918
0.621228
0.637803
0.650551
0.660069
0.667417
0.673055
0.677633
0.681659
0.685124
0.688118
0.690606
0.692634
0.694341
0.695588
0.696486
0.696994
0.697262
0.697365
0.697337
0.697266
0.697113
0.696969
0.696795
0.696657
0.696536
0.696466
0.696436
0.696454
0.696523
0.696611
0.696699
0.696787
0.696865
0.69695
0.697036
0.697143
0.697268
0.697423
0.697614
0.697839
0.6981
0.698399
0.698723
0.699084
0.69946
0.699871
0.700288
0.700735
0.701192
0.701662
0.702158
0.702658
0.703192
0.703728
0.7043
0.704875
0.705482
0.706101
0.706737
0.707387
0.708046
0.708714
0.70938
0.710049
0.710715
0.711382
0.712052
0.712723
0.713403
0.714085
0.714779
0.715478
0.716189
0.716908
0.717644
0.718384
0.719144
0.719909
0.720688
0.721478
0.722263
0.723087
0.723856
0.72473
0.725535
0.72639
0.606743
0.839813
0.952198
0.969556
0.937534
0.881263
0.821356
0.769008
0.724416
0.688388
0.660679
0.640131
0.625396
0.614956
0.607664
0.602391
0.598512
0.595428
0.592917
0.590805
0.588977
0.587532
0.586341
0.585464
0.584754
0.584202
0.583768
0.583412
0.583089
0.582734
0.582335
0.581882
0.581385
0.580865
0.58031
0.579757
0.579187
0.578633
0.578086
0.577567
0.577072
0.576608
0.57618
0.575794
0.575441
0.575122
0.574828
0.574561
0.574312
0.574087
0.573881
0.573698
0.573541
0.573411
0.573308
0.573231
0.573183
0.573161
0.573168
0.573199
0.573257
0.573337
0.573444
0.57357
0.573718
0.573883
0.574074
0.57428
0.574512
0.574759
0.57503
0.575319
0.575626
0.575952
0.576295
0.576655
0.577029
0.577417
0.577815
0.578224
0.578642
0.579069
0.579505
0.579949
0.580404
0.580866
0.581338
0.581819
0.582313
0.582813
0.583326
0.583845
0.584383
0.584914
0.585484
0.586003
0.586564
0.587008
0.587305
0.587286
0.00772678
2.29655
2.88252
3.08547
3.23176
3.28885
3.26903
3.19979
3.09945
2.99229
2.88411
2.78099
2.68634
2.60101
2.52379
2.45286
2.38657
2.32324
2.26096
2.19951
2.13795
2.07602
2.01382
1.95169
1.88908
1.82677
1.76495
1.70448
1.64458
1.58573
1.52811
1.47229
1.41805
1.36537
1.31421
1.26453
1.21629
1.1694
1.12379
1.07937
1.03599
0.993553
0.951981
0.91122
0.871218
0.832014
0.793634
0.756152
0.719638
0.684292
0.650247
0.617698
0.586787
0.557738
0.530588
0.505475
0.48239
0.461404
0.442295
0.42503
0.409402
0.39537
0.382443
0.370402
0.358921
0.348223
0.337995
0.328181
0.318342
0.309035
0.300411
0.293076
0.28639
0.280509
0.275061
0.271083
0.26863
0.268134
0.268863
0.270434
0.272719
0.275277
0.278355
0.279948
0.280853
0.277985
0.27513
0.267527
0.263317
0.252913
0.250044
0.238024
0.237658
0.224232
0.22643
0.210525
0.214338
0.194745
0.197946
0.175073
0.354676
1.13194
2.06928
2.51614
2.74896
2.84798
2.85913
2.81061
2.72803
2.63364
2.53815
2.44959
2.37166
2.30424
2.24546
2.19337
2.14596
2.10142
2.05804
2.01497
1.97119
1.92615
1.87962
1.83176
1.78216
1.73142
1.67974
1.62817
1.5761
1.5241
1.47205
1.42075
1.37051
1.32138
1.27336
1.22642
1.1806
1.13579
1.09199
1.04911
1.00702
0.96567
0.925007
0.885016
0.845679
0.807067
0.769255
0.732342
0.69643
0.661744
0.62845
0.59675
0.566805
0.538841
0.512909
0.489121
0.467474
0.448006
0.430489
0.414816
0.400762
0.388235
0.376751
0.366024
0.355727
0.346027
0.336674
0.327585
0.318381
0.309551
0.301326
0.294277
0.287847
0.282054
0.276478
0.271965
0.26864
0.267012
0.26662
0.26723
0.268737
0.270663
0.273165
0.274366
0.274932
0.271987
0.26904
0.261622
0.257516
0.24746
0.244855
0.233207
0.233221
0.220014
0.222571
0.206727
0.210728
0.19116
0.194398
0.171587
0.551252
0.546406
1.02294
1.57964
1.97688
2.18955
2.2807
2.29146
2.2568
2.19828
2.13215
2.07004
2.01399
1.96586
1.92555
1.89179
1.86274
1.83657
1.81191
1.78733
1.76166
1.73425
1.70467
1.6727
1.63806
1.60118
1.56214
1.52196
1.48035
1.43766
1.39416
1.34969
1.3051
1.26091
1.21725
1.17414
1.1317
1.08987
1.04867
1.00804
0.967914
0.928269
0.889091
0.85041
0.812253
0.774729
0.737969
0.702102
0.667269
0.63372
0.601665
0.571305
0.542824
0.516445
0.492235
0.470274
0.450562
0.433097
0.417639
0.403994
0.391912
0.381235
0.371501
0.362345
0.353446
0.344904
0.336547
0.328274
0.319787
0.311506
0.303742
0.297016
0.290875
0.285188
0.27951
0.274459
0.270221
0.267333
0.265609
0.264969
0.265399
0.266409
0.268082
0.268667
0.268715
0.265561
0.262452
0.2552
0.25122
0.241583
0.239326
0.228161
0.228656
0.215771
0.218761
0.203049
0.207261
0.187766
0.191032
0.168315
0.530972
0.495108
0.560339
0.767784
1.07047
1.34235
1.52367
1.61864
1.6565
1.65929
1.64334
1.62314
1.60107
1.58103
1.56504
1.55331
1.5446
1.53781
1.53105
1.52379
1.5152
1.50473
1.49192
1.476
1.45696
1.435
1.41023
1.38328
1.3542
1.32278
1.29038
1.255
1.21804
1.18053
1.1427
1.10475
1.0669
1.02915
0.99153
0.954051
0.916728
0.879559
0.842607
0.805943
0.769646
0.733869
0.69881
0.664633
0.631521
0.599754
0.569589
0.541222
0.514863
0.490724
0.468888
0.449393
0.432243
0.41738
0.404543
0.393429
0.383759
0.375302
0.367622
0.360276
0.352956
0.34569
0.338406
0.330992
0.323265
0.315567
0.308304
0.301915
0.296068
0.290478
0.284698
0.279096
0.273911
0.269655
0.266406
0.264222
0.263242
0.262999
0.263537
0.263217
0.262515
0.258964
0.255599
0.248465
0.244639
0.235491
0.233687
0.223131
0.224221
0.211779
0.215275
0.19978
0.20422
0.184853
0.188129
0.165538
0.472729
0.46333
0.459856
0.486903
0.556871
0.666665
0.788474
0.897407
0.980051
1.03748
1.07368
1.0997
1.11914
1.13545
1.15074
1.16642
1.18202
1.19783
1.21163
1.22354
1.23321
1.24025
1.2443
1.24493
1.24207
1.23564
1.22594
1.2131
1.19729
1.17797
1.15741
1.13291
1.10576
1.07695
1.04674
1.01555
0.983785
0.951439
0.918609
0.885402
0.851908
0.818187
0.784393
0.750642
0.717078
0.683905
0.651395
0.619747
0.589196
0.560054
0.532623
0.507093
0.483695
0.462621
0.443972
0.427727
0.413885
0.402311
0.39271
0.384645
0.377811
0.371893
0.366502
0.361118
0.355463
0.349494
0.343264
0.336664
0.329662
0.322525
0.31575
0.30967
0.30408
0.298533
0.292612
0.286421
0.280252
0.274532
0.269595
0.265593
0.262864
0.260992
0.26005
0.258481
0.256764
0.252584
0.248858
0.241778
0.238157
0.229571
0.228351
0.218536
0.220345
0.208475
0.212545
0.197362
0.202032
0.182855
0.186113
0.16369
0.410954
0.41142
0.406212
0.402189
0.403454
0.41413
0.431421
0.455599
0.483046
0.514695
0.547143
0.581794
0.617925
0.655422
0.693483
0.732219
0.770667
0.80887
0.84508
0.878529
0.908718
0.935217
0.957585
0.976091
0.990477
1.00033
1.00613
1.00744
1.00543
0.999173
0.99096
0.979067
0.963986
0.946159
0.925613
0.903135
0.879314
0.854022
0.8275
0.799997
0.771691
0.742723
0.71333
0.6837
0.654049
0.624642
0.595824
0.567833
0.540968
0.515566
0.491975
0.470369
0.451001
0.434025
0.419552
0.407479
0.397785
0.390226
0.384455
0.379886
0.376194
0.372991
0.369957
0.366507
0.362426
0.357608
0.35226
0.346294
0.339869
0.333177
0.326804
0.320945
0.315518
0.309912
0.303768
0.296917
0.289708
0.282445
0.275687
0.269635
0.264854
0.26098
0.258201
0.255016
0.25201
0.246949
0.242776
0.235692
0.232373
0.224434
0.223963
0.215024
0.217665
0.206493
0.211179
0.196403
0.201279
0.182354
0.185549
0.163348
0.34351
0.346003
0.344337
0.338868
0.330659
0.321857
0.3124
0.30335
0.294396
0.287318
0.282229
0.281293
0.285796
0.297244
0.316244
0.343026
0.37686
0.416736
0.460694
0.506301
0.551567
0.594861
0.63488
0.670792
0.702491
0.729063
0.751035
0.767276
0.780038
0.788138
0.793161
0.794387
0.792041
0.786222
0.77726
0.765675
0.751922
0.735524
0.717097
0.697049
0.675648
0.65311
0.629751
0.605829
0.581649
0.557525
0.53388
0.510998
0.489252
0.468989
0.450601
0.434244
0.420171
0.408477
0.39926
0.392305
0.387549
0.384601
0.383039
0.382134
0.381583
0.380952
0.380025
0.37818
0.375297
0.371236
0.366383
0.360698
0.354556
0.348078
0.34193
0.336131
0.330711
0.324896
0.31841
0.310807
0.302495
0.293627
0.284965
0.2767
0.269645
0.263457
0.258538
0.253396
0.248876
0.242719
0.238083
0.230991
0.228152
0.220982
0.221446
0.213508
0.217052
0.206685
0.211964
0.197676
0.202688
0.184069
0.187137
0.165233
0.263159
0.267141
0.268059
0.264882
0.257945
0.248266
0.236587
0.223922
0.210931
0.19875
0.18771
0.178738
0.172306
0.168752
0.168783
0.172599
0.181048
0.194514
0.213828
0.238666
0.268985
0.303438
0.340707
0.379068
0.417478
0.453779
0.487655
0.517243
0.543254
0.564773
0.582504
0.596207
0.606132
0.611902
0.614247
0.613353
0.60953
0.602963
0.593974
0.582879
0.569962
0.555457
0.539738
0.523126
0.506
0.488716
0.471773
0.455502
0.44034
0.426628
0.414793
0.404948
0.397335
0.391943
0.388805
0.387564
0.388069
0.389759
0.392162
0.394468
0.396468
0.397737
0.398185
0.397201
0.394787
0.390801
0.385827
0.379897
0.373612
0.36702
0.360837
0.35488
0.349278
0.3431
0.336151
0.327722
0.318283
0.307796
0.297218
0.286688
0.277283
0.26862
0.261403
0.254085
0.247959
0.240621
0.235669
0.2287
0.226645
0.220422
0.221991
0.215148
0.219564
0.210062
0.215796
0.202039
0.207049
0.188772
0.191629
0.17012
0.175727
0.179333
0.181382
0.180556
0.176837
0.170892
0.163665
0.156244
0.149662
0.144673
0.14169
0.140859
0.142086
0.14497
0.14929
0.154528
0.160669
0.167523
0.175475
0.184469
0.195422
0.208112
0.223972
0.24237
0.263393
0.286242
0.310769
0.335588
0.360274
0.383699
0.405401
0.424668
0.441131
0.454525
0.464853
0.472103
0.476276
0.478291
0.478105
0.47578
0.471501
0.465425
0.457928
0.449347
0.4401
0.430528
0.421187
0.412441
0.404777
0.398498
0.394009
0.391343
0.390668
0.391793
0.394627
0.398648
0.403635
0.408903
0.414015
0.418205
0.421433
0.423336
0.423961
0.422731
0.419783
0.414993
0.409156
0.402391
0.395499
0.38845
0.381951
0.375633
0.3697
0.363074
0.355619
0.346385
0.335877
0.32386
0.311477
0.298807
0.2872
0.276139
0.266707
0.257242
0.249677
0.241342
0.2365
0.23004
0.229201
0.224141
0.226871
0.221141
0.226223
0.217574
0.223452
0.210212
0.215
0.197075
0.199635
0.178625
0.104556
0.108384
0.111862
0.114582
0.116642
0.118584
0.121137
0.124986
0.130572
0.138006
0.147091
0.157409
0.168482
0.179703
0.190679
0.201077
0.210771
0.219721
0.228049
0.23574
0.243091
0.250209
0.257266
0.264605
0.27251
0.281146
0.290743
0.301152
0.312404
0.324298
0.336513
0.348715
0.360258
0.371038
0.380858
0.389477
0.396549
0.40209
0.406133
0.40869
0.409844
0.409613
0.408289
0.406133
0.40349
0.400621
0.39807
0.39618
0.395404
0.395921
0.39802
0.401583
0.406622
0.412725
0.419666
0.426835
0.434019
0.440553
0.446142
0.450181
0.452834
0.45382
0.45328
0.450643
0.446178
0.439792
0.432474
0.424454
0.416648
0.408914
0.401941
0.395206
0.38895
0.38196
0.374121
0.364271
0.35291
0.339631
0.325767
0.311361
0.297999
0.284958
0.273746
0.262554
0.254114
0.245442
0.241516
0.236241
0.237055
0.233278
0.236973
0.232231
0.237534
0.229641
0.23515
0.222371
0.226638
0.209081
0.211279
0.190864
0.119042
0.123496
0.128355
0.134253
0.141582
0.150627
0.161464
0.174051
0.188011
0.202995
0.218401
0.23371
0.24825
0.261725
0.274053
0.285208
0.295213
0.304138
0.312195
0.31956
0.326428
0.332739
0.338634
0.344209
0.349554
0.354836
0.359999
0.364984
0.369868
0.374735
0.379534
0.384314
0.388887
0.393327
0.397327
0.400845
0.403901
0.406384
0.408294
0.409654
0.410508
0.410814
0.410819
0.41068
0.410614
0.410767
0.411605
0.413374
0.416391
0.420653
0.426247
0.432824
0.440159
0.447694
0.455198
0.462135
0.468401
0.473463
0.477236
0.479305
0.479977
0.478993
0.476492
0.471849
0.465432
0.457238
0.448387
0.439161
0.430531
0.422247
0.414969
0.408065
0.401758
0.394733
0.386857
0.376804
0.365041
0.351071
0.336431
0.321149
0.30692
0.292813
0.280747
0.268837
0.260659
0.252918
0.25093
0.247494
0.249932
0.247149
0.251238
0.247112
0.252007
0.244647
0.24919
0.236842
0.240283
0.223201
0.225
0.20526
0.205069
0.209209
0.213995
0.220351
0.228762
0.239253
0.251625
0.265441
0.28016
0.295126
0.30977
0.32367
0.336536
0.348287
0.358979
0.368623
0.37749
0.385578
0.39308
0.400085
0.406704
0.412912
0.418758
0.424166
0.429192
0.433713
0.437841
0.441532
0.444763
0.447533
0.449818
0.451625
0.452905
0.453819
0.453946
0.453447
0.452612
0.451329
0.449718
0.447924
0.446044
0.444121
0.442473
0.441229
0.440545
0.440558
0.441671
0.44399
0.447652
0.452473
0.458295
0.464502
0.470765
0.476611
0.481936
0.486367
0.489945
0.492292
0.493482
0.493227
0.491857
0.489023
0.484798
0.478507
0.470541
0.461059
0.451268
0.441437
0.432509
0.424182
0.417053
0.410425
0.404475
0.397838
0.390336
0.380553
0.368941
0.355039
0.340585
0.325533
0.311548
0.297546
0.285784
0.274535
0.268018
0.262473
0.262867
0.261121
0.264331
0.261851
0.265655
0.261675
0.265718
0.258644
0.261898
0.250092
0.252533
0.236172
0.237565
0.218605
0.295805
0.299263
0.303487
0.309312
0.317101
0.326769
0.337997
0.350312
0.363169
0.375941
0.388189
0.399703
0.410375
0.420289
0.429497
0.438108
0.446258
0.453982
0.461348
0.46832
0.474859
0.480882
0.486363
0.491178
0.49535
0.498755
0.501462
0.503398