/*--------------------------------*- C++ -*----------------------------------*\
| =========                 |                                                 |
| \\      /  F ield         | OpenFOAM: The Open Source CFD Toolbox           |
|  \\    /   O peration     | Version:  v2012                                 |
|   \\  /    A nd           | Website:  www.openfoam.com                      |
|    \\/     M anipulation  |                                                 |
\*---------------------------------------------------------------------------*/
FoamFile
{
    version     2.0;
    format      ascii;
    class       volVectorField;
    location    "0.282";
    object      U.air;
}
// * * * * * * * * * * * * * * * * * * * * * * * * * * * * * * * * * * * * * //

dimensions      [0 1 -1 0 0 0 0];


internalField   nonuniform List<vector> 
5600
(
(9.20613 0.00896217 0)
(8.83521 0.017248 0)
(8.45626 0.0174912 0)
(8.07867 0.0144893 0)
(7.73112 0.00998306 0)
(7.42051 0.00526738 0)
(7.15486 0.0008576 0)
(6.93564 -0.00267071 0)
(6.75375 -0.00525028 0)
(6.6055 -0.00717238 0)
(6.48882 -0.00847193 0)
(6.3963 -0.00921714 0)
(6.32535 -0.00951592 0)
(6.26874 -0.00946657 0)
(6.22526 -0.00919559 0)
(6.18923 -0.00879003 0)
(6.16074 -0.00834148 0)
(6.13585 -0.00787953 0)
(6.11559 -0.00748086 0)
(6.09691 -0.00722024 0)
(6.08202 -0.00699303 0)
(6.06785 -0.00680919 0)
(6.05726 -0.00671237 0)
(6.0474 -0.00661936 0)
(6.04032 -0.00651713 0)
(6.03363 -0.00638351 0)
(6.02882 -0.00626559 0)
(6.02423 -0.00613876 0)
(6.0208 -0.00601948 0)
(6.01725 -0.00588103 0)
(6.01421 -0.0057513 0)
(6.01083 -0.00561747 0)
(6.00773 -0.0055216 0)
(6.00431 -0.0054494 0)
(6.00123 -0.00538513 0)
(5.99787 -0.00533057 0)
(5.99488 -0.0052788 0)
(5.99165 -0.00523251 0)
(5.98885 -0.00518711 0)
(5.9858 -0.00514595 0)
(5.98327 -0.00510446 0)
(5.9805 -0.00506349 0)
(5.97828 -0.00502007 0)
(5.9758 -0.00498803 0)
(5.97397 -0.00495648 0)
(5.97191 -0.00493997 0)
(5.97045 -0.00493103 0)
(5.96872 -0.00493072 0)
(5.96764 -0.00492501 0)
(5.96609 -0.00491996 0)
(5.96522 -0.00492484 0)
(5.96401 -0.00493618 0)
(5.9633 -0.00493436 0)
(5.96225 -0.00493879 0)
(5.96179 -0.00495231 0)
(5.96097 -0.00498827 0)
(5.96077 -0.00501018 0)
(5.96019 -0.00504524 0)
(5.96019 -0.0050795 0)
(5.95996 -0.00511916 0)
(5.96016 -0.00513919 0)
(5.96012 -0.00516936 0)
(5.9606 -0.00519491 0)
(5.96073 -0.00522593 0)
(5.96145 -0.00524876 0)
(5.96178 -0.00527899 0)
(5.96274 -0.00529541 0)
(5.96324 -0.00532264 0)
(5.96443 -0.00533495 0)
(5.96507 -0.00535754 0)
(5.9665 -0.00537118 0)
(5.96728 -0.00539295 0)
(5.96896 -0.00540472 0)
(5.96986 -0.00542356 0)
(5.97177 -0.00543526 0)
(5.97278 -0.0054518 0)
(5.97493 -0.00546282 0)
(5.97604 -0.00547662 0)
(5.97841 -0.00548606 0)
(5.97961 -0.00549763 0)
(5.98219 -0.00550583 0)
(5.98345 -0.00551182 0)
(5.98617 -0.00552211 0)
(5.98754 -0.00552035 0)
(5.99029 -0.00553499 0)
(5.99186 -0.00552473 0)
(5.99449 -0.00555383 0)
(5.99647 -0.00552479 0)
(5.9987 -0.00560195 0)
(6.00184 -0.00553244 0)
(6.00298 -0.00563508 0)
(6.00772 -0.00551671 0)
(6.00704 -0.00565596 0)
(6.0139 -0.00545058 0)
(6.01032 -0.00577517 0)
(6.02194 -0.00540226 0)
(6.013 -0.00593415 0)
(6.03324 -0.00659148 0)
(6.03768 -0.00351827 0)
(5.96899 -0.0150375 0)
(9.39288 0.0365654 0)
(9.38798 0.038183 0)
(9.35655 0.0375797 0)
(9.29944 0.0376118 0)
(9.22385 0.0368815 0)
(9.13559 0.0351002 0)
(9.03685 0.032584 0)
(8.93105 0.0296849 0)
(8.82344 0.0268074 0)
(8.71563 0.0238892 0)
(8.61183 0.0210238 0)
(8.51212 0.0184207 0)
(8.41945 0.0161291 0)
(8.33285 0.0141309 0)
(8.25445 0.0124444 0)
(8.18254 0.0110458 0)
(8.11865 0.00988826 0)
(8.0606 0.00894159 0)
(8.0098 0.00813551 0)
(7.96417 0.00738332 0)
(7.92511 0.0067364 0)
(7.89047 0.00616151 0)
(7.86078 0.00568241 0)
(7.83317 0.00527316 0)
(7.80932 0.0048823 0)
(7.78719 0.00452823 0)
(7.76802 0.00420845 0)
(7.74938 0.00394514 0)
(7.7329 0.00371069 0)
(7.71656 0.00351921 0)
(7.70236 0.0033528 0)
(7.6881 0.0032024 0)
(7.67592 0.00309828 0)
(7.66375 0.00301246 0)
(7.65336 0.00293936 0)
(7.64295 0.00286323 0)
(7.63404 0.00279396 0)
(7.62507 0.00272124 0)
(7.61742 0.00265419 0)
(7.60968 0.0025797 0)
(7.60314 0.0025063 0)
(7.59651 0.00243017 0)
(7.59093 0.00235408 0)
(7.58529 0.00226313 0)
(7.58054 0.00217652 0)
(7.57571 0.00210893 0)
(7.5716 0.00206158 0)
(7.56737 0.00201373 0)
(7.56383 0.00197445 0)
(7.56013 0.0019478 0)
(7.55709 0.00192604 0)
(7.5539 0.00190338 0)
(7.55133 0.00188409 0)
(7.54861 0.00185827 0)
(7.54652 0.00185037 0)
(7.54427 0.00185531 0)
(7.54264 0.00185969 0)
(7.54083 0.00186739 0)
(7.53962 0.00187229 0)
(7.53823 0.00188711 0)
(7.53742 0.00189261 0)
(7.53642 0.00189324 0)
(7.53598 0.00190133 0)
(7.53533 0.00190838 0)
(7.5352 0.00191345 0)
(7.53495 0.00191677 0)
(7.53507 0.00191823 0)
(7.53512 0.00191767 0)
(7.53552 0.00191936 0)
(7.53587 0.0019149 0)
(7.53657 0.00191489 0)
(7.53717 0.00190996 0)
(7.53817 0.00190988 0)
(7.539 0.00190682 0)
(7.54029 0.00190187 0)
(7.54134 0.0018989 0)
(7.54291 0.00189361 0)
(7.54413 0.00189077 0)
(7.54596 0.00188307 0)
(7.54731 0.00188088 0)
(7.54941 0.00187279 0)
(7.55083 0.00187338 0)
(7.55322 0.00186285 0)
(7.55465 0.0018675 0)
(7.55737 0.00185422 0)
(7.55871 0.00186186 0)
(7.56191 0.00184248 0)
(7.56299 0.00185766 0)
(7.56693 0.00181638 0)
(7.56747 0.00185318 0)
(7.57238 0.00180295 0)
(7.57201 0.00184777 0)
(7.5783 0.00180233 0)
(7.57621 0.00185904 0)
(7.58561 0.00175107 0)
(7.57948 0.0018534 0)
(7.59675 0.0016039 0)
(7.58131 0.00120047 0)
(7.61873 0.00385998 0)
(7.57058 -0.0141321 0)
(9.40084 0.0229768 0)
(9.42976 0.0304775 0)
(9.46065 0.0319723 0)
(9.47758 0.0330048 0)
(9.48903 0.0320239 0)
(9.48978 0.0301433 0)
(9.4838 0.0271918 0)
(9.46898 0.0241356 0)
(9.44573 0.0213514 0)
(9.41434 0.0186676 0)
(9.37568 0.0161985 0)
(9.33019 0.013905 0)
(9.27898 0.0119653 0)
(9.22316 0.0102914 0)
(9.16434 0.00881686 0)
(9.10375 0.00751438 0)
(9.04312 0.00633641 0)
(8.98266 0.00525515 0)
(8.92529 0.00424849 0)
(8.86982 0.00329184 0)
(8.81887 0.00241445 0)
(8.77065 0.00160072 0)
(8.72743 0.000900047 0)
(8.68719 0.000340363 0)
(8.65129 -0.00015511 0)
(8.61784 -0.000542832 0)
(8.58813 -0.000825243 0)
(8.55971 -0.0010045 0)
(8.53458 -0.00115143 0)
(8.51028 -0.00126614 0)
(8.48926 -0.00136886 0)
(8.46864 -0.00146579 0)
(8.45105 -0.00155659 0)
(8.43368 -0.00163486 0)
(8.41878 -0.00170846 0)
(8.40399 -0.00177529 0)
(8.39129 -0.00183435 0)
(8.37861 -0.00188758 0)
(8.36779 -0.00193235 0)
(8.35693 -0.00197465 0)
(8.34772 -0.00201038 0)
(8.33847 -0.00203455 0)
(8.33063 -0.00205108 0)
(8.32277 -0.00205793 0)
(8.31592 -0.00205615 0)
(8.30895 -0.00207822 0)
(8.3029 -0.00210511 0)
(8.29674 -0.002137 0)
(8.29148 -0.0021607 0)
(8.28609 -0.00217707 0)
(8.28156 -0.00218791 0)
(8.27691 -0.00220088 0)
(8.27306 -0.00220863 0)
(8.26909 -0.00221704 0)
(8.2659 -0.00224977 0)
(8.26259 -0.00230407 0)
(8.26 -0.00234443 0)
(8.25728 -0.00239643 0)
(8.25523 -0.00245171 0)
(8.25304 -0.00250973 0)
(8.25149 -0.00254896 0)
(8.24978 -0.0025957 0)
(8.24868 -0.00263915 0)
(8.24741 -0.00268917 0)
(8.2467 -0.00273041 0)
(8.24583 -0.00277263 0)
(8.24549 -0.00280158 0)
(8.245 -0.00284192 0)
(8.24499 -0.00286927 0)
(8.24493 -0.00290467 0)
(8.24518 -0.00293053 0)
(8.24545 -0.00296425 0)
(8.24604 -0.00298884 0)
(8.24662 -0.00301982 0)
(8.24753 -0.00304145 0)
(8.24838 -0.00307003 0)
(8.2496 -0.00308942 0)
(8.25064 -0.00311321 0)
(8.25212 -0.00312774 0)
(8.25332 -0.00315074 0)
(8.25507 -0.0031614 0)
(8.25639 -0.0031818 0)
(8.25843 -0.00319006 0)
(8.25982 -0.00320985 0)
(8.2622 -0.00321209 0)
(8.26356 -0.00324027 0)
(8.26643 -0.00323725 0)
(8.26762 -0.00327341 0)
(8.27118 -0.00327328 0)
(8.27191 -0.00330423 0)
(8.27642 -0.00329575 0)
(8.27639 -0.00332243 0)
(8.28197 -0.00329346 0)
(8.28091 -0.00336666 0)
(8.28851 -0.00332597 0)
(8.28528 -0.00354263 0)
(8.29741 -0.0034392 0)
(8.28941 -0.00457377 0)
(8.31502 -0.00262813 0)
(8.30256 -0.0165725 0)
(9.39959 0.0218057 0)
(9.43087 0.0295965 0)
(9.46776 0.0303167 0)
(9.49958 0.031322 0)
(9.52899 0.0312207 0)
(9.55576 0.030045 0)
(9.57996 0.0284858 0)
(9.59936 0.0269505 0)
(9.61511 0.025519 0)
(9.62563 0.024176 0)
(9.63329 0.0227088 0)
(9.63467 0.0216984 0)
(9.63264 0.0205994 0)
(9.62644 0.019608 0)
(9.61587 0.0186989 0)
(9.60084 0.0178236 0)
(9.58142 0.0169765 0)
(9.55749 0.0160867 0)
(9.52935 0.015142 0)
(9.49712 0.0141375 0)
(9.46139 0.013074 0)
(9.42255 0.0120394 0)
(9.3821 0.0110442 0)
(9.34074 0.0101143 0)
(9.30016 0.00922726 0)
(9.25991 0.00839997 0)
(9.22228 0.00768208 0)
(9.18611 0.00705493 0)
(9.15347 0.00649413 0)
(9.12221 0.00599113 0)
(9.09448 0.0055518 0)
(9.06778 0.00516557 0)
(9.04413 0.00480849 0)
(9.02067 0.00450099 0)
(8.99998 0.00421715 0)
(8.97947 0.00395992 0)
(8.96153 0.00372205 0)
(8.94368 0.00349964 0)
(8.92828 0.00329246 0)
(8.91287 0.00309772 0)
(8.89969 0.00290668 0)
(8.88657 0.00273473 0)
(8.87528 0.00256504 0)
(8.86398 0.00242063 0)
(8.85421 0.00229646 0)
(8.8444 0.00215698 0)
(8.83592 0.0020193 0)
(8.82737 0.00187894 0)
(8.82004 0.0017497 0)
(8.8126 0.00161972 0)
(8.8063 0.00148991 0)
(8.79989 0.00135574 0)
(8.79453 0.00122989 0)
(8.78905 0.00109637 0)
(8.78454 0.000957432 0)
(8.77994 0.000829775 0)
(8.7762 0.000725383 0)
(8.77233 0.000622276 0)
(8.76925 0.000542544 0)
(8.76602 0.000461978 0)
(8.76353 0.000384947 0)
(8.76088 0.000306495 0)
(8.75891 0.000251798 0)
(8.75678 0.000196319 0)
(8.75529 0.000140792 0)
(8.75363 8.30213e-05 0)
(8.75258 2.99244e-05 0)
(8.75136 -2.80976e-05 0)
(8.75073 -8.16528e-05 0)
(8.74998 -0.000136653 0)
(8.74973 -0.000181881 0)
(8.74942 -0.000243213 0)
(8.7495 -0.000284893 0)
(8.7496 -0.000336667 0)
(8.74998 -0.000385386 0)
(8.75043 -0.000430902 0)
(8.75108 -0.000469032 0)
(8.75175 -0.000508792 0)
(8.75265 -0.000546185 0)
(8.75353 -0.000583088 0)
(8.75469 -0.000616493 0)
(8.75578 -0.000649106 0)
(8.75721 -0.00068098 0)
(8.75851 -0.000712021 0)
(8.76019 -0.00073411 0)
(8.76168 -0.000779737 0)
(8.76364 -0.000794433 0)
(8.76531 -0.000850207 0)
(8.76756 -0.000867741 0)
(8.76937 -0.00091645 0)
(8.77185 -0.000918792 0)
(8.77387 -0.000963699 0)
(8.77648 -0.000933926 0)
(8.77883 -0.00105013 0)
(8.78154 -0.00100329 0)
(8.7844 -0.00133498 0)
(8.78764 -0.00119714 0)
(8.79133 -0.00295823 0)
(8.79898 -0.000258661 0)
(8.80991 -0.0180201 0)
(9.39776 0.0183329 0)
(9.42815 0.0258254 0)
(9.4648 0.0260933 0)
(9.49909 0.0271377 0)
(9.53084 0.0271932 0)
(9.56257 0.0262831 0)
(9.59272 0.0248783 0)
(9.62076 0.0232764 0)
(9.64585 0.0217809 0)
(9.66903 0.0202662 0)
(9.68982 0.0189413 0)
(9.70856 0.0176978 0)
(9.72512 0.0166358 0)
(9.73986 0.0157916 0)
(9.75266 0.0151293 0)
(9.76366 0.0145969 0)
(9.77276 0.0141768 0)
(9.7797 0.0138027 0)
(9.78467 0.0134444 0)
(9.78666 0.0130567 0)
(9.78584 0.0127776 0)
(9.78226 0.0123639 0)
(9.77543 0.0118939 0)
(9.76519 0.0113872 0)
(9.75161 0.0108339 0)
(9.73463 0.0102273 0)
(9.7148 0.00960329 0)
(9.69248 0.00895704 0)
(9.66844 0.00831016 0)
(9.64299 0.00763177 0)
(9.61691 0.00699849 0)
(9.59017 0.00638206 0)
(9.56425 0.00581106 0)
(9.53816 0.00529067 0)
(9.51389 0.00480455 0)
(9.48956 0.00433575 0)
(9.46751 0.0039026 0)
(9.44542 0.00347984 0)
(9.42578 0.00308967 0)
(9.4061 0.00271497 0)
(9.38882 0.00234999 0)
(9.37149 0.00204962 0)
(9.35585 0.00176024 0)
(9.34013 0.00149442 0)
(9.32628 0.00124494 0)
(9.31242 0.00102705 0)
(9.30033 0.000835406 0)
(9.28821 0.000649815 0)
(9.2777 0.000478354 0)
(9.26712 0.000313136 0)
(9.25804 0.000155297 0)
(9.24889 -2.56583e-06 0)
(9.24109 -0.000157587 0)
(9.23323 -0.000322959 0)
(9.22654 -0.000455993 0)
(9.21977 -0.000555675 0)
(9.21401 -0.00063559 0)
(9.20813 -0.000711042 0)
(9.20315 -0.000750911 0)
(9.19806 -0.0007923 0)
(9.1938 -0.000824256 0)
(9.18945 -0.000877546 0)
(9.18584 -0.000952613 0)
(9.18215 -0.00103084 0)
(9.17915 -0.00109567 0)
(9.17609 -0.00116192 0)
(9.17367 -0.00121497 0)
(9.1712 -0.00128362 0)
(9.16932 -0.00134558 0)
(9.16745 -0.00140756 0)
(9.16605 -0.00146648 0)
(9.16474 -0.00152327 0)
(9.16375 -0.00157879 0)
(9.16291 -0.00163177 0)
(9.16229 -0.00168143 0)
(9.16189 -0.00172945 0)
(9.1616 -0.001771 0)
(9.16158 -0.00180907 0)
(9.16165 -0.00184358 0)
(9.16192 -0.00188521 0)
(9.16227 -0.00191745 0)
(9.16288 -0.00195677 0)
(9.1635 -0.00198797 0)
(9.16448 -0.00202601 0)
(9.16531 -0.00205322 0)
(9.16669 -0.00209595 0)
(9.16764 -0.00212064 0)
(9.16948 -0.00217194 0)
(9.17047 -0.00219577 0)
(9.17282 -0.00223602 0)
(9.17375 -0.00225412 0)
(9.17669 -0.00229045 0)
(9.1775 -0.00229226 0)
(9.18106 -0.00237793 0)
(9.18183 -0.00238093 0)
(9.18584 -0.00264308 0)
(9.18732 -0.00265425 0)
(9.19175 -0.00408694 0)
(9.19618 -0.0036338 0)
(9.20612 -0.0177257 0)
(9.39591 0.0145832 0)
(9.42525 0.0219444 0)
(9.46133 0.0220192 0)
(9.49604 0.0229232 0)
(9.52803 0.0230202 0)
(9.56031 0.0222496 0)
(9.59126 0.0210489 0)
(9.62087 0.0197273 0)
(9.64772 0.0185427 0)
(9.67359 0.0174173 0)
(9.69729 0.0164036 0)
(9.72007 0.015574 0)
(9.74103 0.0148817 0)
(9.7614 0.0143319 0)
(9.78019 0.0139142 0)
(9.79877 0.0135733 0)
(9.81586 0.0133153 0)
(9.83296 0.0130669 0)
(9.84852 0.0128512 0)
(9.86397 0.0126569 0)
(9.87792 0.0124005 0)
(9.89124 0.0121276 0)
(9.90327 0.0118801 0)
(9.9141 0.0116585 0)
(9.92368 0.011452 0)
(9.93163 0.0112463 0)
(9.93802 0.0110423 0)
(9.94234 0.0108402 0)
(9.94503 0.0105814 0)
(9.94492 0.010399 0)
(9.94293 0.0101275 0)
(9.93881 0.00980977 0)
(9.93253 0.00948235 0)
(9.92435 0.00911802 0)
(9.91437 0.00871992 0)
(9.90277 0.0082966 0)
(9.88983 0.00785686 0)
(9.87568 0.00741318 0)
(9.86072 0.00695267 0)
(9.84504 0.00651873 0)
(9.82908 0.0060525 0)
(9.81279 0.00563049 0)
(9.79687 0.00524705 0)
(9.78073 0.00488457 0)
(9.76549 0.00454178 0)
(9.75008 0.00421065 0)
(9.73592 0.00389644 0)
(9.72163 0.00358912 0)
(9.70875 0.00330581 0)
(9.69577 0.00303753 0)
(9.68421 0.00278646 0)
(9.67258 0.00255133 0)
(9.66228 0.00233857 0)
(9.65187 0.00216398 0)
(9.64237 0.00198517 0)
(9.6328 0.00179188 0)
(9.6242 0.00161925 0)
(9.61556 0.00144516 0)
(9.60784 0.00126375 0)
(9.60012 0.00108991 0)
(9.59325 0.000945782 0)
(9.58649 0.000781851 0)
(9.58043 0.000589157 0)
(9.57456 0.000397991 0)
(9.56928 0.000223029 0)
(9.56428 5.6049e-05 0)
(9.55974 -0.000103885 0)
(9.55556 -0.000242503 0)
(9.55167 -0.000377491 0)
(9.54822 -0.000504174 0)
(9.54489 -0.000629546 0)
(9.54206 -0.000745054 0)
(9.53923 -0.000856112 0)
(9.53692 -0.000953602 0)
(9.53455 -0.00105772 0)
(9.53275 -0.00114469 0)
(9.53084 -0.00123074 0)
(9.52958 -0.00131415 0)
(9.52813 -0.00139219 0)
(9.52735 -0.00146017 0)
(9.52629 -0.00153734 0)
(9.52597 -0.00159824 0)
(9.52532 -0.00167924 0)
(9.5254 -0.00173047 0)
(9.52517 -0.00179506 0)
(9.5257 -0.00187168 0)
(9.52565 -0.00191858 0)
(9.52671 -0.00200053 0)
(9.52682 -0.00204985 0)
(9.52836 -0.00211548 0)
(9.52864 -0.00216303 0)
(9.53065 -0.00221984 0)
(9.53115 -0.0022524 0)
(9.5335 -0.00235325 0)
(9.53439 -0.00239372 0)
(9.53686 -0.0026949 0)
(9.53873 -0.00281702 0)
(9.54173 -0.00436756 0)
(9.54596 -0.00441099 0)
(9.55226 -0.0168064 0)
(9.39499 0.0113279 0)
(9.42269 0.0175951 0)
(9.45807 0.0174988 0)
(9.49305 0.0182209 0)
(9.52495 0.018363 0)
(9.55708 0.0177335 0)
(9.58818 0.0167527 0)
(9.61789 0.0156961 0)
(9.64511 0.0147418 0)
(9.67133 0.0138384 0)
(9.69564 0.0130106 0)
(9.71907 0.0123287 0)
(9.74096 0.011722 0)
(9.76234 0.0112222 0)
(9.78253 0.0108308 0)
(9.80257 0.0105177 0)
(9.82169 0.0102773 0)
(9.84082 0.0100658 0)
(9.85913 0.00989265 0)
(9.87745 0.00972396 0)
(9.89497 0.00957058 0)
(9.91249 0.00940037 0)
(9.92916 0.00925567 0)
(9.94584 0.00912514 0)
(9.96166 0.00901125 0)
(9.97755 0.00889337 0)
(9.99242 0.00879527 0)
(10.0074 0.00869103 0)
(10.0212 0.00863359 0)
(10.0351 0.00855183 0)
(10.0475 0.00845921 0)
(10.06 0.00835778 0)
(10.0706 0.00826989 0)
(10.0814 0.00816221 0)
(10.0899 0.00805606 0)
(10.0985 0.00792164 0)
(10.1046 0.00779112 0)
(10.1106 0.00761808 0)
(10.114 0.00745633 0)
(10.1171 0.00722511 0)
(10.1177 0.00700471 0)
(10.1172 0.00684305 0)
(10.1155 0.00660914 0)
(10.1127 0.00634273 0)
(10.1086 0.00606197 0)
(10.1035 0.00576574 0)
(10.0974 0.00545871 0)
(10.0905 0.00514214 0)
(10.0829 0.00481672 0)
(10.0746 0.00449397 0)
(10.0659 0.00415827 0)
(10.0569 0.00383183 0)
(10.0477 0.00348824 0)
(10.0384 0.0031814 0)
(10.0292 0.00288194 0)
(10.02 0.00259878 0)
(10.0111 0.00232772 0)
(10.0022 0.00206736 0)
(9.99366 0.00182404 0)
(9.98531 0.00159289 0)
(9.97731 0.00135904 0)
(9.96965 0.00113544 0)
(9.96226 0.000942511 0)
(9.9553 0.000768806 0)
(9.94855 0.00059215 0)
(9.94233 0.000418947 0)
(9.93628 0.000237415 0)
(9.93072 0.000104686 0)
(9.92507 -2.08787e-05 0)
(9.9199 -0.000142158 0)
(9.91462 -0.000270009 0)
(9.90994 -0.000391334 0)
(9.90512 -0.000511701 0)
(9.90098 -0.000626729 0)
(9.89663 -0.000751719 0)
(9.89305 -0.00086011 0)
(9.88921 -0.000968822 0)
(9.88621 -0.00107425 0)
(9.88289 -0.00118098 0)
(9.88046 -0.00128119 0)
(9.87767 -0.00138513 0)
(9.87579 -0.00148202 0)
(9.87351 -0.0015812 0)
(9.87216 -0.00167248 0)
(9.87039 -0.00177569 0)
(9.86956 -0.00184552 0)
(9.86824 -0.00195475 0)
(9.86786 -0.00202845 0)
(9.86703 -0.00213526 0)
(9.86697 -0.00219125 0)
(9.86671 -0.00229614 0)
(9.86689 -0.00234354 0)
(9.86708 -0.00241309 0)
(9.86758 -0.00252752 0)
(9.86819 -0.00260957 0)
(9.86907 -0.0029278 0)
(9.8703 -0.00315707 0)
(9.87203 -0.00472554 0)
(9.87497 -0.00541689 0)
(9.87842 -0.0164302 0)
(9.39444 0.0079869 0)
(9.42062 0.0126944 0)
(9.45547 0.0125362 0)
(9.49059 0.0130603 0)
(9.52237 0.0132067 0)
(9.55432 0.0127486 0)
(9.58549 0.0120378 0)
(9.61511 0.0112634 0)
(9.64246 0.0105502 0)
(9.66861 0.0098722 0)
(9.69307 0.0092504 0)
(9.71652 0.00873694 0)
(9.73861 0.00828554 0)
(9.76009 0.00792478 0)
(9.78059 0.0076548 0)
(9.80082 0.00745194 0)
(9.82036 0.0073064 0)
(9.83981 0.0071842 0)
(9.85867 0.00708428 0)
(9.87749 0.00698843 0)
(9.89577 0.006905 0)
(9.91401 0.00679074 0)
(9.93173 0.00668381 0)
(9.94943 0.00658771 0)
(9.96668 0.00650132 0)
(9.98395 0.00641844 0)
(10.0008 0.0063474 0)
(10.0177 0.00628388 0)
(10.0342 0.00623757 0)
(10.0507 0.00620862 0)
(10.0668 0.00616175 0)
(10.083 0.00611309 0)
(10.0986 0.00607035 0)
(10.1143 0.00602941 0)
(10.1294 0.00598688 0)
(10.1447 0.00594208 0)
(10.159 0.0058929 0)
(10.1736 0.0058445 0)
(10.1871 0.00578808 0)
(10.2009 0.00573978 0)
(10.2134 0.00571239 0)
(10.2262 0.00562866 0)
(10.2374 0.00554709 0)
(10.249 0.00546435 0)
(10.2588 0.00538879 0)
(10.2689 0.00530498 0)
(10.2771 0.00522215 0)
(10.2856 0.00512259 0)
(10.292 0.00502161 0)
(10.2987 0.00489973 0)
(10.3032 0.00477796 0)
(10.3079 0.00462457 0)
(10.3105 0.00448613 0)
(10.313 0.00432858 0)
(10.3142 0.00418104 0)
(10.3148 0.00397494 0)
(10.3145 0.00383651 0)
(10.3136 0.00363889 0)
(10.312 0.00342651 0)
(10.3099 0.00321439 0)
(10.3071 0.0029909 0)
(10.304 0.00277073 0)
(10.3003 0.00254799 0)
(10.2964 0.00232305 0)
(10.2922 0.00208346 0)
(10.2878 0.00184891 0)
(10.2831 0.00161027 0)
(10.2786 0.00139093 0)
(10.2738 0.0011697 0)
(10.2693 0.000971474 0)
(10.2645 0.000760429 0)
(10.2601 0.000574525 0)
(10.2554 0.000378072 0)
(10.2512 0.000207158 0)
(10.2468 1.00635e-05 0)
(10.2429 -0.000171336 0)
(10.2387 -0.000366973 0)
(10.2351 -0.000513358 0)
(10.2313 -0.000662643 0)
(10.2281 -0.000802414 0)
(10.2246 -0.000950976 0)
(10.2218 -0.00108838 0)
(10.2187 -0.00123211 0)
(10.2163 -0.00136231 0)
(10.2136 -0.0014988 0)
(10.2116 -0.0016163 0)
(10.2093 -0.00174641 0)
(10.2076 -0.00187209 0)
(10.2058 -0.00198294 0)
(10.2043 -0.00209526 0)
(10.2029 -0.00219771 0)
(10.2016 -0.00229954 0)
(10.2006 -0.00238777 0)
(10.1996 -0.00253138 0)
(10.1988 -0.0026366 0)
(10.1981 -0.00299997 0)
(10.1978 -0.00330691 0)
(10.1976 -0.00484625 0)
(10.1985 -0.00612197 0)
(10.1986 -0.0157083 0)
(9.39406 0.0045456 0)
(9.41913 0.00729225 0)
(9.45367 0.00711953 0)
(9.48883 0.00742854 0)
(9.52053 0.00752312 0)
(9.55233 0.00724123 0)
(9.58356 0.0068176 0)
(9.61311 0.006337 0)
(9.64052 0.00588826 0)
(9.6666 0.00547051 0)
(9.69114 0.00509378 0)
(9.71453 0.00478309 0)
(9.7367 0.0045112 0)
(9.75813 0.00429214 0)
(9.77872 0.0041266 0)
(9.79891 0.00400044 0)
(9.81855 0.00390755 0)
(9.83798 0.00382868 0)
(9.85696 0.00376235 0)
(9.87581 0.00370335 0)
(9.89425 0.00365278 0)
(9.91256 0.0035725 0)
(9.93048 0.00349775 0)
(9.94832 0.00343416 0)
(9.96584 0.00338201 0)
(9.98332 0.00333223 0)
(10.0005 0.00329073 0)
(10.0177 0.0032519 0)
(10.0347 0.00322825 0)
(10.0516 0.00322507 0)
(10.0684 0.00320073 0)
(10.0852 0.00317289 0)
(10.1017 0.00315057 0)
(10.1182 0.00313189 0)
(10.1345 0.00311292 0)
(10.1509 0.00309052 0)
(10.1669 0.00306786 0)
(10.183 0.00304288 0)
(10.1988 0.00301623 0)
(10.2147 0.00299055 0)
(10.2301 0.00297347 0)
(10.2457 0.0029394 0)
(10.2608 0.00291008 0)
(10.276 0.00288508 0)
(10.2907 0.0028626 0)
(10.3056 0.00283938 0)
(10.3199 0.00281582 0)
(10.3343 0.00279151 0)
(10.3481 0.00276558 0)
(10.362 0.00274174 0)
(10.3751 0.00271537 0)
(10.3885 0.0026892 0)
(10.4009 0.0026625 0)
(10.4135 0.00262719 0)
(10.425 0.00260032 0)
(10.4368 0.00256668 0)
(10.4474 0.00250611 0)
(10.4582 0.00244337 0)
(10.4677 0.00238585 0)
(10.4774 0.00232655 0)
(10.4857 0.00226349 0)
(10.4943 0.00219156 0)
(10.5013 0.00211571 0)
(10.5085 0.0020265 0)
(10.5142 0.00193156 0)
(10.5201 0.00182551 0)
(10.5244 0.00172533 0)
(10.5289 0.00161582 0)
(10.532 0.00151123 0)
(10.5353 0.00139376 0)
(10.5374 0.00127325 0)
(10.5397 0.0011315 0)
(10.5409 0.00100904 0)
(10.5421 0.00085726 0)
(10.5425 0.000712273 0)
(10.5428 0.000571561 0)
(10.5425 0.000399891 0)
(10.5421 0.000247628 0)
(10.5413 8.8615e-05 0)
(10.5403 -7.12748e-05 0)
(10.5391 -0.000234454 0)
(10.5377 -0.000397698 0)
(10.536 -0.000561194 0)
(10.5343 -0.000721524 0)
(10.5324 -0.000883634 0)
(10.5304 -0.00104081 0)
(10.5283 -0.00119572 0)
(10.5262 -0.00135735 0)
(10.524 -0.00150523 0)
(10.5217 -0.00165606 0)
(10.5193 -0.00178775 0)
(10.5169 -0.0019136 0)
(10.5144 -0.00202974 0)
(10.5119 -0.00218441 0)
(10.5093 -0.00233618 0)
(10.5066 -0.00268193 0)
(10.5041 -0.00310076 0)
(10.5012 -0.00466642 0)
(10.4992 -0.00635582 0)
(10.4959 -0.0144703 0)
(9.39387 0.000960933 0)
(9.41839 0.00132127 0)
(9.45277 0.00114019 0)
(9.48798 0.00122981 0)
(9.51963 0.00122949 0)
(9.55135 0.00113862 0)
(9.58261 0.00103713 0)
(9.61211 0.000880778 0)
(9.63957 0.000730385 0)
(9.66561 0.00060265 0)
(9.69019 0.000492399 0)
(9.71355 0.0004005 0)
(9.73576 0.000318106 0)
(9.75715 0.000248124 0)
(9.77779 0.000196563 0)
(9.79795 0.000163059 0)
(9.81762 0.000143471 0)
(9.83702 0.000133229 0)
(9.85604 0.000125708 0)
(9.87486 0.000127521 0)
(9.89333 0.000134118 0)
(9.91161 0.000110234 0)
(9.92959 8.54479e-05 0)
(9.9474 6.44673e-05 0)
(9.96499 4.93515e-05 0)
(9.98246 3.1825e-05 0)
(9.99972 1.47898e-05 0)
(10.0169 -6.12971e-06 0)
(10.034 -1.06813e-05 0)
(10.051 6.06887e-07 0)
(10.0678 -7.74396e-06 0)
(10.0847 -1.91399e-05 0)
(10.1013 -2.45933e-05 0)
(10.118 -2.72124e-05 0)
(10.1345 -2.81267e-05 0)
(10.151 -3.16007e-05 0)
(10.1673 -3.58697e-05 0)
(10.1836 -3.83051e-05 0)
(10.1997 -4.86181e-05 0)
(10.2158 -5.05621e-05 0)
(10.2318 -4.55387e-05 0)
(10.2477 -4.7864e-05 0)
(10.2634 -5.34973e-05 0)
(10.2792 -5.89761e-05 0)
(10.2947 -6.40872e-05 0)
(10.3103 -6.94706e-05 0)
(10.3256 -7.485e-05 0)
(10.341 -7.98949e-05 0)
(10.3561 -8.57621e-05 0)
(10.3713 -9.06374e-05 0)
(10.3863 -9.63083e-05 0)
(10.4012 -0.000102134 0)
(10.416 -0.000112064 0)
(10.4307 -0.000126364 0)
(10.4452 -0.000125754 0)
(10.4597 -0.000137775 0)
(10.4738 -0.000146019 0)
(10.4881 -0.000150672 0)
(10.5019 -0.000154575 0)
(10.5158 -0.000156434 0)
(10.5293 -0.000159044 0)
(10.5428 -0.000159635 0)
(10.5558 -0.000161697 0)
(10.5689 -0.000161352 0)
(10.5814 -0.00016591 0)
(10.594 -0.000163053 0)
(10.606 -0.00016239 0)
(10.6179 -0.00016626 0)
(10.6292 -0.000182461 0)
(10.6405 -0.000193511 0)
(10.651 -0.000219509 0)
(10.6614 -0.000239857 0)
(10.6711 -0.000262881 0)
(10.6806 -0.000289891 0)
(10.6894 -0.00031443 0)
(10.6977 -0.00035068 0)
(10.7056 -0.000383565 0)
(10.7127 -0.000433178 0)
(10.7193 -0.000493923 0)
(10.7252 -0.000554437 0)
(10.7306 -0.000623234 0)
(10.7351 -0.000693209 0)
(10.7392 -0.000764809 0)
(10.7423 -0.000831579 0)
(10.745 -0.000903413 0)
(10.7466 -0.000970447 0)
(10.7479 -0.00105618 0)
(10.7482 -0.00112913 0)
(10.748 -0.00117825 0)
(10.7471 -0.00125365 0)
(10.7456 -0.00132366 0)
(10.7434 -0.00139256 0)
(10.7407 -0.00145566 0)
(10.7374 -0.00155813 0)
(10.7336 -0.0016656 0)
(10.7292 -0.00194699 0)
(10.7246 -0.00236422 0)
(10.7192 -0.00373545 0)
(10.7136 -0.00566772 0)
(10.7061 -0.0127161 0)
(9.39391 -0.00274695 0)
(9.41859 -0.00496111 0)
(9.45307 -0.00514087 0)
(9.48829 -0.00527304 0)
(9.51995 -0.00538644 0)
(9.55167 -0.00527653 0)
(9.58297 -0.00503395 0)
(9.61242 -0.00485143 0)
(9.63991 -0.00468751 0)
(9.66594 -0.00450981 0)
(9.69053 -0.00434179 0)
(9.71388 -0.00420371 0)
(9.7361 -0.00408746 0)
(9.75749 -0.00399953 0)
(9.77813 -0.00392892 0)
(9.79828 -0.00386277 0)
(9.81798 -0.00380462 0)
(9.83736 -0.00374523 0)
(9.8564 -0.00369747 0)
(9.8752 -0.0036398 0)
(9.89369 -0.00358146 0)
(9.91196 -0.00355746 0)
(9.92994 -0.00354068 0)
(9.94776 -0.00352574 0)
(9.96534 -0.00350748 0)
(9.98282 -0.00349257 0)
(10.0001 -0.00348146 0)
(10.0173 -0.00348188 0)
(10.0343 -0.00346179 0)
(10.0513 -0.0034311 0)
(10.0682 -0.00341756 0)
(10.085 -0.00340934 0)
(10.1017 -0.00339572 0)
(10.1183 -0.00338204 0)
(10.1348 -0.00336681 0)
(10.1513 -0.00335282 0)
(10.1676 -0.00334201 0)
(10.1839 -0.00332644 0)
(10.2 -0.00332564 0)
(10.2161 -0.00330994 0)
(10.2321 -0.00328991 0)
(10.2479 -0.00327847 0)
(10.2637 -0.00327163 0)
(10.2794 -0.00326287 0)
(10.2949 -0.00325341 0)
(10.3104 -0.00324091 0)
(10.3257 -0.00322875 0)
(10.341 -0.00321474 0)
(10.3561 -0.00320083 0)
(10.3711 -0.00318504 0)
(10.386 -0.00317057 0)
(10.4008 -0.00314948 0)
(10.4155 -0.00313605 0)
(10.43 -0.0031207 0)
(10.4444 -0.00310029 0)
(10.4586 -0.00308898 0)
(10.4726 -0.00307441 0)
(10.4865 -0.00306169 0)
(10.5001 -0.00305237 0)
(10.5136 -0.0030405 0)
(10.5267 -0.00302974 0)
(10.5397 -0.0030167 0)
(10.5524 -0.00300482 0)
(10.5648 -0.00299581 0)
(10.5769 -0.00298658 0)
(10.5886 -0.0029707 0)
(10.6 -0.00294439 0)
(10.6109 -0.00292179 0)
(10.6215 -0.00289375 0)
(10.6316 -0.00287259 0)
(10.6413 -0.0028295 0)
(10.6504 -0.00278107 0)
(10.6591 -0.00272461 0)
(10.6671 -0.00267941 0)
(10.6747 -0.00262013 0)
(10.6816 -0.00255761 0)
(10.688 -0.00248979 0)
(10.6937 -0.00242042 0)
(10.6988 -0.00233692 0)
(10.7032 -0.00224345 0)
(10.707 -0.00214758 0)
(10.7102 -0.00204819 0)
(10.7126 -0.00195166 0)
(10.7146 -0.0018496 0)
(10.7158 -0.00175131 0)
(10.7167 -0.00162375 0)
(10.7167 -0.00154661 0)
(10.7163 -0.00143219 0)
(10.7154 -0.00132226 0)
(10.714 -0.00120492 0)
(10.712 -0.00107618 0)
(10.7095 -0.000956771 0)
(10.7065 -0.000848236 0)
(10.703 -0.000792298 0)
(10.6991 -0.000772364 0)
(10.6946 -0.000917746 0)
(10.6898 -0.00122826 0)
(10.6842 -0.0024008 0)
(10.678 -0.00430024 0)
(10.6695 -0.0101535 0)
(9.39419 -0.0064051 0)
(9.41974 -0.0109636 0)
(9.45454 -0.0111181 0)
(9.48975 -0.0114712 0)
(9.52147 -0.0116819 0)
(9.55326 -0.0113807 0)
(9.58461 -0.010811 0)
(9.61403 -0.0103135 0)
(9.64154 -0.00985348 0)
(9.66757 -0.00938255 0)
(9.69216 -0.00894796 0)
(9.71551 -0.00858753 0)
(9.73771 -0.00827952 0)
(9.75911 -0.00803973 0)
(9.77974 -0.0078543 0)
(9.79991 -0.00769621 0)
(9.81959 -0.0075651 0)
(9.83898 -0.00743843 0)
(9.85802 -0.0073367 0)
(9.87682 -0.00722098 0)
(9.8953 -0.00710851 0)
(9.91356 -0.00703395 0)
(9.9315 -0.0069754 0)
(9.94933 -0.00692463 0)
(9.96686 -0.00687543 0)
(9.98433 -0.00683408 0)
(10.0015 -0.00679917 0)
(10.0187 -0.00678651 0)
(10.0356 -0.00674786 0)
(10.0526 -0.00670437 0)
(10.0693 -0.006672 0)
(10.086 -0.00664732 0)
(10.1025 -0.00661666 0)
(10.119 -0.00658391 0)
(10.1353 -0.00655113 0)
(10.1515 -0.00651499 0)
(10.1675 -0.00648172 0)
(10.1835 -0.00644285 0)
(10.1992 -0.00641702 0)
(10.2148 -0.00637294 0)
(10.2302 -0.00632648 0)
(10.2454 -0.0062893 0)
(10.2604 -0.00625772 0)
(10.2752 -0.00622473 0)
(10.2897 -0.00619237 0)
(10.304 -0.00615851 0)
(10.318 -0.00612478 0)
(10.3317 -0.00609304 0)
(10.3451 -0.0060582 0)
(10.3581 -0.00602883 0)
(10.3706 -0.00599225 0)
(10.3828 -0.00596393 0)
(10.3945 -0.00591351 0)
(10.4056 -0.00585103 0)
(10.4163 -0.00578458 0)
(10.4263 -0.00572061 0)
(10.4357 -0.0056507 0)
(10.4445 -0.00557501 0)
(10.4525 -0.00549471 0)
(10.4599 -0.0054005 0)
(10.4665 -0.00529967 0)
(10.4724 -0.00518506 0)
(10.4775 -0.00506379 0)
(10.4819 -0.00493636 0)
(10.4854 -0.00481098 0)
(10.4884 -0.00468257 0)
(10.4906 -0.00454514 0)
(10.4924 -0.00439557 0)
(10.4935 -0.00425028 0)
(10.4941 -0.00405516 0)
(10.4941 -0.00392904 0)
(10.4937 -0.00375582 0)
(10.4929 -0.00357159 0)
(10.4917 -0.00339342 0)
(10.4901 -0.0032056 0)
(10.4882 -0.0030161 0)
(10.4861 -0.00282599 0)
(10.4837 -0.00263661 0)
(10.4812 -0.0024454 0)
(10.4785 -0.00225221 0)
(10.4757 -0.00206806 0)
(10.4729 -0.00188076 0)
(10.4699 -0.00170042 0)
(10.467 -0.00152974 0)
(10.464 -0.00136673 0)
(10.4611 -0.00121525 0)
(10.4582 -0.00106858 0)
(10.4552 -0.000944094 0)
(10.4523 -0.000836033 0)
(10.4493 -0.000728402 0)
(10.4464 -0.000588422 0)
(10.4435 -0.000439279 0)
(10.4406 -0.000298476 0)
(10.4376 -0.000181301 0)
(10.4347 -0.000107923 0)
(10.4317 -0.000190133 0)
(10.4285 -0.000487264 0)
(10.4249 -0.00149474 0)
(10.4207 -0.00323995 0)
(10.414 -0.0080992 0)
(9.39466 -0.00996016 0)
(9.42161 -0.0164542 0)
(9.45695 -0.016574 0)
(9.49208 -0.0171248 0)
(9.52391 -0.0173757 0)
(9.55581 -0.0168859 0)
(9.58721 -0.0160098 0)
(9.61659 -0.0152315 0)
(9.64413 -0.01451 0)
(9.67016 -0.0137793 0)
(9.69475 -0.0131077 0)
(9.71808 -0.0125484 0)
(9.74027 -0.012066 0)
(9.76167 -0.0116826 0)
(9.78224 -0.0113876 0)
(9.80241 -0.0111477 0)
(9.82202 -0.0109565 0)
(9.84137 -0.0107747 0)
(9.86031 -0.0106299 0)
(9.87902 -0.0104643 0)
(9.89736 -0.0103048 0)
(9.91547 -0.0101823 0)
(9.93318 -0.0100824 0)
(9.95082 -0.00998685 0)
(9.96801 -0.00989506 0)
(9.9852 -0.00981406 0)
(10.002 -0.00974493 0)
(10.0187 -0.00970418 0)
(10.0351 -0.00963621 0)
(10.0514 -0.00957134 0)
(10.0673 -0.00951285 0)
(10.0832 -0.00946392 0)
(10.0986 -0.00940958 0)
(10.1139 -0.00935315 0)
(10.1286 -0.00929845 0)
(10.1432 -0.00924493 0)
(10.1571 -0.0091839 0)
(10.1707 -0.00913853 0)
(10.1836 -0.00908228 0)
(10.1962 -0.00900233 0)
(10.2078 -0.00891829 0)
(10.219 -0.00883045 0)
(10.2291 -0.00874177 0)
(10.2386 -0.00864207 0)
(10.247 -0.00853679 0)
(10.2547 -0.00841558 0)
(10.2611 -0.0082871 0)