/*--------------------------------*- C++ -*----------------------------------*\
| =========                 |                                                 |
| \\      /  F ield         | OpenFOAM: The Open Source CFD Toolbox           |
|  \\    /   O peration     | Version:  v2012                                 |
|   \\  /    A nd           | Website:  www.openfoam.com                      |
|    \\/     M anipulation  |                                                 |
\*---------------------------------------------------------------------------*/
FoamFile
{
    version     2.0;
    format      ascii;
    class       Cloud<basicKinematicParcel>;
    location    "0.029/lagrangian/kinematicCloud";
    object      coordinates;
}
// * * * * * * * * * * * * * * * * * * * * * * * * * * * * * * * * * * * * * //

31
(
(0.0843534 0.457823 0.304734 0.15309) 16 13 1
(0.16221 0.340955 0.0779398 0.418895) 35 70 1
(0.606877 0.0602014 0.196561 0.13636) 55 111 2
(0.181866 0.409067 0.0987089 0.310358) 25 31 1
(0.426874 0.0404558 0.286563 0.246107) 74 149 2
(0.789182 0.0868712 0.105409 0.018538) 64 126 1
(0.303965 0.348017 0.337737 0.01028) 2 4 2
(0.680301 0.159849 0.0539248 0.105924) 83 166 2
(0.412549 0.293726 0.21585 0.0778757) 83 167 1
(0.0265958 0.486702 0.0760774 0.410625) 33 64 2
(0.243014 0.378493 0.0342896 0.344203) 32 64 2
(0.102512 0.337113 0.448744 0.111631) 12 25 2
(0.0934295 0.338959 0.453285 0.114326) 90 7618 2
(0.0445591 0.47772 0.465127 0.0125936) 0 7500 2
(0.46753 0.190747 0.266235 0.0754877) 91 180 1
(0.777699 0.0616442 0.11115 0.0495061) 41 83 2
(0.0565435 0.471728 0.0593149 0.412413) 1 3 1
(0.260243 0.369878 0.0776525 0.292226) 91 163 1
(0.0559252 0.253282 0.472037 0.218755) 11 20 1
(0.0872303 0.456385 0.261407 0.194978) 81 160 2
(0.345178 0.327411 0.138664 0.188747) 70 140 2
(0.642138 0.126784 0.178931 0.052147) 90 7618 2
(0.68561 0.100334 0.157195 0.0568612) 70 141 2
(0.609938 0.195031 0.086064 0.108967) 10 1 1
(0.430598 0.284701 0.0860569 0.198644) 30 41 1
(0.463375 0.127892 0.268313 0.140421) 70 7479 2
(0.359271 0.320365 0.0592938 0.261071) 10 7473 1
(0.253172 0.373414 0.107458 0.265956) 80 141 1
(0.496994 0.251503 0.071299 0.180204) 0 7472 1
(0.337159 0.166435 0.331421 0.164986) 80 7480 2
(0.128723 0.435639 0.100424 0.335215) 0 7500 2
)


// ************************************************************************* //
