/*--------------------------------*- C++ -*----------------------------------*\
| =========                 |                                                 |
| \\      /  F ield         | OpenFOAM: The Open Source CFD Toolbox           |
|  \\    /   O peration     | Version:  v2012                                 |
|   \\  /    A nd           | Website:  www.openfoam.com                      |
|    \\/     M anipulation  |                                                 |
\*---------------------------------------------------------------------------*/
FoamFile
{
    version     2.0;
    format      ascii;
    class       vectorField;
    location    "0.029/lagrangian/kinematicCloud";
    object      UCorrect;
}
// * * * * * * * * * * * * * * * * * * * * * * * * * * * * * * * * * * * * * //


31
(
(7.73936e-33 1.63885e-35 0)
(0 0 0)
(5.8175e-28 6.39094e-31 0)
(0 0 0)
(8.09698e-28 -1.81872e-30 0)
(6.1141e-28 3.09004e-31 0)
(0 0 0)
(0 0 0)
(1.34212e-27 9.35545e-30 0)
(2.47728e-32 -1.37331e-34 0)
(0 0 0)
(0 0 0)
(8.24858e-27 1.11895e-29 0)
(0 0 0)
(0 0 0)
(0 0 0)
(4.62704e-31 -1.08285e-32 0)
(3.5207e-27 5.44775e-29 0)
(0 0 0)
(3.93239e-31 1.29371e-32 0)
(4.97542e-32 1.10662e-33 0)
(0 0 0)
(0 0 0)
(0 0 0)
(0 0 0)
(0 0 0)
(0 0 0)
(0 0 0)
(3.23763e-27 -8.67795e-29 0)
(0 0 0)
(0 0 0)
)


// ************************************************************************* //
