/*--------------------------------*- C++ -*----------------------------------*\
| =========                 |                                                 |
| \\      /  F ield         | OpenFOAM: The Open Source CFD Toolbox           |
|  \\    /   O peration     | Version:  v2012                                 |
|   \\  /    A nd           | Website:  www.openfoam.com                      |
|    \\/     M anipulation  |                                                 |
\*---------------------------------------------------------------------------*/
FoamFile
{
    version     2.0;
    format      ascii;
    class       vectorField;
    location    "0.029/lagrangian/kinematicCloud";
    object      UCorrect;
}
// * * * * * * * * * * * * * * * * * * * * * * * * * * * * * * * * * * * * * //


31
(
(0 0 0)
(-6.13655e-28 -3.1389e-29 0)
(0 0 0)
(-3.32835e-26 -2.79795e-27 0)
(0 0 0)
(0 0 0)
(-4.34164e-26 1.44677e-28 0)
(-2.36809e-28 1.23652e-29 0)
(0 0 0)
(0 0 0)
(0 0 0)
(-4.45745e-26 -1.33952e-27 0)
(0 0 0)
(0 0 0)
(-4.73229e-26 6.12663e-28 0)
(-1.10729e-25 3.45186e-27 0)
(0 0 0)
(0 0 0)
(0 0 0)
(0 0 0)
(0 0 0)
(-6.30767e-26 2.83056e-28 0)
(0 0 0)
(0 0 0)
(0 0 0)
(0 0 0)
(-2.62329e-25 -3.14946e-28 0)
(-2.64365e-25 2.6079e-28 0)
(0 0 0)
(0 0 0)
(0 0 0)
)


// ************************************************************************* //
