/*--------------------------------*- C++ -*----------------------------------*\
| =========                 |                                                 |
| \\      /  F ield         | OpenFOAM: The Open Source CFD Toolbox           |
|  \\    /   O peration     | Version:  v2012                                 |
|   \\  /    A nd           | Website:  www.openfoam.com                      |
|    \\/     M anipulation  |                                                 |
\*---------------------------------------------------------------------------*/
FoamFile
{
    version     2.0;
    format      ascii;
    class       Cloud<basicKinematicParcel>;
    location    "0.11/lagrangian/kinematicCloud";
    object      positions;
}
// * * * * * * * * * * * * * * * * * * * * * * * * * * * * * * * * * * * * * //

54
(
(1.08712 0.00411483 0.03) 372
(1.11021 0.0157635 0.03) 874
(1.10224 0.0237999 0.03) 1173
(1.08827 0.00939985 0.03) 572
(1.07653 0.0307396 0.03) 1471
(1.07097 0.0242434 0.03) 1171
(0.815367 0.000582292 0.03) 54
(1.02646 0.0346378 0.03) 1668
(1.01812 0.0342914 0.03) 1567
(1.02853 0.0129561 0.03) 768
(1.02648 0.0165878 0.03) 868
(1.00853 0.00771831 0.03) 567
(0.896983 0.0384178 0.03) 1859
(0.88803 0.00144718 0.03) 159
(0.903738 0.0379394 0.03) 1860
(0.972178 0.0188195 0.03) 964
(0.934179 0.00436621 0.03) 362
(0.895538 0.0372691 0.03) 1759
(0.934953 0.00846468 0.03) 562
(0.922072 0.0342217 0.03) 1561
(0.927006 0.0285446 0.03) 1361
(0.878354 0.0365121 0.03) 1758
(0.904125 0.0292962 0.03) 1360
(0.884173 0.00664005 0.03) 458
(0.891325 0.0149735 0.03) 859
(0.880251 0.0286637 0.03) 1358
(0.854227 0.0051684 0.03) 356
(0.865627 0.0317804 0.03) 1457
(0.803973 0.00212437 0.03) 153
(0.852163 0.0326368 0.03) 1556
(0.475736 6.3646e-05 0.03) 31
(0.805242 0.00320339 0.03) 253
(0.720289 0.038797 0.03) 1948
(0.813546 0.0217083 0.03) 1054
(0.811202 0.00952104 0.03) 554
(0.804405 0.0276814 0.03) 1253
(0.792915 0.0124275 0.03) 752
(0.78467 0.0148461 0.03) 852
(0.773142 0.0278782 0.03) 1251
(0.676475 0.000997998 0.03) 45
(0.75448 0.0112439 0.03) 650
(0.742956 0.0268728 0.03) 1249
(0.731238 0.00917747 0.03) 548
(0.721676 0.00778545 0.03) 548
(0.712762 0.0119007 0.03) 747
(0.702571 0.0253874 0.03) 1146
(0.689006 0.0327206 0.03) 1545
(0.682024 0.0185162 0.03) 945
(0.670866 0.0145146 0.03) 844
(0.660588 0.0304032 0.03) 1344
(0.641348 0.00429046 0.03) 342
(0.641043 0.0140932 0.03) 742
(0.626693 0.0343195 0.03) 1641
(0.599205 0.00247075 0.03) 139
)


// ************************************************************************* //
