/*--------------------------------*- C++ -*----------------------------------*\
| =========                 |                                                 |
| \\      /  F ield         | OpenFOAM: The Open Source CFD Toolbox           |
|  \\    /   O peration     | Version:  v2012                                 |
|   \\  /    A nd           | Website:  www.openfoam.com                      |
|    \\/     M anipulation  |                                                 |
\*---------------------------------------------------------------------------*/
FoamFile
{
    version     2.0;
    format      ascii;
    class       volScalarField;
    location    "0.397";
    object      omega.air;
}
// * * * * * * * * * * * * * * * * * * * * * * * * * * * * * * * * * * * * * //

dimensions      [0 0 -1 0 0 0 0];


internalField   nonuniform List<scalar> 
5600
(
6586.29
7485.5
7886.8
7965.17
7866.41
7687.44
7480.98
7290.04
7125.34
6987.77
6878.92
6796.29
6736.27
6693.39
6663.68
6642.28
6627.09
6614.8
6605.36
6596.46
6589.63
6582.63
6577.87
6573.1
6570.51
6567.58
6566.37
6564.62
6564.08
6562.72
6562.16
6560.56
6559.63
6557.67
6556.48
6554.33
6553.04
6550.83
6549.57
6547.42
6546.3
6544.32
6543.43
6541.66
6541.07
6539.56
6539.26
6537.98
6537.9
6536.78
6536.88
6535.91
6536.2
6535.3
6535.84
6535.07
6535.87
6535.26
6536.31
6535.88
6537.19
6536.84
6538.44
6538.18
6540.05
6539.84
6541.99
6541.82
6544.25
6544.08
6546.83
6546.63
6549.73
6549.45
6552.93
6552.55
6556.41
6555.91
6560.13
6559.53
6564.01
6563.41
6567.95
6567.6
6571.77
6572.29
6575.14
6577.97
6577.33
6585.79
6576.9
6598.27
6569.46
6622.53
6541.09
6682.96
6441.35
6867.51
6039.13
7497.84
2450.54
2296.55
2571.65
2795.09
2928.2
2998.04
3010.26
2968.22
2968.91
3017.27
3073.44
3118.99
3147.16
3158.48
3154.91
3140.53
3118.26
3091.29
3062.13
3032.56
3003.22
2973.99
2945.02
2916.51
2889.21
2863.29
2839.67
2817.46
2797.58
2778.6
2761.96
2745.94
2732.07
2718.69
2707.18
2696
2686.39
2677.03
2668.96
2661.1
2654.29
2647.66
2641.88
2636.28
2631.28
2626.33
2621.88
2617.44
2613.49
2609.52
2606.07
2602.53
2599.54
2596.52
2593.89
2591.26
2589
2586.71
2584.8
2582.73
2581.11
2579.33
2577.93
2576.38
2575.18
2573.82
2572.79
2571.63
2570.71
2569.77
2568.97
2568.19
2567.52
2566.89
2566.35
2565.86
2565.42
2565.06
2564.68
2564.45
2564.06
2564.03
2563.56
2563.83
2563.14
2563.98
2562.67
2564.67
2561.82
2566.36
2559.43
2570.75
2552.87
2582.38
2534.71
2614.78
2478.04
2716.44
2276.74
3073.38
2358.54
1859.93
1592.13
1427.82
1346.08
1273.82
1279.96
1309.15
1351.9
1412.45
1482.27
1549.52
1611.13
1663.93
1704.87
1733.42
1749.09
1752.48
1744.3
1726.48
1702.37
1676.77
1653.6
1634.9
1619.45
1605.79
1593.23
1581.77
1571.23
1561
1551.15
1540.95
1531.32
1521.67
1512.9
1504.19
1496.4
1488.69
1481.88
1475.16
1469.22
1463.35
1458.13
1452.87
1448.27
1443.65
1439.6
1435.5
1431.94
1428.3
1425.18
1421.96
1419.24
1416.43
1414.08
1411.59
1409.55
1407.33
1405.55
1403.55
1401.98
1400.16
1398.78
1397.11
1395.91
1394.36
1393.32
1391.9
1391
1389.73
1388.94
1387.81
1387.13
1386.12
1385.53
1384.64
1384.09
1383.34
1382.76
1382.21
1381.5
1381.29
1380.25
1380.67
1378.91
1380.5
1377.24
1381.12
1374.75
1383.21
1370.39
1388.31
1361.81
1400.04
1343.65
1425.94
1304.61
1479.16
1228.27
1557.54
2345.16
1822.38
1493.22
1267.66
1111.15
992.611
906.862
846.932
802.652
776.727
760.411
769.452
791.629
824.095
860.918
902.271
941.258
978.654
1011.21
1039.64
1061.39
1079.16
1091.62
1100.98
1105.71
1107.16
1103.57
1097.11
1087.6
1078.02
1068.45
1060.71
1053.94
1048.04
1042.52
1037.34
1032.49
1027.85
1023.56
1019.24
1015.12
1010.64
1006.17
1001.43
996.998
992.454
988.341
984.178
980.477
976.732
973.447
970.12
967.22
964.272
961.706
959.013
956.665
954.158
951.991
949.644
947.647
945.45
943.622
941.572
939.911
938.004
936.507
934.746
933.409
931.788
930.589
929.117
928.023
926.68
925.651
924.436
923.437
922.422
921.386
920.645
919.424
919.121
917.485
917.924
915.465
917.187
913.186
917.126
910.326
918.121
906.364
920.819
900.503
926.204
891.776
934.648
880.675
942.291
875.128
926.8
2341.97
1815.97
1479.81
1247.93
1079.72
952.569
853.194
774.612
710.646
658.899
616.094
581.961
556.202
536.184
523.576
514.779
513.798
520.894
532.272
549.206
568.539
591.927
616.102
642.236
667.07
692.196
713.811
733.35
748.19
760.886
769.724
777.424
782.151
786.058
787.265
787.761
785.851
783.563
779.519
775.789
771.22
767.608
764.174
761.319
758.406
755.728
753.024
750.454
747.966
745.572
743.34
741.143
739.064
736.962
734.806
732.432
730.124
727.684
725.394
723.001
720.803
718.51
716.441
714.275
712.36
710.343
708.586
706.727
705.123
703.401
701.919
700.29
698.867
697.326
695.923
694.502
693.08
691.835
690.353
689.381
687.743
687.174
685.218
685.262
682.716
683.72
680.159
682.602
677.443
681.984
674.482
681.895
671.331
682.085
668.51
681.448
667.666
677.195
671.795
664.945
2341.13
1814.12
1476.76
1243.88
1074.17
945.326
844.331
763.137
696.591
641.021
594.192
554.015
519.691
489.845
464.18
441.874
422.652
406.902
393.561
383.41
375.257
370.383
367.307
368.994
373.104
381.372
391.423
405.407
419.976
437.794
454.611
473.776
490.93
509.287
524.582
540.266
552.272
564.144
572.372
580.454
585.553
590.729
593.884
597.311
598.933
600.764
600.93
601.292
600.185
599.323
597.304
595.619
593.223
591.223
589.085
587.474
585.727
584.283
582.707
581.303
579.833
578.441
577.073
575.715
574.468
573.175
572.034
570.813
569.704
568.505
567.304
565.932
564.594
563.19
561.776
560.431
558.948
557.717
556.137
555.102
553.393
552.647
550.737
550.386
548.166
548.341
545.677
546.505
543.27
544.836
540.985
543.226
538.945
541.421
537.393
539.048
536.59
535.862
536
532.418
2340.86
1813.43
1475.76
1242.6
1072.62
943.433
842.136
760.548
693.582
637.511
590.06
549.213
513.894
482.868
455.627
431.338
409.782
390.358
373.051
357.346
343.365
330.65
319.417
309.355
300.766
293.281
287.196
282.344
278.877
276.858
276.533
278.447
281.702
287.355
293.958
303.046
312.46
324.198
335.449
348.566
360.512
374.025
385.573
398.387
408.863
420.302
429.169
438.695
445.599
452.909
457.792
462.935
466.091
469.464
471.441
473.825
475.085
476.675
477.31
478.184
478.251
478.475
478.04
477.699
476.861
476.07
474.971
473.88
472.747
471.574
470.541
469.572
468.673
467.805
466.927
466.127
465.207
464.482
463.471
462.851
461.719
461.251
459.973
459.696
458.251
458.172
456.544
456.652
454.832
455.077
453.101
453.375
451.33
451.462
449.446
449.382
447.355
447.301
444.543
445.253
2340.76
1813.12
1475.33
1242.06
1072
942.724
841.352
759.668
692.626
636.441
588.91
547.91
512.507
481.258
453.909
429.283
407.566
387.639
370.027
353.555
339.042
325.188
313.09
301.273
291.123
280.95
272.427
263.628
256.516
248.923
243.112
236.719
232.202
227.016
223.807
219.935
218.119
215.729
215.444
215.056
216.677
218.397
221.921
225.782
231.146
237.034
244.023
251.61
259.822
268.521
277.404
286.649
295.673
304.88
313.424
322.038
329.856
337.623
344.537
351.266
357.148
362.712
367.491
371.832
375.518
378.667
381.363
383.452
385.371
386.693
388.078
388.992
390.043
390.618
391.343
391.628
392.012
392.056
392.098
391.944
391.641
391.337
390.702
390.3
389.36
388.908
387.694
387.232
385.781
385.326
383.678
383.233
381.42
381.042
379.056
378.756
376.457
376.3
373.408
373.321
2340.71
1812.97
1475.12
1241.81
1071.71
942.4
841.001
759.288
692.222
636.006
588.453
547.419
511.993
480.703
453.33
428.655
406.908
386.919
369.264
352.71
338.131
324.162
311.962
299.979
289.666
279.24
270.455
261.267
253.748
245.561
239.113
231.744
226.226
219.542
214.854
208.756
204.826
199.25
196.037
190.97
188.481
183.929
182.168
178.172
177.169
173.812
173.618
171.012
171.704
170.122
171.866
171.429
174.251
175.07
179.002
181.096
186.091
189.399
195.343
199.715
206.421
211.629
218.852
224.568
232.025
237.97
245.381
251.277
258.311
263.834
270.281
275.311
281.093
285.577
290.63
294.533
298.812
302.112
305.586
308.279
310.938
313.043
314.903
316.46
317.566
318.642
319.07
319.748
319.592
319.953
319.331
319.47
318.489
318.54
317.24
317.102
315.455
315.103
313.101
312.284
2340.68
1812.9
1475.02
1241.7
1071.57
942.26
840.837
759.13
692.033
635.833
588.24
547.232
511.755
480.505
453.066
428.445
406.614
386.698
368.937
352.476
337.766
323.912
311.551
299.71
289.2
278.942
269.917
260.926
253.114
245.148
238.345
231.219
225.264
218.834
213.602
207.754
203.148
197.791
193.732
188.795
185.221
180.65
177.513
173.264
170.528
166.572
164.21
160.529
158.525
155.119
153.476
150.353
149.072
146.254
145.345
142.873
142.354
140.278
140.174
138.556
138.901
137.811
138.637
138.231
139.583
139.882
141.761
142.787
145.182
146.919
149.775
152.165
155.41
158.37
161.914
165.339
169.087
172.858
176.704
180.694
184.535
188.615
192.349
196.395
199.933
203.832
207.096
210.743
213.665
216.966
219.489
222.339
224.413
226.69
228.402
230.312
231.758
233.223
234.384
235.267
2340.68
1812.91
1475.03
1241.71
1071.58
942.284
840.844
759.157
692.036
635.865
588.236
547.27
511.744
480.549
453.046
428.497
406.584
386.759
368.896
352.547
337.714
323.996
311.487
299.807
289.121
279.055
269.824
261.055
253.006
245.298
238.221
231.391
225.124
219.034
213.449
207.987
202.984
198.065
193.564
189.122
185.06
181.047
177.376
173.757
170.442
167.193
164.213
161.332
158.688
156.181
153.879
151.762
149.827
148.134
146.606
145.38
144.314
143.611
143.075
143.002
143.13
143.744
144.583
145.928
147.528
149.63
151.997
154.817
157.896
161.356
165.053
169.039
173.224
177.595
182.112
186.709
191.389
196.048
200.721
205.283
209.789
214.114
218.321
222.253
226.012
229.478
232.75
235.747
238.534
241.069
243.388
245.478
247.348
249.016
250.444
251.685
252.68
253.533
254.164
254.744
2340.71
1813
1475.15
1241.86
1071.74
942.466
841.029
759.363
692.237
636.091
588.453
547.517
511.975
480.817
453.291
428.788
406.847
387.075
369.178
352.893
338.02
324.377
311.824
300.233
289.502
279.54
270.27
261.626
253.55
245.995
238.916
232.284
226.059
220.23
214.76
209.651
204.874
200.445
196.362
192.622
189.237
186.215
183.578
181.339
179.533
178.179
177.322
177.083
177.426
178.419
180.041
182.36
185.323
188.971
193.239
198.124
203.566
209.504
215.886
222.583
229.58
236.718
244.002
251.238
258.473
265.442
272.234
278.657
284.859
290.642
296.168
301.243
306.032
310.351
314.365
317.907
321.134
323.905
326.361
328.396
330.13
331.504
332.6
333.435
334.046
334.469
334.771
334.91
334.932
334.808
334.558
334.177
333.662
333.032
332.265
331.406
330.419
329.383
328.281
327.243
2340.76
1813.17
1475.39
1242.15
1072.07
942.822
841.415
759.775
692.676
636.557
588.945
548.04
512.525
481.406
453.91
429.459
407.552
387.854
370.005
353.826
339.027
325.539
313.105
301.747
291.222
281.613
272.688
264.579
257.063
250.34
244.219
238.885
234.158
230.276
227.045
224.765
223.202
222.817
223.49
225.321
228.24
232.325
237.478
243.716
250.895
258.951
267.702
276.96
286.611
296.426
306.334
316.029
325.443
334.475
343.072
351.156
358.691
365.617
371.916
377.553
382.531
386.842
390.518
393.59
396.112
398.168
399.859
401.301
402.536
403.55
404.385
405.01
405.476
405.749
405.879
405.831
405.656
405.325
404.887
404.323
403.677
402.941
402.144
401.333
400.47
399.632
398.809
397.987
397.147
396.291
395.396
394.475
393.501
392.496
391.433
390.343
389.203
388.067
386.941
385.924
2340.87
1813.49
1475.85
1242.71
1072.73
943.558
842.249
760.682
693.692
637.656
590.18
549.374
514.045
483.072
455.847
431.634
410.129
390.851
373.64
358.172
344.353
332.009
321.098
311.741
303.657
297.151
291.93
288.43
286.31
286.459
288.568
292.783
298.883
306.93
316.615
327.793
340.094
353.154
366.644
380.344
393.805
406.909
419.347
431.062
441.76
451.454
459.897
467.213
473.25
478.26
482.205
485.391
488.036
490.206
491.941
493.26
494.187
494.741
494.944
494.822
494.404
493.726
492.829
491.759
490.569
489.343
488.134
487.05
486.032
485.058
484.102
483.157
482.211
481.268
480.321
479.373
478.427
477.49
476.564
475.654
474.762
473.881
473.022
472.147
471.29
470.376
469.403
468.399
467.362
466.316
465.247
464.183
463.096
462.023
460.928
459.859
458.779
457.746
456.781
455.976
2341.15
1814.19
1476.91
1243.99
1074.37
945.465
844.556
763.344
696.863
641.371
594.59
554.62
520.504
490.958
465.766
443.828
425.82
410.635
398.925
389.606
383.741
380.084
380.942
385.4
393.439
404.67
418.831
435.247
453.414
472.413
491.918
511.214
529.563
546.641
561.813
575.036
585.949
594.933
601.975
607.592
612.151
615.742
618.424
620.21
621.133
621.254
620.629
619.391
617.624
615.554
613.243
611.018
609.053
607.253
605.537
603.876
602.236
600.621
599.018
597.451
595.911
594.429
592.987
591.61
590.257
588.946
587.589
586.136
584.6
583.038
581.444
579.858
578.269
576.701
575.138
573.602
572.092
570.619
569.185
567.795
566.446
565.145
563.891
562.68
561.509
560.375
559.262
558.177
557.102
556.056
555.011
554.002
552.987
552.02
551.039
550.12
549.202
548.373
547.654
547.153
2342.03
1815.98
1480.11
1247.96
1080.28
952.708
854.159
775.206
712.346
660.618
619.075
586.931
562.6
545.504
534.588
530.074
534.451
545.063
561.028
581.077
604.569
630.61
657.65
684.796
711.041
734.72
754.969
771.335
784.177
794.173
801.839
807.312
810.765
812.232
811.875
809.914
806.642
802.65
798.214
794.142
790.648
787.471
784.452
781.474
778.553
775.677
772.905
770.233
767.705
765.259
762.9
760.508
757.931
755.277
752.583
749.906
747.251
744.655
742.108
739.643
737.243
734.939
732.708
730.582
728.531
726.584
724.698
722.889
721.107
719.382
717.677
716.026
714.395
712.814
711.264
709.773
708.327
706.939
705.598
704.312
703.073
701.888
700.748
699.661
698.614
697.621
696.663
695.749
694.859
694.016
693.183
692.399
691.613
690.886
690.147
689.48
688.823
688.273
687.879
687.785
2345.25
1822.39
1493.86
1268.16
1113.23
994.179
912.591
852.016
814.512
787.869
783.659
800.117
829.083
866.039
907.634
950.23
990.289
1026.98
1058.27
1083.61
1103.44
1118.45
1129.08
1135.73
1137.46
1134.74
1127.99
1118.69
1108.64
1099.46
1091.81
1085.13
1079.04
1073.28
1067.82
1062.62
1057.74
1052.99
1048.38
1043.52
1038.47
1033.33
1028.23
1023.25
1018.47
1013.89
1009.56
1005.45
1001.59
997.955
994.541
991.334
988.274
985.352
982.537
979.836
977.226
974.723
972.305
969.989
967.755
965.622
963.569
961.616
959.741
957.964
956.26
954.648
953.097
951.621
950.193
948.829
947.505
946.246
945.04
943.895
942.789
941.739
940.724
939.762
938.84
937.962
937.122
936.325
935.565
934.85
934.169
933.531
932.919
932.355
931.803
931.305
930.8
930.366
929.907
929.546
929.188
928.982
928.983
929.414
2358.73
1860.91
1594.77
1434.01
1353.99
1288.99
1305.25
1337.29
1392.12
1465.15
1539.73
1610.28
1672.38
1723.06
1760.08
1783.38
1792.55
1788.85
1773.31
1750.18
1724.15
1700.71
1682.17
1666.51
1652.51
1639.48
1627.39
1615.94
1604.93
1593.83
1582.73
1571.91
1561.57
1551.73
1542.45
1533.71
1525.55
1517.91
1510.81
1504.16
1497.94
1492.03
1486.48
1481.29
1476.43
1471.85
1467.55
1463.51
1459.72
1456.17
1452.85
1449.75
1446.84
1444.12
1441.57
1439.17
1436.9
1434.76
1432.72
1430.8
1428.96
1427.22
1425.57
1424
1422.51
1421.09
1419.76
1418.5
1417.31
1416.18
1415.12
1414.12
1413.19
1412.29
1411.45
1410.64
1409.86
1409.11
1408.41
1407.74
1407.11
1406.52
1405.97
1405.45
1404.97
1404.53
1404.13
1403.76
1403.43
1403.14
1402.86
1402.64
1402.41
1402.27
1402.07
1402.06
1401.95
1402.22
1402.68
1403.85
2454.74
2305.68
2580.44
2808.67
2934.22
3010.01
2994.58
2967.45
3014.83
3085.64
3150.03
3196.61
3222.41
3229.88
3222.23
3203.95
3178.36
3148.8
3117.79
3086.34
3054.82
3023.05
2991.97
2961.67
2933.61
2907.2
2882.91
2860.48
2839.9
2820.98
2803.65
2787.82
2773.39
2760.22
2748.2
2737.21
2727.14
2717.94
2709.48
2701.76
2694.61
2688.06
2682
2676.3
2670.91
2665.81
2660.99
2656.44
2652.17
2648.16
2644.41
2640.9
2637.62
2634.57
2631.73
2629.08
2626.6
2624.29
2622.12
2620.1
2618.18
2616.4
2614.71
2613.13
2611.67
2610.28
2609
2607.8
2606.71
2605.68
2604.74
2603.89
2603.1
2602.38
2601.71
2601.1
2600.53
2600.01
2599.52
2599.09
2598.69
2598.35
2598.05
2597.8
2597.6
2597.44
2597.33
2597.27
2597.24
2597.27
2597.33
2597.44
2597.56
2597.76
2597.92
2598.33
2598.52
2599.46
2600.42
2602.42
6588.08
7481.93
7876.77
7936
7826.38
7629.93
7415.07
7222.09
7053.54
6914.35
6805.38
6723.41
6664.03
6621.63
6591.85
6570.24
6554.28
6541.58
6531.21
6522.48
6514.92
6508.91
6504.01
6500.33
6497.42
6495.11
6493.31
6491.84
6490.47
6489.03
6487.34
6485.47
6483.4
6481.23
6478.93
6476.61
6474.25
6471.93
6469.66
6467.49
6465.43
6463.49
6461.71
6460.09
6458.62
6457.29
6456.06
6454.94
6453.9
6452.96
6452.1
6451.33
6450.67
6450.13
6449.7
6449.38
6449.18
6449.09
6449.12
6449.25
6449.5
6449.82
6450.27
6450.8
6451.41
6452.11
6452.9
6453.77
6454.73
6455.76
6456.89
6458.1
6459.38
6460.74
6462.18
6463.68
6465.24
6466.86
6468.52
6470.22
6471.97
6473.74
6475.56
6477.41
6479.3
6481.22
6483.19
6485.19
6487.25
6489.33
6491.46
6493.61
6495.86
6498.06
6500.43
6502.58
6504.93
6506.75
6507.99
6507.9
5497.46
3369.76
2415.91
1948.56
1665.38
1480.78
1346.82
1245.94
1163.86
1095.54
1037.14
985.841
939.998
898.57
860.765
825.721
793.016
762.08
732.453
704.045
676.669
650.281
624.901
600.528
577.094
554.656
533.18
512.691
493.153
474.541
456.857
440.136
424.347
409.436
395.343
382.002
369.36
357.368
345.979
335.149
324.842
315.022
305.666
296.738
288.226
280.093
272.338
264.918
257.844
251.063
244.604
238.393
232.488
226.789
221.383
216.14
211.181
206.346
201.784
197.317
193.099
188.961
185.041
181.192
177.53
173.926
170.493
167.095
163.859
160.636
157.573
154.493
151.591
148.62
145.874
142.991
140.408
137.593
135.193
132.428
130.239
127.536
125.539
122.949
121.094
118.708
116.954
114.833
113.176
111.296
109.839
108.098
106.979
105.268
104.491
102.867
102.356
100.836
100.605
98.9919
1520.21
2569.14
2357.71
1985.65
1701.95
1501.85
1354.79
1243.65
1154.01
1081.03
1019.76
966.768
920.489
879.562
842.835
809.227
778.121
748.863
720.973
694.299
668.624
643.833
619.872
596.736
574.298
552.653
531.746
511.719
492.404
473.941
456.182
439.407
423.612
408.71
394.622
381.275
368.619
356.602
345.177
334.301
323.941
314.061
304.642
295.65
287.073
278.877
271.061
263.582
256.454
249.62
243.114
236.858
230.912
225.174
219.734
214.457
209.469
204.607
200.019
195.53
191.291
187.136
183.198
179.336
175.66
172.048
168.605
165.204
161.962
158.74
155.677
152.605
149.707
146.753
144.014
141.161
138.587
135.816
133.43
130.724
128.553
125.923
123.953
121.442
119.624
117.317
115.615
113.558
111.972
110.129
108.758
107.031
105.988
104.284
103.548
101.929
101.429
99.9111
99.6723
98.0823
1127.82
1418.33
1803.81
1801.15
1642.34
1475.58
1336.76
1225.16
1133.55
1058.2
995.224
941.339
895.003
854.639
818.906
786.612
757.031
729.389
703.302
678.498
654.682
631.697
609.418
587.802
566.703
546.236
526.291
507.118
488.446
470.538
453.1
436.535
420.925
406.18
392.224
378.983
366.416
354.468
343.094
332.251
321.911
312.042
302.625
293.63
285.048
276.844
269.019
261.531
254.395
247.553
241.041
234.779
228.829
223.088
217.646
212.368
207.379
202.518
197.932
193.445
189.208
185.058
181.122
177.268
173.597
169.995
166.558
163.171
159.94
156.736
153.688
150.642
147.763
144.845
142.128
139.325
136.777
134.074
131.718
129.097
126.965
124.434
122.515
120.11
118.358
116.153
114.534
112.562
111.081
109.292
108.038
106.343
105.398
103.72
103.04
101.441
100.964
99.4604
99.2197
97.6667
895.151
846.415
1029.06
1250.33
1340.25
1313.55
1238.98
1156.44
1079.92
1012.49
954.372
904.18
860.578
822.402
788.642
758.257
730.525
704.711
680.475
657.517
635.514
614.316
593.77
573.735
554.103
535.01
516.307
498.29
480.64
463.632
447.03
431.057
415.875
401.463
387.776
374.759
362.388
350.607
339.372
328.647
318.408
308.627
299.29
290.368
281.853
273.713
265.95
258.52
251.439
244.651
238.191
231.979
226.078
220.383
214.986
209.75
204.803
199.981
195.432
190.983
186.78
182.665
178.762
174.943
171.302
167.736
164.331
160.981
157.784
154.622
151.611
148.613
145.775
142.919
140.246
137.522
135.022
132.418
130.117
127.616
125.55
123.155
121.318
119.055
117.404
115.334
113.839
111.977
110.642
108.93
107.826
106.185
105.363
103.731
103.124
101.559
101.116
99.6346
99.398
97.8907
675.18
655.934
666.667
732.559
836.27
921.786
960.556
959.708
936.323
903.088
867.436
833.179
801.178
771.614
744.399
719.159
695.477
673.093
651.661
631.105
611.218
591.95
573.177
554.823
536.778
519.199
501.95
485.303
468.903
452.989
437.529
422.484
408.025
394.174
380.931
368.285
356.242
344.736
333.733
323.211
313.156
303.547
294.373
285.607
277.244
269.251
261.63
254.338
247.392
240.732
234.398
228.305
222.519
216.932
211.64
206.504
201.651
196.919
192.455
188.088
183.961
179.923
176.09
172.343
168.768
165.271
161.93
158.65
155.517
152.428
149.484
146.567
143.8
141.039
138.441
135.833
133.413
130.951
128.738
126.405
124.441
122.231
120.518
118.444
116.94
115.047
113.722
112.007
110.861
109.257
108.34
106.777
106.101
104.533
104.014
102.49
102.092
100.631
100.403
98.9391
530.56
531.102
526.776
527.646
540.611
566.604
598.708
629.789
653.224
668.083
674.651
675.703
672.712
666.614
657.972
647.381
635.131
621.751
607.323
592.273
576.728
560.972
545.008
529.151
513.291
497.622
482.085
466.887
451.956
437.37
423.252
409.503
396.192
383.247
370.731
358.708
347.211
336.146
325.517
315.332
305.592
296.283
287.401
278.92
270.835
263.113
255.756
248.719
242.019
235.596
229.487
223.61
218.03
212.638
207.53
202.568
197.878
193.303
188.985
184.759
180.763
176.853
173.138
169.51
166.046
162.662
159.426
156.257
153.229
150.253
147.415
144.622
141.965
139.346
136.864
134.423
132.126
129.862
127.784
125.68
123.869
121.909
120.372
118.55
117.249
115.588
114.489
112.966
112.057
110.594
109.898
108.437
107.926
106.433
106.008
104.521
104.167
102.711
102.489
101.048
439.301
441.203
439.573
434.495
427.941
422.555
418.207
416.323
416.686
420.668
427.701
437.867
450.468
464.678
478.916
492.116
502.798
510.402
514.161
514.278
510.869
504.882
496.573
486.734
475.75
464.042
451.79
439.145
426.59
414.057
401.711
389.554
377.527
365.918
354.66
343.785
333.279
322.981
313.042
303.51
294.4
285.703
277.412
269.502
261.965
254.766
247.906
241.338
235.08
229.072
223.352
217.838
212.596
207.519
202.705
198.017
193.583
189.247
185.152
181.138
177.339
173.619
170.082
166.628
163.329
160.11
157.031
154.022
151.149
148.338
145.656
143.04
140.546
138.126
135.816
133.606
131.493
129.5
127.62
125.828
124.235
122.612
121.318
119.831
118.798
117.44
116.623
115.348
114.716
113.432
112.976
111.632
111.285
109.86
109.516
108.039
107.713
106.218
105.99
104.523
369.173
371.226
371.079
367.569
360.886
352.13
341.774
330.727
319.437
308.863
299.392
291.882
287.109
285.921
288.913
296.379
307.987
322.919
339.687
356.837
372.226
385.491
394.138
399.221
401.144
400.248
397.075
391.91
385.425
377.88
369.588
360.771
351.378
342.005
332.375
322.741
313.166
304.078
295.415
287.144
279.248
271.701
264.49
257.587
250.983
244.644
238.576
232.733
227.141
221.741
216.579
211.575
206.801
202.154
197.735
193.412
189.316
185.293
181.491
177.751
174.211
170.736
167.432
164.205
161.123
158.119
155.249
152.455
149.791
147.202
144.735
142.359
140.092
137.943
135.879
133.981
132.132
130.506
128.909
127.535
126.246
125.073
124.101
123.057
122.357
121.391
120.902
119.932
119.594
118.512
118.282
117.044
116.82
115.421
115.102
113.573
113.221
111.613
111.343
109.766
309.709
309.595
308.55
305.21
299.414
291.478
282.161
272.053
262.264
253.03
245.429
239.544
235.683
233.663
233.469
234.485
236.939
240.123
244.913
250.234
257.67
265.102
275.426
286.39
296.941
306.167
313.686
319.013
322.143
323.108
322.062
319.228
314.707
308.658
302.171
295.488
288.516
281.834
275.398
269.169
263.127
257.251
251.538
245.973
240.563
235.288
230.17
225.176
220.344
215.627
211.079
206.629
202.359
198.17
194.17
190.231
186.491
182.799
179.306
175.858
172.595
169.386
166.341
163.364
160.531
157.777
155.156
152.619
150.213
147.9
145.712
143.644
141.682
139.888
138.16
136.678
135.199
134.058
132.858
132.039
131.161
130.578
130.014
129.539
129.222
128.737
128.577
127.95
127.855
126.958
126.855
125.653
125.427
123.952
123.531
121.84
121.355
119.522
119.144
117.349
235.953
236.739
237.14
236.708
235.497
233.948
232.742
232.514
233.873
236.767
241.393
246.947
253.334
259.937
266.027
271.305
275.551
278.873
281.419
283.105
284.212
285.104
285.793
286.613
287.638
288.819
290.059
291.163
292.026
292.424
292.278
291.346
289.641
286.873
283.498
279.734
275.575
271.158
266.577
261.892
257.147
252.37
247.596
242.833
238.116
233.442
228.847
224.312
219.887
215.53
211.305
207.147
203.144
199.2
195.428
191.703
188.169
184.674
181.377
178.118
175.05
172.034
169.192
166.423
163.811
161.288
158.915
156.644
154.523
152.525
150.669
148.976
147.405
146.061
144.785
143.841
142.869
142.361
141.701
141.598
141.251
141.411
141.318
141.522
141.566
141.602
141.649
141.32
141.255
140.425
140.187
138.855
138.364
136.637
135.887
133.887
133.09
130.915
130.323
128.212
255.234
255.712
256.427
258.121
261.056
265.609
271.551
278.94
287.014
295.658
304.149
312.199
319.113
324.745
329.261
332.773
335.432
337.477
339.02
340.142
340.964
341.278
341.173
340.664
339.833
338.67
337.184
335.382
333.268
330.787
327.97
324.708
321.104
316.983
312.362
307.362
302.025
296.421
290.633
284.733
278.792
272.861
266.992
261.205
255.543
250.002
244.62
239.372
234.308
229.378
224.642
220.029
215.628
211.333
207.257
203.27
199.519
195.844
192.408
189.043
185.912
182.861
180.031
177.3
174.777
172.371
170.166
168.1
166.235
164.539
163.037
161.755
160.642
159.826
159.111
158.814
158.485
158.729
158.738
159.445
159.69
160.624
160.93
161.747
161.914
162.297
162.161
161.876
161.365
160.324
159.474
157.769
156.612
154.455
153.075
150.674
149.341
146.805
145.855
143.45
326.4
325.737
325.706
327.011
329.862
334.2
339.765
346.32
353.361
360.761
368.12
375.097
381.461
387.098
391.984
396.069
399.469
402.061
403.938
405.211
405.962
406.241
406.068
405.449
404.373
402.811
400.744
398.233
395.163
391.619
387.464
382.808
377.55
371.763
365.555
358.963
351.979
344.695
337.202
329.584
321.922
314.281
306.729
299.302
292.054
285
278.178
271.577
265.247
259.142
253.314
247.702
242.385
237.26
232.429
227.766
223.413
219.209
215.315
211.554
208.1
204.78
201.756
198.881
196.293
193.872
191.733
189.787
188.125
186.694
185.541
184.674
184.052
183.793
183.696
184.069
184.433
185.401
186.066
187.445
188.139
189.558
189.942
190.954
190.754
191.008
190.11
189.444
187.926
186.386
184.461
182.248
180.09
177.5
175.259
172.557
170.505
167.806
166.345
163.895
385.163
384.673
384.949
386.678
390.147
395.279
401.944
409.798
418.533
427.503
436.215
444.406
451.807
458.365
463.951
468.635
472.38
475.294
477.343
478.641
479.145
478.944
478.006
476.401
474.066
471.089
467.438
463.166
458.259
452.8
446.722
440.179
433.098
425.647
417.919
409.864
401.621
393.265
384.846
376.406
367.986
359.623
351.356
343.212
335.235
327.443
319.869
312.516
305.434
298.59
292.029
285.715
279.721
273.956
268.515
263.291
258.42
253.754
249.447
245.324
241.569
237.994
234.789
231.778
229.138
226.713
224.662
222.857
221.435
220.302
219.543
219.125
219.036
219.344
219.874
220.862
221.856
223.364
224.497
226.182
226.986
228.352
228.357
228.951
227.891
227.477
225.382
223.986
221.141
218.971
215.757
213.091
209.783
206.943
203.717
200.983
198.067
195.576
193.419
191.382
455.498
455.358
456.067
458.394
462.702
468.945
476.915
486.317
496.637
507.488
518.215
528.469
537.873
546.164
553.117
558.681
562.754
565.415
566.609
566.478
564.975
562.275
558.428
553.53
547.713
541.113
533.911
526.204
518.157
509.789
501.254
492.583
483.879
475.138
466.314
457.436
448.635
439.92
431.295
422.772
414.357
406.063
397.899
389.874
382.015
374.33
366.835
359.537
352.48
345.631
339.03
332.659
326.59
320.738
315.192
309.866
304.903
300.161
295.795
291.629
287.862
284.296
281.15
278.225
275.74
273.504
271.724
270.231
269.209
268.518
268.283
268.411
268.928
269.819
270.954
272.442
273.9
275.648
276.925
278.425
278.901
279.615
278.798
278.405
276.156
274.663
271.207
268.88
264.673
261.852
257.36
254.367
249.901
247.057
242.77
240.364
236.405
234.65
231.502
230.596
547.073
547.432
548.853
552.29
558.284
566.788
577.624
590.349
604.392
619.029
633.402
646.866
658.765
668.516
675.846
680.562
682.639
682.174
679.323
674.364
667.51
659.156
649.556
638.994
627.851
616.295
604.646
592.99
581.529
570.318
559.499
549.06
539.037
529.406
520.094
511.115
502.383
493.862
485.535
477.391
469.424
461.636
454.019
446.572
439.311
432.228
425.326
418.61
412.12
405.808
399.714
393.83
388.224
382.808
377.688
372.764
368.195
363.844
359.869
356.086
352.709
349.537
346.813
344.324
342.322
340.592
339.373
338.468
338.089
338.056
338.515
339.311
340.493
341.95
343.591
345.379
347.023
348.623
349.623
350.425
350.132
349.679
347.728
345.948
342.411
339.608
334.889
331.533
326.16
322.686
317.121
313.886
308.399
305.75
300.413
298.722
293.512
293.219
288.629
290.003
688.252
689.308
691.751
696.933
705.674
717.966
733.519
751.534
771.117
790.714
809.221
825.152
837.568
845.656
849.273
848.318
843.235
834.475
822.771
808.788
793.201
776.652
759.61
742.564
725.856
709.585
694.074
679.21
665.194
652
639.661
628.127
617.35
607.268
597.829
588.972
580.561
572.515
564.779
557.31
550.079
543.083
536.301
529.725
523.357
517.187
511.201
505.401
499.834
494.435
489.235
484.239
479.516
474.975
470.703
466.595
462.866
459.367
456.232
453.262
450.698
448.337
446.438
444.785
443.639
442.782
442.45
442.443
442.953
443.79
445.069
446.599
448.405
450.306
452.216
453.982
455.4
456.395
456.642
456.276
454.831
452.847
449.608
446.237
441.506
437.307
431.594
427.168
420.988
416.826
410.567
407.074
400.913
398.516
392.372
391.688
385.116
387.249
380.585
386.147
930.647
932.68
936.607
944.578
957.809
976.178
998.664
1023.72
1049.2
1072.54
1092.06
1105.19
1111.2
1109.59
1101.03
1086.21
1066.69
1043.61
1018.49
992.458
966.4
941.076
916.698
893.804
872.336
852.417
834.195
817.344
801.977
787.887
774.99
763.147
752.301
742.37
733.26
724.892
717.14
709.9
703.086
696.632
690.485
684.633
679.035
673.676
668.55
663.647
658.938
654.423
650.162
646.08
642.174
638.487
635.102
631.909
628.949
626.126
623.726
621.541
619.705
618.01
616.716
615.618
614.976
614.575
614.662
615.032
615.877
617.018
618.568
620.366
622.423
624.574
626.741
628.75
630.456
631.693
632.306
632.161
631.121
629.162
626.242
622.506
617.95
612.949
607.221
601.664
595.299
589.842
583.307
578.44
572.025
568.181
561.981
559.713