/*--------------------------------*- C++ -*----------------------------------*\
| =========                 |                                                 |
| \\      /  F ield         | OpenFOAM: The Open Source CFD Toolbox           |
|  \\    /   O peration     | Version:  v2012                                 |
|   \\  /    A nd           | Website:  www.openfoam.com                      |
|    \\/     M anipulation  |                                                 |
\*---------------------------------------------------------------------------*/
FoamFile
{
    version     2.0;
    format      ascii;
    class       volVectorField;
    location    "0.397";
    object      U.air;
}
// * * * * * * * * * * * * * * * * * * * * * * * * * * * * * * * * * * * * * //

dimensions      [0 1 -1 0 0 0 0];


internalField   nonuniform List<vector> 
1900
(
(39.9676 0.00859688 0)
(39.9239 0.015103 0)
(39.8679 0.0180588 0)
(39.8035 0.0207993 0)
(39.73 0.0237062 0)
(39.6526 0.0267683 0)
(39.5681 0.0297565 0)
(39.4712 0.034433 0)
(39.3801 0.0347839 0)
(39.2118 0.0735029 0)
(40.0053 0.0147927 0)
(40.0212 0.0233975 0)
(40.0401 0.0257182 0)
(40.0561 0.0277458 0)
(40.0726 0.0304775 0)
(40.0898 0.0329399 0)
(40.1095 0.0364838 0)
(40.1257 0.0385578 0)
(40.1466 0.0533817 0)
(40.1568 0.0585715 0)
(40.0029 0.00824746 0)
(40.0161 0.0135856 0)
(40.0335 0.0137912 0)
(40.051 0.0145443 0)
(40.0688 0.0163129 0)
(40.0879 0.0182043 0)
(40.1087 0.0208556 0)
(40.1299 0.0248049 0)
(40.1543 0.0350812 0)
(40.1844 0.0529454 0)
(40.0018 0.00414496 0)
(40.0132 0.00782145 0)
(40.0301 0.00860527 0)
(40.0479 0.00970547 0)
(40.066 0.0114323 0)
(40.0852 0.0132518 0)
(40.1064 0.0158683 0)
(40.1291 0.0197454 0)
(40.1561 0.0288801 0)
(40.1894 0.0416246 0)
(40.0015 0.001112 0)
(40.012 0.00211927 0)
(40.0285 0.00232727 0)
(40.0464 0.0026624 0)
(40.0645 0.00325309 0)
(40.084 0.00405071 0)
(40.1056 0.00562475 0)
(40.1294 0.00842124 0)
(40.1575 0.0146682 0)
(40.1918 0.0210543 0)
(40.0016 -0.00180292 0)
(40.0122 -0.00371605 0)
(40.0288 -0.00416326 0)
(40.0468 -0.00431399 0)
(40.065 -0.0043608 0)
(40.0846 -0.00401593 0)
(40.1066 -0.00289514 0)
(40.1311 -0.000789746 0)
(40.1597 0.00317608 0)
(40.1936 0.00640818 0)
(40.0019 -0.00486279 0)
(40.0136 -0.00947527 0)
(40.0308 -0.0105123 0)
(40.0489 -0.0114613 0)
(40.0672 -0.0126727 0)
(40.0871 -0.0134371 0)
(40.1094 -0.0134428 0)
(40.1344 -0.0127054 0)
(40.163 -0.0110203 0)
(40.1957 -0.0104531 0)
(40.0032 -0.00926928 0)
(40.0168 -0.0153327 0)
(40.0348 -0.0157394 0)
(40.0527 -0.016477 0)
(40.0709 -0.01804 0)
(40.0911 -0.0194037 0)
(40.1136 -0.0202816 0)
(40.1388 -0.020797 0)
(40.1672 -0.0210301 0)
(40.1987 -0.0225689 0)
(40.0057 -0.0162088 0)
(40.0223 -0.0253699 0)
(40.042 -0.0274341 0)
(40.0582 -0.0288787 0)
(40.0751 -0.0308085 0)
(40.0938 -0.0324197 0)
(40.1145 -0.0335734 0)
(40.1374 -0.0344434 0)
(40.1628 -0.0352272 0)
(40.1893 -0.0366674 0)
(39.9675 -0.0101412 0)
(39.9214 -0.0185951 0)
(39.8645 -0.0229106 0)
(39.797 -0.0265887 0)
(39.7223 -0.0303253 0)
(39.6428 -0.0339089 0)
(39.5582 -0.0373399 0)
(39.4686 -0.0407417 0)
(39.3739 -0.044104 0)
(39.2741 -0.0480425 0)
(39.1724 -0.0392832 0)
(38.0177 -0.354715 0)
(36.4706 -0.795029 0)
(34.9649 -1.35456 0)
(33.8571 -1.88881 0)
(33.1084 -2.33222 0)
(32.5392 -2.60364 0)
(32.0829 -2.66924 0)
(31.6443 -2.56933 0)
(31.2125 -2.34915 0)
(30.7877 -2.0706 0)
(30.3643 -1.77937 0)
(29.9522 -1.50818 0)
(29.5487 -1.27225 0)
(29.1576 -1.07643 0)
(28.778 -0.916464 0)
(28.4112 -0.78793 0)
(28.0641 -0.687542 0)
(27.7412 -0.609499 0)
(27.4426 -0.5468 0)
(27.1683 -0.495118 0)
(26.9181 -0.45233 0)
(26.6951 -0.41721 0)
(26.4949 -0.387177 0)
(26.3182 -0.360398 0)
(26.1597 -0.335747 0)
(26.0249 -0.314169 0)
(25.91 -0.295706 0)
(25.8115 -0.279395 0)
(25.7267 -0.264379 0)
(25.6539 -0.250616 0)
(25.5905 -0.238123 0)
(25.5362 -0.226998 0)
(25.4877 -0.216792 0)
(25.445 -0.207373 0)
(25.4078 -0.198527 0)
(25.3758 -0.19017 0)
(25.3482 -0.182405 0)
(25.3251 -0.175391 0)
(25.306 -0.168985 0)
(25.2906 -0.163086 0)
(25.2787 -0.157583 0)
(25.2698 -0.152309 0)
(25.2631 -0.147187 0)
(25.2584 -0.142431 0)
(25.2556 -0.138116 0)
(25.2546 -0.134106 0)
(25.2551 -0.130121 0)
(25.2571 -0.12622 0)
(25.2605 -0.122526 0)
(25.2652 -0.119147 0)
(25.2711 -0.116044 0)
(25.2782 -0.113108 0)
(25.2865 -0.110252 0)
(25.2957 -0.107462 0)
(25.3058 -0.104768 0)
(25.3167 -0.102236 0)
(25.3284 -0.0998861 0)
(25.3407 -0.0976865 0)
(25.3536 -0.0955649 0)
(25.367 -0.0934795 0)
(25.381 -0.0914326 0)
(25.3953 -0.0894938 0)
(25.41 -0.0876785 0)
(25.4251 -0.0859784 0)
(25.4405 -0.0843414 0)
(25.4562 -0.0827519 0)
(25.4721 -0.0811982 0)
(25.4882 -0.0797031 0)
(25.5045 -0.0782641 0)
(25.5209 -0.0768951 0)
(25.5375 -0.075578 0)
(25.5541 -0.0743071 0)
(25.5708 -0.0730604 0)
(25.5875 -0.0718452 0)
(25.6042 -0.0706552 0)
(25.6208 -0.0695084 0)
(25.6375 -0.0683857 0)
(25.6539 -0.0672985 0)
(25.6704 -0.066216 0)
(25.6866 -0.06516 0)
(25.7028 -0.0641063 0)
(25.7186 -0.0630857 0)
(25.7345 -0.0620661 0)
(25.75 -0.0610747 0)
(25.7655 -0.0600792 0)
(25.7805 -0.0591114 0)
(25.7956 -0.0581447 0)
(25.8103 -0.0572134 0)
(25.8249 -0.0562908 0)
(25.8391 -0.0554162 0)
(25.8533 -0.0545558 0)
(25.867 -0.0537845 0)
(25.8809 -0.0530293 0)
(25.8941 -0.0525309 0)
(25.9078 -0.0519791 0)
(25.9204 -0.0522651 0)
(25.9349 -0.0520668 0)
(25.9452 -0.0543086 0)
(25.9652 -0.0544219 0)
(40.259 0.20537 0)
(40.4989 0.295871 0)
(40.6487 -0.0460548 0)
(40.4722 -0.668261 0)
(39.9271 -1.3308 0)
(39.098 -1.8941 0)
(38.1063 -2.25377 0)
(37.0581 -2.3838 0)
(36.0566 -2.32232 0)
(35.1522 -2.13272 0)
(34.368 -1.88021 0)
(33.6989 -1.61247 0)
(33.1351 -1.36039 0)
(32.6562 -1.14015 0)
(32.2424 -0.955897 0)
(31.8709 -0.803667 0)
(31.5232 -0.68016 0)
(31.1897 -0.583289 0)
(30.8659 -0.508126 0)
(30.5468 -0.447823 0)
(30.2281 -0.398061 0)
(29.9177 -0.358948 0)
(29.6229 -0.329866 0)
(29.343 -0.306868 0)
(29.078 -0.286796 0)
(28.8286 -0.269619 0)
(28.5975 -0.256256 0)
(28.3871 -0.245734 0)
(28.1951 -0.236291 0)
(28.0212 -0.227179 0)
(27.8622 -0.21849 0)
(27.7176 -0.210404 0)
(27.5862 -0.202799 0)
(27.4678 -0.195504 0)
(27.3609 -0.188459 0)
(27.264 -0.181652 0)
(27.1763 -0.175106 0)
(27.0971 -0.168969 0)
(27.0259 -0.163396 0)
(26.9616 -0.158305 0)
(26.9039 -0.153561 0)
(26.8513 -0.149027 0)
(26.803 -0.144624 0)
(26.7589 -0.140372 0)
(26.7188 -0.13643 0)
(26.6824 -0.132865 0)
(26.6496 -0.129541 0)
(26.6201 -0.126272 0)
(26.5935 -0.123019 0)
(26.5698 -0.119922 0)
(26.5488 -0.117113 0)
(26.5301 -0.114549 0)
(26.5138 -0.112128 0)
(26.4996 -0.109742 0)
(26.4874 -0.107364 0)
(26.477 -0.105025 0)
(26.4682 -0.102786 0)
(26.4606 -0.100691 0)
(26.4543 -0.0987448 0)
(26.4492 -0.0968623 0)
(26.4452 -0.0949974 0)
(26.4423 -0.0931409 0)
(26.4405 -0.0914018 0)
(26.4395 -0.0897856 0)
(26.4393 -0.088285 0)
(26.4398 -0.0867808 0)
(26.441 -0.0853155 0)
(26.4428 -0.083877 0)
(26.4452 -0.0824837 0)
(26.448 -0.0811335 0)
(26.4512 -0.0798431 0)
(26.4548 -0.0785955 0)
(26.4588 -0.0773821 0)
(26.463 -0.0761798 0)
(26.4674 -0.0749947 0)
(26.4719 -0.0738251 0)
(26.4766 -0.0726885 0)
(26.4814 -0.0715714 0)
(26.4863 -0.0704785 0)
(26.4911 -0.0693864 0)
(26.496 -0.0683089 0)
(26.5009 -0.0672303 0)
(26.5057 -0.066179 0)
(26.5106 -0.0651263 0)
(26.5153 -0.0640994 0)
(26.52 -0.0630639 0)
(26.5246 -0.0620561 0)
(26.5292 -0.0610443 0)
(26.5336 -0.0600704 0)
(26.538 -0.0591004 0)
(26.5423 -0.0581822 0)
(26.5465 -0.0572742 0)
(26.5506 -0.0564612 0)
(26.5547 -0.0556615 0)
(26.5586 -0.0551282 0)
(26.5626 -0.0545466 0)
(26.5663 -0.0548245 0)
(26.5703 -0.054563 0)
(26.5737 -0.0569862 0)
(26.5795 -0.0567943 0)
(40.2699 0.127743 0)
(40.4561 0.0177445 0)
(40.6021 -0.368696 0)
(40.4975 -0.908899 0)
(40.0434 -1.44081 0)
(39.2826 -1.86015 0)
(38.3233 -2.09987 0)
(37.2921 -2.15548 0)
(36.2749 -2.06656 0)
(35.3649 -1.88539 0)
(34.5849 -1.65926 0)
(33.9352 -1.42321 0)
(33.4068 -1.20179 0)
(32.9847 -1.00854 0)
(32.6477 -0.845368 0)
(32.3723 -0.707724 0)
(32.1438 -0.594246 0)
(31.955 -0.505023 0)
(31.7961 -0.434854 0)
(31.6531 -0.376304 0)
(31.516 -0.327302 0)
(31.3832 -0.289437 0)
(31.2497 -0.260933 0)
(31.1129 -0.238387 0)
(30.9693 -0.21902 0)
(30.816 -0.202474 0)
(30.6528 -0.189923 0)
(30.4821 -0.180913 0)
(30.3068 -0.17364 0)
(30.1289 -0.166961 0)
(29.9497 -0.16094 0)
(29.7719 -0.156012 0)
(29.5984 -0.152172 0)
(29.4342 -0.148951 0)
(29.2794 -0.14599 0)
(29.1338 -0.143131 0)
(28.9975 -0.140464 0)
(28.8709 -0.138089 0)
(28.7539 -0.13594 0)
(28.6457 -0.133851 0)
(28.5455 -0.131746 0)
(28.4522 -0.1295 0)
(28.3651 -0.126956 0)
(28.2842 -0.124231 0)
(28.2093 -0.121631 0)
(28.14 -0.119276 0)
(28.0758 -0.117041 0)
(28.0162 -0.114747 0)
(27.961 -0.112371 0)
(27.9098 -0.110034 0)
(27.8622 -0.107897 0)
(27.8178 -0.105983 0)
(27.7765 -0.104226 0)
(27.7382 -0.10252 0)
(27.7028 -0.100804 0)
(27.67 -0.0990883 0)
(27.6397 -0.0974512 0)
(27.6116 -0.0959237 0)
(27.5858 -0.0944914 0)
(27.5619 -0.0930789 0)
(27.5399 -0.0916438 0)
(27.5197 -0.0901883 0)
(27.5011 -0.0887589 0)
(27.4835 -0.0873759 0)
(27.4671 -0.0860821 0)
(27.4516 -0.0848297 0)
(27.4373 -0.0836129 0)
(27.4236 -0.0823837 0)
(27.4109 -0.0811817 0)
(27.3987 -0.0799886 0)
(27.3873 -0.0788502 0)
(27.3762 -0.0777263 0)
(27.3658 -0.0766293 0)
(27.3556 -0.0755131 0)
(27.3458 -0.0744088 0)
(27.3362 -0.0732953 0)
(27.327 -0.0722159 0)
(27.3179 -0.0711341 0)
(27.309 -0.0700783 0)
(27.3002 -0.0690043 0)
(27.2917 -0.0679495 0)
(27.2832 -0.0668805 0)
(27.2749 -0.0658389 0)
(27.2666 -0.0647905 0)
(27.2585 -0.0637667 0)
(27.2504 -0.062733 0)
(27.2425 -0.0617239 0)
(27.2346 -0.0607124 0)
(27.2269 -0.0597349 0)
(27.2192 -0.058765 0)
(27.2116 -0.0578416 0)
(27.2041 -0.0569339 0)
(27.1968 -0.056115 0)
(27.1894 -0.0553158 0)
(27.1823 -0.0547765 0)
(27.1749 -0.0541997 0)
(27.1683 -0.054465 0)
(27.1605 -0.0542665 0)
(27.1552 -0.0566432 0)
(27.1446 -0.0564506 0)
(40.2634 0.0673391 0)
(40.4034 0.00416998 0)
(40.4966 -0.262167 0)
(40.3657 -0.678571 0)
(39.9156 -1.11199 0)
(39.179 -1.46757 0)
(38.2537 -1.69384 0)
(37.2569 -1.77788 0)
(36.2687 -1.73939 0)
(35.3817 -1.61412 0)
(34.6136 -1.43987 0)
(33.9659 -1.24813 0)
(33.4365 -1.06427 0)
(33.0128 -0.901553 0)
(32.6708 -0.761205 0)
(32.389 -0.640744 0)
(32.1602 -0.541912 0)
(31.9807 -0.465122 0)
(31.8367 -0.403618 0)
(31.7116 -0.350098 0)
(31.6016 -0.304706 0)
(31.5126 -0.270389 0)
(31.4441 -0.244863 0)
(31.3836 -0.222162 0)
(31.3228 -0.200056 0)
(31.2658 -0.180757 0)
(31.2165 -0.165831 0)
(31.1705 -0.153957 0)
(31.1235 -0.143652 0)
(31.0723 -0.133994 0)
(31.0146 -0.124922 0)
(30.9505 -0.117361 0)
(30.8806 -0.111967 0)
(30.8051 -0.108274 0)
(30.7229 -0.105262 0)
(30.6333 -0.102407 0)
(30.5364 -0.0998807 0)
(30.4336 -0.098076 0)
(30.3268 -0.0969624 0)
(30.2182 -0.0962287 0)
(30.109 -0.0955681 0)
(30.0005 -0.0948134 0)
(29.8936 -0.094053 0)
(29.7898 -0.0934568 0)
(29.6905 -0.0931173 0)
(29.5961 -0.0929517 0)
(29.5062 -0.0927591 0)
(29.4205 -0.0924074 0)
(29.3393 -0.091971 0)
(29.2626 -0.0915358 0)
(29.1905 -0.0910683 0)
(29.1224 -0.0905297 0)
(29.0579 -0.0899096 0)
(28.9963 -0.0891968 0)
(28.9379 -0.0883969 0)
(28.8822 -0.0874957 0)
(28.8296 -0.086561 0)
(28.7799 -0.0856729 0)
(28.733 -0.0848399 0)
(28.6884 -0.083986 0)
(28.6461 -0.0830669 0)
(28.6059 -0.0821202 0)
(28.5678 -0.0811856 0)
(28.5311 -0.0802426 0)
(28.4963 -0.0793162 0)
(28.4626 -0.078377 0)
(28.4304 -0.0774232 0)
(28.3989 -0.0764249 0)
(28.3686 -0.0754183 0)
(28.3388 -0.0743954 0)
(28.31 -0.0734079 0)
(28.2814 -0.0724207 0)
(28.2537 -0.0714406 0)
(28.2261 -0.0704286 0)
(28.1993 -0.0694137 0)
(28.1726 -0.0683859 0)
(28.1466 -0.0673845 0)
(28.1206 -0.0663797 0)
(28.0953 -0.0653919 0)
(28.07 -0.0643859 0)
(28.0454 -0.0633976 0)
(28.0208 -0.0623981 0)
(27.9969 -0.0614223 0)
(27.973 -0.0604365 0)
(27.9498 -0.0594731 0)
(27.9265 -0.0584972 0)
(27.904 -0.0575467 0)
(27.8815 -0.0565912 0)
(27.8596 -0.0556719 0)
(27.8377 -0.0547574 0)
(27.8166 -0.0538909 0)
(27.7954 -0.0530395 0)
(27.775 -0.0522738 0)
(27.7544 -0.0515314 0)
(27.7348 -0.0510337 0)
(27.7145 -0.0505158 0)
(27.6962 -0.0507825 0)
(27.6747 -0.0506787 0)
(27.6601 -0.05289 0)
(27.6311 -0.0531151 0)
(40.2555 0.0314289 0)
(40.3567 -0.0318831 0)
(40.4022 -0.258915 0)
(40.2468 -0.617321 0)
(39.8045 -0.995503 0)
(39.098 -1.30663 0)
(38.2123 -1.50469 0)
(37.2566 -1.57682 0)
(36.2994 -1.54021 0)
(35.4319 -1.42847 0)
(34.6709 -1.27406 0)
(34.0238 -1.10529 0)
(33.4938 -0.945344 0)
(33.0666 -0.803843 0)
(32.7151 -0.679483 0)
(32.4244 -0.572819 0)
(32.195 -0.487762 0)
(32.0166 -0.421756 0)
(31.8652 -0.365989 0)
(31.7294 -0.316419 0)
(31.6183 -0.276787 0)
(31.5362 -0.248742 0)
(31.4683 -0.226206 0)
(31.4011 -0.203986 0)
(31.3383 -0.183604 0)
(31.289 -0.168087 0)
(31.2531 -0.156889 0)
(31.2225 -0.147332 0)
(31.1914 -0.137783 0)
(31.1588 -0.12801 0)
(31.1316 -0.11948 0)
(31.1117 -0.11277 0)
(31.0959 -0.107419 0)
(31.08 -0.102584 0)
(31.0616 -0.0974526 0)
(31.041 -0.0920575 0)
(31.0211 -0.0871349 0)
(31.001 -0.0830105 0)
(30.9796 -0.0798174 0)
(30.9554 -0.0772048 0)
(30.9269 -0.0746838 0)
(30.893 -0.0721699 0)
(30.854 -0.0700389 0)
(30.8103 -0.0686173 0)
(30.7625 -0.0678775 0)
(30.7107 -0.0674884 0)
(30.6546 -0.0670897 0)
(30.5942 -0.0665982 0)
(30.5298 -0.0661817 0)
(30.4625 -0.0659873 0)
(30.3937 -0.0660229 0)
(30.3243 -0.0662059 0)
(30.2547 -0.0663934 0)
(30.1851 -0.0665035 0)
(30.1156 -0.0665563 0)
(30.0464 -0.0666162 0)
(29.9787 -0.0667674 0)
(29.912 -0.0669675 0)
(29.8469 -0.0671465 0)
(29.7825 -0.0672443 0)
(29.7199 -0.067226 0)
(29.6582 -0.0670855 0)
(29.5981 -0.0668263 0)
(29.5394 -0.0664907 0)
(29.4822 -0.0661167 0)
(29.426 -0.06569 0)
(29.3712 -0.0651886 0)
(29.317 -0.0645861 0)
(29.2642 -0.0639169 0)
(29.2119 -0.0631844 0)
(29.161 -0.0624481 0)
(29.1102 -0.0616813 0)
(29.0609 -0.0608955 0)
(29.0117 -0.0600587 0)
(28.9639 -0.0592027 0)
(28.9162 -0.0583211 0)
(28.8699 -0.0574597 0)
(28.8236 -0.056589 0)
(28.7787 -0.0557321 0)
(28.7339 -0.0548569 0)
(28.6904 -0.0539749 0)
(28.647 -0.0530785 0)
(28.6049 -0.0522146 0)
(28.5629 -0.051352 0)
(28.5223 -0.0505151 0)
(28.4817 -0.0496722 0)
(28.4426 -0.0488557 0)
(28.4035 -0.0480379 0)
(28.3658 -0.0472567 0)
(28.3282 -0.0464819 0)
(28.292 -0.045754 0)
(28.2558 -0.045044 0)
(28.2211 -0.0444123 0)
(28.1862 -0.0438116 0)
(28.1531 -0.043422 0)
(28.119 -0.0430494 0)
(28.0883 -0.0433166 0)
(28.0523 -0.0434261 0)
(28.0279 -0.0452811 0)
(27.9796 -0.0464646 0)
(40.2478 0.00636934 0)
(40.3189 -0.0529351 0)
(40.3277 -0.234955 0)
(40.154 -0.518804 0)
(39.7188 -0.818107 0)
(39.0361 -1.06199 0)
(38.1811 -1.21598 0)
(37.2551 -1.27213 0)
(36.3237 -1.2453 0)
(35.4712 -1.16096 0)
(34.7158 -1.04209 0)
(34.0723 -0.911735 0)
(33.5432 -0.78716 0)
(33.1082 -0.673981 0)
(32.7454 -0.572475 0)
(32.4506 -0.486423 0)
(32.2217 -0.419439 0)
(32.0365 -0.365835 0)
(31.8701 -0.317391 0)
(31.728 -0.275938 0)
(31.6237 -0.24652 0)
(31.543 -0.225079 0)
(31.4634 -0.204309 0)
(31.3862 -0.18379 0)
(31.3251 -0.16769 0)
(31.2815 -0.156732 0)
(31.2446 -0.147746 0)
(31.2066 -0.13802 0)
(31.167 -0.127755 0)
(31.1346 -0.11942 0)
(31.1111 -0.113261 0)
(31.0926 -0.108175 0)
(31.0745 -0.103157 0)
(31.0541 -0.0977791 0)
(31.0344 -0.0926784 0)
(31.0193 -0.0885376 0)
(31.0081 -0.0851724 0)
(30.9985 -0.0822502 0)
(30.9884 -0.079576 0)
(30.9768 -0.0768506 0)
(30.9653 -0.0741301 0)
(30.9559 -0.0714749 0)
(30.9474 -0.0689567 0)
(30.9387 -0.06685 0)
(30.9292 -0.065145 0)
(30.9178 -0.0634975 0)
(30.9045 -0.0616476 0)
(30.8895 -0.0596412 0)
(30.8729 -0.0577466 0)
(30.8542 -0.0562029 0)
(30.8327 -0.055027 0)
(30.8077 -0.0540745 0)
(30.7787 -0.0531645 0)
(30.7456 -0.0522208 0)
(30.7085 -0.051289 0)
(30.6676 -0.0505269 0)
(30.623 -0.049935 0)
(30.5744 -0.0494644 0)
(30.522 -0.0490276 0)
(30.4659 -0.0486013 0)
(30.4065 -0.0481763 0)
(30.3442 -0.047755 0)
(30.2795 -0.0473605 0)
(30.2129 -0.0470074 0)
(30.1445 -0.0466816 0)
(30.0748 -0.0463555 0)
(30.0042 -0.045989 0)
(29.9329 -0.0455699 0)
(29.8616 -0.0451042 0)
(29.79 -0.0446153 0)
(29.7191 -0.0441293 0)
(29.6481 -0.043634 0)
(29.5783 -0.0431269 0)
(29.5085 -0.0425828 0)
(29.4403 -0.0420225 0)
(29.3723 -0.041433 0)
(29.306 -0.0408601 0)
(29.24 -0.0402765 0)
(29.1758 -0.0397084 0)
(29.112 -0.0391196 0)
(29.05 -0.0385594 0)
(28.9885 -0.0379925 0)
(28.929 -0.0374358 0)
(28.8699 -0.0368756 0)
(28.8129 -0.0363293 0)
(28.7563 -0.0357801 0)
(28.7019 -0.0352499 0)
(28.6477 -0.0347229 0)
(28.5959 -0.034225 0)
(28.5442 -0.0337365 0)
(28.495 -0.0332866 0)
(28.4457 -0.0328539 0)
(28.3989 -0.0324841 0)
(28.3518 -0.0321524 0)
(28.3075 -0.0319747 0)
(28.2617 -0.0318695 0)
(28.2208 -0.0321646 0)
(28.1729 -0.0326447 0)
(28.1403 -0.0339063 0)
(28.076 -0.036634 0)
(40.2419 -0.0161657 0)
(40.2904 -0.0671903 0)
(40.2717 -0.206836 0)
(40.0832 -0.423797 0)
(39.6529 -0.656248 0)
(38.9885 -0.849194 0)
(38.1577 -0.975743 0)
(37.2543 -1.028 0)
(36.3427 -1.01541 0)
(35.4985 -0.955321 0)
(34.7448 -0.864415 0)
(34.099 -0.762992 0)
(33.5619 -0.665037 0)
(33.1095 -0.572657 0)
(32.7322 -0.489523 0)
(32.437 -0.422516 0)
(32.2015 -0.368946 0)
(31.9928 -0.320893 0)
(31.8126 -0.278593 0)
(31.6758 -0.247049 0)
(31.5683 -0.224048 0)
(31.4652 -0.203049 0)
(31.3668 -0.182585 0)
(31.2868 -0.166026 0)
(31.2253 -0.154478 0)
(31.1697 -0.145278 0)
(31.1124 -0.135689 0)
(31.0559 -0.125735 0)
(31.0081 -0.117634 0)
(30.9684 -0.111893 0)
(30.9316 -0.107119 0)
(30.8941 -0.102 0)
(30.8543 -0.0964731 0)
(30.8169 -0.0916006 0)
(30.7833 -0.087864 0)
(30.7517 -0.0848223 0)
(30.7201 -0.0817199 0)
(30.6875 -0.0783194 0)
(30.6534 -0.0749498 0)
(30.6197 -0.0720398 0)
(30.5869 -0.0696058 0)
(30.5542 -0.0672723 0)
(30.5213 -0.0648643 0)
(30.4877 -0.0625779 0)
(30.4528 -0.0605006 0)
(30.4169 -0.0585315 0)
(30.3804 -0.056576 0)
(30.3437 -0.0546537 0)
(30.3069 -0.0528465 0)
(30.2696 -0.0511888 0)
(30.2315 -0.0495888 0)
(30.1924 -0.0479375 0)
(30.1525 -0.0461911 0)
(30.112 -0.0443935 0)
(30.0712 -0.0426288 0)
(30.03 -0.0409768 0)
(29.9882 -0.0393964 0)
(29.9455 -0.0378031 0)
(29.9017 -0.0361793 0)
(29.8568 -0.0345855 0)
(29.8109 -0.0330738 0)
(29.7639 -0.0316546 0)
(29.7159 -0.0303238 0)
(29.6666 -0.0290658 0)
(29.6159 -0.0278778 0)
(29.5637 -0.0267678 0)
(29.5102 -0.0257413 0)
(29.4553 -0.0248006 0)
(29.3995 -0.02393 0)
(29.3426 -0.0231474 0)
(29.2847 -0.0224472 0)
(29.2261 -0.0218205 0)
(29.1668 -0.0212582 0)
(29.107 -0.0207522 0)
(29.047 -0.0203001 0)
(28.9867 -0.0198875 0)
(28.9267 -0.0195226 0)
(28.8665 -0.0191955 0)
(28.8071 -0.0189117 0)
(28.7476 -0.0186537 0)
(28.6893 -0.018418 0)
(28.6309 -0.018201 0)
(28.5741 -0.0180148 0)
(28.5173 -0.0178574 0)
(28.4623 -0.0177244 0)
(28.4074 -0.0176104 0)
(28.3544 -0.0175139 0)
(28.3016 -0.017434 0)
(28.2508 -0.0173717 0)
(28.2001 -0.0173255 0)
(28.1515 -0.0172983 0)
(28.1029 -0.0172862 0)
(28.0564 -0.0173068 0)
(28.0097 -0.0173679 0)
(27.9654 -0.0175021 0)
(27.9196 -0.0177721 0)
(27.8784 -0.0181372 0)
(27.8297 -0.0191004 0)
(27.7968 -0.0196141 0)
(27.7301 -0.0241582 0)
(40.2386 -0.030009 0)
(40.2709 -0.0704533 0)
(40.2318 -0.171527 0)
(40.0309 -0.327114 0)
(39.6008 -0.494845 0)
(38.9444 -0.634499 0)
(38.1223 -0.726383 0)
(37.2222 -0.765095 0)
(36.3099 -0.757867 0)
(35.4489 -0.716964 0)
(34.6801 -0.655442 0)
(34.0168 -0.58622 0)
(33.4429 -0.515294 0)
(32.957 -0.447758 0)
(32.5616 -0.389524 0)
(32.2353 -0.34121 0)
(31.9489 -0.298809 0)
(31.7026 -0.261556 0)
(31.5003 -0.231385 0)
(31.3284 -0.20807 0)
(31.1675 -0.188446 0)
(31.0188 -0.170674 0)
(30.8893 -0.155376 0)
(30.775 -0.143419 0)
(30.6661 -0.133933 0)
(30.5591 -0.125084 0)
(30.4575 -0.116214 0)
(30.3638 -0.108221 0)
(30.2755 -0.10186 0)
(30.1882 -0.0967401 0)
(30.101 -0.0917629 0)
(30.0157 -0.0863773 0)
(29.9337 -0.0812086 0)
(29.8541 -0.0769818 0)
(29.7754 -0.0735646 0)
(29.6965 -0.070369 0)
(29.6181 -0.0669404 0)
(29.5411 -0.0633471 0)
(29.4657 -0.060112 0)
(29.3914 -0.0574797 0)
(29.3173 -0.0551724 0)
(29.2439 -0.0528137 0)
(29.1714 -0.0503193 0)
(29.1002 -0.0479174 0)
(29.0299 -0.0457738 0)
(28.9606 -0.0438521 0)
(28.8922 -0.0420124 0)
(28.8251 -0.0401774 0)
(28.7592 -0.0383675 0)
(28.6946 -0.036638 0)
(28.631 -0.034988 0)
(28.5689 -0.0334069 0)
(28.508 -0.0318869 0)
(28.4487 -0.0304404 0)
(28.3909 -0.0290667 0)
(28.3347 -0.0277769 0)
(28.2797 -0.0265181 0)
(28.2265 -0.0252567 0)
(28.1747 -0.0239977 0)
(28.1248 -0.0228012 0)
(28.0763 -0.0216733 0)
(28.0296 -0.0205943 0)
(27.9842 -0.0195197 0)
(27.9406 -0.0184447 0)
(27.8981 -0.0173763 0)
(27.8574 -0.0163536 0)
(27.8177 -0.0153807 0)
(27.7796 -0.0144618 0)
(27.7423 -0.0135714 0)
(27.7063 -0.012723 0)
(27.671 -0.0119365 0)
(27.6368 -0.0112062 0)
(27.6031 -0.0105221 0)
(27.5703 -0.0098935 0)
(27.5379 -0.00932203 0)
(27.5061 -0.00881198 0)
(27.4747 -0.00835691 0)
(27.4436 -0.00796872 0)
(27.4129 -0.00764006 0)
(27.3824 -0.00736889 0)
(27.3522 -0.00714601 0)
(27.322 -0.0069658 0)
(27.2921 -0.0068301 0)
(27.2621 -0.00673907 0)
(27.2323 -0.00668809 0)
(27.2025 -0.00667236 0)
(27.1727 -0.00668596 0)
(27.1429 -0.00672941 0)
(27.1132 -0.00679775 0)
(27.0834 -0.00689253 0)
(27.0537 -0.00700768 0)
(27.024 -0.00714475 0)
(26.9945 -0.00730765 0)
(26.9647 -0.00751249 0)
(26.9355 -0.00772776 0)
(26.9049 -0.00811287 0)
(26.8769 -0.00835632 0)
(26.8424 -0.00948516 0)
(26.8199 -0.00918247 0)
(26.7695 -0.0145938 0)
(40.2229 -0.0441215 0)
(40.2345 -0.0683461 0)
(40.1702 -0.129278 0)
(39.943 -0.223499 0)
(39.4859 -0.326545 0)
(38.7965 -0.413771 0)
(37.9306 -0.4726 0)
(36.9722 -0.498823 0)
(35.9892 -0.496075 0)
(35.0462 -0.471928 0)
(34.1821 -0.433986 0)
(33.4038 -0.389142 0)
(32.7209 -0.3431 0)
(32.1348 -0.300507 0)
(31.6283 -0.263254 0)
(31.1853 -0.230808 0)
(30.7968 -0.202485 0)
(30.4598 -0.17878 0)
(30.1614 -0.159303 0)
(29.8915 -0.142868 0)
(29.6421 -0.128268 0)
(29.4157 -0.115992 0)
(29.2101 -0.105951 0)
(29.019 -0.0973176 0)
(28.8387 -0.089543 0)
(28.6683 -0.08253 0)
(28.5087 -0.0762971 0)
(28.3586 -0.0706586 0)
(28.2159 -0.0655115 0)
(28.0788 -0.0607828 0)
(27.9472 -0.0563921 0)
(27.8217 -0.0522295 0)
(27.7022 -0.0483472 0)
(27.5878 -0.0448513 0)
(27.4776 -0.0416442 0)
(27.3712 -0.0386203 0)
(27.2689 -0.0357213 0)
(27.1711 -0.0329633 0)
(27.0775 -0.0304417 0)
(26.9875 -0.0281735 0)
(26.9006 -0.0260618 0)
(26.817 -0.02403 0)
(26.7366 -0.0220705 0)
(26.6597 -0.0202716 0)
(26.5857 -0.0186612 0)
(26.5147 -0.0171848 0)
(26.4461 -0.0157697 0)
(26.3804 -0.0144079 0)
(26.3172 -0.0131359 0)
(26.2567 -0.0119941 0)
(26.1983 -0.0109594 0)
(26.1426 -0.00999372 0)
(26.0888 -0.00906947 0)
(26.0376 -0.0081882 0)
(25.9883 -0.00735773 0)
(25.9414 -0.00659852 0)
(25.8962 -0.00589443 0)
(25.8534 -0.00521989 0)
(25.8122 -0.00456446 0)
(25.7734 -0.00394628 0)
(25.7362 -0.00336896 0)
(25.7011 -0.00282969 0)
(25.6674 -0.00231442 0)
(25.6359 -0.00182345 0)
(25.6057 -0.00135901 0)
(25.5776 -0.000931338 0)
(25.5507 -0.000535461 0)
(25.5256 -0.000164511 0)
(25.5016 0.000190402 0)
(25.4791 0.000523506 0)
(25.4577 0.000841142 0)
(25.4376 0.00107706 0)
(25.4184 0.00127606 0)
(25.4002 0.00145396 0)
(25.3827 0.00162421 0)
(25.3661 0.00177521 0)
(25.35 0.00191855 0)
(25.3347 0.00203695 0)
(25.3197 0.00213839 0)
(25.3052 0.00222277 0)
(25.291 0.00229624 0)
(25.2772 0.00235007 0)
(25.2636 0.0023974 0)
(25.2503 0.00244031 0)
(25.2371 0.00247511 0)
(25.224 0.00250313 0)
(25.211 0.00252422 0)
(25.1981 0.00253864 0)
(25.185 0.00254031 0)
(25.172 0.0025329 0)
(25.1588 0.00251188 0)
(25.1455 0.00247914 0)
(25.1321 0.00242669 0)
(25.1184 0.00231812 0)
(25.1048 0.00222411 0)
(25.0899 0.00194279 0)
(25.0767 0.00194563 0)
(25.0582 0.000987229 0)
(25.0479 0.00151906 0)
(25.0178 -0.00294833 0)
(39.1402 -0.0539802 0)
(38.9464 -0.0675467 0)
(38.6586 -0.0934486 0)
(38.1914 -0.131021 0)
(37.4774 -0.172078 0)
(36.5128 -0.207808 0)
(35.3544 -0.233315 0)
(34.0901 -0.246388 0)
(32.7979 -0.247911 0)
(31.5412 -0.240257 0)
(30.3737 -0.225581 0)
(29.3094 -0.206469 0)
(28.3628 -0.186177 0)
(27.5265 -0.166459 0)
(26.7953 -0.147639 0)
(26.1535 -0.129938 0)
(25.5939 -0.114255 0)
(25.0998 -0.100692 0)
(24.666 -0.0886953 0)
(24.2803 -0.0776307 0)
(23.9408 -0.0681031 0)
(23.6354 -0.0607382 0)
(23.3583 -0.0546603 0)
(23.1076 -0.0490709 0)
(22.8795 -0.0441255 0)
(22.6712 -0.0401542 0)
(22.4794 -0.0368031 0)
(22.3038 -0.033564 0)
(22.143 -0.0304731 0)
(21.9956 -0.0278683 0)
(21.8595 -0.0257606 0)
(21.734 -0.0238135 0)
(21.6188 -0.0218685 0)
(21.5135 -0.02008 0)
(21.4164 -0.018597 0)
(21.3268 -0.0173963 0)
(21.2439 -0.0163022 0)
(21.1678 -0.0151991 0)
(21.098 -0.0141467 0)
(21.0341 -0.0132557 0)
(20.975 -0.0125323 0)
(20.9205 -0.0118929 0)
(20.8703 -0.0112554 0)
(20.8245 -0.0106361 0)
(20.7823 -0.0100824 0)
(20.7438 -0.0096141 0)
(20.7081 -0.00919959 0)
(20.6755 -0.00880578 0)
(20.6456 -0.00842314 0)
(20.6185 -0.00806364 0)
(20.5935 -0.00772395 0)
(20.5708 -0.00740494 0)
(20.55 -0.0071052 0)
(20.5313 -0.00682922 0)
(20.5141 -0.00657148 0)
(20.4989 -0.00633679 0)
(20.4849 -0.00611462 0)
(20.4725 -0.00590172 0)
(20.4612 -0.00569479 0)
(20.4515 -0.00550955 0)
(20.4427 -0.00534208 0)
(20.4352 -0.00519078 0)
(20.4285 -0.00503511 0)
(20.423 -0.00487861 0)
(20.4182 -0.00470886 0)
(20.4146 -0.00454396 0)
(20.4115 -0.0043628 0)
(20.4095 -0.00418434 0)
(20.4081 -0.00396624 0)
(20.4076 -0.00370893 0)
(20.4077 -0.00353134 0)
(20.4085 -0.00335042 0)
(20.4099 -0.00319373 0)
(20.412 -0.00304882 0)
(20.4145 -0.0029096 0)
(20.4176 -0.00277695 0)
(20.4212 -0.00264814 0)
(20.4253 -0.00253711 0)
(20.4297 -0.00243917 0)
(20.4344 -0.0023574 0)
(20.4394 -0.00229016 0)
(20.4446 -0.00226284 0)
(20.45 -0.0022534 0)
(20.4555 -0.00225471 0)
(20.4611 -0.00226405 0)
(20.4668 -0.0022794 0)
(20.4724 -0.00229686 0)
(20.4781 -0.0023148 0)
(20.4837 -0.00233681 0)
(20.4892 -0.00235727 0)
(20.4947 -0.00238258 0)
(20.4999 -0.00240515 0)
(20.5052 -0.00243496 0)
(20.5097 -0.00249595 0)
(20.5146 -0.00253986 0)
(20.518 -0.00268041 0)
(20.5227 -0.00262407 0)
(20.524 -0.00322298 0)
(20.5277 -0.00208131 0)
(20.5227 -0.00798321 0)
(1.95437 0.421237 0)
(1.64907 2.05102 0)
(0.910905 2.40128 0)
(0.110914 2.5677 0)
(-0.665574 2.43237 0)
(-1.46651 1.98152 0)
(-2.15367 1.28401 0)
(-2.51272 0.770952 0)
(10.5778 0.318084 0)
(4.36564 1.81698 0)
(1.74411 2.17481 0)
(-0.155017 2.21102 0)
(-2.00006 2.04563 0)
(-3.87731 1.69172 0)
(-5.71493 1.11972 0)
(-6.92409 0.530807 0)
(16.8868 -0.371864 0)
(7.91511 0.751521 0)
(2.86677 1.2142 0)
(-0.390799 1.32793 0)
(-2.9925 1.24932 0)
(-5.40338 1.0588 0)
(-7.85091 0.75371 0)
(-9.97521 0.288393 0)
(20.5479 -1.17077 0)
(11.239 -0.438563 0)
(4.58036 0.0734974 0)
(0.166284 0.312115 0)
(-3.14767 0.393393 0)
(-6.02669 0.379207 0)
(-8.77042 0.303337 0)
(-11.4791 0.076039 0)
(22.4347 -1.81035 0)
(13.5547 -1.3272 0)
(6.44275 -0.873382 0)
(1.28496 -0.548986 0)
(-2.61863 -0.328244 0)
(-5.86405 -0.179408 0)
(-8.80813 -0.0646676 0)
(-11.7951 -0.0515941 0)
(23.6383 -2.31559 0)
(15.4316 -1.97617 0)
(8.25977 -1.5757 0)
(2.74329 -1.21556 0)
(-1.47203 -0.904723 0)
(-4.91752 -0.630896 0)
(-7.98475 -0.380775 0)
(-11.1055 -0.205934 0)
(24.3328 -2.60591 0)
(16.9012 -2.37073 0)
(10.0265 -2.03614 0)
(4.44227 -1.67066 0)
(0.115641 -1.30547 0)
(-3.37701 -0.946679 0)
(-6.43096 -0.597688 0)
(-9.51234 -0.307155 0)
(24.7684 -2.67811 0)
(17.9673 -2.50952 0)
(11.5151 -2.23417 0)
(6.15524 -1.89323 0)
(1.91904 -1.51318 0)
(-1.51039 -1.11244 0)
(-4.48996 -0.712749 0)
(-7.52815 -0.358469 0)
(25.0647 -2.58804 0)
(18.8342 -2.46096 0)
(12.8346 -2.23086 0)
(7.79373 -1.91911 0)
(3.76296 -1.55071 0)
(0.479177 -1.14693 0)
(-2.37454 -0.740303 0)
(-5.32867 -0.369168 0)
(25.2506 -2.38102 0)
(19.53 -2.28699 0)
(13.9915 -2.09704 0)
(9.31676 -1.82105 0)
(5.5374 -1.48026 0)
(2.4256 -1.0967 0)
(-0.297184 -0.708735 0)
(-3.1784 -0.353599 0)
(25.3302 -2.11412 0)
(20.0609 -2.05194 0)
(14.9677 -1.8976 0)
(10.6754 -1.65952 0)
(7.16906 -1.35438 0)
(4.24231 -1.00527 0)
(1.65847 -0.650667 0)
(-1.14565 -0.3258 0)
(25.3135 -1.83584 0)
(20.4572 -1.79956 0)
(15.8049 -1.67555 0)
(11.8636 -1.47263 0)
(8.60686 -1.20381 0)
(5.86518 -0.895562 0)
(3.41697 -0.580635 0)
(0.697399 -0.291778 0)
(25.2214 -1.57313 0)
(20.7377 -1.55732 0)
(16.5022 -1.45853 0)
(12.89 -1.28584 0)
(9.86469 -1.05185 0)
(7.29302 -0.782401 0)
(4.96298 -0.504626 0)
(2.30912 -0.250241 0)
(25.0829 -1.34411 0)
(20.9382 -1.34077 0)
(17.0849 -1.26219 0)
(13.772 -1.11566 0)
(10.9562 -0.913089 0)
(8.5381 -0.679102 0)
(6.31399 -0.435842 0)
(3.71761 -0.214227 0)
(24.9177 -1.15161 0)
(21.0779 -1.15574 0)
(17.5717 -1.09228 0)
(14.5308 -0.96745 0)
(11.9024 -0.793101 0)
(9.61968 -0.590413 0)
(7.4869 -0.3776 0)
(4.93553 -0.184599 0)
(24.7444 -0.991765 0)
(21.1871 -0.99801 0)
(17.979 -0.946171 0)
(15.1721 -0.839167 0)
(12.7165 -0.69034 0)
(10.558 -0.515105 0)
(8.50803 -0.328144 0)
(5.99459 -0.161723 0)
(24.5801 -0.860722 0)
(21.2815 -0.866119 0)
(18.3241 -0.82176 0)
(15.7153 -0.729555 0)
(13.4165 -0.602054 0)
(11.3721 -0.450042 0)
(9.40059 -0.283952 0)
(6.91654 -0.145609 0)
(24.4329 -0.754827 0)
(21.3678 -0.758643 0)
(18.6238 -0.71877 0)
(16.1848 -0.638301 0)
(14.0233 -0.527556 0)
(12.0818 -0.394604 0)
(10.1862 -0.246568 0)
(7.71757 -0.131171 0)
(24.3063 -0.669702 0)
(21.4501 -0.671622 0)
(18.8902 -0.634942 0)
(16.5978 -0.563471 0)
(14.5556 -0.465821 0)
(12.7051 -0.348483 0)
(10.8773 -0.217019 0)
(8.4233 -0.116047 0)
(24.1987 -0.599257 0)
(21.5303 -0.599746 0)
(19.1309 -0.565619 0)
(16.9659 -0.501365 0)
(15.0278 -0.414269 0)
(13.2573 -0.309786 0)
(11.4892 -0.192755 0)
(9.04791 -0.102406 0)
(24.1083 -0.539175 0)
(21.6087 -0.539029 0)
(19.3496 -0.507061 0)
(17.2973 -0.449188 0)
(15.4505 -0.37093 0)
(13.7501 -0.277128 0)
(12.0344 -0.172264 0)
(9.60361 -0.0907654 0)
(24.0331 -0.488509 0)
(21.6843 -0.487847 0)
(19.5464 -0.458045 0)
(17.5966 -0.405677 0)
(15.8318 -0.334843 0)
(14.1939 -0.249937 0)
(12.5242 -0.155176 0)
(10.1016 -0.0811831 0)
(23.9712 -0.447165 0)
(21.7572 -0.445564 0)
(19.727 -0.41762 0)
(17.8695 -0.369603 0)
(16.1786 -0.304865 0)
(14.5969 -0.227369 0)
(12.9681 -0.140991 0)
(10.552 -0.0733201 0)
(23.9209 -0.412481 0)
(21.8289 -0.40979 0)
(19.8956 -0.383517 0)
(18.1212 -0.339088 0)
(16.4968 -0.279496 0)
(14.9659 -0.20829 0)
(13.3739 -0.128987 0)
(10.9627 -0.0667004 0)
(23.8802 -0.381607 0)
(21.8979 -0.378207 0)
(20.0524 -0.353371 0)
(18.3534 -0.312118 0)
(16.7898 -0.257103 0)
(15.3052 -0.191464 0)
(13.7464 -0.118379 0)
(11.339 -0.0609244 0)
(23.8483 -0.353857 0)
(21.9658 -0.349401 0)
(20.1997 -0.3263 0)
(18.5689 -0.287973 0)
(17.0604 -0.237017 0)