/*--------------------------------*- C++ -*----------------------------------*\
| =========                 |                                                 |
| \\      /  F ield         | OpenFOAM: The Open Source CFD Toolbox           |
|  \\    /   O peration     | Version:  v2012                                 |
|   \\  /    A nd           | Website:  www.openfoam.com                      |
|    \\/     M anipulation  |                                                 |
\*---------------------------------------------------------------------------*/
FoamFile
{
    version     2.0;
    format      ascii;
    class       volScalarField;
    location    "0.115";
    object      nut.air;
}
// * * * * * * * * * * * * * * * * * * * * * * * * * * * * * * * * * * * * * //

dimensions      [0 2 -1 0 0 0 0];


internalField   nonuniform List<scalar> 
5600
(
1.31387e-05
2.99373e-05
5.00596e-05
6.50678e-05
7.30336e-05
7.56098e-05
7.50292e-05
7.28202e-05
7.0159e-05
6.7688e-05
6.55301e-05
6.37347e-05
6.24418e-05
6.15996e-05
6.11988e-05
6.11564e-05
6.13275e-05
6.17126e-05
6.20963e-05
6.25508e-05
6.29264e-05
6.32781e-05
6.35685e-05
6.37934e-05
6.40038e-05
6.41603e-05
6.43174e-05
6.44602e-05
6.45641e-05
6.47052e-05
6.47753e-05
6.49073e-05
6.49551e-05
6.50545e-05
6.50892e-05
6.51515e-05
6.51817e-05
6.52112e-05
6.52395e-05
6.52485e-05
6.52729e-05
6.52693e-05
6.52941e-05
6.52794e-05
6.53092e-05
6.52873e-05
6.53228e-05
6.53001e-05
6.53335e-05
6.53182e-05
6.53448e-05
6.53375e-05
6.53591e-05
6.53513e-05
6.53795e-05
6.53621e-05
6.54032e-05
6.53763e-05
6.54228e-05
6.53944e-05
6.54414e-05
6.54193e-05
6.54716e-05
6.54501e-05
6.55133e-05
6.54813e-05
6.55568e-05
6.55161e-05
6.5597e-05
6.55536e-05
6.5638e-05
6.55878e-05
6.56823e-05
6.56155e-05
6.57298e-05
6.56447e-05
6.5778e-05
6.56827e-05
6.58254e-05
6.5725e-05
6.5879e-05
6.57634e-05
6.59434e-05
6.58027e-05
6.60097e-05
6.58526e-05
6.60599e-05
6.59246e-05
6.60731e-05
6.60463e-05
6.60123e-05
6.62826e-05
6.5775e-05
6.68226e-05
6.50129e-05
6.83229e-05
6.23494e-05
7.33623e-05
5.16924e-05
9.25907e-05
0.000160663
0.000142454
0.000113589
0.000102372
0.000100922
0.000107085
0.00011717
0.000133808
0.000149343
0.000162758
0.000180251
0.000199892
0.000221092
0.000243414
0.000265154
0.00028729
0.000307061
0.000326781
0.000343134
0.000358987
0.000372158
0.000384105
0.000394936
0.00040418
0.000413351
0.000421264
0.000428851
0.000436073
0.000441913
0.000448579
0.000453155
0.000458903
0.000462444
0.000466869
0.000469757
0.00047293
0.000475454
0.000477679
0.000479923
0.000481535
0.000483507
0.000484646
0.000486533
0.000487242
0.00048917
0.000489641
0.000491603
0.000492021
0.000493736
0.000494279
0.000495691
0.000496312
0.000497576
0.000497967
0.000499405
0.000499419
0.000501137
0.00050089
0.000502632
0.000502342
0.000503957
0.000503773
0.00050549
0.000505174
0.000507189
0.000506514
0.000508771
0.000507876
0.000510167
0.000509195
0.000511576
0.000510321
0.000513038
0.000511253
0.000514445
0.000512221
0.000515765
0.000513325
0.000517035
0.000514351
0.000518433
0.000515133
0.000520026
0.000515892
0.000521579
0.000516881
0.000522782
0.000518208
0.000523312
0.000520225
0.00052267
0.000523822
0.000520092
0.000530647
0.000512675
0.000545079
0.000492262
0.000579406
0.000439493
0.000587184
0.00015859
0.000155963
0.000150887
0.000143082
0.000135782
0.000122879
0.000115904
0.000107931
0.000107429
0.000108158
0.000113459
0.000122021
0.00013103
0.000146475
0.000159857
0.000181232
0.000200005
0.000225902
0.00025042
0.000279303
0.000309255
0.000340818
0.000376163
0.000411637
0.000447702
0.000477951
0.000507209
0.000535779
0.000559498
0.000581796
0.000597143
0.000615017
0.000627374
0.000641693
0.000652996
0.000664477
0.000674915
0.000684053
0.000693507
0.000700979
0.000709593
0.000715652
0.000723945
0.000728756
0.000736791
0.000740754
0.000748128
0.000751779
0.000757974
0.000761622
0.000766874
0.00077027
0.000775315
0.000777696
0.000783133
0.000784505
0.000790361
0.000791297
0.000796851
0.000797714
0.000802812
0.000803521
0.000808939
0.000809059
0.000815169
0.000814514
0.000820836
0.000819833
0.000825973
0.000824693
0.00083113
0.000828949
0.000836297
0.000832801
0.000840979
0.000836651
0.000845205
0.00084057
0.000849534
0.000843964
0.000854212
0.000846627
0.000859098
0.000849166
0.000863918
0.000851843
0.00086859
0.000854367
0.000873153
0.00085636
0.000878154
0.000857317
0.000885011
0.000856009
0.000895612
0.000851071
0.000912276
0.000842109
0.000896182
0.00081929
0.000159319
0.000156389
0.000155701
0.00015104
0.000152401
0.00014511
0.00014646
0.000138642
0.000136885
0.00013361
0.000125719
0.000129857
0.000115469
0.000125871
0.000111237
0.000123795
0.000116604
0.00012836
0.000132778
0.000144288
0.000159749
0.000174411
0.000198053
0.000220198
0.000249825
0.000281967
0.00031483
0.000354538
0.00038666
0.000423718
0.000451636
0.000486793
0.000514415
0.000546299
0.000573644
0.000601545
0.000628318
0.000653141
0.000678572
0.000700764
0.000724903
0.000744512
0.000768062
0.000784819
0.000805256
0.000816141
0.000832896
0.000843098
0.000857149
0.000867027
0.000879296
0.000888168
0.000900379
0.00090692
0.000919822
0.000924428
0.000937606
0.000941708
0.000953864
0.000957832
0.000969007
0.000972138
0.000983955
0.000985636
0.000998585
0.000999099
0.001012
0.00101215
0.00102446
0.00102394
0.00103695
0.0010345
0.00104918
0.00104448
0.00106003
0.00105429
0.00106983
0.00106366
0.00107991
0.00107175
0.00109049
0.00107859
0.00110091
0.00108528
0.00111096
0.00109211
0.00112093
0.0010985
0.0011308
0.00110384
0.00114111
0.00110762
0.00115321
0.00110976
0.00116666
0.00111248
0.00117744
0.00112027
0.0011809
0.00113514
0.000159701
0.000156089
0.000156968
0.000151276
0.0001549
0.000147982
0.000151217
0.000147595
0.00014423
0.000150327
0.000134708
0.0001537
0.000126242
0.000152825
0.000123374
0.000144465
0.000127071
0.000131425
0.0001316
0.000120668
0.000131822
0.000119257
0.000129024
0.000128825
0.000131613
0.000147493
0.000147799
0.000175252
0.000180212
0.000213484
0.000227613
0.000261542
0.000286259
0.000320247
0.000353374
0.000383166
0.000412751
0.00043969
0.000470271
0.000496079
0.00052743
0.000551296
0.000583915
0.00060612
0.000638807
0.000659865
0.000690568
0.000712141
0.00073946
0.000761014
0.000785807
0.000805735
0.000830855
0.000846797
0.00087328
0.000886059
0.000912259
0.000923773
0.000947836
0.000959345
0.000982004
0.00099157
0.00101528
0.00102187
0.00104739
0.00105244
0.00107748
0.00108214
0.0011061
0.00110935
0.00113431
0.00113411
0.00115988
0.0011556
0.00118025
0.0011751
0.00119873
0.00119309
0.00121769
0.00120894
0.00123699
0.00122331
0.00125519
0.00123767
0.00127239
0.00125246
0.00128937
0.00126717
0.00130558
0.00128115
0.00132085
0.00129412
0.00133583
0.00130738
0.0013487
0.00132443
0.00135567
0.0013465
0.00135877
0.00136738
0.00016002
0.00015563
0.000157571
0.000151134
0.000155141
0.000149276
0.000150281
0.000151325
0.000142243
0.000156249
0.000133293
0.000159984
0.000128373
0.00015715
0.000131973
0.000145948
0.000142563
0.000132006
0.000150841
0.000125359
0.000146775
0.00013271
0.000129758
0.000148882
0.000111899
0.000158273
0.000105211
0.000155528
0.000110285
0.000148135
0.000124715
0.000144192
0.000144489
0.00015377
0.000167418
0.000177501
0.000198903
0.000211383
0.000239071
0.000253887
0.00028844
0.000303506
0.000343691
0.00036169
0.000404125
0.00042139
0.000452169
0.000472619
0.000500904
0.000523221
0.000551139
0.000571761
0.000603259
0.000619956
0.000654234
0.000668791
0.000703
0.000718999
0.000751418
0.000768539
0.000799995
0.000813683
0.000847128
0.000857236
0.00089287
0.000902491
0.000937328
0.000947411
0.000980936
0.000988769
0.00102445
0.00102753
0.00106579
0.00106535
0.00110258
0.00110216
0.00113679
0.00113637
0.00117157
0.00116745
0.00120624
0.0011972
0.00123834
0.00122737
0.00126805
0.00125876
0.00129692
0.001291
0.00132386
0.00132235
0.00134828
0.0013513
0.00137218
0.00137854
0.00139546
0.00140562
0.00141899
0.00142883
0.00144852
0.00145596
0.000160182
0.000155526
0.000157471
0.000151648
0.000154205
0.000150963
0.000148427
0.00015376
0.000140623
0.000157705
0.000134008
0.000158465
0.000133143
0.000152083
0.000140466
0.000139262
0.000151394
0.000128072
0.00015493
0.000129516
0.00014268
0.000147446
0.000118684
0.000169474
0.000100615
0.00017528
0.000101687
0.000163922
0.000113818
0.000148587
0.000127975
0.000133428
0.000138551
0.000127037
0.000139871
0.000124997
0.000146444
0.000120217
0.000155769
0.000121804
0.00016765
0.000131167
0.000178057
0.000155413
0.000191996
0.000187699
0.000213185
0.000224652
0.000248705
0.000261423
0.000293138
0.000301961
0.000344884
0.00035092
0.000396551
0.00040674
0.00044963
0.0004674
0.000498707
0.000511226
0.000543558
0.00055178
0.000587808
0.000593948
0.000632323
0.000641627
0.000678929
0.00069056
0.000727653
0.000736005
0.000777083
0.000780943
0.000824991
0.000828479
0.000869593
0.00087563
0.000912773
0.000919026
0.000957515
0.000960249
0.00100205
0.00100153
0.00104282
0.001043
0.00108132
0.00108561
0.00112081
0.00112986
0.00115992
0.0011731
0.00119728
0.00121222
0.00123342
0.00124865
0.00126917
0.00128559
0.00130484
0.00132251
0.00134285
0.00136404
0.000160079
0.00015595
0.000156811
0.000152662
0.000153007
0.000152185
0.000147576
0.000153954
0.000141623
0.000155473
0.000137966
0.000153508
0.000139491
0.000146133
0.000146336
0.000135719
0.00015298
0.00013014
0.000150466
0.000137502
0.000134496
0.000156432
0.000112885
0.000171862
0.000103189
0.000169149
0.000112264
0.000154389
0.000126008
0.000141503
0.000135843
0.000132084
0.00014112
0.000128317
0.000143079
0.000120821
0.00015581
0.000103899
0.000169214
9.49412e-05
0.000170957
9.86474e-05
0.000157597
0.000118962
0.000139175
0.00013435
0.000134613
0.000134625
0.00015149
0.000122348
0.000172409
0.000123731
0.000185568
0.000142117
0.000189297
0.000171528
0.000204401
0.000199621
0.000233225
0.000225068
0.000269975
0.0002566
0.00030536
0.000298797
0.000343245
0.000349849
0.000391298
0.000401327
0.000446826
0.000450974
0.00050248
0.000505714
0.000556011
0.000558568
0.000592574
0.000599668
0.000629752
0.000636814
0.00066998
0.000675138
0.000711235
0.000716518
0.000750378
0.000758843
0.000788976
0.000802323
0.000830204
0.000849172
0.000874322
0.000896911
0.000918798
0.000940796
0.00096217
0.000983359
0.00100489
0.00102871
0.00104845
0.00107593
0.00109441
0.00112531
0.000159804
0.000156598
0.000156093
0.000153534
0.000152365
0.000152364
0.000148174
0.000152301
0.000144392
0.000151673
0.000142573
0.000148844
0.000143795
0.000143416
0.000147142
0.000137716
0.000148712
0.00013666
0.000143745
0.000143633
0.000131594
0.000155132
0.000119328
0.00016109
0.000117481
0.000155211
0.000126153
0.000144658
0.000133499
0.000139178
0.000135319
0.000136793
0.000136871
0.000132418
0.000142685
0.000121543
0.000155295
0.000107322
0.000163609
0.000104687
0.000156252
0.000119521
0.000135369
0.00014146
0.00011917
0.000146484
0.00012538
0.000127977
0.000151221
0.000101273
0.000166848
9.88768e-05
0.000156764
0.000118726
0.0001364
0.000133895
0.000137339
0.00012511
0.000157329
0.000110262
0.000169327
0.000116461
0.000163834
0.000139915
0.000160822
0.000157797
0.000178509
0.00016641
0.000206391
0.000180396
0.000226452
0.000209493
0.000243755
0.000248141
0.000270071
0.000281752
0.000304785
0.000312079
0.000342808
0.000349404
0.000381819
0.000394601
0.000423295
0.00044147
0.000467414
0.000489356
0.000515597
0.000543044
0.0005696
0.000600252
0.00062592
0.000655585
0.000674413
0.000696496
0.000715832
0.000741357
0.000761881
0.000790328
0.000814441
0.000845411
0.000159536
0.000157117
0.000155632
0.000153998
0.000152275
0.000151967
0.000149271
0.000150425
0.000146921
0.000148684
0.000145585
0.000146321
0.000145294
0.000143475
0.000145408
0.000141176
0.000144431
0.000141077
0.000140937
0.000143799
0.000135443
0.000147261
0.00013126
0.000147605
0.00013172
0.000143591
0.000135158
0.000139361
0.000136296
0.000138729
0.000134422
0.000139262
0.000133762
0.000136772
0.000137365
0.000129671
0.000144685
0.000121384
0.000149059
0.00012077
0.00014278
0.000131972
0.000127429
0.000146216
0.000116637
0.000148388
0.000122527
0.000134049
0.000140091
0.00011712
0.000148337
0.000118228
0.000138036
0.000133279
0.000123439
0.000140751
0.000125384
0.000129679
0.000140321
0.00011612
0.000145552
0.000120294
0.000133824
0.000135871
0.000123645
0.000138379
0.000132652
0.000125682
0.000147557
0.000120431
0.000147168
0.000132885
0.000138189
0.000146928
0.000140508
0.000150196
0.000153685
0.000152263
0.000166289
0.000163987
0.000176167
0.000182244
0.000191469
0.000203002
0.000213153
0.000226383
0.000238606
0.000255973
0.000271158
0.00029225
0.000309675
0.000331826
0.000351644
0.000374886
0.000397547
0.000423151
0.000449094
0.000476635
0.000504966
0.000533101
0.000159402
0.000157344
0.000155463
0.000154137
0.000152344
0.000151674
0.000149855
0.000149561
0.000147939
0.000147611
0.000146427
0.000145863
0.000145101
0.000144366
0.000143865
0.000143108
0.000142625
0.000142212
0.000141131
0.000141879
0.000139299
0.000141841
0.00013776
0.000141134
0.000137479
0.000139169
0.00013827
0.000136958
0.0001385
0.000136166
0.000137004
0.000137117
0.000134388
0.000138304
0.00013293
0.000136924
0.000135177
0.000131916
0.000139636
0.000127655
0.000139879
0.000130477
0.000132109
0.000139802
0.000122204
0.000145571
0.000121173
0.000139315
0.00013139
0.000126925
0.00014041
0.000123006
0.000136879
0.000131115
0.000126394
0.000138866
0.000123642
0.000134992
0.000131661
0.00012605
0.000137745
0.000125566
0.00013307
0.000134021
0.000126486
0.000137849
0.000129903
0.000132803
0.000138838
0.00013048
0.000141745
0.00013717
0.00014075
0.000146409
0.000145043
0.000153256
0.000155513
0.00016113
0.000168624
0.000174181
0.000183117
0.000192022
0.000202005
0.000214229
0.000226115
0.000240247
0.000254012
0.000270429
0.000287192
0.00030651
0.000325951
0.000347492
0.000368764
0.000392162
0.000415552
0.000440558
0.000466395
0.000493146
0.000521577
0.000550292
0.000159348
0.000157406
0.000155444
0.000154118
0.000152446
0.000151507
0.000150059
0.000149351
0.000148031
0.000147647
0.00014609
0.000146431
0.00014418
0.000145422
0.000142692
0.000144012
0.000142112
0.000141927
0.0001422
0.000139869
0.00014183
0.000138995
0.000140164
0.000139413
0.000137939
0.000139621
0.000136955
0.000138067
0.00013792
0.000135249
0.000139095
0.000133709
0.000137821
0.000135264
0.000133988
0.000137995
0.000131181
0.000137694
0.000132595
0.000133569
0.000136132
0.000130247
0.000136155
0.000132195
0.000131239
0.000137128
0.000127093
0.000138101
0.000129049
0.000133594
0.000134444
0.000129907
0.000136606
0.000131742
0.000134825
0.000136623
0.000134467
0.000140181
0.000138721
0.000143
0.000146096
0.000148866
0.000154815
0.000159613
0.000165863
0.000174192
0.000181478
0.000192199
0.000202324
0.000214632
0.000227822
0.000242053
0.000257744
0.000273883
0.000291522
0.000309941
0.000329195
0.000349762
0.000370665
0.000392891
0.00041567
0.000439477
0.000464092
0.000489402
0.00051515
0.000541348
0.000567574
0.000594443
0.000621641
0.000648578
0.000668102
0.000688387
0.000708556
0.000729766
0.000750645
0.000772384
0.00079397
0.000816425
0.000838592
0.000860994
0.000159297
0.000157463
0.00015542
0.000154093
0.00015254
0.000151311
0.000150294
0.000149029
0.000148264
0.000147422
0.000146044
0.000146596
0.000143599
0.000146145
0.00014156
0.000145103
0.000140849
0.000142741
0.000141596
0.0001396
0.000142509
0.000137387
0.000141811
0.000137366
0.000139146
0.000138782
0.000136234
0.000139339
0.000135248
0.000137599
0.000136417
0.000134695
0.000137578
0.000133174
0.000136582
0.000134092
0.000133944
0.00013572
0.000132235
0.000135784
0.000132953
0.000134532
0.000134886
0.000134344
0.000136524
0.000136896
0.000138767
0.000141902
0.000144054
0.000149355
0.000153936
0.000160605
0.000168819
0.000177306
0.000188879
0.000200317
0.00021468
0.000229704
0.000245999
0.000264146
0.000282815
0.000303463
0.000324913
0.000347407
0.000371312
0.000395697
0.000421487
0.000447974
0.000475145
0.000503369
0.000531753
0.000557072
0.000576659
0.000596789
0.000617296
0.000637705
0.000658818
0.000679696
0.000700744
0.000722172
0.000743506
0.000765296
0.00078713
0.000808977
0.000830911
0.000852678
0.000874542
0.000896425
0.000918548
0.000940614
0.000962969
0.000985383
0.00100764
0.00102994
0.0010516
0.00107354
0.00109454
0.00111571
0.00113578
0.00115554
0.000159268
0.00015751
0.000155342
0.000154136
0.000152455
0.000151266
0.000150294
0.00014879
0.000148432
0.000146931
0.000146371
0.000145934
0.000143885
0.000145612
0.000141386
0.000145137
0.000139796
0.000143541
0.000139737
0.000140659
0.000140692
0.000137568
0.000141128
0.000135822
0.000139764
0.000136016
0.000136837
0.00013707
0.00013405
0.000137173
0.000133018
0.00013568
0.000133836
0.0001338
0.000135415
0.000133914
0.00013762
0.000137986
0.000142293
0.000146937
0.000152435
0.000161528
0.00017018
0.000182891
0.000196309
0.000212088
0.000229637
0.000248615
0.000269637
0.000292028
0.000315991
0.00034139
0.000368023
0.000395721
0.000424762
0.000454524
0.000482484
0.000504422
0.000526907
0.00054949
0.000572093
0.000595125
0.000617994
0.000641099
0.000664249
0.000687387
0.000710827
0.00073425
0.000757652
0.000781422
0.000804735
0.000828478
0.000851935
0.000875653
0.000899344
0.000922572
0.000945935
0.000968583
0.000991282
0.0010135
0.00103536
0.00105712
0.00107848
0.00109941
0.00112013
0.0011403
0.00116028
0.00117993
0.00119948
0.00121855
0.00123765
0.00125655
0.00127513
0.00129358
0.00131139
0.00132923
0.00134633
0.00136337
0.00137919
0.00139452
0.000159273
0.000157487
0.000155257
0.000154128
0.000152231
0.000151264
0.000149952
0.000148671
0.000148094
0.000146451
0.000146193
0.000144858
0.000143876
0.000143945
0.000141179
0.000143277
0.000138657
0.000142031
0.000136951
0.000139536
0.000136221
0.000136
0.000135807
0.000132579
0.000134715
0.000130486
0.000132782
0.000130936
0.000132491
0.00013524
0.000137868
0.000145489
0.000152275
0.000164307
0.00017738
0.000193601
0.000212585
0.000232933
0.00025663
0.000281409
0.000308587
0.000337551
0.000367694
0.000400445
0.000427367
0.000452865
0.000478317
0.000504068
0.000529946
0.000555713
0.000581557
0.000607293
0.000632987
0.000658641
0.000684286
0.000709656
0.0007349
0.000759879
0.000784781
0.000809328
0.000833461
0.000857266
0.000880508
0.000903383
0.000925744
0.000947677
0.000969311
0.000990456
0.00101131
0.00103193
0.00105181
0.00107129
0.00109024
0.0011091
0.0011276
0.00114564
0.00116363
0.00118092
0.00119819
0.00121491
0.00123137
0.00124751
0.00126324
0.00127862
0.00129366
0.00130813
0.00132243
0.00133628
0.00135008
0.00136355
0.00137696
0.00138994
0.00140276
0.00141525
0.00142728
0.0014392
0.00145079
0.00146219
0.00147243
0.00148237
0.000159266
0.000157377
0.0001551
0.000153909
0.000151781
0.000150894
0.000148993
0.000147855
0.000146369
0.000144659
0.000143566
0.000141477
0.000140108
0.000138387
0.000135866
0.000135331
0.000131247
0.00013186
0.000126663
0.000128146
0.000124452
0.000126969
0.000127693
0.000132589
0.000139731
0.000149401
0.000163643
0.00018005
0.000201119
0.000224505
0.000250919
0.000280451
0.000311811
0.000346398
0.000378541
0.000408033
0.000437309
0.000466626
0.000496019
0.000524807
0.00055381
0.000582374
0.000610765
0.000638825
0.000666039
0.000693015
0.000718983
0.000744327
0.000768782
0.000792426
0.000815339
0.00083753
0.000859089
0.000880071
0.000900439
0.000919889
0.000938548
0.000956638
0.000974418
0.000991715
0.0010086
0.00102513
0.00104113
0.00105677
0.00107196
0.00108668
0.0011011
0.00111501
0.00112873
0.00114194
0.00115488
0.0011662
0.00117659
0.00118681
0.00119671
0.00120626
0.00121573
0.00122476
0.00123376
0.00124244
0.00125097
0.00125932
0.00126747
0.0012754
0.00128325
0.00129079
0.00129834
0.00130561
0.00131292
0.00131995
0.00132703
0.00133381
0.00134068
0.00134725
0.00135387
0.00136025
0.00136656
0.00137274
0.00137868
0.00138453
0.000159125
0.000157099
0.000154484
0.000152871
0.000149876
0.00014778
0.000143546
0.00014051
0.000135847
0.000132505
0.000128704
0.000124955
0.000121879
0.000119696
0.000118799
0.000120408
0.000123294
0.000130477
0.000138643
0.000152229
0.00016683
0.000187222
0.000209387
0.000237176
0.000267872
0.00030235
0.000339026
0.000377247
0.000411372
0.000444387
0.000477105
0.000508924
0.000539752
0.000569782
0.000598114
0.000625967
0.000652327
0.000677792
0.000702192
0.000725482
0.000748113
0.000769714
0.000790268
0.000808971
0.000823874
0.00083804
0.00085116
0.00086368
0.000875483
0.000886694
0.000897421
0.000907654
0.000917497
0.000926974
0.00093613
0.00094494
0.000953517
0.000961735
0.000969759
0.000977475
0.000984954
0.00099224
0.000999257
0.00100612
0.00101274
0.00101917
0.00102549
0.00103157
0.00103757
0.00104341
0.00104908
0.00105473
0.00106012
0.00106545
0.00107058
0.00107556
0.00108049
0.00108519
0.0010899
0.0010944
0.00109886
0.00110319
0.00110743
0.00111154
0.00111563
0.00111953
0.00112348
0.00112722
0.00113105
0.00113468
0.00113838
0.00114187
0.0011455
0.00114889
0.00115244
0.00115573
0.00115912
0.0011623
0.00116534
0.00116824
0.000158457
0.000156382
0.000150065
0.000144202
0.000134193
0.000124222
0.000114689
0.00010994
0.000108296
0.000111299
0.000117065
0.00012588
0.000137348
0.000151603
0.000168673
0.000188572
0.000211013
0.000236342
0.000263446
0.000293449
0.000324623
0.000359301
0.000395169
0.000433657
0.000465482
0.000496365
0.000525416
0.000552649
0.000576801
0.00059588
0.000613009
0.000628124
0.000641922
0.000654837
0.000666496
0.000677545
0.000687501
0.000696818
0.000705463
0.000713413
0.000721031
0.000728078
0.000734824
0.000741256
0.000747284
0.000753084
0.000758428
0.00076356
0.000768349
0.000772886
0.000777203
0.000781284
0.000785198
0.000788946
0.00079256
0.000796046
0.000799444
0.000802711
0.000805922
0.000809008
0.000812022
0.000814968
0.000817819
0.000820622
0.000823318
0.000825951
0.000828539
0.000831036
0.000833499
0.000835887
0.00083822
0.000840553
0.000842783
0.00084501
0.000847149
0.000849242
0.000851322
0.000853305
0.000855323
0.000857234
0.000859159
0.000861004
0.000862833
0.000864598
0.000866373
0.000868064
0.000869794
0.000871417
0.000873115
0.000874681
0.000876333
0.000877847
0.000879485
0.00088096
0.000882596
0.000884016
0.000885583
0.000886953
0.000888255
0.000889392
0.000160271
0.000142833
0.000113602
0.000104003
0.000102071
0.000110491
0.000119952
0.000140326
0.000152827
0.000167618
0.00018563
0.000205939
0.000227631
0.000249945
0.000272207
0.000293767
0.000314065
0.000332781
0.000349528
0.000364573
0.000377655
0.000389469
0.000399836
0.000409431
0.00041814
0.000426291
0.000433789
0.000440523
0.000446866
0.000452569
0.00045787
0.000462503
0.000466602
0.000470214
0.000473276
0.000476083
0.000478457
0.00048064
0.00048257
0.000484273
0.000485878
0.000487268
0.000488619
0.000489848
0.000491063
0.000492275
0.000493399
0.000494525
0.000495563
0.000496572
0.000497524
0.000498425
0.000499288
0.000500108
0.000500898
0.00050166
0.000502408
0.000503132
0.000503857
0.000504557
0.000505264
0.000505961
0.000506653
0.000507355
0.00050803
0.000508704
0.000509375
0.000510031
0.000510683
0.000511319
0.000511949
0.000512582
0.000513196
0.000513827
0.000514431
0.000515037
0.00051564
0.000516222
0.000516822
0.000517381
0.000517963
0.000518511
0.000519068
0.000519601
0.000520149
0.000520674
0.000521227
0.000521739
0.000522286
0.000522786
0.00052332
0.000523797
0.000524334
0.000524815
0.000525352
0.000525832
0.000526343
0.000526792
0.0005272
0.00052755
1.3111e-05
2.99532e-05
5.00849e-05
6.50494e-05
7.28755e-05
7.53205e-05
7.46052e-05
7.22729e-05
6.95979e-05
6.71367e-05
6.49384e-05
6.31785e-05
6.19106e-05
6.11444e-05
6.08065e-05
6.0821e-05
6.10696e-05
6.14603e-05
6.19018e-05
6.23412e-05
6.27349e-05
6.30783e-05
6.33586e-05
6.35942e-05
6.37882e-05
6.39661e-05
6.41217e-05
6.42606e-05
6.4387e-05
6.44985e-05
6.46062e-05
6.4696e-05
6.47763e-05
6.48423e-05
6.48928e-05
6.4937e-05
6.49662e-05
6.49927e-05
6.50101e-05
6.5023e-05
6.50335e-05
6.50383e-05
6.50444e-05
6.50465e-05
6.50501e-05
6.50543e-05
6.5058e-05
6.50642e-05
6.50689e-05
6.50753e-05
6.50808e-05
6.50869e-05
6.50927e-05
6.50989e-05
6.51052e-05
6.51119e-05
6.51193e-05
6.51268e-05
6.51357e-05
6.51446e-05
6.51553e-05
6.51664e-05
6.51787e-05
6.51925e-05
6.52069e-05
6.52225e-05
6.52388e-05
6.5256e-05
6.52737e-05
6.52918e-05
6.53109e-05
6.53306e-05
6.53505e-05
6.53713e-05
6.53917e-05
6.54128e-05
6.54341e-05
6.54557e-05
6.54781e-05
6.54997e-05
6.55228e-05
6.5545e-05
6.55685e-05
6.55916e-05
6.56163e-05
6.56408e-05
6.56669e-05
6.56917e-05
6.57183e-05
6.57426e-05
6.57689e-05
6.57935e-05
6.58201e-05
6.5846e-05
6.58735e-05
6.59012e-05
6.59297e-05
6.59599e-05
6.59926e-05
6.60298e-05
5.09775e-06
0.00133224
0.00237435
0.00315191
0.00385996
0.00441436
0.0048222
0.00492854
0.00491143
0.00488137
0.00485077
0.00483234
0.00483847
0.00486259
0.0048977
0.00494392
0.00499583
0.00505999
0.00513931
0.00523008
0.00532969
0.00543879
0.00555153
0.00566576
0.00578896
0.00591997
0.00604822
0.00616535
0.00627898
0.0063744
0.00644921
0.00645368
0.00636144
0.00623455
0.0060884
0.00591577
0.00571059
0.00549985
0.00530479
0.0051137
0.00492332
0.00475259
0.00459807
0.00443789
0.00427611
0.00413212
0.00400365
0.00387673
0.00375283
0.00364476
0.00357352
0.00357661
0.00366638
0.00378249
0.00382179
0.00374307
0.00361055
0.00351292
0.00348807
0.00353546
0.00364229
0.00378596
0.00393477
0.00405904
0.00413611
0.00415843
0.00413219
0.00407272
0.00399071
0.00389068
0.00376957
0.00362667
0.00346202
0.00327932
0.00308105
0.00287116
0.00265084
0.00242216
0.00218641
0.00194782
0.00171141
0.00148387
0.00127036
0.00107442
0.000896516
0.000737223
0.000598129
0.000480907
0.000385579
0.000311006
0.000255663
0.000216498
0.000191267
0.000174762
0.000166358
0.000159287
0.000157299
0.000151276
0.000150911
0.000143432
0.0003255
0.000837601
0.00171975
0.00249893
0.00319237
0.00375096
0.00417722
0.00447932
0.00468998
0.00470985
0.00467204
0.00465264
0.00464687
0.00465029
0.004665
0.00469298
0.00473044
0.00478399
0.00485077
0.00492665
0.0050089
0.0050987
0.00519308
0.00528966
0.00539668
0.00551308
0.00563555
0.00576028
0.00587448
0.00599304
0.00610443
0.00619053
0.00610179
0.00597483
0.00582804
0.00565593
0.00545088
0.00524087
0.00505038
0.00486672
0.00468398
0.00452296
0.00438106
0.00423218
0.00407956
0.00394719
0.00383247
0.00371433
0.0035959
0.00350372
0.0034631
0.00349673
0.00360632
0.00374053
0.00380822
0.00376135
0.0036476
0.00355147
0.00351836
0.00355385
0.00364707
0.00377698
0.00391344
0.00402714
0.00409522
0.00410916
0.00407557
0.00401118
0.00392865
0.00383253
0.00371888
0.00358446
0.00342783
0.00325123
0.00305704
0.00284881
0.00262846
0.00239832
0.00216051
0.00191911
0.00167922
0.00144713
0.00122834
0.00102695
0.000845312
0.000685648
0.000549895
0.000438298
0.000349818
0.000282552
0.000234376
0.000201354
0.000180766
0.000167396
0.000160931
0.000155194
0.000154009
0.000148852
0.000148822
0.000142164
0.000988332
0.000753318
0.00108486
0.00169365
0.0023466
0.00290715
0.00335343
0.00368718
0.00393361
0.00411536
0.00425566
0.00437789
0.0044165
0.00442326
0.00444252
0.00447604
0.00452174
0.00457477
0.00463341
0.00469726
0.00476715
0.00484269
0.00492229
0.00500459
0.00509649
0.00519449
0.0053059
0.00543353
0.00555158
0.00566602
0.0057843
0.00586034
0.00577687
0.00565108
0.00550463
0.00533472
0.00513196
0.00492473
0.00474137
0.00456861
0.00439715
0.00424963
0.00412504
0.00399269
0.00385426
0.0037388
0.00364377
0.00354006
0.00343234
0.00336375
0.00336428
0.00343656
0.00356681
0.00371352
0.00380302
0.00378486
0.00368954
0.00359464
0.00355191
0.0035734
0.00365053
0.00376399
0.00388551
0.0039863
0.00404325
0.00404678
0.00400376
0.00393265
0.00384857
0.00375645
0.00365131
0.00352708
0.00338035
0.00321171
0.00302309
0.00281768
0.00259801
0.00236684
0.00212718
0.00188325
0.00164032
0.00140449
0.00118151
0.000976313
0.000792987
0.000634967
0.000503693
0.000398394
0.00031744
0.000258102
0.000217125
0.000189712
0.000172995
0.000162024
0.000156918
0.000152043
0.000151347
0.000146838
0.000147013
0.000141128
0.00117819
0.00116241
0.00106343
0.00116749
0.00151991
0.00196147
0.00238023
0.00272777
0.00300432
0.00322522
0.0034051
0.00356335
0.00370649
0.00383982
0.00396955
0.00410044
0.00423443
0.00430775
0.004374
0.00444368
0.0045193
0.00459866
0.00468051
0.00476382
0.0048539
0.00494598
0.00504787
0.00516559
0.00528424
0.00538491
0.00546964
0.00544359
0.00536743
0.00524521
0.00510139
0.00493678
0.00474045
0.00454066
0.00436944
0.00421331
0.00405928
0.00393164
0.00383126
0.00372282
0.00360619
0.00351533
0.00344788
0.00336677
0.00327874
0.00324511
0.00329913
0.00341858
0.00356985
0.0037208
0.00382031
0.00382278
0.00374291
0.00364808
0.003594
0.00359906
0.00365736
0.00375119
0.00385432
0.00393856
0.00398063
0.00397019
0.00391456
0.00383421
0.00374707
0.00365871
0.00356284
0.0034503
0.00331523
0.00315635
0.0029749
0.00277363
0.00255559
0.00232417
0.00208326
0.00183759
0.00159275
0.00135481
0.0011298
0.000923479
0.000741175
0.000586557
0.000460686
0.000362597
0.000289951
0.000238607
0.000204183
0.000181392
0.000167604
0.000158276
0.000154023
0.000149629
0.000149172
0.000145142
0.000145453
0.000140305
0.00136669
0.00137795
0.00134619
0.00128798
0.00127259
0.00136801
0.00155234
0.00178104
0.00201024
0.00222528
0.00241972
0.00259806
0.00276739
0.00292943
0.00308612
0.0032423
0.00340291
0.00355688
0.00370808
0.00385895
0.00400552
0.00414949
0.00428782
0.00441507
0.0045348
0.00464358
0.00473801
0.00482176
0.00488875
0.00492682
0.00493709
0.00492016
0.00485484
0.00474108
0.00460523
0.00445266
0.00427124
0.0040882
0.00393821
0.00380798
0.00368104
0.00358297
0.00351615
0.00344096
0.00335596
0.00329908
0.00326781
0.0032191
0.00316314
0.0031777
0.00329546
0.00346751
0.00363939
0.00378634
0.00388134
0.00389106
0.0038192
0.0037207
0.00365225
0.00363746
0.00367326
0.00374333
0.00382355
0.00388633
0.00390841
0.00387922
0.00380721
0.00371503
0.00362356
0.00353885
0.00345295
0.00335337
0.00323154
0.00308412
0.00291146
0.00271581
0.00250072
0.00227023
0.00202922
0.00178306
0.0015379
0.00130004
0.00107586
0.000871484
0.000692436
0.000542433
0.000422927
0.000332772
0.00026841
0.000224257
0.000195191
0.000175843
0.000164056
0.000155704
0.000151881
0.000147693
0.000147288
0.000143625
0.000144042
0.000139583
0.00146707
0.00148201
0.00147731
0.00146072
0.00142952
0.00139666
0.00136895
0.00136825