/*--------------------------------*- C++ -*----------------------------------*\
| =========                 |                                                 |
| \\      /  F ield         | OpenFOAM: The Open Source CFD Toolbox           |
|  \\    /   O peration     | Version:  v2012                                 |
|   \\  /    A nd           | Website:  www.openfoam.com                      |
|    \\/     M anipulation  |                                                 |
\*---------------------------------------------------------------------------*/
FoamFile
{
    version     2.0;
    format      ascii;
    class       vectorField;
    location    "0.018/lagrangian/kinematicCloud";
    object      U;
}
// * * * * * * * * * * * * * * * * * * * * * * * * * * * * * * * * * * * * * //


17
(
(20.046 -0.64369 0)
(20.4801 -0.461944 0)
(20.4746 -0.329063 0)
(20.5363 -0.529279 0)
(20.4438 -0.169279 0)
(20.4675 -0.188634 0)
(16.2566 -0.0577341 0)
(19.5797 -0.0265566 0)
(18.7483 -0.0137009 0)
(18.0743 0.000897066 0)
(18.0156 0.00132759 0)
(17.1798 0.021056 0)
(9.86677 -0.000268563 0)
(9.79463 8.47778e-05 0)
(12.161 -0.00154343 0)
(13.077 0.000162628 0)
(11.8831 0.000712743 0)
)


// ************************************************************************* //
