/*--------------------------------*- C++ -*----------------------------------*\
| =========                 |                                                 |
| \\      /  F ield         | OpenFOAM: The Open Source CFD Toolbox           |
|  \\    /   O peration     | Version:  v2012                                 |
|   \\  /    A nd           | Website:  www.openfoam.com                      |
|    \\/     M anipulation  |                                                 |
\*---------------------------------------------------------------------------*/
FoamFile
{
    version     2.0;
    format      ascii;
    class       scalarField;
    location    "0.062/lagrangian/kinematicCloud";
    object      age;
}
// * * * * * * * * * * * * * * * * * * * * * * * * * * * * * * * * * * * * * //


54
(
0.0612
0.0602
0.0591
0.058
0.057
0.056
0.055
0.054
0.0529
0.0518
0.051725
0.0507
0.0496
0.0485
0.0474
0.0463
0.0452
0.0441
0.043
0.042925
0.0419
0.0408
0.0397
0.0386
0.038525
0.0375
0.0364
0.036325
0.0353
0.035225
0.0342
0.0331
0.032
0.0309
0.030825
0.0299
0.0289
0.0279
0.0269
0.0259
0.0249
0.0239
0.0229
0.0219
0.0209
0.0199
0.0189
0.0179
0.0169
0.0159
0.0149
0.0139
0.0129
0.0119
)


// ************************************************************************* //
