/*--------------------------------*- C++ -*----------------------------------*\
| =========                 |                                                 |
| \\      /  F ield         | OpenFOAM: The Open Source CFD Toolbox           |
|  \\    /   O peration     | Version:  v2012                                 |
|   \\  /    A nd           | Website:  www.openfoam.com                      |
|    \\/     M anipulation  |                                                 |
\*---------------------------------------------------------------------------*/
FoamFile
{
    version     2.0;
    format      ascii;
    class       vectorField;
    location    "0.062/lagrangian/kinematicCloud";
    object      UCorrect;
}
// * * * * * * * * * * * * * * * * * * * * * * * * * * * * * * * * * * * * * //


43
(
(0 0 0)
(1.96002e-27 -2.11059e-30 0)
(0 0 0)
(0 0 0)
(0 0 0)
(-1.05555e-26 -1.41404e-27 0)
(-1.72039e-26 -2.24895e-28 0)
(0 0 0)
(0 0 0)
(0 0 0)
(0 0 0)
(0 0 0)
(-1.25806e-26 -1.32116e-27 0)
(-1.35795e-26 -7.18804e-28 0)
(0 0 0)
(-1.30395e-26 -1.28521e-27 0)
(-2.90116e-26 -4.14697e-28 0)
(-2.03962e-26 -1.97354e-27 0)
(-2.47347e-26 -3.40164e-28 0)
(-1.53934e-26 -1.28555e-27 0)
(0 0 0)
(0 0 0)
(0 0 0)
(0 0 0)
(0 0 0)
(-2.12329e-28 -4.97616e-30 0)
(0 0 0)
(0 0 0)
(-5.42108e-28 -2.56197e-29 0)
(0 0 0)
(0 0 0)
(-2.4258e-26 -8.54822e-28 0)
(0 0 0)
(-4.43128e-26 -5.55335e-28 0)
(-7.63864e-26 -4.3174e-28 0)
(0 0 0)
(0 0 0)
(0 0 0)
(0 0 0)
(-8.45821e-28 2.92253e-29 0)
(0 0 0)
(-9.14441e-26 1.3319e-27 0)
(-1.22942e-27 1.99154e-28 0)
)


// ************************************************************************* //
