/*--------------------------------*- C++ -*----------------------------------*\
| =========                 |                                                 |
| \\      /  F ield         | OpenFOAM: The Open Source CFD Toolbox           |
|  \\    /   O peration     | Version:  v2012                                 |
|   \\  /    A nd           | Website:  www.openfoam.com                      |
|    \\/     M anipulation  |                                                 |
\*---------------------------------------------------------------------------*/
FoamFile
{
    version     2.0;
    format      ascii;
    class       volScalarField;
    location    "0.113";
    object      k.air;
}
// * * * * * * * * * * * * * * * * * * * * * * * * * * * * * * * * * * * * * //

dimensions      [0 2 -2 0 0 0 0];


internalField   nonuniform List<scalar> 
5600
(
0.606299
0.840814
0.955117
0.978164
0.949161
0.89761
0.839527
0.787308
0.743256
0.707334
0.679291
0.658432
0.643292
0.632715
0.625252
0.620093
0.616235
0.613348
0.610899
0.608861
0.607048
0.605487
0.604181
0.603157
0.602391
0.601806
0.601403
0.601066
0.600858
0.60058
0.600432
0.600042
0.599843
0.599317
0.599124
0.598434
0.598337
0.597494
0.597593
0.596551
0.596935
0.595637
0.596391
0.594794
0.595969
0.594164
0.595564
0.593884
0.594901
0.594075
0.593795
0.594773
0.592527
0.595542
0.591864
0.595474
0.592595
0.593784
0.594737
0.590905
0.596888
0.588678
0.597244
0.588779
0.595
0.591375
0.591096
0.594983
0.587581
0.597228
0.586763
0.596018
0.59013
0.590585
0.597099
0.583447
0.603312
0.580115
0.602988
0.584824
0.593969
0.596414
0.581699
0.606577
0.576292
0.605964
0.58276
0.593983
0.596205
0.581764
0.602374
0.582709
0.592549
0.599134
0.568785
0.628418
0.53307
0.673707
0.453675
0.790982
0.371637
0.315568
0.288658
0.275665
0.274961
0.284665
0.307348
0.344944
0.387117
0.43022
0.47145
0.508996
0.541782
0.569436
0.591929
0.60979
0.62347
0.633928
0.641718
0.6478
0.652516
0.656447
0.659946
0.663093
0.665841
0.66816
0.670223
0.671792
0.673236
0.67397
0.674889
0.674885
0.67569
0.675202
0.676119
0.675192
0.676477
0.67499
0.676929
0.674728
0.677595
0.674462
0.678434
0.674238
0.679284
0.674471
0.67967
0.675798
0.678683
0.678597
0.67601
0.682291
0.673041
0.685167
0.673087
0.68425
0.678871
0.678351
0.688494
0.670779
0.696292
0.667254
0.696157
0.672285
0.687068
0.683729
0.674007
0.695308
0.664471
0.69978
0.665714
0.690681
0.681789
0.668934
0.705847
0.647024
0.721357
0.642943
0.710664
0.667797
0.674379
0.708019
0.638203
0.732603
0.631252
0.717622
0.66389
0.673229
0.705884
0.644381
0.712038
0.662042
0.669631
0.721812
0.59781
0.790949
0.535985
0.806838
0.550487
0.728017
0.369148
0.281904
0.227732
0.192998
0.168586
0.153799
0.145609
0.143623
0.146965
0.155108
0.16702
0.181956
0.19927
0.218596
0.239111
0.260648
0.282451
0.304573
0.32636
0.348284
0.369466
0.390433
0.409193
0.425646
0.439837
0.452157
0.462914
0.471942
0.479996
0.486572
0.492871
0.497563
0.502912
0.506147
0.511034
0.512879
0.517781
0.51823
0.523667
0.522627
0.529082
0.52638
0.534066
0.529646
0.538304
0.533236
0.541107
0.538217
0.541549
0.544985
0.539789
0.552198
0.538375
0.556604
0.542103
0.554612
0.553528
0.546568
0.568388
0.538768
0.577687
0.538958
0.574398
0.550167
0.560333
0.567204
0.543563
0.581208
0.534413
0.582305
0.541981
0.564219
0.568164
0.532754
0.599479
0.508259
0.611208
0.513884
0.585874
0.555102
0.534764
0.605923
0.495094
0.624714
0.501572
0.591125
0.552356
0.53401
0.598369
0.510551
0.59136
0.543513
0.535921
0.609786
0.4696
0.653889
0.456888
0.611716
0.541953
0.496859
0.370098
0.280654
0.224104
0.18606
0.158545
0.138204
0.122948
0.111362
0.102902
0.0970173
0.0935273
0.0923324
0.0929175
0.0953944
0.0994363
0.105363
0.112746
0.122008
0.13273
0.145353
0.159358
0.17523
0.192409
0.210536
0.229018
0.247453
0.265442
0.282006
0.297756
0.311711
0.325294
0.33647
0.34821
0.356874
0.367539
0.373742
0.384043
0.387865
0.398515
0.399835
0.41136
0.409954
0.422478
0.418594
0.431362
0.426855
0.437195
0.436592
0.439539
0.44816
0.439386
0.459135
0.440824
0.464595
0.449716
0.460979
0.467554
0.451294
0.486969
0.445032
0.496015
0.450939
0.488568
0.468954
0.469887
0.491068
0.450885
0.505585
0.444429
0.501007
0.460373
0.472732
0.496682
0.433123
0.531808
0.410578
0.534828
0.429543
0.49343
0.485958
0.43109
0.541472
0.394939
0.547829
0.418669
0.495954
0.483352
0.433501
0.524842
0.421649
0.504047
0.465011
0.444492
0.526978
0.39399
0.542725
0.416822
0.480978
0.494025
0.412345
0.370291
0.280785
0.224378
0.186054
0.158418
0.137656
0.121535
0.108753
0.098362
0.0899562
0.082962
0.0773851
0.0727976
0.0692774
0.0665368
0.0647085
0.0636828
0.0635789
0.0642535
0.0659136
0.0685349
0.0722853
0.0773128
0.083596
0.0913331
0.100239
0.110607
0.121536
0.13381
0.145921
0.159673
0.172274
0.187057
0.198511
0.213501
0.222894
0.238133
0.244856
0.260736
0.264328
0.281408
0.28156
0.299925
0.297319
0.315321
0.312867
0.326311
0.330127
0.332554
0.34901
0.336196
0.365224
0.3432
0.372248
0.359829
0.367696
0.385571
0.358089
0.409408
0.356002
0.41745
0.369667
0.405771
0.395378
0.383286
0.421952
0.363704
0.435293
0.362058
0.423007
0.388078
0.383809
0.433992
0.338221
0.469004
0.321691
0.459423
0.35628
0.402002
0.425779
0.332656
0.479841
0.30568
0.469237
0.347942
0.402048
0.420628
0.342172
0.450502
0.344497
0.418817
0.392394
0.362574
0.442868
0.332981
0.435012
0.371962
0.383295
0.413692
0.363015
0.37032
0.280818
0.224504
0.186221
0.158633
0.13792
0.121794
0.108959
0.098448
0.0897781
0.0824339
0.0762298
0.0708706
0.0662829
0.0622776
0.0588291
0.0558334
0.0532898
0.0511261
0.0493351
0.0479418
0.0468687
0.0462953
0.046054
0.0464911
0.047182
0.0489291
0.0506328
0.0541176
0.0568061
0.0624736
0.0660374
0.0743018
0.0782692
0.0893091
0.0929646
0.106853
0.109355
0.126189
0.126781
0.146708
0.145202
0.167267
0.164224
0.18548
0.184966
0.199407
0.208762
0.208742
0.233977
0.216684
0.254087
0.230378
0.26159
0.256064
0.256588
0.289948
0.249895
0.317035
0.255927
0.323174
0.279893
0.308159
0.313588
0.284192
0.342828
0.267033
0.352389
0.27309
0.330217
0.31031
0.28098
0.362402
0.234768
0.390662
0.229954
0.365037
0.28068
0.295175
0.355979
0.228066
0.398996
0.217475
0.368998
0.276263
0.295151
0.343498
0.250704
0.354383
0.266909
0.319676
0.308163
0.27742
0.339797
0.269716
0.31792
0.304534
0.294037
0.308571
0.301566
0.370324
0.280816
0.224527
0.186261
0.158704
0.138011
0.121921
0.109097
0.0986218
0.0899415
0.0826075
0.0763605
0.0709528
0.0662574
0.0621187
0.0584713
0.0552198
0.0523197
0.0497239
0.0473763
0.0453016
0.0433729
0.0417442
0.0401521
0.0389685
0.0376143
0.03698
0.0357094
0.0358726
0.034461
0.0358183
0.0340162
0.0370748
0.0344727
0.0399388
0.03606
0.0446487
0.0389965
0.0513743
0.043561
0.0599591
0.0505555
0.0696457
0.0611616
0.0782781
0.0768526
0.0841808
0.0980485
0.0885513
0.121159
0.0965004
0.137799
0.114862
0.141005
0.145987
0.133948
0.182187
0.131627
0.206927
0.14719
0.209401
0.17997
0.193649
0.217296
0.17245
0.244699
0.161093
0.247927
0.175717
0.217488
0.219985
0.165038
0.269144
0.127034
0.283154
0.137567
0.244591
0.196061
0.175436
0.262423
0.124045
0.284807
0.133915
0.242061
0.195579
0.18055
0.239301
0.163071
0.231565
0.184428
0.206939
0.207745
0.184941
0.219109
0.19321
0.194426
0.2122
0.195642
0.197574
0.207962
0.370324
0.280806
0.224525
0.186261
0.158716
0.138028
0.121954
0.109134
0.0986766
0.0900003
0.0826818
0.0764386
0.0710419
0.0663439
0.0622075
0.058548
0.055283
0.052354
0.0497184
0.0473188
0.0451609
0.0431505
0.0413719
0.0396478
0.0381985
0.0366577
0.0355501
0.0340639
0.0333802
0.0317739
0.0316756
0.0297318
0.0304698
0.0278649
0.0298312
0.0261414
0.0298511
0.0245588
0.0306024
0.0232941
0.0318696
0.0230315
0.0328601
0.0252738
0.0320759
0.0316336
0.0286055
0.0420246
0.0246741
0.0525696
0.0265233
0.0564323
0.0400717
0.0500725
0.0635927
0.039882
0.0867831
0.039881
0.0984855
0.0577094
0.0960369
0.0871418
0.0848698
0.11644
0.0720224
0.135592
0.0680109
0.133109
0.0858907
0.103881
0.123197
0.0646119
0.153257
0.0465643
0.150263
0.0653875
0.11653
0.107283
0.073024
0.144027
0.0508632
0.144465
0.0711057
0.110071
0.108676
0.0838081
0.117373
0.0918022
0.103535
0.10304
0.0978117
0.10807
0.0930318
0.105419
0.108551
0.0857535
0.114245
0.094823
0.104663
0.0979301
0.370323
0.280796
0.224519
0.186254
0.158714
0.138027
0.121958
0.10914
0.098689
0.0900145
0.0827023
0.0764611
0.0710711
0.0663746
0.0622441
0.0585865
0.0553248
0.0523981
0.0497611
0.0473659
0.0451953
0.0431957
0.0413849
0.0396832
0.038164
0.0366799
0.0354173
0.0340747
0.0330636
0.0317811
0.0310459
0.0297334
0.0293301
0.0278689
0.0279015
0.0261354
0.0267603
0.0244945
0.0258911
0.0229889
0.0251491
0.0218624
0.0241592
0.021643
0.0223576
0.0228351
0.0195283
0.025153
0.0167592
0.0268568
0.016609
0.0254912
0.0209649
0.0204686
0.0282814
0.0152493
0.0340037
0.01529
0.0349939
0.0221579
0.0322635
0.0326567
0.027907
0.0432451
0.0233296
0.0500806
0.0230668
0.0470308
0.0325405
0.0330932
0.0472438
0.0197006
0.0534943
0.0199328
0.0459292
0.0311795
0.0329062
0.0433577
0.0225671
0.0485844
0.0241325
0.0400648
0.0374213
0.0272372
0.0443344
0.0294216
0.033673
0.0426517
0.024908
0.0436347
0.0278481
0.0410908
0.0300372
0.0344709
0.042534
0.0235196
0.043967
0.0285963
0.0414648
0.0291621
0.370323
0.280792
0.224515
0.18625
0.158711
0.138026
0.121958
0.109142
0.0986921
0.0900184
0.0827084
0.0764679
0.0710803
0.0663844
0.062256
0.0585994
0.0553393
0.0524144
0.0497776
0.047386
0.0452123
0.0432202
0.0414004
0.0397135
0.0381727
0.0367208
0.0354077
0.0341358
0.0330158
0.0318787
0.0309299
0.0298893
0.0291001
0.0281174
0.0274901
0.0265208
0.0260762
0.0250668
0.0248324
0.0237473
0.0236997
0.02261
0.0225699
0.0217621
0.0213163
0.0212715
0.0199316
0.0209907
0.0187065
0.0204893
0.0181633
0.0193346
0.0185188
0.0176306
0.0192127
0.016231
0.0193032
0.0159934
0.0185464
0.0168206
0.0175002
0.0180799
0.0164384
0.0193804
0.0154771
0.0197473
0.0159205
0.0175509
0.0186429
0.0136867
0.0208705
0.0126199
0.0185791
0.016591
0.012753
0.0217671
0.00859075
0.0232009
0.00989503
0.0187516
0.0168459
0.0105814
0.024113
0.00614461
0.0240653
0.0104199
0.0172722
0.0173818
0.0122057
0.0208064
0.00930761
0.024241
0.00640711
0.0240484
0.0103842
0.0180549
0.0162976
0.0124069
0.0230557
0.00668476
0.370323
0.280793
0.224517
0.186252
0.158714
0.138028
0.121961
0.109144
0.0986946
0.0900207
0.0827108
0.0764698
0.0710825
0.0663862
0.062258
0.0586011
0.0553411
0.052416
0.049779
0.0473879
0.0452131
0.0432226
0.0414003
0.0397171
0.0381706
0.0367271
0.0354016
0.0341479
0.033002
0.0319011
0.0309037
0.0299284
0.0290543
0.0281826
0.0274145
0.0266255
0.025957
0.0252276
0.0246586
0.0239686
0.0234886
0.0228486
0.022412
0.0218852
0.0213987
0.02108
0.0204451
0.0203861
0.0196116
0.0197307
0.0190086
0.019054
0.0186749
0.0183576
0.0184933
0.0177722
0.0183211
0.0175589
0.0181502
0.0179303
0.0179579
0.0188333
0.0176738
0.0196843
0.0176819
0.0192836
0.0188939
0.0168932
0.0211932
0.0139864
0.0223027
0.0135983
0.019918
0.0170232
0.0146126
0.0222009
0.0096259
0.0252594
0.00869615
0.0231772
0.0131277
0.0171683
0.019226
0.0123414
0.0223908
0.0106985
0.0232534
0.0100033
0.0234272
0.0110819
0.0201228
0.0170633
0.0127365
0.0244943
0.00690749
0.0281724
0.0053752
0.0261351
0.0126735
0.0141727
0.370324
0.2808
0.224525
0.18626
0.158722
0.138034
0.121967
0.109147
0.0986968
0.0900206
0.0827096
0.0764663
0.071078
0.0663793
0.0622502
0.0585908
0.0553302
0.0524027
0.0497649
0.0473723
0.0451962
0.0432053
0.0413818
0.0396996
0.0381525
0.0367118
0.0353864
0.0341403
0.0329938
0.0319078
0.0309108
0.0299619
0.0290884
0.0282615
0.027495
0.0267761
0.0261135
0.0254911
0.0249408
0.0243976
0.0239673
0.0235098
0.0232066
0.0228682
0.0226755
0.0225036
0.0223789
0.022456
0.0223801
0.0228652
0.0228044
0.0238079
0.0237096
0.0250942
0.02518
0.0265908
0.0276794
0.0287564
0.0316335
0.0322786
0.0362204
0.0371964
0.0397051
0.04237
0.0415201
0.0455113
0.0431044
0.0449608
0.0456256
0.0418258
0.047854
0.0391708
0.0479031
0.0389471
0.0456038
0.0411936
0.0417055
0.0450071
0.0377073
0.0480466
0.0355415
0.0490202
0.0349467
0.0490274
0.0355103
0.0468345
0.0402312
0.0395414
0.0496077
0.0303338
0.056444
0.0274541
0.0537107
0.0350214
0.0420387
0.0496555
0.0270212
0.0621214
0.0208956
0.0586461
0.370326
0.280811
0.224538
0.186271
0.158731
0.138039
0.121969
0.109144
0.0986905
0.0900085
0.0826948
0.0764449
0.0710546
0.0663494
0.0622191
0.0585539
0.0552941
0.0523625
0.0497276
0.0473369
0.045166
0.0431851
0.0413731
0.0397115
0.0381899
0.0367837
0.0355061
0.0343218
0.0332512
0.0322697
0.0314035
0.030622
0.0299523
0.0293887
0.0289306
0.0286128
0.0284106
0.0283837
0.0285055
0.0287953
0.0293311
0.0300177
0.0310891
0.0322295
0.0338904
0.0355246
0.0377934
0.040117
0.0430241
0.0464501
0.0496818
0.0544369
0.0571675
0.0632513
0.0654785
0.0727784
0.0760259
0.0834523
0.0896255
0.0947325
0.10394
0.105375
0.114906
0.114647
0.120223
0.121718
0.121255
0.125377
0.121139
0.125536
0.121372
0.123683
0.122087
0.120884
0.124054
0.117272
0.126778
0.114764
0.127407
0.115676
0.124267
0.120365
0.117856
0.12774
0.110173
0.134032
0.107003
0.132434
0.113913
0.121354
0.127057
0.108708
0.136344
0.103909
0.135544
0.1101
0.124683
0.124142
0.110225
0.136143
0.370327
0.280822
0.224547
0.186273
0.158726
0.138022
0.121945
0.109105
0.0986447
0.0899478
0.082629
0.0763661
0.0709779
0.0662666
0.0621508
0.0584931
0.0552678
0.052368
0.0497965
0.047479
0.0454115
0.043567
0.0419276
0.040503
0.0392717
0.0382427
0.037437
0.0368516
0.036511
0.0364675
0.0367328
0.0373401
0.0383235
0.0397322
0.0415723
0.0439322
0.0467704
0.0501776
0.0540907
0.0586107
0.0636689
0.0692509
0.0753853
0.0817987
0.0887718
0.095759
0.103445
0.110989
0.119215
0.127273
0.135336
0.143679
0.150375
0.159492
0.164741
0.175257
0.179908
0.190816
0.196329
0.204365
0.21216
0.214379
0.224376
0.221419
0.230602
0.227011
0.231196
0.231478
0.228998
0.234182
0.226647
0.235138
0.225565
0.234099
0.227296
0.229939
0.232488
0.22361
0.23814
0.219396
0.239805
0.220633
0.235672
0.227512
0.226776
0.237462
0.217519
0.244104
0.215009
0.241417
0.222492
0.230916
0.234246
0.220253
0.24275
0.215005
0.243649
0.219151
0.234604
0.231816
0.370325
0.280828
0.224529
0.186234
0.158662
0.137927
0.121831
0.108957
0.0984949
0.0897859
0.0824987
0.0762734
0.0709906
0.0663973
0.0624923
0.0590714
0.0562218
0.053749
0.0517719
0.0501511
0.0490014
0.0482661
0.0480707
0.0484116
0.0493767
0.0510013
0.0534051
0.0565872
0.0606433
0.0656194
0.0715567
0.0784047
0.086033
0.094444
0.103443
0.113028
0.122946
0.133247
0.143764
0.154544
0.165287
0.175952
0.186405
0.196509
0.206367
0.215741
0.225069
0.233784
0.242546
0.250573
0.258315
0.265788
0.272141
0.279853
0.284629
0.2934
0.296899
0.306193
0.309362
0.31668
0.321233
0.323633
0.330787
0.327721
0.336087
0.330807
0.336688
0.334044
0.334265
0.337013
0.331156
0.339081
0.328965
0.339577
0.329313
0.336963
0.33355
0.331024
0.339987
0.325081
0.344248
0.32323
0.343244
0.327164
0.336569
0.335929
0.326877
0.344993
0.320266
0.347773
0.321933
0.342024
0.330551
0.332
0.340674
0.323009
0.347455
0.319785
0.346091
0.325996
0.370307
0.280788
0.224404
0.186076
0.158441
0.137689
0.121606
0.108812
0.0985618
0.0901626
0.0834266
0.077957
0.0737112
0.0703885
0.0681169
0.0666709
0.0663309
0.0667802
0.0684086
0.0709773
0.0749374
0.0801478
0.0869546
0.0951519
0.104968
0.116013
0.128226
0.141236
0.155047
0.169412
0.184276
0.198931
0.213205
0.226995
0.240182
0.252766
0.264651
0.275943
0.286534
0.296598
0.306079
0.315025
0.323373
0.33109
0.338361
0.345082
0.351663
0.357685
0.363749
0.369143
0.374436
0.37928
0.383419
0.388341
0.391291
0.397176
0.398944
0.405596
0.406642
0.412304
0.414035
0.416234
0.420232
0.417833
0.424027
0.418739
0.424585
0.420378
0.42256
0.422715
0.419563
0.425041
0.416967
0.426506
0.41616
0.425597
0.418666
0.421304
0.424129
0.415493
0.429308
0.411859
0.430791
0.412885
0.427141
0.418897
0.419356
0.427403
0.411581
0.433092
0.409097
0.431987
0.413375
0.425236
0.421636
0.41631
0.430395
0.409003
0.434877
0.408535
0.370196
0.28054
0.22423
0.186053
0.15871
0.138521
0.123433
0.112317
0.104424
0.0992841
0.0968372
0.0965686
0.0983737
0.102006
0.107634
0.115003
0.124349
0.135445
0.148592
0.163398
0.180317
0.198733
0.21829
0.238269
0.258307
0.277673
0.295832
0.31266
0.328137
0.342254
0.354979
0.366561
0.377092
0.386681
0.39546
0.403557
0.411028
0.41797
0.424365
0.430296
0.435695
0.440731
0.445284
0.449362
0.453169
0.456635
0.46008
0.46317
0.466381
0.469115
0.471942
0.474442
0.476701
0.479483
0.481095
0.484805
0.485571
0.49015
0.490118
0.494408
0.494561
0.496551
0.49839
0.496851
0.500987
0.496532
0.501539
0.497029
0.500059
0.498602
0.497574
0.50072
0.495082
0.502538
0.493705
0.502746
0.494827
0.500075
0.498852
0.495264
0.503759
0.491135
0.50651
0.490287
0.505194
0.493783
0.499756
0.500539
0.492638
0.506899
0.488196
0.508717
0.489171
0.505182
0.494689
0.498144
0.502732
0.489996
0.509758
0.485613
0.369474
0.281382
0.228615
0.193056
0.170707
0.155962
0.150113
0.150445
0.156559
0.167308
0.181624
0.19881
0.218422
0.239722
0.262346
0.285623
0.309399
0.333092
0.356943
0.380287
0.403304
0.423856
0.441749
0.457308
0.470496
0.482405
0.492497
0.501027
0.508348
0.514617
0.520106
0.524942
0.529233
0.533038
0.536437
0.539504
0.542288
0.544876
0.547274
0.549581
0.551736
0.553768
0.55567
0.557437
0.559123
0.560676
0.562285
0.563691
0.565219
0.566395
0.56774
0.568807
0.569929
0.571339
0.572193
0.574412
0.57473
0.57774
0.577288
0.580397
0.579707
0.581501
0.581855
0.581113
0.58345
0.580146
0.583981
0.579835
0.583095
0.580718
0.581255
0.582422
0.57913
0.584262
0.577545
0.585183
0.577623
0.583921
0.580176
0.580426
0.584219
0.576529
0.587451
0.574532
0.587889
0.575877
0.584744
0.580515
0.579173
0.586256
0.574185
0.589722
0.572748
0.58902
0.575396
0.584639
0.581229
0.577769
0.588357
0.571762
0.37219
0.315455
0.292828
0.279513
0.286386
0.295384
0.331454
0.373609
0.418628
0.463066
0.50455
0.541601
0.573479
0.599925
0.62122
0.637808
0.650547
0.66007
0.667423
0.673047
0.677643
0.681647
0.685135
0.688111
0.690604
0.692634
0.694332
0.695596
0.69648
0.697003
0.697261
0.697355
0.697346
0.697266
0.697126
0.696965
0.696783
0.696646
0.696521
0.696483
0.696458
0.696478
0.696513
0.696558
0.696637
0.696715
0.696886
0.696962
0.697156
0.697113
0.697272
0.697246
0.697421
0.697736
0.697915
0.698859
0.698765
0.700314
0.699625
0.701439
0.70032
0.701622
0.701022
0.700803
0.701653
0.69958
0.702005
0.698798
0.701647
0.699091
0.700511
0.700257
0.698967
0.701804
0.697534
0.703001
0.696977
0.702823
0.698191
0.700738
0.700996
0.697698
0.703923
0.695357
0.705369
0.695135
0.704212
0.697642
0.700613
0.701877
0.696356
0.705583
0.693747
0.706825
0.694013
0.705086
0.697137
0.700721
0.702388
0.69544
0.606742
0.839813
0.952197
0.969554
0.937538
0.881262
0.821358
0.769008
0.724419
0.688384
0.660681
0.640129
0.625398
0.614954
0.607665
0.60239
0.598513
0.595428
0.592917
0.590802
0.588979
0.587527
0.586346
0.585458
0.584758
0.584199
0.583769
0.583415
0.583086
0.582737
0.582331
0.581881
0.581385
0.580861
0.580308
0.579748
0.579183
0.578631
0.578089
0.57758
0.577086
0.576622
0.576189
0.575806
0.57547
0.575166
0.5749
0.574625
0.574398
0.574143
0.57398
0.573784
0.5737
0.573629
0.573579
0.573645
0.573481
0.573661
0.57322
0.573491
0.572816
0.573065
0.572471
0.572445
0.572332
0.571803
0.572327
0.571388
0.572276
0.571344
0.572046
0.571655
0.571653
0.572169
0.571201
0.572655
0.570904
0.572824
0.571051
0.572426
0.571755
0.571552
0.572727
0.570671
0.573428
0.570295
0.573453
0.570704
0.572661
0.57184
0.57136
0.573169
0.570253
0.573979
0.569895
0.573951
0.570394
0.573059
0.571698
0.571351
0.149091
1.91375
2.65631
2.89366
3.07182
3.14095
3.14159
3.12471
3.15171
3.03134
2.85046
2.66808
2.26625
1.42519
0.579814
0.19987
0.0755741
0.0572086
0.0247884
0.0568906
0.0141953
0.0286888
0.1904
0.357653
0.441133
0.437854
0.380281
0.299723
0.219196
0.152621
0.105261
0.0747752
0.0558667
0.0438528
0.0358914
0.0304736
0.0267283
0.0240706
0.0220887
0.0205077
0.019172
0.0180137
0.0170171
0.0161884
0.015531
0.0150288
0.0146405
0.0143116
0.0140019
0.0137034
0.0134313
0.013203
0.0130277
0.0129067
0.0128313
0.0127879
0.0127642
0.0127516
0.012745
0.0127418
0.0127398
0.0127392
0.0127384
0.0127385
0.012738
0.0127383
0.0127379
0.0127383
0.0127378
0.0127383
0.0127377
0.0127384
0.0127377
0.0127384
0.0127377
0.0127384
0.0127376
0.0127385
0.0127375
0.0127385
0.0127375
0.0127386
0.0127375
0.0127386
0.0127374
0.0127386
0.0127374
0.0127387
0.0127373
0.0127387
0.0127373
0.0127388
0.0127372
0.0127388
0.0127371
0.0127386
0.0127368
0.0127384
0.0127367
0.0127393
0.56272
0.859597
1.81756
2.27854
2.55938
2.69528
2.74308
2.73867
2.77696
2.65656
2.47655
2.29543
1.8422
0.983607
0.295565
0.0978534
0.048213
0.0458065
0.0179184
0.0472493
0.0296676
0.00294732
0.102185
0.256367
0.351547
0.362181
0.315214
0.243658
0.172647
0.116558
0.0792052
0.0567792
0.0437051
0.0357213
0.0304948
0.0268926
0.0243298
0.0224427
0.0209756
0.0197502
0.0186618
0.0176693
0.016776
0.0160046
0.0153738
0.0148819
0.014501
0.0141867
0.0139011
0.0136311
0.0133867
0.0131818
0.0130219
0.0129078
0.0128348
0.0127919
0.0127679
0.0127549
0.0127478
0.0127442
0.0127421
0.0127413
0.0127404
0.0127405
0.0127399
0.0127403
0.0127398
0.0127403
0.0127397
0.0127403
0.0127396
0.0127404
0.0127396
0.0127404
0.0127395
0.0127405
0.0127395
0.0127405
0.0127394
0.0127406
0.0127394
0.0127407
0.0127393
0.0127407
0.0127392
0.0127408
0.0127392
0.0127409
0.0127391
0.0127409
0.012739
0.012741
0.0127389
0.0127411
0.0127388
0.0127411
0.0127388
0.0127413
0.0127392
0.0127432
0.61361
0.458574
0.810291
1.30013
1.75642
2.03129
2.17555
2.22069
2.29628
2.18713
2.03412
1.85941
1.31199
0.525764
0.0949976
0.0472473
0.0417525
0.0382207
0.0272043
0.039469
0.0419126
0.00593638
0.0384918
0.159671
0.255686
0.278307
0.243024
0.183265
0.125671
0.0835361
0.0576776
0.0431924
0.0351061
0.0302305
0.0269635
0.0245879
0.0227831
0.0213729
0.0202226
0.0192215
0.018295
0.0174147
0.0165918
0.0158581
0.0152423
0.0147535
0.0143753
0.0140727
0.0138102
0.0135692
0.0133517
0.0131672
0.0130209
0.0129137
0.0128427
0.0127994
0.0127743
0.0127602
0.0127523
0.0127481
0.0127456
0.0127447
0.0127436
0.0127437
0.012743
0.0127435
0.0127428
0.0127434
0.0127427
0.0127435
0.0127426
0.0127435
0.0127426
0.0127436
0.0127425
0.0127437
0.0127424
0.0127437
0.0127423
0.0127438
0.0127423
0.0127439
0.0127422
0.012744
0.0127421
0.0127441
0.012742
0.0127442
0.0127419
0.0127443
0.0127418
0.0127445
0.0127417
0.0127446
0.0127416
0.0127449
0.0127418
0.0127457
0.0127431
0.0127493
0.515636
0.437714
0.48023
0.554594
0.856107
1.17301
1.41574
1.53535
1.66566
1.58427
1.494
1.312
0.681462
0.165941
0.00504272
0.0378212
0.0488375
0.0290892
0.0438488
0.0427848
0.0504168
0.0149677
0.00516941
0.0810796
0.163461
0.191764
0.168377
0.124393
0.0846195
0.0580329
0.042797
0.0345216
0.0298801
0.0269762
0.0248814
0.0232094
0.0218283
0.0206824
0.0197126
0.0188475
0.0180269
0.0172243
0.016451
0.0157419
0.0151327
0.0146414
0.014262
0.0139681
0.0137267
0.0135139
0.0133225
0.0131571
0.0130234
0.0129238
0.0128555
0.0128118
0.0127851
0.0127694
0.0127603
0.0127553
0.0127522
0.0127509
0.0127496
0.0127497
0.0127488
0.0127493
0.0127486
0.0127493
0.0127485
0.0127493
0.0127483
0.0127494
0.0127482
0.0127495
0.0127482
0.0127496
0.0127481
0.0127497
0.012748
0.0127498
0.0127479
0.0127499
0.0127478
0.01275
0.0127476
0.0127501
0.0127475
0.0127503
0.0127474
0.0127504
0.0127472
0.0127506
0.0127471
0.0127509
0.0127472
0.0127514
0.0127477
0.0127529
0.0127499
0.0127585
0.405678
0.386091
0.393397
0.348674
0.428326
0.484765
0.645708
0.75877
0.899059
0.861078
0.849174
0.632833
0.132407
0.0169145
0.0090471
0.0448434
0.0566616
0.0249362
0.0730095
0.0785389
0.0659214
0.0346881
0.00102491
0.0332514
0.0911777
0.116245
0.103597
0.0776998
0.0559216
0.0421398
0.0342398
0.0297404
0.0270326
0.0251817
0.0236976
0.0223894
0.0212263
0.0202181
0.0193487
0.0185686
0.0178223
0.0170787
0.0163441
0.0156526
0.0150444
0.0145459
0.0141606
0.0138698
0.0136441
0.0134558
0.0132894
0.0131443
0.0130258
0.0129356
0.0128711
0.0128274
0.0127991
0.0127815
0.0127708
0.0127647
0.0127609
0.0127592
0.0127576
0.0127576
0.0127566
0.0127571
0.0127562
0.012757
0.0127561
0.0127571
0.012756
0.0127572
0.0127559
0.0127573
0.0127558
0.0127573
0.0127557
0.0127575
0.0127556
0.0127576
0.0127555
0.0127577
0.0127553
0.0127579
0.0127552
0.012758
0.012755
0.0127581
0.0127549
0.0127583
0.0127548
0.0127586
0.0127547
0.0127589
0.0127548
0.0127597
0.0127556
0.0127616
0.0127585
0.0127688
0.297473
0.311023
0.303001
0.265632
0.303302
0.236917
0.293426
0.265214
0.267779
0.261237
0.184409
0.112788
0.0302987
0.00867664
0.0213291
0.0487737
0.0631441
0.0427119
0.13103
0.175067
0.12035
0.0626065
0.0160497
0.0169582
0.0484864
0.0653657
0.0609567
0.0497121
0.040313
0.0340257
0.0299526
0.0272978
0.0255091
0.0241614
0.0229779
0.0218535
0.0208024
0.019868
0.0190594
0.0183402
0.0176544
0.0169633
0.0162647
0.0155892
0.0149794
0.0144695
0.0140718
0.013776
0.0135567
0.0133864
0.0132438
0.0131212
0.0130201
0.0129408
0.0128812
0.0128386
0.0128095
0.0127906
0.0127786
0.0127715
0.012767
0.0127649
0.012763
0.0127628
0.0127617
0.0127622
0.0127613
0.0127621
0.0127611
0.0127621
0.012761
0.0127622
0.0127609
0.0127623
0.0127608
0.0127624
0.0127607
0.0127625
0.0127606
0.0127626
0.0127605
0.0127627
0.0127604
0.0127629
0.0127602
0.012763
0.0127601
0.0127632
0.0127599
0.0127633
0.0127598
0.0127635
0.0127598
0.0127639
0.01276
0.0127647
0.0127609
0.0127669
0.0127642
0.0127747
0.186213
0.223695
0.181645
0.199062
0.169229
0.157777
0.170886
0.0873999
0.125556
0.0550202
0.0222456
0.0318597
0.0131778
0.0072611
0.0424231
0.0591936
0.0795432
0.110124
0.252253
0.359977
0.269296
0.133385
0.0487086
0.0234925
0.0319589
0.0400976
0.0400151
0.0367923
0.0334575
0.0305269
0.0280675
0.0261538
0.0247212
0.0235692
0.0225077
0.0214616
0.0204606
0.0195646
0.0187975
0.0181296
0.017502
0.0168652
0.0162061
0.0155495
0.0149392
0.0144154
0.0139996
0.0136896
0.0134667
0.0133054
0.0131819
0.0130807
0.0129965
0.0129281
0.0128746
0.0128348
0.0128068
0.0127881
0.012776
0.0127687
0.0127639
0.0127616
0.0127596
0.0127593
0.0127582
0.0127586
0.0127577
0.0127585
0.0127576
0.0127585
0.0127575
0.0127586
0.0127574
0.0127586
0.0127573
0.0127587
0.0127572
0.0127588
0.0127571
0.0127589
0.012757
0.012759
0.0127569
0.0127591
0.0127568
0.0127592
0.0127567
0.0127594
0.0127566
0.0127595
0.0127565
0.0127597
0.0127565
0.01276
0.0127566
0.0127607
0.0127575
0.0127627
0.0127606
0.0127702
0.0936428
0.114537
0.0898785
0.0964297
0.0717299
0.0795752
0.0600999
0.0471828
0.0426981
0.0180163
0.00850749
0.0304984
0.00596586
0.0162486
0.0605159
0.0780579
0.130701
0.259492
0.476413
0.637883
0.541856
0.313487
0.136998
0.0557481
0.0363889
0.0346383
0.034207
0.0334377
0.0321651
0.0302942
0.0281843
0.0262745
0.0247332
0.0234698
0.0223264
0.021227
0.0201963
0.0192939
0.0185455
0.0179192
0.017348
0.0167695
0.0161566
0.0155253
0.014919
0.0143832
0.0139475
0.0136184
0.0133839
0.0132217
0.0131076
0.0130209
0.0129503
0.0128922
0.0128462
0.0128117
0.0127872
0.0127707
0.0127599
0.0127533
0.012749
0.0127469
0.0127451
0.0127448
0.0127438
0.0127442
0.0127434
0.012744
0.0127433
0.012744
0.0127432
0.0127441
0.0127431
0.0127441
0.012743
0.0127442
0.012743
0.0127443
0.0127429
0.0127443
0.0127428
0.0127444
0.0127427
0.0127445
0.0127426
0.0127446
0.0127426
0.0127447
0.0127425
0.0127448
0.0127424
0.0127449
0.0127424
0.0127452
0.0127426
0.0127457
0.0127433
0.0127473
0.0127457
0.0127535
0.0334361
0.0400528
0.0292694
0.0367072
0.0178479
0.0277034
0.0190918
0.0131707
0.0199743
0.00351722
0.0165773
0.0213817
0.0032242
0.0448238
0.0934735
0.133832
0.266227
0.51507
0.804277
0.985778
0.890793
0.607332
0.338088
0.164991
0.0822598
0.0521132
0.0435343
0.0409133
0.0385704
0.0354137
0.0319642
0.0288761
0.0264076
0.0244653
0.0228477
0.0214286
0.0201938
0.0191765
0.0183816
0.0177579
0.0172196
0.0166863
0.0161149
0.0155096
0.0149104
0.0143666
0.0139144
0.0135671
0.0133178
0.0131476
0.0130331
0.0129524
0.0128905
0.0128412
0.012803
0.012775
0.0127555
0.0127426
0.0127344
0.0127294
0.0127262
0.0127246
0.0127233
0.012723
0.0127223
0.0127225
0.012722
0.0127224
0.0127219
0.0127224
0.0127218
0.0127225
0.0127218
0.0127225
0.0127217
0.0127225
0.0127217
0.0127226
0.0127216
0.0127227
0.0127216
0.0127227
0.0127215
0.0127228
0.0127214
0.0127229
0.0127213
0.012723
0.0127213
0.0127231
0.0127212
0.0127232
0.0127212
0.0127233
0.0127212
0.0127237
0.0127216
0.0127248
0.0127234
0.0127295
0.0230732
0.0115607
0.0178366
0.017339
0.00977479
0.0231396
0.00325635
0.0260199
0.012524
0.0106312
0.0332675
0.0220941
0.0502544
0.107789
0.161326
0.267001
0.513762
0.849931
1.1748
1.35158
1.25139
0.947063
0.620776
0.375419
0.228274
0.149337
0.106805
0.0826893
0.0670266
0.0552433
0.0458956
0.0386336
0.0331594
0.0290523
0.0258918
0.0233939
0.0214296
0.0199431
0.018865
0.0180803
0.0174514
0.016862
0.016249
0.0156069
0.0149719
0.0143945
0.0139132
0.0135427
0.0132759
0.0130938
0.0129732
0.012892
0.0128346
0.0127922
0.0127612
0.0127395
0.0127252
0.012716
0.0127104
0.0127071
0.0127052
0.0127041
0.0127035
0.0127032
0.0127029
0.012703
0.0127028
0.0127029
0.0127027
0.012703
0.0127026
0.012703
0.0127026
0.012703
0.0127025
0.0127031
0.0127025
0.0127032
0.0127024
0.0127033
0.0127023
0.0127034
0.0127021
0.0127036
0.012702
0.0127037
0.0127018
0.0127039
0.0127017
0.0127041
0.0127015
0.0127043
0.0127013
0.0127045
0.0127012
0.012705
0.0127015
0.012706
0.012703
0.0127102
0.0259298
0.00599629
0.0310805
0.0034579
0.0322987
0.0128082
0.0196577
0.0396407
0.0119438
0.0494293
0.0446755
0.0568817
0.130627
0.190554
0.291323
0.503275
0.821099
1.15463
1.47779
1.65425
1.56547
1.26562
0.908431
0.612881
0.413117
0.291505
0.219177
0.17254
0.137835
0.109444
0.0865035
0.068768
0.0553883
0.0453762
0.0378363
0.0321192
0.0278509
0.0247889
0.022665
0.0211633
0.0199729
0.0188691
0.0177612
0.0166714
0.0156722
0.0148271
0.0141642
0.0136786
0.0133426
0.0131205
0.0129786
0.0128893
0.0128325
0.0127956
0.0127719
0.0127571
0.0127484
0.0127433
0.0127408
0.0127392
0.0127387
0.0127381
0.0127382
0.0127379
0.0127381
0.0127379
0.012738
0.012738
0.0127378
0.0127382
0.0127377
0.0127383
0.0127375
0.0127385
0.0127373
0.0127387
0.012737
0.0127391
0.0127367
0.0127394
0.0127363
0.0127399
0.0127357
0.0127406
0.012735
0.0127414
0.0127342
0.0127422
0.0127333
0.0127432
0.0127324
0.0127443
0.0127315
0.0127457
0.012731
0.0127479
0.0127318
0.0127524