/*--------------------------------*- C++ -*----------------------------------*\
| =========                 |                                                 |
| \\      /  F ield         | OpenFOAM: The Open Source CFD Toolbox           |
|  \\    /   O peration     | Version:  v2012                                 |
|   \\  /    A nd           | Website:  www.openfoam.com                      |
|    \\/     M anipulation  |                                                 |
\*---------------------------------------------------------------------------*/
FoamFile
{
    version     2.0;
    format      ascii;
    class       volScalarField;
    location    "0.113";
    object      nut.air;
}
// * * * * * * * * * * * * * * * * * * * * * * * * * * * * * * * * * * * * * //

dimensions      [0 2 -1 0 0 0 0];


internalField   nonuniform List<scalar> 
5600
(
1.3141e-05
2.99275e-05
5.00571e-05
6.50605e-05
7.3035e-05
7.56101e-05
7.50285e-05
7.28225e-05
7.01547e-05
6.76907e-05
6.55277e-05
6.37356e-05
6.24444e-05
6.15933e-05
6.12096e-05
6.1143e-05
6.13387e-05
6.17067e-05
6.20937e-05
6.25592e-05
6.29154e-05
6.32914e-05
6.35543e-05
6.38036e-05
6.39991e-05
6.41576e-05
6.43271e-05
6.44467e-05
6.45784e-05
6.46934e-05
6.47836e-05
6.49045e-05
6.49515e-05
6.50609e-05
6.50803e-05
6.51625e-05
6.51712e-05
6.52205e-05
6.52326e-05
6.52528e-05
6.52697e-05
6.52726e-05
6.52903e-05
6.52835e-05
6.53058e-05
6.52902e-05
6.53211e-05
6.52982e-05
6.53381e-05
6.53127e-05
6.53513e-05
6.53314e-05
6.53615e-05
6.53528e-05
6.53762e-05
6.5369e-05
6.53964e-05
6.53779e-05
6.54197e-05
6.53929e-05
6.54495e-05
6.54227e-05
6.54814e-05
6.5458e-05
6.55157e-05
6.54897e-05
6.55569e-05
6.55186e-05
6.55999e-05
6.55495e-05
6.56379e-05
6.55822e-05
6.56746e-05
6.56146e-05
6.57205e-05
6.56445e-05
6.57759e-05
6.5676e-05
6.5832e-05
6.57191e-05
6.58853e-05
6.57704e-05
6.59439e-05
6.58166e-05
6.6008e-05
6.58572e-05
6.60639e-05
6.59151e-05
6.6089e-05
6.60287e-05
6.60399e-05
6.62638e-05
6.5802e-05
6.68101e-05
6.50236e-05
6.83277e-05
6.2346e-05
7.3364e-05
5.1716e-05
9.25585e-05
0.000160654
0.000142601
0.000113427
0.000102548
0.000100706
0.000107271
0.000117006
0.000133888
0.000149335
0.000162701
0.0001804
0.000199728
0.000221317
0.000243206
0.000265362
0.000287113
0.000307173
0.000326771
0.000343001
0.000359236
0.000371846
0.000384403
0.000394653
0.000404364
0.000413325
0.000421124
0.000429121
0.000435749
0.000442207
0.000448353
0.000453279
0.000458925
0.000462302
0.000467081
0.000469502
0.0004732
0.000475216
0.000477877
0.000479801
0.000481616
0.000483436
0.000484744
0.000486425
0.000487348
0.00048909
0.000489698
0.000491606
0.000491918
0.000493896
0.000494115
0.000495862
0.000496182
0.00049756
0.00049807
0.000499273
0.000499635
0.000500999
0.000500883
0.000502598
0.000502238
0.000504146
0.000503832
0.000505661
0.000505382
0.000507188
0.000506699
0.000508791
0.000507892
0.0005103
0.000509122
0.000511592
0.000510289
0.000512825
0.000511302
0.000514273
0.000512199
0.000515834
0.000513115
0.000517205
0.00051421
0.000518463
0.000515334
0.000519939
0.000516213
0.000521576
0.000516913
0.000522965
0.000517905
0.000523769
0.000519759
0.000523363
0.000523337
0.000520657
0.000530501
0.000512766
0.00054528
0.0004922
0.000579254
0.000440255
0.000586457
0.000158471
0.000156368
0.000150338
0.000143785
0.000135099
0.0001233
0.000115657
0.000107762
0.000107899
0.000107314
0.000114542
0.000120834
0.000132157
0.000145564
0.000160466
0.000181007
0.00019986
0.000226423
0.000249605
0.000280299
0.000308207
0.000341685
0.000375616
0.000411782
0.000447844
0.000477283
0.0005081
0.000534831
0.000560198
0.000581462
0.00059718
0.000615302
0.000626841
0.000642359
0.000652309
0.000665127
0.000674395
0.000684456
0.000693274
0.000701159
0.000709401
0.000715933
0.000723672
0.000728979
0.000736654
0.00074078
0.000748315
0.000751371
0.000758415
0.000761237
0.000767213
0.00077019
0.000775041
0.000778047
0.000782754
0.000784975
0.00079024
0.000791156
0.000796918
0.000797271
0.000803072
0.000803713
0.000809146
0.000809721
0.000815216
0.000814894
0.000821069
0.00081974
0.000826351
0.00082464
0.000831098
0.000829127
0.000835772
0.000832886
0.000840728
0.000836394
0.000845566
0.000840087
0.000849784
0.000843832
0.000853943
0.000847131
0.000858857
0.000849689
0.000864186
0.000851787
0.000869203
0.000853693
0.000874045
0.000855466
0.000879291
0.000856746
0.000885747
0.000856207
0.000895519
0.000851481
0.000912476
0.000841525
0.000897824
0.000818576
0.000159012
0.000157115
0.000154894
0.000151996
0.000151701
0.00014523
0.000147209
0.000136611
0.000140111
0.000129152
0.000130714
0.000124886
0.000119648
0.000123099
0.00011228
0.000124606
0.00011442
0.000131633
0.000129231
0.000147709
0.000156997
0.000176129
0.000197466
0.000219768
0.000251085
0.000280206
0.000316659
0.000352923
0.000387873
0.000423259
0.0004515
0.000487486
0.000513351
0.000547575
0.000572357
0.000602675
0.00062754
0.000653797
0.000678197
0.000701112
0.000724517
0.00074504
0.000767512
0.000785233
0.000805118
0.000815999
0.000833519
0.000842189
0.000857997
0.000866374
0.000879743
0.00088835
0.000899604
0.00090767
0.000919052
0.000925141
0.000937711
0.0009413
0.000954214
0.000956952
0.000969173
0.000972528
0.000983994
0.000986904
0.000998793
0.000999666
0.0010127
0.00101189
0.00102517
0.00102411
0.00103675
0.00103515
0.00104827
0.0010445
0.00105983
0.00105346
0.00107057
0.00106283
0.00108006
0.00107178
0.00108965
0.0010794
0.00110051
0.00108589
0.00111173
0.00109194
0.00112214
0.00109751
0.00113215
0.00110258
0.00114254
0.00110717
0.00115383
0.00111058
0.00116644
0.00111297
0.00117812
0.0011193
0.00118204
0.00113529
0.00015915
0.000157138
0.000156048
0.000152155
0.000154837
0.000146928
0.00015386
0.00014306
0.000150313
0.000142821
0.000142227
0.000146997
0.000130337
0.000152738
0.000119135
0.000153728
0.000114758
0.000145201
0.000118642
0.000130658
0.000126169
0.000120239
0.000132427
0.00012278
0.000138736
0.000140811
0.000152877
0.00017183
0.000181678
0.000213851
0.000225694
0.00026449
0.000283208
0.00032306
0.000351204
0.000384763
0.000411656
0.000440393
0.000469831
0.000496624
0.000526704
0.000552235
0.000583194
0.000606629
0.000638708
0.000659506
0.000691763
0.00071075
0.000740782
0.000759953
0.00078642
0.000806127
0.000829546
0.000848185
0.000871929
0.000886921
0.000912826
0.000923117
0.000948803
0.000957932
0.000981801
0.000991822
0.0010146
0.00102379
0.00104781
0.00105325
0.0010791
0.00108191
0.00110747
0.00111001
0.00113409
0.00113543
0.00115875
0.0011553
0.00118032
0.00117331
0.00119975
0.00119194
0.00121735
0.00120927
0.00123527
0.00122414
0.00125464
0.00123812
0.00127391
0.00125237
0.00129142
0.00126619
0.00130737
0.00127971
0.00132223
0.00129399
0.00133611
0.0013089
0.00134863
0.00132491
0.00135686
0.00134549
0.00135935
0.0013682
0.000159275
0.000156791
0.000156867
0.000151475
0.000156239
0.000146655
0.000154865
0.000144898
0.000149736
0.000148295
0.000139919
0.000155966
0.0001281
0.000162996
0.000120487
0.000162099
0.000123624
0.000149678
0.000137247
0.000131373
0.000150759
0.000119564
0.000150479
0.000124489
0.000133023
0.000142658
0.000112286
0.000156315
0.000104887
0.000158036
0.000112862
0.000156808
0.000133889
0.000160907
0.000163329
0.000180008
0.000196949
0.000212891
0.000237801
0.000255653
0.000285929
0.000305694
0.000342671
0.000361776
0.000404711
0.000420199
0.000454616
0.000470375
0.000502548
0.000522124
0.000551064
0.000573587
0.000600975
0.000621627
0.000652557
0.000669142
0.000704671
0.000718059
0.000753098
0.000766561
0.000798405
0.000814001
0.000845715
0.000860018
0.000894702
0.000904168
0.000940813
0.000947761
0.000983036
0.000990833
0.00102401
0.00103004
0.00106475
0.00106442
0.00110297
0.00109883
0.00113757
0.00113443
0.00116991
0.00116765
0.001203
0.00119751
0.00123729
0.00122731
0.00127063
0.00125894
0.00130051
0.00129001
0.00132639
0.00132047
0.00134951
0.00135145
0.00137169
0.00138073
0.00139534
0.00140595
0.00142073
0.00142743
0.00144875
0.00145702
0.000159446
0.000156436
0.000157271
0.00015122
0.000156329
0.000147389
0.0001537
0.000147433
0.000147073
0.000152107
0.000137208
0.000158715
0.000128157
0.00016188
0.000125887
0.000156061
0.000134606
0.000140704
0.000150131
0.00012451
0.000159052
0.000121591
0.000148805
0.000140504
0.00012039
0.00017009
9.43365e-05
0.000182639
9.11399e-05
0.00017218
0.000103662
0.000154889
0.00012144
0.000135686
0.000136574
0.000128174
0.000139232
0.000128715
0.000147633
0.000128947
0.000159839
0.000135613
0.000179409
0.000150343
0.000198348
0.00017976
0.000222141
0.000219399
0.000248985
0.000262997
0.000289482
0.000308054
0.000339564
0.000352727
0.000395683
0.000404835
0.000453887
0.000465898
0.000500392
0.000509596
0.00054014
0.000552927
0.000586425
0.000597515
0.000636967
0.00064406
0.000684633
0.000691928
0.000729231
0.0007397
0.00077625
0.000784471
0.000825058
0.000826498
0.000870614
0.000870977
0.000912875
0.000917662
0.000954986
0.000961211
0.000998132
0.00100072
0.00104177
0.001042
0.00108473
0.00108671
0.00112569
0.00113057
0.00116324
0.00117212
0.00119777
0.00121274
0.00123241
0.0012511
0.00127015
0.00128646
0.0013074
0.00132237
0.00134289
0.00136502
0.000159569
0.000156398
0.000157047
0.000151797
0.000155237
0.000149014
0.00015177
0.000149572
0.000145489
0.000153021
0.000137978
0.000156389
0.000132908
0.000155646
0.00013428
0.000147837
0.000143234
0.000134713
0.000153873
0.00012522
0.000154874
0.00013066
0.00013862
0.000152993
0.000111277
0.000175635
9.45677e-05
0.000177074
0.000102084
0.000161092
0.000118614
0.000145176
0.000132333
0.000132259
0.000140093
0.000128546
0.000140251
0.000122852
0.000153198
0.000104416
0.000169865
9.1701e-05
0.000177319
9.12379e-05
0.000165998
0.000112795
0.000146299
0.000134947
0.000136246
0.00014398
0.000153081
0.000137419
0.000177428
0.000139259
0.000200604
0.000161452
0.000212282
0.000195252
0.000230108
0.000230043
0.000261724
0.000261526
0.000306286
0.000300873
0.000353857
0.000350848
0.000397543
0.00040446
0.000444028
0.000456831
0.00050079
0.000509357
0.000558089
0.000555413
0.000594374
0.000594651
0.000628793
0.000637278
0.00066732
0.000677532
0.000708855
0.000715338
0.000750135
0.000757142
0.000792143
0.000804435
0.000836172
0.000852149
0.000878746
0.000897415
0.000919208
0.000941715
0.000961692
0.000986049
0.00100782
0.00103135
0.00105229
0.00107781
0.0010952
0.00112617
0.000159573
0.000156682
0.00015644
0.000152782
0.00015386
0.000150482
0.000150441
0.000150253
0.000145863
0.000151286
0.0001414
0.000151617
0.000139154
0.000149203
0.000140777
0.000143191
0.000145676
0.000135824
0.000149456
0.000132973
0.000145903
0.000139897
0.000132596
0.000154288
0.000116318
0.000164363
0.000110969
0.000159979
0.000120312
0.000147498
0.000130409
0.000139967
0.000133613
0.000137273
0.000134694
0.000134144
0.000139369
0.000123537
0.000153557
0.000105971
0.000166653
9.76388e-05
0.000163924
0.000110085
0.000141772
0.000137182
0.000118919
0.000150881
0.00011725
0.000136454
0.000145104
0.000104379
0.000168815
9.27773e-05
0.000165328
0.0001132
0.000141991
0.000135472
0.000134525
0.000133066
0.00015468
0.000119811
0.000175814
0.000125677
0.000178921
0.00015353
0.000177714
0.000177941
0.000192405
0.000190349
0.000223917
0.00020802
0.000253974
0.000239205
0.000274617
0.000278095
0.000299858
0.000316108
0.000338262
0.000352595
0.000382454
0.000392788
0.000424441
0.000439395
0.000469444
0.000492581
0.000521857
0.000548142
0.000575165
0.000602419
0.000626886
0.000656648
0.000675027
0.000699761
0.000720162
0.00074578
0.000766914
0.000794121
0.00081657
0.000846581
0.00015949
0.000157058
0.000155857
0.000153617
0.000152882
0.000151313
0.000149947
0.000149976
0.000147054
0.000149002
0.000144735
0.000147628
0.000143538
0.000145377
0.000143624
0.000142328
0.000144392
0.000139567
0.000144152
0.000139105
0.000140975
0.000142148
0.00013485
0.000146842
0.000129267
0.00014855
0.000128908
0.000144686
0.000133088
0.000139404
0.000135384
0.00013817
0.000133554
0.00013936
0.000131906
0.000138073
0.000134656
0.00013123
0.000142863
0.000120856
0.00015033
0.000116629
0.00014709
0.000126508
0.000130948
0.00014415
0.000115018
0.00015216
0.000115904
0.000140212
0.000135039
0.000118754
0.00014945
0.000113548
0.00014292
0.000129089
0.000124764
0.000142564
0.000120638
0.000134765
0.00013631
0.000117565
0.000148148
0.000116637
0.00013935
0.00013441
0.00012478
0.00014344
0.00012906
0.000132082
0.000147057
0.000123144
0.000153376
0.000134348
0.00014585
0.000151959
0.000146108
0.000160186
0.000160657
0.000165242
0.000179014
0.000180301
0.000194723
0.000202345
0.000213619
0.000228199
0.000241851
0.000259224
0.000274813
0.000293812
0.000310851
0.000332903
0.000352977
0.000377837
0.000401298
0.000427952
0.00045376
0.000480775
0.000507521
0.000534101
0.000159424
0.000157268
0.000155575
0.000153991
0.000152497
0.000151575
0.000149876
0.00014967
0.000147723
0.000147906
0.000146112
0.000146134
0.000144892
0.000144491
0.000143795
0.00014311
0.000142712
0.000141966
0.000141613
0.000141134
0.000140257
0.000140885
0.000138429
0.000141097
0.000136684
0.000140742
0.000136243
0.000138859
0.000137294
0.000136271
0.000138115
0.000134994
0.000137004
0.000135956
0.00013403
0.000138031
0.000131429
0.000137891
0.000132884
0.000132889
0.000138501
0.00012653
0.000141461
0.000126931
0.000134976
0.000136816
0.000122602
0.00014667
0.00011726
0.000143658
0.000126499
0.000129556
0.000139524
0.000120901
0.000140031
0.000127311
0.000128523
0.000138578
0.000121578
0.000138301
0.000128361
0.000128255
0.000138093
0.000124218
0.000136455
0.000132558
0.000128431
0.000140282
0.000129348
0.000137538
0.000139559
0.000134406
0.000146581
0.000140988
0.000148298
0.000152865
0.000153806
0.000163768
0.000166335
0.000175077
0.00018359
0.000192007
0.000203257
0.000213918
0.000225912
0.000239826
0.000254236
0.000271253
0.000288183
0.000307455
0.000327035
0.00034816
0.000369821
0.000393225
0.000416778
0.000442424
0.000468169
0.000495357
0.000523005
0.000551109
0.000159374
0.000157373
0.000155467
0.000154103
0.000152426
0.000151552
0.000149977
0.000149427
0.000147992
0.000147585
0.000146285
0.000146109
0.000144555
0.000145149
0.000142686
0.000144473
0.000141138
0.000143328
0.000140643
0.000141195
0.000141147
0.000138765
0.00014133
0.000137591
0.000139863
0.00013824
0.000137241
0.000139127
0.000135698
0.000137995
0.000136728
0.000134735
0.000138821
0.000132201
0.000138441
0.000133432
0.000134264
0.000137317
0.000129929
0.000138624
0.000130359
0.000134581
0.000134996
0.000129468
0.000137208
0.000129901
0.000132857
0.000135824
0.000126966
0.000139381
0.000127266
0.000136026
0.000133426
0.000131344
0.000138075
0.000132297
0.000138116
0.00013834
0.000138496
0.000144774
0.000143939
0.000150668
0.00015408
0.000159198
0.000166744
0.000173155
0.000182087
0.000192164
0.000201962
0.000215046
0.000227255
0.00024231
0.000257631
0.000274052
0.00029184
0.000309862
0.000329512
0.000349626
0.000370717
0.000393166
0.000415893
0.000440049
0.000464287
0.000489211
0.000514477
0.000540302
0.000566795
0.000594149
0.000621824
0.000649111
0.000668714
0.000688849
0.00070897
0.000729791
0.000750762
0.000772675
0.000794454
0.000817244
0.000839136
0.000861491
0.000159325
0.000157473
0.000155353
0.000154213
0.000152337
0.000151527
0.000150069
0.000149137
0.000148321
0.000147089
0.000146674
0.000145702
0.00014463
0.000145234
0.000142073
0.00014532
0.000139733
0.000144783
0.000138879
0.00014251
0.000140011
0.000138859
0.000141782
0.00013588
0.000141833
0.000135537
0.000139168
0.000137486
0.000135503
0.000139015
0.000133761
0.000137768
0.00013501
0.000134402
0.000137097
0.00013201
0.000136955
0.000132704
0.000134309
0.000135186
0.000132053
0.000136471
0.000132699
0.000136012
0.00013585
0.000136548
0.000139768
0.000140765
0.000144872
0.000149072
0.000153682
0.000161218
0.000168109
0.000177877
0.000188563
0.000200331
0.000214868
0.000229281
0.000246466
0.000263964
0.000283067
0.000303603
0.000324594
0.000347518
0.000370992
0.0003957
0.000421577
0.00044778
0.000475277
0.000503066
0.000531692
0.00055704
0.000576419
0.0005972
0.000617195
0.000637906
0.000658898
0.000679519
0.000701008
0.000722262
0.000743804
0.000765578
0.000786985
0.000808706
0.000830315
0.000852096
0.000874207
0.000896376
0.000918796
0.000941033
0.000963315
0.000985542
0.00100773
0.0010297
0.00105146
0.00107332
0.00109454
0.00111592
0.00113587
0.00115573
0.000159322
0.000157494
0.000155275
0.000154279
0.000152174
0.000151602
0.000149895
0.000149103
0.000148273
0.000146795
0.000146874
0.000145052
0.000145088
0.000144298
0.000142566
0.000144448
0.000139735
0.00014457
0.000137769
0.000143356
0.000137681
0.00014032
0.000139162
0.000136563
0.000140433
0.000134082
0.000139619
0.000134065
0.000136577
0.000135659
0.000133234
0.000136722
0.000131922
0.000136046
0.000133395
0.000135224
0.000137219
0.000137525
0.000143316
0.000145744
0.000153477
0.000160871
0.000170375
0.000183089
0.000195888
0.000212484
0.000229323
0.000248763
0.000269663
0.000291941
0.000316116
0.000341346
0.000367997
0.000395816
0.000424642
0.000454576
0.000482368
0.000504389
0.000527053
0.000549478
0.000572283
0.000595086
0.00061788
0.000641086
0.000664084
0.000687457
0.000710766
0.000734133
0.000757736
0.000781235
0.000804772
0.000828452
0.000851951
0.000875952
0.000899213
0.000922737
0.000945932
0.000968573
0.000991472
0.00101355
0.00103574
0.00105723
0.00107832
0.00109919
0.00111955
0.0011398
0.00115996
0.00117997
0.0011999
0.00121901
0.00123794
0.00125669
0.00127509
0.00129332
0.00131125
0.00132902
0.00134634
0.00136346
0.00137923
0.00139464
0.000159346
0.000157418
0.000155256
0.000154188
0.000152027
0.000151556
0.000149542
0.000149093
0.000147723
0.000146649
0.000146276
0.000144439
0.000144672
0.000142866
0.000142419
0.000142121
0.000139492
0.000141776
0.00013648
0.000140796
0.000134301
0.000138319
0.000133447
0.000134551
0.000133463
0.000130837
0.000133353
0.000129696
0.00013406
0.000133741
0.000139004
0.000144873
0.000152357
0.00016464
0.000176788
0.000194267
0.000212032
0.000233253
0.000256583
0.000281267
0.00030889
0.000337219
0.00036795
0.0004003
0.000427379
0.000452922
0.000478189
0.000504209
0.000529878
0.00055575
0.00058159
0.000607252
0.000633009
0.000658648
0.000684231
0.000709697
0.000734863
0.0007599
0.000784859
0.000809281
0.000833562
0.000857248
0.000880475
0.000903408
0.000925662
0.000947684
0.000969235
0.000990414
0.00101133
0.00103181
0.00105185
0.00107125
0.00109028
0.00110922
0.0011275
0.00114579
0.00116357
0.00118096
0.00119833
0.00121494
0.00123159
0.00124753
0.00126321
0.00127847
0.00129329
0.00130781
0.00132222
0.00133629
0.00135034
0.0013639
0.00137722
0.00139012
0.00140268
0.00141504
0.00142721
0.00143911
0.00145088
0.00146221
0.00147245
0.00148244
0.000159337
0.000157282
0.000155154
0.00015388
0.000151703
0.000151059
0.000148702
0.000148223
0.000145964
0.000145027
0.000143336
0.000141504
0.000140367
0.000137848
0.000136663
0.00013439
0.000132191
0.000131092
0.00012713
0.000128092
0.000124094
0.000127672
0.000126797
0.000133509
0.000138926
0.000149968
0.000163348
0.000180049
0.000201344
0.000224149
0.000251323
0.000280105
0.000312029
0.000346329
0.000378511
0.000408186
0.000437089
0.000466852
0.000495868
0.000524869
0.000553875
0.000582222
0.00061094
0.00063866
0.000666095
0.000692996
0.000718952
0.000744415
0.000768736
0.000792476
0.00081533
0.000837519
0.000859094
0.000880068
0.000900408
0.000919915
0.000938532
0.000956649
0.000974454
0.000991692
0.00100866
0.0010251
0.00104112
0.00105676
0.00107188
0.00108671
0.00110112
0.00111502
0.00112871
0.00114186
0.00115492
0.00116617
0.00117658
0.00118686
0.00119663
0.00120632
0.00121569
0.00122479
0.00123384
0.00124243
0.00125106
0.00125931
0.00126743
0.00127537
0.00128314
0.00129075
0.00129831
0.0013056
0.00131294
0.00131996
0.00132706
0.00133387
0.00134075
0.00134729
0.00135393
0.00136022
0.00136658
0.00137271
0.00137867
0.00138457
0.00015918
0.00015701
0.00015456
0.000152796
0.00014989
0.000147828
0.000143403
0.000140743
0.000135551
0.000132834
0.000128414
0.000125166
0.000121797
0.000119639
0.000118989
0.000120124
0.000123618
0.000130158
0.000138908
0.00015205
0.000166899
0.000187287
0.00020922
0.000237402
0.000267613
0.000302586
0.000338834
0.000377391
0.000411334
0.00044433
0.000477258
0.00050872
0.000539949
0.000569634
0.000598151
0.000625987
0.000652239
0.00067793
0.000702076
0.00072557
0.000748109
0.000769653
0.000790361
0.000808867
0.000823926
0.000838028
0.000851133
0.000863737
0.000875439
0.00088673
0.000897413
0.000907648
0.000917505
0.000926969
0.000936116
0.000944959
0.000953503
0.000961737
0.000969763
0.00097745
0.000984994
0.00099223
0.000999265
0.00100611
0.00101271
0.0010192
0.00102547
0.00103158
0.00103759
0.00104338
0.00104912
0.00105471
0.00106011
0.00106545
0.00107052
0.00107559
0.00108046
0.00108522
0.00108993
0.00109439
0.0010989
0.00110317
0.00110742
0.00111154
0.00111559
0.00111953
0.00112346
0.00112722
0.00113104
0.00113465
0.00113838
0.0011419
0.00114555
0.00114894
0.00115248
0.00115571
0.00115913
0.00116227
0.00116533
0.00116826
0.000158495
0.000156309
0.000150137
0.000144121
0.000134244
0.000124203
0.000114671
0.000110001
0.000108209
0.00011141
0.000116956
0.000125977
0.000137285
0.000151629
0.000168687
0.000188515
0.000211087
0.00023625
0.000263544
0.000293365
0.000324689
0.00035929
0.000395137
0.0004337
0.000465367
0.000496511
0.000525284
0.000552747
0.000576767
0.000595864
0.000613078
0.000628021
0.000642028
0.000654752
0.000666529
0.000677565
0.000687442
0.0006969
0.000705386
0.000713464
0.000721024
0.000728047
0.000734876
0.000741194
0.000747326
0.000753067
0.000758425
0.000763588
0.000768322
0.000772911
0.000777191
0.000781284
0.000785202
0.000788941
0.000792557
0.000796055
0.000799438
0.000802709
0.000805911
0.000808991
0.00081204
0.000814967
0.000817833
0.000820618
0.000823311
0.000825975
0.000828534
0.000831039
0.000833505
0.000835876
0.000838244
0.000840539
0.000842778
0.000844996
0.000847115
0.000849255
0.000851305
0.00085333
0.000855331
0.000857229
0.000859166
0.00086098
0.00086283
0.000864595
0.000866368
0.000868074
0.000869798
0.000871424
0.000873106
0.000874669
0.000876334
0.000877858
0.000879512
0.000880989
0.000882613
0.000884009
0.000885589
0.000886931
0.000888248
0.000889388
0.0001603
0.000142781
0.000113635
0.00010397
0.000102097
0.000110473
0.000119959
0.000140331
0.000152818
0.000167637
0.000185609
0.000205963
0.000227609
0.000249961
0.000272193
0.000293768
0.00031407
0.000332763
0.000349557
0.000364541
0.000377689
0.000389442
0.00039985
0.000409434
0.00041811
0.000426342
0.000433738
0.000440566
0.000446837
0.000452577
0.000457884
0.000462467
0.000466647
0.000470173
0.000473301
0.000476079
0.000478442
0.00048067
0.000482537
0.000484301
0.000485865
0.000487263
0.000488634
0.000489824
0.000491086
0.00049226
0.000493408
0.000494531
0.000495554
0.000496583
0.000497514
0.000498429
0.000499287
0.000500107
0.000500899
0.000501662
0.000502404
0.000503129
0.00050385
0.000504553
0.000505271
0.000505959
0.000506663
0.000507351
0.000508031
0.000508713
0.000509373
0.000510033
0.000510683
0.000511319
0.000511958
0.000512577
0.000513198
0.000513819
0.000514423
0.000515044
0.000515636
0.000516234
0.000516814
0.000517374
0.000517956
0.000518493
0.000519064
0.000519599
0.000520159
0.000520693
0.000521236
0.000521751
0.000522285
0.000522772
0.000523314
0.0005238
0.000524345
0.000524828
0.000525356
0.000525827
0.000526343
0.000526782
0.000527191
0.000527538
1.31087e-05
2.99545e-05
5.00859e-05
6.50503e-05
7.2876e-05
7.532e-05
7.46057e-05
7.22724e-05
6.95986e-05
6.71362e-05
6.49388e-05
6.31784e-05
6.19103e-05
6.11449e-05
6.08054e-05
6.0822e-05
6.10689e-05
6.14605e-05
6.19025e-05
6.234e-05
6.27366e-05
6.30763e-05
6.33602e-05
6.35937e-05
6.37873e-05
6.3968e-05
6.41194e-05
6.42631e-05
6.43848e-05
6.45001e-05
6.46059e-05
6.46949e-05
6.47782e-05
6.48402e-05
6.48943e-05
6.4936e-05
6.49661e-05
6.49936e-05
6.50088e-05
6.50244e-05
6.50325e-05
6.50387e-05
6.50444e-05
6.5046e-05
6.50511e-05
6.50536e-05
6.50588e-05
6.50641e-05
6.50687e-05
6.50755e-05
6.50804e-05
6.50871e-05
6.50926e-05
6.5099e-05
6.51052e-05
6.5112e-05
6.5119e-05
6.51265e-05
6.5135e-05
6.51439e-05
6.5155e-05
6.51661e-05
6.51791e-05
6.51928e-05
6.52075e-05
6.52233e-05
6.52394e-05
6.52566e-05
6.52742e-05
6.52927e-05
6.53119e-05
6.53309e-05
6.53507e-05
6.53706e-05
6.53908e-05
6.54121e-05
6.5433e-05
6.5455e-05
6.54766e-05
6.54985e-05
6.55216e-05
6.55441e-05
6.55687e-05
6.55925e-05
6.56182e-05
6.56427e-05
6.56682e-05
6.56922e-05
6.57176e-05
6.57417e-05
6.5768e-05
6.57928e-05
6.58202e-05
6.58465e-05
6.58737e-05
6.59013e-05
6.59296e-05
6.59595e-05
6.59924e-05
6.60298e-05
5.62211e-06
0.00133118
0.00237321
0.00315218
0.00386189
0.00441627
0.00482315
0.00492833
0.00491068
0.00488004
0.00484893
0.00483031
0.00483493
0.00485817
0.0048936
0.00493769
0.00498788
0.00505382
0.00513637
0.00522756
0.00532708
0.00543514
0.00554692
0.00566194
0.00579023
0.00592164
0.00604035
0.00615269
0.0062475
0.00631635
0.0063551
0.00634585
0.00620975
0.00605397
0.00586843
0.0056478
0.00542659
0.00522667
0.00503002
0.00483407
0.00466154
0.00450558
0.0043407
0.00417689
0.00403519
0.00390582
0.00377347
0.00364724
0.00354601
0.00349717
0.00353582
0.00365594
0.00377394
0.00379025
0.00369682
0.00357846
0.0035099
0.00351326
0.00358362
0.00370708
0.0038555
0.00399626
0.00410043
0.00415158
0.00414788
0.00410192
0.00402748
0.00393326
0.00381838
0.00368077
0.00351953
0.00333811
0.00313958
0.00292829
0.00270618
0.00247543
0.00223719
0.00199503
0.00175378
0.00152026
0.00130044
0.00109891
0.00091692
0.00075475
0.000613263
0.00049372
0.000395995
0.000319117
0.000261458
0.000220579
0.000193491
0.000176413
0.000166564
0.0001603
0.000156847
0.000152765
0.000150484
0.000145228
0.000143545
0.000136831
0.000327001
0.000836958
0.00171854
0.00249921
0.0031945
0.00375313
0.00417836
0.00447864
0.00468889
0.00470823
0.00467011
0.00465044
0.00464322
0.00464616
0.00466139
0.00468741
0.00472312
0.00477784
0.00484753
0.00492428
0.00500697
0.00509583
0.00518891
0.00528712
0.00539847
0.00551683
0.00563925
0.00574756
0.00585089
0.00594435
0.00602425
0.00607157
0.0059359
0.00577949
0.00559435
0.00537327
0.00515249
0.00495785
0.00476919
0.0045808
0.00441822
0.00427542
0.00412151
0.00396646
0.00383732
0.003722
0.00359749
0.00347839
0.00339915
0.00338606
0.00345478
0.00359247
0.00372994
0.00377695
0.00371346
0.00360946
0.00353995
0.00353468
0.00359297
0.00370263
0.00383765
0.00396656
0.00406083
0.00410323
0.00409154
0.00403906
0.00396172
0.00386913
0.00376027
0.00363093
0.00347829
0.00330395
0.00311056
0.00290199
0.00268066
0.00244901
0.00220905
0.00196441
0.00172004
0.00148243
0.00125778
0.00105108
0.000865175
0.000702105
0.000563483
0.000449376
0.000358558
0.000289232
0.000239065
0.000204693
0.000182564
0.000168832
0.000161073
0.000156119
0.000153548
0.000150188
0.000148421
0.000143733
0.000142343
0.000136195
0.000988921
0.0007547
0.00108374
0.00169391
0.00234896
0.0029096
0.00335484
0.00368642
0.00393235
0.00411412
0.00425255
0.00437464
0.00441248
0.00441908
0.00443888
0.00447066
0.00451436
0.00456878
0.00462964
0.00469494
0.0047657
0.00484037
0.00491842
0.00500322
0.00509632
0.00519929
0.00532261
0.00543239
0.0055304
0.00563153
0.00572121
0.00572857
0.00559438
0.00543821
0.00525521
0.00503592
0.00481777
0.00463149
0.0044549
0.00427811
0.00412966
0.00400532
0.00386822
0.00372744
0.00361682
0.00352225
0.00341182
0.00330625
0.00325863
0.003293
0.00339861
0.00355159
0.00370024
0.00377053
0.00373379
0.00364341
0.0035722
0.00355672
0.00360096
0.00369442
0.00381353
0.00392828
0.00401054
0.00404224
0.00402061
0.00395965
0.00387787
0.00378639
0.00368414
0.00356456
0.00342234
0.003257
0.00307041
0.00286587
0.00264617
0.00241419
0.00217281
0.00192605
0.00167906
0.0014382
0.00120985
0.000999593
0.000811867
0.000650114
0.00051575
0.000407906
0.000324728
0.000263593
0.000220954
0.000192525
0.000174527
0.000163357
0.00015707
0.000152945
0.000150924
0.000148045
0.000146682
0.000142462
0.000141362
0.000135784
0.00117708
0.00116441
0.00106331
0.00116737
0.00152214
0.00196396
0.00238194
0.00272692
0.00300287
0.00322433
0.0034019
0.00355999
0.00370285
0.00383336
0.0039638
0.0040945
0.00422475
0.00430144
0.0043695
0.00444078
0.00451743
0.00459603
0.00467571
0.00476121
0.00485059
0.00494584
0.00505971
0.00517392
0.00526194
0.00534565
0.00537303
0.00529713
0.00516612
0.00501235
0.00483478
0.00462176
0.00441151
0.0042397
0.00408192
0.00392366
0.00379641
0.00369834
0.00358635
0.00346824
0.00338471
0.00331955
0.00323243
0.00315121
0.0031483
0.00324304
0.00339248
0.00355758
0.00370521
0.00378512
0.00376692
0.00368682
0.00361202
0.00358419
0.00361204
0.00368664
0.0037868
0.00388409
0.00395086
0.00396832
0.00393346
0.00386114
0.00377282
0.00368155
0.00358615
0.00347748
0.00334736
0.00319285
0.00301476
0.0028157
0.00259875
0.00236731
0.00212522
0.00187715
0.00162872
0.0013863
0.00115644
0.000945348
0.000758672
0.000600284
0.000471303
0.000370696
0.000295985
0.000243141
0.000207372
0.000183859
0.000168988
0.000159582
0.000154222
0.000150537
0.000148818
0.000146223
0.000145205
0.000141408
0.0001406
0.000135572
0.00136561
0.00137897
0.00134728
0.00128815
0.00127383
0.00136934
0.00155425
0.00178019
0.00200865
0.00222518
0.00241662
0.00259464
0.00276463
0.00292284
0.00308011
0.00323722
0.00339348
0.00354721
0.00370123
0.00385232
0.00400017
0.00414381
0.00427732
0.00440358
0.00452183
0.00462483
0.00471764
0.00479332
0.00483464
0.00484529
0.00482671
0.00475835
0.00463463
0.00448849
0.00432367
0.00412654
0.00393506
0.0037884
0.00366018
0.00353134
0.00343601
0.00337446
0.00329789
0.00321317
0.00316669
0.00314004
0.0030876
0.00304532
0.00310059
0.00326488
0.00346228
0.00363654
0.00377095
0.00384289
0.0038291
0.00375127
0.0036683
0.00362444
0.00363242
0.0036846
0.00376184
0.00383731
0.00388384
0.00388222
0.00382992
0.0037431
0.00364632
0.00355456
0.0034663
0.00336955
0.00325295
0.00311095
0.002943
0.00275097
0.00253813
0.00230847
0.00206685
0.00181876
0.00157052
0.00132877
0.00110029
0.000891551
0.000708397
0.000554751
0.000432178
0.000339605
0.000273399
0.000228056
0.00019793
0.000178104
0.00016538
0.000157036
0.000152157
0.000148617
0.000147025
0.00014458
0.000143859
0.000140485
0.000139953
0.000135432
0.00146621
0.00148249
0.00147837
0.0014617
0.0014311
0.00139671
0.00137068
0.00136842
0.00139438