/*--------------------------------*- C++ -*----------------------------------*\
| =========                 |                                                 |
| \\      /  F ield         | OpenFOAM: The Open Source CFD Toolbox           |
|  \\    /   O peration     | Version:  v2012                                 |
|   \\  /    A nd           | Website:  www.openfoam.com                      |
|    \\/     M anipulation  |                                                 |
\*---------------------------------------------------------------------------*/
FoamFile
{
    version     2.0;
    format      ascii;
    class       vectorField;
    location    "0.05/lagrangian/kinematicCloud";
    object      U;
}
// * * * * * * * * * * * * * * * * * * * * * * * * * * * * * * * * * * * * * //


53
(
(4.53081 0.120876 0)
(5.19415 0.132945 0)
(5.07805 0.0875806 0)
(4.69781 0.154724 0)
(4.75436 0.0421036 0)
(4.60852 0.0633467 0)
(2.61028 0.00264563 0)
(4.33391 0.0230575 0)
(4.19206 0.014369 0)
(4.01391 0.065405 0)
(3.99642 0.0633997 0)
(3.8553 0.052568 0)
(0.377003 -1.00841e-05 0)
(0.364356 2.44702e-06 0)
(1.92559 -0.0001403 0)
(3.47498 0.0100709 0)
(3.34258 0.00374602 0)
(3.18638 0.000657265 0)
(3.15489 0.00267169 0)
(3.16118 0.00124756 0)
(3.0622 0.0012721 0)
(1.15853 -9.65322e-05 0)
(2.8515 0.00038212 0)
(2.74119 0.000697986 0)
(2.73579 0.000940882 0)
(2.63963 5.27179e-05 0)
(2.52982 0.000510235 0)
(2.52627 -1.25848e-05 0)
(1.38426 0.00010184 0)
(2.41703 -0.000129456 0)
(0.365839 6.08046e-06 0)
(2.02618 0.000175958 0)
(0.85471 -4.77032e-05 0)
(1.98973 3.65899e-05 0)
(1.98141 0.000211127 0)
(1.88892 6.34944e-05 0)
(1.78837 0.000238174 0)
(1.68621 0.000236966 0)
(1.58496 5.84462e-05 0)
(0.632963 9.87089e-06 0)
(1.37897 0.000126905 0)
(1.27511 3.62832e-05 0)
(1.17179 5.83296e-05 0)
(1.06694 5.78791e-05 0)
(0.961904 5.4296e-05 0)
(0.856115 7.2488e-06 0)
(0.749922 -1.86396e-05 0)
(0.642979 5.65111e-05 0)
(0.535577 1.87148e-05 0)
(0.427401 4.52673e-06 0)
(0.318843 3.2475e-06 0)
(0.209298 7.07995e-06 0)
(0.0994003 -2.7191e-06 0)
)


// ************************************************************************* //
