/*--------------------------------*- C++ -*----------------------------------*\
| =========                 |                                                 |
| \\      /  F ield         | OpenFOAM: The Open Source CFD Toolbox           |
|  \\    /   O peration     | Version:  v2012                                 |
|   \\  /    A nd           | Website:  www.openfoam.com                      |
|    \\/     M anipulation  |                                                 |
\*---------------------------------------------------------------------------*/
FoamFile
{
    version     2.0;
    format      ascii;
    class       Cloud<basicKinematicParcel>;
    location    "0.007/lagrangian/kinematicCloud";
    object      positions;
}
// * * * * * * * * * * * * * * * * * * * * * * * * * * * * * * * * * * * * * //

6
(
(0.08583 0.00284695 0.03) 202
(0.0697286 0.00956384 0.03) 400
(0.0539493 0.0152079 0.03) 58
(0.0381242 0.00558273 0.03) 25
(0.0244359 0.0207896 0.03) 73
(0.0123243 0.0174042 0.03) 61
)


// ************************************************************************* //
