/*--------------------------------*- C++ -*----------------------------------*\
| =========                 |                                                 |
| \\      /  F ield         | OpenFOAM: The Open Source CFD Toolbox           |
|  \\    /   O peration     | Version:  v2012                                 |
|   \\  /    A nd           | Website:  www.openfoam.com                      |
|    \\/     M anipulation  |                                                 |
\*---------------------------------------------------------------------------*/
FoamFile
{
    version     2.0;
    format      ascii;
    class       volScalarField;
    location    "0.047";
    object      k.air;
}
// * * * * * * * * * * * * * * * * * * * * * * * * * * * * * * * * * * * * * //

dimensions      [0 2 -2 0 0 0 0];


internalField   nonuniform List<scalar> 
5600
(
0.606303
0.840815
0.955099
0.978169
0.949232
0.89754
0.83948
0.787432
0.743373
0.707186
0.679248
0.658667
0.643667
0.632683
0.624785
0.619406
0.615927
0.613633
0.61191
0.610388
0.608961
0.607674
0.606595
0.605757
0.605171
0.604811
0.604631
0.604593
0.604659
0.604795
0.604947
0.605075
0.605169
0.605232
0.605271
0.605295
0.605308
0.605316
0.60532
0.605322
0.605324
0.605324
0.605324
0.605325
0.605325
0.605325
0.605325
0.605325
0.605325
0.605325
0.605325
0.605325
0.605325
0.605325
0.605325
0.605325
0.605325
0.605325
0.605325
0.605325
0.605325
0.605325
0.605326
0.605324
0.605328
0.60532
0.605337
0.605303
0.60537
0.605242
0.605478
0.605062
0.605761
0.604643
0.606338
0.60392
0.607163
0.603105
0.607862
0.602595
0.608323
0.601754
0.610317
0.597846
0.616647
0.590378
0.623268
0.589283
0.61492
0.608659
0.5854
0.641155
0.564728
0.64054
0.597793
0.563841
0.708416
0.433466
0.856487
0.0027809
0.371619
0.315587
0.288731
0.275522
0.274922
0.285005
0.307097
0.344587
0.387441
0.430505
0.470979
0.508351
0.54186
0.570067
0.592366
0.609566
0.623082
0.633783
0.641891
0.647715
0.651432
0.653402
0.654235
0.654358
0.654073
0.653663
0.653334
0.653173
0.653185
0.653329
0.653588
0.653889
0.654141
0.654324
0.654447
0.654526
0.654574
0.654602
0.654618
0.654627
0.654632
0.654634
0.654635
0.654636
0.654636
0.654636
0.654636
0.654636
0.654636
0.654636
0.654636
0.654636
0.654636
0.654636
0.654636
0.654636
0.654637
0.654637
0.654637
0.654636
0.654637
0.654636
0.654639
0.654631
0.65465
0.654608
0.654697
0.654516
0.654869
0.654209
0.655393
0.653362
0.656682
0.651533
0.659082
0.648669
0.66213
0.645853
0.664352
0.644111
0.66657
0.639211
0.677056
0.620895
0.70246
0.594755
0.716535
0.606641
0.664279
0.696368
0.552964
0.795269
0.507256
0.743499
0.669936
0.466452
0.976406
0.191872
1.06811
0.0118405
0.369138
0.281916
0.227769
0.192918
0.168582
0.153912
0.145584
0.143429
0.14708
0.155364
0.166872
0.181381
0.199154
0.219204
0.239981
0.260638
0.281348
0.30303
0.326321
0.350404
0.372664
0.39079
0.403817
0.412246
0.417178
0.419747
0.420939
0.421476
0.421783
0.422073
0.422404
0.422742
0.423032
0.423253
0.42341
0.423515
0.423582
0.423622
0.423645
0.423658
0.423665
0.423668
0.42367
0.423671
0.423671
0.423671
0.423672
0.423672
0.423672
0.423672
0.423672
0.423672
0.423672
0.423672
0.423672
0.423672
0.423672
0.423672
0.423672
0.423672
0.423673
0.42367
0.423678
0.42366
0.423699
0.423616
0.423786
0.423449
0.424091
0.422917
0.424971
0.421542
0.426987
0.418796
0.430414
0.414926
0.434237
0.411627
0.436691
0.409251
0.44081
0.399868
0.45879
0.371833
0.492108
0.343801
0.492594
0.382699
0.400134
0.511692
0.263523
0.603345
0.245244
0.501879
0.44935
0.202918
0.723935
0.0298476
0.709349
0.0146734
0.370096
0.280654
0.224126
0.186021
0.158552
0.138228
0.122966
0.111289
0.102927
0.0970881
0.0935724
0.0921354
0.0927796
0.095459
0.0999383
0.105692
0.112359
0.120742
0.131934
0.146222
0.162491
0.17858
0.192321
0.202532
0.209169
0.212896
0.214645
0.215273
0.215405
0.215413
0.215442
0.215521
0.21564
0.215765
0.215872
0.215954
0.216011
0.216049
0.216072
0.216085
0.216092
0.216097
0.216099
0.2161
0.2161
0.216101
0.216101
0.216101
0.216101
0.216101
0.216101
0.216101
0.216101
0.216101
0.216101
0.216101
0.216101
0.216101
0.216101
0.2161
0.216102
0.216098
0.216108
0.216085
0.216135
0.21603
0.21624
0.215835
0.216587
0.215251
0.217522
0.213842
0.2195
0.21127
0.222536
0.208052
0.225486
0.205663
0.227396
0.203094
0.232748
0.191885
0.251755
0.165652
0.277821
0.151072
0.263014
0.204657
0.169777
0.316502
0.0686602
0.362964
0.0871559
0.272572
0.237051
0.0689276
0.413092
0.00366105
0.397433
0.0147226
0.370295
0.280776
0.224396
0.18603
0.15843
0.137651
0.121556
0.108721
0.0983751
0.0899628
0.0829957
0.0773472
0.0727459
0.0692278
0.0666821
0.0648823
0.0636889
0.0631784
0.063759
0.0658654
0.069531
0.0741062
0.0785288
0.0819317
0.0839673
0.0847405
0.0846145
0.0840045
0.0832454
0.0825444
0.0820028
0.0816466
0.0814453
0.0813457
0.0813033
0.0812899
0.0812892
0.0812927
0.0812967
0.0812998
0.0813019
0.0813033
0.081304
0.0813044
0.0813046
0.0813047
0.0813048
0.0813048
0.0813048
0.0813049
0.0813049
0.0813049
0.0813049
0.0813049
0.0813049
0.0813049
0.0813049
0.0813048
0.0813051
0.0813045
0.0813058
0.0813028
0.0813096
0.0812948
0.081326
0.0812626
0.0813871
0.081152
0.0815781
0.0808387
0.0820633
0.0801333
0.0830159
0.0789494
0.0843452
0.0776203
0.0855116
0.076662
0.0865137
0.0749016
0.0901963
0.0679896
0.100788
0.0547571
0.112277
0.0510186
0.100603
0.0826062
0.0515062
0.137834
0.0054754
0.155983
0.0176924
0.116672
0.0885539
0.0193987
0.167103
0.00935105
0.179388
0.0180441
0.370324
0.28081
0.224515
0.186208
0.158642
0.137913
0.121805
0.108946
0.0984562
0.0897743
0.082446
0.0762217
0.0708616
0.0662577
0.0623093
0.0588774
0.0558606
0.0532048
0.0509753
0.0492751
0.0481103
0.0473288
0.0466876
0.0459679
0.0450555
0.0439746
0.0428276
0.0417325
0.0407791
0.0400155
0.0394537
0.0390739
0.0388345
0.0386918
0.0386112
0.0385679
0.0385458
0.0385351
0.0385302
0.038528
0.0385272
0.0385269
0.0385267
0.0385267
0.0385267
0.0385267
0.0385267
0.0385267
0.0385267
0.0385267
0.0385267
0.0385267
0.0385267
0.0385267
0.0385267
0.0385267
0.0385267
0.0385267
0.0385268
0.0385266
0.038527
0.038526
0.0385283
0.0385233
0.0385339
0.0385125
0.0385541
0.0384766
0.0386148
0.0383794
0.0387609
0.0381745
0.0390265
0.0378611
0.0393592
0.0375487
0.0396299
0.037287
0.0400332
0.0364507
0.0417208
0.0335063
0.0460545
0.0282301
0.0508896
0.0260905
0.0474631
0.037379
0.0280637
0.0613454
0.00646488
0.0723634
0.0107753
0.0526101
0.0451097
0.0106084
0.0777554
0.000931291
0.0784946
0.0167326
0.370326
0.280812
0.224532
0.186256
0.158708
0.138008
0.121925
0.109093
0.0986265
0.0899389
0.0826104
0.0763547
0.0709539
0.0662526
0.06213
0.0584805
0.05522
0.052295
0.0496847
0.047378
0.0453415
0.043509
0.0418028
0.0401698
0.0385979
0.0371201
0.0357906
0.0346583
0.0337492
0.0330619
0.0325734
0.0322463
0.0320392
0.0319145
0.031843
0.0318037
0.031783
0.0317726
0.0317675
0.0317651
0.031764
0.0317636
0.0317634
0.0317633
0.0317633
0.0317632
0.0317632
0.0317632
0.0317632
0.0317632
0.0317632
0.0317632
0.0317632
0.0317632
0.0317632
0.0317632
0.0317632
0.0317632
0.0317632
0.0317632
0.0317633
0.0317631
0.0317636
0.0317625
0.0317649
0.0317599
0.0317699
0.0317506
0.0317858
0.0317252
0.0318241
0.0316717
0.0318924
0.0315925
0.0319748
0.031515
0.032048
0.0314235
0.0322192
0.0310627
0.032923
0.0298555
0.0347266
0.0275506
0.0370969
0.0260541
0.0363041
0.0308032
0.0266445
0.0444154
0.0127365
0.0524163
0.0158271
0.0364585
0.0402733
0.0129824
0.0508823
0.023448
0.0236532
0.0510751
0.370325
0.280804
0.224527
0.186259
0.158718
0.138027
0.121955
0.109133
0.0986792
0.0899995
0.0826814
0.0764339
0.0710432
0.0663464
0.0622157
0.0585499
0.0552736
0.0523354
0.049701
0.0473371
0.0451992
0.0432319
0.0413834
0.0396251
0.0379626
0.0364317
0.0350805
0.0339489
0.0330539
0.0323866
0.0319173
0.0316054
0.0314088
0.031291
0.0312237
0.0311869
0.0311676
0.0311579
0.0311532
0.031151
0.03115
0.0311496
0.0311494
0.0311493
0.0311493
0.0311493
0.0311493
0.0311493
0.0311493
0.0311493
0.0311493
0.0311493
0.0311493
0.0311493
0.0311493
0.0311493
0.0311493
0.0311493
0.0311493
0.0311493
0.0311493
0.0311492
0.0311494
0.031149
0.0311499
0.0311478
0.0311521
0.0311439
0.0311588
0.0311336
0.031173
0.0311164
0.0311902
0.0311048
0.031189
0.0311241
0.0311552
0.0311518
0.0311771
0.0310158
0.0314985
0.030457
0.0322999
0.029487
0.0332695
0.0288458
0.0331046
0.0304827
0.0294824
0.0359789
0.0235236
0.0398852
0.0246511
0.0332609
0.0342571
0.0265113
0.032846
0.0381085
0.0164844
0.0477395
0.370323
0.280796
0.224519
0.186254
0.158714
0.138027
0.121958
0.10914
0.0986905
0.0900145
0.0827008
0.0764578
0.0710714
0.0663787
0.0622512
0.0585879
0.0553141
0.0523792
0.0497477
0.0473837
0.0452408
0.0432636
0.0414029
0.0396333
0.0379628
0.0364276
0.0350755
0.0339453
0.0330534
0.0323895
0.0319232
0.0316134
0.0314182
0.0313011
0.0312341
0.0311975
0.0311782
0.0311685
0.0311638
0.0311615
0.0311605
0.0311601
0.0311599
0.0311598
0.0311598
0.0311598
0.0311598
0.0311598
0.0311598
0.0311598
0.0311598
0.0311598
0.0311598
0.0311598
0.0311598
0.0311598
0.0311598
0.0311598
0.0311598
0.0311598
0.0311598
0.0311597
0.0311599
0.0311594
0.0311606
0.0311581
0.0311631
0.0311536
0.031171
0.0311409
0.0311897
0.0311157
0.0312198
0.0310858
0.0312399
0.0310887
0.0312004
0.0311717
0.0310827
0.0312918
0.0310173
0.0312309
0.0312653
0.0307842
0.0318384
0.0302721
0.0320197
0.0307099
0.0308351
0.0324467
0.0291658
0.0332315
0.0299616
0.0310731
0.0324648
0.0299064
0.0310733
0.0338186
0.0266341
0.0353338
0.370323
0.280792
0.224515
0.18625
0.158712
0.138025
0.121958
0.109142
0.0986932
0.0900186
0.0827066
0.0764651
0.0710801
0.0663887
0.0622627
0.0586012
0.0553289
0.0523953
0.0497648
0.0474021
0.0452604
0.0432844
0.0414242
0.0396546
0.0379838
0.0364486
0.035097
0.0339677
0.0330765
0.0324131
0.0319468
0.0316366
0.0314408
0.0313232
0.0312557
0.0312187
0.0311992
0.0311892
0.0311844
0.0311821
0.0311811
0.0311806
0.0311804
0.0311803
0.0311803
0.0311803
0.0311803
0.0311803
0.0311803
0.0311803
0.0311803
0.0311803
0.0311803
0.0311803
0.0311803
0.0311803
0.0311803
0.0311803
0.0311803
0.0311803
0.0311803
0.0311802
0.0311804
0.0311799
0.031181
0.0311789
0.0311829
0.0311757
0.0311881
0.0311679
0.0311987
0.0311547
0.0312131
0.0311417
0.0312215
0.0311405
0.0312152
0.0311512
0.0312044
0.0311623
0.0311819
0.0312185
0.0310744
0.0313596
0.0309769
0.0312961
0.031275
0.0308524
0.031583
0.0310049
0.0309027
0.0318347
0.0305601
0.0313631
0.0314746
0.0308154
0.0312781
0.0311936
0.0316609
0.0299651
0.370323
0.280793
0.224517
0.186253
0.158714
0.138028
0.121961
0.109144
0.0986957
0.0900209
0.0827089
0.0764672
0.0710821
0.0663906
0.0622646
0.058603
0.0553306
0.0523968
0.0497663
0.0474036
0.045262
0.043286
0.0414258
0.0396561
0.0379852
0.0364498
0.035098
0.0339684
0.033077
0.0324134
0.031947
0.0316367
0.0314409
0.0313233
0.0312558
0.0312188
0.0311993
0.0311893
0.0311845
0.0311822
0.0311812
0.0311807
0.0311805
0.0311804
0.0311804
0.0311804
0.0311804
0.0311804
0.0311804
0.0311804
0.0311804
0.0311804
0.0311804
0.0311804
0.0311804
0.0311804
0.0311804
0.0311804
0.0311804
0.0311804
0.0311804
0.0311803
0.0311806
0.03118
0.0311811
0.031179
0.0311829
0.0311761
0.0311873
0.0311698
0.0311954
0.0311609
0.031203
0.0311577
0.031198
0.0311735
0.0311729
0.0312003
0.0311581
0.0311879
0.031205
0.0311171
0.0312676
0.0311058
0.0311982
0.031246
0.0310451
0.0313276
0.0311015
0.0311298
0.0313599
0.030963
0.0312715
0.0313733
0.0306913
0.0317445
0.0309262
0.0308227
0.0322408
0.0294727
0.370324
0.2808
0.224525
0.186261
0.158722
0.138034
0.121966
0.109148
0.0986977
0.0900214
0.0827073
0.0764638
0.0710772
0.0663844
0.0622567
0.0585931
0.055319
0.0523838
0.0497521
0.0473882
0.0452456
0.0432687
0.0414084
0.039639
0.0379683
0.0364328
0.0350803
0.0339497
0.0330573
0.032393
0.0319263
0.0316161
0.0314206
0.0313033
0.0312361
0.0311994
0.03118
0.0311703
0.0311655
0.0311633
0.0311623
0.0311618
0.0311617
0.0311616
0.0311615
0.0311615
0.0311615
0.0311615
0.0311615
0.0311615
0.0311615
0.0311615
0.0311615
0.0311615
0.0311615
0.0311615
0.0311615
0.0311615
0.0311615
0.0311615
0.0311616
0.0311614
0.0311617
0.0311612
0.0311622
0.0311603
0.0311637
0.0311578
0.0311674
0.0311527
0.0311738
0.031146
0.0311789
0.0311451
0.0311727
0.0311601
0.0311503
0.0311842
0.0311342
0.0311826
0.0311575
0.0311439
0.0311965
0.0311179
0.03121
0.0311019
0.0312394
0.031079
0.0312044
0.0312064
0.0310308
0.031309
0.0310583
0.0312929
0.0307935
0.0318745
0.0304348
0.0311029
0.0328243
0.0278311
0.370325
0.280812
0.224537
0.186272
0.15873
0.13804
0.121967
0.109145
0.0986908
0.0900104
0.0826917
0.0764434
0.071052
0.066355
0.0622245
0.0585591
0.0552828
0.0523446
0.0497109
0.0473492
0.0452154
0.043253
0.0414093
0.0396549
0.0379949
0.036465
0.0351138
0.0339813
0.0330851
0.0324166
0.0319461
0.0316333
0.031436
0.0313178
0.0312502
0.0312133
0.0311939
0.0311841
0.0311794
0.0311772
0.0311762
0.0311757
0.0311756
0.0311755
0.0311755
0.0311755
0.0311754
0.0311754
0.0311754
0.0311754
0.0311754
0.0311754
0.0311754
0.0311754
0.0311754
0.0311754
0.0311754
0.0311754
0.0311755
0.0311754
0.0311755
0.0311754
0.0311756
0.0311751
0.031176
0.0311744
0.0311773
0.0311724
0.0311802
0.0311684
0.0311849
0.0311639
0.0311877
0.0311649
0.031181
0.031178
0.0311636
0.0311942
0.0311563
0.0311865
0.0311783
0.0311604
0.0311933
0.0311648
0.0311805
0.0311555
0.0312398
0.0310526
0.0313351
0.0310293
0.0312569
0.0312053
0.0309398
0.0318154
0.0299002
0.0330725
0.0292239
0.0320453
0.0326238
0.026763
0.370326
0.280824
0.224546
0.186274
0.158724
0.138026
0.121942
0.109107
0.0986418
0.0899525
0.0826257
0.076368
0.0709675
0.0662708
0.0621546
0.0585138
0.0552617
0.0523457
0.0497503
0.0474695
0.0454718
0.0436849
0.042027
0.0404321
0.0388855
0.037421
0.0360962
0.0349631
0.0340498
0.033357
0.0328634
0.0325323
0.0323224
0.032196
0.0321234
0.0320835
0.0320625
0.0320518
0.0320467
0.0320442
0.0320431
0.0320426
0.0320424
0.0320423
0.0320423
0.0320423
0.0320423
0.0320423
0.0320423
0.0320423
0.0320423
0.0320423
0.0320423
0.0320423
0.0320423
0.0320423
0.0320423
0.0320423
0.0320423
0.0320423
0.0320423
0.0320422
0.0320424
0.032042
0.0320428
0.0320414
0.0320438
0.0320398
0.0320461
0.0320368
0.0320496
0.0320337
0.0320509
0.0320357
0.0320441
0.0320473
0.03203
0.032059
0.0320269
0.0320499
0.032045
0.0320337
0.0320466
0.0320486
0.0320358
0.0320154
0.0321473
0.0318305
0.0323519
0.0316754
0.032413
0.0317566
0.0320107
0.0328677
0.0297803
0.0360441
0.0269175
0.0362826
0.030967
0.0277979
0.370322
0.280832
0.224528
0.186235
0.158656
0.137938
0.121825
0.10896
0.0984835
0.0898005
0.0824977
0.0762808
0.0709498
0.0663974
0.0625068
0.059158
0.0562246
0.0536637
0.0515752
0.0500844
0.049202
0.0487436
0.0484225
0.0479555
0.0472157
0.0462336
0.0451327
0.0440502
0.0430895
0.0423098
0.0417311
0.0413377
0.041089
0.0409406
0.0408566
0.0408114
0.0407882
0.040777
0.0407717
0.0407694
0.0407685
0.0407681
0.0407679
0.0407679
0.0407679
0.0407679
0.0407679
0.0407679
0.0407679
0.0407679
0.0407679
0.0407679
0.0407679
0.0407679
0.0407679
0.0407679
0.0407679
0.0407679
0.0407679
0.0407679
0.0407679
0.0407679
0.040768
0.0407677
0.0407683
0.0407671
0.0407692
0.0407657
0.0407713
0.0407631
0.0407742
0.0407607
0.0407749
0.0407631
0.040768
0.0407745
0.0407543
0.0407859
0.0407503
0.0407807
0.0407587
0.0407833
0.0407309
0.0408336
0.0406953
0.0407818
0.0409125
0.0403651
0.0414829
0.0397521
0.0419919
0.0395489
0.0414824
0.0414555
0.0373729
0.0476802
0.030539
0.050982
0.0329034
0.0395638
0.3703
0.280798
0.224403
0.186072
0.158431
0.137716
0.121597
0.108804
0.0985411
0.0902107
0.0834335
0.0779395
0.0735914
0.0703995
0.0682453
0.0669305
0.0662564
0.0663547
0.0677589
0.0709884
0.0760266
0.0819383
0.0874556
0.0916917
0.0943
0.0954244
0.0954882
0.0949705
0.0942555
0.093577
0.0930426
0.0926856
0.0924801
0.092375
0.092328
0.0923112
0.092308
0.0923098
0.0923127
0.0923151
0.0923168
0.0923179
0.0923185
0.0923188
0.092319
0.0923191
0.0923192
0.0923192
0.0923192
0.0923192
0.0923192
0.0923192
0.0923192
0.0923192
0.0923192
0.0923192
0.0923192
0.0923192
0.0923193
0.0923192
0.0923193
0.0923192
0.0923194
0.0923191
0.0923197
0.0923186
0.0923206
0.0923171
0.0923228
0.0923141
0.0923263
0.0923108
0.092328
0.0923131
0.0923195
0.0923292
0.0922968
0.0923538
0.0922781
0.0923606
0.0922798
0.0923693
0.0922293
0.0924838
0.092075
0.0925699
0.0922454
0.0919368
0.0934483
0.0902518
0.0952775
0.0888303
0.0954226
0.0910371
0.0894154
0.101136
0.0761444
0.110791
0.0716147
0.0973951
0.370186
0.280558
0.224233
0.186026
0.158702
0.138579
0.123422
0.112247
0.104424
0.0994349
0.0968279
0.0963726
0.0981523
0.102171
0.108163
0.115418
0.123787
0.134127
0.147623
0.164491
0.183263
0.201024
0.215638
0.226269
0.233115
0.236957
0.238769
0.239431
0.23959
0.239619
0.239657
0.239732
0.239838
0.239947
0.240041
0.240111
0.24016
0.240191
0.24021
0.240222
0.240228
0.240231
0.240233
0.240234
0.240234
0.240234
0.240234
0.240234
0.240234
0.240235
0.240235
0.240235
0.240235
0.240235
0.240235
0.240235
0.240235
0.240235
0.240235
0.240235
0.240235
0.240235
0.240235
0.240235
0.240235
0.240234
0.240236
0.240233
0.240238
0.240229
0.240243
0.240224
0.240248
0.240223
0.240241
0.240243
0.240205
0.240293
0.24015
0.240335
0.240135
0.240324
0.240139
0.240391
0.23995
0.240665
0.239794
0.24033
0.241016
0.238043
0.244066
0.235051
0.245733
0.235957
0.240601
0.245952
0.224901
0.2605
0.210781
0.252173
0.369458
0.281414
0.228637
0.192962
0.170725
0.15611
0.150031
0.150235
0.156721
0.167659
0.181388
0.198224
0.218295
0.240441
0.263168
0.285687
0.308193
0.331617
0.356807
0.382345
0.405089
0.422046
0.433682
0.441019
0.445224
0.447368
0.448336
0.448744
0.448962
0.44918
0.449451
0.449736
0.449983
0.450171
0.450303
0.45039
0.450445
0.450478
0.450496
0.450507
0.450512
0.450515
0.450516
0.450517
0.450517
0.450518
0.450518
0.450518
0.450518
0.450518
0.450518
0.450518
0.450518
0.450518
0.450518
0.450518
0.450518
0.450518
0.450518
0.450518
0.450518
0.450518
0.450518
0.450518
0.450518
0.450518
0.450519
0.450517
0.450521
0.450514
0.450525
0.450508
0.450532
0.450503
0.450531
0.450515
0.450502
0.450566
0.450434
0.450637
0.450383
0.450646
0.450415
0.450615
0.450369
0.450793
0.450119
0.450854
0.45068
0.449262
0.453343
0.44606
0.455961
0.445258
0.453396
0.45187
0.441036
0.465608
0.423209
0.466448
0.372166
0.315495
0.292899
0.27929
0.286479
0.295713
0.331086
0.373316
0.419091
0.463392
0.504063
0.541029
0.573602
0.600553
0.621583
0.637697
0.650254
0.659939
0.667257
0.67251
0.675849
0.677677
0.67837
0.678348
0.677959
0.67747
0.677068
0.676849
0.676815
0.676916
0.677127
0.677385
0.677605
0.677765
0.677872
0.677939
0.67798
0.678004
0.678017
0.678025
0.678028
0.67803
0.678031
0.678032
0.678032
0.678032
0.678032
0.678032
0.678032
0.678032
0.678032
0.678032
0.678032
0.678032
0.678032
0.678032
0.678032
0.678033
0.678033
0.678033
0.678033
0.678033
0.678033
0.678033
0.678033
0.678033
0.678033
0.678032
0.678034
0.67803
0.678037
0.678026
0.678042
0.678021
0.678045
0.678025
0.678031
0.678055
0.677983
0.678116
0.677924
0.67815
0.677931
0.678111
0.677959
0.678155
0.677821
0.678292
0.677947
0.677553
0.679522
0.675269
0.681909
0.673753
0.681416
0.676985
0.674063
0.687211
0.660173
0.695184
0.606736
0.839829
0.95217
0.969576
0.937581
0.881191
0.821303
0.769148
0.724429
0.688215
0.660603
0.640404
0.625694
0.614894
0.607112
0.601786
0.598314
0.596028
0.594344
0.592893
0.591559
0.590377
0.589379
0.588591
0.588024
0.587668
0.587491
0.587448
0.587505
0.587626
0.587763
0.587879
0.587962
0.588017
0.588052
0.588073
0.588085
0.588091
0.588095
0.588097
0.588098
0.588098
0.588098
0.588099
0.588099
0.588099
0.588099
0.588099
0.588099
0.588099
0.588099
0.588099
0.588099
0.588099
0.588099
0.588099
0.588099
0.588099
0.588099
0.588099
0.588099
0.588099
0.588099
0.588099
0.588099
0.588099
0.5881
0.588099
0.5881
0.588099
0.588101
0.588098
0.588102
0.588097
0.588103
0.588096
0.588102
0.588102
0.58809
0.588119
0.588072
0.588135
0.588066
0.588128
0.588082
0.588122
0.588065
0.588164
0.588046
0.58808
0.588354
0.587541
0.589093
0.586985
0.589542
0.58782
0.589116
0.592646
0.591291
0.609152
1.36259
1.55654
1.1958
2.27975
1.49306
0.556022
0.192463
0.0927445
0.0682859
0.0581559
0.0517417
0.0484881
0.0469762
0.0457776
0.0442547
0.0423138
0.0401259
0.0379695
0.0360937
0.0346143
0.0335056
0.032692
0.0321183
0.031739
0.0315064
0.0313802
0.0313197
0.0312928
0.0312811
0.0312761
0.031274
0.031273
0.0312725
0.0312723
0.0312722
0.0312721
0.0312721
0.0312721
0.0312721
0.0312721
0.0312721
0.0312721
0.0312721
0.0312721
0.0312721
0.0312721
0.0312721
0.0312721
0.0312721
0.0312721
0.0312721
0.0312721
0.0312721
0.0312721
0.0312721
0.0312721
0.0312721
0.0312721
0.0312721
0.0312721
0.0312721
0.0312721
0.0312721
0.0312721
0.0312721
0.0312721
0.0312721
0.0312721
0.0312721
0.0312721
0.0312721
0.0312721
0.0312721
0.0312721
0.0312721
0.0312721
0.0312721
0.0312721
0.0312721
0.0312721
0.0312721
0.031272
0.0312721
0.031272
0.0312721
0.0312721
0.031272
0.0312723
0.0312718
0.0312722
0.0312719
0.031272
0.0312719
0.0312718
0.0312716
0.0312711
0.0312707
0.031269
0.0312681
0.0312644
1.49171
1.85164
1.55737
2.21447
1.21528
0.415025
0.143743
0.0746617
0.0596878
0.0554556
0.0514521
0.0482942
0.04642
0.0450685
0.0436145
0.041837
0.0398027
0.0377451
0.0359188
0.0344703
0.0333999
0.0326305
0.0320922
0.0317337
0.0315087
0.0313808
0.0313166
0.0312866
0.0312731
0.0312671
0.0312644
0.0312631
0.0312626
0.0312623
0.0312622
0.0312621
0.0312621
0.0312621
0.0312621
0.0312621
0.0312621
0.0312621
0.0312621
0.0312621
0.0312621
0.0312621
0.0312621
0.0312621
0.0312621
0.0312621
0.0312621
0.0312621
0.0312621
0.0312621
0.0312621
0.0312621
0.0312621
0.0312621
0.0312621
0.0312621
0.0312621
0.0312621
0.0312621
0.0312621
0.0312621
0.0312621
0.0312621
0.0312621
0.0312621
0.0312621
0.0312621
0.0312621
0.0312621
0.0312621
0.0312621
0.0312621
0.0312621
0.0312621
0.0312621
0.031262
0.0312621
0.031262
0.0312621
0.031262
0.0312621
0.0312621
0.0312618
0.0312624
0.0312616
0.0312626
0.0312615
0.0312625
0.0312615
0.0312625
0.0312611
0.0312622
0.0312606
0.0312613
0.0312593
0.0312602
1.05902
1.57859
1.71045
1.9111
0.883684
0.27884
0.104028
0.0644278
0.0560442
0.053537
0.0509091
0.0481076
0.0459917
0.0444446
0.0430033
0.0413594
0.0394713
0.0375152
0.0357424
0.0343267
0.0332963
0.0325763
0.0320781
0.0317415
0.0315243
0.0313942
0.0313235
0.0312881
0.0312711
0.031263
0.0312592
0.0312575
0.0312566
0.0312562
0.031256
0.0312559
0.0312559
0.0312558
0.0312558
0.0312558
0.0312558
0.0312558
0.0312558
0.0312558
0.0312558
0.0312558
0.0312558
0.0312558
0.0312558
0.0312558
0.0312558
0.0312558
0.0312558
0.0312558
0.0312558
0.0312558
0.0312558
0.0312558
0.0312558
0.0312558
0.0312558
0.0312558
0.0312558
0.0312558
0.0312558
0.0312558
0.0312558
0.0312558
0.0312558
0.0312558
0.0312558
0.0312558
0.0312558
0.0312558
0.0312558
0.0312558
0.0312558
0.0312558
0.0312558
0.0312558
0.0312559
0.0312558
0.0312559
0.0312558
0.0312558
0.031256
0.0312555
0.0312564
0.031255
0.0312568
0.0312548
0.0312569
0.0312547
0.0312573
0.0312543
0.0312578
0.0312543
0.0312587
0.0312553
0.0312629
0.663809
0.967374
1.38951
1.30883
0.529554
0.165025
0.0741769
0.0534629
0.0502958
0.0506996
0.0499836
0.0478844
0.0456743
0.043919
0.0424353
0.0408859
0.03913
0.0372779
0.0355642
0.0341816
0.033186
0.032512
0.032057
0.0317494
0.0315468
0.0314192
0.0313442
0.0313033
0.031282
0.0312714
0.031266
0.0312634
0.0312621
0.0312614
0.0312611
0.0312609
0.0312609
0.0312608
0.0312608
0.0312608
0.0312608
0.0312608
0.0312608
0.0312608
0.0312608
0.0312608
0.0312608
0.0312608
0.0312608
0.0312608
0.0312608
0.0312608
0.0312608
0.0312608
0.0312608
0.0312608
0.0312608
0.0312608
0.0312608
0.0312608
0.0312608
0.0312608
0.0312608
0.0312608
0.0312608
0.0312608
0.0312608
0.0312608
0.0312608
0.0312608
0.0312608
0.0312608
0.0312608
0.0312608
0.0312608
0.0312608
0.0312608
0.0312608
0.0312608
0.0312608
0.0312608
0.0312607
0.0312608
0.0312608
0.0312607
0.031261
0.0312603
0.0312616
0.0312597
0.0312621
0.0312594
0.0312624
0.0312592
0.031263
0.0312589
0.0312642
0.0312595
0.0312667
0.0312626
0.0312759
0.337336
0.458708
0.845702
0.691771
0.263505
0.0957956
0.0569504
0.0481661
0.0463734
0.0473452
0.0482838
0.0474195
0.0454783
0.043569
0.0419707
0.040445
0.0387863
0.0370325
0.0353843
0.0340367
0.033067
0.0324266
0.0320102
0.0317351
0.0315543
0.0314367
0.0313631
0.0313195
0.0312952
0.0312822
0.0312754
0.031272
0.0312702
0.0312693
0.0312689
0.0312686
0.0312685
0.0312684
0.0312684
0.0312684
0.0312684
0.0312684
0.0312684
0.0312684
0.0312684
0.0312684
0.0312684
0.0312684
0.0312684
0.0312684
0.0312684
0.0312684
0.0312684
0.0312684
0.0312684
0.0312684
0.0312684
0.0312684
0.0312684
0.0312684
0.0312684
0.0312684
0.0312684
0.0312684
0.0312684
0.0312684
0.0312684
0.0312684
0.0312684
0.0312684
0.0312684
0.0312684
0.0312684
0.0312684
0.0312684
0.0312684
0.0312684
0.0312684
0.0312684
0.0312684
0.0312684
0.0312683
0.0312684
0.0312684
0.0312683
0.0312686
0.0312679
0.0312692
0.0312673
0.0312697
0.031267
0.0312701
0.0312668
0.0312708
0.0312666
0.0312722
0.0312676
0.0312754
0.0312718
0.0312868
0.0784935
0.124543
0.373384
0.288002
0.116314
0.0556245
0.0439856
0.0430018
0.043118
0.0435744
0.0451657
0.0458253
0.0448481
0.0431902
0.0415757
0.0400478
0.0384496
0.0367796
0.0352001
0.0338931
0.0329446
0.0323241
0.031935
0.0316878
0.0315292
0.0314261
0.0313593
0.0313179
0.0312937
0.0312803
0.0312732
0.0312694
0.0312675
0.0312665
0.031266
0.0312658
0.0312656
0.0312656
0.0312655
0.0312655
0.0312655
0.0312655
0.0312655
0.0312655
0.0312655
0.0312655
0.0312655
0.0312655
0.0312655
0.0312655
0.0312655
0.0312655
0.0312655
0.0312655
0.0312655
0.0312655
0.0312655
0.0312655
0.0312655
0.0312655
0.0312655
0.0312655
0.0312655
0.0312655
0.0312655
0.0312655
0.0312655
0.0312655
0.0312655
0.0312655
0.0312655
0.0312655
0.0312655
0.0312655
0.0312655
0.0312655
0.0312655
0.0312655
0.0312655
0.0312655
0.0312655
0.0312655
0.0312656
0.0312655
0.0312655
0.0312657
0.0312651
0.0312662
0.0312645
0.0312667
0.0312642
0.031267
0.0312641
0.0312676
0.031264
0.0312689
0.0312651
0.0312719
0.0312692
0.0312829
0.025767
0.0141375
0.127617
0.097905
0.0516379
0.0403631
0.042981
0.0463015
0.046971
0.0447884
0.0437105
0.0439882
0.0437526
0.0426794
0.0412733
0.0397802
0.0381958
0.0365601
0.0350254
0.0337543
0.0328262
0.0322189
0.0318474
0.031621
0.0314802
0.0313907
0.0313333
0.0312978
0.0312768
0.0312651
0.0312589
0.0312556
0.031254
0.0312531
0.0312526
0.0312524
0.0312523
0.0312522
0.0312522
0.0312522
0.0312522
0.0312522
0.0312522
0.0312522
0.0312522
0.0312522
0.0312522
0.0312522
0.0312522
0.0312522
0.0312522
0.0312522
0.0312522
0.0312522
0.0312522
0.0312522
0.0312522
0.0312522
0.0312522
0.0312522
0.0312522
0.0312522
0.0312522
0.0312522
0.0312522
0.0312522
0.0312522
0.0312522
0.0312522
0.0312522
0.0312522
0.0312522
0.0312522
0.0312522
0.0312522
0.0312522
0.0312522
0.0312522
0.0312522
0.0312522
0.0312522
0.0312521
0.0312522
0.0312522
0.0312521
0.0312524
0.0312518
0.0312528
0.0312513
0.0312532
0.0312511
0.0312534
0.031251
0.0312539
0.031251
0.0312549
0.0312518
0.0312574
0.0312553
0.0312667
0.0286289
0.0197188
0.0409727
0.0400375
0.0348955
0.0360963
0.0409738
0.0449877
0.0485824
0.0487758
0.0463657
0.0445954
0.0436703
0.0427449
0.0415282
0.0400354
0.0383362
0.0365778
0.0349662
0.0336654
0.0327327
0.0321299
0.0317687
0.0315567
0.0314289
0.0313502
0.0313016
0.0312726
0.031256
0.0312468
0.0312418
0.0312392
0.0312379
0.0312372
0.0312369
0.0312368
0.0312367
0.0312366
0.0312366
0.0312366
0.0312366
0.0312366
0.0312366
0.0312366
0.0312366
0.0312366
0.0312366
0.0312366
0.0312366
0.0312366
0.0312366
0.0312366
0.0312366
0.0312366
0.0312366
0.0312366
0.0312366
0.0312366
0.0312366
0.0312366
0.0312366
0.0312366
0.0312366
0.0312366
0.0312366
0.0312366
0.0312366
0.0312366
0.0312366
0.0312366
0.0312366
0.0312366
0.0312366
0.0312366
0.0312366
0.0312366
0.0312366
0.0312366
0.0312366
0.0312366
0.0312366
0.0312366
0.0312366
0.0312366
0.0312366
0.0312368
0.0312363
0.0312371
0.0312359
0.0312375
0.0312357
0.0312377
0.0312356
0.031238
0.0312355
0.0312388
0.0312361
0.0312406
0.0312387
0.0312481
0.0323509
0.0281535
0.0308759
0.0346303
0.0305519
0.0388184
0.0426319
0.0416388
0.0415725
0.0435545
0.0440994
0.0430691
0.0421117
0.0416319
0.041158
0.0402319
0.0387472
0.036933
0.0351576
0.0337077
0.0326863
0.0320479
0.0316835
0.0314843
0.0313731
0.0313083
0.0312701
0.0312481
0.031236
0.0312296
0.0312264
0.0312248
0.0312239
0.0312235
0.0312232
0.0312231
0.0312231
0.031223
0.031223
0.031223
0.031223
0.031223
0.031223
0.031223
0.031223
0.031223
0.031223
0.031223
0.031223
0.031223
0.031223
0.031223
0.031223
0.031223
0.031223
0.031223
0.031223
0.031223
0.031223
0.031223
0.031223
0.031223
0.031223
0.031223
0.031223
0.031223
0.031223
0.031223
0.031223
0.031223
0.031223
0.031223
0.031223
0.031223
0.031223
0.031223
0.031223
0.031223
0.031223
0.031223
0.031223
0.031223
0.031223
0.031223
0.031223
0.0312231
0.0312228
0.0312234
0.0312225
0.0312237
0.0312223
0.0312239
0.0312222
0.0312241
0.0312221
0.0312246
0.0312224
0.0312259
0.0312241
0.0312313
0.0329495
0.0304678
0.0320884
0.0328635
0.0335261
0.0373562
0.0352466
0.0379804
0.0408629
0.0419954
0.0430556
0.0428622
0.0416162
0.0405553
0.040051
0.0396065
0.0387146
0.0373136
0.0356907
0.0341943
0.0330358
0.0322542
0.0317809
0.0315153
0.031371
0.0312931
0.0312517
0.0312303
0.0312197
0.0312146
0.0312122
0.0312111
0.0312106
0.0312104
0.0312103
0.0312103
0.0312103
0.0312103
0.0312102
0.0312102
0.0312102
0.0312102
0.0312102
0.0312102
0.0312102
0.0312102
0.0312102
0.0312102
0.0312102
0.0312102
0.0312102
0.0312102
0.0312102
0.0312102
0.0312102
0.0312102
0.0312102
0.0312102
0.0312102
0.0312102
0.0312102
0.0312102
0.0312102
0.0312102
0.0312102
0.0312102
0.0312102
0.0312102
0.0312102
0.0312102
0.0312102
0.0312102
0.0312102
0.0312102
0.0312102
0.0312102
0.0312102
0.0312102
0.0312102
0.0312102
0.0312103
0.0312102
0.0312103
0.0312102
0.0312102
0.0312103
0.0312101
0.0312105
0.0312099
0.0312107
0.0312097
0.0312108
0.0312097
0.0312109
0.0312095
0.0312112
0.0312096
0.0312117
0.0312103
0.031215
0.0334752
0.0296124
0.0319805
0.0339997
0.0311954
0.0377718
0.0351959
0.040343
0.0460336
0.0453979
0.0433482
0.0423382
0.041726
0.0408578
0.039675
0.0383128
0.0368836
0.0354867
0.0342294
0.0332007
0.0324387
0.0319247
0.0316055
0.0314193
0.031314
0.0312553
0.0312235
0.0312073
0.0311995
0.0311959
0.0311944
0.0311938
0.0311936
0.0311935
0.0311935
0.0311935
0.0311935