/*--------------------------------*- C++ -*----------------------------------*\
| =========                 |                                                 |
| \\      /  F ield         | OpenFOAM: The Open Source CFD Toolbox           |
|  \\    /   O peration     | Version:  v2012                                 |
|   \\  /    A nd           | Website:  www.openfoam.com                      |
|    \\/     M anipulation  |                                                 |
\*---------------------------------------------------------------------------*/
FoamFile
{
    version     2.0;
    format      ascii;
    class       volScalarField;
    location    "0.237";
    object      omega.air;
}
// * * * * * * * * * * * * * * * * * * * * * * * * * * * * * * * * * * * * * //

dimensions      [0 0 -1 0 0 0 0];


internalField   nonuniform List<scalar> 
5600
(
6586.56
7485.1
7887.46
7964.52
7866.97
7686.97
7481.13
7290.22
7124.8
6988.81
6877.7
6797.9
6734.83
6694.54
6662.91
6642.47
6627.06
6614.66
6605.45
6596.43
6589.43
6583.09
6577.15
6573.93
6569.72
6568.3
6565.9
6564.87
6564.03
6562.62
6562.38
6560.3
6559.97
6557.32
6556.85
6553.98
6553.37
6550.6
6549.8
6547.35
6546.44
6544.34
6543.54
6541.66
6541.19
6539.51
6539.46
6537.86
6538.05
6536.76
6536.89
6536.06
6536.06
6535.56
6535.73
6535.23
6535.95
6535.22
6536.5
6535.76
6537.35
6536.81
6538.48
6538.29
6539.98
6539.94
6541.97
6541.81
6544.34
6544.02
6546.91
6546.55
6549.67
6549.38
6552.85
6552.56
6556.51
6556.04
6560.4
6559.73
6564.31
6563.55
6568.19
6567.61
6572
6572.22
6575.43
6577.94
6577.68
6585.74
6577.27
6598.01
6569.96
6621.97
6541.79
6682.19
6442.64
6865.83
6043.36
7484.62
2450.13
2297.52
2571.91
2795.2
2928.82
2997.11
3011.89
2966.99
2969.72
3015.7
3074.87
3117.25
3148.54
3157.35
3155.53
3140.24
3118.51
3091.14
3062.06
3032.9
3002.88
2974.42
2944.73
2916.75
2889.05
2863.35
2839.58
2817.45
2797.58
2778.49
2762.01
2745.88
2732.07
2718.67
2707.18
2695.98
2686.37
2677
2668.93
2661.07
2654.27
2647.64
2641.89
2636.26
2631.32
2626.26
2621.86
2617.43
2613.46
2609.54
2605.99
2602.61
2599.47
2596.5
2593.86
2591.2
2588.99
2586.69
2584.8
2582.7
2581.1
2579.33
2577.89
2576.37
2575.18
2573.81
2572.79
2571.61
2570.68
2569.78
2569
2568.21
2567.53
2566.85
2566.25
2565.7
2565.27
2564.96
2564.67
2564.51
2564.2
2564.16
2563.71
2563.91
2563.2
2563.94
2562.68
2564.61
2561.93
2566.37
2559.72
2570.71
2553.24
2582.07
2535.28
2613.86
2479.46
2713.79
2282.44
3061.49
2358.45
1860.08
1592.21
1427.53
1347.17
1271.77
1281.91
1307.54
1353.4
1410.84
1483.6
1548.39
1611.72
1663.85
1704.6
1733.8
1748.89
1752.47
1744.46
1726.26
1702.78
1676.44
1653.86
1634.78
1619.5
1605.69
1593.26
1581.67
1571.28
1560.91
1551.18
1540.9
1531.32
1521.59
1512.91
1504.11
1496.4
1488.63
1481.86
1475.11
1469.19
1463.3
1458.1
1452.83
1448.27
1443.59
1439.58
1435.45
1431.89
1428.3
1425.07
1422
1419.14
1416.42
1414.01
1411.53
1409.51
1407.27
1405.53
1403.47
1401.94
1400.12
1398.71
1397.08
1395.86
1394.31
1393.28
1391.84
1390.96
1389.67
1388.93
1387.77
1387.1
1386.05
1385.43
1384.48
1383.94
1383.2
1382.73
1382.19
1381.59
1381.33
1380.37
1380.66
1378.98
1380.39
1377.29
1380.97
1374.88
1383.06
1370.7
1388.1
1362.29
1399.54
1344.38
1424.9
1306.05
1477
1231.52
1553.62
2345.19
1822.28
1493.45
1267.23
1111.86
991.654
907.892
845.867
803.698
776.006
760.566
770.126
791.424
824.817
860.635
902.62
941.335
978.187
1011.99
1038.63
1062.44
1078.17
1092.41
1100.4
1106.06
1107
1103.5
1097.26
1087.29
1078.26
1068.18
1060.84
1053.81
1048.05
1042.47
1037.29
1032.5
1027.79
1023.54
1019.18
1015.07
1010.58
1006.1
1001.37
996.943
992.386
988.292
984.116
980.378
976.734
973.307
970.108
967.115
964.231
961.626
958.939
956.587
954.064
951.937
949.555
947.551
945.386
943.515
941.503
939.837
937.921
936.445
934.646
933.332
931.682
930.525
929.05
927.976
926.592
925.545
924.26
923.294
922.262
921.325
920.567
919.465
919.104
917.571
917.867
915.536
917.045
913.242
916.943
910.43
917.909
906.596
920.553
900.887
925.8
892.293
933.984
881.459
941.254
876.363
925.764
2342.03
1815.81
1480.05
1247.6
1080.06
952.288
853.283
774.814
710.102
659.799
614.98
583.098
555.446
536.67
523.777
514.164
514.939
519.657
533.539
547.837
569.609
590.982
616.78
641.863
667.112
692.586
713.227
734.187
747.344
761.768
768.895
778.112
781.589
786.432
786.974
787.876
785.788
783.494
779.517
775.757
771.123
767.622
764.032
761.329
758.287
755.667
752.976
750.364
747.897
745.513
743.248
741.086
738.977
736.915
734.71
732.374
730.034
727.57
725.32
722.908
720.694
718.425
716.333
714.189
712.283
710.245
708.524
706.621
705.049
703.287
701.837
700.198
698.8
697.242
695.831
694.363
692.968
691.683
690.283
689.265
687.73
687.095
685.241
685.163
682.754
683.581
680.197
682.439
677.5
681.777
674.595
681.651
671.521
681.835
668.751
681.164
667.986
676.825
672.171
664.734
2341.19
1813.99
1476.91
1243.74
1074.22
945.459
843.939
763.811
695.686
642.045
593.244
554.688
519.483
489.532
465.017
440.731
423.903
405.804
394.387
382.897
375.317
370.637
366.725
369.793
372.331
382.448
390.414
406.708
418.818
439.142
453.354
474.924
490.112
509.791
524.376
540.318
552.398
564.033
572.44
580.608
585.332
591.033
593.564
597.616
598.733
600.761
600.991
601.092
600.385
599.016
597.408
595.529
593.14
591.265
588.895
587.529
585.67
584.195
582.692
581.172
579.832
578.367
577.019
575.685
574.396
573.13
571.996
570.753
569.698
568.444
567.266
565.844
564.511
563.115
561.733
560.395
558.954
557.661
556.117
554.98
553.316
552.473
550.654
550.214
548.128
548.201
545.686
546.388
543.301
544.671
540.998
543.007
538.938
541.239
537.422
538.922
536.736
535.739
536.168
532.422
2340.9
1813.37
1475.78
1242.64
1072.43
943.799
841.582
761.237
692.854
638.145
589.661
549.277
514.205
482.239
456.433
430.566
410.321
390.204
372.774
358.002
342.43
331.68
318.404
310.232
300.029
293.956
286.619
282.926
278.408
277.31
276.374
278.517
281.902
286.964
294.512
302.549
312.899
324.056
335.361
349.07
359.908
374.799
384.967
398.97
408.819
420.14
429.693
438.217
446.325
452.414
458.003
463.103
465.903
469.851
471.038
474.085
475.133
476.618
477.494
477.93
478.429
478.466
478.035
477.814
476.738
476.132
474.946
473.857
472.841
471.595
470.601
469.541
468.577
467.722
466.931
466.231
465.43
464.653
463.616
462.797
461.583
460.941
459.708
459.377
458.08
458
456.521
456.584
454.87
454.977
453.061
453.168
451.16
451.233
449.306
449.22
447.423
447.264
444.669
445.37
2340.76
1813.15
1475.24
1242.25
1071.69
943.143
840.87
760.124
692.286
636.581
589.011
547.586
512.978
480.771
454.266
429.189
407.321
388.223
369.183
354.514
338.119
325.928
312.6
301.479
291.161
280.704
272.835
263.083
257.163
248.186
243.927
235.834
233.088
226.142
224.513
219.421
218.308
215.765
215.203
215.286
216.414
218.567
221.876
225.582
231.546
236.496
244.719
250.899
260.438
268.32
277.175
287.268
294.99
305.707
312.824
322.217
330.192
337.315
345.073
350.835
357.378
362.921
367.412
372.153
375.34
378.779
381.437
383.399
385.554
386.765
388.23
389.068
389.949
390.526
391.304
391.758
392.342
392.382
392.418
392.025
391.527
390.965
390.27
389.821
389.036
388.661
387.623
387.179
385.823
385.282
383.636
383.048
381.14
380.698
378.748
378.446
376.409
376.274
373.503
373.473
2340.69
1813.04
1474.97
1242.03
1071.42
942.712
840.727
759.447
692.223
635.827
588.767
547.054
512.297
480.569
453.221
429.031
406.304
387.665
368.491
353.387
337.645
324.394
311.992
299.697
290.164
278.55
271.294
260.314
254.748
244.561
240.038
230.941
226.816
219.183
214.961
208.801
204.711
199.249
196.246
190.458
189.155
183.148
182.863
177.614
177.319
173.942
173.262
171.439
171.012
170.711
171.516
171.502
174.102
174.87
179.396
180.594
186.396
188.883
195.567
199.705
206.251
211.825
218.515
224.723
231.897
237.896
245.556
251.067
258.362
263.744
270.244
275.4
281.045
285.585
290.564
294.508
298.938
302.211
305.783
308.361
310.911
312.772
314.54
316.022
317.262
318.427
319.004
319.685
319.593
319.889
319.292
319.346
318.252
318.223
316.914
316.733
315.318
315.029
313.134
312.387
2340.66
1812.97
1474.9
1241.85
1071.4
942.415
840.744
759.121
692.15
635.625
588.483
547.026
511.855
480.561
452.843
428.808
406.169
387.155
368.535
352.768
337.617
323.903
311.716
299.401
289.641
278.383
270.568
260.227
253.808
244.521
238.86
230.867
225.432
218.849
213.472
207.907
203.092
197.673
194.065
188.291
185.809
180.103
177.915
173.12
170.36
167.028
163.582
161.235
157.888
155.443
153.621
149.84
149.779
145.398
146.086
142.575
142.179
140.631
139.578
139.163
138.657
137.66
138.86
137.789
139.949
139.687
141.745
142.895
144.982
146.898
149.556
152.006
155.546
158.487
162.164
165.328
168.859
172.45
176.253
180.342
184.508
188.761
192.764
196.789
200.303
204.076
207.236
210.752
213.672
216.893
219.469
222.368
224.473
226.767
228.488
230.33
231.783
233.224
234.366
235.261
2340.67
1812.94
1474.97
1241.79
1071.51
942.344
840.815
759.14
692.098
635.767
588.344
547.18
511.79
480.563
452.971
428.624
406.426
386.928
368.739
352.674
337.638
324.005
311.553
299.666
289.327
278.811
270.071
260.849
253.141
245.253
238.19
231.479
225.024
219.118
213.424
207.938
203.118
197.882
193.759
188.985
185.102
181.135
177.194
173.995
170.242
167.297
164.264
161.171
158.918
155.979
154
151.807
149.657
148.383
146.397
145.515
144.343
143.459
143.294
142.839
143.21
143.807
144.449
146.104
147.398
149.693
152.043
154.75
157.974
161.34
165.076
169.073
173.138
177.569
182.045
186.743
191.528
196.191
200.891
205.373
209.738
213.971
218.059
222.032
225.845
229.412
232.747
235.771
238.535
241.055
243.326
245.365
247.183
248.795
250.243
251.517
252.614
253.554
254.219
254.802
2340.71
1813.01
1475.13
1241.88
1071.72
942.487
841.013
759.37
692.238
636.082
588.466
547.5
511.993
480.796
453.316
428.762
406.869
387.067
369.163
352.938
337.949
324.458
311.753
300.267
289.52
279.469
270.374
261.524
253.613
246.004
238.828
232.439
225.871
220.411
214.628
209.705
204.921
200.301
196.574
192.406
189.386
186.199
183.446
181.59
179.247
178.41
177.222
177.026
177.595
178.216
180.193
182.322
185.256
189.129
193.077
198.193
203.602
209.376
216.026
222.437
229.637
236.745
243.926
251.357
258.36
265.479
272.266
278.579
284.905
290.601
296.154
301.22
305.965
310.343
314.325
317.955
321.19
323.943
326.398
328.379
330.099
331.405
332.48
333.328
333.972
334.455
334.78
334.919
334.903
334.762
334.477
334.089
333.537
332.881
332.126
331.277
330.365
329.377
328.306
327.257
2340.76
1813.17
1475.39
1242.14
1072.07
942.818
841.418
759.775
692.668
636.575
588.915
548.077
512.486
481.434
453.905
429.433
407.609
387.776
370.083
353.772
339.034
325.587
313.012
301.859
291.126
281.657
272.712
264.492
257.188
250.22
244.295
238.879
234.083
230.421
226.851
224.975
223.033
222.881
223.54
225.167
228.449
232.122
237.627
243.641
250.888
259.011
267.606
277.055
286.532
296.485
306.302
316.048
325.441
334.476
343.083
351.115
358.734
365.565
371.939
377.533
382.531
386.85
390.516
393.599
396.101
398.171
399.858
401.291
402.54
403.53
404.371
404.985
405.459
405.754
405.889
405.875
405.687
405.347
404.886
404.293
403.642
402.889
402.11
401.318
400.48
399.664
398.84
398.006
397.136
396.261
395.342
394.416
393.427
392.425
391.387
390.312
389.212
388.091
386.968
385.932
2340.87
1813.49
1475.86
1242.7
1072.75
943.537
842.275
760.655
693.712
637.65
590.163
549.418
513.977
483.155
455.77
431.685
410.122
390.81
373.72
358.077
344.431
331.975
321.069
311.823
303.549
297.248
291.886
288.401
286.413
286.314
288.72
292.647
298.967
306.914
316.563
327.917
339.945
353.313
366.54
380.386
393.83
406.827
419.447
430.945
441.854
451.379
459.929
467.213
473.225
478.3
482.17
485.419
488.02
490.215
491.941
493.246
494.2
494.722
494.954
494.812
494.41
493.729
492.834
491.761
490.57
489.341
488.134
487.051
486.029
485.051
484.086
483.136
482.201
481.276
480.352
479.421
478.466
477.513
476.555
475.619
474.717
473.843
473.005
472.16
471.321
470.413
469.435
468.414
467.351
466.286
465.208
464.148
463.075
462.021
460.958
459.892
458.825
457.783
456.802
455.969
2341.15
1814.19
1476.92
1243.98
1074.39
945.441
844.592
763.299
696.912
641.326
594.615
554.624
520.459
491.042
465.656
443.939
425.735
410.677
398.924
389.566
383.796
380.03
380.961
385.417
393.397
404.723
418.788
435.26
453.438
472.357
492.007
511.118
529.662
546.571
561.853
575.04
585.922
594.984
601.93
607.632
612.13
615.746
618.432
620.179
621.163
621.213
620.657
619.368
617.636
615.55
613.245
611.02
609.049
607.261
605.529
603.882
602.23
600.62
599.017
597.449
595.918
594.431
592.992
591.611
590.261
588.94
587.595
586.134
584.593
583.034
581.425
579.845
578.269
576.721
575.183
573.648
572.124
570.624
569.161
567.751
566.409
565.13
563.9
562.712
561.543
560.404
559.282
558.178
557.081
556.02
554.974
553.977
552.993
552.047
551.096
550.169
549.263
548.411
547.662
547.123
2342.02
1815.99
1480.11
1247.96
1080.29
952.694
854.185
775.165
712.403
660.547
619.146
586.871
562.637
545.503
534.546
530.153
534.369
545.126
560.969
581.115
604.535
630.629
657.628
684.797
711.025
734.724
754.952
771.343
784.178
794.172
801.854
807.291
810.798
812.193
811.908
809.888
806.658
802.648
798.22
794.142
790.65
787.477
784.438
781.479
778.536
775.68
772.897
770.233
767.714
765.244
762.926
760.486
757.947
755.269
752.58
749.914
747.238
744.664
742.101
739.65
737.247
734.943
732.71
730.583
728.534
726.575
724.704
722.882
721.098
719.375
717.659
716.021
714.406
712.845
711.317
709.813
708.347
706.926
705.563
704.266
703.042
701.879
700.763
699.694
698.647
697.644
696.672
695.738
694.829
693.975
693.145
692.379
691.628
690.924
690.215
689.536
688.889
688.302
687.867
687.726
2345.25
1822.4
1493.85
1268.17
1113.21
994.196
912.589
852.01
814.544
787.796
783.759
800.038
829.164
865.962
907.699
950.182
990.307
1027.01
1058.24
1083.65
1103.39
1118.48
1129.05
1135.75
1137.44
1134.76
1127.99
1118.7
1108.64
1099.47
1091.8
1085.14
1079.04
1073.28
1067.82
1062.62
1057.76
1052.98
1048.4
1043.5
1038.49
1033.32
1028.23
1023.25
1018.44
1013.91
1009.53
1005.47
1001.59
997.953
994.56
991.313
988.297
985.333
982.544
979.833
977.218
974.733
972.297
970.001
967.756
965.63
963.566
961.617
959.739
957.955
956.262
954.639
953.087
951.611
950.182
948.834
947.529
946.29
945.089
943.926
942.799
941.714
940.681
939.715
938.809
937.95
937.139
936.359
935.603
934.873
934.171
933.51
932.878
932.31
931.765
931.293
930.824
930.417
929.983
929.611
929.25
928.989
928.943
929.324
2358.73
1860.92
1594.74
1434.07
1353.9
1289.11
1305.2
1337.33
1392.1
1465.14
1539.77
1610.2
1672.47
1722.96
1760.18
1783.32
1792.6
1788.81
1773.34
1750.14
1724.17
1700.7
1682.16
1666.52
1652.49
1639.5
1627.38
1615.95
1604.94
1593.83
1582.73
1571.93
1561.55
1551.75
1542.43
1533.73
1525.55
1517.91
1510.82
1504.14
1497.96
1492
1486.49
1481.28
1476.41
1471.87
1467.52
1463.54
1459.7
1456.19
1452.85
1449.73
1446.86
1444.1
1441.59
1439.16
1436.9
1434.77
1432.72
1430.81
1428.96
1427.24
1425.56
1424
1422.5
1421.09
1419.76
1418.49
1417.29
1416.17
1415.12
1414.14
1413.22
1412.35
1411.49
1410.66
1409.85
1409.08
1408.35
1407.68
1407.07
1406.51
1405.99
1405.49
1405.02
1404.55
1404.12
1403.73
1403.38
1403.09
1402.83
1402.65
1402.45
1402.34
1402.15
1402.14
1402
1402.2
1402.61
1403.74
2454.74
2305.72
2580.38
2808.73
2934.13
3010.1
2994.46
2967.51
3014.74
3085.72
3149.96
3196.66
3222.39
3229.89
3222.24
3203.99
3178.36
3148.75
3117.86
3086.24
3054.89
3022.99
2992.01
2961.65
2933.61
2907.21
2882.91
2860.48
2839.92
2820.97
2803.65
2787.83
2773.38
2760.25
2748.17
2737.24
2727.12
2717.95
2709.48
2701.74
2694.64
2688.03
2682.02
2676.29
2670.9
2665.83
2660.96
2656.48
2652.14
2648.18
2644.41
2640.89
2637.64
2634.54
2631.75
2629.06
2626.61
2624.3
2622.12
2620.12
2618.18
2616.42
2614.7
2613.13
2611.66
2610.28
2609
2607.8
2606.7
2605.68
2604.76
2603.91
2603.14
2602.43
2601.75
2601.12
2600.51
2599.95
2599.45
2599.02
2598.65
2598.35
2598.09
2597.86
2597.65
2597.47
2597.32
2597.23
2597.19
2597.23
2597.32
2597.47
2597.62
2597.86
2598
2598.42
2598.51
2599.42
2600.33
2602.29
6588.06
7481.94
7876.74
7936.02
7826.39
7629.9
7415.12
7222.03
7053.61
6914.27
6805.45
6723.36
6664.05
6621.65
6591.78
6570.33
6554.15
6541.71
6531.07
6522.57
6514.87
6508.91
6504.05
6500.26
6497.51
6495.03
6493.35
6491.83
6490.47
6489.03
6487.34
6485.47
6483.39
6481.24
6478.89
6476.65
6474.19
6471.98
6469.62
6467.51
6465.43
6463.47
6461.75
6460.05
6458.66
6457.28
6456.05
6454.97
6453.86
6453.01
6452.05
6451.36
6450.66
6450.12
6449.72
6449.36
6449.22
6449.07
6449.14
6449.26
6449.48
6449.85
6450.25
6450.81
6451.41
6452.12
6452.91
6453.78
6454.74
6455.79
6456.93
6458.13
6459.41
6460.74
6462.15
6463.62
6465.17
6466.8
6468.49
6470.22
6472.01
6473.8
6475.64
6477.44
6479.32
6481.22
6483.18
6485.19
6487.26
6489.38
6491.53
6493.71
6495.95
6498.14
6500.48
6502.6
6504.93
6506.71
6508.01
6507.96
5488.33
3368.05
2416.2
1949.03
1665.91
1481.26
1347.26
1246.33
1164.25
1095.9
1037.49
986.173
940.261
898.739
860.825
825.638
792.786
761.77
732.108
703.652
676.281
649.839
624.352
599.839
576.25
553.586
531.9
511.174
491.377
472.428
454.211
436.919
420.508
404.83
389.783
375.384
361.595
348.26
335.39
323.086
311.382
300.356
290.169
280.737
271.845
263.526
255.901
248.698
241.619
234.875
228.873
223.374
218.028
213.208
209.582
206.546
202.795
198.343
195.53
196.624
201.412
206.819
209.75
209.033
205.846
201.448
196.688
191.704
186.847
182.076
177.802
173.821
170.444
167.319
164.838
162.602
161.087
159.633
158.473
156.643
154.371
150.711
146.207
140.205
133.652
125.957
118.193
109.681
101.945
94.3207
88.6138
82.9024
78.351
72.6709
68.5365
63.7713
61.1925
58.2401
57.2861
55.604
1549.97
2575.12
2359.67
1986.67
1702.67
1502.48
1355.32
1244.12
1154.47
1081.45
1020.16
967.139
920.778
879.727
842.859
809.041
777.718
748.277
720.226
693.38
667.578
642.606
618.417
595.036
572.301
550.275
528.99
508.442
488.651
469.565
451.114
433.559
416.851
400.842
385.421
370.637
356.475
342.773
329.569
317.015
305.18
294.15
284.092
274.916
266.358
258.426
251.24
244.51
237.886
231.585
226.1
221.222
216.452
212.023
208.656
205.898
202.318
197.558
193.669
193.107
196.197
200.451
202.986
202.518
199.821
195.946
191.595
186.952
182.367
177.901
173.9
170.208
166.99
163.973
161.459
159.203
157.559
156.057
154.777
152.968
150.659
147.124
142.621
136.726
130.062
122.394
114.508
106.164
98.408
90.9734
84.9437
78.9968
73.8283
68.2304
63.9826
59.8415
57.4827
55.3346
54.5088
53.5611
1133.68
1419.74
1804.52
1801.96
1643.01
1476.25
1337.37
1225.68
1134.09
1058.7
995.663
941.759
895.32
854.801
818.913
786.353
756.502
728.583
702.209
677.108
653.038
629.728
607.09
585.115
563.56
542.536
522.02
502.013
482.56
463.718
445.445
427.853
410.975
394.725
378.997
363.895
349.429
335.439
322.005
309.346
297.57
286.769
277.101
268.455
260.516
253.253
246.77
240.765
234.844
229.233
224.493
220.448
216.451
212.566
209.512
206.99
203.504
198.369
193.33
190.967
192.092
194.834
196.601
196.082
193.695
190.249
186.268
181.961
177.67
173.571
169.926
166.611
163.632
160.79
158.296
156.055
154.303
152.74
151.325
149.5
147.128
143.668
139.147
133.309
126.531
118.841
110.83
102.57
94.7828
87.4344
81.1247
75.0029
69.5892
64.318
60.4281
57.0646
55.1504
53.6437
53.0083
52.5066
896.476
847.458
1028.75
1250
1340.22
1313.9
1239.52
1156.94
1080.54
1013.09
954.885
904.683
860.939
822.553
788.626
757.92
729.875
703.724
679.097
655.744
633.395
611.737
590.709
570.253
550.03
530.206
510.739
491.609
472.833
454.567
436.752
419.335
402.438
386.07
370.142
354.846
340.207
326.08
312.624
300.132
288.758
278.583
269.732
262.05
255.156
248.965
243.539
238.565
233.641
229
225.246
222.221
219.141
215.887
213.127
210.704
207.129
201.471
195.162
190.844
189.738
190.596
191.181
190.241
187.902
184.727
181.03
177.027
173.038
169.371
166.176
163.344
160.699
158.112
155.703
153.523
151.69
150.063
148.496
146.615
144.151
140.71
136.136
130.294
123.382
115.609
107.44
99.1564
91.2807
83.8947
77.3375
71.1874
65.953
61.308
58.0348
55.3915
53.8916
52.7915
52.2974
52.0088
675.408
656.446
666.813
732.261
836.038
921.608
960.745
960.028
936.946
903.848
868.093
833.855
801.645
771.747
744.313
718.655
694.573
671.808
649.896
628.863
608.585
588.764
569.43
550.54
531.772
513.27
495.041
476.988
459.144
441.634
424.353
407.288
390.551
374.267
358.351
343.117
328.565
314.61
301.552
289.757
279.406
270.55
263.215
257.154
251.903
247.296
243.32
239.674
235.994
232.531
229.897
227.925
225.717
222.988
220.33
217.726
213.777
207.4
199.72
193.354
189.826
188.481
187.487
185.729
183.107
179.972
176.415
172.654
168.967
165.792
163.162
160.935
158.733
156.49
154.237
152.17
150.291
148.601
146.867
144.895
142.3
138.824
134.151
128.246
121.163
113.25
104.884
96.493
88.4614
80.9683
74.2894
68.3374
63.5387
59.5686
56.8359
54.6899
53.4419
52.5356
52.0974
51.8464
530.567
531.287
526.91
527.494
540.757
566.502
598.638
629.97
653.625
668.848
675.493
676.636
673.428
666.783
657.741
646.473
633.535
619.628
604.549
588.868
572.895
556.511
539.99
523.433
506.736
489.991
473.329
456.58
439.845
423.247
406.666
390.189
373.91
358.063
342.563
327.867
313.764
300.663
288.929
278.927
270.813
264.53
259.882
256.436
253.614
251.141
248.93
246.758
244.372
242.053
240.399
239.211
237.501
234.877
231.875
228.645
223.94
216.633
207.521
199.086
193.03
189.224
186.283
183.308
180.032
176.662
173.063
169.476
166.106
163.52
161.596
160.141
158.511
156.722
154.69
152.794
150.888
149.147
147.214
145.115
142.329
138.779
133.946
127.945
120.641
112.582
104.018
95.5815
87.4715
80.0265
73.4096
67.7719
63.2878
59.7154
57.168
55.1772
53.9044
52.9456
52.4356
52.0478
439.282
441.236
439.612
434.285
427.963
422.517
418.026
416.466
416.786
420.977
428.385
438.572
451.202
465.015
478.609
490.727
500.086
506.481
508.978
507.897
503.824
496.941
488.007
477.591
465.756
452.888
439.451
425.366
410.814
396.049
380.976
365.918
350.984
336.568
322.334
308.556
296.132
285.695
277.33
271.221
267.369
265.463
264.928
265.06
265.173
264.923
264.26
263.179
261.626
259.922
258.637
257.5
255.486
252.199
248.18
243.758
237.885
229.47
218.964
208.552
199.963
193.558
188.39
183.859
179.579
175.69
171.863
168.399
165.407
163.577
162.553
162.091
161.19
159.972
158.201
156.525
154.591
152.825
150.643
148.412
145.361
141.75
136.701
130.655
123.086
114.991
106.318
98.2171
90.4294
83.6341
77.262
71.9058
67.2175
63.4845
60.399
57.9957
56.169
54.7486
53.9032
53.0953
369.172
371.172
371.023
367.321
360.712
352.002
341.523
330.692
319.398
308.836
299.672
292.051
287.268
286.188
288.614
295.46
306.003
319.241
334.099
348.93
362.37
373.33
381.015
385.373
385.853
383.291
378.497
371.83
363.311
353.61
342.807
331.746
320.473
308.484
298.191
289.136
282.342
277.987
275.924
276.117
278.334
281.905
285.799
289.116
291.244
292.006
291.636
290.443
288.567
286.366
284.316
282.017
278.509
273.564
267.797
261.674
254.35
244.86
233.288
221.34
210.556
201.742
194.36
188.156
182.681
178.091
173.917
170.604
168.146
167.349
167.506
168.308
168.272
167.697
166.139
164.687
162.67
160.917
158.426
156.124
152.745
149.192
143.892
137.999
130.134
122.27
113.567
106.536
99.5954
94.2965
88.3646
83.6757
78.3192
74.1752
69.6296
66.2167
62.9323
60.4204
58.6862
56.9346
309.711
309.503
308.428
304.985
299.185
291.306
281.962
271.947
262.191
252.981
245.41
239.545
235.584
233.673
233.286
234.431
236.761
240.055
244.421
249.876
255.953
263.019
270.731
278.129
285.951
292.548
297.122
298.896
299.288
298.726
296.804
294.551
292.099
289.221
287.766
287.886
289.781
293.37
298.422
304.789
312.084
319.39
325.451
329.474
331.211
330.898
329.091
326.269
322.668
318.651
314.409
309.465
303.152
295.613
287.54
279.451
270.704
260.515
248.569
235.948
223.794
213.189
203.977
196.316
189.757
184.544
180.151
177.257
175.732
176.457
178.202
180.514
181.338
181.287
179.732
178.399
176.173
174.461
171.609
169.348
165.616
162.317
156.752
151.304
143.155
135.904
127.051
121.407
114.991
111.542
106.04
103.249
97.6005
94.4474
88.4822
84.8653
79.5894
76.0515
72.8173
69.7931
235.924
236.673
237.067
236.612
235.408
233.863
232.653
232.425
233.746
236.61
241.185
246.72
253.125
259.751
265.962
271.443
275.911
279.704
282.706
285.105
286.768
288.216
289.533
290.837
292.18
293.706
295.457
297.145
298.966
301.112
303.358
306.079
309.493
313.598
318.641
324.761
331.889
339.861
348.437
357.293
365.817
373.046
377.918
379.802
378.834
375.641
370.9
365.016
358.225
350.89
342.69
333.62
323.574
313.108
302.82
293.175
283.693
273.673
262.38
250.259
237.939
226.559
216.313
207.827
200.721
195.385
191.368
189.622
189.889
192.889
196.649
200.422
201.697
201.629
199.649
198.133
195.526
193.795
190.611
188.471
184.489
181.565
175.884
171.078
162.955
156.668
147.708
142.568
135.614
133.783
128.782
128.548
123.523
123.362
117.636
116.617
110.789
108.946
104.901
103.041
255.201
255.611
256.242
257.886
260.789
265.307
271.242
278.609
286.655
295.272
303.772
311.839
318.837
324.586
329.239
332.983
335.984
338.444
340.621
342.329
343.92
345.11
345.995
346.725
347.427
348.277
349.425
350.89
352.834
355.353
358.416
362.2
366.819
372.305
378.752
386.114
394.256
403.08
412.149
420.542
426.916
430.202
430.04
426.532
420.37
412.449
403.323
393.211
382.244
370.635
358.196
345.513
332.945
321.002
310.012
300.311
291.409
282.597
272.879
262.238
250.869
239.866
229.758
221.548
214.977
210.601
208.219
208.946
212.318
218.303
224.055
228.358
228.938
227.762
224.771
222.528
219.421
217.432
214.111
211.985
208.13
205.446
200.212
196.113
189.05
183.669
175.445
170.191
162.935
160.665
156.232
156.942
153.822
155.96
152.766
155.181
151.697
154.116
151.341
154.169
326.343
325.628
325.53
326.806
329.626
333.95
339.509
346.044
353.071
360.442
367.82
374.817
381.26
387.019
392.084
396.461
400.285
403.397
405.958
407.936
409.488
410.713
411.649
412.416
413.186
414.021
415.027
416.314
418.011
420.174
422.852
426.199
430.318
435.333
441.367
448.341
456.081
464.178
471.38
475.669
475.512
470.625
462.008
451.07
438.847
426.081
413.165
400.07
386.598
372.84
359.128
345.915
333.534
322.323
312.43
304.018
296.539
289.314
281.314
272.309
262.332
252.498
243.684
237.028
232.405
230.469
231.376
236.111
243.642
252.49
259.084
262.026
260.41
257.047
252.59
249.159
245.494
242.994
239.73
237.479
234.095
231.638
227.299
223.68
217.776
212.842
205.914
201.364
195.394
192.803
189.024
189.596
188.109
190.9
189.974
193.753
192.569
196.949
195.594
200.721
385.116
384.591
384.818
386.533
389.973
395.109
401.76
409.609
418.323
427.271
436.001
444.21
451.693
458.389
464.233
469.262
473.532
477.051
479.85
481.926
483.336
484.129
484.378
484.204
483.772
483.12
482.442
481.941
481.764
482.044
482.929
484.64
487.414
491.403
496.593
502.687
508.968
513.834
514.931
510.584
500.862
487.308
471.9
456.155
440.682
425.739
411.414
397.525
383.707
370.064
357.074
345.112
334.343
324.956
316.904
310.144
304.117
298.211
291.503
283.751
275.122
266.94
260.425
256.612
255.422
257.526
263.367
273.344
285.136
295.551
300.894
300.536
295.669
289.616
283.506
278.758
274.459
271.371
268.171
265.875
262.901
260.453
256.552
253.013
247.732
243.583
238.356
235.587
231.871
231.401
229.422
231.019
229.891
232.918
231.892
235.762
234.432
238.949
237.398
242.725
455.451
455.297
455.981
458.323
462.612
468.88
476.821
486.225
496.491
507.319
518.026
528.304
537.787
546.278
553.554
559.584
564.327
567.737
569.81
570.602
570.093
568.399
565.774
562.342
558.332
554.038
549.811
545.929
542.639
540.23
538.955
539.11
540.982
544.415
548.865
553.397
556.027
554.03
545.961
532.439
515.055
496.065
477.235
459.486
443.016
427.719
413.312
399.504
386.127
373.422
361.831
351.676
342.95
335.602
329.385
324.096
319.187
314.135
308.193
301.268
293.95
288.033
285.035
285.652
289.655
297.642
310.077
325.943
340.878
350.487
352.109
347.081
338.513
329.754
322.007
316.019
311.017
307.339
304.106
301.701
298.797
296.108
292.493
289.46
285.526
283.085
280.086
279.471
277.987
279.513
279.137
282.146
281.766
285.471
284.075
288.156
285.769
290.445
287.788
293.477
547.008
547.36
548.772
552.239
558.22
566.755
577.545
590.27
604.214
618.844
633.151
646.679
658.681
668.74
676.491
681.879
684.788
685.268
683.423
679.494
673.578
666.179
657.772
648.613
639.223
630.208
621.886
614.541
608.541
604.27
601.961
601.818
603.805
607.025
609.993
610.789
606.459
595.234
578.203
557.591
535.51
513.746
493.422
475.01
458.486
443.464
429.316
415.841
403.139
391.593
381.594
373.336
366.602
361.095
356.4
352.211
348.006
343.365
337.772
331.46
325.76
323.274
325.704
333.036
344.54
360.569
381.001
402.11
417.506
423.103
418.851
408.648
396.496
385.375
376.214
369.185
363.48
359.219
355.83
353.237
350.453
348.12
345.643
344.007
342.146
341.648
340.87
341.995
342.261
344.781
345.165
348.327
347.816
351.207
349.188
353.236
349.865
355.218
351.362
358.709
688.161
689.211
691.659
696.876
705.612
717.928
733.421
751.42
770.862
790.467
808.865
824.944
837.506
846.078
850.265
850.243
846.154
838.482
827.808
814.795
799.954
784.288
768.362
752.681
738.016
724.888
713.372
703.8
696.643
692.213
690.511
691.332
693.836
696.027
695.29
688.974
675.142
654.619
630.102
604.323
579.334
556.165
535.264
516.814
500.594
485.811
471.896
458.87
446.939
436.563
428.105
421.605
416.611
412.593
409.015
405.537
401.664
397.096
391.663
386.212
383.245
386.608
397.86
415.518
437.651
464.048
492.662
516.13
527.647
525.838
514.615
499.538
484.419
471.574
461.455
453.757
447.559
442.868
439.354
436.976
435.098
434.12
433.524
433.713
433.911
435.003
435.873
437.903
439.066
441.518
442.051
444.49
443.666
446.319
443.852
447.845
443.589
450.309
444.907
455.622
930.531
932.557
936.502
944.511
957.746
976.123
998.539
1023.54
1048.85
1072.22
1091.61
1105.04
1111.27
1110.42
1102.6
1088.98
1070.53
1048.47
1024.25
998.948
973.441
948.92
925.726
904.461
885.884
869.984
856.729
846.594
840.077
837.164
837.288
839.365
841.338
840.013
831.999
815.269
790.962
761.967
731.294
701.626
674.532
650.503
629.557
611.497
595.513
580.797
567.17
554.675
543.522
534.224
527.135
522.142
518.551
515.612
512.719
509.593
505.789
501.159
496.156
492.887
495.735
510.112
536.501
570.114
606.659
644.876
678.526
698.291
700.364
688.758
670.797
651.893
634.96
621.415
611.146
603.458
597.361
592.884
589.836
588.468
588.246
589.246
590.638
592.498
594.174
596.193
597.833
599.92
601.147
602.915
603.219
604.636
603.687
605.582
603.085
607.177
602.347