/*--------------------------------*- C++ -*----------------------------------*\
| =========                 |                                                 |
| \\      /  F ield         | OpenFOAM: The Open Source CFD Toolbox           |
|  \\    /   O peration     | Version:  v2012                                 |
|   \\  /    A nd           | Website:  www.openfoam.com                      |
|    \\/     M anipulation  |                                                 |
\*---------------------------------------------------------------------------*/
FoamFile
{
    version     2.0;
    format      ascii;
    class       volScalarField;
    location    "0.09";
    object      p;
}
// * * * * * * * * * * * * * * * * * * * * * * * * * * * * * * * * * * * * * //

dimensions      [0 2 -2 0 0 0 0];


internalField   nonuniform List<scalar> 
5600
(
-13.5402
-14.5061
-15.4594
-16.4504
-17.5083
-18.6097
-19.7145
-20.7839
-21.8008
-22.7637
-23.6758
-24.5351
-25.3392
-26.0932
-26.8118
-27.4979
-28.1641
-28.8149
-29.4524
-30.0942
-30.7254
-31.3592
-31.9903
-32.6159
-33.2418
-33.8555
-34.476
-35.0852
-35.698
-36.3089
-36.9135
-37.5249
-38.1261
-38.7402
-39.3462
-39.9508
-40.5558
-41.1563
-41.7618
-42.3547
-42.9595
-43.5513
-44.1512
-44.7465
-45.3347
-45.9288
-46.5109
-47.1046
-47.6849
-48.2716
-48.8548
-49.4338
-50.018
-50.5915
-51.1731
-51.7451
-52.32
-52.8926
-53.4606
-54.0312
-54.5948
-55.1655
-55.7313
-56.2973
-56.8609
-57.4214
-57.9811
-58.5391
-59.095
-59.6545
-60.2088
-60.7648
-61.3171
-61.8676
-62.4181
-62.9649
-63.5161
-64.0606
-64.6085
-65.1567
-65.7022
-66.2517
-66.7928
-67.3381
-67.8806
-68.4211
-68.9651
-69.5027
-70.0425
-70.5842
-71.1207
-71.6629
-72.1981
-72.7345
-73.2775
-73.8114
-74.363
-74.9289
-75.4962
-76.3745
-13.6388
-14.5299
-15.4772
-16.4634
-17.5184
-18.6189
-19.7237
-20.7924
-21.8102
-22.774
-23.685
-24.5439
-25.3477
-26.1025
-26.822
-27.5096
-28.1773
-28.8297
-29.4683
-30.1107
-30.743
-31.3772
-32.0091
-32.6348
-33.2613
-33.8748
-34.4958
-35.105
-35.7181
-36.3292
-36.9339
-37.5456
-38.1469
-38.7613
-39.3676
-39.972
-40.5776
-41.1776
-41.7837
-42.3764
-42.9814
-43.5733
-44.1731
-44.7688
-45.3566
-45.9511
-46.5329
-47.1269
-47.7071
-48.2936
-48.8774
-49.4558
-50.0406
-50.6137
-51.1955
-51.7675
-52.3421
-52.9153
-53.4827
-54.0537
-54.6171
-55.1878
-55.7537
-56.3195
-56.8833
-57.4436
-58.0034
-58.5613
-59.1171
-59.6768
-60.231
-60.787
-61.3394
-61.8895
-62.4405
-62.987
-63.5384
-64.0829
-64.6305
-65.1793
-65.7241
-66.274
-66.8153
-67.3599
-67.9031
-68.4432
-68.9872
-69.5254
-70.0641
-70.607
-71.1426
-71.6851
-72.2202
-72.7577
-73.2972
-73.8382
-74.3776
-74.9599
-75.5066
-76.3723
-13.7204
-14.5509
-15.5053
-16.4916
-17.541
-18.6353
-19.7354
-20.801
-21.8146
-22.7775
-23.6867
-24.5447
-25.3479
-26.1032
-26.8223
-27.5107
-28.1789
-28.8311
-29.4704
-30.113
-30.7459
-31.3805
-32.0121
-32.6387
-33.2653
-33.8801
-34.5012
-35.111
-35.7244
-36.336
-36.941
-37.5529
-38.1541
-38.7685
-39.3749
-39.9791
-40.585
-41.1849
-41.791
-42.3836
-42.9886
-43.5808
-44.1802
-44.7763
-45.3636
-45.9584
-46.5401
-47.1341
-47.7145
-48.3007
-48.8851
-49.4629
-50.048
-50.6209
-51.2026
-51.7749
-52.3494
-52.9228
-53.4902
-54.0614
-54.6249
-55.1956
-55.7615
-56.3274
-56.8915
-57.4519
-58.0119
-58.57
-59.1258
-59.6855
-60.2398
-60.7957
-61.3486
-61.8984
-62.4498
-62.9961
-63.5475
-64.0923
-64.6395
-65.1886
-65.7333
-66.2832
-66.8249
-67.3689
-67.9128
-68.4525
-68.9965
-69.5351
-70.0733
-70.6164
-71.1525
-71.6941
-72.2301
-72.767
-73.3065
-73.8479
-74.3871
-74.9706
-75.5204
-76.3435
-13.8116
-14.581
-15.5337
-16.5185
-17.5607
-18.6493
-19.747
-20.8125
-21.8237
-22.7879
-23.6979
-24.5572
-25.3617
-26.1183
-26.8389
-27.5268
-28.1961
-28.848
-29.4877
-30.1284
-30.7609
-31.3938
-32.0237
-32.6501
-33.2753
-33.8911
-34.5111
-35.1216
-35.7357
-36.3481
-36.9541
-37.5663
-38.1684
-38.7828
-39.3899
-39.994
-40.6
-41.2
-41.8062
-42.3991
-43.0038
-43.5968
-44.1956
-44.7924
-45.3796
-45.9748
-46.5568
-47.1506
-47.7316
-48.3174
-48.9024
-49.4799
-50.0654
-50.6385
-51.2202
-51.7931
-52.3669
-52.9409
-53.5079
-54.0791
-54.6426
-55.2132
-55.7795
-56.3449
-56.9092
-57.469
-58.0288
-58.5871
-59.1426
-59.7026
-60.2567
-60.8124
-61.3657
-61.9147
-62.4667
-63.0128
-63.5641
-64.1094
-64.6559
-65.2056
-65.7501
-66.2994
-66.8423
-67.3849
-67.9298
-68.4695
-69.0129
-69.5521
-70.09
-70.6327
-71.17
-71.7097
-72.2478
-72.7833
-73.3231
-73.864
-74.4044
-74.9831
-75.5394
-76.3015
-13.9039
-14.6119
-15.5594
-16.5458
-17.5821
-18.6656
-19.7611
-20.8249
-21.8353
-22.7996
-23.7094
-24.5685
-25.3733
-26.1304
-26.8523
-27.5396
-28.2102
-28.8627
-29.5039
-30.1441
-30.7779
-31.411
-32.0408
-32.6683
-33.2921
-33.9091
-34.5269
-35.138
-35.7511
-36.3624
-36.9689
-37.5788
-38.1819
-38.7949
-39.4021
-40.0068
-40.6128
-41.2137
-41.8193
-42.4137
-43.0174
-43.6116
-44.2099
-44.807
-45.3945
-45.9894
-46.5723
-47.1653
-47.7474
-48.332
-48.9179
-49.4948
-50.0804
-50.6539
-51.2346
-51.8084
-52.3812
-52.9559
-53.5227
-54.0937
-54.6578
-55.228
-55.795
-56.3597
-56.9244
-57.4847
-58.0445
-58.6031
-59.1586
-59.7186
-60.2729
-60.8283
-61.3821
-61.9308
-62.4832
-63.0294
-63.5803
-64.1264
-64.6722
-65.2223
-65.7669
-66.3155
-66.8597
-67.4013
-67.9467
-68.4867
-69.0292
-69.5692
-70.107
-70.6491
-71.1876
-71.7261
-72.2649
-72.8005
-73.3393
-73.8808
-74.4208
-74.9951
-75.5508
-76.2699
-13.9948
-14.6448
-15.5856
-16.5757
-17.6063
-18.6844
-19.7771
-20.839
-21.849
-22.8127
-23.7226
-24.5816
-25.3873
-26.1453
-26.868
-27.5566
-28.2279
-28.8811
-29.5233
-30.163
-30.7973
-31.4301
-32.0597
-32.6878
-33.3101
-33.9285
-34.5452
-35.1575
-35.7706
-36.3812
-36.9895
-37.5971
-38.2027
-38.8133
-39.421
-40.0256
-40.6303
-41.2325
-41.8351
-42.4323
-43.0325
-43.6277
-44.2257
-44.8219
-45.4107
-46.004
-46.5892
-47.1805
-47.7644
-48.348
-48.9345
-49.5119
-50.0968
-50.672
-51.251
-51.8263
-52.3984
-52.9733
-53.5404
-54.1107
-54.6758
-55.2453
-55.8133
-56.3772
-56.9421
-57.5026
-58.0618
-58.6208
-59.1761
-59.736
-60.291
-60.8456
-61.4
-61.9484
-62.5008
-63.0478
-63.5977
-64.1449
-64.69
-65.2402
-65.7855
-66.3329
-66.8785
-67.4192
-67.9646
-68.5057
-69.0468
-69.5877
-70.1257
-70.6667
-71.2066
-71.7443
-72.2828
-72.8197
-73.3566
-73.8988
-74.4387
-75.0071
-75.5617
-76.2419
-14.0811
-14.6798
-15.6128
-16.607
-17.6324
-18.705
-19.795
-20.8556
-21.8654
-22.8283
-23.7384
-24.5973
-25.4037
-26.1628
-26.8857
-27.5758
-28.2471
-28.9009
-29.5437
-30.1832
-30.8179
-31.4507
-32.0802
-32.7082
-33.3305
-33.9494
-34.5657
-35.1787
-35.7915
-36.4016
-37.0111
-37.6175
-38.2248
-38.8336
-39.4421
-40.0469
-40.6507
-41.2549
-41.8544
-42.4556
-43.0525
-43.6494
-44.2465
-44.8405
-45.4328
-46.0234
-46.6127
-47.1997
-47.7848
-48.3676
-48.9524
-49.5324
-50.1143
-50.692
-51.2681
-51.8441
-52.4165
-52.9903
-53.5595
-54.1288
-54.6953
-55.2639
-55.8327
-56.3964
-56.9611
-57.5221
-58.081
-58.6401
-59.1959
-59.7551
-60.3111
-60.8647
-61.4195
-61.9678
-62.5197
-63.0682
-63.6164
-64.1648
-64.7095
-65.2593
-65.8062
-66.3517
-66.8985
-67.4392
-67.9837
-68.5264
-69.066
-69.6075
-70.1461
-70.6856
-71.2271
-71.7642
-72.3021
-72.8404
-73.3756
-73.9178
-74.4579
-75.0192
-75.5706
-76.2165
-14.159
-14.7164
-15.6412
-16.6393
-17.6602
-18.7279
-19.8157
-20.8752
-21.8848
-22.847
-23.7574
-24.6162
-25.4231
-26.183
-26.9061
-27.5975
-28.2688
-28.9232
-29.5667
-30.2061
-30.8412
-31.474
-32.1035
-32.7311
-33.3537
-33.9726
-34.5889
-35.2021
-35.8147
-36.4248
-37.0343
-37.6409
-38.2485
-38.8568
-39.4653
-40.0702
-40.6738
-41.2783
-41.8772
-42.4789
-43.0749
-43.6736
-44.2696
-44.8633
-45.4572
-46.0455
-46.6379
-47.2216
-47.8088
-48.3916
-48.9732
-49.5578
-50.1364
-50.7168
-51.2906
-51.8665
-52.44
-53.0109
-53.5824
-54.1509
-54.7193
-55.2869
-55.8545
-56.4182
-56.9814
-57.5425
-58.1017
-58.6607
-59.2182
-59.7756
-60.3327
-60.8854
-61.4399
-61.9894
-62.5401
-63.0908
-63.6374
-64.1867
-64.732
-65.2803
-65.8292
-66.373
-66.9203
-67.4619
-68.0049
-68.5491
-69.0878
-69.6293
-70.1689
-70.7071
-71.2495
-71.7866
-72.3237
-72.8626
-73.3969
-73.9385
-74.4778
-75.0331
-75.5774
-76.1915
-14.2249
-14.7532
-15.6708
-16.672
-17.6897
-18.7536
-19.8396
-20.8983
-21.9077
-22.8693
-23.78
-24.6387
-25.4459
-26.2065
-26.9298
-27.6222
-28.2934
-28.9484
-29.5925
-30.2318
-30.8671
-31.4998
-32.1293
-32.7566
-33.3795
-33.9982
-34.6145
-35.228
-35.8404
-36.4506
-37.0599
-37.667
-38.2745
-38.8827
-39.4909
-40.0961
-40.6997
-41.3039
-41.9034
-42.5043
-43.101
-43.6997
-44.2954
-44.8892
-45.4829
-46.0712
-46.6633
-47.2472
-47.8346
-48.4174
-48.9985
-49.5842
-50.1617
-50.7425
-51.3163
-51.8923
-52.4662
-53.0364
-53.6089
-54.1769
-54.7455
-55.3129
-55.8795
-56.4441
-57.0068
-57.568
-58.1279
-58.6858
-59.2452
-59.8005
-60.3578
-60.9104
-61.4636
-62.0155
-62.5641
-63.1163
-63.662
-64.2106
-64.7576
-65.3043
-65.8541
-66.3972
-66.9442
-67.4869
-68.028
-68.573
-69.1114
-69.6524
-70.1932
-70.7307
-71.2735
-71.8108
-72.3473
-72.8866
-73.4206
-73.9612
-74.499
-75.0484
-75.5829
-76.1621
-14.2741
-14.7877
-15.7017
-16.7047
-17.7204
-18.7821
-19.8672
-20.9255
-21.9348
-22.896
-23.8069
-24.6656
-25.4729
-26.234
-26.9572
-27.6502
-28.3215
-28.9766
-29.6211
-30.2603
-30.8958
-31.5286
-32.1581
-32.7851
-33.4082
-34.0269
-34.6432
-35.2569
-35.8691
-36.4794
-37.0885
-37.696
-38.3034
-38.9117
-39.5195
-40.1249
-40.7286
-41.3322
-41.9325
-42.5327
-43.1303
-43.7283
-44.3241
-44.918
-45.5113
-46.1005
-46.6913
-47.2766
-47.863
-48.4463
-49.0281
-49.6124
-50.1906
-50.7705
-51.3452
-51.921
-52.4947
-53.0655
-53.6375
-54.2055
-54.774
-55.3412
-55.9079
-56.4728
-57.0353
-57.5968
-58.1567
-58.7145
-59.274
-59.829
-60.3863
-60.9391
-61.4919
-62.0448
-62.5927
-63.1453
-63.6908
-64.2389
-64.7868
-65.3325
-65.8828
-66.4255
-66.9723
-67.5156
-68.0559
-68.6018
-69.1394
-69.6805
-70.2215
-70.7582
-71.3016
-71.8382
-72.3748
-72.9142
-73.4475
-73.9869
-74.5226
-75.0642
-75.5883
-76.1285
-14.299
-14.816
-15.7322
-16.735
-17.7505
-18.8124
-19.8976
-20.9559
-21.9655
-22.9265
-23.8374
-24.6961
-25.5033
-26.2645
-26.9874
-27.6807
-28.3518
-29.0069
-29.6515
-30.2906
-30.9262
-31.559
-32.1885
-32.8153
-33.4385
-34.0573
-34.6734
-35.2873
-35.8994
-36.5097
-37.1187
-37.7264
-38.3338
-38.9421
-39.5497
-40.1551
-40.7589
-41.3623
-41.9631
-42.5629
-43.1609
-43.7586
-44.3542
-44.9485
-45.5415
-46.1312
-46.7211
-47.3072
-47.8931
-48.4768
-49.059
-49.6419
-50.2213
-50.8002
-51.3757
-51.9514
-52.5248
-53.0963
-53.6676
-54.236
-54.8047
-55.3714
-55.9382
-56.5028
-57.0652
-57.6273
-58.1867
-58.7452
-59.3038
-59.8597
-60.4165
-60.9693
-61.5224
-62.0748
-62.6235
-63.1754
-63.7214
-64.2695
-64.8172
-65.363
-65.9126
-66.456
-67.0026
-67.5458
-68.0867
-68.6315
-69.1699
-69.711
-70.2515
-70.789
-71.3311
-71.8684
-72.4053
-72.9438
-73.4777
-74.0152
-74.5486
-75.0825
-75.5961
-76.101
-14.2969
-14.8355
-15.7593
-16.7599
-17.7769
-18.8415
-19.9279
-20.9867
-21.9966
-22.9577
-23.8687
-24.7272
-25.5341
-26.2951
-27.0174
-27.7106
-28.3813
-29.0361
-29.6808
-30.3196
-30.9554
-31.5881
-32.2177
-32.8443
-33.4676
-34.0864
-34.7024
-35.3164
-35.9284
-36.5387
-37.1476
-37.7554
-38.3628
-38.9712
-39.5786
-40.184
-40.788
-41.3911
-41.9923
-42.5919
-43.1901
-43.7877
-44.383
-44.9777
-45.5703
-46.1603
-46.7498
-47.3363
-47.922
-48.5058
-49.0884
-49.6704
-50.2505
-50.8288
-51.4047
-51.9806
-52.5537
-53.1258
-53.6966
-54.2653
-54.8338
-55.4004
-55.9673
-56.5318
-57.0944
-57.6563
-58.216
-58.7744
-59.3324
-59.8892
-60.4447
-60.9984
-61.551
-62.1036
-62.653
-63.2037
-63.7513
-64.2982
-64.8462
-65.3925
-65.941
-66.4859
-67.0312
-67.5753
-68.1167
-68.6605
-69.2005
-69.7406
-70.2814
-70.8198
-71.3604
-71.8987
-72.4353
-72.9734
-73.5081
-74.0438
-74.5753
-75.1029
-75.6073
-76.0851
-14.2731
-14.8479
-15.7822
-16.7792
-17.7991
-18.868
-19.9562
-21.0158
-22.0264
-22.9877
-23.8988
-24.7572
-25.5636
-26.324
-27.0455
-27.7385
-28.4085
-29.0628
-29.7074
-30.346
-30.9819
-31.6145
-32.2442
-32.8707
-33.494
-34.1129
-34.7287
-35.3428
-35.9547
-36.565
-37.1738
-37.7816
-38.3891
-38.9975
-39.6049
-40.2102
-40.8143
-41.4173
-42.0186
-42.6182
-43.2164
-43.8142
-44.4092
-45.0041
-45.5968
-46.1867
-46.7761
-47.3628
-47.9484
-48.5323
-49.115
-49.6965
-50.277
-50.8549
-51.4311
-52.0065
-52.58
-53.1518
-53.7229
-54.2919
-54.8598
-55.4269
-55.993
-56.558
-57.1207
-57.6824
-58.2428
-58.8007
-59.3594
-59.9161
-60.4714
-61.0259
-61.5778
-62.131
-62.6806
-63.2312
-63.7796
-64.3259
-64.8745
-65.4209
-65.9691
-66.5146
-67.0595
-67.6041
-68.1455
-68.689
-69.2295
-69.7693
-70.3102
-70.8484
-71.3884
-71.9266
-72.4633
-73.0012
-73.5356
-74.0704
-74.5999
-75.1227
-75.6199
-76.0776
-14.2327
-14.8561
-15.8014
-16.7939
-17.818
-18.8921
-19.9827
-21.0434
-22.0547
-23.0162
-23.9273
-24.7855
-25.5914
-26.3512
-27.0717
-27.7644
-28.4337
-29.0874
-29.7317
-30.37
-31.0061
-31.6386
-32.2682
-32.8947
-33.518
-34.1369
-34.7526
-35.3668
-35.9786
-36.5888
-37.1975
-37.8053
-38.413
-39.0213
-39.6288
-40.234
-40.8381
-41.4412
-42.0425
-42.6421
-43.2403
-43.8381
-44.433
-45.0273
-45.6208
-46.2103
-46.7998
-47.3864
-47.9718
-48.5562
-49.1383
-49.7205
-50.3004
-50.8789
-51.4555
-52.0305
-52.6048
-53.1758
-53.7479
-54.3169
-54.8849
-55.4526
-56.0182
-56.5841
-57.1466
-57.7086
-58.2693
-58.827
-59.386
-59.9423
-60.4978
-61.0518
-61.6038
-62.1568
-62.7063
-63.2568
-63.805
-64.3514
-64.8998
-65.4463
-65.9943
-66.5397
-67.0846
-67.6292
-68.1707
-68.714
-69.2545
-69.7943
-70.3349
-70.8736
-71.4134
-71.9516
-72.4885
-73.0261
-73.5605
-74.0947
-74.6225
-75.1418
-75.6334
-76.0765
-14.18
-14.8617
-15.8172
-16.805
-17.8342
-18.9141
-20.0075
-21.0694
-22.0815
-23.0432
-23.9545
-24.8124
-25.6175
-26.3766
-27.096
-27.7881
-28.4567
-29.1098
-29.7538
-30.3918
-31.028
-31.6604
-32.29
-32.9166
-33.5398
-34.1586
-34.774
-35.3883
-36.0003
-36.6102
-37.2192
-37.8265
-38.4346
-39.0426
-39.6502
-40.2553
-40.8592
-41.4627
-42.0633
-42.6636
-43.2615
-43.8595
-44.4549
-45.0487
-45.6432
-46.2322
-46.8224
-47.4092
-47.9949
-48.58
-49.1619
-49.7449
-50.3242
-50.9035
-51.48
-52.055
-52.6294
-53.1998
-53.7719
-54.3405
-54.9085
-55.4761
-56.0415
-56.6075
-57.1696
-57.7319
-58.2923
-58.8501
-59.409
-59.9651
-60.5209
-61.0746
-61.627
-62.1798
-62.7295
-63.2799
-63.828
-64.3746
-64.9227
-65.4694
-66.0171
-66.5625
-67.1073
-67.6518
-68.1936
-68.7367
-69.2773
-69.8171
-70.3576
-70.8963
-71.4359
-71.9742
-72.5111
-73.0485
-73.5829
-74.1165
-74.643
-75.1595
-75.6472
-76.0798
-14.1198
-14.8656
-15.8295
-16.8134
-17.8481
-18.9336
-20.03
-21.0938
-22.1067
-23.0688
-23.9803
-24.8379
-25.6423
-26.4006
-27.1187
-27.8101
-28.4777
-29.1301
-29.7738
-30.4116
-31.0477
-31.6803
-32.3096
-32.9367
-33.5596
-34.1786
-34.7934
-35.4076
-36.0194
-36.6289
-37.2383
-37.8452
-38.4542
-39.0619
-39.67
-40.2753
-40.8797
-41.4841
-42.0847
-42.6861
-43.2838
-43.8823
-44.4781
-45.0716
-45.6661
-46.2545
-46.8449
-47.4313
-48.0169
-48.6019
-49.1836
-49.7666
-50.3455
-50.925
-51.5011
-52.0762
-52.6505
-53.2209
-53.7931
-54.3614
-54.9297
-55.497
-56.0626
-56.6284
-57.1905
-57.7529
-58.3131
-58.8711
-59.4298
-59.9859
-60.5417
-61.0951
-61.6477
-62.2003
-62.7501
-63.3004
-63.8486
-64.3953
-64.9433
-65.4903
-66.0378
-66.5836
-67.1284
-67.6725
-68.2142
-68.757
-69.2977
-69.8375
-70.3778
-70.9166
-71.4561
-71.9944
-72.5312
-73.0685
-73.6028
-74.1361
-74.6621
-75.1761
-75.661
-76.0865
-14.0551
-14.8679
-15.8386
-16.8207
-17.8616
-18.9517
-20.0506
-21.1158
-22.1294
-23.0915
-24.0035
-24.8607
-25.665
-26.4219
-27.14
-27.8304
-28.497
-29.1486
-29.7917
-30.4289
-31.0647
-31.6972
-32.326
-32.9537
-33.5763
-34.1962
-34.8114
-35.4265
-36.0388
-36.6488
-37.2595
-37.8666
-38.4766
-39.084
-39.692
-40.297
-40.9009
-41.5052
-42.1053
-42.7067
-43.3041
-43.9026
-44.4981
-45.0912
-45.6856
-46.2738
-46.8642
-47.4505
-48.0361
-48.621
-49.2026
-49.7855
-50.3644
-50.9439
-51.5198
-52.0951
-52.6692
-53.2396
-53.8118
-54.38
-54.9484
-55.5154
-56.081
-56.6467
-57.2088
-57.7711
-58.3312
-58.8893
-59.4478
-60.0039
-60.5595
-61.1128
-61.6653
-62.2178
-62.7675
-63.3176
-63.8655
-64.4122
-64.96
-65.5067
-66.0541
-66.5996
-67.1444
-67.6887
-68.2308
-68.7734
-69.3143
-69.8541
-70.3944
-70.9333
-71.4726
-72.011
-72.5478
-73.085
-73.6193
-74.1523
-74.6774
-75.1915
-75.6744
-76.0954
-13.9885
-14.8681
-15.8413
-16.8245
-17.8746
-18.9704
-20.0717
-21.1387
-22.1527
-23.1142
-24.0258
-24.8817
-25.6852
-26.4404
-27.1585
-27.8478
-28.514
-29.1655
-29.8091
-30.4469
-31.0839
-31.7179
-32.348
-32.9767
-33.5992
-34.2197
-34.8349
-35.4494
-36.0606
-36.6696
-37.2798
-37.8864
-38.4963
-39.1032
-39.711
-40.316
-40.9197
-41.5241
-42.124
-42.7255
-43.3228
-43.9213
-44.5167
-45.1096
-45.7037
-46.2919
-46.8822
-47.4684
-48.0541
-48.6389
-49.2206
-49.8034
-50.3823
-50.9618
-51.5376
-52.113
-52.687
-53.2576
-53.8296
-54.3979
-54.9664
-55.5332
-56.099
-56.6646
-57.2268
-57.7892
-58.3493
-58.9075
-59.4658
-60.0221
-60.5778
-61.1312
-61.6838
-62.2363
-62.7862
-63.3364
-63.8846
-64.4314
-64.9792
-65.5263
-66.0735
-66.6193
-67.1639
-67.7082
-68.2501
-68.7926
-69.3335
-69.8732
-70.4135
-70.9524
-71.4916
-72.0301
-72.5668
-73.104
-73.6382
-74.1711
-74.696
-75.2076
-75.6884
-76.1063
-13.9293
-14.8741
-15.8403
-16.8193
-17.8753
-18.9761
-20.0827
-21.1547
-22.17
-23.1332
-24.0463
-24.9027
-25.7061
-26.4611
-27.1786
-27.867
-28.5328
-29.1839
-29.8272
-30.4647
-31.1014
-31.7353
-32.3651
-32.9932
-33.6143
-34.2342
-34.8487
-35.4627
-36.0735
-36.682
-37.292
-37.8984
-38.5082
-39.115
-39.7227
-40.3276
-40.9311
-41.5354
-42.1353
-42.7366
-43.3338
-43.9321
-44.5275
-45.1204
-45.7144
-46.3026
-46.8928
-47.4789
-48.0645
-48.6492
-49.2309
-49.8135
-50.3924
-50.9718
-51.5476
-52.1229
-52.6968
-53.2674
-53.8392
-54.4075
-54.9758
-55.5426
-56.1084
-56.6739
-57.236
-57.7982
-58.3583
-58.9164
-59.4747
-60.0308
-60.5864
-61.1398
-61.6922
-62.2447
-62.7944
-63.3444
-63.8924
-64.4392
-64.9869
-65.5338
-66.081
-66.6268
-67.1714
-67.7157
-68.2577
-68.8001
-69.3411
-69.8807
-70.421
-70.9599
-71.4991
-72.0376
-72.5744
-73.1115
-73.6457
-74.1786
-74.7036
-75.2163
-75.6972
-76.1147
-13.8533
-14.8807
-15.8603
-16.8471
-17.9069
-19.0076
-20.115
-21.1879
-22.2011
-23.1652
-24.0797
-24.937
-25.7404
-26.495
-27.2116
-27.8988
-28.5633
-29.213
-29.855
-30.4914
-31.1272
-31.7604
-32.3898
-33.0177
-33.6388
-34.2585
-34.873
-35.4867
-36.0974
-36.7058
-37.3156
-37.9218
-38.5314
-39.138
-39.7456
-40.3505
-40.9539
-41.5581
-42.158
-42.7592
-43.3565
-43.9547
-44.5501
-45.143
-45.7369
-46.3252
-46.9153
-47.5015
-48.0871
-48.6717
-49.2534
-49.836
-50.4149
-50.9942
-51.57
-52.1454
-52.7192
-53.2899
-53.8617
-54.43
-54.9983
-55.5651
-56.1309
-56.6964
-57.2586
-57.8207
-58.3808
-58.939
-59.4972
-60.0534
-60.609
-61.1623
-61.7148
-62.2673
-62.8171
-63.367
-63.9152
-64.4619
-65.0096
-65.5566
-66.1037
-66.6495
-67.1941
-67.7384
-68.2803
-68.8227
-69.3637
-69.9033
-70.4437
-70.9825
-71.5217
-72.0602
-72.597
-73.1341
-73.6683
-74.2012
-74.7262
-75.2379
-75.7186
-76.1353
-76.16
-77.9122
-80.4598
-80.8478
-78.5527
-74.1947
-68.3139
-61.5459
-54.5893
-47.8525
-41.6969
-36.1918
-31.4069
-27.3848
-24.0374
-21.155
-18.5851
-16.189
-13.8803
-11.6412
-9.48224
-7.49025
-5.72668
-4.22042
-3.04368
-2.18163
-1.56317
-1.13536
-0.838227
-0.628651
-0.493297
-0.465548
-0.5311
-0.833454
-1.23131
-1.59863
-1.90994
-1.82633
-1.25046
-0.0797284
0.988319
1.44658
1.54836
1.58646
1.64973
1.76449
1.89789
2.03743
2.23697
2.42417
2.60142
2.71744
2.77159
2.80006
2.83732
2.92546
3.04425
3.18255
3.30857
3.40796
3.48286
3.52906
3.54683
3.53924
3.51081
3.46784
3.41314
3.34816
3.27597
3.19721
3.11317
3.02528
2.93258
2.83165
2.72516
2.61816
2.51035
2.39939
2.29477
2.19506
2.09896
1.99987
1.89604
1.79382
1.69136
1.58785
1.48392
1.37957
1.27488
1.1699
1.06467
0.959159
0.853421
0.747288
0.640194
0.531974
0.421518
0.308561
0.188638
0.0690549
-76.3021
-77.4923
-79.9957
-80.4497
-78.2154
-73.9375
-68.144
-61.4523
-54.5558
-47.8662
-41.7424
-36.2498
-31.4685
-27.4417
-24.0905
-21.2007
-18.6168
-16.2142
-13.9016
-11.6638
-9.51077
-7.52608
-5.77257
-4.27421
-3.1002
-2.23532
-1.61077
-1.17161
-0.866272
-0.659573
-0.526431
-0.510786
-0.614118
-0.983685
-1.43515
-1.83649
-2.18347
-2.11228
-1.49664
-0.205817
0.97305
1.49098
1.62503
1.67562
1.72752
1.82124
1.93618
2.05474
2.2379
2.4113
2.5759
2.68009
2.72775
2.75291
2.79674
2.89328
3.01731
3.16083
3.29096
3.39275
3.46882
3.51532
3.53291
3.52523
3.49701
3.45431
3.3999
3.33514
3.2629
3.18407
3.10014
3.01233
2.91898
2.81814
2.7115
2.60478
2.4972
2.38665
2.2824
2.18242
2.08601
1.98736
1.88359
1.78131
1.67894
1.57533
1.47132
1.36693
1.26221
1.15723
1.05202
0.94657
0.840942
0.734988
0.628242
0.520599
0.411174
0.299738
0.182715
0.0658842
-76.274
-77.4568
-79.6736
-80.0458
-77.8404
-73.6281
-67.9268
-61.3209
-54.4974
-47.8708
-41.7876
-36.3147
-31.5436
-27.5107
-24.1507
-21.2554
-18.6534
-16.2391
-13.9215
-11.6852
-9.53967
-7.56391
-5.82158
-4.33567
-3.16784
-2.29939
-1.66729
-1.21355
-0.898037
-0.695286
-0.565726
-0.559373
-0.705498
-1.1519
-1.66713
-2.10239
-2.49086
-2.43978
-1.77918
-0.345932
0.960964
1.54739
1.72085
1.78622
1.82413
1.8913
1.98379
2.0805
2.24248
2.39883
2.54657
2.63668
2.67692
2.69838
2.75239
2.85647
2.98672
3.13662
3.27194
3.37661
3.45386
3.50057
3.51788
3.51002
3.48194
3.43947
3.38536
3.32082
3.24854
3.16963
3.08579
2.99804
2.9041
2.80311
2.69645
2.58975
2.48268
2.3728
2.26913
2.1689
2.07142
1.97292
1.86988
1.76752
1.66511
1.56146
1.45737
1.35292
1.24818
1.1432
1.03802
0.932633
0.827128
0.721376
0.615018
0.508024
0.399747
0.290014
0.176205
0.0624424
-76.3652
-77.4408
-79.3927
-79.672
-77.4563
-73.2914
-67.6761
-61.1675
-54.4254
-47.869
-41.8327
-36.3854
-31.629
-27.5897
-24.2153
-21.3082
-18.6896
-16.2594
-13.936
-11.7033
-9.56921
-7.60536
-5.87632
-4.40648
-3.24548
-2.37476
-1.73498
-1.26229
-0.929948
-0.72912
-0.613745
-0.604529
-0.804408
-1.33099
-1.92285
-2.3913
-2.82397
-2.7946
-2.10562
-0.515536
0.957598
1.6193
1.84216
1.92224
1.94381
1.97775
2.04096
2.11413
2.25221
2.38697
2.51279
2.58613
2.61824
2.63699
2.70285
2.81482
2.9525
3.10995
3.25162
3.35975
3.43809
3.48488
3.50174
3.49355
3.46548
3.42318
3.36935
3.30507
3.23276
3.15376
3.07
2.98228
2.88786
2.78643
2.67981
2.57308
2.46641
2.35763
2.25465
2.15426
2.05601
1.95618
1.85446
1.75244
1.6497
1.54605
1.44191
1.33741
1.23264
1.12766
1.02251
0.917202
0.811835
0.706308
0.600385
0.494115
0.387117
0.279288
0.169038
0.0586989
-76.4229
-77.391
-79.1007
-79.2857
-77.072
-72.9531
-67.4136
-61.0079
-54.3528
-47.8723
-41.8889
-36.4708
-31.7273
-27.6826
-24.2854
-21.3583
-18.7225
-16.2712
-13.9416
-11.7159
-9.60014
-7.65323
-5.94318
-4.49345
-3.33412
-2.45787
-1.80994
-1.31689
-0.960044
-0.750533
-0.65733
-0.658174
-0.912636
-1.51796
-2.19168
-2.69636
-3.16867
-3.15981
-2.42662
-0.758949
0.959215
1.71469
1.99911
2.08722
2.09161
2.08428
2.10937
2.15527
2.26762
2.37659
2.47386
2.52678
2.55037
2.56993
2.64692
2.76811
2.91466
3.08094
3.23028
3.34246
3.42164
3.46824
3.48441
3.4757
3.44749
3.40527
3.35171
3.28772
3.21541
3.13629
3.05262
2.96488
2.87011
2.76822
2.66155
2.55467
2.44799
2.34082
2.2386
2.13806
2.0389
1.93782
1.83747
1.73579
1.63265
1.52898
1.42479
1.32023
1.21544
1.11046
1.00534
0.900121
0.794906
0.689627
0.584189
0.478725
0.373147
0.267438
0.161126
0.0546071
-76.4639
-77.3268
-78.7852
-78.859
-76.653
-72.5849
-67.1413
-60.8512
-54.2921
-47.8925
-41.9648
-36.5815
-31.8498
-27.8006
-24.3671
-21.4096
-18.7536
-16.2765
-13.9391
-11.7219
-9.6302
-7.70263
-6.01696
-4.59488
-3.43552
-2.54224
-1.87346
-1.36469
-0.993709
-0.771264
-0.685078
-0.728078
-1.03323
-1.70313
-2.46089
-3.01235
-3.50964
-3.53367
-2.69445
-1.0267
0.91343
1.8346
2.20331
2.288
2.27206
2.2147
2.19081
2.20434
2.28706
2.37159
2.43109
2.45848
2.47266
2.4969
2.5849
2.71678
2.87361
3.05023
3.20852
3.32508
3.40465
3.45066
3.46585
3.45636
3.4278
3.38557
3.33226
3.2686
3.19633
3.11707
3.03344
2.94565
2.85058
2.74839
2.64165
2.53446
2.4274
2.3219
2.22053
2.12
2.01936
1.91839
1.81881
1.71714
1.61393
1.51018
1.40588
1.30123
1.19639
1.09141
0.98633
0.881206
0.776162
0.671148
0.566253
0.461684
0.357677
0.25432
0.15236
0.0501022
-76.487
-77.2435
-78.4444
-78.3918
-76.1915
-72.1776
-66.8381
-60.6735
-54.2303
-47.9256
-42.0614
-36.7227
-32.0064
-27.9522
-24.4699
-21.4652
-18.7753
-16.2702
-13.9258
-11.7167
-9.63907
-7.7331
-6.07087
-4.67587
-3.53752
-2.63677
-1.93665
-1.40701
-1.02913
-0.800393
-0.719926
-0.804936
-1.15936
-1.8788
-2.71631
-3.32947
-3.83735
-3.89668
-2.95178
-1.21992
0.820018
1.96368
2.45515
2.54004
2.4877
2.3719
2.28709
2.2625
2.30846
2.3756
2.38782
2.38378
2.38585
2.41662
2.51754
2.66224
2.83044
3.01849
3.18657
3.30767
3.38729
3.4321
3.44589
3.43533
3.40624
3.3639
3.31082
3.24751
3.17527
3.09582
3.01224
2.92441
2.82905
2.72662
2.61984
2.51245
2.40499
2.30024
2.2003
2.09951
1.99815
1.89742
1.79793
1.69642
1.59327
1.48938
1.38496
1.28023
1.17533
1.07035
0.965297
0.860272
0.755406
0.650674
0.546388
0.442804
0.340527
0.239762
0.142615
0.0450965
-76.4914
-77.1372
-78.0808
-77.8895
-75.6932
-71.7395
-66.5081
-60.4753
-54.156
-47.9537
-42.1596
-36.8748
-32.1789
-28.1149
-24.5839
-21.5161
-18.7722
-16.2341
-13.8771
-11.6681
-9.61451
-7.75408
-6.12362
-4.74698
-3.6289
-2.73172
-2.01051
-1.46237
-1.07621
-0.840266
-0.76662
-0.886485
-1.28664
-2.04542
-2.9467
-3.63387
-4.14222
-4.21867
-3.22646
-1.36409
0.746545
2.12599
2.74886
2.85301
2.73831
2.55599
2.39993
2.33371
2.34289
2.38018
2.34047
2.30421
2.29426
2.33273
2.44651
2.60697
2.78733
2.987
3.16465
3.29032
3.36982
3.41261
3.42451
3.41255
3.3827
3.3401
3.28719
3.22425
3.15207
3.07233
2.98873
2.90084
2.80522
2.70262
2.59584
2.48836
2.38079
2.27591
2.17763
2.07648
1.97506
1.8742
1.77478
1.67355
1.57034
1.4663
1.36176
1.25695
1.15202
1.04702
0.942015
0.837101
0.732421
0.627981
0.524363
0.421857
0.321475
0.223544
0.131725
0.039452
-76.4805
-77.013
-77.6993
-77.3553
-75.1581
-71.2706
-66.1521
-60.2568
-54.0591
-47.9584
-42.2373
-37.0087
-32.3358
-28.2565
-24.6836
-21.5494
-18.7521
-16.184
-13.8067
-11.5985
-9.5819
-7.77559
-6.19172
-4.84445
-3.73137
-2.82166
-2.07942
-1.51844
-1.12943
-0.895219
-0.83451
-0.978311
-1.41129
-2.19811
-3.15055
-3.91269
-4.40749
-4.47005
-3.48515
-1.48787
0.714535
2.34078
3.08699
3.21908
3.02421
2.76429
2.5296
2.4233
2.39535
2.37471
2.28879
2.22294
2.20556
2.25097
2.3752
2.55012
2.7445
2.95747
3.14374
3.27309
3.35252
3.39219
3.40145
3.38784
3.35717
3.31426
3.26137
3.19856
3.12624
3.04618
2.96274
2.87478
2.77892
2.67618
2.56941
2.46192
2.35451
2.24942
2.15172
2.05107
1.94952
1.8485
1.74913
1.64823
1.54493
1.44072
1.33606
1.23116
1.12619
1.02119
0.91623
0.811446
0.706983
0.602859
0.499943
0.398598
0.300281
0.205413
0.119509
0.0329827
-76.4575
-76.8749
-77.3048
-76.7923
-74.583
-70.762
-65.7562
-60.0038
-53.9443
-47.9587
-42.321
-37.1487
-32.4969
-28.3983
-24.7809
-21.5795
-18.7294
-16.1317
-13.7417
-11.5453
-9.55771
-7.78904
-6.24342
-4.9315
-3.83469
-2.91723
-2.15906
-1.58608
-1.19334
-0.963814
-0.91567
-1.07891
-1.53872
-2.34403
-3.32504
-4.14598
-4.61387
-4.63491
-3.65886
-1.57636
0.726466
2.57162
3.46445
3.61024
3.33964
2.99275
2.67961
2.53069
2.44409
2.35798
2.23919
2.1479
2.12409
2.17623
2.31222
2.49691
2.69977
2.92563
3.12267
3.25539
3.3354
3.37205
3.3776
3.36132
3.32923
3.28586
3.23285
3.17001
3.09789
3.01756
2.93401
2.84576
2.74975
2.64689
2.5402
2.43282
2.32574
2.2209
2.12221
2.02275
1.92136
1.82013
1.72071
1.62012
1.51673
1.41235
1.30756
1.20256
1.09755
0.992546
0.887642
0.78299
0.678771
0.575038
0.472835
0.372711
0.276625
0.185013
0.105711
0.0253743
-76.4274
-76.7377
-76.9403
-76.2657
-74.0389
-70.2817
-65.3824
-59.7636
-53.8408
-47.9643
-42.4043
-37.2838
-32.6497
-28.5309
-24.8658
-21.6046
-18.7075
-16.0835
-13.684
-11.4984
-9.53986
-7.80938
-6.29664
-5.00757
-3.92097
-2.99883
-2.23441
-1.65812
-1.26692
-1.04408
-1.00637
-1.19235
-1.67265
-2.48073
-3.4649
-4.31287
-4.74172
-4.70221
-3.70523
-1.60452
0.792518
2.77731
3.80996
3.97142
3.64901
3.2185
2.82991
2.6235
2.4745
2.34266
2.19737
2.08767
2.05838
2.11752
2.26474
2.45754
2.66498
2.89254
3.09557
3.23571
3.31605
3.35094
3.35406
3.3355
3.30175
3.25704
3.20333
3.14043
3.06815
2.98694
2.90335
2.81514
2.71924
2.61639
2.50955
2.40232
2.29574
2.19158
2.09098
1.99268
1.89175
1.79047
1.69097
1.59049
1.48707
1.38254
1.27764
1.17252
1.06748
0.96245
0.857601
0.753054
0.649063
0.545785
0.444267
0.34533
0.251502
0.163085
0.0908307
0.016607
-76.399
-76.6242
-76.6531
-75.8472
-73.6029
-69.899
-65.0874
-59.5749
-53.7547
-47.9608
-42.4616
-37.3826
-32.7615
-28.6259
-24.9246
-21.6203
-18.6892
-16.0478
-13.6428
-11.4653
-9.5286
-7.82657
-6.34091
-5.07095
-3.99147
-3.06704
-2.30295
-1.72947
-1.34282
-1.1284
-1.1063
-1.31288
-1.80239
-2.59521
-3.56606
-4.41727
-4.803
-4.6978
-3.66143
-1.5623
0.89011
2.93817
4.05572
4.23519
3.8869
3.40032
2.94709
2.68266
2.49176
2.3288
2.16605
2.04618
2.01452
2.07727
2.23089
2.42589
2.63907
2.86671
3.07137
3.2177
3.29747
3.32989
3.33109
3.31107
3.27617
3.23029
3.1759
3.11292
3.04054
2.95995
2.87482
2.78574
2.68989
2.58736
2.48052
2.37334
2.26732
2.1633
2.06168
1.96395
1.86351
1.76232
1.6627
1.56214
1.4587
1.35408
1.24904
1.14387
1.0388
0.933794
0.828967
0.724539
0.620693
0.517882
0.416974
0.31905
0.227268
0.141588
0.0761792
0.00723522
-76.3767
-76.5397
-76.445
-75.5411
-73.2801
-69.6137
-64.8648
-59.4283
-53.6828
-47.9527
-42.502
-37.4554
-32.8454
-28.6978
-24.9701
-21.6361
-18.6811
-16.027
-13.6183
-11.4465
-9.52593
-7.84435
-6.38072
-5.12516
-4.04905
-3.12557
-2.36618
-1.79789
-1.41679
-1.2136
-1.20791
-1.42476
-1.90953
-2.68617
-3.64025
-4.48148
-4.83194
-4.6648
-3.58659
-1.4833
0.981494
3.0475
4.20407
4.39794
4.03962
3.52433
3.03225
2.71854
2.49748
2.31288
2.14089
2.0173
1.98429
2.04933
2.20641
2.39762
2.61675
2.8478
3.05367
3.20017
3.27979
3.31051
3.30969
3.28797
3.25188
3.20558
3.1511
3.08802
3.01576
2.93653
2.8505
2.76063
2.66464
2.56177
2.45498
2.34786
2.2418
2.13746
2.03581
1.93804
1.83777
1.73674
1.63697
1.53631
1.4329
1.32836
1.22317
1.11801
1.01281
0.907893
0.803042
0.698758
0.595003
0.492587
0.392187
0.295068
0.205004
0.121444
0.0621876
-0.00244965
-76.3622
-76.4804
-76.2983
-75.3226
-73.0478
-69.4085
-64.7055
-59.3247
-53.6346
-47.953
-42.5385
-37.5153
-32.9138
-28.7566
-25.0091
-21.6544
-18.6828
-16.0202
-13.6096
-11.4423
-9.53336
-7.86759
-6.41997
-5.17325
-4.09856
-3.1792
-2.42577
-1.86257
-1.48821
-1.29713
-1.30021
-1.51676
-1.99532
-2.76124
-3.70049
-4.52365
-4.8489
-4.62557
-3.51013
-1.39835
1.06097
3.11998
4.28967