/*--------------------------------*- C++ -*----------------------------------*\
| =========                 |                                                 |
| \\      /  F ield         | OpenFOAM: The Open Source CFD Toolbox           |
|  \\    /   O peration     | Version:  v2012                                 |
|   \\  /    A nd           | Website:  www.openfoam.com                      |
|    \\/     M anipulation  |                                                 |
\*---------------------------------------------------------------------------*/
FoamFile
{
    version     2.0;
    format      ascii;
    class       Cloud<basicKinematicParcel>;
    location    "0.114/lagrangian/kinematicCloud";
    object      positions;
}
// * * * * * * * * * * * * * * * * * * * * * * * * * * * * * * * * * * * * * //

54
(
(1.67469 0.00501605 0.03) 2312
(1.78914 0.0157012 0.03) 2820
(1.77144 0.0229052 0.03) 3019
(1.72046 0.0100793 0.03) 2615
(1.69744 0.029519 0.03) 3314
(1.71195 0.0235172 0.03) 3115
(1.18075 0.00082209 0.03) 78
(1.58223 0.0336203 0.03) 3505
(1.57071 0.0333076 0.03) 3505
(1.62734 0.0134824 0.03) 2709
(1.63162 0.0167924 0.03) 2809
(1.56874 0.00854724 0.03) 2504
(1.31587 0.0379564 0.03) 1887
(1.29741 0.00188311 0.03) 186
(1.33821 0.0373802 0.03) 1789
(1.53209 0.0188684 0.03) 2902
(1.41434 0.00506374 0.03) 394
(1.33165 0.036655 0.03) 1788
(1.44327 0.00913321 0.03) 596
(1.40506 0.0334503 0.03) 1593
(1.44055 0.0279374 0.03) 1296
(1.31104 0.0358655 0.03) 1687
(1.39809 0.0286733 0.03) 1393
(1.34714 0.00731732 0.03) 489
(1.38532 0.0152767 0.03) 892
(1.35964 0.028088 0.03) 1290
(1.28723 0.00582186 0.03) 485
(1.32289 0.0310968 0.03) 1488
(1.16803 0.00256568 0.03) 277
(1.29635 0.031939 0.03) 1486
(0.551568 0.000103304 0.03) 36
(1.18785 0.0037856 0.03) 279
(1.0116 0.0385493 0.03) 1867
(1.24849 0.0215711 0.03) 1083
(1.23613 0.0100824 0.03) 682
(1.22875 0.0271941 0.03) 1281
(1.21015 0.0128471 0.03) 780
(1.19622 0.015126 0.03) 879
(1.17503 0.0274009 0.03) 1278
(0.944105 0.00129916 0.03) 162
(1.14105 0.0117063 0.03) 676
(1.12388 0.026462 0.03) 1274
(1.09938 0.00971135 0.03) 673
(1.07835 0.0083547 0.03) 571
(1.07137 0.0123043 0.03) 771
(1.05512 0.0250807 0.03) 1170
(1.02334 0.0321225 0.03) 1468
(1.02046 0.0185679 0.03) 968
(1.00209 0.0147646 0.03) 866
(0.981814 0.0298917 0.03) 1365
(0.932411 0.0048297 0.03) 362
(0.951528 0.0143506 0.03) 863
(0.915842 0.0337446 0.03) 1561
(0.849436 0.00287892 0.03) 256
)


// ************************************************************************* //
