/*--------------------------------*- C++ -*----------------------------------*\
| =========                 |                                                 |
| \\      /  F ield         | OpenFOAM: The Open Source CFD Toolbox           |
|  \\    /   O peration     | Version:  v2012                                 |
|   \\  /    A nd           | Website:  www.openfoam.com                      |
|    \\/     M anipulation  |                                                 |
\*---------------------------------------------------------------------------*/
FoamFile
{
    version     2.0;
    format      ascii;
    class       Cloud<basicKinematicParcel>;
    location    "0.045/lagrangian/kinematicCloud";
    object      positions;
}
// * * * * * * * * * * * * * * * * * * * * * * * * * * * * * * * * * * * * * //

48
(
(0.848312 -0.0146413 0.03) 1771
(0.873448 -0.00415808 0.03) 1790
(0.860348 0.00594984 0.03) 384
(0.82672 -0.0093809 0.03) 1752
(0.80513 0.0159151 0.03) 679
(0.806747 0.00986389 0.03) 479
(0.644717 -0.00480582 0.03) 1590
(0.748342 0.0183551 0.03) 772
(0.716098 0.0207457 0.03) 869
(0.712906 0.00633926 0.03) 369
(0.707319 0.00575378 0.03) 368
(0.663845 0.00212478 0.03) 163
(0.287778 0.026482 0.03) 1023
(0.395301 -0.00806421 0.03) 1384
(0.446301 0.0249208 0.03) 1040
(0.576724 0.00825025 0.03) 454
(0.52176 -0.00335884 0.03) 1485
(0.498639 0.0233463 0.03) 946
(0.491458 6.05769e-05 0.03) 145
(0.494354 0.020506 0.03) 845
(0.474502 0.0176791 0.03) 743
(0.305341 0.0255476 0.03) 1025
(0.423887 0.0189952 0.03) 838
(0.391147 -5.02147e-05 0.03) 1372
(0.397734 0.00567842 0.03) 335
(0.374352 0.0191769 0.03) 832
(0.346352 0.00103852 0.03) 129
(0.348235 0.0207606 0.03) 830
(0.27085 -0.00171636 0.03) 1268
(0.32194 0.0224681 0.03) 927
(0.197791 -0.00176735 0.03) 1212
(0.264916 -2.48991e-05 0.03) 1268
(0.179364 0.0258553 0.03) 1012
(0.233345 0.0141933 0.03) 617
(0.231802 0.0046075 0.03) 217
(0.213243 0.0179423 0.03) 715
(0.19259 0.00964687 0.03) 413
(0.173456 0.0098462 0.03) 411
(0.153369 0.0184685 0.03) 709
(0.100877 0.000617418 0.03) 103
(0.116818 0.00710311 0.03) 305
(0.0984399 0.0174649 0.03) 703
(0.0812053 0.00351798 0.03) 201
(0.0660253 0.00532052 0.03) 19
(0.0506213 0.00795184 0.03) 27
(0.036431 0.0162134 0.03) 65
(0.0229605 0.0222185 0.03) 83
(0.0111625 0.0120366 0.03) 41
)


// ************************************************************************* //
