/*--------------------------------*- C++ -*----------------------------------*\
| =========                 |                                                 |
| \\      /  F ield         | OpenFOAM: The Open Source CFD Toolbox           |
|  \\    /   O peration     | Version:  v2012                                 |
|   \\  /    A nd           | Website:  www.openfoam.com                      |
|    \\/     M anipulation  |                                                 |
\*---------------------------------------------------------------------------*/
FoamFile
{
    version     2.0;
    format      ascii;
    class       vectorField;
    location    "0.045/lagrangian/kinematicCloud";
    object      UCorrect;
}
// * * * * * * * * * * * * * * * * * * * * * * * * * * * * * * * * * * * * * //


48
(
(0 0 0)
(2.96985e-28 1.29016e-30 0)
(0 0 0)
(4.52164e-28 2.96501e-30 0)
(4.73361e-28 -2.47006e-30 0)
(0 0 0)
(0 0 0)
(1.6243e-27 -6.81937e-30 0)
(0 0 0)
(0 0 0)
(0 0 0)
(0 0 0)
(0 0 0)
(0 0 0)
(0 0 0)
(8.40341e-36 4.61908e-40 0)
(0 0 0)
(0 0 0)
(0 0 0)
(6.73267e-31 9.33302e-33 0)
(0 0 0)
(0 0 0)
(6.91786e-28 1.38349e-29 0)
(5.01878e-31 -9.18738e-33 0)
(0 0 0)
(0 0 0)
(1.38361e-27 -2.87717e-29 0)
(0 0 0)
(0 0 0)
(0 0 0)
(0 0 0)
(0 0 0)
(0 0 0)
(0 0 0)
(1.09701e-27 -2.12063e-29 0)
(9.27485e-28 1.741e-29 0)
(9.72373e-28 -1.36703e-29 0)
(0 0 0)
(0 0 0)
(0 0 0)
(0 0 0)
(0 0 0)
(1.52761e-27 -3.47846e-29 0)
(0 0 0)
(1.50314e-27 -2.27088e-29 0)
(1.28131e-27 1.6437e-29 0)
(0 0 0)
(0 0 0)
)


// ************************************************************************* //
