/*--------------------------------*- C++ -*----------------------------------*\
| =========                 |                                                 |
| \\      /  F ield         | OpenFOAM: The Open Source CFD Toolbox           |
|  \\    /   O peration     | Version:  v2012                                 |
|   \\  /    A nd           | Website:  www.openfoam.com                      |
|    \\/     M anipulation  |                                                 |
\*---------------------------------------------------------------------------*/
FoamFile
{
    version     2.0;
    format      ascii;
    class       volScalarField;
    location    "0.335";
    object      epsilon.air;
}
// * * * * * * * * * * * * * * * * * * * * * * * * * * * * * * * * * * * * * //

dimensions      [0 2 -3 0 0 0 0];


internalField   nonuniform List<scalar> 
1900
(
112.724
141.424
210.097
257.591
369.051
443.457
614.74
724.904
971.329
1128.61
15.4676
16.4471
18.6375
20.4505
23.7568
27.7281
31.9999
39.3107
44.9858
56.9856
14.7926
14.6414
14.5755
14.5063
14.515
14.5558
14.6443
14.8291
15.0761
15.4176
14.77
14.6304
14.4634
14.3354
14.1726
14.059
13.904
13.8079
13.6654
13.5937
14.7765
14.6216
14.4704
14.3205
14.1747
14.0289
13.8889
13.7472
13.6139
13.4769
14.7777
14.6206
14.4713
14.3197
14.1754
14.0284
13.8891
13.7472
13.6133
13.4773
14.7776
14.6208
14.473
14.3235
14.184
14.045
13.9175
13.7915
13.6807
13.5716
14.7757
14.6501
14.5637
14.5034
14.511
14.5499
14.6402
14.8186
15.0458
15.3946
15.2081
16.6052
18.2732
20.6805
23.5926
27.5692
32.2703
38.3964
45.5786
54.7997
105.883
146.639
198.307
265.819
349.958
456.084
585.622
743.679
931.824
1154.04
4101.51
15203.1
19568
22420.6
21089
18006.6
15085.1
12802.3
11310.6
10392.6
9890.95
9709.98
9529.38
9258.21
8850.48
8351.05
7796.1
7209.8
6644.34
6126.32
5649.26
5222.27
4837.92
4487.05
4167.61
3878
3615.37
3377.87
3162.16
2966.42
2788.26
2625.66
2476.9
2340.44
2215.09
2099.68
1993.27
1894.91
1803.85
1719.34
1640.84
1567.76
1499.64
1436.05
1376.6
1320.94
1268.76
1219.77
1173.7
1130.28
1089.31
1050.58
1013.91
979.117
946.071
914.624
884.672
856.086
828.797
802.685
777.71
753.752
730.805
708.736
687.576
667.177
647.611
628.706
610.581
593.028
576.224
559.908
544.326
529.144
514.693
500.542
487.133
473.91
461.458
449.061
437.49
425.828
415.08
404.074
394.111
383.694
374.5
364.61
356.179
346.751
339.089
330.043
323.164
314.402
308.329
299.731
294.497
285.923
281.552
271.246
113.05
337.93
517.769
921.529
1123.53
1148.92
1121.62
1058.72
1053.63
1093.1
1198.51
1412.33
1698.52
2029.56
2379.82
2693.07
2971.15
3202.93
3358.18
3434.52
3426.43
3387.19
3301.08
3183.63
3055.58
2924.36
2793.64
2667.28
2543.88
2426.54
2314.51
2207.55
2106.19
2010.23
1919.84
1834.74
1754.82
1679.56
1608.73
1542.01
1479.16
1419.87
1363.93
1311.1
1261.18
1213.96
1169.28
1126.95
1086.81
1048.69
1012.44
977.931
945.027
913.602
883.559
854.786
827.214
800.745
775.338
750.901
727.421
704.803
683.058
662.078
641.906
622.413
603.678
585.545
568.136
551.256
535.08
519.365
504.348
489.717
475.789
462.162
449.251
436.538
424.568
412.677
401.579
390.422
380.138
369.636
360.125
350.208
341.448
332.054
324.037
315.098
307.826
299.265
292.748
284.47
278.726
270.615
265.673
257.597
253.483
243.796
16.4242
19.8734
22.8844
29.0861
34.7676
38.7155
41.6902
43.7762
46.7359
50.7614
58.8361
71.1061
95.7794
130.413
189.85
267.687
374.534
509.125
666.22
836.948
1005.16
1162.29
1301.33
1417.84
1508.42
1571.71
1610.02
1628.2
1625.79
1615.28
1592.67
1562.41
1527.97
1490.56
1451.81
1411.93
1371.98
1331.62
1291.79
1252.62
1214.19
1176.65
1140.11
1104.63
1070.24
1036.91
1004.72
973.586
943.505
914.456
886.401
859.288
833.08
807.718
783.179
759.401
736.377
714.048
692.426
671.455
651.163
631.489
612.474
594.041
576.251
559.002
542.387
526.264
510.763
495.7
481.257
467.195
453.759
440.644
428.167
415.938
404.368
392.953
382.227
371.548
361.607
351.587
342.38
332.945
324.434
315.52
307.681
299.229
292.055
284.006
277.499
269.783
263.95
256.485
251.341
244.028
239.596
232.322
228.624
219.906
13.4532
13.4608
13.5468
13.8034
14.3343
15.0069
15.7162
16.3357
16.921
17.34
17.8974
18.3631
19.3205
20.4881
22.7699
26.2325
31.8288
40.812
54.7425
76.1759
106.465
146.99
198.404
259.932
329.341
404.037
479.412
553.547
621.31
683.424
736.953
781.139
815.885
841.417
859.338
870.209
875.462
874.853
872.103
866.049
857.312
846.667
834.669
821.342
807.093
792.006
776.405
760.201
743.739
727.109
710.346
693.531
676.746
660.023
643.437
626.974
610.729
594.671
578.897
563.365
548.176
533.286
518.776
504.599
490.842
477.429
464.461
451.814
439.621
427.713
416.275
405.075
394.371
383.849
373.852
363.977
354.656
345.372
336.683
327.942
319.854
311.6
304.076
296.254
289.267
281.825
275.359
268.254
262.313
255.505
250.09
243.525
238.645
232.263
227.935
221.665
217.91
211.669
208.504
201.022
13.3299
13.1589
13.0629
13.1172
13.3058
13.7177
14.2842
14.906
15.4442
15.8764
16.2062
16.4341
16.6237
16.7629
16.9162
17.0865
17.3508
17.7272
18.3269
19.3018
20.8342
23.2478
26.7418
32.0753
39.6341
50.4315
64.6936
83.2488
106.006
133.153
163.969
197.527
232.925
268.536
303.679
336.664
367.638
395.527
420.227
441.315
458.994
473.224
484.544
492.95
498.891
502.543
504.357
504.084
502.93
500.404
496.615
491.905
486.452
480.332
473.701
466.61
459.217
451.5
443.648
435.583
427.52
419.349
411.221
403.127
395.16
387.256
379.508
371.813
364.304
356.837
349.599
342.37
335.425
328.438
321.804
315.07
308.751
302.279
296.282
290.051
284.362
278.344
272.953
267.12
262.023
256.355
251.557
246.033
241.537
236.133
231.965
226.67
222.858
217.649
214.219
209.061
206.037
200.892
198.293
192.11
13.3251
13.1543
13.0319
13.0868
13.2962
13.7728
14.4979
15.4822
16.5006
17.5951
18.5905
19.5211
20.2639
20.8748
21.3015
21.6106
21.7819
21.8496
21.8336
21.7883
21.6952
21.6001
21.5293
21.5553
21.6624
21.9214
22.4468
23.3612
24.7944
26.9862
30.1964
34.6398
40.6853
48.3545
57.8806
69.1894
82.3693
97.0697
113.192
130.146
147.69
165.233
182.546
199.188
214.943
229.527
242.92
254.952
265.707
275.225
283.531
290.737
296.921
302.191
306.61
310.254
313.221
315.5
317.253
318.349
319.115
319.158
318.966
318.467
317.458
316.087
314.42
312.455
310.283
307.848
305.274
302.445
299.564
296.393
293.334
289.891
286.691
283.057
279.772
275.998
272.67
268.783
265.449
261.47
258.161
254.106
250.856
246.741
243.59
239.436
236.42
232.237
229.394
225.193
222.56
218.348
215.958
211.741
209.625
204.555
13.4658
13.3602
13.4098
13.6563
14.3046
15.6865
18.0292
21.4314
25.3938
29.6878
33.6073
37.0825
39.6081
41.5448
42.6236
43.3577
43.3724
43.2356
42.8876
42.3944
41.78
41.1433
40.4868
39.8967
39.3621
38.8958
38.5123
38.2368
38.1176
38.1689
38.3409
38.7106
39.3338
40.2246
41.5539
43.2444
45.5843
48.4755
52.2537
56.8755
62.6168
69.4887
77.5867
86.9531
97.5156
109.255
121.949
135.521
149.64
164.219
178.866
193.516
207.811
221.742
235.026
247.688
259.519
270.562
280.706
289.978
298.381
305.904
312.566
318.424
323.476
327.758
331.32
334.17
336.343
337.977
338.989
339.518
339.443
339.104
338.425
337.086
335.874
333.909
332.258
329.809
327.817
324.985
322.751
319.611
317.208
313.812
311.302
307.701
305.147
301.394
298.857
294.995
292.53
288.6
286.258
282.301
280.128
276.186
274.238
269.582
15.9104
16.8582
18.5483
21.9311
28.4174
39.4906
55.4496
74.9795
95.4102
114.201
129.259
140.167
146.49
150.109
150.806
150.401
149.28
147.65
146.176
145.136
144.464
144.623
145.256
146.744
149.025
152.31
156.177
161.206
166.987
173.918
181.719
190.531
200.457
211.312
223.465
236.449
250.737
265.69
281.698
298.251
315.561
333.336
351.369
369.529
387.462
405.231
422.535
439.491
455.791
471.575
486.514
500.833
514.246
527.032
538.926
550.114
560.338
569.748
578.188
585.698
592.326
597.965
602.761
606.557
609.507
611.449
612.762
612.812
612.45
611.522
609.709
607.26
604.367
600.808
597.178
592.77
588.703
583.722
579.351
574.028
569.503
563.972
559.416
553.757
549.241
543.496
539.072
533.287
529.025
523.255
519.221
513.509
509.752
504.135
500.703
495.211
492.154
486.814
484.223
478.181
68.0479
90.4203
126.243
184.904
272.008
385.128
511.462
635.586
744.886
831.438
892.517
932.715
953.46
963.382
964.724
963.673
960.823
957.093
956.556
957.668
960.444
965.817
974.839
986.719
1000.59
1016.58
1034.83
1055.4
1077.71
1101.43
1126.29
1152.06
1178.77
1205.79
1233.2
1260
1286.55
1311.81
1336.36
1359.41
1381.31
1401.56
1420.29
1437.46
1453
1467.14
1479.82
1491.26
1501.31
1510.16
1517.59
1523.83
1528.69
1532.31
1534.73
1535.59
1535.2
1533.89
1531.17
1526.97
1522.15
1515.8
1509.16
1501.07
1492.64
1483.16
1473.06
1462.29
1451.13
1439.3
1427.3
1414.5
1401.88
1388.38
1375.52
1361.74
1348.92
1335.18
1322.63
1309.12
1297.04
1283.9
1272.43
1259.72
1248.9
1236.63
1226.51
1214.7
1205.35
1194.03
1185.53
1174.71
1167.09
1156.72
1150
1140.06
1134.28
1124.73
1120.04
1109.51
1464.74
1897.23
2399.12
2961.94
3563.17
4171.89
4745.97
5251.14
5655.13
5950.63
6132.59
6219.67
6207.06
6160.13
6061.25
5927.95
5777.64
5619.23
5459.04
5301.43
5149.33
5004.54
4867.82
4739.92
4620.86
4510.78
4409.2
4316.1
4230.95
4153.61
4083.44
4020.08
3963.03
3911.89
3866.42
3825.94
3790.32
3758.76
3731.42
3707.63
3687.49
3670.23
3655.78
3643.61
3633.67
3625.42
3618.79
3613.3
3608.92
3605.38
3602.58
3600.41
3598.94
3597.88
3597.75
3597.94
3598.5
3599.46
3600.94
3602.25
3604.16
3605.51
3607.26
3608.38
3609.51
3610.17
3610.45
3610.35
3609.97
3609.04
3607.88
3605.54
3603.26
3599.35
3595.69
3590.14
3585.05
3577.88
3571.38
3562.73
3555.06
3545.2
3536.69
3525.83
3516.7
3504.97
3495.35
3482.78
3472.81
3459.38
3449.19
3434.83
3424.62
3409.28
3399.35
3382.98
3373.65
3356.29
3347.45
3325.3
1109.13
1064.53
1122.19
1210.16
1238.96
1121.36
818.631
1980.14
54626.1
16121.3
7355.06
6108.65
6236.07
6486.84
6557.73
8032.23
74278.3
43667
24858.2
18479.1
16109.8
15007.8
14635.4
19683.1
76409.8
71051.1
54285.6
41222
32703.9
27168.3
24552.8
34078.8
69718.1
75708.9
67757
55657.4
44569.9
35842
30861.1
42700.7
57748
71171.1
67938
59031.8
48367.7
38725.5
32775.6
45212.2
47489.4
61825.5
62478.2
56599.5
47154.2
38167.4
32443.5
44224.4
39098.5
51818.4
53577.2
49826.9
42385.7
34669.9
29588
39752.1
32640
42992.6
44918.9
42129.9
36300.1
30043.5
25825
34046.8
27617.9
35629.8
37261.2
35118.3
30547.4
25563.3
22232.3
29388.9
23496.3
29592.1
30830.7
29129.5
25540
21642.9
19169.7
26034.8
20111.5
24701
25581.3
24192.4
21349.8
18308.6
16506.8
22999.5
17371.4
20786.2
21375.2
20217.7
17947.5
15564.5
14275
20379.3
15138.1
17660.5
18027.6
17048
15219.3
13338.3
12434.5
18169.2
13288.1
15149.8
15357.2
14521.1
13034.5
11539.4
10928.2
16332.7
11727.4
13108.2
13206.3
12489.8
11271.9
10077.3
9690.53
14804.1
10404.6
11436.8
11461.5
10844.9
9839.78
8880.89
8667.71
13527.3
9266.78
10050.1
10030.7
9497.55
8663.56
7892.17
7815.15
12452.9
8285.64
8888.94
8844.82
8382.29
7687.21
7066.84
7096.95
11540.3
7442.97
7911.42
7852.8
7450.96
6869.18
6371.38
6485.09
10759.1
6716.29
7083.31
7016.78
6666.93
6177.96
5779.96
5960.77
10084.2
6089.92
6378.44
6307.87
6002.25
5589.54
5273.11
5507.98
9496.26
5547.66
5774.97
5702.97
5435.07
5085.43
4836.06
5114.58
8980.82
5073.85
5254.08
5182.78
4947.45
4650.6
4456.94
4771.06
8526.86
4657.55
4801.46
4732.35
4525.32
4273.07
4126.11
4469.52
8125.1
4290.27
4406.01
4340.05
4157.74
3943.42
3835.89
4203.52
7767.99
3964.78
4058.54
3996.38
3835.78
3653.93
3579.91
3967.67
7448.92
3675.6
3751.94
3693.85
3552.36
3398.47
3353.09
3757.62
7162.5
3417.49
3480.06
3426.19
3301.61
3171.95
3151.2
3569.84
6904.55
3186.51
3238.07
3188.39
3078.79
2970.25
2970.87
3401.38
6671.66
2978.99
3021.77
2976.23
2879.99
2789.98
2808.83
3249.92
6460.88
2791.87
2827.63
2786.13
2701.84
2628.14
2662.89
3113.17
6269.74
2622.56
2652.73
2615.1
2541.56
2482.27
2531.03
2989.29
6096.06
2468.81
2494.52
2460.63
2396.79
2350.31
2411.49
2876.76
5937.94
2328.78
2350.94
2320.61
2265.53
2230.51
2302.77
2774.19
5793.66
2200.85
2220.19
2193.26
2146.12
2121.37
2203.54
2680.44
5661.63
2083.7
2100.8
2077.08
2037.15
2021.64
2112.72
2594.48
5540.43
1976.12
1991.45
1970.79
1937.42
1930.25
2029.36
2515.46
5428.82
1877.11
1891.08
1873.29
1845.91
1846.31
1952.64
2442.62
5325.74
1785.78
1798.71
1783.66
1761.78
1768.93
1881.94
2375.37
5230.25
1701.37
1713.54
1701.09
1684.24
1697.52
1816.63
2313.16
5141.62
1623.2
1634.86
1624.87
1612.65
1631.51
1756.19
2255.53
5059.23
1550.7
1562.03
1554.37
1546.41
1570.39
1700.16
2202.09
4982.6
1483.32
1494.49
1489.05
1485.03
1513.72
1648.15
2152.48
4911.3
1420.62
1431.76
1428.42
1428.05
1461.07
1599.81
2106.4
4845.01
1362.15
1373.38
1372.04
1375.03
1412.11
1554.82
2063.58
4783.44
1307.56
1318.95
1319.52
1325.61
1366.48
1512.88
2023.74
4726.29
1256.48
1268.1
1270.48
1279.5
1323.89
1473.75
1986.66
4673.29
1208.6
1220.52
1224.63
1236.39
1284.05
1437.15
1952.08
4624.12
1163.65
1175.91
1181.66
1196
1246.74
1402.89
1919.83
4578.53
1121.36
1134
1141.33
1158.09
1211.71
1370.73
1889.67
4536.16
1081.51
1094.57
1103.41
1122.45
1178.77
1340.53
1861.45
4496.75
1043.89
1057.4
1067.69
1088.88
1147.75
1312.09
1834.96
4459.95
1008.31
1022.3
1033.98
1057.21
1118.49
1285.28
1810.08
4425.47
974.617
989.114
1002.13
1027.29
1090.83
1259.94
1786.64
4393.08
942.653
957.678
971.988
998.974
1064.65
1235.98
1764.53
4362.49
912.301
927.872
943.425
972.144
1039.85
1213.27
1743.63
4333.57
883.418
899.552
916.307
946.675
1016.3
1191.72
1723.85
4306.08
855.923
872.63
890.546
922.483
993.922
1171.25
1705.1
4280.01
829.681
846.973
866.012
899.448
972.616
1151.77
1687.31
4255.14
804.646
822.527
842.652
877.519
952.332
1133.22
1670.42
4231.57
780.684
799.158
820.335
856.573
932.959
1115.53
1654.36
4209.06
757.78
776.848
799.045
836.597
914.485
1098.66
1639.11
4187.82
735.794
755.453
778.639
817.457
896.789
1082.53
1624.6
4167.54
714.75
734.998
759.145
799.18
879.898
1067.15
1610.82
4148.49
694.492
715.323
740.403
781.614
863.674
1052.41
1597.7
4130.3
675.09
696.501
722.49
764.837
848.183
1038.35
1585.25
4113.3
656.361
678.341
705.212
748.661
833.258
1024.84
1573.39
4096.99
638.429
660.973
688.705
733.22
819.023
1011.97
1562.15
4081.86
621.072
644.163
672.727
718.273
805.253
999.562
1551.41
4067.22
604.473
628.107
657.484
704.032
792.151
987.783
1541.28
4053.77
588.354
612.507
642.661
690.172
779.398
976.343
1531.52
4040.53
572.976
597.64
628.557
677.008
767.314
965.542
1522.4
4028.57
557.976
583.119
614.754
664.096
755.44
954.928
1513.46
4016.45
543.712
569.329
601.672
651.893
744.26
944.998
1505.23
4005.82
529.716
555.762
588.756
639.793
733.124
935.062
1496.94
3994.5
516.466
542.941
576.586
628.441
722.742
925.897
1489.49
3985.04
503.358
530.206
564.431
617.021
712.203
916.485
1481.68
3974.19
491.031
518.26
553.078
606.427
702.529
908
1474.93
3965.75
478.705
506.247
541.569
595.567
692.459
898.963
1467.38
3955.03
467.223
495.099
530.958
585.66
683.424
891.093
1461.26
3947.42
455.586
483.715
520.002
575.264
673.716
882.303
1453.81
3936.55
444.895
473.314
510.085
565.997
665.278
875.005
1448.28
3929.58
433.87
462.485
499.611
555.995
655.861
866.379
1440.81
3918.36
423.937
452.801
490.361
547.345
647.995
859.624
1435.81
3911.86
413.464
442.474
480.322
537.696
638.832
851.13
1428.29
3900.28
404.274
433.495
471.731
529.654
631.529
844.902
1423.79
3894.13
394.298
423.621
462.089
520.335
622.616
836.553
1416.26
3882.35
385.851
415.351
454.162
512.908
615.879
830.85
1412.23
3876.51
376.312
405.88
444.88
503.899
607.22
822.687
1404.79
3864.81
368.618
398.333
437.632
497.102
601.066
817.52
1401.22
3859.23
359.442
389.199
428.66
488.377
592.668
809.599
1394.05
3847.97
352.518
382.393
422.112
482.228
587.105
804.96
1390.81
3842.76
343.612
373.515
413.383
473.747
578.971
797.358
1384.17
3832.21
337.485
367.476
407.557
468.262
574.002
793.225
1381.28
3827.41
328.733
358.747
398.982
459.959
566.108
785.985
1375.24
3817.88
323.434
353.505
393.901
455.15
561.723
782.312
1372.63
3813.26
314.701
344.798
385.367
446.932
554.007
775.427
1367.18
3804.99
310.248
340.361
381.028
442.776
550.155
772.106
1364.77
3800.94
299.719
329.83
370.669
432.769
540.744
763.751
1358.14
3791.97
)
;

boundaryField
{
    frontAndBack
    {
        type            empty;
    }
    inlet
    {
        type            fixedValue;
        value           uniform 14.855;
    }
    outlet
    {
        type            zeroGradient;
    }
    walls
    {
        lowReCorrection 0;
        blending        stepwise;
        n               2;
        type            epsilonWallFunction;
        value           nonuniform List<scalar> 
228
(
112.724
141.424
210.097
257.591
369.051
443.457
614.74
724.904
971.329
1128.61
1109.13
1064.53
1122.19
1210.16
1238.96
1121.36
818.631
1980.14
1980.14
8032.23
19683.1
34078.8
42700.7
45212.2
44224.4
39752.1
34046.8
29388.9
26034.8
22999.5
20379.3
18169.2
16332.7
14804.1
13527.3
12452.9
11540.3
10759.1
10084.2
9496.26
8980.82
8526.86
8125.1
7767.99
7448.92
7162.5
6904.55
6671.66
6460.88
6269.74
6096.06
5937.94
5793.66
5661.63
5540.43
5428.82
5325.74
5230.25
5141.62
5059.23
4982.6
4911.3
4845.01
4783.44
4726.29
4673.29
4624.12
4578.53
4536.16
4496.75
4459.95
4425.47
4393.08
4362.49
4333.57
4306.08
4280.01
4255.14
4231.57
4209.06
4187.82
4167.54
4148.49
4130.3
4113.3
4096.99
4081.86
4067.22
4053.77
4040.53
4028.57
4016.45
4005.82
3994.5
3985.04
3974.19
3965.75
3955.03
3947.42
3936.55
3929.58
3918.36
3911.86
3900.28
3894.13
3882.35
3876.51
3864.81
3859.23
3847.97
3842.76
3832.21
3827.41
3817.88
3813.26
3804.99
3800.94
3791.97
105.883
146.639
198.307
265.819
349.958
456.084
585.622
743.679
931.824
1154.04
1464.74
1897.23
2399.12
2961.94
3563.17
4171.89
4745.97
5251.14
5655.13
5950.63
6132.59
6219.67
6207.06
6160.13
6061.25
5927.95
5777.64
5619.23
5459.04
5301.43
5149.33
5004.54
4867.82
4739.92
4620.86
4510.78
4409.2
4316.1
4230.95
4153.61
4083.44
4020.08
3963.03
3911.89
3866.42
3825.94
3790.32
3758.76
3731.42
3707.63
3687.49
3670.23
3655.78
3643.61
3633.67
3625.42
3618.79
3613.3
3608.92
3605.38
3602.58
3600.41
3598.94
3597.88
3597.75
3597.94
3598.5
3599.46
3600.94
3602.25
3604.16
3605.51
3607.26
3608.38
3609.51
3610.17
3610.45
3610.35
3609.97
3609.04
3607.88
3605.54
3603.26
3599.35
3595.69
3590.14
3585.05
3577.88
3571.38
3562.73
3555.06
3545.2
3536.69
3525.83
3516.7
3504.97
3495.35
3482.78
3472.81
3459.38
3449.19
3434.83
3424.62
3409.28
3399.35
3382.98
3373.65
3356.29
3347.45
3325.3
)
;
    }
}


// ************************************************************************* //
