/*--------------------------------*- C++ -*----------------------------------*\
| =========                 |                                                 |
| \\      /  F ield         | OpenFOAM: The Open Source CFD Toolbox           |
|  \\    /   O peration     | Version:  v2012                                 |
|   \\  /    A nd           | Website:  www.openfoam.com                      |
|    \\/     M anipulation  |                                                 |
\*---------------------------------------------------------------------------*/
FoamFile
{
    version     2.0;
    format      ascii;
    class       volScalarField;
    location    "0.064";
    object      k.air;
}
// * * * * * * * * * * * * * * * * * * * * * * * * * * * * * * * * * * * * * //

dimensions      [0 2 -2 0 0 0 0];


internalField   nonuniform List<scalar> 
5600
(
0.653994
1.46925
2.41499
3.07738
3.37908
3.41869
3.31525
3.14761
2.9706
2.81215
2.67483
2.56191
2.4755
2.41406
2.3747
2.35265
2.34375
2.34306
2.34738
2.35318
2.35966
2.36462
2.3692
2.37183
2.37496
2.37639
2.37942
2.38032
2.38365
2.38391
2.38775
2.38685
2.39078
2.38833
2.39232
2.3881
2.39235
2.387
2.39113
2.38584
2.38866
2.38512
2.38527
2.38486
2.38175
2.38446
2.37938
2.38288
2.37937
2.37945
2.38177
2.3748
2.38483
2.37113
2.38591
2.37064
2.38316
2.37446
2.37731
2.38093
2.3714
2.38621
2.36963
2.38603
2.37435
2.37844
2.38476
2.36643
2.39523
2.35779
2.39732
2.36057
2.38557
2.37676
2.36384
2.39788
2.34612
2.40753
2.34678
2.39587
2.36711
2.3704
2.3915
2.35373
2.39538
2.36501
2.36989
2.39928
2.33365
2.42949
2.31564
2.43184
2.32564
2.40844
2.34469
2.40636
2.28135
2.58486
1.86455
3.2867
0.403204
0.378405
0.39743
0.451243
0.511843
0.590429
0.674039
0.793808
0.939272
1.10223
1.28357
1.47534
1.66808
1.85303
2.02267
2.17144
2.29622
2.39533
2.47113
2.52526
2.56364
2.58779
2.6063
2.61624
2.628
2.63231
2.64332
2.64332
2.65357
2.64975
2.65999
2.65069
2.66176
2.64728
2.66031
2.64228
2.65737
2.63845
2.653
2.63741
2.64647
2.63996
2.63844
2.64411
2.6325
2.64673
2.63162
2.64373
2.63897
2.63323
2.65255
2.62
2.66567
2.61274
2.66878
2.61961
2.65667
2.64043
2.6351
2.66532
2.61847
2.68064
2.62124
2.67365
2.65069
2.64342
2.6958
2.60628
2.7324
2.59036
2.72915
2.62139
2.67498
2.69256
2.59775
2.76082
2.55066
2.7728
2.57685
2.70772
2.66362
2.61659
2.73582
2.58197
2.71999
2.64892
2.61364
2.76874
2.50549
2.84019
2.48115
2.80192
2.56244
2.68225
2.6756
2.62396
2.60166
2.88513
2.13313
3.39752
0.405713
0.345011
0.301146
0.271652
0.251456
0.24011
0.234509
0.236245
0.247729
0.266407
0.295424
0.335444
0.387709
0.451377
0.5267
0.611786
0.705846
0.805939
0.910991
1.01703
1.12404
1.22744
1.33045
1.42702
1.52276
1.59981
1.67372
1.72374
1.78069
1.80949
1.85484
1.86794
1.90891
1.90976
1.9487
1.94115
1.97838
1.96701
1.99845
1.99103
2.01003
2.01539
2.01696
2.03755
2.02533
2.05354
2.04026
2.05803
2.06495
2.05178
2.0944
2.04383
2.11777
2.04722
2.1233
2.07051
2.10816
2.1089
2.0841
2.14649
2.07187
2.16344
2.09109
2.14705
2.14471
2.10378
2.21164
2.06212
2.25286
2.06228
2.23
2.12717
2.14426
2.23133
2.0463
2.30802
2.01044
2.29132
2.07658
2.18319
2.19911
2.07101
2.27179
2.05776
2.21568
2.17032
2.0708
2.31062
1.965
2.3533
1.98711
2.26142
2.1203
2.10667
2.24525
2.06206
2.15154
2.29677
1.84033
2.46805
0.406472
0.344405
0.298188
0.26258
0.234802
0.21241
0.194659
0.179758
0.168399
0.159195
0.153266
0.149521
0.149521
0.151976
0.15926
0.169671
0.186499
0.207243
0.236433
0.270118
0.314418
0.362417
0.422978
0.484711
0.562285
0.636058
0.727511
0.804795
0.901923
0.970041
1.06168
1.11188
1.1973
1.22819
1.30626
1.31961
1.38956
1.39537
1.452
1.46259
1.49823
1.52535
1.53565
1.57965
1.57111
1.61648
1.61081
1.63215
1.65846
1.63357
1.70651
1.63553
1.74015
1.65539
1.74715
1.70003
1.72989
1.75806
1.7069
1.80653
1.70503
1.82119
1.7459
1.79233
1.82601
1.73728
1.91127
1.69877
1.94839
1.72503
1.89895
1.82812
1.78296
1.95993
1.6755
2.03087
1.66522
1.97469
1.77643
1.8264
1.92522
1.70752
1.9817
1.7285
1.88141
1.88012
1.71366
2.01987
1.63127
2.02198
1.69883
1.89333
1.85256
1.74566
1.9425
1.75225
1.80984
1.97829
1.5852
2.02501
0.406551
0.344456
0.298323
0.262486
0.234335
0.211196
0.19245
0.17635
0.163103
0.151312
0.14168
0.132755
0.125854
0.119021
0.114479
0.109384
0.10737
0.103857
0.105238
0.103314
0.10959
0.109587
0.123269
0.125937
0.150536
0.157254
0.19694
0.209267
0.26745
0.284862
0.360654
0.379575
0.469906
0.489464
0.58979
0.611215
0.709339
0.732526
0.815171
0.850334
0.904564
0.960573
0.9818
1.05528
1.05582
1.12351
1.13553
1.16248
1.22091
1.18377
1.29949
1.20912
1.35192
1.25964
1.36704
1.33814
1.35515
1.42343
1.34152
1.48485
1.35983
1.49699
1.43106
1.45661
1.54294
1.39528
1.64525
1.37061
1.67205
1.43345
1.59206
1.57888
1.45011
1.73226
1.34512
1.78392
1.37212
1.68101
1.52958
1.49913
1.69398
1.38801
1.72031
1.45023
1.57819
1.63132
1.40364
1.75174
1.35607
1.71291
1.45639
1.57169
1.60206
1.45671
1.64452
1.50995
1.49381
1.70797
1.33976
1.69245
0.406544
0.344489
0.298339
0.262585
0.234378
0.211323
0.192446
0.176408
0.162962
0.151151
0.141179
0.132044
0.124508
0.11709
0.111464
0.105026
0.101257
0.0949723
0.0935365
0.0863078
0.0883113
0.0785222
0.0859452
0.0713366
0.0871544
0.0649232
0.0929326
0.0603545
0.104364
0.0603634
0.122319
0.0694619
0.14723
0.0930898
0.179229
0.136704
0.21798
0.201982
0.261732
0.286115
0.312991
0.379709
0.377653
0.469169
0.464904
0.5432
0.574096
0.595804
0.694542
0.63914
0.802094
0.697057
0.872011
0.786719
0.896968
0.902666
0.895572
1.01718
0.901674
1.09058
0.952672
1.0996
1.06515
1.05271
1.21341
0.99771
1.32938
1.00521
1.33978
1.11865
1.23012
1.30811
1.07398
1.46787
0.990671
1.48543
1.06772
1.33425
1.26733
1.13258
1.4251
1.04973
1.40849
1.15561
1.23556
1.34477
1.07956
1.42688
1.07652
1.35652
1.18874
1.23181
1.29499
1.16701
1.29231
1.24291
1.15991
1.3793
1.083
1.32422
0.40653
0.34451
0.29832
0.262629
0.23437
0.211392
0.192456
0.176497
0.162985
0.151262
0.141196
0.132173
0.124481
0.117203
0.11133
0.10506
0.100874
0.0948234
0.0926413
0.08576
0.0864746
0.0771783
0.0824714
0.0684015
0.0809091
0.0588056
0.0820888
0.048057
0.0859394
0.0366637
0.0913821
0.0267694
0.0956806
0.0227864
0.0945035
0.0307641
0.0839821
0.0547362
0.0656186
0.0908946
0.0506456
0.125848
0.0579903
0.143572
0.103046
0.139218
0.182742
0.126697
0.272923
0.134363
0.342757
0.188979
0.373191
0.293931
0.368955
0.426814
0.366488
0.546539
0.394366
0.614096
0.482279
0.612828
0.632997
0.56452
0.804375
0.532845
0.916142
0.587322
0.904095
0.751075
0.779179
0.963837
0.636494
1.10399
0.598676
1.07509
0.725899
0.893352
0.936827
0.709049
1.05559
0.675727
0.993398
0.808202
0.824079
0.963959
0.720694
0.992565
0.75612
0.917251
0.842186
0.843236
0.889211
0.828348
0.862991
0.888094
0.788649
0.940411
0.782763
0.879746
0.406524
0.344516
0.298307
0.26264
0.23436
0.211409
0.192452
0.176523
0.162986
0.151305
0.141191
0.132247
0.12445
0.117335
0.11123
0.105313
0.100597
0.0953351
0.0919774
0.0867794
0.0850514
0.0791291
0.0796827
0.071921
0.0758647
0.0647408
0.07363
0.0573325
0.0728261
0.0498811
0.0727424
0.0434159
0.0716993
0.0400856
0.0670333
0.0426532
0.056252
0.0524531
0.039948
0.0661424
0.0249757
0.0739046
0.0239054
0.0636527
0.0464454
0.0338651
0.0823331
0.0123142
0.092153
0.0133255
0.142183
0.027078
0.124636
0.0596051
0.0506405
0.165025
0.0434189
0.235409
0.0451815
0.230971
0.118473
0.176768
0.25206
0.111689
0.381374
0.101638
0.438606
0.190932
0.397339
0.363477
0.294331
0.539975
0.208768
0.623635
0.230413
0.55946
0.369996
0.408984
0.520904
0.302521
0.568887
0.319919
0.494966
0.422669
0.393221
0.494438
0.365844
0.480353
0.404078
0.440957
0.433728
0.427181
0.435279
0.438418
0.415133
0.463732
0.400553
0.458077
0.422016
0.428522
0.406522
0.344515
0.298301
0.262639
0.234354
0.211408
0.192448
0.176526
0.162982
0.151315
0.141183
0.132272
0.12443
0.117391
0.11117
0.105438
0.10044
0.0956115
0.091612
0.0873584
0.0842719
0.0802757
0.0781501
0.0740485
0.0730721
0.0684252
0.0689182
0.0632341
0.0655407
0.0584578
0.0626454
0.0543431
0.0596792
0.0514347
0.0558804
0.0503457
0.0506941
0.0511286
0.0445985
0.052454
0.0397561
0.0515308
0.0391908
0.045714
0.0442906
0.0352913
0.0524047
0.0255693
0.0568018
0.0223035
0.0555191
0.0282561
0.0452414
0.042557
0.0230256
0.0647545
0.0109351
0.0775627
0.0126534
0.0662884
0.0394787
0.0345067
0.0823944
0.00388705
0.114006
0.00553163
0.113268
0.0485426
0.0846284
0.112717
0.0487208
0.166844
0.0345263
0.179983
0.0626957
0.147987
0.114954
0.102897
0.152565
0.0843705
0.151217
0.101921
0.125021
0.125576
0.109001
0.127161
0.117927
0.112687
0.128397
0.108773
0.125605
0.114977
0.117066
0.126216
0.103013
0.139208
0.100203
0.130167
0.111388
0.123177
0.406521
0.344513
0.298299
0.262637
0.234351
0.211407
0.192446
0.176526
0.162981
0.151317
0.14118
0.13228
0.124422
0.117409
0.111152
0.105477
0.100393
0.0956952
0.0915042
0.0875297
0.0840475
0.0806072
0.0777156
0.0746555
0.0722887
0.0694686
0.0676056
0.0648936
0.0635341
0.0608343
0.0599373
0.0572655
0.0566485
0.0542281
0.0534865
0.0517678
0.0503465
0.0498063
0.0473407
0.0480197
0.0448469
0.0459061
0.0432781
0.0431493
0.0426333
0.0400401
0.0422471
0.0374709
0.0411498
0.0362236
0.0389143
0.0363007
0.0358004
0.0371997
0.0323897
0.0377971
0.0308636
0.0360483
0.0327246
0.0308151
0.0374094
0.0247275
0.0402654
0.0240748
0.0360972
0.031502
0.0268716
0.0407385
0.0207202
0.0436908
0.0235157
0.0380259
0.033293
0.0284037
0.0424677
0.0223294
0.0438418
0.0251507
0.0357239
0.0351191
0.0242467
0.0436344
0.0185116
0.0436195
0.022526
0.0353558
0.0323679
0.0254488
0.040287
0.0202899
0.0425968
0.0204666
0.0398401
0.026179
0.0311988
0.0365395
0.0220946
0.0441978
0.0145963
0.0504637
0.406521
0.344514
0.298299
0.262638
0.234353
0.211409
0.192447
0.176527
0.162982
0.151319
0.141181
0.132282
0.124421
0.117413
0.111148
0.105486
0.100383
0.0957128
0.0914828
0.0875632
0.0840051
0.0806678
0.0776376
0.0747605
0.0721547
0.0696426
0.0673887
0.0651627
0.0632122
0.0612092
0.0595195
0.0577056
0.0562163
0.0546012
0.0532227
0.0518513
0.0504866
0.0493977
0.0479978
0.0471565
0.0457832
0.045032
0.0438748
0.0429634
0.0422466
0.0409953
0.0407404
0.0393275
0.0390634
0.0382533
0.0369406
0.0379124
0.0344404
0.0379065
0.032356
0.0370179
0.0322433
0.0337121
0.0352201
0.0279154
0.0398316
0.0227884
0.0415513
0.0234157
0.0365247
0.0315452
0.026855
0.0419242
0.0202229
0.0463628
0.0225731
0.0416567
0.0323872
0.0319489
0.042694
0.0242495
0.0472973
0.0226851
0.0448083
0.0267396
0.037949
0.0333245
0.0304672
0.0395473
0.0244666
0.044098
0.0205985
0.0458762
0.0211163
0.0413028
0.0302825
0.0281041
0.0458484
0.0131596
0.0572312
0.0071449
0.0554094
0.018969
0.0329797
0.0492191
0.406521
0.344517
0.298303
0.262643
0.234357
0.211413
0.192452
0.176531
0.162985
0.151322
0.141183
0.132284
0.124421
0.117414
0.111146
0.105487
0.100378
0.0957134
0.0914737
0.0875645
0.0839918
0.0806704
0.0776204
0.0747648
0.0721324
0.0696501
0.0673608
0.0651739
0.0631829
0.0612169
0.0595041
0.057691
0.056245
0.0545331
0.0533413
0.0516938
0.0507381
0.0491493
0.0483743
0.0469061
0.0461867
0.044985
0.0441472
0.0433588
0.0423554
0.0418833
0.0410279
0.0404
0.0402959
0.0390956
0.039814
0.0388134
0.0387588
0.0406399
0.036807
0.0444731
0.0357374
0.0479379
0.0391899
0.0480749
0.0491368
0.0457535
0.062642
0.0478367
0.0744083
0.0611269
0.0830738
0.0843361
0.0919387
0.108889
0.10353
0.127607
0.115106
0.139702
0.122063
0.146856
0.12565
0.147259
0.131945
0.138325
0.144384
0.122919
0.157713
0.112139
0.159383
0.118348
0.142152
0.142673
0.113894
0.168118
0.0976512
0.168386
0.11502
0.133539
0.161166
0.086451
0.196111
0.0769593
0.169956
0.132587
0.40652
0.344523
0.298307
0.26265
0.234362
0.211419
0.192455
0.176535
0.162985
0.151324
0.141179
0.132282
0.124415
0.117407
0.111135
0.105477
0.100362
0.0957021
0.0914536
0.0875512
0.0839705
0.080653
0.0776047
0.0747432
0.0721288
0.069632
0.0673784
0.0651673
0.0632521
0.0612186
0.0596964
0.0576933
0.0566774
0.0545486
0.0541972
0.0517785
0.052258
0.049522
0.0507781
0.0481364
0.0496125
0.0481847
0.0487204
0.0502033
0.0486689
0.0541187
0.0510048
0.0590337
0.0580789
0.0642213
0.0715047
0.0708703
0.0904041
0.0831029
0.111726
0.10589
0.133302
0.140228
0.155798
0.180597
0.183809
0.221313
0.223133
0.263131
0.274965
0.308715
0.334228
0.355238
0.391974
0.396142
0.440003
0.429337
0.469099
0.459654
0.473472
0.490706
0.461168
0.514833
0.451339
0.518706
0.460755
0.49762
0.489337
0.465101
0.517035
0.44574
0.520805
0.457358
0.493239
0.49554
0.451913
0.529564
0.433934
0.523743
0.461865
0.480391
0.508914
0.441678
0.531643
0.437581
0.406514
0.344537
0.298305
0.262661
0.234356
0.211425
0.192442
0.176535
0.162961
0.151317
0.141145
0.132266
0.124375
0.117381
0.11109
0.10545
0.100317
0.0956822
0.0914247
0.0875573
0.0839901
0.0807161
0.0777317
0.0749274
0.0724557
0.0700782
0.0680655
0.0661135
0.0646176
0.0630545
0.062353
0.0611183
0.0616784
0.0608298
0.0632895
0.0629709
0.0681692
0.0687555
0.0773188
0.0799293
0.0918347
0.0985889
0.112882
0.126797
0.142036
0.165004
0.179726
0.211177
0.227248
0.262652
0.285368
0.316858
0.352445
0.373501
0.424002
0.434911
0.49414
0.5029
0.55514
0.573993
0.607601
0.645784
0.65943
0.714752
0.716354
0.775917
0.777405
0.823393
0.837408
0.854044
0.889101
0.871714
0.922744
0.887907
0.930927
0.911717
0.916344
0.940051
0.895304
0.958095
0.888308
0.952741
0.904601
0.926529
0.934511
0.897633
0.956556
0.886854
0.953174
0.904155
0.924238
0.938866
0.89239
0.960755
0.885966
0.950771
0.909936
0.917212
0.947444
0.8852
0.406494
0.344565
0.298276
0.262678
0.234307
0.211423
0.192369
0.176522
0.162862
0.151305
0.141033
0.132269
0.124292
0.117441
0.111107
0.105667
0.100565
0.0962375
0.0921582
0.0887794
0.0856448
0.0831703
0.0810889
0.0796427
0.0789127
0.0789607
0.0801077
0.0824718
0.0865267
0.092398
0.100898
0.111562
0.126222
0.143175
0.165695
0.189813
0.220153
0.250541
0.28803
0.323495
0.366349
0.405642
0.451661
0.495731
0.542232
0.588563
0.629856
0.677628
0.712568
0.759733
0.790822
0.832378
0.865858
0.895431
0.93686
0.95112
0.999399
1.00346
1.04992
1.0564
1.08987
1.1108
1.12518
1.16418
1.16193
1.21133
1.20195
1.2464
1.24409
1.26602
1.28334
1.2728
1.31212
1.2768
1.32206
1.28934
1.31113
1.31169
1.28965
1.33233
1.27541
1.33678
1.28086
1.32076
1.30345
1.29441
1.32839
1.27522
1.33796
1.27778
1.32309
1.30236
1.29358
1.33041
1.2729
1.33979
1.27719
1.32183
1.30635
1.28698
0.406442
0.344613
0.298179
0.26268
0.234165
0.21142
0.192272
0.176624
0.162915
0.151706
0.141496
0.133376
0.125741
0.120013
0.114562
0.111049
0.107792
0.106778
0.106235
0.108434
0.111617
0.118428
0.127231
0.140794
0.157963
0.181388
0.21004
0.245946
0.287726
0.335227
0.387182
0.443004
0.502836
0.565351
0.630099
0.692813
0.754743
0.812441
0.869378
0.920489
0.971838
1.01628
1.06161
1.09977
1.13725
1.17126
1.2005
1.23256
1.25423
1.28521
1.30221
1.33013
1.34837
1.36844
1.39333
1.40147
1.43345
1.4311
1.46543
1.46177
1.48924
1.49564
1.50864
1.53109
1.52808
1.56319
1.54977
1.58633
1.57436
1.59699
1.59994
1.59678
1.62158
1.5934
1.6317
1.59732
1.62549
1.61216
1.60786
1.63061
1.59184
1.64008
1.58978
1.63312
1.60386
1.61357
1.62556
1.59342
1.64077
1.58662
1.63744
1.60001
1.61615
1.62496
1.59224
1.64371
1.58304
1.64068
1.59893
1.61382
0.406254
0.344694
0.297921
0.262938
0.234569
0.212929
0.19464
0.18058
0.168898
0.160846
0.154749
0.152741
0.152835
0.157838
0.165688
0.179677
0.197706
0.223478
0.254715
0.295175
0.341998
0.398745
0.461713
0.534759
0.614111
0.70076
0.789669
0.880794
0.968074
1.04976
1.12489
1.19345
1.25524
1.30951
1.35759
1.39961
1.43789
1.47086
1.50249
1.52943
1.55734
1.58035
1.60482
1.62376
1.64314
1.65929
1.67321
1.68912
1.69814
1.7145
1.72029
1.73601
1.74244
1.75365
1.7653
1.7686
1.78742
1.78228
1.80607
1.79805
1.81987
1.81827
1.83048
1.84177
1.84051
1.86422
1.85181
1.88047
1.86554
1.88693
1.88157
1.88409
1.897
1.87763
1.90635
1.87626
1.9041
1.88481
1.89135
1.89934
1.87672
1.91033
1.87069
1.90967
1.87783
1.89711
1.89421
1.87981
1.91009
1.86884
1.91413
1.87333
1.90173
1.89171
1.88064
1.91206
1.86516
1.91907
1.86934
1.90373
0.405176
0.345725
0.300617
0.273011
0.251886
0.243175
0.237268
0.242491
0.256029
0.278344
0.310971
0.356596
0.413727
0.483928
0.564694
0.656441
0.755929
0.862584
0.971959
1.08382
1.19342
1.30255
1.40665
1.50958
1.60031
1.67813
1.74304
1.79694
1.84247
1.87961
1.91073
1.93713
1.95948
1.9784
1.99522
2.00937
2.02238
2.03269
2.04316
2.05079
2.06022
2.06638
2.07523
2.08054
2.08847
2.09421
2.09999
2.10687
2.10983
2.11809
2.11891
2.1279
2.12871
2.13565
2.13993
2.14148
2.15158
2.14653
2.16218
2.15343
2.17042
2.16487
2.17655
2.18028
2.18161
2.19602
2.18677
2.2077
2.19324
2.2121
2.20216
2.20866
2.21239
2.20148
2.22038
2.19705
2.22119
2.20055
2.21323
2.21081
2.20148
2.22133
2.19379
2.22487
2.19551
2.21862
2.20618
2.20575
2.22005
2.19382
2.22826
2.19167
2.22386
2.20235
2.20872
2.2198
2.19209
2.23235
2.18702
2.22857
0.402066
0.380585
0.398965
0.459855
0.520742
0.610059
0.695045
0.834047
0.986307
1.15952
1.35016
1.54894
1.74648
1.93373
2.10349
2.25056
2.37189
2.46739
2.53834
2.58927
2.62326
2.64671
2.66217
2.67355
2.68266
2.69035
2.6963
2.70095
2.7044
2.70663
2.70747
2.70699
2.70567
2.70351
2.70123
2.69854
2.69644
2.69366
2.69215
2.68935
2.68871
2.68612
2.68626
2.6842
2.68472
2.6836
2.68356
2.68385
2.68242
2.68435
2.68176
2.685
2.68222
2.68515
2.68431
2.6842
2.68748
2.68294
2.69105
2.68309
2.6942
2.68708
2.69634
2.69479
2.69732
2.70354
2.69761
2.71015
2.69838
2.71233
2.70117
2.70894
2.70645
2.70245
2.71212
2.69705
2.7146
2.69687
2.71093
2.70288
2.70298
2.71123
2.69588
2.7166
2.69414
2.71536
2.69941
2.70762
2.70938
2.69768
2.7183
2.69202
2.71987
2.69554
2.71184
2.70715
2.6986
2.71994
2.68896
2.72457
0.653116
1.46929
2.41302
3.06997
3.36106
3.39276
3.28072
3.10717
2.92905
2.77005
2.63156
2.51961
2.43482
2.37622
2.33924
2.32003
2.31268
2.31361
2.31817
2.32461
2.33045
2.33556
2.33943
2.34241
2.34496
2.34726
2.3495
2.35158
2.35353
2.35537
2.35695
2.35821
2.35901
2.35937
2.35935
2.35892
2.35833
2.35737
2.35652
2.35522
2.35428
2.35275
2.35188
2.35033
2.34959
2.34828
2.34757
2.34671
2.34579
2.34553
2.34429
2.34461
2.34317
2.34365
2.3425
2.34247
2.34241
2.34126
2.34286
2.34059
2.34349
2.34091
2.34384
2.3421
2.34331
2.34352
2.34196
2.34427
2.34035
2.34385
2.33949
2.34223
2.33983
2.33985
2.34109
2.33773
2.34214
2.33702
2.34188
2.33824
2.3402
2.3407
2.33811
2.3429
2.33706
2.34354
2.33782
2.34216
2.34028
2.33944
2.34329
2.33707
2.34491
2.33689
2.34389
2.33932
2.34055
2.34325
2.33667
2.34577
0.467599
8.13676
11.2347
12.1608
12.9934
12.664
12.0395
11.7495
11.2731
11.1039
11.2981
11.1828
10.6746
10.2541
9.70011
7.97924
4.94763
2.28438
0.819259
0.33953
0.0836259
0.138783
0.174433
0.00295126
0.4731
1.30616
1.92888
2.19951
2.20054
2.04791
1.7997
1.48802
1.15832
0.857133
0.610978
0.425639
0.294275
0.204618
0.144488
0.104853
0.0792712
0.0629922
0.0525996
0.0457673
0.0410286
0.0375244
0.0347937
0.0326182
0.0309129
0.0296445
0.0287702
0.028192
0.0277514
0.0272815
0.0266946
0.026002
0.0252779
0.0246086
0.024067
0.0236763
0.0234209
0.0232635
0.0231719
0.0231196
0.0230903
0.0230736
0.0230641
0.0230584
0.0230553
0.023053
0.0230521
0.023051
0.023051
0.0230502
0.0230506
0.02305
0.0230504
0.0230499
0.0230503
0.0230498
0.0230504
0.0230498
0.0230504
0.0230498
0.0230504
0.0230497
0.0230504
0.0230497
0.0230505
0.0230497
0.0230505
0.0230496
0.0230505
0.0230495
0.0230504
0.0230491
0.02305
0.0230483
0.0230489
0.0230461
1.56539
3.6354
8.03447
9.83441
11.0186
10.7964
10.2146
10.0898
9.72016
9.63422
9.88613
9.83468
9.36491
8.93383
8.36387
6.51908
3.5089
1.26826
0.397039
0.131553
0.081246
0.0874544
0.178789
0.0193159
0.176678
0.900582
1.56887
1.91437
1.97177
1.85033
1.61668
1.31496
0.999427
0.718086
0.49581
0.335696
0.227522
0.156946
0.111604
0.0829324
0.065045
0.0538975
0.0468091
0.0420852
0.0387016
0.0360695
0.0338849
0.0320309
0.0304975
0.0293086
0.0284628
0.0278931
0.0274641
0.02702
0.0264712
0.0258278
0.0251647
0.0245541
0.0240495
0.0236748
0.0234235
0.0232651
0.0231697
0.0231131
0.0230799
0.0230605
0.023049
0.0230423
0.0230383
0.0230358
0.0230346
0.0230335
0.0230333
0.0230327
0.0230329
0.0230325
0.0230327
0.0230324
0.0230327
0.0230324
0.0230327
0.0230324
0.0230327
0.0230324
0.0230327
0.0230324
0.0230327
0.0230323
0.0230327
0.0230323
0.0230327
0.0230323
0.0230327
0.0230322
0.0230326
0.023032
0.0230324
0.0230316
0.0230318
0.0230305
2.03013
1.68714
3.92343
5.88238
7.80621
8.0152
7.65441
7.85003
7.70452
7.80649
8.20666
8.2259
7.83639
7.45794
6.83542
4.74051
2.01792
0.470559
0.161845
0.0538525
0.104474
0.131545
0.215034
0.0659282
0.0325624
0.515953
1.17257
1.57971
1.69424
1.60836
1.39407
1.10884
0.816227
0.565667
0.379145
0.25296
0.171995
0.120975
0.0889885
0.0690638
0.056635
0.0487524
0.0435805
0.0400056
0.0373466
0.0351896
0.0333124
0.0316406
0.030197
0.0290371
0.0281901
0.0276163
0.0272014
0.0267977
0.0263069
0.0257263
0.0251253
0.0245697
0.0240983
0.0237291
0.0234679
0.0232964
0.0231889
0.023123
0.0230829
0.0230591
0.0230446
0.0230363
0.0230311
0.0230284
0.0230266
0.0230256
0.0230251
0.0230247
0.0230246
0.0230245
0.0230243
0.0230245
0.0230243
0.0230244
0.0230243
0.0230245
0.0230242
0.0230245
0.0230242
0.0230245
0.0230242
0.0230245
0.0230241
0.0230246
0.0230241
0.0230246
0.0230241
0.0230247
0.0230241
0.0230247
0.0230241
0.0230249
0.0230244
0.0230257
1.84837
1.53436
2.27039
2.32138
4.01989
4.50045
4.35043
4.98115
5.11352
5.4702
6.14205
6.23116
5.99697
5.75017
4.96359
2.65305
0.76906
0.0424579
0.0871652
0.0830075
0.151877
0.282812
0.314313
0.173657
0.0132977
0.222169
0.770781
1.20304
1.36801
1.31961
1.13018
0.871282
0.615715
0.413003
0.274581
0.186834
0.132106
0.0975185
0.0754827
0.0613804
0.0522294
0.0461326
0.0419291
0.0389058
0.0365958
0.0346822
0.0329747
0.0314054
0.0300019
0.028834
0.0279543
0.0273514
0.0269394
0.0265856
0.0261808
0.0256924
0.0251656
0.0246586
0.0242101
0.0238411
0.0235643
0.0233728
0.023247
0.0231674
0.0231172
0.0230869
0.0230678
0.023057
0.0230499
0.0230463
0.0230437
0.0230427
0.0230416
0.0230415
0.0230409
0.0230412
0.0230406
0.0230412
0.0230405
0.0230412
0.0230405
0.0230412
0.0230404
0.0230413
0.0230403
0.0230413
0.0230403
0.0230414
0.0230402
0.0230415
0.0230401
0.0230416
0.0230401
0.0230417
0.0230402
0.0230421
0.0230405
0.0230429
0.0230418
0.0230457
1.58601
1.33991
1.86035
1.19236
1.96502
2.03996
1.5341
2.25373
2.25833
2.70756
3.65495
3.73102
3.78566
3.67924
2.57493
0.753917
0.0871722
0.00658075
0.100492
0.179987
0.253835
0.561736
0.588005
0.366116
0.0693908
0.0506195
0.419898
0.810571
1.00386
0.989295
0.831248
0.615007
0.419415
0.281429
0.195174
0.141865
0.107287
0.0839901
0.0681767
0.0574325
0.0500477
0.0448565
0.0411142
0.0383418
0.0361961
0.0344122
0.0328084
0.0313045
0.0299167
0.0287159
0.0277722
0.0271055
0.0266659
0.0263468
0.0260343
0.0256585
0.0252216
0.0247662
0.0243388
0.0239734
0.0236866
0.023477
0.0233314
0.0232349
0.0231716
0.0231323
0.0231069
0.0230922
0.0230824
0.0230775
0.0230737
0.0230724
0.0230708
0.0230707
0.0230698
0.0230702
0.0230694
0.0230702
0.0230692
0.0230701
0.0230692
0.0230702
0.0230691
0.0230703
0.023069
0.0230703
0.0230689
0.0230704
0.0230689
0.0230705
0.0230688
0.0230706
0.0230688
0.0230708
0.0230689
0.0230713
0.0230694
0.0230725
0.0230712
0.0230764
1.28334
1.08914
1.44898
1.00864
1.25513
1.15977
0.767436
1.16413
0.63611
0.678739
1.30412
0.957851
1.47879
1.23724
0.197082
0.188382
0.0831477
0.0268846
0.108949
0.346969
0.510787
1.01561
1.15761
0.76607
0.293474
0.0251551
0.168316
0.456431
0.63735
0.643109
0.526736
0.378678
0.262595
0.190175
0.146151
0.116251
0.0938731
0.0769146
0.0644103
0.0553964
0.0489102
0.0441783
0.0406699
0.0380281
0.0359784
0.034285
0.0327644
0.0313177
0.0299409
0.0286974
0.0276686
0.0269041
0.0263923
0.0260576
0.0257943
0.0255086
0.0251609
0.024771
0.0243866
0.0240444
0.0237626
0.0235454
0.0233866
0.0232765
0.023202
0.0231545
0.0231234
0.0231052
0.0230931
0.0230868
0.0230821
0.0230803
0.0230784
0.0230782
0.0230772
0.0230776
0.0230767
0.0230775
0.0230765
0.0230774
0.0230765
0.0230775
0.0230764
0.0230775
0.0230763
0.0230776
0.0230763
0.0230776
0.0230762
0.0230777
0.0230762
0.0230778
0.0230762
0.023078
0.0230763
0.0230784
0.0230769
0.0230796
0.0230787
0.0230835
0.893474
0.796288
0.936009
0.800582
0.81911
0.658753
0.612426
0.502816
0.310603
0.422766
0.242954
0.0525112
0.0597055
0.0463777
0.0212351
0.0310355
0.0711096
0.0676532
0.226129
0.650369
1.04557
1.70856
2.04329
1.53491
0.758483
0.204047
0.0839899
0.221441
0.343002
0.35129
0.286713
0.216358
0.170158
0.143167
0.123338
0.105049
0.0881506
0.0738469
0.0626752
0.0543498
0.0482271
0.0436921
0.0402988
0.0377399
0.0357706
0.0341677
0.0327404
0.0313677
0.0300217
0.0287526
0.0276444
0.0267669
0.0261407
0.025724
0.0254341
0.0251803
0.0249003
0.0245844
0.0242635
0.023967
0.0237129
0.0235098
0.0233569
0.0232486
0.0231742
0.0231261
0.0230946
0.0230759
0.0230636
0.0230571
0.0230524
0.0230505
0.0230486
0.0230483
0.0230473
0.0230476
0.0230469
0.0230475
0.0230467
0.0230474
0.0230467
0.0230474
0.0230466
0.0230475
0.0230466
0.0230475
0.0230466
0.0230476
0.0230465
0.0230476
0.0230465
0.0230477
0.0230465
0.0230478
0.0230467
0.0230481
0.0230471
0.0230491
0.0230486
0.0230523
0.447501
0.431756
0.430857
0.435616
0.37054
0.306766
0.238146
0.14964
0.114553
0.0715275
0.0315128
0.0190402
0.0397698
0.0151871
0.000147249
0.0640652
0.117811
0.198078
0.51202
1.17563
1.87022
2.67411
3.11982
2.62283
1.59228
0.689886
0.22679
0.15308
0.18777
0.188038
0.163487
0.145464
0.138444
0.132481
0.12123
0.105486
0.0888923
0.0742911
0.0627567
0.0541329
0.0477957
0.0431301
0.0396838
0.0371384
0.0352378
0.0337473
0.0324593
0.0312244
0.029981
0.0287545
0.0276213
0.0266608
0.0259186
0.0253879
0.0250194
0.0247438
0.0244978
0.024246
0.0239914
0.0237522
0.0235445
0.0233775
0.0232516
0.0231626
0.0231015
0.023062
0.0230362
0.0230208
0.0230108
0.0230054
0.0230016
0.023
0.0229985
0.0229982
0.0229975
0.0229977
0.0229971
0.0229976
0.022997
0.0229975
0.022997
0.0229975
0.0229969
0.0229976
0.0229969
0.0229976
0.0229969
0.0229976
0.0229969
0.0229976
0.0229969
0.0229977
0.0229969
0.0229978
0.022997
0.022998
0.0229973
0.0229987
0.0229984
0.023001
0.117949
0.116261
0.122846
0.101598
0.0952794
0.0604323
0.032399
0.0132623
0.0276426
0.0367078
0.00710918
0.0230109
0.0491809
0.0120534
0.0608581
0.143892
0.21683
0.468637
1.05365
1.98258
2.90283
3.81123
4.28512
3.82745
2.6924
1.53077
0.742366
0.358424
0.209647
0.157163
0.147079
0.156437
0.165811
0.162916
0.146789
0.123719
0.100455
0.0808872
0.0660291
0.0553027
0.0476781
0.0422606
0.0384287
0.0357574
0.0339138
0.0326027
0.0315636
0.0305964
0.0295897
0.0285294
0.0274756
0.0265135
0.0257113
0.0250954
0.0246501
0.0243325
0.0240903
0.023879
0.0236803
0.0234977
0.0233418
0.0232185
0.0231272
0.0230638
0.023021
0.0229938
0.0229763
0.022966
0.0229593
0.0229558
0.0229533
0.0229522
0.0229513
0.0229511
0.0229506
0.0229507
0.0229504
0.0229507
0.0229503
0.0229506
0.0229503
0.0229506
0.0229503
0.0229506
0.0229502
0.0229507
0.0229502
0.0229507
0.0229502
0.0229507
0.0229502
0.0229507
0.0229502
0.0229508
0.0229503
0.0229509
0.0229505
0.0229513
0.0229511
0.0229528
0.0157401
0.0393798
0.0306772
0.0218605
0.0397677
0.0124726
0.062373
0.0198532
0.0255739
0.0884965
0.0133339
0.0867848
0.0832036
0.0596107
0.191069
0.30724
0.496897
1.01668
1.8727
2.94217
3.971
4.93658
5.44331
5.01626
3.84577
2.5401
1.53428
0.930197
0.618523
0.464318
0.391702
0.356598
0.327996
0.289666
0.240791
0.189398
0.143648
0.107565
0.0813902
0.06337
0.0512912
0.0432953
0.0380816
0.0347757
0.032751
0.031516
0.0306762
0.029941
0.0291425
0.0282367
0.027274
0.026346
0.0255347
0.0248834
0.0243956
0.0240451
0.0237924
0.0235965
0.0234322
0.0232913
0.0231767
0.0230893
0.023027
0.0229851
0.022958
0.0229413
0.0229311
0.0229252
0.0229217
0.0229198
0.0229186
0.0229181
0.0229177
0.0229175
0.0229174
0.0229174
0.0229173
0.0229174
0.0229172
0.0229174
0.0229172
0.0229174
0.0229172
0.0229174
0.0229172
0.0229174
0.0229172
0.0229174
0.0229172
0.0229174
0.0229171
0.0229175
0.0229171
0.0229175
0.0229171
0.0229175
0.0229172
0.0229177
0.0229175
0.0229185
0.00848675
0.0535735
0.0122743
0.0736223
0.0445278
0.0114252
0.120735
0.0360968
0.12317
0.120565
0.0857709
0.222967
0.162052
0.24672
0.484108
0.632537
1.03986
1.82754
2.80112
3.74523
4.80542
5.83184
6.36105
6.01929
4.92744
3.5798
2.44361
1.67681
1.22315
0.975346
0.839297
0.746309
0.656531
0.557253
0.452175
0.351211
0.263553
0.193325
0.140616
0.103035
0.0772803
0.0602176
0.0491915
0.0422105
0.0378522
0.0351
0.033221
0.0317174
0.0303145
0.0289283
0.0276012
0.0264197
0.0254501
0.0247104
0.0241792
0.0238129
0.0235638
0.0233876
0.0232551
0.0231507
0.0230713
0.0230139
0.0229756
0.0229512
0.0229369
0.0229286
0.0229243
0.0229219
0.0229209
0.0229204
0.0229202
0.0229201
0.0229201
0.0229201
0.0229201
0.0229201
0.02292
0.0229202
0.02292
0.0229202
0.0229199
0.0229203
0.0229198
0.0229204
0.0229198
0.0229205
0.0229196
0.0229206
0.0229195
0.0229207
0.0229194
0.0229209
0.0229193
0.0229211
0.0229192
0.0229213
0.0229193
0.0229219
0.0229199
0.0229233
0.104044
0.180028
0.0792795
0.199044
0.126481
0.200512
0.253053
0.223614
0.380473
0.305222
0.389309
0.500175
0.449193
0.712726
0.959614
1.11742
1.6998
2.57536
3.37462
4.18547
5.2057
6.1992
6.7441
6.54216
5.63762
4.39684
3.26012
2.42831
1.89253
1.56431
1.34905
1.1802
1.02155
0.864277
0.713291
0.57571
0.455887
0.355434
0.274163
0.210604
0.162364
0.126768
0.101006
0.0825118
0.0691537
0.0592911
0.0516651
0.0453965
0.0400598
0.0355505
0.0318918
0.0290801
0.027037
0.0256292
0.0247006
0.0241091
0.0237434
0.0235231
0.0233921
0.0233165
0.0232769
0.0232611
0.0232591
0.0232643
0.0232716
0.0232794
0.0232852
0.0232906
0.0232932
0.0232967
0.0232968
0.0232994
0.0232981
0.0233007
0.0232984
0.0233014
0.0232981
0.023302
0.0232977
0.0233025
0.0232971
0.0233033
0.0232963
0.0233041
0.0232954
0.0233052
0.0232942
0.0233065
0.0232929
0.023308
0.0232916
0.0233096
0.0232904
0.023312
0.0232896
0.0233159
0.023291
0.0233241
0.0233002
0.0233442
0.513829
0.472145
0.479862
0.537494
0.483688
0.628982
0.60438
0.689613
0.791137
0.726671
0.901268
0.905494
0.930081
1.26527
1.35965
1.5557
2.28497
3.09644
3.62159
4.24559
5.17977
6.1025
6.64261
6.57626
5.89697
4.85844
3.82502
3.01607
2.45167
2.06096
1.76761
1.52554
1.31123
1.11575
0.939648
0.785159
0.652113
0.53931
0.44506
0.368094
0.306809
0.258605
0.220623
0.190042
0.164253
0.141186
0.119751
0.0996132
0.0811692
0.0652175
0.0524351
0.0429932
0.0364564
0.0321649