/*--------------------------------*- C++ -*----------------------------------*\
| =========                 |                                                 |
| \\      /  F ield         | OpenFOAM: The Open Source CFD Toolbox           |
|  \\    /   O peration     | Version:  v2012                                 |
|   \\  /    A nd           | Website:  www.openfoam.com                      |
|    \\/     M anipulation  |                                                 |
\*---------------------------------------------------------------------------*/
FoamFile
{
    version     2.0;
    format      ascii;
    class       volScalarField;
    location    "0.064";
    object      nut.air;
}
// * * * * * * * * * * * * * * * * * * * * * * * * * * * * * * * * * * * * * //

dimensions      [0 2 -1 0 0 0 0];


internalField   nonuniform List<scalar> 
5600
(
1.31513e-05
2.99238e-05
5.00262e-05
6.50479e-05
7.30321e-05
7.56105e-05
7.50264e-05
7.28185e-05
7.01513e-05
6.7696e-05
6.55242e-05
6.37422e-05
6.2435e-05
6.16034e-05
6.12033e-05
6.11468e-05
6.13442e-05
6.16915e-05
6.21131e-05
6.25363e-05
6.29363e-05
6.32751e-05
6.35698e-05
6.37976e-05
6.40025e-05
6.41583e-05
6.43269e-05
6.44394e-05
6.45917e-05
6.4667e-05
6.48203e-05
6.48579e-05
6.50075e-05
6.49993e-05
6.51481e-05
6.50906e-05
6.52416e-05
6.51501e-05
6.5294e-05
6.5198e-05
6.53071e-05
6.52496e-05
6.52893e-05
6.53056e-05
6.52595e-05
6.53524e-05
6.52492e-05
6.53629e-05
6.52912e-05
6.53202e-05
6.53912e-05
6.52382e-05
6.55082e-05
6.51724e-05
6.55711e-05
6.51846e-05
6.55306e-05
6.5305e-05
6.54013e-05
6.54937e-05
6.52615e-05
6.56511e-05
6.52235e-05
6.56644e-05
6.53551e-05
6.5485e-05
6.56429e-05
6.51892e-05
6.59456e-05
6.49782e-05
6.6033e-05
6.50643e-05
6.57514e-05
6.55019e-05
6.51949e-05
6.6073e-05
6.4725e-05
6.63483e-05
6.47333e-05
6.60513e-05
6.52643e-05
6.53801e-05
6.59102e-05
6.49276e-05
6.60275e-05
6.52127e-05
6.53643e-05
6.61144e-05
6.44001e-05
6.69389e-05
6.39041e-05
6.70349e-05
6.41573e-05
6.64404e-05
6.46571e-05
6.64335e-05
6.29169e-05
7.13499e-05
5.14269e-05
9.12176e-05
0.000160786
0.000142319
0.000113624
0.00010239
0.000100766
0.000107291
0.000116945
0.000134119
0.000149179
0.000162938
0.000180146
0.000199832
0.000221137
0.00024323
0.000265415
0.00028699
0.000307486
0.000326338
0.000343494
0.000358672
0.000372262
0.000384068
0.000394883
0.000404279
0.000413359
0.000421152
0.000429162
0.000435499
0.000442646
0.000447614
0.000454293
0.00045764
0.000463821
0.000465474
0.000471244
0.000471388
0.00047696
0.000476151
0.000481222
0.000480402
0.000484151
0.000484497
0.000486077
0.000488371
0.000487569
0.000491548
0.0004897
0.000493395
0.000493212
0.000493567
0.000497881
0.000492797
0.000502236
0.000492823
0.000504478
0.000495261
0.000503601
0.00050043
0.000500622
0.000506561
0.000498112
0.000510646
0.000499183
0.000510254
0.000505256
0.000504924
0.000514888
0.000497804
0.000522799
0.000494764
0.000522909
0.000500728
0.000512761
0.000515264
0.000497269
0.000529659
0.000487745
0.000532548
0.000492661
0.000520105
0.000509874
0.000501456
0.000525111
0.000494031
0.000522232
0.000507023
0.000500892
0.000531873
0.000478459
0.000546875
0.000473187
0.000539615
0.000489104
0.000515076
0.000512388
0.000501705
0.000498467
0.000553591
0.000406134
0.000613927
0.000158637
0.000156078
0.000150482
0.000143783
0.000134735
0.000123899
0.000114768
0.00010889
0.000106728
0.000108502
0.00011362
0.000121383
0.000132004
0.000145183
0.000161265
0.0001799
0.000201304
0.000224939
0.000251045
0.000278864
0.000309111
0.000340891
0.000375862
0.000411808
0.000447927
0.000477371
0.000508493
0.000533971
0.000561945
0.000578818
0.00060029
0.000611559
0.000630992
0.000637991
0.000656866
0.000660654
0.000678613
0.000680604
0.000696244
0.000699003
0.000710133
0.000716568
0.000721458
0.000732584
0.000732208
0.000745465
0.000744339
0.000753459
0.000759035
0.000756989
0.000774768
0.000759352
0.000787731
0.00076531
0.000793755
0.000777807
0.000792131
0.00079516
0.000787062
0.000811606
0.000786073
0.000820106
0.000796021
0.000816221
0.000817894
0.000802537
0.000843856
0.000789711
0.000859419
0.00079234
0.000851368
0.000817901
0.000820952
0.000856354
0.000786969
0.000883028
0.000776171
0.000875304
0.000802065
0.000835906
0.000846451
0.000796517
0.000870833
0.000793558
0.000849202
0.000834534
0.000797952
0.000882169
0.00076296
0.000892466
0.000775388
0.000855533
0.0008275
0.000798207
0.000875513
0.000777016
0.000854391
0.000836978
0.000755361
0.000858364
0.000159221
0.000156906
0.000154733
0.000152545
0.00015029
0.000147421
0.000144107
0.000140273
0.000136395
0.000132352
0.000128955
0.000124872
0.000121817
0.000118855
0.000117988
0.000117936
0.000121049
0.000125496
0.0001341
0.000144018
0.00015903
0.000175018
0.000197425
0.000220031
0.000251005
0.000279832
0.000318235
0.000350048
0.000391346
0.000417973
0.000457415
0.000480278
0.000521028
0.000539605
0.000580769
0.000594777
0.00063501
0.000646954
0.000683109
0.000697328
0.000725373
0.000746907
0.000762448
0.000792867
0.00079617
0.000824419
0.000827613
0.000843426
0.000862598
0.00085466
0.000897173
0.0008658
0.000923688
0.000885596
0.000935874
0.000917364
0.000934868
0.00095523
0.00093038
0.000987006
0.000936822
0.00100039
0.000965299
0.000990572
0.00101388
0.000966815
0.00106361
0.000952187
0.00108564
0.000971779
0.00106098
0.00103079
0.00100128
0.00110184
0.000947363
0.00113689
0.000945984
0.00110468
0.00100802
0.0010264
0.00108643
0.000965849
0.00111262
0.000979801
0.00105858
0.0010592
0.000972773
0.00112613
0.000934717
0.00112003
0.000975333
0.00105124
0.00105621
0.00097792
0.00109768
0.000984237
0.00103
0.00109188
0.000918351
0.0011179
0.000159359
0.000157176
0.000155343
0.000153581
0.00015213
0.000150561
0.00014929
0.000147708
0.000146485
0.000144757
0.000143595
0.000141577
0.000140483
0.000137996
0.000137111
0.000133953
0.000133672
0.000129533
0.000130059
0.000124516
0.000127849
0.000121466
0.000129996
0.000123942
0.000140228
0.000135777
0.000161806
0.000159699
0.000196605
0.000196673
0.000244047
0.000245434
0.000302098
0.000305333
0.000367623
0.000372165
0.00042342
0.000431196
0.00047605
0.000493771
0.00052493
0.000558337
0.000572899
0.000620137
0.000624769
0.000672212
0.000684517
0.000710241
0.000751696
0.0007379
0.000817226
0.000768111
0.00086799
0.000814839
0.000895656
0.000880644
0.000901406
0.000952514
0.00090445
0.00100954
0.000928942
0.0010337
0.000992107
0.00102076
0.00108578
0.000989369
0.00117341
0.000980014
0.00120342
0.00103158
0.00115215
0.0011444
0.00105376
0.00126059
0.000977646
0.0012928
0.000996944
0.0012199
0.00111421
0.00109306
0.00123704
0.00101104
0.0012511
0.00105611
0.00115214
0.00118821
0.00102133
0.00126187
0.000984963
0.001232
0.00105895
0.00114113
0.0011664
0.00105428
0.00118851
0.0010953
0.00107874
0.0012336
0.000966894
0.00122252
0.000159383
0.000157268
0.000155487
0.000153842
0.000152463
0.000151103
0.000149984
0.000148802
0.000147866
0.000146765
0.000146001
0.000144866
0.000144335
0.000142993
0.000142869
0.000140962
0.000141761
0.000138443
0.000141289
0.00013485
0.000141947
0.000129429
0.000144521
0.000121439
0.000149914
0.00011071
0.000158154
9.88748e-05
0.000168859
9.08973e-05
0.000180759
9.31297e-05
0.00019351
0.000110296
0.000207772
0.000144893
0.000224253
0.000195971
0.000243735
0.00026
0.000271159
0.000329023
0.000313936
0.000392036
0.000379862
0.000435184
0.000450415
0.000459811
0.000528936
0.000481698
0.000601603
0.000519076
0.00065068
0.000586036
0.000671821
0.000676026
0.000672679
0.000769566
0.000684869
0.0008377
0.000733853
0.000857813
0.0008344
0.000832289
0.000967794
0.000798626
0.00107861
0.000813672
0.00110188
0.000916446
0.00101517
0.00108115
0.000886511
0.00122055
0.000817496
0.00123782
0.000883374
0.0011093
0.00105303
0.000937796
0.00118718
0.000867918
0.00117222
0.00095742
0.00102387
0.00111819
0.000890996
0.00118588
0.000888886
0.00112284
0.00098241
0.00101549
0.00107008
0.000959951
0.0010626
0.00102295
0.000948977
0.00113502
0.000887472
0.0010821
0.000159386
0.000157305
0.000155523
0.000153934
0.000152548
0.000151268
0.00015014
0.000149067
0.000148125
0.00014718
0.000146405
0.000145503
0.000144931
0.00014394
0.000143713
0.000142345
0.000142873
0.000140467
0.000142675
0.000137888
0.000143607
0.0001339
0.000146458
0.000127459
0.000152281
0.000117217
0.000162119
0.000101961
0.000176208
8.20819e-05
0.000192441
6.22052e-05
0.000204437
5.34862e-05
0.00020125
7.01601e-05
0.000173606
0.000116995
0.000127381
0.000177177
8.98192e-05
0.000219418
9.32575e-05
0.00022116
0.000151917
0.000189731
0.000249499
0.000156383
0.000343098
0.000155325
0.000402242
0.000208936
0.000410793
0.000315979
0.000382804
0.000457292
0.000373612
0.000554818
0.000398161
0.000600912
0.000472933
0.000585167
0.000599468
0.00053083
0.000752788
0.00049817
0.000852496
0.000543857
0.000836997
0.000693774
0.000716009
0.000894384
0.000586036
0.00102522
0.000552428
0.00099517
0.000669266
0.000821803
0.000865866
0.000650049
0.000975233
0.000620378
0.0009143
0.000742883
0.000755225
0.000887967
0.00066047
0.000911681
0.000694409
0.000841327
0.000774101
0.000773095
0.000815968
0.000760788
0.000790133
0.000815965
0.000722219
0.000861077
0.00072043
0.000804331
0.000159387
0.000157319
0.000155536
0.000153967
0.000152579
0.000151325
0.000150194
0.000149152
0.000148206
0.000147308
0.000146508
0.000145699
0.000145041
0.00014425
0.000143781
0.000142883
0.000142754
0.000141486
0.000142046
0.000139887
0.000141834
0.000137808
0.000142419
0.000134835
0.000144223
0.000130423
0.000147684
0.000124081
0.000152869
0.000115988
0.00015878
0.000108169
0.000162542
0.000105791
0.000159155
0.000116189
0.000142611
0.000142282
0.00011045
0.000174254
7.52043e-05
0.000190626
7.42734e-05
0.000167436
0.000135347
9.43011e-05
0.000212435
3.58779e-05
0.000213079
3.78075e-05
0.000304012
6.89802e-05
0.00025499
0.000130351
9.93333e-05
0.000312423
8.01847e-05
0.0003997
7.76543e-05
0.00036168
0.000188851
0.000261642
0.000371342
0.000159423
0.000519761
0.000141944
0.000562924
0.000261183
0.0004997
0.000476457
0.000376119
0.000670698
0.000275217
0.00074458
0.000307872
0.000670087
0.000465712
0.000507559
0.000633118
0.000392421
0.000674676
0.000407878
0.000600539
0.000520515
0.000486717
0.000596025
0.000454916
0.000574116
0.000498375
0.00054432
0.000535585
0.00052738
0.000539048
0.000540779
0.00051823
0.000571988
0.000501223
0.000559257
0.000525471
0.000534221
0.000159388
0.000157324
0.000155543
0.00015398
0.000152592
0.000151346
0.000150217
0.000149184
0.000148238
0.000147356
0.000146547
0.000145771
0.000145077
0.000144368
0.000143786
0.000143097
0.000142655
0.000141911
0.000141684
0.000140757
0.000140896
0.000139562
0.000140347
0.000138228
0.000140128
0.000136625
0.000140345
0.000134646
0.000141014
0.000132375
0.00014185
0.000130365
0.000142023
0.000129835
0.00014016
0.000132278
0.000134988
0.000138042
0.000126976
0.000144537
0.000120449
0.000146445
0.000122683
0.000138596
0.000136417
0.000119559
0.000153556
9.85628e-05
0.000161664
9.17907e-05
0.000162721
0.000110599
0.000147489
0.000145272
9.23623e-05
0.000186293
4.98514e-05
0.000206044
5.65968e-05
0.000187643
0.000138128
0.000115788
0.000216665
1.56029e-05
0.000248952
2.20231e-05
0.000236872
0.000146977
0.000192684
0.000246942
0.000129633
0.000293821
0.000103142
0.000297051
0.000170414
0.000269984
0.000245156
0.000226227
0.000274696
0.00020861
0.000265847
0.000238146
0.000241964
0.000256443
0.000234922
0.000243824
0.000257496
0.000221408
0.000268272
0.000220193
0.000257884
0.000232806
0.000241267
0.000252614
0.000214194
0.000276599
0.000205986
0.000265257
0.000221491
0.000256877
0.000159388
0.000157326
0.000155546
0.000153985
0.000152599
0.000151354
0.000150228
0.000149198
0.000148252
0.000147375
0.000146564
0.0001458
0.000145095
0.000144412
0.000143796
0.00014317
0.000142638
0.000142042
0.000141598
0.000141005
0.000140664
0.000140037
0.000139829
0.000139113
0.000139096
0.000138206
0.000138475
0.000137289
0.000137967
0.000136373
0.000137513
0.000135553
0.000136951
0.000135042
0.000136028
0.000135072
0.000134575
0.000135637
0.000132825
0.000136196
0.000131607
0.000135763
0.000131913
0.000133662
0.00013383
0.000130461
0.000135919
0.000128104
0.000136202
0.000128315
0.000134114
0.000130864
0.00013038
0.000134434
0.000125972
0.000136404
0.000126492
0.000132411
0.000135826
0.000120217
0.000149201
0.000107291
0.000151047
0.000115455
0.000132386
0.000151516
0.000104098
0.00017608
9.09146e-05
0.000164597
0.000118155
0.00013177
0.000173866
0.000100203
0.000199864
8.88432e-05
0.000177741
0.000116479
0.000134075
0.00017277
9.36266e-05
0.000203618
7.85022e-05
0.000188589
0.000103434
0.000149014
0.000150631
0.000109561
0.000183397
9.03411e-05
0.000186299
9.60112e-05
0.000167439
0.000124495
0.000135308
0.00016118
0.000103105
0.000182913
7.21331e-05
0.000203299
0.000159388
0.000157326
0.000155546
0.000153985
0.000152599
0.000151355
0.000150228
0.000149198
0.000148252
0.000147376
0.000146564
0.000145801
0.000145093
0.000144415
0.000143791
0.000143178
0.000142625
0.000142061
0.000141571
0.000141045
0.000140609
0.000140113
0.000139725
0.000139254
0.000138908
0.000138452
0.000138156
0.000137695
0.000137465
0.000136975
0.00013682
0.00013631
0.000136183
0.000135734
0.000135512
0.00013527
0.000134796
0.000134892
0.000134094
0.000134494
0.00013354
0.000133923
0.000133274
0.000133089
0.00013328
0.000132173
0.000133159
0.000131799
0.000132104
0.000132859
0.000129398
0.000135646
0.000125473
0.000138538
0.000123156
0.000137421
0.000127819
0.000127799
0.000142727
0.000110091
0.000160335
9.53875e-05
0.000163228
0.000103813
0.000141168
0.000142454
0.000104905
0.000182161
8.19251e-05
0.00018731
9.58395e-05
0.000156866
0.000143288
0.000115421
0.000191964
8.79483e-05
0.000206603
8.71869e-05
0.000181887
0.000114379
0.000141459
0.000159927
0.000108565
0.000196568
9.06786e-05
0.000199539
8.713e-05
0.000178329
0.000106245
0.000145436
0.000163026
0.000102343
0.000213086
5.75855e-05
0.00021326
4.01108e-05
0.000184888
0.000110035
0.000122244
0.000216535
0.000159387
0.000157324
0.000155543
0.00015398
0.000152592
0.000151346
0.000150217
0.000149185
0.000148237
0.000147359
0.000146543
0.000145778
0.000145066
0.000144387
0.000143757
0.000143144
0.000142582
0.000142023
0.000141517
0.000141001
0.000140543
0.000140065
0.000139644
0.000139201
0.000138812
0.000138396
0.000138041
0.000137633
0.000137336
0.000136896
0.000136699
0.000136176
0.000136119
0.000135481
0.000135586
0.000134814
0.00013509
0.000134192
0.000134602
0.000133664
0.000134076
0.000133285
0.000133508
0.000133008
0.00013309
0.000132615
0.000133108
0.000132023
0.000133378
0.000132101
0.000132507
0.000135122
0.000128515
0.000142908
0.000121707
0.00015241
0.000118254
0.000154718
0.000128731
0.000144206
0.00015602
0.000128358
0.000184683
0.00012644
0.00019642
0.000152429
0.000193934
0.000198189
0.000193372
0.000240575
0.00020381
0.000264149
0.00022144
0.000270742
0.000237582
0.000268867
0.000250327
0.000261147
0.000264328
0.000246522
0.000281185
0.000227861
0.000292298
0.000218953
0.000283896
0.000238305
0.000251774
0.00028291
0.000209057
0.000315427
0.000190813
0.000299018
0.000234824
0.000234593
0.000323445
0.000157412
0.000372777
0.000148259
0.000304944
0.000270549
0.000159386
0.000157321
0.000155535
0.00015397
0.000152577
0.000151327
0.000150192
0.000149157
0.0001482
0.000147318
0.000146493
0.000145724
0.000145001
0.000144316
0.000143674
0.000143057
0.000142477
0.000141916
0.000141387
0.000140872
0.000140387
0.000139904
0.000139466
0.000138997
0.00013861
0.000138144
0.000137815
0.000137319
0.000137109
0.000136464
0.000136554
0.000135521
0.000136199
0.00013446
0.0001361
0.000133271
0.000136252
0.000132184
0.000136368
0.000131854
0.000135852
0.000133292
0.000134097
0.00013717
0.000132007
0.000142528
0.00013297
0.000146631
0.000141668
0.000148072
0.000159528
0.000150372
0.000182116
0.000161792
0.000203048
0.000189251
0.000220996
0.000230606
0.000240291
0.000274611
0.000268691
0.000313559
0.00031228
0.000351892
0.000369797
0.000396937
0.000433565
0.000447528
0.000493812
0.000495681
0.000542374
0.00053028
0.000570518
0.000553482
0.000567682
0.000581433
0.000550463
0.000605182
0.000537365
0.000609003
0.000545082
0.000587215
0.000574627
0.000553838
0.00060497
0.000532621
0.000610966
0.000542111
0.000584103
0.000581647
0.000537599
0.000619069
0.000521887
0.000615294
0.000546209
0.000567319
0.000595535
0.000522873
0.0006212
0.000522469
0.00015938
0.000157314
0.000155513
0.000153947
0.000152536
0.000151283
0.000150125
0.000149086
0.0001481
0.000147216
0.000146352
0.000145579
0.000144813
0.000144116
0.000143425
0.000142793
0.00014215
0.000141572
0.000140966
0.000140424
0.000139854
0.000139315
0.000138804
0.000138223
0.000137788
0.000137157
0.00013677
0.000136091
0.000135848
0.000134947
0.000135254
0.000133768
0.000135257
0.000132775
0.000136329
0.000132759
0.000139458
0.000135396
0.000145617
0.000143169
0.000155942
0.000158536
0.000171688
0.000183124
0.000194448
0.000216107
0.000224668
0.000254519
0.000264095
0.000295942
0.000313909
0.000339348
0.00037284
0.000386779
0.000436674
0.000442172
0.000495056
0.00049443
0.000534627
0.000544855
0.000568965
0.000598663
0.000606044
0.000653808
0.000651844
0.000705661
0.000705719
0.000747688
0.000761798
0.000775727
0.000811066
0.000792907
0.000842553
0.000808518
0.000849284
0.000831142
0.000834751
0.000857685
0.000815216
0.000874314
0.000808894
0.000869347
0.000824327
0.00084493
0.000852702
0.000818149
0.000873918
0.000808453
0.000870955
0.00082476
0.000843919
0.000857649
0.000814036
0.000878836
0.000807812
0.000869448
0.000830085
0.00083771
0.000865442
0.000805658
0.000159364
0.000157299
0.000155452
0.000153888
0.000152414
0.000151161
0.000149921
0.000148875
0.000147771
0.000146875
0.000145843
0.000145045
0.000144064
0.000143307
0.000142353
0.000141622
0.000140657
0.000139915
0.000138885
0.000138075
0.000136978
0.000136051
0.000134974
0.000133971
0.000133052
0.000132075
0.000131603
0.000131539
0.000132541
0.000134588
0.000138808
0.000144274
0.000153368
0.00016339
0.000178283
0.000193089
0.000213367
0.000232158
0.000257476
0.000279991
0.000309629
0.000336014
0.000368754
0.0004
0.000427726
0.000453794
0.000476993
0.000506403
0.000526999
0.000558356
0.000578551
0.000608289
0.000633076
0.000656075
0.000689691
0.000703206
0.000744395
0.0007511
0.000792653
0.000802018
0.00083447
0.00085668
0.000874308
0.000913001
0.000916613
0.000965364
0.000961982
0.00100592
0.00100723
0.00103014
0.00104744
0.0010402
0.00107624
0.00104624
0.00108692
0.00105862
0.0010784
0.00107845
0.00106078
0.00109649
0.00104892
0.00110117
0.00105365
0.00108821
0.00107317
0.00106641
0.00109478
0.00105028
0.00110373
0.00105194
0.00109156
0.00107295
0.00106667
0.00109712
0.00104868
0.00110618
0.00105153
0.00109088
0.00107648
0.00105954
0.000159317
0.000157243
0.000155265
0.000153685
0.000152009
0.0001507
0.000149113
0.000147879
0.000146214
0.000144978
0.000143184
0.000141876
0.000139849
0.000138416
0.000136172
0.000134652
0.000132274
0.000130588
0.000128031
0.000126876
0.000125447
0.000126289
0.000127919
0.000132673
0.00013943
0.000149959
0.00016323
0.000180466
0.000200805
0.000224416
0.00025087
0.000280076
0.000312144
0.000346174
0.000379074
0.000407931
0.000437685
0.000466285
0.000496194
0.000524105
0.000554198
0.000581573
0.000611549
0.000638387
0.000666625
0.000693313
0.000718547
0.000745557
0.000766922
0.000794145
0.000812844
0.000839067
0.000858037
0.000879811
0.000903209
0.000916247
0.000944543
0.000949922
0.000980608
0.000984591
0.00101175
0.00102271
0.00103967
0.0010623
0.00106717
0.00109877
0.00109461
0.00112705
0.00112149
0.00114301
0.00114691
0.00114734
0.00116694
0.00114738
0.00117691
0.00115151
0.00117389
0.00116346
0.00116129
0.00117768
0.00114979
0.00118537
0.00114829
0.00118061
0.00115868
0.00116629
0.00117495
0.00115175
0.00118657
0.00114636
0.001183
0.00115593
0.00116678
0.00117456
0.0011509
0.00118899
0.00114335
0.00118447
0.00115481
0.00116319
0.000159144
0.000157021
0.000154601
0.000152702
0.000150083
0.000147572
0.000143735
0.000140401
0.000135857
0.000132637
0.000128487
0.000125238
0.000121583
0.00011991
0.000118692
0.000120404
0.000123472
0.000130239
0.000138989
0.000151817
0.000167064
0.000186834
0.000209512
0.000237146
0.000267989
0.000302612
0.000338967
0.000377388
0.000411081
0.000444343
0.000476906
0.00050881
0.000539948
0.000569715
0.000598466
0.000625941
0.000652531
0.000677554
0.000702216
0.000725089
0.000748317
0.000769291
0.000790793
0.00080868
0.000824258
0.000838138
0.000850904
0.000864334
0.000874383
0.000887792
0.000895914
0.000908702
0.000916794
0.000927024
0.000937364
0.00094306
0.000956754
0.000957805
0.000973608
0.000973091
0.000987477
0.000990254
0.000999302
0.00100859
0.00101038
0.00102567
0.00102155
0.00103864
0.00103315
0.00104557
0.00104496
0.00104672
0.00105538
0.00104536
0.0010614
0.00104622
0.00106052
0.00105179
0.00105387
0.00105993
0.00104654
0.0010654
0.00104413
0.00106427
0.0010487
0.00105697
0.0010577
0.00104782
0.00106557
0.00104286
0.00106647
0.00104648
0.00105875
0.00105696
0.00104742
0.00106723
0.00104039
0.00106913
0.00104465
0.00105851
0.000158455
0.000156339
0.000150151
0.000144101
0.000134331
0.000124097
0.000114818
0.000109841
0.000108374
0.000111311
0.000117005
0.000125896
0.000137209
0.000151663
0.000168621
0.000188665
0.000211093
0.000236351
0.000263512
0.000293241
0.000324626
0.000359059
0.000395272
0.000433595
0.000465689
0.000496442
0.00052542
0.000552686
0.000576635
0.00059588
0.000612917
0.000628093
0.000642005
0.000654788
0.000666666
0.000677468
0.000687611
0.000696681
0.000705503
0.000713212
0.000721161
0.000727866
0.000735112
0.000741069
0.000747526
0.00075305
0.000758366
0.000763809
0.000767836
0.000773429
0.000776403
0.000781969
0.000784656
0.00078926
0.00079287
0.000795362
0.000800816
0.000800768
0.000807973
0.000806493
0.000813905
0.000813447
0.000818695
0.000821359
0.000822721
0.000828982
0.00082649
0.000834821
0.000830511
0.000837768
0.000835135
0.000837678
0.00083987
0.000835995
0.000843333
0.000835133
0.000843795
0.000836907
0.000840957
0.000840856
0.000836825
0.00084455
0.000834311
0.000845479
0.000835232
0.000842868
0.000839253
0.000838088
0.000844139
0.000834009
0.000846644
0.000833728
0.000844511
0.000838018
0.000838749
0.000844368
0.000832982
0.00084832
0.00083189
0.000845771
0.00016024
0.000142829
0.000113667
0.000103956
0.000102099
0.000110461
0.000120023
0.00014032
0.000152898
0.000167601
0.000185583
0.000205875
0.00022758
0.00024996
0.000272223
0.00029383
0.000314094
0.000332795
0.000349517
0.000364514
0.000377661
0.000389408
0.0003999
0.0004094
0.000418216
0.000426295
0.000433773
0.000440532
0.000446806
0.000452591
0.000457837
0.000462523
0.000466627
0.000470197
0.000473329
0.000476039
0.000478496
0.000480585
0.000482578
0.000484224
0.000485925
0.000487209
0.000488723
0.000489766
0.00049117
0.000492213
0.000493424
0.000494552
0.000495421
0.00049675
0.000497231
0.000498731
0.000498999
0.000500372
0.000500817
0.000501585
0.000502732
0.000502502
0.000504601
0.000503585
0.000506227
0.000505187
0.000507474
0.000507333
0.000508264
0.000509631
0.000508751
0.00051143
0.000509242
0.000512306
0.000510131
0.00051208
0.000511502
0.000511043
0.00051292
0.000510062
0.000513578
0.000510053
0.000512992
0.000511251
0.000511456
0.000512935
0.000509978
0.00051403
0.000509545
0.000513844
0.000510487
0.000512316
0.000512432
0.000510253
0.000514269
0.000509031
0.000514668
0.000509623
0.000513137
0.000511896
0.000510439
0.000514555
0.000508285
0.000515569
1.31365e-05
2.99482e-05
5.0058e-05
6.50344e-05
7.28718e-05
7.53216e-05
7.4603e-05
7.22695e-05
6.95971e-05
6.7137e-05
6.49398e-05
6.31768e-05
6.19107e-05
6.11447e-05
6.08089e-05
6.08231e-05
6.10696e-05
6.14604e-05
6.19004e-05
6.23403e-05
6.27361e-05
6.30766e-05
6.33622e-05
6.35919e-05
6.37911e-05
6.39652e-05
6.41217e-05
6.42609e-05
6.43852e-05
6.45009e-05
6.4605e-05
6.46978e-05
6.47769e-05
6.48417e-05
6.48945e-05
6.49348e-05
6.4968e-05
6.49901e-05
6.50114e-05
6.50208e-05
6.50358e-05
6.5036e-05
6.50483e-05
6.50426e-05
6.50542e-05
6.50506e-05
6.50601e-05
6.50635e-05
6.50654e-05
6.50806e-05
6.50715e-05
6.50991e-05
6.50816e-05
6.51118e-05
6.50982e-05
6.5114e-05
6.5125e-05
6.51103e-05
6.51608e-05
6.51129e-05
6.51967e-05
6.51361e-05
6.52208e-05
6.51802e-05
6.52217e-05
6.52332e-05
6.52057e-05
6.5275e-05
6.51874e-05
6.529e-05
6.51868e-05
6.52707e-05
6.52137e-05
6.52255e-05
6.526e-05
6.51771e-05
6.52958e-05
6.51599e-05
6.52911e-05
6.51909e-05
6.52458e-05
6.52541e-05
6.51871e-05
6.53107e-05
6.51539e-05
6.53259e-05
6.51697e-05
6.52883e-05
6.52326e-05
6.52138e-05
6.53117e-05
6.51473e-05
6.53557e-05
6.51384e-05
6.53297e-05
6.52013e-05
6.52412e-05
6.53089e-05
6.51456e-05
6.54033e-05
4.29866e-05
0.00119081
0.00232868
0.00313899
0.00391002
0.00424968
0.00441939
0.00466297
0.00460904
0.00466861
0.00481959
0.00498863
0.00498151
0.004947
0.00500984
0.00444751
0.0029811
0.00171579
0.000966448
0.000624723
0.00029482
0.000314924
0.000616868
6.74851e-06
0.000608511
0.00139748
0.00199782
0.00234607
0.00248116
0.00246052
0.00230731
0.00204623
0.00173271
0.00142343
0.00114825
0.000915913
0.000727065
0.000578459
0.000464263
0.000378623
0.000316264
0.000272101
0.000241261
0.000219501
0.000203571
0.000191299
0.000181408
0.00017325
0.00016658
0.000161323
0.00015738
0.000154443
0.000151991
0.000149473
0.000146611
0.00014345
0.00014026
0.000137345
0.000134975
0.000133233
0.000132067
0.000131327
0.000130883
0.000130621
0.000130471
0.000130384
0.000130334
0.000130305
0.000130289
0.000130277
0.000130273
0.000130268
0.000130268
0.000130264
0.000130266
0.000130263
0.000130266
0.000130263
0.000130265
0.000130263
0.000130265
0.000130263
0.000130265
0.000130263
0.000130265
0.000130263
0.000130266
0.000130263
0.000130266
0.000130263
0.000130266
0.000130262
0.000130266
0.000130262
0.000130265
0.000130261
0.000130264
0.000130259
0.00013026
0.000130252
0.000403041
0.000699552
0.00168396
0.00244765
0.00321927
0.00355557
0.00370764
0.00402356
0.00416807
0.00441322
0.0046249
0.00477526
0.00474398
0.00467103
0.00469075
0.00381752
0.00221145
0.00111142
0.000719482
0.000338226
0.000308224
0.000185913
0.000535062
8.41069e-05
0.000291118
0.00106723
0.00170967
0.00210516
0.00227325
0.00226663
0.00211228
0.00184761
0.00153984
0.0012463
0.000993133
0.000785864
0.000621513
0.000494634
0.000399036
0.000329208
0.000279917
0.000246031
0.00022289
0.000206727
0.000194824
0.000185407
0.00017746
0.000170539
0.000164584
0.000159691
0.0001559
0.000153024
0.000150636
0.000148236
0.000145545
0.000142604
0.000139678
0.000137018
0.000134828
0.000133183
0.000132062
0.000131336
0.00013089
0.00013062
0.000130459
0.000130364
0.000130308
0.000130275
0.000130256
0.000130244
0.000130239
0.000130233
0.000130233
0.000130229
0.000130231
0.000130229
0.00013023
0.000130228
0.00013023
0.000130228
0.00013023
0.000130228
0.00013023
0.000130228
0.00013023
0.000130228
0.00013023
0.000130228
0.00013023
0.000130228
0.00013023
0.000130228
0.00013023
0.000130228
0.00013023
0.000130227
0.000130229
0.000130226
0.000130227
0.000130222
0.000893649
0.000612581
0.00108399
0.00157679
0.00234302
0.00267812
0.00280198
0.00317636
0.0033398
0.00361024
0.00406783
0.00423259
0.00422009
0.00434359
0.00412204
0.00278039
0.00142192
0.000589041
0.000509921
0.000162382
0.000287548
0.000249752
0.000391653
0.000316156
7.88678e-05
0.000721367
0.00138288
0.00181779
0.0020173
0.00202462
0.00186972
0.00160643
0.0013142
0.00104992
0.000834101
0.00066423
0.000531637
0.000429097
0.000351841
0.00029599
0.000257093
0.000230499
0.000212224
0.000199292
0.00018961
0.000181763
0.000174901
0.000168671
0.000163089
0.000158345
0.000154582
0.000151715
0.000149399
0.000147164
0.000144709
0.00014203
0.000139367
0.000136945
0.000134913
0.000133326
0.000132198
0.000131445
0.000130966
0.000130668
0.000130486
0.000130377
0.00013031
0.000130272
0.000130249
0.000130235
0.000130228
0.000130223
0.000130222
0.000130219
0.000130219
0.000130218
0.000130218
0.000130218
0.000130218
0.000130218
0.000130218
0.000130218
0.000130218
0.000130218
0.000130218
0.000130218
0.000130218
0.000130218
0.000130218
0.000130218
0.000130218
0.000130218
0.000130217
0.000130218
0.000130217
0.000130219
0.000130218
0.000130219
0.000130219
0.000130222
0.00103656
0.000902387
0.00110445
0.000880793
0.00148018
0.0017091
0.00173063
0.00216841
0.00231731
0.00260642
0.00312919
0.00325441
0.00329936
0.00347575
0.0029956
0.00161829
0.000723538
0.000112869
0.000414055
0.000212945
0.000279881
0.000453362
0.000407284
0.000410911
4.5863e-05
0.000397473
0.00103097
0.00148585
0.00171072
0.00172951
0.00157561
0.00132446
0.00106632
0.000852161
0.000689276
0.000564212
0.000464159
0.000383635
0.000321588
0.000276363
0.000244547
0.00022235
0.000206686
0.000195341
0.00018672
0.000179651
0.00017336
0.000167492
0.000162064
0.000157306
0.000153439
0.000150484
0.000148194
0.000146153
0.00014402
0.000141694
0.000139331
0.000137124
0.000135213
0.00013366
0.000132502
0.000131695
0.000131163
0.000130822
0.000130606
0.000130475
0.000130393
0.000130346
0.000130316
0.0001303
0.00013029
0.000130285
0.000130282
0.00013028
0.000130279
0.000130279
0.000130277
0.000130278
0.000130277
0.000130278
0.000130277
0.000130278
0.000130277
0.000130279
0.000130276
0.000130279
0.000130276
0.000130279
0.000130276
0.000130279
0.000130276
0.00013028
0.000130276
0.00013028
0.000130276
0.000130281
0.000130277
0.000130284
0.000130281
0.000130293
0.00113854
0.000992086
0.00129332
0.000801538
0.00115478
0.00114138
0.000857251
0.00128546
0.00121111
0.00144577
0.00201067
0.00202904
0.00220001
0.0023357
0.00155915
0.000584129
0.000183537
3.86971e-05
0.000361239
0.000337903
0.000342122
0.000710068
0.000629116
0.000493016
0.000205453
0.000122152
0.000677622
0.00112101
0.0013579
0.00138135
0.00123472
0.00101908
0.000823356
0.000679318
0.000576294
0.000493414
0.000419634
0.000355445
0.000304064
0.000265743
0.000238145
0.000218351
0.00020399
0.000193376
0.000185243
0.000178574
0.000172611
0.000166951
0.000161561
0.000156668
0.000152559
0.00014937
0.000146988
0.000145078
0.00014328
0.000141366
0.000139351
0.000137365
0.000135566
0.000134055
0.000132883
0.000132027
0.000131434
0.00013104
0.000130782
0.000130622
0.000130519
0.000130459
0.000130421
0.0001304
0.000130386
0.00013038
0.000130374
0.000130373
0.00013037
0.000130371
0.000130369