/*--------------------------------*- C++ -*----------------------------------*\
| =========                 |                                                 |
| \\      /  F ield         | OpenFOAM: The Open Source CFD Toolbox           |
|  \\    /   O peration     | Version:  v2012                                 |
|   \\  /    A nd           | Website:  www.openfoam.com                      |
|    \\/     M anipulation  |                                                 |
\*---------------------------------------------------------------------------*/
FoamFile
{
    version     2.0;
    format      ascii;
    class       volScalarField;
    location    "0.109";
    object      epsilon.air;
}
// * * * * * * * * * * * * * * * * * * * * * * * * * * * * * * * * * * * * * //

dimensions      [0 2 -3 0 0 0 0];


internalField   nonuniform List<scalar> 
1900
(
112.724
141.424
210.097
257.591
369.051
443.457
614.739
724.909
971.324
1128.62
15.4676
16.4471
18.6374
20.4503
23.7573
27.727
32.004
39.2874
45.1218
56.7593
14.7926
14.6415
14.5755
14.5063
14.5148
14.5573
14.6409
14.8309
15.0774
15.4132
14.77
14.6304
14.4634
14.3354
14.1726
14.059
13.904
13.8079
13.6653
13.5937
14.7766
14.6215
14.4705
14.3204
14.1749
14.0288
13.8891
13.7471
13.614
13.4769
14.7778
14.6205
14.4714
14.3195
14.1755
14.0283
13.8892
13.7472
13.6134
13.4773
14.7777
14.6206
14.4731
14.3234
14.1841
14.0449
13.9176
13.7914
13.6807
13.5716
14.7763
14.6497
14.5639
14.5033
14.5107
14.5516
14.6365
14.8197
15.0455
15.3948
15.2153
16.5964
18.2812
20.6724
23.5984
27.5642
32.2721
38.3957
45.5741
54.803
105.954
146.542
198.392
265.718
350.039
456.012
585.674
743.642
931.817
1154
4099.43
15200.7
19581.1
22440
21101.2
17998.6
15065.7
12773
11284
10373.8
9878.59
9706.55
9533.43
9264.41
8855.28
8354.25
7798.24
7210.95
6644.42
6126.23
5649.5
5222.89
4838.6
4487.61
4168.23
3878.71
3616
3378.3
3162.44
2966.47
2788.04
2625.16
2476.2
2339.6
2214.21
2098.82
1992.51
1894.32
1803.47
1719.22
1640.96
1568.1
1500.14
1436.66
1377.25
1321.58
1269.35
1220.26
1174.07
1130.53
1089.44
1050.59
1013.82
978.963
945.866
914.383
884.409
855.813
828.527
802.43
777.484
753.571
730.681
708.684
687.601
667.282
647.786
628.937
610.845
593.295
576.465
560.092
544.432
529.15
514.597
500.34
486.842
473.542
461.042
448.622
437.056
425.429
414.731
403.804
393.918
383.598
374.481
364.681
356.306
346.935
339.296
330.262
323.371
314.573
308.462
299.788
294.504
285.835
281.418
271.013
113.098
337.744
518.035
922.571
1124.82
1147.98
1119.83
1054.94
1049.49
1089.05
1194.7
1409.09
1697.09
2030.08
2380.78
2693.27
2971.59
3204.67
3359.79
3436.26
3428.43
3389.62
3303.51
3185.13
3056.44
2924.89
2793.7
2666.84
2543.31
2425.92
2313.88
2206.93
2105.62
2009.74
1919.42
1834.35
1754.45
1679.21
1608.45
1541.84
1479.12
1419.97
1364.16
1311.45
1261.62
1214.46
1169.79
1127.43
1087.23
1049.01
1012.65
978.029
945.025
913.519
883.417
854.605
827.012
800.535
775.131
750.707
727.245
704.654
682.943
662.005
641.88
622.439
603.754
585.665
568.288
551.422
535.24
519.494
504.428
489.728
475.725
462.014
449.029
436.249
424.234
412.316
401.214
390.078
379.828
369.386
359.934
350.096
341.4
332.08
324.111
315.221
307.972
299.423
292.899
284.594
278.821
270.652
265.67
257.521
253.371
243.608
16.4271
19.8661
22.8852
29.0956
34.793
38.7092
41.6656
43.7021
46.6252
50.6382
58.6715
70.9142
95.4999
130.361
189.698
267.757
374.021
509.596
667.185
838.359
1007.17
1165.68
1305.36
1421.43
1511
1573.42
1610.62
1627.38
1624.62
1613.83
1591.12
1561.13
1526.98
1489.97
1451.55
1411.89
1372.06
1331.69
1291.83
1252.66
1214.22
1176.69
1140.19
1104.78
1070.47
1037.22
1005.09
973.983
943.891
914.787
886.648
859.426
833.112
807.659
783.054
759.235
736.195
713.871
692.266
671.321
651.053
631.405
612.412
594.001
576.234
559.01
542.42
526.324
510.847
495.799
481.359
467.285
453.822
440.661
428.13
415.837
404.204
392.731
381.958
371.249
361.293
351.281
342.095
332.704
324.239
315.389
307.606
299.217
292.091
284.087
277.607
269.907
264.077
256.594
251.432
244.074
239.611
232.276
228.548
219.764
13.4531
13.4605
13.5463
13.8028
14.3355
15.0071
15.7224
16.3407
16.9296
17.3416
17.8933
18.3561
19.2962
20.4982
22.7179
26.2825
31.7324
40.827
54.814
76.3523
106.767
147.605
199.655
261.602
331.192
405.871
480.981
554.27
621.093
682.419
735.466
779.44
814.19
840.059
858.477
869.832
875.512
874.989
872.315
866.342
857.571
846.899
834.824
821.524
807.285
792.25
776.694
760.517
744.064
727.405
710.572
693.653
676.747
659.924
643.257
626.745
610.489
594.452
578.714
563.233
548.087
533.238
518.759
504.601
490.861
477.459
464.505
451.873
439.7
427.805
416.378
405.175
394.459
383.908
373.871
363.945
354.567
345.225
336.485
327.704
319.586
311.325
303.803
296.007
289.05
281.659
275.24
268.192
262.299
255.538
250.161
243.62
238.759
232.372
228.043
221.741
217.967
211.678
208.488
200.944
13.3299
13.1589
13.0624
13.1167
13.3056
13.7173
14.2903
14.9119
15.4565
15.8783
16.2089
16.4308
16.6114
16.7578
16.8959
17.093
17.33
17.737
18.3246
19.3189
20.8536
23.2671
26.823
32.2119
39.8818
50.7139
65.1278
83.6642
106.367
133.217
163.779
196.943
232.038
267.371
302.517
335.593
366.814
394.893
419.806
441.134
459.009
473.44
484.807
493.325
499.285
502.999
504.809
504.533
503.362
500.785
496.92
492.066
486.483
480.206
473.459
466.292
458.863
451.149
443.323
435.319
427.3
419.193
411.116
403.054
395.123
387.248
379.534
371.875
364.405
356.972
349.762
342.552
335.616
328.615
321.954
315.18
308.806
302.274
296.21
289.921
284.175
278.121
272.699
266.864
261.77
256.128
251.361
245.883
241.437
236.08
231.965
226.705
222.936
217.741
214.334
209.169
206.146
200.975
198.359
192.126
13.3251
13.1543
13.0315
13.0863
13.296
13.7744
14.5
15.4921
16.5061
17.6033
18.5918
19.5133
20.2489
20.8605
21.2909
21.6011
21.7768
21.8558
21.8427
21.7995
21.7051
21.6023
21.5315
21.5578
21.6675
21.9293
22.4747
23.3679
24.8653
27.0005
30.2486
34.6045
40.6166
48.1478
57.5533
68.7298
81.8094
96.452
112.51
129.519
147.122
164.876
182.343
199.233
215.184
229.988
243.535
255.668
266.483
275.976
284.247
291.302
297.351
302.413
306.652
310.127
312.97
315.15
316.832
317.911
318.633
318.72
318.537
318.063
317.119
315.817
314.245
312.369
310.293
307.955
305.457
302.715
299.887
296.739
293.689
290.24
286.994
283.303
279.937
276.085
272.665
268.701
265.287
261.252
257.899
253.821
250.569
246.463
243.349
239.226
236.272
232.133
229.36
225.203
222.627
218.448
216.089
211.891
209.776
204.694
13.4657
13.3601
13.4096
13.6559
14.3038
15.6886
18.0311
21.4488
25.3987
29.7143
33.6039
37.0479
39.5684
41.531
42.6081
43.3312
43.3783
43.2522
42.932
42.4166
41.7817
41.1288
40.4957
39.8711
39.3399
38.8515
38.5175
38.2563
38.1523
38.2051
38.3728
38.7316
39.3349
40.2553
41.5039
43.2314
45.4431
48.3886
52.0458
56.7316
62.3661
69.2936
77.3491
86.8117
97.4286
109.33
122.174
135.921
150.216
164.901
179.685
194.342
208.677
222.497
235.694
248.152
259.822
270.658
280.619
289.721
297.938
305.333
311.882
317.672
322.718
327.034
330.674
333.659
335.975
337.782
338.922
339.717
339.725
339.501
338.946
337.742
336.512
334.532
332.818
330.291
328.179
325.219
322.844
319.565
317.044
313.536
310.961
307.293
304.734
300.963
298.474
294.646
292.263
288.406
286.148
282.282
280.174
276.321
274.411
269.828
15.9093
16.8588
18.5471
21.9341
28.3968
39.5046
55.4626
75.0512
95.4353
114.287
129.22
139.987
146.426
150.076
150.762
150.354
149.299
147.807
146.26
145.103
144.496
144.629
145.267
146.525
149.092
152.009
156.388
161.184
167.207
174.015
181.784
190.732
200.465
211.498
223.325
236.431
250.377
265.559
281.402
298.277
315.469
333.418
351.336
369.667
387.579
405.482
422.64
439.478
455.569
471.15
486.122
500.377
514.081
526.903
539.121
550.409
560.883
570.397
578.915
586.366
592.775
598.158
602.588
606.061
608.747
610.488
611.651
611.803
611.483
610.681
609.078
606.958
604.324
601.058
597.7
593.505
589.533
584.661
580.313
574.964
570.336
564.654
559.917
554.043
549.345
543.387
538.83
532.87
528.532
522.652
518.601
512.87
509.154
503.612
500.242
494.889
491.897
486.721
484.213
478.378
68.0335
90.43
126.203
184.864
271.939
385.208
511.578
636.039
744.816
831.491
892.511
932.265
952.921
963.115
964.804
963.718
960.71
958.055
956.905
957.536
960.091
966.139
974.974
985.851
1000.04
1016.44
1035.5
1055.6
1077.92
1101.59
1126.65
1152.67
1179.03
1205.93
1232.73
1259.58
1285.89
1311.59
1335.96
1359.2
1380.91
1401.48
1420.27
1437.78
1453.37
1467.61
1480.09
1491.41
1501.35
1510.11
1517.75
1523.9
1529.13
1532.64
1535.38
1536.34
1536.05
1534.86
1532.27
1527.93
1522.72
1516.12
1508.88
1500.49
1491.62
1481.85
1471.65
1460.91
1449.82
1438.15
1426.36
1413.85
1401.55
1388.39
1375.81
1362.33
1349.69
1336.11
1323.65
1310.2
1298.1
1284.87
1273.27
1260.36
1249.39
1236.88
1226.62
1214.54
1205.05
1193.49
1184.85
1173.88
1166.18
1155.83
1149.07
1139.26
1133.48
1124.12
1119.54
1109.34
1464.64
1897.14
2398.98
2961.73
3563.18
4171.79
4746.13
5251.32
5654.7
5950.63
6132.23
6219.31
6206.81
6160.16
6061.73
5928.5
5778.25
5619.59
5458.96
5301.34
5149.06
5004.1
4867.5
4739.94
4621.27
4511.23
4409.92
4316.63
4231.5
4153.64
4083.16
4019.44
3962.28
3911.18
3865.65
3825.42
3790
3759.07
3731.98
3708.45
3688.02
3670.69
3655.88
3643.65
3633.31
3625.08
3618.2
3612.92
3608.68
3605.53
3603.26
3601.47
3600.28
3599.35
3598.78
3598.7
3598.9
3599.36
3600.32
3601.32
3602.83
3604.2
3605.92
3607.34
3608.59
3609.54
3609.92
3609.79
3609.32
3608.21
3606.91
3604.51
3602.26
3598.57
3595.23
3590.17
3585.55
3578.91
3572.84
3564.52
3557.02
3547.11
3538.42
3527.16
3517.63
3505.31
3495.23
3482.06
3471.69
3457.84
3447.43
3432.97
3422.79
3407.69
3397.95
3381.99
3372.92
3355.99
3347.35
3325.63
1108.83
1064.32
1122.15
1210.13
1238.92
1121.39
818.659
1980.08
54629.9
16124.1
7350.89
6104.71
6234.41
6485.93
6556.55
8028.37
74259.6
43593.8
24811.2
18454.9
16098.7
15002.6
14630.9
19669.1
76428.3
71024.8
54244.6
41193.6
32688.5
27161.7
24550.7
34068.2
69734.6
75714.6
67756.7
55657.1
44571.3
35845.1
30865.7
42707.8
57739.1
71180.8
67955.2
59051.2
48382.8
38736.1
32783.9
45228.8
47467.1
61830.7
62493.3
56615.5
47165.6
38173.9
32447.5
44238.7
39063.8
51808
53574.7
49825.1
42380.9
34662
29577.6
39741.2
32609.7
42976.8
44906
42116.4
36285
30027.3
25806.9
34018.3
27599.2
35615.7
37246.1
35101.6
30529.5
25545.4
22213.5
29358.7
23488.2
29582.1
30817.1
29114
25523.7
21627.2
19152.8
26003.1
20110.9
24696.1
25572.5
24181.8
21338.9
18298.2
16495
22972.8
17375.2
20785.6
21371.5
20212.8
17942.7
15560.1
14269.3
20360.7
15143
17662.6
18028
17048.1
15219.8
13339.4
12435.2
18161.4
13292.4
15153.1
15360.2
14524.7
13038.9
11544.8
10934.2
16336.5
11730.9
13111.9
13210.7
12495.2
11278.4
10084.9
9699.65
14817.5
10407
11439.9
11465.7
10850.3
9846.24
8888.5
8677.48
13545.8
9268.08
10052.2
10033.8
9501.76
8668.68
7898.42
7823.84
12472.6
8285.76
8889.75
8846.42
8384.74
7690.42
7071.09
7103.47
11558.5
7442.64
7911.46
7853.34
7452.01
6870.7
6373.6
6489.11
10773.6
6716.01
7083.08
7016.74
6667.03
6178.16
5780.4
5962.22
10093.3
6089.91
6378.28
6307.65
6001.85
5588.91
5272.29
5507.33
9499.35
5547.84
5775.01
5702.81
5434.56
5084.5
4834.64
5112.69
8979.05
5074.27
5254.43
5182.91
4947.17
4649.82
4455.52
4768.79
8522.24
4658.31
4802.2
4732.88
4525.44
4272.66
4125.01
4467.38
8119.33
4291.25
4407
4340.85
4158.16
3943.34
3835.17
4201.77
7762.16
3965.77
4059.57
3997.23
3836.31
3654.06
3579.54
3966.44
7443.93
3676.41
3752.78
3694.53
3552.8
3398.64
3352.94
3756.9
7159.01
3418.04
3480.58
3426.57
3301.82
3172.02
3151.11
3569.47
6902.71
3186.67
3238.15
3188.35
3078.64
2970.05
2970.65
3401.1
6671.02
2978.72
3021.36
2975.72
2879.43
2789.44
2808.34
3249.49
6460.76
2791.2
2826.79
2785.2
2700.9
2627.25
2662.09
3112.45
6269.47
2621.59
2651.58
2613.89
2540.36
2481.15
2529.97
2988.26
6095.18
2467.67
2493.22
2459.29
2395.49
2349.08
2410.29
2875.44
5936.11
2327.61
2349.66
2319.33
2264.31
2229.33
2301.55
2772.71
5790.8
2199.77
2219.07
2192.18
2145.11
2120.4
2202.49
2678.98
5657.96
2082.83
2099.96
2076.33
2036.48
2021
2111.97
2593.26
5536.43
1975.53
1990.96
1970.42
1937.15
1930.02
2029.03
2514.68
5425.11
1876.85
1890.96
1873.32
1846.06
1846.5
1952.78
2442.43
5322.96
1785.84
1798.95
1784.06
1762.3
1769.52
1882.56
2375.84
5228.98
1701.71
1714.07
1701.78
1685.05
1698.43
1817.65
2314.28
5142.21
1623.77
1635.6
1625.75
1613.65
1632.64
1757.51
2257.22
5061.79
1551.41
1562.89
1555.34
1547.49
1571.62
1701.65
2204.18
4986.97
1484.1
1495.37
1490.01
1486.08
1514.93
1649.68
2154.8
4917.11
1421.38
1432.58
1429.28
1428.99
1462.16
1601.24
2108.74
4851.67
1362.84
1374.08
1372.75
1375.79
1413
1556.04
2065.72
4790.28
1308.13
1319.5
1320.04
1326.16
1367.12
1513.81
2025.51
4732.62
1256.91
1268.48
1270.81
1279.82
1324.26
1474.33
1987.92
4678.49
1208.89
1220.73
1224.77
1236.48
1284.15
1437.37
1952.75
4627.71
1163.79
1175.96
1181.63
1195.89
1246.57
1402.73
1919.86
4580.15
1121.38
1133.92
1141.15
1157.8
1211.32
1370.25
1889.09
4535.72
1081.42
1094.38
1103.11
1122.02
1178.2
1339.76
1860.32
4494.34
1043.71
1057.13
1067.3
1088.35
1147.04
1311.1
1833.39
4455.9
1008.07
1021.97
1033.53
1056.62
1117.68
1284.13
1808.19
4420.22
974.331
988.741
1001.65
1026.66
1089.97
1258.71
1784.56
4387.1
942.337
957.281
971.487
998.33
1063.79
1234.72
1762.39
4356.29
911.967
927.466
942.929
971.519
1039.02
1212.06
1741.56
4327.6
883.081
899.155
915.838
946.102
1015.55
1190.63
1721.97
4300.74
855.598
872.262
890.129
921.991
993.29
1170.33
1703.51
4275.58
829.389
846.658
865.676
899.072
972.149
1151.08
1686.1
4251.86
804.403
822.287
842.421
877.286
952.058
1132.81
1669.65
4229.53
780.512
799.016
820.235
856.512
932.912
1115.43
1654.09
4208.34
757.695
776.82
799.09
836.718
914.673
1098.89
1639.35
4188.35
735.809
755.552
778.839
817.769
897.222
1083.09
1625.35
4169.29
714.868
735.221
759.492
799.668
880.553
1068.02
1612.05
4151.31
694.71
715.661
740.881
782.257
864.523
1053.54
1599.35
4134.05
675.389
696.927
723.064
765.592
849.176
1039.69
1587.26
4117.81
656.719
678.824
705.842
749.477
834.331
1026.31
1575.63
4102.04
638.812
661.471
689.343
734.04
820.112
1013.5
1564.54
4087.27
621.44
644.631
673.317
719.03
806.27
1001.03
1553.76
4072.65
604.794
628.505
657.98
704.675
793.038
989.11
1543.51
4059.04
588.589
612.79
643.014
690.637
780.068
977.407
1533.42
4045.19
573.103
597.789
628.744
677.272
767.74
966.306
1523.91
4032.51
557.972
583.106
614.743
664.116
755.558
955.291
1514.41
4019.18
543.58
569.163
601.476
651.686
744.091
944.976
1505.62
4007.37
529.453
555.439
588.37
639.348
732.64
934.601
1496.66
3994.5
516.098
542.496
576.054
627.811
722.01
925.073
1488.62
3983.67
502.901
529.658
563.772
616.225
711.237
915.305
1480.2
3971.42
490.523
517.655
552.35
605.537
701.416
906.567
1472.97
3961.76
478.176
505.62
540.812
594.63
691.259
897.36
1465.08
3950.24
466.707
494.491
530.222
584.735
682.207
889.396
1458.69
3941.89
455.119
483.168
519.34
574.424
672.587
880.682
1451.27
3931.05
444.494
472.847
509.517
565.261
664.251
873.455
1445.72
3924
433.571
462.145
499.199
555.454
655.079
865.14
1438.67
3913.67
423.732
452.574
490.087
546.967
647.404
858.598
1433.89
3907.74
413.383
442.401
480.243
537.573
638.582
850.576
1427.08
3897.68
404.287
433.537
471.795
529.713
631.515
844.661
1423
3892.56
394.425
423.806
462.339
520.643
622.949
836.822
1416.3
3882.62
386.047
415.623
454.527
513.377
616.449
831.477
1412.81
3877.8
376.581
406.247
445.373
504.549
608.057
823.734
1406.13
3867.92
368.917
398.74
438.188
497.857
602.086
818.886
1403
3863.21
359.756
389.63
429.254
489.198
593.807
811.201
1396.47
3853.25
352.819
382.814
422.706
483.079
588.341
806.779
1393.51
3848.49
343.867
373.879
413.911
474.523
580.134
799.152
1387.15
3838.4
337.692
367.787
408.03
468.993
575.154
795.077
1384.27
3833.48
328.842
358.932
399.293
460.482
566.997
787.53
1378.04
3823.34
323.479
353.611
394.118
455.562
562.495
783.745
1375.22
3818.27
314.618
344.738
385.362
447.049
554.382
776.335
1369.16
3808.38
310.104
340.219
380.912
442.74
550.319
772.722
1366.3
3803.39
299.436
329.499
370.289
432.359
540.368
763.572
1358.44
3791.94
)
;

boundaryField
{
    frontAndBack
    {
        type            empty;
    }
    inlet
    {
        type            fixedValue;
        value           uniform 14.855;
    }
    outlet
    {
        type            zeroGradient;
    }
    walls
    {
        lowReCorrection 0;
        blending        stepwise;
        n               2;
        type            epsilonWallFunction;
        value           nonuniform List<scalar> 
228
(
112.724
141.424
210.097
257.591
369.051
443.457
614.739
724.909
971.324
1128.62
1108.83
1064.32
1122.15
1210.13
1238.92
1121.39
818.659
1980.08
1980.08
8028.37
19669.1
34068.2
42707.8
45228.8
44238.7
39741.2
34018.3
29358.7
26003.1
22972.8
20360.7
18161.4
16336.5
14817.5
13545.8
12472.6
11558.5
10773.6
10093.3
9499.35
8979.05
8522.24
8119.33
7762.16
7443.93
7159.01
6902.71
6671.02
6460.76
6269.47
6095.18
5936.11
5790.8
5657.96
5536.43
5425.11
5322.96
5228.98
5142.21
5061.79
4986.97
4917.11
4851.67
4790.28
4732.62
4678.49
4627.71
4580.15
4535.72
4494.34
4455.9
4420.22
4387.1
4356.29
4327.6
4300.74
4275.58
4251.86
4229.53
4208.34
4188.35
4169.29
4151.31
4134.05
4117.81
4102.04
4087.27
4072.65
4059.04
4045.19
4032.51
4019.18
4007.37
3994.5
3983.67
3971.42
3961.76
3950.24
3941.89
3931.05
3924
3913.67
3907.74
3897.68
3892.56
3882.62
3877.8
3867.92
3863.21
3853.25
3848.49
3838.4
3833.48
3823.34
3818.27
3808.38
3803.39
3791.94
105.954
146.542
198.392
265.718
350.039
456.012
585.674
743.642
931.817
1154
1464.64
1897.14
2398.98
2961.73
3563.18
4171.79
4746.13
5251.32
5654.7
5950.63
6132.23
6219.31
6206.81
6160.16
6061.73
5928.5
5778.25
5619.59
5458.96
5301.34
5149.06
5004.1
4867.5
4739.94
4621.27
4511.23
4409.92
4316.63
4231.5
4153.64
4083.16
4019.44
3962.28
3911.18
3865.65
3825.42
3790
3759.07
3731.98
3708.45
3688.02
3670.69
3655.88
3643.65
3633.31
3625.08
3618.2
3612.92
3608.68
3605.53
3603.26
3601.47
3600.28
3599.35
3598.78
3598.7
3598.9
3599.36
3600.32
3601.32
3602.83
3604.2
3605.92
3607.34
3608.59
3609.54
3609.92
3609.79
3609.32
3608.21
3606.91
3604.51
3602.26
3598.57
3595.23
3590.17
3585.55
3578.91
3572.84
3564.52
3557.02
3547.11
3538.42
3527.16
3517.63
3505.31
3495.23
3482.06
3471.69
3457.84
3447.43
3432.97
3422.79
3407.69
3397.95
3381.99
3372.92
3355.99
3347.35
3325.63
)
;
    }
}


// ************************************************************************* //
