/*--------------------------------*- C++ -*----------------------------------*\
| =========                 |                                                 |
| \\      /  F ield         | OpenFOAM: The Open Source CFD Toolbox           |
|  \\    /   O peration     | Version:  v2012                                 |
|   \\  /    A nd           | Website:  www.openfoam.com                      |
|    \\/     M anipulation  |                                                 |
\*---------------------------------------------------------------------------*/
FoamFile
{
    version     2.0;
    format      ascii;
    class       surfaceScalarField;
    location    "0.109";
    object      phi.air;
}
// * * * * * * * * * * * * * * * * * * * * * * * * * * * * * * * * * * * * * //

dimensions      [0 3 -1 0 0 0 0];
oriented        oriented;


internalField   nonuniform List<scalar> 
3672
(
0.0064006
7.14517e-06
0.00639136
8.99623e-06
0.00638142
9.68684e-06
0.00637056
1.06126e-05
0.0063586
1.17119e-05
0.00634559
1.27594e-05
0.00633129
1.40467e-05
0.00631578
1.52582e-05
0.00629637
1.91628e-05
2.80585e-05
0.00626806
0.00641089
4.26003e-06
0.00641309
6.79313e-06
0.00641555
7.2261e-06
0.00641823
7.93235e-06
0.00642104
8.90607e-06
0.00642399
9.8076e-06
0.00642694
1.10891e-05
0.00642967
1.25285e-05
0.00643129
1.75455e-05
2.48537e-05
0.0064345
0.00640988
2.38202e-06
0.00641223
4.44505e-06
0.00641473
4.71802e-06
0.00641752
5.14462e-06
0.00642056
5.87155e-06
0.00642375
6.60995e-06
0.00642716
7.68595e-06
0.00643042
9.26282e-06
0.0064346
1.33659e-05
1.8425e-05
0.00644103
0.00640936
1.0263e-06
0.00641175
2.05189e-06
0.00641429
2.17918e-06
0.00641704
2.39546e-06
0.00642008
2.82902e-06
0.00642335
3.34014e-06
0.00642686
4.1794e-06
0.00643058
5.54009e-06
0.00643542
8.52209e-06
1.19254e-05
0.00644192
0.00640916
-1.3313e-07
0.00641153
-3.17989e-07
0.00641408
-3.6805e-07
0.0064168
-3.30659e-07
0.00641985
-2.20074e-07
0.00642318
1.20079e-08
0.0064268
5.59745e-07
0.0064308
1.54158e-06
0.00643581
3.50707e-06
5.3565e-06
0.00644238
0.00640918
-1.30997e-06
0.00641156
-2.70308e-06
0.00641412
-2.9249e-06
0.00641686
-3.07022e-06
0.00641993
-3.29409e-06
0.00642331
-3.36794e-06
0.00642702
-3.15054e-06
0.00643117
-2.6108e-06
0.00643623
-1.55005e-06
-9.1819e-07
0.00644251
0.00640941
-2.72028e-06
0.00641185
-5.1427e-06
0.00641442
-5.49271e-06
0.00641721
-5.85951e-06
0.00642032
-6.40729e-06
0.00642374
-6.78915e-06
0.00642751
-6.92237e-06
0.00643175
-6.8458e-06
0.00643674
-6.54489e-06
-6.74829e-06
0.00644257
0.00640999
-4.70719e-06
0.0064124
-7.5559e-06
0.00641495
-8.04445e-06
0.00641781
-8.71403e-06
0.00642095
-9.55364e-06
0.0064244
-1.02353e-05
0.00642821
-1.0735e-05
0.00643249
-1.11202e-05
0.00643739
-1.14533e-05
-1.21458e-05
0.00644279
0.00641105
-7.76189e-06
0.00641334
-9.83865e-06
0.00641585
-1.05521e-05
0.00641858
-1.14513e-05
0.00642152
-1.24901e-05
0.00642469
-1.34058e-05
0.00642817
-1.42168e-05
0.00643204
-1.49858e-05
0.00643631
-1.57293e-05
-1.68101e-05
0.00644098
0.00640049
0.0063909
0.0063806
0.0063694
0.00635716
0.006344
0.00633004
0.0063153
0.00629982
0.00628326
0.00618912
0.000122524
-4.35878e-05
0.00598884
8.26135e-05
0.000117663
0.00572442
-0.000168606
0.000433026
0.00550756
-0.000541275
0.00075814
0.00535911
-0.000908013
0.00105647
0.00525264
-0.00120372
0.00131019
0.00517181
-0.0013793
0.00146014
0.00510268
-0.00142729
0.00149642
0.00503454
-0.00137469
0.00144283
0.00496661
-0.00125516
0.00132308
0.00489904
-0.00110305
0.00117062
0.00483225
-0.000945214
0.00101201
0.00476693
-0.000798671
0.000863988
0.00470308
-0.000670911
0.000734756
0.00464106
-0.00056447
0.000626491
0.00458122
-0.000478022
0.000537868
0.00452408
-0.000409141
0.000466283
0.00447029
-0.000354863
0.000408645
0.00442029
-0.000312022
0.000362029
0.00437435
-0.000278005
0.000323936
0.00433248
-0.000250654
0.000292529
0.0042946
-0.00022838
0.000266258
0.00426057
-0.000210076
0.000244109
0.00423027
-0.000194708
0.000225008
0.00420346
-0.000181671
0.00020848
0.00418007
-0.000170581
0.000193972
0.00416006
-0.00016105
0.000181061
0.00414291
-0.000152468
0.000169613
0.00412819
-0.000144734
0.000159459
0.00411557
-0.000137855
0.000150473
0.00410469
-0.00013166
0.000142541
0.00409527
-0.000125877
0.000135302
0.00408702
-0.000120419
0.000128661
0.00407972
-0.000115253
0.000122559
0.00407332
-0.00011054
0.000116941
0.00406777
-0.000106203
0.000111753
0.00406299
-0.000102146
0.000106924
0.00405893
-9.83651e-05
0.000102419
0.00405555
-9.48893e-05
9.82683e-05
0.00405279
-9.16701e-05
9.44344e-05
0.0040506
-8.86959e-05
9.08835e-05
0.00404893
-8.5922e-05
8.75941e-05
0.00404768
-8.32769e-05
8.453e-05
0.00404677
-8.07371e-05
8.16447e-05
0.00404618
-7.83266e-05
7.89212e-05
0.00404587
-7.60482e-05
7.6355e-05
0.00404583
-7.39044e-05
7.39466e-05
0.00404603
-7.18562e-05
7.16538e-05
0.00404646
-6.9893e-05
6.94622e-05
0.00404711
-6.80325e-05
6.7385e-05
0.00404796
-6.62944e-05
6.54406e-05
0.00404901
-6.46625e-05
6.36159e-05
0.00405024
-6.31178e-05
6.18898e-05
0.00405163
-6.16323e-05
6.02366e-05
0.00405318
-6.01922e-05
5.86461e-05
0.00405486
-5.88118e-05
5.71274e-05
0.00405667
-5.75077e-05
5.56977e-05
0.00405859
-5.62682e-05
5.43472e-05
0.00406061
-5.50867e-05
5.30661e-05
0.00406272
-5.39465e-05
5.18355e-05
0.00406491
-5.28399e-05
5.06504e-05
0.00406717
-5.17624e-05
4.95036e-05
0.0040695
-5.07458e-05
4.84202e-05
0.00407189
-4.97835e-05
4.73959e-05
0.00407433
-4.88742e-05
4.64298e-05
0.00407682
-4.79835e-05
4.54923e-05
0.00407935
-4.71218e-05
4.45901e-05
0.00408192
-4.6284e-05
4.37174e-05
0.00408452
-4.54822e-05
4.28856e-05
0.00408714
-4.47069e-05
4.2085e-05
0.00408978
-4.3964e-05
4.13209e-05
0.00409244
-4.32406e-05
4.05812e-05
0.00409511
-4.25397e-05
3.98694e-05
0.00409779
-4.1851e-05
3.91758e-05
0.00410046
-4.11832e-05
3.85072e-05
0.00410313
-4.05267e-05
3.78557e-05
0.0041058
-3.98901e-05
3.72263e-05
0.00410845
-3.92582e-05
3.66071e-05
0.00411108
-3.86415e-05
3.60058e-05
0.0041137
-3.80253e-05
3.54102e-05
0.00411629
-3.74243e-05
3.48329e-05
0.00411886
-3.68254e-05
3.42606e-05
0.00412139
-3.62443e-05
3.37079e-05
0.0041239
-3.56623e-05
3.3155e-05
0.00412638
-3.50943e-05
3.26163e-05
0.00412882
-3.45245e-05
3.20768e-05
0.00413124
-3.39732e-05
3.15559e-05
0.00413363
-3.34263e-05
3.10413e-05
0.00413598
-3.29019e-05
3.05502e-05
0.00413829
-3.23808e-05
3.00651e-05
0.00414057
-3.18823e-05
2.96036e-05
0.00414281
-3.13844e-05
2.91439e-05
0.00414502
-3.09317e-05
2.87274e-05
0.00414719
-3.04825e-05
2.83138e-05
0.00414933
-3.01801e-05
2.80386e-05
0.00415144
-2.98508e-05
2.77351e-05
0.00415356
-3.00059e-05
2.78874e-05
0.00415566
-2.98758e-05
2.77823e-05
0.00415785
-3.118e-05
2.89903e-05
-3.11498e-05
2.9191e-05
0.00647836
7.86561e-05
0.00651174
4.92391e-05
0.00650174
-0.000158607
0.0064363
-0.000475831
0.00632498
-0.000796695
0.00617908
-0.00105782
0.00601662
-0.00121684
0.00585463
-0.0012653
0.00570346
-0.00122352
0.00556877
-0.00112047
0.0054527
-0.000986982
0.00535426
-0.000846773
0.00527082
-0.000715229
0.00519914
-0.000599231
0.00513589
-0.000501222
0.00507817
-0.000420302
0.00502373
-0.000354694
0.00497105
-0.000302191
0.00491927
-0.000260237
0.00486803
-0.000226771
0.00481781
-0.000200428
0.00476946
-0.000180036
0.00472329
-0.000163907
0.00467943
-0.000150844
0.00463821
-0.000140453
0.0045999
-0.000132273
0.00456461
-0.000125757
0.00453231
-0.000120169
0.00450289
-0.000115315
0.0044762
-0.000111165
0.00445194
-0.000107402
0.00442988
-0.000103814
0.00440985
-0.000100391
0.00439176
-9.71658e-05
0.00437543
-9.42051e-05
0.00436066
-9.14326e-05
0.00434731
-8.87949e-05
0.00433527
-8.63249e-05
0.00432441
-8.40352e-05
0.00431463
-8.18881e-05
0.00430578
-7.98455e-05
0.0042977
-7.78407e-05
0.00429031
-7.58853e-05
0.00428357
-7.39989e-05
0.00427745
-7.2202e-05
0.0042719
-7.05043e-05
0.0042669
-6.89059e-05
0.00426241
-6.73613e-05
0.00425838
-6.58649e-05
0.0042548
-6.44488e-05
0.00425162
-6.31207e-05
0.00424883
-6.18648e-05
0.00424638
-6.06752e-05
0.00424427
-5.9514e-05
0.00424245
-5.83758e-05
0.00424091
-5.72687e-05
0.00423959
-5.61931e-05
0.00423848
-5.5158e-05
0.00423757
-5.41743e-05
0.00423684
-5.32225e-05
0.00423629
-5.22896e-05
0.00423591
-5.13769e-05
0.00423568
-5.05174e-05
0.00423559
-4.96906e-05
0.00423561
-4.89015e-05
0.00423575
-4.81209e-05
0.00423599
-4.73621e-05
0.00423632
-4.66159e-05
0.00423674
-4.5897e-05
0.00423723
-4.51936e-05
0.00423778
-4.45156e-05
0.00423838
-4.3847e-05
0.00423904
-4.31926e-05
0.00423973
-4.25403e-05
0.00424044
-4.19019e-05
0.00424119
-4.12682e-05
0.00424195
-4.06494e-05
0.00424272
-4.00303e-05
0.0042435
-3.94214e-05
0.00424428
-3.88078e-05
0.00424506
-3.8205e-05
0.00424583
-3.75998e-05
0.0042466
-3.70115e-05
0.00424736
-3.64215e-05
0.00424811
-3.58458e-05
0.00424886
-3.52686e-05
0.00424959
-3.47099e-05
0.00425032
-3.41537e-05
0.00425104
-3.36185e-05
0.00425174
-3.30833e-05
0.00425243
-3.25692e-05
0.0042531
-3.20539e-05
0.00425375
-3.15837e-05
0.00425438
-3.11177e-05
0.004255
-3.08012e-05
0.00425562
-3.04648e-05
0.00425622
-3.06093e-05
0.00425683
-3.04875e-05
0.0042575
-3.18434e-05
-3.17046e-05
0.00647001
4.96757e-05
0.00650349
1.57559e-05
0.00650081
-0.000155926
0.00644848
-0.000423502
0.00634924
-0.000697455
0.00621162
-0.000920195
0.00605284
-0.00105806
0.00589067
-0.00110313
0.00573788
-0.00107073
0.00560298
-0.000985574
0.00548889
-0.000872888
0.005395
-0.000752888
0.00531892
-0.000639149
0.00525776
-0.000538074
0.0052084
-0.000451857
0.00516817
-0.000380076
0.00513495
-0.000321474
0.00510686
-0.0002741
0.00508225
-0.00023562
0.00505977
-0.000204293
0.0050384
-0.000179059
0.00501721
-0.000158844
0.00499549
-0.000142192
0.0049728
-0.000128157
0.00494884
-0.000116484
0.00492355
-0.000106982
0.00489698
-9.91954e-05
0.00486935
-9.25343e-05
0.00484096
-8.69256e-05
0.00481222
-8.24286e-05
0.00478366
-7.88369e-05
0.00475565
-7.58087e-05
0.00472859
-7.33311e-05
0.00470294
-7.15081e-05
0.00467882
-7.00934e-05
0.00465627
-6.88783e-05
0.00463527
-6.77979e-05
0.0046158
-6.68489e-05
0.00459775
-6.59904e-05
0.00458102
-6.5161e-05
0.00456549
-6.43117e-05
0.00455105
-6.33958e-05
0.00453762
-6.24565e-05
0.00452515
-6.1533e-05
0.00451359
-6.06389e-05
0.00450288
-5.97957e-05
0.00449296
-5.89874e-05
0.00448378
-5.81771e-05
0.00447526
-5.73524e-05
0.00446734
-5.65267e-05
0.00445996
-5.57396e-05
0.0044531
-5.5004e-05
0.00444673
-5.43075e-05
0.00444083
-5.36068e-05
0.00443536
-5.29074e-05
0.0044303
-5.22132e-05
0.00442563
-5.15201e-05
0.00442131
-5.0841e-05
0.00441733
-5.01928e-05
0.00441366
-4.95532e-05
0.00441028
-4.8911e-05
0.00440717
-4.82625e-05
0.00440426
-4.76129e-05
0.00440154
-4.69686e-05
0.00439899
-4.63497e-05
0.0043966
-4.57306e-05
0.00439436
-4.512e-05
0.00439224
-4.45037e-05
0.00439025
-4.39028e-05
0.00438836
-4.3302e-05
0.00438656
-4.2716e-05
0.00438484
-4.21255e-05
0.00438318
-4.15388e-05
0.00438159
-4.09428e-05
0.00438004
-4.03532e-05
0.00437853
-3.97609e-05
0.00437706
-3.91795e-05
0.00437562
-3.85919e-05
0.00437421
-3.80107e-05
0.00437282
-3.74194e-05
0.00437145
-3.68362e-05
0.0043701
-3.62475e-05
0.00436877
-3.56748e-05
0.00436744
-3.51008e-05
0.00436614
-3.45435e-05
0.00436486
-3.39864e-05
0.0043636
-3.34487e-05
0.00436236
-3.29117e-05
0.00436113
-3.23935e-05
0.00435992
-3.18729e-05
0.00435872
-3.13707e-05
0.00435754
-3.08669e-05
0.00435636
-3.04043e-05
0.00435519
-2.99491e-05
0.00435403
-2.964e-05
0.00435288
-2.93192e-05
0.00435174
-2.94705e-05
0.00435063
-2.93768e-05
0.00434947
-3.06859e-05
-3.06542e-05
0.0064645
2.71008e-05
0.00648861
-8.35562e-06
0.00648172
-0.000149035
0.00642849
-0.00037027
0.00633104
-0.000600006
0.00619799
-0.000787144
0.0060446
-0.000904674
0.00588732
-0.000945856
0.00573867
-0.00092208
0.00560647
-0.000853374
0.00549362
-0.000760038
0.00539991
-0.000659173
0.00532342
-0.000562665
0.00526159
-0.000476235
0.0052116
-0.00040187
0.00517119
-0.000339667
0.00513851
-0.000288791
0.00511185
-0.000247445
0.00508981
-0.000213574
0.00507146
-0.000185944
0.00505622
-0.000163817
0.00504337
-0.000145997
0.00503217
-0.000130993
0.0050222
-0.000118184
0.00501337
-0.000107661
0.0050054
-9.90081e-05
0.00499768
-9.14734e-05
0.00498978
-8.46423e-05
0.00498153
-7.86691e-05
0.00497278
-7.36785e-05
0.00496333
-6.93857e-05
0.00495291
-6.53961e-05
0.00494133
-6.17476e-05
0.00492852
-5.86951e-05
0.00491456
-5.61317e-05
0.00489954
-5.38617e-05
0.0048836
-5.18623e-05
0.00486693
-5.01753e-05
0.00484973
-4.87955e-05
0.00483226
-4.76878e-05
0.00481476
-4.68088e-05
0.0047975
-4.61327e-05
0.00478067
-4.56354e-05
0.00476443
-4.52845e-05
0.00474886
-4.50743e-05
0.00473405
-4.4981e-05
0.00471999
-4.49289e-05
0.00470666
-4.48507e-05
0.00469405
-4.47376e-05
0.00468213
-4.46075e-05
0.00467087
-4.44811e-05
0.00466022
-4.43565e-05
0.00465012
-4.42033e-05
0.00464052
-4.40084e-05
0.0046314
-4.37863e-05
0.00462273
-4.35476e-05
0.00461453
-4.33171e-05
0.00460678
-4.30904e-05
0.00459945
-4.28595e-05
0.0045925
-4.26028e-05
0.00458589
-4.2308e-05
0.00457961
-4.19811e-05
0.00457362
-4.16228e-05
0.0045679
-4.12436e-05
0.00456241
-4.0859e-05
0.00455712
-4.04503e-05
0.00455202
-4.00166e-05
0.00454707
-3.9554e-05
0.00454226
-3.90882e-05
0.00453756
-3.86037e-05
0.00453296
-3.81213e-05
0.00452846
-3.76211e-05
0.00452404
-3.71155e-05
0.00451968
-3.65905e-05
0.0045154
-3.60666e-05
0.00451117
-3.55347e-05
0.00450701
-3.5014e-05
0.0045029
-3.44854e-05
0.00449885
-3.39608e-05
0.00449486
-3.34254e-05
0.00449091
-3.28951e-05
0.00448703
-3.23584e-05
0.00448319
-3.18362e-05
0.0044794
-3.13152e-05
0.00447567
-3.08149e-05
0.004472
-3.03184e-05
0.0044684
-2.9842e-05
0.00446485
-2.93644e-05
0.00446136
-2.89038e-05
0.00445793
-2.84382e-05
0.00445454
-2.79894e-05
0.00445122
-2.7538e-05
0.00444793
-2.71224e-05
0.0044447
-2.67175e-05
0.00444151
-2.6447e-05
0.00443837
-2.61835e-05
0.00443524
-2.63386e-05
0.0044322
-2.63371e-05
0.00442903
-2.75095e-05
-2.78435e-05
0.00645963
9.85238e-06
0.00647551
-2.42333e-05
0.00646423
-0.000137754
0.00641073
-0.000316772
0.00631603
-0.00050531
0.00618843
-0.000659537
0.00604148
-0.000757727
0.00588978
-0.000794154
0.00574505
-0.000777352
0.005615
-0.00072333
0.00550291
-0.000647945
0.00540909
-0.000565349
0.00533201
-0.000485585
0.00526926
-0.00041349
0.00521833
-0.000350942
0.00517716
-0.000298496
0.00514381
-0.000255434
0.00511642
-0.000220056
0.00509372
-0.000190874
0.00507501
-0.000167241
0.00505956
-0.000148367
0.00504642
-0.000132855
0.00503501
-0.000119579
0.00502528
-0.000108459
0.00501723
-9.96121e-05
0.0050104
-9.21755e-05
0.00500413
-8.52079e-05
0.00499846
-7.89628e-05
0.00499382
-7.40329e-05
0.00499006
-6.9922e-05
0.00498651
-6.58322e-05
0.00498298
-6.18644e-05
0.00497979
-5.85641e-05
0.00497701
-5.59165e-05
0.00497435
-5.34704e-05
0.00497153
-5.10372e-05
0.00496837
-4.87061e-05
0.00496483
-4.66286e-05
0.00496088
-4.48537e-05
0.00495651
-4.33108e-05
0.00495157
-4.18699e-05
0.00494592
-4.04829e-05
0.00493946
-3.9175e-05
0.00493217
-3.79926e-05
0.00492409
-3.69991e-05
0.00491532
-3.62072e-05
0.00490592
-3.55331e-05
0.00489596
-3.48861e-05
0.00488549
-3.42723e-05
0.00487465
-3.37654e-05
0.00486357
-3.34055e-05
0.00485239
-3.31723e-05
0.00484119
-3.30039e-05
0.00483005
-3.28641e-05
0.00481898
-3.27214e-05
0.00480804
-3.26034e-05
0.00479726
-3.25363e-05
0.00478667
-3.2509e-05
0.0047763
-3.24877e-05
0.00476614
-3.24435e-05
0.00475619
-3.23526e-05
0.00474644
-3.22288e-05
0.00473691
-3.20996e-05
0.00472762
-3.19547e-05
0.00471854
-3.1778e-05
0.00470965
-3.15575e-05
0.00470092
-3.12881e-05
0.00469235
-3.0987e-05
0.00468394
-3.06719e-05
0.00467566
-3.0329e-05
0.00466752
-2.99802e-05
0.00465951
-2.96086e-05
0.00465162
-2.92276e-05
0.00464386
-2.88236e-05
0.0046362
-2.84155e-05
0.00462867
-2.79982e-05
0.00462125
-2.75941e-05
0.00461394
-2.71821e-05
0.00460676
-2.67751e-05
0.00459969
-2.63539e-05
0.00459273
-2.59356e-05
0.00458588
-2.55081e-05
0.00457914
-2.50955e-05
0.00457251
-2.4689e-05
0.004566
-2.43064e-05
0.00455962
-2.39334e-05
0.00455335
-2.35794e-05
0.00454721
-2.32237e-05
0.00454119
-2.2881e-05
0.00453529
-2.25337e-05
0.0045295
-2.22001e-05
0.00452382
-2.18634e-05
0.00451825
-2.15537e-05
0.0045128
-2.12592e-05
0.00450742
-2.10745e-05
0.00450217
-2.09285e-05
0.00449693
-2.10952e-05
0.00449186
-2.12674e-05
0.00448653
-2.21815e-05
-2.3217e-05
0.00645566
-3.30159e-06
0.00646519
-3.37649e-05
0.00645042
-0.000122979
0.00639697
-0.000263324
0.00630461
-0.000412949
0.00618117
-0.000536096
0.00603901
-0.000615575
0.00589156
-0.000646701
0.00575001
-0.000635799
0.00562181
-0.00059513
0.00551048
-0.000536621
0.00541666
-0.000471523
0.00533897
-0.000407899
0.00527525
-0.000349772
0.00522333
-0.000299016
0.00518121
-0.000256377
0.00514681
-0.000221039
0.00511836
-0.000191603
0.00509491
-0.000167417
0.00507576
-0.000148094
0.00505972
-0.000132328
0.00504575
-0.000118888
0.00503383
-0.000107657
0.00502412
-9.87423e-05
0.00501585
-9.13504e-05
0.00500815
-8.44766e-05
0.00500125
-7.8303e-05
0.00499573
-7.34428e-05
0.00499116
-6.94586e-05
0.00498671
-6.54772e-05
0.00498244
-6.1559e-05
0.0049789
-5.8326e-05
0.00497611
-5.57757e-05
0.00497359
-5.33981e-05
0.00497102
-5.08972e-05
0.00496855
-4.85666e-05
0.00496651
-4.66703e-05
0.00496487
-4.49874e-05
0.00496334
-4.33262e-05
0.00496173
-4.16958e-05
0.00496007
-4.02132e-05
0.00495852
-3.89284e-05
0.00495704
-3.76971e-05
0.00495553
-3.6478e-05
0.00495387
-3.53394e-05
0.00495196
-3.43027e-05
0.00494976
-3.33291e-05
0.00494724
-3.23705e-05
0.00494439
-3.14181e-05
0.00494113
-3.05043e-05
0.00493737
-2.96477e-05
0.00493303
-2.88369e-05
0.00492808
-2.80466e-05
0.00492248
-2.72698e-05
0.00491625
-2.64942e-05
0.0049094
-2.57495e-05
0.00490192
-2.50527e-05
0.00489381
-2.44045e-05
0.00488511
-2.37879e-05
0.00487586
-2.31951e-05
0.00486613
-2.26175e-05
0.00485597
-2.20715e-05
0.00484545
-2.1578e-05
0.00483463
-2.11312e-05
0.00482356
-2.07154e-05
0.00481232
-2.03177e-05
0.00480096
-1.99289e-05
0.00478954
-1.95657e-05
0.0047781
-1.92249e-05
0.00476668
-1.89116e-05
0.00475531
-1.861e-05
0.00474403
-1.83273e-05
0.00473285
-1.80505e-05
0.0047218
-1.77739e-05
0.00471089
-1.75054e-05
0.00470013
-1.72388e-05
0.00468953
-1.69954e-05
0.0046791
-1.67516e-05
0.00466885
-1.65232e-05
0.00465878
-1.62831e-05
0.00464889
-1.60494e-05
0.0046392
-1.5813e-05
0.00462969
-1.55905e-05
0.00462039
-1.53831e-05
0.00461128
-1.52004e-05
0.00460239
-1.50376e-05
0.0045937
-1.48894e-05
0.00458521
-1.47424e-05
0.00457693
-1.45986e-05
0.00456885
-1.44539e-05
0.00456097
-1.43144e-05
0.00455327
-1.41707e-05
0.00454576
-1.40395e-05
0.00453842
-1.39246e-05
0.00453123
-1.388e-05
0.00452421
-1.39129e-05
0.00451722
-1.4103e-05
0.00451048
-1.45239e-05
0.00450334
-1.50439e-05
-1.70876e-05
0.00645273
-1.34585e-05
0.00645752
-3.85542e-05
0.00643989
-0.000105347
0.00638638
-0.000209819
0.00629583
-0.000322397
0.00617559
-0.000415853
0.00603717
-0.000477154
0.00589299
-0.000502522
0.0057537
-0.000496506
0.00562644
-0.000467871
0.00551486
-0.00042504
0.0054199
-0.000376562
0.00534049
-0.00032849
0.00527491
-0.0002842
0.00522137
-0.000245468
0.00517759
-0.000212597
0.00514133
-0.000184787
0.00511137
-0.000161641
0.00508676
-0.000142806
0.00506604
-0.000127368
0.00504802
-0.000114316
0.00503256
-0.000103422
0.00501952
-9.46165e-05
0.00500806
-8.72893e-05
0.00499746
-8.07434e-05
0.00498787
-7.48879e-05
0.00497962
-7.00518e-05
0.00497218
-6.60107e-05
0.00496489
-6.21681e-05
0.0049579
-5.84844e-05
0.00495163
-5.52855e-05
0.00494591
-5.26046e-05
0.00494027
-5.01374e-05
0.00493454
-4.76718e-05
0.00492897
-4.53223e-05
0.00492369
-4.3293e-05
0.00491855
-4.15323e-05
0.00491339
-3.98206e-05
0.00490812
-3.80532e-05
0.00490278
-3.63619e-05
0.00489745
-3.48868e-05
0.00489212
-3.35925e-05
0.00488673
-3.2313e-05
0.00488126
-3.10001e-05
0.00487565
-2.97288e-05
0.0048699
-2.85611e-05
0.00486406
-2.7487e-05
0.00485815
-2.64592e-05
0.00485217
-2.54356e-05
0.00484609
-2.44284e-05
0.00483991
-2.34597e-05
0.0048336
-2.25334e-05
0.0048272
-2.16415e-05
0.00482071
-2.0779e-05
0.00481413
-1.99209e-05
0.00480746
-1.90814e-05
0.00480067
-1.82611e-05
0.00479374
-1.7467e-05
0.00478664
-1.66928e-05
0.00477938
-1.59394e-05
0.00477196
-1.51941e-05
0.00476436
-1.44672e-05
0.00475655
-1.37706e-05
0.00474852
-1.31055e-05
0.00474028
-1.24681e-05
0.00473181
-1.18535e-05
0.00472314
-1.12585e-05
0.00471428
-1.07043e-05
0.00470525
-1.01901e-05
0.00469605
-9.71374e-06
0.00468671
-9.27544e-06
0.00467726
-8.87687e-06
0.00466773
-8.51439e-06
0.00465813
-8.17974e-06
0.0046485
-7.87496e-06
0.00463887
-7.60302e-06
0.00462924
-7.36575e-06
0.00461965
-7.16712e-06
0.00461012
-6.99523e-06
0.00460069
-6.84456e-06
0.00459134
-6.70791e-06
0.00458212
-6.58968e-06
0.00457302
-6.49251e-06
0.00456407
-6.42664e-06
0.00455526
-6.39479e-06
0.00454662
-6.39698e-06
0.00453815
-6.41734e-06
0.00452985
-6.4444e-06
0.00452172
-6.47012e-06
0.00451377
-6.49826e-06
0.00450598
-6.528e-06
0.00449836
-6.55364e-06
0.0044909
-6.57948e-06
0.0044836
-6.61943e-06
0.00447641
-6.68923e-06
0.00446936
-6.86889e-06
0.0044623
-7.04531e-06
0.00445545
-7.66899e-06
0.00444814
-7.73119e-06
-1.06842e-05
0.0064508
-2.14626e-05
0.00645216
-3.99198e-05
0.00643219
-8.53722e-05
0.00637824
-0.000155876
0.00628837
-0.000232521
0.0061693
-0.000296782
0.00603184
-0.000339693
0.00588771
-0.000358401
0.00574719
-0.000355985
0.00561748
-0.000338161
0.00550258
-0.000310131
0.00540349
-0.000277473
0.00531953
-0.00024453
0.00524925
-0.000213921
0.00519046
-0.000186679
0.00514093
-0.000163067
0.00509908
-0.000142941
0.00506353
-0.000126094
0.00503271
-0.000111978
0.00500544
-0.000100104
0.00498119
-9.00672e-05
0.00495951
-8.17403e-05
0.00493966
-7.47666e-05
0.00492111
-6.87336e-05
0.00490378
-6.34174e-05
0.00488763
-5.87417e-05
0.00487226
-5.46755e-05
0.0048573
-5.10557e-05
0.00484283
-4.77011e-05
0.00482896
-4.46056e-05
0.00481549
-4.18209e-05
0.0048022
-3.93156e-05
0.00478906
-3.6994e-05
0.00477618
-3.47907e-05
0.00476358
-3.27269e-05
0.00475114
-3.0855e-05
0.00473876
-2.91523e-05
0.00472649
-2.75435e-05
0.00471441
-2.59726e-05
0.00470252
-2.44789e-05
0.00469077
-2.31288e-05
0.0046791
-2.19253e-05
0.00466756
-2.07782e-05
0.00465621
-1.96427e-05
0.00464503
-1.85518e-05
0.00463402
-1.75529e-05
0.00462318
-1.66446e-05
0.00461251
-1.57924e-05
0.00460204
-1.49622e-05
0.00459177
-1.41575e-05
0.00458171
-1.34009e-05
0.00457187
-1.26937e-05
0.00456225
-1.20234e-05
0.00455286
-1.13878e-05
0.00454371
-1.07711e-05
0.00453481
-1.01787e-05
0.00452616
-9.60876e-06
0.00451775
-9.06221e-06
0.0045096
-8.54225e-06
0.00450171
-8.05176e-06
0.00449409
-7.56801e-06
0.00448671
-7.09129e-06
0.00447958
-6.63724e-06
0.00447268
-6.209e-06
0.00446602
-5.80678e-06
0.00445959
-5.41968e-06
0.00445335
-5.02565e-06
0.00444731
-4.6579e-06
0.00444144
-4.31951e-06
0.00443572
-4.00215e-06
0.00443016
-3.70888e-06
0.00442472
-3.438e-06
0.00441939
-3.18596e-06
0.00441416
-2.95197e-06
0.00440902
-2.73236e-06
0.00440395
-2.53687e-06
0.00439895
-2.3618e-06
0.004394
-2.21655e-06
0.00438909
-2.09105e-06
0.00438423
-1.97947e-06
0.0043794
-1.87558e-06
0.00437459
-1.77957e-06
0.0043698
-1.70079e-06
0.00436501
-1.64405e-06
0.00436024
-1.6193e-06
0.00435546
-1.62437e-06
0.00435069
-1.64772e-06
0.00434592
-1.67413e-06
0.00434115
-1.69993e-06
0.00433638
-1.72799e-06
0.00433162
-1.76069e-06
0.00432686
-1.79673e-06
0.00432211
-1.83012e-06
0.00431737
-1.87913e-06
0.00431261
-1.93158e-06
0.00430786
-2.11141e-06
0.00430299
-2.18415e-06
0.00429814
-2.80997e-06
0.00429292
-2.51365e-06
-5.60852e-06
0.00644653
-2.70128e-05
0.00644397
-3.73617e-05
0.00642001
-6.141e-05
0.00636214
-9.80093e-05
0.00626748
-0.000137856
0.00614212
-0.000171423
0.00599644
-0.000194016
0.0058421
-0.000204061
0.0056892
-0.000203089
0.00554486
-0.000193815
0.00541361
-0.000178883
0.00529729
-0.000161159
0.00519581
-0.000143046
0.00510783
-0.000125941
0.00503159
-0.000110442
0.00496531
-9.67789e-05
0.00490734
-8.49733e-05
0.00485608
-7.48397e-05
0.00481021
-6.60999e-05
0.00476871
-5.8605e-05
0.00473088
-5.22365e-05
0.00469623
-4.7096e-05
0.00466415
-4.26832e-05
0.00463426
-3.88436e-05
0.00460634
-3.54972e-05
0.0045801
-3.25051e-05
0.00455523
-2.98016e-05
0.00453156
-2.7386e-05
0.00450908
-2.52206e-05
0.00448769
-2.32142e-05
0.00446722
-2.13502e-05
0.00444755
-1.96549e-05
0.0044287
-1.81422e-05
0.00441066
-1.67467e-05
0.00439336
-1.54302e-05
0.00437673
-1.42188e-05
0.00436071
-1.31359e-05
0.00434532
-1.21547e-05
0.00433057
-1.12182e-05
0.00431641
-1.03231e-05
0.0043028
-9.51384e-06
0.00428968
-8.80925e-06
0.00427706
-8.15999e-06
0.00426495
-7.52939e-06
0.00425332
-6.9274e-06
0.00424216
-6.38554e-06
0.00423142
-5.90504e-06
0.00422109
-5.46148e-06
0.00421116
-5.03984e-06
0.00420164
-4.63591e-06
0.00419251
-4.26646e-06
0.00418375
-3.93222e-06
0.00417534
-3.61842e-06
0.00416728
-3.3284e-06
0.00415957
-3.05664e-06
0.00415219
-2.80422e-06
0.00414515
-2.56616e-06
0.00413843
-2.34023e-06
0.00413202
-2.13077e-06
0.00412592
-1.95005e-06
0.00412012
-1.77262e-06
0.00411462
-1.59011e-06
0.0041094
-1.42138e-06
0.00410446
-1.26743e-06
0.00409979
-1.13453e-06
0.00409538
-1.00964e-06
0.00409121
-8.58804e-07
0.00408728
-7.21528e-07
0.00408356
-6.03781e-07
0.00408004
-4.8534e-07
0.00407672
-3.84814e-07
0.00407356
-2.83923e-07
0.00407057
-1.86585e-07
0.00406771
-9.28609e-08
0.00406498
-1.24906e-09
0.00406236
8.22767e-08
0.00405983
1.59523e-07
0.0040574
2.20795e-07
0.00405503
2.72983e-07
0.00405274
3.17853e-07
0.0040505
3.6143e-07
0.00404831
4.05756e-07
0.00404617
4.41357e-07
0.00404406
4.65472e-07
0.00404197
4.73328e-07
0.00403989
4.58944e-07
0.0040378
4.3617e-07
0.00403571
4.17542e-07
0.00403361
4.02544e-07
0.00403149
3.91797e-07
0.00402935
3.75072e-07
0.0040272
3.58181e-07
0.00402503
3.40762e-07
0.00402283
3.19129e-07
0.00402059
3.04291e-07
0.00401829
1.8959e-07
0.0040159
2.06604e-07
0.00401336
-2.71368e-07
0.00401065
1.97442e-07
-2.30124e-06
0.00625665
0.00621968
0.00615866
0.00606105
0.00592359
0.00575257
0.00555896
0.0053553
0.00515262
0.00495922
0.00478076
0.00462002
0.0044774
0.00435189
0.00424188
0.00414553
0.00406099
0.00398659
0.00392093
0.00386277
0.00381097
0.00376432
0.00372208
0.00368368
0.00364863
0.00361657
0.00358722
0.00356028
0.00353551
0.00351275
0.00349185
0.00347264
0.00345495
0.00343866
0.00342368
0.00340991
0.00339723
0.00338553
0.00337476
0.00336489
0.00335583
0.00334748
0.00333977
0.0033327
0.00332622
0.00332029
0.00331484
0.00330983
0.00330525
0.00330107
0.00329726
0.00329378
0.00329062
0.00328774
0.00328514
0.00328279
0.00328068
0.0032788
0.00327712
0.00327563
0.00327431
0.00327317
0.00327221
0.0032714
0.00327072
0.00327016
0.00326976
0.00326949
0.00326934
0.00326931
0.00326938
0.00326956
0.00326982
0.00327019
0.00327064
0.00327118
0.00327179
0.00327247
0.0032732
0.00327397
0.00327478
0.00327565
0.00327654
0.00327746
0.00327839
0.0032793
0.00328019
0.00328107
0.00328192
0.00328277
0.0032836
0.00328441
0.00328521
0.00328598
0.00328674
0.00328738
0.00328804
0.00328823
0.00328888
-0.000831931
0.000788343
-0.00121946
0.000387527
-0.00139906
0.000179604
-0.00140205
2.98391e-06
-0.00126096
-0.00014109
-0.000964944
-0.000296012
-0.000524487
-0.000440457
-0.000525013
-0.000754951
0.00166096
-0.00111808
0.000750658
-0.00122824
0.000289766
-0.00120009
-2.51743e-05
-0.00105429
-0.000286883
-0.00080876
-0.000541545
-0.000456447
-0.000792769
-0.000981964
-0.000156197
0.00225018
-0.000557935
0.0011524
-0.000717708
0.000449539
-0.000731038
-1.18448e-05
-0.000650844
-0.000367076
-0.000507296
-0.000685094
-0.000303369
-0.000996696
-0.00128582
0.000429659
0.00257866
9.69582e-05
0.0014851
-0.000111093
0.000657591
-0.000205853
8.29144e-05
-0.000222048
-0.000350881
-0.000187708
-0.000719434
-0.000121698
-0.00106271
-0.00140799
0.000870298
0.00276483
0.000617313
0.00173808
0.000395232
0.000879672
0.000239664
0.000238482
0.000137924
-0.000249141
7.01132e-05
-0.000651623
2.21299e-05
-0.00101472
-0.00138632
0.00119707
0.00287795
0.000996735
0.00193841
0.000781886
0.00109452
0.000592638
0.000427729
0.000428776
-8.52789e-05
0.000279857
-0.000502703
0.000137296
-0.000872162
-0.00124949
0.00139124
0.00294685
0.00123795
0.00209171
0.00104153
0.00129093
0.000835831
0.000633433
0.000631631
0.000118921
0.000426456
-0.000297528
0.000215941
-0.000661646
-0.00103401
0.00145068
0.00299259
0.0013326
0.00220978
0.00116186
0.00146168
0.00095856
0.000836732
0.000737547
0.000339935
0.000503676
-6.36573e-05
0.000257032
-0.000415003
-0.000777457
0.00141292
0.00302251
0.00131814
0.00230455
0.00116838
0.00161144
0.000977294
0.00102782
0.0007586
0.000558628
0.000520557
0.000174385
0.000266337
-0.000160783
-0.000511604
0.00130661
0.00303898
0.00123233
0.00237883
0.00110361
0.00174016
0.000929957
0.00120147
0.00072478
0.000763805
0.000497993
0.000401172
0.000254472
8.27388e-05
-0.000257628
0.00116661
0.00304299
0.00111071
0.00243472
0.00100159
0.00184929
0.000848421
0.00135464
0.000663845
0.000948381
0.000456998
0.00060802
0.000233433
0.000306304
-2.4703e-05
0.00101853
0.00303647
0.000977902
0.00247535
0.000885785
0.00194141
0.000752783
0.00148764
0.000590858
0.00111031
0.000407621
0.000791257
0.000209221
0.000504703
0.000184007
0.000877857
0.0030226
0.000848984
0.00250422
0.000772092
0.0020183
0.000657444
0.00160229
0.000516319
0.00125143
0.000355763
0.000951813
0.000181783
0.000678683
0.000365284
0.000753133
0.00300423
0.000732817
0.00252454
0.000668713
0.0020824
0.000570303
0.0017007
0.000448056
0.00137368
0.00030849
0.00109138
0.000157225
0.000829949
0.000522006
0.000646985
0.00298373
0.000632168
0.00253935
0.0005786
0.00213597
0.00049465
0.00178465
0.000389072
0.00147926
0.000267935
0.00121252
0.000136447
0.000961437
0.000657956
0.000558205
0.00296339
0.000546077
0.00255148
0.000500973
0.00218107
0.000429886
0.00185574
0.000339002
0.00157014
0.000233821
0.0013177
0.000119006
0.00107625
0.000776467
0.000484994
0.00294468
0.000474157
0.00256232
0.000435428
0.0022198
0.000374595
0.00191657
0.000296107
0.00164863
0.000204591
0.00140921
0.00010384
0.001177
0.000879815
0.00042516
0.00292817
0.000415038
0.00257244
0.000381023
0.00225382
0.000328015
0.00196958
0.000259597
0.00171705
0.000179549
0.00148926
9.08989e-05
0.00126565
0.000970225
0.000376204
0.00291399
0.000366499
0.00258215
0.000336097
0.00228422
0.000289233
0.00201644
0.000228945
0.00177733
0.000158393
0.00155981
8.01993e-05
0.00134385
0.00104994
0.000335869
0.00290206
0.000326428