/*--------------------------------*- C++ -*----------------------------------*\
| =========                 |                                                 |
| \\      /  F ield         | OpenFOAM: The Open Source CFD Toolbox           |
|  \\    /   O peration     | Version:  v2012                                 |
|   \\  /    A nd           | Website:  www.openfoam.com                      |
|    \\/     M anipulation  |                                                 |
\*---------------------------------------------------------------------------*/
FoamFile
{
    version     2.0;
    format      ascii;
    class       scalarField;
    location    "0.122/lagrangian/kinematicCloud";
    object      age;
}
// * * * * * * * * * * * * * * * * * * * * * * * * * * * * * * * * * * * * * //


54
(
0.1212
0.1202
0.1191
0.118
0.117
0.116
0.115
0.114
0.1129
0.1118
0.111725
0.1107
0.1096
0.1085
0.1074
0.1063
0.1052
0.1041
0.103
0.102925
0.1019
0.1008
0.0997
0.0986
0.098525
0.0975
0.0964
0.096325
0.0953
0.095225
0.0942
0.0931
0.092
0.0909
0.090825
0.0899
0.0889
0.0879
0.0869
0.0859
0.0849
0.0839
0.0829
0.0819
0.0809
0.0799
0.0789
0.0779
0.0769
0.0759
0.0749
0.0739
0.0729
0.0719
)


// ************************************************************************* //
