/*--------------------------------*- C++ -*----------------------------------*\
| =========                 |                                                 |
| \\      /  F ield         | OpenFOAM: The Open Source CFD Toolbox           |
|  \\    /   O peration     | Version:  v2012                                 |
|   \\  /    A nd           | Website:  www.openfoam.com                      |
|    \\/     M anipulation  |                                                 |
\*---------------------------------------------------------------------------*/
FoamFile
{
    version     2.0;
    format      ascii;
    class       vectorField;
    location    "0.144/lagrangian/kinematicCloud";
    object      U;
}
// * * * * * * * * * * * * * * * * * * * * * * * * * * * * * * * * * * * * * //


54
(
(9.11403 -0.000741041 0)
(10.3154 -0.000856217 0)
(10.3184 -0.000757763 0)
(9.98134 -0.00028437 0)
(9.92818 -0.00113938 0)
(10.3158 -0.00096661 0)
(5.5608 -0.00197493 0)
(9.34104 -0.00178367 0)
(9.41467 -0.00218559 0)
(10.2383 0.000601308 0)
(10.3552 -0.000183203 0)
(9.79984 0.00135865 0)
(7.81348 -0.00147649 0)
(7.82338 0.000643619 0)
(8.22566 -0.00102737 0)
(10.384 -0.000297242 0)
(9.21169 0.00197801 0)
(8.61273 -0.00252473 0)
(9.90758 0.00319991 0)
(9.46111 -0.00396872 0)
(10.142 -0.00458863 0)
(8.91135 -0.00408496 0)
(10.0903 -0.00502205 0)
(9.68852 0.00305418 0)
(10.3129 0.00214644 0)
(10.1409 -0.0051427 0)
(9.44701 0.00321388 0)
(9.86204 -0.00516531 0)
(8.46135 0.00244837 0)
(9.76076 -0.00512131 0)
(2.22466 -0.000461991 0)
(8.96677 0.00131069 0)
(7.54033 -0.00315945 0)
(10.3381 -0.00213966 0)
(10.0575 0.00383536 0)
(10.2076 -0.00508622 0)
(10.23 0.00336215 0)
(10.2971 0.00229882 0)
(10.2028 -0.00521737 0)
(7.44841 -0.000962444 0)
(10.1847 0.00375212 0)
(10.2415 -0.00500001 0)
(10.0571 0.00418786 0)
(9.93037 0.00397406 0)
(10.218 0.00369611 0)
(10.2753 -0.00437074 0)
(9.84874 -0.00577759 0)
(10.3036 3.51502e-05 0)
(10.2766 0.0025758 0)
(10.0878 -0.00600171 0)
(9.43599 0.00310121 0)
(10.2682 0.00282491 0)
(9.66618 -0.00522867 0)
(8.91651 0.00294712 0)
)


// ************************************************************************* //
