/*--------------------------------*- C++ -*----------------------------------*\
| =========                 |                                                 |
| \\      /  F ield         | OpenFOAM: The Open Source CFD Toolbox           |
|  \\    /   O peration     | Version:  v2012                                 |
|   \\  /    A nd           | Website:  www.openfoam.com                      |
|    \\/     M anipulation  |                                                 |
\*---------------------------------------------------------------------------*/
FoamFile
{
    version     2.0;
    format      ascii;
    class       volVectorField;
    location    "0.05";
    object      U.air;
}
// * * * * * * * * * * * * * * * * * * * * * * * * * * * * * * * * * * * * * //

dimensions      [0 1 -1 0 0 0 0];


internalField   nonuniform List<vector> 
1900
(
(39.9676 0.00859606 0)
(39.9239 0.0151059 0)
(39.8679 0.018056 0)
(39.8035 0.0207922 0)
(39.7301 0.0237269 0)
(39.6524 0.0268023 0)
(39.5679 0.0297691 0)
(39.471 0.0344358 0)
(39.3799 0.0347889 0)
(39.2116 0.0735047 0)
(40.0053 0.0147922 0)
(40.0212 0.0233997 0)
(40.0401 0.0257042 0)
(40.0561 0.0277311 0)
(40.0726 0.0305179 0)
(40.0899 0.0330014 0)
(40.1096 0.0365077 0)
(40.1258 0.0385637 0)
(40.1467 0.0533741 0)
(40.1569 0.058562 0)
(40.0029 0.00824657 0)
(40.0161 0.0135893 0)
(40.0335 0.0137737 0)
(40.0511 0.0145138 0)
(40.0689 0.016321 0)
(40.088 0.0182272 0)
(40.1088 0.0208587 0)
(40.13 0.0248085 0)
(40.1543 0.0350761 0)
(40.1845 0.0529225 0)
(40.0018 0.00414169 0)
(40.0133 0.00781793 0)
(40.0301 0.00860599 0)
(40.0477 0.00971288 0)
(40.0657 0.0114531 0)
(40.085 0.0132768 0)
(40.1062 0.0158759 0)
(40.1289 0.0197385 0)
(40.1561 0.028876 0)
(40.1891 0.0416297 0)
(40.0015 0.00110642 0)
(40.012 0.00210683 0)
(40.0285 0.00234562 0)
(40.0465 0.0027114 0)
(40.0646 0.00329393 0)
(40.084 0.00407806 0)
(40.1057 0.00562809 0)
(40.1295 0.00839824 0)
(40.1576 0.014663 0)
(40.1919 0.0210749 0)
(40.0016 -0.00181096 0)
(40.0122 -0.00372792 0)
(40.0288 -0.00415279 0)
(40.0468 -0.0042879 0)
(40.065 -0.00434197 0)
(40.0847 -0.00400584 0)
(40.1067 -0.00290602 0)
(40.1312 -0.000808885 0)
(40.1598 0.00318355 0)
(40.1937 0.00642614 0)
(40.0019 -0.00487531 0)
(40.0137 -0.0094914 0)
(40.0309 -0.0105033 0)
(40.049 -0.0114374 0)
(40.0673 -0.0126504 0)
(40.0872 -0.0134146 0)
(40.1095 -0.0134511 0)
(40.1345 -0.0127425 0)
(40.163 -0.0110396 0)
(40.1958 -0.0104523 0)
(40.0032 -0.00928208 0)
(40.0169 -0.0153793 0)
(40.0348 -0.0157566 0)
(40.0527 -0.0164539 0)
(40.071 -0.0180115 0)
(40.0911 -0.0193824 0)
(40.1137 -0.0202711 0)
(40.1386 -0.020795 0)
(40.1671 -0.0210254 0)
(40.1985 -0.0225612 0)
(40.0058 -0.016238 0)
(40.022 -0.0253588 0)
(40.0417 -0.0274245 0)
(40.058 -0.0288636 0)
(40.0749 -0.0307997 0)
(40.0937 -0.0324204 0)
(40.1145 -0.0335579 0)
(40.1374 -0.0344142 0)
(40.1628 -0.0352116 0)
(40.1894 -0.0366577 0)
(39.9674 -0.0101319 0)
(39.9214 -0.0185751 0)
(39.8646 -0.022897 0)
(39.797 -0.0265865 0)
(39.7224 -0.0303321 0)
(39.6428 -0.0339153 0)
(39.5582 -0.0373364 0)
(39.4687 -0.0407376 0)
(39.374 -0.0441088 0)
(39.2742 -0.0480506 0)
(39.1722 -0.0392899 0)
(38.0175 -0.354732 0)
(36.4706 -0.795051 0)
(34.9649 -1.35457 0)
(33.8572 -1.88888 0)
(33.1087 -2.33235 0)
(32.5396 -2.60382 0)
(32.0831 -2.66935 0)
(31.6444 -2.56943 0)
(31.2127 -2.34918 0)
(30.7873 -2.07005 0)
(30.3631 -1.77869 0)
(29.9523 -1.50857 0)
(29.549 -1.27241 0)
(29.1567 -1.07561 0)
(28.7769 -0.916049 0)
(28.4117 -0.788849 0)
(28.0653 -0.688502 0)
(27.7413 -0.609217 0)
(27.442 -0.546147 0)
(27.169 -0.495568 0)
(26.9199 -0.453542 0)
(26.6962 -0.41767 0)
(26.4948 -0.386542 0)
(26.318 -0.359728 0)
(26.1599 -0.335754 0)
(26.025 -0.314387 0)
(25.9093 -0.295397 0)
(25.8102 -0.278515 0)
(25.725 -0.263424 0)
(25.6522 -0.24998 0)
(25.5888 -0.237839 0)
(25.5347 -0.226968 0)
(25.4865 -0.216844 0)
(25.4443 -0.207516 0)
(25.4078 -0.198963 0)
(25.3766 -0.191071 0)
(25.35 -0.183709 0)
(25.3279 -0.176832 0)
(25.3096 -0.170325 0)
(25.2949 -0.164169 0)
(25.2832 -0.158327 0)
(25.2742 -0.152744 0)
(25.2669 -0.147261 0)
(25.261 -0.141996 0)
(25.2565 -0.137064 0)
(25.2533 -0.132423 0)
(25.2515 -0.128124 0)
(25.2511 -0.124331 0)
(25.2523 -0.120927 0)
(25.2552 -0.117966 0)
(25.2601 -0.115361 0)
(25.2671 -0.112963 0)
(25.2762 -0.110599 0)
(25.2871 -0.108128 0)
(25.2997 -0.105492 0)
(25.3135 -0.102759 0)
(25.3282 -0.100147 0)
(25.3433 -0.0980421 0)
(25.3591 -0.096864 0)
(25.3754 -0.0968315 0)
(25.3925 -0.0979561 0)
(25.4106 -0.100316 0)
(25.4299 -0.104217 0)
(25.4508 -0.110094 0)
(25.4744 -0.118442 0)
(25.5024 -0.129113 0)
(25.5362 -0.140188 0)
(25.5759 -0.148682 0)
(25.6195 -0.152055 0)
(25.6641 -0.148153 0)
(25.7042 -0.137113 0)
(25.7367 -0.122899 0)
(25.762 -0.110021 0)
(25.7829 -0.10112 0)
(25.8034 -0.0972532 0)
(25.8258 -0.0988754 0)
(25.8525 -0.105574 0)
(25.8865 -0.116457 0)
(25.9296 -0.130416 0)
(25.9834 -0.146172 0)
(26.0487 -0.161818 0)
(26.125 -0.174902 0)
(26.2101 -0.183337 0)
(26.3004 -0.185582 0)
(26.3924 -0.180276 0)
(26.4811 -0.168118 0)
(26.5645 -0.151181 0)
(26.6403 -0.132092 0)
(26.7092 -0.112808 0)
(26.7703 -0.0952327 0)
(26.8262 -0.0797655 0)
(26.8753 -0.0673838 0)
(26.9221 -0.0573412 0)
(26.9628 -0.0501771 0)
(27.0039 -0.0448115 0)
(27.0384 -0.0417027 0)
(27.0779 -0.0400589 0)
(27.1039 -0.0401595 0)
(27.1533 -0.0434063 0)
(40.2591 0.205358 0)
(40.499 0.295836 0)
(40.6488 -0.0461027 0)
(40.4723 -0.66831 0)
(39.9273 -1.33088 0)
(39.0981 -1.89425 0)
(38.1064 -2.25393 0)
(37.0578 -2.38385 0)
(36.0566 -2.32244 0)
(35.1523 -2.13272 0)
(34.3668 -1.87935 0)
(33.6978 -1.61193 0)
(33.136 -1.36104 0)
(32.6574 -1.1403 0)
(32.2421 -0.954831 0)
(31.8695 -0.803191 0)
(31.5234 -0.681386 0)
(31.1914 -0.58442 0)
(30.8665 -0.507616 0)
(30.5456 -0.447014 0)
(30.2278 -0.398817 0)
(29.9195 -0.36048 0)
(29.6245 -0.330111 0)
(29.3427 -0.305779 0)
(29.0769 -0.286047 0)
(28.8283 -0.269856 0)
(28.5977 -0.256494 0)
(28.3866 -0.245134 0)
(28.1935 -0.23512 0)
(28.0189 -0.22615 0)
(27.8598 -0.217918 0)
(27.7156 -0.210198 0)
(27.5846 -0.202853 0)
(27.4665 -0.1957 0)
(27.3601 -0.188814 0)
(27.264 -0.182353 0)
(27.1776 -0.176298 0)
(27.0996 -0.170558 0)
(27.0296 -0.165105 0)
(26.9662 -0.159861 0)
(26.9092 -0.15478 0)
(26.8569 -0.149787 0)
(26.8085 -0.144898 0)
(26.7636 -0.14013 0)
(26.722 -0.135538 0)
(26.6835 -0.131223 0)
(26.6479 -0.127226 0)
(26.6154 -0.123584 0)
(26.5859 -0.120351 0)
(26.5595 -0.117645 0)
(26.5363 -0.115474 0)
(26.5163 -0.113678 0)
(26.4998 -0.112079 0)
(26.4865 -0.110468 0)
(26.4764 -0.108675 0)
(26.4691 -0.106597 0)
(26.4636 -0.104227 0)
(26.4595 -0.101864 0)
(26.4568 -0.100034 0)
(26.4556 -0.0992189 0)
(26.4556 -0.0994012 0)
(26.4568 -0.100784 0)
(26.4594 -0.1035 0)
(26.4636 -0.107866 0)
(26.4697 -0.114381 0)
(26.4784 -0.123749 0)
(26.4918 -0.135978 0)
(26.5118 -0.148816 0)
(26.5381 -0.158703 0)
(26.568 -0.162607 0)
(26.5972 -0.157895 0)
(26.6207 -0.144852 0)
(26.6353 -0.128303 0)
(26.642 -0.113724 0)
(26.6438 -0.10451 0)
(26.6446 -0.101307 0)
(26.6482 -0.103658 0)
(26.6573 -0.112117 0)
(26.6745 -0.125412 0)
(26.7013 -0.142211 0)
(26.7386 -0.16111 0)
(26.7869 -0.179944 0)
(26.845 -0.195733 0)
(26.91 -0.205933 0)
(26.9783 -0.208932 0)
(27.0467 -0.203299 0)
(27.1113 -0.189974 0)
(27.1712 -0.171335 0)
(27.2248 -0.150418 0)
(27.2737 -0.129333 0)
(27.3174 -0.110225 0)
(27.3587 -0.093415 0)
(27.3964 -0.0800282 0)
(27.434 -0.0692154 0)
(27.4688 -0.0614525 0)
(27.505 -0.0555768 0)
(27.5373 -0.052164 0)
(27.5755 -0.0500453 0)
(27.6016 -0.0503811 0)
(27.6529 -0.0520592 0)
(40.27 0.127717 0)
(40.4563 0.0177166 0)
(40.6023 -0.368721 0)
(40.4976 -0.908928 0)
(40.0435 -1.44088 0)
(39.2826 -1.86028 0)
(38.3232 -2.09996 0)
(37.2914 -2.15549 0)
(36.275 -2.06677 0)
(35.3647 -1.88524 0)
(34.5833 -1.65829 0)
(33.9349 -1.42303 0)
(33.4089 -1.20289 0)
(32.9857 -1.00846 0)
(32.6459 -0.843676 0)
(32.371 -0.70738 0)
(32.1458 -0.596187 0)
(31.9575 -0.506231 0)
(31.7953 -0.433682 0)
(31.6507 -0.375328 0)
(31.5155 -0.328392 0)
(31.3845 -0.291171 0)
(31.2511 -0.261249 0)
(31.1129 -0.237247 0)
(30.9677 -0.217988 0)
(30.8142 -0.202504 0)
(30.652 -0.190196 0)
(30.4822 -0.180287 0)
(30.3064 -0.172265 0)
(30.1275 -0.165758 0)
(29.9473 -0.160393 0)
(29.7703 -0.155943 0)
(29.5975 -0.152251 0)
(29.4332 -0.149135 0)
(29.2785 -0.146522 0)
(29.1336 -0.144268 0)
(28.999 -0.14218 0)
(28.874 -0.140109 0)
(28.7585 -0.137948 0)
(28.6513 -0.135594 0)
(28.5517 -0.133063 0)
(28.4587 -0.130259 0)
(28.3715 -0.127073 0)
(28.2898 -0.123627 0)
(28.2132 -0.120157 0)
(28.1412 -0.11685 0)
(28.0737 -0.11381 0)
(28.0106 -0.111111 0)
(27.9519 -0.108825 0)
(27.8976 -0.106999 0)
(27.847 -0.105692 0)
(27.8007 -0.104862 0)
(27.759 -0.104303 0)
(27.7218 -0.103738 0)
(27.6889 -0.102925 0)
(27.6597 -0.101671 0)
(27.6334 -0.0999944 0)
(27.6095 -0.0982616 0)
(27.588 -0.0969963 0)
(27.5686 -0.0965872 0)
(27.5512 -0.0973043 0)
(27.536 -0.099192 0)
(27.5226 -0.102328 0)
(27.5109 -0.107121 0)
(27.5008 -0.114256 0)
(27.4932 -0.124631 0)
(27.4907 -0.138475 0)
(27.4958 -0.153211 0)
(27.5081 -0.16468 0)
(27.5234 -0.169211 0)
(27.5371 -0.163515 0)
(27.5436 -0.1482 0)
(27.5396 -0.129023 0)
(27.526 -0.112315 0)
(27.5065 -0.101772 0)
(27.4861 -0.0985519 0)
(27.4688 -0.102444 0)
(27.4571 -0.112976 0)
(27.4535 -0.128951 0)
(27.4591 -0.148648 0)
(27.4743 -0.170409 0)
(27.4986 -0.191894 0)
(27.5306 -0.209955 0)
(27.5672 -0.221607 0)
(27.6037 -0.22466 0)
(27.6381 -0.218306 0)
(27.6681 -0.203845 0)
(27.6938 -0.18378 0)
(27.715 -0.161619 0)
(27.7341 -0.139493 0)
(27.7517 -0.11971 0)
(27.7701 -0.102528 0)
(27.789 -0.0888221 0)
(27.8101 -0.0779883 0)
(27.8323 -0.0701859 0)
(27.857 -0.0645191 0)
(27.8814 -0.0614798 0)
(27.912 -0.0593483 0)
(27.9342 -0.0605831 0)
(27.9798 -0.0605884 0)
(40.2631 0.0673234 0)
(40.4032 0.00413556 0)
(40.4964 -0.262205 0)
(40.3655 -0.678611 0)
(39.9154 -1.11206 0)
(39.1788 -1.46767 0)
(38.2534 -1.69386 0)
(37.2564 -1.77792 0)
(36.2691 -1.73961 0)
(35.3809 -1.61373 0)
(34.6119 -1.43897 0)
(33.9671 -1.24858 0)
(33.4392 -1.06535 0)
(33.0117 -0.900646 0)
(32.6676 -0.759373 0)
(32.3899 -0.641365 0)
(32.1652 -0.544452 0)
(31.9821 -0.465427 0)
(31.8323 -0.40137 0)
(31.7082 -0.349309 0)
(31.6049 -0.307085 0)
(31.5174 -0.272601 0)
(31.4427 -0.244048 0)
(31.3775 -0.219863 0)
(31.3201 -0.199332 0)
(31.2679 -0.181645 0)
(31.2189 -0.166479 0)
(31.1709 -0.153342 0)
(31.1216 -0.14198 0)
(31.0696 -0.132296 0)
(31.0134 -0.124212 0)
(30.9515 -0.117621 0)
(30.8829 -0.112434 0)
(30.807 -0.10856 0)
(30.7237 -0.105683 0)
(30.6335 -0.103533 0)
(30.5372 -0.101902 0)
(30.4358 -0.100596 0)
(30.3305 -0.0994645 0)
(30.2229 -0.0983664 0)
(30.1142 -0.0971757 0)
(30.0058 -0.0957401 0)
(29.8993 -0.0941282 0)
(29.7954 -0.0924851 0)
(29.6945 -0.0909261 0)
(29.5971 -0.089547 0)
(29.5035 -0.0884373 0)
(29.4142 -0.0876669 0)
(29.3291 -0.087347 0)
(29.2489 -0.087499 0)
(29.1733 -0.0880766 0)
(29.1027 -0.0890218 0)
(29.0373 -0.0901139 0)
(28.9768 -0.0910563 0)
(28.9215 -0.0915253 0)
(28.87 -0.0912385 0)
(28.822 -0.090297 0)
(28.7767 -0.0892225 0)
(28.7342 -0.0885918 0)
(28.6942 -0.088815 0)
(28.6569 -0.090111 0)
(28.6216 -0.0926401 0)
(28.5889 -0.0964378 0)
(28.5586 -0.101751 0)
(28.5296 -0.109457 0)
(28.5026 -0.1211 0)
(28.481 -0.137128 0)
(28.4682 -0.154383 0)
(28.4636 -0.166768 0)
(28.463 -0.170339 0)
(28.4591 -0.163469 0)
(28.4456 -0.145543 0)
(28.4198 -0.123462 0)
(28.3838 -0.104638 0)
(28.3415 -0.0931175 0)
(28.2969 -0.0901688 0)
(28.2553 -0.0954263 0)
(28.2196 -0.107893 0)
(28.1911 -0.125992 0)
(28.1697 -0.148156 0)
(28.1548 -0.172705 0)
(28.1455 -0.196661 0)
(28.1398 -0.215612 0)
(28.1353 -0.226549 0)
(28.1274 -0.229241 0)
(28.1137 -0.221624 0)
(28.0939 -0.20567 0)
(28.0701 -0.184487 0)
(28.045 -0.16145 0)
(28.0227 -0.139602 0)
(28.004 -0.120253 0)
(27.9905 -0.104058 0)
(27.9818 -0.091425 0)
(27.9782 -0.0817894 0)
(27.9783 -0.0749398 0)
(27.9831 -0.0697603 0)
(27.9907 -0.0674697 0)
(28.0029 -0.0657199 0)
(28.0135 -0.0682916 0)
(28.0364 -0.0670627 0)
(40.2556 0.0314307 0)
(40.3565 -0.0319091 0)
(40.4021 -0.258955 0)
(40.2467 -0.61737 0)
(39.8043 -0.995571 0)
(39.0978 -1.30672 0)
(38.212 -1.50472 0)
(37.2565 -1.57695 0)
(36.2997 -1.54037 0)
(35.4304 -1.42783 0)
(34.6701 -1.27349 0)
(34.0266 -1.10633 0)
(33.4954 -0.945924 0)
(33.0628 -0.802007 0)
(32.7127 -0.678325 0)
(32.4295 -0.574898 0)
(32.1997 -0.489726 0)
(32.0124 -0.420269 0)
(31.8587 -0.363685 0)
(31.7316 -0.31756 0)
(31.6256 -0.279926 0)
(31.5365 -0.249183 0)
(31.4609 -0.223748 0)
(31.3965 -0.202489 0)
(31.3414 -0.184614 0)
(31.294 -0.169462 0)
(31.2532 -0.156583 0)
(31.2177 -0.145479 0)
(31.1869 -0.135818 0)
(31.16 -0.127358 0)
(31.1364 -0.119916 0)
(31.1154 -0.113349 0)
(31.0963 -0.107518 0)
(31.0785 -0.102391 0)
(31.0612 -0.0977275 0)
(31.0435 -0.0934185 0)
(31.0249 -0.0894624 0)
(31.0046 -0.0857987 0)
(30.9818 -0.0823699 0)
(30.9559 -0.0791262 0)
(30.9264 -0.0760343 0)
(30.8925 -0.0730888 0)
(30.8539 -0.0702974 0)
(30.8102 -0.0676713 0)
(30.7615 -0.0653072 0)
(30.7076 -0.0633131 0)
(30.649 -0.0617985 0)
(30.5861 -0.0608584 0)
(30.5194 -0.0605767 0)
(30.45 -0.0609815 0)
(30.3793 -0.0621053 0)
(30.3079 -0.0639716 0)
(30.2371 -0.0663385 0)
(30.1682 -0.0687624 0)
(30.1015 -0.0706569 0)
(30.0365 -0.0716406 0)
(29.9728 -0.0718318 0)
(29.9099 -0.0718169 0)
(29.8478 -0.0722554 0)
(29.7872 -0.0735545 0)
(29.7282 -0.0758321 0)
(29.6702 -0.0792035 0)
(29.6139 -0.0838211 0)
(29.5595 -0.0898721 0)
(29.5068 -0.0980488 0)
(29.4546 -0.110636 0)
(29.4054 -0.128863 0)
(29.3659 -0.148415 0)
(29.3371 -0.162872 0)
(29.3118 -0.167746 0)
(29.2829 -0.158277 0)
(29.2446 -0.136496 0)
(29.1941 -0.110808 0)
(29.1339 -0.0896231 0)
(29.0682 -0.0769547 0)
(28.9994 -0.0739807 0)
(28.931 -0.0804183 0)
(28.8666 -0.0947468 0)
(28.8066 -0.114648 0)
(28.7493 -0.138135 0)
(28.6926 -0.163235 0)
(28.6343 -0.187192 0)
(28.5721 -0.206497 0)
(28.5049 -0.217654 0)
(28.4308 -0.218402 0)
(28.3495 -0.209064 0)
(28.2641 -0.191838 0)
(28.179 -0.170313 0)
(28.0998 -0.148354 0)
(28.0281 -0.12789 0)
(27.9655 -0.11035 0)
(27.9123 -0.0959991 0)
(27.8686 -0.0850729 0)
(27.8326 -0.0768497 0)
(27.8043 -0.071437 0)
(27.7805 -0.0678599 0)
(27.7629 -0.0667615 0)
(27.7446 -0.0657399 0)
(27.7335 -0.0689226 0)
(27.7109 -0.0673303 0)
(40.2479 0.00637882 0)
(40.319 -0.0529302 0)
(40.3278 -0.23497 0)
(40.1542 -0.518839 0)
(39.719 -0.818172 0)
(39.0362 -1.06207 0)
(38.1811 -1.21602 0)
(37.2551 -1.27229 0)
(36.3235 -1.24522 0)
(35.4694 -1.16034 0)
(34.7171 -1.04229 0)
(34.0753 -0.912653 0)
(33.5415 -0.786645 0)
(33.1038 -0.672194 0)
(32.7473 -0.572781 0)
(32.4573 -0.488992 0)
(32.2211 -0.419698 0)
(32.0278 -0.362957 0)
(31.8688 -0.316762 0)
(31.7371 -0.279125 0)
(31.6272 -0.24836 0)
(31.5347 -0.223093 0)
(31.4562 -0.20213 0)
(31.3891 -0.184517 0)
(31.3317 -0.169623 0)
(31.2821 -0.156862 0)
(31.239 -0.14579 0)
(31.2012 -0.136076 0)
(31.1681 -0.127531 0)
(31.1393 -0.12001 0)
(31.1139 -0.113371 0)
(31.0915 -0.107518 0)
(31.0717 -0.102401 0)
(31.054 -0.0979702 0)
(31.0381 -0.0940592 0)
(31.0237 -0.0905515 0)
(31.0106 -0.0873695 0)
(30.9985 -0.084384 0)
(30.9872 -0.0814838 0)
(30.9765 -0.0785612 0)
(30.9661 -0.0755201 0)
(30.9556 -0.0723054 0)
(30.945 -0.068922 0)
(30.9338 -0.0654227 0)
(30.9221 -0.0619698 0)
(30.9094 -0.0587325 0)
(30.8956 -0.0558631 0)
(30.8804 -0.053506 0)
(30.8636 -0.0518237 0)
(30.8448 -0.0509654 0)
(30.8238 -0.0509854 0)
(30.8001 -0.0518422 0)
(30.7736 -0.0533545 0)
(30.7439 -0.0550995 0)
(30.7107 -0.0563589 0)
(30.6736 -0.0565617 0)
(30.632 -0.0558742 0)
(30.5853 -0.0549446 0)
(30.5335 -0.0545581 0)
(30.4767 -0.0552552 0)
(30.4153 -0.0570947 0)
(30.3499 -0.0601173 0)
(30.2808 -0.0645908 0)
(30.208 -0.070706 0)
(30.1326 -0.0788751 0)
(30.0549 -0.0911887 0)
(29.9731 -0.110707 0)
(29.8943 -0.133825 0)
(29.8274 -0.151336 0)
(29.7676 -0.156455 0)
(29.7086 -0.145644 0)
(29.6458 -0.121563 0)
(29.5763 -0.0930886 0)
(29.5014 -0.0693779 0)
(29.4234 -0.0548796 0)
(29.3418 -0.050773 0)
(29.2554 -0.0569458 0)
(29.1646 -0.0717087 0)
(29.0696 -0.0919509 0)
(28.9682 -0.11514 0)
(28.8576 -0.139297 0)
(28.7354 -0.161704 0)
(28.6011 -0.178573 0)
(28.455 -0.186601 0)
(28.2991 -0.184611 0)
(28.1369 -0.17344 0)
(27.9791 -0.156497 0)
(27.8318 -0.137142 0)
(27.7007 -0.118229 0)
(27.5847 -0.101194 0)
(27.486 -0.0873161 0)
(27.4006 -0.0764381 0)
(27.3298 -0.0686338 0)
(27.2673 -0.063121 0)
(27.2158 -0.0597769 0)
(27.1663 -0.0576448 0)
(27.1255 -0.0572936 0)
(27.0788 -0.0569705 0)
(27.0475 -0.0596463 0)
(26.9836 -0.0589965 0)
(40.242 -0.0161613 0)
(40.2905 -0.0671984 0)
(40.2718 -0.206877 0)
(40.0834 -0.423844 0)
(39.6529 -0.65628 0)
(38.9883 -0.849214 0)
(38.1574 -0.975755 0)
(37.2542 -1.0281 0)
(36.3419 -1.01517 0)
(35.4975 -0.954849 0)
(34.7471 -0.865126 0)
(34.1004 -0.763544 0)
(33.5567 -0.66334 0)
(33.1078 -0.571744 0)
(32.7398 -0.491636 0)
(32.4391 -0.423571 0)
(32.1927 -0.366699 0)
(31.9898 -0.319646 0)
(31.8212 -0.280857 0)
(31.6799 -0.248973 0)
(31.5605 -0.222764 0)
(31.4584 -0.201108 0)
(31.3701 -0.183041 0)
(31.2929 -0.167789 0)
(31.2246 -0.1548 0)
(31.1635 -0.143639 0)
(31.1083 -0.134001 0)
(31.0584 -0.1256 0)
(31.0124 -0.11823 0)
(30.9698 -0.111776 0)
(30.9298 -0.106102 0)
(30.892 -0.101106 0)
(30.856 -0.0967098 0)
(30.8211 -0.0928409 0)
(30.787 -0.0893554 0)
(30.7534 -0.086136 0)
(30.7201 -0.083097 0)
(30.6867 -0.0801312 0)
(30.6532 -0.0771607 0)
(30.6194 -0.0741147 0)
(30.5852 -0.07092 0)
(30.5506 -0.0675506 0)
(30.5155 -0.0640417 0)
(30.4802 -0.060466 0)
(30.4443 -0.0569802 0)
(30.4084 -0.0537758 0)
(30.3725 -0.0510042 0)
(30.3371 -0.0487648 0)
(30.302 -0.0471614 0)
(30.2673 -0.0462894 0)
(30.2329 -0.0461626 0)
(30.1986 -0.046713 0)
(30.1641 -0.0477342 0)
(30.1294 -0.0487622 0)
(30.0939 -0.0490705 0)
(30.0573 -0.0481352 0)
(30.0188 -0.0461072 0)
(29.9775 -0.0436624 0)
(29.9325 -0.0415774 0)
(29.8831 -0.0404002 0)
(29.8287 -0.0403107 0)
(29.7694 -0.0414222 0)
(29.7047 -0.0439143 0)
(29.6339 -0.0480737 0)
(29.5569 -0.0546133 0)
(29.4749 -0.0653704 0)
(29.3863 -0.0831941 0)
(29.2892 -0.106736 0)
(29.1975 -0.126242 0)
(29.1171 -0.132829 0)
(29.0415 -0.122303 0)
(28.966 -0.0979575 0)
(28.8902 -0.069867 0)
(28.8195 -0.0472205 0)
(28.7514 -0.0324749 0)
(28.6813 -0.0268021 0)
(28.6044 -0.0306032 0)
(28.5163 -0.0423573 0)
(28.4132 -0.0588659 0)
(28.2908 -0.0776485 0)
(28.1466 -0.0969769 0)
(27.9819 -0.114571 0)
(27.8008 -0.127105 0)
(27.6081 -0.131931 0)
(27.4104 -0.128478 0)
(27.2177 -0.11861 0)
(27.0387 -0.105407 0)
(26.877 -0.0912654 0)
(26.7368 -0.0780741 0)
(26.6153 -0.0667394 0)
(26.5137 -0.0579065 0)
(26.426 -0.0514067 0)
(26.3524 -0.0470748 0)
(26.2855 -0.0443303 0)
(26.2284 -0.0428372 0)
(26.1715 -0.0420374 0)
(26.1229 -0.0422586 0)
(26.0664 -0.0426271 0)
(26.028 -0.0442127 0)
(25.9505 -0.0455599 0)
(40.2384 -0.029998 0)
(40.2707 -0.0704496 0)
(40.2316 -0.171572 0)
(40.0307 -0.327173 0)
(39.6006 -0.494864 0)
(38.9442 -0.634496 0)
(38.122 -0.726418 0)
(37.2222 -0.765075 0)
(36.3083 -0.757633 0)
(35.4511 -0.717315 0)
(34.6818 -0.655907 0)
(34.012 -0.585268 0)
(33.4415 -0.514479 0)
(32.9634 -0.448827 0)
(32.5634 -0.390492 0)
(32.2294 -0.340307 0)
(31.9475 -0.297828 0)
(31.7086 -0.262329 0)
(31.5027 -0.232647 0)
(31.3236 -0.20798 0)
(31.1644 -0.187474 0)
(31.0218 -0.170522 0)
(30.8923 -0.156236 0)
(30.7731 -0.14395 0)
(30.6624 -0.13327 0)
(30.5585 -0.123933 0)
(30.4599 -0.115738 0)
(30.3658 -0.108454 0)
(30.2753 -0.101933 0)
(30.1877 -0.0961015 0)
(30.1024 -0.0908726 0)
(30.0191 -0.0861696 0)
(29.9373 -0.0819303 0)
(29.8566 -0.078104 0)
(29.7767 -0.0745933 0)
(29.6975 -0.0713179 0)
(29.6189 -0.0682059 0)
(29.541 -0.0651564 0)
(29.4636 -0.0620962 0)
(29.3868 -0.0589844 0)
(29.3108 -0.055777 0)
(29.236 -0.0524468 0)
(29.1626 -0.0490039 0)
(29.0906 -0.0455336 0)
(29.0204 -0.0422157 0)
(28.9521 -0.0392754 0)
(28.886 -0.0368693 0)
(28.8223 -0.0350412 0)
(28.7611 -0.0338199 0)
(28.7018 -0.0332669 0)
(28.644 -0.0334152 0)
(28.5872 -0.0342053 0)
(28.5311 -0.0354395 0)
(28.4758 -0.0366429 0)
(28.4211 -0.0369935 0)
(28.3667 -0.035839 0)
(28.312 -0.0333409 0)
(28.2564 -0.0302813 0)
(28.1995 -0.0274829 0)
(28.1409 -0.0255359 0)
(28.0805 -0.0247084 0)
(28.0184 -0.0249981 0)
(27.9542 -0.0264118 0)
(27.8872 -0.0292544 0)
(27.8168 -0.0343346 0)
(27.7421 -0.0434481 0)
(27.6602 -0.0594911 0)
(27.5678 -0.0829338 0)
(27.4789 -0.10513 0)
(27.4025 -0.114081 0)
(27.3306 -0.102991 0)
(27.2577 -0.0768968 0)
(27.1843 -0.0486779 0)
(27.1173 -0.0275754 0)
(27.0541 -0.0137321 0)
(26.9894 -0.00749645 0)
(26.9192 -0.00951164 0)
(26.8403 -0.0174356 0)
(26.7493 -0.0284829 0)
(26.6418 -0.0405819 0)
(26.5149 -0.0529679 0)
(26.3693 -0.0646732 0)
(26.2081 -0.0731134 0)
(26.0362 -0.0761439 0)
(25.8633 -0.0737518 0)
(25.6992 -0.0676251 0)
(25.5501 -0.0597051 0)
(25.4188 -0.0515489 0)
(25.3073 -0.0442457 0)
(25.2128 -0.0383395 0)
(25.1344 -0.0340781 0)
(25.0662 -0.031228 0)
(25.0081 -0.0295085 0)
(24.9539 -0.0286322 0)
(24.9057 -0.0283197 0)
(24.8567 -0.0283144 0)
(24.8135 -0.0287812 0)
(24.762 -0.0295592 0)
(24.7272 -0.0302143 0)
(24.6551 -0.033266 0)
(40.223 -0.0441155 0)
(40.2347 -0.0683465 0)
(40.1703 -0.129288 0)
(39.9428 -0.223509 0)
(39.4856 -0.326545 0)
(38.7962 -0.413778 0)
(37.9304 -0.472633 0)
(36.9717 -0.498763 0)
(35.9898 -0.496115 0)
(35.0458 -0.472115 0)
(34.1796 -0.433772 0)
(33.4042 -0.388761 0)
(32.724 -0.343265 0)
(32.135 -0.300873 0)
(31.6255 -0.263091 0)
(31.1846 -0.230429 0)
(30.7993 -0.20261 0)
(30.4612 -0.179203 0)
(30.1597 -0.159377 0)
(29.8894 -0.142659 0)
(29.6424 -0.128278 0)
(29.4169 -0.116203 0)
(29.2095 -0.106 0)
(29.017 -0.0971328 0)
(28.8376 -0.0892945 0)
(28.669 -0.0823005 0)
(28.5101 -0.0760528 0)
(28.3596 -0.0703851 0)
(28.2168 -0.0652105 0)
(28.0805 -0.0604905 0)
(27.9502 -0.0562118 0)
(27.8254 -0.0523053 0)
(27.7055 -0.0487132 0)
(27.59 -0.0454214 0)
(27.4788 -0.0423816 0)
(27.3714 -0.0395369 0)
(27.2677 -0.0368375 0)
(27.1677 -0.0342113 0)
(27.0713 -0.0316027 0)
(26.9789 -0.0289818 0)
(26.8904 -0.0263343 0)
(26.8059 -0.0236382 0)
(26.7258 -0.0208884 0)
(26.65 -0.0181401 0)
(26.5786 -0.0155405 0)
(26.5114 -0.0133233 0)
(26.4481 -0.0116814 0)
(26.3885 -0.0106414 0)
(26.3321 -0.0101101 0)
(26.2778 -0.0100407 0)
(26.2247 -0.0104797 0)
(26.1719 -0.0114435 0)
(26.1192 -0.0128404 0)
(26.0661 -0.0143677 0)
(26.0133 -0.0152487 0)
(25.9613 -0.0146675 0)
(25.9103 -0.0125981 0)
(25.86 -0.00968198 0)
(25.8108 -0.00670413 0)
(25.7631 -0.00432422 0)
(25.7165 -0.00300411 0)
(25.67 -0.0028699 0)
(25.6228 -0.00380711 0)
(25.5735 -0.00596673 0)
(25.5203 -0.00987519 0)
(25.4598 -0.0166566 0)
(25.3873 -0.0286543 0)
(25.2969 -0.0483074 0)
(25.1899 -0.0719341 0)
(25.0811 -0.0859467 0)
(24.9757 -0.0795345 0)
(24.8749 -0.056936 0)
(24.7874 -0.0311 0)
(24.7191 -0.00973399 0)
(24.6655 0.00363591 0)
(24.6171 0.0116993 0)
(24.5681 0.0124179 0)
(24.5149 0.00739026 0)
(24.4526 2.00549e-05 0)
(24.3748 -0.00739952 0)
(24.2768 -0.0153046 0)
(24.1588 -0.0226042 0)
(24.0255 -0.0276628 0)
(23.8856 -0.0295234 0)
(23.7508 -0.0285018 0)
(23.6271 -0.025612 0)
(23.5187 -0.0219925 0)
(23.4265 -0.018614 0)
(23.35 -0.0159277 0)
(23.2862 -0.0140242 0)
(23.2333 -0.0128211 0)
(23.1868 -0.0121828 0)
(23.1461 -0.0119296 0)
(23.1068 -0.0119742 0)
(23.0702 -0.0121871 0)
(23.032 -0.0124516 0)
(22.9974 -0.0128711 0)
(22.9541 -0.0135876 0)
(22.9259 -0.0138281 0)
(22.862 -0.0165559 0)
(39.1403 -0.0539899 0)
(38.9465 -0.0675546 0)
(38.6587 -0.0934476 0)
(38.1915 -0.131013 0)
(37.4775 -0.172073 0)
(36.5129 -0.207808 0)
(35.3544 -0.233305 0)
(34.0901 -0.246392 0)
(32.7979 -0.247944 0)
(31.5412 -0.240172 0)
(30.3741 -0.22547 0)
(29.3098 -0.206585 0)
(28.363 -0.186326 0)
(27.5268 -0.166322 0)
(26.796 -0.147446 0)
(26.1542 -0.130066 0)
(25.5941 -0.114544 0)
(25.0995 -0.100707 0)
(24.6659 -0.0885142 0)
(24.2802 -0.0776888 0)
(23.9401 -0.0683696 0)
(23.6342 -0.0607507 0)
(23.3579 -0.0544098 0)
(23.1074 -0.0489874 0)
(22.8791 -0.0442571 0)
(22.6711 -0.0401256 0)
(22.4804 -0.0365104 0)
(22.3059 -0.0333206 0)
(22.1455 -0.0304827 0)
(21.9983 -0.0279656 0)
(21.8627 -0.025756 0)
(21.7376 -0.0237934 0)
(21.622 -0.022045 0)
(21.5152 -0.0205029 0)
(21.4161 -0.0191286 0)
(21.3242 -0.0178789 0)
(21.239 -0.0167215 0)
(21.1602 -0.0156209 0)
(21.0876 -0.0145443 0)
(21.0211 -0.0134682 0)
(20.9609 -0.0123752 0)
(20.907 -0.0112541 0)
(20.8595 -0.0101063 0)
(20.8186 -0.00897244 0)
(20.7841 -0.00796987 0)
(20.7552 -0.00727413 0)
(20.7302 -0.00700872 0)
(20.7075 -0.00713941 0)
(20.6855 -0.00750842 0)
(20.6634 -0.00804624 0)
(20.6401 -0.0088477 0)
(20.6141 -0.00997174 0)
(20.5839 -0.0113043 0)
(20.5488 -0.0124941 0)
(20.5093 -0.0128218 0)
(20.4697 -0.0116684 0)
(20.4358 -0.00923185 0)
(20.4111 -0.00634264 0)
(20.396 -0.00386767 0)
(20.3887 -0.00233839 0)
(20.3858 -0.00173561 0)
(20.384 -0.00190764 0)
(20.3811 -0.002905 0)
(20.3741 -0.00472585 0)
(20.3595 -0.007734 0)
(20.3314 -0.0132816 0)
(20.2775 -0.0235438 0)
(20.1753 -0.039377 0)
(20.0005 -0.05587 0)
(19.7559 -0.0611117 0)
(19.5101 -0.0481475 0)
(19.3342 -0.0260505 0)
(19.2427 -0.00728054 0)
(19.2173 0.00290351 0)
(19.233 0.0107667 0)
(19.2861 0.0153122 0)
(19.3505 0.014435 0)
(19.4013 0.0105421 0)
(19.4316 0.00731889 0)
(19.4423 0.00581724 0)
(19.4388 0.00277074 0)
(19.4171 -0.000481605 0)
(19.3802 -0.00318184 0)
(19.3333 -0.00541017 0)
(19.2817 -0.00705716 0)
(19.2314 -0.00801503 0)
(19.1854 -0.0086601 0)
(19.1438 -0.00931082 0)
(19.1063 -0.0100094 0)
(19.0711 -0.0107369 0)
(19.0373 -0.0113962 0)
(19.0038 -0.0119482 0)
(18.9706 -0.0123447 0)
(18.9364 -0.012608 0)
(18.9029 -0.0128161 0)
(18.8663 -0.0129588 0)
(18.834 -0.0130982 0)
(18.7905 -0.0135266 0)
(18.7654 -0.0128994 0)
(18.6985 -0.0176571 0)
(1.95439 0.421234 0)
(1.64906 2.05102 0)
(0.910899 2.40129 0)
(0.110904 2.56771 0)
(-0.665587 2.43238 0)
(-1.46652 1.98153 0)
(-2.15369 1.28402 0)
(-2.51274 0.770956 0)
(10.5778 0.31808 0)
(4.36567 1.81697 0)
(1.74414 2.17481 0)
(-0.154996 2.21102 0)
(-2.00005 2.04564 0)
(-3.8773 1.69173 0)
(-5.71494 1.11973 0)
(-6.92411 0.530808 0)
(16.8868 -0.371863 0)
(7.91514 0.751521 0)
(2.8668 1.2142 0)
(-0.390774 1.32793 0)
(-2.99248 1.24932 0)
(-5.40338 1.05881 0)
(-7.85093 0.753715 0)
(-9.97525 0.288395 0)
(20.5479 -1.17077 0)
(11.2391 -0.438552 0)
(4.58042 0.0735141 0)
(0.166325 0.312132 0)
(-3.14765 0.393408 0)
(-6.0267 0.379217 0)
(-8.77046 0.303341 0)
(-11.4792 0.0760404 0)
(22.4348 -1.81037 0)
(13.5548 -1.32719 0)
(6.44278 -0.873352 0)
(1.28494 -0.548948 0)
(-2.61868 -0.328208 0)
(-5.86414 -0.179379 0)
(-8.80824 -0.0646465 0)
(-11.7952 -0.0515874 0)
(23.6387 -2.31571 0)
(15.432 -1.97625 0)
(8.25999 -1.57575 0)
(2.74337 -1.21559 0)
(-1.47205 -0.904745 0)
(-4.9176 -0.630912 0)
(-7.98485 -0.380787 0)
(-11.1056 -0.205944 0)
(24.3332 -2.60609 0)
(16.9017 -2.3709 0)
(10.0269 -2.0363 0)
(4.44245 -1.6708 0)
(0.115708 -1.30558 0)
(-3.377 -0.94677 0)
(-6.43096 -0.597751 0)
(-9.51234 -0.307187 0)
(24.7688 -2.67824 0)
(17.9677 -2.50966 0)
(11.5154 -2.23431 0)
(6.15544 -1.89336 0)
(1.91919 -1.51329 0)
(-1.51025 -1.11252 0)
(-4.48979 -0.712804 0)
(-7.52793 -0.358497 0)
(25.065 -2.58817 0)
(18.8346 -2.4611 0)
(12.8349 -2.23102 0)
(7.79405 -1.91927 0)
(3.76326 -1.55086 0)
(0.479504 -1.14704 0)
(-2.37418 -0.740379 0)
(-5.32827 -0.369202 0)
(25.2509 -2.38109 0)
(19.5304 -2.28708 0)
(13.9919 -2.09717 0)
(9.31715 -1.82119 0)
(5.53787 -1.48038 0)
(2.42614 -1.0968 0)
(-0.296586 -0.708804 0)
(-3.17778 -0.353615 0)
(25.3299 -2.11368 0)
(20.0608 -2.05161 0)
(14.9678 -1.89735 0)
(10.6756 -1.65932 0)
(7.16941 -1.3542 0)
(4.24275 -1.00513 0)
(1.65897 -0.650565 0)
(-1.14512 -0.32574 0)
(25.3126 -1.83522 0)
(20.4565 -1.79907 0)
(15.8046 -1.67511 0)
(11.8635 -1.47225 0)
(8.60688 -1.2035 0)
(5.86527 -0.895325 0)
(3.41708 -0.580475 0)
(0.697486 -0.291712 0)
(25.2211 -1.57343 0)
(20.7372 -1.55745 0)
(16.502 -1.45863 0)
(12.8899 -1.28592 0)
(9.86467 -1.05191 0)
(7.29306 -0.782452 0)
(4.96301 -0.504671 0)
(2.30912 -0.250271 0)
(25.0828 -1.3443 0)
(20.9381 -1.34093 0)
(17.0849 -1.26233 0)
(13.7721 -1.11576 0)
(10.9563 -0.913163 0)
(8.53827 -0.679161 0)
(6.31416 -0.435884 0)
(3.71777 -0.214227 0)
(24.9169 -1.15088 0)
(21.0775 -1.15516 0)
(17.5715 -1.09176 0)
(14.5306 -0.966997 0)
(11.9023 -0.792732 0)
(9.61953 -0.590131 0)
(7.48675 -0.377405 0)
(4.93538 -0.184498 0)
(24.7435 -0.991245 0)
(21.1864 -0.99747 0)
(17.9783 -0.945673 0)
(15.1714 -0.838745 0)
(12.7159 -0.689995 0)
(10.5573 -0.514839 0)
(8.50731 -0.327967 0)
(5.9938 -0.161666 0)
(24.5803 -0.861429 0)
(21.2812 -0.866652 0)
(18.3236 -0.822176 0)
(15.7147 -0.729897 0)
(13.4159 -0.602319 0)
(11.3715 -0.450239 0)
(9.39987 -0.284092 0)
(6.91576 -0.145698 0)
(24.4337 -0.755786 0)
(21.3682 -0.759502 0)
(18.6241 -0.719514 0)
(16.1851 -0.638911 0)
(14.0234 -0.528044 0)
(12.0818 -0.394977 0)
(10.1861 -0.246821 0)
(7.71754 -0.13128 0)
(24.3064 -0.669534 0)
(21.4506 -0.671545 0)
(18.8907 -0.634905 0)
(16.5981 -0.563445 0)
(14.5558 -0.465814 0)
(12.7052 -0.348485 0)
(10.8775 -0.217019 0)
(8.42362 -0.116029 0)
(24.1985 -0.598561 0)
(21.5303 -0.59911 0)
(19.1307 -0.565079 0)
(16.9657 -0.500929 0)
(15.0276 -0.413928 0)
(13.257 -0.309529 0)
(11.489 -0.19258 0)
(9.04783 -0.10234 0)
(24.1087 -0.53944 0)
(21.6085 -0.539204 0)
(19.3493 -0.507205 0)
(17.2969 -0.449314 0)
(15.4501 -0.371025 0)
(13.7498 -0.277194 0)
(12.0341 -0.172307 0)
(9.60329 -0.0908169 0)
(24.0341 -0.489697 0)
(21.6848 -0.488909 0)
(19.5468 -0.458975 0)
(17.5969 -0.406457 0)
(15.832 -0.335467 0)
(14.1941 -0.250406 0)
(12.5245 -0.155486 0)
(10.102 -0.0813277 0)
(23.9721 -0.447792 0)
(21.7582 -0.446204 0)
(19.728 -0.418204 0)
(17.8705 -0.370107 0)
(16.1795 -0.305284 0)
(14.5979 -0.227688 0)
(12.9693 -0.141198 0)
(10.5533 -0.0733853 0)
(23.9212 -0.411933 0)
(21.8296 -0.409365 0)
(19.8963 -0.383169 0)
(18.122 -0.338818 0)
(16.4977 -0.279292 0)
(14.9669 -0.208138 0)
(13.3751 -0.128879 0)
(10.964 -0.0666296 0)
(23.8803 -0.3809 0)
(21.898 -0.377561 0)
(20.0526 -0.35282 0)
(18.3537 -0.311665 0)
(16.7902 -0.256736 0)
(15.3058 -0.191184 0)
(13.7471 -0.11819 0)
(11.3397 -0.0608422 0)
(23.8484 -0.353887 0)
(21.9658 -0.349412 0)
(20.1998 -0.326324 0)
(18.5691 -0.287993 0)
(17.0607 -0.237026 0)
(15.6183 -0.176344 0)
(14.0897 -0.108805 0)
(11.6846 -0.0558159 0)
(23.8237 -0.329625 0)
(22.0282 -0.32461 0)
(20.3373 -0.303105 0)
(18.7697 -0.267377 0)
(17.312 -0.219897 0)
(15.9082 -0.163459 0)
(14.4067 -0.100639 0)