/*--------------------------------*- C++ -*----------------------------------*\
| =========                 |                                                 |
| \\      /  F ield         | OpenFOAM: The Open Source CFD Toolbox           |
|  \\    /   O peration     | Version:  v2012                                 |
|   \\  /    A nd           | Website:  www.openfoam.com                      |
|    \\/     M anipulation  |                                                 |
\*---------------------------------------------------------------------------*/
FoamFile
{
    version     2.0;
    format      ascii;
    class       volScalarField;
    location    "0.107";
    object      k.air;
}
// * * * * * * * * * * * * * * * * * * * * * * * * * * * * * * * * * * * * * //

dimensions      [0 2 -2 0 0 0 0];


internalField   nonuniform List<scalar> 
5600
(
0.606298
0.840814
0.955118
0.978163
0.949159
0.897611
0.839531
0.787305
0.743252
0.707339
0.679294
0.658428
0.643289
0.632717
0.625254
0.620092
0.616234
0.613347
0.610898
0.608862
0.607048
0.605488
0.604176
0.603161
0.602391
0.601816
0.601387
0.60107
0.600849
0.600629
0.600401
0.600095
0.599804
0.599361
0.599045
0.598516
0.598245
0.597618
0.597444
0.596708
0.596729
0.595844
0.596162
0.59506
0.595749
0.594299
0.595431
0.593612
0.595234
0.593154
0.595031
0.593109
0.594402
0.593628
0.593031
0.594567
0.591223
0.595149
0.590131
0.594325
0.591017
0.591547
0.593856
0.587966
0.596664
0.586022
0.596995
0.58734
0.594112
0.59148
0.589425
0.596206
0.585666
0.598542
0.585646
0.595866
0.591168
0.587759
0.600725
0.578719
0.607565
0.576588
0.603901
0.585885
0.5894
0.602195
0.574362
0.612516
0.571717
0.60598
0.585299
0.586445
0.603348
0.57316
0.606866
0.577083
0.591953
0.605583
0.52447
0.8081
0.371638
0.315563
0.288658
0.275672
0.274965
0.284647
0.307362
0.344962
0.38709
0.430211
0.471472
0.509002
0.541769
0.569431
0.591934
0.609793
0.623468
0.633929
0.641714
0.647799
0.652519
0.656456
0.659933
0.663099
0.665836
0.668173
0.670186
0.671869
0.67316
0.674021
0.674774
0.675051
0.675481
0.675387
0.675851
0.675496
0.676158
0.675473
0.676455
0.675303
0.676864
0.675091
0.677605
0.675042
0.678765
0.674925
0.679943
0.674524
0.680785
0.674564
0.680931
0.676376
0.679637
0.680546
0.676487
0.685819
0.673007
0.688831
0.673067
0.685301
0.67992
0.675172
0.690802
0.664298
0.698248
0.66089
0.695435
0.66903
0.682431
0.684472
0.666691
0.698516
0.656911
0.701907
0.662323
0.68644
0.686648
0.656318
0.717931
0.630407
0.731978
0.633917
0.707084
0.675696
0.654573
0.727644
0.613775
0.747474
0.620643
0.709465
0.67717
0.647727
0.723183
0.628745
0.70505
0.683709
0.608314
0.819582
0.419106
1.01104
0.369149
0.2819
0.227735
0.193
0.168588
0.153796
0.145605
0.143639
0.146956
0.155092
0.167037
0.18197
0.199257
0.218584
0.239117
0.260658
0.282446
0.304573
0.326358
0.348278
0.369469
0.390449
0.409175
0.425651
0.439828
0.452175
0.462876
0.472018
0.479904
0.486669
0.492712
0.497774
0.502649
0.506436
0.510616
0.513327
0.517235
0.518932
0.522945
0.523529
0.528068
0.527346
0.53292
0.530655
0.53775
0.533458
0.54216
0.535684
0.545548
0.538446
0.547268
0.543681
0.546493
0.551977
0.543584
0.560789
0.541594
0.564373
0.54586
0.557535
0.558494
0.543065
0.573498
0.530893
0.579728
0.531408
0.570954
0.546302
0.551158
0.567505
0.531166
0.583274
0.522977
0.581024
0.537673
0.553444
0.574939
0.512111
0.613138
0.486365
0.618351
0.505573
0.573121
0.567933
0.504228
0.628859
0.464731
0.634719
0.493804
0.570898
0.571358
0.499671
0.613311
0.495011
0.574991
0.568902
0.470534
0.680203
0.376693
0.693414
0.370098
0.280651
0.224107
0.18606
0.158544
0.13821
0.122938
0.111369
0.102907
0.0970035
0.0935304
0.0923461
0.0929119
0.0953854
0.0994375
0.105371
0.112742
0.122008
0.132729
0.145347
0.159354
0.175253
0.192393
0.210541
0.228998
0.247479
0.265404
0.282085
0.297647
0.311842
0.325089
0.336741
0.347869
0.3573
0.366942
0.374393
0.383223
0.388832
0.397485
0.401101
0.410002
0.41127
0.421031
0.419714
0.430953
0.426536
0.439463
0.432337
0.445945
0.438814
0.449459
0.448375
0.449455
0.461374
0.447451
0.473473
0.448345
0.476566
0.458402
0.465864
0.477294
0.447835
0.494959
0.436707
0.497679
0.443084
0.481834
0.464921
0.455819
0.490687
0.433504
0.505575
0.42967
0.49491
0.455765
0.454456
0.505045
0.404995
0.54471
0.385423
0.535597
0.42324
0.470608
0.502505
0.39172
0.56324
0.362338
0.54852
0.415493
0.463239
0.504639
0.394394
0.532924
0.405978
0.481534
0.485516
0.386541
0.562164
0.35902
0.510422
0.370292
0.280782
0.224381
0.186054
0.158415
0.137663
0.121529
0.108753
0.0983691
0.0899492
0.0829596
0.0773939
0.0727949
0.0692744
0.0665358
0.0647125
0.0636805
0.0635809
0.0642505
0.0659185
0.0685189
0.0723097
0.077294
0.083617
0.091295
0.100285
0.110534
0.121668
0.133635
0.14615
0.159342
0.172669
0.186579
0.199135
0.212689
0.223781
0.237012
0.246127
0.259372
0.266
0.279639
0.283231
0.298172
0.298448
0.315299
0.311695
0.330332
0.323586
0.341965
0.336301
0.348909
0.352628
0.351299
0.372131
0.352222
0.388094
0.358415
0.390458
0.376224
0.376124
0.401903
0.355993
0.420594
0.348176
0.41794
0.361768
0.394574
0.390419
0.363135
0.419321
0.340297
0.430969
0.343246
0.409595
0.382309
0.356135
0.441856
0.301995
0.477368
0.293535
0.450312
0.351008
0.367794
0.442419
0.285418
0.494482
0.272769
0.456125
0.348619
0.357793
0.437002
0.302507
0.446368
0.328014
0.390555
0.402234
0.315732
0.443995
0.327759
0.386762
0.370321
0.280816
0.224506
0.186221
0.15863
0.137924
0.121791
0.108958
0.0984523
0.0897757
0.0824314
0.0762337
0.0708699
0.0662819
0.0622764
0.0588325
0.0558291
0.053295
0.0511192
0.0493468
0.047921
0.046896
0.0462659
0.0460909
0.0464374
0.0472649
0.0487878
0.0508543
0.0538084
0.0572335
0.0619143
0.0666889
0.073502
0.0792843
0.0880973
0.0943266
0.105218
0.11112
0.124266
0.129019
0.144536
0.147275
0.165281
0.16505
0.186128
0.182454
0.205685
0.199638
0.221275
0.218381
0.230918
0.241289
0.235706
0.266923
0.241221
0.286079
0.255654
0.287478
0.283125
0.270913
0.314707
0.252275
0.331363
0.251165
0.321369
0.272668
0.291372
0.306108
0.257322
0.33487
0.237241
0.339903
0.249775
0.306223
0.301273
0.243169
0.364578
0.192733
0.387927
0.201059
0.341922
0.274099
0.251171
0.364587
0.178691
0.39752
0.189067
0.338142
0.276302
0.24649
0.342514
0.218498
0.332983
0.248525
0.288463
0.301523
0.244206
0.311151
0.272939
0.275951
0.370324
0.280815
0.224528
0.186261
0.158703
0.138013
0.12192
0.109097
0.0986233
0.0899411
0.0826064
0.0763614
0.0709532
0.0662569
0.0621174
0.0584744
0.0552156
0.0523246
0.0497173
0.0473874
0.0452834
0.0433975
0.0417136
0.0401927
0.0389081
0.0377113
0.0368251
0.0359417
0.0355382
0.0349279
0.0352086
0.0347769
0.03611
0.0356887
0.0384732
0.0378075
0.042607
0.0413009
0.0487881
0.046426
0.0572172
0.0531455
0.067767
0.0613482
0.0802195
0.0718707
0.0934387
0.0857286
0.104374
0.104014
0.110563
0.127535
0.114451
0.153167
0.123372
0.170375
0.145309
0.169222
0.179467
0.153409
0.211067
0.141136
0.221266
0.148537
0.205017
0.174702
0.173583
0.206799
0.142673
0.229982
0.129066
0.226542
0.15071
0.184881
0.206766
0.123589
0.259714
0.0887926
0.264812
0.113322
0.211078
0.186017
0.132395
0.254976
0.0863003
0.26278
0.116772
0.200963
0.188547
0.143076
0.214708
0.14535
0.19822
0.163746
0.176584
0.189421
0.160815
0.176786
0.190222
0.162009
0.370324
0.280805
0.224526
0.186261
0.158716
0.138029
0.121953
0.109134
0.0986769
0.0900003
0.0826816
0.0764384
0.0710425
0.0663437
0.0622069
0.0585494
0.0552809
0.0523565
0.0497147
0.0473252
0.0451508
0.0431645
0.0413535
0.0396732
0.0381602
0.0367177
0.035459
0.0341969
0.0331899
0.0320376
0.0313283
0.0301786
0.0298931
0.028597
0.028918
0.0272683
0.0284868
0.0261777
0.0287111
0.0253756
0.0297937
0.0248798
0.0317987
0.0248689
0.0345631
0.0262208
0.0373187
0.0306104
0.0383536
0.0394209
0.036451
0.0521598
0.0345722
0.0650248
0.040217
0.0711398
0.0586888
0.0664743
0.0847952
0.0568102
0.104138
0.0542454
0.105757
0.064755
0.0918169
0.0834101
0.0711143
0.1032
0.0514867
0.116195
0.0450968
0.10871
0.0655718
0.0755952
0.104924
0.0382741
0.130309
0.0279142
0.122116
0.0512381
0.0881883
0.0926621
0.0487926
0.122799
0.0361869
0.113546
0.0652178
0.0775028
0.0952153
0.0670139
0.0864277
0.0827971
0.0770971
0.0848159
0.0726741
0.092978
0.0737999
0.0721388
0.0956559
0.0691065
0.370323
0.280796
0.224519
0.186254
0.158714
0.138027
0.121958
0.10914
0.098689
0.0900145
0.0827023
0.0764609
0.0710714
0.0663745
0.0622439
0.0585869
0.0553241
0.052399
0.0497598
0.0473683
0.0451915
0.0432009
0.0413778
0.0396934
0.038149
0.0367026
0.0353839
0.0341217
0.032998
0.0318701
0.0309299
0.029882
0.0291387
0.028111
0.0275966
0.0265163
0.0262912
0.0250586
0.0252241
0.023709
0.0244299
0.0224438
0.0239018
0.0213021
0.0235152
0.0205633
0.022929
0.0208154
0.0216063
0.0225236
0.0193359
0.0252324
0.0173751
0.0272816
0.018495
0.0267232
0.0241944
0.0234893
0.0318193
0.0206271
0.0361585
0.0213591
0.0349341
0.0251528
0.0303257
0.0298041
0.0243217
0.0350751
0.018062
0.0388465
0.0166748
0.0349321
0.0250004
0.0229783
0.036807
0.0143284
0.0395408
0.0178134
0.03221
0.0273722
0.0227091
0.0357998
0.0170012
0.0366947
0.0226098
0.0257055
0.0358622
0.0159487
0.0363768
0.0257533
0.0210633
0.0376345
0.0174625
0.035619
0.0183334
0.0359824
0.0238628
0.0225294
0.0358096
0.0207965
0.370323
0.280792
0.224515
0.18625
0.158711
0.138026
0.121958
0.109142
0.0986921
0.0900185
0.0827084
0.0764678
0.0710803
0.0663843
0.0622559
0.0585995
0.0553391
0.0524146
0.0497772
0.0473868
0.0452111
0.0432219
0.041398
0.039717
0.0381678
0.0367277
0.035398
0.0341484
0.0329995
0.0318998
0.0309041
0.0299206
0.0290607
0.0281659
0.0274297
0.0265984
0.025979
0.0251859
0.0246885
0.0239021
0.0235502
0.0227227
0.0225463
0.0216418
0.0216283
0.0207139
0.0207066
0.0200549
0.0196744
0.0197198
0.0185259
0.0195372
0.0175506
0.0191316
0.0172553
0.0182233
0.0177849
0.0170304
0.0184799
0.0162309
0.0184243
0.0161658
0.0175339
0.0163886
0.0164141
0.0165938
0.015175
0.017059
0.0139926
0.017036
0.0144754
0.0148593
0.017283
0.0117233
0.0191139
0.0119434
0.016325
0.0167154
0.0106285
0.021895
0.007022
0.0228621
0.00925961
0.0174051
0.0173493
0.00850242
0.0247095
0.00476762
0.0236356
0.00980108
0.0169418
0.0158643
0.012639
0.0200117
0.00748977
0.0255901
0.00427128
0.0244339
0.00798336
0.0198691
0.370323
0.280793
0.224517
0.186252
0.158714
0.138028
0.121961
0.109144
0.0986946
0.0900207
0.0827107
0.0764699
0.0710824
0.0663862
0.0622579
0.0586012
0.0553409
0.0524162
0.0497788
0.0473882
0.0452125
0.0432233
0.0413992
0.0397187
0.0381685
0.0367299
0.0353979
0.0341518
0.0329978
0.0319061
0.0308989
0.0299326
0.0290495
0.0281875
0.0274088
0.0266355
0.0259433
0.0252464
0.0246308
0.0239988
0.0234595
0.0228727
0.0224133
0.0218526
0.0214685
0.0209497
0.0206089
0.0201986
0.0198172
0.0195933
0.0190768
0.0190753
0.0184475
0.0186131
0.0180882
0.0182282
0.0180751
0.0179194
0.0182209
0.0176554
0.0181886
0.0174278
0.0177399
0.0173191
0.0168317
0.0174573
0.0156772
0.0175791
0.0151277
0.0166632
0.0163721
0.0140552
0.0190628
0.0113218
0.0205393
0.0113964
0.0183611
0.0154171
0.0129379
0.0213699
0.0075367
0.0249546
0.0066405
0.0225643
0.011753
0.0159598
0.0183805
0.0107855
0.0219804
0.00856286
0.0234825
0.00733932
0.0237136
0.00907517
0.0190945
0.0166604
0.0107281
0.0243654
0.00471323
0.0289078
0.370324
0.2808
0.224526
0.18626
0.158722
0.138034
0.121966
0.109147
0.0986967
0.0900207
0.0827095
0.0764665
0.0710779
0.0663794
0.0622501
0.0585911
0.0553298
0.052403
0.0497649
0.0473722
0.0451962
0.0432056
0.0413813
0.0397006
0.038151
0.0367141
0.0353837
0.034142
0.0329926
0.0319097
0.03091
0.0299608
0.02909
0.0282576
0.0274996
0.0267756
0.0261139
0.0254926
0.0249267
0.0244133
0.0239526
0.0235376
0.023194
0.0228654
0.0226624
0.0224556
0.0224372
0.0224163
0.0225559
0.0227252
0.0229444
0.0233803
0.0237209
0.024724
0.025327
0.0271043
0.0279043
0.0300295
0.0308904
0.0323387
0.0334578
0.0332787
0.0349349
0.0333029
0.0347775
0.0336297
0.0329283
0.0345786
0.0308095
0.0346441
0.0308325
0.0322999
0.0335418
0.0286061
0.0365588
0.0262491
0.0373973
0.0267451
0.0352152
0.030396
0.0303736
0.0358408
0.025494
0.0395359
0.0233725
0.0403321
0.0232128
0.0397502
0.0249767
0.0359271
0.0317326
0.0268611
0.0422311
0.0173748
0.0482028
0.0160793
0.0437673
0.0255078
0.0300926
0.0432381
0.370325
0.280811
0.224538
0.18627
0.158731
0.138039
0.121968
0.109144
0.0986907
0.0900083
0.0826946
0.0764454
0.0710542
0.0663495
0.0622189
0.0585544
0.0552931
0.0523632
0.0497283
0.0473351
0.0451679
0.0431835
0.0413738
0.0397119
0.0381879
0.036788
0.0355015
0.0343221
0.0332532
0.0322712
0.0314022
0.030619
0.0299555
0.0293818
0.028943
0.0286098
0.0284116
0.0283691
0.0284898
0.0288274
0.0293336
0.0300714
0.0310178
0.0322096
0.0337521
0.0355597
0.0378797
0.0403064
0.0432606
0.0460976
0.0495662
0.0530632
0.0572377
0.0621468
0.0669667
0.0735694
0.0777302
0.0850749
0.0872878
0.0936105
0.0944118
0.097478
0.0992342
0.0974328
0.101781
0.0963085
0.101309
0.0967815
0.0980978
0.0988086
0.0948041
0.0999788
0.0938443
0.0991853
0.0949157
0.0972509
0.0972334
0.0941214
0.101013
0.090105
0.104317
0.0883481
0.103741
0.0911879
0.0988525
0.0979894
0.0906235
0.10732
0.0817065
0.113659
0.0798611
0.108908
0.0908712
0.0935194
0.107516
0.0792172
0.117171
0.0752633
0.11428
0.0847799
0.370327
0.280823
0.224548
0.186272
0.158728
0.138022
0.121944
0.109106
0.0986452
0.0899465
0.0826293
0.0763668
0.070977
0.0662673
0.0621504
0.0584938
0.0552664
0.0523689
0.0497988
0.0474733
0.0454189
0.0435596
0.0419329
0.040502
0.0392682
0.0382513
0.0374268
0.0368509
0.0365227
0.0364663
0.0367239
0.037338
0.0383276
0.0397339
0.0415952
0.0439149
0.0467486
0.0501394
0.0541077
0.058695
0.0637216
0.0692415
0.0751837
0.0816594
0.0886213
0.095989
0.103706
0.111333
0.119156
0.126527
0.134495
0.142061
0.150471
0.15873
0.167047
0.175772
0.18199
0.190573
0.193007
0.200872
0.199979
0.205649
0.204577
0.205477
0.208155
0.202845
0.210071
0.201279
0.208939
0.202784
0.205328
0.206144
0.201521
0.20915
0.198925
0.210795
0.198367
0.209546
0.201908
0.203641
0.209532
0.19568
0.216284
0.191392
0.217287
0.193894
0.211185
0.203338
0.19935
0.216038
0.188214
0.223227
0.186898
0.218026
0.197449
0.204504
0.211844
0.191348
0.222494
0.185121
0.370324
0.280829
0.22453
0.186231
0.158665
0.137927
0.121827
0.108961
0.0984952
0.0897824
0.0825009
0.076274
0.0709888
0.0663988
0.0624909
0.0590723
0.0562206
0.0537499
0.0517756
0.0501415
0.0490132
0.0482531
0.0480836
0.0484064
0.0493726
0.0510105
0.0533911
0.0565914
0.0606647
0.0656067
0.0715371
0.0784133
0.0860479
0.0944629
0.103449
0.112971
0.122908
0.133242
0.143848
0.154642
0.165282
0.17581
0.186161
0.196408
0.206389
0.216061
0.22527
0.233895
0.242103
0.2497
0.257378
0.264623
0.272382
0.279505
0.286636
0.293384
0.298426
0.30478
0.306434
0.31264
0.310962
0.316425
0.313775
0.316259
0.316528
0.313546
0.318987
0.311073
0.319466
0.311307
0.317195
0.314193
0.313446
0.317901
0.309833
0.321029
0.307498
0.321928
0.308731
0.318066
0.315086
0.310073
0.323395
0.302991
0.328181
0.301288
0.326293
0.30685
0.317215
0.318454
0.304759
0.32967
0.29727
0.332008
0.300347
0.324198
0.311282
0.311483
0.324559
0.299453
0.370305
0.28079
0.224405
0.186072
0.158447
0.137687
0.1216
0.108821
0.0985603
0.0901563
0.0834322
0.0779573
0.0737089
0.0703899
0.0681143
0.0666726
0.0663303
0.0667822
0.0684099
0.07097
0.0749436
0.0801443
0.0869646
0.0951422
0.104967
0.116015
0.128224
0.141245
0.155052
0.169396
0.184267
0.198952
0.213225
0.226999
0.240162
0.252712
0.264641
0.275972
0.286616
0.296642
0.306016
0.314882
0.323202
0.331064
0.338412
0.345308
0.351725
0.357651
0.363259
0.368415
0.373669
0.378508
0.383674
0.388195
0.392853
0.396961
0.400137
0.403975
0.404697
0.408791
0.406847
0.41116
0.407959
0.410931
0.409511
0.408628
0.411673
0.40599
0.413019
0.405241
0.412137
0.407073
0.409304
0.410381
0.405779
0.413854
0.40271
0.416052
0.40208
0.414505
0.406073
0.40836
0.413485
0.400905
0.419848
0.396622
0.421346
0.398332
0.416184
0.406558
0.405725
0.417717
0.395886
0.424527
0.393226
0.4228
0.398657
0.414226
0.409622
0.401598
0.370194
0.280543
0.224229
0.186051
0.158717
0.138514
0.123429
0.112331
0.104417
0.0992757
0.0968476
0.0965691
0.0983696
0.102005
0.107633
0.115005
0.124349
0.135447
0.148588
0.163395
0.180324
0.198736
0.218289
0.238259
0.25831
0.277676
0.295835
0.312663
0.328132
0.342248
0.354982
0.36658
0.3771
0.386675
0.395443
0.403523
0.411029
0.417999
0.424429
0.430319
0.435627
0.440603
0.445148
0.449354
0.453218
0.456796
0.460078
0.463076
0.46593
0.468566
0.471382
0.473993
0.477004
0.47956
0.482399
0.484717
0.486622
0.488777
0.488993
0.491512
0.489753
0.492882
0.489847
0.492657
0.490505
0.490905
0.492111
0.488587
0.493696
0.487364
0.493757
0.488257
0.491936
0.490779
0.489024
0.493928
0.48599
0.496548
0.48438
0.496594
0.486351
0.492559
0.491986
0.486141
0.498241
0.481006
0.501523
0.480164
0.499493
0.485057
0.492027
0.494161
0.482658
0.502298
0.477118
0.504537
0.478168
0.500321
0.485212
0.490386
0.369473
0.281385
0.22861
0.193061
0.170712
0.155947
0.15012
0.15046
0.156543
0.167302
0.181639
0.198809
0.218415
0.239721
0.262348
0.285626
0.309398
0.333092
0.356938
0.380288
0.403312
0.423856
0.441745
0.457303
0.470499
0.482408
0.492499
0.501028
0.508342
0.514612
0.520111
0.52496
0.529235
0.533024
0.536419
0.539486
0.542304
0.544912
0.547324
0.549583
0.551658
0.553643
0.555567
0.557458
0.559208
0.560823
0.562254
0.56355
0.564796
0.56599
0.567379
0.568681
0.570357
0.571708
0.573375
0.574544
0.575633
0.576686
0.576663
0.57801
0.576615
0.57867
0.57612
0.578494
0.576157
0.577311
0.577206
0.57552
0.578707
0.574158
0.579394
0.574293
0.578501
0.57596
0.576369
0.578505
0.573726
0.581081
0.571681
0.582173
0.572048
0.580079
0.575742
0.575255
0.581031
0.570253
0.585069
0.567803
0.585454
0.569762
0.581085
0.576061
0.573647
0.583582
0.567209
0.588095
0.565054
0.58779
0.567808
0.582231
0.37219
0.315457
0.29282
0.279527
0.286383
0.295363
0.331478
0.373615
0.418606
0.463067
0.504562
0.541598
0.573475
0.599925
0.621221
0.63781
0.650547
0.660068
0.667421
0.673049
0.677649
0.681646
0.685132
0.688109
0.690605
0.692637
0.694335
0.695593
0.696474
0.696998
0.69727
0.697373
0.697341
0.697241
0.697105
0.696965
0.696819
0.696687
0.696555
0.696454
0.696365
0.696375
0.696465
0.696623
0.696753
0.696847
0.696845
0.696828
0.696843
0.696912
0.697169
0.697426
0.697972
0.69832
0.698926
0.699166
0.699488
0.699666
0.699406
0.699838
0.698794
0.699863
0.69799
0.699684
0.697644
0.699033
0.698193
0.69786
0.699363
0.696695
0.700309
0.696343
0.700171
0.69719
0.698876
0.698956
0.696912
0.701062
0.694966
0.702585
0.694305
0.702058
0.696153
0.699052
0.699916
0.695053
0.70366
0.69207
0.70546
0.691868
0.703821
0.69527
0.699017
0.700826
0.693506
0.705643
0.689931
0.707814
0.689411
0.706456
0.606742
0.839813
0.952198
0.969555
0.937535
0.881265
0.821361
0.769004
0.724418
0.688388
0.660681
0.640127
0.625398
0.614955
0.607665
0.60239
0.598512
0.595427
0.592918
0.590803
0.588979
0.587525
0.586346
0.585459
0.584758
0.5842
0.583767
0.583412
0.583085
0.582737
0.582334
0.581881
0.581377
0.580855
0.580309
0.579758
0.579197
0.578639
0.578096
0.577575
0.577083
0.576639
0.576236
0.57587
0.575516
0.575188
0.574887
0.574631
0.574422
0.574259
0.574141
0.574018
0.573937
0.573776
0.573654
0.573386
0.573189
0.572895
0.572622
0.572453
0.572041
0.572169
0.571594
0.572035
0.57138
0.571909
0.571477
0.571661
0.571849
0.57133
0.572254
0.571135
0.572384
0.571263
0.572132
0.571714
0.571587
0.572367
0.570931
0.572971
0.570517
0.573113
0.570759
0.57249
0.571731
0.57131
0.572992
0.570178
0.573883
0.569705
0.5739
0.570258
0.572851
0.571743
0.571189
0.573454
0.569752
0.574649
0.56905
0.57497
0.0299394
1.97818
2.68793
2.90299
3.12099
3.17287
3.2357
3.33777
3.26647
3.09305
2.92648
2.42374
1.38952
0.510747
0.169369
0.0714863
0.0469743
0.028956
0.0461561
0.0125423
0.0397839
0.159039
0.268212
0.305669
0.279447
0.223327
0.163655
0.114776
0.0809484
0.0596704
0.0465612
0.0381645
0.0325134
0.0285902
0.0258011
0.0237421
0.0221218
0.0207527
0.0195402
0.0184573
0.0175149
0.0167326
0.0161156
0.0156409
0.0152593
0.0149197
0.0145973
0.0142988
0.0140426
0.0138403
0.0136955
0.0136028
0.0135487
0.013519
0.0135033
0.0134952
0.0134911
0.013489
0.0134879
0.0134873
0.013487
0.0134869
0.0134867
0.0134869
0.0134866
0.0134869
0.0134865
0.0134869
0.0134865
0.0134869
0.0134865
0.0134869
0.0134864
0.013487
0.0134863
0.013487
0.0134863
0.0134871
0.0134863
0.0134871
0.0134862
0.0134872
0.0134862
0.0134872
0.0134861
0.0134873
0.0134861
0.0134873
0.013486
0.0134873
0.013486
0.0134874
0.0134859
0.0134873
0.0134858
0.0134872
0.0134855
0.0134869
0.0134853
0.0134875
0.188731
0.950784
1.98152
2.38343
2.68008
2.77082
2.84932
2.95638
2.88596
2.70826
2.53641
1.95813
0.929341
0.256544
0.0891601
0.0474027
0.0365726
0.020184
0.0398338
0.0217672
0.00925732
0.0875327
0.184454
0.228277
0.213044
0.168518
0.120973
0.0839599
0.0600295
0.0459192
0.0376075
0.0323433
0.0287139
0.0260732
0.024094
0.0225587
0.0212954
0.0201798
0.0191459
0.0181821
0.0173116
0.0165666
0.015965
0.0154971
0.015126
0.0148068
0.0145123
0.014243
0.0140127
0.0138297
0.0136949
0.0136058
0.0135525
0.0135225
0.0135063
0.0134977
0.0134932
0.0134908
0.0134895
0.0134889
0.0134885
0.0134884
0.0134882
0.0134883
0.013488
0.0134884
0.0134879
0.0134884
0.0134879
0.0134884
0.0134879
0.0134885
0.0134878
0.0134885
0.0134877
0.0134886
0.0134877
0.0134886
0.0134876
0.0134887
0.0134875
0.0134888
0.0134875
0.0134888
0.0134874
0.0134889
0.0134873
0.013489
0.0134873
0.0134891
0.0134872
0.0134891
0.0134871
0.0134892
0.013487
0.0134892
0.0134869
0.0134893
0.0134872
0.0134911
0.489389
0.416062
1.01971
1.52044
1.9691
2.15988
2.29675
2.44112
2.39323
2.24232
2.06602
1.37233
0.478661
0.0820159
0.0512951
0.0390273
0.0322844
0.0237278
0.0335224
0.0309434
0.00448533
0.0396689
0.112339
0.154355
0.148111
0.116742
0.0837175
0.0595942
0.0449368
0.0366528
0.031826
0.0286708
0.0263346
0.0244826
0.0229876
0.0217637
0.020718
0.0197646
0.0188511
0.0179701
0.0171496
0.0164286
0.0158346
0.0153685
0.0150045
0.0147045
0.0144384
0.0141985
0.0139919
0.013825
0.0136995
0.0136137
0.0135604
0.0135293
0.0135118
0.0135021
0.0134969
0.013494
0.0134925
0.0134917
0.0134912
0.0134911
0.0134908
0.013491
0.0134906
0.0134911
0.0134905
0.0134911
0.0134905
0.0134911
0.0134904
0.0134912
0.0134903
0.0134913
0.0134902
0.0134914
0.0134902
0.0134914
0.0134901
0.0134915
0.01349
0.0134916
0.0134899
0.0134917
0.0134898
0.0134918
0.0134897
0.0134919
0.0134896
0.013492
0.0134895
0.0134922
0.0134894
0.0134923
0.0134894
0.0134926
0.0134895
0.0134934
0.0134907
0.013497
0.477276
0.387978
0.527992
0.677225
1.06492
1.32179
1.5408
1.73716
1.74371
1.6584
1.45433
0.692343
0.14177
0.00655949
0.0492374
0.0389563
0.025053
0.0309993
0.032125
0.0344786
0.0122122
0.0182312
0.0625201
0.0947866
0.0941054
0.0758808
0.0570142
0.0437736
0.0358497
0.0313095
0.0285418
0.0265708
0.0249406
0.0235139
0.0222785
0.0212247
0.0203057
0.0194558
0.0186256
0.017805
0.0170204
0.0163144
0.0157217
0.0152533
0.0148934
0.01461
0.0143714
0.0141603
0.0139762
0.0138244
0.0137084
0.0136269
0.0135737
0.013541
0.0135216
0.0135105
0.0135042
0.0135006
0.0134987
0.0134977
0.0134971
0.0134969
0.0134965
0.0134967
0.0134963
0.0134968
0.0134961
0.0134968
0.0134961
0.0134969
0.013496
0.0134969
0.0134959
0.0134971
0.0134958
0.0134972
0.0134957
0.0134972
0.0134956
0.0134974
0.0134955
0.0134975
0.0134954
0.0134976
0.0134953
0.0134977
0.0134951
0.0134979
0.013495
0.013498
0.0134948
0.0134983
0.0134947
0.0134985
0.0134948
0.0134991
0.0134953
0.0135006
0.0134975
0.0135063
0.3925
0.359188
0.382313
0.372503
0.469728
0.551148
0.726223
0.86826
0.961081
0.942413
0.678179
0.127172
0.00788141
0.0112673
0.0579921
0.0380886
0.0194208
0.0508671
0.0486707
0.0400584
0.0211607
0.0145236
0.0362732
0.0565926
0.0586318
0.0505751
0.0417414
0.0352538
0.0310843
0.028492
0.02676
0.0253816
0.02411
0.0229013
0.0217995
0.0208367
0.0199933
0.0192141
0.0184474
0.0176756
0.0169199
0.0162235
0.0156274
0.0151518
0.0147908
0.0145181
0.0143019
0.0141175
0.0139566
0.0138225
0.0137184
0.0136426
0.0135903
0.0135562
0.0135347
0.0135218
0.0135141
0.0135097
0.0135073
0.0135059
0.0135051
0.0135048
0.0135044
0.0135046
0.0135041
0.0135046
0.0135039
0.0135047
0.0135038
0.0135047
0.0135038
0.0135048
0.0135037
0.0135049
0.0135036
0.0135051
0.0135035
0.0135051
0.0135034
0.0135053
0.0135032
0.0135054
0.0135031
0.0135055
0.0135029
0.0135057
0.0135028
0.0135059
0.0135026
0.0135061
0.0135025
0.0135063
0.0135024
0.0135067
0.0135025
0.0135075
0.0135033
0.0135095
0.0135063
0.0135169
0.28377
0.29062
0.271645
0.292418
0.24849
0.250444
0.321292
0.201262
0.366346
0.185208
0.0380878
0.018721
0.000369638
0.0218103
0.0605847
0.0373505
0.0254862
0.0979585
0.102476
0.0645429
0.0336065
0.0189338
0.0260769
0.0370982
0.0401952
0.037933
0.0343274
0.0310798
0.028639
0.0269432
0.0257049
0.0246267
0.0235471
0.0224585
0.0214314
0.020523
0.0197323
0.0190104
0.0183004
0.0175746
0.0168467
0.0161583
0.0155554
0.015067
0.0146966
0.0144249
0.0142223
0.0140608
0.0139244
0.0138106
0.0137204
0.0136517
0.0136017
0.0135671
0.0135444
0.01353
0.0135212
0.013516
0.013513
0.0135113
0.0135103
0.0135099
0.0135094
0.0135096
0.013509
0.0135096
0.0135089
0.0135097
0.0135088
0.0135097
0.0135087
0.0135098
0.0135086
0.0135099
0.0135085
0.01351
0.0135084
0.0135101
0.0135083
0.0135102
0.0135082
0.0135104
0.013508
0.0135105
0.0135079
0.0135106
0.0135077
0.0135108
0.0135076
0.013511
0.0135075
0.0135112
0.0135074
0.0135116
0.0135076
0.0135124
0.0135085
0.0135147
0.0135119
0.0135227
0.179441
0.17557
0.177678
0.189562
0.131443
0.17128
0.0933439
0.141041
0.0857894
0.0100561
0.0178563
0.0140217
0.0065953
0.0444455
0.0621857
0.0456817
0.0675607
0.201306
0.232051
0.142305
0.0664557
0.0321033
0.0259054
0.0296179
0.0322793
0.032327
0.0308884
0.0290139
0.027332
0.0260406
0.0250299
0.0240957
0.023113
0.0220879
0.0211033
0.0202326
0.0194872
0.0188211
0.0181703
0.0174948
0.0167986
0.0161203
0.0155096
0.0150037
0.0146156
0.0143342
0.0141344
0.0139884
0.0138738
0.0137796
0.0137029
0.0136422
0.0135963
0.0135635
0.0135413
0.0135269
0.0135179
0.0135125
0.0135093
0.0135075
0.0135064
0.0135059
0.0135054
0.0135056
0.013505
0.0135055
0.0135048
0.0135056
0.0135048
0.0135056
0.0135047
0.0135057
0.0135046
0.0135058
0.0135045
0.0135059
0.0135044
0.013506
0.0135043
0.0135061
0.0135042
0.0135062
0.0135041
0.0135063
0.013504
0.0135064
0.0135039
0.0135066
0.0135038
0.0135067
0.0135037
0.0135069
0.0135037
0.0135072
0.0135038
0.013508
0.0135047
0.01351
0.0135079
0.0135176
0.0867844
0.0647929
0.0905359
0.0786515
0.0626437
0.0616189
0.0390963
0.0496793
0.0212384
0.0217468
0.0317043
0.0060993
0.00551573
0.0585866
0.0610934
0.0803066
0.187188
0.39976
0.47707
0.33439
0.164475
0.0707299
0.038603
0.0318557
0.0312735
0.031154
0.0302669
0.0287999
0.0272616
0.0259496
0.024865
0.0238645
0.0228381
0.0217889
0.0207982
0.019942
0.019234
0.0186241
0.0180378
0.0174207
0.0167642
0.0161023
0.0154873
0.0149641
0.0145547
0.0142563
0.0140496
0.0139081
0.0138064
0.0137267
0.0136618
0.0136099
0.0135703
0.0135419
0.0135225
0.0135098
0.0135018
0.0134969
0.013494
0.0134924
0.0134914
0.013491
0.0134906
0.0134907
0.0134902
0.0134907
0.0134901
0.0134907
0.01349
0.0134907
0.01349
0.0134908
0.0134899
0.0134909
0.0134898
0.013491
0.0134898
0.013491
0.0134897
0.0134911
0.0134896
0.0134912
0.0134895
0.0134913
0.0134895
0.0134914
0.0134894
0.0134914
0.0134893
0.0134916
0.0134892
0.0134917
0.0134892
0.0134919
0.0134893
0.0134925
0.01349
0.0134941
0.0134925
0.0135004
0.0339753
0.0170137
0.0343654
0.0240166
0.0244252
0.0224297
0.00901391
0.0253286
0.00453895
0.0139278
0.0264786
0.00563164
0.0340729
0.0855425
0.0924401
0.193594
0.431169
0.722473
0.830416
0.657393
0.391743
0.193357
0.0901005
0.0520423
0.0412227
0.0374924
0.0346978
0.0319265
0.0294162
0.027356
0.0257014
0.0242831
0.0229632
0.0217192
0.0206136
0.0197079
0.0190016
0.0184287
0.0178977
0.0173373
0.0167246
0.0160859
0.0154742
0.0149403
0.0145136
0.0141982
0.0139794
0.0138334
0.0137347
0.0136628
0.0136068
0.0135632
0.0135308
0.0135081
0.0134929
0.0134832
0.0134773
0.0134736
0.0134715
0.0134703
0.0134695
0.0134692
0.0134689
0.013469
0.0134687
0.013469
0.0134686
0.013469
0.0134685
0.013469
0.0134685
0.013469
0.0134684
0.0134691
0.0134684
0.0134691
0.0134683
0.0134692
0.0134683
0.0134693
0.0134682
0.0134693
0.0134681
0.0134694
0.0134681
0.0134695
0.013468
0.0134695
0.0134679
0.0134696
0.0134679
0.0134697
0.0134678
0.0134699
0.0134679
0.0134703
0.0134683
0.0134713
0.01347
0.013476
0.0148167
0.0110593
0.0230428
0.00571137
0.0233774
0.00956385
0.0126702
0.0222089
0.00363935
0.0336107
0.0158583
0.0183731
0.0743794
0.124084
0.194804
0.433783
0.791976
1.12557
1.23187
1.04211
0.721597
0.436356
0.246367
0.141121
0.088912
0.0640454
0.0512255
0.0432626
0.0375583
0.0332097
0.0298062
0.0270517
0.0247413
0.022796
0.0212231
0.0200302
0.0191644
0.0185129
0.0179477
0.0173738
0.0167535
0.016105
0.0154794
0.0149295
0.014487
0.0141575
0.0139274
0.013774
0.0136727
0.0136035
0.0135535
0.0135171
0.0134913
0.013474
0.013463
0.0134562
0.0134522
0.0134499
0.0134486
0.0134479
0.0134475
0.0134473
0.0134472
0.0134472
0.0134471
0.0134472
0.013447
0.0134472
0.013447
0.0134472
0.013447
0.0134472
0.0134469
0.0134473
0.0134469
0.0134473
0.0134468
0.0134474
0.0134468
0.0134475
0.0134467
0.0134475
0.0134466
0.0134476
0.0134465
0.0134478
0.0134464
0.0134479
0.0134462
0.013448
0.0134461
0.0134482
0.013446
0.0134484
0.0134459
0.0134487
0.013446
0.0134495
0.0134472
0.0134532
0.00316415
0.0253784
0.0123393
0.0122557
0.0269895
0.00493824
0.032333
0.00571918
0.0359037
0.0453939
0.0245128
0.0840718
0.148901
0.226458
0.421338
0.769342
1.15393
1.47406
1.57512
1.38666
1.03949
0.697914
0.445675
0.288226
0.197727
0.144305
0.109268
0.0846381
0.067163
0.0546342
0.0454377
0.0384473
0.0329946
0.028755
0.0255626
0.0232742
0.0216845
0.0205295
0.0195583
0.0186093
0.0176398
0.0166939
0.0158402
0.0151311
0.0145871
0.014197
0.0139323
0.01376
0.0136506
0.0135807
0.013535
0.0135047
0.0134853
0.0134733
0.0134663
0.0134623
0.0134603
0.0134591
0.0134586
0.0134582
0.0134583
0.013458
0.0134582
0.013458
0.0134582
0.0134579
0.0134582
0.013458
0.0134581
0.0134581
0.013458
0.0134582
0.0134579
0.0134583
0.0134577
0.0134585
0.0134576
0.0134587
0.0134573
0.013459
0.013457
0.0134593
0.0134567
0.0134597
0.0134562
0.0134603
0.0134556
0.0134609
0.013455
0.0134615
0.0134543
0.0134623
0.0134537