/*--------------------------------*- C++ -*----------------------------------*\
| =========                 |                                                 |
| \\      /  F ield         | OpenFOAM: The Open Source CFD Toolbox           |
|  \\    /   O peration     | Version:  v2012                                 |
|   \\  /    A nd           | Website:  www.openfoam.com                      |
|    \\/     M anipulation  |                                                 |
\*---------------------------------------------------------------------------*/
FoamFile
{
    version     2.0;
    format      ascii;
    class       volScalarField;
    location    "0.107";
    object      k.air;
}
// * * * * * * * * * * * * * * * * * * * * * * * * * * * * * * * * * * * * * //

dimensions      [0 2 -2 0 0 0 0];


internalField   nonuniform List<scalar> 
5600
(
0.652354
1.46941
2.41637
3.078
3.37973
3.41818
3.31576
3.14731
2.97094
2.8119
2.67486
2.56199
2.47534
2.41419
2.37449
2.3524
2.34434
2.34216
2.34842
2.35241
2.35995
2.36459
2.3685
2.37294
2.37333
2.37817
2.37755
2.38229
2.38199
2.38541
2.38656
2.38775
2.38983
2.38946
2.39079
2.39022
2.38985
2.39016
2.38796
2.38913
2.38597
2.38723
2.3842
2.38488
2.38284
2.38263
2.38169
2.38094
2.3807
2.37977
2.37989
2.37865
2.3793
2.37768
2.37917
2.37732
2.37924
2.37754
2.37919
2.37823
2.37933
2.37902
2.38005
2.37944
2.38127
2.37975
2.38258
2.38056
2.38389
2.38214
2.38535
2.384
2.38762
2.38587
2.3908
2.38806
2.39406
2.39073
2.39678
2.39341
2.39966
2.39566
2.40347
2.3979
2.40744
2.40115
2.41036
2.40567
2.41212
2.41137
2.41248
2.41995
2.40746
2.43982
2.38231
2.49618
2.28612
2.684
1.89838
3.36772
0.403767
0.377513
0.398135
0.450746
0.512293
0.590461
0.673465
0.79453
0.938196
1.10333
1.28298
1.47633
1.6684
1.85247
2.02386
2.16943
2.29809
2.39304
2.47362
2.52348
2.56432
2.58923
2.60272
2.62169
2.62119
2.63997
2.63571
2.65036
2.64768
2.65434
2.65653
2.65385
2.65807
2.65237
2.65369
2.65106
2.64703
2.65017
2.6416
2.64789
2.63849
2.64468
2.63752
2.64125
2.63846
2.63917
2.63929
2.63843
2.64011
2.63866
2.64125
2.63808
2.64249
2.63764
2.64461
2.6391
2.64676
2.64226
2.64795
2.64616
2.64988
2.64942
2.65402
2.6512
2.65898
2.65269
2.66279
2.65568
2.6657
2.65994
2.66903
2.66318
2.67414
2.66569
2.68067
2.66952
2.68687
2.67502
2.69205
2.67943
2.69791
2.6812
2.70571
2.68325
2.71282
2.68856
2.71697
2.69588
2.72012
2.70268
2.72269
2.71375
2.71704
2.74141
2.68444
2.81078
2.5849
2.98193
2.30064
3.39298
0.406769
0.343683
0.302118
0.270765
0.251753
0.240238
0.233732
0.237402
0.246339
0.267786
0.294569
0.335725
0.388742
0.449622
0.529521
0.608087
0.709226
0.802441
0.913608
1.01613
1.12381
1.23058
1.32559
1.43357
1.51446
1.60874
1.66471
1.73225
1.77394
1.81491
1.85049
1.87268
1.90295
1.91807
1.93793
1.9547
1.96303
1.98342
1.98321
2.00395
2.00143
2.01874
2.01894
2.0305
2.03555
2.04238
2.04945
2.05376
2.06186
2.06459
2.07355
2.07275
2.08383
2.08018
2.09389
2.09
2.10324
2.10148
2.11074
2.11224
2.11915
2.12071
2.12998
2.12705
2.14065
2.13322
2.14861
2.14108
2.15503
2.14961
2.16278
2.15579
2.17222
2.16088
2.18222
2.16825
2.19106
2.17731
2.19946
2.18385
2.20931
2.18669
2.22054
2.19089
2.22979
2.19885
2.23664
2.20683
2.24471
2.21116
2.25454
2.21662
2.26015
2.2319
2.25252
2.26619
2.21857
2.33538
2.1394
2.39471
0.407983
0.342782
0.299115
0.261983
0.234292
0.213519
0.192668
0.181929
0.166367
0.160403
0.153458
0.1476
0.153506
0.146321
0.166311
0.162141
0.193478
0.201718
0.239486
0.270378
0.311119
0.36965
0.413474
0.496472
0.549443
0.648446
0.716175
0.814504
0.89484
0.976527
1.05654
1.1186
1.18874
1.23997
1.29073
1.33848
1.36891
1.41663
1.43333
1.47724
1.4903
1.52615
1.54195
1.56735
1.58594
1.60267
1.61974
1.63151
1.64823
1.65659
1.67398
1.67645
1.69597
1.69447
1.71606
1.71527
1.73445
1.73724
1.75031
1.75603
1.76699
1.77052
1.78553
1.78245
1.80243
1.79461
1.81474
1.8083
1.82538
1.82151
1.83866
1.83116
1.8532
1.83988
1.86671
1.85196
1.87861
1.86537
1.89121
1.87456
1.90563
1.87974
1.91993
1.88776
1.93096
1.89972
1.94057
1.90975
1.95269
1.91509
1.96596
1.9217
1.97488
1.93621
1.9756
1.96041
1.96616
1.99148
1.9581
1.98378
0.408211
0.343169
0.298485
0.263045
0.232262
0.21378
0.189197
0.178922
0.161688
0.150455
0.145286
0.126193
0.135173
0.107921
0.126282
0.0986472
0.115357
0.100353
0.102854
0.112285
0.0943127
0.130334
0.0995659
0.150976
0.127067
0.177976
0.180365
0.222258
0.258108
0.29367
0.352403
0.391082
0.455771
0.507967
0.567538
0.636129
0.682484
0.7582
0.794349
0.865053
0.899342
0.957231
0.993801
1.03735
1.07482
1.10808
1.14216
1.16823
1.20022
1.22015
1.25259
1.26371
1.29786
1.3034
1.33772
1.34478
1.37315
1.38434
1.40407
1.41659
1.43462
1.44175
1.46548
1.4638
1.49229
1.48642
1.51235
1.50951
1.53084
1.53017
1.55287
1.54639
1.57503
1.56187
1.59333
1.58053
1.60952
1.59923
1.62767
1.61217
1.64732
1.6216
1.66439
1.63513
1.67729
1.65212
1.69011
1.66552
1.70595
1.67449
1.72115
1.68571
1.73143
1.70275
1.7375
1.72349
1.74106
1.74289
1.75088
1.74107
0.407781
0.344341
0.297118
0.264835
0.230655
0.215059
0.188786
0.178096
0.163694
0.146755
0.149199
0.120736
0.137942
0.103331
0.12355
0.0968272
0.103588
0.100019
0.0801701
0.107772
0.0598375
0.111355
0.0514239
0.103593
0.0588745
0.0865342
0.0767929
0.0712459
0.0948331
0.0714891
0.105156
0.0947412
0.113081
0.133751
0.134362
0.181721
0.175423
0.237062
0.238116
0.296821
0.316293
0.365822
0.400476
0.442606
0.48765
0.529011
0.575098
0.612435
0.659211
0.690998
0.740932
0.762546
0.813598
0.828554
0.876256
0.893712
0.932142
0.954989
0.983887
1.00616
1.03515
1.04823
1.0847
1.08744
1.12722
1.12757
1.16109
1.16588
1.19369
1.19907
1.23001
1.2272
1.26408
1.25457
1.2911
1.28412
1.31548
1.31144
1.34291
1.33182
1.37065
1.34963
1.39251
1.37204
1.40943
1.3964
1.42782
1.41564
1.44915
1.43104
1.46796
1.44881
1.4822
1.46947
1.49532
1.49032
1.508
1.50953
1.5217
1.52169
0.406894
0.345752
0.295897
0.266071
0.230039
0.215077
0.189709
0.176401
0.166079
0.144252
0.151355
0.119774
0.137215
0.10625
0.118436
0.103586
0.095641
0.107221
0.0734131
0.110479
0.0581113
0.105914
0.055902
0.0893684
0.066425
0.0659071
0.0801641
0.0471686
0.0844277
0.0454376
0.0692886
0.0646777
0.0431829
0.0845047
0.0317594
0.0893087
0.0357119
0.0889327
0.0521207
0.0831549
0.07672
0.0901413
0.0988361
0.107088
0.126185
0.138357
0.161652
0.171838
0.206209
0.215525
0.262728
0.266186
0.317285
0.323468
0.370714
0.390813
0.430928
0.462849
0.497284
0.525884
0.564386
0.58081
0.629114
0.636569
0.685626
0.694634
0.733684
0.747829
0.781146
0.792956
0.831781
0.833641
0.877592
0.875244
0.914981
0.918492
0.951543
0.957648
0.99289
0.990268
1.03247
1.0217
1.06269
1.05671
1.08805
1.09089
1.1168
1.11898
1.14772
1.14423
1.17416
1.17086
1.19619
1.19735
1.21792
1.22297
1.23828
1.24794
1.25649
1.26831
0.406224
0.346277
0.295883
0.265723
0.231107
0.213709
0.191413
0.174994
0.166917
0.144579
0.149653
0.123043
0.132673
0.111718
0.112899
0.108572
0.0922475
0.108499
0.075021
0.105916
0.0657172
0.0960697
0.0671894
0.0780776
0.0763166
0.0583029
0.0834477
0.0473538
0.0779196
0.0537741
0.055735
0.0733348
0.0311786
0.0839885
0.0244451
0.0774582
0.029409
0.0661839
0.0390802
0.0510432
0.0488906
0.0458123
0.0474225
0.0462028
0.0509268
0.0437113
0.0573224
0.0391679
0.0713294
0.0399155
0.0796621
0.0469856
0.0849931
0.0718024
0.0921359
0.0996343
0.109348
0.126728
0.142192
0.148299
0.180829
0.174507
0.219427
0.215369
0.255942
0.264684
0.293956
0.309222
0.339415
0.350404
0.392183
0.396131
0.440878
0.446976
0.482982
0.497374
0.528068
0.543608
0.580378
0.586857
0.629019
0.630867
0.666569
0.675976
0.701134
0.717577
0.740586
0.753909
0.780449
0.78883
0.814269
0.823696
0.84437
0.857117
0.874884
0.890142
0.904013
0.922542
0.930718
0.950165
0.406092
0.345793
0.296824
0.264364
0.232836
0.212169
0.192644
0.174794
0.166001
0.146998
0.145995
0.127647
0.127853
0.115998
0.10998
0.109498
0.0937688
0.104413
0.0816268
0.0974114
0.0754942
0.0865031
0.0755058
0.0726872
0.0781428
0.0608172
0.0771447
0.0568343
0.0675134
0.0631211
0.0503838
0.0734291
0.036417
0.07493
0.0354919
0.0652861
0.0414392
0.0550177
0.0450292
0.0488162
0.0447212
0.0467047
0.0424894
0.0436248
0.0446232
0.0357825
0.0512621
0.0252811
0.0572722
0.0221652
0.0530244
0.028147
0.0413787
0.0413917
0.0311969
0.0476668
0.0340896
0.0414678
0.0482379
0.0320611
0.059799
0.0334127
0.060058
0.048432
0.0584692
0.0644082
0.0663869
0.0711464
0.084534
0.0777913
0.105178
0.0966521
0.121351
0.125121
0.138762
0.152263
0.16581
0.176347
0.202435
0.206666
0.237839
0.244447
0.267244
0.283628
0.300061
0.320985
0.340566
0.358245
0.381715
0.397269
0.418396
0.435588
0.453363
0.472041
0.488986
0.508802
0.524866
0.545396
0.559458
0.57833
0.406307
0.345012
0.297802
0.263156
0.234022
0.211389
0.19287
0.17557
0.164295
0.149736
0.14266
0.131179
0.124805
0.117948
0.109638
0.107893
0.0973433
0.0990786
0.088215
0.0903497
0.082125
0.0813632
0.0783265
0.0727846
0.0751236
0.0663046
0.0703458
0.0635003
0.0628764
0.064081
0.0542448
0.064818
0.0485449
0.0616739
0.0479441
0.0553119
0.048783
0.0504649
0.0472072
0.0485834
0.0439352
0.0476203
0.0414512
0.0449316
0.0420808
0.0390593
0.04567
0.0322138
0.0477692
0.0301555
0.0434956
0.0347626
0.0340899
0.042065
0.0264392
0.043347
0.0280867
0.0355779
0.0359591
0.0266881
0.0400533
0.025957
0.034849
0.0325851
0.0277406
0.0365351
0.0279444
0.0322416
0.0346225
0.0267108
0.0385034
0.0291368
0.0352043
0.0374501
0.0330888
0.0421828
0.0391402
0.0413394
0.0490553
0.045043
0.0562995
0.0563675
0.0612822
0.0691614
0.0713849
0.0814464
0.0881362
0.0961554
0.106731
0.115406
0.126072
0.13696
0.147481
0.159944
0.172119
0.186409
0.200841
0.216372
0.231907
0.247615
0.406495
0.34457
0.298274
0.262627
0.234446
0.211209
0.19274
0.176156
0.163341
0.151047
0.141242
0.132509
0.123861
0.118281
0.110066
0.10665
0.0992925
0.0966153
0.0908437
0.087937
0.0838647
0.08064
0.077781
0.0745503
0.0724016
0.0694057
0.0675524
0.0651872
0.0628803
0.0619722
0.0583091
0.0592886
0.0545243
0.0561231
0.0522296
0.0521745
0.0509417
0.0483518
0.0494625
0.0457126
0.0468538
0.0448527
0.0429875
0.0449861
0.0396163
0.0436051
0.0391289
0.0393484
0.0410762
0.0346224
0.0415754
0.033626
0.0373977
0.0372704
0.0307788
0.0405113
0.0280091
0.0381339
0.0312306
0.0318964
0.0354879
0.0284646
0.034924
0.0307311
0.0307079
0.0344699
0.0287333
0.0346457
0.0316241
0.0323166
0.035686
0.0328261
0.036977
0.0377009
0.0378203
0.0431953
0.0424297
0.0471123
0.050148
0.0526549
0.0589808
0.0622394
0.0687247
0.075016
0.0811198
0.0899365
0.0973071
0.107009
0.116572
0.12726
0.138809
0.150557
0.163182
0.176193
0.189598
0.203947
0.218711
0.234056
0.25026
0.266768
0.406633
0.344356
0.298445
0.26249
0.234463
0.211342
0.192454
0.176599
0.16283
0.151574
0.140833
0.13273
0.12391
0.117955
0.110628
0.105945
0.09999
0.0960728
0.0910477
0.0881855
0.0830523
0.0819908
0.0759628
0.076585
0.0704317
0.070902
0.0668401
0.0648265
0.0643343
0.0595475
0.0612599
0.0563304
0.0568353
0.0548896
0.0521516
0.0533637
0.0491291
0.0501496
0.0484044
0.0457298
0.0482914
0.0425098
0.046294
0.0422071
0.0421253
0.0434876
0.0384597
0.0432313
0.0379604
0.0403284
0.039969
0.0373791
0.0411867
0.0376473
0.0401558
0.0409197
0.039373
0.0443376
0.0419716
0.0468747
0.0479976
0.0506464
0.0555842
0.0579435
0.064351
0.069204
0.0756752
0.0837541
0.0910081
0.101236
0.110829
0.122402
0.134839
0.147692
0.162059
0.176751
0.192087
0.208559
0.224829
0.242902
0.260899
0.279925
0.299655
0.318956
0.339206
0.358964
0.378886
0.399142
0.418909
0.439592
0.459622
0.479477
0.498938
0.517897
0.536309
0.554503
0.572202
0.589768
0.607364
0.624902
0.406797
0.344115
0.298649
0.262319
0.234514
0.211444
0.192173
0.177059
0.162253
0.152198
0.140279
0.133103
0.123801
0.11773
0.111158
0.105126
0.100945
0.0950593
0.0919053
0.0875601
0.0832437
0.0822491
0.0751348
0.0778865
0.0686859
0.0728577
0.0648844
0.0664897
0.0632969
0.0598653
0.0619922
0.0550098
0.0590802
0.0529991
0.0544751
0.0528422
0.05003
0.0524036
0.0478226
0.0505133
0.0482782
0.0481938
0.050056
0.0477282
0.0518248
0.0506399
0.0540996
0.0567205
0.0589844
0.0651769
0.0684714
0.0763902
0.083127
0.0920372
0.102752
0.113602
0.127457
0.14167
0.157671
0.175285
0.193487
0.213619
0.23441
0.256228
0.279521
0.302759
0.327547
0.352085
0.3773
0.402751
0.42824
0.45466
0.480347
0.505903
0.531205
0.555435
0.579565
0.602866
0.625507
0.648459
0.67016
0.692276
0.713498
0.733897
0.754321
0.77333
0.792429
0.810912
0.828822
0.846689
0.863872
0.880927
0.897449
0.913407
0.928893
0.944035
0.958702
0.973232
0.987692
1.00214
0.406865
0.34397
0.298837
0.26209
0.234757
0.21123
0.192313
0.177022
0.162131
0.152439
0.139874
0.133543
0.123284
0.118129
0.110813
0.105206
0.101036
0.0946214
0.0925882
0.0865734
0.084473
0.0809933
0.0765218
0.0770735
0.0695364
0.0734332
0.0646998
0.0690121
0.0625645
0.0640103
0.0625347
0.0600046
0.0633657
0.0590855
0.0645255
0.0626049
0.0673058
0.0707232
0.074457
0.0833277
0.0886887
0.101238
0.111581
0.126525
0.14369
0.161413
0.184118
0.20598
0.232231
0.259089
0.28756
0.318339
0.34866
0.381295
0.413309
0.446657
0.480582
0.513872
0.54704
0.579386
0.61095
0.641873
0.671724
0.700726
0.729044
0.756056
0.782665
0.808008
0.832652
0.856644
0.879456
0.902006
0.923643
0.944791
0.965383
0.984732
1.00378
1.0219
1.03941
1.05704
1.07348
1.09033
1.1062
1.12159
1.13697
1.15121
1.16576
1.17972
1.19329
1.20667
1.21931
1.23172
1.24363
1.25505
1.26622
1.2771
1.28772
1.29828
1.30883
1.3195
0.406779
0.344053
0.298816
0.262043
0.234879
0.210973
0.192589
0.176616
0.162428
0.152094
0.139972
0.13351
0.123035
0.118555
0.110301
0.106046
0.100663
0.0956769
0.0930708
0.0876823
0.0866896
0.0824339
0.0813083
0.0801068
0.0777139
0.0807808
0.0777937
0.0849395
0.0841909
0.094406
0.0996435
0.11226
0.126284
0.142614
0.166249
0.18907
0.220178
0.250957
0.287174
0.325422
0.364687
0.407926
0.449975
0.496499
0.541851
0.587056
0.632022
0.674273
0.716734
0.756149
0.794523
0.831183
0.86543
0.899002
0.929963
0.959886
0.98791
1.01463
1.04047
1.06498
1.08832
1.11077
1.13204
1.15252
1.17237
1.19121
1.20986
1.2276
1.24498
1.262
1.278
1.29371
1.30839
1.32256
1.33617
1.34882
1.3613
1.37306
1.38454
1.39614
1.40686
1.418
1.42825
1.43832
1.44839
1.45764
1.46737
1.47643
1.48563
1.49464
1.50331
1.51188
1.52022
1.5282
1.53621
1.54393
1.55166
1.55932
1.56707
1.57508
0.40661
0.34427
0.298584
0.262163
0.234714
0.210899
0.192696
0.176388
0.16292
0.151993
0.140929
0.134203
0.124751
0.121068
0.113589
0.111804
0.107326
0.106862
0.106505
0.107857
0.112453
0.11766
0.127979
0.140362
0.157893
0.181669
0.209089
0.247052
0.28659
0.336777
0.386338
0.444001
0.50242
0.565224
0.630014
0.692158
0.754904
0.81251
0.869272
0.921693
0.970793
1.01792
1.05997
1.10066
1.1366
1.17045
1.20204
1.23009
1.25766
1.282
1.3058
1.32816
1.3491
1.36999
1.38907
1.4076
1.42468
1.44083
1.45635
1.47092
1.48486
1.4982
1.51082
1.52299
1.53479
1.54596
1.55707
1.56757
1.57798
1.58815
1.59799
1.60779
1.61693
1.62586
1.63447
1.64256
1.65066
1.65831
1.66597
1.67374
1.68094
1.68853
1.69532
1.70221
1.70907
1.71538
1.72222
1.72836
1.7349
1.74111
1.74728
1.75335
1.75941
1.76514
1.77116
1.77674
1.78268
1.7884
1.7944
1.80076
0.406323
0.344518
0.298158
0.262607
0.234977
0.2125
0.195053
0.180246
0.169113
0.160794
0.154588
0.153159
0.152297
0.158572
0.164919
0.18032
0.19708
0.223742
0.254625
0.29517
0.342614
0.398558
0.462309
0.534208
0.614032
0.700414
0.789198
0.881438
0.967583
1.05097
1.12425
1.19428
1.25467
1.30954
1.35754
1.39917
1.43819
1.4708
1.50249
1.53027
1.55643
1.58171
1.60325
1.62482
1.64232
1.65905
1.67418
1.68736
1.70077
1.71194
1.72346
1.73389
1.74375
1.75386
1.76294
1.77246
1.7812
1.7899
1.79834
1.80646
1.81442
1.82207
1.82946
1.83663
1.84369
1.85038
1.85715
1.86352
1.86994
1.87623
1.88235
1.88863
1.89458
1.90047
1.9062
1.91167
1.91728
1.9226
1.92807
1.93353
1.93874
1.94423
1.94905
1.9541
1.95904
1.96367
1.96873
1.97318
1.9781
1.98261
1.98726
1.99175
1.99635
2.00064
2.00535
2.00949
2.01424
2.01871
2.02349
2.02866
0.405182
0.345672
0.300712
0.27287
0.252151
0.242888
0.237534
0.242217
0.256178
0.278168
0.311051
0.356946
0.413615
0.484427
0.564173
0.656672
0.755244
0.862672
0.971922
1.08413
1.19402
1.30258
1.40696
1.509
1.60026
1.67775
1.74293
1.79748
1.842
1.88055
1.90991
1.93796
1.95876
1.97868
1.99508
2.00912
2.0227
2.03253
2.04328
2.05133
2.05953
2.0674
2.07389
2.08162
2.08756
2.09442
2.10036
2.10583
2.1117
2.11623
2.1215
2.12588
2.13032
2.13489
2.13889
2.14351
2.14757
2.15198
2.15621
2.16051
2.16486
2.16911
2.17335
2.17752
2.18177
2.18579
2.18997
2.19388
2.19792
2.20185
2.20575
2.20973
2.21347
2.21723
2.22089
2.2244
2.22813
2.23165
2.23538
2.23904
2.24268
2.24644
2.24977
2.25335
2.25678
2.26011
2.26375
2.26693
2.27058
2.2738
2.27729
2.28055
2.28402
2.28722
2.29085
2.29398
2.29775
2.30126
2.30506
2.30927
0.401995
0.380608
0.399057
0.459978
0.521014
0.609794
0.695122
0.833633
0.986172
1.1594
1.35053
1.54942
1.74658
1.93402
2.10307
2.25064
2.37134
2.46765
2.53812
2.58963
2.62329
2.64669
2.6624
2.67315
2.68287
2.6899
2.69641
2.70117
2.70404
2.70731
2.70663
2.70781
2.70481
2.70396
2.70093
2.69849
2.69667
2.69351
2.69235
2.68962
2.6883
2.68685
2.68529
2.68508
2.6839
2.68404
2.68355
2.6834
2.68359
2.68317
2.68359
2.6834
2.68365
2.68394
2.6841
2.68483
2.68525
2.6862
2.68705
2.68819
2.68942
2.6908
2.69231
2.69387
2.69564
2.69731
2.6992
2.70096
2.70292
2.70482
2.70679
2.70883
2.71075
2.7128
2.7148
2.71681
2.71897
2.72107
2.7234
2.72567
2.72797
2.73031
2.73246
2.73483
2.73705
2.73934
2.74181
2.74404
2.74666
2.74892
2.75149
2.75383
2.7564
2.75886
2.76157
2.76415
2.76701
2.7699
2.77281
2.77584
0.651871
1.46964
2.41427
3.07071
3.3611
3.39272
3.28088
3.10734
2.92919
2.76994
2.63162
2.51952
2.43492
2.37606
2.33919
2.31998
2.31261
2.31378
2.31804
2.32476
2.33029
2.33556
2.33937
2.34231
2.34507
2.34716
2.34955
2.35158
2.35346
2.35548
2.35668
2.35838
2.35875
2.35948
2.35923
2.35894
2.35838
2.35735
2.35658
2.35524
2.35422
2.35291
2.35167
2.35059
2.34933
2.34851
2.34746
2.34672
2.34598
2.34523
2.34471
2.34403
2.34358
2.34305
2.34263
2.34231
2.34198
2.34185
2.34169
2.34173
2.34178
2.34198
2.34226
2.34261
2.34306
2.34355
2.34413
2.34473
2.34542
2.34613
2.34691
2.34775
2.34861
2.34958
2.35059
2.3517
2.3529
2.35413
2.35546
2.35675
2.35806
2.35938
2.36067
2.36206
2.36344
2.3649
2.36643
2.36792
2.36953
2.37105
2.37269
2.3743
2.37601
2.37776
2.37956
2.38141
2.38318
2.3849
2.38612
2.38651
0.060156
9.04447
11.539
12.3177
12.8737
13.0613
12.9571
12.6694
12.265
11.8376
11.4115
11.0088
10.6429
10.3145
10.0255
9.7624
9.50906
9.26325
9.02307
8.78515
8.5492
8.31108
8.06568
7.82111
7.56941
7.29349
6.99799
6.68243
6.32701
5.94429
5.55985
5.15723
4.74658
4.36588
4.03193
3.71521
3.41526
3.15462
2.91781
2.68044
2.45325
2.25413
2.07471
1.91188
1.79262
1.73996
1.74882
1.79405
1.83977
1.86185
1.86706
1.86846
1.86227
1.84457
1.83182
1.83945
1.86016
1.8768
1.87387
1.84323
1.78743
1.71683
1.64082
1.5632
1.48201
1.39434
1.29882
1.19492
1.08235
0.961517
0.834563
0.705852
0.581422
0.467394
0.367872
0.284551
0.216949
0.163315
0.121582
0.0896435
0.0657514
0.048515
0.0366314
0.0288109
0.0238906
0.0209364
0.0192631
0.0183772
0.0179144
0.0176067
0.0172906
0.0168906
0.0164055
0.0158618
0.0153295
0.0148404
0.0144642
0.0141477
0.0139768
0.0137771
1.3852
4.20961
8.10899
9.94508
10.8847
11.2644
11.2984
11.1069
10.7834
10.4169
10.0473
9.70635
9.40969
9.15323
8.93787
8.75092
8.5718
8.39931
8.23257
8.06467
7.89451
7.71865
7.52859
7.3281
7.11422
6.86749
6.59117
6.28843
5.93976
5.55871
5.17606
4.78044
4.37987
4.0097
3.69161
3.39252
3.10943
2.86912
2.65424
2.43432
2.22343
2.048
1.89585
1.75812
1.67019
1.65863
1.70015
1.75468
1.79674
1.81686
1.82363
1.82664
1.82115
1.8037
1.78907
1.7926
1.80815
1.81916
1.81077
1.77544
1.71635
1.64461
1.56967
1.49503
1.41856
1.33647
1.2466
1.1481
1.04061
0.924428
0.801636
0.676474
0.554782
0.442708
0.344731
0.262864
0.196921
0.145421
0.10624
0.0771278
0.0561736
0.041668
0.0320292
0.0258568
0.0220334
0.0197537
0.0184659
0.017792
0.0174523
0.0172332
0.016991
0.0166567
0.0162308
0.0157409
0.0152532
0.0147967
0.0144428
0.0141393
0.0139764
0.0137811
2.12506
2.00593
3.83405
6.07461
7.71317
8.58245
8.95692
9.01677
8.89608
8.68371
8.43831
8.20782
8.0025
7.82344
7.68134
7.56793
7.46107
7.36099
7.26708
7.16964
7.06683
6.95651
6.82766
6.67896
6.50952
6.30115
6.05368
5.77432
5.44394
5.07546
4.70567
4.32388
3.93632
3.58188
3.28676
3.01299
2.7541
2.54222
2.35818
2.16462
1.97981
1.84014
1.72877
1.62834
1.58246
1.62265
1.70401
1.7641
1.788
1.79016
1.78697
1.78511
1.77699
1.75788
1.74014
1.73826
1.7474
1.75176
1.73723
1.69726
1.63548
1.56333
1.49023
1.41935
1.34823
1.27234
1.18867
1.09603
0.993954
0.882728
0.764421
0.643202
0.524792
0.415309
0.319544
0.239857
0.176389
0.127772
0.091737
0.0659182
0.0480951
0.0362344
0.028575
0.0237419
0.0207519
0.0189545
0.0179237
0.0173777
0.0171034
0.0169333
0.0167416
0.0164614
0.0160901
0.015655
0.0152174
0.0147963
0.014463
0.0141651
0.0140054
0.0138054
2.00793
1.85354
2.08235
2.83625
4.03268
5.13758
5.88902
6.30001
6.48185
6.52515
6.48916
6.43257
6.36858
6.30298
6.25771
6.23256
6.20975
6.18303
6.1579
6.12663
6.08794
6.04067
5.97272
5.88046
5.76068
5.59662
5.38628
5.14083
4.84104
4.49159
4.1399
3.77763
3.40957
3.08203
2.82169
2.58436
2.3601
2.18635
2.04498
1.89026
1.74542
1.657
1.60223
1.55357
1.56136
1.66176
1.78849
1.85127
1.84047
1.80269
1.77157
1.75312
1.73556
1.71091
1.68806
1.67932
1.68071
1.67726
1.65578
1.61107
1.54737
1.47578
1.40553
1.3393
1.27415
1.20491
1.12772
1.04096
0.944142
0.837656
0.723699
0.606477
0.491697
0.385454
0.292703
0.216119
0.156049
0.111055
0.078737
0.0564756
0.0417042
0.0321765
0.0261261
0.0223112
0.0199148
0.0184371
0.0175605
0.017079
0.0168291
0.0166805
0.0165246
0.0162961
0.0159828
0.0156038
0.0152174
0.0148317
0.0145198
0.0142236
0.0140654
0.013854
1.77142
1.73329
1.72185
1.80118
2.05375
2.46829
2.94432
3.39404
3.75456
4.02102
4.20153
4.3363
4.44488
4.52722
4.60805
4.69404
4.77331
4.83551
4.89029
4.93223
4.96109
4.97955
4.97492
4.94194
4.87623
4.75949
4.58966
4.38249
4.11849
3.7965
3.47231
3.14485
2.81297
2.52913
2.32003
2.13474
1.95895
1.83723
1.75376
1.65319
1.56458
1.54236
1.55699
1.57195
1.64013
1.80063
1.97219
2.03732
1.98012
1.87969
1.79803
1.7457
1.70746
1.67055
1.63898
1.62124
1.61323
1.60076
1.57168
1.52236
1.45779
1.38823
1.3222
1.26174
1.2033
1.14099
1.07024
0.988917
0.896556
0.793894
0.68345
0.56964
0.458281
0.355506
0.26632
0.193512
0.137425
0.0964841
0.0680477
0.0491576
0.0370136
0.0293451
0.0245013
0.0214079
0.0194053
0.0181188
0.0173166
0.0168514
0.016597
0.0164509
0.0163207
0.0161428
0.0158935
0.0155728
0.0152332
0.0148764
0.0145884
0.0142963
0.0141447
0.0139204
1.53127
1.53194
1.51785
1.49697
1.49811
1.53445
1.59389
1.68525
1.79795
1.93576
2.08518
2.24494
2.41924
2.58588
2.75841
2.9406
3.11391
3.27016
3.41629
3.54311
3.6494
3.74256
3.80854
3.84043
3.83546
3.77274
3.6498
3.48791
3.26823
2.99122
2.71623
2.44934
2.18212
1.96829
1.83336
1.71884
1.61241
1.56395
1.55184
1.51746
1.49713
1.54699
1.6311
1.70958
1.8336
2.04394
2.25376
2.32504
2.2227
2.04548
1.8915
1.7847
1.70995
1.65047
1.60399
1.5736
1.55363
1.53053
1.49325
1.43959
1.37533
1.30966
1.24971
1.19651
1.14562
1.09044
1.02571
0.948851
0.859499
0.758989
0.65044
0.538706
0.429849
0.33006
0.244271
0.175142
0.122846
0.0855831
0.0604179
0.0441517
0.0339279
0.0275553
0.0235223
0.0208955
0.0191313
0.0179409
0.0171541
0.0166664
0.016382
0.0162188
0.0160977
0.0159561
0.0157643
0.0155008
0.015212
0.0148885
0.014632
0.0143503
0.0142117
0.0139783
1.27072
1.27988
1.2782
1.25821
1.22896
1.19711
1.16161
1.12829
1.09526
1.06963
1.05289
1.0467
1.07081
1.11334
1.18615
1.3077
1.4555
1.62072
1.80634
1.98956
2.16192
2.327
2.46422
2.56528
2.63015
2.63438
2.57516
2.4781
2.32814
2.12668
1.93636
1.7691
1.61043
1.50745
1.47581
1.45217
1.43279
1.46508
1.51969
1.54702
1.59049
1.69898
1.83286
1.95769
2.12342
2.3693
2.60896
2.69356
2.56331
2.3149
2.07717
1.89757
1.76853
1.67317
1.60265
1.55346
1.51728
1.48088
1.43428
1.37637
1.31346
1.25364
1.20203
1.15778
1.11519
1.067
1.00743
0.933472
0.845029
0.744274
0.635222
0.52338
0.415152
0.316719
0.232787
0.165755
0.115575
0.0802715
0.0567679
0.0417905
0.0324941
0.0267479
0.023112
0.0207131
0.0190555
0.0178867
0.0170688
0.0165231
0.0161777
0.0159661
0.0158226
0.0156879
0.015533
0.0153229
0.0150937
0.0148184
0.0146011
0.0143395
0.0142163
0.0139853
0.952325
0.970066
0.977828
0.968662
0.945287
0.910593
0.866943
0.818624
0.766813
0.715625
0.667995
0.622984
0.589434
0.56449
0.547766
0.554875
0.577712
0.617779
0.692351
0.787699
0.901538
1.04173
1.18239
1.31216
1.42795
1.49945
1.5217
1.51553
1.47058
1.39623
1.33966
1.31144
1.29839
1.32972
1.39931
1.45516
1.50706
1.59306
1.68199
1.74502
1.83045
1.97159
2.1261
2.27133
2.46454
2.73503
2.99505
3.09671
2.96603
2.67609
2.36453
2.10576
1.91106
1.76733
1.66208
1.58556
1.52667
1.47253
1.41408
1.35098
1.28981
1.23752
1.19627
1.16216
1.12781
1.08556
1.02941
0.956112
0.865973
0.762186
0.64977
0.534957
0.424477
0.324445
0.239283
0.171135
0.11981
0.0834024
0.0589516
0.0432466
0.0334468
0.0273882
0.0235733
0.0210685
0.0193272
0.0180696
0.0171477
0.0164892
0.0160328
0.0157273
0.0155168
0.0153518
0.0152023
0.0150306
0.0148534
0.0146339
0.0144565
0.0142315
0.0141256
0.0139211
0.588698
0.606338
0.617555
0.616558
0.603091
0.578783
0.547332
0.512605
0.478939
0.449857
0.42833
0.414695
0.410405
0.414525
0.424552
0.441787
0.463436
0.488097
0.520598
0.557226
0.599136
0.652494
0.712967
0.780025
0.855958
0.924233
0.983754
1.04221
1.09259
1.14289
1.21133
1.29426
1.38575
1.49591
1.60753
1.69324
1.77569
1.87694
1.96673
2.03938
2.14453
2.29297
2.43981
2.5851
2.79508
3.08206
3.35013
3.46964
3.37003
3.08398
2.73196
2.41021
2.15225
1.95426
1.80483
1.69137
1.60154
1.52313
1.44817
1.37735
1.31764
1.27371
1.24337
1.21857
1.19038
1.15138
1.09575
1.0203
0.92582
0.816544
0.69839
0.578007
0.462332
0.357588
0.268135
0.195927
0.140443
0.0998388
0.0714636
0.0524022
0.0399513
0.0319522
0.0267761
0.023347
0.0209539
0.0192211
0.0179144
0.0169473
0.0162285
0.0157253
0.0153604
0.0151065
0.0149031
0.0147353
0.0145729
0.0144085
0.0142631
0.0141047
0.0140174
0.0138807
0.261979
0.276479
0.289147
0.298179
0.303064
0.306122
0.310598
0.319279
0.335758
0.360335
0.393769
0.434193
0.47956
0.527735
0.57577
0.62244
0.667494
0.710706
0.752139
0.791754
0.830137
0.868358
0.906612
0.948812
0.997497
1.05229
1.11673
1.19283
1.27887
1.37514
1.48094
1.59008
1.70366
1.82081
1.9247
2.01153
2.10234
2.1985
2.27646
2.34812
2.447
2.56139
2.66437
2.79484
3.01635
3.31288
3.58799
3.7374
3.69688
3.46574
3.12527
2.77717
2.47371
2.22584
2.02818
1.87028
1.74195
1.6325
1.53578
1.45444
1.39485
1.35788
1.33562
1.31581
1.28932
1.24922
1.19013
1.10971
1.00912
0.893211
0.768742
0.642552
0.521362
0.411779
0.318261
0.242489
0.183351
0.138525
0.105191
0.0808306
0.0631108
0.0503896
0.0410995
0.0342991
0.0291256
0.0252632
0.0222574
0.0200634
0.0183663
0.0172204
0.0163326
0.0157999
0.0153418
0.0151194
0.0148665
0.0148041
0.0146549
0.0146923
0.0146087
0.0147111
0.283826
0.300801
0.319547
0.342521
0.371259
0.40743
0.451892
0.504179
0.563656
0.627594
0.694981
0.761528
0.825158
0.884761
0.938998
0.98782
1.03304
1.07443
1.11234
1.14835
1.18306
1.21694
1.25248
1.29181
1.33695
1.38955
1.45232
1.52666
1.6126
1.70757
1.80732
1.91139
2.0205
2.12521
2.21339
2.29034
2.36797
2.43725
2.48753
2.53598
2.59514
2.65212
2.71825
2.85149
3.08733
3.38515
3.66058
3.83539
3.8611
3.72034
3.44382
3.11532
2.79556
2.51289
2.27206
2.07071
1.90337
1.76152
1.64221
1.55024
1.48991
1.45644
1.43553
1.41372
1.38308
1.33704
1.27093
1.18408
1.07808
0.957171
0.828346
0.700009
0.579458
0.472954
0.382897
0.310241
0.253079
0.209242
0.174723
0.147318
0.124398
0.105585
0.0891155
0.0751954
0.0626876
0.0525085
0.0437327
0.0373231
0.0319809
0.02858
0.0256348
0.024178
0.0226533
0.0224042
0.0217833
0.0223923
0.0222633
0.0233972
0.023339
0.0247387
0.642836
0.660563
0.681067
0.708072
0.743461
0.787835
0.839814
0.897698
0.959322
1.02127
1.08201
1.1393
1.19253
1.24111
1.28485
1.32473
1.36273
1.39805
1.43135
1.46436
1.49701
1.5295
1.56432
1.60306
1.64682
1.69668
1.75439
1.81996
1.89166
1.96761
2.04972
2.14016
2.23186
2.31203
2.3774
2.43483
2.48575
2.51947
2.5346
2.54573
2.55903
2.5801
2.64169
2.78905
3.03397
3.32622
3.59493
3.78177
3.85136
3.78863
3.5989
3.32044
3.01084
2.71215
2.44221
2.20969
2.01336
1.84732
1.71279
1.61607
1.55707
1.52366
1.49757
1.46835
1.42938
1.37491
1.30045
1.20669
1.09676
0.976293
0.851426
0.731531
0.622878
0.530891
0.454904
0.394602
0.3455
0.306813
0.274037
0.247257
0.222684
0.201461
0.180317
0.161504
0.142314
0.126093
0.110289
0.0987789
0.0880934
0.0817809
0.0755782
0.0733768
0.0705311
0.0714974
0.0711461
0.0743485
0.075103
0.0793798
0.0797982
0.0844963
1.01698
1.03191
1.04994
1.07415
1.10577
1.14495
1.18964
1.23864
1.28961
1.33976
1.38819
1.43301
1.47481
1.51338
1.54896
1.58287
1.61623
1.64847
1.6801
1.71229
1.74418
1.77553
1.80829
1.84316
1.88047
1.92086
1.96578
2.01475
2.0671
2.12464
2.19137
2.264
2.32903
2.37891
2.41698
2.44721
2.46513
2.46314
2.4456
2.42672
2.41571
2.42677
2.49798
2.66157
2.90834
3.18732
3.4415
3.6276
3.721
3.7102
3.58989
3.36855
3.08409
2.78519
2.50333
2.25627
2.04504
1.86742
1.72945
1.63668
1.58178
1.5459
1.51133
1.47242
1.42351
1.35937
1.27684
1.17931
1.06995
0.955591
0.842359
0.73932
0.650176
0.578314
0.520505
0.475896
0.439027
0.409414
0.382393
0.359243
0.33595
0.314843
0.292651
0.272993
0.252939
0.236825
0.221189
0.210469
0.20027
0.195157
0.189853
0.189415
0.187949
0.191253
0.192517
0.198085
0.200017
0.206319
0.207115
0.213647
1.33062
1.34202
1.3563
1.37566
1.40103
1.43232
1.46751
1.5061
1.54547
1.58502
1.62342
1.65984
1.69524
1.72913
1.76164
1.79388
1.82583
1.85659
1.88676
1.9166
1.94429
1.96974
1.99479
2.01922
2.04323
2.06784
2.09482
2.12398
2.15677
2.19692
2.245
2.29049
2.32206
2.34046
2.35069
2.35277
2.3407
2.31187
2.2745
2.23987
2.22071
2.23711
2.32203
2.49388
2.73295
2.99273
3.22786
3.40598
3.51032
3.53271
3.46091
3.28654
3.03142
2.74425
2.46643
2.22015
2.00701
1.83058
1.70108
1.6195
1.56955
1.52891
1.48509
1.43618
1.37726
1.30451
1.2172
1.12003
1.01658
0.914421
0.81901
0.737149
0.669683
0.617495
0.576535
0.545598
0.519976
0.499281
0.47975
0.462254
0.443785
0.426329
0.407701
0.391046
0.374405
0.361167
0.348742
0.340457
0.332919
0.329622
0.326429
0.327298
0.327429
0.331654
0.333909
0.339799
0.342101
0.348268
0.349
0.355323
1.58355
1.59245
1.60405
1.61999
1.64097