/*--------------------------------*- C++ -*----------------------------------*\
| =========                 |                                                 |
| \\      /  F ield         | OpenFOAM: The Open Source CFD Toolbox           |
|  \\    /   O peration     | Version:  v2012                                 |
|   \\  /    A nd           | Website:  www.openfoam.com                      |
|    \\/     M anipulation  |                                                 |
\*---------------------------------------------------------------------------*/
FoamFile
{
    version     2.0;
    format      ascii;
    class       volScalarField;
    location    "0.107";
    object      omega.air;
}
// * * * * * * * * * * * * * * * * * * * * * * * * * * * * * * * * * * * * * //

dimensions      [0 0 -1 0 0 0 0];


internalField   nonuniform List<scalar> 
5600
(
6772.28
9484.38
11876.5
13294.8
13893.6
13968.1
13768.8
13434.7
13075.8
12743.3
12449.9
12202.7
12009.7
11871.5
11780.9
11730.3
11711.6
11706.7
11721.1
11730.2
11747.7
11758.1
11767.3
11777.3
11778.3
11789.3
11787.9
11798.8
11798
11806
11808.4
11811.3
11816
11815.1
11818.3
11816.8
11816.2
11816.7
11811.8
11814.4
11807.2
11810.1
11803.1
11804.8
11799.9
11799.6
11797.3
11795.7
11795.1
11793
11793.3
11790.5
11791.9
11788.3
11791.6
11787.4
11791.8
11787.9
11791.8
11789.4
11792
11791.3
11793.6
11792.3
11796.3
11792.9
11799.4
11794.8
11802.4
11798.4
11805.8
11802.7
11810.9
11807.1
11818.2
11812
11825.7
11818
11831.9
11824.1
11838.4
11829.4
11847
11834.5
11856.2
11841.8
11862.9
11852
11866.8
11865.1
11867.5
11884.7
11856.1
11929.6
11798.9
12056.3
11576.9
12469.6
10634.3
13862.9
2506.49
2660
3499.2
4408.99
5079.92
5503.47
5763.86
5918.21
5999.9
5999.8
6089.06
6223.82
6350.38
6439.81
6482.46
6479.78
6436.05
6367.24
6273.9
6172.23
6065.64
5961.37
5860.74
5772.7
5684.05
5606.13
5527.44
5458.57
5393.23
5335.22
5283.29
5233.72
5191.73
5151.26
5116.43
5084.41
5055.09
5030.38
5006.11
4985.86
4966.2
4949.39
4933.16
4919.03
4905.92
4893.56
4882.48
4871.5
4861.72
4852.19
4843.74
4835.24
4827.84
4820.14
4813.8
4807.21
4802.04
4796.4
4791.83
4787
4782.86
4778.86
4775.53
4771.72
4768.99
4765.33
4762.75
4759.57
4757.07
4754.37
4752.1
4749.69
4747.89
4745.73
4744.2
4742.72
4741.68
4740.78
4739.96
4738.96
4737.84
4736.82
4735.5
4735.16
4733.69
4734.7
4731.96
4735.72
4729.16
4738.77
4723.29
4748.25
4708
4773.51
4664.78
4848.64
4532.97
5077.7
4099.41
5793.24
2556.96
2211.17
2000.85
1889.79
1867.24
1937.1
2043.99
2168.31
2321.94
2454.83
2599.96
2764.66
2935.31
3111.8
3262.8
3404
3502.8
3585.94
3626.9
3647.76
3636.96
3598.3
3542.68
3462.08
3389.14
3318.25
3263.05
3213.7
3167.86
3126.2
3089.39
3054.55
3024.75
2994.27
2965.8
2939.56
2913.9
2891.55
2868.78
2849.47
2829.38
2812.74
2795.58
2780.91
2766.74
2753.7
2741.97
2730.63
2720.65
2710.78
2702.17
2693.24
2685.87
2677.7
2671.6
2664.48
2659.54
2653.34
2648.75
2643.49
2639.11
2634.64
2631.01
2626.63
2623.77
2619.28
2616.95
2612.6
2610.54
2606.67
2604.78
2601.19
2599.62
2596.15
2595.18
2591.86
2591.46
2588.54
2588.26
2585.7
2584.93
2582.59
2581.73
2579.96
2578.52
2578.87
2574.52
2579.93
2568.64
2583.56
2559.18
2593.46
2540.76
2617.95
2501.58
2673.15
2419.76
2781.55
2271.03
2922.49
2552.82
2194.76
1927.73
1720.25
1563.98
1439.08
1352.4
1280.41
1234.43
1204.8
1184.38
1203.06
1221.1
1286.06
1342.69
1444.87
1535.58
1653.66
1764.36
1871.22
1985.7
2060.25
2154
2191.69
2249.29
2265.59
2291.28
2295.29
2292.81
2281.44
2255.95
2231.42
2198.52
2173.08
2149.19
2126.52
2106.65
2085.77
2067.22
2049.21
2031.68
2016.65
2001.7
1987.75
1973.73
1960
1947.02
1934.39
1922.88
1911.43
1901.04
1890.39
1881.23
1871.6
1863.93
1855.55
1849.06
1841.69
1835.5
1828.9
1823.11
1817.06
1811.99
1806.17
1801.81
1796
1792.25
1786.75
1783.35
1778.48
1775.48
1770.81
1768.22
1763.59
1761.74
1757.36
1756
1752.15
1750.77
1747.5
1745.73
1742.85
1741.12
1738.95
1736.4
1736.6
1730.88
1735.98
1724.22
1736.9
1715.8
1740.87
1703.6
1750.62
1685.59
1766.52
1664.17
1778.83
1656.96
1743.68
2551.48
2190.77
1921.47
1707.72
1541.84
1401.54
1289.58
1194.67
1111.07
1049.43
981.003
944.22
889.505
867.754
832.287
815.838
808.391
791.86
822.769
812.868
876.765
882.208
968.716
998.213
1089.18
1146.96
1225.55
1305.67
1365.21
1444.39
1484.67
1537.79
1566.93
1590.85
1614.69
1619.74
1635.3
1629.02
1633.68
1622.75
1616.17
1603.41
1590.42
1578.4
1566.3
1555.46
1544.41
1534.32
1523.76
1514.01
1503.58
1494.51
1485.35
1477.04
1469.61
1461.94
1455.07
1447.31
1440.32
1432.9
1426.16
1419.16
1412.81
1406.03
1400.42
1393.7
1388.8
1382.58
1378.13
1372.62
1368.67
1363.42
1359.93
1354.64
1351.72
1346.6
1343.89
1339.24
1336.35
1332.26
1329.33
1325.66
1323.03
1320.02
1316.82
1315.65
1310.19
1312.16
1303.5
1309.1
1296.9
1306.8
1289.92
1305.33
1283.48
1302.52
1281.2
1293.11
1288.6
1269.98
2551.2
2189.64
1919.6
1705.94
1537.89
1398.44
1282.41
1187.14
1099.62
1032.9
964.049
913.504
862.522
816.319
785.872
736.371
725.211
674.039
673.249
631.016
627.779
605.604
591.506
595.319
569.961
599.59
575.001
620.773
611.985
663.811
686.266
726.668
788.808
810.543
894.084
914.314
992.873
1016.19
1077.47
1105.81
1141.89
1168.08
1188.68
1207.36
1218.39
1229.31
1235.35
1242.28
1241.89
1244.59
1238.65
1239.65
1232.03
1229.9
1222.32
1215.44
1208.29
1200.23
1194.08
1187.91
1181.73
1176.93
1170.51
1165.58
1160.33
1154.85
1150.91
1145.75
1142.19
1137.7
1134.14
1129.97
1126.64
1121.94
1118.91
1113.76
1110.36
1105.21
1101.3
1096.56
1093.05
1088.72
1085.81
1081.99
1078.69
1075.99
1071.42
1070.07
1064.76
1064.21
1059.01
1058.69
1053.69
1053.26
1049.01
1047.27
1045.48
1040.63
1042.3
1034.42
2550.93
2189.66
1918.4
1706.06
1536.01
1398.18
1280.76
1185.19
1099.39
1027.94
965.412
905.8
863.243
808.327
781.55
731.177
711.571
672.237
648.101
628.128
590.618
592.87
542.317
559.688
506.945
524.585
485.412
488.306
474.766
455.078
470.231
433.213
465.672
432.351
461.738
451.371
471.122
483.803
501.102
530.835
548.92
587.351
615.364
650.495
683.209
721.424
750.915
791.661
809.941
852.073
864.759
901.329
910.684
932.724
944.011
952.992
962.657
965.84
971.301
976.647
976.491
982.376
979.123
981.675
979.55
978.186
977.598
974.939
972.957
970.431
966.111
963.309
959.785
956.366
954.448
950.19
947.713
943.189
939.61
935.502
932.676
928.933
927.071
923.537
921.134
918.085
914.807
912.061
909.212
906.306
904.601
901.297
899.99
896.324
894.745
891.229
888.744
886.468
882.121
881.754
2550.63
2189.99
1917.63
1706.32
1535.26
1397.77
1280.84
1183.39
1100.77
1024.85
967.261
903.01
863.264
808.413
777.318
735.684
702.743
679.668
637.552
633.917
583.322
591.522
542.549
547.926
514.667
503.822
494.223
464.249
473.602
435.502
446.198
421.088
412.606
413.669
383.306
403.257
363.315
388.667
355.922
367.506
357.391
354.771
356.803
352.363
358.179
364.978
364.795
383.694
382.006
410.207
418.904
441.224
463.132
474.542
510.207
520.666
557.207
577.595
600.289
630.963
641.934
672.694
684.505
704.167
721.385
731.622
748.385
757.56
766.963
776.742
780.078
786.634
790.488
792.354
797.813
797.356
800.81
800.228
800.464
799.704
799.859
798.102
799.231
796.521
796.533
793.678
791.948
788.964
787.16
783.811
782.766
779.515
778.517
775.73
773.673
771.53
767.712
766.845
761.59
761.237
2550.44
2190.11
1917.43
1706.13
1535.41
1396.98
1281.5
1182.14
1101.45
1024.03
966.793
903.925
860.514
811.734
772.39
740.334
697.678
682.757
635.707
632.172
587.314
583.748
551.681
536.835
524.208
495.219
497.769
463.987
466.855
445.027
431.345
433.652
398.186
419.734
375.996
398.066
363.917
373.405
355.535
350.679
346.066
334.062
332.883
322.442
320.003
310.988
311.829
297.185
307.462
285.053
304.492
276.107
299.229
277.411
293.405
283.823
292.176
295.587
301.218
306.252
317.109
318.984
340.256
340.112
367.005
369.855
393.215
402.884
420.54
436.865
454.406
470.108
490.858
500.737
522.489
530.932
549.787
561.496
575.865
587.211
599.42
607.147
618.512
623.638
632.236
636.492
642.068
645.264
649.333
650.745
653.812
654.389
656.112
656.533
656.388
656.631
654.352
654.727
651.219
650.689
2550.44
2189.97
1917.57
1705.77
1535.67
1396.61
1281.5
1182.31
1100.57
1025.26
964.76
906.096
857.991
813.631
771.028
740.093
699.241
679.103
640.684
625.7
593.949
577.252
556.435
533.935
524.037
497.713
492.699
469.916
460.729
449.062
429.932
430.821
404.226
410.853
385.539
388.943
370.994
368.547
356.88
351.413
342.647
336.577
329.534
322.091
319.255
306.561
311.503
292.039
302.507
282.128
289.925
277.315
274.744
274.416
262.506
266.859
257.9
253.873
258.364
241.575
255.212
237.203
245.559
239.423
236.709
239.655
235.85
234.175
240.359
230.804
244.114
236.83
245.503
248.144
250.615
257.924
262.944
267.326
280.425
283.328
297.815
303.815
313.344
323.501
331.408
342.49
352.695
362.343
373.496
382.304
391.771
400.23
408.056
416.012
423.106
430.762
437.096
444.014
449.418
454.648
2550.49
2189.86
1917.71
1705.65
1535.74
1396.71
1281.2
1182.89
1099.74
1026.31
963.696
906.997
857.554
813.384
772.175
738.015
702.172
675.633
644.276
622.544
596.133
576.463
555.594
536.278
520.579
501.542
489.337
471.893
460.75
446.646
434.494
424.661
410.931
404.527
390.588
385.178
373.493
366.37
358.962
348.703
345.542
333.537
331.501
321.806
316.535
312.398
302.478
302.725
291.722
290.907
284.726
278.008
278.738
267.455
270.626
261.254
260.183
257.726
250.692
253.286
245.33
246.592
243.919
240.094
243.185
237.919
241.064
240.861
239.894
245.848
243.913
250.802
253.945
258.082
266.533
270.76
279.756
288.142
295.225
306.639
314.588
325.887
336.849
346.97
358.766
368.762
379.455
389.899
399.703
409.83
419.266
428.437
437.09
445.086
452.404
459.028
465.037
470.585
475.727
480.6
2550.54
2189.83
1917.84
1705.68
1535.82
1396.93
1281.07
1183.41
1099.36
1027.01
963.343
907.456
857.734
813.084
773.297
736.774
704.098
673.943
646.19
621.44
596.935
576.923
554.63
538.473
518.258
504.48
487.14
473.82
460.432
446.173
436.788
421.973
414.68
401.66
393.318
384.663
373.333
369.213
356.295
353.48
343.123
337.211
332.807
322.293
322.81
311.378
311.357
305.227
299.811
301.482
292.253
297.119
291.781
292.757
297.203
293.052
304.905
302.543
314.421
320.996
329.246
344.217
352.772
369.664
384.027
398.632
418.532
432.632
452.799
469.752
486.837
505.964
521.592
538.779
554.82
568.505
583.569
595.438
607.693
618.808
628.34
637.971
645.649
652.733
658.824
663.345
667.729
670.61
673.302
675.296
676.766
677.98
678.59
678.898
678.714
678.196
677.277
676.235
674.903
673.683
2550.59
2189.86
1918.04
1705.75
1536.11
1397.05
1281.37
1183.67
1099.54
1027.5
963.35
908.141
857.705
813.732
773.526
737.07
704.885
673.664
647.659
620.624
598.908
575.966
556.562
538.15
519.344
505.676
486.8
476.905
459.079
450.384
436.191
425.698
417.127
404.006
400.055
387.097
383.857
375.732
369.71
368.929
360.843
365.472
360.778
366.46
370.41
375.562
388.967
396.489
415.501
429.871
450.234
472.56
493.216
519.814
542.411
568.221
593.332
616.534
641.558
662.65
684.63
703.919
721.829
738.53
752.753
765.922
776.9
786.208
794.186
800.123
805.436
809.481
812.827
815.563
817.453
818.76
819.586
819.757
819.758
819.21
818.429
817.396
815.941
814.384
812.472
810.328
808.221
805.823
803.654
801.451
799.309
797.227
795.028
792.828
790.536
788.233
785.866
783.581
781.299
779.254
2550.61
2190.07
1918.27
1706.05
1536.57
1397.35
1282.08
1183.93
1100.44
1027.87
964.249
908.883
858.387
815.063
773.966
738.98
705.403
675.862
648.935
622.705
601.799
577.802
561.766
540.402
527.146
510.279
497.423
487.015
473.576
470.004
458.167
459.506
454.28
458.888
464.369
473.106
490.261
505.975
532.653
557.429
589.513
622.564
656.318
694.017
728.139
765.325
798.133
830.713
860.511
886.764
911.254
931.039
948.612
962.438
973.345
982.478
989.266
994.752
998.746
1001.42
1003.12
1003.64
1003.38
1002.29
1000.46
998.139
995.239
991.985
988.518
984.697
981.132
977.609
974.234
970.936
967.597
964.241
960.828
957.438
954.101
950.811
947.572
944.421
941.278
938.238
935.187
932.246
929.378
926.702
924.034
921.347
918.647
915.927
913.143
910.376
907.6
904.909
902.234
899.706
897.283
895.177
2550.7
2190.54
1918.77
1706.9
1537.43
1398.46
1283.44
1185.32
1102.55
1029.76
967.318
911.801
862.635
819.905
779.851
746.955
714.038
688.683
662.929
643.225
625.581
610.468
602.314
592.495
595.146
595.657
610.432
625.598
653.757
686.624
726.777
774.293
821.912
877.211
928.332
983.137
1031.98
1078.45
1120.07
1154.15
1184.51
1206.27
1225.2
1239.32
1250.07
1257.99
1262.59
1265.35
1265.37
1263.76
1260.39
1255.53
1249.8
1243.15
1236.29
1229.7
1223.39
1217.21
1211.36
1205.49
1199.73
1194.02
1188.31
1182.78
1177.29
1172.04
1166.93
1162.1
1157.44
1153.1
1148.66
1144.24
1139.79
1135.38
1130.94
1126.55
1122.15
1117.89
1113.74
1109.78
1105.92
1102.18
1098.49
1094.88
1091.35
1087.94
1084.66
1081.51
1078.54
1075.63
1072.81
1070.06
1067.34
1064.68
1062.09
1059.62
1057.24
1055.01
1052.98
1051.34
2551.1
2191.68
1920.38
1709.28
1540.48
1402.84
1289.63
1194.04
1114.7
1045.82
988.823
939.57
899.555
866.871
841.224
825.003
814.249
818.339
829.019
855.505
889.521
938.39
994.759
1060.79
1133.34
1208.28
1287.78
1361.62
1434.25
1493
1544.07
1581.35
1610.95
1633.23
1647.93
1657.62
1660.83
1660.14
1654.62
1645.64
1634.41
1620.66
1608.08
1595.93
1584.52
1573.23
1562.43
1551.58
1541.13
1530.84
1520.9
1511.53
1502.57
1494.36
1486.54
1478.68
1470.99
1463.32
1456.04
1448.77
1441.8
1435
1428.33
1421.95
1415.71
1409.76
1403.99
1398.47
1393.15
1388.1
1383.25
1378.62
1374.18
1369.88
1365.69
1361.66
1357.71
1353.97
1350.42
1347.09
1343.89
1340.8
1337.7
1334.72
1331.8
1328.99
1326.32
1323.73
1321.32
1318.94
1316.67
1314.44
1312.28
1310.16
1308.16
1306.23
1304.48
1302.87
1301.55
1300.74
2552.68
2195.32
1926.89
1722.08
1562.84
1442.96
1354.04
1286.11
1243.31
1212.32
1204.9
1219.37
1257.72
1315.93
1396.3
1491.69
1601.16
1715.62
1832.66
1944.82
2047.12
2134.76
2203.42
2255.09
2291.4
2315.67
2329.92
2331.68
2323.81
2303.97
2278.18
2246.61
2218.77
2193.46
2170.38
2148.31
2127.54
2107.31
2088.13
2070.18
2053.32
2038.15
2022.91
2008.12
1993.57
1979.74
1966.68
1954.02
1942.33
1930.95
1920.34
1910.27
1900.68
1891.86
1883.4
1875.59
1868.12
1861.07
1854.47
1848.1
1842.12
1836.32
1830.77
1825.51
1820.44
1815.62
1810.98
1806.55
1802.27
1798.21
1794.32
1790.64
1787.14
1783.76
1780.48
1777.37
1774.4
1771.62
1769.07
1766.68
1764.46
1762.32
1760.13
1758.05
1756
1754.04
1752.21
1750.44
1748.83
1747.23
1745.7
1744.2
1742.74
1741.31
1740
1738.74
1737.7
1736.88
1736.39
1736.58
2556.92
2211.53
2001.96
1895.17
1875.03
1959.57
2066
2207.59
2362.07
2500.66
2657.95
2832.73
3015.68
3190.73
3349.11
3479.04
3581.14
3649.43
3688.66
3695.97
3676.08
3627.51
3558.52
3478.21
3403.1
3341.25
3288.28
3239.99
3195
3154.34
3117.12
3084.23
3051.98
3021.59
2992.92
2966.01
2941.28
2917.57
2895.98
2875.48
2856.56
2839.13
2822.74
2807.84
2793.74
2781.08
2769.22
2758.16
2748.07
2738.33
2729.51
2721.05
2713.19
2705.9
2698.9
2692.56
2686.43
2680.83
2675.54
2670.57
2665.97
2661.53
2657.4
2653.51
2649.87
2646.41
2643.15
2640.01
2637.04
2634.2
2631.51
2628.94
2626.43
2623.99
2621.62
2619.33
2617.21
2615.24
2613.49
2611.88
2610.45
2609.04
2607.58
2606.22
2604.85
2603.59
2602.45
2601.39
2600.46
2599.54
2598.67
2597.82
2596.97
2596.21
2595.5
2594.97
2594.59
2594.63
2595.01
2596.5
2508.44
2665.03
3511.52
4424.86
5100.72
5523.01
5790.51
5944.14
6009.29
6037.07
6164.95
6318.4
6450.29
6536.83
6572.28
6559.34
6508.65
6428.3
6330.61
6222.62
6112.25
6005.78
5906.52
5813.94
5726.85
5644.19
5567.18
5496.81
5432.37
5374.62
5321.14
5273.94
5229.83
5191.42
5155.72
5124.22
5095.98
5070.09
5047.46
5026.23
5007.51
4990.3
4974.5
4960.5
4947.09
4935.01
4923.42
4912.68
4902.71
4893.1
4884.41
4876.01
4868.31
4861.05
4854.17
4847.93
4841.9
4836.5
4831.36
4826.58
4822.15
4817.97
4814.15
4810.55
4807.29
4804.17
4801.28
4798.53
4795.95
4793.51
4791.24
4789.07
4786.96
4784.99
4783.07
4781.25
4779.6
4778.12
4776.9
4775.84
4774.87
4773.91
4772.98
4772.11
4771.23
4770.49
4769.9
4769.43
4769.09
4768.78
4768.5
4768.26
4768.02
4767.96
4767.87
4768.27
4768.51
4769.73
4771.06
4774.01
6770.36
9484.96
11871.7
13280
13857.4
13918.8
13700.3
13354.2
12989.3
12654.2
12355.8
12108.5
11918.5
11784.5
11699.8
11655.4
11638.3
11641.1
11650.9
11666.5
11679.3
11691.4
11700.2
11707
11713.3
11718.2
11723.7
11728.3
11732.7
11737.3
11740.1
11744
11744.8
11746.5
11745.9
11745.3
11744
11741.6
11739.8
11736.8
11734.4
11731.4
11728.6
11726
11723.2
11721.3
11718.9
11717.2
11715.4
11713.7
11712.5
11710.9
11709.9
11708.7
11707.7
11707
11706.2
11705.9
11705.6
11705.7
11705.8
11706.2
11706.9
11707.7
11708.7
11709.8
11711.2
11712.6
11714.1
11715.8
11717.6
11719.5
11721.5
11723.7
11726.1
11728.6
11731.4
11734.2
11737.3
11740.2
11743.2
11746.2
11749.2
11752.4
11755.6
11759
11762.4
11765.9
11769.5
11773
11776.8
11780.5
11784.4
11788.4
11792.6
11796.8
11800.8
11804.8
11807.5
11808.4
10967.6
6804.65
4860.19
3905.6
3331.43
2957.01
2687.34
2483.68
2318.98
2182.14
2065.59
1963.78
1873.3
1792.06
1717.84
1649.19
1585.55
1525.35
1467.62
1412.44
1359.48
1308.1
1258.25
1210.93
1166.37
1124.72
1085.59
1048.2
1013.08
979.96
946.783
913.616
881.155
848.335
815.798
785.567
755.738
725.08
695.981
667.941
637.702
607.922
583.068
561.954
545.025
535.799
530.393
520.739
507.848
501.411
506.897
518.112
523.493
517.522
504.308
490.093
477.435
466.449
456.345
446.19
435.817
425.793
416.883
409.509
403.492
398.167
392.757
386.226
377.465
365.415
349.615
330.316
308.581
285.811
263.228
241.569
221.194
202.241
184.814
168.668
153.856
140.959
130.653
123.147
118.194
115.289
113.908
113.545
113.723
114.007
114.104
113.872
113.316
112.509
111.618
110.762
110.087
109.545
109.246
108.938
2672.44
5034.93
4715.37
3977.67
3405.54
3001.01
2705.41
2481.8
2302.38
2156.23
2034.11
1929.01
1837.65
1757.51
1685.46
1619.65
1558.94
1501.84
1447.41
1395.56
1345.73
1297.25
1249.85
1204.07
1160.48
1119.12
1079.58
1040.93
1004.03
969.045
933.776
898.58
865.131
831.477
798.13
767.508
737.643
706.998
678.105
650.434
620.354
591.499
569.539
552.683
540.302
535.649
533.319
523.271
507.133
496.337
497.666
506.023
510.455
505.105
493.002
479.776
467.777
457.01
446.768
436.336
425.73
415.619
406.658
399.212
393.158
387.869
382.563
376.264
367.882
356.36
341.151
322.38
300.912
278.087
255.211
233.184
212.5
193.43
175.934
159.946
145.93
134.502
125.926
119.976
116.173
114.011
113.051
112.91
113.214
113.603
113.795
113.649
113.167
112.428
111.588
110.761
110.099
109.555
109.255
108.934
2112.18
2658.06
3532.17
3585.81
3282.67
2949.71
2671.97
2448.39
2265.35
2114.86
1989.45
1882.59
1791
1712.01
1641.94
1578.65
1520.51
1466.43
1415.42
1367.12
1320.68
1275.46
1231.11
1187.35
1145.05
1104.58
1065.24
1025.91
987.734
951.453
914.736
877.971
843.563
809.117
775.069
744.206
714.613
684.484
656.358
629.78
601.116
575.224
559.011
549.563
544.079
545.096
546.176
534.842
513.09
495.273
490.404
494.616
497.326
492.127
480.874
468.448
456.964
446.308
435.878
425.266
414.654
404.727
395.972
388.621
382.591
377.339
372.104
365.968
357.878
346.795
332.1
313.792
292.55
269.612
246.355
223.869
202.855
183.654
166.295
151.141
138.723
129.246
122.444
117.829
114.896
113.24
112.531
112.495
112.84
113.275
113.534
113.47
113.072
112.423
111.668
110.89
110.244
109.677
109.363
109.002
1705.96
1593.54
1954.04
2431.18
2649.68
2616.06
2475.54
2313.61
2162.19
2028.63
1913.37
1814.06
1727.82
1653.19
1587
1527.26
1472.47
1421.7
1374.04
1329.14
1285.99
1243.89
1202.62
1161.31
1120.49
1081.27
1042.72
1003.4
964.71
927.486
889.609
851.17
815.313
780.311
746.054
715.423
686.674
657.613
631.457
607.589
582.94
563.754
557.504
559.241
562.46
568.42
571.799
558.464
529.13
501.298
487.457
485.478
485.105
479.204
468.356
456.474
445.341
434.71
424.106
413.498
403.252
393.93
385.767
378.794
372.932
367.756
362.554
356.456
348.462
337.582
323.157
305.074
283.856
260.632
236.832
213.774
192.398
173.207
156.604
143.095
132.779
125.295
120.036
116.456
114.129
112.786
112.203
112.194
112.526
112.969
113.283
113.316
113.03
112.492
111.836
111.119
110.499
109.904
109.574
109.157
1296.18
1257.97
1276.51
1399.05
1613.06
1801.22
1897.36
1909.93
1872.66
1812.43
1745
1679.2
1616.66
1559.49
1506.52
1456.64
1410.01
1365.48
1322.67
1281.97
1242.45
1203.52
1165.36
1126.82
1087.78
1049.84
1012.17
973.16
934.157
895.812
856.743
816.799
779.374
743.972
710.223
680.963
654.23
628.444
607.35
589.709
573.789
566.531
574.157
588.746
599.169
606.04
608.501
593.112
556.435
516.914
491.499
480.845
475.51
467.654
456.498
444.769
433.76
423.087
412.425
402.14
392.781
384.651
377.612
371.425
365.982
360.989
355.806
349.597
341.42
330.375
315.809
297.535
275.956
252.132
227.543
203.751
182.027
163.296
148.133
136.667
128.405
122.605
118.529
115.678
113.735
112.553
111.996
111.951
112.232
112.657
113.015
113.16
113.018
112.603
112.039
111.367
110.787
110.18
109.856
109.383
1032.53
1033.25
1026.04
1024.31
1047.62
1098.22
1163.82
1232.69
1290.42
1331.78
1355.44
1366.53
1366.45
1359.01
1345.76
1326.05
1302.62
1275.53
1245.37
1214.25
1181.87
1148.4
1114.86
1080.08
1043.54
1007.11
970.178
931.326
891.761
851.92
811.311
770.108
731.407
696.772
666.152
641.378
621.858
606.253
595.949
589.916
588.149
595.931
616.339
639.184
650.783
653.107
651.183
634.282
593.306
543.418
505.305
483.636
470.943
459.329
446.728
434.512
423.281
412.522
402.076
392.65
384.918
378.811
373.641
368.827
364.193
359.593
354.48
348.037
339.378
327.73
312.501
293.499
271.079
246.277
220.652
196.036
174.117
156.101
142.373
132.559
125.779
121.112
117.798
115.393
113.656
112.516
111.902
111.758
111.942
112.31
112.676
112.898
112.886
112.596
112.139
111.529
111.017
110.418
110.124
109.608
874.053
875.488
872.673
861.796
848.853
838.857
830.597
827.452
830.241
841.566
860.357
886.96
919.875
954.536
991.06
1024.57
1051.93
1069.94
1076.84
1075
1064.88
1047.8
1026.38
1000.52
970.239
937.847
902.9
864.961
825.391
783.838
742.425
703.374
668.81
643.16
626.954
618.066
615.335
615.993
619.094
625.806
637.13
655.325
680.55
702.314
708.256
702.641
694.818
677.171
636.361
580.596
531.22
497.323
474.875
457.295
441.663
427.99
416.063
405.269
395.602
387.929
382.846
379.825
377.479
374.773
371.449
367.555
362.656
355.946
346.575
333.922
317.518
297.273
273.617
247.665
221.024
195.603
173.182
155.023
141.431
131.895
125.43
121.052
117.963
115.691
113.98
112.766
112.006
111.677
111.68
111.902
112.187
112.4
112.459
112.287
111.969
111.468
111.047
110.485
110.224
109.698
755.284
756.706
755.721
748.207
735.361
719.383
700.297
679.983
658.914
638.688
620.159
603.93
594.589
590.064
593.203
609.352
634.502
666.42
703.395
740.048
771.972
797.651
812.527
816.464
810.151
795.492
772.915
744.47
713.055
680.44
650.074
631.532
625.791
630.926
640.725
652.214
664.31
674.358
683.367
695.324
711.865
732.842
754.948
767.254
762.352
747.784
733.867
716.121
679.917
624.929
568.915
524.195
491.383
466.321
446.25
430.105
416.971
406.269
398.076
393.16
391.744
392.744
393.972
393.894
392.185
389.203
384.652
377.743
367.622
353.829
336.003
314.26
289.236
262.318
235.13
209.243
185.708
165.656
149.787
138.085
129.867
124.257
120.363
117.573
115.466
113.891
112.753
112.048
111.688
111.604
111.656
111.744
111.774
111.676
111.472
111.106
110.773
110.3
110.074
109.617
646.768
646.332
644.166
637.043
624.909
608.545
588.712
567.033
544.856
523.543
504.573
488.253
475.878
467.909
463.447
462.974
465.361
469.996
478.613
489.549
503.818
520.692
540.746
560.966
579.17
589.364
593.823
596.904
601.257
610.287
625.938
649.509
677.558
703.037
722.458
738.095
750.973
760.716
769.843
781.75
797.13
813.303
822.718
816.867
797.847
775.551
758.235
743.745
717.472
670.771
614.744
563.705
522.57
490.356
465.41
446.241
431.591
421.117
414.928
413.521
416.475
421.863
426.602
428.819
428.324
425.992
421.648
414.574
403.778
388.991
369.834
346.648
320.188
292.428
265.303
240.38
217.184
195.906
177.082
161.403
148.847
139.289
132.035
126.631
122.413
119.176
116.586
114.711
113.325
112.489
111.917
111.645
111.4
111.263
111.022
110.817
110.532
110.303
110.107
109.93
458.569
462.268
464.635
464.654
461.842
457.71
453.559
451.379
452.6
458.202
468.21
482.149
498.938
517.033
534.219
549.22
562.143
572.933
580.98
587.41
592.307
595.884
599.117
603.887
610.893
620.692
633.551
650.842
674.179
702.182
732.124
762.312
790.149
812.023
827.307
838.135
845.847
851.969
858.646
866.53
873.349
873.067
858.389
830.782
799.381
772.831
757.208
750.966
740.365
710.403
662.417
611.433
566.201
529.322
500.634
478.833
462.918
453.019
449.314
451.882
459.111
468.005
474.699
477.532
476.937
474.392
469.719
462.46
451.225
435.87
415.81
391.79
364.352
336.24
309.404
286.649
267.198
250.326
234.225
219.349
204.667
191.184
177.991
166.168
154.926
145.54
137.12
130.788
125.377
121.887
118.892
117.391
115.826
115.463
114.674
115.069
114.712
115.665
115.468
116.767
485.338
489.745
494.976
502.077
512.271
525.83
542.843
562.754
584.029
605.774
626.875
645.673
661.503
674.139
683.449
690.217
695.394
698.979
701.423
703.486
705.249
707.182
710.637
716.011
724.112
735.573
750.96
770.908
795.017
821.743
849.682
877.341
901.421
918.508
928.002
931.548
931.787
930.873
929.471
925.359
912.783
886.214
847.827
807.429
773.51
750.421
740.638
742.447
745.462
734.506
701.945
657.424
613.255
575.466
545.366
522.504
506.584
498.302
497.882
504.568
515.084
525.21
530.758
531.428
528.745
524.723
519.056
511.711
500.954
486.55
467.035
443.858
417.347
391.146
366.13
346.147
330.462
319.989
310.411
302.809
293.548
284.971
273.189
261.408
246.082
232.033
216.031
203.63
190.602
182.366
173.602
169.859
165.066
165.394
164.075
167.781
168.373
173.939
174.441
180.709
672.692
671.987
672.803
676.321
683.113
692.54
704.019
716.564
729.406
742.105
754.13
764.954
774.663
782.922
789.612
795.241
800.294
804.109
807.289
810.299
813.115
816.345
821.053
827.836
837.359
850.229
866.753
886.738
909.677
935.082
961.949
987.215
1005.34
1013.13
1012.19
1005.49
995.731
983.645
967.044
941.365
903.551
857.312
812.027
775.146
748.893
733.166
728.682
734.383
743.449
743.983
725.911
691.404
652.202
616.693
587.789
566.294
552.655
548.026
552.458
563.709
576.403
585.021
586.217
582.094
575.494
568.723
561.495
553.716
543.423
529.921
511.583
490.468
467.595
446.409
426.942
411.253
397.975
389.36
382.815
379.224
375.508
373.4
369.578
366.146
359.747
353.847
345.447
339.193
331.6
327.495
322.421
321.551
319.528
322.182
323.142
328.694
330.776
337.574
338.623
345.796
777.582
776.442
776.8
779.633
785.399
793.686
804.293
816.581
830.107
843.974
857.43
869.982
881.604
891.715
900.207
907.653
914.02
919.305
924.038
928.27
932.109
936.131
941
947.375
956.079
967.638
982.281
1000.43
1022.69
1048.42
1074.15
1093.19
1099.04
1091.71
1075.57
1054.73
1030.75
1002
965.788
921.11
871.335
823.712
784.941
757.729
740.618
731.522
730.265
736.328
745.708
749.855
739.706
714.186
681.383
650.352
625.468
608.441
600.187
602.213
613.9
630.471
644.068
648.537
642.956
632.136
620.225
609.4
599.212
588.871
576.67
561.894
544.423
526.276
509.025
494.287
482.081
472.602
465.115
459.577
455.579
453.608
452.974
453.602
454.519
455.563
455.896
456.063
455.274
454.74
453.589
453.454
452.664
453.382
453.27
455.545
456.793
460.59
462.117
466.579
467.042
471.818
893.558
892.623
893.236
896.636
903.325
913.144
925.785
940.723
957.088
974.539
991.722
1008.37
1024.02
1037.73
1049.37
1059.35
1067.28
1073.36
1078.03
1081.04
1082.7
1083.64
1084.54
1086.46
1090.54
1097.54
1108.27
1124.09
1145.4
1169.05
1187.38
1190.98
1177.19
1150.93
1117.63
1081.41
1042.38
998.425
949.379
897.981
849.159
808.679
780.237
763.372
754.439
750.394
750.525
754.635
760.723
763.296
755.517
735.579
709.012
684.458
666.993
658.309
659.393
671.948
693.491
715.36
727.463
724.789
710.415
691.403
672.719
656.241
641.192
626.376
610.882
594.821
579.317
565.764
555.045
547.066
541.6
538.206
536.666
536.654
538.032
540.36
543.046
545.535
547.318
548.63
549.098
549.26
548.525
547.846
546.33
545.609
544.17
544.345
543.874
546.08
547.127
550.792
552.053
556.244
556.402
560.995
1050.33
1050.16
1051.9
1057.2
1066.86
1080.84
1098.81
1119.99
1143.45
1168.14
1192.44
1215.73
1236.7
1254.05
1267.55
1277.42
1283.24
1285.45
1284.57
1280.25
1273.24
1264.94
1256.52
1249.58
1245.84
1246.63
1253.24
1266.61
1284.72
1300.11
1301.87
1282.93
1247.67
1203.57
1155.41
1106
1055.03
1001.78
948.062
897.675
855.235
824.674
807.174
799.941
797.928
797.522
797.679
798.405
799.102
796.948
787.746
770.409
749.908
734.459
728.729
733.219
748.569
776.071
809.109
834.147
840.496
827.26
802.362
774.079
747.477
724.28
703.764
684.772
667.115
651.857
640.285
632.771
628.769
627.22
627.527
629.28
632.27
636.249
640.838
645.676
650.121
653.903
656.441
658.038
658.29
658.051
656.733
655.592
653.602
652.608
651.085
651.538
651.545
654.29
655.352
659.239
660.086
664.21
663.86
668.597
1300.73
1301.79
1305.39
1313.9
1328.58
1349.55
1376.21
1407.22
1441.11
1475.38
1508.15
1537.34
1560.71
1576.73
1585.47
1587.29
1582.36
1571.69
1556.22
1536.18
1513.4
1490.63
1469.46
1451.91
1440.27
1436.02
1439.53
1449.4
1459.66
1458.92
1437
1394.08
1339.07
1279.5
1219.13
1159.09
1099.58
1041.61
987.975
942.21
908.079
888.104
881.209
882.726
886.682
889.012
888.434
885.09
879.405
870.786
857.722
841.436
828.403
826.572
838.828
863.189
899.331
946.255
989.858
1012.49
1006.75
979.494
942.616
904.558
869.973
840.406
815.364
793.859
776.391
764.563
758.847
758.265
760.875
765.181
770.274
775.847
781.637
787.602
793.282
798.469
802.588
805.629
807.24
807.904
807.461
806.708
805.284
804.172
802.622
802.123
801.372
802.501
803.152
806.146
807.016
811.018
811.165
815.592
814.417
820.021
1737.91
1740.65
1746.92
1760.51
1783.35
1815.43
1854.86
1899.13
1944.57
1986.95
2023.51
2050.12
2064.37
2065.6
2055.18
2034.6
2005.58
1970.25
1930.29
1887.19
1844.4
1805.41
1771.28
1744.25
1726.84
1719.24
1719.05
1721.25
1716.25
1691.47
1641.77
1575.05
1501.11
1426.84
1355.22
1286.22
1220.75
1161.03
1109.8
1070.15
1044.78
1035.15
1038.52
1048.43
1058.09
1062.99
1061.69
1054.45
1042.41
1026.68
1008.56
993.901
993.525
1014.6
1055.52
1110.23
1176.15
1245.1
1292.82
1302.38
1276.6
1232.11
1182.2
1134.55
1093.12
1059.08
1031.61
1009.97
995.631
989.935
991.807
998.663
1007.61
1017.08
1026.02
1034.18
1041.34
1047.67
1052.92
1057.12
1059.94
1061.63
1062.12
1061.95
1061.15
1060.34
1059.32
1058.76
1058.12
1058.47
1058.7
1060.53
1061.66
1064.74
1065.51
1069.66
1069
1074.33
1071.79
1079.42