/*--------------------------------*- C++ -*----------------------------------*\
| =========                 |                                                 |
| \\      /  F ield         | OpenFOAM: The Open Source CFD Toolbox           |
|  \\    /   O peration     | Version:  v2012                                 |
|   \\  /    A nd           | Website:  www.openfoam.com                      |
|    \\/     M anipulation  |                                                 |
\*---------------------------------------------------------------------------*/
FoamFile
{
    version     2.0;
    format      ascii;
    class       volVectorField;
    location    "0.107";
    object      U.air;
}
// * * * * * * * * * * * * * * * * * * * * * * * * * * * * * * * * * * * * * //

dimensions      [0 1 -1 0 0 0 0];


internalField   nonuniform List<vector> 
5600
(
(9.20613 0.00896207 0)
(8.83522 0.017251 0)
(8.45617 0.0174857 0)
(8.07885 0.0144928 0)
(7.73095 0.00998007 0)
(7.42075 0.00527196 0)
(7.15458 0.00085464 0)
(6.93591 -0.00266865 0)
(6.75337 -0.00525127 0)
(6.6059 -0.00717305 0)
(6.4884 -0.00847257 0)
(6.39676 -0.00921707 0)
(6.32489 -0.00951461 0)
(6.26923 -0.00946915 0)
(6.22479 -0.00919144 0)
(6.18965 -0.00879376 0)
(6.16032 -0.00833849 0)
(6.13622 -0.00788317 0)
(6.11513 -0.00747797 0)
(6.0973 -0.00722322 0)
(6.0816 -0.00699061 0)
(6.06825 -0.00681219 0)
(6.05694 -0.00671026 0)
(6.04769 -0.00662234 0)
(6.0401 -0.00651497 0)
(6.03385 -0.00638628 0)
(6.02867 -0.0062615 0)
(6.02431 -0.00614227 0)
(6.02073 -0.00602012 0)
(6.01752 -0.00588472 0)
(6.01423 -0.00574804 0)
(6.01102 -0.00561336 0)
(6.00785 -0.00552359 0)
(6.00443 -0.00544428 0)
(6.00129 -0.00538372 0)
(5.99788 -0.0053285 0)
(5.99494 -0.00527599 0)
(5.99155 -0.0052333 0)
(5.98892 -0.00518811 0)
(5.98557 -0.00515009 0)
(5.98341 -0.00510726 0)
(5.98015 -0.00506706 0)
(5.97853 -0.005017 0)
(5.97519 -0.00498245 0)
(5.97429 -0.00493577 0)
(5.97076 -0.00492815 0)
(5.97055 -0.00491487 0)
(5.96717 -0.00493071 0)
(5.9675 -0.00491041 0)
(5.96444 -0.00494 0)
(5.96497 -0.0048821 0)
(5.96228 -0.00491954 0)
(5.96218 -0.00487944 0)
(5.96079 -0.00481295 0)
(5.95829 -0.00484952 0)
(5.95895 -0.00471268 0)
(5.95384 -0.0048014 0)
(5.95578 -0.00466488 0)
(5.9503 -0.00481453 0)
(5.95192 -0.00482168 0)
(5.9489 -0.00481561 0)
(5.94739 -0.00509325 0)
(5.94981 -0.00491131 0)
(5.94372 -0.00522087 0)
(5.95031 -0.00509258 0)
(5.9428 -0.00524991 0)
(5.94948 -0.00520431 0)
(5.94414 -0.00524018 0)
(5.94742 -0.00532802 0)
(5.94747 -0.00512991 0)
(5.94393 -0.00541397 0)
(5.95089 -0.00516088 0)
(5.94251 -0.00533696 0)
(5.95136 -0.00517679 0)
(5.94358 -0.00528556 0)
(5.94902 -0.00529368 0)
(5.94808 -0.00500159 0)
(5.94215 -0.0055549 0)
(5.95527 -0.00493333 0)
(5.93697 -0.00540232 0)
(5.95718 -0.00510514 0)
(5.93774 -0.00522449 0)
(5.95285 -0.00530809 0)
(5.94455 -0.00482391 0)
(5.94128 -0.00574777 0)
(5.95707 -0.00472023 0)
(5.93152 -0.00535599 0)
(5.95889 -0.0050931 0)
(5.93278 -0.00497849 0)
(5.9514 -0.00539813 0)
(5.94186 -0.00455953 0)
(5.93556 -0.00570478 0)
(5.95291 -0.00481519 0)
(5.92933 -0.00466434 0)
(5.9447 -0.00557478 0)
(5.9401 -0.00405312 0)
(5.91635 -0.00716632 0)
(5.97468 -0.00332219 0)
(5.8731 -0.00618112 0)
(5.97493 -0.00983193 0)
(9.39288 0.0365643 0)
(9.38796 0.0381889 0)
(9.35655 0.0375709 0)
(9.29944 0.037614 0)
(9.22386 0.0368805 0)
(9.13562 0.0351056 0)
(9.03684 0.0325831 0)
(8.9311 0.0296895 0)
(8.82326 0.0267989 0)
(8.71593 0.0238924 0)
(8.61151 0.0210203 0)
(8.51245 0.0184242 0)
(8.41912 0.0161248 0)
(8.3332 0.0141346 0)
(8.25409 0.012445 0)
(8.18291 0.011046 0)
(8.11821 0.00989054 0)
(8.06098 0.00894535 0)
(8.00935 0.00813118 0)
(7.96458 0.00738221 0)
(7.92471 0.00673349 0)
(7.89087 0.00615843 0)
(7.86047 0.0056873 0)
(7.83345 0.00526913 0)
(7.8091 0.00488282 0)
(7.78743 0.0045275 0)
(7.76782 0.00421568 0)
(7.7496 0.00394218 0)
(7.73268 0.00369909 0)
(7.71681 0.00350752 0)
(7.7022 0.00335155 0)
(7.68833 0.0032042 0)
(7.6759 0.00309623 0)
(7.66385 0.00301945 0)
(7.65343 0.00294111 0)
(7.64299 0.00286511 0)
(7.63419 0.00279702 0)
(7.62505 0.00272472 0)
(7.61756 0.00266131 0)
(7.60954 0.00258549 0)
(7.60318 0.00251233 0)
(7.59614 0.00243366 0)
(7.59097 0.00235992 0)
(7.5848 0.00227079 0)
(7.58067 0.00220671 0)
(7.575 0.00213532 0)
(7.5716 0.0020865 0)
(7.56626 0.00203456 0)
(7.56345 0.00199818 0)
(7.55882 0.00194684 0)
(7.55623 0.00194288 0)
(7.55295 0.00190335 0)
(7.54971 0.00190044 0)
(7.54804 0.00190743 0)
(7.54333 0.00188268 0)
(7.54304 0.00193362 0)
(7.53747 0.00188028 0)
(7.53719 0.00190178 0)
(7.53324 0.00185204 0)
(7.53144 0.00189322 0)
(7.53079 0.00191206 0)
(7.52669 0.00190137 0)
(7.5286 0.00198446 0)
(7.52435 0.00198001 0)
(7.527 0.00200796 0)
(7.52394 0.00201761 0)
(7.52541 0.00201666 0)
(7.52502 0.00202933 0)
(7.52372 0.0019943 0)
(7.52652 0.002071 0)
(7.52325 0.00200375 0)
(7.52726 0.00202908 0)
(7.52357 0.00202447 0)
(7.5268 0.00203715 0)
(7.52517 0.00200857 0)
(7.52434 0.00200456 0)
(7.52829 0.00209874 0)
(7.52196 0.00194958 0)
(7.5295 0.00204311 0)
(7.52134 0.00202409 0)
(7.52827 0.00200944 0)
(7.5232 0.00204766 0)
(7.52399 0.00195641 0)
(7.52784 0.00215231 0)
(7.51943 0.00181367 0)
(7.52907 0.00208174 0)
(7.51826 0.00204381 0)
(7.52672 0.00197456 0)
(7.52004 0.0020643 0)
(7.52008 0.00183561 0)
(7.52464 0.00223523 0)
(7.51537 0.00177329 0)
(7.52214 0.00204041 0)
(7.51483 0.00213423 0)
(7.51655 0.00170244 0)
(7.51769 0.00261845 0)
(7.50914 0.00131 0)
(7.51369 0.00288042 0)
(7.51805 0.00288912 0)
(7.46849 -0.00548871 0)
(9.40085 0.0229774 0)
(9.42974 0.0304832 0)
(9.46069 0.0319627 0)
(9.47752 0.0330083 0)
(9.48908 0.0320166 0)
(9.48978 0.0301505 0)
(9.48381 0.027191 0)
(9.46897 0.0241441 0)
(9.44572 0.0213402 0)
(9.41436 0.0186684 0)
(9.37566 0.0161998 0)
(9.33021 0.0139062 0)
(9.27895 0.0119642 0)
(9.22318 0.0102928 0)
(9.16428 0.00882024 0)
(9.10382 0.0075186 0)
(9.04279 0.00633674 0)
(8.98299 0.00525614 0)
(8.92493 0.00424586 0)
(8.87016 0.00328544 0)
(8.81858 0.00241387 0)
(8.77098 0.00159241 0)
(8.72721 0.000909872 0)
(8.68749 0.000332013 0)
(8.65109 -0.000152382 0)
(8.61811 -0.000545487 0)
(8.58789 -0.000816962 0)
(8.55999 -0.00100759 0)
(8.53429 -0.00115919 0)
(8.51055 -0.00127783 0)
(8.48901 -0.00136849 0)
(8.46889 -0.00146867 0)
(8.45099 -0.00155427 0)
(8.43377 -0.00163135 0)
(8.41885 -0.00170635 0)
(8.40398 -0.00177623 0)
(8.39144 -0.0018323 0)
(8.37864 -0.00188572 0)
(8.36797 -0.00192248 0)
(8.35679 -0.00196902 0)
(8.3478 -0.00200083 0)
(8.33805 -0.00203327 0)
(8.33066 -0.00204543 0)
(8.32222 -0.00205816 0)
(8.31605 -0.00204171 0)
(8.30831 -0.00206237 0)
(8.30301 -0.00206568 0)
(8.29581 -0.00211575 0)
(8.29115 -0.00212571 0)
(8.28496 -0.00217471 0)
(8.28052 -0.00217662 0)
(8.2763 -0.00218799 0)
(8.27107 -0.00218596 0)
(8.26909 -0.00214349 0)
(8.26285 -0.00217086 0)
(8.26212 -0.0020827 0)
(8.2559 -0.00213958 0)
(8.25462 -0.00209646 0)
(8.25109 -0.00215373 0)
(8.2472 -0.00226333 0)
(8.24765 -0.00223159 0)
(8.24239 -0.00246394 0)
(8.24442 -0.00245314 0)
(8.23996 -0.002681 0)
(8.24189 -0.00264903 0)
(8.23964 -0.00277165 0)
(8.23975 -0.00278695 0)
(8.24083 -0.00279674 0)
(8.23812 -0.00287165 0)
(8.24161 -0.00281789 0)
(8.23809 -0.00292775 0)
(8.24201 -0.00279612 0)
(8.2389 -0.00290989 0)
(8.24107 -0.00279279 0)
(8.24121 -0.00281632 0)
(8.2381 -0.00289798 0)
(8.24382 -0.00271047 0)
(8.23686 -0.00294618 0)
(8.2439 -0.00265408 0)
(8.23716 -0.00288664 0)
(8.24168 -0.00272523 0)
(8.24005 -0.00272684 0)
(8.23668 -0.00291302 0)
(8.24371 -0.00255784 0)
(8.2344 -0.00295236 0)
(8.24277 -0.0025146 0)
(8.2345 -0.00277894 0)
(8.23905 -0.0026714 0)
(8.2377 -0.00243987 0)
(8.23212 -0.00294202 0)
(8.23974 -0.00224612 0)
(8.23104 -0.00269772 0)
(8.23534 -0.00253435 0)
(8.2314 -0.00222957 0)
(8.23094 -0.00290984 0)
(8.23166 -0.00157934 0)
(8.22936 -0.0032033 0)
(8.22122 -0.0019086 0)
(8.24291 -0.000932738 0)
(8.19493 -0.00854181 0)
(9.3996 0.0218064 0)
(9.43084 0.0295993 0)
(9.46788 0.0303102 0)
(9.49941 0.0313241 0)
(9.52916 0.0312121 0)
(9.55561 0.0300578 0)
(9.58009 0.0284813 0)
(9.59923 0.0269607 0)
(9.61519 0.0255045 0)
(9.62559 0.0241809 0)
(9.63332 0.0227074 0)
(9.63467 0.0216984 0)
(9.63265 0.0205989 0)
(9.62644 0.0196104 0)
(9.61586 0.0186999 0)
(9.60084 0.0178371 0)
(9.58139 0.0169718 0)
(9.55748 0.0160817 0)
(9.52932 0.0151426 0)
(9.49714 0.014128 0)
(9.46139 0.0130735 0)
(9.42262 0.0120304 0)
(9.38211 0.0110484 0)
(9.341 0.0101125 0)
(9.30002 0.00922941 0)
(9.26016 0.00840425 0)
(9.22205 0.00768486 0)
(9.18639 0.00705647 0)
(9.15318 0.00648982 0)
(9.12246 0.00598371 0)
(9.09423 0.0055518 0)
(9.06797 0.00515521 0)
(9.04407 0.00481532 0)
(9.02072 0.00450009 0)
(9.00008 0.00422325 0)
(8.97941 0.00395758 0)
(8.96167 0.00371883 0)
(8.94366 0.00350149 0)
(8.92848 0.00330762 0)
(8.91275 0.00311388 0)
(8.89983 0.00292726 0)
(8.88621 0.00274681 0)
(8.87534 0.00257302 0)
(8.86334 0.00242399 0)
(8.85432 0.00230992 0)
(8.84372 0.00218741 0)
(8.83609 0.00207475 0)
(8.82655 0.00194178 0)
(8.81979 0.00181019 0)
(8.81167 0.00167316 0)
(8.80515 0.00150176 0)
(8.79958 0.00142927 0)
(8.79224 0.00127738 0)
(8.78927 0.00130086 0)
(8.78148 0.00118385 0)
(8.7798 0.00124999 0)
(8.77279 0.00117686 0)
(8.7703 0.001038 0)
(8.76668 0.00102965 0)
(8.76122 0.000707894 0)
(8.76183 0.00071123 0)
(8.75601 0.000510024 0)
(8.75788 0.00047779 0)
(8.75327 0.000356335 0)
(8.75478 0.000258695 0)
(8.75288 0.000248745 0)
(8.75234 9.88454e-05 0)
(8.75386 0.000166171 0)
(8.75085 6.99348e-05 0)
(8.75436 6.82249e-05 0)
(8.75082 3.01887e-05 0)
(8.75466 4.65989e-05 0)
(8.75193 7.74828e-05 0)
(8.75343 4.55063e-05 0)
(8.75458 0.000184297 0)
(8.75051 -2.92006e-06 0)
(8.75669 0.000180846 0)
(8.74971 7.53106e-05 0)
(8.75649 0.000151955 0)
(8.75042 0.000218998 0)
(8.75394 4.31272e-05 0)
(8.75371 0.000404815 0)
(8.74905 -7.52227e-05 0)
(8.75633 0.000376328 0)
(8.74759 0.000111117 0)
(8.75505 0.000288022 0)
(8.7483 0.000420501 0)
(8.7509 6.17263e-05 0)
(8.75196 0.000765578 0)
(8.74541 -5.56651e-05 0)
(8.75203 0.000600807 0)
(8.74546 0.000408536 0)
(8.74803 0.000312565 0)
(8.7462 0.000940691 0)
(8.74498 -3.44662e-05 0)
(8.74534 0.00106442 0)
(8.74545 0.000193402 0)
(8.73773 0.000254659 0)
(8.75356 0.0030612 0)
(8.73604 -0.00671421 0)
(9.39777 0.0183357 0)
(9.42811 0.0258213 0)
(9.46497 0.0260947 0)
(9.49884 0.0271399 0)
(9.53109 0.0271813 0)
(9.56229 0.0262978 0)
(9.59297 0.024873 0)
(9.62049 0.0232907 0)
(9.64608 0.0217619 0)
(9.66884 0.0202736 0)
(9.69 0.0189351 0)
(9.70842 0.0177049 0)
(9.72528 0.0166306 0)
(9.73972 0.0157989 0)
(9.7528 0.0151281 0)
(9.76352 0.0146123 0)
(9.77288 0.0141685 0)
(9.7796 0.0138048 0)
(9.78471 0.0134389 0)
(9.78665 0.0130469 0)
(9.78586 0.0127744 0)
(9.78227 0.0123542 0)
(9.77546 0.0118889 0)
(9.76525 0.0113859 0)
(9.75165 0.0108391 0)
(9.7347 0.0102334 0)
(9.7148 0.00961147 0)
(9.69251 0.008958 0)
(9.66842 0.00830909 0)
(9.64299 0.00761891 0)
(9.61686 0.00699882 0)
(9.59017 0.006363 0)
(9.56427 0.00581971 0)
(9.53815 0.00528531 0)
(9.51398 0.00481503 0)
(9.48951 0.00433161 0)
(9.46762 0.00389978 0)
(9.44531 0.00347664 0)
(9.42595 0.00311571 0)
(9.40595 0.00273454 0)
(9.38905 0.00239221 0)
(9.37123 0.00207526 0)
(9.356 0.00179598 0)
(9.3395 0.00149681 0)
(9.32632 0.00128001 0)
(9.31166 0.00104864 0)
(9.30038 0.000903231 0)
(9.2876 0.00072257 0)
(9.27744 0.000555374 0)
(9.26681 0.000406815 0)
(9.25665 0.000144496 0)
(9.24897 0.000107902 0)
(9.2384 -0.000127399 0)
(9.23328 -0.000118032 0)
(9.22325 -0.000281341 0)
(9.21914 -0.000241479 0)
(9.21113 -0.000323306 0)
(9.20588 -0.000550803 0)
(9.20225 -0.000473868 0)
(9.19458 -0.000754881 0)
(9.19512 -0.000787704 0)
(9.18888 -0.000880028 0)
(9.19012 -0.000989684 0)
(9.18617 -0.00113615 0)
(9.1864 -0.00127248 0)
(9.18583 -0.0012836 0)
(9.18387 -0.00146193 0)
(9.18595 -0.00140586 0)
(9.18287 -0.00148668 0)
(9.18616 -0.00151747 0)
(9.1832 -0.00156476 0)
(9.18608 -0.00153084 0)
(9.18461 -0.00150077 0)
(9.18447 -0.00159646 0)
(9.18727 -0.00134737 0)
(9.1826 -0.00157751 0)
(9.18829 -0.00144095 0)
(9.1826 -0.00149041 0)
(9.18736 -0.00140767 0)
(9.1841 -0.00137527 0)
(9.18445 -0.00157763 0)
(9.18713 -0.00117706 0)
(9.18158 -0.00158157 0)
(9.18766 -0.00134129 0)
(9.18152 -0.00139789 0)
(9.18558 -0.00132744 0)
(9.18344 -0.00117265 0)
(9.18142 -0.00155937 0)
(9.186 -0.00101972 0)
(9.18007 -0.00146379 0)
(9.18368 -0.00122266 0)
(9.18224 -0.0010779 0)
(9.18019 -0.00134013 0)
(9.18268 -0.00109542 0)
(9.1808 -0.00143472 0)
(9.1809 -0.000898503 0)
(9.18442 -0.00108355 0)
(9.17611 -0.00151866 0)
(9.18959 0.000247716 0)
(9.18271 -0.00568741 0)
(9.39592 0.0145866 0)
(9.42522 0.0219354 0)
(9.46142 0.0220252 0)
(9.49592 0.0229265 0)
(9.52813 0.023012 0)
(9.56007 0.0222584 0)
(9.59151 0.0210432 0)
(9.62063 0.0197376 0)
(9.648 0.0185259 0)
(9.67335 0.017423 0)
(9.69754 0.016398 0)
(9.71986 0.0155787 0)
(9.74126 0.0148795 0)
(9.76118 0.0143369 0)
(9.78043 0.0139163 0)
(9.7985 0.0135843 0)
(9.81616 0.0133104 0)
(9.83267 0.0130702 0)
(9.84877 0.0128433 0)
(9.86373 0.012651 0)
(9.87808 0.012392 0)
(9.89111 0.0121201 0)
(9.90338 0.011873 0)
(9.91403 0.0116593 0)
(9.92376 0.0114559 0)
(9.93156 0.0112524 0)
(9.93811 0.0110498 0)
(9.94229 0.0108442 0)
(9.94506 0.0105801 0)
(9.9449 0.0103905 0)
(9.94293 0.0101276 0)
(9.93879 0.00979451 0)
(9.93251 0.00948673 0)
(9.92435 0.00911333 0)
(9.91436 0.00872611 0)
(9.90281 0.0082964 0)
(9.88983 0.00785619 0)
(9.8757 0.00741418 0)
(9.8607 0.00697012 0)
(9.84502 0.00653778 0)
(9.82916 0.00607045 0)
(9.81272 0.00565097 0)
(9.79703 0.00529388 0)
(9.78045 0.00491243 0)
(9.7654 0.00457813 0)
(9.74939 0.00423379 0)
(9.73548 0.00391891 0)
(9.72136 0.00366272 0)
(9.708 0.00332538 0)
(9.69627 0.00318208 0)
(9.68268 0.00278583 0)
(9.67303 0.00270565 0)
(9.65973 0.00241547 0)
(9.65119 0.0022977 0)
(9.6392 0.00217112 0)
(9.6305 0.00199659 0)
(9.62182 0.00204207 0)
(9.61151 0.00159713 0)
(9.60801 0.00170057 0)
(9.59847 0.00115553 0)
(9.59773 0.000940627 0)
(9.59202 0.000601693 0)
(9.59133 0.000152382 0)
(9.58974 3.29758e-05 0)
(9.58726 -0.000390789 0)
(9.58852 -0.000315775 0)
(9.5858 -0.000642185 0)
(9.58795 -0.000608171 0)
(9.58559 -0.000710747 0)
(9.58774 -0.000849451 0)
(9.58647 -0.000791104 0)
(9.58723 -0.000907687 0)
(9.58833 -0.000666948 0)
(9.58604 -0.000947097 0)
(9.58962 -0.000568932 0)
(9.58605 -0.00080534 0)
(9.58928 -0.000760516 0)
(9.58743 -0.000596786 0)
(9.58716 -0.00081143 0)
(9.5899 -0.000402768 0)
(9.58572 -0.000886861 0)
(9.59028 -0.000238053 0)
(9.58607 -0.000737654 0)
(9.58906 -0.000574519 0)
(9.58885 -0.00034268 0)
(9.58557 -0.000681735 0)
(9.59124 -5.76726e-05 0)
(9.58483 -0.000743285 0)
(9.59085 7.50692e-05 0)
(9.58764 -0.000365307 0)
(9.58603 -0.000472327 0)
(9.59271 8.63344e-05 0)
(9.58648 -0.000354363 0)
(9.59222 9.98356e-05 0)
(9.58994 -0.000377356 0)
(9.59 4.67093e-05 0)
(9.59642 7.38158e-05 0)
(9.58827 -0.000823527 0)
(9.59936 0.000684081 0)
(9.5962 -0.00373304 0)
(9.395 0.0113283 0)
(9.42268 0.0175863 0)
(9.4581 0.017507 0)
(9.49302 0.0182263 0)
(9.52498 0.0183632 0)
(9.55693 0.017737 0)
(9.58833 0.0167459 0)
(9.61773 0.0157 0)
(9.6453 0.0147288 0)
(9.67116 0.0138425 0)
(9.69582 0.0130061 0)
(9.71892 0.012333 0)
(9.74112 0.0117218 0)
(9.7622 0.0112265 0)
(9.78268 0.0108359 0)
(9.80242 0.0105257 0)
(9.82185 0.0102753 0)
(9.84066 0.0100703 0)
(9.85927 0.00988443 0)
(9.87729 0.00971903 0)
(9.8951 0.00956112 0)
(9.91234 0.00939189 0)
(9.9293 0.00924793 0)
(9.94568 0.00912577 0)
(9.9618 0.0090147 0)
(9.97739 0.00889886 0)
(9.99254 0.0088011 0)
(10.0073 0.00869809 0)
(10.0212 0.00863311 0)
(10.0351 0.00854443 0)
(10.0475 0.00845662 0)
(10.06 0.00834397 0)
(10.0706 0.00827093 0)
(10.0814 0.00816077 0)
(10.0898 0.00805919 0)
(10.0986 0.00791823 0)
(10.1044 0.00778769 0)
(10.1109 0.00761779 0)
(10.1137 0.00748044 0)
(10.1174 0.00722638 0)
(10.1174 0.00708294 0)
(10.1174 0.00686625 0)
(10.1152 0.00664116 0)
(10.113 0.00638855 0)
(10.1081 0.00611765 0)
(10.1037 0.00584481 0)
(10.0963 0.00548901 0)
(10.0904 0.00523213 0)
(10.0817 0.00481107 0)
(10.0747 0.00462125 0)
(10.0655 0.00419918 0)
(10.0567 0.00402253 0)
(10.0473 0.00373894 0)
(10.0362 0.00345272 0)
(10.0278 0.00332338 0)
(10.0147 0.00293117 0)
(10.0085 0.00283787 0)
(9.99673 0.00206948 0)
(9.99221 0.0018673 0)
(9.98581 0.00117958 0)
(9.97995 0.000445239 0)
(9.97978 0.000216279 0)
(9.97432 -0.000286163 0)
(9.97646 -0.000297607 0)
(9.97242 -0.000642176 0)
(9.97465 -0.000751675 0)
(9.97296 -0.000902116 0)
(9.97331 -0.000992998 0)
(9.97443 -0.000987462 0)
(9.97253 -0.00117933 0)
(9.97526 -0.00111294 0)
(9.97248 -0.00124829 0)
(9.97617 -0.00105721 0)
(9.97366 -0.00119009 0)
(9.97537 -0.00104808 0)
(9.9766 -0.000972381 0)
(9.97205 -0.00117708 0)
(9.97859 -0.000845045 0)
(9.97068 -0.00109754 0)
(9.97885 -0.000949216 0)
(9.97254 -0.00109085 0)
(9.9772 -0.000956377 0)
(9.97796 -0.000931035 0)
(9.97242 -0.00118903 0)
(9.98175 -0.000677796 0)
(9.97172 -0.000992655 0)
(9.9827 -0.000813301 0)
(9.97472 -0.001002 0)
(9.98021 -0.000992884 0)
(9.98328 -0.000576578 0)
(9.97581 -0.00115359 0)
(9.98644 -0.000929843 0)
(9.97987 -0.000859415 0)
(9.98677 -0.00100777 0)
(9.98438 -0.000924807 0)
(9.98522 -0.00114167 0)
(9.98991 -0.000712925 0)
(9.98572 -0.00127374 0)
(9.99088 -0.000739003 0)
(9.9913 -0.00365211 0)
(9.39444 0.00798856 0)
(9.42062 0.0126868 0)
(9.45547 0.0125425 0)
(9.49057 0.013065 0)
(9.5224 0.0132115 0)
(9.55424 0.0127478 0)
(9.58559 0.0120299 0)
(9.61503 0.0112641 0)
(9.64256 0.0105411 0)
(9.66852 0.00987524 0)
(9.69316 0.00924668 0)
(9.71643 0.00874015 0)
(9.7387 0.0082857 0)
(9.76001 0.00792869 0)
(9.78067 0.00766046 0)
(9.80075 0.00745849 0)
(9.82044 0.00730567 0)
(9.83974 0.0071878 0)
(9.85875 0.00707812 0)
(9.87741 0.00698417 0)
(9.89584 0.00689556 0)
(9.91394 0.0067811 0)
(9.93178 0.00667717 0)
(9.94935 0.00658918 0)
(9.96672 0.00650516 0)
(9.98389 0.00642478 0)
(10.0008 0.00634897 0)
(10.0177 0.00629216 0)
(10.0342 0.00623665 0)
(10.0507 0.00620323 0)
(10.0668 0.00615945 0)
(10.083 0.00610127 0)
(10.0986 0.00606718 0)
(10.1144 0.00603142 0)
(10.1294 0.00598974 0)
(10.1446 0.00594238 0)
(10.159 0.00588774 0)
(10.1736 0.00584807 0)
(10.187 0.00580421 0)
(10.201 0.00575968 0)
(10.2132 0.0057308 0)
(10.2265 0.00564866 0)
(10.2372 0.00558424 0)
(10.2495 0.00552073 0)
(10.2583 0.0054611 0)
(10.2696 0.00539649 0)
(10.2765 0.00530128 0)
(10.286 0.00520738 0)
(10.2915 0.00505428 0)
(10.298 0.00495726 0)
(10.3037 0.00482683 0)
(10.3059 0.0047829 0)
(10.3118 0.00478021 0)
(10.3109 0.00472391 0)
(10.314 0.00474284 0)
(10.3113 0.00444336 0)
(10.3123 0.00433623 0)
(10.3102 0.00363457 0)
(10.3078 0.00298119 0)
(10.3091 0.00256297 0)
(10.3044 0.00152171 0)
(10.3079 0.00118638 0)
(10.3033 0.000509414 0)
(10.3071 0.000139333 0)
(10.3045 -0.000269542 0)
(10.3062 -0.000554558 0)
(10.3071 -0.000656332 0)
(10.3047 -0.000934279 0)
(10.3093 -0.000917064 0)
(10.3048 -0.00111065 0)
(10.3107 -0.00106931 0)
(10.3058 -0.00114696 0)
(10.3101 -0.00105405 0)
(10.3087 -0.000990804 0)
(10.3068 -0.00111216 0)
(10.3132 -0.000783739 0)
(10.305 -0.00106527 0)
(10.3146 -0.00080725 0)
(10.3056 -0.000941731 0)
(10.3141 -0.000867833 0)
(10.3088 -0.00080983 0)
(10.3099 -0.000996136 0)
(10.3144 -0.000587413 0)
(10.3062 -0.00105629 0)
(10.3163 -0.000687004 0)
(10.3075 -0.000854341 0)
(10.316 -0.00074983 0)
(10.3116 -0.000654308 0)
(10.312 -0.00102341 0)
(10.3162 -0.000357538 0)
(10.3124 -0.000845047 0)
(10.316 -0.000795221 0)
(10.3139 -0.000651088 0)
(10.3163 -0.00077126 0)
(10.3157 -0.000552465 0)
(10.3152 -0.000885227 0)
(10.3177 -0.000464372 0)
(10.3175 -0.000836212 0)
(10.3167 -0.000514741 0)
(10.3187 -0.00312325 0)
(9.39406 0.00454675 0)
(9.41913 0.00728632 0)
(9.45366 0.0071246 0)
(9.48882 0.00743301 0)
(9.52055 0.00752938 0)
(9.5523 0.00723823 0)
(9.58361 0.00680973 0)
(9.61306 0.00633714 0)
(9.64057 0.00588165 0)
(9.66656 0.00547218 0)
(9.69118 0.00509113 0)
(9.71448 0.00478528 0)
(9.73675 0.00451151 0)
(9.75809 0.00429624 0)
(9.77876 0.00413207 0)
(9.79889 0.0040063 0)
(9.81859 0.00390769 0)
(9.83795 0.00383068 0)
(9.85701 0.00375786 0)
(9.87578 0.00369984 0)
(9.89429 0.00364375 0)
(9.91252 0.00356406 0)
(9.93049 0.00349192 0)
(9.94827 0.00343579 0)
(9.96586 0.00338472 0)
(9.98329 0.00333835 0)
(10.0005 0.00329052 0)
(10.0177 0.00325811 0)
(10.0347 0.00322816 0)
(10.0516 0.00322184 0)
(10.0684 0.00319855 0)
(10.0851 0.00316293 0)
(10.1017 0.00314434 0)
(10.1182 0.00313433 0)
(10.1345 0.00311508 0)
(10.1509 0.00309549 0)
(10.1669 0.00306398 0)
(10.183 0.00304759 0)
(10.1988 0.00302842 0)
(10.2146 0.00300575 0)
(10.2301 0.00300158 0)
(10.2457 0.00297224 0)
(10.2607 0.00294373 0)
(10.276 0.00294092 0)
(10.2906 0.00292516 0)
(10.3057 0.00292201 0)
(10.3198 0.00290023 0)
(10.3343 0.00287929 0)
(10.3479 0.00286254 0)
(10.3613 0.00279669 0)
(10.3749 0.0028405 0)
(10.387 0.0028403 0)
(10.4008 0.00291302 0)
(10.4119 0.00303288 0)
(10.4258 0.00322314 0)
(10.4362 0.00319262 0)
(10.4482 0.00300706 0)
(10.4583 0.00271287 0)
(10.4655 0.00219041 0)
(10.4754 0.00161366 0)
(10.4784 0.000992244 0)
(10.4853 0.000387464 0)
(10.4861 -2.05353e-05 0)
(10.4899 -0.000424754 0)
(10.4903 -0.000547638 0)
(10.4912 -0.000897556 0)
(10.4922 -0.000870024 0)
(10.4914 -0.00110243 0)
(10.493 -0.00108061 0)
(10.4911 -0.00122465 0)
(10.493 -0.00119666 0)
(10.491 -0.00119823 0)
(10.492 -0.00121026 0)
(10.4917 -0.000990318 0)
(10.4903 -0.00128322 0)
(10.4925 -0.000904625 0)
(10.4902 -0.00108098 0)
(10.4926 -0.000937338 0)
(10.4907 -0.00101245 0)
(10.492 -0.0011086 0)
(10.4915 -0.000840022 0)
(10.4908 -0.00127464 0)
(10.4922 -0.000694025 0)
(10.4905 -0.00105833 0)
(10.4923 -0.000918087 0)
(10.4912 -0.00095866 0)
(10.4915 -0.00110798 0)
(10.4924 -0.000745366 0)
(10.491 -0.00129154 0)
(10.4916 -0.000776593 0)
(10.4923 -0.000959298 0)
(10.491 -0.00109077 0)
(10.4922 -0.000889065 0)
(10.4914 -0.00103527 0)
(10.4922 -0.000775725 0)
(10.4913 -0.00112042 0)
(10.4919 -0.000955003 0)
(10.4928 -0.00103259 0)
(10.4916 -0.00095613 0)
(10.493 -0.00324588 0)
(9.39387 0.000961655 0)
(9.41839 0.00131711 0)
(9.45277 0.00114393 0)
(9.48797 0.00123379 0)
(9.51964 0.00123536 0)
(9.55134 0.00113503 0)
(9.58264 0.00103022 0)
(9.61208 0.000881034 0)
(9.63959 0.000724875 0)
(9.66559 0.000603331 0)
(9.6902 0.000490969 0)
(9.71352 0.000402425 0)
(9.73577 0.000318691 0)
(9.75713 0.000251769 0)
(9.7778 0.000201012 0)
(9.79794 0.00016769 0)
(9.81764 0.000144816 0)
(9.83701 0.000133538 0)
(9.85606 0.000121649 0)
(9.87485 0.000123922 0)
(9.89336 0.000126522 0)
(9.91159 0.000104824 0)
(9.92958 8.11412e-05 0)
(9.94737 6.42665e-05 0)
(9.965 5.0707e-05 0)
(9.98245 3.66802e-05 0)
(9.99974 1.65857e-05 0)
(10.0169 -1.4427e-06 0)
(10.034 -1.11914e-05 0)
(10.051 -3.29022e-06 0)
(10.0679 -1.04996e-05 0)
(10.0847 -2.59228e-05 0)
(10.1013 -3.01823e-05 0)
(10.118 -2.56071e-05 0)
(10.1345 -2.72126e-05 0)
(10.151 -2.61126e-05 0)
(10.1673 -3.64076e-05 0)
(10.1835 -3.14177e-05 0)
(10.1997 -3.72789e-05 0)
(10.2158 -3.30781e-05 0)
(10.2317 -1.85027e-05 0)
(10.2477 -1.29856e-05 0)
(10.2634 -2.44014e-05 0)
(10.2791 -4.57809e-06 0)
(10.2947 -8.41903e-06 0)
(10.3102 1.08757e-05 0)
(10.3257 1.37707e-05 0)
(10.341 2.06644e-05 0)
(10.3561 5.68057e-05 0)
(10.3709 4.18468e-06 0)
(10.3857 9.47961e-05 0)
(10.4003 7.98179e-05 0)
(10.4149 0.000154058 0)
(10.4297 0.000207125 0)
(10.4449 0.000295729 0)
(10.4602 0.000294189 0)
(10.4754 0.000235464 0)
(10.4898 0.000288903 0)
(10.5023 -4.05531e-05 0)
(10.5133 -1.73891e-05 0)
(10.5216 -0.00031 0)
(10.5284 -0.000358622 0)
(10.5328 -0.000449931 0)
(10.5361 -0.000616401 0)
(10.5378 -0.000652679 0)
(10.5387 -0.000883645 0)
(10.539 -0.000775491 0)
(10.5389 -0.000978305 0)
(10.5386 -0.000946393 0)
(10.5377 -0.00106386 0)
(10.5369 -0.00108274 0)
(10.536 -0.00103519 0)
(10.5352 -0.00114334 0)
(10.5349 -0.000852163 0)
(10.5342 -0.00114072 0)
(10.5341 -0.000869718 0)
(10.5338 -0.00101876 0)
(10.5336 -0.000940183 0)
(10.5337 -0.000912462 0)
(10.5332 -0.00107889 0)
(10.5336 -0.000727732 0)
(10.5332 -0.00109473 0)
(10.5335 -0.000695905 0)
(10.5334 -0.00099922 0)
(10.5333 -0.000911658 0)
(10.5336 -0.00078785 0)
(10.5331 -0.00102852 0)
(10.5337 -0.000668349 0)
(10.5332 -0.00100337 0)
(10.5335 -0.00069991 0)
(10.5336 -0.000808212 0)
(10.5334 -0.000914158 0)
(10.5337 -0.00072525 0)
(10.5334 -0.000866638 0)
(10.5339 -0.000637626 0)
(10.5335 -0.000912492 0)
(10.5339 -0.000820968 0)
(10.5336 -0.000813603 0)
(10.5343 -0.000880466 0)
(10.5346 -0.00301631 0)
(9.39391 -0.0027465 0)
(9.41859 -0.00496398 0)
(9.45306 -0.00513832 0)
(9.48829 -0.00526943 0)
(9.51996 -0.00538161 0)
(9.55167 -0.00527969 0)
(9.58298 -0.00503953 0)
(9.61241 -0.00485133 0)
(9.63992 -0.00469218 0)
(9.66593 -0.00450952 0)
(9.69054 -0.00434275 0)
(9.71386 -0.00420176 0)
(9.73611 -0.00408684 0)
(9.75747 -0.00399711 0)
(9.77815 -0.00392527 0)
(9.79828 -0.00385897 0)
(9.81799 -0.00380198 0)
(9.83736 -0.00374562 0)
(9.85641 -0.00370179 0)
(9.87521 -0.00364381 0)
(9.89371 -0.00358709 0)
(9.91194 -0.00355947 0)
(9.92993 -0.00354327 0)
(9.94773 -0.00352874 0)
(9.96536 -0.00350742 0)
(9.9828 -0.00348898 0)
(10.0001 -0.00347766 0)
(10.0173 -0.00347735 0)
(10.0344 -0.00346409 0)
(10.0513 -0.00343753 0)
(10.0682 -0.0034203 0)
(10.085 -0.0034114 0)
(10.1017 -0.00339903 0)
(10.1183 -0.00338205 0)
(10.1349 -0.00336824 0)
(10.1513 -0.00334941 0)
(10.1676 -0.00333888 0)
(10.1839 -0.00331613 0)
(10.2 -0.00331115 0)
(10.2161 -0.00329156 0)
(10.232 -0.00326552 0)
(10.2479 -0.00324526 0)
(10.2637 -0.00323705 0)
(10.2793 -0.00320876 0)
(10.2948 -0.00319627 0)
(10.3103 -0.00316829 0)
(10.3257 -0.00314227 0)
(10.341 -0.00309939 0)
(10.356 -0.00302699 0)
(10.3708 -0.00302582 0)
(10.3854 -0.00293468 0)
(10.3999 -0.00293426 0)
(10.4144 -0.00287528 0)
(10.4291 -0.00285466 0)
(10.444 -0.00283113 0)
(10.4594 -0.00283229 0)
(10.4742 -0.00280627 0)
(10.4883 -0.00255154 0)
(10.5007 -0.00247923 0)
(10.5113 -0.00213935 0)
(10.5197 -0.0019632 0)
(10.5261 -0.00173935 0)
(10.5306 -0.00146093 0)
(10.5337 -0.001322 0)
(10.5356 -0.00106561 0)
(10.5364 -0.00106667 0)
(10.5367 -0.000908526 0)
(10.5366 -0.000959337 0)
(10.5363 -0.000843392 0)
(10.5355 -0.000848117 0)
(10.5346 -0.000872936 0)
(10.5339 -0.000819237 0)
(10.5328 -0.000946423 0)
(10.5327 -0.00078655 0)
(10.5318 -0.00102608 0)
(10.5319 -0.000861209 0)
(10.5314 -0.000947721 0)
(10.5314 -0.000947607 0)
(10.5313 -0.000903039 0)
(10.5309 -0.0010329 0)
(10.5313 -0.000797251 0)
(10.5308 -0.00106158 0)
(10.5312 -0.000796094 0)
(10.5308 -0.000970931 0)
(10.5312 -0.000938686 0)
(10.5309 -0.000877255 0)
(10.531 -0.00102878 0)
(10.5311 -0.000775185 0)
(10.5309 -0.00102927 0)
(10.5312 -0.000851985 0)
(10.5309 -0.00085856 0)
(10.5314 -0.000969046 0)
(10.5308 -0.00086141 0)
(10.5314 -0.000923195 0)
(10.5311 -0.000788617 0)
(10.5314 -0.000995464 0)
(10.5314 -0.000926926 0)
(10.531 -0.000923954 0)
(10.5319 -0.00112401 0)
(10.5312 -0.00313692 0)
(9.39419 -0.00640479 0)
(9.41974 -0.0109657 0)
(9.45454 -0.0111163 0)
(9.48975 -0.0114679 0)
(9.52148 -0.0116781 0)
(9.55327 -0.0113831 0)
(9.58461 -0.0108152 0)
(9.61401 -0.0103137 0)
(9.64154 -0.00985719 0)
(9.66755 -0.00938275 0)
(9.69217 -0.00894926 0)
(9.71548 -0.00858556 0)
(9.73773 -0.00827862 0)
(9.75909 -0.00803856 0)
(9.77976 -0.00785107 0)
(9.79989 -0.00769283 0)
(9.81961 -0.00756239 0)
(9.83898 -0.0074391 0)
(9.85803 -0.00734081 0)
(9.87682 -0.00722501 0)
(9.89531 -0.00711222 0)
(9.91354 -0.00703423 0)
(9.93151 -0.00697651 0)
(9.9493 -0.00692962 0)
(9.96688 -0.0068755 0)
(9.98429 -0.00683062 0)
(10.0015 -0.0067957 0)
(10.0187 -0.0067828 0)
(10.0357 -0.00675221 0)
(10.0526 -0.0067111 0)
(10.0693 -0.0066731 0)
(10.086 -0.00664662 0)
(10.1025 -0.00661935 0)
(10.119 -0.00658684 0)
(10.1353 -0.00655253 0)
(10.1515 -0.00651051 0)
(10.1675 -0.00647473 0)
(10.1834 -0.00643018 0)
(10.1991 -0.00640322 0)
(10.2148 -0.00635659 0)
(10.2302 -0.0063044 0)
(10.2454 -0.00625494 0)
(10.2604 -0.00621435 0)
(10.2751 -0.00616801 0)
(10.2897 -0.0061388 0)
(10.304 -0.00609903 0)
(10.3181 -0.00604681 0)
(10.3317 -0.00596732 0)
(10.345 -0.00585884 0)
(10.3578 -0.00580302 0)
(10.3701 -0.00569162 0)
(10.382 -0.00567862 0)
(10.3937 -0.0056573 0)
(10.4051 -0.00568791 0)
(10.4165 -0.00569286 0)
(10.4269 -0.00564723 0)
(10.4369 -0.00544015 0)
(10.4452 -0.00498515 0)
(10.453 -0.00451093 0)
(10.4587 -0.00387373 0)
(10.4636 -0.00324544 0)
(10.4673 -0.00264658 0)
(10.4697 -0.00208293 0)
(10.4722 -0.00162039 0)
(10.4731 -0.00128514 0)
(10.4744 -0.0011325 0)
(10.4747 -0.000927923 0)
(10.4749 -0.000912793 0)
(10.4751 -0.000784949 0)
(10.4747 -0.000755686 0)
(10.4749 -0.000780391 0)
(10.4743 -0.00076233 0)
(10.4743 -0.00086589 0)
(10.4742 -0.000777342 0)
(10.4738 -0.00095559 0)
(10.4741 -0.000868085 0)
(10.4735 -0.000916818 0)
(10.474 -0.000933199 0)
(10.4733 -0.000908432 0)
(10.4739 -0.000994385 0)
(10.4734 -0.000870529 0)
(10.4737 -0.0010241 0)
(10.4736 -0.000850058 0)
(10.4733 -0.000944238 0)
(10.474 -0.00097369 0)
(10.4731 -0.000874518 0)
(10.4743 -0.000975496 0)
(10.4728 -0.000831596 0)
(10.4745 -0.000990833 0)
(10.473 -0.000875416 0)
(10.4743 -0.000891306 0)
(10.4737 -0.000912232 0)
(10.4733 -0.0008821 0)
(10.4747 -0.000906042 0)
(10.4728 -0.000788655 0)
(10.4752 -0.000939911 0)
(10.4728 -0.000897659 0)
(10.4751 -0.000959686 0)
(10.474 -0.00114248 0)
(10.4736 -0.00304355 0)
(9.39466 -0.00995992 0)
(9.42161 -0.0164557 0)
(9.45695 -0.0165728 0)
(9.49208 -0.0171219 0)
(9.52392 -0.0173725 0)
(9.5558 -0.0168879 0)
(9.58723 -0.0160131 0)
(9.61658 -0.0152319 0)
(9.64414 -0.0145123 0)
(9.67012 -0.0137804 0)
(9.69478 -0.013109 0)
(9.71804 -0.0125469 0)
(9.74031 -0.0120643 0)
(9.76161 -0.0116824 0)
(9.78229 -0.0113847 0)
(9.80236 -0.0111448 0)
(9.82207 -0.010955 0)
(9.84135 -0.0107756 0)
(9.86035 -0.010633 0)
(9.879 -0.0104677 0)
(9.89739 -0.0103074 0)
(9.91543 -0.0101826 0)
(9.93321 -0.0100829 0)
(9.95078 -0.00999121 0)
(9.96802 -0.00989469 0)
(9.98517 -0.00981027 0)
(10.0019 -0.00974251 0)
(10.0187 -0.00970314 0)
(10.0351 -0.00964141 0)
(10.0514 -0.00957563 0)
(10.0673 -0.00951213 0)
(10.0832 -0.00946345 0)
(10.0986 -0.00941334 0)
(10.1138 -0.00935929 0)
(10.1286 -0.00929782 0)
(10.1431 -0.00923663 0)
(10.1571 -0.00917289 0)
(10.1707 -0.00912701 0)
(10.1837 -0.00907222 0)
(10.1961 -0.00899028 0)
(10.2079 -0.00889528 0)
(10.2189 -0.00879298 0)
(10.2292 -0.0086926 0)
(10.2386 -0.00858654 0)