/*--------------------------------*- C++ -*----------------------------------*\
| =========                 |                                                 |
| \\      /  F ield         | OpenFOAM: The Open Source CFD Toolbox           |
|  \\    /   O peration     | Version:  v2012                                 |
|   \\  /    A nd           | Website:  www.openfoam.com                      |
|    \\/     M anipulation  |                                                 |
\*---------------------------------------------------------------------------*/
FoamFile
{
    version     2.0;
    format      ascii;
    class       scalarField;
    location    "0.14/lagrangian/kinematicCloud";
    object      age;
}
// * * * * * * * * * * * * * * * * * * * * * * * * * * * * * * * * * * * * * //


54
(
0.1392
0.1382
0.1371
0.136
0.135
0.134
0.133
0.132
0.1309
0.1298
0.129725
0.1287
0.1276
0.1265
0.1254
0.1243
0.1232
0.1221
0.121
0.120925
0.1199
0.1188
0.1177
0.1166
0.116525
0.1155
0.1144
0.114325
0.1133
0.113225
0.1122
0.1111
0.11
0.1089
0.108825
0.1079
0.1069
0.1059
0.1049
0.1039
0.1029
0.1019
0.1009
0.0999
0.0989
0.0979
0.0969
0.0959
0.0949
0.0939
0.0929
0.0919
0.0909
0.0899
)


// ************************************************************************* //
