/*--------------------------------*- C++ -*----------------------------------*\
| =========                 |                                                 |
| \\      /  F ield         | OpenFOAM: The Open Source CFD Toolbox           |
|  \\    /   O peration     | Version:  v2012                                 |
|   \\  /    A nd           | Website:  www.openfoam.com                      |
|    \\/     M anipulation  |                                                 |
\*---------------------------------------------------------------------------*/
FoamFile
{
    version     2.0;
    format      ascii;
    class       surfaceScalarField;
    location    "0.096";
    object      phi.air;
}
// * * * * * * * * * * * * * * * * * * * * * * * * * * * * * * * * * * * * * //

dimensions      [0 3 -1 0 0 0 0];
oriented        oriented;


internalField   nonuniform List<scalar> 
10964
(
0.000657106
2.51273e-05
0.000628901
2.73638e-05
0.000601318
2.67392e-05
0.000575026
2.54463e-05
0.00055112
2.30581e-05
0.000530162
2.01078e-05
0.000512502
1.68083e-05
0.000497899
1.37508e-05
0.000485909
1.11364e-05
0.000476267
8.78741e-06
0.00046866
6.75241e-06
0.000462712
5.09317e-06
0.000458073
3.78295e-06
0.000454433
2.7841e-06
0.00045154
2.0373e-06
0.000449196
1.48797e-06
0.000447253
1.08673e-06
0.00044561
7.87527e-07
0.000444195
5.59355e-07
0.000442977
3.61793e-07
0.00044192
2.01152e-07
0.00044102
4.36678e-08
0.000440274
-1.1022e-07
0.00043966
-2.41403e-07
0.000439156
-3.51527e-07
0.000438745
-4.456e-07
0.000438409
-5.19625e-07
0.000438123
-5.69481e-07
0.000437869
-6.01696e-07
0.000437627
-6.13326e-07
0.000437386
-6.15284e-07
0.000437143
-6.12941e-07
0.000436903
-6.1469e-07
0.000436666
-6.1861e-07
0.000436433
-6.23362e-07
0.000436207
-6.28933e-07
0.000435985
-6.34277e-07
0.000435763
-6.33368e-07
0.000435542
-6.34408e-07
0.000435326
-6.39169e-07
0.000435122
-6.51896e-07
0.000434931
-6.64171e-07
0.000434753
-6.77822e-07
0.000434594
-6.96404e-07
0.000434445
-7.06437e-07
0.000434302
-7.13049e-07
0.000434148
-7.01328e-07
0.000433985
-6.92601e-07
0.000433805
-6.74926e-07
0.000433627
-6.78046e-07
0.000433452
-6.80503e-07
0.000433304
-7.07099e-07
0.000433182
-7.33441e-07
0.000433085
-7.59513e-07
0.000433001
-7.71417e-07
0.000432953
-8.07489e-07
0.000432908
-8.10781e-07
0.000432899
-8.45689e-07
0.000432891
-8.48276e-07
0.000432891
-8.55477e-07
0.000432921
-8.85453e-07
0.000432904
-8.38213e-07
0.000432948
-8.99506e-07
0.000432936
-8.43439e-07
0.000432971
-8.91054e-07
0.000432968
-8.5203e-07
0.00043296
-8.48179e-07
0.000433022
-9.17346e-07
0.000432937
-7.71098e-07
0.000433007
-9.25366e-07
0.000432977
-8.24862e-07
0.000432995
-8.74415e-07
0.000432987
-8.47169e-07
0.000432973
-8.4167e-07
0.00043301
-8.9294e-07
0.000432926
-7.71509e-07
0.000433027
-9.56477e-07
0.000432948
-7.76193e-07
0.000432977
-8.84593e-07
0.000432941
-8.19198e-07
0.000432949
-8.64482e-07
0.00043297
-8.75623e-07
0.000432795
-6.80902e-07
0.000433044
-1.10482e-06
0.000432811
-6.22495e-07
0.000432895
-9.40294e-07
0.000432846
-8.04925e-07
0.000432754
-7.64659e-07
0.000432836
-9.36904e-07
0.000432467
-4.87246e-07
0.000432854
-1.24311e-06
0.000432397
-3.97633e-07
0.000432467
-9.26124e-07
0.000432353
-7.40457e-07
0.00043204
-5.43866e-07
0.000432135
-9.4992e-07
0.000431695
-4.16022e-07
0.000430943
-1.0485e-07
0.000431916
-1.82765e-06
4.86591e-06
0.000426193
0.000757085
2.43228e-05
0.000754876
2.95725e-05
0.000751202
3.04136e-05
0.000745928
3.07201e-05
0.000739362
2.96245e-05
0.000731832
2.76373e-05
0.000723576
2.50642e-05
0.000714968
2.23593e-05
0.000706312
1.97917e-05
0.000697782
1.73179e-05
0.000689588
1.49468e-05
0.000681839
1.28414e-05
0.000674621
1.10016e-05
0.000667976
9.42906e-06
0.000661924
8.08886e-06
0.000656453
6.95887e-06
0.000651544
5.99588e-06
0.00064716
5.17134e-06
0.000643277
4.44226e-06
0.000639871
3.76802e-06
0.000636902
3.16985e-06
0.000634312
2.63353e-06
0.000632003
2.1994e-06
0.000629934
1.82758e-06
0.00062808
1.5022e-06
0.000626419
1.21565e-06
0.000624901
9.98555e-07
0.000623487
8.4432e-07
0.000622168
7.17453e-07
0.000620938
6.16446e-07
0.000619792
5.30549e-07
0.000618727
4.51744e-07
0.000617741
3.7192e-07
0.000616826
2.96139e-07
0.000615978
2.24516e-07
0.0006152
1.49098e-07
0.000614484
8.19288e-08
0.000613821
2.9984e-08
0.0006132
-1.40381e-08
0.000612622
-6.07733e-08
0.00061208
-1.10403e-07
0.000611576
-1.6015e-07
0.000611113
-2.14656e-07
0.00061069
-2.73434e-07
0.000610301
-3.16855e-07
0.000609937
-3.49238e-07
0.000609583
-3.47954e-07
0.000609237
-3.4657e-07
0.000608892
-3.29347e-07
0.000608563
-3.49126e-07
0.000608256
-3.73169e-07
0.000607989
-4.40787e-07
0.000607762
-5.0579e-07
0.000607583
-5.80812e-07
0.000607452
-6.4044e-07
0.000607357
-7.12453e-07
0.000607294
-7.48126e-07
0.000607254
-8.05257e-07
0.000607242
-8.36246e-07
0.000607231
-8.44513e-07
0.000607236
-8.9024e-07
0.000607251
-8.53351e-07
0.000607274
-9.22973e-07
0.000607295
-8.64587e-07
0.000607312
-9.08087e-07
0.000607334
-8.73394e-07
0.000607325
-8.39486e-07
0.000607338
-9.30018e-07
0.000607352
-7.84854e-07
0.000607346
-9.19936e-07
0.000607354
-8.32925e-07
0.000607346
-8.66577e-07
0.000607349
-8.49597e-07
0.000607329
-8.22263e-07
0.000607342
-9.05793e-07
0.000607346
-7.75354e-07
0.000607319
-9.29734e-07
0.000607321
-7.77715e-07
0.000607303
-8.66279e-07
0.000607289
-8.05214e-07
0.000607258
-8.33481e-07
0.000607292
-9.10107e-07
0.000607237
-6.25464e-07
0.000607199
-1.06756e-06
0.000607209
-6.31944e-07
0.000607126
-8.57918e-07
0.000607101
-7.79763e-07
0.000606974
-6.37457e-07
0.000607029
-9.92227e-07
0.000606886
-3.43441e-07
0.000606786
-1.14334e-06
0.000606747
-3.58511e-07
0.000606585
-7.6492e-07
0.000606494
-6.49444e-07
0.000606154
-2.03032e-07
0.000606145
-9.41772e-07
0.000605841
-1.11725e-07
0.000605221
5.1555e-07
0.000604735
-1.34228e-06
9.11934e-06
0.000600482
0.000840343
2.13134e-05
0.000842331
2.75836e-05
0.000844302
2.84429e-05
0.000845632
2.93898e-05
0.000846214
2.90432e-05
0.000845985
2.78658e-05
0.000845036
2.60134e-05
0.000843329
2.40666e-05
0.000840904
2.22168e-05
0.000837777
2.0445e-05
0.000834025
1.8698e-05
0.000829712
1.71551e-05
0.00082494
1.57734e-05
0.000819828
1.45405e-05
0.000814507
1.34099e-05
0.000809091
1.23751e-05
0.000803705
1.13825e-05
0.00079845
1.04256e-05
0.000793419
9.4738e-06
0.000788679
8.50807e-06
0.000784256
7.59243e-06
0.00078018
6.70927e-06
0.000776459
5.92055e-06
0.000773066
5.22097e-06
0.000769973
4.59517e-06
0.000767155
4.0337e-06
0.000764568
3.58589e-06
0.000762177
3.23473e-06
0.000759975
2.91984e-06
0.000757954
2.63768e-06
0.0007561
2.38417e-06
0.000754402
2.14931e-06
0.000752839
1.93479e-06
0.000751395
1.74101e-06
0.000750055
1.56443e-06
0.000748824
1.37969e-06
0.000747694
1.21248e-06
0.000746654
1.06938e-06
0.00074569
9.4988e-07
0.000744799
8.30245e-07
0.000743965
7.23703e-07
0.00074319
6.15389e-07
0.000742474
5.00974e-07
0.00074181
3.90579e-07
0.000741188
3.0478e-07
0.000740609
2.29663e-07
0.000740058
2.03813e-07
0.000739532
1.7894e-07
0.000739021
1.82197e-07
0.000738545
1.26747e-07
0.000738107
6.4637e-08
0.000737731
-6.4523e-08
0.00073741
-1.8503e-07
0.000737157
-3.27803e-07
0.000736971
-4.54935e-07
0.000736831
-5.71692e-07
0.000736752
-6.69349e-07
0.00073668
-7.33002e-07
0.00073666
-8.17127e-07
0.000736638
-8.22309e-07
0.000736638
-8.90378e-07
0.000736659
-8.74096e-07
0.000736676
-9.39651e-07
0.000736719
-9.07494e-07
0.000736712
-9.01333e-07
0.000736766
-9.27531e-07
0.00073676
-8.3349e-07
0.000736757
-9.27058e-07
0.000736791
-8.18728e-07
0.000736768
-8.96814e-07
0.000736795
-8.59996e-07
0.000736763
-8.34696e-07
0.000736797
-8.83708e-07
0.000736756
-7.81018e-07
0.000736751
-9.00858e-07
0.000736776
-8.00702e-07
0.000736737
-8.89937e-07
0.000736751
-7.92004e-07
0.000736704
-8.19227e-07
0.000736728
-8.29867e-07
0.000736638
-7.42555e-07
0.000736698
-9.70843e-07
0.000736682
-6.0896e-07
0.000736575
-9.61264e-07
0.000736605
-6.61452e-07
0.000736462
-7.14585e-07
0.000736475
-7.93456e-07
0.000736278
-4.40204e-07
0.00073635
-1.064e-06
0.000736313
-3.06231e-07
0.000736094
-9.24697e-07
0.000736086
-3.50629e-07
0.000735793
-4.72213e-07
0.000735859
-7.15521e-07
0.000735415
2.4172e-07
0.000735345
-8.72277e-07
0.000735178
5.56304e-08
0.000734665
1.02845e-06
0.000733566
-2.43453e-07
1.00637e-05
0.000732622
0.000930295
1.80908e-05
0.000933079
2.48001e-05
0.000936234
2.52882e-05
0.000939314
2.63097e-05
0.000942131
2.62259e-05
0.000944657
2.53402e-05
0.000946785
2.38849e-05
0.000948508
2.23439e-05
0.000949818
2.09068e-05
0.000950712
1.95509e-05
0.000951157
1.82528e-05
0.000951126
1.71865e-05
0.000950718
1.61808e-05
0.000949891
1.53682e-05
0.000948628
1.46722e-05
0.000946927
1.40762e-05
0.000944788
1.35219e-05
0.000942218
1.29952e-05
0.000939239
1.24534e-05
0.000935888
1.1859e-05
0.000932207
1.12727e-05
0.000928292
1.06249e-05
0.000924264
9.94819e-06
0.000920212
9.27266e-06
0.000916222
8.58534e-06
0.000912373
7.88308e-06
0.000908734
7.22427e-06
0.000905334
6.63517e-06
0.00090218
6.07351e-06
0.000899266
5.5517e-06
0.000896581
5.06915e-06
0.000894101
4.62912e-06
0.000891777
4.25928e-06
0.000889598
3.91965e-06
0.000887552
3.61126e-06
0.000885644
3.28756e-06
0.000883869
2.98704e-06
0.000882227
2.71111e-06
0.000880706
2.47092e-06
0.000879308
2.22891e-06
0.000878006
2.02539e-06
0.000876793
1.82819e-06
0.00087566
1.63446e-06
0.000874606
1.44415e-06
0.000873626
1.28519e-06
0.000872719
1.13623e-06
0.000871865
1.05782e-06
0.000871066
9.77913e-07
0.000870306
9.4227e-07
0.000869615
8.18182e-07
0.000868991
6.88299e-07
0.000868459
4.67131e-07
0.000868013
2.61123e-07
0.000867659
2.69229e-08
0.000867406
-2.02064e-07
0.000867206
-3.72244e-07
0.000867107
-5.70437e-07
0.000867004
-6.29768e-07
0.000866974
-7.87102e-07
0.000866941
-7.8964e-07
0.000866943
-8.9185e-07
0.000866965
-8.96748e-07
0.000866983
-9.57117e-07
0.000867041
-9.65398e-07
0.000867021
-8.81646e-07
0.000867095
-1.00154e-06
0.000867093
-8.3147e-07
0.000867094
-9.27667e-07
0.000867122
-8.47116e-07
0.000867101
-8.75637e-07
0.000867138
-8.96702e-07
0.000867087
-7.84514e-07
0.000867144
-9.40318e-07
0.000867094
-7.31389e-07
0.000867087
-8.93682e-07
0.000867097
-8.10868e-07
0.000867069
-8.61427e-07
0.000867084
-8.07337e-07
0.000867026
-7.61091e-07
0.00086709
-8.93331e-07
0.000866951
-6.0444e-07
0.000867026
-1.04487e-06
0.000867012
-5.95545e-07
0.000866924
-8.72914e-07
0.000866972
-7.1018e-07
0.000866841
-5.83302e-07
0.000866939
-8.91667e-07
0.000866722
-2.23023e-07
0.000866771
-1.11313e-06
0.000866729
-2.64233e-07
0.000866538
-7.33624e-07
0.000866594
-4.06058e-07
0.00086628
-1.58431e-07
0.00086646
-8.95454e-07
0.000866194
5.07548e-07
0.000865934
-6.12638e-07
0.00086586
1.29991e-07
0.000865479
1.40913e-06
0.000864437
7.98948e-07
1.07244e-05
0.000863776
0.00102962
1.48965e-05
0.00103284
2.15815e-05
0.0010364
2.17325e-05
0.00104004
2.26639e-05
0.00104357
2.26964e-05
0.00104697
2.19452e-05
0.00105012
2.07326e-05
0.00105301
1.94514e-05
0.00105566
1.82568e-05
0.00105807
1.7148e-05
0.00106022
1.60973e-05
0.00106216
1.52524e-05
0.00106386
1.44732e-05
0.00106537
1.38633e-05
0.00106667
1.33691e-05
0.00106777
1.29776e-05
0.00106865
1.26427e-05
0.0010693
1.23481e-05
0.00106968
1.20686e-05
0.00106975
1.17941e-05
0.00106951
1.15131e-05
0.00106894
1.11956e-05
0.00106801
1.08773e-05
0.00106671
1.05729e-05
0.00106504
1.02546e-05
0.00106302
9.89787e-06
0.00106072
9.52914e-06
0.00105818
9.17073e-06
0.00105548
8.77691e-06
0.00105266
8.37142e-06
0.00104978
7.95218e-06
0.00104689
7.51375e-06
0.00104405
7.09582e-06
0.00104131
6.66651e-06
0.00103866
6.26353e-06
0.00103611
5.82957e-06
0.00103368
5.41689e-06
0.00103139
5.00909e-06
0.00102922
4.63255e-06
0.00102722
4.23621e-06
0.00102533
3.9075e-06
0.00102354
3.62315e-06
0.00102182
3.35457e-06
0.00102019
3.07442e-06
0.00101865
2.82594e-06
0.0010172
2.5826e-06
0.00101583
2.4294e-06
0.00101455
2.25811e-06
0.00101335
2.14082e-06
0.00101228
1.88641e-06
0.00101135
1.62207e-06
0.00101057
1.247e-06
0.00100995
8.82515e-07
0.00100946
5.18479e-07
0.00100912
1.35986e-07
0.00100884
-9.79889e-08
0.00100871
-4.39046e-07
0.00100859
-5.07547e-07
0.00100854
-7.3989e-07
0.00100851
-7.58769e-07
0.00100851
-8.88736e-07
0.00100855
-9.35018e-07
0.00100855
-9.59821e-07
0.00100863
-1.04135e-06
0.0010086
-8.59253e-07
0.00100866
-1.06034e-06
0.00100869
-8.60433e-07
0.00100868
-9.15867e-07
0.00100872
-8.88862e-07
0.00100868
-8.35246e-07
0.00100873
-9.41293e-07
0.00100867
-7.24468e-07
0.0010087
-9.7146e-07
0.00100869
-7.20759e-07
0.00100867
-8.73451e-07
0.00100868
-8.24098e-07
0.00100864
-8.23209e-07
0.00100868
-8.4403e-07
0.0010086
-6.86743e-07
0.00100869
-9.80859e-07
0.00100859
-5.04935e-07
0.00100859
-1.04519e-06
0.00100865
-6.52722e-07
0.00100853
-7.5185e-07
0.00100863
-8.09365e-07
0.00100849
-4.51027e-07
0.00100859
-9.87569e-07
0.00100859
-2.26766e-07
0.00100849
-1.01146e-06
0.00100858
-3.4888e-07
0.00100836
-5.18524e-07
0.00100863
-6.71811e-07
0.00100847
-2.99576e-09
0.00100847
-8.91572e-07
0.00100869
2.85182e-07
0.00100828
-1.98393e-07
0.00100858
-1.68909e-07
0.00100843
1.5517e-06
0.00100743
1.79813e-06
1.07723e-05
0.00100739
0.00113955
1.17866e-05
0.00114322
1.7907e-05
0.00114711
1.78471e-05
0.00115114
1.8632e-05
0.0011551
1.87301e-05
0.00115895
1.80953e-05
0.00116259
1.70991e-05
0.00116599
1.60465e-05
0.00116919
1.50575e-05
0.00117219
1.41483e-05
0.001175
1.32909e-05
0.00117765
1.25988e-05
0.00118015
1.19785e-05
0.00118252
1.14904e-05
0.00118478
1.1109e-05
0.00118694
1.0815e-05
0.00118901
1.05727e-05
0.00119098
1.03758e-05
0.00119286
1.01893e-05
0.00119464
1.00177e-05
0.00119629
9.85782e-06
0.00119782
9.6653e-06
0.00119921
9.49018e-06
0.00120044
9.34035e-06
0.00120151
9.19103e-06
0.00120238
9.02927e-06
0.00120302
8.88295e-06
0.00120344
8.75225e-06
0.0012036
8.6172e-06
0.00120347
8.49782e-06
0.0012031
8.32358e-06
0.00120247
8.14493e-06
0.0012016
7.97152e-06
0.0012005
7.76392e-06
0.0011992
7.56271e-06
0.00119772
7.30819e-06
0.00119608
7.05716e-06
0.0011943
6.79006e-06
0.00119242
6.51175e-06
0.00119049
6.17009e-06
0.00118854
5.85604e-06
0.0011866
5.55699e-06
0.00118469
5.2644e-06
0.0011828
4.96628e-06
0.00118094
4.69367e-06
0.00117908
4.43919e-06
0.00117725
4.25613e-06
0.00117548
4.02932e-06
0.00117382
3.80098e-06
0.00117233
3.37879e-06
0.00117105
2.90094e-06
0.00116999
2.30482e-06
0.00116918
1.69481e-06
0.00116854
1.15913e-06
0.0011681
5.71281e-07
0.00116778
2.22705e-07
0.00116761
-2.64551e-07
0.00116751
-4.13864e-07
0.00116746
-6.86201e-07
0.00116746
-7.57164e-07
0.00116745
-8.80165e-07
0.00116752
-1.00316e-06
0.00116751
-9.49705e-07
0.00116757
-1.10377e-06
0.00116761
-8.93639e-07
0.00116762
-1.07455e-06
0.00116769
-9.26063e-07
0.00116763
-8.57742e-07
0.00116771
-9.76173e-07
0.00116766
-7.85189e-07
0.00116764
-9.20712e-07
0.00116765
-7.30673e-07
0.00116762
-9.46258e-07
0.00116766
-7.58185e-07
0.00116763
-8.45277e-07
0.00116769
-8.78499e-07
0.00116763
-7.667e-07
0.00116769
-8.97621e-07
0.00116765
-6.5077e-07
0.00116766
-9.89522e-07
0.0011677
-5.4284e-07
0.00116757
-9.2385e-07
0.00116776
-8.37513e-07
0.00116754
-5.31868e-07
0.00116755
-8.15055e-07
0.00116754
-4.4967e-07
0.00116748
-9.22583e-07
0.00116771
-4.58333e-07
0.00116752
-8.20786e-07
0.00116787
-7.04164e-07
0.0011677
-3.43828e-07
0.00116784
-8.11965e-07
0.00116802
-1.78263e-07
0.00116793
-8.06399e-07
0.00116863
-4.17831e-07
0.00116821
2.20971e-07
0.00116849
-4.45329e-07
0.0011688
1.24503e-06
0.00116803
2.56615e-06
1.02807e-05
0.00116852
0.0012613
8.72193e-06
0.00126542
1.37848e-05
0.00126966
1.36063e-05
0.00127409
1.42053e-05
0.00127848
1.43375e-05
0.00128274
1.38324e-05
0.00128678
1.30609e-05
0.00129058
1.22443e-05
0.00129417
1.14691e-05
0.00129756
1.07619e-05
0.00130075
1.00979e-05
0.00130379
9.55783e-06
0.00130669
9.08372e-06
0.00130947
8.70314e-06
0.00131217
8.41321e-06
0.00131479
8.18905e-06
0.00131736
8.0082e-06
0.00131986
7.86985e-06
0.00132232
7.73604e-06
0.00132472
7.61612e-06
0.00132707
7.50942e-06
0.00132936
7.37461e-06
0.00133159
7.25649e-06
0.00133377
7.16286e-06
0.00133589
7.0666e-06
0.00133796
6.96615e-06
0.00133995
6.88537e-06
0.00134188
6.82461e-06
0.00134373
6.76908e-06
0.0013455
6.7316e-06
0.00134716
6.65854e-06
0.00134871
6.5921e-06
0.00135015
6.53212e-06
0.00135144
6.48139e-06
0.00135259
6.40854e-06
0.00135358
6.32305e-06
0.00135438
6.2485e-06
0.00135502
6.15673e-06
0.00135545
6.07907e-06
0.00135566
5.96556e-06
0.00135565
5.86311e-06
0.0013555
5.7046e-06
0.00135521
5.55314e-06
0.00135477
5.41193e-06
0.00135416
5.29691e-06
0.00135338
5.22461e-06
0.00135243
5.20786e-06
0.00135127
5.18292e-06
0.00135004
5.03066e-06
0.00134876
4.65638e-06
0.00134761
4.05774e-06
0.0013466
3.31144e-06
0.00134579
2.5032e-06
0.00134523
1.72674e-06
0.00134481
9.83092e-07
0.00134463
4.08581e-07
0.00134447
-1.02424e-07
0.00134446
-4.10618e-07
0.0013444
-6.24786e-07
0.00134446
-8.16446e-07
0.00134448
-8.96567e-07
0.00134455
-1.08073e-06
0.00134464
-1.03694e-06
0.00134465
-1.11348e-06
0.00134481
-1.04918e-06
0.0013447
-9.64439e-07
0.00134484
-1.06862e-06
0.00134482
-8.41599e-07
0.00134484
-9.95397e-07
0.0013449
-8.38748e-07
0.00134485
-8.72213e-07
0.00134499
-8.75556e-07
0.00134487
-8.19256e-07
0.00134505
-9.38123e-07
0.00134496
-7.61601e-07
0.00134498
-8.9623e-07
0.00134496
-7.46213e-07
0.00134495
-8.89624e-07
0.00134507
-7.68004e-07
0.00134493
-8.5565e-07
0.00134527
-8.78286e-07
0.00134497
-6.20164e-07
0.00134514
-1.0113e-06
0.00134514
-5.3086e-07
0.00134513
-8.10284e-07
0.00134535
-6.69152e-07
0.00134519
-7.59607e-07
0.00134571
-9.76081e-07
0.00134533
-4.46576e-07
0.0013457
-1.06672e-06
0.00134581
-4.58256e-07
0.00134587
-8.67992e-07
0.00134626
-5.74152e-07
0.00134601
-5.51714e-07
0.00134663
-1.04369e-06
0.00134652
3.34113e-07
0.00134642
-3.43886e-07
0.00134662
1.04009e-06
0.00134616
3.03365e-06
9.80536e-06
0.00134663
0.00139614
5.65857e-06
0.00140075
9.1813e-06
0.00140539
8.96066e-06
0.00141024
9.35516e-06
0.0014151
9.47544e-06
0.00141982
9.1194e-06
0.00142428
8.59511e-06
0.00142849
8.03392e-06
0.00143247
7.49336e-06
0.00143623
7.00554e-06
0.00143977
6.54963e-06
0.00144316
6.17681e-06
0.00144639
5.85249e-06
0.0014495
5.58876e-06
0.00145252
5.38978e-06
0.00145548
5.23641e-06
0.00145837
5.11548e-06
0.00146121
5.02731e-06
0.00146401
4.94134e-06
0.00146676
4.86607e-06
0.00146947
4.79868e-06
0.00147213
4.70936e-06
0.00147476
4.63017e-06
0.00147735
4.56955e-06
0.00147991
4.50531e-06
0.00148244
4.43623e-06
0.00148495
4.38305e-06
0.00148742
4.34689e-06
0.00148987
4.32227e-06
0.00149229
4.30929e-06
0.00149468
4.26933e-06
0.00149704
4.2334e-06
0.00149937
4.20074e-06
0.00150166
4.19111e-06
0.00150391
4.16415e-06
0.0015061
4.1336e-06
0.00150824
4.10773e-06
0.00151032
4.07285e-06
0.00151236
4.04342e-06
0.0015143
4.01749e-06
0.00151617
3.99627e-06
0.00151792
3.95119e-06
0.00151958
3.89532e-06
0.00152114
3.85936e-06
0.00152261
3.82676e-06
0.00152396
3.86609e-06
0.00152523
3.94576e-06
0.00152632
4.09145e-06
0.00152722
4.12605e-06
0.00152793
3.95272e-06
0.00152844
3.54316e-06
0.00152882
2.93089e-06
0.00152907
2.25577e-06
0.00152929
1.50733e-06
0.00152941
8.55921e-07
0.00152958
2.44377e-07
0.00152964
-1.64739e-07
0.00152978
-5.53381e-07
0.00152985
-6.89675e-07
0.00152994
-9.08205e-07
0.00153001
-9.62062e-07
0.00153004
-1.11309e-06
0.00153014
-1.14178e-06
0.00153011
-1.07562e-06
0.00153025
-1.19116e-06
0.00153021
-9.26823e-07
0.00153025
-1.10887e-06
0.00153031
-9.01898e-07
0.0015303
-9.85014e-07
0.00153039
-9.24252e-07
0.00153034
-8.31052e-07
0.00153043
-9.62094e-07
0.00153036
-7.43825e-07
0.00153045
-1.02796e-06
0.00153042
-7.3201e-07
0.00153044
-9.20839e-07
0.00153046
-7.67785e-07
0.00153044
-8.63027e-07
0.00153056
-8.96412e-07
0.00153041
-7.06184e-07
0.00153063
-1.09439e-06
0.00153053
-5.20067e-07
0.00153056
-1.04402e-06
0.00153073
-6.93655e-07
0.00153077
-8.52827e-07
0.00153097
-8.71847e-07
0.00153086
-6.48454e-07
0.00153101
-1.12488e-06
0.00153088
-3.15326e-07
0.00153095
-1.13616e-06
0.00153115
-6.5633e-07
0.00153107
-7.94553e-07
0.0015313
-8.0535e-07
0.00153112
-3.65142e-07
0.00153106
-9.90798e-07
0.00153133
6.83079e-08
0.00153107
-8.51751e-08
0.0015309
1.2135e-06
0.00153056
3.37155e-06
9.01817e-06
0.00153135
0.00154551
2.52754e-06
0.00155064
4.05115e-06
0.00155576
3.84762e-06
0.00156107
4.03908e-06
0.00156645
4.09412e-06
0.00157167
3.90573e-06
0.0015766
3.65676e-06
0.00158127
3.37335e-06
0.00158567
3.0905e-06
0.00158983
2.84623e-06
0.00159376
2.61924e-06
0.0015975
2.43355e-06
0.00160108
2.27089e-06
0.00160453
2.13722e-06
0.00160789
2.03734e-06
0.00161116
1.96317e-06
0.00161437
1.90717e-06
0.00161752
1.87029e-06
0.00162063
1.83326e-06
0.00162369
1.8059e-06
0.00162671
1.78145e-06
0.00162968
1.73686e-06
0.00163262
1.69379e-06
0.00163553
1.66269e-06
0.0016384
1.62965e-06
0.00164125
1.59087e-06
0.00164407
1.5612e-06
0.00164688
1.53985e-06
0.00164966
1.53406e-06
0.00165244
1.53691e-06
0.00165519
1.51931e-06
0.00165792
1.50198e-06
0.00166063
1.48649e-06
0.00166333
1.48876e-06
0.00166602
1.48181e-06
0.00166868
1.47368e-06
0.00167132
1.46972e-06
0.00167393
1.45938e-06
0.00167653
1.44533e-06
0.0016791
1.44543e-06
0.00168164
1.45468e-06
0.00168414
1.45133e-06
0.00168659
1.44094e-06
0.00168901
1.4471e-06
0.00169138
1.45077e-06
0.00169376
1.49228e-06
0.00169615
1.54959e-06
0.00169856
1.68271e-06
0.00170094
1.74581e-06
0.00170318
1.71669e-06
0.00170519
1.53197e-06
0.00170689
1.22733e-06
0.00170828
8.71243e-07
0.00170935
4.3793e-07
0.00171012
8.4528e-08
0.00171065
-2.86911e-07
0.00171097
-4.80689e-07
0.00171114
-7.2562e-07
0.00171123
-7.82848e-07
0.00171123
-9.08657e-07
0.0017112
-9.3161e-07
0.00171111
-1.02471e-06
0.00171105
-1.07686e-06
0.00171096
-9.89433e-07
0.00171089
-1.11537e-06
0.00171087
-9.11336e-07
0.00171079
-1.03304e-06
0.00171081
-9.15449e-07
0.00171076
-9.39088e-07
0.00171076
-9.2392e-07
0.00171076
-8.29486e-07
0.00171073
-9.35342e-07
0.00171076
-7.72418e-07
0.00171072
-9.83145e-07
0.00171075
-7.67154e-07
0.00171073
-9.01618e-07
0.00171077
-8.06725e-07
0.00171076
-8.47381e-07
0.00171077
-9.07221e-07
0.00171078
-7.15512e-07
0.00171073
-1.04526e-06
0.00171082
-6.17682e-07
0.00171075
-9.65504e-07
0.00171083
-7.80625e-07
0.0017108
-8.24549e-07
0.00171083
-8.97776e-07
0.00171085
-6.72212e-07
0.00171076
-1.03139e-06
0.0017109
-4.56852e-07
0.00171079
-1.02277e-06
0.00171089
-7.59493e-07
0.00171082
-7.18713e-07
0.00171086
-8.53519e-07
0.00171093
-4.32201e-07
0.00171076
-8.1486e-07
0.00171094
-1.17158e-07
0.00171079
6.18328e-08
0.00171077
1.23639e-06
0.00171068
3.46568e-06
8.13334e-06
0.00171156
0.001711
-7.93724e-07
0.00171671
-1.65149e-06
0.00172235
-1.79864e-06
0.0017282
-1.81263e-06
0.00173416
-1.86422e-06
0.00173993
-1.86511e-06
0.0017454
-1.80599e-06
0.00175056
-1.78606e-06
0.00175543
-1.78619e-06
0.00176004
-1.75847e-06
0.00176439
-1.73319e-06
0.00176853
-1.71059e-06
0.0017725
-1.69532e-06
0.00177632
-1.68598e-06
0.00178004
-1.67532e-06
0.00178366
-1.66045e-06
0.00178721
-1.6453e-06
0.00179071
-1.62508e-06
0.00179415
-1.61061e-06
0.00179754
-1.58444e-06
0.00180088
-1.55812e-06
0.00180417
-1.55478e-06
0.00180743
-1.5608e-06
0.00181065
-1.5612e-06
0.00181384
-1.56014e-06
0.001817
-1.56411e-06
0.00182012
-1.56745e-06
0.00182324
-1.57666e-06
0.00182634
-1.56674e-06
0.00182943
-1.54916e-06
0.00183249
-1.54184e-06
0.00183553
-1.53809e-06
0.00183855
-1.53819e-06
0.00184157
-1.52724e-06
0.00184457
-1.51964e-06
0.00184756
-1.51125e-06
0.00185052
-1.49654e-06
0.00185347
-1.48368e-06
0.00185639
-1.48369e-06
0.00185931
-1.46508e-06
0.0018622
-1.43595e-06
0.00186506
-1.4103e-06
0.00186788
-1.38465e-06
0.00187068
-1.34975e-06
0.00187346
-1.32708e-06
0.00187625
-1.29501e-06
0.00187906
-1.2645e-06
0.00188194
-1.19749e-06
0.00188485
-1.16027e-06
0.00188767
-1.1061e-06
0.00189026
-1.0551e-06
0.0018925
-1.01491e-06
0.00189434
-9.69115e-07
0.00189574
-9.68203e-07
0.00189676
-9.32349e-07
0.00189742
-9.43311e-07
0.00189782
-8.8323e-07
0.001898
-9.05584e-07
0.00189808
-8.58428e-07
0.00189805
-8.78534e-07
0.00189796
-8.46487e-07
0.00189779
-8.50437e-07
0.00189758
-8.73876e-07
0.00189741
-8.17816e-07
0.00189722
-9.28879e-07
0.00189714
-8.26946e-07
0.00189702
-9.13206e-07
0.00189697
-8.66233e-07
0.00189691
-8.79221e-07
0.00189688
-8.89e-07
0.00189687
-8.20934e-07
0.00189683
-8.99275e-07
0.00189686
-7.95917e-07
0.0018968
-9.32356e-07
0.00189684
-8.02761e-07
0.00189681
-8.71107e-07
0.00189683
-8.31403e-07
0.00189683
-8.38482e-07
0.00189681
-8.94249e-07
0.00189685
-7.56643e-07
0.00189679
-9.78853e-07
0.00189687
-7.02079e-07
0.00189681
-9.03335e-07
0.00189685
-8.22805e-07
0.00189684
-8.08484e-07
0.00189683
-8.91118e-07
0.00189688
-7.21518e-07
0.0018968
-9.55268e-07
0.00189692
-5.78803e-07
0.00189684
-9.3533e-07
0.00189689
-8.14934e-07
0.00189688
-7.108e-07
0.00189687
-8.38285e-07
0.00189694
-5.05678e-07
0.00189687
-7.39968e-07
0.00189696
-2.11478e-07
0.0018969
1.19591e-07
0.00189696
1.17758e-06
0.00189708
3.34783e-06
7.13045e-06
0.00189808
0.00171104
-4.14935e-06
0.00171675
-7.36637e-06
0.0017224
-7.44871e-06
0.00172826
-7.6702e-06
0.00173422
-7.82641e-06
0.00174
-7.63716e-06
0.00174546
-7.26684e-06
0.00175062
-6.94573e-06
0.00175549
-6.6647e-06
0.0017601
-6.36264e-06
0.00176445
-6.08629e-06
0.0017686
-5.85494e-06
0.00177256
-5.66102e-06
0.00177639
-5.50996e-06
0.0017801
-5.38826e-06
0.00178372
-5.28401e-06
0.00178728
-5.19931e-06
0.00179077
-5.12017e-06
0.00179422
-5.05489e-06
0.00179761
-4.97508e-06
0.00180094
-4.89704e-06
0.00180424
-4.84684e-06
0.00180749
-4.81624e-06
0.00181072
-4.78483e-06
0.00181391
-4.74954e-06
0.00181706
-4.71918e-06
0.00182019
-4.69622e-06
0.00182331
-4.6943e-06
0.00182641
-4.66729e-06
0.00182949
-4.63478e-06
0.00183255
-4.60128e-06
0.00183559
-4.57761e-06
0.00183862
-4.56472e-06
0.00184163
-4.54365e-06
0.00184464
-4.52115e-06
0.00184762
-4.49285e-06
0.00185058
-4.45868e-06
0.00185352
-4.42504e-06
0.00185645
-4.41292e-06
0.00185936
-4.37367e-06
0.00186225
-4.32325e-06
0.0018651
-4.26669e-06
0.00186792
-4.20198e-06
0.00187071
-4.13738e-06
0.00187348
-4.10015e-06
0.00187626
-4.07626e-06
0.00187907
-4.0712e-06
0.00188194
-4.06519e-06
0.00188483
-4.05417e-06
0.00188764
-3.91363e-06
0.00189021
-3.62432e-06
0.00189243
-3.23812e-06
0.00189425
-2.79061e-06
0.00189565
-2.36316e-06
0.00189665
-1.93872e-06
0.00189731
-1.5979e-06
0.00189771
-1.28073e-06
0.00189789
-1.08937e-06
0.00189796
-9.30553e-07
0.00189794
-8.52989e-07
0.00189785
-7.56141e-07
0.00189767
-6.78063e-07
0.00189747
-6.69608e-07
0.00189729
-6.38599e-07
0.00189711
-7.50777e-07
0.00189701
-7.25669e-07
0.0018969
-8.04e-07
0.00189684
-8.0583e-07
0.00189678
-8.23198e-07
0.00189675
-8.53655e-07
0.00189673
-8.041e-07
0.00189671
-8.72087e-07
0.00189671
-8.05314e-07
0.00189668
-8.97884e-07
0.0018967
-8.24323e-07
0.00189668
-8.50409e-07
0.0018967
-8.49097e-07
0.00189669
-8.31014e-07
0.00189668
-8.84572e-07
0.00189671
-7.83229e-07
0.00189667
-9.37338e-07
0.00189672
-7.54968e-07
0.00189668
-8.67455e-07
0.00189671
-8.46557e-07
0.0018967
-7.98982e-07
0.0018967
-8.92197e-07
0.00189673
-7.48516e-07
0.00189668
-9.12305e-07
0.00189676
-6.51907e-07
0.0018967
-8.83674e-07
0.00189673
-8.42304e-07
0.00189674
-7.16381e-07
0.00189673
-8.31136e-07
0.00189678
-5.51639e-07
0.00189675
-7.09983e-07
0.0018968
-2.67719e-07
0.00189682
1.0196e-07
0.0018969
1.09412e-06
0.00189715
3.10004e-06
6.12603e-06
0.00189816
0.0015456
-7.37343e-06
0.00155077
-1.2527e-05
0.00155589
-1.25724e-05
0.00156122
-1.30015e-05
0.00156661
-1.32179e-05
0.00157183
-1.28542e-05
0.00157676
-1.21998e-05
0.00158142
-1.16073e-05
0.00158583
-1.10723e-05
0.00158999
-1.05206e-05
0.00159392
-1.00185e-05
0.00159766
-9.59831e-06
0.00160125
-9.24153e-06
0.0016047
-8.96327e-06
0.00160805
-8.74149e-06
0.00161132
-8.55708e-06
0.00161454
-8.41137e-06
0.00161769
-8.27605e-06
0.0016208
-8.16435e-06
0.00162386
-8.03578e-06
0.00162688
-7.91196e-06
0.00162985
-7.81982e-06
0.00163279
-7.75417e-06
0.00163569
-7.69024e-06
0.00163857
-7.62264e-06
0.00164141
-7.56286e-06
0.00164423
-7.51587e-06
0.00164704
-7.50123e-06
0.00164982
-7.45162e-06
0.00165259
-7.40198e-06
0.00165533
-7.34394e-06
0.00165806
-7.30376e-06
0.00166077
-7.27641e-06
0.00166346
-7.23698e-06
0.00166613
-7.19069e-06
0.00166877
-7.13471e-06
0.00167139
-7.07855e-06
0.00167399
-7.02242e-06
0.00167657
-6.99244e-06
0.00167912
-6.92027e-06
0.00168163
-6.83483e-06
0.00168409
-6.73184e-06
0.0016865
-6.61154e-06
0.00168886
-6.49489e-06
0.00169118
-6.42033e-06
0.00169349
-6.38707e-06
0.00169581
-6.39291e-06
0.00169814
-6.39553e-06
0.00170041
-6.32323e-06
0.00170253
-6.0349e-06
0.00170443
-5.51639e-06
0.00170603
-4.84305e-06
0.00170733
-4.08988e-06
0.00170832
-3.35695e-06
0.00170905
-2.66281e-06
0.00170954
-2.08669e-06
0.00170985
-1.59809e-06
0.00171003
-1.26354e-06
0.00171012
-1.01787e-06
0.00171013
-8.68037e-07
0.0017101
-7.28505e-07
0.00171003
-6.07692e-07
0.00170994
-5.73262e-07
0.00170986
-5.59544e-07
0.00170978
-6.72878e-07
0.00170973
-6.7668e-07
0.00170969
-7.60967e-07
0.00170965
-7.71827e-07
0.00170963
-7.99188e-07
0.00170962
-8.38905e-07
0.00170961
-7.96872e-07
0.0017096
-8.65974e-07
0.0017096
-8.01428e-07
0.00170959
-8.90117e-07
0.00170959
-8.2824e-07
0.00170959
-8.43287e-07
0.0017096
-8.61945e-07
0.00170959
-8.209e-07
0.0017096
-8.9232e-07
0.00170959
-7.79606e-07
0.00170959
-9.28681e-07
0.0017096
-7.72881e-07
0.0017096
-8.62125e-07
0.0017096
-8.47121e-07
0.0017096
-7.95802e-07
0.00170961
-9.03297e-07
0.0017096
-7.47018e-07
0.00170961
-9.21582e-07
0.00170962
-6.54409e-07
0.00170961
-8.81169e-07
0.0017096
-8.31615e-07
0.00170963
-7.43909e-07
0.00170961
-8.12607e-07
0.00170965
-5.89357e-07
0.00170966
-7.2047e-07
0.00170969
-2.97369e-07
0.00170978
1.47654e-08
0.00170984
1.03019e-06
0.00171021
2.72677e-06
5.26807e-06
0.00171107
0.00139628
-1.05771e-05
0.00140093
-1.71744e-05
0.00140559
-1.72361e-05
0.00141046
-1.78696e-05
0.00141534
-1.80948e-05
0.00142006
-1.7572e-05
0.00142451
-1.66562e-05
0.00142873
-1.58203e-05
0.00143271
-1.50534e-05
0.00143646
-1.42759e-05
0.00144001
-1.35694e-05
0.00144339
-1.29781e-05
0.00144663
-1.24725e-05
0.00144974
-1.20781e-05
0.00145276
-1.17661e-05
0.00145572
-1.15087e-05
0.00145861
-1.13061e-05
0.00146145
-1.11142e-05
0.00146424
-1.09588e-05
0.00146699
-1.07815e-05
0.00146969
-1.06141e-05
0.00147235
-1.04792e-05
0.00147497
-1.03751e-05
0.00147756
-1.02739e-05
0.0014801
-1.0171e-05
0.00148262
-1.00799e-05
0.00148511
-1.00012e-05