/*--------------------------------*- C++ -*----------------------------------*\
| =========                 |                                                 |
| \\      /  F ield         | OpenFOAM: The Open Source CFD Toolbox           |
|  \\    /   O peration     | Version:  v2012                                 |
|   \\  /    A nd           | Website:  www.openfoam.com                      |
|    \\/     M anipulation  |                                                 |
\*---------------------------------------------------------------------------*/
FoamFile
{
    version     2.0;
    format      ascii;
    class       vectorField;
    location    "0.052/lagrangian/kinematicCloud";
    object      UCorrect;
}
// * * * * * * * * * * * * * * * * * * * * * * * * * * * * * * * * * * * * * //


54
(
(6.72189e-34 8.57375e-37 0)
(0 0 0)
(0 0 0)
(0 0 0)
(0 0 0)
(0 0 0)
(2.91532e-27 7.92344e-30 0)
(0 0 0)
(0 0 0)
(0 0 0)
(2.52979e-28 1.37769e-30 0)
(0 0 0)
(0 0 0)
(0 0 0)
(5.95271e-27 -1.36503e-29 0)
(0 0 0)
(2.40388e-27 2.33426e-30 0)
(5.13339e-27 -6.96194e-30 0)
(0 0 0)
(1.58709e-27 1.01422e-29 0)
(0 0 0)
(0 0 0)
(5.17255e-28 1.11912e-29 0)
(0 0 0)
(0 0 0)
(5.67907e-28 1.123e-29 0)
(1.5218e-27 -1.68933e-29 0)
(3.49719e-31 8.14672e-33 0)
(0 0 0)
(4.24463e-31 1.008e-32 0)
(1.44535e-26 3.11316e-30 0)
(0 0 0)
(0 0 0)
(5.53282e-28 3.35015e-30 0)
(0 0 0)
(6.9914e-28 1.22556e-29 0)
(0 0 0)
(6.87698e-28 -4.99185e-30 0)
(7.89051e-28 1.42766e-29 0)
(1.45066e-26 -8.85268e-31 0)
(0 0 0)
(8.9187e-28 1.49321e-29 0)
(1.13778e-27 -2.32159e-29 0)
(0 0 0)
(1.11731e-27 -1.71624e-29 0)
(0 0 0)
(0 0 0)
(0 0 0)
(1.08692e-27 -1.12504e-29 0)
(0 0 0)
(2.18295e-27 -6.93805e-29 0)
(0 0 0)
(0 0 0)
(0 0 0)
)


// ************************************************************************* //
