/*--------------------------------*- C++ -*----------------------------------*\
| =========                 |                                                 |
| \\      /  F ield         | OpenFOAM: The Open Source CFD Toolbox           |
|  \\    /   O peration     | Version:  v2012                                 |
|   \\  /    A nd           | Website:  www.openfoam.com                      |
|    \\/     M anipulation  |                                                 |
\*---------------------------------------------------------------------------*/
FoamFile
{
    version     2.0;
    format      ascii;
    class       vectorField;
    location    "0.052/lagrangian/kinematicCloud";
    object      UCorrect;
}
// * * * * * * * * * * * * * * * * * * * * * * * * * * * * * * * * * * * * * //


55
(
(0 0 0)
(0 0 0)
(-1.24701e-24 2.97313e-26 0)
(0 0 0)
(-1.25616e-24 -4.11541e-27 0)
(-1.26674e-24 -2.08224e-26 0)
(-9.71241e-26 -8.85514e-27 0)
(-1.47266e-09 -8.17694e-11 0)
(1.06781e-09 7.48262e-11 0)
(-5.95459e-11 -4.5174e-12 0)
(1.39969e-12 -2.52792e-12 0)
(0 0 0)
(2.06761e-08 -1.68532e-12 0)
(8.17845e-13 9.12847e-16 0)
(-2.90547e-25 -1.58883e-28 0)
(0 0 0)
(0 0 0)
(0 0 0)
(-5.15026e-25 -1.0079e-26 0)
(0 0 0)
(0 0 0)
(0 0 0)
(0 0 0)
(0 0 0)
(-2.66408e-28 -1.15081e-30 0)
(0 0 0)
(0 0 0)
(-9.85165e-10 -1.79402e-12 0)
(0 0 0)
(7.12252e-10 1.56188e-12 0)
(-9.35878e-13 -9.12306e-16 0)
(0 0 0)
(-2.08407e-08 1.70183e-12 0)
(0 0 0)
(0 0 0)
(0 0 0)
(-8.70173e-10 -8.86843e-14 0)
(6.06721e-10 -1.3938e-14 0)
(0 0 0)
(-2.58994e-08 -4.91229e-13 0)
(-2.94301e-25 -5.12202e-29 0)
(0 0 0)
(-9.15997e-10 4.10279e-14 0)
(6.36969e-10 -7.07423e-14 0)
(0 0 0)
(-6.88983e-08 -6.54395e-13 0)
(-3.07598e-08 1.0044e-12 0)
(0 0 0)
(-7.96801e-09 -4.41082e-13 0)
(0 0 0)
(-1.21825e-08 -4.53917e-14 0)
(7.06646e-09 3.81754e-13 0)
(2.89679e-08 -9.32756e-13 0)
(3.6371e-08 4.81618e-13 0)
(6.61945e-08 6.60014e-13 0)
)


// ************************************************************************* //
