/*--------------------------------*- C++ -*----------------------------------*\
| =========                 |                                                 |
| \\      /  F ield         | OpenFOAM: The Open Source CFD Toolbox           |
|  \\    /   O peration     | Version:  v2012                                 |
|   \\  /    A nd           | Website:  www.openfoam.com                      |
|    \\/     M anipulation  |                                                 |
\*---------------------------------------------------------------------------*/
FoamFile
{
    version     2.0;
    format      ascii;
    class       Cloud<basicKinematicParcel>;
    location    "0.087/lagrangian/kinematicCloud";
    object      coordinates;
}
// * * * * * * * * * * * * * * * * * * * * * * * * * * * * * * * * * * * * * //

17
(
(0.263999 0.0362836 0.331717 0.368) 1053 2134 1
(0.471545 0.264228 0.220978 0.0432493) 1092 2067 1
(0.0450762 0.0315167 0.477462 0.445945) 1771 3437 1
(0.171621 0.414189 0.12927 0.28492) 1073 2153 2
(0.255531 0.165807 0.372235 0.206427) 1723 3347 1
(0.264715 0.336488 0.0311541 0.367643) 1863 3597 2
(0.44124 0.27938 0.0336256 0.245754) 1862 3607 2
(0.0527334 0.473633 0.17281 0.300823) 1852 3591 1
(0.29232 0.35384 0.258874 0.094966) 595 1078 1
(0.309452 0.345274 0.214485 0.130789) 890 1861 2
(0.226502 0.386749 0.13537 0.251379) 389 668 1
(0.293562 0.353219 0.0650472 0.288172) 286 659 2
(0.47799 0.198146 0.261005 0.0628587) 783 1651 2
(0.155847 0.422076 0.280015 0.142062) 1695 3297 1
(0.442249 0.278875 0.272728 0.00614787) 177 421 2
(0.197629 0.401186 0.119498 0.281688) 973 1830 1
(0.564126 0.217937 0.0382917 0.179645) 1520 2968 2
)


// ************************************************************************* //
