/*--------------------------------*- C++ -*----------------------------------*\
| =========                 |                                                 |
| \\      /  F ield         | OpenFOAM: The Open Source CFD Toolbox           |
|  \\    /   O peration     | Version:  v2012                                 |
|   \\  /    A nd           | Website:  www.openfoam.com                      |
|    \\/     M anipulation  |                                                 |
\*---------------------------------------------------------------------------*/
FoamFile
{
    version     2.0;
    format      ascii;
    class       Cloud<basicKinematicParcel>;
    location    "0.087/lagrangian/kinematicCloud";
    object      positions;
}
// * * * * * * * * * * * * * * * * * * * * * * * * * * * * * * * * * * * * * //

54
(
(1.23699 0.0050727 0.03) 382
(1.28946 0.0161568 0.03) 885
(1.27268 0.0234201 0.03) 1184
(1.24256 0.0102208 0.03) 682
(1.22263 0.0299079 0.03) 1381
(1.21592 0.0238881 0.03) 1181
(0.878567 0.000812606 0.03) 58
(1.13808 0.0338961 0.03) 1575
(1.12411 0.0335912 0.03) 1574
(1.14019 0.0133592 0.03) 776
(1.13806 0.0167769 0.03) 875
(1.10611 0.00830573 0.03) 573
(0.9451 0.0381012 0.03) 1863
(0.928217 0.00176215 0.03) 161
(0.949741 0.0375463 0.03) 1863
(1.04367 0.0188578 0.03) 969
(0.985047 0.00483323 0.03) 365
(0.929666 0.0368724 0.03) 1761
(0.981702 0.00885103 0.03) 565
(0.964318 0.0337661 0.03) 1564
(0.967659 0.0282527 0.03) 1364
(0.898334 0.0361356 0.03) 1759
(0.929861 0.029007 0.03) 1361
(0.900346 0.00702276 0.03) 460
(0.908972 0.0151157 0.03) 860
(0.891329 0.0284184 0.03) 1359
(0.854268 0.00553591 0.03) 356
(0.868842 0.0314578 0.03) 1457
(0.782714 0.0023724 0.03) 152
(0.848154 0.0323034 0.03) 1456
(0.427821 0.000107635 0.03) 28
(0.780208 0.0035561 0.03) 252
(0.67183 0.0387124 0.03) 1844
(0.781962 0.0216735 0.03) 1052
(0.779678 0.00976388 0.03) 651
(0.766899 0.0275167 0.03) 1251
(0.749192 0.0125888 0.03) 749
(0.734836 0.0149527 0.03) 848
(0.717475 0.0277311 0.03) 1247
(0.603778 0.00120131 0.03) 40
(0.687147 0.0114066 0.03) 645
(0.669655 0.0267619 0.03) 1244
(0.652806 0.00936152 0.03) 543
(0.638156 0.00799174 0.03) 542
(0.622629 0.0120239 0.03) 741
(0.606855 0.0253211 0.03) 1140
(0.589549 0.0325486 0.03) 1539
(0.575558 0.0185402 0.03) 938
(0.55915 0.0145822 0.03) 837
(0.544146 0.0302964 0.03) 1336
(0.522614 0.00448751 0.03) 334
(0.514079 0.014154 0.03) 734
(0.497554 0.0341751 0.03) 1533
(0.466918 0.00259664 0.03) 231
)


// ************************************************************************* //
