/*--------------------------------*- C++ -*----------------------------------*\
| =========                 |                                                 |
| \\      /  F ield         | OpenFOAM: The Open Source CFD Toolbox           |
|  \\    /   O peration     | Version:  v2012                                 |
|   \\  /    A nd           | Website:  www.openfoam.com                      |
|    \\/     M anipulation  |                                                 |
\*---------------------------------------------------------------------------*/
FoamFile
{
    version     2.0;
    format      ascii;
    class       vectorField;
    location    "0.087/lagrangian/kinematicCloud";
    object      U;
}
// * * * * * * * * * * * * * * * * * * * * * * * * * * * * * * * * * * * * * //


90
(
(6.51132 -0.106987 0)
(7.39939 -0.0244964 0)
(7.37929 -0.0169499 0)
(7.10011 -0.0372139 0)
(7.30771 -0.00783291 0)
(7.3153 -0.0122619 0)
(4.82792 -0.0876024 0)
(7.23548 -0.00443146 0)
(7.19568 -0.00455068 0)
(7.21103 -0.0120516 0)
(7.1939 -0.0131071 0)
(6.8579 -0.0359931 0)
(0.424185 -1.49533e-05 0)
(0.376869 3.67152e-06 0)
(3.91335 0.00841107 0)
(7.12942 -0.00557495 0)
(5.91587 -0.0924013 0)
(6.73394 -0.00265338 0)
(6.49545 -0.0332872 0)
(7.0016 -0.000941054 0)
(6.99016 -0.00150584 0)
(2.28985 0.00347078 0)
(6.92378 0.00154879 0)
(5.98622 -0.0318167 0)
(6.84619 0.0149737 0)
(6.85503 0.00482986 0)
(5.99308 0.000118744 0)
(6.80223 0.00576427 0)
(2.98588 0.119056 0)
(6.73751 0.00550438 0)
(0.445871 1.33225e-05 0)
(4.6695 0.0989133 0)
(1.77214 0.000332066 0)
(6.45052 0.0605768 0)
(6.02176 0.115944 0)
(6.33132 0.0486627 0)
(6.1874 0.120011 0)
(6.05768 0.132835 0)
(5.9243 0.0686243 0)
(1.28144 0.000124385 0)
(5.41284 0.191128 0)
(5.43199 0.0902859 0)
(4.56381 0.164186 0)
(4.77502 0.185793 0)
(4.84075 0.173968 0)
(4.76723 0.0899215 0)
(4.62036 0.0345356 0)
(4.44279 0.102736 0)
(4.2893 0.0954103 0)
(4.20825 0.0283495 0)
(3.84976 0.0563082 0)
(3.90802 0.0568817 0)
(3.85628 0.00824156 0)
(1.13529 8.58691e-05 0)
(3.63885 0.0121457 0)
(3.54123 0.00944285 0)
(3.43969 0.00190933 0)
(3.34358 0.0066049 0)
(3.24621 0.00447621 0)
(3.15438 0.00345329 0)
(3.06299 0.000600918 0)
(2.96449 0.0015726 0)
(2.86849 0.00113098 0)
(2.77601 0.000239689 0)
(2.11108 -0.000193696 0)
(2.58069 0.000433215 0)
(2.48345 0.000330191 0)
(1.89045 0.000133216 0)
(2.28681 0.000217939 0)
(2.18934 0.000169374 0)
(2.08919 2.60919e-06 0)
(1.98858 -6.17066e-05 0)
(1.88896 0.00016456 0)
(1.78891 -0.000104141 0)
(1.66416 -0.000230727 0)
(0.639828 -9.50266e-05 0)
(1.25228 -0.000186219 0)
(1.37942 -1.29953e-05 0)
(0.964586 -0.000175935 0)
(1.17184 -0.00013523 0)
(1.06735 -4.04909e-05 0)
(0.96117 -3.36557e-05 0)
(0.856151 -7.52458e-05 0)
(0.749054 -1.02726e-05 0)
(0.488486 -5.15845e-05 0)
(0.53542 -6.97001e-06 0)
(0.427222 -1.91972e-05 0)
(0.318663 -8.44776e-06 0)
(0.209234 1.09726e-06 0)
(0.0994378 -1.46606e-06 0)
)


// ************************************************************************* //
