/*--------------------------------*- C++ -*----------------------------------*\
| =========                 |                                                 |
| \\      /  F ield         | OpenFOAM: The Open Source CFD Toolbox           |
|  \\    /   O peration     | Version:  v2012                                 |
|   \\  /    A nd           | Website:  www.openfoam.com                      |
|    \\/     M anipulation  |                                                 |
\*---------------------------------------------------------------------------*/
FoamFile
{
    version     2.0;
    format      ascii;
    class       vectorField;
    location    "0.087/lagrangian/kinematicCloud";
    object      UCorrect;
}
// * * * * * * * * * * * * * * * * * * * * * * * * * * * * * * * * * * * * * //


54
(
(0 0 0)
(-1.36032e-28 5.56646e-31 0)
(0 0 0)
(0 0 0)
(0 0 0)
(0 0 0)
(0 0 0)
(0 0 0)
(0 0 0)
(0 0 0)
(0 0 0)
(8.36934e-28 5.32837e-30 0)
(0 0 0)
(0 0 0)
(0 0 0)
(0 0 0)
(0 0 0)
(3.34343e-27 -5.81456e-30 0)
(6.79487e-28 4.25029e-30 0)
(9.14044e-31 -3.61534e-33 0)
(0 0 0)
(3.09797e-27 -6.41533e-30 0)
(2.12427e-28 1.91363e-30 0)
(0 0 0)
(0 0 0)
(0 0 0)
(2.0514e-27 7.39694e-30 0)
(0 0 0)
(0 0 0)
(5.6625e-31 -9.27268e-34 0)
(0 0 0)
(0 0 0)
(0 0 0)
(0 0 0)
(0 0 0)
(0 0 0)
(9.39894e-29 -2.89299e-30 0)
(7.20636e-29 -1.66082e-30 0)
(0 0 0)
(0 0 0)
(1.70825e-28 -4.22083e-30 0)
(0 0 0)
(0 0 0)
(0 0 0)
(2.53596e-32 -5.32698e-34 0)
(0 0 0)
(0 0 0)
(0 0 0)
(0 0 0)
(4.03908e-28 9.99879e-30 0)
(1.21099e-30 1.57831e-33 0)
(0 0 0)
(8.15049e-31 2.95188e-33 0)
(0 0 0)
)


// ************************************************************************* //
