/*--------------------------------*- C++ -*----------------------------------*\
| =========                 |                                                 |
| \\      /  F ield         | OpenFOAM: The Open Source CFD Toolbox           |
|  \\    /   O peration     | Version:  v2012                                 |
|   \\  /    A nd           | Website:  www.openfoam.com                      |
|    \\/     M anipulation  |                                                 |
\*---------------------------------------------------------------------------*/
FoamFile
{
    version     2.0;
    format      ascii;
    class       volScalarField;
    location    "0.06";
    object      nut.air;
}
// * * * * * * * * * * * * * * * * * * * * * * * * * * * * * * * * * * * * * //

dimensions      [0 2 -1 0 0 0 0];


internalField   nonuniform List<scalar> 
1900
(
1.07826e-05
1.25664e-05
1.64255e-05
1.88861e-05
2.41588e-05
2.74149e-05
3.43191e-05
3.84516e-05
4.70968e-05
5.21758e-05
0.000160682
0.000159706
0.000159987
0.000159319
0.000160012
0.000159841
0.000161051
0.000161629
0.000163504
0.000165992
0.000160404
0.000159935
0.00015935
0.000158942
0.000158375
0.00015803
0.000157477
0.000157202
0.000156663
0.000156471
0.000160436
0.000159918
0.000159413
0.000158934
0.000158466
0.00015802
0.000157583
0.000157167
0.000156758
0.000156368
0.000160443
0.000159915
0.000159427
0.000158936
0.000158485
0.000158026
0.00015761
0.000157178
0.000156791
0.000156385
0.000160443
0.000159915
0.000159427
0.000158935
0.000158486
0.000158026
0.00015761
0.000157177
0.000156793
0.000156384
0.000160422
0.000159933
0.000159398
0.000158951
0.000158448
0.00015804
0.000157563
0.000157189
0.000156736
0.000156393
0.000160362
0.000159977
0.000159308
0.000158984
0.000158335
0.00015807
0.000157442
0.000157238
0.000156633
0.000156495
0.000160186
0.000160254
0.000159436
0.000159943
0.000159442
0.000160539
0.000160502
0.000162329
0.0001629
0.000165194
1.04289e-05
1.27949e-05
1.58555e-05
1.92303e-05
2.33352e-05
2.78916e-05
3.32115e-05
3.90708e-05
4.56967e-05
5.28802e-05
0.000196167
0.000641279
0.00141945
0.00211002
0.0024758
0.00267403
0.00269258
0.00258668
0.00247355
0.0023898
0.00233872
0.00234369
0.00237563
0.00247828
0.00261023
0.00278472
0.0030017
0.00323843
0.00347997
0.00372002
0.0039266
0.0040593
0.00417886
0.00430437
0.00442103
0.0045312
0.00463434
0.00472904
0.00482004
0.00490421
0.00498852
0.00506737
0.00513451
0.00517524
0.00520987
0.00524036
0.00526647
0.00528891
0.0053085
0.00532564
0.00534105
0.00535521
0.00536791
0.00537976
0.00539021
0.00539974
0.00540789
0.00541517
0.00542124
0.00542654
0.00543087
0.00543469
0.00543768
0.00544043
0.00544249
0.00544433
0.00544551
0.00544644
0.00544669
0.00544664
0.00544589
0.00544471
0.0054428
0.0054404
0.00543726
0.00543366
0.00542938
0.00542483
0.00541966
0.00541458
0.00540886
0.00540375
0.0053981
0.0053936
0.00538845
0.00538493
0.00538044
0.00537781
0.00537339
0.00537101
0.00536552
0.00536228
0.00535396
0.00534816
0.00533492
0.00532521
0.00530613
0.00529224
0.00526749
0.00524925
0.00521905
0.00519609
0.00516218
0.00513527
0.00510224
0.00507234
0.00504637
0.00501549
0.00500142
0.00497462
0.00017247
0.000182735
0.000219854
0.000325318
0.000480874
0.000625604
0.000699547
0.000748524
0.00076757
0.000767153
0.00076501
0.000776533
0.000806757
0.000838502
0.000891545
0.000968237
0.00106214
0.00118018
0.00131671
0.00147466
0.00164416
0.00182389
0.00200775
0.00219948
0.00240187
0.00260597
0.00280811
0.0030031
0.00318929
0.00336282
0.00352334
0.00366379
0.00379275
0.00388239
0.00396879
0.00405356
0.00413177
0.00420564
0.00427686
0.00434452
0.0044118
0.00447704
0.00453599
0.004584
0.00462751
0.00466752
0.00470361
0.00473696
0.0047671
0.00479512
0.00482106
0.00484537
0.00486821
0.00489006
0.00491043
0.00492969
0.00494758
0.00496451
0.00498006
0.00499454
0.00500766
0.00501969
0.00503041
0.00504008
0.00504861
0.00505615
0.00506272
0.00506854
0.00507344
0.00507791
0.00508139
0.00508496
0.00508773
0.00509117
0.00509373
0.00509765
0.00510045
0.00510488
0.0051074
0.00511184
0.00511291
0.00511619
0.00511383
0.00511395
0.00510556
0.00510063
0.00508507
0.00507478
0.00505265
0.00503755
0.0050102
0.00499073
0.00496027
0.004937
0.00490748
0.00488062
0.00485699
0.00482809
0.00481427
0.00478697
0.000155878
0.000156049
0.000155666
0.000156124
0.000159359
0.000165003
0.000172682
0.000180636
0.000185992
0.000190944
0.000194854
0.00019935
0.000205348
0.000212525
0.000222201
0.000236191
0.000254851
0.000280999
0.000315747
0.000360288
0.000416432
0.000484918
0.000565709
0.000657936
0.000760674
0.000875942
0.00100044
0.00113622
0.00127767
0.00142822
0.00157799
0.00173722
0.00189789
0.00205664
0.00221537
0.00237189
0.00252355
0.00266966
0.00280866
0.0029406
0.00306363
0.00315897
0.00324125
0.00332137
0.00339865
0.0034736
0.0035454
0.00361496
0.0036809
0.00374617
0.0038101
0.00387238
0.00393549
0.0039968
0.00405557
0.00411274
0.00416007
0.00419943
0.00423576
0.00426957
0.00430081
0.00432991
0.00435684
0.00438246
0.00440633
0.00442875
0.00444995
0.00446977
0.00448819
0.0045054
0.00452116
0.00453615
0.00455004
0.00456374
0.00457634
0.00458966
0.00460183
0.00461483
0.00462613
0.00463849
0.00464771
0.00465825
0.00466351
0.00467018
0.00466859
0.00466905
0.0046592
0.00465303
0.00463581
0.00462437
0.00460225
0.00458725
0.00456265
0.00454444
0.00452069
0.00449869
0.00447939
0.0044544
0.00444189
0.00441573
0.000155908
0.000155425
0.000154968
0.000154625
0.000154424
0.000154439
0.00015454
0.000154749
0.000154909
0.000155057
0.000155124
0.000155124
0.000155171
0.000155078
0.000155278
0.000155186
0.000155801
0.000155934
0.000157408
0.000158336
0.000161601
0.000165796
0.000171254
0.000180321
0.000192023
0.000210551
0.000234333
0.000266529
0.000305617
0.000354952
0.00041225
0.000479447
0.00055514
0.000639578
0.000730727
0.000829772
0.000934176
0.00104458
0.00115847
0.00127602
0.00139429
0.00151448
0.00163684
0.00175724
0.00187596
0.00199458
0.00211074
0.00222477
0.00233528
0.00242954
0.00250957
0.00258884
0.00266808
0.00274672
0.00282381
0.00290019
0.00297531
0.00304953
0.00312249
0.00319512
0.00326693
0.00333969
0.00339839
0.00344799
0.00349402
0.00353934
0.00358272
0.00362348
0.00366137
0.00369695
0.00373024
0.00376151
0.003791
0.00381929
0.00384599
0.00387263
0.00389763
0.00392216
0.00394497
0.00396735
0.00398681
0.00400608
0.00402088
0.00403523
0.0040424
0.00404912
0.00404699
0.00404543
0.00403539
0.00402833
0.00401412
0.00400396
0.00398763
0.0039756
0.00395979
0.00394452
0.00393109
0.00391267
0.00390293
0.00388118
0.000155951
0.000155428
0.000154991
0.000154566
0.000154292
0.000154111
0.000154091
0.000154193
0.000154289
0.000154424
0.000154395
0.000154432
0.000154244
0.000154216
0.000153926
0.0001539
0.000153555
0.000153578
0.000153202
0.000153308
0.000152916
0.000153148
0.000152791
0.000153197
0.000152961
0.000153677
0.000153776
0.000155134
0.00015604
0.000158762
0.00016223
0.000166747
0.000173175
0.000183524
0.000195697
0.000214079
0.000235644
0.000264251
0.0002975
0.000338445
0.000384645
0.000438101
0.00049679
0.000562361
0.00063225
0.000707911
0.000786597
0.000870092
0.000955297
0.00104419
0.00113221
0.00122163
0.00130839
0.00139606
0.00148542
0.00157382
0.00166206
0.00175037
0.0018378
0.00192436
0.00200965
0.00209391
0.0021767
0.00225789
0.00233707
0.00241402
0.00248744
0.00255574
0.00261986
0.00267921
0.00273447
0.00278532
0.00283325
0.00287788
0.00291923
0.00295982
0.00299713
0.00303387
0.0030686
0.0031017
0.00313211
0.00316244
0.00318783
0.00321171
0.00322931
0.00324493
0.00325285
0.00325954
0.00326051
0.00326273
0.00326141
0.00326231
0.00325994
0.00326051
0.00325795
0.00325734
0.0032551
0.00325212
0.00325039
0.00324579
0.000155953
0.00015542
0.000154978
0.000154519
0.000154252
0.000154033
0.000154122
0.000154179
0.000154489
0.000154668
0.000155095
0.000155407
0.000155951
0.000156389
0.000157049
0.000157585
0.000158319
0.000158912
0.000159698
0.000160331
0.000161165
0.00016184
0.000162746
0.000163478
0.000164478
0.000165287
0.000166404
0.000167316
0.000168575
0.000169622
0.000171066
0.000172303
0.000173994
0.000175493
0.000177575
0.000179841
0.000182386
0.000185662
0.000189061
0.000194095
0.000199459
0.00020691
0.000215468
0.000226793
0.000240204
0.000257379
0.000277522
0.000302738
0.000331943
0.000366859
0.000406534
0.000451767
0.00050198
0.000556391
0.000615435
0.000677695
0.00074348
0.000811098
0.000881086
0.000951408
0.00102309
0.00109363
0.00116465
0.00123321
0.00130119
0.00136558
0.00142976
0.00149189
0.00155339
0.00161298
0.00167148
0.00172778
0.0017835
0.00183773
0.00189054
0.00194264
0.00199427
0.00204488
0.0020949
0.00214431
0.00219175
0.0022387
0.00228174
0.00232498
0.00236211
0.00239885
0.00242666
0.00245361
0.00247279
0.00249267
0.00250694
0.00252348
0.00253593
0.00255182
0.00256465
0.00258002
0.00259222
0.00260625
0.00261913
0.00263421
0.000155872
0.000155442
0.000154876
0.000154529
0.000154135
0.000154113
0.000154397
0.000155113
0.000156501
0.000158757
0.000161991
0.000165483
0.000169688
0.000174013
0.000178704
0.000183136
0.00018775
0.000192043
0.000196486
0.000200649
0.000205011
0.0002092
0.000213697
0.00021806
0.000222829
0.000227471
0.000232628
0.000237659
0.000243133
0.00024888
0.000254903
0.000261227
0.000267822
0.000274887
0.000282244
0.000290181
0.000298447
0.000307333
0.000316638
0.000326537
0.00033698
0.000347966
0.000359624
0.000371786
0.00038474
0.000398176
0.000412541
0.000427401
0.000443313
0.000459766
0.000477491
0.000495735
0.000515578
0.000535976
0.00055824
0.00058117
0.000606206
0.000632022
0.000660189
0.000689497
0.000720694
0.000753246
0.000788165
0.000824254
0.000862635
0.000901976
0.00094343
0.000985673
0.00102974
0.00107446
0.00112074
0.00116747
0.00121546
0.00126363
0.00131245
0.00136184
0.00141154
0.00146168
0.0015118
0.0015631
0.00161319
0.00166467
0.00171285
0.00176355
0.00180885
0.00185649
0.00189484
0.00193488
0.00196519
0.00199786
0.00202159
0.00205041
0.00207202
0.00210024
0.00212139
0.00214914
0.002168
0.00219397
0.00221233
0.00224133
0.000155799
0.000155733
0.000155029
0.000155434
0.000155764
0.000160088
0.000164386
0.000172744
0.000186165
0.000201317
0.000218052
0.000234295
0.000250123
0.000264316
0.000277842
0.000289916
0.000301895
0.000312923
0.00032444
0.000335681
0.000347872
0.000360256
0.000373209
0.000386317
0.000400068
0.000413905
0.000428474
0.000443066
0.000458489
0.000473855
0.000490131
0.000506339
0.000523619
0.000541773
0.000560668
0.000580227
0.000600315
0.000620927
0.000641969
0.000663413
0.000685213
0.000707353
0.000729823
0.000752571
0.000775676
0.00079901
0.00082276
0.000846563
0.000870884
0.000895443
0.000920159
0.000945347
0.000970992
0.000997025
0.00102355
0.00105047
0.00107793
0.00110572
0.00113405
0.00116262
0.00119163
0.00122073
0.00125012
0.00127949
0.00130895
0.00133817
0.00136724
0.00139572
0.00142362
0.00145075
0.00147721
0.00150273
0.00152712
0.00155045
0.0015727
0.00159423
0.00161479
0.00163525
0.00165509
0.00167524
0.00169464
0.0017148
0.00173379
0.00175441
0.00177274
0.00179187
0.001806
0.00182082
0.00183158
0.00184413
0.00185401
0.00187024
0.00188524
0.0019056
0.00192189
0.0019431
0.00195749
0.00197721
0.00198818
0.00200881
0.000166516
0.000169603
0.000176144
0.000188672
0.000212044
0.000244423
0.000282765
0.000323038
0.000361849
0.000397537
0.000429327
0.000457428
0.000482529
0.000505604
0.000527821
0.00055031
0.000573377
0.00059712
0.000624453
0.000652872
0.000681093
0.000691052
0.00070163
0.000713027
0.000724929
0.000737556
0.000750507
0.000764135
0.000777904
0.000792228
0.000806544
0.000821299
0.000835844
0.00085024
0.000864419
0.000878467
0.000892316
0.000906003
0.000919534
0.000932853
0.000946014
0.000958967
0.000971754
0.000984332
0.000996748
0.00100893
0.00102093
0.00103276
0.00104442
0.00105589
0.00106714
0.0010782
0.00108904
0.00109969
0.00111015
0.00112044
0.00113059
0.00114058
0.00115047
0.00116024
0.00116995
0.00117959
0.00118916
0.00119858
0.00120776
0.00121665
0.00122517
0.00123329
0.00124107
0.0012485
0.00125551
0.00126198
0.00126793
0.00127369
0.00127957
0.0012858
0.0012924
0.00129935
0.00130628
0.00131309
0.00131992
0.00132613
0.00133173
0.00133638
0.00133934
0.00133957
0.00133749
0.0013336
0.0013287
0.00132751
0.00133259
0.00134388
0.00135855
0.00137335
0.00138729
0.00140218
0.00141484
0.00142444
0.00143129
0.00143826
6.23709e-05
7.45208e-05
8.79205e-05
0.000102396
0.000118129
0.000134678
0.000151713
0.000168235
0.000183701
0.000197067
0.000208128
0.000216298
0.000221571
0.000225223
0.000226535
0.000226142
0.000224564
0.000222168
0.000219222
0.000215997
0.000212596
0.000209235
0.000205977
0.000202876
0.000199953
0.000197229
0.000194707
0.000192392
0.000190276
0.000188355
0.000186619
0.000185057
0.000183661
0.000182418
0.000181317
0.000180346
0.000179495
0.000178752
0.00017811
0.000177557
0.000177087
0.00017669
0.00017636
0.00017609
0.000175874
0.000175706
0.000175579
0.00017549
0.000175433
0.000175405
0.0001754
0.000175416
0.000175449
0.000175497
0.000175557
0.000175628
0.00017571
0.000175799
0.0001759
0.00017601
0.000176125
0.000176265
0.000176412
0.000176556
0.00017671
0.000176865
0.000177016
0.000177157
0.000177287
0.000177403
0.000177502
0.000177589
0.000177647
0.000177686
0.000177744
0.000177822
0.000177902
0.000178
0.00017814
0.000178283
0.000178403
0.000178503
0.000178608
0.000178693
0.000178715
0.000178552
0.000178124
0.00017751
0.000176858
0.000176359
0.000176137
0.000176201
0.000176425
0.00017669
0.000177145
0.000177623
0.000177992
0.000178259
0.00017833
0.000178557
0.000132029
0.00100867
0.00144191
0.00161975
0.00157206
0.00130269
0.000974525
0.000294976
0.00294546
0.00274225
0.00298682
0.0031407
0.00283862
0.00217103
0.00114302
0.000457657
0.00467239
0.00460563
0.00549735
0.00623566
0.0059145
0.00462861
0.0024687
0.00059508
0.00542864
0.00584551
0.00713127
0.00894465
0.00857618
0.00696547
0.00395373
0.000754748
0.00574992
0.00657415
0.00809046
0.00987191
0.00989392
0.00828776
0.00495179
0.000857639
0.00587163
0.00677448
0.00820924
0.00998178
0.0102975
0.00879238
0.00535495
0.000886356
0.00577172
0.00692612
0.00824442
0.00985455
0.0103959
0.00898466
0.00553473
0.000892912
0.0055098
0.00679016
0.0082681
0.00982111
0.0103338
0.0090055
0.00561262
0.000883356
0.00522762
0.0065775
0.00809722
0.00963622
0.0100801
0.00881376
0.00552221
0.000850847
0.00499385
0.00638363
0.00793926
0.00944293
0.00976024
0.00852688
0.00535275
0.000811809
0.00481924
0.00623497
0.00782162
0.00928984
0.00942987
0.00821103
0.00515328
0.00077007
0.00472712
0.0061684
0.00775099
0.00900469
0.00909403
0.00787761
0.00492679
0.000735334
0.00468152
0.00615479
0.00772337
0.00874244
0.00876615
0.00753672
0.00467797
0.000711708
0.00469978
0.00619415
0.00773088
0.0085062
0.00845671
0.00721046
0.00443946
0.000689029
0.00473404
0.006263
0.00777077
0.00829802
0.00817371
0.00690807
0.00422019
0.000668063
0.00478754
0.00633692
0.00769769
0.00810506
0.00791029
0.00663615
0.00401827
0.000648916
0.00486072
0.00640288
0.00756034
0.00791895
0.00766223
0.00638426
0.00383733
0.000603422
0.00494965
0.00646262
0.00743435
0.00774036
0.00743088
0.0061547
0.00368577
0.000521037
0.00505026
0.00651585
0.00731826
0.00757225
0.00721641
0.00594364
0.00354772
0.00045984
0.00516043
0.00656483
0.00721364
0.00741656
0.00701883
0.00574932
0.00342022
0.000412816
0.00527793
0.00658843
0.00711906
0.00727295
0.00683732
0.00557072
0.0033027
0.000375646
0.00540306
0.00655395
0.00703358
0.0071409
0.0066707
0.00540684
0.00319487
0.000345637
0.00551868
0.00652051
0.00695389
0.00701841
0.00651714
0.00525597
0.00309573
0.000320957
0.00563008
0.00648945
0.00687948
0.0069043
0.00637497
0.00511659
0.00300434
0.000300354
0.00572847
0.00645917
0.0068092
0.0067974
0.00624291
0.00498728
0.0029198
0.000282935
0.00581867
0.00642963
0.00674247
0.00669687
0.00611914
0.00486687
0.00284136
0.000268039
0.0058333
0.00640043
0.00667856
0.00660146
0.00600449
0.00475405
0.00276841
0.000255184
0.00584151
0.00637023
0.00661643
0.00651038
0.00589682
0.00464814
0.00270031
0.000243995
0.00584649
0.00633987
0.00655628
0.00642343
0.00579497
0.00454844
0.00263658
0.000234185
0.00584849
0.00630916
0.00649758
0.00634004
0.00569802
0.00445417
0.00257668
0.000225524
0.0058501
0.00627929
0.00644059
0.00625993
0.00560568
0.00436484
0.00252026
0.000217831
0.00585052
0.00625002
0.0063853
0.00618305
0.00551758
0.0042801
0.00246704
0.000210961
0.00585036
0.00622143
0.00633239
0.00610909
0.0054333
0.00419953
0.00241673
0.000204797
0.00584951
0.00619365
0.00628149
0.00603815
0.0053527
0.0041229
0.00236917
0.000199244
0.00584717
0.00616626
0.00623229
0.00597021
0.00527562
0.00404995
0.00232417
0.000194224
0.00584368
0.00613923
0.00618459
0.00590473
0.00520189
0.00398051
0.00228158
0.000189673
0.00583895
0.00611241
0.00613806
0.00584215
0.00513094
0.00391423
0.00224122
0.000185537
0.00583287
0.00608579
0.00609278
0.00578202
0.00506278
0.0038509
0.00220294
0.000181771
0.0058257
0.00605925
0.00604858
0.00572394
0.0049972
0.00379032
0.0021666
0.000178333
0.00581771
0.00603292
0.00600555
0.00566784
0.00493412
0.00373234
0.00213207
0.00017519
0.005809
0.00600667
0.00596344
0.00561343
0.00487329
0.00367673
0.00209921
0.000172307
0.00580007
0.00598085
0.00592247
0.00556076
0.00481466
0.0036234
0.00206792
0.000169663
0.0057907
0.00595525
0.00588238
0.00550961
0.00475802
0.00357215
0.00203807
0.000167231
0.00578134
0.00593021
0.00584347
0.00546008
0.00470338
0.00352293
0.00200961
0.000164992
0.00577163
0.00590544
0.00580535
0.00541198
0.00465054
0.00347558
0.00198243
0.000162925
0.00576193
0.00588118
0.00576849
0.0053653
0.00459954
0.00343008
0.0019565
0.000161018
0.00575185
0.00585716
0.00573253
0.00531984
0.00455013
0.00338625
0.00193172
0.000159252
0.00574178
0.00583366
0.00569763
0.0052758
0.00450241
0.00334411
0.00190807
0.000157619
0.00573138
0.00581036
0.00566343
0.00523291
0.00445616
0.00330348
0.00188544
0.000156104
0.005721
0.0057876
0.00563019
0.00519134
0.00441146
0.00326439
0.00186385
0.000154701
0.00571029
0.00576499
0.00559755
0.0051508
0.00436809
0.00322668
0.00184318
0.000153397
0.00569969
0.00574295
0.0055658
0.00511148
0.00432616
0.00319038
0.00182343
0.000152187
0.00568877
0.00572101
0.00553459
0.00507307
0.00428541
0.0031553
0.00180451
0.000151061
0.00567801
0.00569971
0.00550415
0.00503578
0.00424596
0.00312149
0.00178642
0.000150013
0.00566698
0.00567856
0.00547414
0.00499927
0.00420756
0.00308877
0.00176905
0.000149035
0.00565615
0.00565792
0.00544487
0.00496373
0.00417029
0.00305715
0.0017524
0.000148124
0.00564507
0.00563737
0.00541598
0.00492888
0.00413394
0.0030265
0.0017364
0.000147271
0.00563413
0.00561723
0.00538773
0.00489488
0.00409857
0.0029968
0.00172102
0.000146473
0.0056229
0.00559708
0.00535979
0.0048615
0.00406404
0.00296799
0.00170624
0.000145727
0.00561173
0.00557722
0.00533236
0.00482885
0.00403037
0.00294003
0.001692
0.000145027
0.00560023
0.00555732
0.0053052
0.00479676
0.00399748
0.00291289
0.00167831
0.000144371
0.00558866
0.00553764
0.00527845
0.00476529
0.00396536
0.00288652
0.00166511
0.000143755
0.00557673
0.0055179
0.00525193
0.00473435
0.00393398
0.00286093
0.00165241
0.000143179
0.00556468
0.0054983
0.00522578
0.00470398
0.00390333
0.00283608
0.00164019
0.000142637
0.00555226
0.00547865
0.00519992
0.00467421
0.0038735
0.00281205
0.00162847
0.000142133
0.00553975
0.00545916
0.00517445
0.00464498
0.0038443
0.00278863
0.0016171
0.000141661
0.00552691
0.00543967
0.00514934
0.00461645
0.00381602
0.00276614
0.00160636
0.000141219
0.00551415
0.00542048
0.00512471
0.00458852
0.0037884
0.00274423
0.00159586
0.000140813
0.00550112
0.00540137
0.00510052
0.00456133
0.00376169
0.00272317
0.00158589
0.000140437
0.00548846
0.00538278
0.00507696
0.0045348
0.00373562
0.00270268
0.00157629
0.000140081
0.00547557
0.00536434
0.00505392
0.00450911
0.00371057
0.00268314
0.00156727
0.000139752
0.0054635
0.00534676
0.0050317
0.00448415
0.00368614
0.0026641
0.0015585
0.000139452
0.00545128
0.0053294
0.00501007
0.00446007
0.00366274
0.00264599
0.00155026
0.000139181
0.00544027
0.00531314
0.00498936
0.00443669
0.00363986
0.00262828
0.00154228
0.000138924
0.005429
0.005297
0.00496916
0.00441414
0.003618
0.00261152
0.00153484
0.000138693
0.00541923
0.00528209
0.00494985
0.00439223
0.00359657
0.0025951
0.00152761
0.000138473
0.00540891
0.00526709
0.00493095
0.00437121
0.0035763
0.00257975
0.00152094
0.000138277
0.00540019
0.00525333
0.00491295
0.00435076
0.00355644
0.00256468
0.0015144
0.000138088
0.00539028
0.00523909
0.00489526
0.00433127
0.00353789
0.0025508
0.00150846
0.000137922
0.005382
0.00522604
0.00487832
0.00431221
0.0035196
0.00253709
0.00150256
0.000137758
0.00537152
0.0052118
0.00486129
0.00429397
0.00350262
0.00252456
0.00149723
0.000137618
0.00536271
0.00519862
0.00484478
0.00427584
0.00348556
0.00251193
0.00149181
0.000137482
0.00535023
0.00518333
0.00482776
0.00425855
0.00347001
0.00250061
0.00148688
0.00013737
0.00533961
0.00516919
0.0048112
0.00424124
0.00345427
0.00248911
0.00148177
0.00013726
0.00532364
0.00515188
0.00479362
0.00422457
0.00343987
0.00247867
0.00147699
0.000137158
0.00531031
0.00513613
0.00477645
0.00420736
0.00342436
0.00246697
0.00147141
0.000137054
0.00529001
0.0051159
0.00475719
0.00418987
0.00340939
0.00245588
0.00146438
0.000136966
0.00527357
0.00509782
0.00473815
0.00417097
0.00339219
0.00244302
0.00145534
0.000136858
0.00524847
0.00507345
0.00471519
0.00415008
0.00337419
0.00242995
0.00144558
0.000136747
0.00522798
0.00505139
0.00469197
0.00412681
0.00335291
0.00241429
0.00143435
0.000136626
0.00519716
0.00502106
0.00466291
0.00410013
0.00333026
0.00239855
0.00142334
0.000136498
0.00517171
0.00499382
0.00463437
0.00407188
0.00330515
0.00238093
0.00141206
0.000136396
0.00513655
0.00495869
0.0046004
0.00404088
0.00327967
0.00236427
0.00140179
0.000136265
0.00510722
0.00492779
0.0045687
0.00401037
0.00325352
0.00234658
0.00139193
0.000136224
0.00507266
0.00489301
0.00453497
0.00397982
0.00322897
0.00233121
0.00138345
0.000136107
0.0050411
0.00486071
0.00450295
0.00395023
0.00320474
0.00231559
0.00137574
0.000136152
0.00501415
0.0048337
0.00447692
0.00392709
0.00318681
0.00230457
0.00137026
0.000136104
0.00498265
0.0048025
0.00444717
0.00390085
0.00316637
0.00229269
0.00136547
0.00013622
0.00496875
0.00478907
0.00443468
0.00389005
0.00315817
0.00228754
0.00136325
0.000136263
0.00494284
0.00476423
0.00441158
0.00386981
0.00314264
0.00227817
0.00136091
0.000136443
)
;

boundaryField
{
    frontAndBack
    {
        type            empty;
    }
    inlet
    {
        type            calculated;
        value           nonuniform List<scalar> 10(9.54769e-06 0.000160714 0.000160714 0.000160714 0.000160714 0.000160714 0.000160714 0.000160714 0.000160714 9.54736e-06);
    }
    outlet
    {
        type            calculated;
        value           nonuniform List<scalar> 
18
(
0.00494284
0.00476423
0.00441158
0.00386981
0.00314264
0.00227817
0.00136035
0.000172477
0.00497462
0.00478697
0.00441573
0.00388118
0.00324579
0.00263421
0.00224133
0.00200881
0.00143893
0.000187366
)
;
    }
    walls
    {
        type            nutkWallFunction;
        blending        stepwise;
        Cmu             0.09;
        kappa           0.41;
        E               9.8;
        value           nonuniform List<scalar> 
228
(
2.20337e-05
2.44559e-05
2.91026e-05
3.17398e-05
3.68056e-05
3.96162e-05
4.50184e-05
4.79443e-05
5.35672e-05
5.65374e-05
0.00022826
0.000216672
0.000219078
0.000225623
0.000229851
0.000225514
0.000199531
3.37445e-05
3.37445e-05
5.92132e-05
7.99892e-05
9.57463e-05
0.000104038
0.000107449
0.000108226
0.000107093
0.000103229
9.85679e-05
9.35563e-05
8.93627e-05
8.64978e-05
8.37378e-05
8.11775e-05
7.88313e-05
7.66062e-05
7.45e-05
7.2605e-05
7.08988e-05
6.9361e-05
6.79802e-05
6.67396e-05
6.56226e-05
6.4615e-05
6.37023e-05
6.28752e-05
6.21239e-05
6.14401e-05
6.08156e-05
6.02435e-05
5.97186e-05
5.92359e-05
5.87918e-05
5.83831e-05
5.80071e-05
5.76613e-05
5.73437e-05
5.70518e-05
5.67839e-05
5.65376e-05
5.63122e-05
5.61053e-05
5.5916e-05
5.57423e-05
5.55837e-05
5.54383e-05
5.53061e-05
5.51853e-05
5.50759e-05
5.49764e-05
5.48867e-05
5.48054e-05
5.47325e-05
5.46666e-05
5.46077e-05
5.45547e-05
5.45073e-05
5.44651e-05
5.44274e-05
5.43943e-05
5.43651e-05
5.43402e-05
5.4319e-05
5.43023e-05
5.42893e-05
5.42803e-05
5.42763e-05
5.42766e-05
5.42789e-05
5.42852e-05
5.42956e-05
5.431e-05
5.43253e-05
5.43443e-05
5.43634e-05
5.4386e-05
5.44087e-05
5.44358e-05
5.44633e-05
5.44969e-05
5.45328e-05
5.4577e-05
5.46252e-05
5.46791e-05
5.47368e-05
5.48009e-05
5.48609e-05
5.49183e-05
5.49699e-05
5.50155e-05
5.5063e-05
5.51002e-05
5.51559e-05
5.51927e-05
5.52689e-05
5.53199e-05
5.54295e-05
5.54935e-05
5.56703e-05
2.15259e-05
2.47525e-05
2.84573e-05
3.20934e-05
3.60555e-05
4.00122e-05
4.41915e-05
4.83742e-05
5.26947e-05
5.69922e-05
6.2185e-05
6.81864e-05
7.41054e-05
7.97521e-05
8.50883e-05
8.98975e-05
9.41178e-05
9.75735e-05
0.000100287
0.00010217
0.000103363
0.00010385
0.000103735
0.000103363
0.00010259
0.000101559
0.00010038
9.9116e-05
9.78146e-05
9.65194e-05
9.52439e-05
9.4024e-05
9.28661e-05
9.17763e-05
9.07551e-05
8.98042e-05
8.8921e-05
8.81049e-05
8.73519e-05
8.66603e-05
8.6026e-05
8.54457e-05
8.49164e-05
8.44346e-05
8.39966e-05
8.35993e-05
8.32395e-05
8.29142e-05
8.26207e-05
8.23565e-05
8.21191e-05
8.1906e-05
8.17153e-05
8.1545e-05
8.13933e-05
8.12584e-05
8.11385e-05
8.10322e-05
8.09382e-05
8.0855e-05
8.07814e-05
8.07162e-05
8.06583e-05
8.0607e-05
8.05618e-05
8.05218e-05
8.04878e-05
8.04581e-05
8.04345e-05
8.04163e-05
8.04026e-05
8.03983e-05
8.03991e-05
8.04026e-05
8.0411e-05
8.04219e-05
8.04331e-05
8.04434e-05
8.04522e-05
8.0458e-05
8.04597e-05
8.04581e-05
8.04489e-05
8.04346e-05
8.04262e-05
8.04248e-05
8.04265e-05
8.04338e-05
8.04514e-05
8.04691e-05
8.04786e-05
8.04788e-05
8.04725e-05
8.0451e-05
8.04007e-05
8.02887e-05
8.00916e-05
7.98277e-05
7.95397e-05
7.92929e-05
7.91295e-05
7.90585e-05
7.90495e-05
7.90668e-05
7.91451e-05
7.92322e-05
7.93044e-05
7.93268e-05
7.93322e-05
7.92936e-05
)
;
    }
}


// ************************************************************************* //
