/*--------------------------------*- C++ -*----------------------------------*\
| =========                 |                                                 |
| \\      /  F ield         | OpenFOAM: The Open Source CFD Toolbox           |
|  \\    /   O peration     | Version:  v2012                                 |
|   \\  /    A nd           | Website:  www.openfoam.com                      |
|    \\/     M anipulation  |                                                 |
\*---------------------------------------------------------------------------*/
FoamFile
{
    version     2.0;
    format      ascii;
    class       volScalarField;
    location    "0.06";
    object      p;
}
// * * * * * * * * * * * * * * * * * * * * * * * * * * * * * * * * * * * * * //

dimensions      [0 2 -2 0 0 0 0];


internalField   nonuniform List<scalar> 
5600
(
-13.9618
-14.9267
-15.8801
-16.8716
-17.931
-19.0315
-20.1349
-21.204
-22.2222
-23.185
-24.0978
-24.9561
-25.7598
-26.5166
-27.2325
-27.9203
-28.5853
-29.2355
-29.8771
-30.5145
-31.1492
-31.7821
-32.4117
-33.0384
-33.6619
-34.2812
-34.8959
-35.5106
-36.1205
-36.7299
-37.3382
-37.9464
-38.5532
-39.1611
-39.7677
-40.3736
-40.9763
-41.5805
-42.1819
-42.7823
-43.3813
-43.9769
-44.5745
-45.1641
-45.7608
-46.3458
-46.9393
-47.525
-48.1114
-48.6977
-49.2752
-49.8627
-50.4331
-51.0211
-51.594
-52.1744
-52.7505
-53.3185
-53.8985
-54.4607
-55.0455
-55.6072
-56.191
-56.7568
-57.3253
-57.8958
-58.4464
-59.0178
-59.5522
-60.1179
-60.6508
-61.2069
-61.7489
-62.2808
-62.8384
-63.3516
-63.9212
-64.4306
-64.9927
-65.5195
-66.0529
-66.6136
-67.1217
-67.6975
-68.2044
-68.7696
-69.3024
-69.8294
-70.4007
-70.9016
-71.4844
-71.9941
-72.5482
-73.094
-73.6148
-74.1849
-74.6994
-75.2724
-75.7294
-76.3128
-14.0603
-14.9506
-15.8978
-16.8846
-17.941
-19.0408
-20.144
-21.2126
-22.2317
-23.1953
-24.1071
-24.9647
-25.7684
-26.5258
-27.2427
-27.932
-28.5985
-29.2503
-29.893
-30.531
-31.1667
-31.8003
-32.4305
-33.0575
-33.6812
-34.3006
-34.9155
-35.5306
-36.1405
-36.7501
-37.3586
-37.9671
-38.5739
-39.1824
-39.789
-40.3948
-40.998
-41.602
-42.2037
-42.8039
-43.4033
-43.9988
-44.5966
-45.1861
-45.7829
-46.3679
-46.9613
-47.5474
-48.1334
-48.7202
-49.2973
-49.8852
-50.4552
-51.0433
-51.6166
-52.1965
-52.7735
-53.3404
-53.9214
-54.4828
-55.0683
-55.6296
-56.2129
-56.7799
-57.3473
-57.9189
-58.4686
-59.0407
-59.5749
-60.1396
-60.6745
-61.2281
-61.7725
-62.3022
-62.8613
-63.3741
-63.9427
-64.455
-65.0125
-65.5442
-66.0737
-66.6367
-67.1442
-67.7188
-68.2292
-68.7888
-69.3273
-69.851
-70.4225
-70.9268
-71.5021
-72.0213
-72.5664
-73.1208
-73.6351
-74.2104
-74.721
-75.2924
-75.7491
-76.3508
-14.1419
-14.9716
-15.926
-16.913
-17.9632
-19.0573
-20.1557
-21.2212
-22.2362
-23.1987
-24.1088
-24.9655
-25.7689
-26.5263
-27.2431
-27.933
-28.6
-29.2519
-29.8948
-30.5335
-31.1696
-31.8035
-32.4337
-33.061
-33.6856
-34.3057
-34.921
-35.5366
-36.1468
-36.7571
-37.3658
-37.9743
-38.5813
-39.1896
-39.7963
-40.402
-41.0053
-41.6092
-42.2111
-42.8112
-43.4106
-44.006
-44.6039
-45.1933
-45.7901
-46.3752
-46.9685
-47.5549
-48.1405
-48.7276
-49.3045
-49.8925
-50.4627
-51.0504
-51.6243
-52.2033
-52.781
-53.3474
-53.9286
-54.49
-55.075
-55.6373
-56.2194
-56.788
-57.3539
-57.9267
-58.476
-59.0477
-59.5832
-60.147
-60.6836
-61.2357
-61.7817
-62.3106
-62.8698
-63.3836
-63.9501
-64.4652
-65.0197
-65.5543
-66.0817
-66.6454
-67.1539
-67.7257
-68.2396
-68.7955
-69.337
-69.8595
-70.4297
-70.937
-71.5077
-72.033
-72.5719
-73.1304
-73.6438
-74.2161
-74.7358
-75.2933
-75.7756
-76.3814
-14.233
-15.0018
-15.9544
-16.94
-17.9827
-19.0714
-20.1673
-21.2328
-22.2453
-23.2089
-24.12
-24.9779
-25.7827
-26.5413
-27.2597
-27.9492
-28.6171
-29.2691
-29.9116
-30.5494
-31.1843
-31.8168
-32.4458
-33.0719
-33.6962
-34.3161
-34.9313
-35.5469
-36.158
-36.7693
-37.3787
-37.9879
-38.5952
-39.2042
-39.8111
-40.4169
-41.0203
-41.6243
-42.2264
-42.8266
-43.4261
-44.0217
-44.6196
-45.2094
-45.8062
-46.3918
-46.9848
-47.5719
-48.1571
-48.7446
-49.3216
-49.9095
-50.4803
-51.0674
-51.6423
-52.2207
-52.7992
-53.3651
-53.9466
-54.5083
-55.0926
-55.6561
-56.2369
-56.8068
-57.3719
-57.9454
-58.4948
-59.0658
-59.603
-60.1637
-60.7032
-61.2522
-61.8003
-62.3281
-62.8866
-63.403
-63.9651
-64.4858
-65.0345
-65.5739
-66.0989
-66.6621
-67.1743
-67.7397
-68.2613
-68.8102
-69.3563
-69.8786
-70.444
-70.9614
-71.5201
-72.0556
-72.5894
-73.1472
-73.6679
-74.2263
-74.7609
-75.3017
-75.8044
-76.4161
-14.3253
-15.0328
-15.9802
-16.9673
-18.004
-19.0878
-20.1813
-21.2452
-22.257
-23.2205
-24.1316
-24.9892
-25.7945
-26.5532
-27.2731
-27.962
-28.6311
-29.284
-29.9273
-30.5657
-31.201
-31.8338
-32.4633
-33.0894
-33.7138
-34.3331
-34.9481
-35.5627
-36.1736
-36.7841
-37.3928
-38.0012
-38.6078
-39.2167
-39.8233
-40.4297
-41.0333
-41.6377
-42.2399
-42.8405
-43.44
-44.0361
-44.6337
-45.2243
-45.8206
-46.4075
-46.9995
-47.5873
-48.172
-48.7597
-49.3369
-49.9241
-50.4965
-51.0816
-51.6582
-52.235
-52.8144
-53.3799
-53.9606
-54.5241
-55.1063
-55.6732
-56.2506
-56.8232
-57.387
-57.9608
-58.5114
-59.0792
-59.6215
-60.1778
-60.7215
-61.2677
-61.8176
-62.3457
-62.9013
-63.4235
-63.978
-64.5066
-65.0485
-65.5923
-66.1166
-66.6763
-67.1956
-67.7513
-68.2826
-68.8245
-69.3734
-69.898
-70.4557
-70.9832
-71.5323
-72.0753
-72.6058
-73.1612
-73.6892
-74.236
-74.7839
-75.317
-75.8298
-76.4555
-14.4161
-15.0657
-16.0064
-16.9971
-18.0282
-19.1065
-20.1973
-21.2594
-22.2707
-23.2336
-24.1446
-25.0024
-25.8085
-26.5681
-27.2888
-27.9788
-28.649
-29.3026
-29.9464
-30.5849
-31.2202
-31.8529
-32.4824
-33.1084
-33.7325
-34.3517
-34.9672
-35.5816
-36.1932
-36.8034
-37.4125
-38.0206
-38.6274
-39.2356
-39.8425
-40.4481
-41.0519
-41.6552
-42.2571
-42.8572
-43.4559
-44.0525
-44.6486
-45.2407
-45.8353
-46.4241
-47.015
-47.6036
-48.1882
-48.7755
-49.3545
-49.9398
-50.5152
-51.0974
-51.6763
-52.2517
-52.8314
-53.3979
-53.9762
-54.5438
-55.1218
-55.693
-56.2666
-56.8416
-57.4054
-57.9777
-58.5327
-59.0954
-59.644
-60.1943
-60.7427
-61.2863
-61.8362
-62.3672
-62.9161
-63.4484
-63.9919
-64.5301
-65.0653
-65.6119
-66.1389
-66.6902
-67.2219
-67.7639
-68.3064
-68.8422
-69.3913
-69.9224
-70.4677
-71.0113
-71.5471
-72.0963
-72.6279
-73.1761
-73.7146
-74.2499
-74.8077
-75.3388
-75.856
-76.4951
-14.5025
-15.1007
-16.0336
-17.0284
-18.0542
-19.127
-20.2154
-21.276
-22.287
-23.2493
-24.1603
-25.0183
-25.825
-26.5852
-27.3068
-27.9978
-28.6683
-29.3224
-29.9666
-30.6053
-31.2407
-31.8734
-32.503
-33.1291
-33.7529
-34.3723
-34.9882
-35.6023
-36.2142
-36.8242
-37.4336
-38.0414
-38.6488
-39.2563
-39.864
-40.4688
-41.0736
-41.676
-42.2785
-42.8785
-43.4768
-44.0743
-44.6686
-45.2631
-45.8549
-46.4455
-47.0348
-47.6236
-48.2085
-48.7934
-49.376
-49.9566
-50.5359
-51.1141
-51.6949
-52.2701
-52.8479
-53.4183
-53.9921
-54.5655
-55.1381
-55.7142
-56.2842
-56.8608
-57.4265
-57.9953
-58.5576
-59.1125
-59.6681
-60.2124
-60.7651
-61.308
-61.8548
-62.3927
-62.9317
-63.4765
-64.0073
-64.5545
-65.0857
-65.631
-66.1657
-66.7044
-67.2515
-67.7788
-68.3308
-68.8642
-69.4091
-69.9502
-70.482
-71.0383
-71.5663
-72.1165
-72.6526
-73.1934
-73.7394
-74.2696
-74.8294
-75.3605
-75.8859
-76.5316
-14.5803
-15.1374
-16.062
-17.0606
-18.082
-19.1498
-20.2363
-21.2957
-22.3062
-23.2681
-24.179
-25.0374
-25.8445
-26.6052
-27.3275
-28.0193
-28.6902
-29.3448
-29.9895
-30.6284
-31.2639
-31.8966
-32.5262
-33.1524
-33.776
-34.3955
-35.0115
-35.6255
-36.2375
-36.8475
-37.4568
-38.0647
-38.6723
-39.2796
-39.8873
-40.492
-41.0969
-41.6992
-42.3018
-42.9017
-43.4999
-44.0976
-44.6915
-45.2871
-45.8777
-46.4696
-47.0579
-47.6467
-48.2324
-48.8155
-49.4018
-49.9784
-50.5613
-51.1367
-51.7177
-52.2938
-52.8688
-53.443
-54.0123
-54.5905
-55.1584
-55.7377
-56.3054
-56.882
-57.4496
-58.0146
-58.5835
-59.1308
-59.6932
-60.2342
-60.7887
-61.3326
-61.8749
-62.4204
-62.9499
-63.505
-64.0284
-64.5791
-65.1108
-65.6509
-66.1939
-66.7219
-67.2798
-67.8004
-68.3541
-68.8896
-69.4288
-69.9771
-70.5029
-71.0622
-71.5915
-72.1375
-72.6777
-73.2159
-73.7628
-74.2963
-74.8507
-75.3867
-75.9196
-76.5632
-14.6462
-15.1742
-16.0917
-17.0933
-18.1114
-19.1753
-20.2603
-21.3189
-22.3291
-23.2905
-24.2014
-25.0599
-25.8674
-26.6286
-27.3513
-28.0438
-28.715
-29.3701
-30.015
-30.654
-31.2897
-31.9224
-32.552
-33.1781
-33.8016
-34.4212
-35.0372
-35.6513
-36.2632
-36.8733
-37.4826
-38.0906
-38.6982
-39.3056
-39.913
-40.518
-41.1226
-41.7252
-42.3275
-42.9276
-43.5259
-44.1234
-44.7175
-45.3127
-45.9037
-46.4953
-47.0837
-47.6723
-48.2582
-48.8413
-49.4273
-50.0043
-50.5871
-51.1627
-51.7433
-52.3197
-52.894
-53.4694
-54.0382
-54.6174
-55.1844
-55.7643
-56.3318
-56.9072
-57.476
-58.039
-58.6098
-59.1562
-59.7194
-60.2618
-60.8134
-61.3597
-61.899
-62.4467
-62.9761
-63.5302
-64.0565
-64.604
-65.1383
-65.6752
-66.2199
-66.7484
-67.3039
-67.8291
-68.3781
-68.9165
-69.4541
-70.002
-70.5319
-71.085
-71.6194
-72.1622
-72.7039
-73.2431
-73.7876
-74.325
-74.8751
-75.4166
-75.9545
-76.5929
-14.6954
-15.2087
-16.1227
-17.126
-18.1422
-19.2038
-20.288
-21.3461
-22.3561
-23.3174
-24.2282
-25.0868
-25.8944
-26.6559
-27.3789
-28.0719
-28.7431
-29.3983
-30.0435
-30.6827
-31.3184
-31.9511
-32.5806
-33.2068
-33.8303
-34.4498
-35.0659
-35.68
-36.2919
-36.9022
-37.5114
-38.1194
-38.727
-39.3345
-39.9416
-40.5469
-41.1513
-41.7541
-42.3561
-42.9564
-43.5546
-44.152
-44.7465
-45.3411
-45.9327
-46.5239
-47.1127
-47.7009
-48.2869
-48.8704
-49.4553
-50.0339
-50.6154
-51.1922
-51.7718
-52.3483
-52.9229
-53.4977
-54.0676
-54.6449
-55.214
-55.792
-56.3614
-56.9348
-57.5048
-58.0677
-58.6369
-59.1872
-59.7458
-60.2931
-60.8406
-61.3889
-61.9277
-62.4741
-63.0075
-63.5563
-64.0877
-64.6307
-65.1676
-65.7042
-66.2474
-66.7803
-67.3298
-67.8607
-68.4053
-68.9455
-69.484
-70.0293
-70.5634
-71.1115
-71.6495
-72.1907
-72.7328
-73.273
-73.8158
-74.3558
-74.9035
-75.448
-75.9915
-76.6196
-14.7202
-15.237
-16.1531
-17.1563
-18.1722
-19.2341
-20.3185
-21.3766
-22.3867
-23.3479
-24.2588
-25.1173
-25.9247
-26.6863
-27.4092
-28.1023
-28.7733
-29.4285
-30.0738
-30.7131
-31.3489
-31.9815
-32.6109
-33.2372
-33.8606
-34.4801
-35.0962
-35.7102
-36.3222
-36.9325
-37.5417
-38.1497
-38.7572
-39.3649
-39.9719
-40.5772
-41.1816
-41.7846
-42.3865
-42.9867
-43.585
-44.1822
-44.777
-45.3713
-45.9631
-46.5541
-47.1432
-47.7311
-48.3172
-48.901
-49.4851
-50.0648
-50.6454
-51.2232
-51.802
-52.3785
-52.9533
-53.5277
-54.0985
-54.6744
-55.2452
-55.8216
-56.3926
-56.9647
-57.5351
-58.0984
-58.666
-59.2189
-59.7748
-60.3249
-60.8705
-61.4193
-61.9586
-62.5033
-63.0396
-63.5845
-64.1196
-64.66
-65.1982
-65.735
-66.2767
-66.8125
-67.3579
-67.8927
-68.4347
-68.9757
-69.5151
-70.0582
-70.5957
-71.1402
-71.6804
-72.221
-72.7629
-73.3043
-73.8456
-74.3879
-74.9339
-75.4803
-76.0279
-76.6401
-14.7182
-15.2565
-16.1803
-17.1813
-18.1986
-19.2631
-20.3487
-21.4073
-22.4178
-23.3791
-24.2901
-25.1485
-25.9555
-26.7168
-27.4393
-28.1322
-28.8028
-29.4578
-30.1029
-30.7422
-31.378
-32.0107
-32.6401
-33.2664
-33.8897
-34.5091
-35.1252
-35.7392
-36.3511
-36.9615
-37.5707
-38.1787
-38.7862
-39.394
-40.0009
-40.6061
-41.2106
-41.8136
-42.4155
-43.0157
-43.6141
-44.2112
-44.8061
-45.4002
-45.9922
-46.5832
-47.1723
-47.76
-48.3461
-48.9302
-49.5137
-50.0941
-50.6742
-51.2525
-51.831
-52.4074
-52.9824
-53.5565
-54.128
-54.703
-55.275
-55.8502
-56.4221
-56.9938
-57.5635
-58.1284
-58.694
-59.2488
-59.8037
-60.3543
-60.9001
-61.4475
-61.9883
-62.5313
-63.0694
-63.6124
-64.1494
-64.6885
-65.2269
-65.7645
-66.3046
-66.8427
-67.3853
-67.9227
-68.4633
-69.0043
-69.5446
-70.086
-70.6259
-71.1679
-71.7098
-72.2498
-72.7915
-73.3339
-73.8739
-74.4185
-74.9624
-75.5111
-76.0598
-76.657
-14.6945
-15.2689
-16.2031
-17.2005
-18.2208
-19.2896
-20.377
-21.4365
-22.4476
-23.4091
-24.3202
-25.1784
-25.985
-26.7458
-27.4676
-28.1601
-28.83
-29.4845
-30.1294
-30.7686
-31.4045
-32.0371
-32.6665
-33.2928
-33.9162
-34.5355
-35.1516
-35.7655
-36.3774
-36.9878
-37.597
-38.2049
-38.8123
-39.4204
-40.0271
-40.6324
-41.2368
-41.8399
-42.4418
-43.0419
-43.6404
-44.2374
-44.8324
-45.4265
-46.0187
-46.6096
-47.1988
-47.7863
-48.3724
-48.9567
-49.5398
-50.1207
-50.7006
-51.2791
-51.8571
-52.4336
-53.0086
-53.5824
-54.1544
-54.7282
-55.3017
-55.8757
-56.4486
-57.0203
-57.5894
-58.1554
-58.7193
-59.2756
-59.8301
-60.3803
-60.9276
-61.4727
-62.0154
-62.5567
-63.0963
-63.6376
-64.1761
-64.714
-65.253
-65.7908
-66.3301
-66.8696
-67.4103
-67.9498
-68.4886
-69.0309
-69.5704
-70.1119
-70.6526
-71.193
-71.7367
-72.2749
-72.819
-73.3591
-73.9006
-74.4455
-74.9877
-75.5399
-76.0853
-76.6735
-14.6541
-15.2771
-16.2223
-17.2153
-18.2397
-19.3137
-20.4035
-21.464
-22.4758
-23.4376
-24.3488
-25.2068
-26.0128
-26.773
-27.4938
-28.1859
-28.8552
-29.5091
-30.1537
-30.7927
-31.4286
-32.0612
-32.6906
-33.3168
-33.9403
-34.5595
-35.1755
-35.7895
-36.4013
-37.0116
-37.6208
-38.2287
-38.836
-39.4443
-40.0509
-40.6562
-41.2607
-41.8639
-42.4658
-43.0659
-43.6643
-44.2614
-44.8561
-45.45
-46.0424
-46.6334
-47.2225
-47.8097
-48.3962
-48.9801
-49.5635
-50.1444
-50.7244
-51.3034
-51.8809
-52.4582
-53.0326
-53.6069
-54.1793
-54.7528
-55.3273
-55.9008
-56.4747
-57.0456
-57.6153
-58.1807
-58.7439
-59.3005
-59.8544
-60.4042
-60.9523
-61.4965
-62.0392
-62.5804
-63.1201
-63.6607
-64.1999
-64.737
-65.277
-65.8137
-66.3543
-66.8927
-67.4337
-67.9737
-68.5114
-69.0552
-69.5931
-70.1364
-70.6754
-71.217
-71.7602
-72.2978
-72.8438
-73.3812
-73.926
-74.468
-75.0125
-75.5642
-76.1078
-76.6886
-14.6014
-15.2826
-16.2381
-17.2264
-18.2559
-19.3357
-20.4282
-21.49
-22.5026
-23.4646
-24.376
-25.2336
-26.0389
-26.7984
-27.5181
-28.2097
-28.8782
-29.5314
-30.1758
-30.8146
-31.4505
-32.0831
-32.7125
-33.3386
-33.9621
-34.5811
-35.1971
-35.8109
-36.4229
-37.0332
-37.6424
-38.2501
-38.8574
-39.4658
-40.0722
-40.6774
-41.282
-41.8851
-42.4869
-43.0871
-43.6856
-44.2828
-44.8777
-45.4718
-46.0644
-46.6555
-47.2451
-47.8324
-48.4196
-49.0034
-49.5876
-50.1684
-50.7487
-51.328
-51.9051
-52.4829
-53.0565
-53.6313
-54.2031
-54.7769
-55.3509
-55.9242
-56.4982
-57.068
-57.6382
-58.2026
-58.7661
-59.3221
-59.8762
-60.4259
-60.9735
-61.5181
-62.0602
-62.602
-63.141
-63.6822
-64.2209
-64.7584
-65.2985
-65.8346
-66.3763
-66.9132
-67.4557
-67.9945
-68.533
-69.0765
-69.6139
-70.1584
-70.6958
-71.2393
-71.7805
-72.3198
-72.8647
-73.4022
-73.9484
-74.4882
-75.0355
-75.5842
-76.1302
-76.7018
-14.5412
-15.2864
-16.2504
-17.2348
-18.2699
-19.3553
-20.4507
-21.5143
-22.5279
-23.4903
-24.4018
-25.2591
-26.0637
-26.8224
-27.541
-28.2317
-28.8991
-29.5517
-30.1956
-30.8343
-31.4703
-32.103
-32.7321
-33.3586
-33.982
-34.6008
-35.2166
-35.8302
-36.4419
-37.0521
-37.6614
-38.269
-38.8768
-39.4854
-40.0919
-40.6974
-41.3026
-41.9063
-42.5086
-43.1093
-43.708
-44.3057
-44.9007
-45.495
-46.0872
-46.678
-47.2675
-47.8546
-48.4417
-49.0251
-49.6094
-50.1898
-50.7702
-51.3493
-51.9263
-52.5041
-53.0774
-53.6528
-54.2241
-54.7983
-55.3718
-55.9453
-56.5189
-57.0884
-57.6588
-58.2221
-58.7861
-59.3414
-59.8958
-60.4455
-60.9926
-61.5377
-62.0791
-62.6215
-63.1599
-63.7019
-64.2397
-64.7781
-65.3175
-65.8538
-66.3958
-66.9319
-67.4755
-68.0131
-68.5529
-69.0953
-69.6333
-70.1777
-70.7145
-71.2593
-71.7988
-72.34
-72.8832
-73.4219
-73.9678
-74.5069
-75.056
-75.6022
-76.1507
-76.714
-14.4765
-15.2888
-16.2594
-17.2421
-18.2835
-19.3734
-20.4713
-21.5363
-22.5505
-23.513
-24.425
-25.2818
-26.0864
-26.8437
-27.5623
-28.2521
-28.9184
-29.5702
-30.2134
-30.8516
-31.4873
-32.1198
-32.7486
-33.3755
-33.9988
-34.6182
-35.2347
-35.8489
-36.4613
-37.0723
-37.6823
-38.2907
-38.8989
-39.5075
-40.1138
-40.719
-41.3239
-41.9274
-42.5294
-43.1299
-43.7284
-44.3259
-44.9207
-45.5146
-46.1066
-46.6972
-47.2868
-47.8738
-48.4609
-49.0442
-49.6285
-50.2087
-50.7892
-51.3682
-51.9452
-52.5229
-53.0962
-53.6717
-54.2427
-54.8172
-55.3902
-55.964
-56.5371
-57.1067
-57.6769
-58.2398
-58.804
-59.3586
-59.9133
-60.4628
-61.0097
-61.555
-62.0959
-62.6387
-63.1766
-63.7191
-64.2561
-64.7953
-65.3341
-65.8708
-66.4128
-66.9485
-67.4928
-68.0296
-68.5703
-69.1118
-69.6505
-70.1945
-70.7313
-71.2766
-71.8151
-72.3576
-72.8995
-73.4394
-73.9845
-74.5238
-75.0735
-75.6182
-76.1683
-76.7259
-14.41
-15.2889
-16.2622
-17.2459
-18.2965
-19.3921
-20.4924
-21.5591
-22.5739
-23.5357
-24.4473
-25.3029
-26.1066
-26.8622
-27.5809
-28.2695
-28.9353
-29.5871
-30.2308
-30.8697
-31.5066
-32.1405
-32.7707
-33.3984
-34.0218
-34.6417
-35.2582
-35.8719
-36.483
-37.0931
-37.7026
-38.3105
-38.9184
-39.5267
-40.1329
-40.7379
-41.3428
-41.9462
-42.5482
-43.1486
-43.7471
-44.3445
-44.9392
-45.533
-46.1248
-46.7153
-47.3049
-47.8919
-48.4789
-49.0621
-49.6464
-50.2265
-50.8071
-51.386
-51.9632
-52.5407
-53.1141
-53.6896
-54.2605
-54.8351
-55.4077
-55.9818
-56.5545
-57.1243
-57.6943
-58.2572
-58.8215
-59.3758
-59.9308
-60.4801
-61.0272
-61.5725
-62.1135
-62.6563
-63.1942
-63.737
-64.2736
-64.8134
-65.3516
-65.8888
-66.4304
-66.9662
-67.5106
-68.047
-68.5883
-69.129
-69.6686
-70.2119
-70.749
-71.2943
-71.8324
-72.3758
-72.9165
-73.4577
-74.0017
-74.5418
-75.0915
-75.6356
-76.187
-76.7392
-14.3508
-15.2949
-16.2611
-17.2407
-18.2972
-19.3978
-20.5033
-21.575
-22.5912
-23.5548
-24.4679
-25.3238
-26.1274
-26.8829
-27.6009
-28.2887
-28.9541
-29.6055
-30.2488
-30.8875
-31.5241
-32.1579
-32.7878
-33.4149
-34.0369
-34.6561
-35.272
-35.8853
-36.4959
-37.1055
-37.7148
-38.3225
-38.9302
-39.5385
-40.1446
-40.7495
-41.3543
-41.9576
-42.5594
-43.1597
-43.758
-44.3554
-44.9501
-45.5438
-46.1355
-46.726
-47.3154
-47.9023
-48.4892
-49.0725
-49.6566
-50.2367
-50.8172
-51.396
-51.9731
-52.5506
-53.124
-53.6993
-54.2703
-54.8449
-55.4175
-55.9917
-56.5642
-57.1342
-57.704
-58.2668
-58.831
-59.385
-59.9401
-60.4891
-61.0362
-61.5813
-62.1222
-62.665
-63.2027
-63.7457
-64.282
-64.8221
-65.36
-65.8974
-66.4389
-66.9748
-67.5193
-68.0554
-68.5971
-69.1375
-69.6774
-70.2204
-70.7577
-71.303
-71.8409
-72.3847
-72.9249
-73.4666
-74.0101
-74.5505
-75.1
-75.644
-76.1956
-76.7472
-14.2748
-15.3014
-16.2811
-17.2685
-18.3288
-19.4294
-20.5356
-21.6081
-22.6223
-23.5868
-24.5013
-25.358
-26.1617
-26.9168
-27.6339
-28.3205
-28.9845
-29.6347
-30.2767
-30.9143
-31.5499
-32.183
-32.8125
-33.4393
-34.0615
-34.6804
-35.2963
-35.9093
-36.5198
-37.1293
-37.7384
-38.346
-38.9535
-39.5615
-40.1676
-40.7724
-41.3771
-41.9803
-42.5821
-43.1823
-43.7807
-44.378
-44.9726
-45.5663
-46.1581
-46.7485
-47.338
-47.9249
-48.5117
-49.095
-49.679
-50.2592
-50.8397
-51.4184
-51.9956
-52.573
-53.1465
-53.7218
-54.2928
-54.8674
-55.4399
-56.0142
-56.5865
-57.1567
-57.7263
-58.2892
-58.8533
-59.4073
-59.9625
-60.5112
-61.0587
-61.6035
-62.1447
-62.6873
-63.2252
-63.768
-64.3043
-64.8446
-65.3822
-65.9201
-66.4611
-66.9973
-67.5416
-68.0778
-68.6197
-69.1596
-69.7001
-70.2425
-70.7804
-71.3253
-71.8634
-72.4072
-72.947
-73.4895
-74.032
-74.5734
-75.1221
-75.6666
-76.2181
-76.7681
-76.5
-80.316
-83.7313
-83.7124
-79.4807
-73.2231
-65.6461
-58.7346
-52.8948
-47.8903
-43.9926
-40.4466
-36.7604
-32.8338
-27.3676
-21.0872
-15.4904
-12.8222
-12.5905
-13.6356
-14.6353
-14.441
-11.896
-8.16153
-5.42818
-3.64778
-2.2035
-0.817388
0.51423
1.73492
2.85426
3.85117
4.57464
5.10404
5.47442
5.71779
5.87642
5.98577
6.05763
6.0993
6.11603
6.11307
6.09034
6.04797
5.99106
5.92397
5.85017
5.76384
5.66067
5.54977
5.43862
5.31972
5.21351
5.11823
5.029
4.93209
4.82322
4.7189
4.61404
4.50686
4.39905
4.2906
4.18168
4.07243
3.96297
3.85335
3.74364
3.63389
3.52411
3.41431
3.30449
3.19467
3.08484
2.97501
2.86518
2.75535
2.64551
2.53567
2.42584
2.316
2.20616
2.09632
1.98648
1.87665
1.7668
1.65696
1.5471
1.43723
1.32733
1.2174
1.10739
0.997254
0.886892
0.776158
0.664733
0.552214
0.437492
0.320184
0.195971
0.0714804
-76.6816
-79.9272
-83.2037
-83.2151
-79.1134
-72.9546
-65.4907
-58.6727
-52.8682
-47.8443
-43.9278
-40.3065
-36.5666
-32.6311
-27.209
-21.1477
-15.8183
-13.457
-13.4345
-14.5921
-15.549
-15.2328
-12.5013
-8.40785
-5.42642
-3.51559
-2.01586
-0.637976
0.643179
1.81959
2.91277
3.86966
4.56298
5.07981
5.44888
5.69404
5.85669
5.96865
6.04206
6.08454
6.10169
6.09892
6.07643
6.03419
5.97722
5.91031
5.83707
5.75017
5.64679
5.53541
5.42469
5.30743
5.20222
5.10633
5.01493
4.91903
4.81098
4.70634
4.60169
4.49441
4.38648
4.27796
4.16899
4.05971
3.95022
3.84059
3.73087
3.62112
3.51134
3.40153
3.29172
3.18189
3.07206
2.96223
2.8524
2.74257
2.63274
2.5229
2.41306
2.30322
2.19338
2.08355
1.97371
1.86387
1.75403
1.64419
1.53433
1.42447
1.31459
1.20467
1.0947
0.984616
0.874358
0.763805
0.6527
0.540723
0.426985
0.311176
0.189838
0.0682341
-76.7793
-79.7863
-82.803
-82.6674
-78.7218
-72.6221
-65.3125
-58.5885
-52.807
-47.7781
-43.8181
-40.0993
-36.3183
-32.3222
-27.0362
-21.1695
-16.1527
-14.1286
-14.3602
-15.6552
-16.5789
-16.1044
-13.1792
-8.69598
-5.40939
-3.34247
-1.78812
-0.41856
0.801545
1.92763
2.98481
3.88686
4.55152
5.05497
5.42128
5.66843
5.83532
5.95005
6.02507
6.0683
6.08582
6.08328
6.06112
6.01906
5.96205
5.89541
5.82257
5.73518
5.63148
5.51967
5.40907
5.29393
5.19003
5.09358
5.00057
4.90321
4.79717
4.69269
4.58785
4.48059
4.37257
4.26396
4.15493
4.04561
3.93611
3.82646
3.71674
3.60698
3.4972
3.38739
3.27757
3.16775
3.05792
2.94809
2.83826
2.72843
2.61859
2.50876
2.39892
2.28908
2.17924
2.06941
1.95957
1.84973
1.73989
1.63005
1.5202
1.41034
1.30047
1.19058
1.08064
0.970625
0.860485
0.750134
0.639388
0.528017
0.415378
0.301249
0.183106
0.064705
-76.8991
-79.657
-82.4011
-82.1667
-78.3194
-72.2668
-65.1315
-58.5038
-52.7112
-47.6961
-43.6331
-39.7934
-35.9728
-31.8976
-26.8393
-21.0972
-16.4735
-14.8444
-15.3738
-16.8303
-17.7338
-17.0813
-13.913
-9.05144
-5.3805
-3.11671
-1.50874
-0.15266
0.996812
2.06446
3.06637
3.90647
4.54099
5.02969
5.391
5.64078
5.81203
5.92974
6.00648
6.05044
6.06831
6.06606
6.0443
6.00248
5.94545
5.87914
5.80659
5.71873
5.61452
5.50233
5.39188
5.27894
5.17665
5.07959
4.98559
4.88522
4.78173
4.67787
4.57239
4.46522
4.35714
4.24845
4.13936
4.03001
3.92048
3.81082
3.70109
3.59133
3.48154
3.37173
3.26192
3.15209
3.04226
2.93243
2.8226
2.71277
2.60293
2.4931
2.38326
2.27342
2.16358
2.05375
1.94391
1.83408
1.72424
1.6144
1.50455
1.3947
1.28484
1.17497
1.06508
0.955136
0.845127
0.735002
0.624657
0.513963
0.402549
0.290296
0.175697
0.0608604
-77.0128
-79.4987
-81.959
-81.6532
-77.901
-71.9311
-64.9813
-58.4302
-52.597
-47.6054
-43.3546
-39.3791
-35.4796
-31.3605
-26.4912
-20.9002
-16.8337
-15.6196
-16.4764
-18.1197
-19.0181
-18.179
-14.6884
-9.46075
-5.35197
-2.83792
-1.15545
0.167025
1.23689
2.23036
3.15573
3.93051
4.53101
5.00253
5.35823
5.61075
5.78649
5.90748
5.98609
6.03083
6.04903
6.04709
6.02585
5.98431
5.9273
5.86135
5.789
5.70072
5.59594
5.48351
5.37275
5.2621
5.16161
5.06425
4.96811
4.8663
4.76498
4.66147
4.55536
4.44817
4.34003
4.23126
4.12212
4.01273
3.90319
3.7935
3.68376
3.574
3.46421
3.3544
3.24458
3.13476
3.02493
2.9151
2.80527
2.69544
2.5856
2.47576
2.36592
2.25609
2.14625
2.03641
1.92658
1.81674
1.70691
1.59707
1.48723
1.37739
1.26754
1.1577
1.04785
0.937991
0.828127
0.718253
0.608354
0.498413
0.388359
0.278195
0.167516
0.0566528
-77.1112
-79.309
-81.4723
-81.0856
-77.4273
-71.5829
-64.8667
-58.373
-52.501
-47.4805
-42.9859
-38.8407
-34.7846
-30.6111
-25.9091
-20.7243
-17.266
-16.4352
-17.6534
-19.5104
-20.4174
-19.3767
-15.5224
-9.90018
-5.31571
-2.51818
-0.722018
0.544031
1.52365
2.42058
3.25322
3.95841
4.52096
4.9729
5.32266
5.57787
5.7584
5.88306
5.96377
6.00935
6.02787
6.02626
6.00563
5.96441
5.90745
5.84189
5.76964
5.68107
5.57585
5.46337
5.3516
5.24262
5.14449
5.04734
4.94821
4.84652
4.74649
4.64302
4.53677
4.4294
4.3211
4.21221
4.10301
3.99358
3.88402
3.77432
3.66457
3.5548
3.44501
3.3352
3.22538
3.11556
3.00573
2.8959
2.78607
2.67624
2.5664
2.45656
2.34672
2.23689
2.12705
2.01721
1.90738
1.79755
1.68771
1.57787
1.46804
1.35821
1.24838
1.13857
1.02877
0.919
0.809297
0.699702
0.590295
0.481189
0.37264
0.264789
0.158441
0.0520095
-77.1921
-79.0889
-80.9429
-80.4602
-76.8941
-71.2194
-64.7206
-58.2851
-52.4229
-47.2804
-42.5494
-38.1717
-33.8814
-29.6357
-25.236
-20.6063
-17.6896
-17.2623
-18.8812
-20.9655
-21.8819
-20.6192
-16.3925
-10.3676
-5.2702
-2.14908
-0.221905
0.971424
1.84738
2.62828
3.35702
3.98872
4.5096
4.94051
5.28405
5.54193
5.72753
5.85625
5.93935
5.9859
6.00475
6.00348
5.98352
5.94264
5.88568
5.82048
5.74831
5.65952
5.554
5.44152
5.329
5.22021
5.12511
5.02807
4.92669
4.82528
4.72572
4.62248
4.51631
4.40872
4.30022
4.19118
4.08189
3.97241
3.86283
3.75313
3.64335
3.53357
3.42377
3.31396
3.20414
3.09432
2.98449
2.87466
2.76483
2.65499
2.54516
2.43532
2.32548
2.21565
2.10581
1.99597
1.88614
1.77631
1.66647
1.55664
1.44681
1.33699
1.22718
1.1174
1.00766
0.897989
0.788463
0.679173
0.570308
0.462117
0.355223
0.249921
0.14835
0.046858
-77.2536
-78.85
-80.3728
-79.7748
-76.3155
-70.8398
-64.5181
-58.1696
-52.3086
-46.9905
-42.033
-37.3752
-32.8693
-28.5874
-24.5154
-20.4108
-18.0731
-18.0811
-20.1025
-22.3933
-23.3412
-21.8536
-17.2171
-10.7854
-5.25209
-1.73309
0.336792
1.45222
2.20087
2.85012
3.4664
4.01956
4.4953
4.90456
5.242
5.50271
5.69373
5.82694
5.91272
5.96039
5.97962
5.97867
5.95934
5.91867
5.86183
5.79689
5.72475
5.6358
5.53005
5.41772
5.3049
5.1956
5.10284
5.0058
4.90361
4.80205
4.70266
4.59978
4.49358
4.38576
4.27708
4.16789
4.05849
3.94895
3.83933
3.72937
3.6198
3.51003
3.40023
3.29041
3.18059
3.07077
2.96094
2.85111
2.74128
2.63144
2.52161
2.41177
2.30193
2.1921
2.08226
1.97243
1.86259
1.75276
1.64293
1.5331
1.42328
1.31347
1.20368
1.09393
0.984247
0.874689
0.765356
0.656399
0.548124
0.440932
0.335849
0.23333
0.137032
0.0410306
-77.2907
-78.6013
-79.7779
-79.054
-75.7073
-70.4275
-64.2775
-58.0366
-52.1374
-46.6482
-41.4518
-36.4875
-31.7699
-27.4594
-23.6515
-20.1724
-18.4293
-18.8393
-21.1895
-23.6981
-24.7288
-23.0338
-17.9344
-11.1129
-5.20211
-1.26882
0.951703
1.98591
2.57805
3.08023
3.57924
4.05101
4.47798
4.8645
5.19598
5.45977
5.65658
5.7948
5.88368
5.93271
5.95244
5.95178
5.93289
5.89222
5.83562
5.77085
5.69871
5.60968
5.50368
5.39163
5.27888
5.16946
5.07688
4.98083
4.87839
4.77645
4.67711
4.57467
4.46834
4.36031
4.25147
4.14214
4.03265
3.92305
3.81341
3.70368
3.59382
3.48402
3.37422
3.2644
3.15458
3.04475
2.93492
2.82509
2.71526
2.60543
2.49559
2.38575
2.27592
2.16608
2.05624
1.94641
1.83658
1.72675
1.61692
1.50709
1.39728
1.28748
1.17771
1.068
0.958381
0.84894
0.739814
0.631214
0.523575
0.417456
0.314337
0.214824
0.124347
0.0344089
-77.3003
-78.3498
-79.189
-78.3357
-75.0921
-69.9999
-64.02
-57.8717
-51.9253
-46.2664
-40.8035
-35.5094
-30.5489
-26.2108
-22.6949
-19.9108
-18.719
-19.4799
-22.0325
-24.805
-25.9339
-24.0626
-18.5361
-11.3687
-5.03396
-0.741297
1.58786
2.54859
2.983
3.31765
3.68779
4.07996
4.45842
4.82158
5.14693
5.41385
5.61657
5.76009
5.85241
5.90296
5.92319
5.92272
5.90396
5.86296
5.80672
5.74218
5.67004
5.58094
5.47465
5.36292
5.25048
5.14141
5.04735
4.95306
4.85063
4.74818
4.64873
4.5468
4.44031
4.33202
4.22299
4.11349
4.00391
3.89425
3.78459
3.67473
3.56494
3.45514
3.34533
3.23551
3.12569
3.01586
2.90603
2.7962
2.68637
2.57653
2.4667
2.35686
2.24702
2.13719
2.02735
1.91752
1.80769
1.69786
1.58803
1.47821
1.3684
1.25862
1.14887
1.0392
0.92965
0.820334
0.711428
0.603209
0.496247
0.391266
0.290258
0.193936
0.109897
0.0265924
-77.2877
-78.1173
-78.6576
-77.6797
-74.5215
-69.5999
-63.7745
-57.6969
-51.7046
-45.8774
-40.1323
-34.4932
-29.2926
-24.9644
-21.7608
-19.6268
-18.918
-19.9366
-22.5782
-25.5711
-26.7923
-24.7706
-18.9595
-11.481
-4.79291
-0.238126
2.15405
3.07005
3.38432
3.56311
3.79384
4.10433
4.43976
4.7815
5.09934
5.36807
5.5766
5.72543
5.82103
5.87301
5.8937
5.8932
5.87394
5.8325
5.77672
5.71202
5.63963
5.5505
5.44426
5.33285
5.22088
5.1125
5.01618
4.9235
4.82154
4.71869
4.61897
4.51746
4.41085
4.30235
4.19318
4.08352
3.97386
3.86412
3.75447
3.64453
3.53471
3.4249
3.31508
3.20526
3.09544
2.98561
2.87578
2.76595
2.65611
2.54628
2.43644
2.32661
2.21677
2.10693
1.9971
1.88727
1.77743
1.66761
1.55778
1.44797
1.33816
1.22839
1.11867
1.00903
0.899552
0.790358
0.681667
0.573819
0.467524
0.363657
0.264768
0.171573
0.0942969
0.0177474
-77.2657
-77.9255
-78.2295
-77.142
-74.0496
-69.2699
-63.5708
-57.5474
-51.5068
-45.5253
-39.5245
-33.5743
-28.1753
-23.8986
-21.0054
-19.3954
-19.0615
-20.1843
-22.8585
-25.9635
-27.2532
-25.0967
-19.1343
-11.4398
-4.54686
0.151914
2.57695
3.45962
3.69079
3.77031
3.89832
4.12829
4.42536
4.75048
5.06132
5.32862
5.54056
5.69489
5.79337
5.84607
5.86659
5.86548
5.84562
5.80351
5.74791
5.68329
5.61039
5.52139
5.41553
5.30415
5.19272
5.08532
4.98679
4.895
4.79383
4.69085
4.59078
4.48935
4.38267
4.27396
4.16462
4.05478
3.94506
3.83526
3.72531
3.61566
3.50583
3.39601
3.28619
3.17636
3.06654
2.95671
2.84688
2.73704
2.62721
2.51738
2.40754
2.2977
2.18787
2.07803
1.9682
1.85837
1.74853
1.63871
1.52888
1.41907
1.30928
1.19952
1.08981
0.980213
0.870788
0.761703
0.653202
0.54568
0.439974
0.337079
0.240101
0.149592
0.0787613
0.00825872
-77.2432
-77.7793
-77.9086
-76.7319
-73.687
-69.0121
-63.4057
-57.4244
-51.3423
-45.2339
-39.0218
-32.8202
-27.2791
-23.0773
-20.4539
-19.2412
-19.1925
-20.3223
-22.9875
-26.0996
-27.4164
-25.1516
-19.1127
-11.3189
-4.33425
0.429304
2.86552
3.71874
3.89087
3.90738
3.97677
4.15067
4.41937
4.7293
5.03355
5.29858
5.51151
5.66917
5.77003
5.82303
5.84287
5.84075
5.82029
5.77945
5.72256
5.65725
5.58327
5.4947
5.38986
5.27841
5.16744
5.06124
4.96035
4.86895
4.76876
4.66594
4.56551
4.46397
4.35733
4.24851
4.13909
4.02908
3.91931
3.80938
3.69943
3.58971
3.47987
3.37004
3.26021
3.15039
3.04056
2.93072
2.82089
2.71106
2.60123
2.49139
2.38156
2.27172
2.16189
2.05205
1.94222
1.83238
1.72255
1.61273
1.5029
1.3931
1.2833
1.17355
1.06386
0.954292
0.844911
0.735912
0.627563
0.520302
0.415074
0.312959
0.217595
0.129199
0.0641977
-0.00139386
-77.2257
-77.6748
-77.6757
-76.434
-73.4198
-68.8199
-63.2802
-57.324
-51.213
-45.0059
-38.6273
-32.2278
-26.5829
-22.4581
-20.057
-19.174
-19.3163
-20.4435
-23.0471
-26.1073
-27.4114
-25.0599
-18.9836
-11.1677
-4.16041
0.618032
3.0511
3.88074
4.01569
3.99067
4.02374
4.1704
4.41636
4.71127
5.01067
5.27469
5.48811
5.64688
5.74891
5.80234
5.82194
5.81887
5.79758
5.75824
5.70076
5.63463
5.56041
5.4712
5.36659
5.25515
5.14484
5.03886
4.93726
4.84542
4.74601
4.64339
4.54264
4.44076
4.33413
4.2251
4.11557
4.00544
3.89575
3.78579
3.67585
3.56609
3.45625
3.34642
3.23659
3.12677
3.01693
2.9071