/*--------------------------------*- C++ -*----------------------------------*\
| =========                 |                                                 |
| \\      /  F ield         | OpenFOAM: The Open Source CFD Toolbox           |
|  \\    /   O peration     | Version:  v2012                                 |
|   \\  /    A nd           | Website:  www.openfoam.com                      |
|    \\/     M anipulation  |                                                 |
\*---------------------------------------------------------------------------*/
FoamFile
{
    version     2.0;
    format      ascii;
    class       volVectorField;
    location    "0.06";
    object      U.air;
}
// * * * * * * * * * * * * * * * * * * * * * * * * * * * * * * * * * * * * * //

dimensions      [0 1 -1 0 0 0 0];


internalField   nonuniform List<vector> 
5600
(
(18.5971 0.0138355 0)
(18.1356 0.0316176 0)
(17.5522 0.0442723 0)
(16.8968 0.0497322 0)
(16.2183 0.0479645 0)
(15.5627 0.0414566 0)
(14.9535 0.032778 0)
(14.4135 0.0235313 0)
(13.9494 0.0153275 0)
(13.5499 0.00860973 0)
(13.2187 0.00287713 0)
(12.9531 -0.00193426 0)
(12.7488 -0.00570802 0)
(12.5966 -0.00840709 0)
(12.4892 -0.0100884 0)
(12.4163 -0.0108023 0)
(12.3699 -0.0107606 0)
(12.34 -0.0101341 0)
(12.3228 -0.0093165 0)
(12.3119 -0.00857211 0)
(12.3057 -0.0078981 0)
(12.3008 -0.00724798 0)
(12.2975 -0.00674566 0)
(12.2942 -0.00630698 0)
(12.2926 -0.00607806 0)
(12.2915 -0.00594468 0)
(12.2919 -0.00589768 0)
(12.2926 -0.00578341 0)
(12.2945 -0.00570948 0)
(12.2963 -0.00566543 0)
(12.2993 -0.00556066 0)
(12.3006 -0.00544975 0)
(12.3033 -0.00526318 0)
(12.3031 -0.00508178 0)
(12.304 -0.00487104 0)
(12.3018 -0.00468883 0)
(12.302 -0.00452378 0)
(12.2975 -0.00437818 0)
(12.2974 -0.00424774 0)
(12.2914 -0.00415983 0)
(12.2916 -0.0040708 0)
(12.2848 -0.00399959 0)
(12.2849 -0.00392546 0)
(12.2782 -0.00390476 0)
(12.2781 -0.00385347 0)
(12.2727 -0.00386563 0)
(12.2716 -0.00386171 0)
(12.2689 -0.00379137 0)
(12.2651 -0.00387269 0)
(12.2652 -0.00376035 0)
(12.2598 -0.00384182 0)
(12.2608 -0.00375649 0)
(12.2562 -0.00385522 0)
(12.2561 -0.00382241 0)
(12.2551 -0.00378511 0)
(12.251 -0.0038773 0)
(12.2548 -0.00370132 0)
(12.2467 -0.00384378 0)
(12.253 -0.00362076 0)
(12.2429 -0.00374843 0)
(12.2484 -0.00358119 0)
(12.24 -0.00362351 0)
(12.2407 -0.00368113 0)
(12.2388 -0.00348082 0)
(12.2311 -0.00372115 0)
(12.2363 -0.00350288 0)
(12.2248 -0.00372885 0)
(12.2318 -0.00359063 0)
(12.2227 -0.00377424 0)
(12.2258 -0.00393816 0)
(12.2262 -0.00371235 0)
(12.2179 -0.00421846 0)
(12.2321 -0.00379355 0)
(12.2135 -0.00416405 0)
(12.2338 -0.00393883 0)
(12.2152 -0.00411534 0)
(12.2303 -0.00410776 0)
(12.2232 -0.00379109 0)
(12.2195 -0.00450633 0)
(12.2374 -0.00360743 0)
(12.2096 -0.00425829 0)
(12.2419 -0.00392914 0)
(12.211 -0.00402841 0)
(12.2366 -0.00407826 0)
(12.2198 -0.0036404 0)
(12.2225 -0.00448982 0)
(12.2349 -0.00348759 0)
(12.2105 -0.00402707 0)
(12.2344 -0.00412849 0)
(12.217 -0.00346211 0)
(12.2174 -0.00470353 0)
(12.2394 -0.00301929 0)
(12.1897 -0.00472773 0)
(12.2552 -0.00331851 0)
(12.1753 -0.00412366 0)
(12.2534 -0.00338712 0)
(12.1696 -0.00291155 0)
(12.2214 -0.0059645 0)
(12.2142 0.00188264 0)
(12.0427 -0.00886596 0)
(18.7901 0.0365616 0)
(18.8039 0.0482983 0)
(18.7962 0.0516847 0)
(18.7577 0.0559501 0)
(18.685 0.0582991 0)
(18.5783 0.058625 0)
(18.4416 0.0574267 0)
(18.2776 0.0549774 0)
(18.0939 0.0510618 0)
(17.8981 0.0468455 0)
(17.6954 0.0420864 0)
(17.4902 0.0369267 0)
(17.2864 0.031687 0)
(17.0883 0.0266507 0)
(16.9007 0.0219406 0)
(16.7253 0.0178822 0)
(16.5644 0.0145541 0)
(16.4177 0.0118638 0)
(16.2869 0.00967655 0)
(16.17 0.0078912 0)
(16.0677 0.006573 0)
(15.9773 0.00557516 0)
(15.9 0.00479569 0)
(15.8327 0.00409834 0)
(15.7771 0.0036061 0)
(15.7266 0.00323871 0)
(15.6845 0.00292463 0)
(15.6452 0.00266592 0)
(15.6139 0.0024206 0)
(15.5822 0.00229073 0)
(15.5553 0.00219795 0)
(15.5274 0.00213265 0)
(15.504 0.00205317 0)
(15.4792 0.00206732 0)
(15.4593 0.00205195 0)
(15.4375 0.00197415 0)
(15.4209 0.00199281 0)
(15.4015 0.00192675 0)
(15.388 0.00191355 0)
(15.371 0.00181489 0)
(15.3598 0.00178862 0)
(15.345 0.00168313 0)
(15.3354 0.00164263 0)
(15.3232 0.00153514 0)
(15.3144 0.00151931 0)
(15.305 0.00140837 0)
(15.2959 0.00134821 0)
(15.2891 0.00137463 0)
(15.2795 0.00123908 0)
(15.2745 0.00130384 0)
(15.2657 0.00117408 0)
(15.2608 0.00122179 0)
(15.2546 0.00108465 0)
(15.2474 0.00106969 0)
(15.2451 0.00106732 0)
(15.2357 0.000941935 0)
(15.2365 0.00102963 0)
(15.2271 0.000900689 0)
(15.2279 0.00107212 0)
(15.2201 0.000931211 0)
(15.2184 0.00107482 0)
(15.2147 0.00107333 0)
(15.2071 0.00100628 0)
(15.2074 0.00118004 0)
(15.1977 0.000967836 0)
(15.1993 0.00109357 0)
(15.191 0.000938514 0)
(15.1915 0.00101478 0)
(15.1883 0.000940197 0)
(15.1842 0.000913569 0)
(15.1879 0.001052 0)
(15.1801 0.000846196 0)
(15.1874 0.00102084 0)
(15.1793 0.000858928 0)
(15.1861 0.000982634 0)
(15.182 0.000869543 0)
(15.1824 0.000892495 0)
(15.188 0.00108109 0)
(15.1788 0.000660175 0)
(15.1909 0.00109199 0)
(15.179 0.00083848 0)
(15.1902 0.000969648 0)
(15.182 0.000922305 0)
(15.1849 0.00088385 0)
(15.1884 0.0011443 0)
(15.1789 0.000620087 0)
(15.1895 0.00115142 0)
(15.1788 0.000959921 0)
(15.1856 0.000857336 0)
(15.1828 0.00117593 0)
(15.1767 0.000405037 0)
(15.1866 0.00145371 0)
(15.173 0.000698285 0)
(15.1799 0.00119287 0)
(15.1779 0.00110911 0)
(15.1605 0.001043 0)
(15.1918 0.00223638 0)
(15.1391 -0.000471034 0)
(15.204 0.00676369 0)
(15.0986 -0.00502655 0)
(18.7905 0.0259478 0)
(18.8272 0.0395454 0)
(18.8715 0.0482978 0)
(18.9163 0.05608 0)
(18.9583 0.0604873 0)
(18.9944 0.0615063 0)
(19.0214 0.0601134 0)
(19.0363 0.0562425 0)
(19.0337 0.0532674 0)
(19.0183 0.0489959 0)
(18.9877 0.0443127 0)
(18.9407 0.0395956 0)
(18.8767 0.0351723 0)
(18.796 0.0310795 0)
(18.6999 0.027464 0)
(18.5901 0.024125 0)
(18.469 0.0213573 0)
(18.3397 0.0189582 0)
(18.2063 0.0167899 0)
(18.0715 0.0148473 0)
(17.9404 0.0130336 0)
(17.8147 0.0112854 0)
(17.6984 0.00961122 0)
(17.5904 0.00792643 0)
(17.4939 0.0064592 0)
(17.4051 0.00518576 0)
(17.3281 0.00410248 0)
(17.2561 0.00315313 0)
(17.1951 0.00243016 0)
(17.1349 0.00200545 0)
(17.0848 0.00171912 0)
(17.0337 0.00151235 0)
(16.9923 0.00132679 0)
(16.9498 0.00118922 0)
(16.9161 0.00105008 0)
(16.8805 0.000876136 0)
(16.8531 0.000727311 0)
(16.8229 0.000539806 0)
(16.8005 0.000389395 0)
(16.7745 0.000194197 0)
(16.756 7.36435e-05 0)
(16.7339 -0.000110796 0)
(16.7182 -0.00022993 0)
(16.7002 -0.000377301 0)
(16.6857 -0.000438536 0)
(16.6717 -0.000526635 0)
(16.6565 -0.000610226 0)
(16.6459 -0.000596713 0)
(16.6312 -0.000739888 0)
(16.6226 -0.000717763 0)
(16.6101 -0.000837521 0)
(16.6013 -0.00083887 0)
(16.5928 -0.000905956 0)
(16.5809 -0.000965377 0)
(16.5773 -0.000945289 0)
(16.5637 -0.00106975 0)
(16.5634 -0.00101261 0)
(16.5511 -0.00112018 0)
(16.5502 -0.000996531 0)
(16.542 -0.00108711 0)
(16.5369 -0.00101982 0)
(16.5338 -0.000947585 0)
(16.5227 -0.000991224 0)
(16.5237 -0.00086974 0)
(16.5121 -0.00105492 0)
(16.5132 -0.000955207 0)
(16.5045 -0.00116146 0)
(16.5033 -0.00118996 0)
(16.5017 -0.00126606 0)
(16.4946 -0.00151395 0)
(16.4997 -0.00148118 0)
(16.4905 -0.0017537 0)
(16.4978 -0.00161199 0)
(16.4902 -0.00187197 0)
(16.4951 -0.00175191 0)
(16.494 -0.00183725 0)
(16.4901 -0.00195163 0)
(16.4995 -0.00173508 0)
(16.4884 -0.00203735 0)
(16.5008 -0.00168709 0)
(16.4899 -0.00194534 0)
(16.4985 -0.00174241 0)
(16.4944 -0.00173249 0)
(16.4918 -0.00190972 0)
(16.5007 -0.00152807 0)
(16.4885 -0.00189645 0)
(16.4991 -0.00152995 0)
(16.4897 -0.00164007 0)
(16.494 -0.00182903 0)
(16.4942 -0.00117201 0)
(16.4866 -0.00207693 0)
(16.4936 -0.00101001 0)
(16.487 -0.00153925 0)
(16.4837 -0.00151627 0)
(16.4933 -0.000823358 0)
(16.4694 -0.00177818 0)
(16.4999 -0.000134077 0)
(16.4629 -0.00242527 0)
(16.4909 0.00497644 0)
(16.4702 -0.00362018 0)
(18.7889 0.0234246 0)
(18.8253 0.0378621 0)
(18.8727 0.0450895 0)
(18.9241 0.0512389 0)
(18.978 0.0545635 0)
(19.0328 0.0551886 0)
(19.0875 0.0541189 0)
(19.1385 0.0523721 0)
(19.1851 0.0496888 0)
(19.2254 0.0469877 0)
(19.2617 0.0442587 0)
(19.2908 0.0417076 0)
(19.3143 0.0393172 0)
(19.3296 0.0372519 0)
(19.339 0.035072 0)
(19.3379 0.0339548 0)
(19.3295 0.0326422 0)
(19.312 0.0314253 0)
(19.2843 0.0302495 0)
(19.2458 0.028997 0)
(19.1962 0.0275489 0)
(19.1354 0.0258702 0)
(19.0642 0.0240685 0)
(18.9832 0.0221358 0)
(18.8945 0.0202895 0)
(18.8004 0.018454 0)
(18.7049 0.0167192 0)
(18.6077 0.0149052 0)
(18.5169 0.0133371 0)
(18.4263 0.0118982 0)
(18.3496 0.0107025 0)
(18.272 0.00958669 0)
(18.2093 0.00857526 0)
(18.1448 0.00771502 0)
(18.0938 0.00697433 0)
(18.04 0.00636775 0)
(17.9967 0.00589322 0)
(17.9494 0.00543297 0)
(17.9127 0.00503675 0)
(17.8717 0.00465376 0)
(17.8405 0.00431637 0)
(17.8056 0.00399895 0)
(17.7787 0.00366872 0)
(17.7502 0.00337689 0)
(17.726 0.00308285 0)
(17.7042 0.0029216 0)
(17.6805 0.00265557 0)
(17.6639 0.00253631 0)
(17.6426 0.0022774 0)
(17.6285 0.00215819 0)
(17.6109 0.00197909 0)
(17.5968 0.0018139 0)
(17.5846 0.00179065 0)
(17.5674 0.00155217 0)
(17.561 0.00152964 0)
(17.5432 0.00127577 0)
(17.54 0.00122976 0)
(17.5245 0.00106242 0)
(17.5206 0.00103489 0)
(17.5108 0.00105349 0)
(17.5022 0.000988471 0)
(17.4981 0.00122481 0)
(17.4839 0.00107623 0)
(17.4843 0.00110705 0)
(17.4706 0.000930378 0)
(17.4709 0.000885158 0)
(17.4615 0.00065119 0)
(17.4584 0.000313865 0)
(17.4575 0.000339944 0)
(17.4485 -9.22367e-05 0)
(17.4541 -9.63445e-05 0)
(17.444 -0.000406341 0)
(17.4512 -0.000375666 0)
(17.4437 -0.000591222 0)
(17.4477 -0.000661733 0)
(17.4479 -0.000521504 0)
(17.4422 -0.000902437 0)
(17.4526 -0.00059719 0)
(17.4411 -0.000851938 0)
(17.4535 -0.000606253 0)
(17.4432 -0.000658366 0)
(17.4504 -0.000689096 0)
(17.4484 -0.000334892 0)
(17.4436 -0.000887106 0)
(17.4537 -0.000282185 0)
(17.4417 -0.000550906 0)
(17.4515 -0.000341203 0)
(17.4431 -0.000214316 0)
(17.4459 -0.000763432 0)
(17.4476 0.000274903 0)
(17.4397 -0.000725457 0)
(17.445 9.3071e-05 0)
(17.441 0.000110391 0)
(17.4368 -0.000503439 0)
(17.4439 0.000964656 0)
(17.4326 -0.000575805 0)
(17.4427 0.00109971 0)
(17.4346 -0.000832072 0)
(17.427 0.00529843 0)
(17.4444 -0.00162679 0)
(18.7873 0.0198205 0)
(18.8223 0.0334238 0)
(18.8695 0.0390359 0)
(18.9213 0.0442766 0)
(18.976 0.0475178 0)
(19.0324 0.0483718 0)
(19.0896 0.0477718 0)
(19.1445 0.0461829 0)
(19.1972 0.0440813 0)
(19.246 0.0417446 0)
(19.2926 0.0392208 0)
(19.3348 0.0367004 0)
(19.3747 0.0343327 0)
(19.4105 0.0321835 0)
(19.4444 0.0304665 0)
(19.4745 0.0289695 0)
(19.5035 0.0278729 0)
(19.5289 0.0271982 0)
(19.5534 0.0267827 0)
(19.5738 0.0265206 0)
(19.5927 0.0262739 0)
(19.6065 0.0260155 0)
(19.6175 0.0257523 0)
(19.6215 0.0254043 0)
(19.6193 0.0251591 0)
(19.6106 0.0246122 0)
(19.5939 0.0240014 0)
(19.5686 0.0231082 0)
(19.5348 0.0222412 0)
(19.4927 0.0211814 0)
(19.4444 0.0200478 0)
(19.3892 0.0188491 0)
(19.3317 0.0175263 0)
(19.2688 0.0162287 0)
(19.2083 0.015031 0)
(19.1416 0.0137817 0)
(19.0839 0.0127725 0)
(19.0193 0.011655 0)
(18.9673 0.0106934 0)
(18.9085 0.00970219 0)
(18.8626 0.00880753 0)
(18.812 0.00800256 0)
(18.7711 0.00714119 0)
(18.7295 0.00654123 0)
(18.6913 0.00578749 0)
(18.6591 0.00548233 0)
(18.6227 0.0049845 0)
(18.5958 0.00465601 0)
(18.5635 0.00423588 0)
(18.5394 0.00387309 0)
(18.5133 0.00364938 0)
(18.4887 0.00318866 0)
(18.4705 0.00320673 0)
(18.4441 0.00272566 0)
(18.432 0.0025873 0)
(18.4074 0.00214796 0)
(18.3977 0.00190807 0)
(18.3779 0.00171168 0)
(18.3666 0.00142254 0)
(18.3541 0.00156945 0)
(18.3376 0.00133008 0)
(18.3315 0.00170897 0)
(18.3123 0.00141777 0)
(18.3099 0.00133294 0)
(18.2934 0.00110549 0)
(18.2906 0.000806268 0)
(18.2819 0.000699884 0)
(18.2738 1.44407e-05 0)
(18.2747 0.000181366 0)
(18.2636 -0.000215212 0)
(18.2689 -0.000364861 0)
(18.2589 -0.00055649 0)
(18.2641 -0.000748333 0)
(18.259 -0.000814423 0)
(18.2593 -0.00111325 0)
(18.2629 -0.000764926 0)
(18.255 -0.00122202 0)
(18.2651 -0.00110644 0)
(18.2552 -0.00109238 0)
(18.2649 -0.00111597 0)
(18.2584 -0.000923211 0)
(18.2612 -0.00119278 0)
(18.2641 -0.000578686 0)
(18.2563 -0.00118692 0)
(18.2659 -0.000863728 0)
(18.2566 -0.000693589 0)
(18.2631 -0.000836639 0)
(18.2589 -0.000464213 0)
(18.258 -0.00114162 0)
(18.2612 -0.000212348 0)
(18.2558 -0.000771078 0)
(18.2571 -0.000653715 0)
(18.2593 -5.82743e-05 0)
(18.2525 -0.000817341 0)
(18.26 0.000161972 0)
(18.2538 -0.000689366 0)
(18.2557 0.00027563 0)
(18.2594 -0.000194101 0)
(18.2488 0.00441974 0)
(18.2612 4.31428e-06 0)
(18.7859 0.0160538 0)
(18.8195 0.0284154 0)
(18.8663 0.0330276 0)
(18.9179 0.0376032 0)
(18.9724 0.0405608 0)
(19.0288 0.0412941 0)
(19.0859 0.0407105 0)
(19.1413 0.0392572 0)
(19.1944 0.0374982 0)
(19.2444 0.0354793 0)
(19.2919 0.0333177 0)
(19.3358 0.0311946 0)
(19.3776 0.0292224 0)
(19.4165 0.0275146 0)
(19.4536 0.0261125 0)
(19.4878 0.0250999 0)
(19.5215 0.0243661 0)
(19.554 0.0238915 0)
(19.5861 0.0236188 0)
(19.6172 0.0234199 0)
(19.6484 0.0232255 0)
(19.6785 0.0230088 0)
(19.7081 0.0228233 0)
(19.7363 0.0226751 0)
(19.7635 0.0224565 0)
(19.7905 0.0222109 0)
(19.8141 0.0220777 0)
(19.8385 0.0218863 0)
(19.8572 0.0218 0)
(19.8775 0.0216056 0)
(19.8894 0.0214288 0)
(19.9029 0.0211628 0)
(19.9076 0.0208531 0)
(19.9103 0.0205315 0)
(19.9057 0.0201545 0)
(19.8982 0.0197223 0)
(19.8833 0.0192199 0)
(19.8654 0.0185895 0)
(19.8412 0.017794 0)
(19.814 0.0170296 0)
(19.7819 0.0160226 0)
(19.7481 0.0152287 0)
(19.7104 0.0140709 0)
(19.6734 0.0133884 0)
(19.6309 0.0121713 0)
(19.595 0.0115068 0)
(19.551 0.0106002 0)
(19.5163 0.00983108 0)
(19.4754 0.0091357 0)
(19.4405 0.00819938 0)
(19.4074 0.00787488 0)
(19.3695 0.00680507 0)
(19.346 0.00665503 0)
(19.3091 0.00582904 0)
(19.2904 0.00537908 0)
(19.2585 0.004875 0)
(19.2389 0.00424327 0)
(19.2151 0.0041475 0)
(19.1908 0.00353668 0)
(19.1742 0.0037807 0)
(19.147 0.00338309 0)
(19.1354 0.00363038 0)
(19.1101 0.00328486 0)
(19.1005 0.00292892 0)
(19.0821 0.00271566 0)
(19.0716 0.00200115 0)
(19.064 0.00206394 0)
(19.0495 0.00107621 0)
(19.0511 0.00107036 0)
(19.0392 0.000473145 0)
(19.0422 0.000104523 0)
(19.0348 -0.000117679 0)
(19.0351 -0.000622097 0)
(19.0353 -0.000502931 0)
(19.0296 -0.00107843 0)
(19.0361 -0.000653703 0)
(19.0282 -0.00112458 0)
(19.0357 -0.0011857 0)
(19.0304 -0.000986934 0)
(19.0334 -0.00127948 0)
(19.0351 -0.000756523 0)
(19.03 -0.00125127 0)
(19.0379 -0.000463614 0)
(19.0302 -0.00101479 0)
(19.0369 -0.000845713 0)
(19.0334 -0.00039451 0)
(19.0329 -0.000867538 0)
(19.0371 -0.000210336 0)
(19.0322 -0.000902497 0)
(19.0355 -1.50968e-05 0)
(19.0366 -0.000215045 0)
(19.0303 -0.000693258 0)
(19.0415 0.000234859 0)
(19.0319 -0.000524174 0)
(19.0418 9.57523e-05 0)
(19.0375 -0.000228278 0)
(19.0356 1.45486e-05 0)
(19.046 0.000198505 0)
(19.037 0.00425997 0)
(19.0469 0.000566396 0)
(18.7853 0.0125952 0)
(18.8171 0.0228449 0)
(18.8634 0.0264863 0)
(18.9149 0.0301941 0)
(18.9691 0.0326547 0)
(19.0253 0.0332263 0)
(19.0821 0.0327292 0)
(19.1376 0.0315614 0)
(19.1905 0.0301475 0)
(19.2405 0.0285072 0)
(19.288 0.0267548 0)
(19.3325 0.0250445 0)
(19.3744 0.0234639 0)
(19.4134 0.0220984 0)
(19.4506 0.0209639 0)
(19.4861 0.0201562 0)
(19.5206 0.0195157 0)
(19.5537 0.0190727 0)
(19.5864 0.0187866 0)
(19.6189 0.0185638 0)
(19.6514 0.0183666 0)
(19.6834 0.0181976 0)
(19.7151 0.0180696 0)
(19.7466 0.0179717 0)
(19.7776 0.0178179 0)
(19.8086 0.0176873 0)
(19.8389 0.017618 0)
(19.8694 0.0175146 0)
(19.8989 0.0174568 0)
(19.929 0.0173473 0)
(19.9573 0.0172739 0)
(19.987 0.0171446 0)
(20.0134 0.0170983 0)
(20.0428 0.0170172 0)
(20.0662 0.0170114 0)
(20.0953 0.0169954 0)
(20.1146 0.0169749 0)
(20.1427 0.0169094 0)
(20.157 0.0167791 0)
(20.1822 0.0166583 0)
(20.1916 0.0164444 0)
(20.2105 0.0162356 0)
(20.2162 0.0159338 0)
(20.2257 0.0157215 0)
(20.2287 0.0152703 0)
(20.227 0.0151316 0)
(20.2259 0.0148603 0)
(20.2168 0.0142764 0)
(20.2108 0.0139976 0)
(20.1952 0.0131817 0)
(20.1827 0.012981 0)
(20.1642 0.0120781 0)
(20.1447 0.0116331 0)
(20.1255 0.0110315 0)
(20.1007 0.0100828 0)
(20.0827 0.00974711 0)
(20.0527 0.00874568 0)
(20.0353 0.00860589 0)
(20.0037 0.00775619 0)
(19.9851 0.00777562 0)
(19.9551 0.00721071 0)
(19.9348 0.00698779 0)
(19.9118 0.00648507 0)
(19.8893 0.00545077 0)
(19.8765 0.00502366 0)
(19.8553 0.00363534 0)
(19.8504 0.00344867 0)
(19.8349 0.0020697 0)
(19.8326 0.0015957 0)
(19.8267 0.00122358 0)
(19.8192 0.000300365 0)
(19.8218 0.000342629 0)
(19.8124 -0.000461129 0)
(19.819 -0.000362868 0)
(19.811 -0.000904065 0)
(19.8163 -0.000782758 0)
(19.814 -0.000878892 0)
(19.811 -0.00136601 0)
(19.818 -0.000819869 0)
(19.8081 -0.00129453 0)
(19.8195 -0.000853107 0)
(19.8098 -0.00119072 0)
(19.8187 -0.000883906 0)
(19.8172 -0.000838773 0)
(19.8132 -0.00125396 0)
(19.8244 -0.000403784 0)
(19.8138 -0.00088609 0)
(19.826 -0.0006019 0)
(19.8199 -0.000746163 0)
(19.8215 -0.000754241 0)
(19.8316 -0.000238494 0)
(19.8194 -0.000882126 0)
(19.8353 -0.00037525 0)
(19.8253 -0.000680824 0)
(19.8353 -0.000461004 0)
(19.8339 -5.81221e-05 0)
(19.8325 -0.00043231 0)
(19.8403 0.000120118 0)
(19.8359 0.00348769 0)
(19.843 0.000812407 0)
(18.7848 0.00893707 0)
(18.8152 0.0166415 0)
(18.861 0.0193077 0)
(18.9124 0.022042 0)
(18.9664 0.0239063 0)
(19.0223 0.0243326 0)
(19.079 0.0239613 0)
(19.1345 0.0231288 0)
(19.1871 0.0221189 0)
(19.2372 0.0208977 0)
(19.2847 0.0195765 0)
(19.3291 0.0183075 0)
(19.371 0.0171544 0)
(19.4102 0.0161511 0)
(19.4474 0.0152823 0)
(19.4829 0.0146478 0)
(19.5173 0.0141695 0)
(19.5508 0.0138596 0)
(19.5839 0.0136457 0)
(19.6168 0.0134779 0)
(19.6492 0.0133594 0)
(19.6811 0.0132789 0)
(19.713 0.0131975 0)
(19.7448 0.0131403 0)
(19.7762 0.013044 0)
(19.8076 0.0129612 0)
(19.8386 0.0129065 0)
(19.8696 0.0128397 0)
(19.9003 0.0127796 0)
(19.9311 0.0127022 0)
(19.9615 0.0126325 0)
(19.992 0.0125504 0)
(20.0219 0.0125135 0)
(20.0522 0.0124659 0)
(20.0817 0.0124533 0)
(20.112 0.01242 0)
(20.1409 0.0124203 0)
(20.1712 0.012354 0)
(20.1994 0.0123112 0)
(20.2294 0.0122124 0)
(20.2566 0.0121477 0)
(20.2856 0.0120353 0)
(20.3124 0.0119491 0)
(20.339 0.011918 0)
(20.3667 0.0118476 0)
(20.3894 0.0118972 0)
(20.4181 0.0118691 0)
(20.4376 0.0117499 0)
(20.4642 0.0117792 0)
(20.4825 0.0116558 0)
(20.5022 0.0116753 0)
(20.5245 0.0114604 0)
(20.5333 0.0113558 0)
(20.5595 0.0111692 0)
(20.5597 0.0108526 0)
(20.5816 0.0108552 0)
(20.5799 0.0105309 0)
(20.5931 0.0106341 0)
(20.5924 0.0105307 0)
(20.5938 0.0106124 0)
(20.5956 0.0106192 0)
(20.5861 0.0100376 0)
(20.5899 0.00998549 0)
(20.5749 0.00837387 0)
(20.5787 0.00794703 0)
(20.5652 0.00608161 0)
(20.5651 0.00542154 0)
(20.5617 0.00408826 0)
(20.5521 0.0024909 0)
(20.5595 0.00233867 0)
(20.5453 0.00097884 0)
(20.5575 0.000756556 0)
(20.5442 -8.03857e-05 0)
(20.5543 -0.000367446 0)
(20.5488 -0.000584037 0)
(20.5472 -0.000995811 0)
(20.5577 -0.000711341 0)
(20.5422 -0.00143607 0)
(20.5606 -0.00108391 0)
(20.5434 -0.00126705 0)
(20.5599 -0.00109951 0)
(20.5499 -0.00104126 0)
(20.553 -0.00129107 0)
(20.5603 -0.000714472 0)
(20.5474 -0.00129637 0)
(20.5627 -0.000808809 0)
(20.5506 -0.000935227 0)
(20.5609 -0.000928701 0)
(20.5571 -0.000639464 0)
(20.5553 -0.00114481 0)
(20.5636 -0.000506979 0)
(20.5565 -0.000869056 0)
(20.5632 -0.000726666 0)
(20.5597 -0.000760811 0)
(20.5627 -0.000806139 0)
(20.5626 -0.000160052 0)
(20.5631 -0.000586871 0)
(20.5635 -0.000302064 0)
(20.5666 0.00319775 0)
(20.568 0.00077943 0)
(18.7845 0.00517733 0)
(18.8138 0.00981519 0)
(18.8592 0.0114225 0)
(18.9106 0.0131043 0)
(18.9644 0.0142678 0)
(19.0202 0.0145251 0)
(19.0767 0.0142934 0)
(19.1321 0.013792 0)
(19.185 0.0131776 0)
(19.2352 0.0124315 0)
(19.2824 0.0116243 0)
(19.3266 0.010827 0)
(19.3685 0.0100916 0)
(19.4078 0.00947521 0)
(19.4451 0.00894781 0)
(19.4806 0.0085716 0)
(19.5149 0.00827554 0)
(19.5486 0.00806049 0)
(19.5818 0.00790854 0)
(19.6146 0.00782275 0)
(19.6468 0.00778206 0)
(19.6788 0.00772731 0)
(19.7109 0.00764355 0)
(19.7426 0.00759968 0)
(19.7741 0.00754292 0)
(19.8054 0.0074814 0)
(19.8365 0.00742508 0)
(19.8675 0.00736552 0)
(19.8985 0.00731536 0)
(19.9293 0.00728616 0)
(19.9598 0.00724665 0)
(19.9901 0.00720435 0)
(20.0205 0.007153 0)
(20.0507 0.00715268 0)
(20.0809 0.00712788 0)
(20.111 0.00715886 0)
(20.141 0.00714184 0)
(20.1711 0.00714386 0)
(20.201 0.00710482 0)
(20.2308 0.00706847 0)
(20.2602 0.00705533 0)
(20.2897 0.0069501 0)
(20.3189 0.00697304 0)
(20.3477 0.00688465 0)
(20.3766 0.0069093 0)
(20.4049 0.00690159 0)
(20.4339 0.00687955 0)
(20.462 0.0068305 0)
(20.4906 0.00681206 0)
(20.5185 0.00686456 0)
(20.5463 0.00670251 0)
(20.5747 0.00675668 0)
(20.6007 0.00663141 0)
(20.6291 0.00661475 0)
(20.6534 0.00658474 0)
(20.6814 0.00657962 0)
(20.705 0.0065761 0)
(20.7316 0.00666396 0)
(20.7562 0.00691691 0)
(20.7808 0.00712415 0)
(20.809 0.00753739 0)
(20.829 0.00754944 0)
(20.8584 0.00739898 0)
(20.8738 0.00678924 0)
(20.8985 0.00600634 0)
(20.9106 0.00526762 0)
(20.9254 0.00404396 0)
(20.939 0.00321307 0)
(20.9423 0.0021637 0)
(20.9555 0.00159986 0)
(20.9539 0.000878861 0)
(20.9626 0.00034475 0)
(20.9605 -4.02502e-05 0)
(20.9641 -0.000674518 0)
(20.9645 -0.000515306 0)
(20.9623 -0.00130342 0)
(20.9669 -0.000825021 0)
(20.9615 -0.00131159 0)
(20.9671 -0.00115569 0)
(20.9617 -0.00127216 0)
(20.965 -0.00131519 0)
(20.9626 -0.000945158 0)
(20.9619 -0.00157497 0)
(20.9636 -0.000693228 0)
(20.9604 -0.00118362 0)
(20.9627 -0.00100446 0)
(20.9605 -0.000907412 0)
(20.9612 -0.00113762 0)
(20.9612 -0.000472704 0)
(20.9602 -0.00127848 0)
(20.9604 -0.000676421 0)
(20.9605 -0.000815165 0)
(20.9597 -0.00086948 0)
(20.9606 -0.000699891 0)
(20.9597 -0.000861671 0)
(20.9601 -0.000251818 0)
(20.96 -0.000569433 0)
(20.9597 -0.000254645 0)
(20.9624 0.00249777 0)
(20.9638 0.000651443 0)
(18.7843 0.00122806 0)
(18.8131 0.00226494 0)
(18.8583 0.00270487 0)
(18.9097 0.00325812 0)
(18.9634 0.00361314 0)
(19.0191 0.00367142 0)
(19.0756 0.00360519 0)
(19.1309 0.0034468 0)
(19.1837 0.00325518 0)
(19.2339 0.00303994 0)
(19.2813 0.00282496 0)
(19.3256 0.00257577 0)
(19.3672 0.00230684 0)
(19.4066 0.00211344 0)
(19.4438 0.00196137 0)
(19.4794 0.00186339 0)
(19.5138 0.0017483 0)
(19.5474 0.0016345 0)
(19.5805 0.00156319 0)
(19.6132 0.00156143 0)
(19.6457 0.00158705 0)
(19.6779 0.00156556 0)
(19.7098 0.0015128 0)
(19.7415 0.00150507 0)
(19.7731 0.00150995 0)
(19.8044 0.00150329 0)
(19.8355 0.00148356 0)
(19.8664 0.00144992 0)
(19.8973 0.00142635 0)
(19.9281 0.00143658 0)
(19.9587 0.00144065 0)
(19.9892 0.00142476 0)
(20.0195 0.00138443 0)
(20.0497 0.00139776 0)
(20.0798 0.00138516 0)
(20.11 0.00140745 0)
(20.1401 0.0013916 0)
(20.1702 0.00141541 0)
(20.2 0.00139855 0)
(20.2297 0.0013865 0)
(20.2594 0.00137583 0)
(20.2888 0.00131175 0)
(20.3181 0.00135464 0)
(20.3471 0.00129812 0)
(20.3761 0.00135817 0)
(20.405 0.00132328 0)
(20.4339 0.001363 0)
(20.4627 0.00132725 0)
(20.4914 0.00133123 0)
(20.5202 0.0014321 0)
(20.5486 0.00126163 0)
(20.577 0.00142637 0)
(20.6051 0.00129703 0)
(20.6329 0.00141426 0)
(20.6605 0.00137152 0)
(20.688 0.00134451 0)
(20.7155 0.00141009 0)
(20.7431 0.00135448 0)
(20.7711 0.00158078 0)
(20.7995 0.00142656 0)
(20.829 0.00176251 0)
(20.8588 0.00155387 0)
(20.8888 0.0016786 0)
(20.9169 0.00137735 0)
(20.9432 0.00120396 0)
(20.9666 0.0010491 0)
(20.986 0.000436165 0)
(21.003 0.000592207 0)
(21.0151 -0.000132216 0)
(21.0253 0.000111309 0)
(21.0319 -0.000268067 0)
(21.0365 -0.000386139 0)
(21.0397 -0.000552635 0)
(21.0406 -0.000939049 0)
(21.0417 -0.000528402 0)
(21.0414 -0.00119501 0)
(21.0408 -0.000773117 0)
(21.0398 -0.00118746 0)
(21.0381 -0.00110435 0)
(21.0372 -0.00101491 0)
(21.0354 -0.00126847 0)
(21.0348 -0.000696931 0)
(21.0337 -0.00135256 0)
(21.0328 -0.000668582 0)
(21.0327 -0.00101138 0)
(21.0318 -0.000927741 0)
(21.0319 -0.000707142 0)
(21.0312 -0.00110684 0)
(21.0314 -0.000541658 0)
(21.0312 -0.00106571 0)
(21.0311 -0.00069238 0)
(21.0312 -0.000742001 0)
(21.0311 -0.000852351 0)
(21.0313 -0.000635797 0)
(21.031 -0.000828343 0)
(21.0315 -0.00029145 0)
(21.0315 -0.000457508 0)
(21.0315 -0.00026758 0)
(21.033 0.00184216 0)
(21.0363 7.10549e-05 0)
(18.7843 -0.00286702 0)
(18.8133 -0.00567443 0)
(18.8586 -0.00644979 0)
(18.91 -0.00706835 0)
(18.9637 -0.00757158 0)
(19.0194 -0.00772645 0)
(19.0759 -0.00762536 0)
(19.1313 -0.00741752 0)
(19.184 -0.00713596 0)
(19.2341 -0.00681086 0)
(19.2815 -0.00644106 0)
(19.326 -0.00611152 0)
(19.3678 -0.00586421 0)
(19.4071 -0.00561186 0)
(19.4442 -0.00540607 0)
(19.4798 -0.00523502 0)
(19.5143 -0.0051419 0)
(19.5478 -0.00510102 0)
(19.5808 -0.00507397 0)
(19.6135 -0.00503224 0)
(19.646 -0.0049733 0)
(19.6783 -0.00493065 0)
(19.7103 -0.00489466 0)
(19.7418 -0.00485059 0)
(19.7732 -0.00481641 0)
(19.8046 -0.00479846 0)
(19.8357 -0.00479105 0)
(19.8667 -0.00479987 0)
(19.8976 -0.00480776 0)
(19.9283 -0.00478853 0)
(19.959 -0.00476451 0)
(19.9894 -0.00475171 0)
(20.0197 -0.00476528 0)
(20.05 -0.0047341 0)
(20.0802 -0.00472678 0)
(20.1103 -0.00471029 0)
(20.1404 -0.00470509 0)
(20.1704 -0.0046616 0)
(20.2004 -0.00463192 0)
(20.2302 -0.00461897 0)
(20.2599 -0.00459236 0)
(20.2892 -0.00459702 0)
(20.3185 -0.00454046 0)
(20.3475 -0.004546 0)
(20.3765 -0.00449365 0)
(20.4054 -0.00449291 0)
(20.4343 -0.00445645 0)
(20.4631 -0.00449044 0)
(20.4917 -0.00449714 0)
(20.5205 -0.00440033 0)
(20.549 -0.00449942 0)
(20.5773 -0.00435539 0)
(20.6054 -0.00439599 0)
(20.6332 -0.00427883 0)
(20.6608 -0.00428083 0)
(20.6882 -0.00428029 0)
(20.7157 -0.00423646 0)
(20.7432 -0.00432185 0)
(20.7711 -0.0042132 0)
(20.7995 -0.00441144 0)
(20.829 -0.00421233 0)
(20.8585 -0.00437949 0)
(20.8885 -0.00412641 0)
(20.9164 -0.00400842 0)
(20.9423 -0.00377334 0)
(20.966 -0.00322581 0)
(20.9846 -0.00313335 0)
(21.0022 -0.00243179 0)
(21.0135 -0.0022858 0)
(21.0243 -0.00164685 0)
(21.0303 -0.00139015 0)
(21.0351 -0.00121414 0)
(21.0383 -0.00092017 0)
(21.0392 -0.00107579 0)
(21.0403 -0.000685536 0)
(21.0398 -0.00103378 0)
(21.0395 -0.000626634 0)
(21.0381 -0.000802396 0)
(21.0369 -0.000778903 0)
(21.0357 -0.000665537 0)
(21.0339 -0.000907855 0)
(21.0334 -0.000539464 0)
(21.0319 -0.00105124 0)
(21.0317 -0.000640913 0)
(21.0308 -0.000874606 0)
(21.0307 -0.00088845 0)
(21.0301 -0.00070997 0)
(21.03 -0.000987758 0)
(21.0299 -0.000581265 0)
(21.0297 -0.00100993 0)
(21.0298 -0.0007719 0)
(21.0295 -0.000735941 0)
(21.0299 -0.000841588 0)
(21.0295 -0.000704972 0)
(21.03 -0.000782535 0)
(21.0298 -0.000426653 0)
(21.0302 -0.000514705 0)
(21.0304 -0.000271745 0)
(21.0314 0.00130224 0)
(21.0351 -0.000629896 0)
(18.7846 -0.00688111 0)
(18.8144 -0.0132521 0)
(18.86 -0.0151661 0)
(18.9114 -0.0169211 0)
(18.9652 -0.0182316 0)
(19.021 -0.0185822 0)
(19.0776 -0.0183279 0)
(19.1331 -0.0177762 0)
(19.1858 -0.0170268 0)
(19.2358 -0.0161821 0)
(19.2833 -0.0152794 0)
(19.3279 -0.014414 0)
(19.3697 -0.0136454 0)
(19.4088 -0.0129344 0)
(19.4459 -0.0123862 0)
(19.4815 -0.011956 0)
(19.5159 -0.0116714 0)
(19.5495 -0.0115026 0)
(19.5825 -0.0113983 0)
(19.6152 -0.0113164 0)
(19.6477 -0.0112162 0)
(19.6799 -0.0111206 0)
(19.7119 -0.0110225 0)
(19.7436 -0.0109364 0)
(19.7751 -0.0108618 0)
(19.8064 -0.0108026 0)
(19.8375 -0.0107609 0)
(19.8684 -0.0107463 0)
(19.8994 -0.0107319 0)
(19.9301 -0.010682 0)
(19.9607 -0.0106199 0)
(19.9912 -0.0105761 0)
(20.0215 -0.0105788 0)
(20.0518 -0.010537 0)
(20.0819 -0.0105146 0)
(20.112 -0.0104897 0)
(20.142 -0.0104787 0)
(20.172 -0.0104434 0)
(20.2019 -0.0104003 0)
(20.2317 -0.0103626 0)
(20.2612 -0.0102976 0)
(20.2905 -0.0102501 0)
(20.3195 -0.0101804 0)
(20.3485 -0.0101448 0)
(20.3771 -0.0100817 0)
(20.4059 -0.0100383 0)
(20.4343 -0.00998506 0)
(20.4627 -0.0099861 0)
(20.4908 -0.00996624 0)
(20.5187 -0.00986333 0)
(20.5465 -0.00988362 0)
(20.5737 -0.00972876 0)
(20.6006 -0.00966185 0)
(20.6268 -0.00952382 0)
(20.6527 -0.00950189 0)
(20.6781 -0.00948941 0)
(20.7027 -0.00949399 0)
(20.7275 -0.00960944 0)
(20.7516 -0.00966423 0)
(20.7759 -0.010018 0)
(20.8006 -0.00999544 0)
(20.8225 -0.0101367 0)
(20.8463 -0.0097807 0)
(20.8643 -0.00930016 0)
(20.8838 -0.00848498 0)
(20.8971 -0.00747233 0)
(20.9105 -0.00653572 0)
(20.9207 -0.00532767 0)
(20.927 -0.00446345 0)
(20.9348 -0.00324228 0)
(20.9374 -0.00247174 0)
(20.9418 -0.00182192 0)
(20.9425 -0.00142166 0)
(20.9443 -0.00117984 0)
(20.9446 -0.000813452 0)
(20.9447 -0.000937237 0)
(20.945 -0.000568582 0)
(20.944 -0.000622802 0)
(20.9445 -0.000573416 0)
(20.9429 -0.000520835 0)
(20.9438 -0.00065943 0)
(20.9419 -0.000501994 0)
(20.9431 -0.000823343 0)
(20.9413 -0.000607277 0)
(20.9421 -0.000785934 0)
(20.9416 -0.000770593 0)
(20.9408 -0.000686548 0)
(20.9423 -0.00088801 0)
(20.9401 -0.000655226 0)
(20.9426 -0.000919124 0)
(20.9402 -0.000773148 0)
(20.9421 -0.000782679 0)
(20.9412 -0.000776692 0)
(20.9406 -0.000761899 0)
(20.943 -0.000780373 0)
(20.9398 -0.000461932 0)
(20.9439 -0.000480709 0)
(20.9406 -0.000233003 0)
(20.9446 0.000491921 0)
(20.9469 -0.00130971 0)
(18.785 -0.0107555 0)
(18.8161 -0.02014 0)
(18.8623 -0.0230614 0)
(18.9137 -0.025871 0)
(18.9677 -0.0278765 0)
(19.0237 -0.0283875 0)
(19.0804 -0.0279889 0)
(19.1359 -0.0271211 0)
(19.1887 -0.0259556 0)
(19.2389 -0.0246582 0)
(19.2863 -0.0232803 0)
(19.3308 -0.0219258 0)
(19.3724 -0.0206878 0)
(19.4118 -0.0195712 0)
(19.449 -0.0187265 0)
(19.4846 -0.0180376 0)
(19.5188 -0.0175541 0)
(19.5522 -0.0172646 0)
(19.5853 -0.017078 0)
(19.6179 -0.016939 0)
(19.6504 -0.0167919 0)
(19.6827 -0.016646 0)
(19.7144 -0.0165073 0)
(19.7461 -0.0164106 0)
(19.7777 -0.0163102 0)
(19.8089 -0.0162228 0)
(19.84 -0.0161602 0)
(19.8709 -0.0161295 0)
(19.9018 -0.0160934 0)
(19.9324 -0.0160196 0)
(19.963 -0.0159294 0)
(19.9932 -0.0158593 0)
(20.0233 -0.0158471 0)
(20.0532 -0.0157816 0)
(20.083 -0.0157407 0)
(20.1126 -0.015691 0)
(20.142 -0.0156558 0)
(20.1713 -0.0155953 0)
(20.2001 -0.0155247 0)
(20.229 -0.0154382 0)
(20.2568 -0.0153355 0)
(20.2846 -0.0152315 0)
(20.3111 -0.0151464 0)
(20.3377 -0.0151181 0)
(20.3626 -0.0150626 0)
(20.3878 -0.0149972 0)
(20.4106 -0.0149263 0)
(20.4337 -0.014905 0)
(20.4542 -0.0148169 0)
(20.4737 -0.0147366 0)
(20.4923 -0.0146102 0)
(20.5066 -0.0143911 0)
(20.5222 -0.0141496 0)
(20.5323 -0.0138539 0)
(20.543 -0.0136212 0)
(20.5492 -0.0133647 0)
(20.5539 -0.0131955 0)
(20.5573 -0.0130728 0)
(20.5564 -0.0129338 0)