/*--------------------------------*- C++ -*----------------------------------*\
| =========                 |                                                 |
| \\      /  F ield         | OpenFOAM: The Open Source CFD Toolbox           |
|  \\    /   O peration     | Version:  v2012                                 |
|   \\  /    A nd           | Website:  www.openfoam.com                      |
|    \\/     M anipulation  |                                                 |
\*---------------------------------------------------------------------------*/
FoamFile
{
    version     2.0;
    format      ascii;
    class       volScalarField;
    location    "0.3";
    object      k.air;
}
// * * * * * * * * * * * * * * * * * * * * * * * * * * * * * * * * * * * * * //

dimensions      [0 2 -2 0 0 0 0];


internalField   nonuniform List<scalar> 
5600
(
0.606317
0.840796
0.955141
0.978143
0.949189
0.897576
0.839564
0.787265
0.743295
0.707284
0.679336
0.658379
0.64334
0.632668
0.625303
0.620045
0.616287
0.613291
0.610961
0.608792
0.607125
0.605408
0.604259
0.603084
0.602463
0.601747
0.601447
0.601028
0.600893
0.600564
0.60043
0.600035
0.599814
0.599332
0.599047
0.598522
0.598209
0.597673
0.597368
0.596845
0.596575
0.596092
0.59588
0.595448
0.595307
0.594939
0.594872
0.594548
0.594546
0.594256
0.594293
0.594046
0.59413
0.593907
0.594044
0.593853
0.594051
0.593898
0.594154
0.594046
0.594367
0.594281
0.594672
0.594604
0.59506
0.595007
0.595531
0.595487
0.596079
0.596036
0.596706
0.596654
0.597409
0.59734
0.598185
0.598093
0.599029
0.598914
0.59993
0.599795
0.600871
0.600742
0.601824
0.601767
0.602747
0.602916
0.603556
0.604309
0.604078
0.606235
0.60396
0.609297
0.602124
0.615263
0.595191
0.630216
0.571128
0.676585
0.478197
0.842561
0.37163
0.315586
0.288637
0.275695
0.274938
0.284675
0.307339
0.344957
0.387088
0.430228
0.471434
0.509021
0.54175
0.569453
0.591921
0.60978
0.623513
0.633876
0.641795
0.647709
0.652624
0.656335
0.660056
0.662972
0.665949
0.668044
0.670323
0.671706
0.673317
0.673901
0.674922
0.674947
0.675603
0.675397
0.675884
0.675588
0.676003
0.675678
0.67609
0.675789
0.676257
0.676019
0.676568
0.676403
0.677029
0.676876
0.677521
0.67734
0.677992
0.677781
0.678479
0.678246
0.679007
0.67879
0.679642
0.679444
0.680406
0.680217
0.681298
0.681092
0.682276
0.682053
0.683342
0.683078
0.684477
0.68416
0.685665
0.68529
0.686909
0.686471
0.688234
0.687693
0.689631
0.688967
0.691103
0.690291
0.692636
0.691655
0.694196
0.693041
0.695744
0.694457
0.697244
0.695945
0.69864
0.697622
0.699798
0.699718
0.700417
0.702694
0.69973
0.707632
0.696115
0.716959
0.685833
0.73646
0.658773
0.780903
0.585176
0.884185
0.369155
0.281895
0.227743
0.192983
0.168608
0.153769
0.145631
0.143603
0.146969
0.15509
0.167015
0.181971
0.199241
0.218604
0.239102
0.260645
0.28248
0.304531
0.326429
0.348206
0.369556
0.39034
0.409298
0.425529
0.439935
0.452051
0.462997
0.471869
0.480054
0.486544
0.492857
0.497679
0.502744
0.506468
0.51061
0.513519
0.516995
0.519321
0.522364
0.524303
0.527064
0.528738
0.531296
0.532736
0.535142
0.536359
0.538587
0.539584
0.541679
0.542504
0.544527
0.54523
0.547225
0.547841
0.549852
0.550391
0.552436
0.552888
0.554971
0.555321
0.55745
0.55768
0.559869
0.559966
0.562238
0.562189
0.564555
0.56437
0.566857
0.56653
0.569162
0.568672
0.57148
0.570793
0.57381
0.57288
0.576136
0.574917
0.578421
0.576891
0.580647
0.57881
0.582805
0.580711
0.584874
0.582677
0.586787
0.584835
0.588401
0.587397
0.589403
0.590843
0.589101
0.596249
0.586012
0.605716
0.577062
0.622951
0.557563
0.636871
0.370118
0.280622
0.224143
0.186008
0.158604
0.138136
0.123012
0.111294
0.102962
0.0969566
0.0935647
0.0922983
0.0929487
0.0953407
0.0995001
0.105279
0.112856
0.121882
0.132878
0.145206
0.1595
0.175107
0.19252
0.210426
0.229106
0.247354
0.265523
0.281937
0.297799
0.311717
0.325235
0.336664
0.347932
0.357372
0.366869
0.374695
0.38285
0.389453
0.396617
0.402226
0.408534
0.413222
0.418725
0.422606
0.427385
0.430471
0.434701
0.437272
0.44115
0.443355
0.446998
0.448934
0.452423
0.454136
0.457519
0.459001
0.462283
0.463536
0.466742
0.467775
0.470939
0.471751
0.474909
0.475508
0.478692
0.479091
0.482328
0.482528
0.485868
0.485854
0.48933
0.489091
0.492722
0.492219
0.496034
0.495224
0.499274
0.498108
0.502418
0.500864
0.505457
0.5035
0.508401
0.506057
0.511242
0.508603
0.513952
0.511211
0.516451
0.513999
0.518571
0.517247
0.519958
0.521513
0.520006
0.527319
0.518354
0.533789
0.518136
0.529853
0.370322
0.280734
0.22444
0.185974
0.158506
0.137557
0.12163
0.108656
0.0984472
0.0898733
0.0830306
0.0773056
0.0728909
0.0691461
0.0666988
0.0645062
0.0639159
0.0633261
0.0645158
0.0656633
0.0687657
0.0720841
0.0774954
0.0834301
0.0914824
0.100089
0.110729
0.121447
0.133841
0.145978
0.159513
0.172606
0.186604
0.199267
0.212524
0.224232
0.236463
0.247003
0.258157
0.267532
0.27762
0.285874
0.295077
0.302317
0.310597
0.316795
0.324231
0.329572
0.336359
0.34104
0.347336
0.351479
0.357357
0.360988
0.366463
0.369532
0.374638
0.377246
0.382083
0.384292
0.388941
0.390789
0.395307
0.396837
0.40128
0.40253
0.406943
0.407921
0.412357
0.413052
0.417543
0.417922
0.422473
0.422523
0.427165
0.426878
0.431631
0.430924
0.435833
0.434738
0.439853
0.43837
0.443723
0.441871
0.447434
0.445325
0.450969
0.448772
0.454287
0.452303
0.45727
0.456102
0.459745
0.460341
0.461678
0.464769
0.463657
0.467962
0.467836
0.465899
0.370357
0.280754
0.224581
0.186121
0.158739
0.137806
0.121899
0.108857
0.0985353
0.0896893
0.0825216
0.0761122
0.0710214
0.0660758
0.0625294
0.0585306
0.056155
0.0529582
0.0514487
0.0490338
0.0482206
0.0466104
0.0465507
0.045797
0.0467517
0.0469275
0.0491434
0.0504913
0.0541405
0.056949
0.0621341
0.0666185
0.0734642
0.0794993
0.0877423
0.0950031
0.104351
0.112429
0.122539
0.131136
0.141774
0.150685
0.161301
0.170004
0.180374
0.188616
0.19853
0.206147
0.215493
0.222435
0.231203
0.237487
0.245723
0.251399
0.259274
0.264399
0.271837
0.276386
0.283412
0.287417
0.294112
0.297623
0.304055
0.307139
0.31337
0.316083
0.322159
0.324507
0.330451
0.332427
0.338237
0.339764
0.34544
0.346578
0.352176
0.352954
0.358512
0.358931
0.364444
0.36455
0.370041
0.369881
0.375344
0.374992
0.380358
0.379959
0.385094
0.384828
0.389547
0.389642
0.393668
0.394453
0.397464
0.399169
0.401146
0.403428
0.405132
0.406689
0.40957
0.408871
0.370363
0.280746
0.224612
0.186155
0.158813
0.137901
0.122017
0.109011
0.0986941
0.089859
0.082706
0.0762125
0.0711514
0.0659908
0.0624309
0.0581228
0.0555691
0.0519839
0.0500295
0.0470971
0.0455671
0.0431038
0.0420402
0.0398258
0.0393209
0.0372648
0.037287
0.0354879
0.0359543
0.0345616
0.0354924
0.0346095
0.0361529
0.0358178
0.0381327
0.0384529
0.0416403
0.0427537
0.0468688
0.0489105
0.0540049
0.0570645
0.0630957
0.0670345
0.07394
0.0786563
0.0862932
0.091633
0.0998067
0.105544
0.114055
0.119985
0.128722
0.134658
0.143286
0.149074
0.157619
0.163175
0.171553
0.176786
0.184952
0.189813
0.197723
0.202203
0.209844
0.213958
0.221349
0.225099
0.232346
0.235813
0.242903
0.246047
0.252913
0.255723
0.262357
0.264858
0.27126
0.2735
0.279646
0.281685
0.287565
0.28947
0.295057
0.296917
0.302133
0.304061
0.308818
0.310912
0.315122
0.317456
0.321034
0.323665
0.326611
0.329428
0.331957
0.334655
0.337082
0.339422
0.34152
0.343886
0.370359
0.28074
0.224604
0.186166
0.15881
0.137941
0.122022
0.109078
0.0987246
0.0899333
0.0827787
0.0762811
0.0712572
0.0660633
0.0625218
0.0582193
0.0555851
0.0520884
0.049941
0.0471164
0.0453704
0.0429058
0.0416735
0.0392941
0.0385887
0.0362703
0.0359001
0.0337813
0.0335706
0.0316832
0.0316518
0.0298797
0.0301552
0.0283993
0.029012
0.0273278
0.0282315
0.0267009
0.0278959
0.0265733
0.0281333
0.0270419
0.0290399
0.0282538
0.0307356
0.030359
0.0333425
0.0334806
0.0370281
0.0377393
0.0418817
0.0432085
0.047999
0.0499679
0.0552854
0.0578023
0.0636458
0.0666749
0.0729881
0.0764441
0.0831603
0.0869806
0.0939732
0.098046
0.105195
0.109414
0.116661
0.120916
0.128057
0.132166
0.139185
0.143265
0.150161
0.154177
0.160892
0.164838
0.171307
0.175194
0.181356
0.185192
0.191017
0.194821
0.20027
0.204078
0.209095
0.212954
0.217517
0.221431
0.225549
0.229501
0.233177
0.237154
0.240427
0.244366
0.247293
0.251161
0.253655
0.257595
0.259245
0.263417
0.37035
0.280746
0.224578
0.186185
0.158779
0.137973
0.121995
0.109114
0.0987125
0.0899698
0.0827793
0.0763287
0.0712536
0.0661428
0.0624917
0.058346
0.0555217
0.0522481
0.0498692
0.0472652
0.0453216
0.0430152
0.0416315
0.0393857
0.0384868
0.0363734
0.0356832
0.0338609
0.0332316
0.0316396
0.0311727
0.0296116
0.0294269
0.027824
0.0278562
0.0263064
0.0264413
0.024986
0.0252256
0.0238086
0.0242175
0.0227948
0.0233776
0.0219825
0.0227088
0.0213937
0.0222433
0.0210282
0.0220383
0.0209424
0.022136
0.0211755
0.0225826
0.0218387
0.0234495
0.0229468
0.0248317
0.0246092
0.026808
0.0268921
0.0294122
0.0299169
0.0327664
0.0337181
0.0368996
0.0383181
0.0419032
0.0437976
0.0476827
0.049979
0.0541287
0.0568509
0.0612238
0.0643258
0.0688715
0.0723485
0.0770234
0.0808368
0.0855619
0.0896354
0.0943612
0.0986471
0.103301
0.107743
0.112245
0.11679
0.121117
0.125722
0.129853
0.134485
0.138402
0.143017
0.146746
0.15133
0.15488
0.159385
0.162634
0.167024
0.169841
0.17385
0.370338
0.280764
0.224547
0.186213
0.158745
0.137999
0.121974
0.109132
0.0987001
0.089996
0.082753
0.0763871
0.0711934
0.0662424
0.0624016
0.0584696
0.0554278
0.0523666
0.0497949
0.0473668
0.0452608
0.0431215
0.0415509
0.0395302
0.0383621
0.0365586
0.035529
0.0340548
0.0330759
0.0318151
0.0310137
0.0297779
0.0292246
0.0279985
0.0275812
0.0264715
0.026085
0.0250995
0.0247728
0.0238293
0.0236168
0.0226795
0.0225593
0.0216624
0.0215878
0.020756
0.0207165
0.0199346
0.0199437
0.0192093
0.0192654
0.0185773
0.0186659
0.0180674
0.0181697
0.0176404
0.0177992
0.017331
0.0175654
0.0171675
0.0174526
0.0171869
0.0175273
0.0174149
0.0178217
0.0178548
0.0183947
0.0186201
0.0192778
0.019705
0.0205227
0.0212155
0.0222151
0.0231878
0.0243701
0.0256702
0.0270947
0.0287529
0.0304404
0.0324436
0.0344235
0.0368211
0.0391154
0.0418932
0.0444974
0.0476277
0.0505392
0.0540121
0.0571951
0.060983
0.0644063
0.0684206
0.0720524
0.0761959
0.0800186
0.0843087
0.088279
0.0926091
0.096638
0.100802
0.370329
0.280783
0.224528
0.18624
0.158725
0.138019
0.121967
0.109139
0.0986994
0.0900098
0.0827311
0.0764334
0.0711343
0.0663212
0.0623225
0.0585493
0.0553658
0.0524172
0.0497605
0.047402
0.0452205
0.0431816
0.041472
0.0396287
0.0382558
0.0366654
0.035433
0.0341427
0.0329982
0.0318965
0.0309291
0.0298805
0.0291141
0.0281242
0.0274588
0.026601
0.0259664
0.0252296
0.0246541
0.0239737
0.0234899
0.0228452
0.0224311
0.0218465
0.0214721
0.0209534
0.0206248
0.0201572
0.0198791
0.0194694
0.0192389
0.0188921
0.0186984
0.0184474
0.0182859
0.0181212
0.0180265
0.0179463
0.0179409
0.0179614
0.0180499
0.0182045
0.0184081
0.0187264
0.019067
0.0195595
0.0200863
0.0207998
0.0215245
0.0224663
0.0234355
0.0246517
0.0258957
0.0274141
0.0289457
0.0307934
0.0326553
0.0348583
0.0370657
0.0396127
0.042167
0.0450786
0.0479873
0.0511972
0.0543914
0.0578512
0.0613022
0.065007
0.0686735
0.0725988
0.0764671
0.080562
0.0845972
0.088799
0.0929552
0.0972432
0.101495
0.105847
0.110185
0.114624
0.370326
0.280799
0.224525
0.186261
0.158721
0.138034
0.121967
0.109144
0.0987021
0.0900124
0.0827212
0.0764498
0.0710997
0.0663537
0.0622736
0.0585759
0.0553301
0.0524164
0.0497431
0.0473899
0.0451917
0.0431909
0.0414122
0.0396613
0.0381868
0.0366919
0.0353888
0.0341518
0.0329782
0.0319181
0.0309136
0.0299459
0.0291116
0.0282383
0.0275115
0.0267695
0.0261143
0.025495
0.0249323
0.0244078
0.0239575
0.0235293
0.0231892
0.0228843
0.0226587
0.022493
0.0224176
0.0224082
0.0225161
0.0227042
0.0230276
0.0234577
0.0240342
0.0247653
0.0256332
0.0267045
0.0279213
0.0293787
0.0309954
0.0328798
0.0349372
0.0372832
0.0398221
0.0426548
0.045687
0.0489757
0.0524177
0.0561042
0.0599243
0.063979
0.0681515
0.0725417
0.0770242
0.0816955
0.0864217
0.0913027
0.0962021
0.101225
0.106219
0.111303
0.116314
0.121406
0.126382
0.131342
0.136163
0.140974
0.145703
0.150406
0.155012
0.159592
0.164054
0.168484
0.172781
0.177031
0.181156
0.185234
0.189205
0.193148
0.197053
0.201012
0.370327
0.280812
0.224534
0.186276
0.158724
0.138045
0.121965
0.109145
0.0986932
0.0900029
0.0827027
0.0764351
0.0710659
0.0663381
0.0622272
0.0585523
0.0552865
0.0523777
0.049709
0.0473523
0.0451582
0.0431821
0.0413844
0.039696
0.0382025
0.0367788
0.0355025
0.0343307
0.0332405
0.0322803
0.0313993
0.0306185
0.0299602
0.0293786
0.028941
0.028607
0.0284159
0.0283755
0.0285015
0.0288089
0.029326
0.0300551
0.0310341
0.0322729
0.0337941
0.0356225
0.0377759
0.0402536
0.0431036
0.0462908
0.0498791
0.0537823
0.0580056
0.062537
0.0673593
0.0724685
0.0778222
0.0834267
0.08921
0.0951927
0.10128
0.107505
0.113774
0.120121
0.126472
0.132754
0.138945
0.145122
0.151231
0.157302
0.16328
0.169196
0.175003
0.180731
0.186338
0.191852
0.197245
0.20254
0.207716
0.212787
0.217744
0.2226
0.227346
0.23204
0.236626
0.241135
0.24552
0.249799
0.253948
0.257995
0.261905
0.265715
0.269381
0.272949
0.276383
0.279729
0.282965
0.286145
0.28929
0.292488
0.370328
0.280823
0.224544
0.186278
0.158719
0.138031
0.121937
0.109111
0.0986418
0.0899474
0.082632
0.0763611
0.0709843
0.0662607
0.0621539
0.0584957
0.0552582
0.0523833
0.0497792
0.047494
0.0454013
0.0435702
0.0419295
0.0404988
0.0392735
0.0382458
0.0374303
0.0368566
0.0365078
0.0364766
0.0367215
0.0373439
0.0383211
0.0397338
0.0415793
0.0439252
0.0467679
0.0501605
0.0541012
0.0586398
0.0636888
0.0692602
0.0753015
0.0818105
0.0887022
0.0959603
0.103483
0.111235
0.119148
0.127168
0.135304
0.143358
0.151366
0.159295
0.167126
0.174825
0.182373
0.189755
0.196949
0.20397
0.210783
0.217431
0.223876
0.230162
0.23626
0.242261
0.248119
0.253844
0.25939
0.264788
0.270005
0.27508
0.279984
0.28476
0.28938
0.293878
0.298243
0.302497
0.306639
0.310679
0.31462
0.31847
0.322223
0.325882
0.329453
0.332907
0.336245
0.339474
0.342607
0.345649
0.348598
0.351468
0.354241
0.356948
0.359564
0.362128
0.364615
0.367073
0.369529
0.372053
0.370326
0.280828
0.224528
0.186237
0.158657
0.137935
0.12182
0.108968
0.098487
0.0897905
0.0824965
0.0762735
0.0709928
0.0663943
0.0624936
0.0590742
0.0562131
0.0537628
0.0517561
0.0501654
0.0489893
0.048273
0.048069
0.048412
0.0493744
0.051007
0.053398
0.0565893
0.0606495
0.0656187
0.0715426
0.0784087
0.0860308
0.0944518
0.103443
0.113009
0.122938
0.133241
0.143801
0.154575
0.165296
0.175911
0.186339
0.196528
0.206399
0.21595
0.225121
0.233957
0.242412
0.250549
0.258317
0.265848
0.27309
0.280027
0.28667
0.293021
0.299099
0.30493
0.31052
0.315915
0.321102
0.326141
0.331001
0.335736
0.340303
0.344748
0.34902
0.353121
0.357044
0.360834
0.364476
0.368007
0.371412
0.37472
0.377902
0.380991
0.38398
0.386889
0.389721
0.392483
0.395184
0.397829
0.400421
0.402962
0.405455
0.407893
0.410284
0.412613
0.414898
0.417122
0.419302
0.421431
0.423508
0.425551
0.427539
0.429506
0.431429
0.43335
0.435294
0.437328
0.370307
0.280788
0.224404
0.186076
0.15844
0.137694
0.121595
0.108825
0.0985517
0.090169
0.0834222
0.0779601
0.0737116
0.0703852
0.0681201
0.0666695
0.0663288
0.0667865
0.0683994
0.0709859
0.0749265
0.0801579
0.0869508
0.0951533
0.104967
0.116015
0.128225
0.141237
0.15505
0.169403
0.184267
0.198935
0.213205
0.226996
0.240174
0.252747
0.264652
0.275949
0.286571
0.296611
0.306073
0.314986
0.323338
0.331129
0.33841
0.345252
0.3517
0.357825
0.363647
0.369199
0.374481
0.379488
0.384192
0.388634
0.392851
0.39686
0.400685
0.404349
0.407854
0.411238
0.414484
0.417645
0.42069
0.423673
0.42656
0.429394
0.432143
0.43483
0.437427
0.439961
0.442412
0.444803
0.447126
0.449381
0.451538
0.453644
0.455687
0.457687
0.459643
0.461559
0.463447
0.465301
0.46713
0.468933
0.470715
0.472474
0.47422
0.47593
0.477631
0.479293
0.480944
0.48256
0.484158
0.485733
0.487284
0.48882
0.490347
0.491869
0.493443
0.495137
0.370196
0.28054
0.22423
0.186051
0.158712
0.138521
0.123426
0.112329
0.104414
0.0992888
0.0968344
0.0965724
0.0983738
0.102
0.107641
0.114997
0.124353
0.135443
0.148589
0.1634
0.180313
0.198742
0.218285
0.238271
0.258307
0.277675
0.295833
0.312658
0.328135
0.342247
0.354975
0.366564
0.37709
0.38668
0.395454
0.403545
0.411033
0.417977
0.424396
0.4303
0.435684
0.440695
0.445265
0.449405
0.453221
0.456775
0.460113
0.463281
0.466299
0.4692
0.471993
0.474696
0.477296
0.479797
0.482207
0.484527
0.486766
0.488933
0.491024
0.493062
0.49503
0.496965
0.498838
0.500691
0.502494
0.504284
0.506036
0.507776
0.50948
0.511163
0.512813
0.514439
0.51603
0.517607
0.519144
0.520658
0.522132
0.523581
0.525
0.526397
0.52778
0.529137
0.530485
0.531813
0.533138
0.534446
0.53576
0.537052
0.538353
0.539628
0.540913
0.542171
0.543435
0.54468
0.545925
0.547154
0.548404
0.549635
0.550927
0.552349
0.369475
0.281381
0.228614
0.193056
0.170711
0.155956
0.150114
0.150455
0.156549
0.16731
0.181625
0.198812
0.218422
0.239716
0.262354
0.285616
0.309404
0.333087
0.356942
0.380287
0.403304
0.423862
0.441743
0.457312
0.470494
0.482407
0.492496
0.501025
0.508346
0.514611
0.520105
0.524948
0.529232
0.533036
0.536433
0.539499
0.542297
0.544886
0.547298
0.549575
0.551716
0.553735
0.555666
0.557485
0.559191
0.560793
0.562302
0.563746
0.565124
0.566471
0.567779
0.569074
0.570351
0.571614
0.572862
0.574094
0.57531
0.57651
0.577688
0.578858
0.58
0.581139
0.582253
0.583368
0.584464
0.585563
0.586651
0.587746
0.588835
0.589923
0.591015
0.592102
0.593186
0.594264
0.59533
0.596381
0.59741
0.598425
0.599425
0.600411
0.601396
0.602365
0.603337
0.604297
0.605264
0.606221
0.607192
0.608153
0.609134
0.6101
0.611087
0.612058
0.613047
0.614026
0.615011
0.616002
0.616994
0.618023
0.619067
0.620246
0.372192
0.315453
0.292826
0.279516
0.286388
0.295373
0.331463
0.373613
0.418617
0.463068
0.504553
0.541603
0.573477
0.599923
0.621223
0.637804
0.650551
0.660066
0.667424
0.673048
0.677644
0.681651
0.685129
0.688115
0.6906
0.692637
0.69433
0.695595
0.696477
0.696999
0.697263
0.697363
0.697346
0.697262
0.697122
0.696968
0.696798
0.696657
0.696533
0.696465
0.696433
0.696452
0.696523
0.69661
0.6967
0.696788
0.696866
0.696953
0.697037
0.697146
0.697268
0.697424
0.697613
0.697838
0.6981
0.698395
0.698723
0.699081
0.699461
0.699869
0.700289
0.700737
0.701191
0.701667
0.702156
0.702664
0.70319
0.703732
0.704298
0.704876
0.705479
0.706099
0.706735
0.707384
0.708043
0.708711
0.709379
0.710045
0.710714
0.711379
0.712052
0.712722
0.713404
0.714084
0.714779
0.715475
0.71619
0.716905
0.717644
0.718382
0.719144
0.719905
0.720685
0.721474
0.722263
0.723087
0.723863
0.724726
0.72553
0.726377
0.606742
0.839813
0.952198
0.969554
0.937537
0.881261
0.821358
0.769007
0.724418
0.688387
0.660679
0.640131
0.625395
0.614957
0.607662
0.602392
0.598511
0.595429
0.592917
0.590802
0.588979
0.587527
0.586345
0.58546
0.584757
0.584202
0.583767
0.583416
0.583086
0.582739
0.582334
0.581884
0.581386
0.580864
0.580311
0.579754
0.579188
0.578632
0.578087
0.577567
0.577072
0.576609
0.576181
0.575794
0.575442
0.575123
0.574828
0.574561
0.574311
0.574087
0.57388
0.573697
0.573539
0.57341
0.573307
0.57323
0.573183
0.573161
0.57317
0.5732
0.573259
0.573338
0.573444
0.573571
0.573717
0.573884
0.574072
0.57428
0.574509
0.574758
0.575027
0.575317
0.575624
0.57595
0.576293
0.576653
0.577028
0.577415
0.577815
0.578223
0.578642
0.579068
0.579505
0.579948
0.580403
0.580864
0.581337
0.581818
0.582312
0.582812
0.583326
0.583843
0.584383
0.584914
0.585485
0.586006
0.586569
0.587009
0.587307
0.587286
0.119577
2.29718
2.88261
3.08547
3.23179
3.28883
3.269
3.19976
3.09935
2.99211
2.88389
2.78071
2.68609
2.60087
2.52384
2.45309
2.38691
2.32358
2.26124
2.19968
2.13799
2.07591
2.01365
1.95155
1.88918
1.82723
1.76598
1.7062
1.64715
1.5893
1.53287
1.4784
1.42572
1.37478
1.32554
1.27794
1.23194
1.18747
1.14441
1.10267
1.06217
1.02282
0.984557
0.947364
0.911155
0.875888
0.841492
0.807903
0.775036
0.742887
0.711428
0.680691
0.650641
0.62136
0.592876
0.565345
0.538813
0.513498
0.489456
0.466887
0.445731
0.426212
0.408234
0.391961
0.377065
0.363692
0.351517
0.340719
0.330767
0.321682
0.313031
0.304969
0.297273
0.289777
0.282425
0.274979
0.268189
0.261529
0.256206
0.250457
0.246646
0.241703
0.24029
0.236882
0.238411
0.2361
0.239907
0.237942
0.243881
0.241236
0.247601
0.241987
0.245811
0.237008
0.237639
0.22763
0.22657
0.216642
0.215464
0.20558
0.35404
1.13235
2.06952
2.51618
2.74904
2.848
2.85915
2.81062
2.72796
2.63348
2.53797
2.44933
2.37142
2.30409
2.24549
2.19359
2.1463
2.10177
2.05834
2.01516
1.97125
1.92607
1.87949
1.83172
1.78243
1.73219
1.6812
1.6305
1.57942
1.52859
1.47785
1.42802
1.37947
1.33221
1.28625
1.24153
1.19812
1.15595
1.11492
1.07498
1.03607
0.998103
0.961054
0.924914
0.88962
0.855141
0.82143
0.788433
0.756088
0.7244
0.693367
0.663038
0.633406
0.604557
0.576551
0.549549
0.523624
0.498986
0.475717
0.453999
0.43379
0.415279
0.398395
0.383255
0.369546
0.357337
0.34632
0.33661
0.327709
0.31956
0.311747
0.304376
0.297262
0.290241
0.283263
0.276107
0.269494
0.262971
0.257692
0.251966
0.248015
0.24278
0.240823
0.236673
0.237401
0.234234
0.237411
0.234764
0.240258
0.237106
0.243182
0.237334
0.241067
0.232281
0.232977
0.223174
0.222246
0.212694
0.211622
0.202273
0.550981
0.546652
1.02319
1.57972
1.97705
2.18966
2.28078
2.29152
2.25678
2.19815
2.13201
2.06982
2.01376
1.96571
1.92555
1.89199
1.86306
1.83691
1.81221
1.78753
1.76174
1.73421
1.70459
1.67274
1.63848
1.6022
1.56399
1.52489
1.48443
1.44311
1.40107
1.3582
1.31545
1.27327
1.2318
1.19107
1.15122
1.11224
1.07406
1.03666
0.999994
0.964032
0.928773
0.894212
0.860324
0.827093
0.794496
0.762497
0.731059
0.700196
0.669943
0.640365
0.611489
0.583406
0.556212
0.530079
0.505106
0.481494
0.459354
0.438844
0.419942
0.402795
0.387358
0.37369
0.361494
0.350745
0.341158
0.332772
0.325128
0.318082
0.311247
0.304667
0.298212
0.291717
0.285158
0.27833
0.271927
0.265564
0.260354
0.254666
0.250598
0.245079
0.242572
0.237624
0.237449
0.233256
0.235603
0.232052
0.236904
0.233056
0.238679
0.232469
0.23602
0.227209
0.227962
0.218411
0.217652
0.208602
0.207675
0.199041
0.530827
0.495182
0.560476
0.767751
1.0707
1.34257
1.52384
1.61877
1.65654
1.6592
1.64326
1.62297
1.60087
1.58088
1.56503
1.55348
1.54491
1.53814
1.53133
1.52399
1.5153
1.50472
1.49188
1.4761
1.45748
1.43623
1.41239
1.38669
1.35893
1.32907
1.29832
1.26477
1.22985
1.19446
1.15897
1.12355
1.08847
1.05376
1.0194
0.985423
0.951838
0.918647
0.885885
0.853562
0.821701
0.790302
0.759366
0.728891
0.698863
0.669307
0.6403
0.611929
0.584258
0.557385
0.531451
0.506635
0.483072
0.460944
0.440397
0.421555
0.404423
0.389087
0.375535
0.363749
0.353448
0.344497
0.336639
0.329818
0.323634
0.317843
0.312102
0.306385
0.300635
0.294686
0.288563
0.28207
0.275898
0.269702
0.264574
0.258922
0.254751
0.248944
0.245889
0.240098
0.238938
0.233558
0.234871
0.230177
0.234154
0.229384
0.234354
0.227614
0.230868
0.221964
0.222761
0.213507
0.212966
0.204563
0.203827
0.196117
0.472648
0.463329
0.459979
0.486812
0.557023
0.666856
0.788641
0.897554
0.98014
1.0374
1.07367
1.09958
1.11898
1.13531
1.15071
1.16656
1.1823
1.19812
1.21189
1.22373
1.23332
1.24028
1.24432
1.24511
1.24269
1.23705
1.22839
1.21694
1.20257
1.185
1.16628
1.14389
1.11898
1.0924
1.06465
1.03613
1.00728
0.978127
0.948753
0.919265
0.889735
0.860227
0.830813
0.801534
0.772459
0.743603
0.715008
0.686709
0.658722
0.631082
0.603919
0.577339
0.551452
0.526362
0.502267
0.479348
0.457779
0.43772
0.419353
0.402756
0.387958
0.374975
0.363819
0.354377
0.346383
0.339572
0.333723
0.328677
0.324107
0.319665
0.315073
0.310229
0.30517
0.299729
0.294009
0.28782
0.281867
0.275814
0.270763
0.265118
0.260841
0.254724
0.251118
0.244444
0.242232
0.235531
0.235618
0.229539
0.23239
0.226451
0.230542
0.223077
0.225903
0.216829
0.217663
0.208759
0.208501
0.200906
0.200419
0.19386
0.410918
0.411382
0.406311
0.402144
0.403532
0.414234
0.431504
0.455664
0.483135
0.514578
0.54718
0.581723
0.61781
0.655302
0.693417
0.732296
0.770885
0.809104
0.845281
0.878687
0.908825
0.935279
0.957674
0.976355
0.991207
1.00188
1.00877
1.01154
1.01114
1.00682
1.00064
0.991071
0.978411
0.962818
0.944842
0.925146
0.904323
0.882308
0.859349
0.835668
0.811432
0.786768
0.761793
0.736592
0.711284
0.685902
0.66054
0.635262
0.610134
0.585206
0.560662
0.536631
0.513276
0.490713
0.469204
0.448922
0.430091
0.412834
0.397373
0.383721
0.371929
0.361914
0.35371
0.347084
0.34178
0.337392
0.333751
0.330591
0.32768
0.324567
0.321066
0.316997
0.31252
0.307463
0.302046
0.296065
0.290276
0.284301
0.27929
0.273588
0.269181
0.262708
0.258541
0.250944
0.247634
0.239508
0.238209
0.230536
0.232018
0.224663
0.227649
0.219261
0.221539
0.212222
0.213112
0.204631
0.204754
0.198132
0.197968
0.19278
0.343501
0.345953
0.344401
0.338864
0.330714
0.321932
0.312463
0.30337
0.294472
0.287202
0.282248
0.281213
0.285706
0.297154
0.316128
0.342978
0.376947
0.416829
0.46077
0.506352
0.551614
0.594917
0.635012
0.671096
0.703257
0.73062
0.753667
0.771308
0.785774
0.795865
0.80295
0.806513
0.806458
0.803165
0.796915
0.788159
0.777365
0.764199
0.749281
0.732971
0.715532
0.697144
0.677971
0.658145
0.637835
0.617101
0.596093
0.574904
0.553665
0.532446
0.511489
0.490947
0.471051
0.451937
0.433929
0.417186
0.401986
0.388407
0.376691
0.366763
0.358683
0.352249
0.347502
0.344056
0.341675
0.339811
0.338379
0.337011
0.335604
0.333608
0.330964
0.32742
0.323286
0.318378
0.313073
0.307132
0.301395
0.295382
0.290339
0.284482
0.279899
0.273003
0.268255
0.2597
0.255268
0.245663
0.242875
0.233467
0.23339
0.224419
0.226118
0.216645
0.218309
0.208722
0.209751
0.201802
0.202449
0.196956
0.197204
0.19356
0.263156
0.267091
0.268086
0.264897
0.257996
0.248344
0.236665
0.223965
0.211001
0.198689
0.187693
0.178652
0.172202
0.168681
0.168668
0.172487
0.181017
0.194458
0.213781
0.238583
0.268912
0.303401
0.340789
0.379256
0.418031
0.454961
0.489775
0.520616
0.548114
0.571425
0.590992
0.606779
0.618498
0.627065
0.632096
0.633897
0.632874
0.629294
0.623504
0.615768
0.606365
0.595481
0.583317
0.570035
0.555857
0.540874
0.52529
0.509229
0.492899
0.476391
0.460011
0.443932
0.428473
0.41378
0.400236
0.387975
0.377324
0.36829
0.361115
0.355594
0.351774
0.349305
0.348215
0.347965
0.348354
0.34874
0.349157
0.349163
0.348805
0.347459
0.34522
0.341769
0.337596
0.332493
0.327029
0.32089
0.315043
0.308831
0.303661
0.297533
0.292721
0.285331
0.279996
0.270472
0.264927
0.25386
0.249565
0.238409
0.236694
0.22602
0.226362
0.215746
0.216857
0.207079
0.208445
0.201204
0.202558
0.198308
0.199063
0.197021
0.175715
0.179273
0.181365
0.180554
0.176877
0.170977
0.163772
0.156341
0.149754
0.144669
0.141668
0.140794
0.141997
0.144918
0.149208
0.154458
0.160639
0.16748
0.175455
0.184425
0.195354
0.208035
0.223965
0.242351
0.263491
0.286572
0.311506
0.33703
0.362626
0.387292
0.41039
0.431409
0.449575
0.464755
0.477091
0.486443
0.492866
0.497276
0.499611
0.499868
0.498217
0.494764
0.489699
0.483177
0.475453
0.466625
0.456944
0.446551
0.435724
0.424574
0.413459
0.40256
0.392273
0.382749
0.374421
0.367373
0.361941
0.358019
0.355791
0.354883
0.355296
0.356539
0.358637
0.360938
0.363331
0.365148
0.366586
0.367164
0.36709
0.365687
0.363211
0.359289
0.354605
0.348905
0.342974
0.336378
0.330236
0.323664
0.318281
0.31179
0.306724
0.298809
0.292917
0.282473
0.275891
0.263494
0.257806
0.245074
0.241816
0.229555
0.228667
0.21705
0.217892
0.208197
0.210284
0.203985
0.206238
0.203234
0.204564
0.203976
0.104559
0.108319
0.111796
0.114515
0.116623
0.118625
0.121225
0.125093
0.130669
0.138044
0.14711
0.157409
0.168474
0.17972
0.190671
0.201083
0.210796
0.219746
0.228087
0.235771
0.243076
0.250174
0.257208
0.264486
0.272305
0.280876
0.290356
0.30073
0.312029
0.324074
0.336639
0.349369
0.361755
0.373169
0.383826
0.393414
0.401564
0.408294
0.413603
0.417402
0.419754
0.420619
0.4201
0.418266
0.415334
0.411346
0.406547
0.401061
0.395198
0.389051
0.382993
0.377179
0.372047
0.367727
0.364649
0.362787
0.362403
0.363223
0.365312
0.368128
0.371641
0.375292
0.379148
0.382539
0.385504
0.38743
0.388696
0.388805
0.388098
0.38585
0.38247
0.377523
0.371902
0.365274
0.358628
0.351373
0.34482
0.337807
0.332205
0.325349
0.320087
0.311709
0.30538
0.294175
0.286756
0.273345
0.266587
0.252697
0.248242
0.234807
0.233113
0.220969
0.222169
0.213099
0.216465
0.211299
0.214555
0.212586
0.214478
0.214917
0.11907
0.123468
0.128294
0.134161
0.14151
0.150588
0.16147
0.174086
0.188058
0.203035
0.21846
0.233776
0.248321
0.261803
0.274106
0.285266
0.295273
0.304196
0.312256
0.319605
0.326434
0.332724
0.338567
0.344073
0.349267
0.354396
0.359253
0.363883
0.368391
0.372782
0.377157
0.381458
0.385718
0.389701
0.39322
0.396359
0.39899
0.401028
0.402486
0.403307
0.40355
0.40312
0.402073
0.400399
0.398239
0.395544
0.392512
0.389208
0.385908
0.38265
0.379757
0.377317
0.375741
0.37509
0.375696
0.377368
0.3802
0.383714
0.387857
0.392031
0.396268
0.400044
0.403527
0.406117
0.40803
0.40874
0.408769
0.407589
0.405606
0.402014
0.397376
0.391177
0.384471
0.376857
0.369496
0.361626
0.354758
0.347427
0.341762
0.334714
0.329451
0.320839
0.314343
0.302738
0.294926
0.281124
0.273937
0.259657
0.254708
0.240929
0.239248
0.227532
0.230056
0.222267
0.227347
0.223126
0.227201
0.225747
0.228011
0.228781
0.205094
0.209197
0.213953
0.220274
0.228694
0.239195
0.251602
0.265442
0.280187
0.295169
0.309841
0.323744
0.336616
0.348358
0.359027
0.368677
0.377539
0.385628
0.393124
0.400107
0.406704
0.412887
0.418692
0.42402
0.428905
0.433223
0.437068
0.440392
0.443189
0.445401
0.447074
0.448176
0.448807
0.448737
0.447818
0.446388
0.444331
0.441709
0.438663
0.435267
0.431662
0.42782
0.423859
0.419798
0.415762
0.411698
0.407801
0.404119
0.400897
0.398122
0.396058
0.394728
0.394466
0.395221
0.397165
0.399917
0.403367
0.406919
0.410538
0.413715
0.416594
0.418747
0.42045
0.421197
0.421339
0.420406
0.418981
0.41646
0.413248
0.408452
0.402709
0.395509
0.388016
0.379752
0.372014
0.363875
0.356997
0.349665
0.344212
0.337275
0.332282
0.323768
0.317462
0.305963
0.298385
0.285001
0.278201
0.264445
0.259863
0.246755
0.2461
0.235929
0.240473
0.23415
0.240676
0.236663
0.241128
0.239579
0.241908
0.24243
0.295813
0.299245
0.303445
0.309246
0.317047
0.326722
0.337986
0.350319
0.363202
0.375988
0.388255
0.399762
0.410435
0.420333
0.429527
0.438146
0.446281
0.45401
0.461353
0.468313
0.474842
0.480857
0.486307
0.491073
0.495111
0.498352
0.500792
0.502393