/*--------------------------------*- C++ -*----------------------------------*\
| =========                 |                                                 |
| \\      /  F ield         | OpenFOAM: The Open Source CFD Toolbox           |
|  \\    /   O peration     | Version:  v2012                                 |
|   \\  /    A nd           | Website:  www.openfoam.com                      |
|    \\/     M anipulation  |                                                 |
\*---------------------------------------------------------------------------*/
FoamFile
{
    version     2.0;
    format      ascii;
    class       volVectorField;
    location    "0.3";
    object      U.air;
}
// * * * * * * * * * * * * * * * * * * * * * * * * * * * * * * * * * * * * * //

dimensions      [0 1 -1 0 0 0 0];


internalField   nonuniform List<vector> 
1900
(
(39.9676 0.00859688 0)
(39.9239 0.0151031 0)
(39.8679 0.0180588 0)
(39.8035 0.0207993 0)
(39.73 0.0237062 0)
(39.6526 0.0267683 0)
(39.5681 0.0297565 0)
(39.4712 0.034433 0)
(39.3801 0.0347839 0)
(39.2118 0.073503 0)
(40.0053 0.0147927 0)
(40.0212 0.0233975 0)
(40.0401 0.0257182 0)
(40.0561 0.0277458 0)
(40.0726 0.0304775 0)
(40.0898 0.0329399 0)
(40.1095 0.0364838 0)
(40.1257 0.0385578 0)
(40.1466 0.0533818 0)
(40.1568 0.0585716 0)
(40.0029 0.00824746 0)
(40.0161 0.0135856 0)
(40.0335 0.0137912 0)
(40.051 0.0145443 0)
(40.0688 0.0163129 0)
(40.0879 0.0182043 0)
(40.1087 0.0208556 0)
(40.1299 0.024805 0)
(40.1543 0.0350813 0)
(40.1844 0.0529455 0)
(40.0018 0.00414496 0)
(40.0132 0.00782145 0)
(40.0301 0.00860527 0)
(40.0479 0.00970547 0)
(40.066 0.0114323 0)
(40.0852 0.0132518 0)
(40.1064 0.0158684 0)
(40.1291 0.0197454 0)
(40.1561 0.0288802 0)
(40.1894 0.0416247 0)
(40.0015 0.001112 0)
(40.012 0.00211927 0)
(40.0285 0.00232727 0)
(40.0464 0.0026624 0)
(40.0645 0.00325309 0)
(40.084 0.00405072 0)
(40.1056 0.00562476 0)
(40.1294 0.00842126 0)
(40.1575 0.0146682 0)
(40.1918 0.0210544 0)
(40.0016 -0.00180292 0)
(40.0122 -0.00371606 0)
(40.0288 -0.00416326 0)
(40.0468 -0.00431399 0)
(40.065 -0.0043608 0)
(40.0846 -0.00401592 0)
(40.1066 -0.00289512 0)
(40.1311 -0.000789725 0)
(40.1597 0.00317612 0)
(40.1936 0.00640824 0)
(40.0019 -0.00486279 0)
(40.0136 -0.00947527 0)
(40.0308 -0.0105123 0)
(40.0489 -0.0114613 0)
(40.0672 -0.0126727 0)
(40.0871 -0.0134371 0)
(40.1094 -0.0134428 0)
(40.1344 -0.0127054 0)
(40.163 -0.0110203 0)
(40.1957 -0.0104531 0)
(40.0032 -0.00926928 0)
(40.0168 -0.0153327 0)
(40.0348 -0.0157394 0)
(40.0527 -0.016477 0)
(40.0709 -0.01804 0)
(40.0911 -0.0194037 0)
(40.1136 -0.0202815 0)
(40.1388 -0.020797 0)
(40.1672 -0.0210301 0)
(40.1987 -0.0225688 0)
(40.0057 -0.0162088 0)
(40.0223 -0.0253699 0)
(40.042 -0.0274341 0)
(40.0582 -0.0288787 0)
(40.0751 -0.0308085 0)
(40.0938 -0.0324197 0)
(40.1145 -0.0335734 0)
(40.1374 -0.0344434 0)
(40.1628 -0.0352272 0)
(40.1893 -0.0366674 0)
(39.9675 -0.0101412 0)
(39.9214 -0.0185951 0)
(39.8645 -0.0229106 0)
(39.797 -0.0265887 0)
(39.7223 -0.0303253 0)
(39.6428 -0.0339089 0)
(39.5582 -0.0373399 0)
(39.4686 -0.0407417 0)
(39.3739 -0.044104 0)
(39.2741 -0.0480425 0)
(39.1724 -0.0392828 0)
(38.0177 -0.354715 0)
(36.4706 -0.795034 0)
(34.9649 -1.35454 0)
(33.857 -1.88883 0)
(33.1084 -2.33222 0)
(32.5394 -2.60362 0)
(32.0825 -2.66912 0)
(31.6443 -2.5694 0)
(31.2131 -2.34956 0)
(30.7878 -2.07025 0)
(30.3628 -1.77857 0)
(29.9529 -1.50925 0)
(29.5502 -1.27308 0)
(29.1568 -1.07508 0)
(28.7761 -0.915257 0)
(28.4117 -0.789185 0)
(28.0663 -0.689257 0)
(27.7412 -0.608797 0)
(27.4404 -0.544786 0)
(27.1677 -0.494955 0)
(26.9199 -0.454102 0)
(26.6962 -0.418156 0)
(26.4939 -0.38614 0)
(26.3169 -0.359129 0)
(26.1598 -0.335916 0)
(26.0257 -0.315234 0)
(25.9104 -0.296208 0)
(25.8114 -0.278935 0)
(25.7264 -0.263722 0)
(25.6538 -0.250419 0)
(25.5905 -0.238428 0)
(25.5363 -0.227468 0)
(25.4878 -0.216976 0)
(25.4451 -0.207115 0)
(25.4078 -0.198128 0)
(25.3757 -0.190026 0)
(25.3482 -0.182607 0)
(25.3251 -0.175701 0)
(25.306 -0.169124 0)
(25.2907 -0.162966 0)
(25.2787 -0.1573 0)
(25.2697 -0.152124 0)
(25.263 -0.147318 0)
(25.2584 -0.142753 0)
(25.2557 -0.138261 0)
(25.2547 -0.133927 0)
(25.2551 -0.129863 0)
(25.257 -0.126096 0)
(25.2604 -0.122648 0)
(25.2652 -0.119377 0)
(25.2712 -0.116161 0)
(25.2783 -0.113037 0)
(25.2865 -0.110088 0)
(25.2957 -0.107341 0)
(25.3057 -0.104775 0)
(25.3166 -0.102356 0)
(25.3284 -0.100011 0)
(25.3407 -0.0977117 0)
(25.3537 -0.0954812 0)
(25.367 -0.0933736 0)
(25.3809 -0.0913966 0)
(25.3952 -0.089543 0)
(25.41 -0.087753 0)
(25.4251 -0.0860136 0)
(25.4405 -0.0843213 0)
(25.4562 -0.0827058 0)
(25.4721 -0.0811658 0)
(25.4882 -0.0797039 0)
(25.5045 -0.0782906 0)
(25.5209 -0.0769233 0)
(25.5375 -0.0755864 0)
(25.5541 -0.0742926 0)
(25.5708 -0.0730391 0)
(25.5875 -0.0718355 0)
(25.6042 -0.0706627 0)
(25.6208 -0.0695232 0)
(25.6375 -0.0683933 0)
(25.6539 -0.0672941 0)
(25.6704 -0.0662062 0)
(25.6866 -0.0651544 0)
(25.7028 -0.0641088 0)
(25.7186 -0.0630923 0)
(25.7345 -0.0620705 0)
(25.75 -0.0610738 0)
(25.7655 -0.0600752 0)
(25.7805 -0.0591084 0)
(25.7956 -0.0581448 0)
(25.8103 -0.0572157 0)
(25.8249 -0.0562927 0)
(25.8391 -0.0554162 0)
(25.8533 -0.0545546 0)
(25.867 -0.0537834 0)
(25.8809 -0.0530292 0)
(25.8941 -0.0525317 0)
(25.9078 -0.0519798 0)
(25.9204 -0.052265 0)
(25.9349 -0.052066 0)
(25.9452 -0.0543079 0)
(25.9652 -0.0544219 0)
(40.259 0.20537 0)
(40.4989 0.295873 0)
(40.6487 -0.0460583 0)
(40.4722 -0.668261 0)
(39.9271 -1.33079 0)
(39.098 -1.89413 0)
(38.1065 -2.25376 0)
(37.0576 -2.38364 0)
(36.0569 -2.32254 0)
(35.1535 -2.13325 0)
(34.3668 -1.87933 0)
(33.697 -1.61176 0)
(33.1363 -1.3619 0)
(32.6586 -1.14108 0)
(32.2421 -0.954068 0)
(31.8682 -0.802203 0)
(31.5227 -0.681893 0)
(31.1925 -0.585389 0)
(30.8672 -0.506998 0)
(30.5442 -0.445315 0)
(30.2261 -0.398268 0)
(29.9197 -0.361389 0)
(29.6255 -0.330594 0)
(29.3423 -0.305034 0)
(29.0755 -0.285379 0)
(28.8279 -0.270396 0)
(28.5987 -0.257735 0)
(28.3884 -0.246049 0)
(28.1953 -0.235487 0)
(28.0205 -0.226446 0)
(27.8615 -0.218427 0)
(27.7177 -0.210792 0)
(27.5867 -0.203252 0)
(27.468 -0.19565 0)
(27.3607 -0.188201 0)
(27.2636 -0.181278 0)
(27.1762 -0.174975 0)
(27.0973 -0.169165 0)
(27.0261 -0.163693 0)
(26.9617 -0.158435 0)
(26.9039 -0.153443 0)
(26.8512 -0.148743 0)
(26.8029 -0.14443 0)
(26.7589 -0.140501 0)
(26.7189 -0.136758 0)
(26.6825 -0.133042 0)
(26.6497 -0.129394 0)
(26.62 -0.125964 0)
(26.5934 -0.12286 0)
(26.5698 -0.120048 0)
(26.5488 -0.117372 0)
(26.5302 -0.114691 0)
(26.5139 -0.112062 0)
(26.4997 -0.109555 0)
(26.4874 -0.10721 0)
(26.4769 -0.105025 0)
(26.4681 -0.102929 0)
(26.4606 -0.100841 0)
(26.4543 -0.0987733 0)
(26.4492 -0.0967634 0)
(26.4452 -0.0948761 0)
(26.4423 -0.0931026 0)
(26.4404 -0.0914614 0)
(26.4395 -0.0898693 0)
(26.4393 -0.088322 0)
(26.4398 -0.0867604 0)
(26.441 -0.0852638 0)
(26.4428 -0.0838368 0)
(26.4451 -0.082481 0)
(26.448 -0.0811635 0)
(26.4512 -0.0798782 0)
(26.4549 -0.078608 0)
(26.4588 -0.0773656 0)
(26.463 -0.0761533 0)
(26.4674 -0.0749821 0)
(26.4719 -0.0738337 0)
(26.4766 -0.0727065 0)
(26.4814 -0.071581 0)
(26.4863 -0.0704735 0)
(26.4911 -0.0693748 0)
(26.496 -0.0683022 0)
(26.5009 -0.0672332 0)
(26.5057 -0.0661868 0)
(26.5106 -0.0651311 0)
(26.5153 -0.0640983 0)
(26.52 -0.0630594 0)
(26.5246 -0.0620527 0)
(26.5292 -0.0610445 0)
(26.5336 -0.0600729 0)
(26.538 -0.0591024 0)
(26.5423 -0.0581821 0)
(26.5465 -0.0572728 0)
(26.5506 -0.05646 0)
(26.5547 -0.0556615 0)
(26.5586 -0.0551291 0)
(26.5626 -0.0545473 0)
(26.5663 -0.0548243 0)
(26.5703 -0.0545621 0)
(26.5737 -0.0569854 0)
(26.5795 -0.0567942 0)
(40.2699 0.127743 0)
(40.4561 0.017745 0)
(40.6021 -0.368698 0)
(40.4975 -0.908896 0)
(40.0434 -1.44081 0)
(39.2825 -1.86017 0)
(38.3234 -2.09982 0)
(37.2915 -2.15532 0)
(36.2759 -2.06702 0)
(35.3657 -1.88566 0)
(34.5825 -1.65793 0)
(33.934 -1.42291 0)
(33.4101 -1.20413 0)
(32.9868 -1.00916 0)
(32.6442 -0.84233 0)
(32.3686 -0.706237 0)
(32.1463 -0.59731 0)
(31.9599 -0.507522 0)
(31.7954 -0.432567 0)
(31.6484 -0.373239 0)
(31.5145 -0.328064 0)
(31.3852 -0.292223 0)
(31.253 -0.261888 0)
(31.1142 -0.23659 0)
(30.9675 -0.217174 0)
(30.8134 -0.202912 0)
(30.6521 -0.191591 0)
(30.4835 -0.181481 0)
(30.3082 -0.172775 0)
(30.129 -0.166072 0)
(29.9482 -0.160998 0)
(29.7718 -0.156704 0)
(29.5996 -0.152608 0)
(29.4349 -0.148742 0)
(29.2789 -0.145495 0)
(29.1327 -0.142876 0)
(28.997 -0.140597 0)
(28.8713 -0.138419 0)
(28.7546 -0.136191 0)
(28.6461 -0.133848 0)
(28.5453 -0.131526 0)
(28.4517 -0.129206 0)
(28.3649 -0.126818 0)
(28.2844 -0.124426 0)
(28.2096 -0.121986 0)
(28.1401 -0.11943 0)
(28.0756 -0.116852 0)
(28.0159 -0.114427 0)
(27.961 -0.112226 0)
(27.91 -0.110166 0)
(27.8623 -0.10815 0)
(27.8177 -0.106129 0)
(27.7765 -0.104179 0)
(27.7382 -0.102335 0)
(27.7028 -0.100626 0)
(27.6699 -0.0990774 0)
(27.6397 -0.0976076 0)
(27.6116 -0.0960894 0)
(27.5858 -0.0945212 0)
(27.5619 -0.0929713 0)
(27.5399 -0.091515 0)
(27.5197 -0.0901462 0)
(27.5011 -0.0888149 0)
(27.4835 -0.0874635 0)
(27.4671 -0.0861307 0)
(27.4516 -0.0848126 0)
(27.4373 -0.083556 0)
(27.4236 -0.0823361 0)
(27.4109 -0.0811766 0)
(27.3987 -0.0800231 0)
(27.3873 -0.0788916 0)
(27.3762 -0.0777407 0)
(27.3658 -0.0766097 0)
(27.3556 -0.0754825 0)
(27.3458 -0.0743947 0)
(27.3362 -0.0733055 0)
(27.327 -0.0722361 0)
(27.3179 -0.0711446 0)
(27.3091 -0.0700727 0)
(27.3002 -0.0689915 0)
(27.2917 -0.0679424 0)
(27.2832 -0.0668839 0)
(27.2749 -0.0658476 0)
(27.2666 -0.0647958 0)
(27.2585 -0.0637651 0)
(27.2504 -0.0627279 0)
(27.2425 -0.0617202 0)
(27.2346 -0.0607127 0)
(27.2269 -0.0597376 0)
(27.2192 -0.058767 0)
(27.2116 -0.0578415 0)
(27.2041 -0.0569324 0)
(27.1968 -0.0561139 0)
(27.1894 -0.0553159 0)
(27.1823 -0.0547774 0)
(27.1749 -0.0542004 0)
(27.1683 -0.0544648 0)
(27.1605 -0.0542657 0)
(27.1552 -0.0566425 0)
(27.1446 -0.0564506 0)
(40.2634 0.0673392 0)
(40.4034 0.00417041 0)
(40.4966 -0.262169 0)
(40.3657 -0.678569 0)
(39.9156 -1.11199 0)
(39.179 -1.46759 0)
(38.2537 -1.69376 0)
(37.2565 -1.77786 0)
(36.2702 -1.73994 0)
(35.3812 -1.61386 0)
(34.6103 -1.4384 0)
(33.9672 -1.24893 0)
(33.4417 -1.06685 0)
(33.0117 -0.90065 0)
(32.6636 -0.757461 0)
(32.3882 -0.640917 0)
(32.1687 -0.546513 0)
(31.985 -0.466438 0)
(31.8291 -0.399098 0)
(31.7035 -0.346958 0)
(31.6059 -0.307835 0)
(31.5231 -0.274852 0)
(31.4448 -0.244199 0)
(31.3742 -0.218025 0)
(31.3176 -0.198336 0)
(31.2699 -0.182719 0)
(31.2229 -0.16836 0)
(31.1733 -0.154631 0)
(31.1214 -0.142296 0)
(31.0676 -0.132204 0)
(31.0114 -0.124525 0)
(30.9509 -0.118497 0)
(30.8836 -0.113189 0)
(30.8078 -0.108336 0)
(30.7235 -0.104376 0)
(30.6319 -0.101683 0)
(30.5346 -0.0999321 0)
(30.4329 -0.0985824 0)
(30.3274 -0.0973847 0)
(30.2192 -0.0962752 0)
(30.1094 -0.0952814 0)
(29.9996 -0.0944918 0)
(29.8931 -0.0940052 0)
(29.7904 -0.0936979 0)
(29.6914 -0.0933641 0)
(29.5962 -0.092952 0)
(29.5055 -0.0925432 0)
(29.4198 -0.0922132 0)
(29.3392 -0.0919679 0)
(29.263 -0.0916973 0)
(29.191 -0.0912384 0)
(29.1225 -0.0905767 0)
(29.0577 -0.0898329 0)
(28.996 -0.0890508 0)
(28.9377 -0.0882663 0)
(28.8823 -0.0875033 0)
(28.8298 -0.0867108 0)
(28.78 -0.0858236 0)
(28.733 -0.0848608 0)
(28.6883 -0.0838781 0)
(28.6462 -0.0829391 0)
(28.6059 -0.0820763 0)
(28.5678 -0.0812419 0)
(28.5311 -0.0803367 0)
(28.4963 -0.0793711 0)
(28.4626 -0.0783599 0)
(28.4304 -0.0773594 0)
(28.3989 -0.07637 0)
(28.3686 -0.0754126 0)
(28.3387 -0.0744355 0)
(28.31 -0.0734545 0)
(28.2814 -0.0724351 0)
(28.2537 -0.0714174 0)
(28.2261 -0.0703953 0)
(28.1993 -0.0694 0)
(28.1726 -0.068398 0)
(28.1466 -0.0674055 0)
(28.1206 -0.0663898 0)
(28.0953 -0.0653855 0)
(28.07 -0.0643729 0)
(28.0454 -0.0633909 0)
(28.0208 -0.062402 0)
(27.9969 -0.0614311 0)
(27.973 -0.0604415 0)
(27.9498 -0.0594712 0)
(27.9265 -0.058492 0)
(27.904 -0.0575432 0)
(27.8815 -0.0565916 0)
(27.8596 -0.0556746 0)
(27.8377 -0.0547592 0)
(27.8166 -0.0538906 0)
(27.7954 -0.0530381 0)
(27.775 -0.0522728 0)
(27.7544 -0.0515315 0)
(27.7348 -0.0510346 0)
(27.7145 -0.0505164 0)
(27.6962 -0.0507823 0)
(27.6747 -0.0506779 0)
(27.6601 -0.0528893 0)
(27.6311 -0.0531151 0)
(40.2555 0.031429 0)
(40.3567 -0.0318827 0)
(40.4022 -0.258916 0)
(40.2468 -0.61732 0)
(39.8045 -0.995501 0)
(39.098 -1.30665 0)
(38.2122 -1.50461 0)
(37.2565 -1.57696 0)
(36.3008 -1.54067 0)
(35.4297 -1.42763 0)
(34.6687 -1.27297 0)
(34.0284 -1.10728 0)
(33.4978 -0.94725 0)
(33.0598 -0.800865 0)
(32.7082 -0.676488 0)
(32.4319 -0.575983 0)
(32.2054 -0.492094 0)
(32.011 -0.419534 0)
(31.8517 -0.360589 0)
(31.7306 -0.316765 0)
(31.6327 -0.28232 0)
(31.5408 -0.250514 0)
(31.4568 -0.222028 0)
(31.3915 -0.200592 0)
(31.3431 -0.185182 0)
(31.3001 -0.171621 0)
(31.2566 -0.158052 0)
(31.2154 -0.145369 0)
(31.1825 -0.135216 0)
(31.1585 -0.127524 0)
(31.1386 -0.121051 0)
(31.1183 -0.114709 0)
(31.0955 -0.107873 0)
(31.0744 -0.101502 0)
(31.0569 -0.09607 0)
(31.0407 -0.0915117 0)
(31.0239 -0.0876995 0)
(31.0047 -0.0841214 0)
(30.9816 -0.0804115 0)
(30.9546 -0.0768204 0)
(30.9242 -0.0737842 0)
(30.8907 -0.0716671 0)
(30.8535 -0.0703764 0)
(30.8115 -0.0693565 0)
(30.7644 -0.0682597 0)
(30.7118 -0.0672221 0)
(30.6544 -0.0665245 0)
(30.5931 -0.0662729 0)
(30.5288 -0.0663106 0)
(30.4623 -0.0663677 0)
(30.3943 -0.0663128 0)
(30.325 -0.0662177 0)
(30.255 -0.0661798 0)
(30.1846 -0.0662643 0)
(30.1152 -0.0664645 0)
(30.0465 -0.0667022 0)
(29.979 -0.066932 0)
(29.9121 -0.0670823 0)
(29.8467 -0.0671471 0)
(29.7824 -0.0671533 0)
(29.7199 -0.0671194 0)
(29.6583 -0.0670384 0)
(29.5982 -0.0668643 0)
(29.5393 -0.0665755 0)
(29.4822 -0.0661783 0)
(29.4259 -0.0656833 0)
(29.3712 -0.065128 0)
(29.317 -0.0645273 0)
(29.2643 -0.0639068 0)
(29.2119 -0.0632237 0)
(29.161 -0.0624967 0)
(29.1102 -0.0616971 0)
(29.0609 -0.0608719 0)
(29.0117 -0.0600243 0)
(28.9639 -0.0591886 0)
(28.9162 -0.058334 0)
(28.8699 -0.0574816 0)
(28.8236 -0.0565987 0)
(28.7787 -0.0557247 0)
(28.7339 -0.0548438 0)
(28.6904 -0.0539691 0)
(28.647 -0.0530832 0)
(28.6049 -0.0522234 0)
(28.5629 -0.0513565 0)
(28.5223 -0.0505129 0)
(28.4817 -0.049667 0)
(28.4426 -0.0488525 0)
(28.4035 -0.0480385 0)
(28.3658 -0.0472591 0)
(28.3282 -0.0464834 0)
(28.292 -0.0457537 0)
(28.2558 -0.0450428 0)
(28.2211 -0.0444114 0)
(28.1862 -0.0438118 0)
(28.1531 -0.0434228 0)
(28.119 -0.04305 0)
(28.0883 -0.0433165 0)
(28.0523 -0.0434255 0)
(28.0279 -0.0452805 0)
(27.9796 -0.0464645 0)
(40.2478 0.00636942 0)
(40.3189 -0.0529349 0)
(40.3277 -0.234956 0)
(40.154 -0.518803 0)
(39.7188 -0.818108 0)
(39.0361 -1.06199 0)
(38.1811 -1.21592 0)
(37.2552 -1.27238 0)
(36.3242 -1.24534 0)
(35.4677 -1.1599 0)
(34.7173 -1.04239 0)
(34.0785 -0.913857 0)
(33.5412 -0.786884 0)
(33.0989 -0.670514 0)
(32.7462 -0.572078 0)
(32.4635 -0.4912 0)
(32.2237 -0.420964 0)
(32.0205 -0.360426 0)
(31.8639 -0.314445 0)
(31.7442 -0.280813 0)
(31.6346 -0.250681 0)
(31.5312 -0.222045 0)
(31.449 -0.199652 0)
(31.3899 -0.184387 0)
(31.339 -0.171787 0)
(31.2867 -0.158425 0)
(31.2362 -0.145347 0)
(31.1964 -0.135223 0)
(31.1673 -0.127904 0)
(31.1427 -0.121572 0)
(31.1177 -0.114864 0)
(31.0905 -0.107644 0)
(31.0674 -0.101523 0)
(31.0502 -0.0968753 0)
(31.0369 -0.0930379 0)
(31.0245 -0.0894798 0)
(31.0109 -0.0859261 0)
(30.9964 -0.0823396 0)
(30.9843 -0.0791014 0)
(30.9749 -0.076178 0)
(30.9667 -0.073604 0)
(30.9585 -0.071492 0)
(30.9491 -0.0696239 0)
(30.9386 -0.0676063 0)
(30.9274 -0.0653284 0)
(30.9161 -0.0630122 0)
(30.9039 -0.060974 0)
(30.8903 -0.0593383 0)
(30.8743 -0.0579742 0)
(30.8552 -0.0566811 0)
(30.8327 -0.0553547 0)
(30.8069 -0.0540493 0)
(30.7778 -0.0528635 0)
(30.7452 -0.0519351 0)
(30.7088 -0.051255 0)
(30.6682 -0.0506877 0)
(30.6234 -0.0500958 0)
(30.5744 -0.049518 0)
(30.5217 -0.0489884 0)
(30.4655 -0.0485264 0)
(30.4064 -0.0481109 0)
(30.3443 -0.0477298 0)
(30.2798 -0.0473899 0)
(30.213 -0.0470713 0)
(30.1445 -0.0467302 0)
(30.0747 -0.0463506 0)
(30.0041 -0.0459387 0)
(29.933 -0.0455199 0)
(29.8617 -0.0450944 0)
(29.7901 -0.044647 0)
(29.7191 -0.0441705 0)
(29.648 -0.0436512 0)
(29.5782 -0.0431122 0)
(29.5085 -0.0425536 0)
(29.4403 -0.0420042 0)
(29.3723 -0.0414387 0)
(29.306 -0.0408798 0)
(29.24 -0.0402893 0)
(29.1758 -0.0397047 0)
(29.112 -0.0391077 0)
(29.05 -0.0385521 0)
(28.9885 -0.0379954 0)
(28.929 -0.037444 0)
(28.8699 -0.0368804 0)
(28.8129 -0.0363276 0)
(28.7563 -0.0357752 0)
(28.7019 -0.0352467 0)
(28.6477 -0.0347232 0)
(28.5959 -0.034227 0)
(28.5442 -0.0337377 0)
(28.495 -0.0332863 0)
(28.4457 -0.0328528 0)
(28.3989 -0.0324834 0)
(28.3518 -0.0321525 0)
(28.3075 -0.0319754 0)
(28.2617 -0.03187 0)
(28.2208 -0.0321646 0)
(28.1729 -0.0326442 0)
(28.1403 -0.0339058 0)
(28.076 -0.036634 0)
(40.2419 -0.0161657 0)
(40.2904 -0.0671901 0)
(40.2717 -0.206837 0)
(40.0832 -0.423796 0)
(39.6529 -0.65625 0)
(38.9885 -0.849192 0)
(38.1576 -0.975711 0)
(37.2546 -1.02824 0)
(36.3422 -1.01515 0)
(35.4965 -0.954384 0)
(34.7488 -0.865701 0)
(34.103 -0.764747 0)
(33.5529 -0.662404 0)
(33.1037 -0.570264 0)
(32.7457 -0.49314 0)
(32.4444 -0.425455 0)
(32.1861 -0.365124 0)
(31.9833 -0.317333 0)
(31.8271 -0.281783 0)
(31.6876 -0.251085 0)
(31.5575 -0.222234 0)
(31.4517 -0.198936 0)
(31.3714 -0.18258 0)
(31.3 -0.169459 0)
(31.2278 -0.156198 0)
(31.1601 -0.143251 0)
(31.1046 -0.133105 0)
(31.059 -0.125947 0)
(31.0163 -0.119796 0)
(30.9722 -0.113123 0)
(30.9274 -0.106166 0)
(30.8878 -0.100416 0)
(30.8531 -0.0961627 0)
(30.8204 -0.0926069 0)
(30.7873 -0.0888441 0)
(30.7525 -0.0847358 0)
(30.7176 -0.0808947 0)
(30.6846 -0.0777961 0)
(30.6527 -0.0751833 0)
(30.621 -0.0725452 0)
(30.5888 -0.0697762 0)
(30.5554 -0.0671179 0)
(30.521 -0.0647346 0)
(30.4863 -0.0625681 0)
(30.4514 -0.0604771 0)
(30.4165 -0.0584332 0)
(30.3811 -0.0565188 0)
(30.3449 -0.0547556 0)
(30.3076 -0.0530425 0)
(30.2694 -0.0512955 0)
(30.2306 -0.0495091 0)
(30.1915 -0.0477469 0)
(30.1522 -0.0460441 0)
(30.1124 -0.044418 0)
(30.0719 -0.0427992 0)
(30.0305 -0.0411088 0)
(29.9881 -0.039375 0)
(29.945 -0.0376927 0)
(29.9012 -0.0361059 0)
(29.8567 -0.034596 0)
(29.8111 -0.0331223 0)
(29.7643 -0.0316838 0)
(29.7161 -0.0303227 0)
(29.6666 -0.0290557 0)
(29.6157 -0.0278736 0)
(29.5635 -0.0267662 0)
(29.5101 -0.0257354 0)
(29.4555 -0.0247937 0)
(29.3996 -0.0239292 0)
(29.3426 -0.0231541 0)
(29.2847 -0.0224566 0)
(29.226 -0.0218269 0)
(29.1667 -0.0212576 0)
(29.107 -0.0207432 0)
(29.047 -0.0202895 0)
(28.9868 -0.0198857 0)
(28.9267 -0.019531 0)
(28.8665 -0.0192045 0)
(28.8071 -0.0189122 0)
(28.7476 -0.0186471 0)
(28.6893 -0.0184125 0)
(28.6309 -0.018202 0)
(28.5741 -0.0180204 0)
(28.5173 -0.0178616 0)
(28.4623 -0.0177238 0)
(28.4074 -0.0176065 0)
(28.3544 -0.0175109 0)
(28.3016 -0.017434 0)
(28.2508 -0.0173732 0)
(28.2001 -0.0173265 0)
(28.1515 -0.0172981 0)
(28.1029 -0.0172853 0)
(28.0564 -0.0173062 0)
(28.0097 -0.017368 0)
(27.9654 -0.0175026 0)
(27.9196 -0.0177726 0)
(27.8784 -0.0181372 0)
(27.8297 -0.0191001 0)
(27.7968 -0.0196137 0)
(27.7301 -0.0241581 0)
(40.2386 -0.0300089 0)
(40.2709 -0.0704532 0)
(40.2318 -0.171527 0)
(40.0308 -0.327113 0)
(39.6008 -0.494848 0)
(38.9444 -0.634489 0)
(38.1222 -0.72641 0)
(37.2227 -0.765092 0)
(36.3069 -0.757401 0)
(35.4526 -0.717511 0)
(34.685 -0.656681 0)
(34.0084 -0.584836 0)
(33.4376 -0.513454 0)
(32.9676 -0.449426 0)
(32.5669 -0.39173 0)
(32.2243 -0.33985 0)
(31.9432 -0.296473 0)
(31.7125 -0.26227 0)
(31.5068 -0.233655 0)
(31.3207 -0.20814 0)
(31.1604 -0.18647 0)
(31.0235 -0.169854 0)
(30.8965 -0.156786 0)
(30.7739 -0.144848 0)
(30.6599 -0.133414 0)
(30.5571 -0.123491 0)
(30.4615 -0.115705 0)
(30.3675 -0.109344 0)
(30.2744 -0.103075 0)
(30.1847 -0.0965318 0)
(30.0996 -0.0905471 0)
(30.0174 -0.0857216 0)
(29.9359 -0.0817638 0)
(29.8544 -0.0779602 0)
(29.7738 -0.0738379 0)
(29.6952 -0.0697125 0)
(29.6183 -0.0662137 0)
(29.5423 -0.0633646 0)
(29.4664 -0.0607267 0)
(29.3909 -0.057938 0)
(29.3166 -0.0550349 0)
(29.2437 -0.0523388 0)
(29.1717 -0.0500558 0)
(29.1004 -0.0480506 0)
(29.0299 -0.0460559 0)
(28.9605 -0.0439943 0)
(28.8923 -0.0419663 0)
(28.8252 -0.0400673 0)
(28.7592 -0.0382916 0)
(28.6944 -0.0366066 0)
(28.6309 -0.0349862 0)
(28.5689 -0.0334343 0)
(28.5081 -0.031936 0)
(28.4489 -0.0305002 0)
(28.3909 -0.0291049 0)
(28.3345 -0.0277395 0)
(28.2796 -0.026418 0)
(28.2266 -0.0251862 0)
(28.1748 -0.0240249 0)
(28.1249 -0.022894 0)
(28.0763 -0.0217403 0)
(28.0296 -0.0205826 0)
(27.9841 -0.0194571 0)
(27.9406 -0.0183962 0)
(27.8982 -0.0173767 0)
(27.8574 -0.0163868 0)
(27.8178 -0.0154098 0)
(27.7796 -0.0144668 0)
(27.7423 -0.0135573 0)
(27.7063 -0.0127065 0)
(27.671 -0.0119307 0)
(27.6368 -0.0112131 0)
(27.6031 -0.0105327 0)
(27.5703 -0.00989678 0)
(27.5379 -0.0093167 0)
(27.5061 -0.00880563 0)
(27.4747 -0.00835652 0)
(27.4436 -0.00797348 0)
(27.4129 -0.00764323 0)
(27.3824 -0.00736687 0)
(27.3522 -0.00714219 0)
(27.322 -0.0069652 0)
(27.2921 -0.00683333 0)
(27.2621 -0.00674268 0)
(27.2323 -0.00668825 0)
(27.2025 -0.00666932 0)
(27.1727 -0.00668332 0)
(27.1429 -0.00672937 0)
(27.1132 -0.00679899 0)
(27.0834 -0.00689319 0)
(27.0537 -0.00700736 0)
(27.024 -0.00714412 0)
(26.9945 -0.00730728 0)
(26.9647 -0.00751253 0)
(26.9355 -0.0077281 0)
(26.9049 -0.00811323 0)
(26.8769 -0.00835646 0)
(26.8424 -0.00948501 0)
(26.8199 -0.00918221 0)
(26.7695 -0.0145937 0)
(40.2229 -0.0441214 0)
(40.2345 -0.0683461 0)
(40.1702 -0.129278 0)
(39.943 -0.223499 0)
(39.4859 -0.326545 0)
(38.7965 -0.413767 0)
(37.9306 -0.472624 0)
(36.9718 -0.498691 0)
(35.9908 -0.496111 0)
(35.0466 -0.472369 0)
(34.1776 -0.433772 0)
(33.4035 -0.388444 0)
(32.7267 -0.343354 0)
(32.1363 -0.301315 0)
(31.623 -0.263111 0)
(31.1826 -0.230033 0)
(30.8006 -0.202493 0)
(30.4632 -0.17944 0)
(30.1592 -0.159408 0)
(29.8878 -0.142362 0)
(29.6428 -0.128086 0)
(29.4191 -0.116318 0)
(29.2109 -0.106166 0)
(29.0166 -0.0971658 0)
(28.8369 -0.0893712 0)
(28.6692 -0.0825328 0)
(28.5108 -0.0763684 0)
(28.3591 -0.0707262 0)
(28.2146 -0.0655455 0)
(28.0775 -0.0607313 0)
(27.9474 -0.0562789 0)
(27.8229 -0.0522084 0)
(27.7029 -0.0484605 0)
(27.5874 -0.0449638 0)
(27.4766 -0.0416234 0)
(27.3708 -0.0384772 0)
(27.2694 -0.0356308 0)
(27.1719 -0.0330357 0)
(27.0776 -0.0305819 0)
(26.987 -0.0282165 0)
(26.9001 -0.0259654 0)
(26.817 -0.0239121 0)
(26.737 -0.022074 0)
(26.66 -0.0203772 0)
(26.5857 -0.0187326 0)
(26.5145 -0.0171485 0)
(26.446 -0.0156854 0)
(26.3804 -0.0143753 0)
(26.3172 -0.0131778 0)
(26.2567 -0.0120512 0)
(26.1983 -0.010974 0)
(26.1426 -0.00996485 0)
(26.0889 -0.00903054 0)
(26.0377 -0.00817648 0)
(25.9883 -0.00738264 0)
(25.9413 -0.00662338 0)
(25.8962 -0.00588856 0)
(25.8535 -0.00519938 0)
(25.8123 -0.004561 0)
(25.7734 -0.00396237 0)
(25.7361 -0.00338002 0)
(25.701 -0.00282038 0)
(25.6674 -0.00229718 0)
(25.6359 -0.00181939 0)
(25.6058 -0.00137182 0)
(25.5776 -0.000946142 0)
(25.5507 -0.000537304 0)
(25.5255 -0.00015385 0)
(25.5015 0.000201083 0)
(25.4792 0.000525738 0)
(25.4577 0.000836822 0)
(25.4376 0.00107017 0)
(25.4184 0.0012711 0)
(25.4002 0.0014554 0)
(25.3827 0.00163127 0)
(25.3662 0.00178131 0)
(25.35 0.00191776 0)
(25.3347 0.00203044 0)
(25.3196 0.00213338 0)
(25.3052 0.00222414 0)
(25.291 0.00230013 0)
(25.2772 0.00235189 0)
(25.2636 0.00239557 0)
(25.2503 0.00243728 0)
(25.2371 0.00247429 0)
(25.224 0.00250509 0)
(25.211 0.00252622 0)
(25.1981 0.00253865 0)
(25.185 0.00253945 0)
(25.172 0.00253258 0)
(25.1588 0.0025122 0)
(25.1455 0.00247952 0)
(25.1321 0.00242674 0)
(25.1184 0.00231793 0)
(25.1048 0.00222392 0)
(25.0899 0.00194261 0)
(25.0767 0.00194547 0)
(25.0582 0.000987206 0)
(25.0479 0.00151919 0)
(25.0178 -0.00294826 0)
(39.1402 -0.0539802 0)
(38.9464 -0.0675466 0)
(38.6586 -0.0934487 0)
(38.1914 -0.131021 0)
(37.4774 -0.172078 0)
(36.5128 -0.207811 0)
(35.3544 -0.233297 0)
(34.0901 -0.246401 0)
(32.7977 -0.248014 0)
(31.5411 -0.240155 0)
(30.3741 -0.225354 0)
(29.3097 -0.206663 0)
(28.3624 -0.18654 0)
(27.526 -0.166276 0)
(26.7955 -0.147175 0)
(26.1542 -0.130019 0)
(25.5938 -0.114742 0)
(25.0992 -0.100713 0)
(24.666 -0.0882351 0)
(24.281 -0.0775631 0)
(23.9407 -0.0685474 0)
(23.6346 -0.0608495 0)
(23.3585 -0.0542328 0)
(23.1083 -0.0488903 0)
(22.8794 -0.0444916 0)
(22.6704 -0.0403992 0)
(22.4793 -0.0365293 0)
(22.3046 -0.0332609 0)
(22.1434 -0.0306162 0)
(21.995 -0.0281942 0)
(21.8588 -0.0257775 0)
(21.7342 -0.0235431 0)
(21.6196 -0.0217064 0)
(21.5137 -0.0202142 0)
(21.4159 -0.0188186 0)
(21.3262 -0.0174213 0)
(21.2439 -0.0161358 0)
(21.1683 -0.0150698 0)
(21.0983 -0.0141949 0)
(21.0339 -0.0133945 0)
(20.9745 -0.0125896 0)
(20.9204 -0.0118205 0)
(20.8705 -0.011161 0)
(20.8248 -0.0106223 0)
(20.7823 -0.0101391 0)
(20.7436 -0.00966643 0)
(20.708 -0.00920589 0)
(20.6756 -0.00878149 0)
(20.6457 -0.00839735 0)
(20.6185 -0.00804837 0)
(20.5934 -0.00772152 0)
(20.5708 -0.00741636 0)
(20.55 -0.00712305 0)
(20.5313 -0.00684372 0)
(20.5141 -0.00657663 0)
(20.4988 -0.00632553 0)
(20.4848 -0.00609026 0)
(20.4725 -0.00588466 0)
(20.4613 -0.00570215 0)
(20.4515 -0.00553382 0)
(20.4426 -0.00535951 0)
(20.4352 -0.00518735 0)
(20.4285 -0.00501833 0)
(20.423 -0.00486603 0)
(20.4182 -0.00470982 0)
(20.4146 -0.00455331 0)
(20.4115 -0.00436986 0)
(20.4095 -0.00418479 0)
(20.4081 -0.0039638 0)
(20.4076 -0.00370417 0)
(20.4077 -0.00352693 0)
(20.4085 -0.0033503 0)
(20.4099 -0.00319801 0)
(20.4119 -0.00305228 0)
(20.4145 -0.0029085 0)
(20.4176 -0.00277349 0)
(20.4213 -0.00264694 0)
(20.4253 -0.00253949 0)
(20.4297 -0.00244182 0)
(20.4344 -0.0023569 0)
(20.4394 -0.00228913 0)
(20.4446 -0.00226227 0)
(20.45 -0.00225377 0)
(20.4555 -0.00225557 0)
(20.4611 -0.0022643 0)
(20.4668 -0.00227863 0)
(20.4724 -0.00229621 0)
(20.4781 -0.00231506 0)
(20.4837 -0.00233723 0)
(20.4892 -0.00235724 0)
(20.4947 -0.0023823 0)
(20.4999 -0.00240502 0)
(20.5052 -0.00243514 0)
(20.5097 -0.00249621 0)
(20.5146 -0.00253994 0)
(20.518 -0.00268044 0)
(20.5227 -0.00262417 0)
(20.524 -0.00322307 0)
(20.5277 -0.00208127 0)
(20.5227 -0.00798313 0)
(1.95437 0.421238 0)
(1.64907 2.05102 0)
(0.910905 2.40128 0)
(0.110915 2.5677 0)
(-0.665574 2.43237 0)
(-1.46651 1.98152 0)
(-2.15367 1.28401 0)
(-2.51272 0.770952 0)
(10.5778 0.318084 0)
(4.36564 1.81698 0)
(1.74411 2.17481 0)
(-0.155018 2.21102 0)
(-2.00006 2.04563 0)
(-3.87731 1.69172 0)
(-5.71493 1.11972 0)
(-6.92409 0.530807 0)
(16.8868 -0.371862 0)
(7.91511 0.751522 0)
(2.86677 1.2142 0)
(-0.390801 1.32793 0)
(-2.9925 1.24932 0)
(-5.40338 1.0588 0)
(-7.85091 0.753711 0)
(-9.97521 0.288393 0)
(20.5479 -1.17077 0)
(11.239 -0.438566 0)
(4.58037 0.0734931 0)
(0.166287 0.312111 0)
(-3.14767 0.393389 0)
(-6.02668 0.379204 0)
(-8.77042 0.303335 0)
(-11.4791 0.0760387 0)
(22.4346 -1.81035 0)
(13.5547 -1.3272 0)
(6.44274 -0.873379 0)
(1.28495 -0.548981 0)
(-2.61863 -0.32824 0)
(-5.86406 -0.179404 0)
(-8.80814 -0.0646639 0)
(-11.7951 -0.0515924 0)
(23.6383 -2.31559 0)
(15.4317 -1.97617 0)
(8.2598 -1.57569 0)
(2.7433 -1.21556 0)
(-1.47203 -0.904726 0)
(-4.91752 -0.6309 0)
(-7.98474 -0.380779 0)
(-11.1055 -0.205936 0)
(24.3329 -2.60593 0)
(16.9013 -2.37076 0)
(10.0266 -2.03617 0)
(4.4423 -1.67069 0)
(0.115673 -1.30549 0)
(-3.37698 -0.946698 0)
(-6.43093 -0.5977 0)
(-9.51232 -0.307158 0)
(24.7682 -2.67801 0)
(17.9672 -2.50943 0)
(11.515 -2.23409 0)
(6.15517 -1.89315 0)
(1.91899 -1.51311 0)
(-1.51044 -1.11238 0)
(-4.49001 -0.712706 0)
(-7.5282 -0.358451 0)
(25.0646 -2.58806 0)
(18.8341 -2.46096 0)
(12.8345 -2.23085 0)
(7.7937 -1.9191 0)
(3.7629 -1.55071 0)
(0.479111 -1.14693 0)
(-2.37461 -0.740308 0)
(-5.32873 -0.36918 0)
(25.251 -2.38137 0)
(19.5304 -2.28727 0)
(13.9918 -2.09729 0)
(9.31691 -1.82128 0)
(5.53753 -1.48045 0)
(2.42573 -1.09686 0)
(-0.297038 -0.70885 0)
(-3.17827 -0.353643 0)
(25.3304 -2.11385 0)
(20.061 -2.05173 0)
(14.9677 -1.89744 0)
(10.6754 -1.65939 0)
(7.16911 -1.35426 0)
(4.24238 -1.00517 0)
(1.65856 -0.650585 0)
(-1.14554 -0.325748 0)
(25.3127 -1.83513 0)
(20.4566 -1.79903 0)
(15.8045 -1.67507 0)
(11.8633 -1.47221 0)
(8.60655 -1.20347 0)
(5.86487 -0.895293 0)
(3.41664 -0.580447 0)
(0.69703 -0.29171 0)
(25.2216 -1.57401 0)
(20.7375 -1.55789 0)
(16.5021 -1.45903 0)
(12.8899 -1.28627 0)
(9.86456 -1.05221 0)
(7.29289 -0.782677 0)
(4.96282 -0.504831 0)
(2.30892 -0.250363 0)
(25.0839 -1.34499 0)
(20.9389 -1.34156 0)
(17.0855 -1.26289 0)
(13.7725 -1.11624 0)
(10.9567 -0.913558 0)
(8.53862 -0.679463 0)
(6.31453 -0.436087 0)
(3.71819 -0.214305 0)
(24.9172 -1.15051 0)
(21.0782 -1.15495 0)
(17.5721 -1.09162 0)
(14.5312 -0.966883 0)
(11.9027 -0.792646 0)
(9.62002 -0.590065 0)
(7.48727 -0.37735 0)
(4.93598 -0.18445 0)
(24.7431 -0.990484 0)
(21.1863 -0.996824 0)
(17.9782 -0.945136 0)
(15.1714 -0.838313 0)
(12.7159 -0.689656 0)
(10.5574 -0.514582 0)
(8.50742 -0.327789 0)
(5.99393 -0.161594 0)
(24.5805 -0.861655 0)
(21.281 -0.8668 0)
(18.3233 -0.822291 0)
(15.7146 -0.730009 0)
(13.4158 -0.60241 0)
(11.3714 -0.450305 0)
(9.39987 -0.284138 0)
(6.91572 -0.145741 0)
(24.4343 -0.756578 0)
(21.3684 -0.760223 0)
(18.6244 -0.720143 0)
(16.1854 -0.639434 0)
(14.0238 -0.528459 0)
(12.0823 -0.39529 0)
(10.1866 -0.247033 0)
(7.71802 -0.131364 0)
(24.3063 -0.669338 0)
(21.451 -0.671453 0)
(18.8913 -0.63486 0)
(16.5988 -0.563399 0)
(14.5565 -0.465779 0)
(12.706 -0.348461 0)
(10.8783 -0.217 0)
(8.42443 -0.115981 0)
(24.1975 -0.597296 0)
(21.53 -0.59802 0)
(19.1306 -0.564134 0)
(16.9657 -0.500138 0)
(15.0277 -0.413296 0)
(13.2572 -0.309052 0)
(11.4891 -0.19226 0)
(9.04794 -0.10218 0)
(24.1078 -0.538705 0)
(21.6076 -0.538461 0)
(19.3485 -0.506523 0)
(17.2962 -0.448733 0)
(15.4495 -0.370547 0)
(13.7491 -0.276829 0)
(12.0334 -0.172068 0)
(9.60245 -0.0907305 0)
(24.0338 -0.490159 0)
(21.6841 -0.489257 0)
(19.5461 -0.45925 0)
(17.5963 -0.406669 0)
(15.8314 -0.335624 0)
(14.1934 -0.250522 0)
(12.5237 -0.155571 0)
(10.101 -0.0813829 0)
(23.9718 -0.448358 0)
(21.758 -0.446739 0)
(19.7279 -0.41866 0)
(17.8703 -0.37048 0)
(16.1793 -0.305583 0)
(14.5976 -0.227916 0)
(12.9689 -0.141353 0)
(10.5528 -0.0734428 0)
(23.9206 -0.411583 0)
(21.8295 -0.409081 0)
(19.8963 -0.382915 0)
(18.1218 -0.338603 0)
(16.4975 -0.279124 0)
(14.9666 -0.208015 0)
(13.3747 -0.128799 0)
(10.9636 -0.0665806 0)
(23.8796 -0.380171 0)
(21.8975 -0.376865 0)
(20.052 -0.352188 0)
(18.353 -0.311125 0)
(16.7895 -0.256299 0)
(15.305 -0.190856 0)
(13.7462 -0.117978 0)
(11.3387 -0.0607632 0)
(23.8483 -0.353892 0)
(21.9653 -0.349324 0)
(20.1991 -0.326223 0)
(18.5682 -0.287893 0)
(17.0597 -0.236937 0)