/*--------------------------------*- C++ -*----------------------------------*\
| =========                 |                                                 |
| \\      /  F ield         | OpenFOAM: The Open Source CFD Toolbox           |
|  \\    /   O peration     | Version:  v2012                                 |
|   \\  /    A nd           | Website:  www.openfoam.com                      |
|    \\/     M anipulation  |                                                 |
\*---------------------------------------------------------------------------*/
FoamFile
{
    version     2.0;
    format      ascii;
    class       volScalarField;
    location    "0.103";
    object      omega.air;
}
// * * * * * * * * * * * * * * * * * * * * * * * * * * * * * * * * * * * * * //

dimensions      [0 0 -1 0 0 0 0];


internalField   nonuniform List<scalar> 
5600
(
6774.99
9486.12
11877.2
13295.6
13892.8
13968.6
13768.6
13434.9
13076.3
12742.4
12451.1
12201.2
12011.2
11870.4
11781.1
11731.5
11709.1
11710
11718.3
11731.5
11748.3
11756
11770.8
11772.7
11783
11785.2
11790.9
11797.3
11797.4
11808.3
11804.5
11816.2
11811.4
11818.9
11816
11817.1
11817.7
11813.6
11815.5
11810.5
11810.2
11808.3
11803.6
11805.7
11797.7
11802.6
11794.3
11798.6
11792.7
11794.5
11792
11791.8
11791.5
11790.3
11791
11789.4
11791.4
11788.6
11792.5
11787.8
11793.4
11788
11793.8
11790
11794.2
11793.1
11796.2
11796
11801
11798.7
11808
11802.8
11814.1
11808.2
11818.5
11813.7
11823.5
11818.3
11831.6
11822.5
11840.5
11828.7
11847.3
11836.7
11853.7
11844
11862.9
11850.3
11871.5
11861.5
11871
11885.4
11852.2
11933.1
11793.7
12055.7
11576.5
12465
10626.3
13894.7
2506.79
2659.96
3499.44
4409.49
5079.15
5504.88
5761.6
5920.76
5997.22
6002.12
6087.51
6225.59
6349.07
6440.75
6482.57
6478.55
6438.14
6364.86
6275.5
6171.41
6066.57
5959.61
5863.37
5770.12
5686.04
5605.2
5527.26
5459.42
5392.6
5336.07
5281.72
5235.03
5190.25
5151.87
5116.56
5083.75
5056.16
5029.48
5006.77
4985.54
4966.09
4949.56
4932.9
4919.15
4905.68
4893.76
4882.14
4871.78
4861.72
4852.23
4843.78
4835.43
4828.03
4820.87
4814.35
4807.9
4802.47
4796.82
4792.4
4787.21
4783.54
4778.68
4775.35
4771.32
4767.86
4764.71
4761.69
4758.38
4756.08
4753.56
4751.56
4749.66
4748.27
4746.92
4745.73
4744.15
4742.84
4741.01
4739.77
4738.49
4737.49
4736.84
4735.87
4735.72
4734.01
4734.88
4731.97
4735.41
4729.39
4739.01
4724
4748.87
4709.29
4775.13
4665.05
4848.9
4532.51
5078.51
4093.26
5808.56
2556.76
2211.98
1999.24
1892.56
1863.45
1939.43
2040.95
2170.66
2319.86
2455.6
2600.48
2762.59
2938.81
3107.62
3267.46
3399.81
3506.23
3583.94
3627.14
3649.67
3633.1
3603.62
3537.09
3466.35
3386.91
3319.08
3263.02
3213.6
3167.9
3127.16
3087.91
3055.86
3023.85
2994.29
2966.29
2938.81
2914.66
2890.77
2869.46
2848.94
2829.54
2812.74
2795.42
2781.25
2766.09
2754.47
2741.34
2731.12
2720.24
2710.78
2702
2693.66
2686.17
2678.78
2672.18
2665.36
2659.88
2653.66
2649.31
2643.39
2639.83
2634.22
2630.92
2626.29
2622.83
2619.1
2615.99
2612.12
2609.8
2605.95
2604.55
2600.93
2600.13
2596.98
2596.13
2593.15
2592.05
2588.98
2588.39
2585.26
2585.31
2582.66
2582.15
2580.97
2578.58
2579.48
2574.89
2579.12
2569.84
2582.94
2560.21
2594.45
2541.04
2619.67
2501.75
2673.11
2420.59
2780.41
2271.34
2922.62
2552.28
2196.05
1925.91
1722.69
1561.33
1441.34
1350.94
1280.06
1237.21
1199.02
1192.87
1194.11
1230.05
1277.68
1348.74
1441.45
1534.73
1658.87
1754.04
1885.33
1968.97
2076.96
2139.88
2201.58
2244.52
2266.07
2294.46
2289.97
2299.3
2275.09
2260.95
2228.46
2199.26
2173.58
2148.29
2127.48
2105.45
2086.13
2067.26
2048.73
2032.26
2016.39
2001.78
1987.95
1973.16
1960.61
1946.65
1934.6
1922.33
1911.22
1900.85
1891.05
1881.97
1873.01
1864.82
1856.45
1849.45
1841.84
1835.95
1828.69
1823.52
1816.71
1811.77
1805.94
1801.26
1796.19
1791.99
1786.96
1783.41
1778.18
1775.6
1770.67
1768.64
1764.26
1762.19
1758.21
1756.19
1752.26
1751.03
1747.21
1746.45
1743.35
1741.6
1740.27
1736.64
1737.2
1731.75
1735.11
1725.63
1736.39
1716.38
1742.06
1703.41
1752.11
1686.03
1766.37
1665.57
1777.4
1658.71
1741.27
2550.81
2192.04
1920.12
1709.12
1541.04
1401.22
1291.65
1190.37
1117.66
1040.98
990.196
935.949
895.048
866.633
827.288
827.036
790.903
813.568
799.057
837.199
854.983
900.251
958.008
1000.28
1096.33
1130.09
1248.23
1279.65
1389.35
1425.27
1496.41
1534.21
1563.63
1598.02
1606.08
1627.55
1628.52
1633.01
1632
1621.88
1618.9
1600.57
1593.06
1576.72
1567.15
1555.08
1544.27
1533.89
1523.5
1513.93
1504.11
1494.86
1485.73
1477.38
1469.16
1461.86
1454.51
1447.03
1440.17
1432.43
1426.23
1418.78
1412.87
1406.21
1400.67
1394.76
1389.58
1383.76
1379.21
1373.14
1369.45
1363.61
1360.24
1354.95
1351.43
1346.64
1343.49
1338.86
1336.64
1332.26
1330.25
1326.66
1323.63
1321.42
1317.31
1316.11
1311.43
1311.59
1304.82
1309.12
1296.96
1308.03
1289.54
1306.42
1284.16
1302.34
1282.95
1291.87
1290.93
1267.83
2550.7
2190.32
1919.24
1705.89
1538.88
1396.35
1285.79
1182.69
1104.62
1028.24
967.182
913.17
858.911
824.384
773.573
751.499
709.62
687.329
665.337
631.69
635.386
589.94
613.484
568.429
599.098
571.325
600.119
601.173
625.665
660.272
679.791
745.657
759.602
845.278
863.256
936.269
983.267
1017.89
1082.24
1096.53
1154.44
1156.69
1196.13
1202.85
1221.73
1228.27
1234.31
1240.89
1243.36
1245.01
1241.92
1237.96
1230.7
1225.72
1216.6
1212.87
1203.68
1199.59
1192.22
1186.75
1181.86
1175.79
1171.99
1166.56
1161.98
1157.54
1152.41
1147.96
1143.96
1138.84
1135.74
1130.41
1126.87
1121.47
1117.3
1112.45
1108.87
1104.2
1101.55
1096.85
1094
1089.86
1086.18
1082.8
1079.06
1075.91
1072.6
1069.87
1065.71
1064.79
1058.65
1059.69
1053.17
1053.6
1049.68
1046.74
1047.46
1039.51
1045.17
1033.14
2550.87
2189.47
1919.04
1704.92
1537.78
1396.02
1283.06
1183.34
1100.19
1028.85
962.349
911.13
856.011
816.507
773.914
736.489
710.488
667.585
659.168
610.729
612.66
568.534
565.774
541.01
518.507
523.166
476.575
506.891
447.429
487.361
434.294
466.929
437.316
449.326
456.222
443.675
487.408
461.546
523.565
509.704
567.377
573.759
622.631
650.66
682.209
722.121
752.683
789.43
817.849
844.493
868.184
893.791
907.024
930.057
933.496
955.603
955.563
968.664
970.025
973.927
979.127
978.455
982.872
982.73
981.406
982.535
977.055
977.296
973.377
970.539
968.583
963.103
959.901
954.879
950.702
947.3
944.438
941.236
939.691
935.554
933.376
929.244
926.234
922.606
920.216
916.657
915.032
911.81
909.456
907.056
903.822
901.504
898.943
895.365
894.719
889.918
890.455
885.477
885.117
881.825
2550.95
2189.21
1918.67
1705
1536.58
1396.84
1280.98
1184.57
1098.03
1029.22
961.665
909.038
858.041
811.401
778.008
730.249
713.297
664.378
656.084
614.317
601.18
578.607
547.993
552.099
500.429
526.792
464.881
495.308
444.902
456.724
436.253
416.996
430.205
385.183
415.287
372.891
386.449
374.261
359.968
374.947
339.891
374.733
338.662
363.721
350.339
362.677
372.131
375.447
390.787
399.762
416.266
445.72
455.614
497.369
503.171
541.683
555.204
580.592
609.932
620.5
654.785
663.736
688.299
706.275
715.835
737.9
741.948
757.247
765.883
771.16
782.075
783.17
789.29
791.541
792.682
795.343
796.933
797.292
800.579
798.019
799.809
796.904
796.444
794.187
793.559
790.884
790.882
787.876
786.931
784.16
781.711
778.691
776.544
773.152
772.122
768.99
768.181
765.719
763.927
762.445
2550.8
2189.44
1918.1
1705.48
1535.67
1397.38
1280.17
1184.56
1098.07
1028
963.001
906.592
860.072
809.016
778.821
730.237
710.595
668.563
649.064
622.088
591.978
586.226
541.451
554.091
501.835
519.272
475.868
479.714
460.658
439.973
447.675
408.395
427.86
391.674
396.847
389.024
360.77
387.268
334.745
373.895
323.571
351.664
320.924
327.73
318.726
309.53
311.498
300.226
299.963
294.233
294.284
286.956
292.948
281.398
299.111
277.657
302.705
282.678
310.289
299.701
320.039
322.076
334.185
345.15
356.752
371.305
390.884
400.929
426.245
431.109
456.994
465.69
488.162
504.024
520.955
536.561
551.325
561.709
577.725
584.018
598.529
604.634
615.501
621.968
630.037
634.669
641.088
644.096
648.432
650.51
652.367
652.992
653.929
653.448
654.099
653.579
653.512
653.144
652.202
651.701
2550.61
2189.7
1917.79
1705.65
1535.51
1397.16
1280.49
1183.75
1098.85
1026.94
963.591
906.26
859.3
810.561
775.844
733.924
705.987
672.867
645.211
624.005
592.025
583.008
547.257
545.358
512.069
508.221
485.682
472.007
464.361
440.104
442.899
416.214
417.843
400.948
390.074
390.24
364.866
377.441
347.49
359.706
336.546
340.988
326.577
325.259
315.352
312.635
303.777
301.085
294.696
287.14
290.052
271.889
285.796
260.248
277.508
255.853
262.793
257.381
247.629
256.738
240.792
247.368
243.75
233.495
247.342
227.27
243.855
232.949
236.378
240.595
235.818
242.95
245.358
244.592
258.993
255.5
269.735
272.513
278.763
289.706
295.236
306.421
317.829
324.337
338.621
344.798
355.616
365.049
372.454
383.329
391.465
400.933
410.167
417.936
425.89
432.647
438.892
444.606
449.699
454.469
2550.54
2189.78
1917.77
1705.63
1535.68
1396.88
1280.89
1183.33
1099.23
1026.78
963.409
906.939
858.101
812.267
773.839
735.951
704.37
673.651
645.668
622.059
595.502
578.239
552.82
539.732
516.89
504.977
486.634
473.474
460.531
445.442
436.993
421.22
414.819
400.804
393.497
383.585
373.398
368.251
355.532
353.267
340.739
337.709
329.124
321.729
319.491
307.104
309.175
296.314
296.307
289.638
282.092
284.213
270.366
275.958
264.259
263.953
262.038
252.04
258.726
245.311
251.246
244.443
242.149
245.196
236.816
243.53
238.213
240.378
243.666
240.694
248.901
247.933
253.798
260.32
262.447
273.391
277.463
287.188
297.069
304.224
316.46
324.816
335.462
347.106
356.337
368.616
378.643
389.292
400.099
409.281
419.004
427.395
435.521
443.304
450.487
457.498
463.867
469.988
475.636
480.88
2550.54
2189.82
1917.88
1705.62
1535.93
1396.79
1281.24
1183.24
1099.49
1026.97
963.262
907.668
857.406
813.481
772.904
737.073
703.988
673.783
646.67
620.625
598.045
575.611
555.993
537.272
519.056
504.354
486.386
475.578
457.72
449.578
433.159
425.195
412.557
402.116
394.848
381.235
378.117
363.989
360.806
350.801
343.164
340.076
327.437
329.096
316.067
316.367
309.469
303.288
305.287
293.719
300.324
290.995
294.173
294.771
291.053
301.504
296.454
308.648
312.273
318.684
334.788
337.076
359.096
365.936
384.508
401.155
414.466
436.674
450.548
470.29
488.808
503.465
523.842
537.099
554.049
569.118
581.83
596.479
607.741
618.771
629.444
637.23
646.038
652.381
658.414
663.72
667.354
671.004
673.337
675.185
676.747
677.372
678.081
678.162
678.015
677.692
676.863
676.076
674.936
673.886
2550.55
2189.92
1917.99
1705.77
1536.17
1396.9
1281.64
1183.27
1100.04
1026.97
963.821
907.84
857.73
814.056
772.831
738.091
703.645
674.957
646.505
621.437
598.616
575.592
557.686
536.268
521.88
502.711
489.832
474.298
460.725
450.221
434.536
429.187
412.151
409.638
394.763
390.888
382.443
374.333
373.754
363.088
367.218
360.119
363.919
366.179
367.691
380.35
383.094
401.868
411.869
431.162
451.615
469.352
497.229
516.085
544.597
567.749
592.251
618.579
639.381
664.13
683.85
703.769
722.532
737.715
753.587
765.502
777.143
786.408
794.008
800.558
805.281
809.504
812.751
815.045
817.277
818.532
819.508
820.017
819.886
819.513
818.624
817.338
816.003
814.169
812.428
810.399
808.231
806.078
803.711
801.461
799.206
796.898
794.739
792.516
790.315
788.143
785.865
783.657
781.428
779.378
2550.58
2190.15
1918.16
1706.2
1536.41
1397.49
1282.01
1183.87
1100.7
1027.41
964.92
908.063
859.251
814.292
774.491
738.84
705.05
676.76
647.5
624.59
599.632
579.994
559.883
541.587
527.04
509.02
500.151
482.924
478.556
464.805
462.683
456.513
455.015
460.107
461.171
477.383
485.602
510.255
529.619
559.037
589.755
620.924
658.887
691.212
730.533
763.758
798.636
831.215
859.487
888.146
910.127
931.835
948.278
962.179
973.712
981.989
989.586
994.63
998.681
1001.53
1002.92
1003.75
1003.38
1002.3
1000.63
998.105
995.377
991.996
988.515
984.781
981.085
977.569
974.057
970.639
967.353
964.068
960.829
957.616
954.309
951.046
947.709
944.424
941.238
938.134
935.156
932.32
929.471
926.843
924.061
921.262
918.464
915.657
912.941
910.235
907.56
904.969
902.331
899.821
897.38
895.206
2550.7
2190.57
1918.68
1707.07
1537.16
1398.82
1283.02
1185.73
1102.24
1029.85
967.538
911.201
863.618
818.604
781.329
745.495
715.25
687.956
662.997
643.965
623.987
612.838
599.339
595.698
592.33
597.844
609.195
625.63
654.888
684.348
729.894
770.703
825.479
874.186
930.38
982.207
1031.79
1079.57
1118.49
1155.85
1183.17
1207.04
1224.99
1239.08
1250.52
1257.45
1263.06
1265.06
1265.49
1263.87
1260.19
1255.77
1249.54
1243.17
1236.17
1229.63
1223.38
1217.21
1211.35
1205.46
1199.75
1193.99
1188.43
1182.81
1177.4
1172.09
1166.98
1162.17
1157.47
1153.15
1148.66
1144.12
1139.58
1135.06
1130.69
1126.41
1122.22
1118.12
1113.99
1109.98
1106
1102.16
1098.43
1094.84
1091.37
1088.03
1084.72
1081.56
1078.45
1075.45
1072.59
1069.8
1067.17
1064.6
1062.11
1059.74
1057.36
1055.15
1053.06
1051.34
2551.13
2191.65
1920.36
1709.36
1540.27
1403.19
1289.13
1194.67
1114
1046.46
988.378
939.687
899.847
866.117
842.403
823.474
815.952
816.808
830.378
854.474
890.122
938.29
994.24
1061.78
1131.67
1210.12
1285.89
1363.35
1433.06
1493.66
1544.1
1580.82
1611.76
1632.26
1648.82
1656.88
1661.29
1660
1654.54
1645.95
1634
1621
1607.86
1596.04
1584.43
1573.34
1562.36
1551.63
1541.12
1530.78
1520.97
1511.41
1502.62
1494.26
1486.45
1478.69
1470.87
1463.43
1455.93
1448.8
1441.83
1434.97
1428.47
1421.98
1415.83
1409.83
1404.05
1398.56
1393.2
1388.15
1383.2
1378.43
1373.86
1369.5
1365.45
1361.56
1357.89
1354.3
1350.72
1347.3
1343.93
1340.73
1337.65
1334.68
1331.83
1329.08
1326.34
1323.75
1321.16
1318.72
1316.39
1314.15
1312.1
1310.09
1308.22
1306.42
1304.67
1303.08
1301.65
1300.76
2552.73
2195.24
1926.96
1722.04
1562.79
1443.13
1353.73
1286.6
1242.62
1213.17
1204.02
1220.07
1257.11
1316.33
1396.09
1491.59
1601.49
1714.96
1833.52
1943.89
2048.1
2133.96
2203.94
2254.84
2291.36
2315.97
2329.53
2332.17
2323.25
2304.44
2277.81
2246.78
2218.71
2193.49
2170.28
2148.39
2127.48
2107.39
2088.23
2070.07
2053.46
2037.97
2023.04
2008.01
1993.56
1979.9
1966.5
1954.22
1942.15
1930.97
1920.36
1910.13
1900.82
1891.71
1883.44
1875.54
1868.07
1861.15
1854.34
1848.15
1842.08
1836.36
1830.9
1825.58
1820.58
1815.72
1811.08
1806.64
1802.35
1798.23
1794.19
1790.35
1786.72
1783.37
1780.3
1777.39
1774.69
1772.04
1769.4
1766.91
1764.47
1762.18
1760.05
1757.97
1756.01
1754.11
1752.22
1750.44
1748.62
1746.95
1745.36
1743.85
1742.53
1741.26
1740.14
1739.02
1738.01
1737.14
1736.51
1736.64
2556.98
2211.4
2002.15
1894.96
1875.21
1959.55
2065.99
2207.64
2361.92
2500.97
2657.58
2833.29
3015.13
3191.27
3348.63
3479.4
3580.91
3649.48
3688.77
3695.76
3676.41
3627.05
3558.85
3477.92
3403.3
3341.25
3288.39
3239.78
3195.17
3154.13
3117.26
3084.17
3051.97
3021.78
2992.58
2966.43
2940.89
2917.92
2895.89
2875.42
2856.74
2838.86
2822.99
2807.58
2793.88
2781.11
2769.12
2758.35
2747.84
2738.48
2729.43
2721
2713.26
2705.73
2699.01
2692.43
2686.47
2680.85
2675.43
2670.62
2665.89
2661.64
2657.53
2653.67
2650.03
2646.54
2643.26
2640.09
2637.1
2634.11
2631.24
2628.54
2625.99
2623.64
2621.49
2619.47
2617.59
2615.75
2613.88
2612.12
2610.42
2608.84
2607.44
2606.08
2604.85
2603.65
2602.45
2601.34
2600.19
2599.2
2598.27
2597.47
2596.83
2596.28
2595.79
2595.4
2594.99
2594.92
2595.16
2596.59
2508.42
2665.02
3511.77
4424.78
5100.89
5522.75
5790.73
5943.93
6009.46
6036.9
6165.05
6318.31
6450.29
6536.94
6572.09
6559.7
6508.26
6428.6
6330.45
6222.84
6112
6005.9
5906.21
5814.16
5726.69
5644.51
5567.11
5496.55
5432.78
5374.09
5321.64
5273.54
5230.16
5191.38
5155.48
5124.7
5095.42
5070.62
5047.1
5026.41
5007.56
4990.06
4974.77
4960.21
4947.27
4934.96
4923.39
4912.84
4902.48
4893.3
4884.27
4876
4868.29
4860.89
4854.32
4847.8
4842
4836.45
4831.26
4826.67
4822.15
4818.2
4814.33
4810.81
4807.44
4804.27
4801.37
4798.51
4795.85
4793.26
4790.8
4788.59
4786.57
4784.73
4783.09
4781.56
4780.13
4778.71
4777.31
4776
4774.75
4773.66
4772.74
4771.92
4771.22
4770.54
4769.88
4769.3
4768.75
4768.38
4768.11
4768.04
4768.08
4768.34
4768.44
4768.98
4769.03
4770.1
4771.26
4774.14
6770.2
9485.2
11872
13280
13857.4
13918.9
13700.3
13354.3
12989.1
12654.3
12355.6
12108.6
11918.5
11784.4
11700
11655
11638.9
11640.4
11651.5
11666.2
11679.3
11691.8
11699.7
11707.7
11712.7
11718.5
11723.6
11728.2
11733.1
11736.6
11740.8
11743.3
11745.2
11746.5
11745.7
11745.8
11743.3
11742.3
11739.2
11737.1
11734.3
11731.2
11728.9
11725.6
11723.7
11720.9
11719
11717.2
11715.2
11714
11712.1
11711.1
11709.8
11708.7
11707.9
11706.9
11706.5
11705.9
11705.9
11705.9
11706
11706.5
11706.9
11707.7
11708.6
11709.7
11710.9
11712.2
11713.7
11715.4
11717.3
11719.3
11721.7
11724.1
11726.6
11729.2
11731.8
11734.4
11737.1
11739.9
11742.9
11745.9
11749.2
11752.3
11755.6
11758.9
11762.2
11765.8
11769.4
11773.2
11777.1
11781
11785.3
11789.2
11793.3
11797.4
11801.2
11805.1
11807.7
11808.6
10979
6812.36
4859.83
3904.51
3330.68
2956.09
2686.38
2482.86
2318.32
2181.52
2065.1
1963.21
1872.2
1790.55
1716.87
1649.02
1585.61
1525.72
1468.63
1413.49
1359.93
1309.19
1261.54
1216.96
1175.05
1134.79
1097.13
1061.91
1025.87
989.715
955.121
919.2
883.141
850.235
816.997
781.678
748.835
716.882
681.384
647.179
618.85
595.171
579.117
571.372
563.862
552.738
544.257
545.627
554.688
560.574
554.941
540.002
523.307
508.77
496.88
486.651
476.587
465.837
454.996
445.147
436.977
430.224
423.995
417.08
408.177
396.046
379.841
359.464
335.786
310.411
285.001
260.675
237.983
217.047
197.876
180.212
164.055
149.884
138.345
129.73
123.841
120.188
118.237
117.495
117.508
117.825
118.076
118.034
117.639
116.932
116.05
115.15
114.374
113.776
113.363
113.089
112.927
112.824
112.777
112.734
2635.77
5025.07
4713.68
3976.12
3404.87
3000.09
2704.21
2480.84
2301.65
2155.55
2033.66
1928.62
1836.72
1755.99
1684.39
1619.36
1558.92
1502.32
1448.59
1396.78
1346.4
1297.97
1252.01
1208.23
1166.23
1124.84
1085.31
1048.23
1009.87
971.476
935.726
899.319
863.164
830.392
797.399
761.853
729.034
697.045
660.871
627.579
603.05
584.617
574.592
572.558
566.529
552.059
539.061
536.601
542.984
547.806
542.688
528.897
513.208
499.358
487.683
477.168
466.522
455.204
443.986
433.896
425.54
418.735
412.589
405.895
397.387
385.839
370.344
350.689
327.541
302.314
276.685
251.924
228.762
207.563
188.271
170.743
155.365
142.692
133.019
126.148
121.587
118.81
117.365
116.884
117.023
117.425
117.758
117.797
117.474
116.838
116.015
115.158
114.397
113.801
113.379
113.097
112.923
112.81
112.754
112.704
2110.48
2649.06
3529.42
3582.82
3282.01
2948.91
2670.42
2447.2
2264.39
2114
1988.96
1882.34
1790.3
1710.52
1640.74
1578.19
1520.33
1466.97
1416.7
1368.42
1321.75
1276.03
1231.96
1189.57
1148.12
1106.21
1065.33
1026.89
986.948
947.045
910.232
873.364
836.647
803.841
771.336
736.057
703.741
672.424
636.784
607.429
591.34
582.713
581.321
586.133
581.666
561.011
539.332
529.873
531.851
534.788
529.773
516.917
502.062
488.738
477.124
466.211
455.024
443.367
432.082
422.044
413.687
406.883
400.803
394.276
386.082
375.022
360.148
341.135
318.448
293.311
267.375
242.093
218.451
196.971
177.693
160.932
147.169
136.603
128.94
123.63
120.112
117.954
116.829
116.486
116.667
117.096
117.474
117.586
117.34
116.794
116.062
115.28
114.547
113.945
113.495
113.185
112.984
112.851
112.78
112.717
1708.2
1588.95
1952.02
2427.79
2648.55
2615.37
2473.62
2312.06
2160.67
2027.21
1912.48
1813.73
1727.39
1651.81
1585.67
1526.66
1472.1
1422.24
1375.39
1330.43
1287.42
1244.73
1202.55
1161.85
1121.47
1079.73
1038.29
998.832
957.576
916.209
878.064
840.276
802.783
769.765
737.92
703.84
673.237
643.606
612.377
593.213
592.576
598.796
606.354
615.879
612.63
584.239
549.479
528.604
523.184
522.549
516.717
504.355
490.106
477.141
465.464
454.111
442.536
430.936
420.076
410.551
402.539
395.894
389.903
383.465
375.406
364.574
350.027
331.357
308.859
283.593
257.169
231.267
207.16
185.538
166.889
151.758
140.242
131.916
126.051
121.983
119.213
117.456
116.505
116.211
116.377
116.791
117.193
117.387
117.251
116.823
116.195
115.498
114.804
114.199
113.717
113.37
113.133
112.969
112.879
112.794
1298.5
1256.87
1275.07
1399.89
1611.45
1799.92
1895.76
1908.33
1870.11
1809.68
1742.89
1678.13
1616.51
1558.55
1505.26
1456.07
1409.5
1365.97
1324.13
1283.17
1244
1204.73
1164.79
1125.79
1086.58
1045.18
1003.57
962.993
919.979
876.338
835.797
796.144
757.949
725.022
694.879
664.901
639.662
617.189
599.093
598.84
618.519
639.347
650.559
658.333
654.445
621.367
572.551
536.411
519.795
512.982
504.792
492.127
478.111
465.277
453.429
441.714
430.083
419.134
409.415
401.075
393.931
387.762
381.982
375.583
367.422
356.417
341.693
322.822
299.989
274.157
246.945
220.251
195.703
174.458
157.265
144.318
135.086
128.683
124.206
121.025
118.748
117.217
116.326
116.007
116.112
116.482
116.892
117.173
117.175
116.894
116.375
115.747
115.089
114.497
114.004
113.628
113.359
113.158
113.047
112.931
1034.39
1034.33
1024.59
1026.66
1047.46
1096.54
1164.04
1232.31
1287.89
1328.21
1351.5
1363.17
1366.12
1359.58
1345.68
1326.23
1302.25
1276.03
1247.11
1215.43
1183.25
1149.55
1113.43
1076.76
1038.59
997.303
955.056
911.945
865.74
818.718
773.838
732.76
697.58
669.167
646.88
630.282
619.487
614.336
618.314
638.694
672.246
697.856
705.193
706.101
699.506
666.09
608.261
556.469
525.448
509.029
496.043
481.657
467.161
454.075
441.944
430.124
419.06
409.666
402.155
395.987
390.502
385.347
380.069
373.771
365.312
353.679
338.125
318.305
294.412
267.416
239.024
211.404
186.614
166.151
150.563
139.484
131.932
126.824
123.242
120.613
118.626
117.196
116.281
115.87
115.865
116.149
116.531
116.858
116.974
116.834
116.435
115.893
115.298
114.745
114.267
113.878
113.589
113.351
113.222
113.069
875.718
877.856
872.205
863.713
850.05
838.338
831.701
827.862
829.798
840.652
858.51
883.558
918.112
957.42
995.028
1027.4
1053
1071.25
1079.56
1076.91
1066.3
1047.91
1022.36
992.048
956.422
916.107
872.736
824.647
774.952
727.901
686.986
657.375
640.982
633.686
634.366
638.64
645.123
657.628
678.124
707.782
741.586
761.794
761.334
754.058
744.268
713.01
653.648
590.313
544.194
514.984
494.047
475.765
459.555
445.606
433.177
421.925
412.611
406.17
402.292
399.597
396.77
393.321
388.98
382.992
374.177
361.551
344.536
323.001
297.337
268.689
238.898
210.256
184.923
164.396
149.07
138.384
131.231
126.477
123.183
120.758
118.874
117.439
116.428
115.858
115.671
115.788
116.052
116.333
116.485
116.448
116.188
115.776
115.285
114.797
114.353
113.97
113.678
113.425
113.29
113.116
757.134
759.724
756.703
750.029
736.967
719.852
701.44
680.548
659.44
639.149
620.356
604.341
593.375
591.703
597.83
611.363
636.858
669.865
706.239
744.176
776.195
796.399
804.445
798.591
779.146
751.552
717.392
679.567
646.967
630.6
632.156
644.836
659.592
675.562
691.335
703.042
715.056
733.974
759.557
788.858
813.629
820.736
809.638
794.657
782.773
757.584
703.475
635.993
577.882
535.526
504.483
480.258
460.948
445.467
432.93
423.285
417.189
415.134
416.106
417.822
418.261
416.863
413.652
408.104
398.988
385.308
366.582
342.956
315.185
284.805
253.77
224.109
197.39
174.798
157.066
144.118
135.162
129.165
125.107
122.249
120.087
118.413
117.133
116.258
115.745
115.556
115.562
115.67
115.75
115.747
115.595
115.319
114.943
114.545
114.163
113.829
113.568
113.346
113.223
113.072
648.236
648.804
645.86
638.754
626.262
609.296
589.385
567.367
545.093
523.822
504.619
488.543
476.343
468.28
464.218
463.506
466.514
472.073
479.895
492.049
506.748
522.78
539.645
553.656
564.627
574.596
587.071
607.53
636.445
670.647
704.367
730.776
749.485
765.239
778.431
788.665
801.235
820.593
844.327
864.798
870.482
857.903
835.489
815.748
805.529
791.914
752.299
688.951
625.117
572.93
532.501
501.788
478.68
461.335
448.984
441.748
439.769
442.783
448.746
454.48
457.458
457.36
454.688
449.211
439.647
425.017
404.772
379.221
349.329
317.246
285.312
255.625
228.649
204.322
183.2
165.895
152.399
142.404
135.135
129.903
125.947
122.904
120.458
118.604
117.214
116.323
115.743
115.456
115.254
115.149
114.968
114.788
114.5
114.256
113.969
113.786
113.59
113.498
113.398
113.368
458.081
461.885
464.316
464.38
461.69
457.536
453.401
451.296
452.451
458.375
468.526
482.81
499.986
517.6
534.956
550.774
563.224
573.977
583.208
590.618
597.786
606.226
616.409
629.557
646.979
670.061
699.159
730.827
761.563
790.485
815.424
834.126
847.776
858.525
867.459
876.186
887.894
902.83
914.787
912.551
891.566
860.59
829.854
808.549
803.014
805.063
790.069
743.02
681.415
625.086
578.939
543.572
517.273
498.356
486.451
481.767
483.713
490.838
499.909
507.254
510.346
509.739
506.316
500.164
489.909
474.596
453.414
426.882
395.732
362.578
330.159
301.702
277.675
257.141
238.312
221.156
205.027
190.58
177.26
165.591
154.985
146.079
138.3
132.245
127.229
123.783
121.047
119.466
118.107
117.547
116.886
116.874
116.586
116.909
116.807
117.307
117.234
117.802
117.678
118.329
485.952
490.455
495.721
502.797
512.866
526.336
543.387
563.303
584.978
607.098
628.578
647.527
662.944
675.038
684.509
691.403
696.279
700.558
704.434
708.313
713.564
721.215
731.777
745.842
764.336
787.383
813.757
841.758
870.552
898.449
921.124
935.941
944.346
949.028
952.465
956.678
961.996
962.905
948.957
915.531
872.365
832.304
802.056
785.52
785.829
798.346
805.186
784.228
736.22
682.521
635.434
598.343
570.425
550.869
539.733
537.2
541.806
550.816
559.88
565.226
565.322
562.117
556.666
549.416
538.973
524.466
504.072
478.348
447.845
416.232
385.769
360.31
340.094
325.951
314.051
304.234
293.565
283.456
270.952
258.122
242.316
227.033
210.307
196.407
182.63
172.93
163.63
158.533
153.268
151.996
150.063
151.928
152.345
155.933
157.011
160.797
161.402
164.77
164.648
167.938
673.028
672.416
673.195
676.728
683.404
692.796
704.356
716.974
730.178
743.108
755.192
766.001
775.27
783.221
790.422
796.517
801.95
807.061
811.911
817.023
823.537
832.269
843.799
858.733
877.57
899.814
925.09
953.43
983.364
1010.11
1027.67
1034.96
1035.01
1031.47
1026.55
1020.19
1007.44
979.688
934.172
881.067
834.431
800.521
778.843
769.227
773.379
788.993
804.733
803.065
774.305
729.504
685.576
649.323
621.71
603.073
593.765
593.861
600.994
610.838
617.689
618.232
613.069
605.569
597.12
588.279
577.408
563.52
544.259
520.473
493.414
467.341
443.449
423.968
407.563
396.046
387.242
381.688
376.407
372.91
367.895
363.203
355.388
347.658
336.996
327.971
317.55
310.535
302.972
299.675
295.94
296.872
297.117
301.809
304.53
310.65
313.232
318.78
320.018
324.62
324.512
329.021
777.695
776.541
776.844
779.71
785.44
793.848
804.592
816.999
830.875
844.743
858.172
870.701
881.831
892.057
901.52
909.706
917.002
923.819
930.08
936.446
943.762
952.73
964.227
978.997
997.399
1019.71
1046.75
1077.58
1107.04
1126.7
1131.95
1125.46
1111.93
1095.26
1075.35
1048.11
1008.08
954.927
896.941
845.785
808.601
785.5
772.603
768.285
773.57
787.58
803.528
808.997
793.289
759.524
721.897
689.341
665.005
650.136
645.427
650.767
662.235
673.038
676.309
670.18
658.191
644.867
631.857
619.307
605.635
589.771
570.633
549.6
528.587
510.169
494.793
482.699
473.019
465.511
459.529
455.639
453.414
452.803
452.929
453.279
453.208
452.851
451.779
450.613
449.16
448.409
447.615
447.858
447.954
449.647
451.155
454.481
456.767
460.57
462.178
465.571
466.116
469.075
468.666
472.002
893.544
892.548
893.158
896.612
903.35
913.373
926.11
941.242
957.879
975.246
992.604
1009.12
1024.29
1038.62
1051.52
1062.32
1071.47
1078.99
1084.83
1089.89
1094.92
1100.92
1109.4
1121.24
1137.2
1158.84
1186.36
1215
1234.97
1237.14
1222.59
1197.57
1166.93
1132.71
1092.99
1044.02
986.18
925.858
871.815
831.289
806.461
793.914
788.162
787.063
791.252
800.753
812.085
816.89
806.485
781.332
751.322
725.771
708.891
702.049
706.301
720.775
738.474
749.583
747.211
732.549
712.093
691.2
671.778
653.636
635.655
617.139
598.552
581.447
567.358
556.732
549.182
544.021
540.942
539.457
539.529
540.687
542.667
544.661
546.58
548.104
549.308
549.909
550.101
549.843
549.214
548.546
547.729
547.47
547.339
548.614
549.925
552.827
554.698
557.941
559.081
562.116
562.277
565.013
564.44
567.639
1050.28
1050.06
1051.84
1057.21
1066.99
1081.17
1099.22
1120.69
1144.33
1169.09
1193.71
1216.6
1237.27
1255.68
1270.52
1281.21
1288.29
1291.56
1291.18
1288.72
1285.52
1283.26
1284.3
1289.94
1301.61
1320.56
1343.45
1360.71
1360.13
1337.93
1301.48
1257.78
1210.31
1158.93
1102.33
1040.4
977.406
920.594
876.584
848.907
836.295
833.056
832.855
833.318
834.861
838.108
841.976
841.703
831.564
811.889
790.416
775.862
771.635
778.215
796.795
824.114
848.172
856.7
845.325
820.111
789.725
760.059
733.475
709.752
687.99
668.155
651.754
639.983
633.09
629.857
629.138
630.078
632.421
635.81
640.11
644.9
649.844
654.391
658.152
660.84
662.304
662.779
662.239
661.236
659.55
658.095
656.399
655.897
655.659
657.407
659.011
662.451
664.334
667.725
668.649
671.79
671.503
674.484
673.518
677.079
1300.7
1301.72
1305.39
1313.97
1328.84
1349.97
1376.76
1408.13
1442.18
1476.8
1509.74
1538.24
1561.65
1579.01
1589.06
1591.67
1587.64
1577.18
1561.4
1543.5
1526.01
1511.15
1502.16
1500.68
1507.26
1520.03
1530.83
1527.2
1499.62
1452.77
1396.01
1335.02
1272.14
1206.63
1138.53
1071.12
1009.93
961.072
928.877
914.136
912.959
917.932
922.234
923.319
921.433
917.595
912.52
904.655
891.835
876.385
866.215
868.459
883.775
910.805
949.98
992.308
1019.44
1019.46
994.706
956.907
915.805
877.406
844.267
816.144
792.215
773.309
761.244
756.237
756.867
760.723
766.129
772.188
778.531
785.03
791.491
797.658
803.11
807.563
810.682
812.538
813.127
812.916
811.955
810.815
809.349
808.307
807.371
807.622
808.229
810.353
812.138
815.23
816.66
819.672
820.177
823.211
822.292
825.756
824.012
828.609
1737.9
1740.62
1746.97
1760.66
1783.73
1815.96
1855.64
1900.26
1945.98
1988.9
2025.04
2050.77
2065.49
2068.28
2059.06
2039.04
2010.03
1973.61
1933.19
1893.99
1858.92
1830.27
1811.67
1803.63
1803.09
1803.36
1793.17
1760.79
1704.3
1633.63
1556.9
1478.58
1400.88
1323.82
1248.58
1180.29
1124.12
1084.69
1064.39
1062.1
1071.9
1084.75
1093.42
1095.16
1090.01
1079.22
1064.83
1048.19
1031.5
1022.32
1030.79
1060.23
1105.79
1163.51
1230.21
1285.53
1306.71
1288.83
1245.85
1193.6
1141.71
1095.77
1057.85
1027.33
1003.53
988.446
983.294
986.654
995.268
1006.01
1016.98
1027.23
1036.33
1044.34
1051.23
1057.01
1061.43
1064.53
1066.26
1066.92
1066.7
1066.1
1065.22
1064.49
1063.78
1063.62
1063.73
1064.87
1066.22
1068.63
1070.52
1073.31
1074.52
1077.25
1077.47
1080.48
1078.92