/*--------------------------------*- C++ -*----------------------------------*\
| =========                 |                                                 |
| \\      /  F ield         | OpenFOAM: The Open Source CFD Toolbox           |
|  \\    /   O peration     | Version:  v2012                                 |
|   \\  /    A nd           | Website:  www.openfoam.com                      |
|    \\/     M anipulation  |                                                 |
\*---------------------------------------------------------------------------*/
FoamFile
{
    version     2.0;
    format      ascii;
    class       vectorField;
    location    "0.023/lagrangian/kinematicCloud";
    object      UCorrect;
}
// * * * * * * * * * * * * * * * * * * * * * * * * * * * * * * * * * * * * * //


23
(
(2.91807e-32 6.80142e-35 0)
(6.95779e-28 2.14053e-30 0)
(7.11042e-28 5.00262e-31 0)
(9.69036e-28 2.13471e-30 0)
(0 0 0)
(0 0 0)
(0 0 0)
(1.43225e-27 1.7594e-29 0)
(1.43617e-27 2.9069e-29 0)
(0 0 0)
(8.48938e-28 -4.02636e-30 0)
(1.31999e-27 -3.2671e-29 0)
(1.75119e-30 1.31369e-32 0)
(6.70747e-27 -4.68588e-29 0)
(1.21661e-30 1.80014e-32 0)
(9.67393e-28 -3.86957e-31 0)
(2.09507e-27 -6.69047e-29 0)
(2.82985e-27 8.43071e-29 0)
(0 0 0)
(0 0 0)
(1.56394e-27 3.08039e-29 0)
(0 0 0)
(0 0 0)
)


// ************************************************************************* //
