/*--------------------------------*- C++ -*----------------------------------*\
| =========                 |                                                 |
| \\      /  F ield         | OpenFOAM: The Open Source CFD Toolbox           |
|  \\    /   O peration     | Version:  v2012                                 |
|   \\  /    A nd           | Website:  www.openfoam.com                      |
|    \\/     M anipulation  |                                                 |
\*---------------------------------------------------------------------------*/
FoamFile
{
    version     2.0;
    format      ascii;
    class       volScalarField;
    location    "0.346";
    object      epsilon.air;
}
// * * * * * * * * * * * * * * * * * * * * * * * * * * * * * * * * * * * * * //

dimensions      [0 2 -3 0 0 0 0];


internalField   nonuniform List<scalar> 
1900
(
112.724
141.424
210.097
257.591
369.051
443.456
614.741
724.902
971.332
1128.6
15.4676
16.4471
18.6375
20.4501
23.7573
27.7278
32.0001
39.3095
44.9864
56.9746
14.7926
14.6414
14.5755
14.5063
14.515
14.5558
14.6443
14.829
15.0762
15.4173
14.77
14.6304
14.4634
14.3354
14.1726
14.059
13.904
13.8079
13.6653
13.5938
14.7766
14.6215
14.4705
14.3204
14.1749
14.0288
13.8891
13.7471
13.614
13.4769
14.7778
14.6205
14.4714
14.3195
14.1755
14.0283
13.8892
13.7471
13.6134
13.4773
14.7777
14.6206
14.4731
14.3234
14.1841
14.0448
13.9177
13.7912
13.6809
13.5714
14.7762
14.6497
14.564
14.5032
14.5109
14.5501
14.6394
14.8164
15.0483
15.3917
15.2137
16.5983
18.2818
20.6702
23.6046
27.5565
32.2817
38.3827
45.5853
54.7888
105.904
146.616
198.354
265.784
350.031
456.029
585.688
743.59
931.829
1153.91
4099.41
15200.6
19580.5
22440.1
21101.5
17998.9
15065.6
12773
11283.5
10372.9
9877.76
9708.06
9534.68
9265.09
8856.73
8356.03
7799.21
7210.98
6644.34
6126.28
5649.32
5222.4
4837.99
4487.19
4167.9
3878.41
3615.8
3378.23
3162.46
2966.53
2788.14
2625.29
2476.33
2339.7
2214.26
2098.83
1992.5
1894.29
1803.44
1719.19
1640.93
1568.09
1500.15
1436.69
1377.29
1321.62
1269.36
1220.24
1174.01
1130.44
1089.31
1050.45
1013.67
978.81
945.731
914.277
884.344
855.793
828.551
802.489
777.566
753.662
730.764
708.748
687.638
667.292
647.773
628.911
610.817
593.281
576.475
560.134
544.509
529.261
514.736
500.499
487.013
473.716
461.215
448.786
437.212
425.572
414.868
403.928
394.036
383.704
374.578
364.763
356.374
346.986
339.329
330.281
323.374
314.571
308.452
299.788
294.507
285.861
281.458
271.09
112.932
337.824
517.997
922.551
1124.88
1148
1119.82
1054.94
1049.45
1089.01
1194.48
1409.35
1697.75
2030.35
2380.97
2694.33
2973.17
3204.87
3359.37
3436.22
3428.46
3389.42
3302.75
3184.74
3056.26
2924.69
2793.52
2666.77
2543.3
2425.92
2313.86
2206.95
2105.67
2009.8
1919.47
1834.39
1754.5
1679.27
1608.5
1541.87
1479.13
1419.97
1364.15
1311.44
1261.61
1214.44
1169.76
1127.39
1087.16
1048.92
1012.55
977.917
944.907
913.4
883.305
854.508
826.942
800.499
775.132
750.743
727.308
704.734
683.026
662.081
641.938
622.476
603.769
585.665
568.28
551.419
535.253
519.532
504.496
489.827
475.852
462.162
449.191
436.416
424.4
412.475
401.364
390.215
379.958
369.503
360.046
350.197
341.495
332.163
324.184
315.281
308.017
299.456
292.918
284.607
278.827
270.664
265.683
257.551
253.412
243.677
16.4221
19.8686
22.8842
29.0942
34.7962
38.7089
41.6646
43.7028
46.6256
50.6422
58.6504
70.9118
95.5588
130.403
189.731
267.697
374.497
510.045
666.996
838.279
1007.39
1165.6
1304.87
1421.12
1511.03
1573.4
1610.47
1627.3
1624.57
1613.79
1590.99
1560.99
1526.9
1489.95
1451.55
1411.91
1372.15
1331.82
1291.98
1252.79
1214.31
1176.73
1140.18
1104.73
1070.41
1037.14
1005
973.883
943.791
914.691
886.559
859.348
833.043
807.597
782.995
759.178
736.146
713.837
692.253
671.333
651.089
631.461
612.482
594.076
576.303
559.068
542.461
526.348
510.858
495.807
481.372
467.312
453.87
440.734
428.228
415.956
404.34
392.875
382.106
371.392
361.432
351.409
342.215
332.814
324.342
315.484
307.695
299.297
292.162
284.148
277.656
269.946
264.103
256.614
251.443
244.088
239.624
232.302
228.581
219.82
13.4531
13.4605
13.5463
13.8028
14.3356
15.0068
15.7229
16.3415
16.929
17.3419
17.8941
18.3567
19.2974
20.4965
22.7304
26.261
31.7433
40.8995
54.8014
76.3211
106.781
147.667
199.619
261.478
331.171
405.892
480.9
554.165
621.067
682.349
735.266
779.18
813.968
839.929
858.397
869.788
875.599
875.123
872.514
866.609
857.781
847.012
834.868
821.483
807.191
792.114
776.533
760.354
743.911
727.269
710.466
693.583
676.713
659.915
643.261
626.748
610.486
594.443
578.706
563.234
548.101
533.271
518.81
504.665
490.93
477.528
464.564
451.919
439.73
427.823
416.39
405.189
394.482
383.945
373.926
364.017
354.657
345.327
336.595
327.816
319.699
311.433
303.907
296.104
289.143
281.746
275.321
268.267
262.366
255.598
250.209
243.659
238.785
232.392
228.052
221.75
217.974
211.692
208.507
200.98
13.3299
13.1589
13.0624
13.1167
13.3057
13.717
14.291
14.9123
15.4556
15.879
16.211
16.4299
16.6106
16.7574
16.8962
17.0897
17.3288
17.7425
18.3224
19.3199
20.8485
23.2762
26.8299
32.2026
39.8658
50.7192
65.1337
83.6364
106.333
133.177
163.69
196.814
231.886
267.243
302.404
335.494
366.762
394.939
419.986
441.401
459.295
473.65
484.947
493.357
499.241
502.879
504.637
504.352
503.177
500.607
496.773
491.967
486.436
480.206
473.489
466.331
458.897
451.169
443.333
435.324
427.308
419.216
411.155
403.109
395.191
387.324
379.607
371.938
364.451
357.001
349.777
342.557
335.616
328.616
321.962
315.196
308.836
302.314
296.263
289.98
284.242
278.19
272.773
266.938
261.845
256.203
251.434
245.954
241.501
236.139
232.013
226.746
222.963
217.76
214.342
209.172
206.144
200.974
198.36
192.137
13.3251
13.1543
13.0315
13.0863
13.296
13.7744
14.5
15.4916
16.5072
17.6054
18.5901
19.5131
20.2504
20.8592
21.286
21.5976
21.7779
21.8583
21.8447
21.8
21.7042
21.607
21.5335
21.5586
21.6664
21.9273
22.4729
23.3672
24.8572
26.9977
30.2414
34.5907
40.5917
48.1162
57.5235
68.6989
81.775
96.4226
112.525
129.595
147.26
165.036
182.504
199.36
215.264
230.007
243.496
255.587
266.37
275.848
284.112
291.182
297.254
302.348
306.614
310.105
312.957
315.134
316.819
317.902
318.631
318.746
318.573
318.115
317.192
315.901
314.326
312.442
310.348
307.993
305.478
302.716
299.874
296.717
293.662
290.207
286.967
283.279
279.924
276.078
272.669
268.714
265.313
261.288
257.943
253.874
250.625
246.527
243.41
239.291
236.328
232.186
229.399
225.232
222.642
218.452
216.085
211.877
209.76
204.675
13.466
13.36
13.4094
13.6558
14.3035
15.6901
18.0277
21.4488
25.4072
29.7151
33.5874
37.0581
39.5823
41.5169
42.583
43.3296
43.3916
43.2645
42.9269
42.407
41.7965
41.1505
40.4909
39.8628
39.335
38.8637
38.5162
38.239
38.1434
38.1986
38.373
38.7336
39.357
40.2622
41.5071
43.231
45.4414
48.3847
52.0339
56.7097
62.355
69.2955
77.3822
86.8635
97.5105
109.419
122.269
136.006
150.279
164.941
179.682
194.306
208.596
222.386
235.557
248.003
259.678
270.52
280.508
289.634
297.885
305.32
311.899
317.723
322.784
327.116
330.748
333.725
336.021
337.809
338.933
339.702
339.701
339.469
338.902
337.68
336.454
334.468
332.755
330.226
328.121
325.17
322.805
319.543
317.033
313.548
310.983
307.341
304.79
301.04
298.553
294.73
292.339
288.467
286.197
282.306
280.186
276.311
274.39
269.782
15.9138
16.855
18.5462
21.933
28.3941
39.5134
55.4519
75.0603
95.4653
114.271
129.143
140.076
146.463
149.967
150.722
150.357
149.39
147.748
146.251
145.17
144.529
144.649
145.247
146.526
149.062
152.106
156.355
161.114
167.172
173.942
181.864
190.725
200.532
211.51
223.315
236.458
250.399
265.591
281.391
298.182
315.357
333.278
351.269
369.618
387.584
405.47
422.682
439.55
455.714
471.346
486.327
500.566
514.19
526.931
539.049
550.255
560.684
570.149
578.696
586.16
592.644
598.087
602.582
606.102
608.805
610.547
611.678
611.764
611.421
610.584
608.952
606.837
604.222
600.994
597.659
593.483
589.532
584.658
580.301
574.931
570.283
564.586
559.834
553.967
549.266
543.341
538.797
532.89
528.581
522.753
518.729
513.019
509.306
503.737
500.355
494.953
491.948
486.736
484.211
478.331
68.0479
90.4209
126.198
184.883
271.912
385.221
511.622
635.936
744.853
831.82
892.138
932.176
953.055
963.103
964.607
963.571
961.41
957.655
956.62
957.681
960.766
966.015
974.483
986.077
1000.44
1016.5
1035
1055.28
1077.92
1101.69
1126.79
1152.63
1179.1
1205.99
1232.88
1259.76
1285.95
1311.48
1335.7
1358.94
1380.75
1401.33
1420.19
1437.72
1453.39
1467.71
1480.34
1491.73
1501.74
1510.45
1518.01
1524.05
1529.13
1532.5
1535.1
1535.94
1535.62
1534.42
1531.88
1527.61
1522.59
1516.08
1508.99
1500.62
1491.78
1481.95
1471.65
1460.8
1449.59
1437.87
1426.1
1413.66
1401.47
1388.4
1375.93
1362.5
1349.91
1336.32
1323.82
1310.3
1298.13
1284.84
1273.18
1260.26
1249.26
1236.79
1226.54
1214.55
1205.1
1193.63
1185.05
1174.12
1166.43
1156.03
1149.26
1139.37
1133.59
1124.2
1119.62
1109.39
1464.65
1897.08
2398.93
2961.83
3563.11
4171.89
4746.15
5251.08
5654.94
5950.56
6131.87
6219.36
6206.95
6160.31
6061.74
5928.69
5778.24
5619.65
5459.19
5301.31
5148.92
5004.02
4867.49
4739.77
4621.03
4511.13
4409.89
4316.71
4231.56
4153.76
4083.35
4019.59
3962.33
3911
3865.44
3825.24
3789.88
3758.92
3731.81
3708.36
3688.16
3670.97
3656.27
3643.95
3633.54
3625.11
3618.15
3612.7
3608.41
3605.14
3602.83
3601.05
3599.96
3599.14
3598.81
3598.86
3599.13
3599.62
3600.62
3601.43
3602.85
3604.09
3605.69
3607.09
3608.51
3609.45
3610.21
3610.2
3609.89
3609.01
3607.77
3605.32
3602.97
3599.09
3595.52
3590.22
3585.42
3578.66
3572.55
3564.26
3556.82
3547.01
3538.39
3527.21
3517.65
3505.35
3495.2
3482.04
3471.65
3457.87
3447.55
3433.2
3423.14
3408.1
3398.48
3382.51
3373.48
3356.49
3347.8
3325.88
1108.82
1064.32
1122.17
1210.17
1238.97
1121.44
818.703
1980.17
54626.4
16122.5
7350.72
6104.88
6234.72
6486.29
6556.94
8028.89
74258.6
43594.3
24812.1
18455.9
16099.6
15003.4
14631.8
19670.3
76429.1
71026
54246.1
41195
32689.7
27162.7
24551.6
34069.6
69735.7
75715.5
67757.6
55658.1
44572.3
35846.1
30866.6
42709.4
57739.4
71181.3
67955.9
59052.2
48383.9
38737.1
32784.9
45230.5
47466.9
61830.8
62494.1
56616.6
47166.8
38175
32448.6
44240.8
39063.4
51807.9
53575.1
49825.8
42381.6
34662.6
29578.2
39742.5
32608.3
42975.8
44905.7
42116.3
36285.1
30027.5
25807.3
34019.2
27597.7
35614.8
37245.6
35101.3
30529.4
25545.5
22213.8
29360.2
23487.9
29581.9
30817
29113.8
25523.5
21626.9
19152.6
26003.6
20111.6
24696.3
25572.4
24181.5
21338.3
18297.5
16494.2
22971.6
17375.6
20785.7
21371.2
20212.2
17941.9
15559.3
14268.6
20359.2
15143.7
17662.9
18028
17047.8
15219.6
13339.1
12434.9
18160.9
13293.6
15153.9
15360.7
14525
13039.1
11544.8
10934
16336.2
11732.1
13112.8
13211.4
12495.7
11278.7
10085
9699.52
14816.7
10407.7
11440.6
11466.4
10850.8
9846.61
8888.77
8677.6
13545.3
9268.35
10052.6
10034.2
9502.2
8669.13
7898.9
7824.36
12473.2
8285.9
8890.02
8846.77
8385.2
7690.94
7071.66
7104.15
11559.8
7442.74
7911.62
7853.59
7452.34
6871.08
6374.02
6489.63
10774.8
6715.82
7082.95
7016.67
6667.04
6178.24
5780.57
5962.52
10094.1
6089.44
6377.88
6307.31
6001.6
5588.77
5272.28
5507.51
9500.09
5547.32
5774.52
5702.37
5434.2
5084.23
4834.48
5112.7
8979.75
5073.82
5253.97
5182.48
4946.77
4649.46
4455.19
4768.51
8522.37
4657.91
4801.79
4732.46
4525
4272.21
4124.53
4466.82
8118.56
4290.91
4406.65
4340.48
4157.76
3942.9
3834.66
4201.1
7760.78
3965.56
4059.35
3996.99
3836.03
3653.73
3579.11
3965.81
7442.36
3676.35
3752.71
3694.45
3552.69
3398.47
3352.65
3756.38
7157.46
3418.09
3480.65
3426.63
3301.85
3171.98
3150.98
3569.12
6901.3
3186.79
3238.3
3188.5
3078.78
2970.15
2970.68
3400.96
6669.97
2978.89
3021.57
2975.93
2879.64
2789.64
2808.53
3249.61
6460.34
2791.39
2827.01
2785.43
2701.14
2627.52
2662.38
3112.79
6269.76
2621.76
2651.76
2614.09
2540.59
2481.42
2530.32
2988.74
6096.09
2467.78
2493.34
2459.43
2395.66
2349.31
2410.62
2875.99
5937.49
2327.65
2349.7
2319.38
2264.4
2229.49
2301.84
2773.26
5792.46
2199.76
2219.05
2192.17
2145.13
2120.48
2202.69
2679.45
5659.67
2082.77
2099.88
2076.25
2036.44
2021.01
2112.07
2593.6
5537.95
1975.45
1990.86
1970.31
1937.06
1929.95
2029.02
2514.84
5426.22
1876.77
1890.86
1873.21
1845.95
1846.39
1952.69
2442.41
5323.51
1785.77
1798.87
1783.97
1762.19
1769.39
1882.4
2375.66
5228.91
1701.68
1714.03
1701.72
1684.97
1698.3
1817.46
2313.97
5141.55
1623.77
1635.6
1625.73
1613.6
1632.53
1757.32
2256.84
5060.69
1551.44
1562.92
1555.36
1547.48
1571.55
1701.49
2203.8
4985.61
1484.16
1495.44
1490.06
1486.11
1514.9
1649.56
2154.46
4915.69
1421.44
1432.65
1429.35
1429.04
1462.16
1601.16
2108.46
4850.39
1362.9
1374.14
1372.81
1375.84
1413.02
1556.01
2065.54
4789.28
1308.16
1319.53
1320.08
1326.19
1367.15
1513.81
2025.43
4732.01
1256.9
1268.48
1270.81
1279.82
1324.27
1474.35
1987.92
4678.28
1208.84
1220.68
1224.72
1236.45
1284.14
1437.39
1952.82
4627.88
1163.69
1175.86
1181.54
1195.82
1246.54
1402.75
1919.98
4580.64
1121.24
1133.78
1141.03
1157.71
1211.26
1370.26
1889.22
4536.43
1081.25
1094.22
1102.97
1121.91
1178.12
1339.74
1860.43
4495.13
1043.54
1056.96
1067.15
1088.23
1146.95
1311.06
1833.47
4456.63
1007.91
1021.82
1033.4
1056.5
1117.59
1284.08
1808.23
4420.77
974.198
988.62
1001.54
1026.57
1089.91
1258.67
1784.57
4387.44
942.242
957.201
971.422
998.279
1063.75
1234.7
1762.39
4356.42
911.919
927.434
942.911
971.511
1039.02
1212.07
1741.57
4327.58
883.081
899.17
915.864
946.134
1015.58
1190.67
1722.01
4300.67
855.641
872.317
890.19
922.056
993.357
1170.4
1703.58
4275.52
829.463
846.739
865.759
899.157
972.237
1151.18
1686.22
4251.92
804.493
822.377
842.508
877.372
952.149
1132.92
1669.79
4229.71
780.601
799.099
820.312
856.587
932.995
1115.54
1654.26
4208.7
757.767
776.88
799.139
836.764
914.726
1098.97
1639.51
4188.79
735.856
755.582
778.857
817.781
897.241
1083.14
1625.48
4169.78
714.882
735.215
759.47
799.636
880.522
1068
1612.11
4151.7
694.694
715.624
740.827
782.189
864.449
1053.47
1599.33
4134.28
675.35
696.866
722.982
765.489
849.054
1039.56
1587.12
4117.74
656.669
678.754
705.749
749.357
834.179
1026.12
1575.38
4101.64
638.764
661.404
689.248
733.911
819.935
1013.25
1564.17
4086.47
621.411
644.583
673.239
718.911
806.09
1000.75
1553.3
4071.48
604.791
628.483
657.928
704.575
792.865
988.819
1542.98
4057.57
588.622
612.805
642.997
690.57
779.923
977.129
1532.86
4043.52
573.172
597.84
628.764
677.242
767.632
966.063
1523.37
4030.81
558.077
583.195
614.802
664.13
755.498
955.099
1513.92
4017.54
543.714
569.282
601.57
651.742
744.086
944.859
1505.24
4006.02
529.607
555.582
588.493
639.441
732.685
934.555
1496.39
3993.44
516.266
542.656
576.202
627.943
722.114
925.122
1488.52
3983.1
503.073
529.825
563.934
616.381
711.38
915.417
1480.22
3971.18
490.697
517.829
552.528
605.721
701.61
906.771
1473.17
3962.02
478.341
505.789
540.99
594.822
691.471
897.601
1465.35
3950.73
466.87
494.662
530.408
584.946
682.456
889.706
1459.1
3942.73
455.269
483.328
519.516
574.626
672.831
880.994
1451.71
3931.97
444.639
473.005
509.695
565.47
664.513
873.805
1446.23
3925.09
433.703
462.287
499.358
555.64
655.312
865.458
1439.15
3914.69
423.858
452.709
490.238
547.145
647.632
858.918
1434.39
3908.78
413.493
442.515
480.366
537.715
638.763
850.835
1427.5
3898.54
404.385
433.636
471.898
529.83
631.665
844.883
1423.38
3893.33
394.502
423.878
462.408
520.716
623.042
836.969
1416.57
3883.14
386.105
415.671
454.563
513.406
616.485
831.548
1412.98
3878.15
376.618
406.268
445.376
504.536
608.037
823.729
1406.18
3867.96
368.93
398.731
438.151
497.79
601.989
818.772
1402.93
3863.02
359.753
389.602
429.195
489.102
593.671
811.023
1396.23
3852.68
352.796
382.759
422.611
482.93
588.123
806.483
1393.16
3847.7
343.84
373.822
413.813
474.369
579.901
798.805
1386.59
3837.21
337.655
367.717
407.911
468.804
574.863
794.642
1383.65
3832.14
328.819
358.88
399.196
460.316
566.722
787.082
1377.29
3821.78
323.461
353.564
394.023
455.393
562.203
783.256
1374.42
3816.54
314.631
344.728
385.312
446.929
554.142
775.882
1368.31
3806.68
310.134
340.232
380.89
442.655
550.118
772.308
1365.49
3801.79
299.516
329.574
370.348
432.376
540.296
763.313
1357.82
3790.76
)
;

boundaryField
{
    frontAndBack
    {
        type            empty;
    }
    inlet
    {
        type            fixedValue;
        value           uniform 14.855;
    }
    outlet
    {
        type            zeroGradient;
    }
    walls
    {
        lowReCorrection 0;
        blending        stepwise;
        n               2;
        type            epsilonWallFunction;
        value           nonuniform List<scalar> 
228
(
112.724
141.424
210.097
257.591
369.051
443.456
614.741
724.902
971.332
1128.6
1108.82
1064.32
1122.17
1210.17
1238.97
1121.44
818.703
1980.17
1980.17
8028.89
19670.3
34069.6
42709.4
45230.5
44240.8
39742.5
34019.2
29360.2
26003.6
22971.6
20359.2
18160.9
16336.2
14816.7
13545.3
12473.2
11559.8
10774.8
10094.1
9500.09
8979.75
8522.37
8118.56
7760.78
7442.36
7157.46
6901.3
6669.97
6460.34
6269.76
6096.09
5937.49
5792.46
5659.67
5537.95
5426.22
5323.51
5228.91
5141.55
5060.69
4985.61
4915.69
4850.39
4789.28
4732.01
4678.28
4627.88
4580.64
4536.43
4495.13
4456.63
4420.77
4387.44
4356.42
4327.58
4300.67
4275.52
4251.92
4229.71
4208.7
4188.79
4169.78
4151.7
4134.28
4117.74
4101.64
4086.47
4071.48
4057.57
4043.52
4030.81
4017.54
4006.02
3993.44
3983.1
3971.18
3962.02
3950.73
3942.73
3931.97
3925.09
3914.69
3908.78
3898.54
3893.33
3883.14
3878.15
3867.96
3863.02
3852.68
3847.7
3837.21
3832.14
3821.78
3816.54
3806.68
3801.79
3790.76
105.904
146.616
198.354
265.784
350.031
456.029
585.688
743.59
931.829
1153.91
1464.65
1897.08
2398.93
2961.83
3563.11
4171.89
4746.15
5251.08
5654.94
5950.56
6131.87
6219.36
6206.95
6160.31
6061.74
5928.69
5778.24
5619.65
5459.19
5301.31
5148.92
5004.02
4867.49
4739.77
4621.03
4511.13
4409.89
4316.71
4231.56
4153.76
4083.35
4019.59
3962.33
3911
3865.44
3825.24
3789.88
3758.92
3731.81
3708.36
3688.16
3670.97
3656.27
3643.95
3633.54
3625.11
3618.15
3612.7
3608.41
3605.14
3602.83
3601.05
3599.96
3599.14
3598.81
3598.86
3599.13
3599.62
3600.62
3601.43
3602.85
3604.09
3605.69
3607.09
3608.51
3609.45
3610.21
3610.2
3609.89
3609.01
3607.77
3605.32
3602.97
3599.09
3595.52
3590.22
3585.42
3578.66
3572.55
3564.26
3556.82
3547.01
3538.39
3527.21
3517.65
3505.35
3495.2
3482.04
3471.65
3457.87
3447.55
3433.2
3423.14
3408.1
3398.48
3382.51
3373.48
3356.49
3347.8
3325.88
)
;
    }
}


// ************************************************************************* //
