/*--------------------------------*- C++ -*----------------------------------*\
| =========                 |                                                 |
| \\      /  F ield         | OpenFOAM: The Open Source CFD Toolbox           |
|  \\    /   O peration     | Version:  v2012                                 |
|   \\  /    A nd           | Website:  www.openfoam.com                      |
|    \\/     M anipulation  |                                                 |
\*---------------------------------------------------------------------------*/
FoamFile
{
    version     2.0;
    format      ascii;
    class       volScalarField;
    location    "0.187";
    object      epsilon.air;
}
// * * * * * * * * * * * * * * * * * * * * * * * * * * * * * * * * * * * * * //

dimensions      [0 2 -3 0 0 0 0];


internalField   nonuniform List<scalar> 
1900
(
112.724
141.424
210.097
257.591
369.051
443.457
614.741
724.902
971.33
1128.61
15.4676
16.4471
18.6374
20.4505
23.757
27.728
31.9998
39.3106
44.9854
56.9831
14.7926
14.6415
14.5755
14.5063
14.515
14.5558
14.6443
14.8291
15.0761
15.4175
14.77
14.6304
14.4634
14.3354
14.1726
14.059
13.904
13.8079
13.6653
13.5937
14.7766
14.6216
14.4704
14.3205
14.1747
14.029
13.8889
13.7473
13.6138
13.477
14.7777
14.6206
14.4713
14.3197
14.1753
14.0285
13.8891
13.7473
13.6133
13.4774
14.7776
14.6208
14.473
14.3236
14.184
14.045
13.9175
13.7915
13.6807
13.5716
14.7756
14.6502
14.5638
14.5034
14.5111
14.55
14.6402
14.8187
15.0456
15.3949
15.2065
16.608
18.2729
20.6822
23.5941
27.5703
32.2708
38.3981
45.5756
54.8039
105.864
146.669
198.307
265.852
349.987
456.113
585.663
743.692
931.838
1154.03
4102.26
15199.1
19564.3
22429.1
21100.5
18020.6
15094.1
12807.4
11309.2
10388.7
9884.01
9704.06
9525.48
9255.05
8848.96
8351.19
7796.98
7210.41
6644.58
6126.69
5649.69
5222.49
4837.95
4487.02
4167.64
3878.04
3615.44
3378.01
3162.37
2966.7
2788.55
2625.94
2477.15
2340.62
2215.19
2099.68
1993.16
1894.72
1803.59
1719.05
1640.53
1567.47
1499.41
1435.88
1376.51
1320.93
1268.83
1219.9
1173.86
1130.47
1089.5
1050.76
1014.06
979.23
946.146
914.661
884.676
856.063
828.753
802.624
777.637
753.671
730.719
708.65
687.492
667.098
647.542
628.649
610.544
593.014
576.238
559.948
544.392
529.231
514.794
500.649
487.235
473.999
461.522
449.099
437.493
425.802
415.022
403.995
394.016
383.593
374.401
364.521
356.109
346.701
339.069
330.045
323.195
314.45
308.399
299.807
294.582
286.003
281.626
271.301
113.043
337.79
517.687
921.875
1124.64
1150.37
1122.97
1059.77
1053.66
1092.82
1197.57
1410.52
1697.34
2027.98
2377.98
2691.64
2970.82
3202.59
3357.08
3433.91
3426.19
3387.34
3301.39
3183.94
3056.09
2924.86
2794.1
2667.61
2544.14
2426.77
2314.64
2207.59
2106.18
2010.21
1919.81
1834.69
1754.73
1679.45
1608.59
1541.85
1478.98
1419.69
1363.76
1310.95
1261.07
1213.9
1169.27
1127
1086.9
1048.81
1012.59
978.078
945.161
913.713
883.639
854.834
827.231
800.736
775.309
750.858
727.368
704.745
682.999
662.021
641.851
622.362
603.631
585.504
568.104
551.236
535.078
519.381
504.384
489.771
475.858
462.239
449.328
436.61
424.625
412.716
401.592
390.411
380.101
369.58
360.053
350.129
341.369
331.981
323.978
315.055
307.806
299.264
292.77
284.506
278.779
270.674
265.738
257.659
253.541
243.838
16.4238
19.8704
22.8814
29.0846
34.7803
38.7406
41.7169
43.8034
46.7471
50.7635
58.8
71.0378
95.704
130.304
189.635
267.21
374.086
508.939
665.631
835.967
1004.51
1161.9
1301.13
1417.92
1509.13
1572.75
1611.17
1628.98
1626.45
1615.77
1592.85
1562.34
1527.73
1490.27
1451.54
1411.66
1371.78
1331.48
1291.69
1252.57
1214.15
1176.6
1140.06
1104.57
1070.18
1036.86
1004.68
973.578
943.533
914.52
886.492
859.396
833.189
807.816
783.254
759.448
736.395
714.04
692.398
671.412
651.112
631.436
612.424
593.997
576.215
558.973
542.362
526.242
510.745
495.689
481.254
467.204
453.782
440.68
428.216
415.995
404.429
393.013
382.279
371.587
361.627
351.588
342.359
332.906
324.379
315.456
307.614
299.164
292
283.962
277.473
269.773
263.96
256.508
251.379
244.074
239.648
232.374
228.673
219.945
13.4532
13.4608
13.5466
13.8028
14.3337
15.0053
15.715
16.3375
16.9218
17.3431
17.9
18.3653
19.3161
20.4899
22.7678
26.2124
31.7865
40.7933
54.7282
76.0234
106.301
146.799
198.261
259.794
329.403
404.468
480.163
554.415
622.237
684.333
737.621
781.47
815.89
841.168
859.005
869.765
875.095
874.518
871.838
865.934
857.274
846.673
834.681
821.357
807.106
792.008
776.401
760.202
743.755
727.15
710.413
693.618
676.84
660.113
643.511
627.023
610.746
594.659
578.861
563.312
548.112
533.218
518.712
504.543
490.798
477.396
464.437
451.795
439.609
427.705
416.275
405.083
394.39
383.88
373.895
364.03
354.715
345.433
336.74
327.991
319.888
311.618
304.074
296.234
289.23
281.775
275.302
268.193
262.256
255.454
250.052
243.499
238.636
232.266
227.953
221.692
217.946
211.71
208.546
201.06
13.3298
13.159
13.0627
13.1169
13.3051
13.7159
14.2829
14.9072
15.4439
15.8803
16.2089
16.4416
16.6229
16.7669
16.9154
17.0842
17.346
17.7207
18.3297
19.2881
20.8314
23.2237
26.7393
32.051
39.6174
50.435
64.7976
83.4405
106.292
133.536
164.403
197.941
233.251
268.731
303.741
336.584
367.41
395.211
419.864
441.015
458.755
473.06
484.421
492.873
498.861
502.54
504.379
504.113
502.974
500.474
496.714
492.024
486.58
480.465
473.818
466.701
459.274
451.522
443.635
435.543
427.456
419.268
411.137
403.041
395.078
387.184
379.442
371.755
364.255
356.798
349.57
342.355
335.426
328.457
321.839
315.122
308.815
302.353
296.359
290.126
284.428
278.396
272.987
267.135
262.019
256.331
251.52
245.983
241.483
236.075
231.912
226.622
222.821
217.622
214.204
209.059
206.045
200.912
198.318
192.143
13.325
13.1543
13.0318
13.0865
13.2957
13.772
14.4966
15.482
16.5011
17.5998
18.5955
19.5242
20.2687
20.8782
21.2993
21.6039
21.7741
21.8459
21.8312
21.7868
21.694
21.6018
21.5324
21.558
21.6638
21.9217
22.4533
23.3655
24.8109
27.0176
30.2434
34.7219
40.7708
48.4644
57.9699
69.2818
82.4031
97.0475
113.071
129.965
147.456
164.97
182.267
198.899
214.689
229.302
242.757
254.833
265.656
275.232
283.607
290.869
297.095
302.397
306.826
310.462
313.407
315.657
317.367
318.431
319.144
319.144
318.932
318.395
317.36
315.975
314.295
312.326
310.152
307.722
305.156
302.348
299.493
296.352
293.319
289.911
286.74
283.133
279.868
276.106
272.782
268.89
265.545
261.547
258.219
254.138
250.867
246.728
243.56
239.388
236.362
232.173
229.327
225.13
222.501
218.301
215.918
211.72
209.612
204.564
13.4657
13.3602
13.4098
13.6562
14.3039
15.6864
18.026
21.4286
25.3983
29.7017
33.6091
37.0844
39.6308
41.5499
42.6065
43.329
43.3642
43.2329
42.8896
42.3847
41.7813
41.1631
40.5018
39.8996
39.3558
38.888
38.5139
38.2251
38.1056
38.1585
38.3335
38.7306
39.3256
40.2742
41.5643
43.2851
45.5948
48.4934
52.2593
56.8485
62.5782
69.3867
77.4802
86.7808
97.3337
109.036
121.732
135.303
149.454
164.071
178.797
193.522
207.904
221.897
235.232
247.927
259.778
270.84
280.974
290.242
298.588
306.075
312.672
318.485
323.483
327.725
331.227
334.028
336.16
337.761
338.736
339.286
339.219
338.902
338.261
336.987
335.829
333.921
332.325
329.923
327.968
325.156
322.932
319.783
317.368
313.945
311.408
307.772
305.185
301.397
298.828
294.942
292.452
288.512
286.155
282.202
280.025
276.097
274.159
269.533
15.9098
16.8589
18.5484
21.9344
28.4082
39.4882
55.4348
74.9753
95.4409
114.246
129.237
140.19
146.586
150.074
150.728
150.334
149.302
147.633
146.121
145.143
144.509
144.682
145.295
146.739
148.983
152.303
156.202
161.168
166.908
173.887
181.633
190.641
200.453
211.472
223.499
236.531
250.751
265.721
281.757
298.252
315.571
333.205
351.303
369.428
387.474
405.279
422.597
439.53
455.816
471.567
486.568
500.865
514.299
527.021
538.853
550.017
560.245
569.742
578.247
585.877
592.52
598.242
603.032
606.858
609.797
611.739
612.9
612.871
612.423
611.32
609.39
606.876
603.935
600.389
596.782
592.44
588.446
583.557
579.299
574.079
569.647
564.175
559.664
554.017
549.504
543.742
539.297
533.478
529.175
523.364
519.279
513.533
509.728
504.086
500.61
495.098
492.008
486.653
484.06
478.029
68.0376
90.4379
126.226
184.917
271.962
385.06
511.467
635.578
744.873
831.784
892.618
932.561
953.578
963.342
964.507
963.4
960.95
957.144
956.272
957.476
960.69
966.312
974.728
986.582
1000.61
1016.77
1034.82
1055.09
1077.43
1101.35
1126.36
1152.33
1178.87
1205.96
1233.24
1260.12
1286.69
1311.97
1336.45
1359.31
1381.15
1401.26
1420.09
1437.22
1452.9
1467.03
1479.72
1491.14
1501.23
1510.1
1517.68
1523.9
1528.82
1532.36
1534.69
1535.57
1535.19
1533.94
1531.31
1527.25
1522.37
1516.18
1509.52
1501.47
1493.14
1483.59
1473.35
1462.45
1451.15
1439.1
1426.93
1414
1401.32
1387.81
1374.97
1361.24
1348.51
1334.88
1322.47
1309.09
1297.13
1284.07
1272.65
1259.96
1249.17
1236.91
1226.79
1214.98
1205.61
1194.28
1185.74
1174.89
1167.22
1156.81
1150.03
1140.02
1134.17
1124.54
1119.82
1109.24
1464.69
1897.22
2398.99
2961.94
3563.1
4171.89
4746.08
5251.13
5655.25
5950.79
6132.4
6219.42
6206.84
6159.95
6061.04
5927.86
5777.7
5619.32
5459.33
5301.67
5149.49
5004.54
4867.77
4739.78
4620.63
4510.58
4409.13
4316.17
4231.15
4153.88
4083.74
4020.44
3963.26
3912.02
3866.26
3825.69
3789.94
3758.45
3731.12
3707.39
3687.37
3670.25
3656.02
3643.89
3633.98
3625.62
3618.86
3613.2
3608.7
3605.03
3602.27
3600.15
3598.72
3597.89
3597.9
3598.19
3598.93
3600.12
3601.55
3602.86
3604.51
3605.73
3607.26
3608.22
3609.32
3609.88
3610.21
3610.13
3609.77
3608.88
3607.71
3605.37
3603.04
3599.08
3595.34
3589.71
3584.56
3577.38
3570.95
3562.41
3554.93
3545.25
3536.94
3526.26
3517.28
3505.65
3496.08
3483.49
3473.42
3459.85
3449.46
3434.93
3424.52
3409.05
3398.98
3382.56
3373.19
3355.86
3347.07
3325.05
1109.48
1064.79
1122.23
1210.09
1238.81
1121.13
818.442
1979.81
54654.9
16144.9
7361.09
6109.61
6234.87
6485.1
6555.79
8029.65
74289
43687.5
24866.4
18479.4
16107.1
15004.1
14631.1
19676.3
76416.1
71049.4
54279.3
41215
32697.3
27162.7
24547.3
34067.7
69728.3
75706
67749.3
55649.8
44564.5
35839
30859.2
42695.3
57761.5
71171.5
67937
59031.1
48367.9
38726.3
32776.6
45212.1
47498.1
61831.1
62483.1
56604.3
47159.1
38172.3
32448.5
44232.7
39103.1
51823.9
53585.1
49836
42394.1
34677
29594.7
39766.7
32637.8
42994.3
44923.7
42135.6
36305.6
30047.9
25829
34056.9
27612.3
35628.4
37262.8
35120.8
30549.8
25565
22233.9
29394.5
23490.9
29589.8
30830.2
29129.5
25539.8
21642.2
19168.8
26036.6
20107.4
24698.4
25579.3
24190.4
21347.4
18305.7
16503.5
22996.1
17368.2
20783.3
21372.1
20214.1
17943.5
15560.2
14270.2
20371.5
15135.7
17657.8
18024.2
17044.1
15215.2
13334
12429.6
18159.5
13287
15148
15354.6
14518.1
13031.3
11536
10924
16322.8
11727.3
13107.4
13204.9
12488.1
11270
10075.1
9687.44
14795.1
10405.1
11436.8
11461.1
10844.3
9839.01
8879.9
8666
13520.4
9267.42
10050.5
10031
9497.74
8663.77
7892.38
7815.03
12449.3
8286.22
8889.57
8845.46
8383.07
7688.18
7067.98
7098.16
11540.5
7443.57
7912.11
7853.63
7452.02
6870.49
6372.95
6487.02
10762.1
6716.77
7083.86
7017.48
6667.88
6179.18
5781.5
5962.84
10088.8
6090.08
6378.66
6308.24
6002.87
5590.44
5274.38
5509.88
9501.39
5547.58
5774.94
5703.07
5435.4
5086.03
4837
5116.18
8985.88
5073.68
5253.94
5182.76
4947.6
4650.95
4457.54
4772.21
8531.19
4657.42
4801.34
4732.31
4525.36
4273.21
4126.4
4470.16
8128.16
4290.18
4405.93
4340.01
4157.73
3943.42
3835.93
4203.73
7769.61
3964.79
4058.56
3996.41
3835.8
3653.91
3579.84
3967.61
7449.36
3675.74
3752.1
3694
3552.47
3398.5
3353.01
3757.44
7162.15
3417.76
3480.37
3426.47
3301.83
3172.07
3151.17
3569.65
6903.76
3186.88
3238.48
3188.77
3079.09
2970.44
2970.91
3401.22
6670.73
2979.39
3022.21
2976.64
2880.33
2790.21
2808.93
3249.84
6460.11
2792.27
2828.06
2786.51
2702.15
2628.36
2663.01
3113.18
6269.3
2622.9
2653.07
2615.4
2541.79
2482.43
2531.13
2989.35
6096
2469.04
2494.73
2460.79
2396.89
2350.37
2411.52
2876.79
5938.17
2328.87
2350.99
2320.6
2265.48
2230.43
2302.68
2774.15
5793.98
2200.8
2220.08
2193.09
2145.92
2121.15
2203.34
2680.27
5661.85
2083.51
2100.54
2076.77
2036.82
2021.31
2112.39
2594.16
5540.34
1975.83
1991.09
1970.38
1937
1929.83
2028.93
2515
5428.28
1876.75
1890.66
1872.84
1845.46
1845.85
1952.15
2442.04
5324.69
1785.39
1798.28
1783.22
1761.34
1768.48
1881.45
2374.72
5228.74
1701
1713.16
1700.71
1683.86
1697.12
1816.18
2312.51
5139.77
1622.89
1634.55
1624.58
1612.36
1631.21
1755.83
2254.95
5057.23
1550.47
1561.82
1554.19
1546.25
1570.22
1699.93
2201.64
4980.69
1483.19
1494.4
1488.99
1485
1513.68
1648.07
2152.22
4909.73
1420.58
1431.78
1428.48
1428.14
1461.16
1599.88
2106.35
4843.97
1362.21
1373.49
1372.2
1375.22
1412.32
1555.03
2063.75
4783.08
1307.69
1319.14
1319.75
1325.88
1366.78
1513.22
2024.12
4726.68
1256.67
1268.34
1270.76
1279.82
1324.25
1474.18
1987.22
4674.43
1208.82
1220.78
1224.92
1236.72
1284.45
1437.64
1952.79
4625.91
1163.88
1176.16
1181.95
1196.32
1247.13
1403.4
1920.61
4580.8
1121.58
1134.24
1141.59
1158.38
1212.07
1371.22
1890.47
4538.69
1081.7
1094.77
1103.62
1122.69
1179.08
1340.97
1862.2
4499.3
1044.04
1057.55
1067.85
1089.06
1147.99
1312.44
1835.6
4462.28
1008.42
1022.4
1034.08
1057.33
1118.64
1285.52
1810.57
4427.39
974.68
989.168
1002.18
1027.34
1090.9
1260.07
1786.94
4394.4
942.675
957.686
971.981
998.956
1064.64
1235.99
1764.64
4363.15
912.287
927.838
943.369
972.065
1039.75
1213.16
1743.53
4333.53
883.374
899.484
916.21
946.544
1016.13
1191.51
1723.56
4305.4
855.854
872.534
890.414
922.307
993.69
1170.94
1704.65
4278.76
829.594
846.855
865.854
899.239
972.339
1151.39
1686.72
4253.46
804.543
822.392
842.474
877.286
952.022
1132.79
1669.74
4229.61
780.572
799.012
820.147
856.329
932.634
1115.07
1653.64
4206.97
757.663
776.697
798.854
836.354
914.163
1098.21
1638.39
4185.76
735.676
755.306
778.457
817.228
896.488
1082.11
1623.9
4165.62
714.638
734.863
758.982
798.98
879.638
1066.78
1610.21
4146.85
694.391
715.206
740.269
781.453
863.467
1052.1
1597.19
4128.97
675.007
696.411
722.395
764.731
848.05
1038.15
1584.9
4112.4
656.301
678.285
705.162
748.614
833.202
1024.74
1573.19
4096.51
638.401
660.959
688.71
733.243
819.059
1012
1562.14
4081.85
621.076
644.191
672.785
718.362
805.372
999.704
1551.57
4067.61
604.515
628.181
657.596
704.187
792.356
988.042
1541.62
4054.59
588.429
612.619
642.818
690.38
779.67
976.696
1532
4041.68
573.081
597.786
628.751
677.26
767.641
965.974
1523.01
4030.02
558.103
583.286
614.969
664.371
755.798
955.411
1514.16
4018.1
543.851
569.505
601.893
652.173
744.627
945.499
1505.97
4007.58
529.855
555.932
588.966
640.058
733.474
935.555
1497.7
3996.31
516.592
543.091
576.767
628.669
723.048
926.339
1490.2
3986.72
503.462
530.325
564.573
617.201
712.452
916.865
1482.32
3975.75
491.101
518.335
553.164
606.537
702.689
908.266
1475.41
3966.93
478.739
506.278
541.601
595.612
692.54
899.133
1467.75
3955.95
467.214
495.077
530.925
585.62
683.395
891.111
1461.41
3947.81
455.54
483.65
519.917
575.162
673.608
882.216
1453.81
3936.56
444.812
473.204
509.944
565.821
665.067
874.768
1448.04
3929.03
433.764
462.348
499.437
555.776
655.589
866.05
1440.41
3917.42
423.81
452.641
490.158
547.084
647.66
859.192
1435.24
3910.5
413.333
442.309
480.111
537.421
638.467
850.633
1427.58
3898.61
404.147
433.335
471.525
529.381
631.158
844.379
1423.01
3892.27
394.185
423.478
461.901
520.078
622.251
836.013
1415.41
3880.39
385.763
415.238
454.011
512.695
615.565
830.36
1411.42
3874.61
376.249
405.798
444.765
503.728
606.953
822.249
1404.04
3863.14
368.592
398.296
437.575
497.005
600.89
817.185
1400.56
3857.8
359.444
389.196
428.645
488.334
592.564
809.371
1393.59
3847.04
352.558
382.439
422.161
482.271
587.116
804.877
1390.5
3842.18
343.673
373.588
413.469
473.841
579.058
797.404
1384.13
3832.3
337.574
367.588
407.697
468.432
574.199
793.424
1381.41
3827.86
328.831
358.873
399.144
460.167
566.37
786.305
1375.64
3818.92
323.545
353.649
394.092
455.401
562.054
782.74
1373.16
3814.68
314.809
344.942
385.563
447.201
554.381
775.949
1367.94
3806.74
310.35
340.499
381.219
443.043
550.535
772.654
1365.58
3802.77
299.796
329.939
370.827
433.003
541.101
764.306
1359.02
3793.83
)
;

boundaryField
{
    frontAndBack
    {
        type            empty;
    }
    inlet
    {
        type            fixedValue;
        value           uniform 14.855;
    }
    outlet
    {
        type            zeroGradient;
    }
    walls
    {
        lowReCorrection 0;
        blending        stepwise;
        n               2;
        type            epsilonWallFunction;
        value           nonuniform List<scalar> 
228
(
112.724
141.424
210.097
257.591
369.051
443.457
614.741
724.902
971.33
1128.61
1109.48
1064.79
1122.23
1210.09
1238.81
1121.13
818.442
1979.81
1979.81
8029.65
19676.3
34067.7
42695.3
45212.1
44232.7
39766.7
34056.9
29394.5
26036.6
22996.1
20371.5
18159.5
16322.8
14795.1
13520.4
12449.3
11540.5
10762.1
10088.8
9501.39
8985.88
8531.19
8128.16
7769.61
7449.36
7162.15
6903.76
6670.73
6460.11
6269.3
6096
5938.17
5793.98
5661.85
5540.34
5428.28
5324.69
5228.74
5139.77
5057.23
4980.69
4909.73
4843.97
4783.08
4726.68
4674.43
4625.91
4580.8
4538.69
4499.3
4462.28
4427.39
4394.4
4363.15
4333.53
4305.4
4278.76
4253.46
4229.61
4206.97
4185.76
4165.62
4146.85
4128.97
4112.4
4096.51
4081.85
4067.61
4054.59
4041.68
4030.02
4018.1
4007.58
3996.31
3986.72
3975.75
3966.93
3955.95
3947.81
3936.56
3929.03
3917.42
3910.5
3898.61
3892.27
3880.39
3874.61
3863.14
3857.8
3847.04
3842.18
3832.3
3827.86
3818.92
3814.68
3806.74
3802.77
3793.83
105.864
146.669
198.307
265.852
349.987
456.113
585.663
743.692
931.838
1154.03
1464.69
1897.22
2398.99
2961.94
3563.1
4171.89
4746.08
5251.13
5655.25
5950.79
6132.4
6219.42
6206.84
6159.95
6061.04
5927.86
5777.7
5619.32
5459.33
5301.67
5149.49
5004.54
4867.77
4739.78
4620.63
4510.58
4409.13
4316.17
4231.15
4153.88
4083.74
4020.44
3963.26
3912.02
3866.26
3825.69
3789.94
3758.45
3731.12
3707.39
3687.37
3670.25
3656.02
3643.89
3633.98
3625.62
3618.86
3613.2
3608.7
3605.03
3602.27
3600.15
3598.72
3597.89
3597.9
3598.19
3598.93
3600.12
3601.55
3602.86
3604.51
3605.73
3607.26
3608.22
3609.32
3609.88
3610.21
3610.13
3609.77
3608.88
3607.71
3605.37
3603.04
3599.08
3595.34
3589.71
3584.56
3577.38
3570.95
3562.41
3554.93
3545.25
3536.94
3526.26
3517.28
3505.65
3496.08
3483.49
3473.42
3459.85
3449.46
3434.93
3424.52
3409.05
3398.98
3382.56
3373.19
3355.86
3347.07
3325.05
)
;
    }
}


// ************************************************************************* //
