/*--------------------------------*- C++ -*----------------------------------*\
| =========                 |                                                 |
| \\      /  F ield         | OpenFOAM: The Open Source CFD Toolbox           |
|  \\    /   O peration     | Version:  v2012                                 |
|   \\  /    A nd           | Website:  www.openfoam.com                      |
|    \\/     M anipulation  |                                                 |
\*---------------------------------------------------------------------------*/
FoamFile
{
    version     2.0;
    format      ascii;
    class       volScalarField;
    location    "0.079";
    object      omega.air;
}
// * * * * * * * * * * * * * * * * * * * * * * * * * * * * * * * * * * * * * //

dimensions      [0 0 -1 0 0 0 0];


internalField   nonuniform List<scalar> 
5600
(
6772.58
9483.07
11875.9
13295.3
13892.7
13968.8
13768.2
13435.6
13075.7
12743.4
12450.4
12201.7
12011.4
11869.4
11783.2
11728.2
11713
11706.1
11721.3
11729.7
11748.9
11756.1
11769.8
11774
11781.5
11786.6
11790.1
11797.4
11798.9
11805.8
11808.5
11811.2
11817
11813
11821.9
11811.6
11822.3
11809.7
11817.9
11809.4
11809.7
11809.9
11800.8
11808.6
11795
11803.8
11795
11795.1
11799.7
11784.7
11804.5
11777.8
11804.1
11779
11795.6
11789.1
11781.4
11802.3
11769.6
11810.1
11768.2
11806.2
11779.8
11793.7
11797.7
11783
11809.1
11784.5
11806.8
11799.6
11795.7
11819.2
11788.1
11830.4
11793
11828.9
11808.6
11821.9
11824.9
11820.4
11832.5
11829.2
11831.6
11839.9
11835.2
11835.3
11855.2
11814.1
11875.8
11810.1
11854.5
11857.7
11785.9
11925.9
11724.5
11985.9
11588.3
12302.5
10709.6
13758.9
2507.04
2658.75
3499.13
4408.7
5080.06
5503.52
5763.06
5919.36
5998.36
6001.45
6087.9
6225.68
6348.1
6442.29
6479.84
6481.94
6434.73
6367.57
6274.3
6171.88
6066.18
5959.76
5862.91
5770.78
5685.1
5605.65
5527.34
5458.98
5393.12
5335.44
5283.15
5233.49
5191.89
5150.72
5116.91
5083.41
5056.14
5029.47
5006.69
4985.95
4965.87
4949.65
4932.87
4919.07
4905.6
4893.61
4882.65
4870.97
4862.34
4851.32
4844.64
4833.9
4828.89
4819.59
4813.84
4807.79
4800.52
4797.18
4788.97
4788.47
4779.82
4779.71
4773.29
4770.97
4767.43
4763.89
4762.7
4758.17
4757.53
4754.03
4752.28
4750.71
4747.11
4748.43
4743.06
4744.68
4740.62
4740.75
4738.72
4737.96
4736.93
4736.67
4735.91
4736.72
4735.22
4737.07
4735.61
4736.18
4736.33
4737.2
4730.17
4748.21
4711.52
4774.2
4669.28
4838.66
4554.83
5037.54
4172.12
5655.27
2557.36
2210.68
2000.92
1890.17
1865.82
1938.75
2041.87
2170.76
2318.94
2457.67
2597.1
2767.85
2932.94
3113.98
3261.19
3405.41
3501.56
3587.02
3625.38
3649.97
3633.89
3601.68
3539.11
3464.77
3387.24
3318.91
3262.84
3213.72
3168.04
3126.49
3089.34
3054.21
3024.99
2993.47
2966.63
2938.21
2915.31
2890.5
2869.56
2849.25
2829.44
2812.97
2795
2781.8
2765.93
2754.64
2742.11
2730.45
2721.9
2709.1
2704.37
2690.8
2688.15
2676.38
2672.02
2665.25
2656.82
2656.08
2643.53
2647.1
2634.16
2636.82
2628.21
2625.95
2623.8
2616.67
2618.57
2610.73
2611.04
2607.42
2602.62
2605.12
2595.56
2601.6
2591.47
2595.72
2589.47
2589.32
2587.82
2584.88
2584.82
2583.59
2581.26
2583.59
2580.03
2581.32
2582.78
2577.26
2583.59
2581.28
2571.04
2600.94
2544.57
2628.01
2514.38
2663.28
2460.17
2746.97
2331.69
2880.3
2552.79
2195.15
1926.82
1721.81
1561.65
1441.98
1349.01
1283.93
1231.14
1207.32
1182.89
1202.84
1220.84
1285.98
1341.89
1446.69
1532.13
1658.99
1756.83
1880.62
1975.28
2071.09
2144.92
2198.93
2244.9
2267.83
2290.86
2294.95
2293.53
2281.68
2254.95
2233.72
2195.52
2175.82
2146.94
2127.86
2106.09
2085.83
2067.9
2048.35
2032.59
2016.39
2001.36
1988.53
1973.27
1961.4
1947.46
1935.11
1923.97
1910.12
1902.92
1888.28
1883.14
1870.63
1864.01
1856.09
1846.14
1844.04
1830.55
1832.05
1819.01
1818.97
1810.45
1805.86
1803.44
1794.58
1794.6
1786.21
1783.58
1780.43
1772.56
1775.54
1763.88
1768.99
1758.43
1760.55
1754.82
1752.5
1750.91
1747.03
1745.63
1744.45
1740.37
1742.17
1738.74
1737.11
1740.99
1732.41
1739.37
1737.78
1725.78
1753.97
1708.65
1763.94
1705.11
1761.55
1704.56
1767.03
1691.11
1759.76
2551.12
2191.64
1920.25
1709.37
1539.95
1403.35
1288.22
1195.1
1111.86
1047.3
984.182
940.642
892.382
866.423
830.975
820.283
800.595
802.577
810.308
826.468
863.689
893.873
960.205
1003.06
1087.87
1144.29
1228.89
1302.13
1364.96
1448.3
1475
1551.03
1550.81
1605.79
1601.06
1629.42
1629.34
1630.32
1636.01
1617.53
1622.25
1597.56
1593.52
1578.19
1564.2
1559.01
1539.69
1538.44
1520.22
1514.8
1504.16
1492.11
1488.11
1474.24
1470.83
1460.69
1453.62
1449.17
1437.06
1436.69
1423.82
1422.45
1413.42
1407.58
1404.27
1394.34
1392.3
1383.79
1378.45
1375.9
1365.84
1368.45
1356.2
1359.01
1349.42
1348.59
1343.77
1339.41
1337.08
1332.85
1329.44
1328.17
1322.99
1322.48
1320.58
1314.72
1320.72
1310.1
1316.05
1315.43
1303.95
1324.52
1298.22
1320.1
1309.41
1304.93
1319.16
1303.81
1310.51
1308.85
2550.75
2190.44
1918.77
1706.81
1537.34
1398.44
1283.26
1185.28
1102.46
1029.35
967.743
910.393
864.205
816.624
783.293
740.815
719.839
678.882
670.444
630.251
632.449
596.353
603.891
580.541
584.633
587.798
581.823
620.189
605.537
677.249
666.194
752.805
760.425
839.49
872.292
929.45
989.382
1009.02
1096.82
1080.6
1164.09
1155.64
1196.58
1210.15
1202.07
1241.06
1206.59
1255.26
1219.96
1251.69
1235.12
1233.77
1243.54
1213.15
1236.65
1202.18
1217.21
1198.85
1196.26
1195.47
1179.92
1185.46
1170.92
1170.58
1164.89
1156.59
1155.33
1147.7
1142.78
1141.87
1131.72
1134.67
1123.75
1125.04
1117.65
1114.7
1111.48
1105.98
1103.37
1099.4
1094.58
1093.12
1087.95
1084.31
1085.04
1074.7
1082.47
1071.18
1074.38
1076.49
1064.61
1078.91
1067.07
1067.56
1080.8
1056.57
1081.37
1067.3
1063.42
1080.11
2550.66
2189.95
1918.38
1705.77
1536.88
1396.7
1282.93
1182.5
1102.36
1025.05
967.829
904.141
863.99
808.283
781.334
730.828
713.32
668.078
655.067
618.02
603.14
578.948
556.171
547.916
515.698
520.255
485.87
491.373
469.922
461.018
465.966
435.396
468.11
423.612
474.027
433.689
488.671
464.98
517.274
517.864
558.143
587.586
607.931
668.122
660.929
746.831
727.93
806.189
797.194
853.21
878.362
870.695
940.017
890.422
976.547
919.448
983.016
954.277
967.608
990.717
956.541
991.875
961.407
982.15
975.04
971.918
982.568
969.584
977.797
969.863
965.284
965.869
957.049
957.889
953.667
949.685
950.075
944.395
944.048
941.017
937.008
935.917
932.447
926.638
931.053
917.948
926.872
918.019
916.741
923.755
910.835
921.338
918.242
909.2
928.622
906.073
921.901
920.517
906.731
927.606
2550.61
2189.77
1918.16
1705.44
1536.56
1396.22
1282.53
1181.88
1101.88
1024.35
967.158
903.535
862.788
808.216
778.944
732.011
708.87
671.138
648.041
622.576
594.4
582.434
548.838
545.288
514.448
505.652
493.406
461.631
482.65
418.197
472.359
386.085
451.309
373.422
416.319
379.165
371.917
395.396
330.641
402.885
314.704
387.237
327.295
358.572
369.36
338.8
413.854
337.344
439.241
364.373
447.564
417.29
468.19
479.686
493.078
539.715
536.788
588.805
576.212
645.308
609.923
672.303
665.063
692.892
716.799
710.212
746.019
740.176
763.819
771.361
768.918
785.217
780.805
790.108
793.413
789.997
800.218
795.01
802.852
802.038
801.582
803.996
802.208
798.872
806.111
793.208
804.167
796.381
793.944
802.566
789.511
797.611
798.611
786.479
805.186
787.871
797.18
799.245
788.679
801.805
2550.56
2189.77
1917.92
1705.48
1536.1
1396.45
1281.71
1182.48
1100.5
1025.56
964.992
905.544
859.732
811.018
775.183
735.184
705.102
673.667
645.533
622.986
594.628
579.503
552.438
539.326
519.767
499.676
495.881
461.084
476.494
428.246
454.566
407.08
424.748
399.279
387.557
400.229
349.59
399.525
324.072
381.825
324.768
340.001
349.092
284.352
379.092
238.961
384.834
233.768
349.938
269.735
280.334
338.3
202.827
392.236
171.326
387.687
197.832
336.882
283.146
269.59
359.857
272.914
387.567
309.651
378.588
375.341
366.377
422.695
378.702
454.423
422.397
475.335
474.763
496.061
516.45
520.241
544.787
550.12
568.289
579.155
590.263
600.056
614.823
614.642
637.669
631.408
648.317
651.984
650.124
664.869
657.471
662.509
671.018
657.962
674.84
664.505
668.897
670.803
668.963
667.599
2550.52
2189.79
1917.79
1705.55
1535.81
1396.66
1281.18
1182.96
1099.61
1026.42
963.653
906.831
857.995
812.555
773.378
736.463
703.901
673.903
645.736
621.533
596.521
576.667
554.918
537.092
520.011
501.383
490.561
469.36
464.514
442.001
439.44
420.349
413.829
404.045
388.223
390.722
365.334
376.348
349.233
356.639
342.472
330.814
342.13
304.573
339.79
287.87
326.018
287.649
297.954
300.49
262.416
316.277
232.66
318.908
226.58
296.902
244.221
258.996
273.217
217.364
293.187
209.045
274.296
232.866
239.466
259.814
219.684
268.267
221.064
254.297
240.647
249.411
250.751
256.61
251.085
279.413
254.789
295.563
266.402
298.177
295.098
296.88
329.343
305.68
348.872
332.643
353.794
366.721
360.458
389.385
378.464
396.869
397.842
401.867
407.524
407.474
412.653
408.841
415.396
409.905
2550.51
2189.81
1917.77
1705.6
1535.76
1396.76
1281.06
1183.14
1099.4
1026.7
963.34
907.205
857.616
812.943
773.057
736.695
703.844
673.763
646.127
620.93
597.292
575.883
555.534
536.901
519.538
502.738
488.235
472.59
460.627
446.041
435.754
422.882
412.828
402.847
391.492
385.274
372.079
368.879
355.604
352.08
342.933
334.26
333.315
316.984
323.931
303.322
311.616
295.274
295.707
291.469
279.062
288.112
265.438
282.221
256.448
273.536
251.089
263.381
248.736
252.05
249.989
239.62
254.07
228.907
255.036
228.442
247.233
239.959
234.785
256.378
229.418
263.864
242.89
260.225
271.512
254.466
298.824
263.59
312.434
293.602
313.573
332.526
319.526
363.116
344.092
379.866
381.079
389.886
414.049
401.882
432.946
419.145
437.429
438.137
435.219
451.099
435.638
452.985
443.771
444.722
2550.52
2189.85
1917.83
1705.69
1535.84
1396.88
1281.16
1183.29
1099.5
1026.88
963.449
907.394
857.745
813.117
773.243
736.811
704.129
673.785
646.525
620.883
597.728
575.906
555.804
537.246
519.393
503.599
487.624
473.802
460.016
446.84
436.181
422.12
415.391
399.82
396.314
380.807
377.424
365.798
358.107
354.162
339.543
343.665
324.241
331.776
314.149
317.653
309.048
302.908
306.894
290.765
305.04
284.846
301.443
287.811
296.658
299.295
294.358
315.821
300.528
333.45
319.141
350.855
349.372
370.332
386.066
394.779
424.322
425.079
460.627
461.736
492.246
503.594
518.609
546.327
542.866
581.8
570.772
604.243
604.167
615.821
636.753
626.339
658.404
644.384
664.221
667.598
661.81
684.215
664.985
685.652
678.083
677.566
691.592
673.11
693.88
680.977
684.933
692.104
679.827
694.468
2550.55
2189.94
1917.95
1705.85
1536.03
1397.1
1281.4
1183.55
1099.77
1027.17
963.756
907.709
858.098
813.442
773.661
737.123
704.643
674.063
647.163
621.131
598.488
576.2
556.598
537.797
520.012
504.768
487.817
475.978
459.737
450.137
436.047
426.028
417.057
403.248
402.248
383.023
389.835
368.157
377.814
361.355
366.309
363.128
359.341
371.348
362.637
384.488
379.798
403.658
410.532
431.577
451.089
469.447
497.695
514.55
547.805
562.576
598.697
611.086
646.195
659.046
686.353
704.642
719.157
743.415
747.396
771.301
773.117
787.834
795.092
797.024
809.863
804.867
816.409
813.634
816.246
821.607
814.443
825.034
815.425
821.915
819.267
814.755
821.188
809.342
816.874
809.101
808.037
811.17
801.75
810.023
802.204
805.58
806.342
801.53
808.652
802.029
806.599
805.792
804.243
808.336
2550.6
2190.11
1918.19
1706.18
1536.4
1397.55
1281.87
1184.11
1100.35
1027.85
964.431
908.532
858.89
814.453
774.612
738.391
705.838
675.679
648.788
623.224
600.919
578.969
560.456
541.656
526.182
510.761
497.543
486.282
474.707
468.779
459.019
459.451
453.323
460.813
461.664
476.094
487.409
507.983
531.939
556.496
592.222
618.522
661.383
688.787
732.903
761.562
800.344
829.915
859.812
888.744
908.527
934.253
945.653
964.636
972.262
982.287
990.695
992.455
1001.82
998.407
1005.69
1002.05
1003.86
1002.99
998.86
1000.24
993.176
993.417
988.056
984.104
982.491
975.66
975.815
969.281
967.569
964.629
959.142
959.702
952.319
952.647
947.605
943.8
943.254
936.164
937.603
932.064
931.356
930.467
927.005
929.329
925.257
927.456
926.027
925.379
927.14
924.582
926.951
925.544
926.167
927.026
2550.73
2190.51
1918.77
1706.95
1537.3
1398.68
1283.13
1185.71
1102.12
1030.16
967.015
911.933
862.726
819.568
780.423
746.217
714.844
687.945
663.425
643.087
625.227
611.328
601.001
594.118
593.643
596.939
609.59
625.729
654.124
685.629
728.005
773.304
822.517
877.588
926.744
985.689
1028.29
1082.32
1116.33
1157.13
1182.71
1206.76
1225.83
1237.81
1251.86
1255.96
1264.39
1264.07
1266.1
1263.66
1259.94
1256.27
1248.67
1244.03
1235.54
1229.94
1223.56
1216.81
1212.2
1204.61
1200.47
1193.59
1188.3
1183.17
1176.64
1172.82
1166.27
1162.5
1157.41
1152.74
1149.11
1143.24
1140.29
1134.4
1131.01
1126.56
1121.72
1118.97
1113.14
1110.92
1105.67
1102.35
1099.24
1094.62
1093.38
1088.96
1088.1
1085.65
1084.06
1083.89
1081.65
1082.64
1080.93
1081.4
1081.14
1080.39
1081.35
1080.18
1081.32
1081.06
2551.15
2191.6
1920.45
1709.22
1540.47
1402.93
1289.41
1194.39
1114.21
1046.4
988.205
940.134
899.111
867.167
841.159
824.882
814.548
817.862
829.356
855.115
889.659
938.475
994.546
1061.39
1132.61
1209.06
1286.88
1362.18
1433.84
1493.06
1544.29
1580.96
1611.25
1632.9
1647.83
1657.89
1660.21
1661.07
1653.61
1646.68
1633.57
1621.02
1607.92
1595.75
1584.68
1572.97
1562.73
1551.45
1541.06
1530.9
1520.73
1511.51
1502.47
1494.34
1486.48
1478.64
1471.16
1463.21
1456.23
1448.6
1441.94
1434.98
1428.19
1422.31
1415.35
1410.16
1403.62
1398.66
1393.01
1387.81
1383.42
1377.89
1374.38
1369.18
1365.85
1361.58
1357.68
1354.62
1350.19
1347.91
1343.69
1341.44
1338.44
1335.71
1334.26
1331.36
1330.83
1328.57
1328.05
1327.1
1326.01
1326.32
1324.87
1325.6
1324.56
1324.73
1324.8
1324.13
1325.26
1324.82
2552.74
2195.22
1927.01
1721.93
1563
1442.87
1354.1
1286.15
1243.12
1212.61
1204.42
1219.86
1257.27
1316.54
1395.87
1492.18
1600.68
1715.84
1832.36
1944.88
2047.16
2134.76
2203.5
2255.11
2291.27
2315.8
2329.71
2331.92
2323.65
2304.15
2278.03
2246.5
2218.67
2193.34
2170.3
2148.3
2127.63
2107.3
2088.26
2070.04
2053.5
2037.83
2023.05
2008
1993.53
1979.94
1966.48
1954.25
1941.98
1931.18
1920.09
1910.29
1900.73
1891.72
1883.54
1875.43
1868.35
1860.88
1854.65
1848.01
1842.17
1836.39
1830.69
1825.89
1820.1
1815.95
1810.57
1806.62
1802.03
1797.92
1794.35
1789.98
1787.31
1783.18
1780.71
1777.25
1774.54
1772.06
1768.97
1767.44
1764.48
1763.43
1761.25
1760.05
1759.13
1757.55
1757.52
1755.86
1756
1754.95
1754.59
1754.55
1753.46
1754.13
1752.88
1753.51
1753.03
1752.91
1753.9
1753.79
2556.98
2211.38
2002.12
1894.93
1875.46
1959.47
2066.24
2207.35
2362.15
2500.5
2657.95
2832.86
3015.58
3191.04
3348.91
3479.31
3580.84
3649.61
3688.5
3696.15
3676
3627.45
3558.34
3478.16
3403.08
3341.23
3288.37
3239.97
3195.1
3154.27
3117.1
3084.17
3051.85
3021.63
2992.77
2966.09
2941.33
2917.48
2896.27
2875.15
2856.87
2838.73
2823.06
2807.58
2793.86
2781.21
2768.99
2758.43
2747.73
2738.67
2729.18
2721.26
2713.13
2705.76
2699.12
2692.37
2686.69
2680.55
2675.82
2670.42
2666.07
2661.68
2657.36
2653.9
2649.48
2646.71
2642.6
2640
2636.72
2633.86
2631.41
2628.45
2626.6
2623.6
2621.87
2619.27
2617.5
2615.57
2613.61
2612.59
2610.82
2610.43
2609.18
2608.98
2608.5
2607.93
2608.09
2607.14
2607.51
2606.62
2606.65
2606.34
2605.7
2606.09
2605.01
2605.74
2604.98
2605.47
2606.27
2607.07
2508.46
2664.55
3511.55
4425.01
5101.07
5522.92
5790.74
5943.84
6009.63
6036.88
6165.24
6318.13
6450.46
6536.56
6572.43
6559.34
6508.67
6428.39
6330.75
6222.59
6112.2
6005.65
5906.36
5813.92
5726.96
5644.16
5567.35
5496.65
5432.59
5374.4
5321.28
5273.81
5229.82
5191.51
5155.56
5124.43
5095.91
5070.08
5047.65
5025.98
5007.74
4990.05
4974.79
4960.31
4947.24
4935.11
4923.2
4912.92
4902.52
4893.34
4884.26
4876.16
4868.33
4860.91
4854.44
4847.69
4842.08
4836.39
4831.5
4826.62
4822.25
4818.28
4814.07
4810.78
4806.94
4804.04
4800.85
4798.15
4795.73
4793.18
4791.04
4789.04
4787.06
4785.18
4783.25
4781.62
4780
4778.54
4777.34
4776.24
4775.69
4775.06
4774.91
4774.81
4774.7
4774.72
4774.54
4774.36
4774.24
4773.84
4773.63
4773.12
4772.98
4772.66
4772.31
4772.5
4771.85
4772.88
4773.34
4775.48
6768.96
9483.57
11871.7
13280.3
13857.6
13918.8
13700.2
13354.3
12989.3
12654.4
12355.5
12108.7
11918.3
11784.7
11699.6
11655.3
11638.5
11640.7
11651.4
11666.1
11679.7
11691.2
11700.5
11706.9
11713.3
11718.1
11723.7
11728.2
11732.9
11737
11740.4
11743.8
11744.9
11746.6
11745.7
11745.5
11743.8
11741.7
11740.1
11736.3
11735.2
11730.4
11729.7
11725
11724.1
11720.8
11719
11717.7
11714.6
11715
11711.2
11712.4
11708.8
11709.5
11707.7
11706.7
11707.4
11704.7
11707.3
11704.4
11706.9
11706
11706.4
11708.8
11706.7
11711.8
11708.9
11714.4
11713.2
11716.3
11718.6
11718.7
11723.9
11722.5
11728.5
11728.2
11732.6
11735.5
11737
11742.7
11742.4
11748.7
11748.6
11752.5
11754.3
11754.4
11758.2
11755.5
11759.5
11757
11758.2
11758.9
11756.3
11759.6
11755.7
11758.3
11756.7
11755.3
11755.8
11749.4
10866.1
6751.2
4837.96
3898.26
3326.6
2954.3
2684.6
2483.66
2327.44
2195.39
2079.81
1977.16
1880.87
1790.77
1707.52
1638.82
1579.87
1521.34
1468.39
1419.04
1359.2
1290.05
1237.24
1215.58
1187.47
1075.3
895.393
776.761
722.209
677.245
755.403
860.889
903.746
896.211
860.709
813.126
765.208
725.794
696.39
674.64
657.844
641.341
621.09
595.97
564.525
525.733
481.589
436.386
393.439
354.092
318.12
285.165
255.35
229.257
207.456
190.188
177.202
167.798
161.124
156.444
153.255
151.25
150.224
149.969
150.178
150.465
150.494
150.118
149.371
148.404
147.42
146.59
145.989
145.601
145.373
145.247
145.183
145.151
145.137
145.128
145.125
145.121
145.12
145.118
145.118
145.116
145.117
145.115
145.117
145.115
145.117
145.115
145.117
145.114
145.116
145.113
145.115
145.111
145.112
145.105
2950.83
5045.01
4710.85
3984
3405.22
3003.41
2708.31
2487.19
2318.57
2177.75
2056.72
1950.94
1851.56
1759.55
1674.77
1606.58
1549.12
1490.91
1443.54
1399.22
1337.63
1265.12
1218.03
1201.24
1145.42
979.621
766.638
616.475
659.038
709.756
674.459
789.645
865.421
877.161
850.54
806.641
760.013
720.646
690.694
667.881
649.36
630.999
609.652
584.057
551.813
511.664
466.452
420.531
376.97
336.797
299.687
265.902
236.39
212.131
193.46
179.894
170.349
163.624
158.76
155.172
152.571
150.844
149.923
149.686
149.892
150.192
150.255
149.925
149.242
148.359
147.444
146.643
146.037
145.632
145.382
145.238
145.157
145.113
145.088
145.074
145.065
145.06
145.057
145.055
145.054
145.053
145.052
145.052
145.052
145.051
145.052
145.051
145.052
145.051
145.051
145.051
145.051
145.049
145.049
145.047
2180.31
2686.4
3513.69
3595.28
3282.4
2958.19
2683.84
2462.52
2292.93
2147.84
2023.75
1916.41
1814.71
1721.89
1636.92
1569.9
1514.3
1454.58
1414.67
1374.4
1308.26
1232.86
1197.2
1178.26
1051.16
740.921
600.434
699.492
718.797
824.321
762.601
737.913
816.669
849.483
835.813
797.711
753.243
714.128
683.612
659.653
639.095
618.751
596.408
570.24
536.908
495.435
449.076
402.105
357.429
315.852
277.799
244.455
217.192
196.604
182.119
172.337
165.696
160.955
157.328
154.442
152.191
150.605
149.708
149.447
149.628
149.941
150.059
149.808
149.212
148.428
147.604
146.845
146.221
145.772
145.475
145.294
145.183
145.119
145.078
145.056
145.041
145.034
145.027
145.026
145.022
145.023
145.02
145.022
145.019
145.021
145.019
145.021
145.019
145.021
145.019
145.022
145.019
145.022
145.02
145.025
1716.68
1654.31
1957.21
2413.29
2626.81
2625.16
2500.09
2343.63
2209.15
2078.96
1964.9
1863.01
1762.98
1672.38
1589.74
1524.07
1469.43
1405.61
1378.76
1337.16
1262.43
1187.92
1172.13
1099.87
771.301
505.282
590.835
788.824
825.298
885.148
908.219
770.589
774.02
813.024
814.218
784.692
743.757
705.412
674.446
649.383
626.856
604.616
581.279
554.189
519.405
476.369
428.398
379.873
333.63
291.159
253.912
223.484
200.647
184.815
174.387
167.574
162.915
159.43
156.559
154.09
152.029
150.491
149.559
149.229
149.352
149.672
149.88
149.775
149.326
148.662
147.917
147.191
146.546
146.046
145.69
145.459
145.306
145.215
145.153
145.12
145.094
145.084
145.072
145.07
145.063
145.066
145.06
145.064
145.059
145.064
145.059
145.064
145.058
145.064
145.059
145.065
145.06
145.068
145.063
145.076
1309.32
1297.1
1325.25
1386.41
1593.61
1799.1
1926.51
1963.95
1949.46
1887.1
1822.71
1747.06
1661.42
1582.19
1507.83
1444.35
1383.29
1308.74
1313.66
1244.23
1157.64
1108.08
1079.66
712.589
432.906
573.96
733.588
894.19
933.288
938.403
987.68
879.795
771.346
775.921
784.433
765.48
730.024
693.333
662.183
636.023
611.672
587.603
562.985
534.381
497.714
452.775
402.978
352.857
306.068
264.973
231.412
206.228
188.753
177.258
169.822
164.897
161.394
158.621
156.189
153.97
152.015
150.472
149.459
149.016
149.042
149.341
149.642
149.725
149.481
148.966
148.291
147.584
146.932
146.402
145.997
145.715
145.516
145.389
145.3
145.248
145.209
145.191
145.173
145.169
145.159
145.161
145.154
145.158
145.152
145.158
145.151
145.158
145.151
145.158
145.151
145.16
145.153
145.163
145.159
145.175
1060.65
1064.81
1083.21
1038.31
1079.12
1111.67
1182.19
1293.56
1368.66
1405.58
1447.69
1435.26
1402.82
1358.64
1303.6
1248.77
1108.15
1013.87
1000.49
808.275
773.655
814.71
446.078
309.232
512.947
722.204
862.038
981.552
1020.12
998.38
1028.53
986.296
831.081
760.18
751.538
738.449
709.83
675.925
645.018
617.694
591.359
565.392
539.379
509.359
471.601
425.611
374.833
324.662
279.639
242.58
214.542
194.86
181.735
173.146
167.451
163.519
160.597
158.197
156.02
153.969
152.089
150.526
149.411
148.819
148.702
148.922
149.249
149.466
149.407
149.052
148.483
147.846
147.23
146.702
146.27
145.946
145.705
145.541
145.424
145.352
145.299
145.272
145.248
145.241
145.228
145.229
145.221
145.225
145.218
145.224
145.217
145.224
145.217
145.224
145.218
145.225
145.22
145.229
145.225
145.242
909.97
910.631
925.383
891.508
896.89
874.31
864.103
884.368
873.045
887.636
908.677
879.984
905.545
856.914
779.999
718.574
469.402
359.521
146.662
168.379
145.165
39.4423
302.835
555.186
719.999
867.009
980.062
1064.76
1094.17
1064.55
1065.61
1055.76
930.696
794.66
734.95
709.015
681.961
650.415
620.049
591.659
563.992
538.166
514.291
488.972
457.099
415.274
365.604
314.773
269.662
234.095
208.416
190.957
179.429
171.81
166.643
162.987
160.229
157.965
155.928
154.003
152.2
150.633
149.424
148.664
148.349
148.392
148.615
148.834
148.88
148.682
148.268
147.753
147.218
146.729
146.308
145.978
145.726
145.55
145.422
145.342
145.284
145.252
145.226
145.216
145.204
145.203
145.196
145.198
145.193
145.197
145.192
145.196
145.191
145.197
145.192
145.198
145.193
145.201
145.199
145.212
790.865
795.968
797.854
785.683
779.747
754.768
743.274
724.894
681.577
695.504
612.879
602.27
556.539
471.838
386.759
295.293
299.507
332.625
437.074
450.208
492.867
668.877
736.65
772.715
859.358
987.142
1088.85
1144.83
1160.98
1133.09
1112.89
1107.45
1027.41
882.544
767.067
701.465
658.31
622.602
591.589
564.067
541.841
528.833
524.208
520.156
504.918
469.925
416.456
355.303
298.548
253.089
220.178
197.895
183.355
173.937
167.723
163.465
160.379
157.974
155.935
154.085
152.362
150.812
149.529
148.599
148.046
147.828
147.832
147.925
147.971
147.882
147.623
147.249
146.824
146.418
146.06
145.779
145.562
145.411
145.302
145.233
145.183
145.156
145.134
145.125
145.115
145.113
145.107
145.109
145.105
145.108
145.104
145.108
145.104
145.108
145.104
145.109
145.105
145.112
145.109
145.12
670.944
667.295
665.758
661.827
638.802
622.082
608.426
547.466
567.084
480.842
469.842
436.652
385.702
347.119
384.889
404.647
457.534
546.143
553.809
580.355
655.082
703.273
743.615
827.311
965.699
1108.07
1195.14
1220.11
1217.1
1192.71
1165.95
1156.33
1110.02
991.139
858.838
754.45
682.22
634.464
602.245
585.491
588.81
607.051
625.753
630.565
612.259
568.504
504.881
432.708
363.275
303.745
257.109
223.108
199.62
183.948
173.655
166.877
162.309
159.091
156.664
154.679
152.927
151.34
149.94
148.802
147.971
147.45
147.177
147.069
147.023
146.954
146.793
146.547
146.248
145.958
145.703
145.504
145.354
145.251
145.178
145.134
145.1
145.084
145.069
145.065
145.057
145.058
145.052
145.055
145.051
145.055
145.05
145.055
145.05
145.055
145.05
145.056
145.051
145.058
145.055
145.065
411.758
412.725
403.336
408.393
384.211
388.389
357.178
364.917
338.497
345.012
359.35
377.863
411.752
499.547
555.52
628.474
709.469
739.048
753.905
794.969
837.993
864.5
909.293
1008.98
1148.55
1260.79
1291.71
1269.35
1244.39
1225.13
1208.04
1201.64
1180.18
1098.26
981.983
871.726
788.352
738.901
719.662
724.68
741.044
753.434
753.647
735.922
697.966
642.532
575.785
504.553
435.619
374.17
322.232
279.577
245.394
218.891
199.066
184.753
174.744
167.872
163.078
159.551
156.72
154.285
152.138
150.318
148.873
147.829
147.135
146.721
146.479
146.329
146.184
146.025
145.843
145.681
145.54
145.444
145.369
145.331
145.297
145.289
145.271
145.275
145.263
145.272
145.26
145.271
145.259
145.271
145.258
145.272
145.258
145.273
145.257
145.275
145.257
145.277
145.259
145.283
145.267
145.298
456.271
439.683
463.298
451.651
472.501
491.014
503.067
544.815
573.282
610.04
660.283
693.879
746.872
788.052
816.509
853.964
878.009
879.948
895.523
928.18
946.168
965.661
1042.25
1181.47
1320.68
1372.47
1325.13
1260.37
1224.28
1215.1
1219.33
1231.28
1234.23
1189.84
1102.42
1010.21
940.644
903.812
890.374
885.677
878.27
862.411
835.841
797.209
746.977
688.746
627.026
565.187
505.725
451.666
405.328
366.813
334.199
305.746
280.457
257.95
238.218
221.274
206.727
194.173
183.274
174.023
166.383
160.38
155.807
152.56
150.322
148.907
147.997
147.512
147.228
147.167
147.156
147.287
147.383
147.571
147.659
147.825
147.859
147.987
147.972
148.075
148.024
148.119
148.043
148.141
148.047
148.153
148.045
148.162
148.04
148.172
148.035
148.186
148.034
148.209
148.049
148.263
148.115
148.397
685.656
692.029
695.94
699.569
717.832
725.538
747.614
765.984
780.334
805.182
821.493
840.447
866.961
886.329
912.812
946.283
962.233
974.717
1006.73
1032.65
1041.93
1093.25
1224.14
1380.86
1458.63
1402.08
1286.45
1202.42
1171.17
1175.7
1199.62
1232.05
1259.04
1250.23
1195.28
1129.11
1079.09
1043.88
1013.96
982.384
946.132
906.097
863.041
816.3
766.206
715.219
665.159
616.497
569.6
525.754
487.107
455.762
431.033
410.86
393.193
376.483
359.482
341.909
322.85
302.019
279.19
255.991
233.844
214.778
199.06
187.39
178.775
173.282
169.664
168.322
168.094
169.421
170.916
173.186
174.831
176.841
177.849
179.263
179.601
180.574
180.455
181.209
180.813
181.507
180.93
181.653
180.948
181.733
180.93
181.79
180.898
181.852
180.865
181.935
180.864
182.072
180.972
182.381
181.409
183.172
805.608
809.82
811.514
817.844
827.823
837.245
852.167
865.285
881.721
900.761
917.454
942.519
967.868
992.314
1029.41
1061.34
1080.07
1108.06
1139.71
1148.8
1174.42
1282.89
1447.33
1555.51
1508.28
1351.46
1213.41
1145.25
1129.51
1142.22
1172.25
1212.05
1251.04
1265.45
1241.03
1198.42
1150.25
1095.61
1041.72
991.611
943.262
897.221
852.638
808.65
766.243
726.95
690.062
654.312
619.66
587.522
559.211
535.414
515.722
499.786
486.429
474.881
463.664
452.784
441.305
428.709
413.119
395.57
376.123
357.609
340.198
326.41
315.307
308.827
305.343
306.504
309.736
315.825
321.566
328.135
332.796
337.635
340.169
343.22
344.061
346.018
345.841
347.301
346.553
347.884
346.776
348.171
346.801
348.327
346.763
348.435
346.702
348.554
346.64
348.716
346.638
348.994
346.843
349.628
347.694
351.24
926.891
929.513
931.658
938.832
947.494
959.294
973.745
988.409
1008.25
1027.41
1049.68
1079.33
1107.01
1143.72
1190.75
1226.63
1257.8
1290.65
1303.09
1307.62
1378.99
1532.87
1667.84
1646.7
1462.87
1271.96
1161.31
1120.06
1115.41
1127.97
1152.69
1186.55
1222.26
1242.8
1234.63
1199.98
1144.16
1077.25
1016.47
966.864
923.845
884.407
845.509
806.814
770.725
738.564
709.282
682.115
657.325
636.002
618.468
604.319
592.537
582.469
573.218
564.942
557.454
551.061
545.907
541.989
538.424
535.322
532.312
529.859
527.76
526.598
526.163
527.024
529.125
532.976
537.865
543.386
548.481
553.041
556.603
559.447
561.383
562.884
563.744
564.508
564.785
565.225
565.2
565.537
565.331
565.691
565.334
565.798
565.276
565.911
565.183
566.062
565.071
566.282
564.988
566.639
565.068
567.362
565.741
569.073
1082.31
1084.24
1087.7
1096.04
1106.49
1122.43
1139.47
1160.54
1185.75
1210.82
1243.4
1279.08
1317.63
1370.77
1428.11
1473.35
1505.27
1516.53
1505.18
1530.32
1649.19
1794.89
1809.14
1622.41
1383.14
1222.73
1152.04
1133.5
1133.89
1140.29
1152.81
1172.33
1194.38
1207.7
1200.01
1165.31
1109.7
1048.59
998.137
961.489
932.297
904.168
872.447
837.885
804.547
774.513
747.686
724.616
706.226
692.893
683.852
677.765
673.71
671.203
670.017
669.947
670.543
671.106
671.153
671.049
671.776
673.478
676.165
679.095
681.842
683.78
685.477
687.077
689.573
692.762
696.818
700.628
704.295
707.171
709.703
711.384
712.822
713.599
714.356
714.65
715.044
715.122
715.324
715.325
715.414
715.419
715.411
715.498
715.355
715.607
715.254
715.773
715.117
716.019
714.982
716.42
714.979
717.168
715.559
718.848
1326.99
1328.97
1334.42
1344.97
1360.18
1382.31
1406.25
1437.4
1470.73
1506.68
1549.83
1592.74
1646.35
1713.11
1777.28
1816.13
1813.42
1784.79
1765.77
1825.17
1952.03
1997.12
1835.59
1561.56
1343
1230.99
1197.34
1196.26
1197.8
1194.8
1191.4
1191.44
1194.33
1193.85
1179.31
1144.96
1098.67
1056.34
1027.95
1012.34
1001.91
986.485
960.608
927.926
894.749
864.247
837.663
817.086
803.869
797.526
796.177
797.79
801.279
805.934
811.5
817.628
824.026
830.24
836.028
841.06
845.211
848.181
849.949
850.464
850.277
849.765
849.623
850.356
852.63
856.23
860.682
865.031
869.017
872.32
874.989
876.957
878.397
879.377
880.045
880.504
880.767
881
881.053
881.213
881.138
881.317
881.13
881.401
881.07
881.515
880.965
881.693
880.81
881.983
880.636
882.495
880.58
883.465
881.22
885.531
1756.8
1759.64
1767.82
1782.85
1806.37
1838.24
1873.96
1917.52
1960.94
2007.46
2056.2
2103.05
2166.29
2235.53
2282.51
2269.13
2200.6
2137.98
2132.5
2206.09
2259.35
2135.46
1847.37
1564.56
1390.65
1326.07
1325.13
1339.24
1341.27
1328.57
1308.16
1285.98
1266.36
1248.43
1225.16
1194.79
1168.49
1157.97
1162.06
1175.11
1188.09
1184.75
1161.07
1127.06
1092
1059.91
1033.26
1016.01
1009.41
1011.59
1019.2
1029.5
1040.84
1052.12
1062.92
1072.85
1081.84
1089.67
1096.17
1101.11
1104.56
1106.71
1107.96
1108.57
1108.9
1109.28
1110.23
1112.12
1115.12
1118.9
1122.85
1126.5
1129.64
1132.23
1134.21
1135.67
1136.67
1137.37
1137.8
1138.11
1138.28
1138.42
1138.46
1138.55
1138.52
1138.61
1138.52
1138.66
1138.48
1138.75
1138.39
1138.92
1138.24
1139.28