/*--------------------------------*- C++ -*----------------------------------*\
| =========                 |                                                 |
| \\      /  F ield         | OpenFOAM: The Open Source CFD Toolbox           |
|  \\    /   O peration     | Version:  v2012                                 |
|   \\  /    A nd           | Website:  www.openfoam.com                      |
|    \\/     M anipulation  |                                                 |
\*---------------------------------------------------------------------------*/
FoamFile
{
    version     2.0;
    format      ascii;
    class       Cloud<basicKinematicParcel>;
    location    "0.048/lagrangian/kinematicCloud";
    object      positions;
}
// * * * * * * * * * * * * * * * * * * * * * * * * * * * * * * * * * * * * * //

51
(
(0.112264 0.00361406 0.03) 204
(0.110586 0.0103815 0.03) 404
(0.106909 0.0157124 0.03) 604
(0.100862 0.00625703 0.03) 303
(0.096794 0.0209649 0.03) 803
(0.0924689 0.017626 0.03) 702
(0.057285 0.00131345 0.03) 8
(0.0837544 0.0224723 0.03) 901
(0.0791499 0.0235106 0.03) 901
(0.0751521 0.00924975 0.03) 400
(0.0740971 0.00852483 0.03) 400
(0.0704155 0.00526648 0.03) 200
(0.0109386 0.0265751 0.03) 91
(0.0100003 5.95257e-05 0.03) 1
(0.0344754 0.0255637 0.03) 95
(0.0553277 0.012331 0.03) 48
(0.0524135 0.00260273 0.03) 7
(0.0479968 0.0243748 0.03) 97
(0.0455975 0.00459879 0.03) 16
(0.0455863 0.0219947 0.03) 86
(0.0421931 0.0195188 0.03) 76
(0.0193108 0.0258414 0.03) 92
(0.0361558 0.0204413 0.03) 75
(0.0329138 0.00348873 0.03) 14
(0.0321823 0.00858853 0.03) 34
(0.0297208 0.0203974 0.03) 74
(0.0272114 0.00385015 0.03) 14
(0.0274477 0.0216962 0.03) 84
(0.0167342 0.00114547 0.03) 2
(0.0248285 0.0231337 0.03) 83
(0.00570357 0.000171924 0.03) 0
(0.0188228 0.00204436 0.03) 2
(0.00874194 0.0259313 0.03) 91
(0.0158349 0.014944 0.03) 52
(0.0155736 0.00575776 0.03) 22
(0.0146527 0.0184105 0.03) 62
(0.0124638 0.0101863 0.03) 31
(0.011737 0.0102066 0.03) 31
(0.00981971 0.0186109 0.03) 61
(0.00415445 0.000634399 0.03) 0
(0.00808674 0.00711784 0.03) 21
(0.00633223 0.0174776 0.03) 60
(0.00505621 0.00350047 0.03) 10
(0.00493741 0.00531165 0.03) 10
(0.0038672 0.00794896 0.03) 20
(0.00315804 0.0162144 0.03) 60
(0.00226509 0.0222197 0.03) 80
(0.00208004 0.0120367 0.03) 40
(0.00130443 0.0105106 0.03) 30
(0.00118894 0.0210717 0.03) 70
(0.000877919 0.00264112 0.03) 0
)


// ************************************************************************* //
