/*--------------------------------*- C++ -*----------------------------------*\
| =========                 |                                                 |
| \\      /  F ield         | OpenFOAM: The Open Source CFD Toolbox           |
|  \\    /   O peration     | Version:  v2012                                 |
|   \\  /    A nd           | Website:  www.openfoam.com                      |
|    \\/     M anipulation  |                                                 |
\*---------------------------------------------------------------------------*/
FoamFile
{
    version     2.0;
    format      ascii;
    class       volScalarField;
    location    "0.235";
    object      epsilon.air;
}
// * * * * * * * * * * * * * * * * * * * * * * * * * * * * * * * * * * * * * //

dimensions      [0 2 -3 0 0 0 0];


internalField   nonuniform List<scalar> 
1900
(
112.724
141.424
210.098
257.591
369.051
443.457
614.741
724.902
971.333
1128.61
15.4676
16.4471
18.6376
20.4503
23.757
27.728
31.9998
39.31
44.9854
56.9768
14.7926
14.6414
14.5755
14.5063
14.515
14.5559
14.6443
14.829
15.0762
15.4173
14.77
14.6304
14.4634
14.3354
14.1726
14.059
13.9039
13.808
13.6653
13.5938
14.7766
14.6216
14.4704
14.3205
14.1747
14.029
13.8889
13.7473
13.6138
13.477
14.7777
14.6205
14.4714
14.3197
14.1753
14.0285
13.8891
13.7473
13.6132
13.4774
14.7777
14.6207
14.4731
14.3235
14.184
14.0451
13.9175
13.7915
13.6807
13.5716
14.7758
14.6503
14.5638
14.5035
14.5111
14.5499
14.6403
14.8193
15.0445
15.3955
15.2095
16.6068
18.2737
20.6835
23.5912
27.5752
32.2645
38.4064
45.5653
54.8142
105.903
146.629
198.357
265.814
350.045
456.087
585.706
743.68
931.834
1154.01
4102.36
15195.9
19567.7
22443.5
21114.8
18031.2
15096.4
12804.7
11301.6
10380.6
9874.45
9696.32
9521.92
9253.89
8849.15
8352.23
7798.43
7211.53
6644.99
6126.83
5649.78
5222.53
4837.91
4486.94
4167.67
3878.17
3615.66
3378.25
3162.65
2966.98
2788.79
2626.1
2477.2
2340.57
2215.03
2099.42
1992.84
1894.36
1803.22
1718.73
1640.28
1567.31
1499.34
1435.92
1376.64
1321.13
1269.08
1220.16
1174.12
1130.7
1089.69
1050.89
1014.13
979.251
946.119
914.596
884.581
855.951
828.632
802.502
777.519
753.562
730.62
708.566
687.425
667.053
647.521
628.656
610.581
593.078
576.328
560.058
544.515
529.353
514.907
500.739
487.296
474.024
461.508
449.049
437.41
425.696
414.9
403.873
393.9
383.498
374.329
364.483
356.102
346.726
339.122
330.118
323.287
314.544
308.498
299.892
294.66
286.057
281.665
271.303
113.004
337.672
517.762
922.664
1126.01
1151.46
1123.64
1059.68
1052.66
1091.56
1195.83
1407.8
1695.24
2026.41
2376.82
2690.5
2970.17
3202.5
3356.6
3433.68
3426.25
3387.82
3302.16
3184.49
3056.64
2925.37
2794.56
2667.83
2544.24
2426.81
2314.57
2207.46
2106.02
2010.05
1919.66
1834.53
1754.57
1679.28
1608.41
1541.68
1478.82
1419.55
1363.67
1310.91
1261.1
1213.99
1169.42
1127.17
1087.1
1049.01
1012.76
978.219
945.259
913.765
883.645
854.8
827.165
800.651
775.214
750.763
727.278
704.665
682.928
661.962
641.804
622.327
603.611
585.499
568.117
551.268
535.13
519.45
504.467
489.859
475.945
462.315
449.386
436.642
424.629
412.69
401.537
390.335
380.009
369.484
359.958
350.049
341.306
331.944
323.967
315.07
307.845
299.319
292.841
284.579
278.857
270.741
265.8
257.701
253.571
243.84
16.4229
19.8668
22.8796
29.0902
34.7971
38.7632
41.7307
43.8072
46.7281
50.7346
58.7368
70.9254
95.5149
130.126
189.382
266.907
373.48
508.652
665.279
835.383
1004.19
1162.25
1302.05
1419.07
1510.45
1574.07
1612.4
1629.54
1626.8
1615.84
1592.52
1561.87
1527.2
1489.79
1451.19
1411.4
1371.65
1331.42
1291.66
1252.58
1214.17
1176.6
1140.03
1104.54
1070.17
1036.87
1004.74
973.663
943.651
914.653
886.63
859.52
833.286
807.878
783.276
759.431
736.344
713.967
692.314
671.329
651.036
631.373
612.376
593.962
576.193
558.961
542.358
526.246
510.758
495.711
481.289
467.251
453.84
440.745
428.283
416.059
404.482
393.049
382.292
371.577
361.592
351.532
342.286
332.826
324.297
315.382
307.552
299.121
291.979
283.962
277.496
269.811
264.014
256.567
251.445
244.132
239.704
232.415
228.705
219.953
13.4531
13.4606
13.5463
13.8023
14.3332
15.0044
15.7155
16.3395
16.9249
17.3466
17.9015
18.3656
19.3045
20.4944
22.7473
26.2144
31.7309
40.7536
54.7137
75.9277
106.189
146.721
198.435
260.195
330.056
405.374
481.281
555.437
623.05
684.868
737.78
781.272
815.378
840.494
858.375
869.197
874.793
874.293
871.722
865.995
857.387
846.798
834.767
821.419
807.146
792.044
776.443
760.255
743.827
727.24
710.514
693.717
676.922
660.168
643.531
627.004
610.689
594.577
578.763
563.212
548.021
533.144
518.657
504.507
490.781
477.392
464.442
451.808
439.629
427.732
416.312
405.128
394.445
383.942
373.961
364.095
354.773
345.479
336.768
327.999
319.872
311.582
304.019
296.166
289.154
281.701
275.234
268.137
262.217
255.433
250.051
243.513
238.668
232.307
228.004
221.743
217.998
211.755
208.585
201.083
13.3297
13.1591
13.0625
13.1165
13.3045
13.7146
14.2832
14.9089
15.4475
15.8845
16.2114
16.4486
16.6192
16.7698
16.9075
17.0844
17.3359
17.7168
18.3288
19.2812
20.832
23.2051
26.7517
32.0677
39.6938
50.5329
65.0148
83.7177
106.646
133.892
164.731
198.159
233.305
268.573
303.426
336.146
366.934
394.752
419.459
440.747
458.603
473.029
484.432
492.929
498.935
502.639
504.494
504.234
503.104
500.612
496.864
492.161
486.702
480.555
473.866
466.706
459.232
451.442
443.524
435.416
427.324
419.145
411.029
402.948
395.006
387.13
379.404
371.735
364.249
356.808
349.598
342.399
335.487
328.533
321.924
315.213
308.905
302.437
296.428
290.177
284.454
278.399
272.964
267.092
261.959
256.261
251.446
245.911
241.42
236.022
231.876
226.599
222.816
217.63
214.227
209.09
206.084
200.955
198.361
192.181
13.3249
13.1544
13.0316
13.0862
13.2952
13.772
14.4963
15.4837
16.5034
17.6053
18.6005
19.5272
20.2685
20.8759
21.2939
21.5958
21.7655
21.844
21.8317
21.7893
21.6981
21.6049
21.5359
21.5613
21.667
21.9252
22.4669
23.3692
24.8423
27.0484
30.299
34.7859
40.8377
48.5169
57.9664
69.2268
82.2542
96.8353
112.762
129.63
147.094
164.649
181.979
198.666
214.528
229.214
242.768
254.908
265.818
275.435
283.869
291.143
297.376
302.657
307.044
310.629
313.516
315.703
317.353
318.364
319.024
319.008
318.774
318.214
317.176
315.802
314.133
312.187
310.034
307.636
305.104
302.334
299.519
296.411
293.406
290.029
286.874
283.277
280.007
276.234
272.888
268.97
265.594
261.564
258.207
254.099
250.809
246.653
243.479
239.301
236.281
232.096
229.264
225.08
222.466
218.285
215.916
211.738
209.639
204.607
13.4657
13.3602
13.4097
13.656
14.3034
15.6865
18.0254
21.4292
25.4024
29.7192
33.6161
37.0809
39.6309
41.5463
42.5938
43.2974
43.3561
43.232
42.9117
42.3842
41.7902
41.1697
40.5188
39.901
39.3408
38.8708
38.5015
38.2156
38.1055
38.1611
38.3398
38.7517
39.3336
40.3203
41.5646
43.325
45.5603
48.4891
52.1851
56.7797
62.4554
69.235
77.3146
86.5754
97.1591
108.843
121.617
135.22
149.472
164.154
178.972
193.768
208.221
222.256
235.614
248.289
260.11
271.111
281.187
290.385
298.653
306.075
312.587
318.345
323.271
327.48
330.935
333.734
335.861
337.482
338.477
339.109
339.074
338.812
338.244
337.082
335.968
334.115
332.548
330.159
328.204
325.372
323.117
319.924
317.465
313.993
311.415
307.735
305.119
301.299
298.715
294.815
292.322
288.387
286.033
282.102
279.936
276.045
274.125
269.544
15.9086
16.859
18.5485
21.9392
28.3996
39.4814
55.4341
74.9788
95.4724
114.313
129.237
140.157
146.609
150.056
150.66
150.262
149.297
147.644
146.172
145.125
144.543
144.73
145.336
146.743
148.9
152.269
156.14
161.179
166.888
173.89
181.642
190.713
200.509
211.647
223.526
236.661
250.655
265.735
281.648
298.232
315.5
333.102
351.228
369.305
387.515
405.304
422.77
439.636
455.927
471.571
486.53
500.768
514.234
526.939
538.829
550.001
560.294
569.85
578.44
586.155
592.825
598.582
603.291
607.063
609.866
611.704
612.669
612.58
612.05
610.816
608.867
606.35
603.479
600.035
596.532
592.34
588.466
583.721
579.561
574.408
570.019
564.549
560.019
554.322
549.757
543.927
539.425
533.542
529.19
523.328
519.203
513.422
509.581
503.92
500.409
494.9
491.793
486.465
483.892
477.925
68.0207
90.4529
126.21
184.896
271.929
384.997
511.508
635.697
744.863
832.03
892.757
932.445
953.383
963.23
964.374
963.156
960.909
957.435
956.354
957.436
960.773
966.633
974.806
986.343
1000.35
1016.76
1034.8
1055.08
1077.25
1101.29
1126.43
1152.56
1179.16
1206.27
1233.33
1260.22
1286.53
1311.96
1336.29
1359.15
1380.89
1400.97
1419.87
1437
1452.88
1466.98
1479.86
1491.2
1501.37
1510.16
1517.79
1523.98
1528.99
1532.48
1534.86
1535.72
1535.34
1534.13
1531.59
1527.66
1522.75
1516.7
1509.87
1501.83
1493.34
1483.57
1473.17
1462.15
1450.68
1438.45
1426.22
1413.26
1400.64
1387.25
1374.53
1360.99
1348.44
1334.98
1322.72
1309.44
1297.55
1284.5
1273.08
1260.35
1249.51
1237.2
1227.05
1215.2
1205.8
1194.42
1185.83
1174.93
1167.18
1156.71
1149.82
1139.76
1133.82
1124.17
1119.45
1108.93
1464.6
1897.21
2398.86
2961.91
3563.06
4171.87
4746.22
5251.18
5655.2
5950.93
6132.18
6219.09
6206.56
6159.79
6061.03
5928.01
5777.93
5619.54
5459.55
5301.8
5149.48
5004.31
4867.57
4739.55
4620.51
4510.53
4409.24
4316.43
4231.48
4154.2
4083.97
4020.57
3963.27
3911.9
3865.92
3825.3
3789.48
3758.21
3730.98
3707.46
3687.47
3670.48
3656.31
3644.18
3634.22
3625.65
3618.8
3612.91
3608.41
3604.65
3602.04
3600.06
3598.87
3598.29
3598.38
3598.74
3599.55
3600.68
3601.94
3603.12
3604.46
3605.55
3606.86
3607.75
3608.84
3609.41
3609.88
3609.84
3609.53
3608.7
3607.52
3605.12
3602.73
3598.72
3594.92
3589.31
3584.23
3577.19
3570.95
3562.62
3555.36
3545.84
3537.68
3527.06
3518.1
3506.4
3496.71
3483.93
3473.64
3459.84
3449.25
3434.55
3423.99
3408.46
3398.35
3382
3372.67
3355.51
3346.8
3324.99
1109.73
1064.93
1122.21
1209.96
1238.61
1120.9
818.258
1979.45
54694.2
16171.9
7366.21
6109.33
6233.05
6482.97
6553.4
8026.14
74299.1
43686.5
24860.5
18472.2
16100.8
14998.5
14625.2
19666.1
76426.6
71039.7
54260.9
41199.4
32685.9
27154.8
24540.9
34054.8
69741.8
75704.9
67741.8
55642
44559.4
35836.7
30858.6
42692.9
57771.7
71175.1
67941.1
59035.7
48372.1
38729.9
32780.1
45217.2
47500.3
61838.2
62492.2
56613.4
47167.3
38179.3
32454.9
44244.7
39099.5
51827.5
53593.3
49845.4
42402.1
34682.8
29599.7
39778.1
32628.8
42992.8
44926.1
42138.7
36307.9
30048.7
25829
34059.5
27602.8
35624.2
37261.2
35119.5
30547.9
25562.3
22230.7
29392.2
23483.6
29585
30826.2
29125.4
25535.2
21637.2
19163.5
26030
20102.6
24694.1
25574.8
24185.3
21341.9
18299.8
16496.9
22985.7
17365.8
20780.1
21368
20209.3
17938.3
15554.6
14263.5
20358.6
15134.8
17655.8
18021.1
17040.4
15211.2
13329.8
12424.4
18147.4
13287.3
15147.4
15353.1
14516.3
13029.4
11534
10921.2
16314.2
11728.5
13108.1
13205.1
12488.1
11270.1
10075.3
9687.19
14791
10406.6
11438.1
11462.3
10845.6
9840.53
8881.59
8667.66
13520.5
9268.72
10051.9
10032.5
9499.54
8665.88
7894.84
7817.92
12453
8286.93
8890.53
8846.71
8384.74
7690.27
7070.58
7101.56
11546.9
7443.85
7912.65
7854.5
7453.34
6872.24
6375.24
6490.27
10769.7
6716.81
7084.06
7017.97
6668.72
6180.37
5783.15
5965.39
10095.8
6089.93
6378.58
6308.36
6003.21
5591.02
5275.29
5511.51
9506.82
5547.32
5774.7
5702.94
5435.38
5086.14
4837.32
5117
8989.51
5073.43
5253.69
5182.54
4947.41
4650.8
4457.48
4772.43
8533.2
4657.32
4801.22
4732.18
4525.2
4273
4126.13
4469.94
8128.7
4290.24
4405.98
4340.03
4157.66
3943.23
3835.58
4203.22
7768.88
3965.01
4058.79
3996.59
3835.86
3653.81
3579.53
3967.01
7447.83
3676.07
3752.46
3694.31
3552.65
3398.51
3352.8
3756.91
7160.36
3418.18
3480.82
3426.86
3302.1
3172.17
3151.07
3569.24
6902.13
3187.31
3238.93
3189.16
3079.37
2970.58
2970.89
3400.94
6669.44
2979.76
3022.58
2976.95
2880.53
2790.31
2808.92
3249.65
6459.23
2792.51
2828.27
2786.66
2702.22
2628.36
2662.95
3113.02
6268.8
2622.98
2653.09
2615.36
2541.69
2482.3
2530.97
2989.16
6095.77
2468.94
2494.56
2460.56
2396.62
2350.09
2411.25
2876.52
5938.01
2328.61
2350.64
2320.21
2265.07
2230.02
2302.29
2773.76
5793.68
2200.42
2219.61
2192.59
2145.41
2120.66
2202.85
2679.77
5661.26
2083.05
2100.01
2076.23
2036.28
2020.78
2111.86
2593.56
5539.38
1975.35
1990.57
1969.86
1936.5
1929.34
2028.41
2514.35
5426.96
1876.31
1890.2
1872.4
1845.05
1845.45
1951.71
2441.43
5323.11
1785.04
1797.94
1782.91
1761.06
1768.21
1881.13
2374.21
5227.08
1700.75
1712.95
1700.55
1683.74
1697.01
1816.02
2312.16
5138.24
1622.77
1634.49
1624.57
1612.4
1631.26
1755.85
2254.81
5056.06
1550.48
1561.9
1554.33
1546.43
1570.43
1700.13
2201.75
4980.08
1483.32
1494.6
1489.25
1485.3
1514.02
1648.43
2152.58
4909.82
1420.81
1432.07
1428.82
1428.53
1461.6
1600.37
2106.95
4844.84
1362.5
1373.83
1372.59
1375.66
1412.81
1555.62
2064.54
4784.67
1308.01
1319.5
1320.14
1326.32
1367.28
1513.85
2025.03
4728.87
1256.98
1268.68
1271.13
1280.23
1324.73
1474.8
1988.19
4677.02
1209.11
1221.08
1225.24
1237.07
1284.86
1438.2
1953.72
4628.67
1164.11
1176.4
1182.19
1196.59
1247.45
1403.86
1921.44
4583.46
1121.75
1134.4
1141.75
1158.56
1212.29
1371.56
1891.13
4541
1081.81
1094.86
1103.7
1122.77
1179.19
1341.16
1862.65
4501.05
1044.08
1057.57
1067.85
1089.05
1147.98
1312.48
1835.8
4463.31
1008.4
1022.36
1034.01
1057.23
1118.53
1285.41
1810.52
4427.64
974.618
989.073
1002.05
1027.17
1090.69
1259.82
1786.64
4393.86
942.576
957.552
971.807
998.733
1064.35
1235.62
1764.11
4361.89
912.159
927.675
943.161
971.799
1039.4
1212.69
1742.82
4331.67
883.229
899.303
915.982
946.253
1015.74
1190.98
1722.72
4303.13
855.7
872.343
890.176
922.004
993.288
1170.38
1703.73
4276.26
829.439
846.665
865.62
898.942
971.945
1150.83
1685.8
4250.95
804.394
822.21
842.253
877.007
951.653
1132.26
1668.86
4227.26
780.434
798.848
819.95
856.087
932.316
1114.61
1652.85
4204.95
757.541
776.556
798.691
836.159
913.91
1097.84
1637.75
4184.17
735.577
755.197
778.339
817.094
896.319
1081.85
1623.45
4164.54
714.566
734.792
758.917
798.917
879.564
1066.66
1609.97
4146.33
694.351
715.18
740.262
781.467
863.493
1052.12
1597.17
4128.99
675.004
696.433
722.449
764.824
848.181
1038.31
1585.11
4112.96
656.336
678.355
705.276
748.779
833.426
1025.03
1573.59
4097.49
638.475
661.076
688.88
733.477
819.372
1012.42
1562.74
4083.27
621.184
644.347
672.997
718.644
805.745
1000.21
1552.3
4069.28
604.653
628.368
657.841
704.506
792.776
988.617
1542.47
4056.5
588.584
612.819
643.072
690.705
780.097
977.287
1532.9
4043.63
573.245
597.989
629.002
677.577
768.06
966.562
1523.91
4032
558.257
583.47
615.191
664.649
756.166
955.941
1515.01
4019.93
543.986
569.66
602.075
652.399
744.931
945.951
1506.72
4009.2
529.955
556.04
589.088
640.208
733.683
935.888
1498.3
3997.62
516.651
543.147
576.824
628.737
723.154
926.539
1490.61
3987.62
503.474
530.322
564.557
617.179
712.443
916.915
1482.52
3976.23
491.064
518.275
553.077
606.426
702.565
908.155
1475.37
3966.87
478.658
506.166
541.453
595.426
692.316
898.884
1467.5
3955.46
467.095
494.921
530.722
585.363
683.071
890.707
1460.9
3946.72
455.398
483.468
519.686
574.867
673.231
881.731
1453.16
3935.17
444.652
473.003
509.688
565.489
664.628
874.168
1447.17
3927.16
433.609
462.156
499.192
555.457
655.158
865.446
1439.51
3915.45
423.665
452.459
489.924
546.771
647.222
858.546
1434.22
3908.3
413.217
442.164
479.922
537.162
638.092
850.056
1426.63
3896.57
404.06
433.226
471.379
529.172
630.838
843.857
1422.1
3890.34
394.14
423.419
461.817
519.946
622.025
835.606
1414.65
3878.87
385.756
415.228
453.988
512.642
615.446
830.096
1410.85
3873.43
376.282
405.836
444.803
503.754
606.936
822.127
1403.7
3862.58
368.662
398.381
437.676
497.118
600.998
817.237
1400.42
3857.65
359.538
389.314
428.79
488.508
592.763
809.576
1393.79
3847.65
352.677
382.591
422.356
482.521
587.429
805.25
1390.89
3843.16
343.796
373.746
413.676
474.114
579.42
797.887
1384.83
3833.92
337.707
367.763
407.932
468.755
574.644
794.038
1382.24
3829.7
328.947
359.028
399.359
460.47
566.805
786.946
1376.65
3821.04
323.655
353.8
394.306
455.712
562.516
783.436
1374.22
3816.92
314.887
345.054
385.731
447.457
554.783
776.598
1369.03
3808.82
310.409
340.588
381.357
443.263
550.893
773.255
1366.62
3804.7
299.807
329.964
370.881
433.112
541.315
764.725
1359.82
3795.17
)
;

boundaryField
{
    frontAndBack
    {
        type            empty;
    }
    inlet
    {
        type            fixedValue;
        value           uniform 14.855;
    }
    outlet
    {
        type            zeroGradient;
    }
    walls
    {
        lowReCorrection 0;
        blending        stepwise;
        n               2;
        type            epsilonWallFunction;
        value           nonuniform List<scalar> 
228
(
112.724
141.424
210.098
257.591
369.051
443.457
614.741
724.902
971.333
1128.61
1109.73
1064.93
1122.21
1209.96
1238.61
1120.9
818.258
1979.45
1979.45
8026.14
19666.1
34054.8
42692.9
45217.2
44244.7
39778.1
34059.5
29392.2
26030
22985.7
20358.6
18147.4
16314.2
14791
13520.5
12453
11546.9
10769.7
10095.8
9506.82
8989.51
8533.2
8128.7
7768.88
7447.83
7160.36
6902.13
6669.44
6459.23
6268.8
6095.77
5938.01
5793.68
5661.26
5539.38
5426.96
5323.11
5227.08
5138.24
5056.06
4980.08
4909.82
4844.84
4784.67
4728.87
4677.02
4628.67
4583.46
4541
4501.05
4463.31
4427.64
4393.86
4361.89
4331.67
4303.13
4276.26
4250.95
4227.26
4204.95
4184.17
4164.54
4146.33
4128.99
4112.96
4097.49
4083.27
4069.28
4056.5
4043.63
4032
4019.93
4009.2
3997.62
3987.62
3976.23
3966.87
3955.46
3946.72
3935.17
3927.16
3915.45
3908.3
3896.57
3890.34
3878.87
3873.43
3862.58
3857.65
3847.65
3843.16
3833.92
3829.7
3821.04
3816.92
3808.82
3804.7
3795.17
105.903
146.629
198.357
265.814
350.045
456.087
585.706
743.68
931.834
1154.01
1464.6
1897.21
2398.86
2961.91
3563.06
4171.87
4746.22
5251.18
5655.2
5950.93
6132.18
6219.09
6206.56
6159.79
6061.03
5928.01
5777.93
5619.54
5459.55
5301.8
5149.48
5004.31
4867.57
4739.55
4620.51
4510.53
4409.24
4316.43
4231.48
4154.2
4083.97
4020.57
3963.27
3911.9
3865.92
3825.3
3789.48
3758.21
3730.98
3707.46
3687.47
3670.48
3656.31
3644.18
3634.22
3625.65
3618.8
3612.91
3608.41
3604.65
3602.04
3600.06
3598.87
3598.29
3598.38
3598.74
3599.55
3600.68
3601.94
3603.12
3604.46
3605.55
3606.86
3607.75
3608.84
3609.41
3609.88
3609.84
3609.53
3608.7
3607.52
3605.12
3602.73
3598.72
3594.92
3589.31
3584.23
3577.19
3570.95
3562.62
3555.36
3545.84
3537.68
3527.06
3518.1
3506.4
3496.71
3483.93
3473.64
3459.84
3449.25
3434.55
3423.99
3408.46
3398.35
3382
3372.67
3355.51
3346.8
3324.99
)
;
    }
}


// ************************************************************************* //
