/*--------------------------------*- C++ -*----------------------------------*\
| =========                 |                                                 |
| \\      /  F ield         | OpenFOAM: The Open Source CFD Toolbox           |
|  \\    /   O peration     | Version:  v2012                                 |
|   \\  /    A nd           | Website:  www.openfoam.com                      |
|    \\/     M anipulation  |                                                 |
\*---------------------------------------------------------------------------*/
FoamFile
{
    version     2.0;
    format      ascii;
    class       volScalarField;
    location    "0.304";
    object      epsilon.air;
}
// * * * * * * * * * * * * * * * * * * * * * * * * * * * * * * * * * * * * * //

dimensions      [0 2 -3 0 0 0 0];


internalField   nonuniform List<scalar> 
1900
(
112.724
141.424
210.097
257.591
369.051
443.457
614.741
724.902
971.329
1128.6
15.4676
16.4471
18.6372
20.4506
23.7568
27.728
32.0002
39.3098
44.9865
56.9802
14.7926
14.6415
14.5755
14.5063
14.515
14.5558
14.6443
14.8291
15.0762
15.4174
14.77
14.6304
14.4634
14.3354
14.1726
14.0589
13.904
13.8079
13.6654
13.5937
14.7766
14.6216
14.4704
14.3204
14.1748
14.0288
13.889
13.7471
13.614
13.4768
14.7777
14.6205
14.4714
14.3196
14.1754
14.0283
13.8892
13.7471
13.6134
13.4773
14.7776
14.6207
14.473
14.3235
14.1841
14.0449
13.9176
13.7913
13.6808
13.5715
14.7759
14.6499
14.5639
14.5033
14.5109
14.55
14.6398
14.8178
15.0462
15.3939
15.2098
16.6018
18.2784
20.6743
23.6002
27.562
32.2768
38.3889
45.5806
54.7924
105.876
146.609
198.353
265.764
350.051
456.024
585.713
743.619
931.833
1153.96
4099.6
15203.7
19579.6
22428.4
21089.8
17991.9
15065.7
12778.5
11295.2
10384.5
9888.34
9714.71
9537.67
9264.54
8854.16
8353.71
7797.82
7210.16
6643.75
6125.94
5649.3
5222.49
4837.94
4487.03
4167.75
3878.25
3615.56
3377.96
3162.18
2966.29
2787.97
2625.23
2476.39
2339.89
2214.56
2099.21
1992.92
1894.7
1803.81
1719.49
1641.13
1568.16
1500.11
1436.53
1377.05
1321.32
1269.04
1219.94
1173.74
1130.22
1089.17
1050.37
1013.66
978.856
945.82
914.398
884.482
855.938
828.694
802.624
777.69
753.769
730.854
708.818
687.686
667.312
647.763
628.87
610.744
593.181
576.353
560.001
544.373
529.138
514.635
500.433
486.986
473.733
461.273
448.879
437.334
425.706
415.007
404.053
394.143
383.777
374.619
364.762
356.339
346.917
339.236
330.172
323.254
314.458
308.343
299.704
294.437
285.826
281.441
271.117
112.976
337.947
517.984
922.113
1123.67
1147.37
1119.57
1055.31
1050.97
1090.87
1196.86
1411.81
1700.31
2032.13
2381.44
2693.8
2973.12
3205.32
3359.34
3435.59
3427.78
3388.77
3302.03
3183.87
3055.55
2924.25
2793.22
2666.7
2543.34
2426.04
2314.07
2207.16
2105.87
2010
1919.67
1834.59
1754.7
1679.46
1608.69
1542.05
1479.28
1420.06
1364.18
1311.4
1261.5
1214.28
1169.55
1127.16
1086.93
1048.72
1012.39
977.809
944.854
913.401
883.352
854.591
827.047
800.614
775.247
750.848
727.402
704.812
683.09
662.131
641.974
622.496
603.772
585.649
568.243
551.363
535.178
519.445
504.401
489.735
475.769
462.1
449.156
436.413
424.43
412.535
401.45
390.316
380.066
369.605
360.136
350.263
341.535
332.169
324.162
315.231
307.946
299.37
292.824
284.517
278.74
270.596
265.628
257.523
253.398
243.697
16.4231
19.8723
22.8865
29.0957
34.7763
38.6978
41.656
43.7049
46.6535
50.6886
58.744
71.0289
95.8137
130.58
190.077
267.762
374.538
510.325
667.46
838.187
1006.96
1164.91
1303.62
1419.35
1509.19
1572.02
1609.47
1627.02
1624.52
1614.04
1591.68
1561.66
1527.5
1490.41
1451.88
1412.14
1372.23
1331.82
1291.96
1252.77
1214.3
1176.73
1140.19
1104.73
1070.39
1037.09
1004.9
973.755
943.64
914.539
886.42
859.239
832.974
807.573
783.015
759.236
736.233
713.936
692.354
671.422
651.163
631.516
612.519
594.097
576.314
559.068
542.453
526.332
510.831
495.769
481.322
467.253
453.803
440.665
428.162
415.902
404.303
392.862
382.119
371.431
361.494
351.487
342.305
332.903
324.425
315.549
307.74
299.316
292.156
284.117
277.604
269.88
264.026
256.538
251.367
244.026
239.571
232.27
228.562
219.828
13.4532
13.4607
13.5466
13.8034
14.336
15.0081
15.721
16.3396
16.9246
17.3365
17.8925
18.3572
19.3158
20.4861
22.7628
26.2674
31.7493
40.9071
54.8779
76.3761
106.744
147.558
199.298
260.872
330.18
404.754
479.764
553.21
620.388
682.124
735.546
779.781
814.741
840.711
859.065
870.333
875.811
875.237
872.505
866.449
857.628
846.868
834.763
821.398
807.139
792.071
776.48
760.283
743.818
727.167
710.365
693.497
676.657
659.894
643.282
626.81
610.58
594.553
578.822
563.337
548.187
533.333
518.845
504.679
490.928
477.513
464.54
451.888
439.693
427.78
416.339
405.131
394.417
383.877
373.859
363.957
354.61
345.299
336.59
327.834
319.741
311.493
303.984
296.187
289.227
281.82
275.382
268.308
262.385
255.595
250.184
243.618
238.729
232.331
227.985
221.69
217.917
211.649
208.473
200.969
13.33
13.1588
13.0627
13.1171
13.3063
13.7183
14.2898
14.911
15.4499
15.8726
16.2071
16.4268
16.616
16.7553
16.9087
17.0904
17.337
17.742
18.3284
19.3249
20.8417
23.2771
26.8016
32.1765
39.7544
50.5593
64.8756
83.3602
105.984
132.871
163.474
196.779
232.035
267.601
302.898
336.09
367.333
395.404
420.312
441.57
459.368
473.62
484.871
493.225
499.103
502.738
504.498
504.208
503.027
500.456
496.629
491.853
486.348
480.163
473.495
466.387
458.998
451.3
443.488
435.474
427.454
419.343
411.253
403.182
395.242
387.354
379.617
371.93
364.424
356.958
349.718
342.483
335.528
328.52
321.863
315.099
308.747
302.24
296.211
289.953
284.244
278.217
272.826
267.007
261.927
256.288
251.517
246.028
241.559
236.181
232.031
226.748
222.944
217.73
214.297
209.123
206.089
200.921
198.311
192.1
13.3252
13.1542
13.0317
13.0866
13.2966
13.7735
14.5027
15.4875
16.5024
17.5992
18.5857
19.5107
20.2522
20.8681
21.2961
21.6035
21.7831
21.8588
21.8444
21.7984
21.6978
21.6012
21.5303
21.5565
21.6638
21.9229
22.4544
23.3656
24.8206
26.9676
30.1847
34.5443
40.56
48.12
57.5919
68.8402
82.0191
96.7249
112.886
129.946
147.617
165.338
182.753
199.515
215.327
229.98
243.379
255.401
266.11
275.562
283.794
290.888
296.974
302.121
306.443
310.009
312.932
315.172
316.928
318.042
318.82
318.947
318.779
318.322
317.39
316.084
314.475
312.555
310.426
308.024
305.476
302.667
299.789
296.605
293.529
290.051
286.806
283.122
279.783
275.959
272.583
268.661
265.297
261.306
257.992
253.95
250.718
246.633
243.514
239.392
236.413
232.257
229.447
225.261
222.651
218.441
216.058
211.834
209.711
204.617
13.4658
13.3601
13.4097
13.656
14.3048
15.6868
18.0376
21.4358
25.3997
29.7074
33.5771
37.0485
39.5947
41.5511
42.6012
43.3362
43.3914
43.2644
42.9275
42.3916
41.7718
41.1469
40.4916
39.8788
39.3312
38.8785
38.5271
38.2546
38.1405
38.1888
38.357
38.698
39.3601
40.2212
41.5233
43.2091
45.4755
48.4113
52.1177
56.8072
62.4988
69.446
77.5651
87.0341
97.6676
109.532
122.308
135.979
150.137
164.734
179.367
193.965
208.194
222
235.167
247.658
259.389
270.297
280.385
289.584
297.938
305.445
312.095
317.981
323.089
327.452
331.099
334.057
336.326
338.043
339.148
339.792
339.753
339.465
338.827
337.496
336.234
334.214
332.486
329.957
327.874
324.957
322.638
319.432
316.979
313.556
311.04
307.447
304.922
301.196
298.71
294.886
292.481
288.59
286.3
282.377
280.237
276.324
274.385
269.736
15.9108
16.857
18.5488
21.9251
28.4183
39.4971
55.4798
75.004
95.442
114.258
129.092
140.059
146.538
150.084
150.745
150.359
149.394
147.773
146.201
145.098
144.487
144.651
145.259
146.626
148.958
152.215
156.36
161.183
167.184
173.835
181.84
190.544
200.543
211.37
223.365
236.385
250.426
265.602
281.483
298.316
315.516
333.354
351.324
369.549
387.527
405.387
422.603
439.52
455.648
471.39
486.332
500.717
514.276
527.078
539.087
550.222
560.551
569.919
578.42
585.835
592.33
597.806
602.389
606.023
608.892
610.774
612.064
612.26
611.953
611.137
609.521
607.295
604.603
601.26
597.766
593.429
589.366
584.376
579.932
574.509
569.845
564.167
559.455
553.659
549.031
543.205
538.739
532.923
528.669
522.896
518.902
513.212
509.516
503.942
500.572
495.146
492.139
486.89
484.341
478.391
68.0451
90.4118
126.226
184.859
272.042
385.156
511.698
635.773
744.614
831.757
892.217
932.239
953.114
963.534
964.746
963.601
961.283
957.865
956.378
957.298
960.465
966.234
974.533
986.065
1000.38
1016.85
1035.23
1055.42
1077.82
1101.44
1126.65
1152.35
1179
1205.71
1232.8
1259.59
1286.03
1311.68
1336.08
1359.34
1381.09
1401.54
1420.34
1437.74
1453.4
1467.65
1480.2
1491.59
1501.46
1510.29
1517.76
1524.01
1528.98
1532.46
1534.94
1535.71
1535.37
1534.09
1531.49
1527.15
1522.14
1515.66
1508.67
1500.39
1491.83
1482.21
1472.1
1461.43
1450.35
1438.66
1426.88
1414.36
1402.06
1388.85
1376.21
1362.57
1349.79
1336.04
1323.43
1309.84
1297.63
1284.33
1272.68
1259.81
1248.85
1236.47
1226.29
1214.4
1205.02
1193.62
1185.1
1174.22
1166.61
1156.24
1149.55
1139.69
1133.96
1124.57
1119.97
1109.67
1464.61
1897.16
2398.88
2961.87
3563.2
4171.84
4746.32
5251.01
5654.91
5950.82
6132.13
6219.47
6207.06
6160.41
6061.77
5928.47
5777.99
5619.3
5458.95
5301.3
5149
5004.17
4867.68
4740.01
4621.1
4511.1
4409.64
4316.45
4231.2
4153.46
4083.12
4019.53
3962.56
3911.36
3865.93
3825.6
3790.23
3759.15
3731.96
3708.3
3687.9
3670.56
3655.9
3643.62
3633.43
3625.11
3618.33
3613.01
3608.71
3605.44
3602.95
3601.03
3599.73
3598.72
3598.19
3598.21
3598.49
3599.08
3600.32
3601.42
3603.12
3604.56
3606.33
3607.72
3609.11
3610.05
3610.55
3610.48
3610.1
3609.1
3607.87
3605.45
3603.19
3599.4
3595.9
3590.55
3585.64
3578.7
3572.38
3563.86
3556.2
3546.21
3537.44
3526.24
3516.73
3504.61
3494.69
3481.84
3471.73
3458.2
3448.08
3433.84
3423.86
3408.78
3399.12
3383.02
3373.88
3356.7
3347.92
3325.83
1108.7
1064.24
1122.16
1210.23
1239.08
1121.59
818.816
1980.41
54599.6
16103.5
7348
6105.82
6236.29
6487.96
6558.89
8032.15
74262.5
43610.1
24825.7
18465.8
16106.3
15008.5
14637
19680.4
76417.9
71037.8
54267.4
41212
32701
27169.7
24556.8
34081.1
69721.5
75715.6
67764.1
55664.3
44575.7
35846.7
30865.7
42709.4
57732.3
71177.1
67949.9
59044.8
48377
38731.6
32779.9
45222.9
47467.1
61823.4
62483
56605.2
47157
38167.4
32442
44227.4
39071.9
51806.9
53568.7
49818.1
42375.9
34659.6
29576.5
39735.2
32623.3
42981.4
44907
42117
36286.8
30030.5
25811.3
34022.5
27610.9
35621.9
37250.5
35106.2
30534.9
25551.8
22220.6
29367.9
23495.8
29588.1
30823.3
29120.7
25531.1
21634.8
19161.3
26016.7
20115.9
24701.2
25578.6
24188.5
21345.9
18305
16502.6
22986.6
17377.1
20788.7
21375.8
20217.6
17947.5
15564.9
14275
20372.6
15142.8
17663.7
18030.1
17050.6
15222.4
13342
12438.6
18171
13291.6
15153.2
15360.9
14525.5
13039.6
11545.3
10935.1
16342.6
11730.1
13111.3
13210.3
12494.6
11277.5
10083.6
9698.22
14818.5
10406.2
11439.1
11464.7
10848.9
9844.32
8886.08
8674.49
13542.3
9267.24
10051.2
10032.5
9500
8666.47
7895.7
7820.3
12466.6
8285.2
8889.03
8845.38
8383.29
7688.56
7068.7
7100.15
11551.6
7442.46
7911.1
7852.71
7451.03
6869.36
6371.75
6486.27
10766.5
6715.93
7082.89
7016.35
6666.39
6177.27
5779.13
5960.08
10086.8
6089.69
6378.05
6307.32
6001.42
5588.39
5271.6
5506.07
9494.47
5547.48
5774.7
5702.5
5434.28
5084.26
4834.41
5112.23
8976.34
5073.9
5254.09
5182.6
4946.95
4649.72
4455.53
4768.8
8521.36
4657.87
4801.77
4732.49
4525.16
4272.53
4125.05
4467.57
8119.45
4290.74
4406.47
4340.37
4157.79
3943.14
3835.17
4201.99
7762.75
3965.23
4058.99
3996.7
3835.9
3653.82
3579.49
3966.62
7444.72
3675.92
3752.25
3694.06
3552.44
3398.43
3352.88
3757.04
7159.76
3417.63
3480.15
3426.21
3301.56
3171.87
3151.08
3569.58
6903.22
3186.39
3237.88
3188.15
3078.55
2970.04
2970.72
3401.25
6671.31
2978.61
3021.31
2975.74
2879.53
2789.61
2808.56
3249.77
6461.03
2791.29
2826.96
2785.44
2701.21
2627.62
2662.5
3112.93
6269.97
2621.86
2651.93
2614.31
2540.85
2481.67
2530.55
2988.94
6096.08
2468.06
2493.71
2459.84
2396.09
2349.72
2410.99
2876.31
5937.53
2328.08
2350.22
2319.94
2264.95
2230.01
2302.32
2773.72
5792.78
2200.28
2219.64
2192.78
2145.73
2121.05
2203.24
2680.04
5660.41
2083.32
2100.48
2076.86
2037.01
2021.56
2112.64
2594.27
5539.15
1975.97
1991.4
1970.84
1937.55
1930.42
2029.52
2515.51
5427.79
1877.2
1891.28
1873.6
1846.29
1846.72
1953.06
2442.99
5325.27
1786.07
1799.13
1784.18
1762.35
1769.54
1882.59
2376.06
5230.61
1701.83
1714.12
1701.74
1684.94
1698.26
1817.45
2314.13
5142.91
1623.76
1635.51
1625.58
1613.4
1632.31
1757.1
2256.72
5061.46
1551.29
1562.69
1555.06
1547.13
1571.17
1701.07
2203.39
4985.62
1483.89
1495.09
1489.66
1485.66
1514.4
1648.99
2153.78
4914.87
1421.11
1432.24
1428.89
1428.53
1461.6
1600.5
2107.58
4848.75
1362.52
1373.72
1372.35
1375.33
1412.45
1555.31
2064.52
4786.96
1307.79
1319.13
1319.65
1325.73
1366.61
1513.13
2024.36
4729.2
1256.57
1268.13
1270.45
1279.44
1323.82
1473.75
1986.9
4675.28
1208.56
1220.41
1224.45
1236.16
1283.8
1436.91
1951.94
4624.99
1163.5
1175.68
1181.37
1195.65
1246.33
1402.42
1919.3
4578.14
1121.13
1133.7
1140.96
1157.65
1211.18
1370.09
1888.8
4534.56
1081.22
1094.22
1103
1121.96
1178.18
1339.76
1860.3
4494.06
1043.58
1057.04
1067.26
1088.38
1147.12
1311.25
1833.63
4456.45
1008
1021.95
1033.57
1056.72
1117.87
1284.42
1808.66
4421.47
974.331
988.793
1001.76
1026.85
1090.26
1259.13
1785.24
4388.95
942.402
957.401
971.672
998.594
1064.16
1235.25
1763.25
4358.57
912.095
927.649
943.176
971.846
1039.45
1212.68
1742.56
4330.19
883.261
899.387
916.131
946.471
1016.03
1191.3
1723.05
4303.48
855.818
872.529
890.449
922.38
993.788
1171.02
1704.62
4278.36
829.629
846.936
865.996
899.451
972.625
1151.75
1687.17
4254.52
804.644
822.553
842.716
877.625
952.48
1133.4
1670.63
4231.94
780.731
799.246
820.477
856.781
933.245
1115.91
1654.91
4210.38
757.872
776.992
799.256
836.892
914.885
1099.21
1639.94
4189.89
735.929
755.65
778.914
817.83
897.293
1083.23
1625.68
4170.24
714.921
735.236
759.465
799.603
880.465
1067.94
1612.05
4151.54
694.693
715.593
740.755
782.071
864.281
1053.25
1599.04
4133.56
675.307
696.782
722.846
765.291
848.782
1039.19
1586.59
4116.5
656.585
678.62
705.555
749.089
833.82
1025.63
1574.66
4100.01
638.641
661.226
689.005
733.587
819.503
1012.66
1563.28
4084.49
621.257
644.374
672.966
718.556
805.62
1000.1
1552.32
4069.34
604.616
628.256
657.64
704.206
792.379
988.142
1541.94
4055.3
588.442
612.582
642.721
690.223
779.466
976.484
1531.85
4041.34
572.999
597.633
628.515
676.932
767.221
965.469
1522.42
4028.72
557.93
583.027
614.608
663.892
755.18
954.624
1513.12
4015.81
543.602
569.162
601.438
651.583
743.866
944.508
1504.61
4004.6
529.546
555.527
588.444
639.386
732.598
934.379
1496
3992.54
516.256
542.665
576.23
627.984
722.149
925.11
1488.38
3982.7
503.119
529.901
564.044
616.524
711.548
915.587
1480.34
3971.33
490.791
517.962
552.706
605.951
701.895
907.109
1473.56
3962.78
478.477
505.969
541.223
595.12
691.848
898.074
1465.96
3951.93
467.035
494.874
530.68
585.296
682.913
890.315
1459.96
3944.5
455.445
483.551
519.799
574.991
673.313
881.652
1452.66
3933.97
444.817
473.228
509.978
565.843
665.02
874.53
1447.35
3927.44
433.86
462.481
499.606
555.97
655.772
866.136
1440.22
3917
423.99
452.873
490.45
547.437
648.057
859.579
1435.5
3911.13
413.581
442.624
480.51
537.922
639.083
851.365
1428.43
3900.54
404.432
433.696
471.984
529.965
631.9
845.315
1424.21
3895.08
394.497
423.874
462.412
520.748
623.141
837.216
1417.12
3884.25
386.059
415.616
454.503
513.353
616.468
831.636
1413.32
3878.85
376.529
406.159
445.246
504.389
607.889
823.623
1406.19
3867.87
368.81
398.582
437.966
497.563
601.722
818.488
1402.71
3862.47
359.613
389.425
428.97
488.818
593.314
810.585
1395.65
3851.36
352.641
382.56
422.351
482.586
587.663
805.872
1392.37
3846
343.691
373.629
413.556
474.021
579.423
798.133
1385.55
3835
337.51
367.522
407.644
468.428
574.323
793.852
1382.5
3829.75
328.703
358.722
398.973
459.992
566.239
786.333
1376.03
3819.29
323.362
353.423
393.818
455.083
561.721
782.484
1373.17
3814.04
314.576
344.644
385.18
446.712
553.775
775.243
1367.15
3804.59
310.104
340.179
380.799
442.492
549.822
771.759
1364.46
3800
299.544
329.6
370.363
432.36
540.202
763.045
1357.21
3789.85
)
;

boundaryField
{
    frontAndBack
    {
        type            empty;
    }
    inlet
    {
        type            fixedValue;
        value           uniform 14.855;
    }
    outlet
    {
        type            zeroGradient;
    }
    walls
    {
        lowReCorrection 0;
        blending        stepwise;
        n               2;
        type            epsilonWallFunction;
        value           nonuniform List<scalar> 
228
(
112.724
141.424
210.097
257.591
369.051
443.457
614.741
724.902
971.329
1128.6
1108.7
1064.24
1122.16
1210.23
1239.08
1121.59
818.816
1980.41
1980.41
8032.15
19680.4
34081.1
42709.4
45222.9
44227.4
39735.2
34022.5
29367.9
26016.7
22986.6
20372.6
18171
16342.6
14818.5
13542.3
12466.6
11551.6
10766.5
10086.8
9494.47
8976.34
8521.36
8119.45
7762.75
7444.72
7159.76
6903.22
6671.31
6461.03
6269.97
6096.08
5937.53
5792.78
5660.41
5539.15
5427.79
5325.27
5230.61
5142.91
5061.46
4985.62
4914.87
4848.75
4786.96
4729.2
4675.28
4624.99
4578.14
4534.56
4494.06
4456.45
4421.47
4388.95
4358.57
4330.19
4303.48
4278.36
4254.52
4231.94
4210.38
4189.89
4170.24
4151.54
4133.56
4116.5
4100.01
4084.49
4069.34
4055.3
4041.34
4028.72
4015.81
4004.6
3992.54
3982.7
3971.33
3962.78
3951.93
3944.5
3933.97
3927.44
3917
3911.13
3900.54
3895.08
3884.25
3878.85
3867.87
3862.47
3851.36
3846
3835
3829.75
3819.29
3814.04
3804.59
3800
3789.85
105.876
146.609
198.353
265.764
350.051
456.024
585.713
743.619
931.833
1153.96
1464.61
1897.16
2398.88
2961.87
3563.2
4171.84
4746.32
5251.01
5654.91
5950.82
6132.13
6219.47
6207.06
6160.41
6061.77
5928.47
5777.99
5619.3
5458.95
5301.3
5149
5004.17
4867.68
4740.01
4621.1
4511.1
4409.64
4316.45
4231.2
4153.46
4083.12
4019.53
3962.56
3911.36
3865.93
3825.6
3790.23
3759.15
3731.96
3708.3
3687.9
3670.56
3655.9
3643.62
3633.43
3625.11
3618.33
3613.01
3608.71
3605.44
3602.95
3601.03
3599.73
3598.72
3598.19
3598.21
3598.49
3599.08
3600.32
3601.42
3603.12
3604.56
3606.33
3607.72
3609.11
3610.05
3610.55
3610.48
3610.1
3609.1
3607.87
3605.45
3603.19
3599.4
3595.9
3590.55
3585.64
3578.7
3572.38
3563.86
3556.2
3546.21
3537.44
3526.24
3516.73
3504.61
3494.69
3481.84
3471.73
3458.2
3448.08
3433.84
3423.86
3408.78
3399.12
3383.02
3373.88
3356.7
3347.92
3325.83
)
;
    }
}


// ************************************************************************* //
