/*--------------------------------*- C++ -*----------------------------------*\
| =========                 |                                                 |
| \\      /  F ield         | OpenFOAM: The Open Source CFD Toolbox           |
|  \\    /   O peration     | Version:  v2012                                 |
|   \\  /    A nd           | Website:  www.openfoam.com                      |
|    \\/     M anipulation  |                                                 |
\*---------------------------------------------------------------------------*/
FoamFile
{
    version     2.0;
    format      ascii;
    class       volVectorField;
    location    "0.304";
    object      U.air;
}
// * * * * * * * * * * * * * * * * * * * * * * * * * * * * * * * * * * * * * //

dimensions      [0 1 -1 0 0 0 0];


internalField   nonuniform List<vector> 
1900
(
(39.9676 0.00859688 0)
(39.9239 0.015103 0)
(39.8679 0.0180588 0)
(39.8035 0.0207993 0)
(39.73 0.0237062 0)
(39.6526 0.0267683 0)
(39.5681 0.0297565 0)
(39.4712 0.034433 0)
(39.3801 0.0347839 0)
(39.2118 0.0735029 0)
(40.0053 0.0147927 0)
(40.0212 0.0233975 0)
(40.0401 0.0257182 0)
(40.0561 0.0277458 0)
(40.0726 0.0304775 0)
(40.0898 0.0329399 0)
(40.1095 0.0364838 0)
(40.1257 0.0385578 0)
(40.1466 0.0533817 0)
(40.1568 0.0585715 0)
(40.0029 0.00824746 0)
(40.0161 0.0135856 0)
(40.0335 0.0137912 0)
(40.051 0.0145443 0)
(40.0688 0.0163129 0)
(40.0879 0.0182043 0)
(40.1087 0.0208556 0)
(40.1299 0.0248049 0)
(40.1543 0.0350812 0)
(40.1844 0.0529454 0)
(40.0018 0.00414496 0)
(40.0132 0.00782145 0)
(40.0301 0.00860527 0)
(40.0479 0.00970547 0)
(40.066 0.0114323 0)
(40.0852 0.0132518 0)
(40.1064 0.0158683 0)
(40.1291 0.0197454 0)
(40.1561 0.0288801 0)
(40.1894 0.0416246 0)
(40.0015 0.001112 0)
(40.012 0.00211927 0)
(40.0285 0.00232728 0)
(40.0464 0.0026624 0)
(40.0645 0.00325309 0)
(40.084 0.00405071 0)
(40.1056 0.00562475 0)
(40.1294 0.00842124 0)
(40.1575 0.0146682 0)
(40.1918 0.0210543 0)
(40.0016 -0.00180292 0)
(40.0122 -0.00371605 0)
(40.0288 -0.00416326 0)
(40.0468 -0.00431399 0)
(40.065 -0.0043608 0)
(40.0846 -0.00401593 0)
(40.1066 -0.00289513 0)
(40.1311 -0.000789742 0)
(40.1597 0.00317609 0)
(40.1936 0.0064082 0)
(40.0019 -0.00486279 0)
(40.0136 -0.00947527 0)
(40.0308 -0.0105123 0)
(40.0489 -0.0114613 0)
(40.0672 -0.0126727 0)
(40.0871 -0.0134371 0)
(40.1094 -0.0134428 0)
(40.1344 -0.0127054 0)
(40.163 -0.0110203 0)
(40.1957 -0.0104531 0)
(40.0032 -0.00926928 0)
(40.0168 -0.0153327 0)
(40.0348 -0.0157394 0)
(40.0527 -0.016477 0)
(40.0709 -0.01804 0)
(40.0911 -0.0194037 0)
(40.1136 -0.0202816 0)
(40.1388 -0.020797 0)
(40.1672 -0.0210301 0)
(40.1987 -0.0225689 0)
(40.0057 -0.0162088 0)
(40.0223 -0.0253699 0)
(40.042 -0.0274341 0)
(40.0582 -0.0288787 0)
(40.0751 -0.0308085 0)
(40.0938 -0.0324197 0)
(40.1145 -0.0335734 0)
(40.1374 -0.0344434 0)
(40.1628 -0.0352272 0)
(40.1893 -0.0366674 0)
(39.9675 -0.0101412 0)
(39.9214 -0.0185951 0)
(39.8645 -0.0229106 0)
(39.797 -0.0265887 0)
(39.7223 -0.0303253 0)
(39.6428 -0.0339089 0)
(39.5582 -0.0373399 0)
(39.4686 -0.0407417 0)
(39.3739 -0.044104 0)
(39.2741 -0.0480425 0)
(39.1724 -0.039283 0)
(38.0177 -0.354716 0)
(36.4706 -0.795028 0)
(34.9649 -1.35456 0)
(33.8571 -1.88881 0)
(33.1084 -2.33221 0)
(32.5392 -2.60363 0)
(32.0829 -2.66925 0)
(31.6444 -2.56939 0)
(31.2125 -2.3491 0)
(30.7875 -2.07046 0)
(30.3644 -1.77954 0)
(29.9525 -1.50836 0)
(29.5485 -1.27195 0)
(29.1572 -1.07619 0)
(28.7782 -0.916783 0)
(28.4117 -0.788283 0)
(28.064 -0.687301 0)
(27.7406 -0.609036 0)
(27.4425 -0.546863 0)
(27.1688 -0.495596 0)
(26.9184 -0.452482 0)
(26.6948 -0.416861 0)
(26.4946 -0.386887 0)
(26.3183 -0.360539 0)
(26.16 -0.336045 0)
(26.025 -0.314221 0)
(25.9099 -0.295516 0)
(25.8114 -0.279235 0)
(25.7267 -0.264403 0)
(25.654 -0.250744 0)
(25.5905 -0.238219 0)
(25.5362 -0.226992 0)
(25.4877 -0.216695 0)
(25.445 -0.20728 0)
(25.4078 -0.198537 0)
(25.3758 -0.19026 0)
(25.3482 -0.182473 0)
(25.3252 -0.175381 0)
(25.306 -0.168926 0)
(25.2906 -0.163029 0)
(25.2787 -0.15757 0)
(25.2698 -0.152363 0)
(25.2631 -0.147258 0)
(25.2584 -0.142437 0)
(25.2556 -0.138047 0)
(25.2545 -0.134047 0)
(25.2551 -0.130124 0)
(25.2571 -0.126275 0)
(25.2605 -0.122579 0)
(25.2652 -0.11915 0)
(25.2711 -0.116002 0)
(25.2782 -0.113065 0)
(25.2864 -0.110242 0)
(25.2957 -0.107486 0)
(25.3058 -0.104804 0)
(25.3168 -0.102256 0)
(25.3284 -0.0998742 0)
(25.3407 -0.0976562 0)
(25.3536 -0.0955442 0)
(25.367 -0.0934846 0)
(25.381 -0.0914543 0)
(25.3953 -0.0895108 0)
(25.41 -0.0876781 0)
(25.4251 -0.0859651 0)
(25.4405 -0.0843288 0)
(25.4562 -0.082749 0)
(25.4721 -0.0812047 0)
(25.4882 -0.0797123 0)
(25.5045 -0.0782691 0)
(25.521 -0.0768931 0)
(25.5375 -0.075572 0)
(25.5541 -0.0743025 0)
(25.5708 -0.0730606 0)
(25.5875 -0.0718491 0)
(25.6042 -0.0706586 0)
(25.6208 -0.0695086 0)
(25.6375 -0.068383 0)
(25.6539 -0.0672958 0)
(25.6704 -0.0662157 0)
(25.6866 -0.0651617 0)
(25.7028 -0.0641082 0)
(25.7186 -0.0630862 0)
(25.7345 -0.0620651 0)
(25.75 -0.0610733 0)
(25.7655 -0.0600785 0)
(25.7805 -0.0591117 0)
(25.7956 -0.0581453 0)
(25.8103 -0.0572137 0)
(25.8249 -0.0562907 0)
(25.8391 -0.0554159 0)
(25.8533 -0.0545559 0)
(25.867 -0.0537849 0)
(25.8809 -0.0530297 0)
(25.8941 -0.0525311 0)
(25.9078 -0.051979 0)
(25.9204 -0.0522648 0)
(25.9349 -0.0520665 0)
(25.9452 -0.0543086 0)
(25.9652 -0.054422 0)
(40.259 0.20537 0)
(40.4989 0.295871 0)
(40.6487 -0.0460549 0)
(40.4722 -0.668259 0)
(39.9271 -1.3308 0)
(39.098 -1.8941 0)
(38.1063 -2.25375 0)
(37.0581 -2.38382 0)
(36.0569 -2.32241 0)
(35.152 -2.13259 0)
(34.3676 -1.88006 0)
(33.6992 -1.61276 0)
(33.1356 -1.36058 0)
(32.6561 -1.13974 0)
(32.2418 -0.955614 0)
(31.8708 -0.804104 0)
(31.5239 -0.680598 0)
(31.1899 -0.58294 0)
(30.8653 -0.507553 0)
(30.5464 -0.447977 0)
(30.2286 -0.398682 0)
(29.9182 -0.359028 0)
(29.6225 -0.329331 0)
(29.3424 -0.306583 0)
(29.078 -0.287122 0)
(28.8291 -0.269998 0)
(28.5978 -0.256209 0)
(28.387 -0.245442 0)
(28.1949 -0.236137 0)
(28.0211 -0.227259 0)
(27.8622 -0.218643 0)
(27.7177 -0.210486 0)
(27.5862 -0.20278 0)
(27.4677 -0.195407 0)
(27.3608 -0.188372 0)
(27.264 -0.181665 0)
(27.1764 -0.175193 0)
(27.0971 -0.169033 0)
(27.0259 -0.163384 0)
(26.9616 -0.158247 0)
(26.9039 -0.153506 0)
(26.8513 -0.149013 0)
(26.803 -0.144678 0)
(26.7589 -0.140447 0)
(26.7188 -0.136441 0)
(26.6824 -0.132799 0)
(26.6496 -0.12947 0)
(26.6201 -0.126268 0)
(26.5935 -0.12308 0)
(26.5698 -0.119983 0)
(26.5488 -0.117119 0)
(26.5302 -0.114504 0)
(26.5138 -0.112078 0)
(26.4996 -0.109726 0)
(26.4874 -0.107389 0)
(26.477 -0.105069 0)
(26.4682 -0.10281 0)
(26.4606 -0.100677 0)
(26.4543 -0.098709 0)
(26.4492 -0.0968386 0)
(26.4452 -0.0950038 0)
(26.4423 -0.093166 0)
(26.4405 -0.0914208 0)
(26.4395 -0.0897838 0)
(26.4393 -0.0882711 0)
(26.4398 -0.0867668 0)
(26.441 -0.0853114 0)
(26.4428 -0.0838838 0)
(26.4452 -0.0824947 0)
(26.448 -0.0811401 0)
(26.4512 -0.0798413 0)
(26.4548 -0.0785882 0)
(26.4588 -0.077376 0)
(26.463 -0.0761797 0)
(26.4674 -0.0749994 0)
(26.4719 -0.0738294 0)
(26.4766 -0.0726888 0)
(26.4814 -0.0715682 0)
(26.4863 -0.0704754 0)
(26.4911 -0.069386 0)
(26.496 -0.068311 0)
(26.5009 -0.0672325 0)
(26.5057 -0.0661796 0)
(26.5106 -0.0651251 0)
(26.5153 -0.0640978 0)
(26.52 -0.0630632 0)
(26.5246 -0.0620565 0)
(26.5292 -0.061045 0)
(26.5336 -0.0600707 0)
(26.538 -0.0591003 0)
(26.5423 -0.0581819 0)
(26.5465 -0.0572742 0)
(26.5506 -0.0564616 0)
(26.5547 -0.055662 0)
(26.5586 -0.0551284 0)
(26.5626 -0.0545464 0)
(26.5663 -0.0548241 0)
(26.5703 -0.0545626 0)
(26.5737 -0.0569861 0)
(26.5795 -0.0567943 0)
(40.2699 0.127743 0)
(40.4561 0.0177444 0)
(40.6021 -0.368696 0)
(40.4975 -0.908898 0)
(40.0434 -1.44081 0)
(39.2826 -1.86015 0)
(38.3233 -2.09985 0)
(37.2922 -2.15553 0)
(36.2751 -2.06662 0)
(35.3645 -1.88519 0)
(34.5847 -1.6592 0)
(33.9359 -1.42366 0)
(33.4072 -1.20189 0)
(32.9838 -1.00788 0)
(32.647 -0.845116 0)
(32.373 -0.708475 0)
(32.1449 -0.594744 0)
(31.9546 -0.504363 0)
(31.7949 -0.434142 0)
(31.6529 -0.376681 0)
(31.5169 -0.328053 0)
(31.3839 -0.289488 0)
(31.2497 -0.26035 0)
(31.1122 -0.237997 0)
(30.9687 -0.219282 0)
(30.8161 -0.202943 0)
(30.6533 -0.189967 0)
(30.4825 -0.180587 0)
(30.3067 -0.173435 0)
(30.1286 -0.167075 0)
(29.9496 -0.161146 0)
(29.7722 -0.156062 0)
(29.5985 -0.15207 0)
(29.434 -0.148827 0)
(29.2792 -0.145958 0)
(29.1338 -0.14322 0)
(28.9977 -0.140564 0)
(28.8711 -0.138109 0)
(28.7539 -0.135884 0)
(28.6456 -0.133782 0)
(28.5454 -0.131706 0)
(28.4522 -0.129508 0)
(28.3652 -0.127024 0)
(28.2843 -0.124305 0)
(28.2093 -0.121629 0)
(28.1399 -0.119198 0)
(28.0758 -0.116971 0)
(28.0162 -0.11475 0)
(27.9611 -0.112434 0)
(27.9098 -0.110094 0)
(27.8621 -0.107903 0)
(27.8177 -0.10594 0)
(27.7765 -0.104176 0)
(27.7382 -0.102499 0)
(27.7028 -0.100828 0)
(27.67 -0.099137 0)
(27.6397 -0.097479 0)
(27.6116 -0.0959078 0)
(27.5858 -0.094452 0)
(27.5619 -0.0930535 0)
(27.5399 -0.0916506 0)
(27.5197 -0.0902145 0)
(27.5011 -0.0887793 0)
(27.4835 -0.0873767 0)
(27.4671 -0.0860672 0)
(27.4516 -0.0848133 0)
(27.4372 -0.0836072 0)
(27.4236 -0.0823909 0)
(27.4109 -0.0811945 0)
(27.3987 -0.0799967 0)
(27.3873 -0.0788482 0)
(27.3762 -0.0777177 0)
(27.3658 -0.0766221 0)
(27.3556 -0.075513 0)
(27.3458 -0.0744142 0)
(27.3362 -0.0733001 0)
(27.327 -0.0722161 0)
(27.3179 -0.0711306 0)
(27.309 -0.070075 0)
(27.3002 -0.069004 0)
(27.2917 -0.0679519 0)
(27.2832 -0.066883 0)
(27.2749 -0.0658395 0)
(27.2666 -0.0647891 0)
(27.2585 -0.0637649 0)
(27.2504 -0.0627323 0)
(27.2425 -0.0617243 0)
(27.2346 -0.0607132 0)
(27.2269 -0.0597353 0)
(27.2192 -0.0587648 0)
(27.2116 -0.0578414 0)
(27.2041 -0.056934 0)
(27.1968 -0.0561155 0)
(27.1894 -0.0553163 0)
(27.1823 -0.0547766 0)
(27.1749 -0.0541995 0)
(27.1683 -0.0544646 0)
(27.1605 -0.0542662 0)
(27.1552 -0.0566432 0)
(27.1446 -0.0564507 0)
(40.2634 0.0673392 0)
(40.4034 0.00417002 0)
(40.4966 -0.262167 0)
(40.3657 -0.67857 0)
(39.9156 -1.11199 0)
(39.179 -1.46757 0)
(38.2537 -1.69383 0)
(37.257 -1.77794 0)
(36.2687 -1.73938 0)
(35.3811 -1.61389 0)
(34.6138 -1.44 0)
(33.9669 -1.24862 0)
(33.4362 -1.06405 0)
(33.0113 -0.900787 0)
(32.6709 -0.761349 0)
(32.391 -0.64177 0)
(32.1608 -0.542056 0)
(31.9787 -0.463987 0)
(31.8351 -0.403056 0)
(31.7131 -0.351063 0)
(31.604 -0.305687 0)
(31.5122 -0.269919 0)
(31.4416 -0.243749 0)
(31.3827 -0.221996 0)
(31.3246 -0.200839 0)
(31.2673 -0.181329 0)
(31.2163 -0.165707 0)
(31.1695 -0.153461 0)
(31.1223 -0.143273 0)
(31.0719 -0.134083 0)
(31.0153 -0.125338 0)
(30.9515 -0.117598 0)
(30.8811 -0.111829 0)
(30.8048 -0.108003 0)
(30.7223 -0.105122 0)
(30.6329 -0.102508 0)
(30.5365 -0.100078 0)
(30.4339 -0.0981494 0)
(30.3271 -0.0968916 0)
(30.2182 -0.0961276 0)
(30.1088 -0.0955192 0)
(30.0004 -0.0948349 0)
(29.8938 -0.0941245 0)
(29.79 -0.0935064 0)
(29.6905 -0.09309 0)
(29.5959 -0.0928842 0)
(29.506 -0.092728 0)
(29.4206 -0.0924367 0)
(29.3394 -0.0920235 0)
(29.2627 -0.0915633 0)
(29.1905 -0.0910532 0)
(29.1223 -0.0904913 0)
(29.0578 -0.0898779 0)
(28.9963 -0.089189 0)
(28.9379 -0.0884208 0)
(28.8823 -0.087538 0)
(28.8297 -0.0865834 0)
(28.7799 -0.0856555 0)
(28.733 -0.0848016 0)
(28.6884 -0.0839618 0)
(28.6462 -0.0830738 0)
(28.6059 -0.0821467 0)
(28.5678 -0.0812073 0)
(28.5311 -0.0802441 0)
(28.4963 -0.0793004 0)
(28.4626 -0.0783587 0)
(28.4304 -0.0774164 0)
(28.3988 -0.076433 0)
(28.3686 -0.0754332 0)
(28.3388 -0.0744046 0)
(28.31 -0.0734052 0)
(28.2814 -0.0724107 0)
(28.2537 -0.0714328 0)
(28.2261 -0.0704288 0)
(28.1993 -0.0694195 0)
(28.1726 -0.0683908 0)
(28.1466 -0.0673844 0)
(28.1206 -0.0663761 0)
(28.0953 -0.0653887 0)
(28.07 -0.0643858 0)
(28.0454 -0.0634002 0)
(28.0208 -0.0624007 0)
(27.9969 -0.0614227 0)
(27.973 -0.060435 0)
(27.9498 -0.0594713 0)
(27.9265 -0.0584965 0)
(27.904 -0.0575471 0)
(27.8815 -0.0565919 0)
(27.8596 -0.0556723 0)
(27.8377 -0.0547573 0)
(27.8166 -0.0538907 0)
(27.7954 -0.0530396 0)
(27.775 -0.0522743 0)
(27.7544 -0.0515318 0)
(27.7348 -0.0510338 0)
(27.7145 -0.0505155 0)
(27.6962 -0.0507821 0)
(27.6747 -0.0506784 0)
(27.6601 -0.0528899 0)
(27.6311 -0.0531152 0)
(40.2555 0.031429 0)
(40.3567 -0.0318831 0)
(40.4022 -0.258915 0)
(40.2468 -0.61732 0)
(39.8045 -0.995504 0)
(39.098 -1.30663 0)
(38.2122 -1.5047 0)
(37.2568 -1.57688 0)
(36.2992 -1.54012 0)
(35.4315 -1.42828 0)
(34.6717 -1.27439 0)
(34.0245 -1.10566 0)
(33.4924 -0.944734 0)
(33.0653 -0.803249 0)
(32.7168 -0.680246 0)
(32.4266 -0.573711 0)
(32.1934 -0.487096 0)
(32.0136 -0.42055 0)
(31.866 -0.36628 0)
(31.733 -0.317802 0)
(31.6188 -0.276989 0)
(31.5329 -0.247509 0)
(31.4664 -0.225512 0)
(31.4031 -0.204707 0)
(31.341 -0.184513 0)
(31.289 -0.168051 0)
(31.2507 -0.156204 0)
(31.2207 -0.146814 0)
(31.192 -0.137896 0)
(31.1612 -0.128624 0)
(31.1325 -0.119838 0)
(31.1108 -0.112639 0)
(31.0943 -0.107021 0)
(31.079 -0.102254 0)
(31.0622 -0.0975105 0)
(31.0424 -0.0923667 0)
(31.0217 -0.0873694 0)
(31.0008 -0.0830264 0)
(30.9789 -0.0796158 0)
(30.9547 -0.0769794 0)
(30.9266 -0.0746609 0)
(30.8933 -0.0723399 0)
(30.8545 -0.0702099 0)
(30.8107 -0.0686349 0)
(30.7626 -0.0677445 0)
(30.7104 -0.0673461 0)
(30.6543 -0.0670693 0)
(30.5941 -0.0666957 0)
(30.5299 -0.0662911 0)
(30.4628 -0.0660195 0)
(30.3939 -0.0659728 0)
(30.3243 -0.0661288 0)
(30.2545 -0.0663493 0)
(30.185 -0.0665162 0)
(30.1156 -0.0666046 0)
(30.0465 -0.0666589 0)
(29.9787 -0.0667767 0)
(29.912 -0.0669448 0)
(29.8468 -0.0671138 0)
(29.7826 -0.067225 0)
(29.7199 -0.0672303 0)
(29.6582 -0.0671068 0)
(29.5981 -0.0668472 0)
(29.5393 -0.0664956 0)
(29.4822 -0.0661039 0)
(29.426 -0.0656714 0)
(29.3712 -0.0651799 0)
(29.317 -0.064593 0)
(29.2642 -0.0639321 0)
(29.2119 -0.0631945 0)
(29.161 -0.0624458 0)
(29.1102 -0.061671 0)
(29.0609 -0.0608873 0)
(29.0117 -0.0600588 0)
(28.9639 -0.0592086 0)
(28.9162 -0.058326 0)
(28.8699 -0.0574595 0)
(28.8236 -0.0565852 0)
(28.7787 -0.0557289 0)
(28.7339 -0.0548572 0)
(28.6904 -0.0539777 0)
(28.647 -0.053081 0)
(28.6049 -0.0522148 0)
(28.5629 -0.0513504 0)
(28.5223 -0.0505134 0)
(28.4817 -0.0496715 0)
(28.4426 -0.0488562 0)
(28.4035 -0.0480386 0)
(28.3658 -0.047257 0)
(28.3282 -0.0464818 0)
(28.292 -0.0457539 0)
(28.2558 -0.0450442 0)
(28.2211 -0.0444127 0)
(28.1862 -0.043812 0)
(28.1531 -0.0434221 0)
(28.119 -0.0430492 0)
(28.0883 -0.0433162 0)
(28.0523 -0.0434259 0)
(28.0279 -0.045281 0)
(27.9796 -0.0464646 0)
(40.2478 0.0063694 0)
(40.3189 -0.0529351 0)
(40.3277 -0.234955 0)
(40.154 -0.518804 0)
(39.7188 -0.818108 0)
(39.0361 -1.06198 0)
(38.1811 -1.216 0)
(37.2552 -1.27215 0)
(36.3232 -1.24517 0)
(35.4713 -1.16098 0)
(34.717 -1.04248 0)
(34.0718 -0.911652 0)
(33.5414 -0.786489 0)
(33.1085 -0.673971 0)
(32.7481 -0.573482 0)
(32.4508 -0.486671 0)
(32.2181 -0.418188 0)
(32.0353 -0.365245 0)
(31.8741 -0.318688 0)
(31.7303 -0.276855 0)
(31.6202 -0.245548 0)
(31.5396 -0.223946 0)
(31.4653 -0.204747 0)
(31.3899 -0.184904 0)
(31.3254 -0.167852 0)
(31.2787 -0.155926 0)
(31.2424 -0.147129 0)
(31.2074 -0.138306 0)
(31.1697 -0.128456 0)
(31.1354 -0.119598 0)
(31.1098 -0.112933 0)
(31.0908 -0.107765 0)
(31.0738 -0.103016 0)
(31.0556 -0.0980787 0)
(31.0357 -0.0929638 0)
(31.0193 -0.0885943 0)
(31.0072 -0.0850556 0)
(30.9976 -0.0820703 0)
(30.9882 -0.0794251 0)
(30.9777 -0.0768679 0)
(30.9661 -0.0742337 0)
(30.9559 -0.071645 0)
(30.947 -0.0690794 0)
(30.9382 -0.0667885 0)
(30.9288 -0.0649558 0)
(30.9179 -0.0633582 0)
(30.9049 -0.0616655 0)
(30.8899 -0.0597737 0)
(30.873 -0.0578701 0)
(30.854 -0.0562287 0)
(30.8325 -0.054958 0)
(30.8076 -0.0539793 0)
(30.7787 -0.0531176 0)
(30.7458 -0.0522512 0)
(30.7087 -0.0513536 0)
(30.6677 -0.0505623 0)
(30.6229 -0.0499263 0)
(30.5743 -0.0494363 0)
(30.522 -0.0490053 0)
(30.4659 -0.0485938 0)
(30.4065 -0.0481825 0)
(30.3442 -0.0477698 0)
(30.2795 -0.0473749 0)
(30.2128 -0.047011 0)
(30.1445 -0.0466716 0)
(30.0748 -0.0463404 0)
(30.0042 -0.0459817 0)
(29.933 -0.0455756 0)
(29.8616 -0.045117 0)
(29.79 -0.0446242 0)
(29.7191 -0.0441284 0)
(29.6481 -0.043626 0)
(29.5783 -0.0431192 0)
(29.5085 -0.0425809 0)
(29.4403 -0.0420265 0)
(29.3723 -0.0414381 0)
(29.306 -0.0408612 0)
(29.24 -0.0402736 0)
(29.1758 -0.0397052 0)
(29.112 -0.0391193 0)
(29.05 -0.0385618 0)
(28.9885 -0.0379951 0)
(28.929 -0.0374363 0)
(28.8699 -0.0368742 0)
(28.8129 -0.0363276 0)
(28.7563 -0.0357793 0)
(28.7019 -0.0352502 0)
(28.6477 -0.0347235 0)
(28.5959 -0.0342253 0)
(28.5442 -0.0337365 0)
(28.495 -0.0332865 0)
(28.4457 -0.0328541 0)
(28.3989 -0.0324845 0)
(28.3518 -0.0321527 0)
(28.3075 -0.0319747 0)
(28.2617 -0.0318693 0)
(28.2208 -0.0321643 0)
(28.1729 -0.0326445 0)
(28.1403 -0.0339062 0)
(28.076 -0.0366341 0)
(40.2419 -0.0161657 0)
(40.2904 -0.0671902 0)
(40.2717 -0.206836 0)
(40.0832 -0.423797 0)
(39.6529 -0.656249 0)
(38.9885 -0.849189 0)
(38.1577 -0.975761 0)
(37.2544 -1.02798 0)
(36.3424 -1.01528 0)
(35.499 -0.95549 0)
(34.7455 -0.864752 0)
(34.0974 -0.762521 0)
(33.5607 -0.664516 0)
(33.1122 -0.57342 0)
(32.7339 -0.490188 0)
(32.4335 -0.421605 0)
(32.1993 -0.368128 0)
(31.9964 -0.321748 0)
(31.8153 -0.27955 0)
(31.6727 -0.246448 0)
(31.565 -0.223016 0)
(31.4671 -0.203243 0)
(31.3702 -0.183538 0)
(31.2867 -0.16626 0)
(31.2224 -0.15382 0)
(31.1681 -0.144689 0)
(31.114 -0.135948 0)
(31.0581 -0.126372 0)
(31.0082 -0.117786 0)
(30.9669 -0.111503 0)
(30.9303 -0.106745 0)
(30.8941 -0.10204 0)
(30.8559 -0.0968292 0)
(30.8176 -0.0917802 0)
(30.7829 -0.0877303 0)
(30.7509 -0.0845866 0)
(30.7195 -0.081642 0)
(30.6876 -0.0784376 0)
(30.6541 -0.0751092 0)
(30.6201 -0.0720563 0)
(30.5869 -0.0695105 0)
(30.5539 -0.0672227 0)
(30.5209 -0.06488 0)
(30.4874 -0.0625825 0)
(30.4529 -0.0604852 0)
(30.4172 -0.0585362 0)
(30.3806 -0.0566124 0)
(30.3437 -0.0546898 0)
(30.3067 -0.0528451 0)
(30.2693 -0.0511484 0)
(30.2313 -0.0495448 0)
(30.1925 -0.0479262 0)
(30.1527 -0.0462206 0)
(30.1121 -0.044439 0)
(30.0712 -0.0426471 0)
(30.0299 -0.0409525 0)
(29.9881 -0.0393617 0)
(29.9455 -0.0377924 0)
(29.9018 -0.0361935 0)
(29.8569 -0.0346027 0)
(29.8109 -0.0330785 0)
(29.7639 -0.0316492 0)
(29.7159 -0.0303182 0)
(29.6666 -0.0290645 0)
(29.6159 -0.0278783 0)
(29.5638 -0.0267675 0)
(29.5102 -0.0257408 0)
(29.4554 -0.0248019 0)
(29.3995 -0.0239325 0)
(29.3425 -0.0231495 0)
(29.2847 -0.0224478 0)
(29.2261 -0.021819 0)
(29.1668 -0.0212554 0)
(29.107 -0.0207499 0)
(29.047 -0.0203003 0)
(28.9867 -0.0198896 0)
(28.9267 -0.0195239 0)
(28.8665 -0.0191946 0)
(28.8071 -0.0189099 0)
(28.7476 -0.0186533 0)
(28.6893 -0.0184195 0)
(28.6309 -0.0182029 0)
(28.5741 -0.0180155 0)
(28.5173 -0.0178564 0)
(28.4623 -0.017723 0)
(28.4074 -0.0176097 0)
(28.3544 -0.0175141 0)
(28.3016 -0.0174345 0)
(28.2508 -0.017372 0)
(28.2001 -0.0173255 0)
(28.1515 -0.0172983 0)
(28.1029 -0.0172863 0)
(28.0564 -0.0173071 0)
(28.0097 -0.0173681 0)
(27.9654 -0.0175021 0)
(27.9196 -0.017772 0)
(27.8784 -0.018137 0)
(27.8297 -0.0191002 0)
(27.7968 -0.0196141 0)
(27.7301 -0.0241582 0)
(40.2386 -0.030009 0)
(40.2709 -0.0704533 0)
(40.2318 -0.171527 0)
(40.0309 -0.327113 0)
(39.6008 -0.494846 0)
(38.9444 -0.634499 0)
(38.1223 -0.726393 0)
(37.2221 -0.765047 0)
(36.3101 -0.757904 0)
(35.45 -0.717179 0)
(34.6786 -0.65521 0)
(34.0154 -0.585836 0)
(33.4452 -0.51567 0)
(32.9584 -0.448264 0)
(32.559 -0.389162 0)
(32.2338 -0.340641 0)
(31.9514 -0.299046 0)
(31.7042 -0.262129 0)
(31.4982 -0.23133 0)
(31.3266 -0.207546 0)
(31.169 -0.188311 0)
(31.0207 -0.171095 0)
(30.8887 -0.15567 0)
(30.7733 -0.14319 0)
(30.6659 -0.13353 0)
(30.5604 -0.125076 0)
(30.4583 -0.116566 0)
(30.3632 -0.108447 0)
(30.2745 -0.101713 0)
(30.1881 -0.0964194 0)
(30.1016 -0.0916721 0)
(30.0162 -0.0866155 0)
(29.9335 -0.0814334 0)
(29.8536 -0.0769424 0)
(29.7751 -0.0733615 0)
(29.6968 -0.0702315 0)
(29.6184 -0.0670072 0)
(29.5412 -0.0635357 0)
(29.4655 -0.0601853 0)
(29.3912 -0.0573799 0)
(29.3174 -0.0550402 0)
(29.244 -0.0527911 0)
(29.1715 -0.0503972 0)
(29.1001 -0.0479922 0)
(29.0299 -0.0457846 0)
(28.9606 -0.0438139 0)
(28.8922 -0.041973 0)
(28.8251 -0.0401654 0)
(28.7592 -0.0383761 0)
(28.6945 -0.0366512 0)
(28.631 -0.0350003 0)
(28.5689 -0.0334175 0)
(28.508 -0.0318919 0)
(28.4487 -0.0304361 0)
(28.3908 -0.02905 0)
(28.3347 -0.027756 0)
(28.2798 -0.0265133 0)
(28.2266 -0.0252751 0)
(28.1747 -0.0240218 0)
(28.1248 -0.0228083 0)
(28.0763 -0.0216592 0)
(28.0296 -0.0205752 0)
(27.9842 -0.0195129 0)
(27.9406 -0.0184527 0)
(27.8981 -0.0173884 0)
(27.8574 -0.016359 0)
(27.8177 -0.0153776 0)
(27.7796 -0.0144557 0)
(27.7423 -0.0135679 0)
(27.7063 -0.0127239 0)
(27.671 -0.0119401 0)
(27.6368 -0.0112089 0)
(27.6031 -0.0105215 0)
(27.5703 -0.00989081 0)
(27.5379 -0.00931978 0)
(27.5061 -0.00881183 0)
(27.4747 -0.00835815 0)
(27.4436 -0.00796927 0)
(27.4129 -0.00763952 0)
(27.3824 -0.00736852 0)
(27.3522 -0.0071467 0)
(27.322 -0.00696711 0)
(27.2921 -0.00683087 0)
(27.2621 -0.00673861 0)
(27.2323 -0.00668696 0)
(27.2025 -0.00667166 0)
(27.1727 -0.0066861 0)
(27.1429 -0.00672989 0)
(27.1132 -0.00679799 0)
(27.0834 -0.00689249 0)
(27.0537 -0.00700764 0)
(27.024 -0.00714486 0)
(26.9945 -0.00730781 0)
(26.9647 -0.00751261 0)
(26.9355 -0.0077278 0)
(26.9049 -0.0081128 0)
(26.8769 -0.00835619 0)
(26.8424 -0.00948505 0)
(26.8199 -0.00918241 0)
(26.7695 -0.0145938 0)
(40.2229 -0.0441214 0)
(40.2345 -0.0683461 0)
(40.1702 -0.129278 0)
(39.943 -0.223499 0)
(39.4859 -0.326545 0)
(38.7965 -0.413772 0)
(37.9306 -0.472598 0)
(36.9722 -0.498814 0)
(35.9894 -0.496135 0)
(35.0455 -0.471902 0)
(34.1821 -0.433846 0)
(33.4051 -0.389199 0)
(32.7212 -0.343287 0)
(32.1334 -0.300465 0)
(31.6277 -0.263058 0)
(31.1864 -0.230817 0)
(30.7976 -0.202661 0)
(30.4591 -0.178801 0)
(30.1605 -0.159164 0)
(29.8917 -0.142824 0)
(29.643 -0.128368 0)
(29.4158 -0.116045 0)
(29.2094 -0.105897 0)
(29.0187 -0.0972654 0)
(28.8391 -0.0895575 0)
(28.6688 -0.0825612 0)
(28.5087 -0.0763076 0)
(28.3582 -0.0706561 0)
(28.2157 -0.0655015 0)
(28.0789 -0.0607622 0)
(27.9475 -0.0563871 0)
(27.8218 -0.0522619 0)
(27.7019 -0.0483696 0)
(27.5876 -0.0448288 0)
(27.4776 -0.0416149 0)
(27.3714 -0.038611 0)
(27.2691 -0.0357423 0)
(27.1711 -0.0329975 0)
(27.0773 -0.0304417 0)
(26.9874 -0.0281422 0)
(26.9007 -0.026038 0)
(26.8171 -0.0240415 0)
(26.7366 -0.0221006 0)
(26.6597 -0.0202808 0)
(26.5857 -0.0186432 0)
(26.5146 -0.0171651 0)
(26.4461 -0.0157696 0)
(26.3804 -0.014424 0)
(26.3172 -0.0131484 0)
(26.2567 -0.0119914 0)
(26.1983 -0.010948 0)
(26.1426 -0.00998609 0)
(26.0888 -0.00907113 0)
(26.0376 -0.00819628 0)
(25.9883 -0.00736283 0)
(25.9414 -0.00659492 0)
(25.8963 -0.00588852 0)
(25.8534 -0.00521986 0)
(25.8122 -0.00456897 0)
(25.7734 -0.00394809 0)
(25.7362 -0.00336557 0)
(25.7011 -0.00282583 0)
(25.6675 -0.00231502 0)
(25.6359 -0.00182765 0)
(25.6057 -0.00136188 0)
(25.5776 -0.000930139 0)
(25.5507 -0.000532017 0)
(25.5256 -0.000162592 0)
(25.5016 0.000189144 0)
(25.4791 0.000520863 0)
(25.4577 0.000839271 0)
(25.4376 0.0010768 0)
(25.4184 0.00127749 0)
(25.4002 0.00145617 0)
(25.3827 0.00162551 0)
(25.3661 0.0017746 0)
(25.35 0.00191693 0)
(25.3347 0.00203629 0)
(25.3197 0.00213922 0)
(25.3052 0.00222381 0)
(25.291 0.0022962 0)
(25.2772 0.00234914 0)
(25.2636 0.00239658 0)
(25.2503 0.00244039 0)
(25.2371 0.00247585 0)
(25.224 0.00250366 0)
(25.211 0.00252413 0)
(25.1981 0.00253828 0)
(25.185 0.00254018 0)
(25.172 0.00253299 0)
(25.1588 0.00251194 0)
(25.1455 0.00247909 0)
(25.1321 0.0024266 0)
(25.1184 0.00231807 0)
(25.1048 0.0022241 0)
(25.0899 0.0019428 0)
(25.0767 0.00194565 0)
(25.0582 0.000987269 0)
(25.0479 0.00151911 0)
(25.0178 -0.00294829 0)
(39.1402 -0.0539801 0)
(38.9464 -0.0675466 0)
(38.6586 -0.0934486 0)
(38.1914 -0.131021 0)
(37.4774 -0.172079 0)
(36.5128 -0.207807 0)
(35.3544 -0.233315 0)
(34.0901 -0.2464 0)
(32.7978 -0.247898 0)
(31.5413 -0.240219 0)
(30.3738 -0.225618 0)
(29.3093 -0.20654 0)
(28.3627 -0.186129 0)
(27.5266 -0.166357 0)
(26.7955 -0.14767 0)
(26.1535 -0.130055 0)
(25.5937 -0.114251 0)
(25.0998 -0.100577 0)
(24.6662 -0.0886814 0)
(24.2803 -0.0777397 0)
(23.9406 -0.0681263 0)
(23.6354 -0.0606318 0)
(23.3585 -0.0546234 0)
(23.1075 -0.0491674 0)
(22.8793 -0.0441784 0)
(22.6712 -0.0400765 0)
(22.4796 -0.0367356 0)
(22.3039 -0.0336139 0)
(22.1428 -0.0305538 0)
(21.9955 -0.027854 0)
(21.8596 -0.0256823 0)
(21.7342 -0.0237904 0)
(21.6189 -0.0219199 0)
(21.5133 -0.0201282 0)
(21.4163 -0.0185873 0)
(21.3268 -0.0173468 0)
(21.244 -0.0162778 0)
(21.1679 -0.0152267 0)
(21.0979 -0.0141831 0)
(21.034 -0.0132579 0)
(20.975 -0.0125043 0)
(20.9206 -0.011872 0)
(20.8703 -0.0112621 0)
(20.8245 -0.0106558 0)
(20.7823 -0.0100933 0)
(20.7438 -0.00960954 0)
(20.7081 -0.00918873 0)
(20.6756 -0.00879926 0)
(20.6456 -0.00842305 0)
(20.6185 -0.00806703 0)
(20.5934 -0.00772867 0)
(20.5708 -0.00740894 0)
(20.55 -0.00710615 0)
(20.5313 -0.00682698 0)
(20.5141 -0.006567 0)
(20.4989 -0.00633203 0)
(20.4849 -0.00611373 0)
(20.4725 -0.00590634 0)
(20.4612 -0.00570085 0)
(20.4515 -0.00551127 0)
(20.4427 -0.00533824 0)
(20.4352 -0.00518562 0)
(20.4285 -0.00503338 0)
(20.423 -0.00488089 0)
(20.4182 -0.00471214 0)
(20.4146 -0.00454544 0)
(20.4115 -0.00436195 0)
(20.4095 -0.00418309 0)
(20.4081 -0.0039658 0)
(20.4076 -0.00370864 0)
(20.4077 -0.00353229 0)
(20.4085 -0.00335173 0)
(20.4099 -0.0031942 0)
(20.412 -0.00304792 0)
(20.4145 -0.00290832 0)
(20.4176 -0.00277654 0)
(20.4212 -0.00264867 0)
(20.4253 -0.00253757 0)
(20.4297 -0.00243891 0)
(20.4344 -0.00235694 0)
(20.4394 -0.00229011 0)
(20.4446 -0.00226307 0)
(20.45 -0.00225367 0)
(20.4555 -0.00225474 0)
(20.4611 -0.00226385 0)
(20.4668 -0.00227927 0)
(20.4724 -0.00229696 0)
(20.4781 -0.00231494 0)
(20.4837 -0.0023368 0)
(20.4892 -0.00235717 0)
(20.4947 -0.00238253 0)
(20.4999 -0.00240517 0)
(20.5052 -0.002435 0)
(20.5097 -0.00249593 0)
(20.5146 -0.00253985 0)
(20.518 -0.00268044 0)
(20.5227 -0.00262411 0)
(20.524 -0.00322299 0)
(20.5277 -0.00208126 0)
(20.5227 -0.00798315 0)
(1.95437 0.421237 0)
(1.64907 2.05102 0)
(0.910905 2.40128 0)
(0.110914 2.5677 0)
(-0.665574 2.43237 0)
(-1.46651 1.98152 0)
(-2.15367 1.28401 0)
(-2.51272 0.770952 0)
(10.5778 0.318084 0)
(4.36564 1.81698 0)
(1.74411 2.17481 0)
(-0.155018 2.21102 0)
(-2.00006 2.04563 0)
(-3.87731 1.69172 0)
(-5.71493 1.11972 0)
(-6.92409 0.530807 0)
(16.8868 -0.371864 0)
(7.91511 0.751521 0)
(2.86677 1.2142 0)
(-0.390799 1.32792 0)
(-2.9925 1.24932 0)
(-5.40338 1.0588 0)
(-7.85091 0.75371 0)
(-9.97521 0.288393 0)
(20.5479 -1.17077 0)
(11.239 -0.438563 0)
(4.58036 0.0734973 0)
(0.166283 0.312115 0)
(-3.14767 0.393393 0)
(-6.02669 0.379207 0)
(-8.77042 0.303337 0)
(-11.4791 0.0760391 0)
(22.4347 -1.81034 0)
(13.5547 -1.3272 0)
(6.44275 -0.873379 0)
(1.28496 -0.548984 0)
(-2.61863 -0.328243 0)
(-5.86405 -0.179407 0)
(-8.80813 -0.0646671 0)
(-11.7951 -0.0515939 0)
(23.6383 -2.31559 0)
(15.4316 -1.97617 0)
(8.25978 -1.5757 0)
(2.7433 -1.21556 0)
(-1.47203 -0.904726 0)
(-4.91752 -0.630898 0)
(-7.98475 -0.380777 0)
(-11.1055 -0.205934 0)
(24.3327 -2.6059 0)
(16.9012 -2.37072 0)
(10.0265 -2.03613 0)
(4.44226 -1.67066 0)
(0.115632 -1.30546 0)
(-3.37702 -0.946674 0)
(-6.43097 -0.597684 0)
(-9.51235 -0.307153 0)
(24.7684 -2.67811 0)
(17.9673 -2.50951 0)
(11.5151 -2.23417 0)
(6.15522 -1.89322 0)
(1.91903 -1.51318 0)
(-1.5104 -1.11243 0)
(-4.48997 -0.712746 0)
(-7.52816 -0.358469 0)
(25.0648 -2.58809 0)
(18.8342 -2.461 0)
(12.8346 -2.2309 0)
(7.79376 -1.91915 0)
(3.76298 -1.55075 0)
(0.479199 -1.14695 0)
(-2.37452 -0.740321 0)
(-5.32865 -0.369175 0)
(25.2507 -2.38099 0)
(19.53 -2.28696 0)
(13.9916 -2.09703 0)
(9.31677 -1.82104 0)
(5.53742 -1.48025 0)
(2.42562 -1.0967 0)
(-0.297161 -0.708727 0)
(-3.17838 -0.353592 0)
(25.3301 -2.114 0)
(20.0608 -2.05184 0)
(14.9676 -1.89751 0)
(10.6753 -1.65945 0)
(7.169 -1.35431 0)
(4.24225 -1.00522 0)
(1.65841 -0.650634 0)
(-1.1457 -0.32579 0)
(25.3135 -1.83599 0)
(20.4572 -1.79966 0)
(15.8049 -1.67563 0)
(11.8636 -1.4727 0)
(8.60684 -1.20387 0)
(5.86515 -0.895607 0)
(3.41694 -0.580668 0)
(0.697364 -0.291799 0)
(25.2216 -1.57332 0)
(20.7378 -1.55747 0)
(16.5023 -1.45867 0)
(12.8901 -1.28595 0)
(9.86479 -1.05195 0)
(7.29313 -0.782472 0)
(4.96309 -0.504674 0)
(2.30923 -0.250255 0)
(25.0827 -1.34386 0)
(20.9382 -1.3406 0)
(17.0849 -1.26205 0)
(13.772 -1.11554 0)
(10.9562 -0.912989 0)
(8.53816 -0.679025 0)
(6.31405 -0.435786 0)
(3.71768 -0.214194 0)
(24.9174 -1.15136 0)
(21.0777 -1.15551 0)
(17.5716 -1.09208 0)
(14.5307 -0.967282 0)
(11.9023 -0.792966 0)
(9.61954 -0.59031 0)
(7.48675 -0.377531 0)
(4.93538 -0.184575 0)
(24.7445 -0.992015 0)
(21.187 -0.998192 0)
(17.9788 -0.946318 0)
(15.172 -0.839293 0)
(12.7164 -0.69044 0)
(10.5578 -0.51518 0)
(8.5079 -0.328197 0)
(5.99444 -0.161758 0)
(24.5804 -0.861088 0)
(21.2817 -0.866452 0)
(18.3242 -0.82205 0)
(15.7154 -0.729793 0)
(13.4166 -0.602244 0)
(11.3722 -0.450185 0)
(9.40072 -0.284049 0)
(6.91667 -0.145647 0)
(24.4328 -0.754668 0)
(21.368 -0.758537 0)
(18.6241 -0.718693 0)
(16.1851 -0.638234 0)
(14.0235 -0.527506 0)
(12.082 -0.394568 0)
(10.1864 -0.246542 0)
(7.7178 -0.131146 0)
(24.306 -0.669242 0)
(21.45 -0.671214 0)
(18.8901 -0.634589 0)
(16.5977 -0.563181 0)
(14.5555 -0.465592 0)
(12.705 -0.34831 0)
(10.8772 -0.216902 0)
(8.42325 -0.115996 0)
(24.1987 -0.599241 0)
(21.5301 -0.599693 0)
(19.1306 -0.565561 0)
(16.9657 -0.501317 0)
(15.0276 -0.414227 0)
(13.257 -0.309752 0)
(11.4889 -0.192734 0)
(9.04763 -0.102411 0)
(24.1085 -0.539627 0)
(21.6087 -0.539423 0)
(19.3496 -0.507398 0)
(17.2973 -0.449465 0)
(15.4505 -0.371148 0)
(13.7501 -0.277291 0)
(12.0344 -0.172374 0)
(9.60353 -0.0908187 0)
(24.0333 -0.48873 0)
(21.6846 -0.488075 0)
(19.5466 -0.45825 0)
(17.5968 -0.40585 0)
(15.832 -0.334984 0)
(14.1941 -0.250045 0)
(12.5244 -0.155246 0)
(10.1018 -0.081203 0)
(23.9711 -0.446852 0)
(21.7573 -0.445304 0)
(19.7271 -0.417398 0)
(17.8696 -0.369423 0)
(16.1787 -0.304724 0)
(14.597 -0.227264 0)
(12.9683 -0.14092 0)
(10.5522 -0.0732802 0)
(23.9208 -0.41214 0)
(21.8288 -0.409465 0)
(19.8955 -0.383232 0)
(18.121 -0.338849 0)
(16.4967 -0.279302 0)
(14.9658 -0.208144 0)
(13.3737 -0.128891 0)
(10.9626 -0.0666642 0)
(23.8802 -0.381711 0)
(21.8977 -0.378275 0)
(20.0522 -0.353428 0)
(18.3532 -0.312162 0)
(16.7896 -0.257134 0)
(15.305 -0.191486 0)
(13.7462 -0.118396 0)
(11.3387 -0.0609414 0)
(23.8484 -0.354182 0)
(21.9658 -0.3497 0)
(20.1998 -0.326563 0)
(18.5689 -0.288193 0)
(17.0604 -0.237194 0)
(15.6179 -0.176477 0)