/*--------------------------------*- C++ -*----------------------------------*\
| =========                 |                                                 |
| \\      /  F ield         | OpenFOAM: The Open Source CFD Toolbox           |
|  \\    /   O peration     | Version:  v2012                                 |
|   \\  /    A nd           | Website:  www.openfoam.com                      |
|    \\/     M anipulation  |                                                 |
\*---------------------------------------------------------------------------*/
FoamFile
{
    version     2.0;
    format      ascii;
    class       vectorField;
    location    "0.063/lagrangian/kinematicCloud";
    object      UCorrect;
}
// * * * * * * * * * * * * * * * * * * * * * * * * * * * * * * * * * * * * * //


41
(
(2.64529e-08 -6.26012e-11 0)
(0 0 0)
(0 0 0)
(0 0 0)
(-1.97106e-26 -2.35975e-28 0)
(-1.2221e-26 -1.16749e-27 0)
(-2.02818e-26 -2.32195e-28 0)
(-8.51021e-29 -1.13822e-30 0)
(0 0 0)
(-2.57044e-26 -3.99867e-28 0)
(0 0 0)
(-1.02611e-28 -5.61372e-30 0)
(0 0 0)
(-1.28013e-26 -1.28908e-27 0)
(-1.07967e-28 -1.5949e-30 0)
(-1.99203e-26 -1.9795e-27 0)
(-2.40281e-26 -3.38529e-28 0)
(0 0 0)
(0 0 0)
(-2.64457e-08 6.25091e-11 0)
(0 0 0)
(0 0 0)
(0 0 0)
(-2.52499e-26 -6.39323e-28 0)
(0 0 0)
(0 0 0)
(0 0 0)
(0 0 0)
(0 0 0)
(-2.21068e-26 -9.45046e-28 0)
(-2.24314e-26 -6.12876e-28 0)
(0 0 0)
(0 0 0)
(0 0 0)
(0 0 0)
(-8.06167e-26 -4.50518e-28 0)
(0 0 0)
(-4.39328e-26 1.03585e-27 0)
(0 0 0)
(-7.92897e-26 8.38121e-28 0)
(-6.88982e-26 1.02618e-26 0)
)


// ************************************************************************* //
