/*--------------------------------*- C++ -*----------------------------------*\
| =========                 |                                                 |
| \\      /  F ield         | OpenFOAM: The Open Source CFD Toolbox           |
|  \\    /   O peration     | Version:  v2012                                 |
|   \\  /    A nd           | Website:  www.openfoam.com                      |
|    \\/     M anipulation  |                                                 |
\*---------------------------------------------------------------------------*/
FoamFile
{
    version     2.0;
    format      ascii;
    class       volScalarField;
    location    "0.189";
    object      k.air;
}
// * * * * * * * * * * * * * * * * * * * * * * * * * * * * * * * * * * * * * //

dimensions      [0 2 -2 0 0 0 0];


internalField   nonuniform List<scalar> 
5600
(
0.606366
0.840744
0.955185
0.978143
0.949161
0.897651
0.839428
0.787433
0.743089
0.707461
0.679191
0.658424
0.643435
0.632415
0.625679
0.619607
0.616675
0.613005
0.611085
0.608817
0.606907
0.605776
0.60378
0.603548
0.602078
0.601957
0.601439
0.600787
0.601335
0.599937
0.601132
0.599294
0.600409
0.598925
0.599126
0.598757
0.597645
0.598462
0.596424
0.597779
0.595735
0.596712
0.595541
0.595554
0.595471
0.594707
0.595188
0.594357
0.594655
0.594363
0.594078
0.594448
0.59373
0.594382
0.593689
0.594181
0.593917
0.593998
0.594256
0.593956
0.594644
0.594073
0.59506
0.594318
0.595431
0.594721
0.595778
0.595334
0.596192
0.596062
0.596779
0.596703
0.597565
0.597207
0.598474
0.597769
0.599316
0.598653
0.599935
0.599866
0.600497
0.601053
0.6014
0.601796
0.602796
0.60232
0.604078
0.603434
0.604459
0.605672
0.603882
0.608838
0.602285
0.61412
0.596194
0.628139
0.572971
0.673738
0.480717
0.840289
0.371589
0.315733
0.288425
0.27599
0.274549
0.285074
0.306997
0.345141
0.387007
0.430066
0.471796
0.508442
0.542518
0.568572
0.592885
0.608854
0.624266
0.633396
0.641733
0.648348
0.651553
0.657636
0.658748
0.664128
0.665246
0.668101
0.671048
0.670312
0.675267
0.671579
0.677373
0.672794
0.677162
0.674897
0.675318
0.677204
0.673559
0.678621
0.673036
0.678596
0.674155
0.677353
0.67624
0.676128
0.677863
0.675988
0.678327
0.677006
0.677914
0.678468
0.677442
0.67961
0.677703
0.680136
0.678651
0.680103
0.68019
0.680228
0.681769
0.680524
0.683233
0.681149
0.68459
0.682066
0.685524
0.683299
0.686117
0.684895
0.686944
0.686533
0.688369
0.687697
0.690219
0.688381
0.692068
0.689374
0.69335
0.691259
0.693891
0.693691
0.694511
0.695443
0.696469
0.695826
0.699457
0.695927
0.701427
0.697973
0.701105
0.702159
0.699584
0.707146
0.69714
0.714643
0.689049
0.732342
0.663546
0.775223
0.593629
0.874796
0.3691
0.282082
0.227438
0.193423
0.168052
0.154333
0.145147
0.143873
0.147029
0.154579
0.167989
0.180529
0.20098
0.21672
0.240961
0.259106
0.283545
0.30421
0.325994
0.34932
0.368036
0.392122
0.407591
0.426866
0.439432
0.451516
0.46475
0.469268
0.483398
0.482951
0.496299
0.495088
0.504168
0.506707
0.508866
0.516593
0.513007
0.523736
0.518258
0.527747
0.524925
0.529751
0.531584
0.531831
0.536573
0.535181
0.539405
0.539563
0.541091
0.543847
0.542859
0.547189
0.545551
0.54946
0.548816
0.550894
0.552369
0.552639
0.555821
0.554399
0.558837
0.55637
0.56157
0.558652
0.563528
0.561213
0.564898
0.56401
0.566658
0.566628
0.569336
0.568542
0.572425
0.569859
0.575114
0.571762
0.576808
0.574795
0.577637
0.578078
0.578952
0.579976
0.582179
0.580164
0.586267
0.580574
0.588557
0.583367
0.588568
0.587498
0.588766
0.590707
0.589927
0.594406
0.588583
0.60288
0.580085
0.619729
0.561474
0.633424
0.370023
0.280901
0.223716
0.186598
0.157907
0.138801
0.122523
0.11138
0.103457
0.0957189
0.0955511
0.0896512
0.096006
0.0922476
0.102208
0.103385
0.113652
0.122361
0.131279
0.147699
0.156605
0.17805
0.190107
0.211862
0.229136
0.245936
0.268426
0.277934
0.302674
0.306891
0.329566
0.333825
0.348884
0.358754
0.363519
0.379733
0.37704
0.395418
0.391624
0.40598
0.406701
0.413566
0.419847
0.420906
0.429332
0.429198
0.43521
0.437756
0.439849
0.445457
0.444699
0.4514
0.450564
0.455884
0.456601
0.459207
0.462398
0.462901
0.467997
0.466465
0.472779
0.470032
0.477011
0.47399
0.480109
0.478147
0.482455
0.48226
0.485415
0.485916
0.489593
0.488739
0.494093
0.490983
0.497594
0.494063
0.499732
0.498418
0.50112
0.502547
0.503493
0.504623
0.508119
0.505026
0.513118
0.506357
0.515582
0.510256
0.516037
0.514618
0.51765
0.517304
0.520615
0.520115
0.52192
0.525632
0.519976
0.532672
0.519181
0.52942
0.370165
0.281128
0.223896
0.186674
0.157772
0.138132
0.121426
0.108217
0.0997035
0.0876843
0.0860638
0.0736698
0.0766792
0.0657683
0.0690581
0.0636374
0.0629888
0.0660328
0.0603605
0.0706412
0.0638446
0.0761848
0.0751064
0.0836938
0.0937748
0.0956688
0.117212
0.114058
0.141765
0.139233
0.164752
0.170234
0.186395
0.202706
0.206872
0.231672
0.228808
0.254268
0.252765
0.271088
0.276659
0.285121
0.297345
0.299785
0.312981
0.315675
0.324243
0.33082
0.334175
0.344044
0.344433
0.354366
0.355448
0.362763
0.365814
0.369398
0.37505
0.376164
0.383802
0.382533
0.39128
0.388627
0.397789
0.395181
0.402756
0.401746
0.406863
0.407818
0.411748
0.413041
0.417967
0.417281
0.424288
0.421042
0.428903
0.42584
0.431768
0.431747
0.434097
0.436806
0.437869
0.439279
0.443938
0.440414
0.449682
0.443208
0.452318
0.448408
0.453419
0.453239
0.456278
0.456228
0.460324
0.459306
0.463133
0.463891
0.464455
0.468009
0.467805
0.466425
0.370142
0.281239
0.223977
0.186833
0.158116
0.138108
0.122172
0.107749
0.100591
0.0866919
0.0861956
0.0722008
0.074526
0.0636406
0.0632673
0.05985
0.0527058
0.0581938
0.0451401
0.0553665
0.0430002
0.0495605
0.0467121
0.0420167
0.0541346
0.0366779
0.0612687
0.0382323
0.0651133
0.0490895
0.0659784
0.0676928
0.0680922
0.0889418
0.0765719
0.107108
0.093976
0.121001
0.117523
0.13361
0.142574
0.148449
0.165087
0.166883
0.182905
0.188206
0.197738
0.208534
0.212383
0.226279
0.227935
0.240522
0.244006
0.253024
0.259148
0.263901
0.272709
0.27486
0.285685
0.28519
0.296989
0.295041
0.306841
0.305507
0.314803
0.31567
0.32189
0.324699
0.329792
0.332314
0.338895
0.338797
0.347654
0.344959
0.353993
0.352187
0.358319
0.360291
0.362411
0.36687
0.368267
0.370441
0.376121
0.373164
0.382839
0.378107
0.38614
0.384968
0.38844
0.390683
0.392766
0.394531
0.398036
0.398353
0.402341
0.402992
0.405564
0.407194
0.409322
0.409484
0.37012
0.281248
0.224047
0.186755
0.158424
0.137847
0.122762
0.107382
0.101221
0.086584
0.0863103
0.0728457
0.0735672
0.0651572
0.0612016
0.0615271
0.0502547
0.0584848
0.0433485
0.0526576
0.0422873
0.0429964
0.0460412
0.0318184
0.0506235
0.0237381
0.051086
0.0229528
0.0447539
0.0304782
0.0331028
0.0430408
0.0219499
0.0531067
0.0198568
0.0541254
0.029457
0.0495693
0.0443532
0.0467544
0.0585784
0.0514022
0.0678102
0.0635747
0.0750235
0.080197
0.0830302
0.0952946
0.0950722
0.110084
0.110731
0.122852
0.127676
0.13606
0.14392
0.148072
0.158809
0.161084
0.174332
0.174151
0.18832
0.186995
0.200609
0.200871
0.211077
0.214098
0.220861
0.225556
0.231675
0.235448
0.243812
0.244702
0.255434
0.254134
0.264134
0.264532
0.270725
0.275318
0.277485
0.283999
0.286183
0.289556
0.296263
0.294879
0.304507
0.302597
0.309484
0.31142
0.31396
0.318454
0.320245
0.323701
0.327086
0.328773
0.332934
0.334435
0.337363
0.34001
0.341357
0.344409
0.370142
0.28116
0.224177
0.186563
0.158676
0.137628
0.122972
0.107394
0.101068
0.0871648
0.0855238
0.0741057
0.0722672
0.0666796
0.0600486
0.0624204
0.0501459
0.0579111
0.0447547
0.0505207
0.0446534
0.040276
0.0476996
0.0302763
0.0494326
0.0248921
0.0458927
0.0264826
0.0365713
0.0335455
0.0243273
0.0419679
0.0142368
0.0452308
0.0132808
0.0386266
0.0213245
0.0280227
0.0306753
0.0193937
0.035789
0.0209062
0.0310854
0.0272756
0.0286688
0.0353356
0.0270381
0.0371309
0.03081
0.0422059
0.0399479
0.045929
0.0486534
0.051748
0.0569163
0.055915
0.0643363
0.0630684
0.0761934
0.0729557
0.0872162
0.0839965
0.0967545
0.0972499
0.105902
0.110051
0.115791
0.121231
0.127161
0.13116
0.140148
0.141625
0.152858
0.153006
0.162562
0.165032
0.170542
0.177151
0.179339
0.187179
0.190101
0.194505
0.201529
0.202162
0.211025
0.211934
0.217902
0.222076
0.224519
0.230328
0.232432
0.237147
0.240682
0.243777
0.248039
0.250991
0.253878
0.258062
0.259201
0.263833
0.370201
0.281018
0.224327
0.186385
0.158793
0.137632
0.122767
0.107891
0.100289
0.0882523
0.0843053
0.075373
0.0712833
0.0672735
0.0601745
0.0616309
0.0517372
0.0558861
0.0471074
0.0484786
0.0461583
0.0399467
0.0467369
0.032839
0.0455182
0.0299673
0.04035
0.0318381
0.0321374
0.0360446
0.0237832
0.0393472
0.0185199
0.0382162
0.0197444
0.0308497
0.0257545
0.022611
0.0295618
0.0187871
0.0283794
0.0209386
0.0225292
0.0245649
0.0190665
0.0256698
0.01844
0.0236403
0.0191902
0.0227393
0.0218105
0.0218248
0.0229058
0.0228655
0.0244298
0.0219731
0.0258399
0.0213766
0.030342
0.0230681
0.0336784
0.0275193
0.0352378
0.0333553
0.0369499
0.0390681
0.0411845
0.044741
0.0471887
0.0494361
0.0550616
0.055901
0.064079
0.0640955
0.0708965
0.0726171
0.0766922
0.0825552
0.0843437
0.0916671
0.0939995
0.0988297
0.104286
0.106633
0.113957
0.116323
0.121852
0.126442
0.12927
0.135188
0.137676
0.143065
0.146756
0.150866
0.155473
0.159296
0.162976
0.167357
0.169999
0.174278
0.370263
0.280894
0.224436
0.18629
0.158785
0.137796
0.122384
0.108525
0.0994412
0.0892445
0.0833472
0.0761308
0.0709653
0.0670281
0.0611045
0.0601161
0.0537106
0.0538308
0.0489276
0.0473852
0.0462491
0.0411741
0.0442459
0.0365146
0.0411925
0.034505
0.0364036
0.0346925
0.0309968
0.0352019
0.02681
0.0343761
0.0249515
0.0314659
0.0256452
0.0268918
0.0272094
0.0233303
0.0267229
0.0225832
0.0240889
0.023489
0.0209387
0.0240022
0.0194374
0.0227004
0.0195911
0.0207145
0.019676
0.0192357
0.0199431
0.0181485
0.0191286
0.0183754
0.0182967
0.0178281
0.0180356
0.0166369
0.0188819
0.0159058
0.0190717
0.0164319
0.0188931
0.0168372
0.0186535
0.0174517
0.0186934
0.0194001
0.0189465
0.0206362
0.0201872
0.0218237
0.0234142
0.0232235
0.026369
0.0249501
0.0278555
0.0293236
0.0303293
0.0342854
0.0342897
0.0380779
0.0394806
0.0419277
0.0460937
0.0476814
0.0519488
0.054832
0.0574355
0.0617245
0.0639967
0.0687914
0.0720237
0.0761638
0.0805439
0.084537
0.0888835
0.0929644
0.0971265
0.101319
0.370298
0.280835
0.224485
0.18627
0.158738
0.137948
0.12211
0.108929
0.0989525
0.0897589
0.0829209
0.0763666
0.0710325
0.0666065
0.0618861
0.0590624
0.0548897
0.0527384
0.0497064
0.0471273
0.0458363
0.0422989
0.0424826
0.0387026
0.0388803
0.0365509
0.0349454
0.035235
0.0314671
0.0336478
0.0292548
0.0312696
0.0282135
0.0285162
0.0276028
0.0261212
0.0266229
0.0247256
0.0248814
0.0241709
0.0230086
0.0235992
0.0215951
0.0227929
0.0205897
0.0218521
0.019866
0.0208769
0.0194529
0.0195528
0.0197776
0.018015
0.0198245
0.0175143
0.0191058
0.0177572
0.0180878
0.0183369
0.017315
0.0189401
0.0171248
0.0190798
0.0182769
0.0184046
0.0200903
0.0183545
0.0212861
0.020231
0.0218313
0.0230132
0.0226375
0.0258287
0.0252688
0.0280043
0.0294155
0.030284
0.0334155
0.0344398
0.0376547
0.0398893
0.0422894
0.0458055
0.0477443
0.0516259
0.0547346
0.0579826
0.0619095
0.065248
0.0690273
0.0728156
0.0764274
0.0807749
0.0845159
0.0888422
0.0930218
0.0974204
0.101682
0.105968
0.110398
0.114758
0.370312
0.280824
0.224501
0.186287
0.158703
0.138041
0.12198
0.10911
0.0987586
0.0899386
0.0828027
0.0763731
0.071159
0.0663189
0.0622868
0.0585717
0.0553475
0.0523629
0.0498547
0.0472119
0.0454313
0.0429209
0.0416608
0.0395083
0.0381745
0.03692
0.0349486
0.0347455
0.0323489
0.0324533
0.0305884
0.0300293
0.0292382
0.0280319
0.0276623
0.0268279
0.0257845
0.0261044
0.0241724
0.0251567
0.023436
0.0237194
0.0233587
0.0225107
0.023056
0.0223264
0.0222448
0.0229753
0.0217499
0.0234497
0.0226141
0.0234487
0.0245087
0.0239975
0.0265809
0.0258517
0.0285528
0.0291819
0.0307564
0.0335921
0.0339876
0.0383304
0.039054
0.0431174
0.0457094
0.048617
0.0530728
0.0554503
0.0606065
0.0636825
0.0681825
0.072895
0.0764773
0.082289
0.0860134
0.0915577
0.096227
0.101091
0.106586
0.111022
0.116679
0.121349
0.126371
0.131482
0.135993
0.141076
0.145612
0.150454
0.155036
0.159553
0.164028
0.168401
0.172653
0.176851
0.180996
0.185138
0.189022
0.193026
0.196848
0.200808
0.370316
0.280831
0.22451
0.18631
0.158683
0.138094
0.121913
0.109191
0.0986626
0.0900044
0.0827426
0.0763442
0.0712107
0.0661433
0.0624591
0.0583031
0.0555276
0.0521723
0.0498546
0.0472843
0.0451415
0.0432829
0.0412085
0.0399349
0.037921
0.0370729
0.0352436
0.0344898
0.033254
0.0320368
0.0318861
0.0299458
0.0306931
0.0287633
0.029257
0.0287343
0.0277961
0.0294257
0.0272014
0.0301132
0.0282655
0.0306767
0.0309263
0.0319131
0.034455
0.0348873
0.0383822
0.0399215
0.0431346
0.0465061
0.0495503
0.0541075
0.0578095
0.0625402
0.0675471
0.0721625
0.0781691
0.0831569
0.0893228
0.0953033
0.100985
0.107951
0.113337
0.120511
0.126247
0.132784
0.139131
0.144819
0.151691
0.156945
0.163519
0.169162
0.174755
0.181087
0.185903
0.19224
0.197024
0.202618
0.20787
0.212556
0.218098
0.222372
0.227461
0.232021
0.236482
0.241209
0.245349
0.249865
0.253862
0.257954
0.261816
0.265594
0.269234
0.272727
0.276248
0.279536
0.282782
0.285945
0.288998
0.292231
0.37032
0.280841
0.224519
0.186315
0.158668
0.138098
0.121857
0.109196
0.0985632
0.0900013
0.0826229
0.076305
0.0711196
0.0660411
0.0624482
0.0581511
0.055614
0.052064
0.0500126
0.0473881
0.0453544
0.0437733
0.0415917
0.0409286
0.0388111
0.0386736
0.0371079
0.0370025
0.0365986
0.0361067
0.0373623
0.0364904
0.0392723
0.0388313
0.0422739
0.0435759
0.0466933
0.0506494
0.0532872
0.059638
0.062663
0.0701373
0.0747088
0.0820552
0.0887904
0.0956406
0.103947
0.110768
0.119528
0.126952
0.13536
0.143439
0.151218
0.159418
0.16707
0.174792
0.182484
0.18962
0.197047
0.203964
0.210666
0.217664
0.223589
0.230453
0.236042
0.242323
0.248207
0.253649
0.259738
0.264474
0.270253
0.274961
0.279862
0.285005
0.289024
0.294251
0.297978
0.302662
0.306685
0.310541
0.314906
0.318221
0.322396
0.325777
0.329385
0.332957
0.336101
0.339562
0.342489
0.345635
0.348471
0.351375
0.35409
0.356772
0.359483
0.361935
0.364536
0.366875
0.369324
0.37185
0.370319
0.280843
0.224506
0.186271
0.158608
0.138001
0.121738
0.109062
0.0983892
0.0898764
0.0824414
0.0762758
0.0710628
0.0662381
0.0627374
0.0587563
0.0565753
0.0533995
0.0520697
0.0499532
0.0490591
0.0483666
0.0478192
0.0487842
0.0489353
0.0514504
0.0530159
0.0568518
0.0605528
0.0655149
0.0718445
0.0779294
0.0866399
0.0937905
0.104074
0.112518
0.123215
0.133227
0.143553
0.15504
0.164658
0.176594
0.185724
0.196971
0.206184
0.215935
0.225337
0.233638
0.24275
0.250281
0.258468
0.265808
0.273043
0.280099
0.286618
0.293027
0.299155
0.304847
0.310591
0.315894
0.321035
0.326295
0.330791
0.335958
0.340115
0.344836
0.349055
0.353003
0.357305
0.360567
0.364707
0.367848
0.371377
0.374878
0.377633
0.381312
0.383717
0.387089
0.389693
0.39242
0.395384
0.3976
0.400596
0.40281
0.405452
0.407905
0.410177
0.412687
0.414765
0.417123
0.419151
0.421371
0.423356
0.425435
0.427481
0.429339
0.431414
0.433152
0.435185
0.437158
0.370303
0.280799
0.224387
0.186103
0.158401
0.137748
0.121526
0.108908
0.0984593
0.0902607
0.0833447
0.0780057
0.0737163
0.0703132
0.0682672
0.0664504
0.0666031
0.0664844
0.0686942
0.0707427
0.0750806
0.0801202
0.0868678
0.0953402
0.104709
0.116312
0.127934
0.141483
0.154883
0.169456
0.184336
0.198729
0.213527
0.226584
0.240622
0.25233
0.264968
0.275801
0.286518
0.296874
0.305637
0.315508
0.322808
0.331567
0.338129
0.345336
0.351796
0.357614
0.363912
0.368953
0.374661
0.379399
0.384197
0.388671
0.39281
0.39688
0.400712
0.404298
0.40791
0.411212
0.414454
0.417745
0.420538
0.423844
0.426398
0.429493
0.432141
0.434768
0.437614
0.439739
0.442618
0.444628
0.447152
0.449471
0.451344
0.453907
0.455444
0.457896
0.459564
0.461551
0.463563
0.46511
0.467282
0.468763
0.470757
0.47244
0.474152
0.475976
0.477504
0.479302
0.480793
0.482531
0.484014
0.485676
0.487236
0.488703
0.49037
0.491687
0.493416
0.494994
0.370193
0.280547
0.224218
0.186071
0.158684
0.13856
0.123376
0.112392
0.104343
0.0993637
0.0967646
0.0966255
0.0983494
0.101981
0.107711
0.114875
0.124514
0.135257
0.148786
0.163223
0.180449
0.198668
0.218279
0.238347
0.258165
0.277859
0.295624
0.312856
0.327973
0.342333
0.354992
0.366429
0.377329
0.386353
0.395821
0.40318
0.411341
0.417793
0.424425
0.430446
0.435383
0.441092
0.444834
0.4498
0.452926
0.456916
0.460128
0.463153
0.466493
0.468996
0.472168
0.474583
0.477337
0.479808
0.482178
0.484555
0.48677
0.488909
0.491064
0.493038
0.495023
0.497025
0.498731
0.50082
0.50236
0.504384
0.50601
0.507753
0.509604
0.510985
0.512986
0.51427
0.516096
0.51764
0.519023
0.520854
0.521931
0.523775
0.524891
0.526436
0.527818
0.529006
0.5306
0.531654
0.533205
0.534377
0.535733
0.537073
0.53825
0.539645
0.540783
0.542173
0.543316
0.544682
0.545892
0.547105
0.548453
0.5495
0.550966
0.552237
0.369473
0.281387
0.228606
0.193069
0.170691
0.155982
0.150082
0.150493
0.156507
0.167353
0.181585
0.198842
0.21841
0.239701
0.262398
0.285542
0.309506
0.332969
0.35707
0.380163
0.403421
0.423774
0.44178
0.457337
0.470393
0.482559
0.492309
0.501224
0.508172
0.51473
0.520078
0.524871
0.529409
0.532776
0.536737
0.539186
0.542582
0.544689
0.547378
0.549636
0.551525
0.554019
0.555344
0.557806
0.558909
0.560982
0.562239
0.563698
0.565255
0.566313
0.567934
0.568951
0.570426
0.571592
0.572855
0.574121
0.575298
0.576512
0.577706
0.578846
0.579999
0.581175
0.582183
0.583459
0.584363
0.585656
0.586613
0.58775
0.588906
0.589787
0.591149
0.591961
0.59327
0.594259
0.595275
0.596509
0.597269
0.598587
0.599314
0.600478
0.601381
0.602293
0.603414
0.604171
0.605344
0.606141
0.607211
0.608166
0.609075
0.61013
0.611
0.6121
0.612981
0.61409
0.615019
0.616038
0.617079
0.617971
0.619174
0.620198
0.37219
0.315458
0.29282
0.279525
0.286375
0.295389
0.331447
0.373632
0.418598
0.463088
0.504534
0.541618
0.573466
0.599925
0.621231
0.637778
0.650612
0.659975
0.667535
0.67292
0.677768
0.681542
0.6852
0.688102
0.690544
0.692746
0.694169
0.695788
0.696283
0.697157
0.697185
0.697361
0.697445
0.697086
0.697353
0.696718
0.697041
0.696465
0.696654
0.696448
0.696346
0.696627
0.696307
0.696837
0.696479
0.696973
0.696759
0.696977
0.697101
0.697043
0.697386
0.69732
0.697698
0.697792
0.698121
0.698407
0.698708
0.699096
0.699459
0.699871
0.700285
0.700762
0.701146
0.701731
0.702091
0.702747
0.70315
0.703744
0.704326
0.704789
0.70557
0.706001
0.706817
0.70736
0.708043
0.708785
0.709299
0.710168
0.710623
0.711458
0.712015
0.712708
0.713451
0.714012
0.714868
0.715426
0.716258
0.716924
0.717653
0.718442
0.719131
0.72
0.720705
0.72161
0.722349
0.723225
0.72401
0.724805
0.725718
0.726436
0.606742
0.839813
0.952198
0.969554
0.937536
0.881265
0.821354
0.769013
0.724408
0.6884
0.660659
0.640154
0.625365
0.61499
0.607629
0.60242
0.598494
0.59543
0.592936
0.590761
0.589039
0.587459
0.58641
0.58541
0.584779
0.584209
0.583724
0.583475
0.583023
0.582789
0.582299
0.581902
0.581397
0.58083
0.580368
0.579682
0.579265
0.578561
0.578146
0.577534
0.577085
0.576637
0.576139
0.575872
0.575369
0.575198
0.57477
0.574597
0.574302
0.574076
0.57391
0.573661
0.573582
0.57338
0.573332
0.573218
0.573186
0.573161
0.573165
0.573208
0.573257
0.573352
0.573442
0.573597
0.573709
0.573915
0.57406
0.574286
0.574504
0.574733
0.57505
0.575294
0.575666
0.575951
0.57632
0.57668
0.577021
0.57746
0.577795
0.578269
0.578638
0.579097
0.579541
0.579968
0.580478
0.580897
0.581424
0.58188
0.582391
0.582906
0.583413
0.583969
0.584494
0.585069
0.585623
0.586169
0.58673
0.587175
0.587513
0.587469
0.010142
2.27114
2.87708
3.08282
3.22937
3.28344
3.25988
3.18855
3.08564
2.97572
2.86583
2.75896
2.66048
2.57236
2.48924
2.41111
2.33367
2.25072
2.17002
2.08673
1.98772
1.88297
1.7741
1.6439
1.50557
1.37946
1.25056
1.12388
1.02477
0.945583
0.866537
0.797256
0.741078
0.684054
0.625859
0.575205
0.532602
0.498747
0.478852
0.476126
0.492308
0.521207
0.548048
0.566228
0.57958
0.587172
0.584668
0.577519
0.5751
0.576685
0.575621
0.566969
0.549077
0.524773
0.498075
0.47069
0.441728
0.409508
0.37317
0.33288
0.289553
0.244673
0.200413
0.159484
0.12421
0.0955259
0.0731701
0.0561919
0.0434272
0.0338255
0.0265799
0.021134
0.0171223
0.0142606
0.0122866
0.0109697
0.0101121
0.00956404
0.00920269
0.00894242
0.0087198
0.00850811
0.00829598
0.00809318
0.00790774
0.00775473
0.00763551
0.00755235
0.00749472
0.00745943
0.00743577
0.00742322
0.00741399
0.00741038
0.00740647
0.00740602
0.0074039
0.00740454
0.00740323
0.00740538
0.375992
1.11404
2.0589
2.5102
2.74443
2.8417
2.84963
2.7999
2.71546
2.61881
2.52202
2.42974
2.34726
2.27671
2.21153
2.15068
2.09056
2.02307
1.95567
1.88535
1.79675
1.69951
1.59852
1.47481
1.34023
1.22038
1.10028
0.980934
0.889885
0.820635
0.748582
0.686906
0.640595
0.591345
0.539203
0.497355
0.464457
0.439114
0.429128
0.437171
0.459235
0.489407
0.518225
0.540312
0.557562
0.568143
0.56769
0.561023
0.557649
0.557619
0.554638
0.544018
0.524528
0.499419
0.472963
0.446704
0.419593
0.38961
0.355554
0.317459
0.276122
0.232957
0.190114
0.150262
0.115801
0.0878452
0.0662312
0.050067
0.0381969
0.0295151
0.0231695
0.0185776
0.015307
0.0130253
0.0114624
0.0104176
0.0097285
0.00928261
0.00898362
0.00876834
0.00858187
0.00840319
0.0082184
0.00803993
0.00787249
0.00773337
0.00762163
0.00754422
0.00748877
0.0074561
0.0074325
0.00742135
0.0074114
0.00740888
0.00740404
0.00740473
0.00740171
0.00740376
0.00740179
0.00740593
0.556348
0.544746
1.01467
1.5703
1.96923
2.18167
2.27037
2.2808
2.24509
2.18476
2.11795
2.05218
1.99144
1.94017
1.89352
1.84993
1.80731
1.75626
1.70241
1.64589
1.56976
1.48213
1.39151
1.27775
1.15071
1.04029
0.931003
0.819669
0.737839
0.679576
0.616013
0.5638
0.530816
0.492642
0.449523
0.420423
0.402446
0.389511
0.392211
0.414126
0.442604
0.469215
0.493113
0.514243
0.533143
0.545935
0.547306
0.541113
0.536664
0.534785
0.529629
0.516882
0.495965
0.470456
0.444655
0.419905
0.39492
0.367378
0.335773
0.299999
0.260768
0.219466
0.178244
0.139746
0.106404
0.0794881
0.0589284
0.0438646
0.0330897
0.0254734
0.0201335
0.0164229
0.0138493
0.0120737
0.0108489
0.0100151
0.00944894
0.00907261
0.0088131
0.00862563
0.00846348
0.00831029
0.00814947
0.00799375
0.00784488
0.00772036
0.00761662
0.00754424
0.0074905
0.00745944
0.00743564
0.00742511
0.00741445
0.00741244
0.00740687
0.00740823
0.00740459
0.00740754
0.00740519
0.00741074
0.531943
0.496181
0.559696
0.762758
1.06339
1.33443
1.51331
1.60849
1.64604
1.64702
1.63116
1.60736
1.58004
1.55686
1.53461
1.51202
1.4894
1.45655
1.41717
1.3752
1.31267
1.23593
1.15712
1.05499
0.936847
0.837707
0.741274
0.639299
0.570689
0.527633
0.475473
0.436034
0.421482
0.398979
0.368388
0.35768
0.361923
0.365926
0.383455
0.421473
0.457171
0.474534
0.483013
0.494118
0.509409
0.521947
0.524087
0.518066
0.512399
0.508471
0.500954
0.486056
0.464103
0.438855
0.414345
0.391634
0.369113
0.34417
0.315053
0.281525
0.244284
0.204782
0.165225
0.128271
0.0963423
0.0707959
0.0516123
0.0378879
0.0283776
0.021935
0.0176171
0.0147214
0.0127481
0.0113827
0.0104171
0.00973579
0.00925203
0.0089176
0.0086789
0.00850579
0.00835842
0.00822456
0.00808523
0.00795103
0.00781984
0.00770951
0.00761478
0.00754814
0.00749656
0.00746678
0.00744264
0.00743226
0.00742081
0.00741895
0.00741271
0.00741443
0.00741031
0.0074139
0.0074113
0.007418
0.47287
0.463913
0.460757
0.48623
0.554812
0.664013
0.782188
0.890851
0.973222
1.02802
1.065
1.08752
1.10022
1.11307
1.12183
1.12538
1.12677
1.11516
1.09292
1.06712
1.01993
0.9559
0.89058
0.802174
0.695491
0.611355
0.533416
0.449161
0.402558
0.383047
0.349202
0.329062
0.337597
0.334322
0.320029
0.332089
0.361947
0.385079
0.416888
0.470153
0.5141
0.519841
0.501869
0.49029
0.492756
0.499804
0.500135
0.493274
0.486053
0.47988
0.469967
0.453213
0.430923
0.40693
0.384631
0.364657
0.344999
0.322754
0.295968
0.264314
0.228603
0.190495
0.152352
0.116903
0.0865385
0.0625698
0.0449333
0.03266
0.0244646
0.019149
0.015726
0.0134952
0.011985
0.0109215
0.0101381
0.00955712
0.00912158
0.00880647
0.00857349
0.00840389
0.00826337
0.00814302
0.00802198
0.00790777
0.00779348
0.00769698
0.00761237
0.00755266
0.00750416
0.00747578
0.00745141
0.0074409
0.00742868
0.00742668
0.00741982
0.00742166
0.00741716
0.00742113
0.0074184
0.00742594
0.411047
0.411613
0.406929
0.402391
0.403281
0.414586
0.430057
0.454536
0.482207
0.510732
0.544552
0.576459
0.604877
0.638502
0.669377
0.694574
0.718429
0.728259
0.724987
0.717115
0.687668
0.640036
0.591869
0.523414
0.44021
0.383668
0.338631
0.291528
0.28131
0.290875
0.281608
0.284959
0.313555
0.325837
0.327673
0.360078
0.411205
0.450496
0.493411
0.558698
0.611976
0.609846
0.562353
0.516024
0.493677
0.486601
0.480146
0.470092
0.460413
0.451629
0.439428
0.421526
0.399973
0.378514
0.359627
0.34324
0.32684
0.307271
0.282427
0.251947
0.216909
0.179369
0.142
0.10766
0.0786696
0.0561582
0.0399246
0.0289203
0.0218012
0.0173337
0.0145405
0.0127554
0.0115448
0.0106707
0.0099962
0.00946908
0.00905206
0.00873663
0.00849576
0.00831946
0.0081776
0.00806385
0.00795589
0.00785906
0.00776202
0.0076808
0.00760721
0.00755488
0.00750991
0.0074833
0.00745902
0.00744854
0.00743568
0.00743352
0.0074261
0.00742796
0.00742311
0.00742732
0.00742448
0.0074326
0.343634
0.346072
0.344764
0.339026
0.330798
0.322411
0.312415
0.303902
0.2954
0.286837
0.282991
0.281358
0.281406
0.290863
0.303987
0.319104
0.340879
0.355648
0.3625
0.36803
0.357032
0.33295
0.310449
0.277269
0.242979
0.234872
0.236121
0.238453
0.262875
0.290698
0.29983
0.319549
0.355493
0.373758
0.387662
0.434673
0.499229
0.550037
0.603065
0.678412
0.740993
0.737306
0.667428
0.583176
0.525692
0.493949
0.47331
0.455927
0.44184
0.429633
0.415272
0.397197
0.377729
0.360097
0.345807
0.333666
0.3206
0.303326
0.279688
0.249327
0.213699
0.175455
0.137742
0.103591
0.0751913
0.0534245
0.0379113
0.0275214
0.0208805
0.0167621
0.014212
0.0125914
0.0114863
0.0106739
0.0100256
0.00949936
0.00906525
0.0087253
0.00845836
0.00826199
0.00810748
0.00799181
0.00788986
0.00780693
0.00772537
0.00765954
0.00759632
0.00755202
0.00751062
0.00748717
0.00746319
0.00745403
0.00744041
0.00743911
0.00743069
0.00743339
0.00742761
0.00743278
0.00742926
0.00743858
0.263209
0.267147
0.268212
0.264837
0.258008
0.248365
0.236619
0.224412
0.211574
0.199177
0.188671
0.179458
0.171947
0.1681
0.165608
0.165042
0.168731
0.171357
0.17389
0.178829
0.1801
0.18119
0.187237
0.19504
0.210867
0.238902
0.266357
0.292877
0.328237
0.35687
0.372282
0.399429
0.435233
0.4554
0.480539
0.53967
0.611455
0.669724
0.733135
0.817283
0.886892
0.888031
0.807548
0.694155
0.599091
0.535433
0.493299
0.46359
0.442095
0.424862
0.407939
0.390088
0.373335
0.360183
0.350796
0.342616
0.332019
0.315869
0.29215
0.260552
0.222868
0.182397
0.142844
0.107442
0.0782728
0.0560074
0.0401145
0.029385
0.0224233
0.0180218
0.0152296
0.0134102
0.012138
0.0111889
0.0104214
0.00979423
0.00926724
0.00885049
0.00851678
0.00827379
0.0080841
0.00795324
0.00784376
0.00776835
0.00769392
0.00764275
0.00758637
0.00755365
0.00751441
0.00749902
0.00747367
0.00747061
0.00745369
0.0074578
0.00744512
0.00745319
0.00744287
0.0074538
0.00744638
0.00746227
0.175722
0.179303
0.181252
0.180297
0.176666
0.170539
0.163489
0.156447
0.1501
0.145484
0.142864
0.142091
0.143326
0.14621
0.149604
0.154085
0.159858
0.165529
0.173141
0.183445
0.195221
0.210831
0.231372
0.255923
0.285837
0.319893
0.351418
0.383411
0.418635
0.44439
0.463782
0.496383
0.532015
0.55679
0.595519
0.663785
0.734254
0.792401
0.862251
0.952661
1.028
1.03837
0.963509
0.837123
0.712856
0.61887
0.552791
0.507066
0.47477
0.449811
0.428311
0.409139
0.39389
0.383938
0.37779
0.371471
0.361084
0.344003
0.318438
0.284246
0.243402
0.199566
0.156958
0.119052
0.0879456
0.0642354
0.0472362
0.0355761
0.0277428
0.0225395
0.0190017
0.0165087
0.0146184
0.0131351
0.0118993
0.0108976
0.0100562
0.00940839
0.00888537
0.00852204
0.00823342
0.00805675
0.00790383
0.00782646
0.00773804
0.00770725
0.00764675
0.00764081
0.0075953
0.0076058
0.00756849
0.00758959
0.00755567
0.00758375
0.00755083
0.00758421
0.00755235
0.00759182
0.00756532
0.00761541
0.10468
0.108368
0.111508
0.114182
0.116224
0.117993
0.120946
0.1252
0.131285
0.139495
0.148899
0.159729
0.171283
0.182681
0.193874
0.204937
0.215994
0.227417
0.240732
0.256185
0.27382
0.29508
0.319947
0.348647
0.380544
0.413222
0.445454
0.480026
0.514089
0.540222
0.567047
0.603427
0.637168
0.666973
0.712948
0.774419
0.82982
0.882783
0.956656
1.04991
1.1281
1.15225
1.10281
0.986697
0.850897
0.736965
0.652155
0.590286
0.544283
0.508011
0.478194
0.45404
0.436608
0.426107
0.419442
0.411382
0.398293
0.377983
0.34891
0.311355
0.267348
0.220373
0.174882
0.134721
0.102061
0.077419
0.0597692
0.0475815
0.0390938
0.0331132
0.0285756
0.0249483
0.0217832
0.019061
0.0166015
0.014562
0.012804
0.0114958
0.0104171
0.00971916
0.00913121
0.00882677
0.0085211
0.00843519
0.00827559
0.00830805
0.00821154
0.00829867
0.00821399
0.00832122
0.00822684
0.00834385
0.00823498
0.00836229
0.00824216
0.00838386
0.00825927
0.00842616
0.00831583
0.00852758
0.119015
0.123212
0.127872
0.133742
0.141117
0.150218
0.161566
0.174647
0.189234
0.205034
0.220829
0.236929
0.252198
0.266262
0.279542
0.292245
0.304496
0.317349
0.331654
0.34748
0.366176
0.388616
0.414288
0.442277
0.471882
0.503274
0.537185
0.572877
0.605651
0.633916
0.665124
0.699126
0.727228
0.753831
0.789375
0.829138
0.867729
0.918507
0.995596
1.08838
1.16608
1.20029
1.17842
1.09691
0.975485
0.858202
0.764448
0.689156
0.628387
0.578521
0.537331
0.504712
0.481625
0.467174
0.456419
0.443632
0.42577
0.400938
0.367744
0.326959
0.281054
0.233718
0.188767
0.149858
0.118636
0.0953726
0.078531
0.0668338
0.058402
0.0522221
0.0468693
0.0421439
0.0373625
0.0329694
0.0285294
0.024727
0.021139
0.0185056
0.0161491
0.0147395
0.0133862
0.0128287
0.0121005
0.0120798
0.0117257
0.0120311
0.0118304
0.0122651
0.0120452
0.0125
0.0121998
0.0126579
0.0122801
0.0127581
0.0123318
0.0128506
0.0124079
0.0130186
0.0126216
0.0134089
0.204721
0.208732
0.213464
0.219871
0.228499
0.239151
0.25217
0.266435
0.281828
0.297605
0.312708
0.327597
0.341328
0.353768
0.365797
0.377563
0.389206
0.401637
0.415564
0.430885
0.448864
0.469928
0.492884
0.517696
0.545767
0.57831
0.614111
0.648765
0.678744
0.705384
0.731874
0.754424
0.768752
0.780837
0.798255
0.821661
0.854148
0.906797
0.985405
1.07517
1.14953
1.18774
1.1835
1.13316
1.0429
0.939738
0.844421
0.7597
0.686723
0.625209
0.573997
0.534138
0.506448
0.488142