/*--------------------------------*- C++ -*----------------------------------*\
| =========                 |                                                 |
| \\      /  F ield         | OpenFOAM: The Open Source CFD Toolbox           |
|  \\    /   O peration     | Version:  v2012                                 |
|   \\  /    A nd           | Website:  www.openfoam.com                      |
|    \\/     M anipulation  |                                                 |
\*---------------------------------------------------------------------------*/
FoamFile
{
    version     2.0;
    format      ascii;
    class       volScalarField;
    location    "0.165";
    object      epsilon.air;
}
// * * * * * * * * * * * * * * * * * * * * * * * * * * * * * * * * * * * * * //

dimensions      [0 2 -3 0 0 0 0];


internalField   nonuniform List<scalar> 
1900
(
112.724
141.424
210.097
257.591
369.051
443.457
614.74
724.902
971.328
1128.6
15.4676
16.4471
18.6373
20.4504
23.7571
27.7277
32.0002
39.3099
44.9863
56.9806
14.7926
14.6415
14.5755
14.5063
14.515
14.5558
14.6443
14.8291
15.0762
15.4175
14.77
14.6304
14.4634
14.3354
14.1726
14.0589
13.904
13.8079
13.6654
13.5937
14.7766
14.6216
14.4704
14.3204
14.1748
14.0289
13.889
13.7471
13.614
13.4768
14.7777
14.6205
14.4714
14.3196
14.1754
14.0283
13.8892
13.7472
13.6134
13.4773
14.7777
14.6207
14.473
14.3235
14.1841
14.045
13.9176
13.7914
13.6808
13.5715
14.7761
14.6497
14.5637
14.5032
14.5108
14.5499
14.64
14.818
15.0464
15.3933
15.2129
16.5983
18.2779
20.6743
23.5958
27.564
32.2731
38.391
45.5833
54.7904
105.945
146.554
198.354
265.735
349.968
456.03
585.593
743.666
931.774
1154.04
4099.64
15203.8
19578.9
22427.6
21089.2
17991.8
15066.9
12779.2
11295.4
10385
9890.24
9713.95
9536.06
9265.13
8854.85
8353.04
7796.93
7210.27
6644.29
6125.91
5648.95
5222.31
4838.1
4487.14
4167.68
3878.19
3615.58
3377.98
3162.17
2966.28
2787.98
2625.24
2476.4
2339.9
2214.58
2099.25
1992.96
1894.74
1803.84
1719.5
1641.14
1568.16
1500.1
1436.51
1377.03
1321.3
1269.02
1219.91
1173.72
1130.2
1089.15
1050.36
1013.65
978.856
945.823
914.403
884.49
855.947
828.702
802.632
777.696
753.774
730.857
708.818
687.684
667.31
647.76
628.867
610.742
593.179
576.351
560.001
544.374
529.14
514.639
500.437
486.991
473.738
461.278
448.885
437.338
425.71
415.009
404.054
394.142
383.775
374.615
364.757
356.334
346.912
339.23
330.166
323.249
314.453
308.339
299.701
294.435
285.825
281.441
271.118
112.978
337.95
517.974
922.076
1123.61
1147.37
1119.65
1055.45
1051.02
1090.85
1197.11
1412.31
1699.35
2031.84
2382.3
2694.53
2971.92
3204.59
3360.12
3435.8
3427.49
3388.19
3302.07
3184.04
3055.44
2924.09
2793.23
2666.77
2543.37
2426.04
2314.09
2207.21
2105.89
2010
1919.67
1834.61
1754.73
1679.49
1608.71
1542.06
1479.28
1420.07
1364.18
1311.39
1261.49
1214.26
1169.53
1127.14
1086.91
1048.7
1012.38
977.801
944.85
913.399
883.352
854.594
827.052
800.619
775.253
750.854
727.407
704.817
683.093
662.132
641.974
622.495
603.771
585.648
568.243
551.362
535.178
519.445
504.402
489.736
475.771
462.103
449.159
436.417
424.434
412.539
401.453
390.319
380.068
369.606
360.136
350.261
341.532
332.166
324.158
315.226
307.941
299.366
292.819
284.513
278.737
270.594
265.626
257.522
253.398
243.699
16.4231
19.8725
22.8867
29.0973
34.7732
38.6964
41.6597
43.7071
46.656
50.6824
58.7697
71.0649
95.744
130.537
190.032
268.145
374.59
509.635
667.471
838.63
1006.74
1164.34
1303.55
1419.59
1509.12
1571.69
1609.36
1627.09
1624.6
1614.08
1591.68
1561.75
1527.58
1490.44
1451.87
1412.13
1372.24
1331.84
1291.96
1252.75
1214.28
1176.72
1140.19
1104.73
1070.37
1037.07
1004.89
973.742
943.624
914.522
886.407
859.232
832.972
807.573
783.016
759.239
736.236
713.94
692.358
671.426
651.167
631.52
612.521
594.098
576.313
559.067
542.452
526.332
510.831
495.769
481.322
467.253
453.803
440.666
428.164
415.904
404.306
392.865
382.122
371.434
361.497
351.49
342.307
332.904
324.426
315.549
307.739
299.314
292.153
284.114
277.6
269.876
264.021
256.534
251.363
244.023
239.569
232.269
228.561
219.829
13.4532
13.4607
13.5467
13.8035
14.3355
15.0089
15.7208
16.3376
16.9254
17.3373
17.8925
18.3575
19.3152
20.491
22.7453
26.2815
31.8032
40.8308
54.8221
76.445
106.795
147.476
199.145
260.871
330.21
404.616
479.63
553.232
620.429
682.088
735.526
779.862
814.874
840.807
859.084
870.348
875.838
875.269
872.526
866.412
857.58
846.842
834.757
821.388
807.12
792.055
776.47
760.274
743.807
727.151
710.352
693.492
676.658
659.898
643.286
626.815
610.586
594.559
578.827
563.341
548.191
533.337
518.847
504.68
490.927
477.512
464.539
451.888
439.692
427.779
416.338
405.13
394.416
383.877
373.86
363.958
354.611
345.301
336.592
327.837
319.745
311.497
303.987
296.189
289.229
281.821
275.382
268.307
262.384
255.593
250.181
243.615
238.725
232.327
227.981
221.686
217.914
211.647
208.471
200.968
13.33
13.1588
13.0627
13.1171
13.3062
13.7189
14.2888
14.9091
15.4516
15.8733
16.2053
16.426
16.6187
16.7557
16.906
17.0925
17.3422
17.7365
18.3241
19.3272
20.8484
23.2804
26.7828
32.1597
39.766
50.5645
64.8361
83.3281
105.984
132.875
163.474
196.802
232.083
267.653
302.922
336.107
367.385
395.494
420.39
441.582
459.331
473.58
484.854
493.21
499.077
502.709
504.479
504.193
503.015
500.439
496.609
491.841
486.345
480.167
473.501
466.394
459.006
451.308
443.496
435.481
427.462
419.35
411.259
403.187
395.245
387.355
379.617
371.929
364.423
356.956
349.715
342.48
335.524
328.516
321.86
315.097
308.746
302.24
296.212
289.955
284.247
278.221
272.83
267.011
261.931
256.291
251.519
246.03
241.56
236.181
232.031
226.746
222.941
217.726
214.293
209.118
206.085
200.917
198.307
192.097
13.3252
13.1542
13.0317
13.0867
13.2965
13.7734
14.5014
15.4889
16.5023
17.5962
18.5869
19.5143
20.2504
20.864
21.2989
21.6096
21.7834
21.8556
21.8408
21.7967
21.7028
21.601
21.5284
21.5548
21.6639
21.9247
22.4537
23.3628
24.8196
26.9708
30.1844
34.5423
40.5591
48.1282
57.6058
68.8466
82.0314
96.7594
112.946
130
147.644
165.343
182.756
199.513
215.31
229.95
243.348
255.375
266.086
275.533
283.759
290.857
296.951
302.109
306.437
310.007
312.932
315.175
316.933
318.048
318.831
318.96
318.792
318.336
317.401
316.092
314.481
312.56
310.43
308.026
305.475
302.662
299.781
296.596
293.52
290.044
286.801
283.118
279.781
275.958
272.584
268.663
265.3
261.31
257.997
253.955
250.723
246.638
243.519
239.397
236.417
232.26
229.448
225.26
222.647
218.436
216.052
211.827
209.704
204.61
13.4658
13.36
13.4097
13.6559
14.3048
15.6848
18.0369
21.4452
25.3881
29.6981
33.6009
37.0571
39.5638
41.5386
42.6333
43.3572
43.379
43.2456
42.9178
42.4159
41.7778
41.1254
40.4783
39.8935
39.351
38.8772
38.5102
38.2494
38.1451
38.195
38.363
38.6961
39.3553
40.2072
41.5244
43.2151
45.4916
48.4154
52.1197
56.8103
62.5109
69.4636
77.5783
87.0485
97.6731
109.526
122.291
135.955
150.114
164.71
179.333
193.922
208.146
221.962
235.144
247.65
259.384
270.286
280.37
289.569
297.937
305.454
312.115
318.003
323.107
327.468
331.116
334.076
336.345
338.061
339.16
339.791
339.746
339.452
338.81
337.481
336.222
334.204
332.478
329.95
327.868
324.953
322.637
319.433
316.981
313.559
311.044
307.454
304.931
301.208
298.723
294.898
292.49
288.596
286.302
282.376
280.232
276.317
274.377
269.727
15.9125
16.8533
18.5546
21.9168
28.4276
39.4915
55.4776
75.0294
95.3791
114.256
129.213
140.035
146.38
150.136
150.839
150.418
149.269
147.74
146.286
145.123
144.438
144.594
145.238
146.711
149.028
152.18
156.279
161.16
167.227
173.89
181.871
190.495
200.49
211.313
223.395
236.455
250.506
265.592
281.409
298.225
315.496
333.436
351.419
369.609
387.491
405.313
422.558
439.533
455.71
471.449
486.334
500.67
514.21
527.045
539.107
550.269
560.59
569.916
578.379
585.777
592.295
597.784
602.397
606.035
608.896
610.78
612.082
612.29
611.989
611.183
609.562
607.316
604.599
601.246
597.748
593.415
589.352
584.365
579.921
574.494
569.832
564.156
559.448
553.654
549.025
543.198
538.733
532.922
528.676
522.911
518.924
513.235
509.538
503.961
500.585
495.155
492.142
486.886
484.335
478.38
68.0604
90.3888
126.261
184.828
272.044
385.206
511.545
635.933
744.696
831.385
892.289
932.642
952.925
963.348
964.949
963.851
960.74
957.567
956.984
957.785
960.178
965.555
974.945
986.49
1000.19
1016.38
1035.11
1055.71
1078.07
1101.45
1126.5
1152.13
1178.93
1205.82
1233
1259.72
1285.97
1311.43
1335.93
1359.37
1381.23
1401.72
1420.43
1437.74
1453.3
1467.56
1480.18
1491.63
1501.52
1510.32
1517.7
1523.9
1528.89
1532.43
1534.99
1535.76
1535.4
1534.08
1531.4
1527.07
1522.12
1515.63
1508.69
1500.4
1491.82
1482.2
1472.11
1461.46
1450.41
1438.74
1426.95
1414.4
1402.06
1388.83
1376.19
1362.56
1349.78
1336.04
1323.42
1309.82
1297.61
1284.31
1272.67
1259.8
1248.83
1236.45
1226.26
1214.37
1205.01
1193.63
1185.13
1174.26
1166.65
1156.28
1149.58
1139.71
1133.98
1124.58
1119.97
1109.66
1464.67
1897.19
2399.11
2961.79
3563.26
4171.83
4746.05
5251.29
5654.8
5950.52
6132.56
6219.65
6207.06
6160.27
6061.69
5928.42
5777.96
5619.42
5458.85
5301.24
5149.07
5004.26
4867.63
4739.96
4621.13
4511.13
4409.6
4316.39
4231.17
4153.48
4083.16
4019.47
3962.47
3911.36
3866.08
3825.77
3790.27
3759.01
3731.82
3708.29
3688
3670.63
3655.88
3643.57
3633.39
3625.1
3618.34
3613.02
3608.74
3605.47
3602.93
3600.96
3599.63
3598.67
3598.21
3598.24
3598.53
3599.08
3600.27
3601.35
3603.13
3604.58
3606.4
3607.79
3609.14
3610.08
3610.59
3610.52
3610.15
3609.17
3607.94
3605.49
3603.17
3599.35
3595.84
3590.52
3585.62
3578.68
3572.35
3563.81
3556.15
3546.15
3537.39
3526.2
3516.7
3504.6
3494.69
3481.86
3471.78
3458.27
3448.17
3433.93
3423.94
3408.83
3399.15
3383.02
3373.86
3356.67
3347.88
3325.8
1108.7
1064.23
1122.15
1210.22
1239.07
1121.57
818.807
1980.39
54599.5
16103.3
7348.08
6105.91
6236.28
6487.92
6558.86
8032.28
74262.7
43612
24827
18466.4
16106.5
15008.6
14637
19681
76417.1
71038.2
54268.4
41212.7
32701.3
27169.8
24556.7
34081.7
69720.6
75715.1
67763.8
55664.1
44575.5
35846.5
30865.4
42708.9
57732.5
71176.8
67949.4
59044.1
48376.5
38731.1
32779.5
45221.8
47468.6
61823.6
62482.6
56604.6
47156.5
38167
32441.6
44226.1
39072.4
51806.7
53568.2
49817.6
42375.7
34659.6
29576.7
39735.2
32624
42982
44907.5
42117.6
36287.4
30031.2
25812
34024.2
27612.3
35623.1
37251.5
35107.2
30535.8
25552.4
22221
29368.9
23496.5
29588.6
30823.8
29121.2
25531.4
21635.1
19161.4
26016.8
20115.1
24700.8
25578.4
24188.5
21346
18305.4
16503.2
22988.2
17376.8
20788.7
21376
20218
17948
15565.4
14275.6
20375.1
15143.2
17664.1
18030.6
17051
15222.7
13342.1
12438.5
18171.7
13291.7
15153.2
15360.9
14525.4
13039.3
11544.9
10934.6
16341.4
11729.6
13111
13209.9
12494.2
11277
10083.2
9697.88
14817.6
10405.8
11438.8
11464.4
10848.6
9844.08
8885.89
8674.39
13542.3
9267.31
10051.2
10032.5
9499.97
8666.39
7895.56
7820.1
12466.3
8285.45
8889.14
8845.43
8383.24
7688.41
7068.45
7099.75
11550.3
7442.38
7911.01
7852.58
7450.85
6869.15
6371.53
6485.98
10765.1
6715.72
7082.75
7016.22
6666.29
6177.2
5779.1
5960.08
10086.4
6089.68
6378.07
6307.36
6001.49
5588.47
5271.69
5506.19
9494.69
5547.62
5774.81
5702.61
5434.39
5084.35
4834.48
5112.26
8976.41
5073.95
5254.14
5182.65
4946.99
4649.75
4455.55
4768.78
8521.11
4657.83
4801.74
4732.47
4525.15
4272.54
4125.09
4467.61
8119.38
4290.71
4406.45
4340.36
4157.8
3943.18
3835.25
4202.12
7763.1
3965.23
4058.99
3996.71
3835.93
3653.87
3579.56
3966.74
7445.18
3675.92
3752.24
3694.06
3552.46
3398.46
3352.93
3757.11
7160.05
3417.61
3480.14
3426.2
3301.57
3171.89
3151.12
3569.63
6903.37
3186.38
3237.88
3188.15
3078.56
2970.07
2970.76
3401.31
6671.48
2978.62
3021.32
2975.75
2879.56
2789.64
2808.61
3249.84
6461.24
2791.3
2826.97
2785.46
2701.24
2627.66
2662.54
3112.99
6270.16
2621.87
2651.96
2614.35
2540.89
2481.71
2530.59
2988.99
6096.21
2468.09
2493.75
2459.89
2396.13
2349.76
2411.03
2876.35
5937.63
2328.12
2350.27
2319.99
2264.99
2230.05
2302.35
2773.75
5792.86
2200.33
2219.7
2192.83
2145.77
2121.08
2203.27
2680.06
5660.47
2083.37
2100.53
2076.9
2037.05
2021.58
2112.65
2594.28
5539.21
1976.01
1991.44
1970.87
1937.57
1930.44
2029.53
2515.51
5427.85
1877.23
1891.3
1873.61
1846.3
1846.73
1953.06
2442.98
5325.32
1786.09
1799.14
1784.18
1762.35
1769.54
1882.58
2376.04
5230.63
1701.83
1714.12
1701.73
1684.93
1698.24
1817.43
2314.11
5142.91
1623.76
1635.5
1625.56
1613.37
1632.28
1757.07
2256.69
5061.43
1551.28
1562.67
1555.04
1547.1
1571.14
1701.04
2203.35
4985.55
1483.87
1495.07
1489.63
1485.62
1514.36
1648.95
2153.73
4914.74
1421.08
1432.21
1428.86
1428.5
1461.56
1600.46
2107.52
4848.59
1362.5
1373.69
1372.32
1375.3
1412.42
1555.27
2064.47
4786.77
1307.76
1319.1
1319.62
1325.7
1366.58
1513.09
2024.31
4729
1256.54
1268.11
1270.43
1279.42
1323.8
1473.71
1986.86
4675.08
1208.54
1220.39
1224.43
1236.14
1283.78
1436.88
1951.9
4624.79
1163.48
1175.67
1181.36
1195.63
1246.32
1402.4
1919.27
4577.98
1121.11
1133.69
1140.96
1157.64
1211.18
1370.09
1888.78
4534.46
1081.21
1094.22
1103
1121.96
1178.18
1339.76
1860.3
4494.03
1043.57
1057.04
1067.27
1088.38
1147.14
1311.26
1833.65
4456.49
1008
1021.95
1033.58
1056.74
1117.88
1284.44
1808.69
4421.58
974.336
988.802
1001.78
1026.86
1090.28
1259.16
1785.29
4389.1
942.411
957.413
971.688
998.614
1064.18
1235.29
1763.3
4358.76
912.105
927.662
943.192
971.866
1039.48
1212.72
1742.61
4330.39
883.272
899.4
916.146
946.489
1016.05
1191.33
1723.09
4303.67
855.828
872.54
890.461
922.395
993.806
1171.05
1704.66
4278.52
829.637
846.945
866.005
899.461
972.638
1151.76
1687.2
4254.65
804.65
822.559
842.722
877.631
952.486
1133.41
1670.64
4232.03
780.735
799.249
820.479
856.782
933.244
1115.91
1654.91
4210.43
757.873
776.991
799.253
836.886
914.877
1099.2
1639.93
4189.88
735.928
755.646
778.907
817.819
897.278
1083.21
1625.65
4170.18
714.917
735.23
759.455
799.589
880.444
1067.91
1612.01
4151.43
694.688
715.585
740.743
782.054
864.257
1053.22
1598.99
4133.41
675.301
696.773
722.833
765.273
848.757
1039.15
1586.54
4116.33
656.579
678.612
705.543
749.072
833.795
1025.6
1574.61
4099.82
638.636
661.219
688.995
733.572
819.482
1012.63
1563.23
4084.32
621.254
644.369
672.958
718.544
805.604
1000.08
1552.28
4069.18
604.614
628.253
657.635
704.199
792.369
988.126
1541.91
4055.17
588.442
612.581
642.719
690.22
779.462
976.475
1531.83
4041.25
573.001
597.635
628.517
676.935
767.225
965.472
1522.42
4028.68
557.934
583.032
614.614
663.9
755.19
954.635
1513.13
4015.79
543.607
569.169
601.448
651.596
743.882
944.528
1504.63
4004.63
529.552
555.535
588.455
639.402
732.619
934.405
1496.04
3992.61
516.263
542.675
576.243
628.002
722.174
925.143
1488.42
3982.8
503.127
529.911
564.058
616.543
711.574
915.622
1480.39
3971.46
490.799
517.973
552.72
605.969
701.92
907.144
1473.61
3962.93
478.484
505.978
541.236
595.137
691.872
898.108
1466.01
3952.09
467.041
494.882
530.691
585.311
682.933
890.344
1460.01
3944.65
455.45
483.557
519.807
575.002
673.33
881.677
1452.7
3934.12
444.82
473.231
509.983
565.85
665.032
874.548
1447.38
3927.57
433.861
462.482
499.608
555.973
655.779
866.148
1440.25
3917.1
423.988
452.872
490.449
547.437
648.059
859.584
1435.51
3911.21
413.577
442.62
480.506
537.917
639.079
851.362
1428.43
3900.58
404.428
433.69
471.977
529.958
631.892
845.308
1424.21
3895.1
394.491
423.867
462.403
520.737
623.128
837.201
1417.1
3884.22
386.052
415.608
454.493
513.34
616.453
831.618
1413.3
3878.79
376.522
406.149
445.234
504.374
607.87
823.598
1406.15
3867.78
368.802
398.572
437.954
497.547
601.702
818.461
1402.67
3862.36
359.605
389.416
428.958
488.801
593.292
810.554
1395.61
3851.22
352.634
382.551
422.339
482.569
587.64
805.84
1392.33
3845.86
343.685
373.621
413.545
474.005
579.401
798.101
1385.51
3834.85
337.504
367.515
407.634
468.413
574.302
793.821
1382.46
3829.6
328.7
358.716
398.965
459.981
566.222
786.307
1375.99
3819.16
323.359
353.419
393.811
455.073
561.706
782.46
1373.13
3813.93
314.575
344.642
385.177
446.707
553.767
775.229
1367.13
3804.52
310.104
340.179
380.798
442.49
549.818
771.751
1364.44
3799.95
299.546
329.603
370.366
432.364
540.207
763.051
1357.21
3789.86
)
;

boundaryField
{
    frontAndBack
    {
        type            empty;
    }
    inlet
    {
        type            fixedValue;
        value           uniform 14.855;
    }
    outlet
    {
        type            zeroGradient;
    }
    walls
    {
        lowReCorrection 0;
        blending        stepwise;
        n               2;
        type            epsilonWallFunction;
        value           nonuniform List<scalar> 
228
(
112.724
141.424
210.097
257.591
369.051
443.457
614.74
724.902
971.328
1128.6
1108.7
1064.23
1122.15
1210.22
1239.07
1121.57
818.807
1980.39
1980.39
8032.28
19681
34081.7
42708.9
45221.8
44226.1
39735.2
34024.2
29368.9
26016.8
22988.2
20375.1
18171.7
16341.4
14817.6
13542.3
12466.3
11550.3
10765.1
10086.4
9494.69
8976.41
8521.11
8119.38
7763.1
7445.18
7160.05
6903.37
6671.48
6461.24
6270.16
6096.21
5937.63
5792.86
5660.47
5539.21
5427.85
5325.32
5230.63
5142.91
5061.43
4985.55
4914.74
4848.59
4786.77
4729
4675.08
4624.79
4577.98
4534.46
4494.03
4456.49
4421.58
4389.1
4358.76
4330.39
4303.67
4278.52
4254.65
4232.03
4210.43
4189.88
4170.18
4151.43
4133.41
4116.33
4099.82
4084.32
4069.18
4055.17
4041.25
4028.68
4015.79
4004.63
3992.61
3982.8
3971.46
3962.93
3952.09
3944.65
3934.12
3927.57
3917.1
3911.21
3900.58
3895.1
3884.22
3878.79
3867.78
3862.36
3851.22
3845.86
3834.85
3829.6
3819.16
3813.93
3804.52
3799.95
3789.86
105.945
146.554
198.354
265.735
349.968
456.03
585.593
743.666
931.774
1154.04
1464.67
1897.19
2399.11
2961.79
3563.26
4171.83
4746.05
5251.29
5654.8
5950.52
6132.56
6219.65
6207.06
6160.27
6061.69
5928.42
5777.96
5619.42
5458.85
5301.24
5149.07
5004.26
4867.63
4739.96
4621.13
4511.13
4409.6
4316.39
4231.17
4153.48
4083.16
4019.47
3962.47
3911.36
3866.08
3825.77
3790.27
3759.01
3731.82
3708.29
3688
3670.63
3655.88
3643.57
3633.39
3625.1
3618.34
3613.02
3608.74
3605.47
3602.93
3600.96
3599.63
3598.67
3598.21
3598.24
3598.53
3599.08
3600.27
3601.35
3603.13
3604.58
3606.4
3607.79
3609.14
3610.08
3610.59
3610.52
3610.15
3609.17
3607.94
3605.49
3603.17
3599.35
3595.84
3590.52
3585.62
3578.68
3572.35
3563.81
3556.15
3546.15
3537.39
3526.2
3516.7
3504.6
3494.69
3481.86
3471.78
3458.27
3448.17
3433.93
3423.94
3408.83
3399.15
3383.02
3373.86
3356.67
3347.88
3325.8
)
;
    }
}


// ************************************************************************* //
