/*--------------------------------*- C++ -*----------------------------------*\
| =========                 |                                                 |
| \\      /  F ield         | OpenFOAM: The Open Source CFD Toolbox           |
|  \\    /   O peration     | Version:  v2012                                 |
|   \\  /    A nd           | Website:  www.openfoam.com                      |
|    \\/     M anipulation  |                                                 |
\*---------------------------------------------------------------------------*/
FoamFile
{
    version     2.0;
    format      ascii;
    class       volScalarField;
    location    "0.165";
    object      nut.air;
}
// * * * * * * * * * * * * * * * * * * * * * * * * * * * * * * * * * * * * * //

dimensions      [0 2 -1 0 0 0 0];


internalField   nonuniform List<scalar> 
5600
(
2.45138e-05
3.47341e-05
4.04104e-05
4.24617e-05
4.22733e-05
4.09681e-05
3.92119e-05
3.75349e-05
3.6118e-05
3.49418e-05
3.4067e-05
3.34298e-05
3.30453e-05
3.27961e-05
3.27039e-05
3.26532e-05
3.26752e-05
3.26977e-05
3.27334e-05
3.27744e-05
3.27882e-05
3.28369e-05
3.28342e-05
3.28892e-05
3.29026e-05
3.29429e-05
3.29876e-05
3.29937e-05
3.30766e-05
3.30469e-05
3.31456e-05
3.31005e-05
3.31771e-05
3.3156e-05
3.31756e-05
3.32078e-05
3.31618e-05
3.32386e-05
3.31605e-05
3.32365e-05
3.31873e-05
3.32014e-05
3.32394e-05
3.31537e-05
3.32885e-05
3.31267e-05
3.3303e-05
3.31481e-05
3.32694e-05
3.32172e-05
3.3204e-05
3.33005e-05
3.31523e-05
3.33472e-05
3.31541e-05
3.3334e-05
3.32149e-05
3.32839e-05
3.32948e-05
3.32459e-05
3.33424e-05
3.32581e-05
3.33413e-05
3.33146e-05
3.33169e-05
3.33792e-05
3.33073e-05
3.34175e-05
3.33339e-05
3.34244e-05
3.33893e-05
3.34157e-05
3.34504e-05
3.34127e-05
3.35027e-05
3.34231e-05
3.35486e-05
3.34442e-05
3.35849e-05
3.34771e-05
3.36077e-05
3.35223e-05
3.36206e-05
3.35721e-05
3.36411e-05
3.36055e-05
3.3689e-05
3.3619e-05
3.37429e-05
3.36604e-05
3.37177e-05
3.38239e-05
3.35063e-05
3.42006e-05
3.30143e-05
3.49399e-05
3.17929e-05
3.71322e-05
2.6882e-05
4.65986e-05
0.000151673
0.000137368
0.000112277
9.85801e-05
9.39574e-05
9.4876e-05
0.00010219
0.000110033
0.000116582
0.000124212
0.000132843
0.00014111
0.000149606
0.000157118
0.000164546
0.000170858
0.000176834
0.000182104
0.000186663
0.000191254
0.000194732
0.000198893
0.00020182
0.00020557
0.000208405
0.000211233
0.00021441
0.000215993
0.000219562
0.000220138
0.000223539
0.000223795
0.000226246
0.00022717
0.000228051
0.000230103
0.000229533
0.000232239
0.000231273
0.000233407
0.000233522
0.000233759
0.00023601
0.000233854
0.000238053
0.000234575
0.000239005
0.000236399
0.000238748
0.00023908
0.00023792
0.000241523
0.000237688
0.000242745
0.000238773
0.000242546
0.000240997
0.000241758
0.000243127
0.000241554
0.000244133
0.000242555
0.000244091
0.000244266
0.000243741
0.000245765
0.000243945
0.000246481
0.00024491
0.000246541
0.000246303
0.000246404
0.000247609
0.00024648
0.000248673
0.000246736
0.00024961
0.000247196
0.00025027
0.000247926
0.000250579
0.000248884
0.000250693
0.000249764
0.000251174
0.00025005
0.00025239
0.000249951
0.000253546
0.000250758
0.000252937
0.000254001
0.00024945
0.00025953
0.000244456
0.000265144
0.000238325
0.000274768
0.00021999
0.000281654
0.000156539
0.000151504
0.000143138
0.000134991
0.000125503
0.000120366
0.000114177
0.000109234
0.000109236
0.000109249
0.000113262
0.000116855
0.000124177
0.000130972
0.000140481
0.000150343
0.000161268
0.000174269
0.000186399
0.000202632
0.000216077
0.00023374
0.000245357
0.000258861
0.000270179
0.000280412
0.000292004
0.000296547
0.000307546
0.000309727
0.000319392
0.000322002
0.000328427
0.000333694
0.000335821
0.000343721
0.000342913
0.000351248
0.000350833
0.000355995
0.000359662
0.000358926
0.00036819
0.000361976
0.000374576
0.000367001
0.000377443
0.000374525
0.000377521
0.000382831
0.000377351
0.000389366
0.000379552
0.000392153
0.00038502
0.000391902
0.000391979
0.000391448
0.000397301
0.000393236
0.000399518
0.000397564
0.000399715
0.000402525
0.000400163
0.000406172
0.00040222
0.00040786
0.000405756
0.000408499
0.000409614
0.000409204
0.000412894
0.000410249
0.000415789
0.000411477
0.000418406
0.000413225
0.000420205
0.000415678
0.000421107
0.000418471
0.000421923
0.000420436
0.000424111
0.000420618
0.000427897
0.000420178
0.0004312
0.000421847
0.000431373
0.000426874
0.000429157
0.000430953
0.000431632
0.000425787
0.000444697
0.000413756
0.000445087
0.000404298
0.000157845
0.000153918
0.00015023
0.000146509
0.000143099
0.000138611
0.000136443
0.000130326
0.000129673
0.00012319
0.000124833
0.000118386
0.000118763
0.000114889
0.000115767
0.000117251
0.000118605
0.000126516
0.000128981
0.000142367
0.000147729
0.000164349
0.000175219
0.000191065
0.000208726
0.000220587
0.000242162
0.000248657
0.000270878
0.000275867
0.000296148
0.000303865
0.000317548
0.00033153
0.000336827
0.000356071
0.000356586
0.000375841
0.000378516
0.000390227
0.000402346
0.000400839
0.000424101
0.000412191
0.000438307
0.000426274
0.00044419
0.000444333
0.000445799
0.000462045
0.000448654
0.000474642
0.000456966
0.000479572
0.000470728
0.000480064
0.000485376
0.000481931
0.000495332
0.000488599
0.000499444
0.00049899
0.000501041
0.000509114
0.000504139
0.00051607
0.000510248
0.000519686
0.000518277
0.00052215
0.000526106
0.00052513
0.000532677
0.000528402
0.000538841
0.00053165
0.000544411
0.000536042
0.000548195
0.000541782
0.000550375
0.000547759
0.000552876
0.000551509
0.000558204
0.000552013
0.000565781
0.000552256
0.000571593
0.000556597
0.000572302
0.000565598
0.000570628
0.00057129
0.000576866
0.000564786
0.000591595
0.000557334
0.000594773
0.000566806
0.000158151
0.000154511
0.000151812
0.000148761
0.000147233
0.000143741
0.000143526
0.000138956
0.000140212
0.000134435
0.000136866
0.000130935
0.000132387
0.000128757
0.000126023
0.000128674
0.000119144
0.000128356
0.000113692
0.000126907
0.000115077
0.000125144
0.000125815
0.000126174
0.000144553
0.000134913
0.000166849
0.000154384
0.000189154
0.000184865
0.000210744
0.000222346
0.000232489
0.000254229
0.000252742
0.000282376
0.000278284
0.000304498
0.000309858
0.000320848
0.000344799
0.000335744
0.000376733
0.000355587
0.000399628
0.000383731
0.000411554
0.000418507
0.000417462
0.000451655
0.000427437
0.000474068
0.000447741
0.000484627
0.000476766
0.000488713
0.000503871
0.00049657
0.000521899
0.000513532
0.000531402
0.000535555
0.000537597
0.000555054
0.000547094
0.000568538
0.000561309
0.000576919
0.00057783
0.000583803
0.000592939
0.000591899
0.000606098
0.000600289
0.000618512
0.000608167
0.000628367
0.000617212
0.00063507
0.000628171
0.000639505
0.000638896
0.000645075
0.000645439
0.000655014
0.000647468
0.000667139
0.000650351
0.000675636
0.000659666
0.000677042
0.000674769
0.000676161
0.000684529
0.000684263
0.00068123
0.000697784
0.00068052
0.00069648
0.000692386
0.000158224
0.000154676
0.000152228
0.000149352
0.000148229
0.000145081
0.000145372
0.000141314
0.000143094
0.000138097
0.000140641
0.000136089
0.000136964
0.000136223
0.000131195
0.000138601
0.000124216
0.000140752
0.000119551
0.00013749
0.000122845
0.000124843
0.000136441
0.000106504
0.000151443
9.37288e-05
0.000156424
9.84445e-05
0.000147296
0.000121891
0.000133574
0.000154146
0.000129578
0.000181893
0.000143025
0.000197496
0.00017532
0.000203679
0.00022115
0.000209736
0.000263166
0.000224776
0.000293552
0.000249258
0.000308496
0.000286735
0.000310496
0.000332393
0.000313419
0.000371718
0.000328844
0.000394467
0.000360962
0.00040266
0.000402224
0.000407639
0.000437232
0.000423377
0.000458395
0.000451196
0.000469803
0.000482624
0.000480828
0.000508216
0.00049778
0.000525718
0.00052064
0.000538544
0.000544792
0.000551733
0.000566484
0.000566556
0.000586575
0.000580507
0.000606959
0.000594062
0.000624051
0.000610989
0.000636134
0.000630742
0.000645482
0.000649519
0.000657164
0.000661445
0.000674666
0.000667758
0.000693346
0.000677074
0.000705208
0.000695942
0.000707551
0.000721355
0.000709029
0.000735606
0.000724551
0.000731335
0.000744753
0.000730028
0.000750057
0.000743421
0.000158241
0.000154743
0.00015233
0.00014957
0.000148456
0.00014556
0.000145756
0.000142203
0.000143629
0.000139589
0.00014128
0.00013834
0.000137686
0.000139206
0.000132301
0.000141815
0.000126546
0.000143131
0.000124846
0.000137718
0.000132693
0.000121945
0.000150412
0.000100182
0.000167133
8.65237e-05
0.000165851
9.74669e-05
0.000138773
0.000134705
9.84869e-05
0.000173859
7.05948e-05
0.0001853
7.74251e-05
0.000159825
0.000121827
0.000116143
0.000181348
8.48151e-05
0.000220071
8.48889e-05
0.000227173
0.000119053
0.00020392
0.00019138
0.000173487
0.000262713
0.000168843
0.000290743
0.000199862
0.00029873
0.000255391
0.000287558
0.00029999
0.000287639
0.000334832
0.00031026
0.000349037
0.000343933
0.000354334
0.00037636
0.000366127
0.000400443
0.000387952
0.000417168
0.000415588
0.000431941
0.000443007
0.000449934
0.000467867
0.000469366
0.000492772
0.000485898
0.000518521
0.000503479
0.000539018
0.000526946
0.000553864
0.000553602
0.000567013
0.000578024
0.000584539
0.000593774
0.0006084
0.000604725
0.000631387
0.000620169
0.000647528
0.000645096
0.000656025
0.000674898
0.000666394
0.000692692
0.000687761
0.000696783
0.000708688
0.00070275
0.000717111
0.000716264
0.000158237
0.000154793
0.000152322
0.000149726
0.00014841
0.000145903
0.000145625
0.000142829
0.000143385
0.000140536
0.00014101
0.00013946
0.00013774
0.000140007
0.000133379
0.000141509
0.000129454
0.000141203
0.000129679
0.000134994
0.000137582
0.000121148
0.000151226
0.00010505
0.00016046
9.98807e-05
0.000152931
0.00011739
0.000124901
0.000152245
8.7237e-05
0.00018081
6.45881e-05
0.000179439
8.45923e-05
0.000138306
0.000148571
7.08317e-05
0.000209897
2.431e-05
0.000214678
3.51437e-05
0.000197306
5.69696e-05
0.000132399
0.000198483
5.50537e-05
0.000273026
2.24433e-05
0.000229572
7.20545e-05
0.000190257
0.000153995
0.000133043
0.000200231
0.000142062
0.000220863
0.000187449
0.000218429
0.00023106
0.000218449
0.000256725
0.000234976
0.000275648
0.0002685
0.000295415
0.000301271
0.000311556
0.00032247
0.000328457
0.000343938
0.000345445
0.000368095
0.000356686
0.000391766
0.000373306
0.000410057
0.000399395
0.000424461
0.000428792
0.000438705
0.000454415
0.000458703
0.000471432
0.00048398
0.00048593
0.000508052
0.000504465
0.000528599
0.000531091
0.000544774
0.000562589
0.000563996
0.00058769
0.000588211
0.00060547
0.000611134
0.000618778
0.000628355
0.000631409
0.000158226
0.000154838
0.000152277
0.00014986
0.000148282
0.000146196
0.000145362
0.000143327
0.000143003
0.000141158
0.000140723
0.000139856
0.000138079
0.000139529
0.000135052
0.00013961
0.000132667
0.000138393
0.000133007
0.000133738
0.000137519
0.000125385
0.000144186
0.000117411
0.000146946
0.000117321
0.000139718
0.000129271
0.000122052
0.0001474
0.000102206
0.000158825
9.58038e-05
0.000152317
0.000114917
0.000123899
0.000151157
8.18705e-05
0.000177426
5.65691e-05
0.000173666
7.85843e-05
0.000147633
0.000125297
0.00010023
0.000181528
3.69013e-05
0.000202361
3.00856e-05
0.000183023
8.2177e-05
0.000130083
0.000167602
9.01848e-05
0.000184046
0.000113215
0.000146632
0.000139598
0.000125665
0.00016847
0.000126612
0.00016175
0.000136623
0.000159828
0.000166847
0.000171802
0.000180423
0.000181086
0.000181539
0.000201458
0.000200354
0.000214162
0.000228042
0.000215345
0.000249158
0.000231216
0.000267782
0.000259719
0.000287824
0.000291171
0.000305619
0.000320019
0.000326785
0.000345551
0.000349543
0.000370053
0.000376665
0.000389319
0.000408905
0.000412107
0.000434851
0.000442229
0.000462502
0.000479949
0.000485974
0.000515186
0.000511105
0.000532739
0.000537012
0.000538493
0.000158218
0.000154869
0.00015224
0.000149949
0.000148182
0.000146384
0.000145171
0.000143625
0.000142758
0.000141466
0.000140622
0.000139874
0.000138529
0.000138804
0.000136467
0.000137943
0.000134861
0.000136566
0.000134477
0.000133912
0.000135682
0.000130138
0.000137434
0.000127067
0.00013732
0.000127331
0.000133333
0.000131742
0.000126099
0.000137566
0.000119579
0.000139941
0.000119287
0.000134878
0.000127817
0.000122189
0.000140386
0.000108738
0.000146245
0.000107965
0.000137984
0.000123998
0.00012018
0.000142015
0.000102219
0.000152355
9.31901e-05
0.000148298
0.000110757
0.000128168
0.000133523
0.000113106
0.000141755
0.000112288
0.000133424
0.000135143
0.000112912
0.000144945
0.000107849
0.00014593
0.000115762
0.000136932
0.000125822
0.000126068
0.000143176
0.00012426
0.000146997
0.000130124
0.000134442
0.000145571
0.000135954
0.000153354
0.000145882
0.000152934
0.000150455
0.00015774
0.000164114
0.000163628
0.000185575
0.00017448
0.000201516
0.00019154
0.000211443
0.000219478
0.000215608
0.000248634
0.000233295
0.00026266
0.000265865
0.000275088
0.000302326
0.000295296
0.00033421
0.0003357
0.000352924
0.000379193
0.000377055
0.00040659
0.000402813
0.000417248
0.000158213
0.000154881
0.00015222
0.000149982
0.000148133
0.000146454
0.000145082
0.000143729
0.000142653
0.000141549
0.000140599
0.000139793
0.000138763
0.000138378
0.000137096
0.000137155
0.000135699
0.000135871
0.000134773
0.000134291
0.000134388
0.00013248
0.000134194
0.00013098
0.000133476
0.000130494
0.000131694
0.00013117
0.000129166
0.000132111
0.000127239
0.000131647
0.000127679
0.000128368
0.000131092
0.000122933
0.000134904
0.000119581
0.000133755
0.000123742
0.000124777
0.000134507
0.000113254
0.000142426
0.000108833
0.000140151
0.000115308
0.000128731
0.000128764
0.000115839
0.00013728
0.000113421
0.000133637
0.00012034
0.000124497
0.000130377
0.000117157
0.000135136
0.000115642
0.000138213
0.00011345
0.000141795
0.000114569
0.000137034
0.000128988
0.000126788
0.000145185
0.000121263
0.000150672
0.000128065
0.000152312
0.000144107
0.000149175
0.000164518
0.000145689
0.000180548
0.000158444
0.000186005
0.000185037
0.000189455
0.000213013
0.000199431
0.000233033
0.000225694
0.000240887
0.000259586
0.000253613
0.000284275
0.000278542
0.000303463
0.000314319
0.000321594
0.000353323
0.000351945
0.000380715
0.000390026
0.00040232
0.000422846
0.000420605
0.000439939
0.000158211
0.00015488
0.000152207
0.000149981
0.000148103
0.000146453
0.000145031
0.000143724
0.000142588
0.000141515
0.00014055
0.000139685
0.000138776
0.00013815
0.000137185
0.00013684
0.000135752
0.000135661
0.00013451
0.000134504
0.000133513
0.000133279
0.000132779
0.000131976
0.000132231
0.000130716
0.000131657
0.000129735
0.000130807
0.000129194
0.000129713
0.000128745
0.000129068
0.000127453
0.000129743
0.000125027
0.00013104
0.000123435
0.000129998
0.000125639
0.000124907
0.000131068
0.000119488
0.000134141
0.000119415
0.000131228
0.000124362
0.000126389
0.000128404
0.000126313
0.00012714
0.000132112
0.000124256
0.000137115
0.000128085
0.000136548
0.00013959
0.000134787
0.000150722
0.000142061
0.000154637
0.000159967
0.00015739
0.000178296
0.000168918
0.000191004
0.000190039
0.00020063
0.000214907
0.00021351
0.000238124
0.000234162
0.000256501
0.000262601
0.000272576
0.000292751
0.000292943
0.00031918
0.000319971
0.000341982
0.000352465
0.000363585
0.000380801
0.000384582
0.000401622
0.000406163
0.000419447
0.000430604
0.000438623
0.000456972
0.000463454
0.000483014
0.000495227
0.000509179
0.000527075
0.000535453
0.000552324
0.000559178
0.000567305
0.000573805
0.000158208
0.000154873
0.000152189
0.000149958
0.000148062
0.000146408
0.00014496
0.000143648
0.000142484
0.000141392
0.000140415
0.000139493
0.000138615
0.000137875
0.000136977
0.000136506
0.000135422
0.000135368
0.000133911
0.000134395
0.000132514
0.000133404
0.000131452
0.000132087
0.00013102
0.00013021
0.000131258
0.000128004
0.000131617
0.000126325
0.000131129
0.000125994
0.000129438
0.000126882
0.000127397
0.000127947
0.000126214
0.000128719
0.000125899
0.000129663
0.000126614
0.000130924
0.000129992
0.000131704
0.000137147
0.000133536
0.000146113
0.000140379
0.000154203
0.000154522
0.000161773
0.000173942
0.000172501
0.000193687
0.000190003
0.000211084
0.000214716
0.000227709
0.000242658
0.00024808
0.000268996
0.000274768
0.000292816
0.000305653
0.000316608
0.000328896
0.000334377
0.000348626
0.000355176
0.000366989
0.000377887
0.000386065
0.000399982
0.000407293
0.000420539
0.000430173
0.000440176
0.000453515
0.000460864
0.000476101
0.000483807
0.000496983
0.000508344
0.000516928
0.00053133
0.000538376
0.00055208
0.000561886
0.000572672
0.000587
0.000595259
0.000611511
0.000619945
0.000632471
0.000643223
0.000649894
0.000660297
0.000663624
0.000669344
0.000671249
0.0001582
0.000154852
0.000152147
0.000149893
0.000147965
0.000146279
0.000144785
0.000143429
0.000142207
0.000141053
0.000140014
0.000139001
0.000138072
0.000137203
0.000136276
0.000135647
0.000134526
0.000134353
0.000132734
0.000133297
0.000130937
0.000132322
0.000129405
0.000131015
0.000128527
0.00012897
0.000128727
0.000126369
0.000129823
0.000124367
0.000130569
0.00012435
0.000130839
0.000127752
0.000131888
0.000134542
0.000136049
0.000144124
0.000145156
0.000156565
0.000159627
0.000171704
0.000178888
0.000189469
0.000202158
0.000210227
0.000228123
0.000234686
0.000254958
0.000263509
0.000280794
0.000289666
0.000299201
0.000313658
0.000319068
0.000336704
0.000341598
0.000357791
0.000366527
0.000377955
0.000391673
0.000399354
0.000415259
0.000422999
0.000436912
0.000447931
0.000458561
0.000472106
0.000481298
0.000494766
0.00050483
0.000516237
0.000527899
0.000537482
0.000549531
0.000558961
0.000569871
0.000580481
0.000589751
0.000601376
0.000609871
0.000620683
0.000630058
0.000638599
0.000649323
0.00065694
0.000667375
0.00067627
0.000685484
0.000696336
0.000703972
0.000715432
0.000722205
0.000730867
0.000738028
0.000742633
0.00074867
0.000750568
0.000753567
0.000753843
0.00015818
0.000154796
0.000152025
0.000149708
0.000147678
0.000145885
0.000144251
0.000142739
0.000141342
0.000139985
0.000138756
0.000137517
0.000136391
0.000135249
0.000134136
0.000133178
0.000131872
0.000131163
0.000129365
0.000129309
0.000126921
0.000127933
0.000125154
0.000126677
0.000124552
0.000126722
0.00012722
0.000129805
0.000134469
0.000137765
0.000146875
0.000151813
0.000163959
0.000171572
0.000184898
0.000196271
0.00020955
0.000224668
0.000237831
0.000253204
0.000262574
0.000276611
0.000286805
0.000300179
0.000312206
0.000323725
0.000337984
0.00034747
0.000363318
0.000371917
0.00038748
0.000397435
0.000410422
0.000423407
0.000432608
0.000448148
0.000455008
0.000470666
0.000478119
0.000490793
0.000501227
0.000510038
0.00052284
0.000529808
0.000542364
0.000550264
0.000560733
0.000570348
0.000578862
0.000589188
0.000597072
0.000606823
0.000614986
0.000623555
0.000631856
0.000639827
0.000647746
0.000655471
0.000663023
0.00067057
0.000677649
0.000684422
0.00069149
0.000697303
0.000704501
0.000710138
0.000716907
0.000723506
0.000729382
0.000737028
0.000741861
0.000749464
0.000753955
0.000759407
0.000764002
0.000766592
0.000770339
0.000771294
0.000772892
0.000772781
0.000158113
0.000154622
0.000151612
0.000149104
0.000146667
0.000144526
0.000142364
0.000140372
0.000138361
0.000136477
0.000134768
0.000132814
0.000131026
0.00012903
0.000127412
0.000125805
0.000124049
0.000122629
0.000121766
0.000122382
0.000123644
0.00012747
0.000131797
0.000139394
0.000147183
0.000158288
0.000169566
0.000183232
0.000197784
0.00021306
0.000229312
0.000241652
0.00025619
0.000268332
0.00028291
0.000295351
0.000309132
0.000322395
0.000334936
0.000348966
0.000360496
0.000374522
0.00038551
0.000398559
0.000409368
0.000420595
0.000432063
0.000441049
0.000453216
0.000460588
0.000472588
0.000479642
0.000490102
0.000498508
0.000506015
0.000516315
0.000521498
0.000532423
0.000536994
0.000546652
0.0005526
0.00055945
0.000567279
0.000572084
0.000580453
0.00058481
0.000592337
0.000597525
0.000603473
0.000609515
0.000614537
0.000620671
0.000625352
0.000630511
0.000634681
0.000639176
0.000643151
0.000647475
0.000651339
0.000655366
0.000659239
0.000662703
0.000666745
0.000669612
0.000673719
0.000676591
0.00068029
0.000683928
0.000686898
0.0006913
0.000693719
0.000698039
0.000700448
0.000703518
0.000706276
0.000707708
0.00071023
0.000710829
0.000712126
0.000712519
0.000157849
0.000153942
0.0001501
0.000146712
0.000142568
0.000139331
0.000135252
0.000131833
0.000128201
0.00012601
0.000123578
0.000120688
0.000118659
0.000117777
0.000118592
0.000121028
0.00012556
0.000131909
0.00014037
0.000150851
0.000163329
0.000177802
0.00019319
0.00020996
0.0002269
0.000242692
0.000256922
0.000271645
0.000285459
0.000299137
0.000312435
0.000324772
0.000337514
0.000348543
0.000360429
0.00037057
0.000381337
0.000390984
0.000400286
0.000409619
0.000417438
0.00042648
0.000432648
0.000439506
0.000444849
0.000450482
0.00045601
0.000460303
0.0004662
0.000469409
0.00047534
0.000478214
0.000483342
0.000486875
0.000490476
0.000495118
0.000497262
0.000502545
0.000504165
0.000508947
0.000511214
0.000514638
0.000518013
0.000520181
0.000524141
0.000525885
0.000529567
0.000531661
0.000534613
0.000537204
0.000539563
0.000542354
0.00054442
0.000547175
0.000549107
0.000551758
0.000553625
0.000556064
0.00055804
0.000560107
0.000562275
0.000563873
0.000566237
0.000567508
0.000569876
0.000571271
0.000573316
0.000575308
0.000576801
0.000579346
0.000580441
0.000582961
0.00058407
0.000585793
0.000587252
0.000587859
0.000589368
0.000589386
0.000590142
0.000590128
0.000156641
0.000151208
0.000143351
0.000134629
0.000126077
0.000120991
0.000115008
0.000112505
0.000112457
0.000114189
0.000117963
0.000123461
0.000130607
0.000139121
0.000149057
0.000160158
0.000172603
0.00018621
0.000201274
0.000217303
0.000233462
0.000246996
0.000259601
0.00027194
0.000283005
0.000294218
0.000302536
0.00031013
0.000316695
0.000322875
0.000328674
0.000333837
0.000339066
0.00034333
0.000347957
0.000351606
0.000355572
0.000358946
0.000362199
0.000365499
0.000368136
0.000371344
0.000373598
0.000376547
0.000378616
0.000381052
0.000383226
0.000385021
0.000387428
0.000388647
0.000391213
0.000392144
0.000394503
0.000395671
0.000397361
0.000399115
0.000400019
0.000402286
0.000402725
0.000405001
0.000405592
0.000407315
0.000408476
0.000409495
0.000411134
0.000411744
0.000413481
0.000414121
0.000415598
0.000416497
0.000417644
0.000418759
0.000419641
0.000420896
0.00042161
0.000422931
0.000423567
0.000424804
0.000425539
0.000426517
0.000427458
0.000428095
0.000429256
0.00042966
0.000430892
0.000431363
0.000432432
0.000433284
0.000433991
0.000435244
0.000435627
0.000436962
0.000437299
0.000438228
0.000438805
0.000439049
0.000439813
0.000439594
0.000440033
0.000439755
0.000151621
0.000136817
0.000113478
9.95203e-05
9.76016e-05
9.8131e-05
0.000110573
0.000115046
0.000121818
0.000129687
0.000137977
0.000146235
0.000154211
0.00016168
0.000168584
0.000174822
0.000180492
0.000185568
0.000190196
0.000194427
0.00019833
0.00020208
0.000205536
0.000208876
0.000211837
0.00021472
0.000217268
0.000219762
0.000221865
0.000223833
0.000225525
0.000226989
0.000228404
0.000229492
0.000230697
0.000231538
0.00023254
0.000233267
0.000234049
0.000234766
0.000235341
0.000236082
0.00023651
0.000237262
0.000237653
0.000238315
0.000238752
0.000239221
0.000239786
0.000240019
0.000240712
0.000240787
0.00024151
0.000241604
0.000242171
0.000242484
0.000242749
0.000243348
0.000243346
0.000244098
0.000244053
0.000244708
0.000244851
0.000245236
0.00024563
0.00024578
0.00024633
0.000246396
0.000246949
0.000247071
0.000247512
0.000247755
0.000248063
0.000248434
0.000248626
0.000249102
0.000249221
0.000249718
0.000249857
0.000250251
0.000250499
0.000250721
0.000251125
0.000251204
0.000251716
0.000251784
0.000252272
0.000252489
0.000252803
0.000253233
0.00025332
0.000253873
0.000253838
0.000254271
0.00025432
0.00025444
0.000254673
0.000254499
0.000254697
0.00025444
2.45432e-05
3.47523e-05
4.04101e-05
4.23028e-05
4.20137e-05
4.05608e-05
3.87137e-05
3.70559e-05
3.56101e-05
3.44451e-05
3.35764e-05
3.29762e-05
3.25987e-05
3.23849e-05
3.22871e-05
3.22582e-05
3.22698e-05
3.22979e-05
3.23311e-05
3.23649e-05
3.23933e-05
3.24269e-05
3.24605e-05
3.25008e-05
3.2537e-05
3.25786e-05
3.26116e-05
3.26538e-05
3.26842e-05
3.27179e-05
3.27411e-05
3.276e-05
3.2777e-05
3.27824e-05
3.27954e-05
3.27922e-05
3.28009e-05
3.27955e-05
3.27983e-05
3.2796e-05
3.27926e-05
3.27956e-05
3.27874e-05
3.27951e-05
3.27862e-05
3.27943e-05
3.27894e-05
3.27927e-05
3.27958e-05
3.27908e-05
3.28032e-05
3.27908e-05
3.28093e-05
3.27964e-05
3.2813e-05
3.28093e-05
3.28154e-05
3.28272e-05
3.28206e-05
3.28445e-05
3.28332e-05
3.28584e-05
3.28535e-05
3.28706e-05
3.28782e-05
3.28843e-05
3.29032e-05
3.29031e-05
3.29269e-05
3.29275e-05
3.29497e-05
3.29558e-05
3.29729e-05
3.29871e-05
3.29983e-05
3.30205e-05
3.30269e-05
3.30533e-05
3.30592e-05
3.30835e-05
3.30943e-05
3.31113e-05
3.31315e-05
3.31403e-05
3.3169e-05
3.31743e-05
3.32045e-05
3.3214e-05
3.32358e-05
3.32541e-05
3.32618e-05
3.3287e-05
3.32845e-05
3.33068e-05
3.33043e-05
3.33131e-05
3.33197e-05
3.33132e-05
3.3325e-05
3.33146e-05
3.01204e-05
0.000661085
0.00117652
0.00156642
0.00192301
0.00220332
0.00240653
0.00245173
0.00243665
0.00241904
0.00240629
0.00240704
0.00241215
0.00241673
0.00240321
0.00236411
0.00228486
0.00218194
0.00204747
0.00192602
0.001795
0.00167463
0.00162127
0.00155794
0.00149461
0.00149105
0.00142331
0.00126149
0.00116852
0.00101799
0.000878368
0.000912101
0.00094502
0.0010082
0.00122829
0.00148161
0.00165853
0.00175699
0.00180465
0.00183226
0.00187166
0.00192476
0.00196066
0.00189256
0.00178341
0.00171741
0.00164114
0.00153091
0.00139375
0.00124322
0.00110016
0.000961725
0.000827748
0.000706322
0.000598266
0.000504655
0.000426178
0.00036254
0.000311858
0.000271434
0.000238795
0.00021246
0.000191486
0.000175211
0.000162898
0.000153858
0.000147306
0.000142575
0.000138952
0.000135942
0.000133139
0.00013047
0.000127913
0.000125642
0.000123711
0.000122247
0.000121173
0.000120486
0.000120021
0.000119767
0.000119586
0.000119512
0.000119438
0.000119429
0.000119391
0.000119403
0.000119376
0.000119396
0.000119371
0.000119394
0.00011937
0.000119394
0.000119369
0.000119395
0.000119369
0.000119397
0.000119371
0.000119402
0.00011938
0.000119426
0.00019189
0.000423599
0.000856589
0.00124685
0.00159602
0.00187928
0.00209165
0.00223471
0.00232956
0.00233684
0.00232022
0.0023174
0.00231879
0.00231114
0.00228945
0.00224739
0.00216682
0.00206977
0.00193759
0.00181019
0.00168346
0.0015369
0.00146091
0.0013765
0.00122054
0.00120412
0.00115161
0.000958771
0.000881969
0.000795094
0.000668984
0.000761362
0.000857968
0.000886862
0.00107287
0.00134484
0.00156112
0.00169486
0.00176408
0.00179866
0.00183532
0.00188237
0.0019128
0.00188321
0.00179351
0.00174179
0.00165257
0.0015167
0.00136699
0.00121249
0.00106097
0.000916815
0.000782604
0.000660765
0.000553279
0.000461731
0.000386814
0.000327646
0.000281889
0.000246584
0.000219126
0.000197691
0.000180924
0.000167909
0.000157892
0.000150334
0.00014468
0.000140483
0.000137222
0.000134521
0.000132025
0.000129653
0.000127369
0.000125334
0.000123584
0.000122236
0.000121228
0.000120576
0.000120129
0.000119883
0.000119706
0.000119632
0.000119558
0.000119548
0.000119509
0.000119522
0.000119494
0.000119514
0.000119489
0.000119512
0.000119487
0.000119512
0.000119486
0.000119513
0.000119486
0.000119515
0.000119489
0.000119521
0.0001195
0.00011955
0.000474326
0.000387103
0.00055116
0.000855991
0.00118291
0.00146714
0.00168898
0.00184706
0.00195769
0.00203886
0.00210165
0.00216056
0.00220195
0.00218692
0.0021621
0.00211852
0.00203293
0.00193731
0.0017766
0.00159423
0.00142535
0.0012151
0.00113887
0.00107534
0.000889583
0.000863632
0.000846473
0.000634598
0.000594636
0.000642528
0.000562887
0.000698502
0.000873389
0.000869128
0.00095282
0.00119836
0.00144159
0.00161116
0.00170559
0.0017498
0.00178452
0.00182488
0.0018484
0.00183305
0.00177863
0.00169256
0.00158003
0.00144671
0.00130065
0.00115028
0.00100243
0.00086089
0.000728509
0.000608432
0.000503742
0.000416552
0.000347114
0.000293922
0.000254153
0.000224639
0.000202587
0.000185822
0.000172755
0.000162419
0.000154178
0.000147698
0.00014265
0.000138787
0.000135741
0.000133242
0.000130979
0.000128867
0.00012684
0.000125032
0.000123463
0.000122236
0.000121296
0.000120677
0.000120244
0.000120003
0.000119825
0.00011975
0.000119673
0.000119662
0.000119621
0.000119633
0.000119604
0.000119625
0.000119598
0.000119623
0.000119596
0.000119623
0.000119596
0.000119624
0.000119596
0.000119627
0.000119599
0.000119635
0.000119613
0.000119669
0.000583501
0.000580114
0.000538932
0.000602411
0.000779684
0.00100582
0.00121366
0.00137754
0.0015009
0.00159846
0.00167683
0.00174923
0.00180301
0.00184108
0.00183461
0.00179912
0.00170047
0.00158647
0.00140585
0.00121693
0.00105099
0.000831984
0.000757589
0.000731711
0.000526731
0.000493609
0.000560099
0.000403108
0.000437157
0.000637215
0.000621372
0.000754788
0.000994238
0.000996408
0.000938275
0.00107514
0.00130811
0.00150486
0.00162552
0.00168185
0.00171568
0.00174885
0.00176394
0.001742
0.00168387
0.00159695
0.00148668
0.00135765
0.00121698
0.00107263
0.00093056
0.000794077
0.000666236
0.000550933
0.000452112
0.000371787
0.000309642
0.00026354
0.000230327
0.00020672
0.000189692
0.000176924
0.000166817
0.000158508
0.000151541
0.000145784
0.000141102
0.000137411
0.000134467
0.000132086
0.000129998
0.000128113
0.000126327
0.000124735
0.000123332
0.000122227
0.000121361
0.000120781
0.000120361
0.000120123
0.000119941
0.000119863
0.000119781
0.000119768
0.000119724
0.000119736
0.000119705
0.000119726
0.000119698
0.000119723
0.000119696
0.000119723
0.000119695
0.000119724
0.000119696
0.000119728
0.0001197
0.000119739
0.000119717
0.000119779
0.000689933
0.000693977
0.000676004
0.000658928
0.000651021
0.000708685
0.000804356
0.000911701
0.0010119
0.00110395
0.00118506
0.00126305
0.00132225
0.00136976
0.00136819
0.00133765
0.00124652
0.00113208
0.000957367
0.00076796
0.000608436
0.00041458
0.000368909
0.000411059
0.000260525
0.000299654
0.000529254
0.00046253
0.00050241
0.000733862
0.000785506
0.000906276
0.00118352
0.00123814
0.00107976
0.00103715
0.00118753
0.00138268
0.0015229
0.0015918
0.00162559
0.00165124
0.00165665
0.00162658
0.00156452
0.0014789
0.00137406
0.00125247
0.00111972
0.000983476
0.000849387
0.000720624
0.000600487
0.000493347
0.00040313
0.000331441
0.000277423
0.00023863
0.000211763
0.000193374
0.000180418
0.000170683
0.000162723
0.000155838
0.000149728