/*--------------------------------*- C++ -*----------------------------------*\
| =========                 |                                                 |
| \\      /  F ield         | OpenFOAM: The Open Source CFD Toolbox           |
|  \\    /   O peration     | Version:  v2012                                 |
|   \\  /    A nd           | Website:  www.openfoam.com                      |
|    \\/     M anipulation  |                                                 |
\*---------------------------------------------------------------------------*/
FoamFile
{
    version     2.0;
    format      ascii;
    class       volScalarField;
    location    "0.025";
    object      nut.air;
}
// * * * * * * * * * * * * * * * * * * * * * * * * * * * * * * * * * * * * * //

dimensions      [0 2 -1 0 0 0 0];


internalField   nonuniform List<scalar> 
5600
(
1.26566e-05
2.97073e-05
5.03273e-05
6.53516e-05
7.31303e-05
7.56021e-05
7.50279e-05
7.28736e-05
7.02101e-05
6.77161e-05
6.54957e-05
6.37245e-05
6.24684e-05
6.16585e-05
6.12007e-05
6.10669e-05
6.12423e-05
6.16542e-05
6.2173e-05
6.26692e-05
6.30732e-05
6.33702e-05
6.35738e-05
6.37068e-05
6.37914e-05
6.38458e-05
6.38822e-05
6.39074e-05
6.39268e-05
6.39437e-05
6.39597e-05
6.39729e-05
6.39827e-05
6.399e-05
6.39952e-05
6.39988e-05
6.40011e-05
6.40026e-05
6.40035e-05
6.4004e-05
6.40043e-05
6.40045e-05
6.40046e-05
6.40046e-05
6.40046e-05
6.40047e-05
6.40047e-05
6.40047e-05
6.40047e-05
6.40047e-05
6.40047e-05
6.40047e-05
6.40047e-05
6.40047e-05
6.40047e-05
6.40047e-05
6.40047e-05
6.40047e-05
6.40047e-05
6.40047e-05
6.40047e-05
6.40046e-05
6.40049e-05
6.40043e-05
6.40055e-05
6.4003e-05
6.40079e-05
6.39987e-05
6.40155e-05
6.39858e-05
6.40365e-05
6.39533e-05
6.40847e-05
6.38861e-05
6.41738e-05
6.37764e-05
6.43031e-05
6.36363e-05
6.44558e-05
6.34739e-05
6.46556e-05
6.32192e-05
6.50224e-05
6.27675e-05
6.55526e-05
6.23831e-05
6.56021e-05
6.29524e-05
6.41882e-05
6.50672e-05
6.17326e-05
6.71311e-05
6.13752e-05
6.48562e-05
6.6715e-05
5.67477e-05
7.66991e-05
4.63759e-05
9.21895e-05
9.11651e-07
0.000160924
0.000142419
0.000113178
0.000102579
0.000101048
0.00010726
0.000117005
0.000133268
0.000148159
0.000162755
0.000180688
0.000200441
0.000221857
0.000244113
0.000265737
0.000286215
0.000305983
0.000325304
0.000343636
0.000359973
0.000373967
0.000385391
0.000394316
0.000400968
0.000405675
0.000408853
0.000410901
0.000412173
0.000412949
0.000413452
0.000413816
0.00041412
0.000414336
0.000414487
0.000414604
0.000414689
0.000414747
0.000414785
0.000414809
0.000414824
0.000414833
0.000414838
0.000414841
0.000414843
0.000414844
0.000414844
0.000414844
0.000414844
0.000414845
0.000414845
0.000414845
0.000414845
0.000414845
0.000414845
0.000414845
0.000414845
0.000414845
0.000414844
0.000414845
0.000414844
0.000414846
0.000414841
0.000414852
0.000414829
0.000414876
0.000414783
0.000414961
0.000414631
0.000415222
0.000414201
0.000415901
0.00041318
0.000417362
0.000411207
0.000419881
0.000408193
0.000423296
0.000404498
0.000427282
0.000399948
0.000433013
0.00039223
0.000443331
0.000380092
0.000454733
0.000374334
0.000447135
0.000398779
0.000401553
0.000457806
0.00034492
0.000491565
0.000357978
0.000406864
0.000505996
0.000229372
0.000654141
0.000109663
0.000649867
4.11676e-06
0.000158652
0.000156144
0.000150369
0.000143699
0.000134526
0.000123805
0.000114904
0.000108992
0.000106151
0.000108304
0.000113997
0.00012189
0.000132201
0.000145776
0.000162237
0.00018024
0.000199817
0.000222142
0.000248424
0.00027901
0.000312942
0.000348018
0.000381309
0.000410055
0.000432545
0.000446317
0.00045507
0.000460396
0.000463532
0.00046537
0.000466484
0.000467236
0.000467745
0.000468123
0.000468423
0.00046865
0.000468813
0.000468927
0.000469002
0.000469051
0.00046908
0.000469098
0.000469108
0.000469114
0.000469117
0.000469119
0.00046912
0.00046912
0.00046912
0.00046912
0.000469121
0.000469121
0.000469121
0.000469121
0.000469121
0.000469121
0.000469121
0.00046912
0.000469122
0.000469117
0.000469128
0.000469106
0.000469152
0.000469057
0.000469245
0.000468885
0.000469554
0.000468351
0.000470441
0.000466938
0.000472592
0.000463822
0.000476868
0.000458272
0.000483638
0.000450412
0.000492225
0.000440951
0.000502632
0.000427979
0.000519238
0.000404998
0.000545406
0.00037595
0.000560509
0.000383167
0.000512714
0.000472931
0.00038334
0.000608892
0.000278388
0.000632042
0.00035411
0.000413357
0.000647733
0.000132119
0.000707629
6.86427e-05
0.000700286
4.76043e-05
0.000159213
0.000156925
0.000154703
0.000152591
0.000150207
0.000147444
0.000144061
0.000140491
0.000136317
0.00013241
0.000128804
0.000125124
0.000121639
0.000119025
0.000117896
0.000118591
0.000120851
0.000124783
0.000131471
0.000142959
0.000159956
0.000180941
0.000203321
0.000224449
0.000242283
0.000255756
0.000264858
0.000270359
0.000273322
0.000274731
0.000275328
0.000275568
0.000275697
0.000275826
0.000275973
0.000276122
0.000276255
0.000276363
0.000276445
0.000276503
0.000276542
0.000276567
0.000276582
0.000276591
0.000276596
0.000276599
0.0002766
0.000276601
0.000276602
0.000276602
0.000276602
0.000276602
0.000276602
0.000276602
0.000276602
0.000276602
0.000276603
0.000276601
0.000276605
0.000276596
0.000276615
0.000276576
0.000276656
0.000276497
0.000276802
0.000276235
0.000277255
0.000275482
0.000278457
0.000273646
0.000281122
0.000269948
0.000285945
0.000263912
0.000292974
0.000255813
0.000301785
0.000245456
0.000313929
0.000229258
0.000333937
0.000203721
0.000357389
0.000185015
0.000351957
0.000221691
0.000278304
0.000335063
0.000154925
0.000433424
8.76841e-05
0.000415831
0.000187653
0.000238414
0.000389216
8.60781e-05
0.000411144
2.47938e-05
0.000506553
2.13421e-06
0.000159346
0.000157198
0.00015531
0.000153632
0.000152073
0.000150625
0.000149211
0.000147815
0.000146397
0.000144884
0.000143424
0.000141779
0.000140228
0.000138303
0.000136619
0.000134598
0.000132947
0.000130808
0.000128321
0.000126029
0.000124882
0.000125564
0.000127907
0.000130992
0.000133827
0.00013577
0.000136612
0.000136503
0.00013576
0.000134711
0.000133617
0.000132656
0.000131925
0.000131431
0.000131127
0.000130953
0.000130863
0.000130821
0.000130804
0.000130801
0.000130802
0.000130804
0.000130807
0.000130809
0.00013081
0.000130811
0.000130811
0.000130811
0.000130812
0.000130812
0.000130812
0.000130812
0.000130812
0.000130812
0.000130812
0.000130812
0.000130812
0.000130811
0.000130813
0.000130809
0.000130817
0.0001308
0.000130836
0.000130763
0.000130905
0.000130638
0.00013112
0.00013028
0.000131684
0.000129416
0.000132901
0.0001277
0.000135027
0.000124913
0.000138063
0.000121029
0.000142042
0.000115392
0.000147996
0.000105459
0.000157219
9.01033e-05
0.000165935
8.40257e-05
0.000161141
0.000116578
0.000121977
0.000169533
4.23728e-05
0.000198793
1.36961e-05
0.000208089
7.63905e-05
0.000161155
0.000154871
1.86901e-05
0.000180853
3.99623e-05
0.000300938
4.30505e-05
0.000159374
0.000157282
0.000155468
0.000153869
0.000152435
0.000151136
0.000149947
0.000148843
0.00014782
0.000146833
0.00014591
0.000144991
0.000144148
0.000143271
0.000142456
0.000141601
0.000140784
0.000139943
0.000139057
0.000138111
0.00013713
0.000136168
0.000135249
0.000134349
0.000133404
0.000132371
0.000131323
0.000130335
0.000129467
0.000128756
0.000128206
0.0001278
0.00012751
0.00012731
0.000127177
0.000127091
0.000127037
0.000127004
0.000126983
0.000126971
0.000126963
0.000126959
0.000126956
0.000126955
0.000126954
0.000126953
0.000126953
0.000126953
0.000126953
0.000126953
0.000126953
0.000126953
0.000126953
0.000126953
0.000126953
0.000126953
0.000126953
0.000126952
0.000126955
0.000126949
0.00012696
0.000126938
0.00012698
0.000126905
0.000127034
0.000126822
0.000127153
0.000126663
0.000127339
0.000126476
0.000127464
0.000126481
0.000127239
0.000126971
0.000126593
0.000127587
0.000126621
0.000126185
0.000129891
0.000118927
0.000138222
0.00010345
0.00014953
8.83496e-05
0.000157474
9.77382e-05
0.000145854
0.000130432
7.69486e-05
0.000162939
3.12342e-05
0.000181998
8.60235e-05
0.000150265
0.000142408
7.39858e-05
0.000141623
0.00012866
0.000201519
8.09285e-05
0.000159383
0.00015731
0.000155517
0.000153942
0.000152541
0.000151277
0.000150129
0.000149077
0.00014811
0.000147208
0.000146363
0.000145564
0.000144821
0.000144119
0.00014345
0.000142794
0.000142152
0.00014154
0.000140972
0.000140446
0.000139937
0.000139411
0.000138845
0.000138242
0.000137638
0.000137087
0.00013665
0.000136368
0.000136254
0.00013629
0.000136433
0.000136632
0.000136842
0.000137032
0.000137187
0.000137304
0.000137386
0.000137441
0.000137475
0.000137496
0.000137508
0.000137515
0.000137518
0.00013752
0.000137521
0.000137521
0.000137521
0.000137522
0.000137522
0.000137522
0.000137522
0.000137522
0.000137522
0.000137522
0.000137522
0.000137522
0.000137521
0.000137522
0.00013752
0.000137524
0.000137516
0.000137531
0.000137505
0.000137551
0.000137474
0.000137598
0.000137405
0.000137693
0.000137279
0.000137854
0.000137083
0.000138091
0.0001368
0.00013844
0.000136376
0.000138922
0.000135987
0.000138881
0.000137191
0.000135263
0.000144107
0.00012229
0.000160051
0.000101493
0.000177162
9.88226e-05
0.000165814
0.000137538
9.40182e-05
0.000189986
4.65096e-05
0.00019089
0.000118964
9.70624e-05
0.000213078
4.61877e-05
0.000177623
0.000152661
8.99805e-05
0.000117764
0.000159386
0.00015732
0.000155535
0.000153969
0.000152578
0.000151326
0.000150191
0.000149154
0.000148202
0.000147319
0.000146492
0.000145718
0.000144997
0.000144326
0.000143687
0.000143065
0.000142458
0.000141884
0.000141363
0.000140897
0.000140457
0.00014
0.000139495
0.000138944
0.000138389
0.000137895
0.000137526
0.000137324
0.000137296
0.000137419
0.000137643
0.000137915
0.000138187
0.000138427
0.000138621
0.000138766
0.000138867
0.000138935
0.000138977
0.000139003
0.000139018
0.000139027
0.000139031
0.000139034
0.000139035
0.000139036
0.000139036
0.000139036
0.000139036
0.000139036
0.000139036
0.000139036
0.000139036
0.000139036
0.000139036
0.000139036
0.000139036
0.000139036
0.000139037
0.000139034
0.00013904
0.000139029
0.00013905
0.000139011
0.000139079
0.000138968
0.000139141
0.000138887
0.000139233
0.000138798
0.000139293
0.000138793
0.000139232
0.000138886
0.000139221
0.000138604
0.000140088
0.000136869
0.000142893
0.000133095
0.000147509
0.000127979
0.000152953
0.000121928
0.000158621
0.000118479
0.00015615
0.000133338
0.000126196
0.000170581
8.9499e-05
0.000183779
0.000113862
0.000132738
0.000168144
0.000120902
0.000113246
0.000214554
3.01325e-05
0.000206326
0.000159387
0.000157324
0.000155542
0.00015398
0.000152593
0.000151346
0.000150215
0.000149184
0.000148238
0.000147361
0.000146541
0.000145774
0.00014506
0.000144397
0.000143768
0.000143155
0.000142558
0.000141994
0.000141485
0.000141032
0.000140607
0.000140165
0.000139673
0.000139135
0.000138591
0.000138109
0.000137753
0.000137565
0.000137552
0.000137688
0.000137924
0.000138204
0.000138482
0.000138725
0.000138919
0.000139063
0.000139164
0.00013923
0.000139272
0.000139297
0.000139311
0.00013932
0.000139324
0.000139326
0.000139327
0.000139328
0.000139328
0.000139328
0.000139328
0.000139328
0.000139328
0.000139328
0.000139328
0.000139328
0.000139328
0.000139328
0.000139329
0.000139328
0.000139329
0.000139327
0.000139331
0.000139322
0.000139341
0.000139304
0.000139374
0.000139246
0.000139472
0.000139092
0.000139699
0.000138779
0.000140094
0.000138337
0.000140506
0.000138082
0.000140457
0.000138546
0.000139585
0.000139583
0.000138911
0.000139185
0.000141009
0.000135281
0.00014598
0.000131287
0.000147138
0.000134805
0.000139175
0.000144412
0.000131461
0.00014719
0.000134623
0.000139914
0.000143941
0.000131002
0.000149876
0.000134377
0.0001306
0.000166031
0.000106583
0.000150697
0.000159388
0.000157326
0.000155546
0.000153985
0.0001526
0.000151355
0.000150226
0.000149197
0.000148253
0.000147379
0.000146561
0.000145797
0.000145087
0.000144427
0.0001438
0.000143191
0.000142598
0.000142038
0.000141532
0.000141083
0.000140663
0.000140226
0.000139739
0.000139204
0.000138665
0.000138187
0.000137835
0.000137652
0.000137644
0.000137785
0.000138023
0.000138304
0.000138581
0.000138822
0.000139013
0.000139155
0.000139253
0.000139317
0.000139358
0.000139382
0.000139396
0.000139403
0.000139408
0.00013941
0.000139411
0.000139411
0.000139412
0.000139412
0.000139412
0.000139412
0.000139412
0.000139412
0.000139412
0.000139412
0.000139412
0.000139412
0.000139412
0.000139412
0.000139412
0.000139411
0.000139413
0.000139409
0.000139416
0.000139404
0.000139424
0.000139394
0.000139435
0.000139384
0.00013944
0.000139392
0.000139412
0.000139441
0.00013935
0.00013949
0.000139357
0.000139395
0.000139525
0.000139269
0.000139377
0.000139968
0.000138006
0.000141742
0.000136744
0.000141355
0.000139562
0.0001367
0.000143526
0.00013697
0.000137053
0.000147605
0.000127888
0.000148852
0.000136894
0.000134665
0.000147212
0.0001338
0.000140878
0.000139895
0.000141541
0.000128552
0.000159388
0.000157326
0.000155546
0.000153985
0.0001526
0.000151355
0.000150226
0.000149197
0.000148253
0.000147379
0.000146562
0.000145797
0.000145087
0.000144427
0.0001438
0.000143191
0.000142598
0.000142038
0.000141532
0.000141083
0.000140663
0.000140226
0.000139739
0.000139205
0.000138665
0.000138187
0.000137835
0.000137652
0.000137644
0.000137785
0.000138023
0.000138304
0.00013858
0.000138821
0.000139013
0.000139154
0.000139252
0.000139317
0.000139357
0.000139381
0.000139395
0.000139403
0.000139407
0.000139409
0.00013941
0.00013941
0.000139411
0.000139411
0.000139411
0.000139411
0.000139411
0.000139411
0.000139411
0.000139411
0.000139411
0.000139411
0.000139411
0.000139411
0.000139411
0.00013941
0.000139413
0.000139407
0.000139418
0.000139398
0.000139433
0.000139376
0.000139465
0.000139333
0.000139517
0.000139279
0.000139557
0.000139271
0.000139511
0.000139387
0.000139334
0.000139579
0.000139216
0.00013951
0.000139554
0.00013893
0.000140174
0.000138658
0.000139676
0.000140115
0.000137618
0.000141791
0.000137705
0.000139111
0.000142337
0.000134865
0.000143071
0.000139593
0.000134367
0.000147082
0.000133532
0.000140029
0.000143259
0.000135299
0.000141486
0.000136217
0.000159388
0.000157324
0.000155542
0.000153981
0.000152593
0.000151346
0.000150215
0.000149184
0.000148238
0.000147362
0.000146541
0.000145774
0.000145061
0.000144398
0.000143768
0.000143155
0.000142558
0.000141994
0.000141485
0.000141032
0.000140607
0.000140165
0.000139673
0.000139135
0.000138591
0.000138109
0.000137753
0.000137565
0.000137552
0.000137688
0.000137923
0.000138203
0.000138481
0.000138724
0.000138918
0.000139062
0.000139162
0.000139228
0.000139269
0.000139294
0.000139309
0.000139317
0.000139321
0.000139323
0.000139324
0.000139325
0.000139325
0.000139325
0.000139325
0.000139326
0.000139326
0.000139326
0.000139326
0.000139326
0.000139326
0.000139325
0.000139326
0.000139325
0.000139326
0.000139325
0.000139327
0.000139322
0.000139332
0.000139315
0.000139343
0.000139298
0.000139367
0.000139267
0.000139404
0.00013923
0.000139432
0.000139222
0.000139407
0.000139287
0.000139307
0.000139401
0.00013921
0.000139446
0.000139238
0.000139346
0.0001394
0.000139123
0.000139709
0.000138723
0.000140088
0.000138684
0.000139364
0.000140328
0.000137386
0.000141284
0.000138848
0.000137412
0.000142942
0.000136464
0.000139459
0.000141334
0.000139396
0.000131829
0.00015521
0.000118807
0.000159386
0.00015732
0.000155535
0.00015397
0.000152578
0.000151327
0.000150191
0.000149155
0.000148203
0.00014732
0.000146493
0.000145718
0.000144997
0.000144326
0.000143687
0.000143064
0.000142457
0.000141883
0.000141362
0.000140895
0.000140455
0.000139998
0.000139492
0.000138941
0.000138387
0.000137893
0.000137523
0.00013732
0.000137292
0.000137413
0.000137636
0.000137907
0.000138179
0.000138419
0.000138612
0.000138756
0.000138857
0.000138924
0.000138967
0.000138992
0.000139007
0.000139016
0.00013902
0.000139023
0.000139024
0.000139024
0.000139025
0.000139025
0.000139025
0.000139025
0.000139025
0.000139025
0.000139025
0.000139025
0.000139025
0.000139025
0.000139025
0.000139025
0.000139025
0.000139024
0.000139027
0.000139022
0.00013903
0.000139016
0.000139039
0.000139003
0.000139057
0.000138981
0.000139081
0.000138961
0.00013909
0.000138972
0.00013905
0.000139039
0.000138969
0.000139107
0.00013895
0.000139051
0.000139076
0.000138906
0.000139156
0.000138957
0.000138988
0.000139115
0.000139035
0.000138748
0.000139603
0.000138362
0.000139293
0.000139718
0.00013695
0.000142564
0.000134406
0.000143482
0.000136273
0.000137655
0.000146994
0.000124003
0.00016433
9.98506e-05
0.000159383
0.00015731
0.000155517
0.000153943
0.000152541
0.000151278
0.000150129
0.000149078
0.00014811
0.000147209
0.000146361
0.000145564
0.000144818
0.000144116
0.000143445
0.000142788
0.000142145
0.000141531
0.00014096
0.000140429
0.000139915
0.000139387
0.000138822
0.000138222
0.000137616
0.00013706
0.000136616
0.000136325
0.000136201
0.000136226
0.000136358
0.000136548
0.000136751
0.000136935
0.000137086
0.000137199
0.000137279
0.000137332
0.000137366
0.000137386
0.000137398
0.000137404
0.000137408
0.000137409
0.00013741
0.000137411
0.000137411
0.000137411
0.000137411
0.000137411
0.000137411
0.000137411
0.000137411
0.000137411
0.000137411
0.000137411
0.000137411
0.000137411
0.000137411
0.00013741
0.000137412
0.000137409
0.000137415
0.000137404
0.000137422
0.000137394
0.000137436
0.000137378
0.000137452
0.000137366
0.000137452
0.000137385
0.000137409
0.000137451
0.000137334
0.000137509
0.000137324
0.000137448
0.000137456
0.000137281
0.0001376
0.000137201
0.000137635
0.000137128
0.00013784
0.000136788
0.000138153
0.000136741
0.000137711
0.000137788
0.000135879
0.00014123
0.000129827
0.000149911
0.000119283
0.000153624
0.000127727
0.000128232
0.000178691
7.32927e-05
0.000159373
0.000157284
0.000155466
0.000153871
0.000152433
0.000151138
0.000149943
0.000148845
0.000147809
0.000146834
0.000145888
0.00014499
0.000144117
0.00014325
0.000142411
0.000141563
0.00014073
0.000139868
0.000138949
0.000137966
0.000136965
0.000136019
0.000135134
0.000134297
0.000133321
0.000132259
0.000131164
0.00013011
0.000129165
0.000128374
0.000127749
0.000127279
0.000126942
0.000126709
0.000126554
0.000126455
0.000126392
0.000126354
0.000126332
0.000126318
0.00012631
0.000126306
0.000126303
0.000126302
0.000126301
0.000126301
0.0001263
0.0001263
0.0001263
0.0001263
0.0001263
0.0001263
0.0001263
0.0001263
0.0001263
0.0001263
0.0001263
0.0001263
0.0001263
0.0001263
0.000126301
0.000126298
0.000126303
0.000126295
0.000126308
0.000126288
0.000126318
0.000126277
0.000126328
0.000126272
0.000126324
0.00012629
0.000126288
0.000126341
0.000126232
0.000126384
0.000126223
0.000126348
0.000126291
0.00012628
0.000126329
0.000126263
0.000126419
0.000125926
0.000127189
0.00012467
0.000128722
0.000123174
0.000129418
0.000123634
0.000126916
0.000129934
0.000116517
0.000146328
9.42304e-05
0.000160319
8.32621e-05
0.000144656
0.000137224
8.68431e-05
0.000159336
0.00015721
0.000155299
0.000153646
0.000152057
0.00015063
0.00014918
0.000147814
0.000146323
0.000144857
0.000143305
0.000141727
0.000140032
0.000138175
0.000136348
0.000134461
0.000132679
0.000130481
0.000128023
0.000125986
0.000125445
0.000127053
0.000130452
0.00013452
0.000138178
0.000140734
0.000142004
0.000142169
0.000141587
0.000140624
0.000139574
0.000138633
0.000137912
0.000137425
0.000137125
0.000136954
0.000136864
0.000136822
0.000136806
0.000136801
0.000136801
0.000136803
0.000136805
0.000136807
0.000136808
0.000136809
0.000136809
0.000136809
0.000136809
0.00013681
0.00013681
0.00013681
0.00013681
0.00013681
0.00013681
0.00013681
0.00013681
0.000136809
0.00013681
0.000136809
0.00013681
0.000136808
0.000136812
0.000136806
0.000136816
0.0001368
0.000136824
0.000136789
0.000136837
0.000136777
0.000136846
0.000136776
0.000136834
0.000136801
0.000136801
0.000136832
0.000136786
0.000136819
0.00013682
0.000136794
0.000136787
0.000136917
0.000136617
0.000136954
0.000137059
0.000135584
0.000139748
0.000131401
0.000144881
0.000125906
0.000148151
0.000126749
0.00013991
0.000145751
0.000111468
0.000178248
7.82467e-05
0.000185798
8.8169e-05
0.000141438
0.000159171
0.000156981
0.000154653
0.00015264
0.000150132
0.000147406
0.000143902
0.000140387
0.000136015
0.000132368
0.000128726
0.000125126
0.000121839
0.000119623
0.000119157
0.000120593
0.000123738
0.000128682
0.000136737
0.000150019
0.000169027
0.000192044
0.000216309
0.000239016
0.000257953
0.000272107
0.000281646
0.000287434
0.00029059
0.000292132
0.000292814
0.000293103
0.00029325
0.000293375
0.000293508
0.00029364
0.000293758
0.000293853
0.000293925
0.000293975
0.000294008
0.000294029
0.000294042
0.00029405
0.000294054
0.000294056
0.000294058
0.000294058
0.000294059
0.000294059
0.000294059
0.000294059
0.000294059
0.000294059
0.000294059
0.000294059
0.000294059
0.000294059
0.000294059
0.000294059
0.000294059
0.000294058
0.000294061
0.000294056
0.000294065
0.000294049
0.000294076
0.000294032
0.000294099
0.000294003
0.000294133
0.000293969
0.000294159
0.000293962
0.000294138
0.000294012
0.00029407
0.000294069
0.000294064
0.000293996
0.000294207
0.000293848
0.000294253
0.000293964
0.000294105
0.000293679
0.000295623
0.000290051
0.000301832
0.000281898
0.000310023
0.000276804
0.000308189
0.000288208
0.00028536
0.000320554
0.000249581
0.00034706
0.000236375
0.000321002
0.000158493
0.000156373
0.000150101
0.000143933
0.000134228
0.000123839
0.000115172
0.000109724
0.000107827
0.000111047
0.000117589
0.000126311
0.00013751
0.000152303
0.000169783
0.000188789
0.000209513
0.000233206
0.000261015
0.000293235
0.000328885
0.000365641
0.000400176
0.000429468
0.000448904
0.000462063
0.000470597
0.000475801
0.000478864
0.000480673
0.000481765
0.0004825
0.000482987
0.000483336
0.000483608
0.00048381
0.000483954
0.000484052
0.000484116
0.000484157
0.000484181
0.000484196
0.000484204
0.000484209
0.000484211
0.000484212
0.000484213
0.000484213
0.000484214
0.000484214
0.000484214
0.000484214
0.000484214
0.000484214
0.000484214
0.000484214
0.000484214
0.000484214
0.000484214
0.000484214
0.000484214
0.000484213
0.000484215
0.000484212
0.000484217
0.000484208
0.000484224
0.000484197
0.000484241
0.000484173
0.000484274
0.000484133
0.000484316
0.000484098
0.00048433
0.000484118
0.000484267
0.000484215
0.000484172
0.000484252
0.000484255
0.000484023
0.000484577
0.00048374
0.000484674
0.00048384
0.000484681
0.000483047
0.000487053
0.000478736
0.000492748
0.000473448
0.000495192
0.00047608
0.000485628
0.000492518
0.000464088
0.000515932
0.000445506
0.000517794
0.000160363
0.000142977
0.000113181
0.000104212
0.000102326
0.000110426
0.000120173
0.000139247
0.00015183
0.000167502
0.000186161
0.000206473
0.000228365
0.000250855
0.000272518
0.000292967
0.000312667
0.00033182
0.0003498
0.000365689
0.000379255
0.000390323
0.000398979
0.000405422
0.000410004
0.000413097
0.000415084
0.000416322
0.000417085
0.000417582
0.00041794
0.000418238
0.000418448
0.000418592
0.000418703
0.000418781
0.000418834
0.000418869
0.000418891
0.000418904
0.000418912
0.000418916
0.000418919
0.00041892
0.000418921
0.000418921
0.000418921
0.000418921
0.000418921
0.000418921
0.000418921
0.000418921
0.000418921
0.000418921
0.000418921
0.000418921
0.000418921
0.000418921
0.000418922
0.000418921
0.000418922
0.000418921
0.000418922
0.000418921
0.000418922
0.00041892
0.000418924
0.000418917
0.000418929
0.000418909
0.000418941
0.000418894
0.000418959
0.000418875
0.000418974
0.000418871
0.00041896
0.000418905
0.000418912
0.000418951
0.000418898
0.000418903
0.000419018
0.000418738
0.000419161
0.000418684
0.000419129
0.000418663
0.000419489
0.000417665
0.000421197
0.000415625
0.000422764
0.000415486
0.000420872
0.000420084
0.000413952
0.000429208
0.000406294
0.000436641
1.26352e-05
2.97454e-05
5.03759e-05
6.5341e-05
7.29693e-05
7.5312e-05
7.46101e-05
7.23261e-05
6.96546e-05
6.71459e-05
6.4911e-05
6.31653e-05
6.19559e-05
6.11957e-05
6.07961e-05
6.0731e-05
6.09731e-05
6.1435e-05
6.19793e-05
6.24806e-05
6.28789e-05
6.31671e-05
6.33632e-05
6.34911e-05
6.35736e-05
6.36278e-05
6.36641e-05
6.36895e-05
6.37091e-05
6.37263e-05
6.37424e-05
6.37557e-05
6.37655e-05
6.37727e-05
6.37778e-05
6.37813e-05
6.37835e-05
6.3785e-05
6.37858e-05
6.37863e-05
6.37866e-05
6.37868e-05
6.37869e-05
6.37869e-05
6.37869e-05
6.37869e-05
6.37869e-05
6.37869e-05
6.37869e-05
6.3787e-05
6.3787e-05
6.3787e-05
6.3787e-05
6.3787e-05
6.3787e-05
6.3787e-05
6.3787e-05
6.3787e-05
6.3787e-05
6.3787e-05
6.3787e-05
6.3787e-05
6.3787e-05
6.3787e-05
6.3787e-05
6.37869e-05
6.3787e-05
6.37868e-05
6.37872e-05
6.37866e-05
6.37876e-05
6.3786e-05
6.37883e-05
6.37852e-05
6.37891e-05
6.37847e-05
6.3789e-05
6.37857e-05
6.37872e-05
6.37879e-05
6.37854e-05
6.37877e-05
6.37887e-05
6.37813e-05
6.37964e-05
6.37758e-05
6.37972e-05
6.37778e-05
6.38007e-05
6.37562e-05
6.38511e-05
6.36805e-05
6.39286e-05
6.36355e-05
6.3898e-05
6.37544e-05
6.36398e-05
6.40223e-05
6.31659e-05
6.43065e-05
0.000527593
0.00179487
0.00164351
0.00305624
0.00202066
0.00124487
0.000786832
0.000475066
0.000316612
0.00026282
0.000228879
0.000196252
0.000181814
0.000182242
0.000185386
0.000185134
0.000181151
0.000174996
0.000168289
0.000162141
0.00015691
0.000152429
0.000148576
0.00014545
0.00014313
0.000141584
0.000140669
0.000140167
0.000139902
0.000139764
0.00013969
0.000139651
0.00013963
0.000139618
0.000139611
0.000139608
0.000139606
0.000139605
0.000139604
0.000139604
0.000139604
0.000139604
0.000139604
0.000139604
0.000139604
0.000139604
0.000139604
0.000139604
0.000139604
0.000139604
0.000139604
0.000139604
0.000139604
0.000139604
0.000139604
0.000139604
0.000139604
0.000139604
0.000139604
0.000139604
0.000139604
0.000139604
0.000139604
0.000139604
0.000139604
0.000139604
0.000139604
0.000139604
0.000139604
0.000139604
0.000139604
0.000139604
0.000139604
0.000139604
0.000139604
0.000139604
0.000139604
0.000139604
0.000139604
0.000139604
0.000139604
0.000139603
0.000139604
0.000139603
0.000139605
0.000139602
0.000139606
0.000139601
0.000139607
0.0001396
0.000139606
0.000139601
0.000139606
0.000139601
0.000139605
0.0001396
0.000139604
0.000139597
0.0001396
0.000139587
0.000720303
0.00168964
0.0016613
0.00257224
0.00170709
0.00106741
0.000654798
0.0003796
0.000251793
0.000217954
0.000214842
0.000197669
0.000181588
0.000177824
0.000180175
0.000181363
0.000179009
0.000173816
0.000167425
0.000161303
0.000156131
0.000151837
0.00014821
0.000145273
0.00014308
0.000141568
0.000140628
0.000140096
0.000139809
0.000139656
0.000139576
0.000139534
0.000139512
0.000139501
0.000139495
0.000139491
0.00013949
0.000139489
0.000139488
0.000139488
0.000139488
0.000139488
0.000139488
0.000139488
0.000139488
0.000139488
0.000139488
0.000139488
0.000139488
0.000139488
0.000139488
0.000139488
0.000139488
0.000139488
0.000139488
0.000139488
0.000139488
0.000139488
0.000139488
0.000139488
0.000139488
0.000139488
0.000139488
0.000139488
0.000139488
0.000139488
0.000139488
0.000139488
0.000139488
0.000139488
0.000139488
0.000139488
0.000139488
0.000139488
0.000139488
0.000139488
0.000139488
0.000139488
0.000139488
0.000139488
0.000139488
0.000139488
0.000139488
0.000139487
0.000139489
0.000139486
0.000139491
0.000139485
0.000139491
0.000139485
0.000139491
0.000139486
0.00013949
0.000139486
0.000139489
0.000139486
0.000139488
0.000139485
0.000139486
0.00013948
0.000705884
0.00146819
0.00172436
0.00214865
0.00139114
0.000859142
0.000509655
0.000303818
0.00023731
0.00021527
0.000214599
0.000202633
0.000184749
0.000176174
0.000176225
0.000177884
0.000176911
0.000172741
0.000166717
0.000160559
0.000155351
0.000151238
0.000147924
0.000145259
0.000143222
0.000141749
0.000140759
0.000140158
0.00013982
0.000139637
0.00013954
0.00013949
0.000139464
0.000139451
0.000139444
0.000139441
0.000139439
0.000139438
0.000139438
0.000139438
0.000139438
0.000139437
0.000139437
0.000139437
0.000139437
0.000139437
0.000139437
0.000139437
0.000139437
0.000139437
0.000139437
0.000139437
0.000139437
0.000139437
0.000139437
0.000139437
0.000139437
0.000139437
0.000139437
0.000139437
0.000139437
0.000139437
0.000139437
0.000139437
0.000139437
0.000139437
0.000139437
0.000139437
0.000139437
0.000139437
0.000139437
0.000139437
0.000139437
0.000139437
0.000139437
0.000139437
0.000139437
0.000139437
0.000139437
0.000139437
0.000139438
0.000139437
0.000139438
0.000139437
0.000139439
0.000139436
0.00013944
0.000139435
0.00013944
0.000139435
0.000139439
0.000139436
0.000139438
0.000139437
0.000139438
0.000139438
0.000139437
0.00013944
0.000139438
0.000139442
0.000615386
0.00107492
0.00154526
0.00163331
0.00103209
0.000630371
0.000364757
0.000223823
0.000184511
0.000179982
0.000198706
0.000203101
0.000188551
0.000175726
0.000172332
0.000173642
0.000173989
0.000171187
0.000165888
0.000159854
0.000154565
0.000150537
0.000147533
0.000145205
0.000143389
0.000142005
0.000141006
0.000140349
0.000139954
0.000139731
0.00013961
0.000139545
0.000139511
0.000139493
0.000139484
0.000139479
0.000139477
0.000139475
0.000139475
0.000139475
0.000139474
0.000139474
0.000139474
0.000139474
0.000139474
0.000139474
0.000139474
0.000139474
0.000139474
0.000139474
0.000139474
0.000139474
0.000139474
0.000139474
0.000139474
0.000139474
0.000139474
0.000139474
0.000139474
0.000139474
0.000139474
0.000139474
0.000139474
0.000139474
0.000139474
0.000139474
0.000139474
0.000139474
0.000139474
0.000139474
0.000139474
0.000139474
0.000139474
0.000139474
0.000139474
0.000139474
0.000139474
0.000139474
0.000139474
0.000139474
0.000139474
0.000139474
0.000139475
0.000139474
0.000139475
0.000139473
0.000139476
0.000139472
0.000139476
0.000139472
0.000139475
0.000139474
0.000139474
0.000139475
0.000139474
0.000139477
0.000139473
0.00013948
0.000139477
0.000139487
0.000599637
0.000696234
0.00119392
0.0010761
0.000689127
0.000430924
0.000249648
0.000187451
0.000186595
0.000172868
0.000183863
0.000200821
0.000196063
0.000181518
0.000172636
0.000170796
0.000170891
0.000169111
0.000164768
0.000159144
0.000153856
0.000149785
0.000146917
0.000144842
0.00014325
0.000142009
0.000141072
0.00014042
0.000140009
0.000139768
0.000139633
0.000139559
0.00013952
0.0001395
0.000139489
0.000139484
0.000139481
0.000139479
0.000139479
0.000139478
0.000139478
0.000139478
0.000139478
0.000139478
0.000139478
0.000139478
0.000139478
0.000139478
0.000139478
0.000139478
0.000139478
0.000139478