/*--------------------------------*- C++ -*----------------------------------*\
| =========                 |                                                 |
| \\      /  F ield         | OpenFOAM: The Open Source CFD Toolbox           |
|  \\    /   O peration     | Version:  v2012                                 |
|   \\  /    A nd           | Website:  www.openfoam.com                      |
|    \\/     M anipulation  |                                                 |
\*---------------------------------------------------------------------------*/
FoamFile
{
    version     2.0;
    format      ascii;
    class       volScalarField;
    location    "0.039";
    object      epsilon.air;
}
// * * * * * * * * * * * * * * * * * * * * * * * * * * * * * * * * * * * * * //

dimensions      [0 2 -3 0 0 0 0];


internalField   nonuniform List<scalar> 
1900
(
112.724
141.424
210.097
257.591
369.051
443.457
614.74
724.903
971.319
1128.61
15.4677
16.4471
18.6358
20.4516
23.7551
27.7295
32.0018
39.2891
45.128
56.7749
14.7926
14.6415
14.5754
14.5063
14.5148
14.5573
14.6409
14.8311
15.0772
15.4135
14.7703
14.6301
14.4637
14.3351
14.1728
14.0587
13.9042
13.8077
13.6656
13.5935
14.7774
14.6207
14.4713
14.3196
14.1757
14.028
13.8899
13.7462
13.6148
13.476
14.7784
14.6198
14.4721
14.3188
14.1762
14.0276
13.89
13.7464
13.6142
13.4764
14.7778
14.6207
14.4731
14.3235
14.1841
14.0451
13.9175
13.7916
13.6807
13.5719
14.7766
14.6499
14.5642
14.5038
14.5112
14.5523
14.6375
14.8204
15.0478
15.395
15.2246
16.5952
18.2863
20.6779
23.6031
27.5751
32.2823
38.4095
45.5978
54.8209
106.188
146.432
198.62
265.705
350.324
456.112
586.085
743.904
932.427
1154.5
4099.07
15211.5
19608.2
22438.1
21094.1
17986.4
15053.7
12760.2
11276.5
10363.4
9871.63
9691.57
9506.44
9224.74
8806.99
8304.65
7751.47
7169.35
6609.47
6098.28
5626.28
5202.96
4820.72
4469.14
4148.2
3855.63
3589.68
3348.05
3128.32
2928.24
2745.68
2578.89
2426.17
2286.39
2158.76
2042.3
1936.09
1839.03
1749.97
1667.66
1590.78
1518.16
1448.88
1382.29
1318.2
1256.79
1198.45
1143.71
1093.03
1046.75
1005.05
967.798
934.503
904.396
876.678
850.576
825.32
800.269
775.004
749.361
723.368
697.292
671.624
646.927
623.666
602.17
582.624
565.063
549.328
534.994
521.447
508.038
494.272
479.752
464.287
447.681
430.075
411.437
392.131
371.954
351.435
330.097
308.733
286.519
264.652
241.964
220.168
197.795
177.041
156.123
137.63
119.342
104.19
89.2205
77.9232
66.1498
58.6629
49.3015
45.2737
36.7634
113.313
338.565
519.406
925.357
1127.04
1150.61
1122.24
1057.1
1052.43
1092.71
1198.93
1415.53
1699.43
2029.07
2369.81
2677.43
2951.16
3184.84
3342.43
3424.77
3418.22
3380.61
3294.86
3173.36
3041.67
2904.38
2769.04
2635.67
2507.14
2385.06
2268.01
2156.92
2051.7
1952.84
1860.72
1774.84
1695.29
1621.29
1552.09
1487.12
1425.51
1366.48
1309.41
1253.94
1199.97
1147.76
1097.7
1050.24
1005.86
964.912
927.652
894.081
863.889
836.55
811.467
787.961
765.31
742.901
720.34
697.41
674.02
650.275
626.487
603.122
580.644
559.424
539.719
521.635
505.091
489.751
475.123
460.722
446.241
431.442
416.195
400.264
383.713
366.492
348.897
330.646
312.091
292.765
273.238
252.827
232.442
211.246
190.535
169.406
149.471
129.729
111.979
94.9943
80.673
67.269
56.9384
47.0234
40.6001
33.3134
30.3154
24.2584
16.4308
19.8777
22.8999
29.143
34.7982
38.803
41.7008
43.9162
46.58
51.2062
58.4188
72.165
95.2405
131.879
189.145
267.087
371.002
506.699
662.857
837.67
1007.13
1167.75
1306.37
1418.51
1503.59
1558.16
1590.83
1596.91
1590.96
1574.65
1545.25
1510.36
1471.89
1431.89
1391.78
1351.29
1312.38
1273.51
1234.96
1197.15
1159.45
1121.56
1083.35
1045.02
1006.76
968.992
932.182
896.812
863.352
832.092
803.277
777.011
753.125
731.316
711.217
692.319
674.036
655.88
637.56
618.848
599.575
579.75
559.534
539.242
519.26
499.965
481.655
464.511
448.545
433.508
419.048
404.946
391.181
377.722
364.496
351.158
337.657
323.876
309.968
295.56
280.818
265.06
248.65
230.855
212.478
192.927
173.358
153.203
133.85
114.767
97.4376
81.2055
67.4911
55.208
45.7727
37.3349
31.86
26.1756
23.8478
19.5277
13.4535
13.4615
13.5491
13.8093
14.3438
15.032
15.7255
16.3928
16.9093
17.4349
17.8511
18.4734
19.2802
20.5833
22.8243
26.2416
31.7308
40.8511
54.3658
76.5818
107.133
148.608
201.29
262.665
330.049
401.271
471.46
537.808
598.112
652.053
697.902
735.564
764.777
786.959
803.425
813.385
820.698
821.073
819.199
814.575
805.843
793.829
779.173
762.542
743.998
724.544
704.789
685.202
666.315
648.292
631.346
615.655
601.201
587.719
575.018
562.867
550.888
538.787
526.418
513.582
500.027
485.73
470.794
455.373
439.707
424.14
409
394.586
381.036
368.175
355.718
343.955
333.309
323.971
315.641
308.382
301.666
294.432
286.505
277.844
268.539
257.716
245.622
231.368
215.903
198.55
180.718
161.683
143.135
124.318
107.076
90.5161
76.4587
63.5696
53.6568
44.581
38.7034
32.4456
29.9146
24.9955
13.3312
13.1578
13.0652
13.1214
13.3137
13.7341
14.3007
14.9458
15.4621
15.9231
16.22
16.4681
16.6457
16.773
16.9552
17.1029
17.3824
17.7592
18.3492
19.3087
20.9811
23.2396
27.0654
32.4672
39.887
50.486
64.1463
80.8042
101.428
125.01
151.389
179.613
209.26
239.61
269.906
299.703
328.822
355.744
379.773
400.781
417.37
429.213
436.855
441.495
442.253
441.514
439.504
436.27
432.754
429.074
425.434
422.039
418.923
415.76
412.484
409.121
405.452
401.283
396.723
391.665
385.571
378.365
370.309
361.375
351.627
341.466
331.226
321.369
312.291
303.933
296.367
290.749
288.255
287.879
288.405
290.326
293.049
295.097
295.865
295.664
294.239
290.199
283.887
274.116
262.195
247.395
231.883
214.174
196.914
178.141
160.987
142.981
127.661
111.811
99.5781
86.5313
78.1155
67.5933
63.0665
53.5304
13.3264
13.1532
13.0342
13.091
13.3045
13.7879
14.5211
15.5182
16.5362
17.641
18.6294
19.5556
20.2959
20.9026
21.3433
21.644
21.8262
21.889
21.8708
21.8185
21.7254
21.5972
21.5597
21.5957
21.7164
21.9882
22.5442
23.3687
24.7161
26.6045
29.3788
32.9164
37.6903
43.9268
51.2573
60.2671
71.2933
83.8819
97.8895
113.207
128.764
143.594
157.191
169.539
180.324
189.751
198.111
205.843
213.216
220.342
227.503
234.888
242.34
249.482
256.37
263.123
269.596
275.523
280.839
285.434
288.526
289.279
288.929
287.524
284.32
280.567
276.541
272.643
269.94
269.391
270.284
273.858
283.197
297.368
314.302
332.424
349.713
364.566
376.13
384.181
388.799
389.919
388.824
382.92
371.564
356.933
341.389
322.853
304.732
284.016
265.267
244.239
226.739
207.038
192.397
174.972
164.104
148.854
141.949
126.703
13.4657
13.3611
13.4119
13.6618
14.3172
15.714
18.0746
21.5108
25.4789
29.8009
33.6938
37.1395
39.6666
41.6193
42.692
43.421
43.4321
43.2902
42.9362
42.3925
41.7318
41.1021
40.4715
39.9343
39.4721
39.1233
38.8723
38.7799
38.8277
38.9814
39.3049
39.8294
40.5212
41.4314
42.5099
43.8504
45.7187
48.1443
51.3309
55.7246
61.4471
68.5036
76.7649
86.2565
96.4533
106.657
116.364
125.491
133.888
141.892
150.423
160.176
171.302
183.657
197.387
212.427
228.423
244.666
260.204
274.288
286.055
294.895
300.826
304.253
306.17
307.749
309.469
311.946
316.757
326.579
343.51
368.624
401.265
438.646
476.683
511.253
539.496
560.589
574.94
582.581
584.699
583.87
579.068
565.891
549.046
528.695
507.151
482.91
459.38
433.896
411.299
387.102
367.74
346.447
331.368
313.307
302.444
286.862
279.745
263.869
15.9141
16.8593
18.5627
21.9582
28.4918
39.6577
55.6816
75.3264
95.7348
114.556
129.436
140.194
146.597
150.233
150.88
150.46
149.427
147.607
146.142
144.765
144.188
144.384
145.159
146.895
149.731
153.508
158.212
163.959
170.55
178.245
186.935
196.639
207.182
218.302
229.863
242.015
255.082
269.267
285.044
303.098
323.616
346.605
372.327
400.335
428.16
452.562
471.501
484.278
491.408
494.479
495.407
496.056
497.661
501.451
509.889
523.504
541.798
562.392
581.6
597.119
608.258
614.607
616.296
615.597
614.202
614.472
616.695
622.712
635.357
661.522
702.153
753.125
806.09
853.259
889.925
913.755
925.351
927.534
925.625
917.551
904.504
887.173
865.155
838.882
810.202
779.209
748.046
716.213
686.505
657.235
632.17
607.48
588.464
568.688
555.32
539.775
530.802
518.198
512.555
500.076
68.0947
90.4835
126.464
185.302
272.845
386.267
512.869
637.065
745.765
832.048
892.82
932.003
953.006
963.046
964.447
963.256
960.477
956.316
955.001
955.767
958.474
964.373
974.435
987.395
1002.98
1021.09
1041.39
1063.53
1087
1112.31
1138.47
1164.9
1190.76
1215.59
1239.14
1261.61
1284.25
1306.91
1330.94
1356.57
1384.26
1413.79
1443.22
1469.98
1488.41
1493.93
1492.4
1485.34
1473.89
1463.52
1455.53
1452.14
1452.56
1456.7
1468.34
1485.41
1504.81
1521.25
1528.38
1527.98
1523
1511.86
1499.56
1485.17
1473.52
1470.28
1472.06
1479.6
1496.99
1532.16
1578.83
1623.7
1652.08
1658.51
1654.09
1635.38
1606.85
1577.47
1545.79
1511.64
1475.81
1437.5
1397.01
1354.62
1311.95
1269.58
1229.45
1191.62
1158.11
1127.65
1102.64
1079.7
1062.76
1045.89
1035.21
1022.83
1016.22
1006.71
1002.5
993.27
1465.6
1898.03
2400.36
2963.01
3564.67
4172.62
4746.65
5250.18
5653.04
5946.87
6127.88
6213.14
6200.21
6152.92
6053.49
5919.6
5769.2
5610.74
5451
5294.29
5143.21
4999.01
4862.66
4734.07
4613.45
4500.74
4395.88
4298.65
4208.84
4126.47
4051.06
3982.77
3921.7
3868
3821.5
3781.74
3747.86
3718.15
3691.47
3666.03
3640.73
3615.83
3592.27
3570.86
3551.96
3536.27
3524.88
3518.21
3515.71
3515.69
3517.56
3522.27
3526.5
3529.56
3531.61
3533.18
3534.41
3534.88
3534.21
3531.81
3529.24
3526.08
3521.57
3514.78
3501.8
3478.43
3444.58
3407.19
3379.15
3368.92
3370.15
3378.93
3382.22
3379.87
3367.75
3340.08
3306.47
3265.53
3215.53
3157.4
3092.99
3023.95
2953.37
2884.04
2818.93
2759.41
2707.12
2661.71
2623.87
2591.82
2566.38
2544.38
2528.12
2512.6
2502.48
2490.77
2484.22
2474.52
2470.13
2460.04
1128.73
1088.17
1148.22
1237.14
1266.25
1145.57
836.042
2019.81
54689.8
16284.1
7482.97
6222.09
6346.71
6597.57
6668.5
8171.08
74515.4
44138.1
25239.3
18768.4
16344.1
15211.6
14828.9
19958
76399.9
71287
54677
41601.6
33028.6
27434.8
24784.2
34420.3
69660.2
75780.2
67959.4
55909.3
44803.7
36032.4
31022.4
42942.3
57640.9
71158.4
67983.7
59136.4
48489.1
38843.3
32883.9
45373.7
47369.4
61713.5
62437.6
56606.5
47182.4
38198.2
32477.2
44287.3
38965.5
51672.6
53456.3
49728.4
42315.6
34622.9
29553
39704.4
32522.2
42844.6
44777.7
42006.2
36202.4
29967.5
25761
33951.7
27512.9
35490.2
37118.9
34988.5
30440.2
25479.3
22167.1
29329.1
23403.4
29467.2
30700.6
29008.8
25438.3
21561.7
19104.1
25960.7
20031
24592.6
25467.3
24085.5
21258.5
18234.2
16444.5
22922.9
17298.7
20692
21277.3
20126.1
17868.9
15499.7
14219.7
20307.6
15069.9
17577.5
17942.9
16969.4
15151.8
13282.4
12386.4
18105.3
13221.1
15073.9
15281.9
14452.3
12975.8
11491
10886.8
16278.1
11665
13040.6
13140.7
12430.5
11221.8
10036.5
9656.44
14761.5
10347.5
11376.3
11403.6
10793.1
9796.34
8845.9
8639.29
13494
9216.39
9997.25
9980.24
9452.75
8626.24
7862.53
7791.86
12427.7
8242.04
8843.27
8801.22
8343.66
7655.19
7041.67
7077.39
11520.9
7406.85
7873.18
7816.14
7418.33
6842.05
6349.94
6468.37
10743
6686.19
7051.33
6986.01
6639.39
6154.82
5761.33
5945.75
10068.9
6065.02
6351.99
6282.3
5979.1
5569.66
5256.5
5493.72
9479.48
5525.93
5752.25
5681.07
5415.08
5067.82
4820.64
5100.33
8961.34
5053.3
5233.27
5162.94
4929.25
4634.16
4441.85
4756.1
8503.93
4636.96
4781.27
4713.29
4507.71
4256.72
4110.48
4453.13
8097.92
4268.25
4385.07
4320.47
4139.54
3926.18
3818.92
4185.03
7735.83
3940.47
4035.89
3975.33
3816.15
3635.09
3561.03
3946.63
7411.49
3648.28
3726.8
3670.55
3530.52
3377.32
3331.66
3733.5
7119.48
3386.83
3451.87
3399.94
3276.81
3147.75
3126.55
3542.06
6855.58
3151.84
3206.06
3158.44
3050.33
2942.41
2942.57
3369.64
6616.81
2940.08
2985.6
2942.2
2847.56
2758.3
2776.78
3214.35
6400.66
2748.74
2787.25
2747.97
2665.45
2592.75
2627.37
3074.25
6204.96
2575.33
2608.26
2573.03
2501.54
2443.67
2492.7
2947.91
6027.84
2418.06
2446.61
2415.38
2353.99
2309.47
2371.45
2834.12
5867.66
2275.62
2300.74
2273.4
2221.25
2188.74
2262.35
2731.75
5722.93
2146.67
2169.19
2145.59
2101.86
2080.13
2164.16
2639.54
5592.09
2029.9
2050.46
2030.43
1994.27
1982.13
2075.38
2555.92
5472.9
1923.89
1942.97
1926.22
1896.79
1893.06
1994.3
2479.06
5362.64
1827.19
1845.07
1831.23
1807.64
1811.09
1919.19
2407.15
5258.7
1738.23
1755.02
1743.64
1725.04
1734.56
1848.48
2338.7
5159.12
1655.42
1671.17
1661.84
1647.48
1662.17
1781.03
2272.81
5062.83
1577.43
1592.12
1584.51
1573.83
1593.06
1716.26
2209.21
4969.65
1503.24
1516.93
1510.84
1503.51
1526.92
1654.14
2148.17
4880.18
1432.24
1445.07
1440.48
1436.39
1463.83
1595
2090.35
4795.56
1364.21
1376.44
1373.47
1372.68
1404.21
1539.47
2036.61
4717.29
1299.37
1311.33
1310.21
1312.84
1348.68
1488.26
1987.79
4646.86
1238.21
1250.27
1251.28
1257.53
1297.86
1441.98
1944.49
4585.33
1181.29
1193.84
1197.24
1207.24
1252.13
1400.89
1906.83
4532.94
1129.04
1142.41
1148.37
1162.17
1211.55
1364.89
1874.51
4489.07
1081.72
1096.16
1104.72
1122.19
1175.83
1333.5
1846.8
4452.42
1039.38
1054.99
1066.03
1086.87
1144.36
1305.96
1822.71
4421.2
1001.74
1018.47
1031.71
1055.49
1116.31
1281.3
1801.09
4393.37
968.108
985.773
1000.87
1027.09
1090.68
1258.47
1780.74
4366.81
937.607
955.955
972.503
1000.66
1066.44
1236.44
1760.6
4339.63
909.342
928.078
945.657
975.265
1042.71
1214.39
1739.87
4310.51
882.481
901.31
919.547
950.194
1018.88
1191.8
1718.11
4278.89
856.27
874.952
893.565
924.955
994.592
1168.5
1695.39
4245.15
830.122
848.502
867.326
899.309
969.781
1144.61
1672.09
4210.4
803.675
821.69
840.691
873.276
944.635
1120.49
1648.78
4176.33
776.86
794.56
813.839
847.173
919.606
1096.71
1626.15
4145.05
749.853
767.432
787.226
821.569
895.353
1074.02
1605.15
4118.8
723.094
740.867
761.498
797.166
872.614
1053.2
1586.78
4099.68
697.175
715.5
737.3
774.59
851.988
1034.84
1571.62
4088.93
672.67
691.884
715.139
754.286
833.841
1019.18
1559.63
4086.18
650.005
670.388
695.307
736.456
818.264
1006.21
1550.7
4088.82
629.441
651.193
677.896
721.101
805.177
995.828
1545.04
4101.3
611.076
634.319
662.841
708.069
794.358
987.758
1542.31
4122.59
594.884
619.682
650.001
697.169
785.562
981.661
1542.03
4148.39
580.652
607.041
639.119
688.139
778.521
977.212
1542.96
4177.84
567.899
595.888
629.693
680.519
772.872
974.243
1545.93
4208.71
555.934
585.487
620.962
673.554
767.909
972.149
1550.11
4237.8
544.012
575.036
612.088
666.386
762.785
970.181
1555.04
4260.99
531.541
563.897
602.426
658.396
756.941
967.833
1560.08
4274.12
518.054
551.589
591.526
649.229
750.188
965.2
1565.32
4275.98
503.342
537.922
579.255
638.835
742.58
962.34
1570.68
4268.67
487.242
522.774
565.541
627.174
733.979
958.658
1574.12
4240.25
469.936
506.342
550.561
614.35
724.371
953.949
1574.71
4194.82
451.359
488.49
534.085
600.04
713.394
947.964
1573.53
4136.57
431.877
469.552
516.36
584.332
700.869
940.239
1569.06
4066.56
411.286
449.284
497.071
566.785
686.085
929.44
1560.05
3987.56
390.199
428.319
476.812
547.898
669.396
915.565
1546.27
3903.88
368.082
406.054
454.913
526.955
650.114
898.138
1526.98
3819.15
345.891
383.534
432.419
504.895
628.971
877.98
1503.44
3737.76
322.644
359.677
408.251
480.773
605.25
854.68
1475.98
3662.01
299.825
336.184
384.24
456.46
580.862
829.995
1446.7
3594.82
275.955
311.405
358.767
430.629
555.009
803.792
1416.45
3536.65
253.224
287.907
334.624
406.066
530.31
778.65
1388.02
3488.85
229.646
263.403
309.518
380.856
505.476
754.058
1361.58
3450.18
208.109
241.307
287.112
358.513
483.574
732.591
1339.21
3420.9
186.071
218.576
264.238
336.229
462.553
713.021
1320.17
3399.05
167.008
199.307
245.169
317.866
445.484
697.542
1305.69
3384.21
147.695
179.588
225.797
299.777
429.602
684.379
1294.79
3374.63
132.114
164.062
210.826
285.985
417.755
675.087
1287.97
3369.6
116.115
147.826
195.278
272.266
406.926
667.727
1284.04
3367.87
104.405
136.238
184.369
262.753
399.664
663.33
1282.76
3368.11
91.5054
123.13
172.151
252.779
393.092
660.478
1282.97
3370.74
83.5036
115.146
164.794
246.835
389.373
659.562
1284.46
3373.31
72.8654
104.231
154.863
239.444
385.737
659.511
1287.48
3377.97
68.1333
99.3009
150.41
236.304
384.4
660.048
1289.8
3380.25
57.7815
88.3253
140.528
229.607
382.292
661.948
1293.99
3385.83
)
;

boundaryField
{
    frontAndBack
    {
        type            empty;
    }
    inlet
    {
        type            fixedValue;
        value           uniform 14.855;
    }
    outlet
    {
        type            zeroGradient;
    }
    walls
    {
        lowReCorrection 0;
        blending        stepwise;
        n               2;
        type            epsilonWallFunction;
        value           nonuniform List<scalar> 
228
(
112.724
141.424
210.097
257.591
369.051
443.457
614.74
724.903
971.319
1128.61
1128.73
1088.17
1148.22
1237.14
1266.25
1145.57
836.042
2019.81
2019.81
8171.08
19958
34420.3
42942.3
45373.7
44287.3
39704.4
33951.7
29329.1
25960.7
22922.9
20307.6
18105.3
16278.1
14761.5
13494
12427.7
11520.9
10743
10068.9
9479.48
8961.34
8503.93
8097.92
7735.83
7411.49
7119.48
6855.58
6616.81
6400.66
6204.96
6027.84
5867.66
5722.93
5592.09
5472.9
5362.64
5258.7
5159.12
5062.83
4969.65
4880.18
4795.56
4717.29
4646.86
4585.33
4532.94
4489.07
4452.42
4421.2
4393.37
4366.81
4339.63
4310.51
4278.89
4245.15
4210.4
4176.33
4145.05
4118.8
4099.68
4088.93
4086.18
4088.82
4101.3
4122.59
4148.39
4177.84
4208.71
4237.8
4260.99
4274.12
4275.98
4268.67
4240.25
4194.82
4136.57
4066.56
3987.56
3903.88
3819.15
3737.76
3662.01
3594.82
3536.65
3488.85
3450.18
3420.9
3399.05
3384.21
3374.63
3369.6
3367.87
3368.11
3370.74
3373.31
3377.97
3380.25
3385.83
106.188
146.432
198.62
265.705
350.324
456.112
586.085
743.904
932.427
1154.5
1465.6
1898.03
2400.36
2963.01
3564.67
4172.62
4746.65
5250.18
5653.04
5946.87
6127.88
6213.14
6200.21
6152.92
6053.49
5919.6
5769.2
5610.74
5451
5294.29
5143.21
4999.01
4862.66
4734.07
4613.45
4500.74
4395.88
4298.65
4208.84
4126.47
4051.06
3982.77
3921.7
3868
3821.5
3781.74
3747.86
3718.15
3691.47
3666.03
3640.73
3615.83
3592.27
3570.86
3551.96
3536.27
3524.88
3518.21
3515.71
3515.69
3517.56
3522.27
3526.5
3529.56
3531.61
3533.18
3534.41
3534.88
3534.21
3531.81
3529.24
3526.08
3521.57
3514.78
3501.8
3478.43
3444.58
3407.19
3379.15
3368.92
3370.15
3378.93
3382.22
3379.87
3367.75
3340.08
3306.47
3265.53
3215.53
3157.4
3092.99
3023.95
2953.37
2884.04
2818.93
2759.41
2707.12
2661.71
2623.87
2591.82
2566.38
2544.38
2528.12
2512.6
2502.48
2490.77
2484.22
2474.52
2470.13
2460.04
)
;
    }
}


// ************************************************************************* //
