/*--------------------------------*- C++ -*----------------------------------*\
| =========                 |                                                 |
| \\      /  F ield         | OpenFOAM: The Open Source CFD Toolbox           |
|  \\    /   O peration     | Version:  v2012                                 |
|   \\  /    A nd           | Website:  www.openfoam.com                      |
|    \\/     M anipulation  |                                                 |
\*---------------------------------------------------------------------------*/
FoamFile
{
    version     2.0;
    format      ascii;
    class       volVectorField;
    location    "0.039";
    object      U.air;
}
// * * * * * * * * * * * * * * * * * * * * * * * * * * * * * * * * * * * * * //

dimensions      [0 1 -1 0 0 0 0];


internalField   nonuniform List<vector> 
1900
(
(39.9709 0.00383241 0)
(39.9689 0.00151901 0)
(39.9615 -0.00022012 0)
(39.9459 0.00275344 0)
(39.8917 0.00881308 0)
(39.8426 0.0153937 0)
(39.6542 0.0331319 0)
(39.6051 0.0608302 0)
(38.5095 0.263418 0)
(38.7873 0.57041 0)
(40.0107 0.00488502 0)
(40.0088 0.00597391 0)
(39.9989 0.00831503 0)
(39.9765 0.0165646 0)
(39.9621 0.0274719 0)
(39.9328 0.0526057 0)
(39.8308 0.0834564 0)
(39.6616 0.225101 0)
(39.267 0.460853 0)
(38.7845 1.3685 0)
(39.9764 0.00122925 0)
(39.9903 0.00484666 0)
(39.9977 0.0100975 0)
(39.9965 0.0172662 0)
(39.9855 0.0317238 0)
(39.9606 0.0647513 0)
(39.9074 0.130078 0)
(39.7863 0.296542 0)
(39.633 0.693051 0)
(39.3727 1.56909 0)
(39.9771 0.00617226 0)
(39.9766 0.00675682 0)
(39.9831 0.009853 0)
(39.9848 0.0177456 0)
(39.9781 0.0362535 0)
(39.972 0.0780556 0)
(39.9185 0.161549 0)
(39.86 0.345711 0)
(39.8409 0.767858 0)
(39.8566 1.5208 0)
(40.0038 0.00297127 0)
(40.023 0.00585998 0)
(40.0317 0.00859884 0)
(40.0402 0.0183316 0)
(40.0282 0.0395057 0)
(40.0266 0.0849969 0)
(40.0294 0.175735 0)
(40.0376 0.357969 0)
(40.1208 0.748565 0)
(40.3276 1.37718 0)
(39.9934 -0.00332812 0)
(40.0058 -0.00144359 0)
(40.0183 0.00373134 0)
(40.0273 0.0165946 0)
(40.0366 0.039885 0)
(40.0509 0.0825052 0)
(40.0819 0.167325 0)
(40.1462 0.333351 0)
(40.3168 0.668072 0)
(40.6607 1.18659 0)
(39.9597 -0.000853792 0)
(39.974 -0.00284798 0)
(39.9895 -0.00134478 0)
(40.0041 0.00987856 0)
(40.0221 0.0318785 0)
(40.0514 0.0698548 0)
(40.1074 0.142306 0)
(40.2213 0.283335 0)
(40.4442 0.552706 0)
(40.8741 0.957128 0)
(40.0054 0.00102374 0)
(40.0157 -0.0036723 0)
(40.0081 -0.00112042 0)
(40.0069 0.00440534 0)
(40.0275 0.0210274 0)
(40.0636 0.0511123 0)
(40.1357 0.105081 0)
(40.2785 0.210616 0)
(40.562 0.409705 0)
(41.032 0.698581 0)
(40.0116 -0.00511113 0)
(39.9976 -0.00551749 0)
(40.0209 -0.00177293 0)
(40.0203 0.000624152 0)
(40.0395 0.0108671 0)
(40.0796 0.0300799 0)
(40.167 0.0656211 0)
(40.2965 0.131654 0)
(40.6022 0.252598 0)
(41.1268 0.426048 0)
(39.9881 -0.00312398 0)
(39.9822 -0.00407665 0)
(39.9846 -0.00478346 0)
(39.9682 -0.00394821 0)
(39.9741 -0.00187509 0)
(39.9996 0.00365983 0)
(40.0722 0.0165627 0)
(40.2294 0.0397868 0)
(40.5375 0.078812 0)
(41.061 0.13499 0)
(31.9059 3.45465 0)
(26.7967 5.43242 0)
(27.4063 4.92593 0)
(27.6736 3.37492 0)
(27.6874 1.24686 0)
(27.8832 -0.948094 0)
(28.8079 -3.02921 0)
(30.7986 -5.18647 0)
(33.1749 -7.57284 0)
(33.438 -8.4524 0)
(32.7835 -8.13544 0)
(31.5773 -6.86397 0)
(30.3323 -5.16909 0)
(29.3991 -3.61758 0)
(28.836 -2.45156 0)
(28.5051 -1.62947 0)
(28.3079 -1.07892 0)
(28.1848 -0.723798 0)
(28.1006 -0.497735 0)
(28.0371 -0.353919 0)
(27.9861 -0.262786 0)
(27.9426 -0.204889 0)
(27.9038 -0.167972 0)
(27.8679 -0.144427 0)
(27.8334 -0.129559 0)
(27.8001 -0.120664 0)
(27.7668 -0.115811 0)
(27.733 -0.113668 0)
(27.6986 -0.113218 0)
(27.6634 -0.113743 0)
(27.6274 -0.114758 0)
(27.5906 -0.115915 0)
(27.5532 -0.116995 0)
(27.5152 -0.11789 0)
(27.477 -0.118555 0)
(27.4385 -0.11902 0)
(27.3999 -0.11936 0)
(27.3613 -0.119659 0)
(27.3226 -0.119981 0)
(27.2837 -0.120339 0)
(27.2446 -0.120701 0)
(27.2051 -0.121001 0)
(27.1654 -0.121164 0)
(27.1253 -0.121133 0)
(27.0849 -0.120881 0)
(27.0443 -0.120397 0)
(27.0034 -0.119681 0)
(26.9624 -0.118744 0)
(26.9213 -0.117616 0)
(26.8804 -0.116371 0)
(26.8397 -0.115103 0)
(26.7995 -0.113877 0)
(26.7598 -0.112721 0)
(26.7206 -0.111638 0)
(26.6822 -0.110609 0)
(26.6443 -0.109615 0)
(26.6071 -0.108653 0)
(26.5705 -0.107745 0)
(26.5342 -0.10688 0)
(26.4982 -0.106023 0)
(26.4623 -0.105147 0)
(26.4264 -0.104245 0)
(26.3906 -0.103329 0)
(26.355 -0.102417 0)
(26.3196 -0.101519 0)
(26.2845 -0.100631 0)
(26.2498 -0.099736 0)
(26.2154 -0.0987863 0)
(26.1815 -0.0977076 0)
(26.148 -0.0964373 0)
(26.115 -0.0949614 0)
(26.0826 -0.0932746 0)
(26.0509 -0.0913732 0)
(26.0198 -0.0892667 0)
(25.9893 -0.0869903 0)
(25.9593 -0.0845979 0)
(25.9297 -0.0821549 0)
(25.9006 -0.0797097 0)
(25.8721 -0.0772918 0)
(25.8441 -0.0749113 0)
(25.8169 -0.072561 0)
(25.7904 -0.0702008 0)
(25.7648 -0.067756 0)
(25.7399 -0.0651309 0)
(25.7159 -0.0622731 0)
(25.6928 -0.0592232 0)
(25.6708 -0.0561362 0)
(25.6501 -0.0531923 0)
(25.6308 -0.0505368 0)
(25.6128 -0.0483075 0)
(25.5959 -0.0467835 0)
(25.5805 -0.046241 0)
(25.5668 -0.0468011 0)
(25.5556 -0.0482928 0)
(25.5471 -0.0504315 0)
(25.5418 -0.0524409 0)
(25.539 -0.0549016 0)
(25.5383 -0.0558328 0)
(25.5388 -0.0591586 0)
(25.5394 -0.0554636 0)
(39.0511 5.25083 0)
(39.9516 6.49004 0)
(40.1529 5.57785 0)
(39.8847 3.68313 0)
(39.6234 1.4191 0)
(39.794 -0.879708 0)
(40.4058 -3.14588 0)
(41.0395 -5.49758 0)
(40.6589 -7.32883 0)
(38.8415 -8.18139 0)
(36.23 -7.69513 0)
(33.6049 -6.33075 0)
(31.5518 -4.73636 0)
(30.2003 -3.33654 0)
(29.3799 -2.27279 0)
(28.8834 -1.51969 0)
(28.5777 -1.01085 0)
(28.3841 -0.679259 0)
(28.2541 -0.466561 0)
(28.1609 -0.330797 0)
(28.0898 -0.244386 0)
(28.0326 -0.189466 0)
(27.9839 -0.154522 0)
(27.9405 -0.132281 0)
(27.9004 -0.118305 0)
(27.8622 -0.109938 0)
(27.8248 -0.105314 0)
(27.7872 -0.103206 0)
(27.7492 -0.102758 0)
(27.7105 -0.103288 0)
(27.671 -0.104314 0)
(27.6307 -0.105507 0)
(27.5896 -0.106655 0)
(27.548 -0.107664 0)
(27.506 -0.10855 0)
(27.4638 -0.10935 0)
(27.4215 -0.110092 0)
(27.3792 -0.1108 0)
(27.3369 -0.111485 0)
(27.2947 -0.112134 0)
(27.2524 -0.112711 0)
(27.2101 -0.113162 0)
(27.1676 -0.113431 0)
(27.1251 -0.113482 0)
(27.0824 -0.1133 0)
(27.0398 -0.112875 0)
(26.9971 -0.112207 0)
(26.9545 -0.111326 0)
(26.9122 -0.110288 0)
(26.8701 -0.109172 0)
(26.8284 -0.108054 0)
(26.7872 -0.106989 0)
(26.7465 -0.105998 0)
(26.7064 -0.105076 0)
(26.6669 -0.104203 0)
(26.6281 -0.103353 0)
(26.5898 -0.1025 0)
(26.552 -0.101613 0)
(26.5146 -0.100685 0)
(26.4775 -0.0997359 0)
(26.4406 -0.0987919 0)
(26.404 -0.0978728 0)
(26.3678 -0.0969922 0)
(26.3318 -0.0961569 0)
(26.2963 -0.0953615 0)
(26.2613 -0.0945901 0)
(26.2267 -0.0938201 0)
(26.1926 -0.0930173 0)
(26.1591 -0.0921385 0)
(26.1261 -0.0911369 0)
(26.0937 -0.089965 0)
(26.0619 -0.0885835 0)
(26.0308 -0.0869722 0)
(26.0004 -0.0851345 0)
(25.9707 -0.0830996 0)
(25.9417 -0.0809194 0)
(25.9134 -0.0786629 0)
(25.8857 -0.0763942 0)
(25.8587 -0.0741568 0)
(25.8322 -0.0719812 0)
(25.8064 -0.0698759 0)
(25.7812 -0.0678063 0)
(25.7567 -0.0656879 0)
(25.7332 -0.06341 0)
(25.7109 -0.0609116 0)
(25.6902 -0.0582362 0)
(25.6712 -0.0555279 0)
(25.6542 -0.0529368 0)
(25.639 -0.0505439 0)
(25.625 -0.0484637 0)
(25.6118 -0.0470104 0)
(25.599 -0.0465665 0)
(25.5869 -0.0473233 0)
(25.5757 -0.049215 0)
(25.5663 -0.0518363 0)
(25.5581 -0.0545932 0)
(25.5525 -0.0574527 0)
(25.5458 -0.0593453 0)
(25.5431 -0.0627379 0)
(25.533 -0.0589873 0)
(40.3409 4.62783 0)
(43.287 6.31753 0)
(46.0817 5.58736 0)
(47.5573 3.83113 0)
(48.2499 1.58791 0)
(48.418 -0.770468 0)
(48.0013 -3.08623 0)
(46.77 -5.16546 0)
(44.4016 -6.80016 0)
(41.069 -7.33861 0)
(37.4406 -6.76944 0)
(34.3017 -5.55113 0)
(32.055 -4.1988 0)
(30.5601 -2.9856 0)
(29.6233 -2.05127 0)
(29.039 -1.38296 0)
(28.6703 -0.925682 0)
(28.4335 -0.624185 0)
(28.2754 -0.429394 0)
(28.1641 -0.304361 0)
(28.0816 -0.224399 0)
(28.0171 -0.173366 0)
(27.964 -0.140781 0)
(27.9178 -0.119851 0)
(27.876 -0.10652 0)
(27.8367 -0.0982472 0)
(27.7987 -0.0933523 0)
(27.7608 -0.0907348 0)
(27.7226 -0.0896686 0)
(27.6837 -0.0895337 0)
(27.644 -0.0898846 0)
(27.6035 -0.0904302 0)
(27.5624 -0.0909905 0)
(27.5208 -0.0914763 0)
(27.4787 -0.0918582 0)
(27.4365 -0.0921526 0)
(27.3941 -0.092408 0)
(27.3516 -0.0926694 0)
(27.3091 -0.0929556 0)
(27.2665 -0.0932574 0)
(27.2239 -0.0935359 0)
(27.1814 -0.0937326 0)
(27.1388 -0.0937866 0)
(27.0963 -0.0936569 0)
(27.0539 -0.0933242 0)
(27.0116 -0.0927806 0)
(26.9697 -0.09204 0)
(26.928 -0.0911387 0)
(26.8868 -0.0901247 0)
(26.846 -0.0890622 0)
(26.8057 -0.0880234 0)
(26.7658 -0.0870655 0)
(26.7265 -0.0862142 0)
(26.6877 -0.0854613 0)
(26.6494 -0.0847739 0)
(26.6115 -0.0841094 0)
(26.5741 -0.0834343 0)
(26.537 -0.0827343 0)
(26.5003 -0.0820102 0)
(26.4639 -0.0812674 0)
(26.4278 -0.0805148 0)
(26.3921 -0.0797678 0)
(26.3567 -0.0790471 0)
(26.3217 -0.0783699 0)
(26.2873 -0.0777399 0)
(26.2533 -0.0771453 0)
(26.2199 -0.0765603 0)
(26.187 -0.0759371 0)
(26.1547 -0.0752112 0)
(26.1229 -0.0743249 0)
(26.0915 -0.0732434 0)
(26.0606 -0.0719513 0)
(26.0303 -0.0704445 0)
(26.0006 -0.0687314 0)
(25.9716 -0.0668391 0)
(25.9433 -0.0648142 0)
(25.9157 -0.0627149 0)
(25.889 -0.0605927 0)
(25.8629 -0.0584844 0)
(25.8375 -0.0564168 0)
(25.8126 -0.0544046 0)
(25.7885 -0.0524368 0)
(25.7651 -0.0504671 0)
(25.7428 -0.0484388 0)
(25.7221 -0.0463428 0)
(25.7033 -0.0442384 0)
(25.6867 -0.0422221 0)
(25.6725 -0.0403433 0)
(25.66 -0.0385601 0)
(25.6486 -0.0369246 0)
(25.6376 -0.0357848 0)
(25.6264 -0.0356144 0)
(25.6148 -0.0366577 0)
(25.6026 -0.038839 0)
(25.5899 -0.0418171 0)
(25.5764 -0.0447363 0)
(25.5637 -0.0476878 0)
(25.5479 -0.0491042 0)
(25.5372 -0.052128 0)
(25.511 -0.0473562 0)
(40.887 3.65522 0)
(43.8653 5.17444 0)
(47.3879 4.7443 0)
(49.7506 3.21626 0)
(50.9532 1.21165 0)
(51.1254 -0.864496 0)
(50.2403 -2.86465 0)
(48.276 -4.60469 0)
(45.2651 -5.8577 0)
(41.5946 -6.25756 0)
(37.8106 -5.79175 0)
(34.6831 -4.79826 0)
(32.4029 -3.66297 0)
(30.8412 -2.63051 0)
(29.8275 -1.82338 0)
(29.1777 -1.23863 0)
(28.7591 -0.833617 0)
(28.487 -0.563749 0)
(28.3052 -0.38819 0)
(28.1785 -0.275109 0)
(28.0862 -0.202711 0)
(28.0154 -0.156599 0)
(27.9583 -0.127339 0)
(27.9096 -0.108797 0)
(27.8663 -0.0972532 0)
(27.8261 -0.0903474 0)
(27.7876 -0.0865333 0)
(27.7496 -0.0847727 0)
(27.7113 -0.0843951 0)
(27.6726 -0.0848387 0)
(27.6332 -0.0856847 0)
(27.5931 -0.0866687 0)
(27.5524 -0.0876308 0)
(27.5113 -0.0884929 0)
(27.4697 -0.0892468 0)
(27.428 -0.0899244 0)
(27.3861 -0.090566 0)
(27.3442 -0.0911977 0)
(27.3023 -0.0918239 0)
(27.2603 -0.0924271 0)
(27.2183 -0.0929701 0)
(27.1764 -0.0934036 0)
(27.1344 -0.0936809 0)
(27.0925 -0.0937734 0)
(27.0508 -0.0936703 0)
(27.0092 -0.0933656 0)
(26.968 -0.092867 0)
(26.9272 -0.0922013 0)
(26.8867 -0.0914115 0)
(26.8468 -0.0905606 0)
(26.8073 -0.0897167 0)
(26.7684 -0.0889309 0)
(26.7299 -0.0882234 0)
(26.6919 -0.0875834 0)
(26.6543 -0.0869808 0)
(26.617 -0.0863823 0)
(26.58 -0.0857602 0)
(26.5433 -0.0850974 0)
(26.5068 -0.0843906 0)
(26.4706 -0.0836534 0)
(26.4346 -0.0829119 0)
(26.399 -0.0821961 0)
(26.3637 -0.0815314 0)
(26.3289 -0.080931 0)
(26.2946 -0.0803909 0)
(26.2608 -0.0798914 0)
(26.2277 -0.0793997 0)
(26.1953 -0.0788658 0)
(26.1634 -0.0782312 0)
(26.132 -0.0774524 0)
(26.1011 -0.0765068 0)
(26.0705 -0.0753835 0)
(26.0405 -0.0740808 0)
(26.011 -0.0726074 0)
(25.9821 -0.0709849 0)
(25.954 -0.0692483 0)
(25.9268 -0.06744 0)
(25.9003 -0.0655986 0)
(25.8745 -0.0637551 0)
(25.8494 -0.0619435 0)
(25.8249 -0.060202 0)
(25.8011 -0.0585533 0)
(25.7783 -0.0569802 0)
(25.7568 -0.055442 0)
(25.7371 -0.0539254 0)
(25.7197 -0.052451 0)
(25.7047 -0.0510318 0)
(25.692 -0.0496057 0)
(25.6809 -0.0480169 0)
(25.6706 -0.0462804 0)
(25.6603 -0.0448237 0)
(25.6496 -0.044201 0)
(25.6378 -0.0446924 0)
(25.6243 -0.0463119 0)
(25.6092 -0.0488044 0)
(25.592 -0.0514832 0)
(25.574 -0.0543089 0)
(25.5503 -0.0557835 0)
(25.5326 -0.0583166 0)
(25.4897 -0.0542754 0)
(41.3554 2.95502 0)
(44.0114 4.10033 0)
(47.4069 3.83089 0)
(50.0145 2.60906 0)
(51.3133 0.962629 0)
(51.4688 -0.728924 0)
(50.4745 -2.39088 0)
(48.369 -3.82465 0)
(45.3026 -4.85137 0)
(41.6944 -5.20599 0)
(38.0154 -4.84903 0)
(34.9492 -4.04212 0)
(32.6636 -3.10813 0)
(31.0588 -2.25083 0)
(29.9876 -1.57129 0)
(29.2864 -1.07384 0)
(28.8277 -0.726175 0)
(28.5263 -0.492424 0)
(28.3244 -0.339139 0)
(28.1845 -0.239617 0)
(28.0835 -0.175173 0)
(28.007 -0.133505 0)
(27.9461 -0.106458 0)
(27.895 -0.0887816 0)
(27.8499 -0.0772004 0)
(27.8087 -0.0697133 0)
(27.7694 -0.0649758 0)
(27.731 -0.0621302 0)
(27.6926 -0.0606013 0)
(27.654 -0.0599498 0)
(27.615 -0.0598091 0)
(27.5754 -0.0599316 0)
(27.5355 -0.0601681 0)
(27.4952 -0.0604416 0)
(27.4547 -0.0607257 0)
(27.4141 -0.0610248 0)
(27.3734 -0.0613567 0)
(27.3327 -0.061734 0)
(27.2919 -0.0621511 0)
(27.2512 -0.0625816 0)
(27.2105 -0.0629793 0)
(27.1698 -0.0632879 0)
(27.1291 -0.0634636 0)
(27.0885 -0.0634833 0)
(27.048 -0.0633353 0)
(27.0078 -0.0630148 0)
(26.9678 -0.062531 0)
(26.9281 -0.0619109 0)
(26.8889 -0.0611987 0)
(26.8501 -0.0604537 0)
(26.8118 -0.0597374 0)
(26.7739 -0.0590946 0)
(26.7364 -0.0585402 0)
(26.6993 -0.0580581 0)
(26.6625 -0.0576111 0)
(26.6259 -0.0571562 0)
(26.5895 -0.0566609 0)
(26.5532 -0.0561132 0)
(26.5171 -0.0555228 0)
(26.4812 -0.0549161 0)
(26.4454 -0.0543272 0)
(26.41 -0.0537897 0)
(26.375 -0.0533309 0)
(26.3404 -0.0529648 0)
(26.3063 -0.0526876 0)
(26.2727 -0.0524762 0)
(26.2397 -0.0522859 0)
(26.2073 -0.0520446 0)
(26.1755 -0.0516695 0)
(26.1441 -0.0511019 0)
(26.1132 -0.0503182 0)
(26.0828 -0.0493212 0)
(26.0528 -0.0481316 0)
(26.0235 -0.0467809 0)
(25.9949 -0.0453036 0)
(25.967 -0.0437312 0)
(25.94 -0.0420889 0)
(25.9137 -0.0403949 0)
(25.8881 -0.0386708 0)
(25.8632 -0.0369615 0)
(25.8389 -0.0353379 0)
(25.8154 -0.0338675 0)
(25.7929 -0.0325767 0)
(25.7719 -0.031461 0)
(25.7527 -0.0305274 0)
(25.7359 -0.0297718 0)
(25.7215 -0.0291243 0)
(25.7095 -0.0284113 0)
(25.6989 -0.0273807 0)
(25.6888 -0.0260298 0)
(25.6786 -0.0247986 0)
(25.6673 -0.0241871 0)
(25.6542 -0.024421 0)
(25.6384 -0.0255235 0)
(25.6197 -0.0272523 0)
(25.5972 -0.0289486 0)
(25.5724 -0.0304787 0)
(25.5394 -0.0305557 0)
(25.5129 -0.0311322 0)
(25.4564 -0.02636 0)
(41.7201 2.35056 0)
(44.1248 3.27494 0)
(47.1306 3.09546 0)
(49.7405 2.09861 0)
(51.0194 0.765216 0)
(51.1546 -0.592229 0)
(50.1662 -1.94903 0)
(48.0926 -3.10351 0)
(45.1192 -3.91764 0)
(41.6583 -4.20316 0)
(38.1269 -3.92664 0)
(35.1384 -3.292 0)
(32.8666 -2.55006 0)
(31.2367 -1.86083 0)
(30.1236 -1.30721 0)
(29.382 -0.89865 0)
(28.8904 -0.611741 0)
(28.5643 -0.418353 0)
(28.345 -0.291807 0)
(28.1931 -0.210131 0)
(28.084 -0.157943 0)
(28.0023 -0.124917 0)
(27.938 -0.104152 0)
(27.8846 -0.091131 0)
(27.8382 -0.0830607 0)
(27.796 -0.0781867 0)
(27.7561 -0.0753958 0)
(27.7174 -0.0739805 0)
(27.6793 -0.0734864 0)
(27.641 -0.073578 0)
(27.6026 -0.0739879 0)
(27.5639 -0.0745265 0)
(27.525 -0.0750766 0)
(27.4858 -0.0755775 0)
(27.4465 -0.0760165 0)
(27.4071 -0.0764111 0)
(27.3675 -0.0767909 0)
(27.3279 -0.0771783 0)
(27.2882 -0.0775754 0)
(27.2485 -0.0779639 0)
(27.2087 -0.0783071 0)
(27.1688 -0.0785592 0)
(27.1289 -0.0786872 0)
(27.0889 -0.0786809 0)
(27.0491 -0.0785337 0)
(27.0094 -0.0782368 0)
(26.97 -0.0777967 0)
(26.9309 -0.0772371 0)
(26.8921 -0.0765952 0)
(26.8538 -0.0759209 0)
(26.8159 -0.0752644 0)
(26.7784 -0.0746591 0)
(26.7413 -0.0741114 0)
(26.7045 -0.0736021 0)
(26.6679 -0.0730981 0)
(26.6314 -0.0725678 0)
(26.5951 -0.0719933 0)
(26.5588 -0.0713748 0)
(26.5227 -0.0707289 0)
(26.4867 -0.0700838 0)
(26.4509 -0.0694722 0)
(26.4155 -0.0689243 0)
(26.3804 -0.0684613 0)
(26.3457 -0.0680909 0)
(26.3115 -0.0678062 0)
(26.2778 -0.0675849 0)
(26.2446 -0.0673835 0)
(26.2119 -0.067131 0)
(26.1797 -0.0667504 0)
(26.1479 -0.0661992 0)
(26.1166 -0.0654724 0)
(26.0858 -0.0645852 0)
(26.0556 -0.0635625 0)
(26.026 -0.0624299 0)
(25.9973 -0.0612084 0)
(25.9695 -0.0599104 0)
(25.9425 -0.058542 0)
(25.9164 -0.0571099 0)
(25.891 -0.0556361 0)
(25.8662 -0.0541776 0)
(25.8421 -0.0528279 0)
(25.8189 -0.0516821 0)
(25.7966 -0.0507918 0)
(25.7757 -0.0501739 0)
(25.7566 -0.0498358 0)
(25.7399 -0.0497143 0)
(25.7257 -0.0496102 0)
(25.7137 -0.0491972 0)
(25.703 -0.04811 0)
(25.6926 -0.0463702 0)
(25.6819 -0.0445136 0)
(25.6698 -0.043103 0)
(25.6551 -0.0424333 0)
(25.637 -0.0426502 0)
(25.6148 -0.0435607 0)
(25.5873 -0.0445434 0)
(25.5563 -0.045123 0)
(25.5144 -0.0444669 0)
(25.4805 -0.0436379 0)
(25.4103 -0.0406696 0)
(41.973 1.78911 0)
(44.2223 2.48527 0)
(46.9408 2.3742 0)
(49.4396 1.61014 0)
(50.6443 0.573623 0)
(50.749 -0.46433 0)
(49.795 -1.51374 0)
(47.795 -2.39228 0)
(44.9378 -3.00764 0)
(41.6204 -3.23181 0)
(38.2231 -3.0349 0)
(35.2994 -2.56198 0)
(33.0355 -1.99798 0)
(31.3808 -1.46571 0)
(30.2285 -1.03172 0)
(29.4485 -0.707664 0)
(28.9255 -0.477644 0)
(28.5754 -0.320737 0)
(28.3387 -0.216543 0)
(28.175 -0.148182 0)
(28.0578 -0.103458 0)
(27.9704 -0.0743346 0)
(27.902 -0.055392 0)
(27.8458 -0.0430492 0)
(27.7973 -0.0350243 0)
(27.7536 -0.0298752 0)
(27.7127 -0.0266778 0)
(27.6733 -0.0248557 0)
(27.6348 -0.024019 0)
(27.5967 -0.0238468 0)
(27.5586 -0.0240772 0)
(27.5204 -0.0245188 0)
(27.4822 -0.0250467 0)
(27.444 -0.0255945 0)
(27.4056 -0.0261437 0)
(27.3672 -0.0267039 0)
(27.3286 -0.0272943 0)
(27.29 -0.0279248 0)
(27.2511 -0.0285844 0)
(27.212 -0.0292419 0)
(27.1727 -0.0298528 0)
(27.1332 -0.0303671 0)
(27.0935 -0.0307471 0)
(27.0537 -0.0309876 0)
(27.0139 -0.0310925 0)
(26.9742 -0.0310541 0)
(26.9347 -0.0308777 0)
(26.8954 -0.0305878 0)
(26.8564 -0.030222 0)
(26.8178 -0.0298291 0)
(26.7797 -0.029456 0)
(26.7419 -0.0291307 0)
(26.7045 -0.0288528 0)
(26.6674 -0.0285971 0)
(26.6304 -0.028326 0)
(26.5936 -0.0280071 0)
(26.5569 -0.0276262 0)
(26.5202 -0.0271916 0)
(26.4837 -0.0267317 0)
(26.4475 -0.0262857 0)
(26.4116 -0.0258945 0)
(26.376 -0.0255923 0)
(26.3408 -0.0254006 0)
(26.3061 -0.0253264 0)
(26.2717 -0.0253619 0)
(26.2376 -0.0254803 0)
(26.2039 -0.0256261 0)
(26.1705 -0.0257087 0)
(26.1375 -0.0256367 0)
(26.1048 -0.025367 0)
(26.0725 -0.0249019 0)
(26.0408 -0.0242665 0)
(26.0098 -0.0234958 0)
(25.9799 -0.0226219 0)
(25.9511 -0.0216641 0)
(25.9233 -0.0206249 0)
(25.8967 -0.0194962 0)
(25.871 -0.0182738 0)
(25.8461 -0.0169796 0)
(25.822 -0.0156844 0)
(25.7987 -0.014509 0)
(25.7763 -0.0135852 0)
(25.7549 -0.0130039 0)
(25.7348 -0.0128268 0)
(25.7165 -0.0131003 0)
(25.7005 -0.0137512 0)
(25.6867 -0.0144999 0)
(25.6749 -0.0149061 0)
(25.6639 -0.014507 0)
(25.6529 -0.0132531 0)
(25.6408 -0.0115422 0)
(25.6263 -0.00977739 0)
(25.6081 -0.00812167 0)
(25.585 -0.00674926 0)
(25.5564 -0.00553391 0)
(25.5215 -0.00422691 0)
(25.4824 -0.00238279 0)
(25.4317 -0.000187632 0)
(25.3913 0.00289301 0)
(25.3163 0.00437712 0)
(42.1404 1.25303 0)
(44.2794 1.73695 0)
(46.8119 1.66989 0)
(49.241 1.13058 0)
(50.4084 0.389166 0)
(50.4665 -0.327924 0)
(49.5419 -1.08135 0)
(47.6027 -1.70438 0)
(44.829 -2.14089 0)
(41.6057 -2.30741 0)
(38.2906 -2.17939 0)
(35.3931 -1.85418 0)
(33.1167 -1.46097 0)
(31.431 -1.088 0)
(30.2409 -0.782038 0)
(29.4272 -0.552979 0)
(28.8786 -0.390334 0)
(28.5096 -0.279306 0)
(28.2595 -0.205687 0)
(28.0861 -0.15751 0)
(27.9619 -0.126136 0)
(27.8694 -0.105781 0)
(27.7973 -0.0925139 0)
(27.7381 -0.0837646 0)
(27.6873 -0.0779029 0)
(27.6417 -0.0739325 0)
(27.5994 -0.0712456 0)
(27.559 -0.0694828 0)
(27.5198 -0.0684142 0)
(27.4813 -0.0678356 0)
(27.4432 -0.0675654 0)
(27.4051 -0.0674698 0)
(27.3671 -0.0674536 0)
(27.329 -0.0674534 0)
(27.2909 -0.0674406 0)
(27.2526 -0.067415 0)
(27.2141 -0.0673908 0)
(27.1754 -0.0673813 0)
(27.1363 -0.0673863 0)
(27.0969 -0.0673906 0)
(27.057 -0.0673687 0)
(27.0168 -0.0672908 0)
(26.9763 -0.0671332 0)
(26.9355 -0.0668962 0)
(26.8947 -0.0665861 0)
(26.8538 -0.0661937 0)
(26.8131 -0.0657187 0)
(26.7726 -0.0651817 0)
(26.7325 -0.0646138 0)
(26.6928 -0.0640504 0)
(26.6535 -0.0635196 0)
(26.6147 -0.0630302 0)
(26.5763 -0.0625686 0)
(26.5382 -0.062105 0)
(26.5003 -0.061608 0)
(26.4627 -0.0610597 0)
(26.4253 -0.0604643 0)
(26.3881 -0.0598479 0)
(26.3512 -0.0592477 0)
(26.3147 -0.0587001 0)
(26.2787 -0.0582316 0)
(26.2432 -0.0578552 0)
(26.2082 -0.0575722 0)
(26.1735 -0.057376 0)
(26.1392 -0.057257 0)
(26.1051 -0.0571968 0)
(26.0712 -0.0571527 0)
(26.0375 -0.0570457 0)
(26.0039 -0.0568056 0)
(25.9707 -0.056427 0)
(25.9378 -0.055947 0)
(25.9056 -0.0554071 0)
(25.8742 -0.0548376 0)
(25.844 -0.0542439 0)
(25.8151 -0.0536038 0)
(25.7873 -0.0528779 0)
(25.7607 -0.0520299 0)
(25.7351 -0.0510501 0)
(25.7104 -0.0499774 0)
(25.6866 -0.0489079 0)
(25.6639 -0.0479834 0)
(25.6421 -0.0473522 0)
(25.6213 -0.0471245 0)
(25.6015 -0.0473964 0)
(25.5829 -0.0482238 0)
(25.566 -0.0494069 0)
(25.5509 -0.0504246 0)
(25.5374 -0.0506598 0)
(25.5244 -0.0496145 0)
(25.5114 -0.0473414 0)
(25.497 -0.0443638 0)
(25.4802 -0.0412342 0)
(25.4595 -0.0382792 0)
(25.434 -0.0358096 0)
(25.4031 -0.0337542 0)
(25.3663 -0.0315033 0)
(25.3251 -0.0280719 0)
(25.2737 -0.0243058 0)
(25.2343 -0.0193068 0)
(25.1643 -0.0210835 0)
(42.2506 0.742786 0)
(44.304 1.03081 0)
(46.7687 0.991296 0)
(49.0665 0.688532 0)
(50.3269 0.201523 0)
(50.2921 -0.186237 0)
(49.3681 -0.639415 0)
(47.4494 -1.00592 0)
(44.7009 -1.25105 0)
(41.5045 -1.33299 0)
(38.2097 -1.24189 0)
(35.3012 -1.03824 0)
(32.9981 -0.798825 0)
(31.2754 -0.573605 0)
(30.0494 -0.390537 0)
(29.2065 -0.254509 0)
(28.6354 -0.158534 0)
(28.2494 -0.0936081 0)
(27.9868 -0.0511835 0)
(27.8047 -0.0240626 0)
(27.6745 -0.00704862 0)
(27.5779 0.00336015 0)
(27.5028 0.00953998 0)
(27.4417 0.0130923 0)
(27.3894 0.0150139 0)
(27.3429 0.0158977 0)
(27.2999 0.0161085 0)
(27.2591 0.0157941 0)
(27.2195 0.0150634 0)
(27.1806 0.014106 0)
(27.1418 0.0130651 0)
(27.1028 0.0120128 0)
(27.0635 0.0110008 0)
(27.024 0.0100648 0)
(26.9841 0.00921376 0)
(26.9438 0.00843339 0)
(26.9031 0.00769945 0)
(26.8618 0.0069933 0)
(26.82 0.0063123 0)
(26.7776 0.00566948 0)
(26.7346 0.00508478 0)
(26.6911 0.00458032 0)
(26.6472 0.00417672 0)
(26.603 0.00387182 0)
(26.5587 0.003649 0)
(26.5144 0.00350559 0)
(26.4703 0.00344159 0)
(26.4266 0.00344202 0)
(26.3832 0.00347765 0)
(26.3403 0.00351593 0)
(26.2979 0.00353384 0)
(26.256 0.0035278 0)
(26.2145 0.00351499 0)
(26.1734 0.003525 0)
(26.1328 0.00358573 0)
(26.0925 0.00370988 0)
(26.0528 0.00388782 0)
(26.0137 0.0040902 0)
(25.9752 0.0042783 0)
(25.9374 0.00441674 0)
(25.9 0.00448271 0)
(25.8631 0.00446891 0)
(25.8266 0.00438058 0)
(25.7903 0.00422514 0)
(25.754 0.00400404 0)
(25.7177 0.00372811 0)
(25.6813 0.00344048 0)
(25.6448 0.00322197 0)
(25.6084 0.00313897 0)
(25.5723 0.00318303 0)
(25.5366 0.00330232 0)
(25.5016 0.00344878 0)
(25.4675 0.00359478 0)
(25.4343 0.00374708 0)
(25.4022 0.00394551 0)
(25.3712 0.00424454 0)
(25.3413 0.00468527 0)
(25.3126 0.00526924 0)
(25.2853 0.00594493 0)
(25.2593 0.0066153 0)
(25.2348 0.00716331 0)
(25.2114 0.00749155 0)
(25.1888 0.00752977 0)
(25.1662 0.00714737 0)
(25.1433 0.00617171 0)
(25.1196 0.00460208 0)
(25.0954 0.00278776 0)
(25.0722 0.00145643 0)
(25.0499 0.00137867 0)
(25.0281 0.00276276 0)
(25.0061 0.00532725 0)
(24.9834 0.00877334 0)
(24.959 0.0128645 0)
(24.9347 0.0171236 0)
(24.9101 0.0216564 0)
(24.8899 0.0249799 0)
(24.8692 0.0292608 0)
(24.8534 0.0324318 0)
(24.8406 0.0379077 0)
(24.8234 0.0337554 0)
(42.1711 0.237649 0)
(44.1659 0.332933 0)
(46.5772 0.319827 0)
(48.8027 0.220399 0)
(50.0994 0.0494055 0)
(49.9762 -0.0698621 0)
(49.0256 -0.227547 0)
(47.0953 -0.365902 0)
(44.3388 -0.474384 0)
(41.1378 -0.534832 0)
(37.8356 -0.534927 0)
(34.9087 -0.486058 0)
(32.5755 -0.412228 0)
(30.8173 -0.333791 0)
(29.5518 -0.264265 0)
(28.6682 -0.208922 0)
(28.0575 -0.16742 0)
(27.6339 -0.137415 0)
(27.3362 -0.116109 0)
(27.1213 -0.100971 0)
(26.9602 -0.0901012 0)
(26.8341 -0.0822055 0)
(26.7304 -0.0763629 0)
(26.6413 -0.0719191 0)
(26.5618 -0.0684531 0)
(26.4886 -0.0656977 0)
(26.4196 -0.063484 0)
(26.3532 -0.0617719 0)
(26.2877 -0.0605133 0)
(26.2222 -0.059575 0)
(26.156 -0.0588522 0)
(26.0888 -0.0582846 0)
(26.0204 -0.0578061 0)
(25.951 -0.0573579 0)
(25.8807 -0.0569064 0)
(25.8096 -0.0564429 0)
(25.738 -0.0559735 0)
(25.6658 -0.0555074 0)
(25.5931 -0.0550493 0)
(25.5201 -0.0545981 0)
(25.4466 -0.0541522 0)
(25.3729 -0.0537084 0)
(25.2991 -0.0532603 0)
(25.2255 -0.0528102 0)
(25.1521 -0.0523694 0)
(25.0792 -0.051941 0)
(25.0067 -0.0515208 0)
(24.9348 -0.0511106 0)
(24.8637 -0.050721 0)
(24.7932 -0.0503637 0)
(24.7234 -0.050043 0)
(24.6541 -0.0497511 0)
(24.5851 -0.0494705 0)
(24.5167 -0.0491811 0)
(24.4488 -0.04887 0)
(24.3815 -0.0485371 0)
(24.3151 -0.0481949 0)
(24.2496 -0.0478634 0)
(24.185 -0.0475618 0)
(24.1211 -0.0473019 0)
(24.0578 -0.0470858 0)
(23.9949 -0.0469076 0)
(23.9322 -0.0467571 0)
(23.8695 -0.0466277 0)
(23.8067 -0.0465198 0)
(23.7436 -0.0464271 0)
(23.6801 -0.0463278 0)
(23.6164 -0.0461927 0)
(23.5526 -0.0460122 0)
(23.4892 -0.0458152 0)
(23.4263 -0.0456435 0)
(23.3639 -0.0455215 0)
(23.3018 -0.0454485 0)
(23.2401 -0.045395 0)
(23.1788 -0.0453131 0)
(23.118 -0.0451569 0)
(23.0582 -0.0449043 0)
(22.9998 -0.0445686 0)
(22.943 -0.0441955 0)
(22.8881 -0.043849 0)
(22.8348 -0.0435924 0)
(22.7826 -0.0434719 0)
(22.7308 -0.0435298 0)
(22.6787 -0.0438502 0)
(22.6246 -0.0445208 0)
(22.567 -0.0455273 0)
(22.5043 -0.0466179 0)
(22.4366 -0.0470866 0)
(22.3671 -0.0461038 0)
(22.3021 -0.0435403 0)
(22.246 -0.039866 0)
(22.2019 -0.0356445 0)
(22.1714 -0.0316377 0)
(22.154 -0.0283865 0)
(22.1475 -0.0263739 0)
(22.1493 -0.0247595 0)
(22.1621 -0.0230346 0)
(22.1887 -0.021985 0)
(22.2166 -0.0190281 0)
(22.2779 -0.0212563 0)
(5.14317 5.762 0)
(5.60441 7.6708 0)
(1.55659 9.28132 0)
(-0.923819 9.26493 0)
(-3.73197 8.40618 0)
(-5.98721 6.43763 0)
(-7.60237 4.00111 0)
(-8.10088 2.66961 0)
(14.2981 6.79687 0)
(10.927 7.6489 0)
(3.59694 8.19303 0)
(-2.57551 8.0961 0)
(-9.35471 7.3417 0)
(-15.332 5.841 0)
(-20.2322 3.65059 0)
(-22.4888 1.9474 0)
(19.1168 5.69211 0)
(12.9045 5.97783 0)
(4.15468 5.69952 0)
(-4.00242 5.31619 0)
(-12.5456 4.64994 0)
(-20.6493 3.73607 0)
(-28.0547 2.39505 0)
(-32.5393 1.011 0)
(19.8513 3.93154 0)
(12.1447 3.61947 0)
(2.45481 3.15241 0)
(-6.12826 2.77549 0)
(-15.0959 2.29719 0)
(-23.702 1.79413 0)
(-31.9774 1.18554 0)
(-38.1121 0.413558 0)
(19.7513 1.68307 0)
(10.5861 1.23092 0)
(0.696827 1.11666 0)
(-7.62078 0.988847 0)
(-16.7429 0.808527 0)
(-25.4865 0.608228 0)
(-33.8283 0.414131 0)
(-40.6892 0.104378 0)
(19.7886 -0.572179 0)
(10.7686 -0.649635 0)
(1.04742 -0.644882 0)
(-7.73272 -0.281216 0)
(-16.9161 -0.246273 0)
(-25.7892 -0.167876 0)
(-34.2154 -0.0277522 0)
(-41.2982 -0.042076 0)
(20.029 -2.54794 0)
(11.6986 -2.37524 0)
(2.92639 -2.16461 0)
(-6.13126 -1.80378 0)
(-15.624 -1.52434 0)
(-24.5855 -1.09415 0)
(-33.0637 -0.662547 0)
(-40.3742 -0.257393 0)
(21.2048 -4.5356 0)
(12.7862 -4.0333 0)
(4.06345 -3.55692 0)
(-4.9922 -3.0802 0)
(-14.1578 -2.50324 0)
(-22.5711 -1.80718 0)
(-30.6958 -1.10345 0)
(-37.5707 -0.419865 0)
(24.6132 -7.02358 0)
(16.2864 -6.25546 0)
(7.68715 -5.49673 0)
(-1.07488 -4.6741 0)
(-9.59885 -3.71223 0)
(-17.91 -2.67648 0)
(-26.1525 -1.66046 0)
(-33.3984 -0.584993 0)
(26.9644 -8.32555 0)
(20.1463 -7.80677 0)
(12.4672 -6.98943 0)
(4.35786 -5.99934 0)
(-3.93742 -4.85097 0)
(-12.3246 -3.58664 0)
(-20.3158 -2.23686 0)
(-26.902 -0.762768 0)
(27.8474 -8.14122 0)
(22.3375 -7.81033 0)
(15.9339 -7.18429 0)
(8.91696 -6.30548 0)
(1.53264 -5.216 0)
(-5.94499 -3.92041 0)
(-13.1422 -2.42651 0)
(-19.7793 -0.78111 0)
(28.2649 -6.98783 0)
(24.1066 -6.78846 0)
(18.9566 -6.3159 0)
(13.0714 -5.59723 0)
(6.6982 -4.65312 0)
(0.0745336 -3.50024 0)
(-6.62661 -2.1718 0)
(-12.8566 -0.686234 0)
(28.2402 -5.35678 0)
(25.2964 -5.25149 0)
(21.3001 -4.92532 0)
(16.4514 -4.38978 0)
(10.9783 -3.66149 0)
(5.12833 -2.75175 0)
(-0.887399 -1.71259 0)
(-6.84295 -0.506639 0)
(28.0512 -3.74745 0)
(26.0007 -3.72707 0)
(22.9311 -3.52954 0)
(18.9367 -3.15992 0)
(14.2042 -2.64104 0)
(8.9555 -1.99203 0)
(3.41529 -1.22306 0)
(-2.1565 -0.340323 0)
(27.9044 -2.53114 0)
(26.4119 -2.52743 0)
(23.9948 -2.41154 0)
(20.6348 -2.1682 0)
(16.4656 -1.81524 0)
(11.6931 -1.37138 0)
(6.562 -0.856543 0)
(1.37521 -0.273515 0)
(27.8198 -1.67471 0)
(26.6662 -1.67123 0)
(24.6797 -1.60012 0)
(21.7578 -1.4404 0)
(17.9756 -1.20228 0)
(13.5063 -0.897812 0)
(8.56515 -0.551642 0)
(3.39437 -0.150348 0)
(27.7749 -1.1049 0)
(26.8292 -1.10163 0)
(25.1201 -1.05745 0)
(22.4936 -0.9539 0)
(18.9795 -0.797001 0)
(14.729 -0.592232 0)
(9.95338 -0.364989 0)
(4.91528 -0.0938477 0)
(27.7479 -0.740349 0)
(26.9324 -0.738751 0)
(25.4027 -0.711319 0)
(22.9751 -0.643516 0)
(19.6459 -0.539722 0)
(15.5452 -0.400327 0)
(10.8737 -0.248713 0)
(5.88274 -0.0635103 0)
(27.7256 -0.509386 0)
(26.9948 -0.509432 0)
(25.5847 -0.492161 0)
(23.2934 -0.446561 0)
(20.0923 -0.376387 0)
(16.0942 -0.278725 0)
(11.4898 -0.174525 0)
(6.51594 -0.0455058 0)
(27.7036 -0.363234 0)
(27.0307 -0.364394 0)
(25.7042 -0.353676 0)
(23.5104 -0.321882 0)
(20.4028 -0.272934 0)
(16.48 -0.201945 0)
(11.9252 -0.127371 0)
(6.96203 -0.0352049 0)
(27.6814 -0.270868 0)
(27.0502 -0.273004 0)
(25.7858 -0.26633 0)
(23.6659 -0.243115 0)
(20.6303 -0.20752 0)
(16.7661 -0.153541 0)
(12.2505 -0.0972199 0)
(7.29481 -0.0295934 0)
(27.659 -0.212394 0)
(27.0597 -0.215086 0)
(25.844 -0.21097 0)
(23.7834 -0.193041 0)
(20.8058 -0.165806 0)
(16.9886 -0.122776 0)
(12.5053 -0.0774981 0)
(7.5532 -0.026829 0)
(27.6365 -0.175363 0)
(27.0629 -0.178142 0)
(25.8877 -0.175735 0)
(23.8769 -0.161 0)
(20.9481 -0.139023 0)
(17.1708 -0.103177 0)
(12.7161 -0.0641231 0)
(7.76303 -0.0254742 0)
(27.6139 -0.15166 0)
(27.0624 -0.154827 0)
(25.9226 -0.153201 0)
(23.9553 -0.140589 0)
(21.0698 -0.121795 0)
(17.3266 -0.0910005 0)
(12.8982 -0.0550342 0)
(7.94209 -0.0249833 0)
(27.5912 -0.13683 0)
(27.0592 -0.140036 0)
(25.9517 -0.13914 0)
(24.0243 -0.127869 0)
(21.1781 -0.110974 0)
(17.4656 -0.0839221 0)
(13.0629 -0.0490344 0)
(8.10211 -0.0251921 0)
(27.5684 -0.127942 0)
(27.0546 -0.131619 0)
(25.9771 -0.130798 0)
(24.0872 -0.120524 0)
(21.2776 -0.104674 0)
(17.5942 -0.0804657 0)
(13.2169 -0.0454896 0)
(8.2516 -0.0260767 0)
(27.5447 -0.123104 0)
(27.049 -0.127257 0)
(25.9998 -0.126493 0)
(24.1463 -0.11706 0)
(21.3718 -0.10161 0)
(17.7162 -0.079591 0)
(13.3651 -0.0437765 0)
(8.39773 -0.0273513 0)