/*--------------------------------*- C++ -*----------------------------------*\
| =========                 |                                                 |
| \\      /  F ield         | OpenFOAM: The Open Source CFD Toolbox           |
|  \\    /   O peration     | Version:  v2012                                 |
|   \\  /    A nd           | Website:  www.openfoam.com                      |
|    \\/     M anipulation  |                                                 |
\*---------------------------------------------------------------------------*/
FoamFile
{
    version     2.0;
    format      ascii;
    class       volScalarField;
    location    "0.27";
    object      k.air;
}
// * * * * * * * * * * * * * * * * * * * * * * * * * * * * * * * * * * * * * //

dimensions      [0 2 -2 0 0 0 0];


internalField   nonuniform List<scalar> 
5600
(
0.606299
0.840822
0.955089
0.9782
0.949135
0.897637
0.839494
0.787314
0.74325
0.707323
0.679335
0.658381
0.643393
0.632626
0.625389
0.619962
0.616371
0.613201
0.611017
0.60874
0.607148
0.605392
0.604262
0.603071
0.602478
0.601731
0.601469
0.601014
0.600903
0.600565
0.600415
0.600051
0.599785
0.599353
0.599028
0.598532
0.598214
0.59767
0.597383
0.596838
0.596587
0.596091
0.595882
0.595454
0.595301
0.594951
0.59486
0.594564
0.594541
0.594258
0.594298
0.594045
0.594129
0.593912
0.594043
0.593859
0.594053
0.593903
0.594159
0.594049
0.594372
0.594283
0.594677
0.594605
0.595065
0.595004
0.595537
0.595482
0.596084
0.59603
0.596708
0.596647
0.597412
0.597333
0.598188
0.598086
0.599031
0.598904
0.599931
0.599783
0.600876
0.600724
0.60183
0.601746
0.60275
0.602895
0.603562
0.604283
0.604098
0.606201
0.60398
0.60926
0.60215
0.615211
0.595259
0.630124
0.571269
0.676467
0.478461
0.841649
0.371603
0.315645
0.2886
0.27572
0.274926
0.284627
0.307408
0.344863
0.387212
0.430069
0.471587
0.508869
0.541893
0.569327
0.592053
0.609689
0.623609
0.633825
0.641827
0.6477
0.652619
0.656332
0.66007
0.66292
0.666007
0.66797
0.670397
0.67167
0.67333
0.673937
0.674856
0.675032
0.67551
0.675467
0.675844
0.675588
0.676022
0.67564
0.676128
0.67576
0.676278
0.676023
0.676561
0.676426
0.677014
0.676888
0.677524
0.677317
0.678002
0.677765
0.678477
0.678247
0.679001
0.678803
0.679635
0.679452
0.680403
0.680217
0.681303
0.681089
0.682282
0.682049
0.683349
0.683072
0.684487
0.684144
0.685678
0.685272
0.686921
0.686455
0.688242
0.687674
0.689637
0.688945
0.691113
0.690272
0.692645
0.691634
0.694204
0.693008
0.695765
0.694416
0.697272
0.695907
0.698656
0.697572
0.699816
0.699648
0.700468
0.702628
0.699794
0.707562
0.696177
0.716802
0.685957
0.736201
0.658966
0.78067
0.58553
0.88374
0.369106
0.281989
0.227662
0.193058
0.16857
0.153742
0.145707
0.143449
0.147179
0.154842
0.167284
0.181723
0.199489
0.21841
0.239293
0.26056
0.282576
0.304526
0.326456
0.348207
0.369547
0.390318
0.409314
0.425451
0.440002
0.451959
0.463075
0.471847
0.480052
0.48661
0.49277
0.497784
0.502645
0.506535
0.510587
0.513496
0.517035
0.519257
0.522415
0.524267
0.527075
0.528759
0.531272
0.532777
0.53512
0.536376
0.53859
0.539566
0.541687
0.542491
0.544523
0.545236
0.547207
0.547857
0.549842
0.550397
0.552435
0.55288
0.554976
0.555314
0.557454
0.557671
0.559874
0.559952
0.562253
0.562164
0.56457
0.564343
0.56687
0.566509
0.569171
0.568646
0.571488
0.570763
0.573819
0.572858
0.576146
0.574892
0.578433
0.576846
0.580672
0.57876
0.582832
0.580676
0.584889
0.582627
0.586806
0.584758
0.588439
0.587341
0.589442
0.590796
0.589152
0.596109
0.586086
0.605516
0.577101
0.622823
0.55769
0.636667
0.370047
0.28074
0.224047
0.186094
0.158576
0.138095
0.123129
0.111084
0.10324
0.0966203
0.0939337
0.0919334
0.0933215
0.0950368
0.0997768
0.105125
0.11298
0.121856
0.132915
0.145203
0.159503
0.17506
0.192565
0.210307
0.229189
0.247244
0.265596
0.281923
0.297785
0.311809
0.325136
0.336782
0.347836
0.357422
0.366866
0.374641
0.382912
0.389361
0.396677
0.402194
0.408529
0.413267
0.418684
0.422664
0.427362
0.430485
0.434715
0.437251
0.441162
0.443344
0.446988
0.448951
0.452397
0.454154
0.457509
0.459004
0.462287
0.463523
0.466747
0.467766
0.470944
0.471738
0.474915
0.475486
0.478714
0.479059
0.482347
0.482495
0.485881
0.485831
0.489344
0.489062
0.492733
0.492185
0.496042
0.495201
0.499285
0.498081
0.502438
0.500812
0.505486
0.503448
0.508423
0.506027
0.511258
0.508554
0.513971
0.511131
0.51647
0.513954
0.51859
0.517213
0.520012
0.521396
0.520043
0.527185
0.518292
0.533721
0.518155
0.529706
0.370235
0.280861
0.22435
0.186044
0.158515
0.13747
0.121815
0.108372
0.0988099
0.089446
0.083488
0.0768517
0.073322
0.0687993
0.0669764
0.0643558
0.0640114
0.0633109
0.0645422
0.0656423
0.0688302
0.0719641
0.0776442
0.0832354
0.0916319
0.0999538
0.110781
0.121473
0.133758
0.14613
0.15937
0.172748
0.18651
0.19929
0.212548
0.22413
0.23655
0.246884
0.258212
0.267515
0.277587
0.285951
0.295022
0.30239
0.310585
0.316805
0.324267
0.329548
0.336374
0.341038
0.347314
0.351511
0.357325
0.361008
0.36646
0.369534
0.374653
0.377231
0.382091
0.384286
0.38895
0.390775
0.395319
0.396807
0.401312
0.402496
0.406967
0.407888
0.412372
0.41303
0.417563
0.417892
0.42249
0.422488
0.427172
0.426856
0.431646
0.430894
0.435865
0.434682
0.439885
0.438318
0.44374
0.441848
0.447455
0.445281
0.450994
0.448697
0.454288
0.452264
0.457279
0.456074
0.459811
0.460253
0.461695
0.464697
0.46355
0.467899
0.467831
0.465763
0.370269
0.280868
0.224522
0.186149
0.158811
0.137649
0.12217
0.108487
0.0989837
0.0891882
0.0830264
0.0756428
0.071417
0.0657973
0.0627053
0.0584773
0.0561691
0.0529782
0.0514912
0.0489377
0.0484106
0.0463571
0.0468293
0.0455293
0.0469284
0.0468487
0.049072
0.0506668
0.0538934
0.057206
0.0619273
0.066748
0.0734365
0.0794231
0.087874
0.0948199
0.104487
0.1123
0.12256
0.131161
0.141688
0.150792
0.161229
0.170078
0.180385
0.188613
0.198594
0.206127
0.215508
0.22245
0.231166
0.237531
0.245689
0.251415
0.259282
0.2644
0.271866
0.276376
0.283426
0.287419
0.294132
0.297611
0.304079
0.307105
0.313415
0.316053
0.322192
0.324481
0.330474
0.332409
0.338268
0.339739
0.345466
0.346549
0.352186
0.352935
0.358536
0.3589
0.364495
0.364496
0.37008
0.369836
0.375358
0.374976
0.38039
0.379921
0.385127
0.384761
0.389534
0.389604
0.393679
0.394425
0.397543
0.399116
0.401148
0.403396
0.405021
0.406608
0.409565
0.408753
0.370288
0.280823
0.224597
0.186128
0.158949
0.13768
0.122357
0.108582
0.0991911
0.089336
0.0831945
0.075801
0.0714407
0.0658426
0.0624664
0.05818
0.055521
0.0519977
0.0501445
0.0468842
0.0458876
0.0427589
0.0423498
0.0396158
0.039369
0.0373751
0.03701
0.0358405
0.0355913
0.0348328
0.0353574
0.034579
0.0363326
0.0355377
0.0384295
0.0382048
0.0417743
0.0427136
0.0467723
0.0490626
0.0538247
0.0571941
0.0630321
0.0670499
0.0740009
0.0785972
0.0863669
0.0916334
0.0997983
0.105584
0.113996
0.120038
0.128695
0.134659
0.143301
0.149071
0.157658
0.163171
0.171568
0.176794
0.184983
0.189805
0.197764
0.202167
0.209899
0.213935
0.221391
0.225083
0.232377
0.235799
0.24295
0.246028
0.25295
0.255706
0.262373
0.264843
0.271297
0.273469
0.279717
0.281641
0.287609
0.28944
0.29507
0.296906
0.302179
0.304034
0.308856
0.310862
0.3151
0.317418
0.321049
0.323638
0.326693
0.329419
0.33195
0.334647
0.33699
0.339317
0.341504
0.343799
0.370312
0.28077
0.22463
0.186096
0.158978
0.137699
0.122374
0.108656
0.099197
0.0894639
0.0831842
0.0759809
0.0714126
0.0660465
0.062442
0.0583431
0.055523
0.0520567
0.0501383
0.0468148
0.0457493
0.0425683
0.0419062
0.0392271
0.0384665
0.0365473
0.0355056
0.0341753
0.0332571
0.0318187
0.0317098
0.0296378
0.030516
0.0280132
0.0293166
0.02718
0.0281975
0.026875
0.0276236
0.026836
0.0279462
0.0270888
0.0290942
0.0281321
0.0308743
0.0302642
0.0333526
0.0335519
0.0369492
0.0378179
0.0417986
0.0432485
0.0480149
0.0499275
0.0552999
0.0577841
0.0636871
0.06668
0.0729817
0.0764343
0.0832015
0.0869667
0.09403
0.0979901
0.105246
0.1094
0.116707
0.120902
0.128087
0.132145
0.139238
0.143254
0.1502
0.154172
0.160906
0.164818
0.171349
0.175157
0.181434
0.185167
0.191057
0.194803
0.200275
0.204064
0.209144
0.212944
0.217555
0.221403
0.225519
0.22945
0.233186
0.237126
0.240498
0.244403
0.247296
0.251164
0.25359
0.257466
0.259183
0.263338
0.370331
0.280738
0.224622
0.186106
0.158926
0.137772
0.122279
0.108784
0.0990759
0.0896252
0.083059
0.0761493
0.0713066
0.0661979
0.0623717
0.0584691
0.0554812
0.0521794
0.0500849
0.0469761
0.0456402
0.0427795
0.0417429
0.0394353
0.0382892
0.0366724
0.0353343
0.0341576
0.0330516
0.0316356
0.031349
0.0293012
0.0297879
0.0275116
0.0280308
0.0263193
0.0262588
0.025268
0.0249304
0.0240132
0.0241547
0.0227017
0.0235508
0.0217954
0.0228317
0.021377
0.0221459
0.0211776
0.0219143
0.021022
0.0221012
0.0211436
0.0226624
0.0217761
0.0234618
0.0229319
0.0248432
0.0246376
0.0267864
0.0268545
0.0294582
0.029886
0.0328409
0.0336398
0.0369221
0.0383104
0.0419498
0.0437783
0.0477013
0.0499374
0.0541728
0.0568498
0.061246
0.0643312
0.0688736
0.072316
0.0770561
0.0807892
0.0856203
0.089637
0.094392
0.0986369
0.103284
0.107708
0.11227
0.116806
0.121154
0.125722
0.129825
0.134401
0.138372
0.142966
0.146782
0.151407
0.154935
0.159417
0.162604
0.166884
0.169699
0.173724
0.37034
0.280739
0.224587
0.186153
0.158837
0.137881
0.122136
0.108949
0.0989027
0.0898085
0.0829036
0.0762968
0.0712099
0.0662872
0.0623228
0.0585391
0.055417
0.0523043
0.0499413
0.0471916
0.0454334
0.0430196
0.0415728
0.0396003
0.0382227
0.03674
0.0353354
0.0342058
0.0330025
0.0317728
0.0311584
0.0295618
0.0294518
0.0278279
0.027642
0.026546
0.0259039
0.0253262
0.024576
0.0239275
0.0236402
0.0225494
0.0227245
0.0215253
0.0216399
0.0208027
0.0205966
0.0200662
0.019857
0.0192424
0.0192861
0.0185138
0.0187435
0.0180274
0.0181694
0.0176493
0.0177843
0.0173616
0.0175528
0.0171435
0.0174814
0.0171586
0.0175841
0.0173702
0.017825
0.0178476
0.0184364
0.0185948
0.0193014
0.0196647
0.0205498
0.0212218
0.0222155
0.0232017
0.0243641
0.0256534
0.0271195
0.0287183
0.0304589
0.0324513
0.0344617
0.0368218
0.0390978
0.0418586
0.0444816
0.0476621
0.0505783
0.0540473
0.0572024
0.0609066
0.0643491
0.0683455
0.0720345
0.0762616
0.0801235
0.084411
0.0883317
0.092536
0.0964788
0.10063
0.370337
0.280759
0.224558
0.186201
0.158773
0.137967
0.122028
0.10908
0.0987624
0.0899536
0.0827808
0.0763986
0.071151
0.0663211
0.0623144
0.058551
0.0553861
0.0523744
0.0498234
0.0473469
0.0452581
0.0431828
0.0414449
0.0396778
0.0382011
0.0367217
0.0353785
0.0341822
0.0329841
0.0318675
0.0309967
0.0297856
0.0292087
0.0280602
0.0274675
0.0266598
0.0258562
0.0253574
0.0245527
0.0240124
0.0235232
0.0227546
0.0225341
0.021771
0.0214878
0.0209985
0.0205431
0.0202372
0.0198313
0.0194819
0.0192621
0.0188471
0.0187455
0.0184271
0.0182847
0.0181287
0.0180184
0.0179603
0.0179353
0.0179575
0.0180546
0.0181982
0.0184311
0.0187125
0.0190661
0.0195527
0.0201156
0.0207785
0.0215441
0.0224437
0.0234536
0.0246514
0.0258974
0.0274254
0.0289353
0.0308
0.0326576
0.034857
0.0370559
0.039618
0.0421915
0.0450899
0.0479925
0.0511916
0.0543743
0.0578738
0.0613141
0.0650449
0.0687011
0.0725892
0.0764451
0.0805068
0.0845474
0.0887948
0.0930132
0.0973465
0.101607
0.105906
0.110164
0.11456
0.370333
0.280782
0.224546
0.186234
0.158749
0.138011
0.121983
0.109142
0.0986945
0.0900271
0.0827098
0.0764548
0.0711064
0.0663363
0.0623028
0.058537
0.0553761
0.0523731
0.0497739
0.0473861
0.0451676
0.0432411
0.0413554
0.0397117
0.0381569
0.036702
0.0353938
0.0341363
0.033001
0.0318859
0.0309507
0.0299084
0.0291396
0.0282282
0.0274969
0.0268107
0.0260541
0.0255588
0.0248843
0.0244239
0.0239762
0.0234834
0.0232403
0.0228466
0.0226667
0.0225133
0.0223811
0.0224431
0.0224945
0.0227129
0.0230332
0.0234432
0.0240506
0.0247602
0.0256334
0.0267031
0.027927
0.0293758
0.0310013
0.0328761
0.0349363
0.0372874
0.0398239
0.0426564
0.0456814
0.0489738
0.0524266
0.0560943
0.0599341
0.0639669
0.0681638
0.0725331
0.0770342
0.0816936
0.0864187
0.0913054
0.0961928
0.101229
0.106204
0.111311
0.116323
0.121422
0.126394
0.131345
0.136157
0.140983
0.145704
0.150435
0.155027
0.159602
0.164036
0.168444
0.172734
0.177011
0.181187
0.185314
0.189314
0.193243
0.197097
0.201016
0.370331
0.280803
0.224547
0.186258
0.158742
0.13803
0.121969
0.109155
0.0986691
0.0900372
0.0826688
0.0764627
0.0710546
0.0663318
0.0622538
0.0585101
0.0553379
0.0523289
0.0497424
0.0473457
0.0451349
0.0432311
0.0413244
0.0397531
0.0381622
0.0367983
0.0355041
0.0343121
0.0332708
0.0322425
0.0314368
0.030587
0.0299785
0.0293764
0.0289262
0.0286358
0.028379
0.0284124
0.0284729
0.0288225
0.0293279
0.0300397
0.0310534
0.0322547
0.0338024
0.0356224
0.037769
0.0402611
0.0430977
0.0462969
0.049876
0.0537839
0.0580072
0.0625397
0.0673596
0.0724675
0.0778287
0.0834224
0.0892187
0.0951872
0.101283
0.107506
0.113773
0.120123
0.126465
0.132753
0.138944
0.145116
0.151237
0.157293
0.16329
0.169186
0.175014
0.180722
0.186339
0.191848
0.197237
0.202543
0.207703
0.2128
0.217749
0.222616
0.227355
0.232043
0.236623
0.241141
0.245523
0.249822
0.253953
0.258
0.261881
0.265686
0.269348
0.272947
0.276422
0.279803
0.283055
0.286221
0.289325
0.292494
0.370332
0.280817
0.22455
0.186268
0.158729
0.138022
0.121939
0.109118
0.0986239
0.0899758
0.0826
0.0763933
0.0709616
0.0662713
0.0621612
0.0584715
0.0552963
0.0523392
0.0498183
0.0474698
0.0454034
0.0435911
0.0418911
0.0405465
0.0392275
0.0382827
0.0374091
0.0368603
0.0365203
0.0364501
0.0367546
0.0373101
0.0383479
0.0397192
0.0415804
0.043937
0.0467488
0.0501834
0.0540803
0.0586546
0.0636798
0.0692597
0.0753038
0.0818016
0.0887076
0.0959543
0.103485
0.111234
0.119148
0.127171
0.135302
0.143362
0.151364
0.1593
0.167126
0.174827
0.182378
0.189753
0.196957
0.203964
0.210787
0.217428
0.223875
0.230162
0.236254
0.24226
0.248117
0.25384
0.259394
0.26478
0.270015
0.27507
0.279995
0.28475
0.289383
0.293873
0.298238
0.302501
0.306631
0.310694
0.314624
0.318484
0.322228
0.325886
0.329453
0.332914
0.33625
0.33949
0.342603
0.345648
0.348573
0.351453
0.354229
0.356969
0.359613
0.362193
0.36468
0.367117
0.369537
0.372039
0.37033
0.280823
0.224531
0.186232
0.15866
0.137931
0.121821
0.108971
0.0984778
0.0898073
0.0824755
0.0762993
0.0709688
0.0664146
0.0624836
0.0590712
0.0562303
0.0537334
0.0517908
0.0501325
0.0490129
0.0482642
0.0480614
0.0484358
0.0493406
0.0510449
0.0533646
0.0566111
0.0606397
0.0656126
0.0715579
0.0783856
0.0860565
0.0944325
0.103457
0.113008
0.122932
0.133254
0.143786
0.154588
0.165283
0.175914
0.186334
0.196523
0.206402
0.215944
0.225126
0.233955
0.242413
0.25055
0.258315
0.265852
0.273087
0.280032
0.286668
0.293023
0.299104
0.304928
0.310527
0.315909
0.321106
0.326137
0.330999
0.335735
0.340298
0.344749
0.349017
0.353119
0.357047
0.360828
0.364485
0.367998
0.371421
0.374711
0.377906
0.380986
0.383978
0.386893
0.38972
0.392498
0.395186
0.397839
0.400422
0.402967
0.405457
0.4079
0.410289
0.41262
0.414888
0.41712
0.419281
0.42143
0.423511
0.425584
0.427587
0.429558
0.431472
0.433372
0.435283
0.437301
0.370312
0.280781
0.224408
0.186073
0.15844
0.137695
0.121593
0.108829
0.0985467
0.0901782
0.0834107
0.077977
0.0736924
0.0704062
0.0681015
0.0666804
0.0663278
0.066775
0.0684211
0.070959
0.0749559
0.0801354
0.0869645
0.095155
0.104953
0.116039
0.128196
0.141259
0.155031
0.169408
0.184269
0.198922
0.213225
0.226979
0.240192
0.252742
0.264653
0.275957
0.286557
0.296622
0.306058
0.314991
0.323333
0.331126
0.338414
0.345247
0.351707
0.357823
0.363649
0.369199
0.374478
0.379491
0.384189
0.388639
0.392849
0.396864
0.400689
0.404347
0.40786
0.411232
0.414488
0.417641
0.42069
0.423671
0.426556
0.429395
0.43214
0.43483
0.43743
0.439956
0.442419
0.444796
0.447134
0.449373
0.451544
0.453639
0.455688
0.457691
0.459645
0.461573
0.463447
0.465309
0.467128
0.468939
0.470718
0.47248
0.474221
0.475931
0.477622
0.479292
0.480931
0.482568
0.484169
0.485769
0.487326
0.488859
0.490373
0.491874
0.49342
0.495103
0.370203
0.28053
0.224236
0.186047
0.158711
0.138524
0.123421
0.112336
0.104408
0.0992968
0.096827
0.0965836
0.0983605
0.102016
0.107623
0.11501
0.124345
0.135443
0.148598
0.163386
0.180335
0.198723
0.218302
0.238263
0.258304
0.277687
0.295812
0.312677
0.328115
0.342257
0.354974
0.366556
0.377107
0.386663
0.395473
0.403537
0.411036
0.417983
0.424384
0.430311
0.435669
0.440701
0.445259
0.449405
0.453225
0.456771
0.46012
0.463277
0.466302
0.469199
0.471992
0.474698
0.477293
0.479802
0.482204
0.48453
0.486768
0.488931
0.491028
0.493057
0.495033
0.49696
0.498838
0.500688
0.502491
0.504284
0.506034
0.507777
0.509482
0.511161
0.512819
0.514433
0.516037
0.5176
0.51915
0.520654
0.522135
0.523584
0.525005
0.526406
0.527779
0.529144
0.530483
0.531819
0.533139
0.53445
0.535759
0.537051
0.538346
0.539629
0.540906
0.542185
0.543449
0.544715
0.545957
0.54718
0.548412
0.549624
0.550894
0.552315
0.369483
0.281369
0.228622
0.193048
0.170712
0.155959
0.150108
0.150464
0.156542
0.16732
0.181619
0.198822
0.218412
0.239726
0.262341
0.285626
0.309396
0.33309
0.356946
0.380282
0.403319
0.423847
0.441759
0.457301
0.470494
0.482415
0.492478
0.501045
0.508325
0.514625
0.520099
0.524943
0.529245
0.53302
0.536451
0.539488
0.542302
0.544888
0.547288
0.549585
0.551702
0.553743
0.555659
0.557486
0.559192
0.560791
0.562307
0.563743
0.565128
0.566469
0.567779
0.569075
0.570348
0.571618
0.57286
0.574097
0.57531
0.576509
0.577691
0.578853
0.580002
0.581135
0.582254
0.583365
0.584463
0.585564
0.58665
0.587748
0.588837
0.589922
0.591019
0.592098
0.593192
0.59426
0.595335
0.596378
0.597416
0.598427
0.599431
0.600417
0.601395
0.60237
0.603336
0.604302
0.605263
0.606224
0.60719
0.608152
0.60913
0.610103
0.611087
0.612075
0.613062
0.614057
0.61503
0.616018
0.616985
0.618
0.61903
0.620216
0.3722
0.315439
0.292834
0.279506
0.28639
0.295373
0.331461
0.37362
0.418613
0.463075
0.50455
0.541609
0.573472
0.599929
0.621215
0.637815
0.65054
0.660074
0.667422
0.673046
0.677654
0.681637
0.685144
0.688102
0.690604
0.69264
0.694317
0.695613
0.696456
0.697016
0.697252
0.697366
0.697352
0.697249
0.697137
0.696955
0.696804
0.696656
0.696527
0.696472
0.696422
0.696459
0.696516
0.696612
0.6967
0.696786
0.69687
0.696951
0.69704
0.697144
0.697269
0.697425
0.697611
0.697841
0.698097
0.698398
0.698723
0.69908
0.699462
0.699866
0.700291
0.700733
0.701193
0.701665
0.702157
0.702665
0.70319
0.703734
0.704299
0.704878
0.705482
0.706099
0.706739
0.707382
0.708049
0.708709
0.709385
0.710047
0.71072
0.711382
0.712053
0.712726
0.713403
0.714088
0.714778
0.715478
0.716188
0.716905
0.717642
0.718385
0.719146
0.719921
0.720697
0.721495
0.722266
0.72309
0.723834
0.724694
0.725492
0.726353
0.606741
0.839814
0.952199
0.969551
0.937541
0.88126
0.82136
0.769007
0.724419
0.688387
0.66068
0.64013
0.625396
0.614956
0.607663
0.602395
0.598508
0.595434
0.592911
0.590807
0.588975
0.587526
0.586347
0.585455
0.584761
0.584198
0.583767
0.583419
0.58308
0.582745
0.582329
0.581887
0.581385
0.580861
0.580313
0.579749
0.579191
0.578629
0.578088
0.577568
0.57707
0.576611
0.576179
0.575797
0.57544
0.575124
0.574828
0.574561
0.574312
0.574086
0.57388
0.573697
0.573539
0.57341
0.573306
0.573231
0.573182
0.573162
0.573169
0.5732
0.57326
0.573338
0.573446
0.573572
0.573719
0.573886
0.574074
0.574282
0.574511
0.57476
0.575029
0.575318
0.575626
0.575951
0.576296
0.576654
0.577031
0.577417
0.577818
0.578224
0.578643
0.57907
0.579505
0.57995
0.580403
0.580866
0.581337
0.581818
0.582311
0.582812
0.583325
0.583844
0.584379
0.584911
0.585473
0.585994
0.586549
0.586991
0.587291
0.587282
0.0428266
2.29674
2.88242
3.0855
3.23182
3.289
3.26934
3.20011
3.09973
2.9924
2.88401
2.78076
2.68606
2.60078
2.52374
2.45307
2.38707
2.32403
2.26188
2.2004
2.13856
2.07608
2.01316
1.95016
1.88664
1.82332
1.76042
1.69881
1.63761
1.57736
1.51815
1.46065
1.40471
1.35025
1.29724
1.24555
1.19513
1.14575
1.09735
1.04988
1.00325
0.957378
0.912355
0.868338
0.825393
0.783684
0.743426
0.704881
0.668205
0.633624
0.601263
0.571279
0.543673
0.518484
0.495524
0.474724
0.455873
0.438832
0.423047
0.408194
0.394065
0.380944
0.368579
0.35671
0.345
0.334143
0.32463
0.316768
0.30969
0.303176
0.297309
0.293378
0.291699
0.2924
0.294253
0.297006
0.300052
0.303693
0.306653
0.30829
0.307187
0.303402
0.297223
0.289503
0.281343
0.27267
0.264803
0.256304
0.249447
0.240762
0.234614
0.22385
0.217795
0.202618
0.196399
0.175377
0.169537
0.143313
0.13953
0.11005
0.355584
1.13156
2.06906
2.51612
2.74899
2.84812
2.85948
2.81096
2.72834
2.63378
2.53809
2.44939
2.3714
2.30401
2.2454
2.19356
2.14644
2.10221
2.05896
2.01586
1.97175
1.92606
1.87867
1.82976
1.77904
1.72712
1.6742
1.62131
1.56785
1.51436
1.46069
1.40765
1.35558
1.30451
1.25441
1.20523
1.15694
1.10934
1.06241
1.01616
0.970541
0.925527
0.881261
0.837959
0.79574
0.754796
0.715388
0.677807
0.642233
0.608903
0.577962
0.549551
0.523664
0.500306
0.479279
0.460441
0.443539
0.428374
0.414394
0.401212
0.388603
0.376804
0.365614
0.354764
0.34395
0.333812
0.324907
0.317543
0.310897
0.304572
0.298509
0.29381
0.290925
0.290192
0.290771
0.292504
0.294781
0.297744
0.300177
0.301393
0.30006
0.296182
0.290047
0.282517
0.274614
0.266347
0.258857
0.250881
0.244346
0.236129
0.2301
0.219707
0.213543
0.198672
0.192255
0.17146
0.165501
0.139299
0.135504
0.105874
0.551505
0.546469
1.02279
1.57956
1.97683
2.18965
2.28103
2.29183
2.25712
2.19845
2.13212
2.06986
2.01375
1.96564
1.92547
1.89196
1.86318
1.83731
1.81281
1.78819
1.76218
1.73406
1.7035
1.6703
1.63436
1.59607
1.55563
1.51392
1.47082
1.42652
1.38137
1.33505
1.28851
1.24219
1.19622
1.15061
1.1054
1.06046
1.01579
0.971473
0.927545
0.884026
0.841133
0.799147
0.758252
0.718671
0.68072
0.644717
0.610866
0.579412
0.550523
0.524314
0.50077
0.479858
0.461363
0.445053
0.43062
0.417795
0.406031
0.39488
0.384093
0.373847
0.364013
0.354327
0.344545
0.335242
0.327037
0.320221
0.314035
0.307912
0.301666
0.296169
0.291981
0.289597
0.288582
0.288909
0.290063
0.292021
0.293649
0.2942
0.292456
0.288365
0.282226
0.274882
0.267293
0.259514
0.252519
0.245181
0.23909
0.231431
0.225595
0.21562
0.209362
0.194819
0.188169
0.167628
0.161504
0.135366
0.131539
0.101797
0.53108
0.495231
0.560354
0.767862
1.07043
1.34237
1.52394
1.61898
1.65681
1.65948
1.64333
1.62297
1.60086
1.58083
1.56497
1.55346
1.545
1.53849
1.53188
1.5246
1.51567
1.50447
1.49063
1.47335
1.45286
1.42931
1.40298
1.37426
1.34359
1.31046
1.27621
1.23881
1.19976
1.15992
1.11961
1.07889
1.03797
0.996782
0.955351
0.913904
0.872546
0.83137
0.790674
0.750819
0.712058
0.674653
0.638982
0.605386
0.574089
0.545337
0.519323
0.49613
0.475726
0.458031
0.4428
0.429686
0.418312
0.408326
0.3992
0.390421
0.381726
0.373222
0.364867
0.35643
0.347761
0.339371
0.331928
0.325674
0.31993
0.313972
0.307515
0.301177
0.295596
0.291366
0.288444
0.286947
0.286556
0.287103
0.28757
0.287135
0.284729
0.280249
0.274027
0.26685
0.259633
0.252437
0.246073
0.239497
0.233991
0.226979
0.221428
0.211897
0.205574
0.191354
0.184442
0.164162
0.157828
0.131804
0.127925
0.0981309
0.472759
0.463436
0.459885
0.487055
0.556968
0.666672
0.788663
0.897635
0.980281
1.03764
1.07366
1.09955
1.11896
1.13528
1.15068
1.16658
1.18236
1.19843
1.21237
1.22426
1.2336
1.23993
1.24291
1.2421
1.23765
1.22946
1.21803
1.20322
1.18575
1.16463
1.14198
1.1153
1.08588
1.05457
1.02175
0.987575
0.952496
0.91641
0.879481
0.842087
0.804438
0.766712
0.729311
0.692672
0.657125
0.622977
0.590676
0.560569
0.532899
0.507906
0.485806
0.466637
0.450341
0.436768
0.425624
0.416413
0.408678
0.401977
0.395823
0.389649
0.383191
0.376483
0.369601
0.362373
0.354794
0.347309
0.34062
0.334882
0.329499
0.323603
0.316848
0.309593
0.302527
0.296277
0.291164
0.28743
0.285029
0.283699
0.282578
0.280768
0.277396
0.272305
0.265905
0.258877
0.252105
0.245601
0.240027
0.234338
0.22957
0.223282
0.218118
0.20903
0.202685
0.188743
0.181567
0.161522
0.154956
0.129098
0.125155
0.0954051
0.410939
0.411495
0.406243
0.402298
0.403587
0.414175
0.431552
0.455706
0.483133
0.514784
0.547114
0.581679
0.617822
0.655332
0.693447
0.732394
0.770938
0.809386
0.845685
0.879131
0.909009
0.934826
0.956102
0.973142
0.985859
0.993871
0.997828
0.997218
0.993271
0.985072
0.974598
0.960372
0.942845
0.922405
0.89924
0.87365
0.846349
0.81713
0.786369
0.754607
0.72221
0.689466
0.656874
0.624948
0.594098
0.56469
0.537224
0.512043
0.489402
0.469519
0.452634
0.438716
0.427657
0.419202
0.412979
0.408311
0.404658
0.401508
0.398445
0.39487
0.390548
0.385457
0.379827
0.37358
0.366906
0.360191
0.354146
0.348791
0.343611
0.337608
0.33041
0.32212
0.313464
0.305042
0.297496
0.291155
0.286285
0.282588
0.279412
0.275802
0.271132
0.265197
0.258532
0.251663
0.245449
0.23977
0.235159
0.230473
0.22659
0.221067
0.216389
0.207696
0.201386
0.187625
0.180206
0.160338
0.153544
0.127906
0.123898
0.0943364
0.34347
0.346044
0.344377
0.338947
0.330782
0.321932
0.312506
0.303436
0.294436
0.287355
0.282203
0.281212
0.285765
0.297254
0.316249
0.343245
0.377039
0.417121
0.461101
0.506726
0.551744
0.594457
0.633471
0.668005
0.698054
0.722841
0.742961
0.757512
0.768077
0.774175
0.776954
0.775941
0.771211
0.762752
0.750938
0.736175
0.718923
0.69863
0.676094
0.652018
0.626919
0.601196
0.575434
0.550198
0.525993
0.503237
0.482457
0.463983
0.448067
0.434882
0.424672
0.417307
0.412598
0.410132
0.409418
0.409582
0.410046
0.410281
0.409991
0.408582
0.405893
0.401882
0.396972
0.391225
0.385065
0.378822
0.373181
0.367979
0.362763
0.356429
0.348608
0.339144
0.328793
0.318092
0.307934
0.298701
0.290983
0.284477
0.278806
0.272994
0.266726
0.259769
0.252818
0.246202
0.240729
0.236047
0.232578
0.228971
0.22608
0.221296
0.217176
0.208761
0.202538
0.188808
0.181196
0.161429
0.154442
0.129102
0.125036
0.0959003
0.263091
0.267144
0.268106
0.264961
0.258083
0.248394
0.236731
0.224064
0.211028
0.198808
0.187713
0.178678
0.172268
0.168763
0.168755
0.172775
0.181104
0.194727
0.21398
0.238814
0.269016
0.303181
0.339832
0.377245
0.414328
0.449086
0.481206
0.509147
0.533233
0.552936
0.568673
0.580494
0.588329
0.591593
0.591005
0.587027
0.579998
0.570009
0.557499
0.543092
0.527347
0.510734
0.493884
0.477376
0.461801
0.447593
0.435282
0.425159
0.417469
0.412324
0.409912
0.409943
0.412086
0.415722
0.420236
0.424632
0.428407
0.431103
0.432585
0.432308
0.43023
0.426337
0.421281
0.415303
0.409078
0.402869
0.397285
0.391939
0.386427
0.379559
0.37097
0.360252
0.348181
0.335172
0.32233
0.31008
0.299309
0.289729
0.281261
0.272983
0.264952
0.256965
0.249882
0.243781
0.239348
0.235858
0.233671
0.231129
0.229253
0.225063
0.221507
0.213163
0.207056
0.193164
0.185423
0.16571
0.158575
0.133662
0.12955
0.101163
0.175609
0.179273
0.181407
0.180643
0.177016
0.171107
0.163912
0.156501
0.149866
0.144804
0.141738
0.140824
0.142036
0.144939
0.149225
0.154584
0.160662
0.167609
0.175549
0.18452
0.195457
0.208106
0.223826
0.242
0.262604
0.284795
0.308395
0.332144
0.355434
0.377418
0.397413
0.414856
0.429479
0.441188
0.449539
0.454473
0.45636
0.456003
0.453468
0.449113
0.443395
0.436737
0.429711
0.422883
0.416902
0.412167
0.409131
0.408001
0.408992
0.412082
0.417298
0.424121
0.432072
0.440373
0.448388
0.455171
0.460416
0.463824
0.465427
0.464746
0.461875
0.45687
0.450631
0.443617
0.436717
0.430096
0.424215
0.418469
0.412502
0.40504
0.395692
0.383822
0.370148
0.35496
0.339542
0.324398
0.310649
0.298024
0.286737
0.276026
0.266362
0.257668
0.250928
0.245854
0.242853
0.240705
0.239808
0.238168
0.237178
0.233292
0.230176
0.221621
0.215584
0.201369
0.193526
0.17392
0.166628
0.142353
0.138186
0.110902
0.104402
0.108252
0.11181
0.114599
0.116774
0.118781
0.121391
0.125262
0.1308
0.138171
0.147171
0.157416
0.168453
0.179655
0.190592
0.20105
0.210724
0.219745
0.228106
0.235791
0.24319
0.25034
0.257508
0.264986
0.273106
0.28185
0.291572
0.301971
0.313063
0.324632
0.336372
0.347821
0.35857
0.368712
0.377858
0.385636
0.391964
0.39677
0.400251
0.402589
0.40409
0.40504
0.405833
0.406956
0.409008
0.412223
0.416863
0.423005
0.430776
0.439936
0.450243
0.460982
0.471627
0.481428
0.489888
0.496277
0.500558
0.5026
0.502544
0.499916
0.494921
0.487741
0.479518
0.470945
0.463034
0.455755
0.449409
0.443245
0.436921
0.429078
0.419254
0.406591
0.391672
0.37469
0.357103
0.339561
0.323292
0.308073
0.294373
0.281735
0.271073
0.262543
0.257024
0.253689
0.252422
0.25155
0.251693
0.250603
0.25014
0.246158
0.243166
0.234134
0.228
0.213455
0.205454
0.186157
0.178581
0.155347
0.150963
0.125254
0.118978
0.123397
0.128255
0.134151
0.141538
0.150614
0.161516
0.174138
0.188104
0.203082
0.218458
0.233734
0.248247
0.261678
0.273975
0.285157
0.295158
0.304149
0.31223
0.319603
0.326526
0.332903
0.338963
0.344779
0.350486
0.356105
0.361775
0.367222
0.372603
0.377903
0.383163
0.388335
0.393336
0.398151
0.40285
0.407157
0.411179
0.41475
0.418011
0.420994
0.423947
0.427015
0.430421
0.434612
0.440056
0.446742
0.454715
0.463894
0.474144
0.484889
0.495711
0.505934
0.51518
0.522885
0.528793
0.532452
0.534024
0.533425
0.530767
0.525499
0.517894
0.508341
0.498211
0.488299
0.479589
0.471881
0.465349
0.459156
0.452923
0.445228
0.435498
0.42268
0.407185
0.389203
0.370382
0.35151
0.333766
0.317019
0.301956
0.288607
0.278336
0.271404
0.268119
0.266936
0.267111
0.267001
0.267549
0.266479
0.265936
0.261486
0.258127
0.248564
0.242086
0.227503
0.219187
0.200575
0.192481
0.171025
0.16604
0.142625
0.205048
0.20914
0.213885
0.22021
0.228644
0.239148
0.251584
0.265436
0.280188
0.295173
0.309805
0.323685
0.336527
0.348237
0.358922
0.36859
0.377458
0.3856
0.393091
0.400112
0.406786
0.413085
0.419123
0.424819
0.430181
0.435147
0.439721
0.44389
0.447677
0.451
0.453915
0.456388
0.458405
0.460045
0.461501
0.462424
0.463182
0.463793
0.464404
0.465122
0.466295
0.468025
0.470552
0.474352
0.47968
0.486287
0.494061
0.502662
0.511569
0.520126
0.528066
0.534945
0.540627
0.544766
0.547294
0.547931
0.546903
0.543997
0.539166
0.53184
0.522331
0.511247
0.500139
0.489772
0.480984
0.473494
0.467367
0.461719
0.45612
0.449123
0.440038
0.427688
0.412372
0.394408
0.375623
0.356783
0.338937
0.322042
0.307064
0.294684
0.286489
0.282308
0.281484
0.28181
0.282418
0.282286
0.282528
0.281033
0.279889
0.274836
0.270771
0.260926
0.254018
0.239844
0.231078
0.213604
0.204996
0.185673
0.180118
0.160056
0.295774
0.299199
0.303379
0.309185
0.316992
0.326677
0.337966
0.350312
0.3632
0.375983
0.388211
0.399705
0.410351
0.42024
0.429464
0.4381
0.446249
0.454008
0.461327
0.468316
0.474908
0.481021
0.486721
0.491802
0.496289
0.500091
0.503201
0.50557
0.507307
0.508319
0.508701
0.508457