/*--------------------------------*- C++ -*----------------------------------*\
| =========                 |                                                 |
| \\      /  F ield         | OpenFOAM: The Open Source CFD Toolbox           |
|  \\    /   O peration     | Version:  v2012                                 |
|   \\  /    A nd           | Website:  www.openfoam.com                      |
|    \\/     M anipulation  |                                                 |
\*---------------------------------------------------------------------------*/
FoamFile
{
    version     2.0;
    format      ascii;
    class       surfaceScalarField;
    location    "0.27";
    object      phi.air;
}
// * * * * * * * * * * * * * * * * * * * * * * * * * * * * * * * * * * * * * //

dimensions      [0 3 -1 0 0 0 0];
oriented        oriented;


internalField   nonuniform List<scalar> 
3672
(
0.0064006
7.14517e-06
0.00639136
8.99623e-06
0.00638142
9.68684e-06
0.00637056
1.06126e-05
0.0063586
1.17119e-05
0.00634559
1.27593e-05
0.00633129
1.40467e-05
0.00631578
1.52582e-05
0.00629637
1.91628e-05
2.80585e-05
0.00626806
0.00641089
4.26003e-06
0.00641309
6.79313e-06
0.00641555
7.2261e-06
0.00641823
7.93235e-06
0.00642104
8.90607e-06
0.00642399
9.8076e-06
0.00642694
1.10891e-05
0.00642967
1.25285e-05
0.00643129
1.75455e-05
2.48537e-05
0.0064345
0.00640988
2.38202e-06
0.00641223
4.44505e-06
0.00641473
4.71802e-06
0.00641752
5.14462e-06
0.00642056
5.87155e-06
0.00642375
6.60995e-06
0.00642716
7.68595e-06
0.00643042
9.26282e-06
0.0064346
1.3366e-05
1.8425e-05
0.00644103
0.00640936
1.0263e-06
0.00641175
2.05189e-06
0.00641429
2.17918e-06
0.00641704
2.39546e-06
0.00642008
2.82902e-06
0.00642335
3.34014e-06
0.00642686
4.1794e-06
0.00643058
5.54009e-06
0.00643542
8.52209e-06
1.19254e-05
0.00644192
0.00640916
-1.33129e-07
0.00641153
-3.17987e-07
0.00641408
-3.68048e-07
0.0064168
-3.30658e-07
0.00641985
-2.20072e-07
0.00642318
1.20098e-08
0.0064268
5.59748e-07
0.0064308
1.54158e-06
0.00643581
3.50707e-06
5.35649e-06
0.00644238
0.00640918
-1.30997e-06
0.00641156
-2.70308e-06
0.00641412
-2.92489e-06
0.00641686
-3.07022e-06
0.00641993
-3.29409e-06
0.00642331
-3.36794e-06
0.00642702
-3.15054e-06
0.00643117
-2.6108e-06
0.00643623
-1.55005e-06
-9.18194e-07
0.00644251
0.00640941
-2.72028e-06
0.00641185
-5.1427e-06
0.00641442
-5.49271e-06
0.00641721
-5.85951e-06
0.00642032
-6.40729e-06
0.00642374
-6.78915e-06
0.00642751
-6.92237e-06
0.00643175
-6.8458e-06
0.00643674
-6.54489e-06
-6.74829e-06
0.00644257
0.00640999
-4.70719e-06
0.0064124
-7.5559e-06
0.00641495
-8.04444e-06
0.00641781
-8.71402e-06
0.00642095
-9.55364e-06
0.0064244
-1.02353e-05
0.00642821
-1.0735e-05
0.00643249
-1.11202e-05
0.00643739
-1.14533e-05
-1.21458e-05
0.00644279
0.00641105
-7.76188e-06
0.00641334
-9.83864e-06
0.00641585
-1.05521e-05
0.00641858
-1.14513e-05
0.00642152
-1.24901e-05
0.00642469
-1.34058e-05
0.00642817
-1.42168e-05
0.00643204
-1.49858e-05
0.00643631
-1.57293e-05
-1.68101e-05
0.00644098
0.00640049
0.0063909
0.0063806
0.0063694
0.00635716
0.006344
0.00633004
0.0063153
0.00629982
0.00628326
0.00618912
0.000122524
-4.35878e-05
0.00598884
8.2613e-05
0.000117663
0.00572442
-0.000168606
0.000433026
0.00550756
-0.000541273
0.00075814
0.00535911
-0.000908017
0.00105647
0.00525264
-0.00120372
0.00131018
0.0051718
-0.00137929
0.00146013
0.00510268
-0.0014273
0.00149642
0.00503457
-0.00137479
0.0014429
0.0049666
-0.00125509
0.00132306
0.004899
-0.00110282
0.00117043
0.00483229
-0.000945457
0.00101216
0.00476699
-0.000798975
0.000864275
0.004703
-0.00067049
0.000734482
0.00464097
-0.000564072
0.000626104
0.0045813
-0.000478477
0.000538147
0.0045242
-0.000409705
0.000466808
0.00447023
-0.000354516
0.000408485
0.00442015
-0.000311326
0.000361406
0.00437438
-0.000278099
0.000323862
0.00433262
-0.000251356
0.00029312
0.00429462
-0.000228588
0.00026659
0.00426046
-0.00020955
0.000243714
0.00423022
-0.000194312
0.00022455
0.00420353
-0.00018193
0.000208618
0.00418015
-0.000171022
0.000194406
0.00416006
-0.000161069
0.000181155
0.00414288
-0.000152171
0.000169352
0.00412818
-0.000144561
0.000159264
0.00411558
-0.000137919
0.000150517
0.0041047
-0.0001318
0.000142678
0.00409528
-0.000125964
0.000135388
0.00408704
-0.000120423
0.000128661
0.00407973
-0.00011518
0.00012249
0.00407331
-0.000110439
0.000116853
0.00406776
-0.00010617
0.000111724
0.00406299
-0.000102219
0.000106988
0.00405894
-9.84635e-05
0.000102509
0.00405556
-9.49084e-05
9.82873e-05
0.00405279
-9.15991e-05
9.43686e-05
0.0040506
-8.86083e-05
9.08032e-05
0.00404892
-8.58938e-05
8.75697e-05
0.00404768
-8.33345e-05
8.45822e-05
0.00404678
-8.08287e-05
8.17276e-05
0.00404619
-7.83595e-05
7.89511e-05
0.00404587
-7.5985e-05
7.62967e-05
0.00404582
-7.38106e-05
7.38629e-05
0.00404602
-7.18205e-05
7.16255e-05
0.00404645
-6.99426e-05
6.95079e-05
0.00404711
-6.81154e-05
6.74561e-05
0.00404797
-6.63321e-05
6.54703e-05
0.00404902
-6.46276e-05
6.35836e-05
0.00405023
-6.30499e-05
6.18317e-05
0.00405162
-6.15899e-05
6.0203e-05
0.00405317
-6.02051e-05
5.86596e-05
0.00405486
-5.88637e-05
5.71714e-05
0.00405668
-5.75529e-05
5.57339e-05
0.0040586
-5.62699e-05
5.43466e-05
0.00406062
-5.5048e-05
5.3033e-05
0.00406272
-5.39052e-05
5.18019e-05
0.00406491
-5.28316e-05
5.06448e-05
0.00406717
-5.17893e-05
4.95267e-05
0.0040695
-5.07798e-05
4.84484e-05
0.00407189
-4.9795e-05
4.74045e-05
0.00407433
-4.8861e-05
4.64175e-05
0.00407682
-4.79623e-05
4.54745e-05
0.00407935
-4.71111e-05
4.4582e-05
0.00408192
-4.62899e-05
4.37231e-05
0.00408452
-4.54968e-05
4.28978e-05
0.00408714
-4.47172e-05
4.20929e-05
0.00408978
-4.39623e-05
4.13194e-05
0.00409244
-4.32292e-05
4.05726e-05
0.00409511
-4.25273e-05
3.98607e-05
0.00409778
-4.18453e-05
3.91722e-05
0.00410046
-4.1184e-05
3.85077e-05
0.00410313
-4.05271e-05
3.78554e-05
0.00410579
-3.98852e-05
3.72216e-05
0.00410844
-3.92492e-05
3.6599e-05
0.00411108
-3.86345e-05
3.59996e-05
0.00411369
-3.80255e-05
3.54097e-05
0.00411629
-3.74325e-05
3.48383e-05
0.00411886
-3.68375e-05
3.42687e-05
0.0041214
-3.62561e-05
3.37149e-05
0.00412391
-3.56719e-05
3.31607e-05
0.00412639
-3.51038e-05
3.26233e-05
0.00412884
-3.45345e-05
3.20866e-05
0.00413125
-3.39821e-05
3.15672e-05
0.00413363
-3.34289e-05
3.10488e-05
0.00413598
-3.28944e-05
3.05491e-05
0.00413829
-3.2363e-05
3.00535e-05
0.00414056
-3.1859e-05
2.95846e-05
0.0041428
-3.13635e-05
2.91243e-05
0.00414501
-3.09195e-05
2.87132e-05
0.00414718
-3.04844e-05
2.83109e-05
0.00414933
-3.01956e-05
2.80476e-05
0.00415145
-2.98774e-05
2.77543e-05
0.00415358
-3.00393e-05
2.79134e-05
0.00415568
-2.99105e-05
2.78109e-05
0.00415787
-3.1214e-05
2.90192e-05
-3.11764e-05
2.92145e-05
0.00647836
7.86561e-05
0.00651174
4.92388e-05
0.00650174
-0.000158607
0.0064363
-0.00047583
0.00632498
-0.000796698
0.00617908
-0.00105782
0.00601661
-0.00121681
0.00585465
-0.00126534
0.00570349
-0.00122363
0.00556869
-0.00112029
0.00545264
-0.000986777
0.00535438
-0.0008472
0.00527093
-0.000715522
0.00519903
-0.000598588
0.00513572
-0.000500768
0.00507825
-0.000421006
0.00502394
-0.000355389
0.00497102
-0.000301598
0.00491904
-0.000259346
0.00486802
-0.000227079
0.00481804
-0.000201374
0.00476955
-0.000180098
0.00472311
-0.000163111
0.00467928
-0.000150483
0.00463829
-0.000140944
0.00460006
-0.000132787
0.00456464
-0.000125655
0.00453225
-0.000119775
0.00450284
-0.000115153
0.0044762
-0.000111277
0.00445197
-0.000107569
0.0044299
-0.000103899
0.00440986
-0.000100376
0.00439175
-9.70745e-05
0.00437542
-9.41037e-05
0.00436067
-9.14197e-05
0.00434733
-8.88841e-05
0.00433528
-8.64164e-05
0.00432441
-8.40337e-05
0.00431462
-8.18072e-05
0.00430577
-7.97633e-05
0.0042977
-7.78204e-05
0.00429031
-7.59493e-05
0.00428358
-7.40945e-05
0.00427745
-7.22335e-05
0.0042719
-7.04337e-05
0.0042669
-6.88033e-05
0.0042624
-6.73245e-05
0.00425838
-6.59219e-05
0.0042548
-6.45391e-05
0.00425163
-6.31602e-05
0.00424883
-6.18267e-05
0.00424638
-6.06014e-05
0.00424426
-5.94662e-05
0.00424244
-5.83894e-05
0.00424091
-5.73273e-05
0.0042396
-5.62442e-05
0.00423849
-5.51594e-05
0.00423757
-5.41305e-05
0.00423684
-5.31768e-05
0.00423629
-5.22813e-05
0.00423591
-5.14068e-05
0.00423568
-5.05544e-05
0.00423559
-4.97039e-05
0.00423562
-4.88881e-05
0.00423575
-4.80969e-05
0.00423599
-4.73488e-05
0.00423632
-4.6622e-05
0.00423674
-4.59143e-05
0.00423723
-4.52064e-05
0.00423778
-4.45136e-05
0.00423838
-4.38323e-05
0.00423903
-4.31762e-05
0.00423972
-4.25324e-05
0.00424044
-4.19026e-05
0.00424118
-4.12694e-05
0.00424194
-4.06447e-05
0.00424271
-4.00203e-05
0.00424349
-3.94132e-05
0.00424427
-3.88079e-05
0.00424506
-3.82155e-05
0.00424583
-3.76166e-05
0.00424661
-3.70292e-05
0.00424737
-3.64367e-05
0.00424813
-3.58594e-05
0.00424887
-3.52795e-05
0.00424961
-3.47158e-05
0.00425033
-3.41499e-05
0.00425104
-3.36025e-05
0.00425173
-3.30573e-05
0.00425241
-3.25397e-05
0.00425308
-3.20304e-05
0.00425373
-3.15735e-05
0.00425437
-3.11256e-05
0.004255
-3.08251e-05
0.00425563
-3.05006e-05
0.00425624
-3.06508e-05
0.00425686
-3.05287e-05
0.00425752
-3.18828e-05
-3.17341e-05
0.00647001
4.96757e-05
0.00650349
1.57558e-05
0.00650081
-0.000155926
0.00644848
-0.0004235
0.00634924
-0.000697457
0.00621162
-0.000920196
0.00605284
-0.00105804
0.0058907
-0.0011032
0.00573786
-0.00107079
0.00560286
-0.000985291
0.00548891
-0.000872829
0.00539521
-0.000753496
0.00531891
-0.000639225
0.00525748
-0.00053715
0.00520832
-0.000451612
0.00516849
-0.000381182
0.00513516
-0.00032205
0.0051066
-0.000273039
0.00508194
-0.000234684
0.00505987
-0.000205011
0.00503872
-0.00018023
0.00501736
-0.000158731
0.00499533
-0.000141087
0.00497254
-0.000127688
0.00494875
-0.000117152
0.00492367
-0.000107712
0.00489713
-9.91169e-05
0.00486938
-9.20245e-05
0.0048409
-8.66686e-05
0.00481217
-8.25534e-05
0.00478369
-7.90838e-05
0.0047557
-7.59144e-05
0.00472859
-7.32603e-05
0.00470288
-7.13628e-05
0.00467878
-7.00027e-05
0.00465628
-6.89287e-05
0.00463533
-6.79327e-05
0.00461584
-6.69252e-05
0.00459774
-6.59366e-05
0.00458098
-6.50431e-05
0.00456546
-6.42381e-05
0.00455105
-6.34117e-05
0.00453764
-6.25454e-05
0.00452517
-6.16234e-05
0.00451359
-6.06467e-05
0.00450286
-5.97079e-05
0.00449294
-5.88878e-05
0.00448378
-5.81576e-05
0.00447528
-5.74213e-05
0.00446735
-5.66134e-05
0.00445996
-5.57683e-05
0.00445309
-5.49607e-05
0.00444673
-5.42352e-05
0.00444082
-5.35614e-05
0.00443536
-5.29238e-05
0.0044303
-5.22752e-05
0.00442563
-5.15725e-05
0.00442131
-5.08404e-05
0.00441733
-5.01454e-05
0.00441366
-4.95051e-05
0.00441028
-4.8903e-05
0.00440717
-4.82949e-05
0.00440426
-4.7653e-05
0.00440155
-4.69841e-05
0.00439899
-4.63348e-05
0.0043966
-4.5703e-05
0.00439435
-4.51051e-05
0.00439224
-4.45118e-05
0.00439025
-4.39234e-05
0.00438836
-4.33163e-05
0.00438656
-4.27124e-05
0.00438484
-4.2107e-05
0.00438318
-4.15188e-05
0.00438158
-4.09334e-05
0.00438003
-4.03543e-05
0.00437853
-3.97629e-05
0.00437706
-3.91746e-05
0.00437562
-3.85809e-05
0.0043742
-3.80012e-05
0.00437282
-3.74191e-05
0.00437145
-3.68486e-05
0.0043701
-3.6269e-05
0.00436877
-3.56996e-05
0.00436746
-3.51238e-05
0.00436616
-3.45628e-05
0.00436488
-3.39986e-05
0.00436362
-3.34504e-05
0.00436236
-3.28995e-05
0.00436113
-3.23671e-05
0.00435991
-3.18367e-05
0.0043587
-3.13337e-05
0.00435751
-3.08397e-05
0.00435633
-3.0396e-05
0.00435517
-2.99636e-05
0.00435402
-2.96738e-05
0.00435289
-2.93652e-05
0.00435176
-2.95206e-05
0.00435065
-2.94238e-05
0.0043495
-3.07294e-05
-3.06857e-05
0.0064645
2.71008e-05
0.00648861
-8.3557e-06
0.00648172
-0.000149035
0.00642849
-0.000370269
0.00633104
-0.000600008
0.00619798
-0.000787142
0.00604461
-0.000904668
0.00588735
-0.000945933
0.0057386
-0.00092204
0.00560638
-0.000853072
0.0054938
-0.000760252
0.00540009
-0.000659787
0.00532315
-0.000562287
0.00526125
-0.000475245
0.00521188
-0.000402245
0.00517173
-0.00034103
0.00513836
-0.000288676
0.00511116
-0.000245842
0.00508968
-0.000213204
0.00507216
-0.000187496
0.00505667
-0.000164738
0.00504284
-0.000144895
0.00503147
-0.000129719
0.00502235
-0.000118573
0.00501405
-0.000108854
0.00500566
-9.93239e-05
0.00499735
-9.08052e-05
0.00498934
-8.4014e-05
0.00498133
-7.86579e-05
0.0049729
-7.41222e-05
0.00496362
-6.98015e-05
0.00495313
-6.54285e-05
0.00494134
-6.14709e-05
0.00492837
-5.83885e-05
0.00491439
-5.6021e-05
0.00489947
-5.4012e-05
0.00488366
-5.21184e-05
0.00486703
-5.03022e-05
0.0048498
-4.87028e-05
0.00483223
-4.74727e-05
0.00481468
-4.66907e-05
0.00479748
-4.62077e-05
0.00478072
-4.57877e-05
0.00476447
-4.53701e-05
0.00474885
-4.50306e-05
0.004734
-4.48576e-05
0.00471995
-4.48421e-05
0.00470667
-4.48706e-05
0.00469408
-4.48318e-05
0.00468215
-4.4688e-05
0.00467087
-4.44851e-05
0.0046602
-4.42946e-05
0.0046501
-4.41307e-05
0.00464051
-4.39758e-05
0.0046314
-4.38152e-05
0.00462274
-4.36117e-05
0.00461453
-4.33636e-05
0.00460678
-4.30852e-05
0.00459944
-4.28121e-05
0.00459249
-4.25555e-05
0.00458589
-4.22996e-05
0.00457961
-4.20138e-05
0.00457362
-4.16651e-05
0.0045679
-4.12616e-05
0.00456241
-4.08432e-05
0.00455712
-4.04196e-05
0.00455202
-4.00006e-05
0.00454707
-3.95642e-05
0.00454226
-3.91115e-05
0.00453756
-3.86189e-05
0.00453297
-3.8116e-05
0.00452846
-3.75992e-05
0.00452403
-3.70923e-05
0.00451968
-3.65795e-05
0.00451539
-3.60679e-05
0.00451117
-3.55378e-05
0.004507
-3.50095e-05
0.00450289
-3.44734e-05
0.00449884
-3.39494e-05
0.00449485
-3.34242e-05
0.00449091
-3.29087e-05
0.00448702
-3.23845e-05
0.00448319
-3.18688e-05
0.00447942
-3.13474e-05
0.00447569
-3.08408e-05
0.00447203
-3.03315e-05
0.00446841
-2.98386e-05
0.00446486
-2.93428e-05
0.00446136
-2.88662e-05
0.00445791
-2.83914e-05
0.00445452
-2.79439e-05
0.00445119
-2.75062e-05
0.00444791
-2.71151e-05
0.00444468
-2.67387e-05
0.0044415
-2.64912e-05
0.00443838
-2.62401e-05
0.00443525
-2.63966e-05
0.00443222
-2.63882e-05
0.00442904
-2.75547e-05
-2.78753e-05
0.00645963
9.85239e-06
0.00647551
-2.42333e-05
0.00646423
-0.000137754
0.00641073
-0.000316772
0.00631603
-0.000505313
0.00618842
-0.000659532
0.00604149
-0.000757738
0.00588978
-0.000794215
0.00574495
-0.000777211
0.00561502
-0.00072315
0.00550319
-0.000648414
0.00540906
-0.000565659
0.00533152
-0.000484745
0.00526922
-0.000412954
0.00521903
-0.000352051
0.00517739
-0.000299389
0.005143
-0.000254285
0.00511589
-0.000218729
0.00509445
-0.000191768
0.00507585
-0.0001689
0.00505912
-0.000148003
0.00504539
-0.000131169
0.00503497
-0.000119299
0.00502623
-0.000109834
0.00501776
-0.000100384
0.00500983
-9.13933e-05
0.00500334
-8.43105e-05
0.00499844
-7.91173e-05
0.00499444
-7.46535e-05
0.00499047
-7.0159e-05
0.00498633
-6.56552e-05
0.00498256
-6.1659e-05
0.00497957
-5.84788e-05
0.00497704
-5.58631e-05
0.00497454
-5.3515e-05
0.00497171
-5.11882e-05
0.00496842
-4.88307e-05
0.00496474
-4.66181e-05
0.00496075
-4.47103e-05
0.00495641
-4.31323e-05
0.00495155
-4.18366e-05
0.00494598
-4.06318e-05
0.00493954
-3.93512e-05
0.00493222
-3.80501e-05
0.00492409
-3.69013e-05
0.00491527
-3.60387e-05
0.00490587
-3.54359e-05
0.00489593
-3.49317e-05
0.0048855
-3.44061e-05
0.00487468
-3.38702e-05
0.0048636
-3.34045e-05
0.00485239
-3.30824e-05
0.00484117
-3.29095e-05
0.00483003
-3.28388e-05
0.00481899
-3.27683e-05
0.00480804
-3.26701e-05
0.00479725
-3.25721e-05
0.00478667
-3.24996e-05
0.0047763
-3.24479e-05
0.00476615
-3.24032e-05
0.00475619
-3.23428e-05
0.00474644
-3.22561e-05
0.00473691
-3.21388e-05
0.00472762
-3.19737e-05
0.00471854
-3.1764e-05
0.00470965
-3.15276e-05
0.00470092
-3.12733e-05
0.00469236
-3.09978e-05
0.00468394
-3.06944e-05
0.00467566
-3.0343e-05
0.00466752
-2.99747e-05
0.00465951
-2.95865e-05
0.00465162
-2.92027e-05
0.00464385
-2.88103e-05
0.0046362
-2.84162e-05
0.00462866
-2.80026e-05
0.00462125
-2.75912e-05
0.00461394
-2.71701e-05
0.00460676
-2.67618e-05
0.00459968
-2.63504e-05
0.00459272
-2.59489e-05
0.00458587
-2.55377e-05
0.00457914
-2.51354e-05
0.00457252
-2.47302e-05
0.00456602
-2.43386e-05
0.00455964
-2.39469e-05
0.00455337
-2.35701e-05
0.00454722
-2.3193e-05
0.00454119
-2.28335e-05
0.00453527
-2.24774e-05
0.00452947
-2.21465e-05
0.00452379
-2.18265e-05
0.00451823
-2.15463e-05
0.00451277
-2.12859e-05
0.00450741
-2.11285e-05
0.00450217
-2.09949e-05
0.00449693
-2.11596e-05
0.00449186
-2.13204e-05
0.00448653
-2.22255e-05
-2.32472e-05
0.00645566
-3.30158e-06
0.00646519
-3.37649e-05
0.00645042
-0.000122979
0.00639697
-0.000263323
0.00630461
-0.000412951
0.00618117
-0.000536091
0.00603902
-0.00061559
0.00589151
-0.000646705
0.00574994
-0.000635642
0.005622
-0.000595213
0.00551067
-0.000537083
0.0054163
-0.000471286
0.00533861
-0.000407057
0.00527573
-0.000350069
0.00522395
-0.00030027
0.0051807
-0.000256138
0.00514587
-0.000219463
0.00511878
-0.000191639
0.00509614
-0.000169124
0.00507563
-0.000148391
0.00505839
-0.000130761
0.00504542
-0.000118206
0.00503497
-0.000108847
0.00502486
-9.97231e-05
0.00501518
-9.07016e-05
0.00500725
-8.34609e-05
0.0050013
-7.83623e-05
0.00499638
-7.41964e-05
0.00499149
-6.97646e-05
0.00498648
-6.51528e-05
0.00498208
-6.12511e-05
0.00497875
-5.83304e-05
0.00497616
-5.58861e-05
0.00497376
-5.34655e-05
0.00497118
-5.09399e-05
0.00496856
-4.85692e-05
0.00496636
-4.66279e-05
0.00496468
-4.4933e-05
0.00496326
-4.32918e-05
0.00496184
-4.17187e-05
0.00496027
-4.02614e-05
0.00495858
-3.89443e-05
0.00495695
-3.77201e-05
0.00495538
-3.64792e-05
0.00495376
-3.52805e-05
0.00495196
-3.42433e-05
0.00494986
-3.33312e-05
0.00494736
-3.24293e-05
0.00494443
-3.14775e-05
0.00494107
-3.05155e-05
0.00493727
-2.96058e-05
0.00493297
-2.87812e-05
0.00492809
-2.80232e-05
0.00492254
-2.72937e-05
0.00491631
-2.65383e-05
0.00490941
-2.57721e-05
0.00490189
-2.50436e-05
0.00489377
-2.43833e-05
0.00488509
-2.37707e-05
0.00487588
-2.31873e-05
0.00486616
-2.26234e-05
0.00485599
-2.20896e-05
0.00484545
-2.1596e-05
0.00483461
-2.11365e-05
0.00482355
-2.0703e-05
0.00481232
-2.02993e-05
0.00480097
-1.99249e-05
0.00478955
-1.9578e-05
0.0047781
-1.92393e-05
0.00476667
-1.89182e-05
0.0047553
-1.86052e-05
0.00474403
-1.83104e-05
0.00473285
-1.80289e-05
0.0047218
-1.7758e-05
0.00471089
-1.75022e-05
0.00470013
-1.72434e-05
0.00468953
-1.6996e-05
0.00467911
-1.67424e-05
0.00466885
-1.65091e-05
0.00465878
-1.62765e-05
0.00464889
-1.60601e-05
0.0046392
-1.58432e-05
0.00462969
-1.5635e-05
0.0046204
-1.54311e-05
0.00461129
-1.52376e-05
0.0046024
-1.50511e-05
0.0045937
-1.48749e-05
0.00458521
-1.47042e-05
0.00457693
-1.45443e-05
0.00456884
-1.4392e-05
0.00456095
-1.42555e-05
0.00455325
-1.41294e-05
0.00454574
-1.40309e-05
0.00453841
-1.39553e-05
0.00453122
-1.39426e-05
0.00452421
-1.39884e-05
0.00451723
-1.41737e-05
0.00451049
-1.45793e-05
0.00450335
-1.50869e-05
-1.71159e-05
0.00645273
-1.34585e-05
0.00645752
-3.85542e-05
0.00643989
-0.000105347
0.00638638
-0.000209818
0.00629583
-0.000322399
0.00617559
-0.000415849
0.00603717
-0.000477171
0.00589294
-0.000502479
0.00575371
-0.000496409
0.00562666
-0.000468166
0.00551478
-0.000425201
0.00541937
-0.000375875
0.00534064
-0.00032833
0.00527576
-0.000285191
0.00522116
-0.000245666
0.00517649
-0.000211464
0.0051415
-0.000184475
0.00511261
-0.000162747
0.00508677
-0.000143286
0.00506481
-0.000126436
0.00504773
-0.000113683
0.00503359
-0.000104063
0.0050201
-9.53503e-05
0.00500738
-8.70076e-05
0.0049967
-8.00249e-05
0.00498805
-7.48116e-05
0.00498026
-7.0568e-05
0.00497237
-6.63114e-05
0.00496457
-6.19567e-05
0.00495759
-5.81713e-05
0.00495157
-5.52315e-05
0.00494602
-5.27824e-05
0.00494044
-5.03056e-05
0.00493464
-4.76662e-05
0.0049289
-4.52064e-05
0.00492354
-4.32005e-05
0.00491843
-4.15211e-05
0.00491338
-3.98877e-05
0.00490823
-3.81424e-05
0.0049029
-3.63853e-05
0.00489747
-3.48286e-05
0.00489205
-3.35213e-05
0.00488663
-3.23041e-05
0.00488119
-3.10386e-05
0.00487567
-2.97594e-05
0.00487
-2.85725e-05
0.00486415
-2.7485e-05
0.00485817
-2.64463e-05
0.00485211
-2.5418e-05
0.00484601
-2.44165e-05
0.00483986
-2.34585e-05
0.00483363
-2.25471e-05
0.00482727
-2.16615e-05
0.00482076
-2.079e-05
0.00481414
-1.99128e-05
0.00480742
-1.90554e-05
0.00480062
-1.82438e-05
0.00479372
-1.74787e-05
0.00478666
-1.6718e-05
0.00477943
-1.59503e-05
0.00477199
-1.5186e-05
0.00476435
-1.44542e-05
0.00475652
-1.37662e-05
0.0047485
-1.3112e-05
0.00474027
-1.24735e-05
0.00473182
-1.18531e-05
0.00472316
-1.1261e-05
0.00471429
-1.07083e-05
0.00470524
-1.01901e-05
0.00469603
-9.71224e-06
0.0046867
-9.27301e-06
0.00467726
-8.86873e-06
0.00466773
-8.50025e-06
0.00465814
-8.16531e-06
0.0046485
-7.86708e-06
0.00463886
-7.60326e-06
0.00462924
-7.36773e-06
0.00461966
-7.16253e-06
0.00461013
-6.98475e-06
0.00460069
-6.83773e-06
0.00459135
-6.71507e-06
0.00458212
-6.61659e-06
0.00457302
-6.53677e-06
0.00456407
-6.477e-06
0.00455527
-6.43403e-06
0.00454662
-6.40973e-06
0.00453815
-6.39923e-06
0.00452985
-6.40217e-06
0.00452172
-6.41435e-06
0.00451376
-6.43771e-06
0.00450598
-6.47055e-06
0.00449836
-6.51265e-06
0.0044909
-6.57093e-06
0.0044836
-6.65272e-06
0.00447641
-6.7576e-06
0.00446938
-6.95092e-06
0.00446232
-7.12119e-06
0.00445547
-7.7273e-06
0.00444816
-7.775e-06
-1.07117e-05
0.0064508
-2.14626e-05
0.00645216
-3.99198e-05
0.00643219
-8.53722e-05
0.00637824
-0.000155876
0.00628837
-0.000232521
0.0061693
-0.000296783
0.00603182
-0.000339694
0.00588771
-0.000358361
0.0057474
-0.000356108
0.00561747
-0.000338227
0.00550206
-0.000309793
0.00540357
-0.00027739
0.00532022
-0.000244973
0.0052491
-0.00021408
0.0051897
-0.000186258
0.00514107
-0.00016284
0.00509986
-0.000143262
0.00506347
-0.000126355
0.00503197
-0.000111792
0.00500538
-9.98424e-05
0.00498182
-9.01206e-05
0.00495972
-8.19646e-05
0.0049392
-7.48306e-05
0.00492078
-6.85911e-05
0.00490403
-6.32753e-05
0.00488798
-5.87614e-05
0.00487222
-5.48079e-05
0.00485704
-5.11344e-05
0.00484273
-4.76453e-05
0.00482906
-4.45009e-05
0.00481562
-4.17853e-05
0.00480222
-3.93846e-05
0.00478899
-3.70806e-05
0.00477612
-3.47892e-05
0.00476357
-3.26563e-05
0.00475117
-3.08049e-05
0.00473881
-2.9161e-05
0.00472651
-2.75908e-05
0.00471439
-2.60137e-05
0.00470248
-2.44782e-05
0.00469074
-2.30935e-05
0.00467911
-2.18905e-05
0.00466759
-2.07778e-05
0.00465622
-1.96677e-05
0.00464503
-1.85716e-05
0.00463401
-1.75583e-05
0.00462317
-1.6638e-05
0.0046125
-1.57797e-05
0.00460203
-1.49509e-05
0.00459177
-1.41565e-05
0.00458172
-1.34067e-05
0.00457188
-1.27029e-05
0.00456225
-1.20325e-05
0.00455285
-1.13895e-05
0.0045437
-1.0763e-05
0.0045348
-1.01626e-05
0.00452616
-9.60128e-06
0.00451776
-9.07607e-06
0.0045096
-8.56328e-06
0.00450171
-8.05344e-06
0.00449407
-7.55282e-06
0.0044867
-7.08089e-06
0.00447958
-6.64015e-06
0.00447269
-6.22233e-06
0.00446602
-5.81109e-06
0.00445958
-5.41046e-06
0.00445334
-5.02436e-06
0.0044473
-4.66447e-06
0.00444143
-4.32222e-06
0.00443572
-4.00162e-06
0.00443016
-3.70707e-06
0.00442472
-3.43081e-06
0.00441939
-3.17373e-06
0.00441417
-2.93934e-06
0.00440902
-2.72504e-06
0.00440396
-2.53742e-06
0.00439896
-2.36572e-06
0.00439401
-2.21561e-06
0.00438911
-2.08297e-06
0.00438424
-1.9714e-06
0.0043794
-1.8783e-06
0.00437459
-1.8003e-06
0.00436979
-1.73874e-06
0.004365
-1.6895e-06
0.00436022
-1.65574e-06
0.00435545
-1.63553e-06
0.00435068
-1.62944e-06
0.00434591
-1.63412e-06
0.00434115
-1.64996e-06
0.00433639
-1.67618e-06
0.00433163
-1.71346e-06
0.00432688
-1.76288e-06
0.00432213
-1.82445e-06
0.00431739
-1.91322e-06
0.00431263
-1.99981e-06
0.00430788
-2.1923e-06
0.00430301
-2.25824e-06
0.00429815
-2.86577e-06
0.00429293
-2.55767e-06
-5.63641e-06
0.00644653
-2.70128e-05
0.00644397
-3.73617e-05
0.00642001
-6.141e-05
0.00636214
-9.80092e-05
0.00626748
-0.000137856
0.00614212
-0.000171423
0.00599644
-0.000194015
0.00584215
-0.000204069
0.00568912
-0.000203079
0.00554469
-0.000193795
0.0054138
-0.000178903
0.0052976
-0.00016119
0.00519565
-0.00014303
0.00510747
-0.000125895
0.00503165
-0.000110444
0.00496565
-9.68393e-05
0.00490737
-8.4983e-05
0.00485579
-7.47725e-05
0.00481009
-6.609e-05
0.00476893
-5.8679e-05
0.00473104
-5.22378e-05
0.00469609
-4.70148e-05
0.00466395
-4.26885e-05
0.00463429
-3.89277e-05
0.00460651
-3.54935e-05
0.00458016
-3.24157e-05
0.00455514
-2.97875e-05
0.00453147
-2.74667e-05
0.00450909
-2.5258e-05
0.00448775
-2.31608e-05
0.00446726
-2.12966e-05
0.00444755
-1.96757e-05
0.00442866
-1.81944e-05
0.00441063
-1.67547e-05
0.00439337
-1.53977e-05
0.00437676
-1.41964e-05
0.00436074
-1.31404e-05
0.00434532
-1.21705e-05
0.00433054
-1.1231e-05
0.00431639
-1.03266e-05
0.0043028
-9.50573e-06
0.0042897
-8.79441e-06
0.00427708
-8.15461e-06
0.00426495
-7.53707e-06
0.00425331
-6.93792e-06
0.00424215
-6.39029e-06
0.00423141
-5.90175e-06
0.00422109
-5.45535e-06
0.00421117
-5.03391e-06
0.00420165
-4.63704e-06
0.00419251
-4.26968e-06
0.00418374
-3.93357e-06
0.00417533
-3.62177e-06
0.00416727
-3.33096e-06
0.00415957
-3.05524e-06
0.0041522
-2.7965e-06
0.00414516
-2.5603e-06
0.00413843
-2.347e-06
0.00413201
-2.14514e-06
0.00412591
-1.94931e-06
0.00412011
-1.7596e-06
0.00411462
-1.58552e-06
0.0041094
-1.42664e-06
0.00410446
-1.27985e-06
0.00409979
-1.13498e-06
0.00409537
-9.94831e-07
0.0040912
-8.57867e-07
0.00408727
-7.3178e-07
0.00408356
-6.07865e-07
0.00408004
-4.83775e-07
0.00407671
-3.8265e-07
0.00407356
-2.78851e-07
0.00407057
-1.79626e-07
0.00406772
-8.56377e-08
0.00406499
3.54023e-09
0.00406237
8.22804e-08
0.00405984
1.56296e-07
0.00405741
2.19485e-07
0.00405505
2.76845e-07
0.00405275
3.24142e-07
0.00405051
3.62441e-07
0.00404832
3.94607e-07
0.00404616
4.1768e-07
0.00404404
4.35289e-07
0.00404194
4.46663e-07
0.00403985
4.51354e-07
0.00403777
4.51235e-07
0.00403569
4.48009e-07
0.0040336
4.3857e-07
0.00403149
4.26458e-07
0.00402938
4.04593e-07
0.00402723
3.78594e-07
0.00402507
3.3864e-07
0.00402287
2.88328e-07
0.00402062
2.49446e-07
0.0040183
1.26041e-07
0.00401589
1.51013e-07
0.00401334
-3.11492e-07
0.00401062
1.60022e-07
-2.32777e-06
0.00625665
0.00621968
0.00615866
0.00606105
0.00592359
0.00575257
0.00555896
0.00535529
0.00515262
0.00495924
0.00478076
0.00461999
0.00447739
0.00435192
0.00424191
0.0041455
0.00406095
0.00398662
0.00392097
0.00386273
0.00381093
0.00376436
0.00372212
0.00368364
0.00364859
0.00361662
0.00358728
0.00356026
0.00353545
0.00351274
0.0034919
0.00347267
0.00345493
0.00343863
0.00342368
0.00340994
0.00339725
0.00338553
0.00337475
0.00336488
0.00335583
0.00334749
0.00333979
0.0033327
0.00332622
0.00332028
0.00331484
0.00330984
0.00330526
0.00330108
0.00329726
0.00329378
0.00329062
0.00328774
0.00328514
0.0032828
0.00328069
0.0032788
0.00327711
0.00327562
0.00327431
0.00327318
0.00327221
0.00327139
0.00327071
0.00327017
0.00326976
0.00326949
0.00326934
0.00326931
0.00326938
0.00326956
0.00326983
0.0032702
0.00327066
0.0032712
0.00327181
0.00327248
0.00327321
0.00327399
0.00327481
0.00327566
0.00327653
0.00327742
0.00327832
0.00327923
0.00328014
0.00328104
0.00328193
0.00328281
0.00328367
0.0032845
0.0032853
0.00328604
0.00328674
0.00328733
0.00328793
0.00328807
0.00328869
-0.000831931
0.000788343
-0.00121946
0.000387527
-0.00139906
0.000179604
-0.00140205
2.9839e-06
-0.00126096
-0.00014109
-0.000964944
-0.000296012
-0.000524487
-0.000440457
-0.000525013
-0.000754951
0.00166096
-0.00111808
0.000750658
-0.00122824
0.000289766
-0.00120009
-2.51743e-05
-0.00105429
-0.000286883
-0.00080876
-0.000541545
-0.000456447
-0.00079277
-0.000981964
-0.000156197
0.00225018
-0.000557935
0.0011524
-0.000717708
0.000449539
-0.000731037
-1.18448e-05
-0.000650844
-0.000367076
-0.000507295
-0.000685094
-0.000303369
-0.000996696
-0.00128582
0.00042966
0.00257866
9.69588e-05
0.0014851
-0.000111093
0.000657591
-0.000205853
8.29145e-05
-0.000222048
-0.000350881
-0.000187708
-0.000719434
-0.000121698
-0.00106271
-0.00140799
0.000870297
0.00276483
0.00061731
0.00173808
0.00039523
0.000879672
0.000239663
0.000238481
0.000137923
-0.000249141
7.01122e-05
-0.000651623
2.21293e-05
-0.00101472
-0.00138632
0.00119707
0.00287795
0.000996738
0.00193841
0.000781889
0.00109452
0.000592642
0.000427729
0.00042878
-8.52789e-05
0.000279859
-0.000502703
0.000137298
-0.000872161
-0.00124949
0.00139123
0.00294684
0.00123794
0.0020917
0.00104153
0.00129093
0.000835825
0.000633432
0.000631626
0.000118921
0.000426452
-0.000297529
0.000215938
-0.000661648
-0.00103402
0.00145067
0.0029926
0.00133259
0.00220978
0.00116185
0.00146168
0.000958549
0.00083673
0.000737538
0.000339932
0.000503669
-6.36601e-05
0.000257028
-0.000415007
-0.000777462
0.00141297
0.00302252
0.00131819
0.00230456
0.00116843
0.00161145
0.000977335
0.00102782
0.000758635
0.000558632
0.000520584
0.000174391
0.000266353
-0.000160776
-0.000511594
0.00130659
0.00303898
0.00123233
0.00237883
0.00110361
0.00174017
0.000929958
0.00120147
0.00072478
0.00076381
0.000497992
0.000401178
0.00025447
8.27461e-05
-0.000257619
0.00116645
0.00304296
0.00111058
0.0024347
0.00100148
0.00184927
0.000848327
0.00135463
0.000663768
0.000948368
0.000456941
0.000608005
0.000233403
0.000306284
-2.47243e-05
0.00101864
0.00303648
0.000977985
0.00247535
0.000885851
0.0019414
0.000752838
0.00148764
0.000590903
0.0011103
0.000407655
0.000791253
0.00020924
0.000504699
0.000184004
0.000878119
0.00302264
0.000849205
0.00250426
0.000772276
0.00201833
0.000657597
0.00160232
0.000516442
0.00125146
0.000355853
0.000951842
0.000181834
0.000678718
0.000365332
0.000752928
0.00300419
0.000732651
0.00252454
0.000668578
0.00208241
0.000570192
0.0017007
0.000447967
0.00137368
0.000308424
0.00109139
0.000157185
0.000829958
0.000522014
0.00064661
0.00298369
0.000631845
0.00253931
0.000578332
0.00213592
0.00049443
0.00178461
0.000388897
0.00147922
0.000267808
0.00121247
0.000136377
0.000961389
0.000657893
0.000558403
0.00296343
0.00054624
0.00255147
0.000501107
0.00218105
0.000429992
0.00185572
0.000339084
0.00157012
0.00023388
0.00131768
0.000119041
0.00107623
0.00077644
0.0004855
0.00294474
0.000474596
0.00256237
0.000435792
0.00221986
0.000374892
0.00191662
0.00029634
0.00164867
0.000204759
0.00140926
0.000103933
0.00117705
0.000879882
0.000425082
0.00292814
0.000414979
0.00257247
0.000380979
0.00225386
0.000327985
0.00196961
0.000259578
0.00171708
0.000179535
0.0014893
9.08894e-05
0.0012657
0.000970281
0.000375617
0.00291393
0.000365992
0.0025821
0.000335677
0.00228417
0.000288893
0.0020164
0.000228679
0.0017773
0.000158202
0.00155978
8.00943e-05
0.00134381
0.00104989
0.000335733
0.00290206
0.000326298
0.00259153
0.000298808