/*--------------------------------*- C++ -*----------------------------------*\
| =========                 |                                                 |
| \\      /  F ield         | OpenFOAM: The Open Source CFD Toolbox           |
|  \\    /   O peration     | Version:  v2012                                 |
|   \\  /    A nd           | Website:  www.openfoam.com                      |
|    \\/     M anipulation  |                                                 |
\*---------------------------------------------------------------------------*/
FoamFile
{
    version     2.0;
    format      ascii;
    class       volVectorField;
    location    "0.27";
    object      U.air;
}
// * * * * * * * * * * * * * * * * * * * * * * * * * * * * * * * * * * * * * //

dimensions      [0 1 -1 0 0 0 0];


internalField   nonuniform List<vector> 
1900
(
(39.9676 0.00859687 0)
(39.9239 0.015103 0)
(39.8679 0.0180588 0)
(39.8035 0.0207993 0)
(39.73 0.0237062 0)
(39.6526 0.0267683 0)
(39.5681 0.0297565 0)
(39.4712 0.0344329 0)
(39.3801 0.0347839 0)
(39.2118 0.0735029 0)
(40.0053 0.0147927 0)
(40.0212 0.0233975 0)
(40.0401 0.0257182 0)
(40.0561 0.0277458 0)
(40.0726 0.0304775 0)
(40.0898 0.0329399 0)
(40.1095 0.0364838 0)
(40.1257 0.0385578 0)
(40.1466 0.0533818 0)
(40.1568 0.0585715 0)
(40.0029 0.00824745 0)
(40.0161 0.0135856 0)
(40.0335 0.0137912 0)
(40.051 0.0145443 0)
(40.0688 0.0163129 0)
(40.0879 0.0182043 0)
(40.1087 0.0208556 0)
(40.1299 0.024805 0)
(40.1543 0.0350812 0)
(40.1844 0.0529454 0)
(40.0018 0.00414496 0)
(40.0132 0.00782145 0)
(40.0301 0.00860527 0)
(40.0479 0.00970547 0)
(40.066 0.0114323 0)
(40.0852 0.0132518 0)
(40.1064 0.0158683 0)
(40.1291 0.0197454 0)
(40.1561 0.0288801 0)
(40.1894 0.0416246 0)
(40.0015 0.00111201 0)
(40.012 0.00211928 0)
(40.0285 0.00232728 0)
(40.0464 0.00266241 0)
(40.0645 0.0032531 0)
(40.084 0.00405072 0)
(40.1056 0.00562476 0)
(40.1294 0.00842125 0)
(40.1575 0.0146682 0)
(40.1918 0.0210544 0)
(40.0016 -0.00180292 0)
(40.0122 -0.00371605 0)
(40.0288 -0.00416325 0)
(40.0468 -0.00431398 0)
(40.065 -0.00436079 0)
(40.0846 -0.00401592 0)
(40.1066 -0.00289512 0)
(40.1311 -0.000789731 0)
(40.1597 0.00317611 0)
(40.1936 0.0064082 0)
(40.0019 -0.00486279 0)
(40.0136 -0.00947526 0)
(40.0308 -0.0105123 0)
(40.0489 -0.0114613 0)
(40.0672 -0.0126727 0)
(40.0871 -0.0134371 0)
(40.1094 -0.0134428 0)
(40.1344 -0.0127054 0)
(40.163 -0.0110203 0)
(40.1957 -0.0104531 0)
(40.0032 -0.00926927 0)
(40.0168 -0.0153327 0)
(40.0348 -0.0157393 0)
(40.0527 -0.016477 0)
(40.0709 -0.01804 0)
(40.0911 -0.0194037 0)
(40.1136 -0.0202815 0)
(40.1388 -0.020797 0)
(40.1672 -0.0210301 0)
(40.1987 -0.0225688 0)
(40.0057 -0.0162088 0)
(40.0223 -0.0253699 0)
(40.042 -0.0274341 0)
(40.0582 -0.0288787 0)
(40.0751 -0.0308084 0)
(40.0938 -0.0324197 0)
(40.1145 -0.0335734 0)
(40.1374 -0.0344434 0)
(40.1628 -0.0352272 0)
(40.1893 -0.0366674 0)
(39.9675 -0.0101412 0)
(39.9214 -0.0185951 0)
(39.8645 -0.0229106 0)
(39.797 -0.0265887 0)
(39.7223 -0.0303253 0)
(39.6428 -0.0339089 0)
(39.5582 -0.0373399 0)
(39.4686 -0.0407417 0)
(39.3739 -0.044104 0)
(39.2741 -0.0480425 0)
(39.1724 -0.0392829 0)
(38.0177 -0.354716 0)
(36.4706 -0.795029 0)
(34.9649 -1.35455 0)
(33.857 -1.88883 0)
(33.1085 -2.33219 0)
(32.5392 -2.60362 0)
(32.0826 -2.66918 0)
(31.6446 -2.56953 0)
(31.2129 -2.34926 0)
(30.7872 -2.07006 0)
(30.3637 -1.77936 0)
(29.9535 -1.50925 0)
(29.549 -1.27194 0)
(29.156 -1.07505 0)
(28.7773 -0.916622 0)
(28.4128 -0.789552 0)
(28.0652 -0.687872 0)
(27.7398 -0.607908 0)
(27.4411 -0.545831 0)
(27.1692 -0.496248 0)
(26.9197 -0.453721 0)
(26.6949 -0.416853 0)
(26.4936 -0.385845 0)
(26.3178 -0.36004 0)
(26.1605 -0.336623 0)
(26.0256 -0.314907 0)
(25.91 -0.295483 0)
(25.8112 -0.278722 0)
(25.7265 -0.264074 0)
(25.6539 -0.250844 0)
(25.5906 -0.238541 0)
(25.5363 -0.227229 0)
(25.4878 -0.216655 0)
(25.445 -0.207013 0)
(25.4078 -0.198314 0)
(25.3757 -0.1903 0)
(25.3482 -0.182707 0)
(25.3252 -0.175553 0)
(25.306 -0.168899 0)
(25.2906 -0.162866 0)
(25.2786 -0.157404 0)
(25.2697 -0.152345 0)
(25.2631 -0.147434 0)
(25.2585 -0.142626 0)
(25.2557 -0.138025 0)
(25.2546 -0.133853 0)
(25.255 -0.12998 0)
(25.257 -0.12629 0)
(25.2605 -0.122731 0)
(25.2652 -0.119283 0)
(25.2712 -0.116003 0)
(25.2783 -0.112959 0)
(25.2864 -0.110134 0)
(25.2956 -0.107456 0)
(25.3057 -0.104865 0)
(25.3167 -0.102353 0)
(25.3284 -0.0999255 0)
(25.3407 -0.0976225 0)
(25.3536 -0.0954642 0)
(25.367 -0.0934325 0)
(25.3809 -0.0914684 0)
(25.3952 -0.0895662 0)
(25.41 -0.0877203 0)
(25.4251 -0.0859646 0)
(25.4405 -0.0842976 0)
(25.4562 -0.0827179 0)
(25.4721 -0.0811957 0)
(25.4882 -0.0797265 0)
(25.5045 -0.0782912 0)
(25.521 -0.0769054 0)
(25.5375 -0.075567 0)
(25.5541 -0.0742869 0)
(25.5708 -0.0730492 0)
(25.5875 -0.0718503 0)
(25.6042 -0.0706691 0)
(25.6208 -0.0695178 0)
(25.6375 -0.0683835 0)
(25.6539 -0.0672893 0)
(25.6704 -0.0662093 0)
(25.6866 -0.0651608 0)
(25.7028 -0.0641121 0)
(25.7186 -0.0630903 0)
(25.7345 -0.0620659 0)
(25.75 -0.0610709 0)
(25.7655 -0.0600757 0)
(25.7805 -0.0591109 0)
(25.7956 -0.0581467 0)
(25.8103 -0.0572156 0)
(25.8249 -0.0562913 0)
(25.8391 -0.0554152 0)
(25.8533 -0.0545548 0)
(25.867 -0.0537844 0)
(25.8809 -0.05303 0)
(25.8941 -0.0525316 0)
(25.9078 -0.0519791 0)
(25.9204 -0.0522644 0)
(25.9349 -0.052066 0)
(25.9452 -0.0543083 0)
(25.9652 -0.0544222 0)
(40.259 0.20537 0)
(40.4989 0.295871 0)
(40.6487 -0.0460573 0)
(40.4722 -0.668256 0)
(39.9271 -1.3308 0)
(39.098 -1.89412 0)
(38.1064 -2.25371 0)
(37.0577 -2.38376 0)
(36.0574 -2.32267 0)
(35.1525 -2.1327 0)
(34.3663 -1.87931 0)
(33.6986 -1.61283 0)
(33.1371 -1.36174 0)
(32.6571 -1.13961 0)
(32.2406 -0.954132 0)
(31.8693 -0.803983 0)
(31.5247 -0.682267 0)
(31.1919 -0.58356 0)
(30.865 -0.506017 0)
(30.5443 -0.44681 0)
(30.2284 -0.399754 0)
(29.9203 -0.360522 0)
(29.6235 -0.328921 0)
(29.341 -0.305113 0)
(29.0765 -0.286818 0)
(28.8294 -0.271052 0)
(28.5989 -0.256981 0)
(28.3875 -0.245133 0)
(28.1946 -0.235436 0)
(28.0205 -0.226981 0)
(27.862 -0.218861 0)
(27.718 -0.210829 0)
(27.5865 -0.202984 0)
(27.4677 -0.195353 0)
(27.3606 -0.188114 0)
(27.2638 -0.181454 0)
(27.1764 -0.175234 0)
(27.0973 -0.169259 0)
(27.026 -0.163548 0)
(26.9615 -0.158216 0)
(26.9038 -0.153345 0)
(26.8512 -0.148847 0)
(26.803 -0.144656 0)
(26.759 -0.140624 0)
(26.7189 -0.13664 0)
(26.6825 -0.132802 0)
(26.6496 -0.129279 0)
(26.62 -0.126085 0)
(26.5935 -0.123084 0)
(26.5698 -0.12015 0)
(26.5488 -0.117273 0)
(26.5302 -0.114513 0)
(26.5139 -0.111963 0)
(26.4996 -0.109596 0)
(26.4873 -0.107344 0)
(26.477 -0.105138 0)
(26.4682 -0.102928 0)
(26.4606 -0.100739 0)
(26.4543 -0.0986685 0)
(26.4492 -0.0967453 0)
(26.4452 -0.0949448 0)
(26.4423 -0.0931842 0)
(26.4404 -0.0914851 0)
(26.4395 -0.089829 0)
(26.4393 -0.0882708 0)
(26.4398 -0.0867332 0)
(26.441 -0.0852751 0)
(26.4428 -0.0838709 0)
(26.4451 -0.0825095 0)
(26.448 -0.0811667 0)
(26.4513 -0.0798578 0)
(26.4549 -0.0785837 0)
(26.4588 -0.0773572 0)
(26.463 -0.0761648 0)
(26.4674 -0.0750004 0)
(26.4719 -0.0738421 0)
(26.4766 -0.0727002 0)
(26.4814 -0.0715692 0)
(26.4863 -0.0704676 0)
(26.4911 -0.0693784 0)
(26.496 -0.0683099 0)
(26.5009 -0.0672371 0)
(26.5057 -0.0661845 0)
(26.5106 -0.0651259 0)
(26.5153 -0.064095 0)
(26.52 -0.0630601 0)
(26.5246 -0.0620556 0)
(26.5292 -0.0610466 0)
(26.5336 -0.0600727 0)
(26.538 -0.0591009 0)
(26.5423 -0.0581811 0)
(26.5465 -0.057273 0)
(26.5506 -0.0564611 0)
(26.5547 -0.0556623 0)
(26.5586 -0.055129 0)
(26.5626 -0.0545466 0)
(26.5663 -0.0548237 0)
(26.5703 -0.0545621 0)
(26.5737 -0.0569859 0)
(26.5795 -0.0567946 0)
(40.2699 0.127743 0)
(40.4561 0.0177442 0)
(40.6021 -0.368697 0)
(40.4975 -0.908895 0)
(40.0434 -1.44081 0)
(39.2826 -1.86016 0)
(38.3233 -2.09979 0)
(37.2919 -2.1555 0)
(36.2759 -2.06698 0)
(35.3642 -1.88501 0)
(34.5829 -1.65835 0)
(33.9363 -1.42419 0)
(33.4097 -1.20337 0)
(32.9837 -1.00717 0)
(32.6439 -0.843007 0)
(32.3721 -0.708837 0)
(32.1479 -0.597248 0)
(31.9568 -0.504719 0)
(31.7926 -0.431751 0)
(31.6501 -0.375539 0)
(31.5174 -0.329646 0)
(31.3862 -0.291163 0)
(31.2513 -0.259967 0)
(31.1118 -0.236384 0)
(30.9668 -0.21865 0)
(30.8147 -0.203901 0)
(30.6537 -0.190999 0)
(30.4837 -0.180404 0)
(30.3073 -0.172607 0)
(30.1281 -0.166735 0)
(29.9487 -0.161531 0)
(29.7726 -0.156534 0)
(29.5993 -0.152111 0)
(29.434 -0.148541 0)
(29.2785 -0.14567 0)
(29.1332 -0.143171 0)
(28.9977 -0.140773 0)
(28.8716 -0.13836 0)
(28.7543 -0.135953 0)
(28.6457 -0.133649 0)
(28.5451 -0.131516 0)
(28.4519 -0.129374 0)
(28.3652 -0.127052 0)
(28.2845 -0.124516 0)
(28.2095 -0.121827 0)
(28.1399 -0.119171 0)
(28.0756 -0.116754 0)
(28.0161 -0.11457 0)
(27.9611 -0.112451 0)
(27.91 -0.110262 0)
(27.8622 -0.108054 0)
(27.8177 -0.105957 0)
(27.7765 -0.104071 0)
(27.7382 -0.102361 0)
(27.7028 -0.100767 0)
(27.67 -0.099208 0)
(27.6397 -0.0976107 0)
(27.6116 -0.0959766 0)
(27.5858 -0.0944069 0)
(27.5619 -0.0929523 0)
(27.5399 -0.0915878 0)
(27.5197 -0.0902317 0)
(27.5011 -0.0888439 0)
(27.4835 -0.0874286 0)
(27.4671 -0.0860722 0)
(27.4516 -0.0847781 0)
(27.4373 -0.0835655 0)
(27.4236 -0.0823742 0)
(27.4109 -0.0812106 0)
(27.3987 -0.0800278 0)
(27.3873 -0.0788679 0)
(27.3762 -0.0777123 0)
(27.3658 -0.0766001 0)
(27.3555 -0.075496 0)
(27.3458 -0.0744156 0)
(27.3362 -0.0733147 0)
(27.327 -0.0722288 0)
(27.3179 -0.0711314 0)
(27.3091 -0.0700663 0)
(27.3002 -0.0689955 0)
(27.2917 -0.0679508 0)
(27.2832 -0.0668882 0)
(27.2749 -0.0658448 0)
(27.2666 -0.0647899 0)
(27.2585 -0.0637617 0)
(27.2504 -0.0627288 0)
(27.2425 -0.0617235 0)
(27.2346 -0.0607149 0)
(27.2269 -0.0597374 0)
(27.2192 -0.0587655 0)
(27.2116 -0.0578405 0)
(27.2041 -0.0569328 0)
(27.1968 -0.056115 0)
(27.1894 -0.0553167 0)
(27.1823 -0.0547773 0)
(27.1749 -0.0541997 0)
(27.1683 -0.0544642 0)
(27.1605 -0.0542657 0)
(27.1552 -0.056643 0)
(27.1446 -0.0564509 0)
(40.2634 0.0673392 0)
(40.4034 0.00417009 0)
(40.4966 -0.262168 0)
(40.3657 -0.678568 0)
(39.9156 -1.11199 0)
(39.179 -1.46758 0)
(38.2536 -1.69377 0)
(37.2571 -1.77802 0)
(36.2696 -1.73967 0)
(35.3799 -1.61336 0)
(34.6123 -1.43938 0)
(33.9692 -1.24984 0)
(33.4386 -1.06515 0)
(33.0083 -0.899057 0)
(32.6669 -0.759474 0)
(32.3936 -0.643497 0)
(32.1667 -0.544863 0)
(31.9779 -0.462941 0)
(31.8284 -0.399636 0)
(31.7108 -0.350803 0)
(31.6101 -0.308987 0)
(31.5175 -0.271698 0)
(31.438 -0.241612 0)
(31.3761 -0.219394 0)
(31.3243 -0.201108 0)
(31.2725 -0.183418 0)
(31.2195 -0.166857 0)
(31.1691 -0.15302 0)
(31.1197 -0.141992 0)
(31.069 -0.133211 0)
(31.0145 -0.125707 0)
(30.9532 -0.11866 0)
(30.8835 -0.112303 0)
(30.806 -0.107579 0)
(30.7217 -0.104472 0)
(30.6314 -0.102244 0)
(30.5354 -0.100336 0)
(30.434 -0.0985848 0)
(30.3279 -0.0970707 0)
(30.2189 -0.0959593 0)
(30.1085 -0.0952648 0)
(29.9998 -0.0947242 0)
(29.8938 -0.0942029 0)
(29.7906 -0.0936934 0)
(29.6909 -0.0931922 0)
(29.5956 -0.0927919 0)
(29.5055 -0.0925555 0)
(29.4203 -0.0923675 0)
(29.3396 -0.0921043 0)
(29.2631 -0.0916991 0)
(29.1907 -0.0911249 0)
(29.1222 -0.0904592 0)
(29.0576 -0.0897849 0)
(28.9961 -0.0890923 0)
(28.9379 -0.088386 0)
(28.8824 -0.0876093 0)
(28.8297 -0.0867032 0)
(28.7799 -0.0857136 0)
(28.7329 -0.0847536 0)
(28.6883 -0.0838625 0)
(28.6462 -0.0830118 0)
(28.6059 -0.0821633 0)
(28.5678 -0.0812741 0)
(28.5311 -0.0803007 0)
(28.4963 -0.0793077 0)
(28.4626 -0.0783205 0)
(28.4304 -0.0773691 0)
(28.3988 -0.0764134 0)
(28.3686 -0.0754517 0)
(28.3388 -0.0744403 0)
(28.31 -0.0734268 0)
(28.2814 -0.0724035 0)
(28.2537 -0.0714081 0)
(28.2261 -0.0704111 0)
(28.1993 -0.0694222 0)
(28.1726 -0.0684065 0)
(28.1466 -0.0673971 0)
(28.1206 -0.0663762 0)
(28.0953 -0.0653795 0)
(28.07 -0.0643774 0)
(28.0454 -0.0633994 0)
(28.0208 -0.062406 0)
(27.9969 -0.0614279 0)
(27.973 -0.0604356 0)
(27.9498 -0.059468 0)
(27.9265 -0.0584931 0)
(27.904 -0.0575465 0)
(27.8815 -0.0565937 0)
(27.8596 -0.0556743 0)
(27.8377 -0.0547578 0)
(27.8166 -0.0538898 0)
(27.7954 -0.0530385 0)
(27.775 -0.0522739 0)
(27.7544 -0.0515322 0)
(27.7348 -0.0510345 0)
(27.7145 -0.0505158 0)
(27.6962 -0.0507818 0)
(27.6747 -0.0506779 0)
(27.6601 -0.0528897 0)
(27.6311 -0.0531154 0)
(40.2555 0.031429 0)
(40.3567 -0.031883 0)
(40.4022 -0.258916 0)
(40.2468 -0.617318 0)
(39.8045 -0.995506 0)
(39.098 -1.30663 0)
(38.2121 -1.50466 0)
(37.257 -1.57704 0)
(36.2996 -1.54023 0)
(35.4296 -1.42751 0)
(34.6717 -1.27431 0)
(34.0283 -1.10735 0)
(33.4925 -0.944836 0)
(33.0594 -0.800634 0)
(32.7157 -0.679766 0)
(32.4341 -0.57691 0)
(32.1967 -0.488457 0)
(32.0058 -0.417403 0)
(31.8596 -0.363704 0)
(31.739 -0.320138 0)
(31.6277 -0.280425 0)
(31.5304 -0.246598 0)
(31.457 -0.222072 0)
(31.4008 -0.203886 0)
(31.348 -0.186879 0)
(31.2951 -0.169984 0)
(31.249 -0.155672 0)
(31.2143 -0.144994 0)
(31.1881 -0.13671 0)
(31.1642 -0.129161 0)
(31.1386 -0.121385 0)
(31.1125 -0.113448 0)
(31.0915 -0.106653 0)
(31.0752 -0.101256 0)
(31.0601 -0.0967048 0)
(31.0439 -0.0925038 0)
(31.0249 -0.0881313 0)
(31.0029 -0.0836651 0)
(30.9788 -0.0796374 0)
(30.953 -0.0764205 0)
(30.9247 -0.0740874 0)
(30.8924 -0.0723385 0)
(30.8551 -0.0706844 0)
(30.8121 -0.069056 0)
(30.7637 -0.0677494 0)
(30.7106 -0.0669867 0)
(30.6536 -0.0667167 0)
(30.5932 -0.0666549 0)
(30.5295 -0.0665335 0)
(30.463 -0.0662895 0)
(30.3945 -0.0660611 0)
(30.3247 -0.0660149 0)
(30.2545 -0.0661596 0)
(30.1846 -0.0664005 0)
(30.1155 -0.0666275 0)
(30.0466 -0.0667736 0)
(29.9789 -0.0668845 0)
(29.9119 -0.066975 0)
(29.8467 -0.0670636 0)
(29.7825 -0.0671433 0)
(29.72 -0.0671765 0)
(29.6582 -0.0671133 0)
(29.5981 -0.0669015 0)
(29.5393 -0.0665518 0)
(29.4822 -0.0661194 0)
(29.426 -0.0656392 0)
(29.3712 -0.0651317 0)
(29.317 -0.0645694 0)
(29.2643 -0.0639485 0)
(29.2119 -0.063231 0)
(29.161 -0.062469 0)
(29.1102 -0.0616644 0)
(29.0609 -0.060862 0)
(29.0117 -0.0600404 0)
(28.9639 -0.0592116 0)
(28.9162 -0.0583425 0)
(28.8699 -0.0574723 0)
(28.8236 -0.0565847 0)
(28.7787 -0.0557192 0)
(28.7339 -0.0548489 0)
(28.6904 -0.0539775 0)
(28.647 -0.0530866 0)
(28.6049 -0.0522198 0)
(28.5629 -0.0513506 0)
(28.5223 -0.05051 0)
(28.4817 -0.0496683 0)
(28.4426 -0.0488557 0)
(28.4035 -0.0480404 0)
(28.3658 -0.0472588 0)
(28.3282 -0.0464821 0)
(28.292 -0.0457531 0)
(28.2558 -0.0450432 0)
(28.2211 -0.0444124 0)
(28.1862 -0.0438124 0)
(28.1531 -0.0434227 0)
(28.119 -0.0430494 0)
(28.0883 -0.043316 0)
(28.0523 -0.0434255 0)
(28.0279 -0.0452809 0)
(27.9796 -0.0464649 0)
(40.2478 0.00636941 0)
(40.3189 -0.0529351 0)
(40.3277 -0.234956 0)
(40.154 -0.518802 0)
(39.7188 -0.818112 0)
(39.0361 -1.06198 0)
(38.1811 -1.21599 0)
(37.2554 -1.27232 0)
(36.3229 -1.24497 0)
(35.4696 -1.16043 0)
(34.7197 -1.04324 0)
(34.0746 -0.912716 0)
(33.5373 -0.785273 0)
(33.1039 -0.671997 0)
(32.7528 -0.574858 0)
(32.4583 -0.489733 0)
(32.2138 -0.417083 0)
(32.0247 -0.361325 0)
(31.8768 -0.319031 0)
(31.7428 -0.281028 0)
(31.621 -0.246367 0)
(31.528 -0.220509 0)
(31.4599 -0.202746 0)
(31.3978 -0.187023 0)
(31.3337 -0.170406 0)
(31.277 -0.155589 0)
(31.2349 -0.144894 0)
(31.203 -0.137102 0)
(31.1735 -0.129608 0)
(31.1419 -0.121246 0)
(31.111 -0.113161 0)
(31.087 -0.106835 0)
(31.0695 -0.102022 0)
(31.0547 -0.0978387 0)
(31.0396 -0.0936766 0)
(31.0225 -0.089285 0)
(31.0069 -0.0852624 0)
(30.9951 -0.0818458 0)
(30.9859 -0.0789353 0)
(30.9774 -0.0764195 0)
(30.9682 -0.0741832 0)
(30.9577 -0.0719438 0)
(30.9472 -0.0695915 0)
(30.9373 -0.0671262 0)
(30.9275 -0.0647842 0)
(30.9171 -0.0628628 0)
(30.9051 -0.0612996 0)
(30.8908 -0.0598069 0)
(30.8739 -0.0581969 0)
(30.8543 -0.0565429 0)
(30.832 -0.0550365 0)
(30.8069 -0.0538152 0)
(30.7783 -0.0528759 0)
(30.7459 -0.0521398 0)
(30.7091 -0.0514333 0)
(30.6681 -0.0507075 0)
(30.623 -0.0500041 0)
(30.5741 -0.0494227 0)
(30.5217 -0.0489477 0)
(30.4658 -0.0485395 0)
(30.4066 -0.0481554 0)
(30.3444 -0.0477792 0)
(30.2797 -0.0474143 0)
(30.2128 -0.0470528 0)
(30.1444 -0.0466838 0)
(30.0747 -0.0463144 0)
(30.0042 -0.0459415 0)
(29.933 -0.0455554 0)
(29.8617 -0.0451298 0)
(29.79 -0.0446545 0)
(29.719 -0.0441495 0)
(29.648 -0.0436234 0)
(29.5783 -0.0431 0)
(29.5085 -0.0425632 0)
(29.4403 -0.0420243 0)
(29.3723 -0.0414506 0)
(29.306 -0.0408748 0)
(29.24 -0.0402763 0)
(29.1758 -0.0396972 0)
(29.112 -0.0391106 0)
(29.05 -0.0385599 0)
(28.9885 -0.0379996 0)
(28.929 -0.0374413 0)
(28.8699 -0.0368748 0)
(28.8129 -0.0363246 0)
(28.7563 -0.0357763 0)
(28.7019 -0.0352496 0)
(28.6477 -0.034725 0)
(28.5959 -0.0342268 0)
(28.5442 -0.0337367 0)
(28.495 -0.0332858 0)
(28.4457 -0.0328533 0)
(28.3989 -0.0324842 0)
(28.3518 -0.032153 0)
(28.3075 -0.0319753 0)
(28.2617 -0.0318695 0)
(28.2208 -0.0321642 0)
(28.1729 -0.0326442 0)
(28.1403 -0.0339062 0)
(28.076 -0.0366343 0)
(40.2419 -0.0161657 0)
(40.2904 -0.0671902 0)
(40.2717 -0.206836 0)
(40.0832 -0.423795 0)
(39.6529 -0.656253 0)
(38.9885 -0.849182 0)
(38.1576 -0.975767 0)
(37.2546 -1.02808 0)
(36.3416 -1.01494 0)
(35.4987 -0.955225 0)
(34.7489 -0.866003 0)
(34.0973 -0.762769 0)
(33.5537 -0.662212 0)
(33.1132 -0.573282 0)
(32.7441 -0.493261 0)
(32.4322 -0.421817 0)
(32.1873 -0.364717 0)
(31.9968 -0.321077 0)
(31.8277 -0.282835 0)
(31.6747 -0.247761 0)
(31.554 -0.220422 0)
(31.4622 -0.201223 0)
(31.3781 -0.185024 0)
(31.2938 -0.168567 0)
(31.2194 -0.153693 0)
(31.1608 -0.142731 0)
(31.1116 -0.13483 0)
(31.0636 -0.127478 0)
(31.0132 -0.11929 0)
(30.9661 -0.111547 0)
(30.9261 -0.105638 0)
(30.891 -0.101243 0)
(30.8569 -0.0971493 0)
(30.8214 -0.0926727 0)
(30.7845 -0.0880616 0)
(30.7498 -0.0841519 0)
(30.7175 -0.0810929 0)
(30.6861 -0.0783414 0)
(30.6545 -0.0754225 0)
(30.6218 -0.0723791 0)
(30.5879 -0.0695029 0)
(30.554 -0.0670272 0)
(30.5202 -0.0648169 0)
(30.4864 -0.0626181 0)
(30.4523 -0.0604527 0)
(30.4175 -0.0584688 0)
(30.3815 -0.0566318 0)
(30.3445 -0.0548103 0)
(30.3068 -0.0529547 0)
(30.2688 -0.0511411 0)
(30.2307 -0.0494291 0)
(30.1921 -0.047802 0)
(30.1528 -0.0461872 0)
(30.1127 -0.0445265 0)
(30.0716 -0.042771 0)
(30.0299 -0.0409888 0)
(29.9878 -0.039295 0)
(29.9451 -0.0377125 0)
(29.9016 -0.0361744 0)
(29.857 -0.0346366 0)
(29.8112 -0.0331142 0)
(29.7642 -0.0316575 0)
(29.7159 -0.0303082 0)
(29.6664 -0.0290556 0)
(29.6157 -0.0278762 0)
(29.5637 -0.0267664 0)
(29.5103 -0.0257373 0)
(29.4555 -0.0247999 0)
(29.3995 -0.0239351 0)
(29.3425 -0.0231552 0)
(29.2846 -0.0224528 0)
(29.226 -0.0218199 0)
(29.1668 -0.0212517 0)
(29.107 -0.0207435 0)
(29.047 -0.0202965 0)
(28.9867 -0.0198933 0)
(28.9267 -0.0195315 0)
(28.8665 -0.0191981 0)
(28.8071 -0.0189064 0)
(28.7476 -0.0186475 0)
(28.6893 -0.0184171 0)
(28.6309 -0.0182052 0)
(28.5741 -0.0180191 0)
(28.5173 -0.0178575 0)
(28.4623 -0.0177209 0)
(28.4074 -0.017607 0)
(28.3544 -0.0175133 0)
(28.3016 -0.0174357 0)
(28.2508 -0.0173733 0)
(28.2001 -0.0173258 0)
(28.1515 -0.0172977 0)
(28.1029 -0.0172857 0)
(28.0564 -0.0173069 0)
(28.0097 -0.0173684 0)
(27.9654 -0.0175025 0)
(27.9196 -0.0177722 0)
(27.8784 -0.0181369 0)
(27.8297 -0.0191001 0)
(27.7968 -0.0196141 0)
(27.7301 -0.0241584 0)
(40.2386 -0.030009 0)
(40.2709 -0.0704533 0)
(40.2318 -0.171527 0)
(40.0309 -0.327113 0)
(39.6008 -0.494847 0)
(38.9443 -0.634491 0)
(38.1223 -0.726422 0)
(37.2222 -0.76497 0)
(36.3086 -0.757707 0)
(35.4537 -0.717827 0)
(34.679 -0.655529 0)
(34.0087 -0.584455 0)
(33.4458 -0.515234 0)
(32.9664 -0.449998 0)
(32.5579 -0.389818 0)
(32.2255 -0.339 0)
(31.9522 -0.298108 0)
(31.7121 -0.263422 0)
(31.4985 -0.232495 0)
(31.3196 -0.206784 0)
(31.1673 -0.187006 0)
(31.0261 -0.17128 0)
(30.8917 -0.156909 0)
(30.77 -0.143629 0)
(30.6621 -0.13265 0)
(30.5612 -0.124133 0)
(30.4618 -0.11684 0)
(30.3644 -0.109448 0)
(30.2725 -0.102117 0)
(30.1859 -0.0958347 0)
(30.1019 -0.0908713 0)
(30.018 -0.0865708 0)
(29.9345 -0.0821343 0)
(29.853 -0.0774407 0)
(29.7739 -0.0731495 0)
(29.6963 -0.0696764 0)
(29.6191 -0.0667278 0)
(29.542 -0.063795 0)
(29.4656 -0.0606492 0)
(29.3906 -0.0575028 0)
(29.317 -0.0547493 0)
(29.2441 -0.0524768 0)
(29.1717 -0.0503827 0)
(29.1002 -0.0481951 0)
(29.0298 -0.0459483 0)
(28.9606 -0.0438288 0)
(28.8923 -0.0418913 0)
(28.8251 -0.0400849 0)
(28.7591 -0.0383426 0)
(28.6945 -0.0366532 0)
(28.631 -0.03502 0)
(28.569 -0.0334491 0)
(28.5081 -0.0319283 0)
(28.4488 -0.0304652 0)
(28.3908 -0.0290459 0)
(28.3346 -0.0277022 0)
(28.2797 -0.0264495 0)
(28.2267 -0.0252645 0)
(28.1748 -0.0240755 0)
(28.1249 -0.0228724 0)
(28.0762 -0.0216751 0)
(28.0296 -0.0205379 0)
(27.9842 -0.0194657 0)
(27.9406 -0.0184366 0)
(27.8982 -0.0174073 0)
(27.8574 -0.016387 0)
(27.8177 -0.0153903 0)
(27.7796 -0.0144494 0)
(27.7423 -0.0135539 0)
(27.7063 -0.0127149 0)
(27.671 -0.0119413 0)
(27.6368 -0.0112164 0)
(27.6032 -0.0105276 0)
(27.5703 -0.00989022 0)
(27.5379 -0.00931497 0)
(27.5061 -0.00880938 0)
(27.4747 -0.00836049 0)
(27.4436 -0.00797254 0)
(27.4129 -0.00763964 0)
(27.3824 -0.0073657 0)
(27.3522 -0.00714429 0)
(27.322 -0.00696772 0)
(27.2921 -0.00683331 0)
(27.2621 -0.00673992 0)
(27.2323 -0.00668569 0)
(27.2025 -0.00666941 0)
(27.1727 -0.00668529 0)
(27.1429 -0.00673082 0)
(27.1132 -0.00679904 0)
(27.0834 -0.00689266 0)
(27.0537 -0.00700724 0)
(27.024 -0.00714451 0)
(26.9945 -0.00730773 0)
(26.9647 -0.00751279 0)
(26.9355 -0.00772809 0)
(26.9049 -0.00811302 0)
(26.8769 -0.00835625 0)
(26.8424 -0.00948501 0)
(26.8199 -0.00918243 0)
(26.7695 -0.0145939 0)
(40.2229 -0.0441214 0)
(40.2345 -0.0683461 0)
(40.1702 -0.129278 0)
(39.943 -0.223499 0)
(39.4859 -0.326544 0)
(38.7965 -0.413772 0)
(37.9306 -0.472605 0)
(36.972 -0.498727 0)
(35.9906 -0.496255 0)
(35.0445 -0.472109 0)
(34.1794 -0.433503 0)
(33.407 -0.3889 0)
(32.7248 -0.343724 0)
(32.1321 -0.300846 0)
(31.6239 -0.262676 0)
(31.1866 -0.2304 0)
(30.801 -0.202936 0)
(30.4599 -0.179196 0)
(30.1579 -0.159009 0)
(29.8901 -0.142479 0)
(29.6448 -0.128418 0)
(29.4177 -0.116308 0)
(29.2087 -0.10593 0)
(29.0168 -0.0971085 0)
(28.8387 -0.0894798 0)
(28.6701 -0.0826099 0)
(28.5098 -0.0763651 0)
(28.3578 -0.0706906 0)
(28.2145 -0.0654915 0)
(28.0785 -0.0607113 0)
(27.9481 -0.0563316 0)
(27.8226 -0.0522836 0)
(27.7021 -0.0484736 0)
(27.587 -0.0448615 0)
(27.477 -0.0415362 0)
(27.3715 -0.0385314 0)
(27.2696 -0.0357374 0)
(27.1715 -0.0330745 0)
(27.0771 -0.0305183 0)
(26.987 -0.0281214 0)
(26.9005 -0.0259488 0)
(26.8173 -0.0239916 0)
(26.7369 -0.0221502 0)
(26.6597 -0.0203593 0)
(26.5855 -0.0186521 0)
(26.5145 -0.0171095 0)
(26.4461 -0.0157224 0)
(26.3805 -0.0144324 0)
(26.3172 -0.013192 0)
(26.2567 -0.0120189 0)
(26.1983 -0.0109378 0)
(26.1426 -0.00995731 0)
(26.0889 -0.00905252 0)
(26.0376 -0.00820373 0)
(25.9883 -0.00738527 0)
(25.9414 -0.0066035 0)
(25.8963 -0.00587612 0)
(25.8535 -0.00520818 0)
(25.8123 -0.00457403 0)
(25.7734 -0.00396015 0)
(25.7361 -0.00336662 0)
(25.701 -0.00281434 0)
(25.6675 -0.00230578 0)
(25.6359 -0.00183134 0)
(25.6058 -0.00137345 0)
(25.5776 -0.000936885 0)
(25.5507 -0.000528081 0)
(25.5255 -0.000153803 0)
(25.5016 0.000193857 0)
(25.4792 0.00051898 0)
(25.4577 0.000834519 0)
(25.4376 0.00107271 0)
(25.4184 0.00127648 0)
(25.4002 0.00145938 0)
(25.3827 0.0016304 0)
(25.3662 0.00177617 0)
(25.35 0.0019135 0)
(25.3347 0.00203168 0)
(25.3196 0.00213815 0)
(25.3052 0.00222689 0)
(25.291 0.00229899 0)
(25.2772 0.00234931 0)
(25.2636 0.00239468 0)
(25.2503 0.00243894 0)
(25.2371 0.00247641 0)
(25.224 0.00250537 0)
(25.211 0.00252492 0)
(25.1981 0.00253764 0)
(25.185 0.00253945 0)
(25.172 0.00253294 0)
(25.1588 0.00251219 0)
(25.1455 0.00247918 0)
(25.1321 0.00242646 0)
(25.1184 0.00231789 0)
(25.1048 0.00222397 0)
(25.0899 0.00194268 0)
(25.0767 0.00194554 0)
(25.0582 0.000987206 0)
(25.0479 0.00151908 0)
(25.0178 -0.00294836 0)
(39.1402 -0.0539801 0)
(38.9464 -0.0675466 0)
(38.6586 -0.0934487 0)
(38.1914 -0.131021 0)
(37.4774 -0.172079 0)
(36.5128 -0.207808 0)
(35.3544 -0.233304 0)
(34.0901 -0.246427 0)
(32.7977 -0.247936 0)
(31.5413 -0.240101 0)
(30.3741 -0.22555 0)
(29.3094 -0.206763 0)
(28.3623 -0.186256 0)
(27.5264 -0.166092 0)
(26.7958 -0.14746 0)
(26.1538 -0.130285 0)
(25.5935 -0.114517 0)
(25.0995 -0.100409 0)
(24.6664 -0.0884008 0)
(24.2806 -0.0778728 0)
(23.9403 -0.0684117 0)
(23.635 -0.0605271 0)
(23.3589 -0.0543254 0)
(23.1079 -0.0492183 0)
(22.8789 -0.0444674 0)
(22.6707 -0.0400912 0)
(22.4799 -0.0364746 0)
(22.3045 -0.0335256 0)
(22.1428 -0.0307544 0)
(21.9949 -0.0280182 0)
(21.8593 -0.0255745 0)
(21.7346 -0.0235951 0)
(21.6193 -0.0219142 0)
(21.5132 -0.0202816 0)
(21.4159 -0.0186878 0)
(21.3266 -0.0172883 0)
(21.2442 -0.0161499 0)
(21.1682 -0.0151906 0)
(21.098 -0.0142675 0)
(21.0337 -0.0133427 0)
(20.9747 -0.0124931 0)
(20.9207 -0.0117966 0)
(20.8706 -0.0112205 0)
(20.8246 -0.0106807 0)
(20.7822 -0.0101391 0)
(20.7436 -0.00962984 0)
(20.7081 -0.0091767 0)
(20.6756 -0.00877671 0)
(20.6456 -0.00840867 0)
(20.6185 -0.00806394 0)
(20.5934 -0.00773471 0)
(20.5709 -0.00742104 0)
(20.55 -0.00711727 0)
(20.5313 -0.00683178 0)
(20.5141 -0.00656309 0)
(20.4989 -0.00631861 0)
(20.4849 -0.006099 0)
(20.4726 -0.0059043 0)
(20.4613 -0.00571469 0)
(20.4515 -0.00552772 0)
(20.4426 -0.00534195 0)
(20.4352 -0.00517537 0)
(20.4285 -0.00502086 0)
(20.4231 -0.00487699 0)
(20.4182 -0.00471773 0)
(20.4146 -0.00455305 0)
(20.4115 -0.00436482 0)
(20.4095 -0.00418136 0)
(20.4081 -0.00396324 0)
(20.4076 -0.00370505 0)
(20.4077 -0.00353094 0)
(20.4085 -0.0033536 0)
(20.4099 -0.00319752 0)
(20.4119 -0.00304898 0)
(20.4145 -0.00290638 0)
(20.4177 -0.00277463 0)
(20.4213 -0.00264925 0)
(20.4253 -0.00253968 0)
(20.4297 -0.00243977 0)
(20.4344 -0.0023555 0)
(20.4394 -0.00228919 0)
(20.4446 -0.00226289 0)
(20.45 -0.00225409 0)
(20.4555 -0.00225513 0)
(20.4611 -0.00226362 0)
(20.4668 -0.00227861 0)
(20.4724 -0.00229675 0)
(20.4781 -0.00231533 0)
(20.4837 -0.00233707 0)
(20.4892 -0.00235707 0)
(20.4947 -0.0023824 0)
(20.4999 -0.00240522 0)
(20.5052 -0.00243522 0)
(20.5097 -0.00249607 0)
(20.5146 -0.00253984 0)
(20.518 -0.00268045 0)
(20.5227 -0.00262422 0)
(20.524 -0.0032231 0)
(20.5277 -0.00208131 0)
(20.5227 -0.00798316 0)
(1.95437 0.421237 0)
(1.64907 2.05102 0)
(0.910905 2.40128 0)
(0.110915 2.5677 0)
(-0.665574 2.43237 0)
(-1.46651 1.98152 0)
(-2.15367 1.28401 0)
(-2.51272 0.770952 0)
(10.5778 0.318085 0)
(4.36564 1.81698 0)
(1.74411 2.17482 0)
(-0.155018 2.21102 0)
(-2.00006 2.04563 0)
(-3.87731 1.69172 0)
(-5.71493 1.11972 0)
(-6.92409 0.530807 0)
(16.8868 -0.371863 0)
(7.91511 0.751521 0)
(2.86677 1.2142 0)
(-0.390799 1.32792 0)
(-2.9925 1.24932 0)
(-5.40338 1.0588 0)
(-7.85091 0.75371 0)
(-9.97521 0.288393 0)
(20.5479 -1.17077 0)
(11.239 -0.438566 0)
(4.58036 0.0734943 0)
(0.166285 0.312112 0)
(-3.14767 0.393391 0)
(-6.02669 0.379206 0)
(-8.77042 0.303337 0)
(-11.4791 0.076039 0)
(22.4346 -1.81034 0)
(13.5547 -1.3272 0)
(6.44275 -0.873375 0)
(1.28495 -0.548979 0)
(-2.61863 -0.328239 0)
(-5.86405 -0.179403 0)
(-8.80814 -0.0646643 0)
(-11.7951 -0.0515926 0)
(23.6384 -2.31559 0)
(15.4317 -1.97617 0)
(8.2598 -1.5757 0)
(2.74331 -1.21557 0)
(-1.47202 -0.904732 0)
(-4.91751 -0.630904 0)
(-7.98474 -0.380782 0)
(-11.1055 -0.205937 0)
(24.3327 -2.60589 0)
(16.9012 -2.37073 0)
(10.0265 -2.03614 0)
(4.44227 -1.67066 0)
(0.115639 -1.30546 0)
(-3.37702 -0.946676 0)
(-6.43096 -0.597684 0)
(-9.51235 -0.307152 0)
(24.7683 -2.67806 0)
(17.9672 -2.50946 0)
(11.515 -2.23411 0)
(6.15517 -1.89317 0)
(1.91898 -1.51313 0)
(-1.51045 -1.1124 0)
(-4.49001 -0.712719 0)
(-7.5282 -0.35846 0)
(25.0648 -2.58819 0)
(18.8343 -2.46108 0)
(12.8346 -2.23096 0)
(7.79378 -1.9192 0)
(3.76298 -1.55079 0)
(0.479195 -1.14699 0)
(-2.37453 -0.740354 0)
(-5.32866 -0.369194 0)
(25.251 -2.38113 0)
(19.5303 -2.28708 0)
(13.9917 -2.09714 0)
(9.31687 -1.82115 0)
(5.53752 -1.48034 0)
(2.42573 -1.09677 0)
(-0.297042 -0.708777 0)
(-3.17827 -0.353605 0)
(25.3299 -2.11362 0)
(20.0606 -2.05156 0)
(14.9675 -1.89728 0)
(10.6752 -1.65925 0)
(7.16895 -1.35414 0)
(4.24221 -1.00509 0)
(1.65837 -0.650534 0)
(-1.14574 -0.325743 0)
(25.313 -1.83584 0)
(20.4568 -1.79952 0)
(15.8046 -1.67549 0)
(11.8634 -1.47258 0)
(8.60663 -1.20377 0)
(5.86494 -0.895531 0)
(3.41671 -0.580617 0)
(0.697098 -0.291794 0)
(25.2221 -1.57411 0)
(20.7381 -1.55804 0)
(16.5025 -1.45916 0)
(12.8902 -1.28638 0)
(9.86489 -1.05229 0)
(7.29322 -0.782742 0)
(4.96317 -0.504867 0)
(2.30931 -0.250348 0)
(25.0832 -1.34395 0)
(20.9387 -1.34077 0)
(17.0854 -1.26221 0)
(13.7724 -1.11566 0)
(10.9566 -0.913088 0)
(8.53854 -0.6791 0)
(6.31445 -0.43583 0)
(3.71813 -0.214183 0)
(24.9167 -1.15033 0)
(21.0776 -1.15469 0)
(17.5715 -1.09138 0)
(14.5306 -0.966692 0)
(11.9022 -0.792492 0)
(9.6195 -0.589947 0)
(7.48673 -0.377277 0)
(4.93538 -0.184454 0)
(24.744 -0.991705 0)
(21.1864 -0.997827 0)
(17.9782 -0.945981 0)
(15.1714 -0.839023 0)
(12.7159 -0.690223 0)
(10.5573 -0.515012 0)
(8.50735 -0.328087 0)
(5.99383 -0.161742 0)
(24.5812 -0.862198 0)
(21.2817 -0.86737 0)
(18.3241 -0.822814 0)
(15.7153 -0.730433 0)
(13.4165 -0.60275 0)
(11.3721 -0.450567 0)
(9.40054 -0.284312 0)
(6.91644 -0.145783 0)
(24.4336 -0.755388 0)
(21.3686 -0.759245 0)
(18.6248 -0.719334 0)
(16.1857 -0.638758 0)
(14.0241 -0.527927 0)
(12.0826 -0.394891 0)
(10.187 -0.246759 0)
(7.71843 -0.131213 0)
(24.3054 -0.668305 0)
(21.4503 -0.670469 0)
(18.8906 -0.63398 0)
(16.5981 -0.562675 0)
(14.5559 -0.465199 0)
(12.7054 -0.348019 0)
(10.8777 -0.216703 0)
(8.42379 -0.115876 0)
(24.1979 -0.598117 0)
(21.5295 -0.598643 0)
(19.13 -0.564636 0)
(16.9651 -0.500552 0)
(15.0271 -0.413614 0)
(13.2566 -0.309286 0)
(11.4885 -0.192421 0)
(9.04719 -0.10229 0)
(24.1086 -0.540071 0)
(21.6081 -0.539719 0)
(19.349 -0.507625 0)
(17.2966 -0.449647 0)
(15.4498 -0.371279 0)
(13.7494 -0.277383 0)
(12.0336 -0.172439 0)
(9.60276 -0.0908834 0)
(24.0339 -0.490004 0)
(21.6848 -0.489226 0)
(19.5469 -0.459249 0)
(17.597 -0.406677 0)
(15.8321 -0.335646 0)
(14.1942 -0.250544 0)
(12.5245 -0.155581 0)
(10.1019 -0.0813477 0)
(23.9713 -0.447031 0)
(21.758 -0.445556 0)
(19.7278 -0.417634 0)
(17.8703 -0.36963 0)
(16.1793 -0.304904 0)
(14.5977 -0.227405 0)
(12.969 -0.14101 0)
(10.553 -0.0732865 0)
(23.9204 -0.411102 0)
(21.8289 -0.408558 0)
(19.8956 -0.382445 0)
(18.1212 -0.3382 0)
(16.4969 -0.278788 0)
(14.966 -0.207757 0)
(13.374 -0.128632 0)
(10.9629 -0.0665391 0)
(23.8799 -0.381067 0)
(21.8973 -0.377626 0)
(20.0517 -0.352852 0)
(18.3527 -0.311672 0)
(16.7892 -0.256731 0)
(15.3046 -0.19118 0)
(13.7457 -0.118196 0)
(11.3382 -0.0608773 0)
(23.8485 -0.354726 0)
(21.9656 -0.350136 0)
(20.1995 -0.326943 0)
(18.5686 -0.288502 0)