/*--------------------------------*- C++ -*----------------------------------*\
| =========                 |                                                 |
| \\      /  F ield         | OpenFOAM: The Open Source CFD Toolbox           |
|  \\    /   O peration     | Version:  v2012                                 |
|   \\  /    A nd           | Website:  www.openfoam.com                      |
|    \\/     M anipulation  |                                                 |
\*---------------------------------------------------------------------------*/
FoamFile
{
    version     2.0;
    format      ascii;
    class       volScalarField;
    location    "0.065";
    object      omega.air;
}
// * * * * * * * * * * * * * * * * * * * * * * * * * * * * * * * * * * * * * //

dimensions      [0 0 -1 0 0 0 0];


internalField   nonuniform List<scalar> 
5600
(
6778.41
9486.9
11874.9
13293.6
13892.2
13969.1
13768.1
13435.4
13074.9
12743.8
12449.7
12202.6
12010
11871.1
11781.4
11730.9
11710.4
11708.7
11718.7
11731.9
11746.9
11758.1
11768.9
11774.7
11782.2
11785.1
11792.5
11794
11802.2
11802.1
11811.6
11808.8
11818.6
11812.3
11822
11812
11821.6
11810
11818
11808.3
11811.5
11807.3
11803.6
11806.3
11796.5
11803.8
11793.3
11797.6
11795.8
11787.9
11801.8
11778.1
11806.4
11773.4
11804.5
11777.3
11794.1
11788.8
11779.9
11801.7
11770.6
11807.2
11774.4
11799.1
11793.1
11778
11818.9
11755.6
11834.8
11749.5
11824.3
11771.4
11785.5
11814.3
11738.9
11849.4
11718.5
11846.1
11743
11801.8
11796
11750.5
11831.1
11742.6
11807.7
11794
11737.3
11867.3
11677.4
11900.9
11674
11870.4
11722.2
11810.9
11746.9
11862.2
11517.8
12331.1
10487.8
13720
2507.26
2659.94
3498.77
4407.33
5079.33
5502.82
5763.62
5918.72
5999.21
5999.99
6089.14
6224.15
6350.3
6440.17
6482.18
6479.07
6436.83
6365.75
6274.51
6172.21
6065.9
5960.57
5862.82
5770.22
5686.33
5603.49
5529.58
5457.08
5394.7
5334.67
5283.36
5233.58
5191.83
5150.62
5116.93
5083.5
5056.16
5029.39
5006.93
4985.52
4966.3
4949.67
4932.81
4919.19
4905.61
4893.74
4882.42
4871.23
4862.19
4851.41
4844.36
4833.74
4829
4818.69
4815.18
4806.94
4802.14
4796.65
4790.38
4787.47
4780.32
4779.77
4772.96
4772
4768.1
4765.63
4764.69
4758.81
4763.12
4753.45
4759.52
4751.31
4754.04
4750.75
4747.83
4752.78
4741.4
4753.74
4740.85
4749.18
4743.8
4744.94
4747.48
4741.73
4747.22
4745.92
4741.59
4753.51
4732.4
4764.11
4725.3
4769.31
4720.69
4777.46
4699.41
4826.81
4602.38
5006.12
4267.49
5598.33
2557.46
2210.56
2001.28
1889.45
1866.19
1937.68
2043.16
2169.56
2321.21
2455.42
2600.19
2763.64
2937.12
3108.98
3265.89
3400.59
3506.31
3583.1
3628.74
3647.05
3636.13
3600.81
3539.67
3465.67
3386.39
3319.41
3262.71
3213.23
3168.64
3125.99
3089.88
3054.37
3025.42
2993.44
2966.74
2938.26
2915.23
2890.24
2869.95
2848.87
2829.9
2812.91
2795.53
2781.54
2765.95
2754.61
2741.5
2730.72
2721.17
2709.61
2704.01
2690.88
2688.81
2675.11
2674.24
2663.16
2659.83
2653.79
2646.24
2645.95
2634.98
2637.62
2627.6
2628.11
2623.91
2617.9
2622.98
2608.13
2621.61
2602.87
2615.7
2603.69
2605.51
2609.72
2594
2614.87
2588.01
2612.85
2592.19
2602.92
2601.97
2592.75
2607.51
2592.82
2600.35
2605.72
2584.24
2622.54
2570.15
2631.44
2567.5
2628.39
2574.79
2623.51
2567.35
2657.84
2497.12
2763.78
2365.61
2884.37
2552.87
2194.97
1927.1
1721.35
1562.33
1440.79
1350.74
1281.51
1234.65
1202.83
1188.56
1197.5
1227.41
1278.64
1349.56
1438.58
1540.45
1651.74
1763.04
1876.18
1976.72
2071.21
2141.76
2203.5
2239.49
2273.73
2285.47
2299.72
2289.69
2284.41
2254.2
2234
2196.89
2175.26
2147.66
2127.58
2105.72
2085.9
2067.66
2048.8
2032.67
2016.52
2002.1
1988.3
1973.16
1960.74
1946.58
1934.69
1923.05
1910.53
1902.78
1888.46
1884.21
1869.57
1866.13
1854.22
1849.02
1841.85
1833.03
1831.25
1819.56
1819.9
1809.61
1807.14
1803.06
1793.55
1798.88
1781.58
1793.75
1775.46
1784.92
1775.8
1773.01
1781.39
1761.88
1784.82
1758.58
1780.08
1764.58
1769.38
1774.02
1760.86
1776.47
1764.66
1766.16
1779.07
1750.38
1793.49
1741.9
1795.45
1747.53
1784.45
1762.08
1773.35
1764.43
1788.53
1732.89
1826.1
1716.66
1794.34
2551.17
2191.53
1920.41
1709.11
1540.36
1402.73
1289.08
1193.93
1113.44
1045.29
986.675
937.699
895.85
862.547
834.814
816.696
802.997
802.092
808.829
830.411
856.571
903.14
946.981
1017.26
1071.64
1160.06
1215.22
1312.7
1358.5
1450.17
1476.52
1547.14
1555.37
1602.41
1603.3
1629.26
1627.16
1633.72
1631.76
1621.62
1619.76
1599.54
1594.42
1576.53
1566.5
1556.92
1541.63
1537.62
1520.47
1516.06
1503.63
1493.84
1488.31
1474.65
1472.01
1459.62
1456.01
1446.92
1439.27
1435.43
1424.08
1422.91
1411.94
1407.97
1403.16
1391.39
1396.18
1377.54
1387.54
1370.41
1375.91
1370.49
1362.7
1374.8
1352.88
1375.51
1352.43
1368.37
1360.32
1357.53
1368.48
1352.32
1366.66
1360.23
1353.94
1374.82
1341.12
1383.14
1340.7
1376.62
1354.56
1360.93
1370.65
1352.21
1370.17
1367.53
1347.47
1388.25
1351.15
1352.67
2550.74
2190.46
1918.75
1706.85
1537.28
1398.54
1283.1
1185.52
1102.1
1029.88
966.984
911.481
862.641
818.845
780.183
745.052
714.293
685.994
662.033
640.059
622.095
606.836
594.431
587.785
580.714
587.088
586.669
611.675
616.963
665.561
676.123
745.999
762.071
841.154
867.258
937.126
979.705
1022.69
1081.36
1094.63
1157.13
1154.55
1199.06
1203.22
1216.22
1238.89
1221.81
1257.89
1225.19
1258.51
1229.94
1244.25
1233.65
1223.12
1230.08
1205.25
1216.97
1195.56
1200.16
1190.91
1183.02
1185.5
1169.95
1174.17
1163.83
1157.37
1160.18
1143.02
1152.64
1136.93
1140.57
1138.07
1128.04
1142.02
1120.2
1141.55
1122.59
1132.3
1132.6
1121.66
1138.95
1120.66
1132.92
1133.08
1117.68
1147.42
1108.8
1148.73
1116.8
1134.19
1135.21
1118.42
1145.98
1118.78
1134.64
1142.47
1109.41
1159.21
1119.02
1118.95
2550.6
2190.08
1918.17
1706.11
1536.37
1397.46
1281.84
1184.01
1100.32
1027.72
964.436
908.36
858.941
814.19
774.764
737.923
706.243
674.765
649.721
621.404
602.889
575.45
564.284
535.192
533.026
499.644
508.525
468.904
489.975
444.345
476.574
428.655
468.661
425.504
468.878
439.185
482.406
469.51
513.361
516.063
559.915
579.881
613.154
658.963
667.8
741.669
730.112
808.286
800.394
862.146
858.359
895.239
916.885
911.56
972.641
934.837
984.54
951.679
981.408
979.315
974.3
1000.77
969.457
1005.13
974.904
991.851
985.348
972.927
989.597
962.39
982.058
967.449
968.291
977.446
958.241
978.91
959.884
969.704
971.308
957.769
980.128
958.083
969.925
974.15
950.691
990.399
941.378
986.459
955.683
964.546
976.448
947.57
982.319
954.138
961.912
983.231
933.901
994.659
953.472
942.307
2550.55
2189.92
1917.93
1705.81
1535.99
1397.05
1281.35
1183.5
1099.73
1027.12
963.718
907.655
858.071
813.356
773.69
736.927
704.867
673.548
647.894
619.838
600.352
573.279
560.673
531.916
527.827
494.265
500.96
459.5
478.901
427.872
459.528
401.226
439.347
383.094
414.186
377.052
382.291
382.268
348.672
389.893
326.424
385.957
331.048
363.925
364.149
337.199
406.777
328.304
439.71
350.097
460.694
403.954
474.793
471.656
498.782
536.692
536.552
591.222
580.884
636.883
630.501
671.071
685.834
691.874
736.626
712.709
775.681
738.758
784.439
777.155
773.277
816.465
759.804
834.222
767.112
817.132
800.801
783.43
833.527
763.577
836.442
780.193
803.395
818.991
767.79
841.26
761.937
826.726
786.742
798.566
809.317
783.05
812.478
790.844
793.028
815.396
770.984
820.143
790.506
781.9
2550.52
2189.85
1917.81
1705.67
1535.82
1396.86
1281.13
1183.27
1099.47
1026.86
963.403
907.388
857.692
813.117
773.198
736.782
704.145
673.645
646.732
620.45
598.367
574.863
557.26
535.16
522.122
500.06
491.927
468.738
465.653
440.937
442
417.079
419.264
398.099
395.708
384.583
370.835
375.131
347.273
364.91
331.245
346.723
329.164
316.126
340.786
279.047
353.583
253.492
349.324
252.348
323.928
280.505
276.715
331.019
219.074
361.14
208.375
364.137
253.759
314.625
337.039
251.24
419.559
222.758
456.675
266.758
432.536
382.257
379.953
510.409
338.016
589.693
350.46
578.515
438.135
502.924
542.139
438.234
589.911
435.227
563.067
488.725
504.327
538.63
476.054
543.26
489.422
523.574
506.18
515.207
509.352
517.265
506.223
522.59
504.144
520.314
515.562
506.881
526.806
506.949
2550.51
2189.81
1917.75
1705.6
1535.73
1396.77
1281.03
1183.16
1099.35
1026.75
963.267
907.268
857.528
813.008
772.988
736.72
703.844
673.691
646.249
620.722
597.551
575.556
555.868
536.555
519.824
502.506
488.369
472.518
460.651
445.982
435.906
422.533
413.426
401.957
392.636
383.975
373.331
367.933
355.912
352.68
341.258
336.968
329.938
320.433
321.185
304.521
312.596
292.001
301.39
284.692
286.482
282.343
268.828
282.623
252.53
279.583
244.903
267.878
250.177
244.093
264.982
217.511
275.76
206.294
268.554
220.342
240.15
252.421
205.794
283.979
187.956
293.06
201.599
271.356
238.905
234.581
271.769
212.689
276.179
218.381
255.659
237.328
232.096
248.06
223.976
243.234
228.665
233.582
235.171
224.626
242.109
219.53
239.164
231.023
222.652
247.3
213.037
252.751
213.006
242.752
2550.51
2189.81
1917.76
1705.61
1535.74
1396.78
1281.04
1183.17
1099.35
1026.76
963.274
907.282
857.533
813.024
772.984
736.747
703.826
673.742
646.199
620.816
597.442
575.729
555.656
536.854
519.455
502.989
487.794
473.216
459.867
446.841
435.037
423.339
412.783
402.305
392.688
383.4
374.446
366.295
357.873
350.643
342.891
336.118
329.437
322.497
317.357
309.769
306.29
298.22
295.599
288.443
284.467
281.048
272.5
275.757
260.875
270.339
252.729
261.434
251.081
247.696
255.135
232.745
259.152
223.734
256.967
226.075
247.863
239.054
236.991
256.784
229.394
272.607
227.557
280.203
233.687
274.635
249.352
255.573
271.367
230.726
288.83
215.914
287.227
224.956
261.14
255.396
222.987
286.788
198.647
291.269
212.264
256.7
259.557
204.288
302.817
178.458
296.094
214.172
238.63
275.19
2550.52
2189.86
1917.82
1705.69
1535.84
1396.88
1281.15
1183.3
1099.49
1026.9
963.421
907.435
857.69
813.187
773.15
736.923
704
673.931
646.379
621.019
597.627
575.948
555.846
537.097
519.646
503.259
487.989
473.511
460.092
447.139
435.347
423.587
413.277
402.434
393.488
383.388
375.603
366.312
359.242
351.189
344.096
337.994
330.166
326.378
318.115
315.479
309.211
304.337
304.417
293.378
302.883
285.666
301.75
285.987
298.905
296.62
296.429
315.191
300.294
335.959
315.814
354.392
344.396
371.312
384.916
391.677
432.232
420.144
476.021
456.899
506.051
498.51
518.321
538.68
518.145
568.171
517.956
578.699
528.266
568.589
550.075
546.224
573.301
527.035
584.349
524.351
575.41
542.449
549.399
571.343
522.423
588.697
516.642
580.642
535.474
555.903
564.934
525.37
590.746
512.107
2550.55
2189.94
1917.95
1705.85
1536.03
1397.1
1281.39
1183.56
1099.76
1027.19
963.726
907.756
858.028
813.541
773.521
737.31
704.405
674.356
646.831
621.493
598.142
576.484
556.449
537.728
520.375
504.045
488.921
474.537
461.382
448.53
437.271
425.577
416.306
405.47
398.448
388.279
383.733
374.563
372.304
365.397
364.622
362.394
362.139
367.173
367.381
380.644
383.116
402.536
411.025
432.126
450.801
468.47
499.425
510.672
551.851
558.511
602.052
610.836
644.834
663.076
679.868
709.916
711.819
747.393
744.09
773.656
774.307
789.12
798.211
796.14
814.551
800.364
823.144
805.266
825.11
812.584
821.251
822.188
814.001
831.407
808.093
835.584
808.801
830.796
818.501
817.98
833.027
804.741
841.87
802.816
835.197
817.777
814.289
840.42
795.39
849.371
800.543
830.401
828.856
802.873
2550.6
2190.12
1918.19
1706.18
1536.4
1397.55
1281.87
1184.12
1100.34
1027.86
964.42
908.548
858.867
814.491
774.549
738.48
705.711
675.855
648.561
623.517
600.566
579.373
560.014
542.075
525.829
510.946
497.651
485.813
475.701
467.239
461.051
456.85
455.988
458.051
464.209
474.252
488.933
507.836
531.278
558.208
589.249
621.433
657.687
691.82
730.539
763.562
799.606
830.675
859.486
888.901
907.901
934.54
945.003
965.079
972.167
982.312
990.843
991.837
1001.64
997.837
1005.33
1002.41
1003.86
1004.33
998.896
1001.94
992.306
995.156
986.563
986.024
983.64
978.17
982.746
972.834
982.641
970.891
980.947
972.914
976.64
977.932
971.128
982.765
967.724
983.396
969.897
977.947
977.645
969.002
985.66
963.386
986.606
967.363
977.481
979.829
964.882
989.056
961.862
984.778
971.975
972.3
2550.73
2190.51
1918.77
1706.95
1537.31
1398.67
1283.13
1185.71
1102.12
1030.16
967.023
911.914
862.765
819.501
780.495
746.115
714.968
687.836
663.559
642.999
625.264
611.316
600.759
594.421
593.029
597.822
608.718
627.111
652.938
686.711
726.837
773.251
822.699
876.255
929.071
983.212
1031.76
1079.45
1118.77
1155.28
1183.36
1206.83
1225.2
1238.95
1250.9
1256.89
1263.64
1264.29
1265.77
1263.73
1259.81
1256.86
1248.49
1244.83
1235.21
1230.1
1223.1
1216.16
1212.11
1203.96
1201.04
1193.61
1189.16
1183.87
1176.79
1174
1165.61
1164.08
1157.37
1155.76
1151.83
1148.8
1148.88
1143.44
1147.25
1140.5
1145.5
1140.34
1142.76
1142.25
1139.48
1144.57
1137.13
1145.2
1137.5
1142.69
1140.93
1138.13
1145.14
1134.64
1146.74
1135.43
1143.18
1140.93
1136.75
1146.57
1133.13
1147.32
1135.6
1142.53
2551.15
2191.6
1920.45
1709.22
1540.47
1402.91
1289.43
1194.39
1114.21
1046.42
988.226
940.108
899.131
867.013
841.274
824.671
814.906
817.696
829.827
854.81
889.866
937.741
994.446
1060.95
1132.73
1209.52
1286.9
1363.04
1432.98
1493.84
1543.25
1581.72
1610.87
1633.24
1648
1657.47
1660.69
1660.15
1654.34
1646.03
1634.18
1621.14
1608.07
1596.07
1584.45
1573.1
1562.35
1551.36
1541
1530.91
1520.86
1511.79
1502.56
1494.54
1486.32
1478.4
1470.97
1462.67
1456.45
1448.24
1442.59
1434.94
1428.93
1422.61
1415.67
1411.14
1403.81
1400.65
1394.33
1391.97
1387.63
1385.11
1383.69
1379.95
1381.37
1376.84
1379.59
1375.8
1377.56
1376.53
1375.21
1377.79
1373.46
1378.32
1373.26
1377.2
1375.02
1374.64
1377.68
1372.22
1379.33
1371.83
1378.26
1374.35
1374.74
1378.14
1371.36
1380.65
1370.55
1380.1
2552.75
2195.2
1927.03
1721.93
1562.93
1442.82
1354.14
1286.18
1243.19
1212.71
1204.52
1219.71
1257.01
1316.16
1395.75
1492.12
1601.16
1716
1832.88
1944.5
2047.16
2134.14
2203.64
2254.91
2291.57
2315.79
2329.69
2331.76
2323.36
2304.37
2278.01
2247.09
2218.73
2193.56
2170.21
2148.22
2127.33
2107.26
2088.19
2070.17
2053.51
2038.12
2023.12
2008.07
1993.45
1979.81
1966.34
1954.19
1942.03
1931.18
1920.19
1910.32
1900.75
1891.7
1883.39
1875.22
1868.34
1860.59
1854.98
1847.74
1842.71
1836.24
1831.28
1826.08
1820.82
1817.24
1811.8
1809.54
1804.58
1802.94
1799.21
1797.47
1795.73
1793.03
1793.6
1790.11
1791.99
1788.84
1790.4
1789.08
1788.55
1789.98
1787.12
1790.56
1786.78
1790.17
1787.82
1788.64
1789.79
1786.82
1791.43
1786.02
1791.47
1787.07
1789.54
1789.68
1786.76
1792.51
1784.87
1794.16
2557.01
2211.44
2002.16
1894.74
1874.93
1959.28
2066.35
2207.61
2362.47
2500.77
2658.01
2832.57
3015.24
3190.69
3348.75
3479.29
3580.99
3649.63
3688.5
3695.93
3676.17
3627.66
3558.86
3478.21
3403.16
3341.14
3288.13
3239.7
3195.07
3154.25
3117.43
3084.2
3052.21
3021.48
2992.9
2965.98
2941.16
2917.6
2896.06
2875.39
2856.77
2838.95
2823.04
2807.62
2793.76
2781.07
2768.98
2758.39
2747.74
2738.6
2729.18
2721.15
2713.06
2705.69
2699.03
2692.29
2686.86
2680.47
2676.16
2670.12
2666.49
2661.35
2657.89
2654.17
2650.68
2648.49
2644.79
2643.76
2640.02
2639.36
2636.27
2635.13
2633.46
2631.42
2631.66
2628.66
2630.3
2627.39
2628.95
2627.44
2627.4
2628.26
2626.16
2628.97
2625.82
2628.96
2626.58
2628.03
2628.22
2626.58
2629.78
2625.63
2630.25
2626
2629.25
2627.88
2627.08
2630.39
2625.23
2633.03
2508.72
2665.76
3510.94
4423.68
5100.15
5522.6
5790.81
5943.96
6009.4
6036.61
6165.13
6318.26
6450.73
6536.67
6572.3
6559.06
6508.39
6428.18
6330.58
6222.66
6112.37
6006
5906.48
5814.08
5726.7
5644.29
5567
5496.75
5432.59
5374.46
5321.64
5273.6
5230.32
5191.09
5155.95
5124.16
5096
5070.12
5047.51
5026.13
5007.65
4990.04
4974.71
4960.21
4947.17
4934.95
4923.25
4912.89
4902.44
4893.25
4884.13
4875.99
4868.2
4860.83
4854.53
4847.88
4842.39
4836.62
4831.76
4826.46
4822.35
4818.04
4814.39
4811.29
4808.32
4805.97
4803.5
4801.6
4799.35
4797.62
4795.5
4793.57
4791.96
4790.42
4789.44
4787.9
4788.06
4786.49
4787.08
4785.95
4786.35
4786.12
4785.79
4786.73
4785.6
4787.06
4785.92
4787.16
4786.58
4786.88
4787.49
4786.29
4788.13
4786.14
4788.21
4786.57
4787.76
4787.69
4787.45
4790.36
6775.14
9487.13
11870.4
13278.5
13857.1
13919
13700.2
13353.9
12988.9
12654.3
12355.6
12108.7
11918.2
11784.8
11699.9
11655.6
11638.6
11640.7
11651.2
11666.1
11679.6
11691.4
11700.3
11707.3
11713.1
11718.4
11723.5
11728.3
11732.8
11737
11740.6
11743.6
11745.4
11746.2
11746.3
11745.2
11743.9
11741.6
11739.7
11736.6
11734.6
11731
11729
11725.5
11723.7
11721
11718.9
11717.4
11714.7
11714.6
11711.4
11712.2
11709.1
11709.6
11708.2
11706.6
11708.2
11703.9
11708.7
11702.8
11709.1
11704.3
11709.1
11708.2
11708.3
11712.3
11706.8
11714.3
11705.2
11712.7
11705.1
11708
11706.7
11702.1
11708.6
11698.2
11708.7
11698.4
11705.7
11702.4
11701
11707.6
11697.4
11710.6
11697.4
11709.6
11701.5
11704.8
11707.9
11699.2
11713
11696.7
11713.3
11699.7
11708
11707.2
11700
11714.5
11694.1
11714.6
10837.8
6866.55
4837.81
3870.31
3314.51
2966.87
2726.45
2514.71
2344.9
2205.31
2073.1
1969.2
1894.96
1795.62
1682.31
1657.53
1663.9
1512.82
1037.36
725.162
343.02
419.572
361.096
320.904
684.189
901.025
967.041
954.747
909.735
855.93
804.321
755.545
704.503
646.356
581.192
513.629
449.839
393.364
345.018
304.31
271.23
245.751
227.131
213.98
204.676
197.855
192.586
188.361
184.996
182.486
180.865
180.086
179.931
180.009
179.912
179.425
178.572
177.525
176.496
175.667
175.1
174.761
174.576
174.485
174.443
174.424
174.415
174.41
174.406
174.404
174.402
174.401
174.4
174.399
174.399
174.398
174.398
174.398
174.398
174.397
174.398
174.397
174.398
174.397
174.398
174.397
174.399
174.397
174.399
174.397
174.399
174.396
174.399
174.396
174.399
174.395
174.397
174.392
174.394
174.384
3076.56
5183.64
4760.83
4005.59
3421.91
3021.48
2757.38
2520.71
2336.89
2194.15
2052.76
1949.17
1879.59
1768.25
1650.8
1651.68
1639.76
1379.19
789.445
450.911
314.704
386.519
486.502
204.208
475.713
785.276
908.606
922.703
889.526
840.528
790.914
742.657
689.937
627.274
555.687
482.013
414.15
356.75
310.406
274.187
247.196
228.113
215.103
206.241
199.939
195.098
191.066
187.562
184.571
182.22
180.639
179.845
179.667
179.745
179.675
179.228
178.436
177.48
176.533
175.732
175.15
174.784
174.572
174.457
174.395
174.362
174.342
174.332
174.324
174.32
174.317
174.316
174.314
174.314
174.313
174.313
174.313
174.313
174.313
174.313
174.313
174.313
174.313
174.313
174.313
174.313
174.313
174.312
174.313
174.312
174.313
174.312
174.313
174.312
174.313
174.311
174.312
174.31
174.31
174.306
2253.54
2703.2
3568.57
3703.83
3354.63
2980.89
2736.36
2487.94
2302.73
2171.81
2022.87
1923.13
1860.21
1731.38
1618.63
1653.13
1578.42
1085.89
486.729
291.28
399.16
436.955
658.032
370.233
304.6
631.429
823.208
876.217
860.625
819.116
772.832
725.368
669.783
600.112
519.663
439.594
370.415
316.43
276.629
248.433
229.2
216.359
207.733
201.709
197.198
193.496
190.189
187.121
184.354
182.075
180.475
179.628
179.412
179.504
179.503
179.154
178.462
177.608
176.747
175.976
175.357
174.928
174.657
174.497
174.401
174.347
174.313
174.295
174.283
174.277
174.271
174.27
174.267
174.268
174.266
174.267
174.266
174.267
174.265
174.267
174.265
174.267
174.265
174.267
174.265
174.267
174.265
174.267
174.265
174.267
174.265
174.268
174.265
174.268
174.265
174.268
174.265
174.269
174.266
174.271
1797.14
1651.11
2016.01
2608.96
2790.76
2648.6
2533.25
2316.68
2177.5
2100.17
1960.25
1882.79
1829.8
1677.65
1591.18
1651.03
1362.65
629.267
231.621
305.189
547.943
587.261
786.79
661.587
300.252
471.241
705.757
807.861
818.216
788.1
747.194
700.557
639.188
558.272
468.513
386.921
323.692
279.429
249.942
230.759
218.228
209.774
203.775
199.276
195.683
192.58
189.69
186.901
184.283
182.036
180.378
179.432
179.133
179.225
179.336
179.176
178.67
177.949
177.159
176.398
175.736
175.234
174.888
174.667
174.527
174.444
174.39
174.36
174.338
174.329
174.32
174.318
174.313
174.314
174.311
174.313
174.31
174.313
174.31
174.313
174.309
174.313
174.309
174.313
174.309
174.313
174.309
174.313
174.309
174.314
174.308
174.314
174.308
174.315
174.308
174.316
174.31
174.319
174.314
174.328
1409.67
1311.72
1424.68
1496.72
1725.6
1859.03
1856.55
1764.58
1781.94
1844.84
1778.65
1786.35
1748.15
1574.86
1568.11
1518.66
788.719
216.062
225.332
442.408
711.228
799.934
893.291
940.95
526.255
376.097
571.552
712.576
755.36
742.031
709.379
661.698
588.259
494.477
403.096
331.397
282.635
251.745
232.6
220.499
212.357
206.406
201.761
197.988
194.822
192.023
189.383
186.794
184.3
182.079
180.349
179.262
178.823
178.86
179.066
179.133
178.883
178.341
177.626
176.873
176.187
175.633
175.219
174.934
174.74
174.617
174.535
174.487
174.454
174.437
174.423
174.418
174.412
174.412
174.408
174.41
174.406
174.41
174.406
174.41
174.406
174.41
174.405
174.41
174.405
174.41
174.405
174.411
174.405
174.411
174.404
174.411
174.404
174.412
174.405
174.414
174.406
174.418
174.413
174.431
1179.07
1073.74
1200.88
1120.42
1103.98
1261.78
1057.89
1064.25
1125.81
1105.12
1257.01
1448.67
1431.39
1343.51
1391.58
842.759
195.247
164.446
378.274
636.116
896.223
1019.46
1034.99
1113.2
874.198
456.401
443.184
589.115
662.086
670.94
648.103
592.419
504.483
410.674
335.921
285.699
254.369
235.143
223.168
215.247
209.438
204.735
200.725
197.273
194.289
191.638
189.151
186.716
184.341
182.161
180.371
179.135
178.51
178.411
178.605
178.804
178.766
178.412
177.821
177.144
176.489
175.924
175.472
175.136
174.896
174.736
174.628
174.562
174.517
174.493
174.475
174.467
174.459
174.459
174.454
174.456
174.452
174.455
174.452
174.455
174.451
174.455
174.451
174.455
174.451
174.456
174.451
174.456
174.45
174.456
174.45
174.456
174.45
174.457
174.451
174.459
174.453
174.463
174.459
174.476
1017.36
908.477
1025.39
956.105
915.267
977.849
793.758
841.465
800.036
564.534
797.799
638.975
635.393
850.134
318.607
183.168
138.968
298.155
572.198
854.413
1094.37
1208.62
1193.03
1214.3
1120.87
777.982
474.886
455.552
524.418
557.497
539.859
476.385
396.739
332.525
290.229
262.425
243.056
229.506
220.155
213.507
208.368
204.035
200.225
196.867
193.927
191.318
188.909
186.585
184.323
182.21
180.399
179.041
178.216
177.895
177.923
178.074
178.118
177.92
177.492
176.95
176.388
175.873
175.44
175.106
174.862
174.696
174.582
174.512
174.465
174.439
174.42
174.412
174.404
174.403
174.399
174.4
174.397
174.399
174.396
174.399
174.396
174.399
174.396
174.399
174.396
174.399
174.395
174.4
174.395
174.4
174.395
174.4
174.395
174.401
174.396
174.402
174.397
174.405
174.403
174.417
823.313
774.871
824.415
769.343
802.828
690.977
678.24
639.931
462.598
541.403
425.375
337.433
339.088
168.135
34.1528
205.47
357.117
530.022
814.154
1100.56
1293
1364.02
1329.61
1301.3
1246.46
1046.46
751.781
531.726
451.238
429.662
399.664
359.044
328.652
310.039
293.188
273.675
253.869
237.124
224.672
215.859
209.456
204.476
200.357
196.836
193.783
191.095
188.661
186.383
184.213
182.181
180.388
178.95
177.942
177.368
177.141
177.114
177.115
177.007
176.733
176.342
175.908
175.496
175.145
174.874
174.675
174.54
174.448
174.391
174.353
174.332
174.316
174.31
174.303
174.302
174.299
174.3
174.297
174.299
174.297
174.299
174.297
174.299
174.297
174.299
174.296
174.299
174.296
174.3
174.296
174.3
174.296
174.3
174.296
174.3
174.296
174.301
174.298
174.304
174.302
174.313
508.726
534.67
491.361
519.717
477.666
423.966
412.304
274.198
287.724
251.871
126.421
210.366
168.504
95.2457
284.721
394.886
485.835
734.966
1073.82
1339.41
1465.05
1486.29
1442.98
1390.07
1331.32
1200.53
993.789
782.35
628.079
531.963
473.125
441.728
424.406
405.334
376.51
339.807
302.067
269.482
244.832
227.662
216.07
208.097
202.312
197.854
194.245
191.215
188.597
186.273
184.152
182.195
180.427
178.923
177.755
176.953
176.482
176.254
176.151
176.058
175.888
175.631
175.331
175.043
174.799
174.613
174.479
174.39
174.33
174.294
174.27
174.257
174.247
174.244
174.239
174.239
174.237
174.238
174.236
174.237
174.235
174.237
174.235
174.237
174.235
174.238
174.235
174.238
174.235
174.238
174.235
174.238
174.235
174.238
174.235
174.238
174.235
174.239
174.236
174.241
174.239
174.247
232.308
226.303
242.231
215.136
221.585
195.693
189.925
183.877
202.609
211.565
236.674
283.187
280.027
373.259
498.625
586.905
772.472
1074
1380.53
1563.54
1604.93
1584.91
1540.02
1482.83
1419.53
1313.37
1158.1
994.734
860.778
769.687
713.295
673.369
633.919
587.08
531.672
470.684
409.248
352.851
305.567
269.122
242.894
224.783
212.382
203.78
197.678
193.244
189.93
187.333
185.135
183.125
181.233
179.51
178.059
176.956
176.208
175.758
175.513
175.371
175.239
175.079
174.895
174.723
174.58
174.475
174.403
174.358
174.329
174.313
174.303
174.298
174.294
174.294
174.291
174.292
174.29
174.292
174.29
174.292
174.29
174.292
174.29
174.292
174.29
174.292
174.289
174.293
174.289
174.293
174.289
174.293
174.289
174.293
174.289
174.294
174.289
174.294
174.289
174.296
174.292
174.301
194.531
290.124
196.57
273.053
257.621
269.895
350.277
331.893
443.034
443.459
462.879
542.951
541.251
633.114
774.486
873.92
1059.66
1361.94
1632.57
1728.86
1686.14
1636.47
1601.3
1562.37
1511.23
1419.56
1289.58
1154.74
1039.54
955.869
897.565
848.899
796.438
736.898
672.712
607.265
543.186
482.07
425.149
373.676
329.072
292.067
262.751
240.466
224.138
212.534
204.399
198.534
193.93
189.965
186.394
183.243
180.631
178.632
177.221
176.302
175.741
175.414
175.209
175.061
174.943
174.858
174.802
174.776
174.764
174.767
174.77
174.78
174.782
174.791
174.79
174.797
174.794
174.8
174.795
174.801
174.795
174.802
174.794
174.803
174.794
174.804
174.793
174.804
174.792
174.805
174.791
174.807
174.79
174.808
174.788
174.809
174.787
174.812
174.787
174.815
174.789
174.823
174.798
174.843
581.636
541.711
555.078
591.007
544.74
655.84
639.935
701.043
765.149
733.641
821.577
834.152
827.168
971.426
1037.35
1077.08
1321.36
1669.75
1870.32
1814.01
1681.18
1615.69
1602.2
1600.61
1580.91
1513.16
1401.82
1283.77
1182.23
1102.8
1037.27
977.432
916.052
850.113
782.387
717.01
657.015
602.7
552.993
506.955
464.817
426.749
392.297
361.477
334.126
309.717
287.519
266.874
247.546
229.949
214.817
202.732
193.736
187.418
183.21
180.558
178.964
178.117
177.755
177.736
177.9
178.192
178.504
178.819
179.067
179.284
179.419
179.545
179.595
179.669
179.67
179.722
179.697
179.744
179.704
179.755
179.703
179.762
179.698
179.769
179.692
179.776
179.685
179.785
179.676
179.795
179.665
179.806
179.654
179.819
179.643
179.834
179.633
179.855
179.628
179.891
179.647
179.972
179.74
180.174
846.249
802.336
844.629
828.529
845.908
889.024
880.568
948.33
949.842
952.627
1021.14
989.345
1037.92
1152.86
1130.4
1248.06
1634.92
1982.68
2011.29
1785.5
1598.15
1538.57
1551.66
1587.47
1605.56
1572.86
1488.92
1389.08
1297.51
1216.49
1139.81
1065.87
995.711
927.701
861.793
801.07
746.877
698.934
655.796
616.829
582.421
552.939
527.119
503.646
481.579
459.862
436.733
410.829
381.583
349.658
317.152
287.002
261.557
241.949
227.856
218.591
213.114
210.993
211.247
213.309
216.08
219.238
222.023
224.495
226.268
227.715
228.558
229.323
229.593
230.034
230.001
230.325
230.141
230.445
230.172
230.505
230.161
230.545
230.135
230.582
230.1
230.624
230.055
230.676
229.996
230.744
229.922
230.824
229.846
230.904
229.778
230.993
229.714
231.119
229.684
231.317
229.8
231.728
230.359
232.773
984.531
966.887
991.573
978.426
1004.03
1023.98
1034
1086.38
1078.88
1111.03
1148.16
1117.34
1217.02
1271.11
1260.23
1571.39
2051.2
2252.52
2018.34
1675.29
1498.18
1464.81
1492.05
1541.97
1582.21
1580.38
1527.08
1446.89
1360.96
1272.09
1182.3
1097.12
1021.65
956.161
898.054
847.511
803.638
765.594
732.294
702.685
676.075
652.249
631.23
612.367
594.955
578.36
561.395
543.515
524.88
504.998
483.292
460.987
439.924
422.07
408.447
400.077
396.765
398.799
404.439
412.529
420.711
428.588
434.859
440.041
443.537
446.287
447.824
449.193
449.651
450.422
450.338
450.912
450.565
451.109
450.617
451.201
450.603
451.26
450.569
451.307
450.527
451.358
450.471
451.428
450.386
451.533
450.263
451.677
450.119
451.83
449.988
451.997
449.866
452.237
449.788
452.626
449.96
453.411
450.936
455.349
1142.93
1137.88
1152.73
1144.15
1175.9
1184.71
1217.56
1257.73
1256.43
1311.88
1309.45
1321.87
1434.44
1427.73
1560.62
2061.07
2483.32
2371.23
1902.06
1564.89
1445.32
1430.41
1452.32
1491.79
1529.33
1538.54
1505.11
1436.54
1350.57
1256.8
1165.15
1084.15
1016.56
960.879
914.248
875.001
841.898
813.884
790.182
770.188
753.282
738.859
726.65
716.16
706.246
695.551
683.987
672.88
664.873
661.177
660.146
660.588
661.863
663.685
665.989
669.166
673.633
679.621
686.571
693.637
699.941
705.387
709.624
712.887
715.099
716.687
717.655
718.357
718.717
719.035
719.116
719.297
719.251
719.393
719.294
719.425
719.305
719.437
719.308
719.439
719.313
719.436
719.317
719.439
719.306
719.465
719.264
719.534
719.175
719.661
719.039
719.855
718.872
720.153
718.713
720.645
718.722
721.593
719.459
723.74
1374.53
1377.74
1384.98
1385.63
1419.8
1432.68
1489.38
1520.58
1548.6
1601.21
1582.34
1651.88
1718.98
1731.75
2085.08
2659.71
2808.73
2304.05
1769.28
1521.87
1457.71
1449.04
1452.74
1466.63
1482.55
1482.15
1451.13
1387.61
1306.45
1221.68
1145.36
1083.88
1035.72
996.875
964.601
937.257
913.891
894.216
878.324
866.339
857.973
852.485
849.324
847.985
847.871
848.403
849.106
849.59
849.812
850.926
854.529
860.172
866.517
872.398
877.437
881.847
886.517
891.662
897.178
902.244
906.856
910.739
913.898
916.226
917.915
919.035
919.806
920.265
920.6
920.759
920.906
920.946
921.013
921.009
921.049
921.024
921.065
921.026
921.075
921.022
921.083
921.016
921.089
921.014
921.087
921.027
921.064
921.073
920.999
921.182
920.868
921.391
920.675
921.731
920.45
922.317
920.348
923.418
920.998
925.752
1786.86
1794.63
1797.93
1810.34
1848.29
1880.88
1958.31
1994.32
2051.34
2079.62
2070.05
2161.16
2159.49
2300.3
2850.89
3280.3
2921.12
2180.96
1725.37
1577.83
1558.64
1550.04
1529.92
1510.41
1494.41
1472.32
1432.24
1372.44
1304.42
1241.73
1194.44
1164.88
1145.77
1129.85
1114.85
1100.57
1087.29
1076.26
1068.88
1066.02
1067.36
1071.82
1078.29
1085.84
1093.87
1102.09
1110.35
1118.35
1125.94
1133.04
1139.38
1144.43
1148
1150.47
1152.78
1155.82
1160.31
1166.07
1172.28
1178.02
1182.99
1186.95
1189.97
1192.11
1193.59
1194.57
1195.2
1195.6
1195.84
1196
1196.08
1196.15
1196.16
1196.21
1196.19
1196.22
1196.19
1196.23
1196.2
1196.23
1196.2
1196.23
1196.2
1196.23
1196.2
1196.24
1196.18
1196.28
1196.12
1196.37
1196.02
1196.56
1195.86
1196.93
1195.6
1197.71
1195.34
1199.35
1195.92
1202.44