/*--------------------------------*- C++ -*----------------------------------*\
| =========                 |                                                 |
| \\      /  F ield         | OpenFOAM: The Open Source CFD Toolbox           |
|  \\    /   O peration     | Version:  v2012                                 |
|   \\  /    A nd           | Website:  www.openfoam.com                      |
|    \\/     M anipulation  |                                                 |
\*---------------------------------------------------------------------------*/
FoamFile
{
    version     2.0;
    format      ascii;
    class       scalarField;
    location    "0.083/lagrangian/kinematicCloud";
    object      age;
}
// * * * * * * * * * * * * * * * * * * * * * * * * * * * * * * * * * * * * * //


21
(
0.0706
0.0695
0.0618
0.0563
0.0552
0.053
0.0469
0.0459
0.0449
0.0439
0.0429
0.0419
0.0409
0.0399
0.0389
0.0379
0.0369
0.0359
0.0349
0.0339
0.0329
)


// ************************************************************************* //
