/*--------------------------------*- C++ -*----------------------------------*\
| =========                 |                                                 |
| \\      /  F ield         | OpenFOAM: The Open Source CFD Toolbox           |
|  \\    /   O peration     | Version:  v2012                                 |
|   \\  /    A nd           | Website:  www.openfoam.com                      |
|    \\/     M anipulation  |                                                 |
\*---------------------------------------------------------------------------*/
FoamFile
{
    version     2.0;
    format      ascii;
    class       Cloud<basicKinematicParcel>;
    location    "0.083/lagrangian/kinematicCloud";
    object      coordinates;
}
// * * * * * * * * * * * * * * * * * * * * * * * * * * * * * * * * * * * * * //

54
(
(0.103917 0.448041 0.331144 0.116898) 355 511 1
(0.734918 0.0657168 0.0668243 0.132541) 855 1710 1
(0.177998 0.411001 0.212396 0.198605) 1155 2308 2
(0.125349 0.437325 0.172444 0.264882) 554 1109 1
(0.29786 0.266147 0.0849232 0.35107) 1453 2707 2
(0.0389937 0.480503 0.433339 0.0471639) 1152 2304 2
(0.680981 0.147591 0.0119188 0.15951) 42 84 1
(0.0166911 0.491654 0.230429 0.261226) 1650 3300 2
(0.0724517 0.463774 0.292502 0.171272) 1650 3101 1
(0.305169 0.347416 0.0287882 0.318627) 750 1498 2
(0.0254348 0.128145 0.359138 0.487283) 849 1698 1
(0.139377 0.430311 0.11605 0.314261) 549 899 1
(0.43152 0.0113008 0.272939 0.28424) 1844 3688 1
(0.264789 0.367605 0.353235 0.0143707) 144 286 2
(0.817227 0.0846284 0.00675793 0.0913864) 1844 3489 2
(0.704454 0.0363025 0.147773 0.11147) 946 1890 1
(0.0107276 0.494636 0.359714 0.134922) 345 688 2
(0.113381 0.443309 0.188674 0.254635) 1743 3487 1
(0.2826 0.3587 0.0910895 0.26761) 544 1086 2
(0.0709534 0.145551 0.318973 0.464523) 1643 3087 2
(0.406676 0.296662 0.210255 0.086407) 1343 2487 1
(0.620171 0.189915 0.157856 0.0320589) 1741 3482 2
(0.167521 0.369796 0.0464435 0.41624) 1341 2682 1
(0.0511981 0.474401 0.42253 0.0518714) 440 880 2
(0.0441183 0.477941 0.225478 0.252463) 840 1680 2
(0.522308 0.238846 0.0314138 0.207432) 1340 2481 1
(0.536427 0.130663 0.231787 0.101124) 339 676 1
(0.524562 0.212307 0.237719 0.0254116) 1439 2879 2
(0.735028 0.0290541 0.132486 0.103432) 137 272 1
(0.360961 0.0920974 0.227422 0.31952) 1538 2877 2
(0.0934173 0.453291 0.43811 0.0151816) 25 48 2
(0.756195 0.00309408 0.118808 0.121902) 236 273 2
(0.205938 0.397031 0.213244 0.183787) 1933 3667 1
(0.402965 0.218827 0.0796907 0.298518) 1035 2070 1
(0.141696 0.204663 0.429152 0.224489) 535 1071 2
(0.337359 0.33132 0.29675 0.0345708) 1235 2471 1
(0.460702 0.269649 0.203948 0.0657012) 734 1269 1
(0.251622 0.374189 0.0764557 0.297733) 833 1666 2
(0.177562 0.411219 0.38167 0.029549) 1233 2467 1
(0.189797 0.0862654 0.405102 0.318836) 30 58 1
(0.248224 0.157771 0.218117 0.375888) 631 1262 1
(0.192477 0.403761 0.00206823 0.401693) 1231 2460 2
(0.48467 0.257665 0.130322 0.127343) 530 1061 1
(0.128498 0.136559 0.299192 0.435751) 529 859 2
(0.0323231 0.483838 0.0675648 0.416274) 729 1259 1
(0.205248 0.397376 0.10261 0.294766) 1128 2257 1
(0.459037 0.114168 0.156314 0.270482) 1527 2855 2
(0.0526026 0.464176 0.473699 0.00952241) 927 1852 1
(0.16218 0.41891 0.200523 0.218387) 826 1453 1
(0.0942098 0.331195 0.1217 0.452895) 1425 2651 2
(0.141066 0.100729 0.328738 0.429467) 324 449 2
(0.165114 0.417443 0.213042 0.204401) 724 1449 1
(0.22668 0.291798 0.0948615 0.38666) 1623 3047 2
(0.323392 0.23872 0.338304 0.0995843) 122 245 2
)


// ************************************************************************* //
