/*--------------------------------*- C++ -*----------------------------------*\
| =========                 |                                                 |
| \\      /  F ield         | OpenFOAM: The Open Source CFD Toolbox           |
|  \\    /   O peration     | Version:  v2012                                 |
|   \\  /    A nd           | Website:  www.openfoam.com                      |
|    \\/     M anipulation  |                                                 |
\*---------------------------------------------------------------------------*/
FoamFile
{
    version     2.0;
    format      ascii;
    class       vectorField;
    location    "0.083/lagrangian/kinematicCloud";
    object      U;
}
// * * * * * * * * * * * * * * * * * * * * * * * * * * * * * * * * * * * * * //


54
(
(9.63645 -0.000301767 0)
(10.1923 -0.000668059 0)
(10.1999 -0.000676114 0)
(10.1595 0.000169171 0)
(10.1477 -0.00140023 0)
(10.2159 -0.00104585 0)
(6.84128 -0.00121181 0)
(9.81508 -0.00284854 0)
(9.86782 -0.00336065 0)
(10.2263 0.00141109 0)
(10.2302 0.000299521 0)
(10.0996 0.00301421 0)
(8.56385 -0.00275133 0)
(8.59945 0.00170178 0)
(8.95772 -0.00241094 0)
(10.2393 -4.7439e-05 0)
(9.74364 0.00403392 0)
(9.30507 -0.0037491 0)
(10.164 0.00527099 0)
(9.93334 -0.00607891 0)
(10.229 -0.00560804 0)
(9.55456 -0.00565089 0)
(10.2232 -0.00608971 0)
(10.0839 0.00558717 0)
(10.2389 0.00223343 0)
(10.2317 -0.00573765 0)
(9.9602 0.00561332 0)
(10.1721 -0.00689909 0)
(9.24829 0.00423862 0)
(10.137 -0.00704744 0)
(4.34398 -0.000365296 0)
(9.67961 0.00386501 0)
(8.45419 -0.00459079 0)
(10.242 -0.00164166 0)
(10.2292 0.00501178 0)
(10.2433 -0.00489807 0)
(10.2434 0.00342428 0)
(10.2459 0.00209037 0)
(10.2463 -0.0048658 0)
(8.69733 0.000671515 0)
(10.2491 0.00393419 0)
(10.2511 -0.0042331 0)
(10.2451 0.00491284 0)
(10.2337 0.00533074 0)
(10.2559 0.0034216 0)
(10.258 -0.00327004 0)
(10.2328 -0.00668289 0)
(10.2612 0.000122574 0)
(10.2635 0.00202124 0)
(10.2654 -0.00545533 0)
(10.1337 0.00526594 0)
(10.2717 0.0021489 0)
(10.2259 -0.00649404 0)
(9.9148 0.00542927 0)
)


// ************************************************************************* //
