/*--------------------------------*- C++ -*----------------------------------*\
| =========                 |                                                 |
| \\      /  F ield         | OpenFOAM: The Open Source CFD Toolbox           |
|  \\    /   O peration     | Version:  v2012                                 |
|   \\  /    A nd           | Website:  www.openfoam.com                      |
|    \\/     M anipulation  |                                                 |
\*---------------------------------------------------------------------------*/
FoamFile
{
    version     2.0;
    format      ascii;
    class       vectorField;
    location    "0.083/lagrangian/kinematicCloud";
    object      U;
}
// * * * * * * * * * * * * * * * * * * * * * * * * * * * * * * * * * * * * * //


54
(
(15.916 0.00875976 0)
(17.8945 0.00489334 0)
(17.8525 -0.00663784 0)
(17.2748 0.0105609 0)
(17.1789 -0.0127055 0)
(17.691 -0.00738306 0)
(11.0968 0.000942925 0)
(16.1037 -0.0122968 0)
(16.183 -0.0127434 0)
(17.3977 0.00891214 0)
(17.4794 0.0039048 0)
(16.7026 0.0119186 0)
(13.465 -0.00654778 0)
(13.4152 0.00549233 0)
(14.1013 -0.00745291 0)
(17.1791 0.000603883 0)
(15.5339 0.010779 0)
(14.5763 -0.00957996 0)
(16.5684 0.0130431 0)
(15.9124 -0.0142013 0)
(16.8191 -0.0134089 0)
(14.9287 -0.0119644 0)
(16.6582 -0.0142143 0)
(16.0578 0.0135204 0)
(16.6996 0.00630155 0)
(16.5763 -0.0136044 0)
(15.586 0.0131378 0)
(16.2341 -0.0158054 0)
(13.9298 0.00879759 0)
(16.0502 -0.0160495 0)
(5.25788 3.71171e-05 0)
(14.7056 0.0106762 0)
(12.2971 -0.00706399 0)
(16.1944 -0.00352532 0)
(16.1109 0.0134365 0)
(16.1205 -0.012042 0)
(16.05 0.00970778 0)
(15.9845 0.00622849 0)
(15.9071 -0.0120926 0)
(12.3399 0.00467309 0)
(15.7598 0.011181 0)
(15.6866 -0.0105346 0)
(15.5791 0.0137103 0)
(15.4446 0.0149276 0)
(15.4526 0.00991965 0)
(15.3724 -0.00812078 0)
(15.1945 -0.0171076 0)
(15.206 0.0009914 0)
(15.1216 0.00615653 0)
(15.0352 -0.0142994 0)
(14.5041 0.0150629 0)
(14.863 0.00654997 0)
(14.6233 -0.0174415 0)
(13.6331 0.0128044 0)
)


// ************************************************************************* //
