/*--------------------------------*- C++ -*----------------------------------*\
| =========                 |                                                 |
| \\      /  F ield         | OpenFOAM: The Open Source CFD Toolbox           |
|  \\    /   O peration     | Version:  v2012                                 |
|   \\  /    A nd           | Website:  www.openfoam.com                      |
|    \\/     M anipulation  |                                                 |
\*---------------------------------------------------------------------------*/
FoamFile
{
    version     2.0;
    format      ascii;
    class       volScalarField;
    location    "0.004";
    object      k.air;
}
// * * * * * * * * * * * * * * * * * * * * * * * * * * * * * * * * * * * * * //

dimensions      [0 2 -2 0 0 0 0];


internalField   nonuniform List<scalar> 
1900
(
0.500273
0.597232
0.7929
0.908431
1.15376
1.30966
1.64482
1.84129
2.23539
2.49265
0.44061
0.422819
0.408689
0.395101
0.38266
0.37516
0.365479
0.362478
0.364889
0.400845
0.441394
0.421611
0.408363
0.390298
0.379537
0.363387
0.354463
0.339675
0.332814
0.318175
0.441317
0.422123
0.407515
0.391537
0.377785
0.365427
0.351833
0.342319
0.32938
0.32166
0.440907
0.422931
0.406637
0.39259
0.376755
0.366365
0.351062
0.34288
0.329029
0.321851
0.440673
0.423333
0.406293
0.392919
0.376595
0.366324
0.351348
0.342327
0.329861
0.320694
0.440673
0.423348
0.406295
0.392909
0.376628
0.366267
0.351428
0.342211
0.330017
0.320463
0.441264
0.422324
0.407325
0.391812
0.377493
0.365894
0.351392
0.343102
0.329042
0.322577
0.439936
0.424087
0.408017
0.395193
0.383723
0.373453
0.367216
0.359579
0.358473
0.361015
0.50874
0.607638
0.765909
0.927604
1.11493
1.35578
1.58841
1.87926
2.20309
2.5231
5.25304
5.40458
2.49569
0.899895
0.532294
0.426254
0.377897
0.348991
0.330397
0.313781
0.295198
0.275859
0.258533
0.245042
0.235729
0.229926
0.226615
0.224866
0.224002
0.2236
0.223423
0.223348
0.223319
0.223308
0.223304
0.223303
0.223303
0.223303
0.223303
0.223303
0.223304
0.223304
0.223304
0.223305
0.223305
0.223305
0.223305
0.223305
0.223306
0.223306
0.223306
0.223306
0.223306
0.223306
0.223306
0.223306
0.223306
0.223306
0.223306
0.223306
0.223306
0.223306
0.223306
0.223306
0.223306
0.223306
0.223306
0.223306
0.223306
0.223306
0.223306
0.223306
0.223306
0.223306
0.223306
0.223306
0.223306
0.223306
0.223306
0.223306
0.223306
0.223306
0.223306
0.223306
0.223306
0.223306
0.223306
0.223305
0.223306
0.223306
0.223306
0.223306
0.223306
0.223306
0.223306
0.223306
0.223306
0.223306
0.223306
0.223306
0.223306
0.223306
0.223307
0.223307
0.223307
0.223307
0.223307
0.223307
0.223307
0.223307
1.18659
1.01958
0.563328
0.42151
0.389458
0.369465
0.350432
0.333165
0.318645
0.304441
0.288702
0.271936
0.256358
0.243889
0.235142
0.229642
0.226484
0.224806
0.223971
0.22358
0.223405
0.22333
0.2233
0.223288
0.223284
0.223283
0.223283
0.223283
0.223284
0.223284
0.223284
0.223284
0.223284
0.223285
0.223285
0.223285
0.223285
0.223285
0.223285
0.223285
0.223285
0.223286
0.223286
0.223286
0.223286
0.223286
0.223286
0.223286
0.223286
0.223286
0.223286
0.223286
0.223286
0.223286
0.223286
0.223286
0.223286
0.223286
0.223286
0.223286
0.223286
0.223286
0.223286
0.223286
0.223286
0.223286
0.223286
0.223286
0.223286
0.223286
0.223286
0.223286
0.223285
0.223285
0.223285
0.223285
0.223285
0.223285
0.223285
0.223285
0.223286
0.223286
0.223286
0.223286
0.223286
0.223286
0.223286
0.223286
0.223286
0.223286
0.223286
0.223286
0.223286
0.223286
0.223286
0.223286
0.223286
0.223286
0.223286
0.223286
0.351446
0.342739
0.338411
0.343871
0.352223
0.348227
0.337992
0.324733
0.311563
0.2965
0.280066
0.264188
0.250575
0.240166
0.232996
0.228507
0.225924
0.224545
0.223856
0.223531
0.223385
0.223322
0.223296
0.223286
0.223283
0.223282
0.223282
0.223282
0.223282
0.223282
0.223283
0.223283
0.223283
0.223283
0.223283
0.223283
0.223283
0.223283
0.223283
0.223283
0.223284
0.223284
0.223284
0.223284
0.223284
0.223284
0.223284
0.223284
0.223284
0.223284
0.223284
0.223284
0.223284
0.223284
0.223284
0.223284
0.223284
0.223284
0.223284
0.223284
0.223284
0.223284
0.223284
0.223284
0.223284
0.223284
0.223284
0.223284
0.223284
0.223284
0.223284
0.223284
0.223284
0.223284
0.223284
0.223284
0.223284
0.223284
0.223284
0.223284
0.223284
0.223284
0.223284
0.223284
0.223284
0.223284
0.223284
0.223284
0.223284
0.223284
0.223284
0.223284
0.223284
0.223284
0.223285
0.223285
0.223285
0.223285
0.223285
0.223285
0.308335
0.307375
0.312416
0.323763
0.337833
0.335059
0.32774
0.318623
0.308304
0.294062
0.277254
0.261089
0.247786
0.238059
0.231615
0.227697
0.22549
0.224329
0.223754
0.223484
0.223364
0.223312
0.223292
0.223284
0.223281
0.22328
0.22328
0.223281
0.223281
0.223281
0.223281
0.223281
0.223281
0.223282
0.223282
0.223282
0.223282
0.223282
0.223282
0.223282
0.223282
0.223282
0.223282
0.223283
0.223283
0.223283
0.223283
0.223283
0.223283
0.223283
0.223283
0.223283
0.223283
0.223283
0.223283
0.223283
0.223283
0.223283
0.223283
0.223283
0.223283
0.223283
0.223283
0.223283
0.223283
0.223283
0.223283
0.223283
0.223283
0.223283
0.223283
0.223283
0.223283
0.223283
0.223283
0.223283
0.223283
0.223283
0.223283
0.223283
0.223283
0.223283
0.223283
0.223283
0.223283
0.223283
0.223283
0.223283
0.223283
0.223283
0.223283
0.223283
0.223283
0.223283
0.223283
0.223283
0.223283
0.223283
0.223283
0.223283
0.307909
0.300411
0.303403
0.310968
0.325345
0.328087
0.32536
0.318472
0.30963
0.295162
0.277272
0.260271
0.246697
0.237116
0.230964
0.227306
0.225276
0.224218
0.223699
0.223458
0.22335
0.223305
0.223286
0.223279
0.223277
0.223276
0.223276
0.223276
0.223277
0.223277
0.223277
0.223277
0.223278
0.223278
0.223278
0.223278
0.223278
0.223279
0.223279
0.223279
0.223279
0.223279
0.223279
0.223279
0.223279
0.223279
0.223279
0.223279
0.223279
0.223279
0.223279
0.223279
0.223279
0.223279
0.223279
0.223279
0.223279
0.223279
0.223279
0.223279
0.223279
0.223279
0.223279
0.223279
0.223279
0.223279
0.223279
0.223279
0.223279
0.223279
0.223279
0.223279
0.223279
0.223279
0.223279
0.223279
0.223279
0.223279
0.223279
0.223279
0.223279
0.223279
0.223279
0.223279
0.223279
0.223279
0.223279
0.223279
0.223279
0.223279
0.223279
0.223279
0.223279
0.223279
0.223279
0.223279
0.223279
0.223279
0.223279
0.223279
0.309562
0.296689
0.298249
0.305608
0.319743
0.334226
0.334521
0.331165
0.32297
0.305423
0.282427
0.262088
0.24694
0.236844
0.230644
0.227072
0.22513
0.224136
0.223654
0.223432
0.223334
0.223293
0.223276
0.22327
0.223269
0.223268
0.223268
0.223268
0.223269
0.223269
0.223269
0.223269
0.22327
0.22327
0.22327
0.22327
0.22327
0.22327
0.22327
0.22327
0.22327
0.22327
0.22327
0.223271
0.223271
0.223271
0.223271
0.223271
0.223271
0.223271
0.223271
0.223271
0.223271
0.223271
0.223271
0.223271
0.223271
0.223271
0.223271
0.223271
0.223271
0.223271
0.223271
0.223271
0.223271
0.22327
0.22327
0.22327
0.22327
0.22327
0.22327
0.22327
0.22327
0.22327
0.22327
0.22327
0.22327
0.22327
0.22327
0.22327
0.22327
0.22327
0.223271
0.223271
0.223271
0.22327
0.22327
0.22327
0.22327
0.22327
0.22327
0.22327
0.22327
0.22327
0.22327
0.22327
0.22327
0.22327
0.223271
0.223271
0.309815
0.295122
0.296662
0.307647
0.333545
0.386153
0.402703
0.399122
0.385774
0.351513
0.308033
0.2745
0.252403
0.23909
0.231517
0.227397
0.225249
0.224179
0.22367
0.223438
0.223338
0.223296
0.223279
0.223273
0.223271
0.223271
0.223271
0.223271
0.223271
0.223271
0.223271
0.223272
0.223272
0.223272
0.223272
0.223272
0.223272
0.223272
0.223273
0.223273
0.223273
0.223273
0.223273
0.223273
0.223273
0.223273
0.223273
0.223273
0.223273
0.223273
0.223273
0.223273
0.223273
0.223273
0.223273
0.223273
0.223273
0.223273
0.223273
0.223273
0.223273
0.223273
0.223273
0.223273
0.223273
0.223273
0.223273
0.223273
0.223273
0.223273
0.223273
0.223273
0.223273
0.223273
0.223273
0.223273
0.223273
0.223273
0.223273
0.223273
0.223273
0.223273
0.223273
0.223273
0.223273
0.223273
0.223273
0.223273
0.223273
0.223273
0.223273
0.223273
0.223273
0.223273
0.223273
0.223273
0.223273
0.223273
0.223273
0.223274
0.30627
0.302472
0.316137
0.37134
0.509248
0.6563
0.687546
0.673581
0.627714
0.516889
0.406567
0.327899
0.279833
0.252901
0.238661
0.23144
0.227893
0.226199
0.22541
0.225052
0.224894
0.224825
0.224797
0.22479
0.22479
0.224794
0.224796
0.224798
0.224799
0.224799
0.224799
0.224799
0.2248
0.2248
0.2248
0.2248
0.2248
0.2248
0.2248
0.224801
0.224801
0.224801
0.224801
0.224801
0.224801
0.224801
0.224801
0.224801
0.224801
0.224801
0.224801
0.224801
0.224801
0.224801
0.224801
0.224801
0.224801
0.224801
0.224801
0.224801
0.224801
0.224801
0.224801
0.224801
0.224801
0.224801
0.224801
0.224802
0.224802
0.224802
0.224802
0.224802
0.224801
0.224801
0.224802
0.224802
0.224802
0.224802
0.224802
0.224802
0.224802
0.224802
0.224802
0.224801
0.224801
0.224801
0.224801
0.224801
0.224801
0.224802
0.224802
0.224802
0.224802
0.224802
0.224802
0.224803
0.224804
0.224806
0.22481
0.22483
0.376722
0.445651
0.636952
1.0773
1.61097
1.82055
1.80543
1.70975
1.47241
1.12455
0.810635
0.59108
0.454707
0.376178
0.333928
0.312364
0.301828
0.296855
0.294545
0.29348
0.293
0.292831
0.292822
0.292929
0.293161
0.293313
0.2934
0.293446
0.29347
0.293481
0.293486
0.293488
0.293489
0.29349
0.29349
0.293491
0.293491
0.293491
0.293491
0.293491
0.293492
0.293492
0.293492
0.293492
0.293492
0.293492
0.293492
0.293492
0.293492
0.293492
0.293492
0.293492
0.293492
0.293492
0.293492
0.293492
0.293492
0.293492
0.293492
0.293492
0.293492
0.293492
0.293492
0.293492
0.293492
0.293492
0.293492
0.293492
0.293491
0.293491
0.293491
0.293491
0.293491
0.293491
0.293492
0.293492
0.293492
0.293492
0.293492
0.293492
0.293492
0.293492
0.293492
0.293491
0.293491
0.293491
0.293492
0.293492
0.293492
0.293493
0.293493
0.293494
0.293497
0.293501
0.293511
0.293527
0.293561
0.293648
0.293736
0.294454
3.01529
3.53955
4.13883
4.87222
5.18445
5.16933
5.04375
4.70279
4.14962
3.65685
3.29681
3.04798
2.88963
2.81029
2.7913
2.79376
2.8068
2.82632
2.84132
2.85155
2.85796
2.86169
2.86365
2.86451
2.86483
2.86496
2.86501
2.86502
2.86503
2.86503
2.86503
2.86503
2.86503
2.86503
2.86503
2.86503
2.86503
2.86503
2.86502
2.86502
2.86502
2.86502
2.86502
2.86502
2.86502
2.86502
2.86502
2.86502
2.86502
2.86502
2.86502
2.86502
2.86502
2.86502
2.86502
2.86502
2.86502
2.86502
2.86502
2.86502
2.86502
2.86502
2.86502
2.86502
2.86502
2.86502
2.86502
2.86502
2.86502
2.86502
2.86502
2.86502
2.86502
2.86502
2.86502
2.86502
2.86502
2.86502
2.86502
2.86502
2.86502
2.86502
2.86502
2.86502
2.86502
2.86502
2.86502
2.86502
2.86502
2.86502
2.86502
2.86502
2.86502
2.86501
2.86501
2.865
2.86498
2.86492
2.86487
2.86455
1.98977
2.34056
2.46016
2.63925
2.88185
3.00478
3.00968
2.81977
20.2585
13.8226
8.63468
7.76626
7.31447
7.41092
6.28179
4.28959
9.80531
14.1206
14.4146
13.8435
12.573
10.699
8.36395
4.32592
2.47645
5.84531
9.55871
11.3291
11.0914
10.2109
8.0436
3.43214
0.929398
1.80869
3.59723
5.62488
6.5557
6.36125
5.48082
2.74491
0.559017
0.845149
1.4905
2.88773
3.81352
4.1308
4.02592
2.34887
0.435158
0.5549
0.845081
1.65577
2.28104
2.96794
3.24661
2.1536
0.380257
0.442096
0.592832
1.02122
1.54894
2.37126
2.62137
2.07659
0.350038
0.386219
0.474294
0.720297
1.21596
1.95257
2.05075
2.07816
0.326365
0.349557
0.40861
0.582408
1.03411
1.53542
1.53606
2.12597
0.303448
0.320081
0.365856
0.506704
0.868338
1.13133
1.11243
2.3039
0.281647
0.294784
0.332692
0.447116
0.689252
0.796281
0.801641
2.65626
0.262816
0.273219
0.303547
0.38758
0.5236
0.556064
0.59966
3.01032
0.248131
0.255844
0.277944
0.331667
0.397879
0.40423
0.483914
3.31262
0.237785
0.243028
0.257438
0.287639
0.316416
0.317002
0.423793
3.54256
0.231179
0.23443
0.242882
0.258117
0.26953
0.270717
0.39554
3.70228
0.227319
0.229166
0.233676
0.240702
0.244907
0.247743
0.383765
3.80569
0.225234
0.2262
0.228416
0.231418
0.232898
0.236977
0.379637
3.86923
0.224182
0.224647
0.225659
0.226855
0.227386
0.232182
0.378647
3.90679
0.223684
0.223886
0.224316
0.224758
0.224982
0.23014
0.378627
3.9284
0.22346
0.223534
0.223703
0.223848
0.22398
0.229307
0.378907
3.94059
0.223365
0.223379
0.223437
0.223471
0.223578
0.22898
0.379265
3.94737
0.223327
0.223315
0.223327
0.223322
0.223422
0.228857
0.379512
3.95112
0.223312
0.223289
0.223284
0.223265
0.223364
0.228813
0.37967
3.95317
0.223307
0.22328
0.223268
0.223245
0.223343
0.228798
0.379766
3.95429
0.223306
0.223277
0.223263
0.223238
0.223336
0.228794
0.379823
3.9549
0.223305
0.223276
0.223261
0.223235
0.223334
0.228793
0.379856
3.95522
0.223306
0.223276
0.223261
0.223235
0.223333
0.228793
0.379874
3.9554
0.223306
0.223276
0.223261
0.223235
0.223333
0.228793
0.379885
3.9555
0.223306
0.223277
0.223261
0.223235
0.223334
0.228794
0.379891
3.95555
0.223307
0.223277
0.223261
0.223235
0.223334
0.228794
0.379895
3.95557
0.223307
0.223277
0.223261
0.223235
0.223334
0.228794
0.379896
3.95558
0.223307
0.223277
0.223262
0.223236
0.223334
0.228794
0.379896
3.95559
0.223307
0.223278
0.223262
0.223236
0.223335
0.228794
0.379896
3.95559
0.223307
0.223278
0.223262
0.223236
0.223335
0.228795
0.379895
3.9556
0.223308
0.223278
0.223262
0.223236
0.223335
0.228795
0.379895
3.9556
0.223308
0.223278
0.223262
0.223236
0.223335
0.228795
0.379895
3.9556
0.223308
0.223278
0.223263
0.223236
0.223335
0.228795
0.379895
3.9556
0.223308
0.223278
0.223263
0.223237
0.223335
0.228795
0.379894
3.9556
0.223308
0.223278
0.223263
0.223237
0.223335
0.228795
0.379894
3.9556
0.223308
0.223278
0.223263
0.223237
0.223335
0.228795
0.379894
3.9556
0.223309
0.223278
0.223263
0.223237
0.223336
0.228795
0.379894
3.95559
0.223309
0.223278
0.223263
0.223237
0.223336
0.228795
0.379894
3.95559
0.223309
0.223278
0.223263
0.223237
0.223336
0.228795
0.379894
3.95559
0.223309
0.223278
0.223263
0.223237
0.223336
0.228795
0.379894
3.95559
0.223309
0.223278
0.223263
0.223237
0.223336
0.228795
0.379894
3.95559
0.223309
0.223278
0.223263
0.223237
0.223336
0.228795
0.379894
3.95559
0.223309
0.223278
0.223263
0.223237
0.223336
0.228795
0.379894
3.95559
0.223309
0.223278
0.223263
0.223238
0.223336
0.228795
0.379894
3.95559
0.223309
0.223278
0.223263
0.223238
0.223336
0.228795
0.379894
3.95559
0.223309
0.223278
0.223263
0.223238
0.223336
0.228795
0.379894
3.95559
0.223309
0.223278
0.223263
0.223238
0.223336
0.228795
0.379894
3.95559
0.223309
0.223278
0.223263
0.223238
0.223336
0.228795
0.379894
3.95559
0.223309
0.223279
0.223263
0.223238
0.223336
0.228795
0.379894
3.95559
0.223309
0.223279
0.223263
0.223238
0.223336
0.228795
0.379894
3.95559
0.223309
0.223279
0.223263
0.223238
0.223336
0.228795
0.379894
3.95559
0.223309
0.223279
0.223263
0.223238
0.223336
0.228795
0.379894
3.95559
0.223309
0.223279
0.223263
0.223238
0.223336
0.228795
0.379894
3.95559
0.223309
0.223279
0.223263
0.223238
0.223336
0.228795
0.379894
3.95559
0.223309
0.223279
0.223263
0.223238
0.223336
0.228795
0.379893
3.95559
0.223309
0.223279
0.223263
0.223238
0.223336
0.228795
0.379893
3.95559
0.223309
0.223279
0.223263
0.223238
0.223336
0.228795
0.379893
3.95559
0.223309
0.223279
0.223263
0.223238
0.223336
0.228795
0.379893
3.95559
0.223309
0.223279
0.223263
0.223238
0.223336
0.228795
0.379893
3.95559
0.223309
0.223279
0.223263
0.223238
0.223336
0.228795
0.379893
3.95559
0.223309
0.223279
0.223263
0.223238
0.223336
0.228795
0.379893
3.95559
0.223309
0.223279
0.223263
0.223238
0.223336
0.228795
0.379893
3.95559
0.223309
0.223279
0.223263
0.223238
0.223336
0.228795
0.379893
3.95559
0.223309
0.223279
0.223263
0.223238
0.223336
0.228795
0.379893
3.95559
0.223309
0.223279
0.223263
0.223238
0.223336
0.228795
0.379893
3.95559
0.223309
0.223279
0.223263
0.223238
0.223336
0.228795
0.379893
3.95559
0.223309
0.223279
0.223263
0.223238
0.223336
0.228795
0.379893
3.95559
0.223309
0.223279
0.223263
0.223238
0.223336
0.228795
0.379894
3.95559
0.223309
0.223279
0.223263
0.223238
0.223336
0.228795
0.379894
3.95559
0.223309
0.223279
0.223263
0.223238
0.223336
0.228795
0.379894
3.95559
0.223309
0.223279
0.223263
0.223238
0.223336
0.228795
0.379894
3.95559
0.223309
0.223279
0.223263
0.223238
0.223336
0.228795
0.379894
3.95559
0.223309
0.223279
0.223263
0.223238
0.223336
0.228795
0.379894
3.95559
0.223309
0.223279
0.223263
0.223238
0.223336
0.228795
0.379894
3.95559
0.223309
0.223279
0.223263
0.223238
0.223336
0.228795
0.379894
3.95559
0.223309
0.223279
0.223263
0.223238
0.223336
0.228795
0.379894
3.95559
0.223309
0.223279
0.223263
0.223238
0.223336
0.228795
0.379894
3.95559
0.223309
0.223279
0.223263
0.223238
0.223336
0.228795
0.379894
3.95559
0.223309
0.223279
0.223263
0.223238
0.223336
0.228795
0.379894
3.95559
0.223309
0.223279
0.223263
0.223238
0.223336
0.228795
0.379893
3.95559
0.223309
0.223279
0.223263
0.223238
0.223336
0.228795
0.379893
3.95559
0.223309
0.223279
0.223263
0.223238
0.223336
0.228795
0.379893
3.95559
0.223309
0.223279
0.223263
0.223238
0.223336
0.228795
0.379893
3.95559
0.223309
0.223279
0.223263
0.223237
0.223336
0.228795
0.379893
3.95559
0.223309
0.223279
0.223263
0.223237
0.223336
0.228795
0.379893
3.95559
0.223309
0.223279
0.223263
0.223237
0.223336
0.228795
0.379893
3.95559
0.223309
0.223279
0.223263
0.223237
0.223336
0.228795
0.379893
3.95559
0.223309
0.223279
0.223263
0.223236
0.223336
0.228795
0.379892
3.95559
0.223309
0.223279
0.223263
0.223237
0.223336
0.228795
0.379892
3.95559
0.223309
0.223279
0.223263
0.223237
0.223336
0.228795
0.379891
3.95558
0.223308
0.223279
0.223263
0.223237
0.223336
0.228795
0.379888
3.95558
0.223308
0.223279
0.223263
0.223237
0.223336
0.228794
0.379881
3.95557
0.223308
0.223279
0.223263
0.223237
0.223336
0.228793
0.379871
3.95555
0.223309
0.223279
0.223263
0.223237
0.223336
0.228792
0.379839
3.95536
0.223309
0.223279
0.223263
0.223237
0.223336
0.228784
0.379721
3.95533
)
;

boundaryField
{
    frontAndBack
    {
        type            empty;
    }
    inlet
    {
        type            fixedValue;
        value           uniform 0.45;
    }
    outlet
    {
        type            zeroGradient;
    }
    walls
    {
        type            kqRWallFunction;
        value           nonuniform List<scalar> 
228
(
0.500273
0.597232
0.7929
0.908431
1.15376
1.30966
1.64482
1.84129
2.23539
2.49265
1.98977
2.34056
2.46016
2.63925
2.88185
3.00478
3.00968
2.81977
2.81977
4.28959
4.32592
3.43214
2.74491
2.34887
2.1536
2.07659
2.07816
2.12597
2.3039
2.65626
3.01032
3.31262
3.54256
3.70228
3.80569
3.86923
3.90679
3.9284
3.94059
3.94737
3.95112
3.95317
3.95429
3.9549
3.95522
3.9554
3.9555
3.95555
3.95557
3.95558
3.95559
3.95559
3.9556
3.9556
3.9556
3.9556
3.9556
3.9556
3.9556
3.95559
3.95559
3.95559
3.95559
3.95559
3.95559
3.95559
3.95559
3.95559
3.95559
3.95559
3.95559
3.95559
3.95559
3.95559
3.95559
3.95559
3.95559
3.95559
3.95559
3.95559
3.95559
3.95559
3.95559
3.95559
3.95559
3.95559
3.95559
3.95559
3.95559
3.95559
3.95559
3.95559
3.95559
3.95559
3.95559
3.95559
3.95559
3.95559
3.95559
3.95559
3.95559
3.95559
3.95559
3.95559
3.95559
3.95559
3.95559
3.95559
3.95559
3.95559
3.95559
3.95559
3.95558
3.95558
3.95557
3.95555
3.95536
3.95533
0.50874
0.607638
0.765909
0.927604
1.11493
1.35578
1.58841
1.87926
2.20309
2.5231
3.01529
3.53955
4.13883
4.87222
5.18445
5.16933
5.04375
4.70279
4.14962
3.65685
3.29681
3.04798
2.88963
2.81029
2.7913
2.79376
2.8068
2.82632
2.84132
2.85155
2.85796
2.86169
2.86365
2.86451
2.86483
2.86496
2.86501
2.86502
2.86503
2.86503
2.86503
2.86503
2.86503
2.86503
2.86503
2.86503
2.86503
2.86503
2.86502
2.86502
2.86502
2.86502
2.86502
2.86502
2.86502
2.86502
2.86502
2.86502
2.86502
2.86502
2.86502
2.86502
2.86502
2.86502
2.86502
2.86502
2.86502
2.86502
2.86502
2.86502
2.86502
2.86502
2.86502
2.86502
2.86502
2.86502
2.86502
2.86502
2.86502
2.86502
2.86502
2.86502
2.86502
2.86502
2.86502
2.86502
2.86502
2.86502
2.86502
2.86502
2.86502
2.86502
2.86502
2.86502
2.86502
2.86502
2.86502
2.86502
2.86502
2.86502
2.86502
2.86502
2.86502
2.86501
2.86501
2.865
2.86498
2.86492
2.86487
2.86455
)
;
    }
}


// ************************************************************************* //
