/*--------------------------------*- C++ -*----------------------------------*\
| =========                 |                                                 |
| \\      /  F ield         | OpenFOAM: The Open Source CFD Toolbox           |
|  \\    /   O peration     | Version:  v2012                                 |
|   \\  /    A nd           | Website:  www.openfoam.com                      |
|    \\/     M anipulation  |                                                 |
\*---------------------------------------------------------------------------*/
FoamFile
{
    version     2.0;
    format      ascii;
    class       volScalarField;
    location    "0.004";
    object      p;
}
// * * * * * * * * * * * * * * * * * * * * * * * * * * * * * * * * * * * * * //

dimensions      [0 2 -2 0 0 0 0];


internalField   nonuniform List<scalar> 
5600
(
13.9083
12.4111
11.1475
11.3193
11.7603
11.4557
10.9794
10.7136
10.5026
10.251
9.98965
9.73421
9.4799
9.22494
8.96987
8.71486
8.45985
8.20484
7.94983
7.69482
7.43982
7.18481
6.9298
6.67479
6.41978
6.16478
5.90977
5.65476
5.39975
5.14475
4.88974
4.63473
4.37972
4.12471
3.86969
3.61468
3.35967
3.10465
2.84964
2.59462
2.33961
2.08459
1.82958
1.57457
1.31955
1.06454
0.809524
0.554511
0.299498
0.0444852
-0.210528
-0.465542
-0.720557
-0.975573
-1.23059
-1.48561
-1.74063
-1.99565
-2.25067
-2.50569
-2.76071
-3.01573
-3.27075
-3.52577
-3.78079
-4.03581
-4.29083
-4.54585
-4.80086
-5.05588
-5.3109
-5.56592
-5.82094
-6.07596
-6.33098
-6.586
-6.84103
-7.09605
-7.35108
-7.6061
-7.86113
-8.11616
-8.37118
-8.62621
-8.88124
-9.13626
-9.39129
-9.64632
-9.90136
-10.1564
-10.4116
-10.6671
-10.9235
-11.1822
-11.4504
-11.7354
-12.1099
-12.6524
-14.0314
-18.6656
13.8462
12.3947
11.1296
11.3003
11.7339
11.4347
10.9562
10.6908
10.4798
10.2282
9.96689
9.71145
9.45714
9.20218
8.9471
8.69209
8.43709
8.18208
7.92707
7.67206
7.41705
7.16204
6.90704
6.65203
6.39702
6.14201
5.88701
5.632
5.37699
5.12198
4.86698
4.61197
4.35696
4.10194
3.84693
3.59192
3.3369
3.08189
2.82687
2.57186
2.31684
2.06183
1.80682
1.5518
1.29679
1.04177
0.786761
0.531748
0.276734
0.0217214
-0.233292
-0.488306
-0.743321
-0.998336
-1.25335
-1.50837
-1.76339
-2.01841
-2.27343
-2.52845
-2.78347
-3.03849
-3.29351
-3.54853
-3.80355
-4.05857
-4.31359
-4.56861
-4.82363
-5.07865
-5.33366
-5.58868
-5.8437
-6.09872
-6.35374
-6.60877
-6.86379
-7.11882
-7.37384
-7.62887
-7.88389
-8.13892
-8.39395
-8.64897
-8.904
-9.15903
-9.41405
-9.66908
-9.92412
-10.1792
-10.4344
-10.6898
-10.9461
-11.2047
-11.4725
-11.7566
-12.131
-12.6653
-14.039
-17.6413
13.8051
12.3899
11.1154
11.2925
11.7295
11.4294
10.9491
10.6842
10.4732
10.2216
9.96025
9.70482
9.45051
9.19555
8.94048
8.68547
8.43046
8.17545
7.92044
7.66543
7.41043
7.15542
6.90041
6.6454
6.39039
6.13539
5.88038
5.62537
5.37036
5.11536
4.86035
4.60534
4.35033
4.09532
3.8403
3.58529
3.33028
3.07526
2.82025
2.56523
2.31022
2.0552
1.80019
1.54518
1.29016
1.03515
0.780134
0.525121
0.270107
0.0150948
-0.239918
-0.494932
-0.749947
-1.00496
-1.25998
-1.515
-1.77002
-2.02504
-2.28006
-2.53508
-2.7901
-3.04512
-3.30014
-3.55516
-3.81018
-4.0652
-4.32022
-4.57524
-4.83025
-5.08527
-5.34029
-5.59531
-5.85033
-6.10535
-6.36037
-6.61539
-6.87042
-7.12544
-7.38047
-7.63549
-7.89052
-8.14555
-8.40057
-8.6556
-8.91063
-9.16565
-9.42068
-9.67571
-9.93075
-10.1858
-10.441
-10.6965
-10.9529
-11.2116
-11.4798
-11.7642
-12.1363
-12.6665
-13.963
-17.0042
13.7597
12.3778
11.0956
11.2749
11.7058
11.4115
10.9284
10.663
10.4526
10.201
9.93953
9.68409
9.4298
9.17483
8.91976
8.66475
8.40974
8.15473
7.89972
7.64472
7.38971
7.1347
6.87969
6.62468
6.36968
6.11467
5.85966
5.60465
5.34965
5.09464
4.83963
4.58462
4.32961
4.0746
3.81959
3.56457
3.30956
3.05454
2.79953
2.54451
2.2895
2.03448
1.77947
1.52446
1.26944
1.01443
0.759415
0.504402
0.249389
-0.00562363
-0.260637
-0.515651
-0.770666
-1.02568
-1.2807
-1.53572
-1.79073
-2.04576
-2.30078
-2.5558
-2.81082
-3.06584
-3.32086
-3.57588
-3.8309
-4.08592
-4.34094
-4.59595
-4.85097
-5.10599
-5.36101
-5.61603
-5.87105
-6.12607
-6.38109
-6.63611
-6.89114
-7.14616
-7.40119
-7.65621
-7.91124
-8.16626
-8.42129
-8.67632
-8.93134
-9.18637
-9.4414
-9.69643
-9.95146
-10.2065
-10.4617
-10.7171
-10.9733
-11.2315
-11.4984
-11.7805
-12.1478
-12.6543
-13.878
-16.2696
13.7134
12.3652
11.0758
11.2568
11.6952
11.3984
10.9136
10.6485
10.4384
10.1867
9.92527
9.66984
9.41555
9.16058
8.90551
8.6505
8.39549
8.14048
7.88547
7.63047
7.37546
7.12045
6.86544
6.61043
6.35543
6.10042
5.84541
5.5904
5.3354
5.08039
4.82538
4.57037
4.31536
4.06035
3.80534
3.55032
3.29531
3.04029
2.78528
2.53026
2.27525
2.02023
1.76522
1.51021
1.25519
1.00018
0.745165
0.490152
0.235139
-0.0198741
-0.274887
-0.529901
-0.784916
-1.03993
-1.29495
-1.54997
-1.80499
-2.06001
-2.31503
-2.57005
-2.82507
-3.08009
-3.33511
-3.59013
-3.84515
-4.10017
-4.35519
-4.61021
-4.86522
-5.12024
-5.37526
-5.63028
-5.8853
-6.14032
-6.39534
-6.65036
-6.90539
-7.16041
-7.41544
-7.67046
-7.92549
-8.18052
-8.43554
-8.69057
-8.94559
-9.20062
-9.45565
-9.71068
-9.96571
-10.2208
-10.4759
-10.7314
-10.9877
-11.2459
-11.5128
-11.7936
-12.1544
-12.6341
-13.7499
-15.5466
13.667
12.3508
11.0538
11.2347
11.6739
11.3803
10.893
10.6271
10.4177
10.1661
9.90452
9.64908
9.3948
9.13983
8.88476
8.62975
8.37474
8.11973
7.86472
7.60971
7.35471
7.0997
6.84469
6.58968
6.33467
6.07967
5.82466
5.56965
5.31464
5.05964
4.80463
4.54962
4.29461
4.0396
3.78458
3.52957
3.27456
3.01954
2.76453
2.50951
2.2545
1.99948
1.74447
1.48946
1.23444
0.979428
0.724414
0.469401
0.214387
-0.0406251
-0.295638
-0.550653
-0.805668
-1.06068
-1.3157
-1.57072
-1.82574
-2.08076
-2.33578
-2.5908
-2.84582
-3.10084
-3.35586
-3.61088
-3.8659
-4.12092
-4.37594
-4.63096
-4.88597
-5.14099
-5.39601
-5.65103
-5.90605
-6.16107
-6.41609
-6.67111
-6.92614
-7.18116
-7.43619
-7.69121
-7.94624
-8.20127
-8.45629
-8.71132
-8.96635
-9.22137
-9.4764
-9.73143
-9.98646
-10.2415
-10.4967
-10.752
-11.0081
-11.2658
-11.5312
-11.8088
-12.1594
-12.6041
-13.5856
-14.8423
13.6212
12.334
11.0299
11.2099
11.6553
11.3616
10.872
10.6057
10.3971
10.1454
9.88374
9.6283
9.37404
9.11907
8.864
8.60898
8.35398
8.09897
7.84396
7.58895
7.33394
7.07894
6.82393
6.56892
6.31391
6.05891
5.8039
5.54889
5.29388
5.03887
4.78387
4.52886
4.27385
4.01883
3.76382
3.50881
3.25379
2.99878
2.74376
2.48875
2.23373
1.97872
1.72371
1.46869
1.21368
0.958666
0.703651
0.448638
0.193625
-0.0613879
-0.316401
-0.571415
-0.82643
-1.08145
-1.33646
-1.59148
-1.8465
-2.10152
-2.35654
-2.61156
-2.86658
-3.1216
-3.37662
-3.63164
-3.88666
-4.14168
-4.3967
-4.65172
-4.90674
-5.16175
-5.41677
-5.67179
-5.92681
-6.18183
-6.43685
-6.69188
-6.9469
-7.20192
-7.45695
-7.71198
-7.967
-8.22203
-8.47706
-8.73208
-8.98711
-9.24213
-9.49716
-9.75219
-10.0072
-10.2623
-10.5174
-10.7727
-11.0287
-11.2861
-11.5502
-11.8242
-12.1612
-12.5633
-13.3876
-14.1546
13.5772
12.3146
11.004
11.1824
11.6337
11.3401
10.8484
10.5815
10.3736
10.1219
9.86016
9.60472
9.35047
9.0955
8.84042
8.58541
8.33041
8.0754
7.82039
7.56538
7.31037
7.05536
6.80036
6.54535
6.29034
6.03533
5.78033
5.52532
5.27031
5.0153
4.7603
4.50529
4.25027
3.99526
3.74025
3.48524
3.23022
2.97521
2.72019
2.46518
2.21016
1.95515
1.70014
1.44512
1.19011
0.935094
0.68008
0.425067
0.170054
-0.0849589
-0.339972
-0.594987
-0.850002
-1.10502
-1.36003
-1.61505
-1.87007
-2.12509
-2.38011
-2.63513
-2.89015
-3.14517
-3.40019
-3.65521
-3.91023
-4.16525
-4.42027
-4.67529
-4.93031
-5.18533
-5.44035
-5.69537
-5.95039
-6.2054
-6.46043
-6.71545
-6.97047
-7.2255
-7.48052
-7.73555
-7.99057
-8.2456
-8.50063
-8.75565
-9.01068
-9.26571
-9.52073
-9.77576
-10.0308
-10.2858
-10.5409
-10.7962
-11.052
-11.3088
-11.5711
-11.8402
-12.1597
-12.5117
-13.1606
-13.4896
13.5361
12.292
10.9761
11.1528
11.6093
11.3158
10.8223
10.5549
10.3476
10.0959
9.83411
9.57867
9.32442
9.06946
8.81438
8.55937
8.30436
8.04935
7.79434
7.53933
7.28433
7.02932
6.77431
6.5193
6.26429
6.00929
5.75428
5.49927
5.24426
4.98926
4.73425
4.47924
4.22423
3.96922
3.7142
3.45919
3.20418
2.94916
2.69415
2.43913
2.18412
1.9291
1.67409
1.41908
1.16406
0.909048
0.654034
0.399021
0.144008
-0.111005
-0.366018
-0.621033
-0.876048
-1.13106
-1.38608
-1.6411
-1.89612
-2.15114
-2.40616
-2.66118
-2.9162
-3.17122
-3.42624
-3.68126
-3.93628
-4.1913
-4.44632
-4.70134
-4.95635
-5.21137
-5.46639
-5.72141
-5.97643
-6.23145
-6.48647
-6.74149
-6.99652
-7.25154
-7.50657
-7.76159
-8.01662
-8.27165
-8.52667
-8.7817
-9.03673
-9.29175
-9.54678
-9.8018
-10.0568
-10.3119
-10.5669
-10.8221
-11.0776
-11.3338
-11.5938
-11.8569
-12.155
-12.4504
-12.9119
-12.8533
13.4996
12.2657
10.9461
11.1216
11.5815
11.2881
10.7934
10.5258
10.3188
10.0671
9.80527
9.54982
9.29558
9.04062
8.78554
8.53053
8.27552
8.02051
7.7655
7.5105
7.25549
7.00048
6.74547
6.49046
6.23546
5.98045
5.72544
5.47043
5.21543
4.96042
4.70541
4.4504
4.19539
3.94038
3.68536
3.43035
3.17534
2.92032
2.66531
2.41029
2.15528
1.90026
1.64525
1.39024
1.13522
0.880209
0.625195
0.370182
0.115169
-0.139844
-0.394858
-0.649872
-0.904887
-1.1599
-1.41492
-1.66994
-1.92496
-2.17998
-2.435
-2.69002
-2.94504
-3.20006
-3.45508
-3.7101
-3.96512
-4.22014
-4.47516
-4.73017
-4.98519
-5.24021
-5.49523
-5.75025
-6.00527
-6.26029
-6.51531
-6.77033
-7.02536
-7.28038
-7.53541
-7.79043
-8.04546
-8.30049
-8.55551
-8.81054
-9.06556
-9.32059
-9.57562
-9.83064
-10.0857
-10.3407
-10.5957
-10.8508
-11.106
-11.3614
-11.6187
-11.8745
-12.148
-12.3816
-12.6517
-12.253
13.4717
12.2362
10.9158
11.0914
11.5513
11.2577
10.7631
10.4954
10.2885
10.0368
9.77496
9.51951
9.26528
9.01031
8.75523
8.50022
8.24522
7.99021
7.7352
7.48019
7.22518
6.97017
6.71516
6.46016
6.20515
5.95014
5.69514
5.44013
5.18512
4.93011
4.6751
4.42009
4.16508
3.91007
3.65506
3.40005
3.14503
2.89002
2.635
2.37999
2.12497
1.86996
1.61494
1.35993
1.10492
0.849904
0.594889
0.339876
0.084863
-0.17015
-0.425164
-0.680178
-0.935193
-1.19021
-1.44523
-1.70024
-1.95526
-2.21028
-2.4653
-2.72032
-2.97534
-3.23036
-3.48538
-3.7404
-3.99542
-4.25044
-4.50546
-4.76048
-5.0155
-5.27052
-5.52554
-5.78056
-6.03558
-6.2906
-6.54562
-6.80064
-7.05566
-7.31069
-7.56571
-7.82074
-8.07576
-8.33079
-8.58582
-8.84084
-9.09587
-9.3509
-9.60592
-9.86094
-10.116
-10.371
-10.626
-10.881
-11.1359
-11.3903
-11.6447
-11.8927
-12.1404
-12.3129
-12.406
-11.7287
13.4551
12.2065
10.888
11.0651
11.5214
11.2276
10.7343
10.4669
10.2596
10.0079
9.74613
9.49068
9.23644
8.98147
8.7264
8.47138
8.21638
7.96137
7.70636
7.45135
7.19634
6.94133
6.68632
6.43132
6.17631
5.9213
5.6663
5.41129
5.15628
4.90127
4.64627
4.39126
4.13624
3.88123
3.62622
3.37121
3.11619
2.86118
2.60616
2.35115
2.09613
1.84112
1.58611
1.33109
1.07608
0.821065
0.56605
0.311037
0.056024
-0.198989
-0.454003
-0.709017
-0.964033
-1.21905
-1.47406
-1.72908
-1.9841
-2.23912
-2.49414
-2.74916
-3.00418
-3.2592
-3.51422
-3.76924
-4.02426
-4.27928
-4.5343
-4.78932
-5.04434
-5.29936
-5.55438
-5.8094
-6.06441
-6.31943
-6.57446
-6.82948
-7.0845
-7.33953
-7.59455
-7.84958
-8.1046
-8.35963
-8.61466
-8.86968
-9.12471
-9.37974
-9.63476
-9.88978
-10.1448
-10.3998
-10.6548
-10.9097
-11.1643
-11.4178
-11.6695
-11.9103
-12.1352
-12.2551
-12.2052
-11.3216
13.4484
12.1785
10.8637
11.0428
11.4938
11.1997
10.7083
10.4414
10.2335
9.9818
9.72009
9.46464
9.21039
8.95543
8.70035
8.44534
8.19033
7.93532
7.68031
7.4253
7.1703
6.91529
6.66028
6.40527
6.15026
5.89526
5.64025
5.38524
5.13024
4.87523
4.62022
4.36521
4.1102
3.85519
3.60017
3.34516
3.09015
2.83513
2.58012
2.3251
2.07009
1.81507
1.56006
1.30505
1.05003
0.795018
0.540004
0.284991
0.0299779
-0.225035
-0.480049
-0.735064
-0.990079
-1.24509
-1.50011
-1.75513
-2.01015
-2.26517
-2.52019
-2.77521
-3.03023
-3.28525
-3.54027
-3.79529
-4.05031
-4.30533
-4.56035
-4.81537
-5.07038
-5.3254
-5.58042
-5.83544
-6.09046
-6.34548
-6.6005
-6.85552
-7.11055
-7.36557
-7.6206
-7.87562
-8.13065
-8.38568
-8.6407
-8.89573
-9.15076
-9.40578
-9.66081
-9.91583
-10.1708
-10.4258
-10.6808
-10.9356
-11.19
-11.4428
-11.6922
-11.927
-12.1333
-12.2116
-12.0537
-11.0234
13.4495
12.152
10.8424
11.0233
11.4685
11.1735
10.6846
10.4184
10.2099
9.95814
9.69652
9.44108
9.18682
8.93185
8.67678
8.42177
8.16676
7.91175
7.65674
7.40173
7.14673
6.89172
6.63671
6.3817
6.1267
5.87169
5.61668
5.36167
5.10667
4.85166
4.59665
4.34164
4.08663
3.83162
3.5766
3.32159
3.06658
2.81156
2.55655
2.30153
2.04652
1.7915
1.53649
1.28148
1.02646
0.771449
0.516435
0.261422
0.00640817
-0.248605
-0.503619
-0.758634
-1.01365
-1.26866
-1.52368
-1.7787
-2.03372
-2.28874
-2.54376
-2.79878
-3.0538
-3.30882
-3.56384
-3.81886
-4.07388
-4.3289
-4.58392
-4.83894
-5.09395
-5.34897
-5.60399
-5.85901
-6.11403
-6.36905
-6.62407
-6.87909
-7.13412
-7.38914
-7.64417
-7.89919
-8.15422
-8.40925
-8.66427
-8.9193
-9.17433
-9.42935
-9.68437
-9.9394
-10.1944
-10.4494
-10.7043
-10.9591
-11.2132
-11.4655
-11.7131
-11.943
-12.1347
-12.181
-11.9428
-10.8075
13.4566
12.1271
10.8237
11.0058
11.4455
11.1515
10.6644
10.3983
10.189
9.93729
9.67577
9.42033
9.16605
8.91109
8.65601
8.401
8.14599
7.89098
7.63597
7.38097
7.12596
6.87095
6.61594
6.36093
6.10593
5.85092
5.59591
5.34091
5.0859
4.83089
4.57588
4.32087
4.06586
3.81085
3.55584
3.30082
3.04581
2.79079
2.53578
2.28077
2.02575
1.77074
1.51572
1.26071
1.00569
0.750681
0.495666
0.240654
-0.0143598
-0.269373
-0.524387
-0.779402
-1.03442
-1.28943
-1.54445
-1.79947
-2.05449
-2.3095
-2.56452
-2.81954
-3.07457
-3.32959
-3.58461
-3.83963
-4.09465
-4.34967
-4.60468
-4.8597
-5.11472
-5.36974
-5.62476
-5.87978
-6.1348
-6.38982
-6.64484
-6.89986
-7.15489
-7.40991
-7.66494
-7.91996
-8.17499
-8.43001
-8.68504
-8.94007
-9.19509
-9.45012
-9.70514
-9.96016
-10.2152
-10.4702
-10.7251
-10.9798
-11.2339
-11.4858
-11.7321
-11.9583
-12.1391
-12.1613
-11.8644
-10.6541
13.4683
12.1038
10.8072
10.9894
11.4247
11.1267
10.6433
10.3782
10.1682
9.91645
9.65503
9.39959
9.14531
8.89034
8.63527
8.38026
8.12525
7.87024
7.61523
7.36022
7.10521
6.85021
6.5952
6.34019
6.08518
5.83018
5.57517
5.32016
5.06515
4.81015
4.55514
4.30013
4.04512
3.7901
3.53509
3.28008
3.02507
2.77005
2.51504
2.26002
2.00501
1.74999
1.49498
1.23997
0.984951
0.729938
0.474924
0.219911
-0.0351026
-0.290116
-0.54513
-0.800145
-1.05516
-1.31018
-1.56519
-1.82021
-2.07523
-2.33025
-2.58527
-2.84029
-3.09531
-3.35033
-3.60535
-3.86037
-4.11539
-4.37041
-4.62543
-4.88045
-5.13546
-5.39048
-5.6455
-5.90052
-6.15554
-6.41056
-6.66558
-6.92061
-7.17563
-7.43065
-7.68568
-7.9407
-8.19573
-8.45076
-8.70578
-8.96081
-9.21584
-9.47086
-9.72589
-9.9809
-10.2359
-10.4909
-10.7458
-11.0004
-11.2542
-11.5055
-11.7504
-11.9735
-12.146
-12.1505
-11.8118
-10.5485
13.4835
12.0821
10.7927
10.9733
11.4075
11.1122
10.6297
10.3641
10.1538
9.90217
9.64078
9.38534
9.13105
8.87608
8.62101
8.366
8.11099
7.85598
7.60097
7.34596
7.09095
6.83595
6.58094
6.32593
6.07092
5.81592
5.56091
5.3059
5.05089
4.79589
4.54088
4.28587
4.03086
3.77584
3.52083
3.26582
3.01081
2.75579
2.50078
2.24576
1.99075
1.73573
1.48072
1.2257
0.970691
0.715677
0.460663
0.20565
-0.049363
-0.304376
-0.55939
-0.814405
-1.06942
-1.32444
-1.57945
-1.83447
-2.08949
-2.34451
-2.59953
-2.85455
-3.10957
-3.36459
-3.61961
-3.87463
-4.12965
-4.38467
-4.63969
-4.89471
-5.14972
-5.40474
-5.65976
-5.91478
-6.1698
-6.42482
-6.67984
-6.93487
-7.18989
-7.44491
-7.69994
-7.95496
-8.20999
-8.46502
-8.72004
-8.97507
-9.2301
-9.48512
-9.74015
-9.99516
-10.2502
-10.5052
-10.7601
-11.0147
-11.2686
-11.52
-11.7648
-11.9866
-12.154
-12.1465
-11.7788
-10.4788
13.501
12.0622
10.7802
10.9571
11.3893
11.0875
10.609
10.344
10.1331
9.88137
9.62008
9.36464
9.11034
8.85537
8.6003
8.34529
8.09028
7.83527
7.58026
7.32526
7.07025
6.81524
6.56023
6.30522
6.05022
5.79521
5.5402
5.2852
5.03019
4.77518
4.52017
4.26516
4.01015
3.75514
3.50013
3.24511
2.9901
2.73509
2.48007
2.22506
1.97004
1.71503
1.46001
1.205
0.949985
0.694971
0.439957
0.184944
-0.0700691
-0.325082
-0.580096
-0.835111
-1.09013
-1.34514
-1.60016
-1.85518
-2.11019
-2.36521
-2.62023
-2.87525
-3.13027
-3.3853
-3.64032
-3.89534
-4.15036
-4.40538
-4.66039
-4.91541
-5.17043
-5.42545
-5.68047
-5.93549
-6.19051
-6.44553
-6.70055
-6.95557
-7.2106
-7.46562
-7.72064
-7.97567
-8.2307
-8.48572
-8.74075
-8.99578
-9.2508
-9.50583
-9.76085
-10.0159
-10.2709
-10.5259
-10.7807
-11.0353
-11.289
-11.5399
-11.7834
-12.0029
-12.1655
-12.1493
-11.7623
-10.4379
13.5194
12.0412
10.7707
10.9446
11.3807
11.0806
10.6028
10.3373
10.1264
9.87475
9.61344
9.358
9.1037
8.84874
8.59366
8.33865
8.08365
7.82864
7.57363
7.31862
7.06361
6.8086
6.55359
6.29859
6.04358
5.78857
5.53357
5.27856
5.02355
4.76854
4.51353
4.25852
4.00351
3.7485
3.49349
3.23847
2.98346
2.72845
2.47343
2.21842
1.9634
1.70839
1.45337
1.19836
0.943347
0.688333
0.433319
0.178306
-0.0767074
-0.331721
-0.586735
-0.841749
-1.09676
-1.35178
-1.6068
-1.86181
-2.11683
-2.37185
-2.62687
-2.88189
-3.13691
-3.39193
-3.64696
-3.90198
-4.15699
-4.41201
-4.66703
-4.92205
-5.17707
-5.43209
-5.68711
-5.94213
-6.19715
-6.45217
-6.70719
-6.96221
-7.21723
-7.47226
-7.72728
-7.98231
-8.23734
-8.49236
-8.74739
-9.00241
-9.25744
-9.51247
-9.76749
-10.0225
-10.2775
-10.5325
-10.7874
-11.042
-11.2958
-11.5468
-11.7907
-12.0104
-12.1722
-12.1522
-11.7557
-10.4192
13.551
12.021
10.7493
10.9213
11.3614
11.055
10.5805
10.3146
10.1037
9.85196
9.59069
9.33525
9.08094
8.82598
8.57091
8.31589
8.06089
7.80588
7.55087
7.29586
7.04085
6.78584
6.53083
6.27583
6.02082
5.76581
5.51081
5.2558
5.00079
4.74578
4.49077
4.23576
3.98075
3.72574
3.47073
3.21572
2.9607
2.70569
2.45067
2.19566
1.94064
1.68563
1.43062
1.1756
0.920588
0.665574
0.41056
0.155547
-0.0994663
-0.35448
-0.609494
-0.864508
-1.11952
-1.37454
-1.62956
-1.88457
-2.13959
-2.39461
-2.64963
-2.90465
-3.15967
-3.41469
-3.66971
-3.92473
-4.17975
-4.43477
-4.68979
-4.94481
-5.19983
-5.45485
-5.70987
-5.96489
-6.21991
-6.47493
-6.72995
-6.98497
-7.23999
-7.49502
-7.75004
-8.00507
-8.26009
-8.51512
-8.77015
-9.02517
-9.2802
-9.53523
-9.79025
-10.0453
-10.3003
-10.5553
-10.8101
-11.0647
-11.3184
-11.5693
-11.8128
-12.0317
-12.1919
-12.1698
-11.7694
-10.43
-30.269
-1.83384
4.17473
6.20053
6.48477
6.34102
6.205
6.08793
5.99089
5.9089
5.83425
5.76398
5.69647
5.63041
5.56511
5.50023
5.43558
5.37105
5.3066
5.24217
5.17778
5.11339
5.049
4.98463
4.92025
4.85588
4.7915
4.72713
4.66275
4.59838
4.534
4.46963
4.40526
4.34089
4.27652
4.21215
4.14779
4.08342
4.01906
3.95469
3.89033
3.82596
3.76159
3.69723
3.63287
3.5685
3.50414
3.43978
3.37542
3.31106
3.2467
3.18234
3.11799
3.05363
2.98927
2.92492
2.86056
2.7962
2.73185
2.66749
2.60314
2.53878
2.47443
2.41008
2.34573
2.28139
2.21704
2.15269
2.08834
2.02399
1.95964
1.89529
1.83095
1.76661
1.70226
1.63791
1.57357
1.50923
1.44489
1.38055
1.31621
1.25187
1.18753
1.12319
1.05885
0.994508
0.930162
0.865811
0.80145
0.737069
0.672648
0.608152
0.543514
0.478607
0.413187
0.346809
0.278613
0.207342
0.129971
0.048224
-27.8212
-2.1425
3.98812
5.97662
6.33979
6.26108
6.15764
6.05697
5.96852
5.89105
5.81877
5.74975
5.68291
5.61722
5.55211
5.48733
5.42274
5.35824
5.2938
5.22939
5.165
5.10061
5.03623
4.97185
4.90748
4.8431
4.77873
4.71435
4.64998
4.58561
4.52123
4.45686
4.39249
4.32812
4.26375
4.19938
4.13501
4.07065
4.00628
3.94192
3.87755
3.81319
3.74882
3.68446
3.62009
3.55573
3.49136
3.427
3.36264
3.29828
3.23393
3.16957
3.10521
3.04086
2.9765
2.91215
2.84779
2.78343
2.71907
2.65472
2.59037
2.52601
2.46166
2.39731
2.33296
2.26861
2.20426
2.13992
2.07557
2.01122
1.94687
1.88252
1.81818
1.75383
1.68949
1.62514
1.5608
1.49646
1.43212
1.36778
1.30344
1.2391
1.17476
1.11042
1.04608
0.981736
0.917393
0.853044
0.788688
0.724316
0.659914
0.595452
0.530878
0.466091
0.4009
0.334948
0.267557
0.197728
0.123068
0.0449124
-25.3725
-2.49548
3.80864
5.74145
6.18509
6.17443
6.1056
6.0227
5.94371
5.87124
5.8016
5.73399
5.6679
5.60261
5.53772
5.47306
5.40853
5.34406
5.27964
5.21524
5.15085
5.08647
5.02209
4.95771
4.89334
4.82896
4.76459
4.70021
4.63584
4.57146
4.50709
4.44272
4.37835
4.31398
4.24961
4.18524
4.12087
4.05651
3.99214
3.92778
3.86341
3.79905
3.73468
3.67032
3.60595
3.54159
3.47722
3.41286
3.3485
3.28414
3.21978
3.15543
3.09107
3.02671
2.96236
2.898
2.83365
2.76929
2.70493
2.64058
2.57622
2.51187
2.44752
2.38317
2.31882
2.25447
2.19012
2.12578
2.06143
1.99708
1.93273
1.86838
1.80404
1.73969
1.67535
1.611
1.54666
1.48231
1.41798
1.35364
1.2893
1.22496
1.16062
1.09628
1.03194
0.967597
0.903255
0.838909
0.774559
0.710198
0.645816
0.581392
0.51689
0.452239
0.387303
0.32183
0.255341
0.187125
0.115478
0.0413054
-22.85
-2.8162
3.62598
5.49477
6.02091
6.0812
6.04884
5.98495
5.91628
5.84932
5.78259
5.71653
5.65128
5.58643
5.52179
5.45725
5.39279
5.32836
5.26396
5.19957
5.13519
5.07081
5.00643
4.94205
4.87768
4.8133
4.74893
4.68456
4.62018
4.55581
4.49143
4.42706
4.36269
4.29832
4.23395
4.16958
4.10522
4.04085
3.97649
3.91212
3.84776
3.78339
3.71902
3.65466
3.59029
3.52593
3.46157
3.39721
3.33285
3.26849
3.20413
3.13977
3.07542
3.01106
2.9467
2.88235
2.81799
2.75363
2.68928
2.62492
2.56057
2.49621
2.43186
2.36751
2.30316
2.23881
2.17447
2.11012
2.04577
1.98142
1.91707
1.85272
1.78838
1.72403
1.65969
1.59534
1.531
1.46666
1.40232
1.33798
1.27364
1.2093
1.14496
1.08062
1.01628
0.951941
0.887601
0.823259
0.758915
0.694566
0.630207
0.565826
0.501404
0.436904
0.372253
0.307315
0.241832
0.175414
0.107101
0.0373543
-20.4794
-3.11783
3.43626
5.24021
5.84787
5.9811
5.98705
5.94346
5.88598
5.82506
5.76154
5.6972
5.63287
5.56853
5.50414
5.43975
5.37537
5.31098
5.2466
5.18222
5.11784
5.05347
4.98909
4.92472
4.86034
4.79597
4.7316
4.66722
4.60285
4.53847
4.4741
4.40973
4.34535
4.28098
4.21662
4.15225
4.08788
4.02352
3.95915
3.89478
3.83042
3.76605
3.70169
3.63732
3.57296
3.50859
3.44423
3.37987
3.31551
3.25115
3.18679
3.12244
3.05808
2.99372
2.92937
2.86501
2.80065
2.7363
2.67194
2.60759
2.54323
2.47888
2.41453
2.35018
2.28583
2.22148
2.15713
2.09278
2.02844
1.96409
1.89974
1.83539
1.77104
1.7067
1.64235
1.57801
1.51366
1.44932
1.38498
1.32065
1.25631
1.19196
1.12762
1.06329
0.998948
0.934609
0.87027
0.805932
0.741596
0.67726
0.612925
0.548591
0.484259
0.419927
0.355594
0.29125
0.226884
0.162463
0.0978356
0.0330094
-18.2292
-3.35798
3.23783
4.98161
5.6667
5.87403
5.92009
5.89803
5.85263
5.79827
5.73827
5.67581
5.6125
5.5487
5.48461
5.42038
5.35607
5.29174
5.22738
5.16301
5.09864
5.03427
4.9699
4.90552
4.84115
4.77678
4.7124
4.64803
4.58365
4.51928
4.45491
4.39053
4.32616
4.26179
4.19742
4.13306
4.06869
4.00432
3.93996
3.87559
3.81123
3.74686
3.68249
3.61813
3.55377
3.4894
3.42504
3.36068
3.29632
3.23196
3.1676
3.10324
3.03889
2.97453
2.91017
2.84582
2.78146
2.7171
2.65275
2.58839
2.52404
2.45968
2.39533
2.33098
2.26664
2.20229
2.13794
2.07359
2.00924
1.94489
1.88055
1.8162
1.75185
1.68751
1.62316
1.55882
1.49447
1.43013
1.36579
1.30145
1.23711
1.17277
1.10843
1.04409
0.979756
0.915418
0.851082
0.786748
0.722419
0.658098
0.593791
0.52951
0.465276
0.40113
0.337147
0.27346
0.21033
0.148117
0.0875609
0.0282016
-16.1629
-3.5437
3.02077
4.72326
5.47915
5.76037
5.84797
5.84854
5.81604
5.76876
5.71256
5.65217
5.58996
5.52676
5.46299
5.39893
5.33472
5.27043
5.2061
5.14175
5.07738
5.01302
4.94864
4.88427
4.8199
4.75552
4.69115
4.62678
4.5624
4.49803
4.43366
4.36928
4.30491
4.24054
4.17617
4.11181
4.04744
3.98307
3.91871
3.85434
3.78998
3.72561
3.66124
3.59688
3.53252
3.46815
3.40379
3.33943
3.27507
3.21071
3.14635
3.08199
3.01764
2.95328
2.88892
2.82457
2.76021
2.69585
2.6315
2.56714
2.50279
2.43844
2.37408
2.30973
2.24539
2.18104
2.11669
2.05234
1.98799
1.92364
1.8593
1.79495
1.7306
1.66626
1.60191
1.53757
1.47322
1.40888
1.34454
1.2802
1.21586
1.15152
1.08718
1.02284
0.958507
0.894171
0.829837
0.765508
0.701188
0.636883
0.572606
0.508382
0.444257
0.380315
0.316716
0.253749
0.191973
0.132189
0.0761235
0.0228311
-14.2985
-3.6543
2.78528
4.47085
5.28733
5.64076
5.77084
5.79498
5.7761
5.73634
5.68422
5.62605
5.56505
5.50248
5.43906
5.37519
5.31107
5.24684
5.18254
5.1182
5.05385
4.98948
4.92511
4.86074
4.79637
4.732
4.66762
4.60325
4.53888
4.4745
4.41013
4.34576
4.28138
4.21701
4.15265
4.08828
4.02391
3.95955
3.89518
3.83081
3.76645
3.70208
3.63772
3.57335
3.50899
3.44462
3.38026
3.3159
3.25154
3.18718
3.12282
3.05847
2.99411
2.92975
2.8654
2.80104
2.73668
2.67233
2.60797
2.54362
2.47926
2.41491
2.35056
2.28621
2.22186
2.15751
2.09316
2.02881
1.96447
1.90012
1.83577
1.77142
1.70707
1.64273
1.57838
1.51404
1.44969
1.38535
1.32101
1.25667
1.19233
1.12799
1.06366
0.999318
0.934981
0.870646
0.806315
0.741991
0.67768
0.613393
0.549149
0.484987
0.420979
0.357258
0.294075
0.231889
0.171586
0.114449
0.0633237
0.0167516
-12.6527
-3.68911
2.52793
4.22983
5.094
5.51634
5.68918
5.73753
5.73277
5.70087
5.65306
5.59725
5.53752
5.47564
5.41258
5.34891
5.2849
5.22072
5.15645
5.09213
5.02779
4.96343
4.89906
4.83469
4.77032
4.70595
4.64157
4.5772
4.51283
4.44845
4.38408
4.31971
4.25534
4.19097
4.1266
4.06223
3.99786
3.9335
3.86913
3.80476
3.7404
3.67603
3.61167
3.5473
3.48294
3.41858
3.35421
3.28985
3.22549
3.16113
3.09677
3.03242
2.96806
2.9037
2.83935
2.77499
2.71063
2.64628
2.58192
2.51757
2.45321
2.38886
2.32451
2.26016
2.19581
2.13146
2.06711
2.00276
1.93842
1.87407
1.80972
1.74537
1.68102
1.61668
1.55233
1.48799
1.42365
1.3593
1.29496
1.23063
1.16629
1.10195
1.03761
0.97327
0.908934
0.8446
0.780272
0.715953
0.651652
0.587383
0.523175
0.459079
0.395196
0.331711
0.268973
0.207621
0.148897
0.0946085
0.0488953
0.00974434
-11.2388
-3.66153
2.24814
4.00131
4.90176
5.38853
5.6037
5.67652
5.68615
5.66227
5.6189
5.56555
5.50714
5.44597
5.3833
5.31983
5.25593
5.19181
5.12758
5.06327
4.99894
4.93458
4.87022
4.80585
4.74148
4.67711
4.61273
4.54836
4.48399
4.41961
4.35524
4.29087
4.22649
4.16212
4.09776
4.03339
3.96902
3.90466
3.84029
3.77592
3.71156
3.64719
3.58283
3.51846
3.4541
3.38974
3.32537
3.26101
3.19665
3.13229
3.06793
3.00358
2.93922
2.87486
2.81051
2.74615
2.68179
2.61744
2.55308
2.48873
2.42437
2.36002
2.29567
2.23132
2.16697
2.10262
2.03827
1.97392
1.90958
1.84523
1.78088
1.71653
1.65218
1.58784
1.52349
1.45915
1.39481
1.33046
1.26612
1.20178
1.13745
1.07311
1.00877
0.94443
0.880095
0.815763
0.751437
0.687124
0.622834
0.558584
0.494412
0.430386
0.366634
0.303394
0.241121
0.180642
0.123576
0.0722996
0.0324779
0.0014748
-10.1188
-3.58357
1.97288
3.79514
4.72347
5.26604
5.52002
5.61584
5.63896
5.62263
5.5835
5.53249
5.47535
5.41487
5.35256
5.28929
5.2255
5.16144
5.09723
5.03295
4.96862
4.90427
4.83991
4.77554
4.71117
4.6468
4.58243
4.51805
4.45368
4.38931
4.32493
4.26056
4.19619
4.13182
4.06745
4.00308
3.93871
3.87435
3.80998
3.74562
3.68125
3.61689
3.55252
3.48816
3.42379
3.35943
3.29507
3.2307
3.16634
3.10198
3.03763
2.97327
2.90891
2.84456
2.7802
2.71584
2.65149
2.58713
2.52278
2.45842
2.39407
2.32971
2.26536
2.20101
2.13666
2.07231
2.00796
1.94362
1.87927
1.81492
1.75057
1.68622
1.62188
1.55753
1.49319
1.42884
1.3645
1.30016
1.23582
1.17148
1.10714
1.0428
0.97846
0.914123
0.849789
0.785458
0.721136
0.656828
0.592547
0.528317
0.46418
0.40022
0.336593
0.27359
0.211764
0.152124
0.0966659
0.0483288
0.0145245
-0.00807518
-9.32096
-3.4899
1.73719
3.62441
4.57552
5.16117
5.44677
5.56175
5.59602
5.58593
5.55036
5.50134
5.44526
5.38535
5.32336
5.26025
5.19656
5.13254
5.06836
5.00409
4.93977
4.87542
4.81106
4.7467
4.68233
4.61796
4.55358
4.48921
4.42484
4.36047
4.29609
4.23172
4.16735
4.10298
4.03861
3.97424
3.90987
3.84551
3.78114
3.71678
3.65241
3.58805
3.52368
3.45931
3.39495
3.33059
3.26622
3.20186
3.1375
3.07314
3.00879
2.94443
2.88007
2.81571
2.75136
2.687
2.62265
2.55829
2.49393
2.42958
2.36522
2.30087
2.23652
2.17217
2.10782
2.04347
1.97912
1.91477
1.85043
1.78608
1.72173
1.65738
1.59304
1.52869
1.46435
1.4
1.33566
1.27132
1.20698
1.14264
1.0783
1.01396
0.94962
0.885283
0.820949
0.75662
0.6923
0.627996
0.563724
0.49951
0.435402
0.371499
0.307978
0.245175
0.183725
0.124794
0.0707073
0.0248875
-0.00342988
-0.0183138
-8.77251
-3.40564
1.55
3.48897
4.45912
5.07632
5.38621
5.51613
5.55899
5.55373
5.52093
5.47347
5.41823
5.35878
5.29703
5.23405
5.17042
5.10645
5.04229
4.97803
4.91371
4.84937
4.78501
4.72065
4.65628
4.59191
4.52753
4.46316
4.39879
4.33442
4.27004
4.20567
4.1413
4.07693
4.01256
3.94819
3.88382
3.81946
3.75509
3.69073
3.62636
3.562
3.49763
3.43327
3.3689
3.30454
3.24018
3.17581
3.11145
3.04709
2.98274
2.91838
2.85402
2.78967
2.72531
2.66095
2.5966
2.53224
2.46789
2.40353
2.33918
2.27482
2.21047
2.14612
2.08177
2.01742
1.95307
1.88873
1.82438
1.76003
1.69568
1.63133
1.56699
1.50264
1.4383
1.37395
1.30961
1.24527
1.18093
1.11659
1.05225
0.987908
0.923571
0.859234
0.794901
0.730572
0.666254
0.601954
0.537689
0.473487
0.409403
0.345543
0.282105
0.219459
0.158305
0.0999306
0.0469283
0.00310369
-0.0205347
-0.0288158
-8.39315
-3.33906
1.40326
3.38141
4.3678
5.00796
5.33632
5.47771
5.52706
5.52548
5.49481
5.44854
5.39396
5.33485
5.27328
5.21041
5.14683
5.08288
5.01873
4.95448
4.89017
4.82583
4.76147
4.6971
4.63273
4.56836
4.50399
4.43962
4.37525
4.31087
4.2465
4.18213
4.11775
4.05338
3.98902
3.92465
3.86028
3.79591
3.73155
3.66718
3.60282
3.53845
3.47409
3.40972
3.34536
3.281
3.21663
3.15227
3.08791
3.02355
2.95919
2.89484
2.83048
2.76612
2.70177
2.63741
2.57305
2.5087
2.44434
2.37999
2.31563
2.25128
2.18693
2.12258
2.05823
1.99388
1.92953
1.86518
1.80083
1.73649
1.67214
1.60779
1.54344
1.4791
1.41475
1.35041
1.28607
1.22172
1.15738
1.09304
1.02871
0.964366
0.900029
0.835692
0.771359
0.707031
0.642715
0.578418
0.514158
0.449965
0.385899
0.322074
0.258701
0.196177
0.135253
0.0773061
0.0251441
-0.0171419
-0.036865
-0.0396091
-8.13204
-3.29163
1.28883
3.29602
4.29636
4.95312
5.29535
5.44536
5.49952
5.50068
5.4716
5.42622
5.37215
5.31338
5.25205
5.18932
5.12583
5.06194
4.99782
4.93358
4.86928
4.80495
4.74059
4.67623
4.61186
4.54749
4.48312
4.41875
4.35437
4.29
4.22563
4.16125
4.09688
4.03251
3.96814
3.90377
3.83941
3.77504
3.71067
3.64631
3.58194
3.51758
3.45321
3.38885
3.32448
3.26012
3.19576
3.1314
3.06704
3.00268
2.93832
2.87396
2.80961
2.74525
2.68089
2.61653
2.55218
2.48782
2.42347
2.35911
2.29476
2.2304
2.16605
2.1017
2.03735
1.97301
1.90866
1.84431
1.77996
1.71561
1.65126
1.58692
1.52257
1.45822
1.39388
1.32953
1.26519
1.20085
1.13651
1.07217
1.00783
0.943491
0.879154
0.814818
0.750485
0.686157
0.621841
0.557545
0.493286
0.429095
0.365035
0.301219
0.237867
0.175389
0.114573
0.0568744
0.00528102