/*--------------------------------*- C++ -*----------------------------------*\
| =========                 |                                                 |
| \\      /  F ield         | OpenFOAM: The Open Source CFD Toolbox           |
|  \\    /   O peration     | Version:  v2012                                 |
|   \\  /    A nd           | Website:  www.openfoam.com                      |
|    \\/     M anipulation  |                                                 |
\*---------------------------------------------------------------------------*/
FoamFile
{
    version     2.0;
    format      ascii;
    class       volScalarField;
    location    "0.218";
    object      epsilon.air;
}
// * * * * * * * * * * * * * * * * * * * * * * * * * * * * * * * * * * * * * //

dimensions      [0 2 -3 0 0 0 0];


internalField   nonuniform List<scalar> 
1900
(
112.724
141.424
210.098
257.591
369.051
443.457
614.739
724.909
971.324
1128.62
15.4676
16.4471
18.6377
20.45
23.7573
27.7272
32.0036
39.2875
45.1211
56.7592
14.7926
14.6414
14.5755
14.5063
14.5148
14.5574
14.6409
14.8308
15.0774
15.4132
14.77
14.6304
14.4634
14.3354
14.1726
14.059
13.9039
13.808
13.6653
13.5938
14.7766
14.6216
14.4704
14.3205
14.1748
14.0289
13.8889
13.7473
13.6138
13.477
14.7778
14.6205
14.4714
14.3196
14.1754
14.0284
13.8891
13.7473
13.6132
13.4774
14.7777
14.6206
14.4731
14.3235
14.184
14.0451
13.9174
13.7916
13.6806
13.5716
14.7762
14.65
14.5637
14.5034
14.5107
14.5519
14.6361
14.8216
15.0443
15.3956
15.2153
16.6001
18.2751
20.6818
23.5878
27.5772
32.2589
38.4105
45.5628
54.8172
105.995
146.533
198.392
265.738
349.996
456.054
585.616
743.707
931.792
1154.09
4101.94
15195.1
19571.2
22449.8
21119.6
18031.1
15093.4
12797.4
11292.7
10373.6
9870.53
9693.1
9520.77
9256.28
8851.76
8353.17
7798.68
7212.25
6645.72
6126.82
5649.39
5222.34
4838.1
4487.1
4167.7
3878.24
3615.83
3378.4
3162.76
2967.05
2788.81
2626.05
2477.08
2340.37
2214.79
2099.17
1992.59
1894.14
1803.04
1718.61
1640.23
1567.34
1499.44
1436.06
1376.81
1321.32
1269.26
1220.32
1174.24
1130.78
1089.73
1050.88
1014.09
979.182
946.034
914.504
884.49
855.865
828.554
802.436
777.466
753.522
730.593
708.552
687.425
667.068
647.552
628.703
610.642
593.15
576.406
560.134
544.584
529.407
514.943
500.751
487.283
473.986
461.451
448.976
437.33
425.617
414.829
403.818
393.862
383.485
374.336
364.513
356.149
346.789
339.191
330.191
323.357
314.605
308.549
299.925
294.68
286.054
281.652
271.266
113.137
337.55
517.856
923.004
1126.46
1151.39
1123.38
1058.88
1051.34
1090.08
1194.52
1406.84
1693.5
2026.11
2378.02
2691.52
2969.11
3202.02
3357.71
3434.37
3426.51
3387.84
3302.75
3185.09
3056.85
2925.43
2794.66
2667.8
2544.12
2426.62
2314.38
2207.3
2105.87
2009.9
1919.52
1834.41
1754.47
1679.18
1608.3
1541.59
1478.76
1419.54
1363.69
1310.97
1261.19
1214.1
1169.55
1127.31
1087.21
1049.1
1012.82
978.244
945.249
913.725
883.585
854.73
827.092
800.58
775.15
750.709
727.237
704.635
682.91
661.952
641.801
622.333
603.625
585.524
568.153
551.313
535.182
519.504
504.52
489.905
475.98
462.333
449.387
436.623
424.593
412.639
401.479
390.275
379.951
369.436
359.924
350.034
341.307
331.965
324.001
315.118
307.899
299.377
292.897
284.628
278.898
270.768
265.817
257.7
253.561
243.812
16.4273
19.8627
22.8804
29.0951
34.8033
38.7614
41.7308
43.7917
46.6959
50.6847
58.6954
70.884
95.3281
130.064
189.271
267.335
373.396
507.924
665.28
836.085
1004.52
1162.6
1303.12
1420.47
1511.37
1574.47
1612.73
1629.53
1626.64
1615.47
1591.95
1561.45
1526.87
1489.53
1451.01
1411.34
1371.67
1331.48
1291.69
1252.59
1214.17
1176.61
1140.05
1104.55
1070.19
1036.91
1004.8
973.744
943.737
914.732
886.694
859.559
833.295
807.858
783.234
759.376
736.282
713.906
692.258
671.284
651.006
631.357
612.371
593.966
576.201
558.972
542.372
526.265
510.783
495.741
481.324
467.288
453.878
440.78
428.313
416.078
404.488
393.04
382.268
371.54
361.546
351.482
342.236
332.782
324.262
315.361
307.546
299.131
292.002
283.998
277.539
269.859
264.062
256.611
251.483
244.16
239.723
232.419
228.702
219.934
13.4531
13.4605
13.5461
13.802
14.3328
15.0049
15.7172
16.3392
16.9283
17.3488
17.9009
18.3644
19.2949
20.5043
22.7135
26.2423
31.76
40.6722
54.6379
75.9972
106.307
146.815
198.656
260.728
330.746
405.914
481.781
555.885
623.253
684.678
737.334
780.773
814.873
840.023
857.976
868.953
874.779
874.339
871.817
866.099
857.474
846.894
834.845
821.474
807.17
792.064
776.475
760.3
743.881
727.294
710.563
693.751
676.931
660.151
643.488
626.945
610.621
594.51
578.7
563.161
547.986
533.127
518.657
504.519
490.8
477.414
464.467
451.836
439.659
427.764
416.347
405.165
394.482
383.978
373.993
364.119
354.786
345.479
336.754
327.971
319.833
311.536
303.969
296.119
289.112
281.669
275.213
268.131
262.223
255.451
250.08
243.549
238.709
232.347
228.043
221.775
218.026
211.77
208.594
201.077
13.3296
13.1592
13.0623
13.1162
13.3043
13.715
14.2843
14.9087
15.4529
15.8871
16.2114
16.4481
16.6177
16.7695
16.8972
17.0874
17.3335
17.7137
18.322
19.2845
20.8435
23.2135
26.7608
32.0934
39.7923
50.6385
65.1284
83.8418
106.82
133.996
164.746
198.06
233.103
268.248
303.017
335.726
366.625
394.571
419.366
440.695
458.584
473.082
484.533
493.053
499.036
502.726
504.575
504.317
503.189
500.689
496.931
492.206
486.729
480.544
473.821
466.638
459.146
451.35
443.429
435.329
427.251
419.091
410.994
402.931
395.003
387.136
379.42
371.761
364.284
356.851
349.647
342.453
335.545
328.59
321.979
315.261
308.943
302.461
296.436
290.168
284.429
278.362
272.917
267.041
261.905
256.212
251.403
245.878
241.399
236.013
231.88
226.612
222.841
217.658
214.262
209.125
206.119
200.985
198.387
192.196
13.3249
13.1545
13.0315
13.086
13.295
13.7725
14.4958
15.4874
16.5058
17.606
18.6032
19.5296
20.2625
20.8669
21.2906
21.5967
21.7632
21.8424
21.8308
21.7911
21.7071
21.6076
21.536
21.5613
21.6691
21.9298
22.4753
23.3678
24.8645
27.0635
30.3256
34.7901
40.8329
48.4774
57.883
69.0826
82.065
96.6427
112.568
129.45
146.905
164.504
181.887
198.652
214.563
229.296
242.891
255.063
266.003
275.617
284.052
291.299
297.513
302.751
307.089
310.63
313.474
315.628
317.251
318.244
318.903
318.887
318.657
318.111
317.085
315.727
314.077
312.155
310.025
307.656
305.146
302.396
299.599
296.5
293.503
290.129
286.966
283.357
280.067
276.273
272.902
268.964
265.568
261.524
258.154
254.037
250.744
246.588
243.42
239.249
236.242
232.067
229.251
225.078
222.479
218.308
215.949
211.777
209.68
204.646
13.4657
13.3601
13.4096
13.6558
14.3032
15.6856
18.0252
21.4411
25.3965
29.7183
33.6399
37.0846
39.5888
41.5225
42.6125
43.3077
43.3466
43.2188
42.9164
42.4123
41.8077
41.1492
40.5095
39.9068
39.3496
38.8596
38.4797
38.2091
38.1163
38.1756
38.3572
38.7639
39.3428
40.3181
41.5524
43.3315
45.5315
48.4688
52.1093
56.7262
62.3706
69.1703
77.225
86.5091
97.1097
108.821
121.651
135.296
149.624
164.345
179.198
193.994
208.443
222.466
235.811
248.453
260.227
271.164
281.177
290.321
298.563
305.956
312.451
318.182
323.079
327.279
330.732
333.561
335.715
337.39
338.421
339.111
339.108
338.884
338.355
337.244
336.138
334.285
332.702
330.293
328.307
325.445
323.161
319.937
317.449
313.946
311.347
307.647
305.023
301.198
298.619
294.724
292.245
288.325
285.993
282.085
279.938
276.07
274.159
269.596
15.9088
16.8586
18.5483
21.9388
28.3991
39.4763
55.4382
75.0171
95.437
114.33
129.356
140.105
146.419
150.064
150.727
150.302
149.183
147.634
146.32
145.148
144.528
144.696
145.312
146.763
148.941
152.196
156.03
161.181
166.957
173.982
181.723
190.718
200.519
211.633
223.517
236.758
250.65
265.725
281.446
298.117
315.409
333.182
351.29
369.366
387.49
405.232
422.766
439.665
456.04
471.645
486.525
500.663
514.097
526.828
538.836
550.071
560.435
569.98
578.559
586.273
592.961
598.704
603.383
607.065
609.738
611.463
612.347
612.237
611.697
610.493
608.592
606.135
603.352
599.983
596.599
592.505
588.689
583.988
579.831
574.665
570.248
564.744
560.18
554.437
549.829
543.945
539.402
533.477
529.101
523.214
519.076
513.281
509.436
503.78
500.28
494.799
491.712
486.423
483.867
477.945
68.0257
90.4432
126.226
184.862
271.898
385.054
511.407
635.933
745.031
831.693
892.796
932.732
953.028
962.901
964.496
963.385
960.413
957.287
957.12
958.03
960.532
965.961
975.209
986.653
1000.06
1016.17
1034.58
1055.44
1077.63
1101.42
1126.35
1152.46
1179.22
1206.43
1233.47
1260.33
1286.37
1311.68
1335.95
1359.06
1380.85
1401
1419.8
1436.92
1452.79
1466.97
1480.02
1491.41
1501.66
1510.36
1517.89
1523.98
1528.99
1532.52
1535.03
1535.89
1535.53
1534.31
1531.69
1527.82
1522.96
1516.92
1510.04
1501.92
1493.17
1483.24
1472.76
1461.67
1450.15
1437.98
1425.81
1412.91
1400.37
1387.1
1374.54
1361.16
1348.72
1335.32
1323.06
1309.75
1297.84
1284.76
1273.32
1260.56
1249.7
1237.34
1227.14
1215.24
1205.81
1194.39
1185.76
1174.81
1167
1156.5
1149.58
1139.53
1133.61
1124
1119.3
1108.85
1464.67
1897.25
2399.05
2961.81
3563.1
4171.83
4745.95
5251.47
5654.95
5950.58
6132.42
6219.12
6206.46
6159.63
6061.1
5928.18
5778.13
5619.85
5459.5
5301.73
5149.46
5004.22
4867.39
4739.37
4620.55
4510.63
4409.38
4316.57
4231.64
4154.37
4084.04
4020.42
3962.98
3911.63
3865.77
3825.2
3789.3
3758.04
3730.9
3707.7
3687.8
3670.8
3656.4
3644.19
3634.12
3625.54
3618.67
3612.8
3608.36
3604.62
3602.04
3600.05
3599.02
3598.59
3598.73
3599.11
3599.92
3600.76
3601.82
3602.94
3604.21
3605.29
3606.59
3607.45
3608.52
3609.12
3609.71
3609.7
3609.45
3608.7
3607.51
3605.08
3602.61
3598.59
3594.84
3589.32
3584.31
3577.35
3571.18
3562.91
3555.73
3546.28
3538.17
3527.53
3518.5
3506.67
3496.83
3483.89
3473.46
3459.54
3448.85
3434.09
3423.52
3408.04
3398.01
3381.78
3372.56
3355.52
3346.86
3325.11
1109.72
1064.91
1122.19
1209.93
1238.56
1120.85
818.225
1979.36
54706.4
16178.6
7366.28
6108.3
6232.26
6482.3
6552.61
8024.59
74295.7
43667.9
24847.5
18464.6
16096.7
14996
14623
19661
76431.9
71031
54247.3
41189.4
32679.9
27151.7
24539.2
34050.2
69747.5
75705.7
67740
55640.2
44558.7
35837.1
30859.7
42694.2
57771.6
71178.1
67945.9
59041.2
48376.7
38733.3
32782.9
45222
47497
61841.8
62498.1
56619.3
47171.8
38182.4
32457.3
44250.2
39089.7
51824.9
53593.7
49846.5
42402.3
34682.1
29598.5
39778.2
32618.4
42988.2
44923.3
42136.1
36305
30045.3
25825.2
34055.1
27596.3
35620.2
37257.5
35115.6
30543.5
25557.6
22225.6
29385.3
23480.3
29581.5
30822.1
29120.7
25530
21631.9
19157.7
26020.1
20100.5
24691.2
25570.9
24181
21337.5
18295.6
16492.4
22977.2
17365.9
20779.2
21366.1
20207.1
17936
15552.4
14260.8
20352.6
15136.7
17656.5
18021.1
17040.1
15210.7
13329.1
12423.1
18142.6
13289
15148.5
15353.9
14516.9
13029.9
11534.6
10921.5
16311.6
11729.7
13109.2
13206.2
12489.3
11271.5
10077
9689.16
14792.4
10407.4
11439.1
11463.6
10847.2
9842.45
8883.92
8670.61
13525.3
9269.49
10052.8
10033.7
9501.17
8667.81
7897.09
7820.83
12458.9
8287.42
8891.14
8847.58
8385.88
7691.63
7072.22
7103.79
11552
7443.76
7912.73
7854.78
7453.84
6872.95
6376.25
6491.88
10773.9
6716.46
7083.87
7017.93
6668.86
6180.68
5783.71
5966.49
10099.6
6089.75
6378.46
6308.31
6003.24
5591.1
5275.46
5512.01
9509.53
5547.34
5774.68
5702.91
5435.31
5086
4837.12
5116.86
8990.43
5073.46
5253.68
5182.49
4947.26
4650.53
4457.07
4771.88
8532.55
4657.35
4801.25
4732.15
4525.07
4272.74
4125.71
4469.3
8127.37
4290.38
4406.12
4340.12
4157.65
3943.09
3835.26
4202.63
7767.41
3965.25
4059.04
3996.79
3835.96
3653.76
3579.3
3966.49
7446.3
3676.32
3752.73
3694.53
3552.78
3398.51
3352.63
3756.46
7158.82
3418.4
3481.04
3427.04
3302.2
3172.18
3150.96
3568.92
6900.87
3187.46
3239.07
3189.26
3079.41
2970.56
2970.82
3400.76
6668.68
2979.81
3022.61
2976.93
2880.49
2790.24
2808.84
3249.54
6458.92
2792.44
2828.16
2786.52
2702.06
2628.21
2662.82
3112.9
6268.74
2622.79
2652.86
2615.1
2541.43
2482.06
2530.78
2989
6095.77
2468.67
2494.24
2460.22
2396.29
2349.79
2410.99
2876.3
5937.92
2328.29
2350.28
2319.84
2264.71
2229.7
2301.99
2773.47
5793.41
2200.08
2219.25
2192.22
2145.07
2120.34
2202.54
2679.42
5660.72
2082.74
2099.68
2075.91
2035.99
2020.51
2111.58
2593.2
5538.6
1975.09
1990.32
1969.63
1936.29
1929.15
2028.2
2514.03
5426.04
1876.12
1890.04
1872.27
1844.94
1845.35
1951.59
2441.19
5322.18
1784.94
1797.88
1782.89
1761.07
1768.23
1881.13
2374.11
5226.31
1700.75
1713
1700.64
1683.86
1697.14
1816.15
2312.22
5137.78
1622.86
1634.63
1624.75
1612.61
1631.49
1756.09
2255.05
5056.04
1550.64
1562.11
1554.58
1546.71
1570.72
1700.46
2202.14
4980.53
1483.52
1494.85
1489.53
1485.6
1514.35
1648.82
2153.1
4910.73
1421.03
1432.32
1429.1
1428.83
1461.93
1600.79
2107.55
4846.15
1362.72
1374.07
1372.84
1375.93
1413.12
1556.02
2065.17
4786.27
1308.21
1319.7
1320.35
1326.54
1367.54
1514.2
2025.64
4730.6
1257.14
1268.84
1271.28
1280.38
1324.92
1475.07
1988.7
4678.68
1209.22
1221.17
1225.32
1237.15
1284.97
1438.38
1954.1
4630.09
1164.17
1176.44
1182.21
1196.6
1247.48
1403.93
1921.66
4584.48
1121.76
1134.38
1141.71
1158.5
1212.23
1371.52
1891.17
4541.55
1081.77
1094.79
1103.61
1122.66
1179.06
1341.02
1862.51
4501.05
1044.01
1057.47
1067.72
1088.9
1147.79
1312.25
1835.5
4462.78
1008.31
1022.24
1033.86
1057.05
1118.3
1285.11
1810.07
4426.64
974.508
988.94
1001.89
1026.97
1090.44
1259.47
1786.09
4392.5
942.463
957.418
971.645
998.533
1064.09
1235.25
1763.51
4360.33
912.049
927.546
943.007
971.606
1039.15
1212.33
1742.2
4330.02
883.127
899.185
915.842
946.078
1015.51
1190.64
1722.14
4301.54
855.609
872.239
890.054
921.853
993.086
1170.07
1703.2
4274.84
829.363
846.579
865.521
898.822
971.786
1150.59
1685.37
4249.81
804.333
822.143
842.18
876.923
951.541
1132.09
1668.54
4226.43
780.39
798.804
819.908
856.044
932.262
1114.52
1652.67
4204.5
757.515
776.536
798.681
836.158
913.914
1097.83
1637.71
4184.07
735.571
755.204
778.364
817.14
896.385
1081.94
1623.55
4164.81
714.58
734.825
758.976
799.006
879.689
1066.83
1610.21
4146.91
694.387
715.241
740.355
781.599
863.673
1052.37
1597.53
4129.84
675.061
696.52
722.572
764.991
848.406
1038.62
1585.58
4114.03
656.414
678.463
705.422
748.973
833.683
1025.39
1574.13
4098.69
638.567
661.199
689.04
733.685
819.647
1012.8
1563.34
4084.55
621.285
644.476
673.159
718.85
806.017
1000.59
1552.9
4070.54
604.756
628.494
657.996
704.7
793.033
988.985
1543.06
4057.73
588.68
612.932
643.205
690.868
780.313
977.601
1533.41
4044.7
573.326
598.08
629.105
677.701
768.227
966.817
1524.35
4032.92
558.315
583.529
615.251
664.718
756.262
956.101
1515.31
4020.57
544.017
569.683
602.091
652.413
744.958
946.022
1506.9
4009.6
529.953
556.023
589.053
640.158
733.627
935.846
1498.31
3997.67
516.619
543.094
576.747
628.636
723.03
926.401
1490.47
3987.38
503.411
530.234
564.437
617.024
712.249
916.676
1482.22
3975.66
490.98
518.163
552.931
606.238
702.322
907.84
1474.94
3966.02
478.559
506.037
541.288
595.212
692.036
898.507
1466.96
3954.38
466.99
494.788
530.552
585.142
682.774
890.293
1460.28
3945.45
455.297
483.342
519.525
574.656
672.942
881.314
1452.52
3933.84
444.563
472.892
509.545
565.298
664.355
873.755
1446.5
3925.76
433.541
462.072
499.084
555.307
654.938
865.096
1438.91
3914.22
423.619
452.403
489.848
546.659
647.042
858.236
1433.65
3907.14
413.202
442.146
479.894
537.112
637.994
849.86
1426.23
3895.75
404.07
433.237
471.387
529.167
630.796
843.729
1421.79
3889.72
394.18
423.469
461.874
520.005
622.072
835.607
1414.54
3878.68
385.816
415.301
454.076
512.744
615.555
830.189
1410.88
3873.5
376.362
405.935
444.926
503.904
607.114
822.325
1403.92
3863.08
368.75
398.492
437.818
497.299
601.23
817.53
1400.76
3858.39
359.631
389.433
428.944
488.711
593.031
809.938
1394.32
3848.75
352.768
382.709
422.514
482.736
587.73
805.675
1391.5
3844.38
343.876
373.853
413.821
474.318
579.714
798.327
1385.55
3835.32
337.776
367.858
408.068
468.953
574.944
794.502
1382.96
3831.1
328.994
359.095
399.458
460.623
567.049
787.352
1377.37
3822.36
323.686
353.849
394.385
455.843
562.738
783.824
1374.9
3818.14
314.889
345.065
385.758
447.52
554.916
776.87
1369.58
3809.71
310.396
340.579
381.359
443.29
550.977
773.461
1367.07
3805.39
299.761
329.911
370.821
433.051
541.271
764.742
1359.98
3795.29
)
;

boundaryField
{
    frontAndBack
    {
        type            empty;
    }
    inlet
    {
        type            fixedValue;
        value           uniform 14.855;
    }
    outlet
    {
        type            zeroGradient;
    }
    walls
    {
        lowReCorrection 0;
        blending        stepwise;
        n               2;
        type            epsilonWallFunction;
        value           nonuniform List<scalar> 
228
(
112.724
141.424
210.098
257.591
369.051
443.457
614.739
724.909
971.324
1128.62
1109.72
1064.91
1122.19
1209.93
1238.56
1120.85
818.225
1979.36
1979.36
8024.59
19661
34050.2
42694.2
45222
44250.2
39778.2
34055.1
29385.3
26020.1
22977.2
20352.6
18142.6
16311.6
14792.4
13525.3
12458.9
11552
10773.9
10099.6
9509.53
8990.43
8532.55
8127.37
7767.41
7446.3
7158.82
6900.87
6668.68
6458.92
6268.74
6095.77
5937.92
5793.41
5660.72
5538.6
5426.04
5322.18
5226.31
5137.78
5056.04
4980.53
4910.73
4846.15
4786.27
4730.6
4678.68
4630.09
4584.48
4541.55
4501.05
4462.78
4426.64
4392.5
4360.33
4330.02
4301.54
4274.84
4249.81
4226.43
4204.5
4184.07
4164.81
4146.91
4129.84
4114.03
4098.69
4084.55
4070.54
4057.73
4044.7
4032.92
4020.57
4009.6
3997.67
3987.38
3975.66
3966.02
3954.38
3945.45
3933.84
3925.76
3914.22
3907.14
3895.75
3889.72
3878.68
3873.5
3863.08
3858.39
3848.75
3844.38
3835.32
3831.1
3822.36
3818.14
3809.71
3805.39
3795.29
105.995
146.533
198.392
265.738
349.996
456.054
585.616
743.707
931.792
1154.09
1464.67
1897.25
2399.05
2961.81
3563.1
4171.83
4745.95
5251.47
5654.95
5950.58
6132.42
6219.12
6206.46
6159.63
6061.1
5928.18
5778.13
5619.85
5459.5
5301.73
5149.46
5004.22
4867.39
4739.37
4620.55
4510.63
4409.38
4316.57
4231.64
4154.37
4084.04
4020.42
3962.98
3911.63
3865.77
3825.2
3789.3
3758.04
3730.9
3707.7
3687.8
3670.8
3656.4
3644.19
3634.12
3625.54
3618.67
3612.8
3608.36
3604.62
3602.04
3600.05
3599.02
3598.59
3598.73
3599.11
3599.92
3600.76
3601.82
3602.94
3604.21
3605.29
3606.59
3607.45
3608.52
3609.12
3609.71
3609.7
3609.45
3608.7
3607.51
3605.08
3602.61
3598.59
3594.84
3589.32
3584.31
3577.35
3571.18
3562.91
3555.73
3546.28
3538.17
3527.53
3518.5
3506.67
3496.83
3483.89
3473.46
3459.54
3448.85
3434.09
3423.52
3408.04
3398.01
3381.78
3372.56
3355.52
3346.86
3325.11
)
;
    }
}


// ************************************************************************* //
