/*--------------------------------*- C++ -*----------------------------------*\
| =========                 |                                                 |
| \\      /  F ield         | OpenFOAM: The Open Source CFD Toolbox           |
|  \\    /   O peration     | Version:  v2012                                 |
|   \\  /    A nd           | Website:  www.openfoam.com                      |
|    \\/     M anipulation  |                                                 |
\*---------------------------------------------------------------------------*/
FoamFile
{
    version     2.0;
    format      ascii;
    class       vectorField;
    location    "0.026/lagrangian/kinematicCloud";
    object      U;
}
// * * * * * * * * * * * * * * * * * * * * * * * * * * * * * * * * * * * * * //


28
(
(2.60687 0.000320031 0)
(2.51116 0.000527379 0)
(2.40604 0.000324115 0)
(2.29713 0.000299747 0)
(2.19848 2.34054e-06 0)
(2.09988 5.2146e-05 0)
(1.29609 5.8155e-05 0)
(1.89888 -0.000120052 0)
(1.78707 -0.000128058 0)
(1.67642 0.000144123 0)
(1.66858 0.000110874 0)
(1.56476 0.000130086 0)
(0.300354 -6.63702e-06 0)
(0.286672 1.37378e-06 0)
(0.819053 -7.84011e-05 0)
(1.10918 8.0895e-05 0)
(0.993656 4.92813e-05 0)
(0.877323 -6.37594e-05 0)
(0.760381 8.37981e-05 0)
(0.752631 -8.3903e-05 0)
(0.642907 -6.7486e-05 0)
(0.334473 -3.76784e-05 0)
(0.405443 -3.64054e-05 0)
(0.285833 1.53093e-05 0)
(0.277784 1.97269e-06 0)
(0.16539 -3.89446e-06 0)
(0.0442382 1.37373e-06 0)
(0.0359573 -1.04942e-06 0)
)


// ************************************************************************* //
