/*--------------------------------*- C++ -*----------------------------------*\
| =========                 |                                                 |
| \\      /  F ield         | OpenFOAM: The Open Source CFD Toolbox           |
|  \\    /   O peration     | Version:  v2012                                 |
|   \\  /    A nd           | Website:  www.openfoam.com                      |
|    \\/     M anipulation  |                                                 |
\*---------------------------------------------------------------------------*/
FoamFile
{
    version     2.0;
    format      ascii;
    class       Cloud<basicKinematicParcel>;
    location    "0.141/lagrangian/kinematicCloud";
    object      positions;
}
// * * * * * * * * * * * * * * * * * * * * * * * * * * * * * * * * * * * * * //

54
(
(2.10296 0.00189986 0.03) 2143
(2.27604 0.0130127 0.03) 2755
(2.25249 0.0208431 0.03) 3053
(2.18982 0.00735219 0.03) 2449
(2.15419 0.0282796 0.03) 3346
(2.19686 0.0217205 0.03) 3049
(1.48649 0.000809915 0.03) 99
(2.01803 0.0328819 0.03) 3537
(2.01048 0.0325509 0.03) 3536
(2.1174 0.0114059 0.03) 2644
(2.12963 0.0148548 0.03) 2844
(2.03418 0.00645114 0.03) 2438
(1.69571 0.0378139 0.03) 3813
(1.6752 0.00159102 0.03) 2112
(1.7351 0.0371873 0.03) 3716
(2.03536 0.0173932 0.03) 2938
(1.85186 0.00388289 0.03) 2225
(1.74273 0.0364014 0.03) 3717
(1.91626 0.00789659 0.03) 2529
(1.85334 0.0329122 0.03) 3525
(1.9243 0.0270578 0.03) 3230
(1.73439 0.0355698 0.03) 3616
(1.87928 0.0279166 0.03) 3227
(1.80728 0.00665087 0.03) 2421
(1.88527 0.0144083 0.03) 2827
(1.84444 0.027398 0.03) 3224
(1.73357 0.00551296 0.03) 2316
(1.79112 0.0305754 0.03) 3420
(1.56511 0.00269023 0.03) 2204
(1.7589 0.0314875 0.03) 3418
(0.654628 9.45325e-05 0.03) 43
(1.60824 0.00388206 0.03) 2207
(1.36218 0.0384244 0.03) 1890
(1.74882 0.0211479 0.03) 3017
(1.71322 0.00996697 0.03) 2615
(1.71614 0.0267728 0.03) 3215
(1.6986 0.0127761 0.03) 2714
(1.69031 0.015042 0.03) 2813
(1.66009 0.0270622 0.03) 3211
(1.2937 0.0013625 0.03) 186
(1.62258 0.0118633 0.03) 2708
(1.60995 0.0261811 0.03) 3207
(1.57015 0.00995538 0.03) 2605
(1.54029 0.00861108 0.03) 2502
(1.55198 0.0125254 0.03) 2703
(1.5407 0.0248558 0.03) 3102
(1.47883 0.0318007 0.03) 1498
(1.50708 0.0185937 0.03) 2900
(1.48457 0.0149342 0.03) 898
(1.44873 0.0295614 0.03) 1396
(1.36034 0.00507326 0.03) 390
(1.43006 0.0145353 0.03) 895
(1.35538 0.0334164 0.03) 1590
(1.24743 0.00307841 0.03) 283
)


// ************************************************************************* //
