/*--------------------------------*- C++ -*----------------------------------*\
| =========                 |                                                 |
| \\      /  F ield         | OpenFOAM: The Open Source CFD Toolbox           |
|  \\    /   O peration     | Version:  v2012                                 |
|   \\  /    A nd           | Website:  www.openfoam.com                      |
|    \\/     M anipulation  |                                                 |
\*---------------------------------------------------------------------------*/
FoamFile
{
    version     2.0;
    format      ascii;
    class       surfaceScalarField;
    location    "0.322";
    object      phi.air;
}
// * * * * * * * * * * * * * * * * * * * * * * * * * * * * * * * * * * * * * //

dimensions      [0 3 -1 0 0 0 0];
oriented        oriented;


internalField   nonuniform List<scalar> 
3672
(
0.0064006
7.14517e-06
0.00639136
8.99623e-06
0.00638142
9.68684e-06
0.00637056
1.06126e-05
0.0063586
1.17119e-05
0.00634559
1.27593e-05
0.00633129
1.40467e-05
0.00631578
1.52582e-05
0.00629637
1.91627e-05
2.80585e-05
0.00626806
0.00641089
4.26003e-06
0.00641309
6.79313e-06
0.00641555
7.2261e-06
0.00641823
7.93235e-06
0.00642104
8.90607e-06
0.00642399
9.8076e-06
0.00642694
1.10891e-05
0.00642967
1.25285e-05
0.00643129
1.75454e-05
2.48537e-05
0.0064345
0.00640988
2.38202e-06
0.00641223
4.44505e-06
0.00641473
4.71802e-06
0.00641752
5.14462e-06
0.00642056
5.87155e-06
0.00642375
6.60995e-06
0.00642716
7.68595e-06
0.00643042
9.26281e-06
0.0064346
1.33659e-05
1.8425e-05
0.00644103
0.00640936
1.0263e-06
0.00641175
2.05189e-06
0.00641429
2.17918e-06
0.00641704
2.39546e-06
0.00642008
2.82902e-06
0.00642335
3.34014e-06
0.00642686
4.1794e-06
0.00643058
5.54008e-06
0.00643542
8.52208e-06
1.19254e-05
0.00644192
0.00640916
-1.33129e-07
0.00641153
-3.17988e-07
0.00641408
-3.68049e-07
0.0064168
-3.30659e-07
0.00641985
-2.20073e-07
0.00642318
1.20083e-08
0.0064268
5.59745e-07
0.0064308
1.54157e-06
0.00643581
3.50706e-06
5.35649e-06
0.00644238
0.00640918
-1.30997e-06
0.00641156
-2.70308e-06
0.00641412
-2.92489e-06
0.00641686
-3.07022e-06
0.00641993
-3.29409e-06
0.00642331
-3.36794e-06
0.00642702
-3.15054e-06
0.00643117
-2.6108e-06
0.00643623
-1.55005e-06
-9.18197e-07
0.00644251
0.00640941
-2.72028e-06
0.00641185
-5.1427e-06
0.00641442
-5.49271e-06
0.00641721
-5.85951e-06
0.00642032
-6.40729e-06
0.00642374
-6.78915e-06
0.00642751
-6.92237e-06
0.00643175
-6.8458e-06
0.00643674
-6.54489e-06
-6.7483e-06
0.00644257
0.00640999
-4.70719e-06
0.0064124
-7.5559e-06
0.00641495
-8.04444e-06
0.00641781
-8.71403e-06
0.00642095
-9.55364e-06
0.0064244
-1.02353e-05
0.00642821
-1.0735e-05
0.00643249
-1.11202e-05
0.00643739
-1.14533e-05
-1.21458e-05
0.00644279
0.00641105
-7.76188e-06
0.00641334
-9.83864e-06
0.00641585
-1.05521e-05
0.00641858
-1.14513e-05
0.00642152
-1.24901e-05
0.00642469
-1.34058e-05
0.00642817
-1.42168e-05
0.00643204
-1.49858e-05
0.00643631
-1.57293e-05
-1.68101e-05
0.00644098
0.00640049
0.0063909
0.0063806
0.0063694
0.00635716
0.006344
0.00633004
0.0063153
0.00629982
0.00628326
0.00618912
0.000122524
-4.35877e-05
0.00598884
8.26139e-05
0.000117663
0.00572442
-0.000168606
0.000433027
0.00550756
-0.000541278
0.00075814
0.0053591
-0.00090801
0.00105646
0.00525264
-0.00120372
0.00131019
0.00517181
-0.00137932
0.00146015
0.00510268
-0.00142729
0.00149643
0.00503451
-0.00137459
0.00144276
0.00496662
-0.00125522
0.00132311
0.00489909
-0.00110325
0.00117078
0.00483221
-0.000945
0.00101188
0.00476688
-0.000798405
0.000863736
0.00470315
-0.000671252
0.000734978
0.00464114
-0.000564832
0.000626836
0.00458116
-0.000477679
0.000537663
0.00452397
-0.000408646
0.000465832
0.00447033
-0.000355065
0.000408713
0.0044204
-0.000312613
0.00036254
0.00437436
-0.000278042
0.000324085
0.00433238
-0.000250122
0.000292101
0.00429457
-0.000228104
0.000265916
0.00426064
-0.000210406
0.000244328
0.00423034
-0.000195119
0.000225425
0.00420344
-0.000181625
0.000208518
0.00418001
-0.000170219
0.000193649
0.00416004
-0.000160869
0.000180848
0.00414294
-0.000152652
0.000169748
0.00412823
-0.000145001
0.000159712
0.00411559
-0.000137894
0.000150536
0.00410468
-0.00013149
0.000142396
0.00409525
-0.000125709
0.000135138
0.00408702
-0.000120412
0.00012864
0.00407973
-0.000115395
0.000122689
0.00407333
-0.000110657
0.000117059
0.00406777
-0.000106186
0.000111741
0.00406299
-0.000102044
0.000106825
0.00405893
-9.82849e-05
0.000102342
0.00405555
-9.48876e-05
9.82702e-05
0.00405279
-9.17247e-05
9.44889e-05
0.00405061
-8.87603e-05
9.09404e-05
0.00404894
-8.59479e-05
8.76146e-05
0.00404768
-8.32259e-05
8.44864e-05
0.00404676
-8.0654e-05
8.15713e-05
0.00404617
-7.83076e-05
7.89019e-05
0.00404587
-7.61145e-05
7.64141e-05
0.00404583
-7.39749e-05
7.40103e-05
0.00404604
-7.18588e-05
7.16554e-05
0.00404646
-6.983e-05
6.9406e-05
0.0040471
-6.79715e-05
6.73319e-05
0.00404795
-6.62938e-05
6.54414e-05
0.004049
-6.47106e-05
6.36593e-05
0.00405024
-6.31608e-05
6.19269e-05
0.00405164
-6.16393e-05
6.02399e-05
0.00405318
-6.01665e-05
5.86218e-05
0.00405486
-5.87734e-05
5.70957e-05
0.00405667
-5.74874e-05
5.56827e-05
0.00405859
-5.62824e-05
5.43602e-05
0.00406061
-5.51201e-05
5.30939e-05
0.00406273
-5.39674e-05
5.18523e-05
0.00406492
-5.28331e-05
5.0644e-05
0.00406717
-5.17403e-05
4.94845e-05
0.0040695
-5.07308e-05
4.84075e-05
0.00407188
-4.97863e-05
4.73987e-05
0.00407433
-4.88873e-05
4.64415e-05
0.00407682
-4.79953e-05
4.55022e-05
0.00407936
-4.71256e-05
4.45926e-05
0.00408192
-4.62801e-05
4.37134e-05
0.00408452
-4.54747e-05
4.28793e-05
0.00408714
-4.47012e-05
4.20809e-05
0.00408978
-4.39632e-05
4.13212e-05
0.00409244
-4.32433e-05
4.05843e-05
0.00409511
-4.25415e-05
3.98715e-05
0.00409778
-4.18479e-05
3.91739e-05
0.00410046
-4.11751e-05
3.85008e-05
0.00410313
-4.05167e-05
3.78471e-05
0.00410579
-3.98823e-05
3.72191e-05
0.00410844
-3.92544e-05
3.66033e-05
0.00411108
-3.86414e-05
3.60053e-05
0.00411369
-3.80277e-05
3.54116e-05
0.00411629
-3.74292e-05
3.48357e-05
0.00411886
-3.68329e-05
3.42647e-05
0.0041214
-3.62544e-05
3.37134e-05
0.00412391
-3.5674e-05
3.31624e-05
0.00412639
-3.51071e-05
3.26262e-05
0.00412884
-3.45362e-05
3.2088e-05
0.00413125
-3.39813e-05
3.15665e-05
0.00413363
-3.3427e-05
3.10471e-05
0.00413598
-3.28933e-05
3.0548e-05
0.00413829
-3.23632e-05
3.00536e-05
0.00414056
-3.18599e-05
2.95854e-05
0.0041428
-3.1364e-05
2.91247e-05
0.00414501
-3.09192e-05
2.8713e-05
0.00414718
-3.04838e-05
2.83103e-05
0.00414933
-3.01954e-05
2.80474e-05
0.00415145
-2.98777e-05
2.77546e-05
0.00415358
-3.00399e-05
2.7914e-05
0.00415568
-2.9911e-05
2.78113e-05
0.00415787
-3.1214e-05
2.90191e-05
-3.11761e-05
2.92142e-05
0.00647836
7.8656e-05
0.00651174
4.92393e-05
0.00650174
-0.000158607
0.0064363
-0.000475833
0.00632498
-0.000796694
0.00617908
-0.00105782
0.00601662
-0.00121687
0.00585461
-0.00126527
0.00570343
-0.00122342
0.00556884
-0.00112064
0.00545276
-0.000987158
0.00535416
-0.000846404
0.00527073
-0.000714973
0.00519923
-0.00059975
0.00513603
-0.000501639
0.00507813
-0.000419775
0.00502356
-0.000354075
0.00497105
-0.000302554
0.00491944
-0.000261003
0.00486808
-0.000226687
0.00481766
-0.000199695
0.00476936
-0.000179808
0.00472339
-0.000164433
0.00467957
-0.000151305
0.00463822
-0.000140273
0.0045998
-0.000131796
0.00456453
-0.000125605
0.00453234
-0.000120457
0.00450297
-0.000115636
0.00447624
-0.000111158
0.00445191
-0.000107159
0.00442984
-0.000103641
0.00440986
-0.000100435
0.00439181
-9.73405e-05
0.00437545
-9.42993e-05
0.00436065
-9.13831e-05
0.00434729
-8.86869e-05
0.00433526
-8.6257e-05
0.00432442
-8.40462e-05
0.00431464
-8.19469e-05
0.00430579
-7.99096e-05
0.00429771
-7.78639e-05
0.00429031
-7.58245e-05
0.00428356
-7.39084e-05
0.00427744
-7.21877e-05
0.00427191
-7.05795e-05
0.00426691
-6.89805e-05
0.00426241
-6.73601e-05
0.00425838
-6.57965e-05
0.00425479
-6.43864e-05
0.00425162
-6.31207e-05
0.00424882
-6.19128e-05
0.00424638
-6.07207e-05
0.00424427
-5.95264e-05
0.00424245
-5.83498e-05
0.0042409
-5.72236e-05
0.00423959
-5.61694e-05
0.00423848
-5.51753e-05
0.00423757
-5.42116e-05
0.00423685
-5.32443e-05
0.0042363
-5.22816e-05
0.00423591
-5.13538e-05
0.00423568
-5.05022e-05
0.00423559
-4.96932e-05
0.00423561
-4.89147e-05
0.00423575
-4.81336e-05
0.00423599
-4.73673e-05
0.00423633
-4.66126e-05
0.00423674
-4.58888e-05
0.00423723
-4.51864e-05
0.00423778
-4.45136e-05
0.00423838
-4.38489e-05
0.00423903
-4.31935e-05
0.00423972
-4.2536e-05
0.00424044
-4.18923e-05
0.00424118
-4.1257e-05
0.00424194
-4.06411e-05
0.00424271
-4.00263e-05
0.00424349
-3.94212e-05
0.00424427
-3.88105e-05
0.00424506
-3.82117e-05
0.00424583
-3.76114e-05
0.00424661
-3.70274e-05
0.00424737
-3.64391e-05
0.00424813
-3.58631e-05
0.00424887
-3.52812e-05
0.00424961
-3.47148e-05
0.00425033
-3.41478e-05
0.00425104
-3.36012e-05
0.00425173
-3.30576e-05
0.00425241
-3.25407e-05
0.00425308
-3.20309e-05
0.00425373
-3.15732e-05
0.00425437
-3.1125e-05
0.004255
-3.08249e-05
0.00425563
-3.05009e-05
0.00425624
-3.06515e-05
0.00425686
-3.05291e-05
0.00425752
-3.18828e-05
-3.17338e-05
0.00647001
4.96756e-05
0.00650349
1.5756e-05
0.00650081
-0.000155926
0.00644848
-0.000423503
0.00634924
-0.000697454
0.00621162
-0.000920196
0.00605284
-0.00105809
0.00589064
-0.00110308
0.00573789
-0.00107067
0.00560308
-0.000985824
0.00548886
-0.000872935
0.00539482
-0.000752369
0.00531892
-0.000639067
0.005258
-0.000538828
0.00520848
-0.000452124
0.00516794
-0.00037923
0.00513476
-0.000320904
0.00510703
-0.00027482
0.0050825
-0.000236475
0.00505975
-0.000203937
0.00503818
-0.000178121
0.00501704
-0.000158675
0.00499553
-0.000142921
0.00497299
-0.000128765
0.00494897
-0.000116256
0.00492352
-0.000106337
0.00489685
-9.89436e-05
0.00486927
-9.28778e-05
0.00484101
-8.73709e-05
0.00481231
-8.2458e-05
0.00478364
-7.84871e-05
0.00475556
-7.55662e-05
0.00472859
-7.34656e-05
0.00470303
-7.17726e-05
0.00467889
-7.01611e-05
0.00465626
-6.87516e-05
0.00463522
-6.76501e-05
0.00461576
-6.67946e-05
0.00459775
-6.60408e-05
0.00458105
-6.52485e-05
0.00456551
-6.43716e-05
0.00455104
-6.33916e-05
0.00453759
-6.23756e-05
0.00452514
-6.1453e-05
0.0045136
-6.06508e-05
0.0045029
-5.98773e-05
0.00449296
-5.90426e-05
0.00448376
-5.81554e-05
0.00447525
-5.72877e-05
0.00446735
-5.64837e-05
0.00445997
-5.57481e-05
0.0044531
-5.5044e-05
0.00444673
-5.43441e-05
0.00444082
-5.36205e-05
0.00443536
-5.28841e-05
0.0044303
-5.21664e-05
0.00442563
-5.14967e-05
0.00442131
-5.08613e-05
0.00441733
-5.02313e-05
0.00441366
-4.95733e-05
0.00441028
-4.89019e-05
0.00440717
-4.82404e-05
0.00440426
-4.75986e-05
0.00440154
-4.69705e-05
0.00439899
-4.63621e-05
0.0043966
-4.57437e-05
0.00439436
-4.5127e-05
0.00439225
-4.45019e-05
0.00439025
-4.38942e-05
0.00438836
-4.32935e-05
0.00438656
-4.27129e-05
0.00438484
-4.21263e-05
0.00438318
-4.15379e-05
0.00438158
-4.09366e-05
0.00438003
-4.03425e-05
0.00437852
-3.97496e-05
0.00437705
-3.91713e-05
0.00437562
-3.85875e-05
0.0043742
-3.80096e-05
0.00437282
-3.74217e-05
0.00437145
-3.68445e-05
0.0043701
-3.62635e-05
0.00436877
-3.56979e-05
0.00436746
-3.51265e-05
0.00436616
-3.45666e-05
0.00436488
-3.40002e-05
0.00436362
-3.34492e-05
0.00436236
-3.28973e-05
0.00436113
-3.23659e-05
0.00435991
-3.18371e-05
0.0043587
-3.13346e-05
0.00435751
-3.08401e-05
0.00435633
-3.03957e-05
0.00435517
-2.9963e-05
0.00435402
-2.96736e-05
0.00435289
-2.93656e-05
0.00435176
-2.95213e-05
0.00435065
-2.94242e-05
0.0043495
-3.07293e-05
-3.06854e-05
0.0064645
2.71008e-05
0.00648861
-8.35559e-06
0.00648172
-0.000149035
0.00642849
-0.000370271
0.00633104
-0.000600005
0.00619799
-0.000787147
0.00604458
-0.000904683
0.00588729
-0.000945786
0.00573874
-0.000922114
0.00560655
-0.000853637
0.00549347
-0.000759854
0.00539975
-0.000658651
0.00532364
-0.000562953
0.00526187
-0.000477061
0.0052114
-0.000401656
0.00517075
-0.000338575
0.00513855
-0.000288709
0.00511237
-0.000248639
0.00509
-0.000214099
0.005071
-0.000184938
0.00505577
-0.000162895
0.00504359
-0.000146494
0.00503272
-0.000132044
0.00502231
-0.000118364
0.00501298
-0.000106918
0.00500499
-9.83521e-05
0.00499762
-9.15732e-05
0.00499007
-8.53287e-05
0.00498188
-7.91809e-05
0.00497289
-7.34643e-05
0.00496314
-6.87392e-05
0.00495263
-6.50566e-05
0.00494119
-6.20222e-05
0.00492859
-5.91778e-05
0.00491473
-5.62965e-05
0.00489965
-5.36741e-05
0.00488359
-5.15876e-05
0.00486684
-5.00489e-05
0.00484967
-4.8871e-05
0.00483228
-4.78512e-05
0.0048148
-4.68991e-05
0.00479748
-4.60681e-05
0.00478061
-4.55051e-05
0.0047644
-4.52484e-05
0.00474892
-4.51615e-05
0.00473411
-4.50757e-05
0.00472
-4.4928e-05
0.00470661
-4.47704e-05
0.00469399
-4.46669e-05
0.00468211
-4.46033e-05
0.00467089
-4.45274e-05
0.00466025
-4.44054e-05
0.00465013
-4.42216e-05
0.00464051
-4.39981e-05
0.00463138
-4.37543e-05
0.00462272
-4.35094e-05
0.00461453
-4.33077e-05
0.00460679
-4.31159e-05
0.00459945
-4.28922e-05
0.00459249
-4.26157e-05
0.00458589
-4.22987e-05
0.00457961
-4.1964e-05
0.00457362
-4.16114e-05
0.0045679
-4.12442e-05
0.0045624
-4.08687e-05
0.00455712
-4.04625e-05
0.00455202
-4.00256e-05
0.00454707
-3.95546e-05
0.00454226
-3.90798e-05
0.00453756
-3.85941e-05
0.00453296
-3.8117e-05
0.00452846
-3.762e-05
0.00452403
-3.71122e-05
0.00451968
-3.65824e-05
0.00451539
-3.60554e-05
0.00451117
-3.55243e-05
0.004507
-3.50064e-05
0.00450289
-3.44803e-05
0.00449884
-3.39578e-05
0.00449485
-3.34265e-05
0.00449091
-3.29045e-05
0.00448702
-3.23791e-05
0.00448319
-3.18674e-05
0.00447942
-3.13503e-05
0.00447569
-3.08446e-05
0.00447203
-3.0333e-05
0.00446841
-2.98373e-05
0.00446486
-2.93407e-05
0.00446136
-2.88651e-05
0.00445791
-2.83918e-05
0.00445452
-2.79448e-05
0.00445119
-2.75066e-05
0.00444791
-2.71148e-05
0.00444468
-2.67381e-05
0.0044415
-2.6491e-05
0.00443838
-2.62404e-05
0.00443525
-2.63971e-05
0.00443222
-2.63886e-05
0.00442904
-2.75546e-05
-2.7875e-05
0.00645963
9.85233e-06
0.00647551
-2.42333e-05
0.00646423
-0.000137754
0.00641073
-0.000316773
0.00631603
-0.000505309
0.00618843
-0.000659541
0.00604146
-0.000757712
0.00588978
-0.000794104
0.00574514
-0.000777482
0.00561499
-0.000723481
0.00550268
-0.000647547
0.00540911
-0.000565076
0.00533241
-0.000486254
0.00526932
-0.00041398
0.0052178
-0.00035013
0.00517691
-0.000297689
0.00514437
-0.000256164
0.00511692
-0.000221188
0.00509329
-0.000190475
0.00507431
-0.000165955
0.00505968
-0.000148263
0.00504715
-0.000133964
0.00503528
-0.000120177
0.0050248
-0.000107885
0.00501666
-9.87708e-05
0.00501036
-9.20568e-05
0.00500471
-8.59238e-05
0.00499901
-7.9626e-05
0.00499364
-7.38088e-05
0.00498933
-6.91544e-05
0.00498608
-6.5493e-05
0.00498331
-6.22885e-05
0.00498043
-5.9139e-05
0.00497724
-5.59895e-05
0.00497406
-5.31161e-05
0.00497107
-5.06887e-05
0.00496809
-4.86083e-05
0.00496489
-4.68418e-05
0.00496119
-4.51757e-05
0.0049568
-4.34568e-05
0.00495164
-4.17427e-05
0.00494577
-4.01931e-05
0.00493922
-3.89611e-05
0.00493202
-3.80485e-05
0.00492412
-3.72616e-05
0.00491547
-3.64192e-05
0.00490606
-3.55176e-05
0.00489598
-3.46982e-05
0.00488542
-3.41003e-05
0.00487455
-3.37386e-05
0.00486353
-3.35051e-05
0.00485242
-3.32941e-05
0.00484125
-3.30536e-05
0.00483007
-3.28142e-05
0.00481895
-3.26416e-05
0.00480802
-3.25715e-05
0.00479726
-3.2555e-05
0.00478669
-3.25436e-05
0.00477631
-3.25076e-05
0.00476613
-3.2443e-05
0.00475618
-3.23441e-05
0.00474644
-3.22215e-05
0.00473692
-3.20942e-05
0.00472763
-3.19536e-05
0.00471854
-3.17823e-05
0.00470965
-3.15661e-05
0.00470092
-3.12986e-05
0.00469236
-3.09913e-05
0.00468394
-3.06653e-05
0.00467567
-3.03191e-05
0.00466752
-2.99746e-05
0.00465951
-2.96049e-05
0.00465162
-2.92216e-05
0.00464385
-2.88141e-05
0.0046362
-2.84051e-05
0.00462867
-2.79896e-05
0.00462125
-2.75877e-05
0.00461394
-2.71763e-05
0.00460675
-2.67698e-05
0.00459968
-2.63528e-05
0.00459272
-2.5945e-05
0.00458587
-2.55326e-05
0.00457914
-2.51341e-05
0.00457252
-2.47329e-05
0.00456602
-2.43421e-05
0.00455964
-2.39482e-05
0.00455337
-2.35689e-05
0.00454722
-2.3191e-05
0.00454119
-2.28325e-05
0.00453527
-2.24777e-05
0.00452947
-2.21472e-05
0.00452379
-2.18269e-05
0.00451823
-2.1546e-05
0.00451277
-2.12855e-05
0.00450741
-2.11284e-05
0.00450217
-2.09951e-05
0.00449693
-2.116e-05
0.00449186
-2.13207e-05
0.00448653
-2.22254e-05
-2.32469e-05
0.00645566
-3.30162e-06
0.00646519
-3.37649e-05
0.00645042
-0.000122979
0.00639697
-0.000263324
0.00630461
-0.000412947
0.00618117
-0.000536101
0.00603901
-0.000615558
0.00589161
-0.000646698
0.00575006
-0.000635939
0.00562164
-0.00059506
0.00551032
-0.000536228
0.00541694
-0.000471696
0.00533928
-0.000408596
0.00527491
-0.000349606
0.00522281
-0.000298027
0.00518152
-0.000256402
0.00514756
-0.000222209
0.00511822
-0.000191843
0.00509402
-0.000166272
0.00507559
-0.000147533
0.00506053
-0.000133201
0.00504629
-0.000119724
0.00503339
-0.000107276
0.00502332
-9.78098e-05
0.00501567
-9.11243e-05
0.00500887
-8.52545e-05
0.00500196
-7.9014e-05
0.00499545
-7.31156e-05
0.00499026
-6.86227e-05
0.00498634
-6.52373e-05
0.00498301
-6.21583e-05
0.0049796
-5.88848e-05
0.00497608
-5.56107e-05
0.00497297
-5.2882e-05
0.00497059
-5.07377e-05
0.00496871
-4.88091e-05
0.00496698
-4.68772e-05
0.00496511
-4.49726e-05
0.00496315
-4.32146e-05
0.00496139
-4.17003e-05
0.00495993
-4.02787e-05
0.0049586
-3.8864e-05
0.00495722
-3.75847e-05
0.00495567
-3.64916e-05
0.00495387
-3.54616e-05
0.00495184
-3.43976e-05
0.00494963
-3.33044e-05
0.00494719
-3.22612e-05
0.00494443
-3.1335e-05
0.00494121
-3.05161e-05
0.00493743
-2.9724e-05
0.00493304
-2.89045e-05
0.00492804
-2.80532e-05
0.00492244
-2.72149e-05
0.00491624
-2.64406e-05
0.00490941
-2.57482e-05
0.00490194
-2.50875e-05
0.00489383
-2.44333e-05
0.00488512
-2.37886e-05
0.00487585
-2.31783e-05
0.00486611
-2.26068e-05
0.00485597
-2.20742e-05
0.00484546
-2.15842e-05
0.00483464
-2.11342e-05
0.00482357
-2.07146e-05
0.00481232
-2.0318e-05
0.00480096
-1.9936e-05
0.00478954
-1.95722e-05
0.0047781
-1.92232e-05
0.00476668
-1.89049e-05
0.00475531
-1.86035e-05
0.00474403
-1.83205e-05
0.00473285
-1.80416e-05
0.0047218
-1.77639e-05
0.00471089
-1.74969e-05
0.00470013
-1.72328e-05
0.00468953
-1.69907e-05
0.0046791
-1.67456e-05
0.00466885
-1.65161e-05
0.00465878
-1.62797e-05
0.00464889
-1.60576e-05
0.0046392
-1.58388e-05
0.0046297
-1.56334e-05
0.0046204
-1.54332e-05
0.00461129
-1.52408e-05
0.0046024
-1.50524e-05
0.0045937
-1.48739e-05
0.00458522
-1.47024e-05
0.00457693
-1.45434e-05
0.00456884
-1.43922e-05
0.00456095
-1.42561e-05
0.00455325
-1.41297e-05
0.00454574
-1.40307e-05
0.00453841
-1.3955e-05
0.00453122
-1.39425e-05
0.00452421
-1.39886e-05
0.00451723
-1.41741e-05
0.00451049
-1.45795e-05
0.00450335
-1.50868e-05
-1.71157e-05
0.00645273
-1.34586e-05
0.00645752
-3.85542e-05
0.00643989
-0.000105347
0.00638638
-0.000209819
0.00629583
-0.000322396
0.00617559
-0.000415857
0.00603717
-0.000477138
0.00589303
-0.000502561
0.00575368
-0.000496591
0.00562625
-0.000467622
0.00551491
-0.000424891
0.00542032
-0.000377111
0.0053404
-0.000328677
0.00527425
-0.00028345
0.00522142
-0.000245195
0.00517841
-0.000213391
0.00514141
-0.00018521
0.00511052
-0.000160954
0.00508647
-0.000142228
0.00506678
-0.000127835
0.00504856
-0.000114982
0.00503209
-0.000103261
0.0050188
-9.39779e-05
0.00500808
-8.70965e-05
0.00499818
-8.12202e-05
0.0049883
-7.53772e-05
0.00497915
-6.98584e-05
0.00497144
-6.54094e-05
0.00496483
-6.20133e-05
0.00495855
-5.89552e-05
0.00495209
-5.56954e-05
0.00494564
-5.24379e-05
0.00493972
-4.96924e-05
0.00493435
-4.75144e-05
0.00492922
-4.5604e-05
0.00492403
-4.36188e-05
0.00491864
-4.14931e-05
0.0049132
-3.95296e-05
0.00490789
-3.79078e-05
0.0049027
-3.65013e-05
0.00489751
-3.5094e-05
0.00489226
-3.36097e-05
0.00488685
-3.21739e-05
0.00488126
-3.09046e-05
0.00487556
-2.97585e-05
0.0048698
-2.86452e-05
0.00486402
-2.75226e-05
0.00485819
-2.6425e-05
0.00485224
-2.53916e-05
0.00484615
-2.44243e-05
0.00483991
-2.34838e-05
0.00483356
-2.25551e-05
0.00482715
-2.16377e-05
0.00482068
-2.07521e-05
0.00481415
-1.9908e-05
0.0048075
-1.90999e-05
0.0048007
-1.82864e-05
0.00479374
-1.74703e-05
0.00478662
-1.66725e-05
0.00477936
-1.59192e-05
0.00477195
-1.51964e-05
0.00476436
-1.44863e-05
0.00475656
-1.37846e-05
0.00474854
-1.31051e-05
0.00474028
-1.2456e-05
0.0047318
-1.18441e-05
0.00472313
-1.12648e-05
0.00471428
-1.07164e-05
0.00470525
-1.01943e-05
0.00469605
-9.71025e-06
0.00468672
-9.26801e-06
0.00467726
-8.86629e-06
0.00466772
-8.50243e-06
0.00465813
-8.1695e-06
0.0046485
-7.86897e-06
0.00463887
-7.60042e-06
0.00462924
-7.36347e-06
0.00461966
-7.16215e-06
0.00461013
-6.98772e-06
0.00460069
-6.84014e-06
0.00459135
-6.71468e-06
0.00458212
-6.61419e-06
0.00457302
-6.53517e-06
0.00456407
-6.47801e-06
0.00455526
-6.43653e-06
0.00454662
-6.41113e-06
0.00453815
-6.39853e-06
0.00452985
-6.40062e-06
0.00452172
-6.4135e-06
0.00451376
-6.43786e-06
0.00450598
-6.47101e-06
0.00449836
-6.51285e-06
0.0044909
-6.57084e-06
0.0044836
-6.65254e-06
0.00447641
-6.75752e-06
0.00446938
-6.95103e-06
0.00446232
-7.12139e-06
0.00445547
-7.72741e-06
0.00444816
-7.77491e-06
-1.07115e-05
0.0064508
-2.14627e-05
0.00645216
-3.99198e-05
0.00643219
-8.53722e-05
0.00637824
-0.000155876
0.00628837
-0.000232521
0.00616929
-0.000296782
0.00603185
-0.000339691
0.00588772
-0.000358439
0.00574702
-0.000355887
0.00561749
-0.000338087
0.00550299
-0.000310401
0.00540346
-0.000277578
0.00531898
-0.000244194
0.00524927
-0.00021374
0.00519105
-0.000186973
0.00514096
-0.000163303
0.00509851
-0.000142756
0.0050634
-0.000125851
0.00503321
-0.000112035
0.00500569
-0.000100313
0.00498083
-9.01201e-05
0.00495917
-8.16034e-05
0.00493983
-7.464e-05
0.00492149
-6.87566e-05
0.00490383
-6.3561e-05
0.0048873
-5.88426e-05
0.00487202
-5.45829e-05
0.00485748
-5.08718e-05
0.00484315
-4.76794e-05
0.00482898
-4.4783e-05
0.00481524
-4.19539e-05
0.00480203
-3.92325e-05
0.00478916
-3.68207e-05
0.00477639
-3.47409e-05
0.00476363
-3.28522e-05
0.00475101
-3.0995e-05
0.00473865
-2.9129e-05
0.00472652
-2.74003e-05
0.00471451
-2.58989e-05
0.00470256
-2.45549e-05
0.00469072
-2.32498e-05
0.00467905
-2.19397e-05
0.00466756
-2.06898e-05
0.00465623
-1.95735e-05
0.00464504
-1.85682e-05
0.00463401
-1.76146e-05
0.00462316
-1.66759e-05
0.00461251
-1.57714e-05
0.00460205
-1.49275e-05
0.00459177
-1.41504e-05
0.0045817
-1.34152e-05
0.00457186
-1.27074e-05
0.00456224
-1.2025e-05
0.00455287
-1.13759e-05
0.00454372
-1.07639e-05
0.00453481
-1.01858e-05
0.00452614
-9.62019e-06
0.00451774
-9.06546e-06
0.0045096
-8.53451e-06
0.00450172
-8.03863e-06
0.00449409
-7.5657e-06
0.00448671
-7.10423e-06
0.00447957
-6.64948e-06
0.00447268
-6.21251e-06
0.00446602
-5.79623e-06
0.00445958
-5.40531e-06
0.00445335
-5.03049e-06
0.0044473
-4.67288e-06
0.00444143
-4.32531e-06
0.00443572
-3.99874e-06
0.00443016
-3.70166e-06
0.00442472
-3.42759e-06
0.00441939
-3.1753e-06
0.00441416
-2.94386e-06
0.00440902
-2.72817e-06
0.00440396
-2.5358e-06
0.00439896
-2.36131e-06
0.00439401
-2.21376e-06
0.00438911
-2.08506e-06
0.00438424
-1.97428e-06
0.0043794
-1.87885e-06
0.00437459
-1.79834e-06
0.00436979
-1.73696e-06
0.004365
-1.68998e-06
0.00436022
-1.65778e-06
0.00435545
-1.63683e-06
0.00435068
-1.62892e-06
0.00434591
-1.63281e-06
0.00434115
-1.64934e-06
0.00433639
-1.67638e-06
0.00433163
-1.71377e-06
0.00432688
-1.76294e-06
0.00432213
-1.82438e-06
0.00431739
-1.91314e-06
0.00431264
-1.99976e-06
0.00430788
-2.19231e-06
0.00430301
-2.2583e-06
0.00429815
-2.8658e-06
0.00429293
-2.55763e-06
-5.63632e-06
0.00644653
-2.70128e-05
0.00644397
-3.73618e-05
0.00642001
-6.141e-05
0.00636214
-9.80094e-05
0.00626748
-0.000137856
0.00614212
-0.000171423
0.00599644
-0.000194016
0.00584205
-0.00020405
0.00568927
-0.000203101
0.00554502
-0.000193838
0.00541347
-0.000178857
0.00529702
-0.000161126
0.0051959
-0.000143069
0.00510814
-0.000125982
0.0050316
-0.000110437
0.00496503
-9.67344e-05
0.00490724
-8.49595e-05
0.00485627
-7.4886e-05
0.00481036
-6.6122e-05
0.0047686
-5.8554e-05
0.00473069
-5.22144e-05
0.00469624
-4.71521e-05
0.00466431
-4.27086e-05
0.00463434
-3.87867e-05
0.00460624
-3.54598e-05
0.00457996
-3.2559e-05
0.00455523
-2.98556e-05
0.0045317
-2.7342e-05
0.00450917
-2.51453e-05
0.00448761
-2.32301e-05
0.00446709
-2.14331e-05
0.00444754
-1.96803e-05
0.0044288
-1.80782e-05
0.00441074
-1.66832e-05
0.00439334
-1.5453e-05
0.00437664
-1.42951e-05
0.00436067
-1.31581e-05
0.00434537
-1.20971e-05
0.00433063
-1.11652e-05
0.00431642
-1.03434e-05
0.00430275
-9.57549e-06
0.00428964
-8.8276e-06
0.00427707
-8.11988e-06
0.00426498
-7.49004e-06
0.00425335
-6.93261e-06
0.00424215
-6.41762e-06
0.0042314
-5.92185e-06
0.00422107
-5.45087e-06
0.00421117
-5.02053e-06
0.00420165
-4.63335e-06
0.00419251
-4.27486e-06
0.00418374
-3.93761e-06
0.00417534
-3.62003e-06
0.00416728
-3.32447e-06
0.00415957
-3.05267e-06
0.00415219
-2.80455e-06
0.00414514
-2.5696e-06
0.00413842
-2.34465e-06
0.00413202
-2.13349e-06
0.00412592
-1.94224e-06
0.00412012
-1.76446e-06
0.00411461
-1.59546e-06
0.00410939
-1.43068e-06
0.00410446
-1.27554e-06
0.00409979
-1.12866e-06
0.00409538
-9.93059e-07
0.00409121
-8.61001e-07
0.00408727
-7.35137e-07
0.00408355
-6.08387e-07
0.00408004
-4.82811e-07
0.00407672
-3.80844e-07
0.00407357
-2.7677e-07
0.00407057
-1.79665e-07
0.00406771
-8.81259e-08
0.00406498
1.1361e-09
0.00406237
8.27925e-08
0.00405985
1.59188e-07
0.00405741
2.21295e-07
0.00405505
2.75699e-07
0.00405275
3.21715e-07
0.00405051
3.61522e-07
0.00404832
3.96061e-07
0.00404616
4.19375e-07
0.00404404
4.35229e-07
0.00404193
4.45093e-07
0.00403985
4.50198e-07
0.00403777
4.51641e-07
0.00403569
4.49077e-07
0.0040336
4.38925e-07
0.00403149
4.26128e-07
0.00402938
4.04371e-07
0.00402723
3.78707e-07
0.00402507
3.38762e-07
0.00402287
2.88334e-07
0.00402062
2.49422e-07
0.0040183
1.26072e-07
0.00401589
1.51072e-07
0.00401334
-3.11463e-07
0.00401062
1.60009e-07
-2.32776e-06
0.00625665
0.00621968
0.00615866
0.00606105
0.00592359
0.00575257
0.00555895
0.00535531
0.00515262
0.0049592
0.00478076
0.00462005
0.00447741
0.00435186
0.00424185
0.00414555
0.00406103
0.00398658
0.0039209
0.00386278
0.00381101
0.0037643
0.00372204
0.0036837
0.00364868
0.00361657
0.00358716
0.00356027
0.00353557
0.00351279
0.00349181
0.00347258
0.00345495
0.00343872
0.00342372
0.00340988
0.00339717
0.00338553
0.00337482
0.00336493
0.00335581
0.00334743
0.00333977
0.00333273
0.00332625
0.00332029
0.00331482
0.00330983
0.00330526
0.00330108
0.00329726
0.00329378
0.00329061
0.00328774
0.00328515
0.0032828
0.00328068
0.00327879
0.00327711
0.00327563
0.00327432
0.00327318
0.0032722
0.00327138
0.00327071
0.00327017
0.00326977
0.00326949
0.00326933
0.00326931
0.00326938
0.00326956
0.00326983
0.0032702
0.00327066
0.00327119
0.00327181
0.00327249
0.00327322
0.00327399
0.00327481
0.00327566
0.00327653
0.00327742
0.00327832
0.00327923
0.00328013
0.00328104
0.00328193
0.00328281
0.00328367
0.0032845
0.0032853
0.00328604
0.00328674
0.00328733
0.00328793
0.00328807
0.00328869
-0.000831931
0.000788343
-0.00121946
0.000387527
-0.00139906
0.000179604
-0.00140205
2.98394e-06
-0.00126096
-0.00014109
-0.000964944
-0.000296012
-0.000524487
-0.000440457
-0.000525013
-0.000754951
0.00166096
-0.00111808
0.000750658
-0.00122824
0.000289766
-0.00120009
-2.51742e-05
-0.00105429
-0.000286883
-0.00080876
-0.000541545
-0.000456447
-0.000792769
-0.000981964
-0.000156197
0.00225018
-0.000557935
0.0011524
-0.000717709
0.000449539
-0.000731038
-1.18447e-05
-0.000650845
-0.000367076
-0.000507296
-0.000685094
-0.000303369
-0.000996696
-0.00128582
0.000429658
0.00257866
9.69576e-05
0.0014851
-0.000111094
0.000657591
-0.000205853
8.29143e-05
-0.000222048
-0.000350881
-0.000187708
-0.000719434
-0.000121698
-0.00106271
-0.00140799
0.000870301
0.00276483
0.000617316
0.00173808
0.000395234
0.000879672
0.000239666
0.000238482
0.000137926
-0.00024914
7.01143e-05
-0.000651623
2.21305e-05
-0.00101472
-0.00138632
0.00119707
0.00287795
0.000996732
0.00193842
0.000781882
0.00109452
0.000592635
0.00042773
0.000428773
-8.52788e-05
0.000279854
-0.000502704
0.000137294
-0.000872162
-0.00124949
0.00139125
0.00294685
0.00123795
0.00209171
0.00104154
0.00129093
0.000835838
0.000633433
0.000631637
0.000118922
0.00042646
-0.000297527
0.000215943
-0.000661645
-0.00103401
0.00145068
0.00299259
0.00133261
0.00220978
0.00116187
0.00146168
0.000958571
0.000836734
0.000737555
0.000339937
0.000503682
-6.36544e-05
0.000257036
-0.000414999
-0.000777451
0.00141286
0.00302249
0.00131809
0.00230454
0.00116834
0.00161144
0.000977255
0.00102781
0.000758568
0.000558625
0.000520533
0.000174381
0.000266323
-0.000160789
-0.000511613
0.00130662
0.00303898
0.00123234
0.00237883
0.00110361
0.00174016
0.000929959
0.00120147
0.000724783
0.000763802
0.000497996
0.000401168
0.000254474
8.27329e-05
-0.000257635
0.00116675
0.00304302
0.00111083
0.00243475
0.00100169
0.0018493
0.000848504
0.00135465
0.000663913
0.000948393
0.000457048
0.000608033
0.000233459
0.000306321
-2.46835e-05
0.00101843
0.00303646
0.00097783
0.00247535
0.000885727
0.00194141
0.000752733
0.00148764
0.000590817
0.00111031
0.00040759
0.00079126
0.000209204
0.000504708
0.000184009
0.000877627
0.00302257
0.00084879
0.00250419
0.000771929
0.00201827
0.000657309
0.00160226
0.000516212
0.00125141
0.000355684
0.000951787
0.000181739
0.000678653
0.000365241
0.000753299
0.00300425
0.000732951
0.00252453
0.000668823
0.0020824
0.000570393
0.00170069
0.000448128
0.00137367
0.000308545
0.00109137
0.000157258
0.000829939
0.000521998
0.000647317
0.00298377
0.000632454
0.0025394
0.000578839
0.00213601
0.000494846
0.00178469
0.000389227
0.00147929
0.000268048
0.00121255
0.000136509
0.000961478
0.000658009
0.000558066
0.00296337
0.000545965
0.0025515
0.000500881
0.00218109
0.000429812
0.00185575
0.000338945
0.00157016
0.000233779
0.00131772
0.00011898
0.00107628
0.000776495
0.000484564
0.00294463
0.000473784
0.00256228
0.000435119
0.00221976
0.000374344
0.00191653
0.000295909
0.00164859
0.000204448
0.00140918
0.000103762
0.00117696
0.000879765
0.000425166
0.00292818
0.000415036
0.00257241
0.000381018
0.00225378
0.000328006
0.00196954
0.000259589
0.00171701
0.000179543
0.00148922
9.08976e-05
0.00126561
0.000970173
0.000376676
0.00291405
0.000366906
0.00258218
0.000336433
0.00228425
0.000289505
0.00201647
0.000229157
0.00177736
0.000158545
0.00155984
8.02833e-05
0.00134387
0.00104997