/*--------------------------------*- C++ -*----------------------------------*\
| =========                 |                                                 |
| \\      /  F ield         | OpenFOAM: The Open Source CFD Toolbox           |
|  \\    /   O peration     | Version:  v2012                                 |
|   \\  /    A nd           | Website:  www.openfoam.com                      |
|    \\/     M anipulation  |                                                 |
\*---------------------------------------------------------------------------*/
FoamFile
{
    version     2.0;
    format      ascii;
    class       volScalarField;
    location    "0.036";
    object      k.air;
}
// * * * * * * * * * * * * * * * * * * * * * * * * * * * * * * * * * * * * * //

dimensions      [0 2 -2 0 0 0 0];


internalField   nonuniform List<scalar> 
5600
(
0.60632
0.84082
0.955073
0.978221
0.949308
0.89762
0.839355
0.787355
0.743766
0.707517
0.678641
0.657239
0.64263
0.633245
0.627331
0.623599
0.621286
0.619926
0.6192
0.618869
0.618774
0.618823
0.618968
0.61915
0.619309
0.619421
0.619492
0.619534
0.619557
0.61957
0.619576
0.61958
0.619581
0.619582
0.619582
0.619582
0.619583
0.619583
0.619583
0.619583
0.619583
0.619583
0.619583
0.619583
0.619583
0.619583
0.619583
0.619583
0.619583
0.619583
0.619583
0.619583
0.619583
0.619583
0.619583
0.619583
0.619583
0.619583
0.619583
0.619583
0.619583
0.619583
0.619583
0.619583
0.619584
0.619584
0.619584
0.619584
0.619584
0.619583
0.619585
0.61958
0.619592
0.619566
0.619624
0.619498
0.619757
0.619254
0.620182
0.61857
0.621196
0.617229
0.622761
0.615768
0.623735
0.615635
0.623244
0.61551
0.626342
0.606657
0.64283
0.586662
0.661594
0.583207
0.640173
0.631061
0.556618
0.72958
0.4757
0.64937
0.371533
0.315759
0.288703
0.275398
0.275083
0.28492
0.306765
0.344529
0.387938
0.431025
0.470614
0.507398
0.541934
0.572003
0.594555
0.609155
0.617511
0.621663
0.623393
0.623979
0.62419
0.62438
0.624639
0.62497
0.625347
0.625672
0.625902
0.626051
0.62614
0.626191
0.626219
0.626233
0.626241
0.626244
0.626246
0.626246
0.626247
0.626247
0.626247
0.626247
0.626247
0.626247
0.626247
0.626247
0.626247
0.626247
0.626247
0.626247
0.626247
0.626247
0.626247
0.626247
0.626247
0.626247
0.626248
0.626248
0.626248
0.626248
0.626248
0.626248
0.626248
0.626248
0.626248
0.626248
0.626248
0.626248
0.626248
0.626247
0.626249
0.626245
0.626256
0.626228
0.626294
0.626144
0.626472
0.625788
0.62715
0.624573
0.629183
0.621429
0.633616
0.615861
0.639585
0.610789
0.642114
0.611242
0.64066
0.607097
0.660142
0.563599
0.726966
0.4883
0.769927
0.504015
0.64328
0.723598
0.360315
0.958663
0.239065
0.664756
0.369089
0.282002
0.227756
0.192882
0.168627
0.153946
0.145395
0.14333
0.147197
0.155837
0.167105
0.180561
0.197937
0.219655
0.243355
0.265138
0.28222
0.29397
0.301055
0.304741
0.30637
0.307034
0.307433
0.307805
0.308138
0.308411
0.308625
0.308778
0.308878
0.30894
0.308975
0.308995
0.309005
0.30901
0.309012
0.309013
0.309014
0.309014
0.309014
0.309014
0.309014
0.309014
0.309014
0.309014
0.309014
0.309014
0.309014
0.309014
0.309014
0.309014
0.309014
0.309014
0.309014
0.309014
0.309014
0.309014
0.309014
0.309014
0.309014
0.309014
0.309014
0.309014
0.309014
0.309014
0.309014
0.309014
0.309015
0.309014
0.309017
0.309009
0.309029
0.308981
0.309092
0.308847
0.309363
0.308323
0.310319
0.306687
0.312923
0.302871
0.317973
0.296983
0.323673
0.292848
0.325003
0.293719
0.32556
0.284164
0.352954
0.233831
0.417837
0.175307
0.42703
0.240698
0.270214
0.456684
0.0544832
0.58365
0.0320958
0.522937
0.370073
0.280689
0.224116
0.186027
0.158548
0.138258
0.122907
0.111228
0.10294
0.0972558
0.0937451
0.0919462
0.092151
0.0951761
0.101033
0.108201
0.114607
0.119061
0.121321
0.121867
0.121427
0.120636
0.119903
0.119376
0.119057
0.118903
0.11885
0.118845
0.118856
0.118869
0.11888
0.118887
0.118891
0.118894
0.118895
0.118896
0.118896
0.118896
0.118896
0.118896
0.118896
0.118896
0.118896
0.118896
0.118896
0.118896
0.118896
0.118896
0.118896
0.118896
0.118896
0.118896
0.118896
0.118896
0.118896
0.118896
0.118896
0.118896
0.118896
0.118896
0.118896
0.118896
0.118896
0.118896
0.118896
0.118896
0.118897
0.118896
0.118898
0.118892
0.118908
0.11887
0.118954
0.118774
0.119144
0.11842
0.119767
0.117392
0.121335
0.115198
0.124075
0.112214
0.126677
0.110647
0.126853
0.111046
0.128373
0.103517
0.145776
0.0749638
0.178099
0.0502258
0.172725
0.0972885
0.0835822
0.202651
0.0146178
0.261926
0.00551868
0.395613
0.370285
0.280789
0.224389
0.186039
0.158427
0.137656
0.121547
0.108694
0.0983839
0.089998
0.083066
0.0772898
0.0725861
0.0691076
0.0668666
0.0654814
0.0644178
0.063155
0.0615536
0.0597619
0.0580219
0.0565202
0.0553485
0.0545197
0.0539889
0.0536788
0.0535103
0.0534245
0.0533835
0.0533652
0.0533576
0.0533548
0.0533538
0.0533535
0.0533535
0.0533535
0.0533535
0.0533535
0.0533535
0.0533535
0.0533535
0.0533535
0.0533535
0.0533535
0.0533535
0.0533535
0.0533535
0.0533535
0.0533535
0.0533535
0.0533535
0.0533535
0.0533535
0.0533535
0.0533535
0.0533535
0.0533535
0.0533536
0.0533535
0.0533536
0.0533536
0.0533536
0.0533536
0.0533536
0.0533536
0.0533535
0.0533537
0.0533533
0.0533543
0.0533518
0.0533576
0.0533442
0.053374
0.0533108
0.053439
0.0531913
0.0536454
0.0528588
0.0541399
0.0521894
0.0549481
0.0513517
0.0556503
0.050942
0.0557991
0.0506525
0.057171
0.0468298
0.0646845
0.0352327
0.0781843
0.0236982
0.0796131
0.0383671
0.0441111
0.0874589
0.0101531
0.110414
0.00211759
0.236879
0.370321
0.280814
0.224513
0.186211
0.158642
0.137911
0.121803
0.10894
0.098464
0.0897806
0.0824571
0.0761952
0.0708245
0.0662542
0.062378
0.0590121
0.0559765
0.0531429
0.0505075
0.048151
0.0461674
0.044609
0.0434695
0.0426945
0.0422034
0.0419117
0.0417484
0.0416617
0.041618
0.041597
0.0415873
0.0415831
0.0415813
0.0415806
0.0415803
0.0415802
0.0415801
0.0415801
0.0415801
0.0415801
0.0415801
0.0415801
0.0415801
0.0415801
0.0415801
0.0415801
0.0415801
0.0415801
0.0415801
0.0415801
0.0415801
0.0415801
0.0415801
0.0415801
0.0415801
0.0415801
0.0415801
0.0415801
0.0415801
0.0415801
0.0415801
0.0415801
0.0415801
0.0415801
0.0415801
0.0415801
0.0415801
0.04158
0.0415803
0.0415796
0.0415814
0.041577
0.0415871
0.0415652
0.0416103
0.0415225
0.0416836
0.041406
0.0418529
0.0411854
0.0421035
0.0409506
0.042264
0.0408988
0.0422632
0.0407363
0.0430075
0.0388267
0.0466862
0.0329509
0.0544933
0.0243596
0.0602769
0.0261959
0.0442654
0.056969
0.00746144
0.08087
0.00785286
0.114126
0.370325
0.280812
0.224532
0.186257
0.158707
0.138005
0.121924
0.109094
0.0986329
0.0899422
0.0826041
0.0763333
0.0709389
0.0662758
0.0622002
0.0585599
0.0552299
0.0521542
0.0493579
0.0469169
0.0449054
0.0433542
0.0422382
0.0414888
0.0410176
0.0407393
0.040584
0.040502
0.0404607
0.040441
0.0404319
0.0404279
0.0404262
0.0404255
0.0404253
0.0404252
0.0404251
0.0404251
0.0404251
0.0404251
0.0404251
0.0404251
0.0404251
0.0404251
0.0404251
0.0404251
0.0404251
0.0404251
0.0404251
0.0404251
0.0404251
0.0404251
0.0404251
0.0404251
0.0404251
0.0404251
0.0404251
0.0404251
0.0404251
0.0404251
0.0404251
0.0404251
0.0404251
0.0404251
0.0404251
0.0404251
0.0404251
0.0404251
0.040425
0.0404252
0.040425
0.0404252
0.0404253
0.0404241
0.0404281
0.0404176
0.0404412
0.0403941
0.0404795
0.0403381
0.0405525
0.0402546
0.0406352
0.0401828
0.0407011
0.0400842
0.0409301
0.0395416
0.0420835
0.0373774
0.0456224
0.0325964
0.0503168
0.0313897
0.0431264
0.050762
0.0142306
0.0758553
0.0075735
0.0583429
0.370325
0.280804
0.224527
0.18626
0.158717
0.138025
0.121954
0.109135
0.0986848
0.0900023
0.0826727
0.0764134
0.0710309
0.0663725
0.0622882
0.058628
0.0552738
0.052177
0.049367
0.0469201
0.0449089
0.0433621
0.0422522
0.0415084
0.0410417
0.0407664
0.0406131
0.0405323
0.0404917
0.0404723
0.0404634
0.0404595
0.0404579
0.0404572
0.040457
0.0404569
0.0404568
0.0404568
0.0404568
0.0404568
0.0404568
0.0404568
0.0404568
0.0404568
0.0404568
0.0404568
0.0404568
0.0404568
0.0404568
0.0404568
0.0404568
0.0404568
0.0404568
0.0404568
0.0404568
0.0404568
0.0404568
0.0404568
0.0404568
0.0404568
0.0404568
0.0404568
0.0404568
0.0404568
0.0404568
0.0404568
0.0404568
0.0404568
0.0404568
0.0404568
0.0404569
0.0404566
0.0404574
0.0404552
0.0404606
0.0404491
0.0404709
0.0404342
0.0404883
0.0404217
0.0404814
0.0404672
0.0403827
0.040611
0.0402459
0.0406398
0.0404453
0.040138
0.0412187
0.0392138
0.0422122
0.0380984
0.0435318
0.0371091
0.0427323
0.0418971
0.0334723
0.0520564
0.03072
0.0435092
0.370323
0.280796
0.224519
0.186254
0.158713
0.138025
0.121957
0.109143
0.0986956
0.0900174
0.0826924
0.0764373
0.0710588
0.0664045
0.0623242
0.058667
0.0553144
0.0522185
0.0494094
0.0469639
0.0449546
0.04341
0.0423019
0.0415594
0.0410935
0.0408184
0.0406651
0.0405841
0.0405434
0.0405238
0.0405149
0.0405109
0.0405092
0.0405085
0.0405083
0.0405082
0.0405081
0.0405081
0.0405081
0.0405081
0.0405081
0.0405081
0.0405081
0.0405081
0.0405081
0.0405081
0.0405081
0.0405081
0.0405081
0.0405081
0.0405081
0.0405081
0.0405081
0.0405081
0.0405081
0.0405081
0.0405081
0.0405081
0.0405081
0.0405081
0.0405081
0.0405081
0.0405081
0.0405081
0.0405081
0.0405081
0.0405081
0.0405081
0.0405081
0.0405081
0.0405083
0.0405077
0.0405092
0.0405055
0.040514
0.040496
0.0405315
0.0404663
0.0405774
0.0404029
0.0406525
0.0403338
0.0406831
0.0403858
0.040507
0.0406974
0.0401125
0.0410363
0.0400364
0.0406517
0.0409332
0.0394774
0.0418582
0.0394316
0.0407364
0.0413547
0.0390105
0.0419668
0.0398544
0.0400574
0.370323
0.280791
0.224515
0.186251
0.158711
0.138023
0.121958
0.109144
0.0986981
0.0900216
0.0826986
0.0764448
0.071067
0.0664139
0.0623356
0.0586808
0.05533
0.0522348
0.049426
0.0469808
0.0449723
0.0434286
0.0423211
0.0415787
0.0411124
0.0408369
0.0406832
0.0406018
0.0405608
0.0405411
0.040532
0.0405279
0.0405262
0.0405255
0.0405253
0.0405251
0.0405251
0.0405251
0.0405251
0.0405251
0.0405251
0.0405251
0.0405251
0.0405251
0.0405251
0.0405251
0.0405251
0.0405251
0.0405251
0.0405251
0.0405251
0.0405251
0.0405251
0.0405251
0.0405251
0.0405251
0.0405251
0.0405251
0.0405251
0.0405251
0.0405251
0.0405251
0.0405251
0.0405251
0.0405251
0.0405251
0.0405251
0.0405251
0.0405251
0.040525
0.0405253
0.0405246
0.0405261
0.0405229
0.0405294
0.0405172
0.0405387
0.0405037
0.0405559
0.0404855
0.0405701
0.0404803
0.0405657
0.0404835
0.0405868
0.0404174
0.0406828
0.0403792
0.0405134
0.0408635
0.0398309
0.0413067
0.0401796
0.0400305
0.0416767
0.0395594
0.0404517
0.041642
0.0394255
0.0404916
0.370323
0.280793
0.224517
0.186253
0.158713
0.138026
0.12196
0.109146
0.0987005
0.090024
0.0827008
0.0764469
0.0710691
0.0664159
0.0623377
0.0586828
0.0553319
0.0522367
0.0494275
0.0469821
0.0449733
0.0434291
0.0423214
0.0415788
0.0411125
0.040837
0.0406832
0.0406018
0.0405608
0.0405411
0.040532
0.040528
0.0405263
0.0405256
0.0405253
0.0405252
0.0405252
0.0405252
0.0405252
0.0405252
0.0405252
0.0405252
0.0405252
0.0405252
0.0405252
0.0405252
0.0405252
0.0405252
0.0405252
0.0405252
0.0405252
0.0405252
0.0405252
0.0405252
0.0405252
0.0405252
0.0405252
0.0405252
0.0405252
0.0405252
0.0405252
0.0405252
0.0405252
0.0405252
0.0405252
0.0405252
0.0405252
0.0405251
0.0405252
0.0405251
0.0405254
0.0405246
0.0405263
0.0405228
0.0405297
0.040517
0.0405389
0.0405041
0.0405546
0.0404891
0.0405619
0.0404989
0.0405267
0.0405592
0.0404582
0.0406001
0.0404897
0.0404677
0.0407031
0.0402584
0.0407758
0.0404421
0.0403186
0.0410083
0.0399976
0.0407091
0.0409795
0.0395719
0.0413469
0.0407019
0.370324
0.2808
0.224526
0.186262
0.158721
0.138032
0.121965
0.10915
0.0987028
0.0900243
0.0826989
0.0764434
0.0710646
0.0664103
0.06233
0.0586728
0.0553201
0.0522238
0.0494141
0.0469678
0.0449578
0.0434125
0.0423038
0.0415609
0.0410945
0.0408192
0.0406656
0.0405845
0.0405437
0.0405241
0.0405151
0.0405111
0.0405094
0.0405087
0.0405084
0.0405083
0.0405083
0.0405083
0.0405083
0.0405083
0.0405083
0.0405083
0.0405083
0.0405083
0.0405083
0.0405083
0.0405083
0.0405083
0.0405083
0.0405083
0.0405083
0.0405083
0.0405083
0.0405083
0.0405083
0.0405083
0.0405083
0.0405083
0.0405083
0.0405083
0.0405083
0.0405083
0.0405083
0.0405083
0.0405083
0.0405083
0.0405083
0.0405083
0.0405083
0.0405082
0.0405085
0.0405078
0.0405094
0.0405061
0.0405123
0.0405012
0.0405199
0.0404909
0.0405319
0.0404801
0.0405361
0.0404888
0.0405101
0.0405297
0.0404673
0.0405543
0.0404761
0.0405174
0.0405113
0.0405119
0.0405081
0.0404382
0.0407332
0.0401471
0.0407948
0.0405869
0.0400321
0.0409699
0.0405912
0.0400076
0.370326
0.280811
0.224538
0.186272
0.15873
0.138038
0.121966
0.109147
0.0986962
0.0900134
0.082683
0.0764228
0.0710397
0.0663813
0.0622976
0.058638
0.0552842
0.0521874
0.0493769
0.0469292
0.0449168
0.0433688
0.0422578
0.0415132
0.0410458
0.0407701
0.0406166
0.0405357
0.040495
0.0404756
0.0404667
0.0404628
0.0404612
0.0404605
0.0404603
0.0404602
0.0404601
0.0404601
0.0404601
0.0404601
0.0404601
0.0404601
0.0404601
0.0404601
0.0404601
0.0404601
0.0404601
0.0404601
0.0404601
0.0404601
0.0404601
0.0404601
0.0404601
0.0404601
0.0404601
0.0404601
0.0404601
0.0404601
0.0404601
0.0404601
0.0404601
0.0404601
0.0404601
0.0404601
0.0404601
0.0404601
0.0404601
0.0404601
0.0404602
0.04046
0.0404603
0.0404597
0.0404611
0.0404583
0.0404635
0.0404543
0.0404694
0.0404466
0.0404778
0.0404403
0.0404775
0.0404518
0.040453
0.0404844
0.0404262
0.0404867
0.0404592
0.0404311
0.0404975
0.0404533
0.0404141
0.0405297
0.0404423
0.0403647
0.0406616
0.0402024
0.0407758
0.0400563
0.0408526
0.0405703
0.370327
0.280823
0.224546
0.186275
0.158724
0.138023
0.12194
0.109109
0.0986474
0.0899572
0.0826188
0.0763471
0.0709529
0.0662933
0.0622251
0.0585948
0.0552746
0.0522062
0.049414
0.0469743
0.0449623
0.0434096
0.0422918
0.0415406
0.0410682
0.040789
0.0406333
0.040551
0.0405097
0.0404898
0.0404807
0.0404767
0.040475
0.0404743
0.0404741
0.040474
0.0404739
0.0404739
0.0404739
0.0404739
0.0404739
0.0404739
0.0404739
0.0404739
0.0404739
0.0404739
0.0404739
0.0404739
0.0404739
0.0404739
0.0404739
0.0404739
0.0404739
0.0404739
0.0404739
0.0404739
0.0404739
0.0404739
0.0404739
0.0404739
0.0404739
0.0404739
0.0404739
0.0404739
0.0404739
0.0404739
0.0404739
0.0404739
0.040474
0.0404738
0.0404741
0.0404735
0.0404747
0.0404724
0.0404767
0.0404692
0.0404813
0.0404635
0.0404871
0.0404601
0.0404845
0.040472
0.0404626
0.0404984
0.0404444
0.0404932
0.040479
0.0404454
0.0405018
0.0404813
0.0404204
0.0405302
0.0404946
0.0403329
0.0406858
0.0402582
0.0407842
0.0397419
0.0417959
0.0390834
0.370325
0.280831
0.224527
0.186237
0.158655
0.137937
0.12182
0.108955
0.0984878
0.0898169
0.082506
0.0762571
0.0709096
0.066388
0.0625793
0.0593026
0.0563455
0.0535699
0.0509705
0.048632
0.0466533
0.0450924
0.0439473
0.0431665
0.0426706
0.0423759
0.0422108
0.0421232
0.042079
0.0420578
0.042048
0.0420437
0.0420419
0.0420411
0.0420408
0.0420407
0.0420407
0.0420407
0.0420407
0.0420407
0.0420407
0.0420407
0.0420407
0.0420407
0.0420407
0.0420407
0.0420407
0.0420407
0.0420407
0.0420407
0.0420407
0.0420407
0.0420407
0.0420407
0.0420407
0.0420407
0.0420407
0.0420407
0.0420407
0.0420407
0.0420407
0.0420407
0.0420407
0.0420407
0.0420407
0.0420407
0.0420407
0.0420407
0.0420407
0.0420406
0.0420408
0.0420404
0.0420413
0.0420395
0.0420428
0.042037
0.0420463
0.0420328
0.0420504
0.042031
0.0420471
0.0420418
0.042029
0.0420615
0.042019
0.0420502
0.0420518
0.042019
0.0420373
0.0421135
0.0418873
0.0422102
0.0419817
0.0418725
0.0424475
0.0413933
0.0430058
0.040253
0.0445315
0.0388903
0.370307
0.280796
0.224403
0.186071
0.158426
0.137722
0.12158
0.108775
0.0985463
0.0902776
0.083501
0.0778873
0.0734052
0.070269
0.0684553
0.0675754
0.0669319
0.0659777
0.0645789
0.0629005
0.0612076
0.0597152
0.0585371
0.0576976
0.0571579
0.0568415
0.0566692
0.0565812
0.0565389
0.05652
0.056512
0.0565089
0.0565078
0.0565074
0.0565073
0.0565073
0.0565073
0.0565073
0.0565074
0.0565074
0.0565074
0.0565074
0.0565074
0.0565074
0.0565074
0.0565074
0.0565074
0.0565074
0.0565074
0.0565074
0.0565074
0.0565074
0.0565074
0.0565074
0.0565074
0.0565074
0.0565074
0.0565074
0.0565074
0.0565074
0.0565074
0.0565074
0.0565074
0.0565074
0.0565074
0.0565074
0.0565074
0.0565074
0.0565074
0.0565073
0.0565075
0.0565071
0.0565079
0.0565064
0.0565092
0.0565043
0.0565122
0.0565006
0.0565157
0.0564993
0.056512
0.0565108
0.0564926
0.0565323
0.0564817
0.0565181
0.0565225
0.05648
0.056492
0.0566491
0.0561811
0.0569603
0.0561258
0.0565112
0.0570531
0.0552084
0.0584033
0.0528814
0.0604711
0.0491033
0.370189
0.280571
0.224233
0.186004
0.158708
0.1386
0.123357
0.112169
0.104455
0.0996562
0.0970409
0.0961427
0.0974759
0.101923
0.109351
0.117883
0.125382
0.130608
0.133383
0.134258
0.134012
0.133329
0.132654
0.132161
0.131858
0.131711
0.13166
0.131653
0.131663
0.131675
0.131684
0.13169
0.131694
0.131696
0.131697
0.131698
0.131698
0.131698
0.131698
0.131698
0.131698
0.131698
0.131698
0.131698
0.131698
0.131698
0.131698
0.131698
0.131698
0.131698
0.131698
0.131698
0.131698
0.131698
0.131698
0.131698
0.131698
0.131698
0.131698
0.131698
0.131698
0.131698
0.131698
0.131698
0.131698
0.131698
0.131698
0.131698
0.131698
0.131698
0.131699
0.131698
0.131699
0.131697
0.1317
0.131695
0.131705
0.131689
0.131712
0.131684
0.13171
0.131699
0.131674
0.131755
0.131613
0.131789
0.131645
0.131685
0.131748
0.131741
0.131363
0.132442
0.13068
0.132411
0.131867
0.129826
0.134559
0.125774
0.135741
0.119071
0.369443
0.281479
0.22862
0.19288
0.170798
0.156127
0.149846
0.150078
0.156865
0.168249
0.181638
0.197366
0.217167
0.241099
0.266437
0.289205
0.306769
0.318684
0.325809
0.329543
0.331226
0.33192
0.332334
0.332728
0.33307
0.333343
0.333548
0.333691
0.333782
0.333838
0.333869
0.333886
0.333895
0.333899
0.333901
0.333902
0.333903
0.333903
0.333903
0.333903
0.333903
0.333903
0.333903
0.333903
0.333903
0.333903
0.333903
0.333903
0.333903
0.333903
0.333903
0.333903
0.333903
0.333903
0.333903
0.333903
0.333903
0.333903
0.333903
0.333903
0.333903
0.333903
0.333903
0.333903
0.333903
0.333903
0.333903
0.333903
0.333903
0.333903
0.333903
0.333903
0.333904
0.333902
0.333906
0.333899
0.333912
0.33389
0.333925
0.333875
0.333935
0.333882
0.333893
0.333975
0.333751
0.334131
0.33366
0.334064
0.333906
0.333776
0.333911
0.334351
0.332807
0.335157
0.333311
0.332141
0.337211
0.326034
0.337617
0.317777
0.372132
0.315626
0.292833
0.279153
0.286648
0.295721
0.330707
0.373109
0.419561
0.463912
0.503703
0.540266
0.574018
0.602487
0.622962
0.635727
0.64277
0.646121
0.647399
0.64772
0.647758
0.647846
0.648044
0.648322
0.648655
0.648951
0.649162
0.649298
0.649378
0.649424
0.649448
0.649461
0.649467
0.64947
0.649471
0.649472
0.649472
0.649473
0.649473
0.649473
0.649473
0.649473
0.649473
0.649473
0.649473
0.649473
0.649473
0.649473
0.649473
0.649473
0.649473
0.649473
0.649473
0.649473
0.649473
0.649473
0.649473
0.649473
0.649473
0.649473
0.649473
0.649473
0.649473
0.649473
0.649473
0.649473
0.649473
0.649474
0.649474
0.649474
0.649474
0.649474
0.649474
0.649473
0.649475
0.649471
0.649479
0.649464
0.649491
0.649448
0.649508
0.649438
0.649496
0.649493
0.649379
0.649668
0.649195
0.649766
0.649292
0.649455
0.649632
0.64943
0.649069
0.650351
0.64858
0.649015
0.651735
0.643207
0.655304
0.636137
0.606744
0.839805
0.952184
0.969577
0.937601
0.881192
0.821127
0.769221
0.724983
0.688525
0.659882
0.638933
0.624792
0.615833
0.610282
0.606816
0.604648
0.603337
0.602605
0.60225
0.602137
0.602177
0.602315
0.602489
0.602639
0.602744
0.602809
0.602848
0.602869
0.60288
0.602886
0.602889
0.60289
0.602891
0.602891
0.602891
0.602891
0.602891
0.602891
0.602891
0.602891
0.602891
0.602891
0.602891
0.602891
0.602891
0.602891
0.602891
0.602891
0.602892
0.602892
0.602892
0.602892
0.602892
0.602892
0.602892
0.602892
0.602892
0.602892
0.602892
0.602892
0.602892
0.602892
0.602892
0.602892
0.602892
0.602892
0.602892
0.602892
0.602892
0.602892
0.602892
0.602892
0.602892
0.602893
0.602892
0.602894
0.60289
0.602896
0.602886
0.602901
0.602882
0.602902
0.60289
0.602879
0.602934
0.602823
0.602981
0.602819
0.602921
0.602934
0.602848
0.602894
0.603136
0.602766
0.603374
0.604211
0.603978
0.610512
0.611754
0.931425
0.0438579
1.57975
1.02965
0.311584
0.1123
0.0770301
0.0681925
0.0652169
0.0620551
0.0583113
0.0548627
0.0516143
0.04856
0.0459849
0.0440562
0.042712
0.0418183
0.0412597
0.0409336
0.0407612
0.0406814
0.0406472
0.040633
0.0406271
0.0406246
0.0406235
0.040623
0.0406227
0.0406226
0.0406225
0.0406225
0.0406225
0.0406225
0.0406225
0.0406225
0.0406225
0.0406225
0.0406225
0.0406225
0.0406225
0.0406225
0.0406225
0.0406225
0.0406225
0.0406225
0.0406225
0.0406225
0.0406225
0.0406225
0.0406225
0.0406225
0.0406225
0.0406225
0.0406225
0.0406225
0.0406225
0.0406225
0.0406225
0.0406225
0.0406225
0.0406225
0.0406225
0.0406225
0.0406225
0.0406225
0.0406225
0.0406225
0.0406225
0.0406225
0.0406225
0.0406225
0.0406225
0.0406225
0.0406225
0.0406225
0.0406225
0.0406225
0.0406225
0.0406225
0.0406225
0.0406225
0.0406225
0.0406225
0.0406225
0.0406224
0.0406225
0.0406224
0.0406225
0.0406224
0.0406223
0.0406225
0.0406221
0.0406222
0.040622
0.040621
0.0406209
0.0406183
0.0406175
0.0406112
1.23392
0.0562763
1.42322
0.626023
0.179049
0.0822832
0.0666269
0.0629107
0.0615286
0.0598801
0.0571241
0.0541714
0.0512147
0.0483259
0.0458206
0.0439277
0.0426261
0.0417751
0.0412446
0.0409303
0.0407571
0.0406723
0.0406346
0.0406185
0.0406117
0.0406088
0.0406075
0.040607
0.0406067
0.0406066
0.0406066
0.0406065
0.0406065
0.0406065
0.0406065
0.0406065
0.0406065
0.0406065
0.0406065
0.0406065
0.0406065
0.0406065
0.0406065
0.0406065
0.0406065
0.0406065
0.0406065
0.0406065
0.0406065
0.0406065
0.0406065
0.0406065
0.0406065
0.0406065
0.0406065
0.0406065
0.0406065
0.0406065
0.0406065
0.0406065
0.0406065
0.0406065
0.0406065
0.0406065
0.0406065
0.0406065
0.0406065
0.0406065
0.0406065
0.0406065
0.0406065
0.0406065
0.0406065
0.0406065
0.0406065
0.0406065
0.0406065
0.0406065
0.0406065
0.0406065
0.0406065
0.0406065
0.0406065
0.0406065
0.0406065
0.0406064
0.0406066
0.0406064
0.0406065
0.0406066
0.0406062
0.0406069
0.0406057
0.040607
0.0406056
0.0406064
0.0406048
0.0406053
0.0406031
0.0406032
0.848538
0.217852
0.78753
0.261427
0.085765
0.0602141
0.0604498
0.0611309
0.059867
0.0584712
0.0562182
0.0535818
0.0508335
0.0480874
0.0456535
0.0437977
0.0425402
0.0417385
0.0412418
0.0409429
0.0407705
0.0406787
0.0406341
0.0406137
0.0406045
0.0406004
0.0405985
0.0405977
0.0405973
0.0405971
0.040597
0.0405969
0.0405969
0.0405969
0.0405969
0.0405969
0.0405969
0.0405969
0.0405969
0.0405969
0.0405969
0.0405969
0.0405969
0.0405969
0.0405969
0.0405969
0.0405969
0.0405969
0.0405969
0.0405969
0.0405969
0.0405969
0.0405969
0.0405969
0.0405969
0.0405969
0.0405969
0.0405969
0.0405969
0.0405969
0.0405969
0.0405969
0.0405969
0.0405969
0.0405969
0.0405969
0.0405969
0.0405969
0.0405969
0.0405969
0.0405969
0.0405969
0.0405969
0.0405969
0.0405969
0.0405969
0.0405969
0.0405969
0.0405969
0.0405969
0.0405969
0.0405969
0.0405969
0.0405969
0.0405969
0.0405968
0.040597
0.0405968
0.0405969
0.0405971
0.0405964
0.0405978
0.0405957
0.0405984
0.0405954
0.0405989
0.0405954
0.0406003
0.0405964
0.0406054
0.392596
0.243829
0.273542
0.104186
0.0694775
0.0594854
0.057904
0.05929
0.05797
0.0567635
0.0551447
0.0529435
0.0504314
0.0478335
0.045482
0.0436663
0.0424455
0.0416891
0.0412315
0.0409572
0.0407942
0.0407007
0.0406508
0.0406259
0.0406138
0.040608
0.0406053
0.0406039
0.0406032
0.0406029
0.0406027
0.0406027
0.0406026
0.0406026
0.0406026
0.0406026
0.0406026
0.0406026
0.0406026
0.0406026
0.0406026
0.0406026
0.0406026
0.0406026
0.0406026
0.0406026
0.0406026
0.0406026
0.0406026
0.0406026
0.0406026
0.0406026
0.0406026
0.0406026
0.0406026
0.0406026
0.0406026
0.0406026
0.0406026
0.0406026
0.0406026
0.0406026
0.0406026
0.0406026
0.0406026
0.0406026
0.0406026
0.0406026
0.0406026
0.0406026
0.0406026
0.0406026
0.0406026
0.0406026
0.0406026
0.0406026
0.0406026
0.0406026
0.0406026
0.0406026
0.0406026
0.0406026
0.0406026
0.0406025
0.0406026
0.0406025
0.0406027
0.0406025
0.0406026
0.0406028
0.040602
0.0406038
0.0406011
0.0406048
0.0406009
0.0406059
0.0406015
0.0406093
0.040605
0.0406201
0.157725
0.135831
0.11555
0.0781372
0.0478855
0.0454005
0.0516025
0.0576537
0.0571907
0.0554314
0.0540159
0.0522429
0.0500066
0.0475673
0.0453068
0.0435359
0.0423427
0.0416181
0.0411938
0.0409461
0.0407995
0.0407124
0.0406627
0.0406358
0.040622
0.0406151
0.0406116
0.0406099
0.0406091
0.0406086
0.0406084
0.0406083
0.0406082
0.0406082
0.0406082
0.0406082
0.0406082
0.0406082
0.0406082
0.0406082
0.0406082
0.0406082
0.0406082
0.0406082
0.0406082
0.0406082
0.0406082
0.0406082
0.0406082
0.0406082
0.0406082
0.0406082
0.0406082
0.0406082
0.0406082
0.0406082
0.0406082
0.0406082
0.0406082
0.0406082
0.0406082
0.0406082
0.0406082
0.0406082
0.0406082
0.0406082
0.0406082
0.0406082
0.0406082
0.0406082
0.0406082
0.0406082
0.0406082
0.0406082
0.0406082
0.0406082
0.0406082
0.0406082
0.0406082
0.0406082
0.0406082
0.0406082
0.0406082
0.0406082
0.0406082
0.0406081
0.0406083
0.0406081
0.0406082
0.0406085
0.0406076
0.0406094
0.0406068
0.0406104
0.0406067
0.0406117
0.0406077
0.0406155
0.0406121
0.0406281
0.0738322
0.0481136
0.0627662
0.0342546
0.0329368
0.0504765
0.0554672
0.0587265
0.0580798
0.0551521
0.0531059
0.0514708
0.0495177
0.0472749
0.0451257
0.0434091
0.0422404
0.0415346
0.0411314
0.0409041
0.0407741
0.0406974
0.0406527
0.0406278
0.0406146
0.0406078
0.0406043
0.0406026
0.0406018
0.0406014
0.0406011
0.040601
0.040601
0.0406009
0.0406009
0.0406009
0.0406009
0.0406009
0.0406009
0.0406009
0.0406009
0.0406009
0.0406009
0.0406009
0.0406009
0.0406009
0.0406009
0.0406009
0.0406009
0.0406009
0.0406009
0.0406009
0.0406009
0.0406009
0.0406009
0.0406009
0.0406009
0.0406009
0.0406009
0.0406009
0.0406009
0.0406009
0.0406009
0.0406009
0.0406009
0.0406009
0.0406009
0.0406009
0.0406009
0.0406009
0.0406009
0.0406009
0.0406009
0.0406009
0.0406009
0.0406009
0.0406009
0.0406009
0.0406009
0.0406009
0.0406009
0.0406009
0.0406009
0.0406009
0.040601
0.0406009
0.040601
0.0406009
0.0406009
0.0406011
0.0406005
0.0406019
0.0405998
0.0406028
0.0405998
0.0406039
0.0406007
0.0406072
0.0406049
0.0406187
0.048295
0.0443793
0.0381689
0.035559
0.0503431
0.0543754
0.0535122
0.0549586
0.0565918
0.0548024
0.0524194
0.0506177
0.0488474
0.0468523
0.0448821
0.0432623
0.0421347
0.0414474
0.0410607
0.040849
0.0407327
0.0406668
0.0406293
0.0406085
0.0405975
0.0405919
0.0405891
0.0405878
0.0405871
0.0405867
0.0405865
0.0405864
0.0405864
0.0405863
0.0405863
0.0405863
0.0405863
0.0405863
0.0405863
0.0405863
0.0405863
0.0405863
0.0405863
0.0405863
0.0405863
0.0405863
0.0405863
0.0405863
0.0405863
0.0405863
0.0405863
0.0405863
0.0405863
0.0405863
0.0405863
0.0405863
0.0405863
0.0405863
0.0405863
0.0405863
0.0405863
0.0405863
0.0405863
0.0405863
0.0405863
0.0405863
0.0405863
0.0405863
0.0405863
0.0405863
0.0405863
0.0405863
0.0405863
0.0405863
0.0405863
0.0405863
0.0405863
0.0405863
0.0405863
0.0405863
0.0405863
0.0405863
0.0405863
0.0405863
0.0405863
0.0405863
0.0405864
0.0405863
0.0405863
0.0405865
0.0405859
0.0405872
0.0405854
0.0405879
0.0405853
0.0405888
0.0405861
0.0405914
0.0405894
0.0406009
0.0454525
0.0451934
0.0360695
0.0513304
0.0514913
0.0484584
0.0521331
0.0541711
0.0560917
0.0560011
0.0538452
0.0512719
0.048856
0.0466158
0.0446549
0.0431192
0.0420549
0.041396
0.0410206
0.0408144
0.0407021
0.0406409
0.0406078
0.0405905
0.0405816
0.0405772
0.0405749
0.0405738
0.0405733
0.0405731
0.040573
0.0405729
0.0405729
0.0405729
0.0405728
0.0405728
0.0405728
0.0405728
0.0405728
0.0405728
0.0405728
0.0405728
0.0405728
0.0405728
0.0405728
0.0405728
0.0405728
0.0405728
0.0405728
0.0405728
0.0405728
0.0405728
0.0405728
0.0405728
0.0405728
0.0405728
0.0405728
0.0405728
0.0405728
0.0405728
0.0405728
0.0405728
0.0405728
0.0405728
0.0405728
0.0405728
0.0405728
0.0405728
0.0405728
0.0405728
0.0405728
0.0405728
0.0405728
0.0405728
0.0405728
0.0405728
0.0405728
0.0405728
0.0405728
0.0405728
0.0405728
0.0405728
0.0405728
0.0405728
0.0405729
0.0405728
0.0405729
0.0405728
0.0405728
0.040573
0.0405725
0.0405735
0.040572
0.0405742
0.0405719
0.0405748
0.0405724
0.0405768
0.0405749
0.0405844
0.0426174
0.0403341
0.042664
0.0443999
0.0468409
0.0458023
0.0494833
0.0524143
0.0525417
0.0533381
0.0537186
0.05252
0.0500481
0.0471804
0.0446786
0.0428915
0.0417936
0.0411909
0.0408843
0.0407309
0.0406514
0.0406087
0.0405858
0.0405738
0.0405678
0.0405649
0.0405635
0.0405629
0.0405625
0.0405624
0.0405623
0.0405622
0.0405622
0.0405622
0.0405622
0.0405622
0.0405622
0.0405622
0.0405622
0.0405622
0.0405622
0.0405622
0.0405622
0.0405622
0.0405622
0.0405622
0.0405622
0.0405622
0.0405622
0.0405622
0.0405622
0.0405622
0.0405622
0.0405622
0.0405622
0.0405622
0.0405622
0.0405622
0.0405622
0.0405622
0.0405622
0.0405622
0.0405622
0.0405622
0.0405622
0.0405622
0.0405622
0.0405622
0.0405622
0.0405622
0.0405622
0.0405622
0.0405622
0.0405622
0.0405622
0.0405622
0.0405622
0.0405622
0.0405622
0.0405622
0.0405622
0.0405622
0.0405622
0.0405622
0.0405622
0.0405621
0.0405622
0.0405621
0.0405622
0.0405623
0.0405619
0.0405628
0.0405615
0.0405632
0.0405613
0.0405637
0.0405616
0.0405651
0.0405632
0.0405707
0.0412642
0.0425006
0.0392673
0.0406323
0.0495799
0.0492427
0.0477389
0.0519932
0.0528452
0.0510709
0.0506017
0.0509762
0.0504718
0.0486808
0.0462931
0.0441138
0.0425387
0.0415735
0.0410497
0.0407874
0.0406611
0.0406014
0.0405739
0.0405616
0.0405562
0.0405539
0.040553
0.0405526
0.0405524
0.0405523
0.0405523
0.0405523
0.0405523
0.0405523
0.0405523
0.0405523
0.0405523
0.0405523
0.0405523
0.0405523
0.0405523
0.0405523
0.0405523
0.0405523
0.0405523
0.0405523
0.0405523
0.0405523
0.0405523
0.0405523
0.0405523
0.0405523
0.0405523
0.0405523
0.0405523
0.0405523
0.0405523
0.0405523
0.0405523
0.0405523
0.0405523
0.0405523
0.0405523
0.0405523
0.0405523
0.0405523
0.0405523
0.0405523
0.0405523
0.0405523
0.0405523
0.0405523
0.0405523
0.0405523
0.0405523
0.0405523
0.0405523
0.0405523
0.0405523
0.0405523
0.0405523
0.0405523
0.0405523
0.0405523
0.0405523
0.0405523
0.0405523
0.0405523
0.0405523
0.0405524
0.0405521
0.0405527
0.0405517
0.040553
0.0405516
0.0405532
0.0405516
0.0405539
0.0405523
0.0405574
0.0392345
0.042062
0.0418123
0.0418829
0.0421214
0.0456289
0.0483282
0.0501404
0.0528396
0.0533411
0.0514229
0.0488534
0.0466357
0.0448861
0.0434969
0.0424223
0.0416532
0.0411548
0.0408615
0.0407012
0.0406173
0.040575
0.0405548
0.0405458
0.0405421