/*--------------------------------*- C++ -*----------------------------------*\
| =========                 |                                                 |
| \\      /  F ield         | OpenFOAM: The Open Source CFD Toolbox           |
|  \\    /   O peration     | Version:  v2012                                 |
|   \\  /    A nd           | Website:  www.openfoam.com                      |
|    \\/     M anipulation  |                                                 |
\*---------------------------------------------------------------------------*/
FoamFile
{
    version     2.0;
    format      ascii;
    class       volScalarField;
    location    "0.393";
    object      k.air;
}
// * * * * * * * * * * * * * * * * * * * * * * * * * * * * * * * * * * * * * //

dimensions      [0 2 -2 0 0 0 0];


internalField   nonuniform List<scalar> 
5600
(
0.606305
0.840806
0.955129
0.978152
0.949176
0.897589
0.839551
0.787282
0.743284
0.707303
0.679329
0.658389
0.643337
0.632665
0.625309
0.620033
0.616297
0.613281
0.610969
0.60879
0.607123
0.605414
0.604252
0.603089
0.602459
0.601745
0.601451
0.601024
0.600893
0.600563
0.600427
0.600037
0.599811
0.599334
0.599046
0.598523
0.59821
0.597674
0.597368
0.596846
0.596574
0.596094
0.595878
0.595449
0.595305
0.59494
0.594868
0.594555
0.594537
0.594265
0.594288
0.594055
0.594126
0.593906
0.594037
0.593851
0.594047
0.593899
0.594151
0.594046
0.594365
0.594281
0.594669
0.594604
0.595057
0.595007
0.595528
0.595487
0.596077
0.596035
0.596703
0.596653
0.597406
0.597339
0.598182
0.598091
0.599027
0.598909
0.599931
0.599789
0.600875
0.600732
0.601833
0.601754
0.602762
0.602898
0.603581
0.604281
0.604116
0.606192
0.60401
0.609242
0.602195
0.615187
0.595292
0.63011
0.571266
0.676455
0.478281
0.842251
0.371636
0.315571
0.288652
0.275676
0.274955
0.284665
0.307346
0.344957
0.387098
0.430225
0.471448
0.509008
0.541772
0.569433
0.591942
0.609765
0.62352
0.63388
0.641776
0.64773
0.652598
0.656357
0.660045
0.662979
0.665956
0.668039
0.670337
0.6717
0.673315
0.673904
0.674909
0.674953
0.675593
0.675399
0.675882
0.675587
0.676002
0.675679
0.676089
0.675796
0.676255
0.676026
0.676563
0.676407
0.677025
0.676875
0.67752
0.677333
0.677992
0.67778
0.678472
0.678245
0.679005
0.678799
0.679638
0.679455
0.680407
0.680229
0.681296
0.681098
0.68227
0.682056
0.683334
0.683081
0.684469
0.684163
0.685661
0.685293
0.686906
0.686473
0.688231
0.687697
0.689629
0.688969
0.691103
0.690288
0.69264
0.691646
0.694205
0.693022
0.695763
0.694426
0.697275
0.695903
0.698687
0.69756
0.699872
0.699624
0.700531
0.702565
0.699894
0.70745
0.696344
0.716689
0.686176
0.736058
0.659312
0.780292
0.585994
0.883735
0.369154
0.281893
0.227744
0.192984
0.168604
0.153779
0.145624
0.143612
0.146975
0.155086
0.167039
0.181948
0.199277
0.218576
0.239125
0.260636
0.282472
0.304544
0.326397
0.348232
0.369529
0.390361
0.409293
0.425535
0.439951
0.452048
0.463013
0.471871
0.480048
0.486551
0.492838
0.497683
0.502729
0.506466
0.510605
0.513515
0.516992
0.519324
0.52236
0.524313
0.52706
0.52875
0.53129
0.532744
0.535135
0.536363
0.538579
0.539586
0.541667
0.542512
0.544513
0.545235
0.547217
0.547853
0.549845
0.550403
0.552435
0.552902
0.554971
0.55533
0.557443
0.557686
0.559859
0.559971
0.562228
0.562192
0.564551
0.564373
0.566854
0.566534
0.569158
0.568677
0.57148
0.570796
0.573814
0.572878
0.576146
0.574906
0.578439
0.576866
0.580676
0.57877
0.582848
0.580658
0.584935
0.5826
0.586881
0.584721
0.588536
0.587246
0.589584
0.590644
0.58935
0.595966
0.586356
0.605336
0.577509
0.622516
0.557915
0.636747
0.370113
0.280629
0.224133
0.186023
0.158585
0.138159
0.122995
0.111306
0.102967
0.096943
0.0936001
0.0922591
0.0929985
0.0953041
0.0995241
0.105276
0.112836
0.12191
0.132832
0.145244
0.159465
0.175127
0.192519
0.210425
0.229129
0.247351
0.26554
0.281945
0.297791
0.311726
0.325209
0.336662
0.347911
0.357362
0.36686
0.374686
0.382843
0.389457
0.396611
0.402242
0.40853
0.41324
0.418719
0.422619
0.427374
0.43048
0.434685
0.43728
0.44113
0.443364
0.446981
0.448941
0.452412
0.454149
0.45751
0.459015
0.462279
0.463552
0.46674
0.467787
0.470931
0.47176
0.474897
0.475515
0.478681
0.479094
0.482323
0.482532
0.485865
0.48586
0.489326
0.489097
0.492723
0.492223
0.496042
0.495221
0.499288
0.498095
0.502443
0.500836
0.505494
0.503456
0.508449
0.506
0.51131
0.508521
0.51405
0.511095
0.516581
0.513861
0.51873
0.517079
0.520162
0.521299
0.520245
0.527086
0.518595
0.533597
0.518254
0.52988
0.370313
0.280747
0.224421
0.185999
0.158478
0.137585
0.121614
0.10866
0.0984666
0.0898396
0.0830842
0.0772521
0.0729431
0.0691187
0.0667024
0.0645332
0.0638676
0.0633846
0.0644533
0.0657104
0.0687347
0.0720894
0.0775079
0.0834102
0.0915089
0.100082
0.110736
0.121465
0.133823
0.145999
0.159484
0.172601
0.186578
0.199245
0.212506
0.224215
0.236448
0.247009
0.258147
0.267555
0.277615
0.2859
0.295071
0.302338
0.310583
0.316812
0.324208
0.329584
0.336332
0.341049
0.347314
0.351487
0.357342
0.361004
0.366454
0.36955
0.374633
0.377264
0.382079
0.384307
0.388929
0.390801
0.395293
0.396845
0.401268
0.402531
0.406936
0.407925
0.412352
0.413059
0.417537
0.417928
0.422474
0.422526
0.427174
0.426874
0.431648
0.430909
0.435862
0.434708
0.439893
0.438326
0.443771
0.441817
0.447499
0.445248
0.451059
0.448672
0.454391
0.452198
0.457385
0.455987
0.459882
0.460213
0.461807
0.464661
0.463756
0.467896
0.467874
0.465911
0.370347
0.280773
0.224556
0.186153
0.158707
0.137831
0.121893
0.108842
0.0985775
0.0896337
0.0825889
0.0760589
0.0710559
0.0660812
0.0624914
0.0586003
0.0560752
0.0530334
0.0513932
0.0490583
0.0482235
0.0465814
0.0465862
0.0457646
0.0467666
0.0469366
0.0491182
0.0505321
0.0541031
0.0569796
0.0621141
0.0666138
0.0734535
0.0794789
0.0877264
0.0949907
0.104324
0.11244
0.122515
0.131161
0.141764
0.150717
0.161295
0.170035
0.180358
0.188642
0.198503
0.206163
0.215461
0.222443
0.231176
0.237495
0.245703
0.251417
0.259263
0.26442
0.271831
0.276406
0.283408
0.287435
0.294099
0.297635
0.304037
0.307145
0.313356
0.316081
0.322147
0.324509
0.330443
0.332433
0.338229
0.339769
0.34544
0.34658
0.352184
0.35295
0.358529
0.358915
0.364473
0.36452
0.370077
0.369841
0.375383
0.374944
0.380411
0.379894
0.385163
0.384753
0.389613
0.389575
0.393734
0.394387
0.39754
0.399105
0.401201
0.403388
0.405163
0.406664
0.409593
0.40886
0.370352
0.280768
0.224581
0.18619
0.158783
0.137916
0.122028
0.108974
0.0987579
0.0897891
0.0827727
0.0761778
0.0711501
0.0660427
0.0623471
0.0582261
0.0554795
0.0520431
0.050014
0.0470724
0.0456152
0.0430484
0.0420755
0.0398177
0.0392929
0.037315
0.0372284
0.0355402
0.0359228
0.0345733
0.0355001
0.0345955
0.0361561
0.0358165
0.0381114
0.0384685
0.0415991
0.04278
0.0468322
0.0489367
0.0539778
0.0571
0.0630739
0.067076
0.0739105
0.0786963
0.0862646
0.0916592
0.0997745
0.105556
0.114027
0.119996
0.128696
0.134675
0.143273
0.149096
0.157612
0.163197
0.171548
0.17681
0.184937
0.189827
0.197703
0.202206
0.209828
0.213952
0.221332
0.225099
0.232333
0.23582
0.242893
0.246049
0.25291
0.255723
0.262364
0.264853
0.271274
0.273482
0.27967
0.281657
0.287591
0.289437
0.295079
0.296877
0.302166
0.304012
0.308858
0.310864
0.31515
0.31742
0.321061
0.323631
0.326646
0.3294
0.331973
0.33464
0.33709
0.339402
0.34154
0.343868
0.370349
0.280763
0.224574
0.186197
0.158788
0.137942
0.122049
0.109024
0.0987976
0.0898644
0.0828293
0.0762755
0.0712175
0.0661532
0.0624106
0.0583297
0.0555143
0.0521071
0.0499783
0.0470448
0.0454462
0.0428525
0.0416792
0.0393325
0.0385138
0.0363496
0.0358373
0.0338117
0.0335745
0.0316595
0.0316818
0.0298668
0.0301447
0.0284286
0.0289693
0.0273663
0.0281886
0.0267282
0.0278634
0.0265993
0.0280937
0.0270837
0.0289942
0.0283077
0.0306874
0.0304063
0.0333105
0.0335184
0.0369974
0.0377629
0.0418549
0.0432357
0.0479664
0.0499848
0.0552687
0.0578252
0.0636339
0.0666949
0.0729746
0.0764766
0.0831457
0.0869986
0.0939546
0.0980486
0.105184
0.109411
0.116639
0.120914
0.12804
0.132175
0.139174
0.143266
0.150155
0.154177
0.160895
0.164833
0.171316
0.175176
0.181371
0.18517
0.191028
0.194796
0.200274
0.204046
0.209107
0.212919
0.217529
0.221404
0.22555
0.22948
0.233184
0.237133
0.240442
0.244354
0.247294
0.251151
0.253656
0.257573
0.259257
0.263403
0.370342
0.280765
0.224554
0.186207
0.158766
0.137965
0.122027
0.109061
0.0987756
0.0899173
0.0828074
0.0763453
0.071195
0.0662404
0.0623863
0.0584339
0.0554859
0.0522264
0.0499417
0.0471753
0.0453943
0.0429872
0.0416008
0.0394599
0.0383915
0.0364502
0.0356442
0.0338544
0.0332697
0.0315953
0.0312024
0.029616
0.0293932
0.0278744
0.0278065
0.0263408
0.026417
0.024995
0.0252096
0.0238272
0.0241797
0.0228362
0.0233287
0.0220305
0.022667
0.0214291
0.0222167
0.0210604
0.0220126
0.0209696
0.0221071
0.0212098
0.0225574
0.0218494
0.0234372
0.0229628
0.0248181
0.0246281
0.0267783
0.0269253
0.0293981
0.0299334
0.0327532
0.0337173
0.0369006
0.0383291
0.0418824
0.0437981
0.0476666
0.0499949
0.0541241
0.0568516
0.0612123
0.0643257
0.0688753
0.0723473
0.0770304
0.0808206
0.085568
0.0896258
0.094365
0.0986328
0.103294
0.107716
0.112239
0.116768
0.121111
0.125706
0.129845
0.134464
0.138401
0.142998
0.14675
0.151329
0.154881
0.159376
0.162633
0.166999
0.169842
0.173839
0.370333
0.280774
0.224534
0.186224
0.15874
0.137991
0.121996
0.109099
0.0987386
0.0899664
0.0827642
0.0764068
0.0711449
0.066315
0.0623288
0.0585219
0.0554205
0.0523283
0.0498674
0.0472917
0.04531
0.0431184
0.0415051
0.0396056
0.0382823
0.0366097
0.0355185
0.0340257
0.0331234
0.0317746
0.031029
0.0297967
0.0291832
0.0280461
0.0275452
0.0264872
0.026083
0.0250918
0.0247716
0.0238377
0.0235914
0.0227075
0.0225272
0.0216891
0.0215659
0.020774
0.0207
0.0199551
0.0199262
0.0192294
0.0192449
0.0185975
0.0186576
0.0180653
0.0181703
0.017642
0.017794
0.0173417
0.0175449
0.0171837
0.0174454
0.0171939
0.0175246
0.0174089
0.0178237
0.0178674
0.0183864
0.0186192
0.0192675
0.0197186
0.0205201
0.021221
0.0222023
0.0231848
0.0243746
0.0256713
0.0271006
0.028741
0.0304363
0.0324434
0.0344297
0.036817
0.0391113
0.0418799
0.0444854
0.0476216
0.0505303
0.0540043
0.0571941
0.0609627
0.0644022
0.0684006
0.0720481
0.0761994
0.080029
0.0843083
0.0882823
0.0925869
0.0966316
0.100791
0.370327
0.280786
0.224525
0.186241
0.158726
0.138014
0.121977
0.109126
0.0987134
0.0899998
0.0827329
0.0764459
0.0711074
0.0663597
0.0622852
0.0585724
0.0553707
0.0523848
0.0498112
0.0473545
0.0452471
0.0431876
0.0414355
0.0396813
0.0382061
0.036692
0.0354357
0.0341145
0.0330343
0.03187
0.0309338
0.0298992
0.0290821
0.0281559
0.0274391
0.0266048
0.025973
0.0252182
0.024659
0.0239748
0.0234786
0.0228575
0.0224176
0.0218552
0.0214649
0.0209608
0.020615
0.0201697
0.019868
0.0194819
0.0192267
0.018902
0.0186974
0.0184412
0.0182926
0.0181145
0.018031
0.0179441
0.0179385
0.0179612
0.0180517
0.0182044
0.0184113
0.0187196
0.0190704
0.0195633
0.0200885
0.0207935
0.0215232
0.022469
0.0234351
0.0246533
0.0258897
0.0274089
0.0289464
0.030793
0.0326581
0.0348523
0.037062
0.0396124
0.0421745
0.0450784
0.0479896
0.0511969
0.0543863
0.0578544
0.061297
0.0650038
0.0686769
0.0725884
0.0764665
0.0805466
0.0845923
0.0887979
0.0929664
0.0972491
0.101504
0.105837
0.110182
0.114614
0.370326
0.280798
0.224528
0.186257
0.158726
0.13803
0.121972
0.109141
0.0987029
0.0900138
0.0827167
0.0764588
0.0710856
0.0663713
0.0622581
0.0585827
0.0553384
0.052394
0.0497739
0.047363
0.0452055
0.043196
0.0413909
0.0396909
0.0381604
0.0367048
0.0353926
0.0341344
0.0329991
0.0319035
0.0309151
0.029957
0.0290937
0.0282549
0.027502
0.0267703
0.0261188
0.0254885
0.0249359
0.0244069
0.0239543
0.0235317
0.0231875
0.0228826
0.0226606
0.022493
0.0224142
0.0224141
0.0225107
0.0227107
0.0230204
0.0234638
0.0240324
0.0247626
0.0256361
0.0266993
0.0279267
0.0293717
0.0310017
0.0328721
0.0349455
0.0372797
0.0398287
0.0426507
0.045692
0.0489759
0.0524217
0.0560984
0.0599252
0.0639739
0.068152
0.072537
0.077022
0.0816886
0.0864191
0.0913002
0.0962029
0.101223
0.10622
0.111304
0.116321
0.121408
0.126389
0.131344
0.136164
0.140976
0.1457
0.150405
0.155012
0.159587
0.164054
0.168474
0.172781
0.17703
0.181166
0.18524
0.189214
0.193147
0.197055
0.201006
0.370326
0.280811
0.224538
0.18627
0.158732
0.138038
0.121969
0.109143
0.0986914
0.0900075
0.0826956
0.0764442
0.0710551
0.0663488
0.0622193
0.0585539
0.0552937
0.0523626
0.0497282
0.0473355
0.0451676
0.0431833
0.0413746
0.0397107
0.0381891
0.0367861
0.0355033
0.0343231
0.0332499
0.0322731
0.0314003
0.0306228
0.0299526
0.0293855
0.0289369
0.0286078
0.0284166
0.0283741
0.0285016
0.0288092
0.0293245
0.0300549
0.0310353
0.0322693
0.0337985
0.0356197
0.0377773
0.0402549
0.0431027
0.0462931
0.0498752
0.0537851
0.0580017
0.0625367
0.0673569
0.0724662
0.0778231
0.0834225
0.089215
0.0951884
0.101289
0.107504
0.113783
0.12012
0.126477
0.132754
0.138947
0.145117
0.151231
0.157296
0.163279
0.16919
0.175001
0.180724
0.186336
0.19185
0.197247
0.202541
0.207718
0.21279
0.217751
0.222602
0.227353
0.232041
0.236628
0.241135
0.245516
0.249797
0.253947
0.257992
0.261904
0.265709
0.269383
0.272949
0.276392
0.279734
0.282972
0.286144
0.289291
0.292484
0.370327
0.280823
0.224546
0.186274
0.158725
0.138024
0.121943
0.109107
0.0986427
0.0899497
0.0826262
0.0763695
0.070974
0.0662709
0.0621459
0.0584988
0.0552613
0.0523743
0.0497918
0.0474816
0.0454104
0.0435669
0.0419277
0.0405046
0.039267
0.0382506
0.0374285
0.0368554
0.0365101
0.0364742
0.0367222
0.037345
0.0383192
0.0397358
0.0415779
0.0439256
0.0467667
0.0501607
0.0540992
0.05864
0.0636865
0.06926
0.0753016
0.0818092
0.0887059
0.0959592
0.103487
0.111235
0.119149
0.127168
0.135301
0.143358
0.151361
0.159294
0.167122
0.174824
0.182372
0.189754
0.196953
0.203968
0.210792
0.217431
0.223884
0.230161
0.236265
0.242259
0.24812
0.253838
0.259389
0.264782
0.270004
0.275073
0.279983
0.284754
0.28938
0.293877
0.298245
0.302499
0.306642
0.310682
0.314626
0.318472
0.322229
0.325882
0.329454
0.332906
0.336242
0.339473
0.342605
0.345646
0.348597
0.351464
0.354245
0.356949
0.359572
0.36213
0.36462
0.367071
0.369529
0.372049
0.370324
0.28083
0.224528
0.186235
0.158661
0.13793
0.121827
0.108961
0.0984912
0.0897888
0.0824945
0.076279
0.070984
0.0664046
0.0624838
0.0590809
0.0562111
0.0537599
0.0517633
0.0501564
0.0489986
0.0482661
0.0480727
0.0484116
0.0493721
0.0510094
0.0533954
0.0565909
0.0606485
0.06562
0.0715431
0.07841
0.0860314
0.0944525
0.103443
0.113008
0.122936
0.133239
0.143798
0.154574
0.165293
0.175911
0.186339
0.196529
0.206402
0.21595
0.225126
0.233957
0.242413
0.250548
0.258314
0.265847
0.273084
0.280027
0.286665
0.293021
0.299099
0.30493
0.310524
0.315914
0.32111
0.32614
0.331008
0.335734
0.340308
0.344746
0.34902
0.353116
0.357043
0.360828
0.364475
0.368002
0.371411
0.374716
0.377903
0.38099
0.383983
0.386891
0.389725
0.392486
0.395189
0.397829
0.400425
0.40296
0.405456
0.407891
0.410282
0.412611
0.414895
0.41712
0.419301
0.421429
0.423512
0.425553
0.427545
0.429507
0.431432
0.433347
0.435293
0.437324
0.370306
0.28079
0.224403
0.186077
0.158441
0.137691
0.121601
0.108819
0.0985579
0.0901641
0.083424
0.0779618
0.0737056
0.0703941
0.0681098
0.0666786
0.0663228
0.0667891
0.0684016
0.0709812
0.0749342
0.0801502
0.0869563
0.095149
0.104967
0.116015
0.128223
0.141239
0.155049
0.169407
0.184268
0.198937
0.213206
0.226996
0.240173
0.252745
0.264649
0.275947
0.286567
0.29661
0.306071
0.314987
0.323339
0.33113
0.338414
0.345252
0.351704
0.357825
0.363648
0.369197
0.374478
0.379488
0.384187
0.388635
0.392847
0.396861
0.400685
0.40435
0.407858
0.411238
0.414491
0.417644
0.420696
0.423671
0.426563
0.429391
0.432143
0.434826
0.437427
0.439956
0.442412
0.444799
0.447126
0.449379
0.451541
0.453643
0.455689
0.457689
0.459646
0.461562
0.46345
0.465301
0.467132
0.468931
0.470716
0.472471
0.474218
0.475927
0.477629
0.479291
0.480943
0.482559
0.484161
0.485734
0.487289
0.48882
0.490349
0.491866
0.493443
0.495133
0.370195
0.280542
0.224228
0.186054
0.158711
0.13852
0.12343
0.112324
0.10442
0.0992825
0.0968386
0.0965709
0.098371
0.102006
0.107633
0.115006
0.124347
0.135448
0.148588
0.163399
0.180317
0.198736
0.218289
0.238265
0.258308
0.277674
0.295833
0.312661
0.328135
0.342251
0.354976
0.366566
0.37709
0.386679
0.395452
0.403543
0.41103
0.417975
0.424393
0.430299
0.435683
0.440696
0.445266
0.449407
0.453224
0.456775
0.460117
0.463279
0.4663
0.469198
0.471991
0.474695
0.477292
0.479798
0.482204
0.484529
0.486766
0.488934
0.491027
0.493063
0.495036
0.496964
0.498842
0.500688
0.502496
0.50428
0.506036
0.507772
0.50948
0.51116
0.512813
0.514435
0.516031
0.517605
0.519147
0.520658
0.522134
0.523583
0.525003
0.526399
0.527782
0.529137
0.530486
0.531811
0.533138
0.534443
0.535759
0.53705
0.538352
0.539627
0.540912
0.542171
0.543437
0.544681
0.545928
0.547152
0.548405
0.549631
0.550926
0.552344
0.369474
0.281384
0.228612
0.193059
0.170708
0.155956
0.150115
0.150452
0.156553
0.167305
0.181629
0.19881
0.21842
0.239719
0.262348
0.285624
0.309399
0.333093
0.356941
0.380288
0.403306
0.423856
0.441747
0.457306
0.470496
0.482406
0.492497
0.501028
0.508346
0.514614
0.520104
0.524948
0.529231
0.533034
0.536431
0.539497
0.542295
0.544885
0.547296
0.549576
0.551715
0.553737
0.555667
0.557486
0.559192
0.560793
0.562304
0.563744
0.565125
0.566469
0.567778
0.569073
0.570348
0.571615
0.57286
0.574096
0.57531
0.576512
0.577691
0.578858
0.580003
0.581138
0.582256
0.583365
0.584465
0.585559
0.586652
0.587743
0.588836
0.589921
0.591016
0.5921
0.593187
0.594264
0.595332
0.596381
0.597413
0.598426
0.599428
0.600412
0.601397
0.602364
0.603337
0.604294
0.605263
0.606218
0.607191
0.608151
0.609133
0.610099
0.611087
0.612058
0.613049
0.614026
0.615013
0.616
0.616994
0.618019
0.619066
0.620241
0.372191
0.315456
0.292824
0.279519
0.286385
0.295374
0.331463
0.373612
0.418619
0.463065
0.504555
0.5416
0.573478
0.599924
0.621221
0.637809
0.650546
0.660071
0.667421
0.673049
0.677644
0.681648
0.685133
0.68811
0.690604
0.692636
0.694332
0.695596
0.696477
0.697
0.697262
0.697362
0.697345
0.69726
0.69712
0.696967
0.696797
0.696657
0.696533
0.696466
0.696433
0.696454
0.696523
0.696611
0.6967
0.696787
0.696868
0.696952
0.697038
0.697144
0.697268
0.697425
0.697612
0.697839
0.698099
0.698398
0.698723
0.699083
0.699462
0.699869
0.700291
0.700735
0.701193
0.701664
0.702157
0.702662
0.703191
0.70373
0.704299
0.704876
0.705481
0.706099
0.706736
0.707384
0.708046
0.708711
0.709381
0.710046
0.710716
0.711379
0.712052
0.71272
0.713403
0.714081
0.714778
0.715472
0.716188
0.716903
0.717643
0.71838
0.719143
0.719904
0.720686
0.721473
0.722263
0.723083
0.723861
0.724721
0.725528
0.726372
0.606742
0.839813
0.952198
0.969555
0.937536
0.881262
0.821357
0.769007
0.724418
0.688386
0.660681
0.640129
0.625397
0.614956
0.607664
0.602392
0.598511
0.595429
0.592916
0.590804
0.588978
0.587528
0.586345
0.585459
0.584757
0.584201
0.583767
0.583415
0.583086
0.582738
0.582333
0.581884
0.581385
0.580863
0.580311
0.579754
0.579188
0.578632
0.578087
0.577567
0.577072
0.576609
0.576181
0.575795
0.575441
0.575123
0.574828
0.574561
0.574312
0.574087
0.573881
0.573697
0.57354
0.573411
0.573308
0.573232
0.573183
0.573162
0.573169
0.5732
0.573259
0.573337
0.573444
0.57357
0.573718
0.573884
0.574073
0.57428
0.57451
0.574758
0.575029
0.575317
0.575625
0.57595
0.576294
0.576653
0.577028
0.577415
0.577814
0.578222
0.578641
0.579066
0.579503
0.579946
0.580401
0.580862
0.581336
0.581816
0.582311
0.58281
0.583324
0.583842
0.584381
0.584911
0.585483
0.586002
0.586566
0.587006
0.587305
0.587283
0.128136
2.29635
2.88243
3.08568
3.23205
3.28905
3.26912
3.19973
3.09914
2.99175
2.88347
2.78035
2.68588
2.60079
2.52381
2.45304
2.38681
2.32343
2.26109
2.19957
2.13797
2.07601
2.01385
1.95183
1.88951
1.82765
1.76651
1.70688
1.64802
1.5904
1.53428
1.48019
1.42805
1.3778
1.32944
1.2829
1.23816
1.19518
1.15388
1.11419
1.07604
1.03938
1.00414
0.970298
0.937776
0.906555
0.876566
0.847795
0.820163
0.793669
0.768223
0.743833
0.720406
0.697948
0.67638
0.655692
0.635823
0.616748
0.598423
0.580819
0.563887
0.547613
0.531944
0.516852
0.502321
0.488272
0.474753
0.461617
0.448968
0.436647
0.424716
0.413115
0.401758
0.390792
0.3799
0.369454
0.35898
0.348915
0.338857
0.329062
0.319413
0.30983
0.300584
0.291192
0.28239
0.273136
0.264885
0.255792
0.248209
0.239426
0.232559
0.22423
0.218206
0.210394
0.205458
0.19808
0.194466
0.187283
0.185268
0.177949
0.351967
1.1326
2.06978
2.51637
2.74918
2.84812
2.85921
2.81054
2.72773
2.6331
2.53753
2.44898
2.37123
2.30405
2.24551
2.19359
2.14625
2.10166
2.0582
2.01506
1.97124
1.92618
1.87972
1.83204
1.78282
1.73267
1.68181
1.6313
1.58047
1.52994
1.47959
1.43023
1.38233
1.33588
1.29092
1.24743
1.20544
1.16494
1.12586
1.08817
1.05182
1.01678
0.983006
0.95049
0.919179
0.889063
0.860085
0.832242
0.805464
0.779756
0.755038
0.731318
0.708517
0.686635
0.665607
0.645415
0.626014
0.607369
0.589448
0.572215
0.555633
0.539678
0.524312
0.509493
0.495221
0.481407
0.468108
0.455171
0.442712
0.430555
0.418792
0.407322
0.39612
0.385253
0.374509
0.364134
0.353805
0.343793
0.333878
0.324132
0.314623
0.305096
0.295992
0.286675
0.278025
0.268873
0.260793
0.251843
0.244455
0.235874
0.229222
0.221165
0.215365
0.207906
0.203178
0.196243
0.192787
0.186141
0.184205
0.17753
0.550394
0.54686
1.02374
1.58002
1.97716
2.18974
2.28082
2.29146
2.25657
2.1978
2.13159
2.06947
2.01359
1.96569
1.92562
1.89205
1.86306
1.83684
1.81209
1.78743
1.76173
1.73433
1.70484
1.67309
1.63891
1.60274
1.56468
1.5258
1.48564
1.44469
1.40312
1.36083
1.31886
1.27763
1.23731
1.19796
1.15973
1.1226
1.08657
1.05162
1.01775
0.984962
0.953239
0.922591
0.892988
0.864437
0.836899
0.810381
0.784827
0.760248
0.736578
0.713827
0.691928
0.670879
0.650633
0.631162
0.612438
0.594417
0.577085
0.560394
0.544322
0.528836
0.513911
0.499499
0.485609
0.472144
0.459175
0.446539
0.434367
0.422465
0.410959
0.3997
0.388734
0.378037
0.367518
0.357278
0.347167
0.337267
0.327563
0.317921
0.308618
0.299205
0.290306
0.281123
0.272688
0.263703
0.25586
0.247126
0.240003
0.231706
0.225345
0.217649
0.212152
0.205141
0.200694
0.194306
0.191068
0.185072
0.183251
0.177349
0.530626
0.495058
0.56068
0.767991
1.07079
1.34266
1.52392
1.61879
1.65643
1.65893
1.6429
1.62266
1.60073
1.5809
1.56515
1.55359
1.54496
1.53811
1.53124
1.5239
1.51528
1.50484
1.49214
1.47647
1.45793
1.43679
1.41312
1.38768
1.36025
1.33084
1.30061
1.2678
1.23381
1.19951
1.16533
1.13146
1.09819
1.06554
1.03353
1.00222
0.971656
0.941875
0.912902
0.884773
0.857485
0.831065
0.805492
0.780789
0.756915
0.733891
0.711665
0.690251
0.669599
0.649705
0.630539
0.612067
0.594281
0.577128
0.56061
0.544672
0.529309
0.514477
0.500168
0.486324
0.472971
0.459998
0.447494
0.435285
0.423523
0.411986
0.400848
0.389898
0.379271
0.36883
0.358633
0.348606
0.338805
0.329088
0.319683
0.310216
0.301201
0.291973
0.283359
0.274386
0.266246
0.257513
0.249991
0.241568
0.234801
0.226891
0.220922
0.213697
0.208605
0.202159
0.19809
0.192368
0.189425
0.184202
0.182541
0.177552
0.472615
0.463238
0.459984
0.486909
0.556999
0.666841
0.788702
0.897643
0.980158
1.03728
1.0734
1.09934
1.11887
1.13537
1.15088
1.16675
1.18242
1.19815
1.21183
1.22366
1.23329
1.2404
1.24457
1.2455
1.24315
1.23764
1.22915
1.218
1.20399
1.18695
1.16882
1.1473
1.12348
1.09811
1.07182
1.04503
1.01817
0.991273
0.964438
0.937811
0.911497
0.885602
0.860191
0.835336
0.811066
0.787431
0.764435
0.742115
0.720455
0.699482
0.679167
0.659522
0.640523
0.62216
0.604429
0.587284
0.570745
0.554745
0.539312
0.524378
0.50996
0.496001
0.482515
0.469432
0.456797
0.444488
0.432613
0.420981
0.409774
0.398736
0.3881
0.377577
0.367413
0.357335
0.347577
0.337858
0.328478
0.319034
0.310035
0.300829
0.292207
0.283252
0.275024
0.266357
0.258615
0.25024
0.243148
0.235156
0.228867
0.221474
0.216028
0.209411
0.204858
0.199114
0.195542
0.190617
0.188063
0.183738
0.182291
0.178344
0.41093
0.411348
0.406282
0.402178
0.403507
0.414189
0.431474
0.455671
0.483168
0.514576
0.54704
0.58156
0.617719
0.65536
0.693599
0.732532
0.771074
0.809223
0.845284
0.878654
0.908806
0.935388
0.957909
0.976741
0.991674
1.00248
1.00955
1.01265
1.01264
1.00893
1.00342
0.994803
0.983351
0.969045
0.952676
0.934878
0.916207
0.896598
0.876321
0.855641
0.834756
0.813832
0.792989
0.772341
0.751954
0.731907
0.712235
0.692992
0.674188
0.655862
0.63801
0.620647
0.60378
0.587388
0.571504
0.556067
0.541134
0.526616
0.512579
0.498934
0.485732
0.472898
0.460471
0.44837
0.436662
0.425211
0.414151
0.403271
0.392787
0.382403
0.372422
0.362463
0.352908
0.343313
0.334135
0.324833
0.31601
0.306942
0.29848
0.289638
0.281536
0.272961
0.265248
0.257004
0.249794
0.241911
0.235396
0.227985
0.222336
0.215622
0.210873
0.205027
0.20118
0.196292
0.193362
0.189366
0.187306
0.183986
0.182813
0.180007
0.343507
0.345944
0.344373
0.338872
0.330697
0.321905
0.312433
0.303341
0.294455
0.287204
0.282194
0.281145
0.285625
0.297127
0.316191
0.343143
0.377125
0.417014
0.460853
0.50639
0.551613
0.595011
0.6352
0.671442
0.703681
0.731192
0.75439
0.772382
0.787258
0.797981
0.805772
0.810292
0.81142
0.809551
0.805039
0.798291
0.789735
0.779037
0.76685
0.75358
0.739502
0.724843
0.709773
0.69445
0.678981
0.663474
0.648
0.632637
0.617428
0.602424
0.58766
0.573148
0.558937
0.544997
0.531408
0.518087
0.50514
0.492454
0.480142
0.468089
0.456388
0.444941
0.433823
0.422937
0.412376
0.40199
0.391943
0.381996
0.372418
0.362851
0.353696
0.344446
0.335663
0.326682
0.31824
0.309478
0.301367
0.292789
0.285021
0.276657
0.269235
0.261163
0.25413
0.246451
0.23995
0.232727
0.226982
0.220346
0.21555
0.209717
0.205882
0.200996
0.198058
0.194182
0.192052
0.189091
0.187631
0.185373
0.184528
0.182884
0.263151
0.267087
0.268062
0.26489
0.257979
0.248321
0.236644
0.223939
0.210981
0.198683
0.187676
0.178632
0.172163
0.168628
0.168628
0.1725
0.181046
0.194566
0.213866
0.23869
0.268956
0.303476
0.340874
0.379464
0.4183
0.455374
0.49033
0.521481
0.549352
0.573237
0.593449
0.610084
0.622767
0.632779
0.639551
0.64331
0.644464
0.64328
0.640099
0.635248
0.628999
0.621594
0.613241
0.604122
0.594387
0.584171
0.57359
0.562739
0.551709
0.540559
0.529373
0.518159
0.507024
0.495917
0.48498
0.474101
0.463452
0.452882
0.442566
0.432354
0.422393
0.412555
0.40296
0.393486
0.384265
0.375126
0.36627
0.357423
0.348919
0.340321
0.332155
0.323754
0.315904
0.307666
0.300126
0.292021
0.284794
0.276825
0.269932
0.262172
0.255621
0.248197
0.242053
0.235115
0.229558
0.223207
0.218495
0.212873
0.209209
0.204491
0.201837
0.198105
0.196288
0.193545
0.192356
0.190462
0.189672
0.188429
0.187941
0.187352
0.175709
0.179269
0.181346
0.180539
0.176856
0.17095
0.16375
0.156318
0.149747
0.144678
0.14169
0.140806
0.14199
0.144875
0.149156
0.154416
0.160605
0.1675
0.175488
0.184509
0.195421
0.208099
0.223979
0.242392
0.263544
0.286695
0.311715
0.337414
0.36324
0.388289
0.411851
0.433519
0.452481
0.468702
0.482295
0.493178
0.501363
0.507783
0.5123
0.514965
0.515921
0.515336
0.513398
0.510275
0.506139
0.501127
0.495395
0.489036
0.482195
0.474918
0.467354
0.459485
0.451489
0.443276
0.435071
0.426706
0.418442
0.410066
0.401839
0.39355
0.385425
0.377285
0.369311
0.361344
0.353563
0.345767
0.338207
0.330561
0.323243
0.315715
0.308659
0.301209
0.294428
0.287032
0.280547
0.273203
0.267036
0.259787
0.253972
0.246946
0.241506
0.234893
0.229918
0.223933
0.21964
0.214424
0.211096
0.206769
0.204578
0.201211
0.200009
0.197564
0.197033
0.195425
0.195232
0.194285
0.194151
0.193703
0.193544
0.193723
0.104558
0.10832
0.11179
0.114504
0.116604
0.118596
0.121201
0.12507
0.130676
0.138072
0.147165
0.157448
0.168494
0.179694
0.19063
0.201025
0.210747
0.219728
0.228107
0.235831
0.243157
0.250238
0.257236
0.264479
0.272286
0.280835
0.290336
0.300691
0.312011
0.324078
0.336743
0.349593
0.362276
0.374091
0.385212
0.395477
0.404481
0.412264
0.418784
0.423985
0.427871
0.430456
0.431832
0.432059
0.431268
0.429526
0.426991
0.423696
0.419821
0.415355
0.410503
0.40518
0.399644
0.393723
0.38774
0.381433
0.375175
0.368648
0.362229
0.355608
0.349114
0.342486
0.335987
0.3294
0.322966
0.316435
0.310119
0.303634
0.297488
0.291022
0.285102
0.27862
0.272973
0.266459
0.26114
0.25462
0.249675
0.24324
0.238727
0.232573
0.228539
0.222934
0.219498
0.214728
0.212125
0.208343
0.206823
0.204051
0.203659
0.201762
0.202172
0.200943
0.201687
0.200971
0.201644
0.20128
0.201643
0.201552
0.201612
0.202073
0.119073
0.12347
0.1283
0.134161
0.141504
0.150572
0.161453
0.174074
0.188074
0.20307
0.218517
0.233815
0.248346
0.261784
0.274074
0.285211
0.295233
0.304177
0.312287
0.319663
0.326519
0.332781
0.338606
0.344065
0.349255
0.354332
0.359181
0.363699
0.368132
0.372331
0.376573
0.380571
0.384652
0.388349
0.391577
0.394436
0.39681
0.398642
0.399941
0.400683
0.400884
0.400499
0.399582
0.398082
0.396082
0.393534
0.390567
0.3871
0.383322
0.379108
0.374697
0.369891
0.365018
0.359777
0.354588
0.349053
0.343664
0.337957
0.332439
0.326662
0.321076
0.315304
0.309708
0.303984
0.298442
0.292776
0.287351
0.281721
0.276482
0.270855
0.265883
0.260215
0.25559
0.249872
0.245685
0.239965
0.2363
0.230722
0.227671
0.222498
0.220137
0.215713
0.214169
0.210809
0.210258
0.208043
0.208571
0.207293
0.208698
0.207958
0.209736
0.209207
0.210838
0.210391
0.21152
0.211106
0.211625
0.211286
0.211366
0.211507
0.205097
0.209197
0.213958
0.220275
0.228691
0.239188
0.251594
0.265442
0.280207
0.295203
0.309887
0.323771
0.336628
0.348333
0.358996
0.36863
0.377519
0.385629
0.393173
0.400165
0.406781
0.412928
0.418724
0.424011
0.4289
0.433156
0.436994
0.440204
0.442915
0.444913
0.446415
0.447123
0.447482
0.446823
0.445328
0.443166
0.440271
0.436721
0.432654
0.428154
0.423336
0.418223
0.412937
0.407433
0.401833
0.396061
0.390265
0.3843
0.378384
0.372305
0.366337
0.360187
0.354238
0.348068
0.342181
0.336047
0.33026
0.324209
0.318526
0.31261
0.30704
0.301303
0.295865
0.290322
0.285053
0.27969
0.27464
0.269412
0.264653
0.259508
0.255135
0.250016
0.246139
0.241038
0.237787
0.232773
0.230276
0.225533
0.223913
0.219744
0.219093
0.215863
0.216247
0.214199
0.215606
0.214616
0.216844
0.216435
0.219051
0.21867
0.22114
0.220481
0.222379
0.221459
0.222561
0.221509
0.221854
0.220827
0.220751
0.22018
0.295816
0.299244
0.303449
0.309245
0.317045
0.326716
0.337982
0.350324
0.363222
0.376019
0.388287
0.399778
0.410435
0.420305
0.429497
0.438113
0.446282
0.454032
0.461419
0.468369
0.47491
0.480875
0.486329
0.491052
0.495109
0.498291
0.500733
0.50223
0.502968
0.502772