/*--------------------------------*- C++ -*----------------------------------*\
| =========                 |                                                 |
| \\      /  F ield         | OpenFOAM: The Open Source CFD Toolbox           |
|  \\    /   O peration     | Version:  v2012                                 |
|   \\  /    A nd           | Website:  www.openfoam.com                      |
|    \\/     M anipulation  |                                                 |
\*---------------------------------------------------------------------------*/
FoamFile
{
    version     2.0;
    format      ascii;
    class       Cloud<basicKinematicParcel>;
    location    "0.08/lagrangian/kinematicCloud";
    object      coordinates;
}
// * * * * * * * * * * * * * * * * * * * * * * * * * * * * * * * * * * * * * //

54
(
(0.0687443 0.37565 0.465628 0.0899778) 375 748 1
(0.61821 0.0873717 0.190895 0.103524) 877 1755 2
(0.318095 0.336961 0.00399128 0.340953) 1176 2153 2
(0.460423 0.269789 0.048272 0.221517) 674 1348 2
(0.428259 0.285871 0.0144331 0.271438) 1373 2747 1
(0.409195 0.295403 0.127289 0.168113) 1172 2344 2
(0.670239 0.16488 0.107554 0.0573265) 53 107 1
(0.364242 0.317879 0.147605 0.170274) 1568 3137 1
(0.695603 0.152198 0.116454 0.035744) 1567 3135 1
(0.230767 0.262469 0.122148 0.384617) 767 1534 1
(0.160276 0.217742 0.419862 0.20212) 867 1735 2
(0.119647 0.440177 0.294396 0.14578) 565 1130 2
(0.5613 0.196714 0.0226358 0.21935) 1856 3712 1
(0.762085 0.00186899 0.117088 0.118957) 155 111 2
(0.22787 0.154516 0.231549 0.386065) 1856 3513 2
(0.75643 0.0734135 0.121785 0.0483715) 961 1923 2
(0.831222 0.0843888 0.0641085 0.0202802) 358 714 2
(0.342316 0.169336 0.328842 0.159505) 1755 3508 1
(0.585385 0.086667 0.12064 0.207307) 557 1114 1
(0.287335 0.102506 0.253826 0.356332) 1556 3112 1
(0.0940815 0.301542 0.151417 0.452959) 1356 2513 2
(0.165501 0.41725 0.0921283 0.325121) 1752 3504 2
(0.413731 0.293135 0.11273 0.180405) 1354 2706 2
(0.636381 0.159387 0.181809 0.0224221) 452 905 2
(0.416905 0.291548 0.0984701 0.193077) 852 1704 2
(0.243721 0.20318 0.17496 0.378139) 1351 2503 2
(0.294165 0.181516 0.352918 0.171402) 349 699 2
(0.676867 0.119506 0.161566 0.0420599) 1450 2898 1
(0.362968 0.142892 0.318516 0.175625) 145 291 2
(0.0757567 0.462122 0.454422 0.00769988) 1449 2899 1
(0.153282 0.423359 0.411395 0.0119643) 26 50 2
(0.291474 0.230499 0.354263 0.123764) 245 488 1
(0.0387054 0.480647 0.45383 0.0268176) 1839 3679 1
(0.879406 0.00184575 0.060297 0.0584512) 1044 2089 2
(0.129506 0.435247 0.383512 0.0517356) 644 1089 1
(0.517826 0.151835 0.241087 0.0892521) 1243 2487 2
(0.616379 0.19181 0.133104 0.058706) 742 1285 1
(0.495092 0.2383 0.0141537 0.252454) 841 1483 2
(0.344037 0.327981 0.106813 0.221169) 1240 2481 1
(0.0719205 0.46404 0.0103958 0.453644) 34 69 1
(0.385535 0.307233 0.0603063 0.246926) 638 1277 1
(0.614158 0.192921 0.0683986 0.124522) 1237 2472 2
(0.257694 0.371153 0.264368 0.106785) 536 1073 1
(0.375865 0.312067 0.135323 0.176744) 535 871 1
(0.158144 0.420928 0.201515 0.219413) 734 1269 1
(0.285295 0.357352 0.233992 0.12336) 1133 2267 1
(0.193824 0.403088 0.102322 0.300766) 1532 2865 1
(0.513429 0.227202 0.243285 0.0160831) 931 1860 1
(0.224697 0.387651 0.089652 0.297999) 830 1461 1
(0.0696183 0.465191 0.257546 0.207645) 1329 2659 1
(0.125031 0.437485 0.292413 0.145072) 328 654 2
(0.0997928 0.450104 0.182884 0.26722) 727 1455 1
(0.0181348 0.490933 0.167178 0.323755) 1526 3053 1
(0.0703801 0.20672 0.46481 0.25809) 124 249 2
)


// ************************************************************************* //
