/*--------------------------------*- C++ -*----------------------------------*\
| =========                 |                                                 |
| \\      /  F ield         | OpenFOAM: The Open Source CFD Toolbox           |
|  \\    /   O peration     | Version:  v2012                                 |
|   \\  /    A nd           | Website:  www.openfoam.com                      |
|    \\/     M anipulation  |                                                 |
\*---------------------------------------------------------------------------*/
FoamFile
{
    version     2.0;
    format      ascii;
    class       Cloud<basicKinematicParcel>;
    location    "0.08/lagrangian/kinematicCloud";
    object      positions;
}
// * * * * * * * * * * * * * * * * * * * * * * * * * * * * * * * * * * * * * //

25
(
(0.525038 0.0262863 0.03) 1049
(0.934342 -0.012058 0.03) 1842
(0.818429 0.0247775 0.03) 1080
(0.918513 -0.0134317 0.03) 1834
(0.744883 -0.0158796 0.03) 1683
(0.974223 -0.0104449 0.03) 1881
(0.648668 0.0251426 0.03) 1062
(0.989573 0.00251324 0.03) 198
(0.966149 0.00269321 0.03) 296
(0.956806 0.0143042 0.03) 695
(0.669839 -0.0120155 0.03) 1618
(0.880107 -0.00128022 0.03) 1796
(0.883866 0.0131023 0.03) 587
(0.803691 -0.00536353 0.03) 1726
(0.801816 -0.00281999 0.03) 1725
(0.792157 0.000818162 0.03) 177
(0.785394 0.0119604 0.03) 576
(0.744265 0.0199346 0.03) 872
(0.732883 0.00684463 0.03) 371
(0.706281 0.00514238 0.03) 268
(0.68057 0.0186469 0.03) 765
(0.61983 -0.00450482 0.03) 1574
(0.632499 0.0028549 0.03) 260
(0.594662 0.022035 0.03) 956
(0.435332 -0.00679359 0.03) 1415
)


// ************************************************************************* //
