/*--------------------------------*- C++ -*----------------------------------*\
| =========                 |                                                 |
| \\      /  F ield         | OpenFOAM: The Open Source CFD Toolbox           |
|  \\    /   O peration     | Version:  v2012                                 |
|   \\  /    A nd           | Website:  www.openfoam.com                      |
|    \\/     M anipulation  |                                                 |
\*---------------------------------------------------------------------------*/
FoamFile
{
    version     2.0;
    format      ascii;
    class       Cloud<basicKinematicParcel>;
    location    "0.059/lagrangian/kinematicCloud";
    object      coordinates;
}
// * * * * * * * * * * * * * * * * * * * * * * * * * * * * * * * * * * * * * //

54
(
(0.325549 0.337226 0.0440448 0.293181) 353 704 2
(0.695699 0.0993933 0.15215 0.0527571) 853 1707 2
(0.420553 0.257722 0.0320021 0.289724) 1152 2105 2
(0.326157 0.336921 0.110878 0.226044) 651 1103 1
(0.157192 0.421404 0.38786 0.0335441) 1350 2701 1
(0.170842 0.414579 0.111957 0.302622) 1149 2296 2
(0.0739131 0.32373 0.139313 0.463043) 37 74 1
(0.0358095 0.482095 0.199376 0.282719) 1546 3093 1
(0.356195 0.321903 0.25525 0.0666531) 1545 3091 1
(0.863509 0.0237626 0.0444829 0.0682455) 744 1488 1
(0.219155 0.390422 0.133706 0.256716) 844 1689 1
(0.420763 0.289619 0.0286022 0.261016) 543 887 1
(0.39824 0.158831 0.30088 0.142049) 1838 3674 1
(0.315881 0.342059 0.219887 0.122173) 137 272 2
(0.499603 0.250199 0.119185 0.131014) 1837 3475 1
(0.571633 0.09666 0.117524 0.214184) 938 1876 1
(0.407167 0.296416 0.225553 0.0708636) 337 672 2
(0.371416 0.314292 0.304293 0.00999956) 1735 3471 1
(0.835219 0.0823903 0.0280793 0.054311) 535 1068 2
(0.121049 0.439475 0.274947 0.164529) 1535 3071 1
(0.342518 0.328741 0.103123 0.225618) 1334 2469 1
(0.734768 0.0990424 0.0335735 0.132616) 1732 3265 2
(0.1318 0.415173 0.4341 0.0189269) 1332 2662 1
(0.2427 0.370956 0.00769378 0.37865) 430 860 1
(0.511713 0.244143 0.00548723 0.238656) 830 1660 2
(0.487619 0.00884773 0.247343 0.25619) 1329 2459 2
(0.676566 0.0713549 0.161717 0.0903622) 328 657 2
(0.576328 0.0422995 0.211836 0.169537) 1428 2857 2
(0.684659 0.00541436 0.15767 0.152256) 126 253 2
(0.305724 0.273015 0.0741233 0.347138) 1527 2855 2
(0.167197 0.256339 0.160063 0.416402) 17 22237 1
(0.335497 0.332252 0.0544774 0.277774) 225 448 2
(0.234341 0.38283 0.0604822 0.322347) 1922 3645 1
(0.733587 0.0511005 0.133207 0.0821062) 1023 2044 1
(0.121402 0.439299 0.219689 0.21961) 523 1047 1
(0.33329 0.32208 0.333355 0.0112748) 1222 2445 2
(0.467158 0.266421 0.254971 0.0114503) 721 1243 1
(0.408848 0.113554 0.182022 0.295576) 820 1441 2
(0.16193 0.233022 0.419035 0.186012) 1219 2439 2
(0.273908 0.311366 0.363046 0.0516795) 17 35 2
(0.0265879 0.272927 0.213779 0.486706) 617 1234 1
(0.0225182 0.479224 0.0095165 0.488741) 1216 2432 1
(0.111652 0.199484 0.444174 0.24469) 516 1030 1
(0.0956628 0.452169 0.243068 0.2091) 515 831 1
(0.012697 0.493651 0.364454 0.129198) 714 1229 1
(0.18036 0.40982 0.00127797 0.408542) 1113 2227 1
(0.538467 0.13776 0.0930066 0.230766) 1512 2825 2
(0.43573 0.272227 0.00990859 0.282135) 911 1822 1
(0.145866 0.0499387 0.377128 0.427067) 810 1421 2
(0.129159 0.43542 0.417436 0.0179848) 1410 2818 2
(0.0514549 0.474273 0.187481 0.286792) 309 419 1
(0.188964 0.405518 0.0446674 0.360851) 708 1417 1
(0.347615 0.164151 0.162042 0.326193) 1607 3015 2
(0.418458 0.0247264 0.266045 0.290771) 106 212 1
)


// ************************************************************************* //
