/*--------------------------------*- C++ -*----------------------------------*\
| =========                 |                                                 |
| \\      /  F ield         | OpenFOAM: The Open Source CFD Toolbox           |
|  \\    /   O peration     | Version:  v2012                                 |
|   \\  /    A nd           | Website:  www.openfoam.com                      |
|    \\/     M anipulation  |                                                 |
\*---------------------------------------------------------------------------*/
FoamFile
{
    version     2.0;
    format      ascii;
    class       vectorField;
    location    "0.059/lagrangian/kinematicCloud";
    object      U;
}
// * * * * * * * * * * * * * * * * * * * * * * * * * * * * * * * * * * * * * //


44
(
(20.1395 -0.207197 0)
(23.0565 -0.123232 0)
(6.79589 -0.00572493 0)
(15.9127 -0.359363 0)
(17.2418 -0.0275211 0)
(24.2067 -0.179791 0)
(21.0947 -0.273077 0)
(21.7406 -0.0473596 0)
(22.1296 -0.241486 0)
(23.6809 -0.0757266 0)
(24.4398 -0.0997345 0)
(14.404 -0.0231159 0)
(24.02 -0.0904442 0)
(21.4984 -0.267393 0)
(23.109 -0.213893 0)
(23.8453 -0.0951648 0)
(21.6364 -0.268759 0)
(23.3071 -0.082446 0)
(18.4277 -0.349667 0)
(22.4742 -0.0653704 0)
(15.5752 -0.427089 0)
(20.2071 -0.310387 0)
(13.2237 -0.021712 0)
(23.4483 -0.157102 0)
(22.113 -0.265061 0)
(23.2415 -0.126564 0)
(22.8359 -0.211287 0)
(22.7288 -0.213156 0)
(22.7616 -0.128654 0)
(16.3598 -0.421662 0)
(22.0113 -0.263186 0)
(22.2721 -0.144379 0)
(20.9265 -0.299807 0)
(21.4419 -0.282389 0)
(21.6075 -0.255323 0)
(21.4508 -0.160216 0)
(20.9688 -0.0862183 0)
(20.9734 -0.207466 0)
(20.7139 -0.217621 0)
(20.3577 -0.0935968 0)
(19.4005 -0.27368 0)
(19.7439 -0.197541 0)
(19.0689 -0.0429439 0)
(13.0213 -0.0424825 0)
)


// ************************************************************************* //
