/*--------------------------------*- C++ -*----------------------------------*\
| =========                 |                                                 |
| \\      /  F ield         | OpenFOAM: The Open Source CFD Toolbox           |
|  \\    /   O peration     | Version:  v2012                                 |
|   \\  /    A nd           | Website:  www.openfoam.com                      |
|    \\/     M anipulation  |                                                 |
\*---------------------------------------------------------------------------*/
FoamFile
{
    version     2.0;
    format      ascii;
    class       surfaceScalarField;
    location    "0.328";
    object      phi.air;
}
// * * * * * * * * * * * * * * * * * * * * * * * * * * * * * * * * * * * * * //

dimensions      [0 3 -1 0 0 0 0];
oriented        oriented;


internalField   nonuniform List<scalar> 
10964
(
0.000657106
2.51274e-05
0.000628902
2.73625e-05
0.000601317
2.67415e-05
0.000575027
2.54444e-05
0.000551118
2.30602e-05
0.000530162
2.01068e-05
0.000512502
1.68082e-05
0.000497901
1.37492e-05
0.000485909
1.1138e-05
0.000476267
8.78761e-06
0.000468659
6.75299e-06
0.000462713
5.09056e-06
0.000458072
3.78572e-06
0.000454434
2.78264e-06
0.00045154
2.03757e-06
0.000449195
1.48962e-06
0.000447253
1.08553e-06
0.00044561
7.86929e-07
0.000444195
5.59695e-07
0.000442976
3.62259e-07
0.000441919
2.01285e-07
0.000441019
4.44869e-08
0.000440275
-1.12502e-07
0.000439661
-2.41297e-07
0.000439158
-3.53421e-07
0.00043874
-4.37346e-07
0.000438398
-5.1453e-07
0.000438106
-5.63172e-07
0.000437853
-6.02405e-07
0.000437613
-6.16472e-07
0.000437379
-6.21165e-07
0.000437142
-6.1904e-07
0.000436906
-6.19059e-07
0.00043667
-6.20321e-07
0.000436435
-6.20278e-07
0.000436206
-6.25969e-07
0.000435979
-6.2857e-07
0.00043576
-6.36867e-07
0.000435546
-6.42098e-07
0.000435344
-6.5283e-07
0.000435151
-6.62747e-07
0.000434969
-6.73805e-07
0.000434797
-6.8373e-07
0.000434641
-6.99476e-07
0.000434499
-7.13318e-07
0.000434372
-7.27897e-07
0.000434256
-7.3977e-07
0.000434152
-7.51239e-07
0.000434057
-7.61405e-07
0.000433974
-7.71865e-07
0.000433893
-7.74318e-07
0.000433821
-7.83801e-07
0.000433759
-7.93259e-07
0.000433705
-8.01644e-07
0.000433658
-8.08481e-07
0.000433622
-8.19355e-07
0.000433592
-8.25504e-07
0.000433572
-8.35268e-07
0.000433563
-8.46575e-07
0.000433563
-8.55249e-07
0.000433568
-8.60819e-07
0.000433584
-8.71269e-07
0.000433606
-8.77352e-07
0.000433637
-8.86576e-07
0.000433675
-8.92937e-07
0.000433722
-9.02567e-07
0.000433774
-9.07646e-07
0.000433836
-9.17659e-07
0.000433902
-9.21469e-07
0.000433978
-9.31134e-07
0.000434059
-9.35853e-07
0.000434149
-9.45035e-07
0.000434243
-9.49273e-07
0.000434344
-9.56956e-07
0.000434452
-9.62697e-07
0.000434566
-9.69556e-07
0.000434686
-9.74885e-07
0.000434811
-9.80729e-07
0.000434943
-9.86394e-07
0.000435079
-9.91052e-07
0.00043522
-9.96742e-07
0.000435364
-9.98555e-07
0.000435514
-1.0057e-06
0.000435663
-1.00352e-06
0.000435821
-1.01309e-06
0.000435973
-1.0068e-06
0.000436142
-1.02407e-06
0.000436295
-1.00819e-06
0.00043649
-1.05041e-06
0.000436647
-1.01217e-06
0.000436859
-1.06611e-06
0.00043701
-1.00635e-06
0.00043723
-1.07517e-06
0.000437353
-9.76881e-07
0.000437638
-1.14067e-06
0.000437737
-9.5345e-07
0.000438154
-1.27189e-06
0.000438867
-1.56696e-06
0.000437461
5.49125e-07
-1.11328e-05
0.000447742
0.000757085
2.43227e-05
0.000754877
2.95706e-05
0.000751202
3.04164e-05
0.000745928
3.07182e-05
0.000739361
2.96274e-05
0.000731832
2.76357e-05
0.000723576
2.5064e-05
0.00071497
2.2355e-05
0.000706312
1.97969e-05
0.000697783
1.73165e-05
0.000689587
1.49489e-05
0.00068184
1.28375e-05
0.000674619
1.1006e-05
0.000667976
9.42579e-06
0.000661923
8.09085e-06
0.000656454
6.95889e-06
0.000651544
5.99512e-06
0.00064716
5.17067e-06
0.000643277
4.4431e-06
0.000639871
3.76833e-06
0.000636901
3.17128e-06
0.000634312
2.63339e-06
0.000632004
2.19551e-06
0.000629934
1.82903e-06
0.00062808
1.49982e-06
0.000626416
1.22702e-06
0.000624894
1.00705e-06
0.000623479
8.52664e-07
0.000622159
7.17541e-07
0.000620928
6.14133e-07
0.000619781
5.2562e-07
0.000618716
4.46617e-07
0.000617735
3.61811e-07
0.000616828
2.86682e-07
0.00061599
2.17651e-07
0.000615213
1.50932e-07
0.000614493
9.17074e-08
0.000613824
3.17516e-08
0.000613204
-2.17262e-08
0.000612629
-7.79688e-08
0.000612098
-1.3209e-07
0.000611606
-1.82e-07
0.000611153
-2.30768e-07
0.000610736
-2.81881e-07
0.000610349
-3.26718e-07
0.000609989
-3.67996e-07
0.000609653
-4.0367e-07
0.00060934
-4.38312e-07
0.000609048
-4.6926e-07
0.000608777
-5.01196e-07
0.000608526
-5.22774e-07
0.000608294
-5.52176e-07
0.000608081
-5.80344e-07
0.000607888
-6.082e-07
0.000607713
-6.33367e-07
0.000607557
-6.63996e-07
0.000607418
-6.86194e-07
0.000607296
-7.13629e-07
0.000607191
-7.41377e-07
0.000607103
-7.67047e-07
0.00060703
-7.87425e-07
0.000606972
-8.13435e-07
0.000606927
-8.32714e-07
0.000606897
-8.5595e-07
0.000606881
-8.76861e-07
0.000606876
-8.9798e-07
0.000606882
-9.13805e-07
0.000606901
-9.36271e-07
0.00060693
-9.50815e-07
0.000606973
-9.73987e-07
0.000607025
-9.88233e-07
0.00060709
-1.00991e-06
0.000607164
-1.0232e-06
0.000607249
-1.04221e-06
0.000607344
-1.05752e-06
0.00060745
-1.07491e-06
0.000607563
-1.08824e-06
0.000607685
-1.10311e-06
0.000607815
-1.11564e-06
0.000607953
-1.1291e-06
0.000608096
-1.13997e-06
0.000608248
-1.15056e-06
0.000608403
-1.16107e-06
0.000608569
-1.1693e-06
0.000608734
-1.17786e-06
0.000608916
-1.1887e-06
0.00060909
-1.19864e-06
0.000609291
-1.20883e-06
0.000609473
-1.23267e-06
0.00060969
-1.22943e-06
0.000609876
-1.25191e-06
0.000610112
-1.24224e-06
0.000610286
-1.2496e-06
0.00061057
-1.26076e-06
0.000610717
-1.28784e-06
0.000611135
-1.37063e-06
0.000611259
-1.39594e-06
0.000611965
-2.27312e-06
0.000612194
3.20166e-07
-1.51393e-05
0.0006162
0.000840343
2.13132e-05
0.000842332
2.75815e-05
0.000844302
2.84458e-05
0.000845633
2.9388e-05
0.000846212
2.90476e-05
0.000845985
2.7863e-05
0.000845037
2.60125e-05
0.000843329
2.40625e-05
0.000840904
2.22221e-05
0.000837777
2.04437e-05
0.000834026
1.86998e-05
0.000829712
1.71512e-05
0.00082494
1.57785e-05
0.000819829
1.45368e-05
0.000814506
1.34131e-05
0.000809098
1.23674e-05
0.000803704
1.13892e-05
0.000798449
1.04254e-05
0.000793418
9.47416e-06
0.000788678
8.50787e-06
0.000784255
7.59514e-06
0.000780181
6.70729e-06
0.000776458
5.91783e-06
0.000773064
5.22299e-06
0.000769972
4.59212e-06
0.000767153
4.04626e-06
0.000764563
3.59741e-06
0.000762172
3.24367e-06
0.00075997
2.91861e-06
0.000757948
2.63639e-06
0.000756091
2.38267e-06
0.000754388
2.14959e-06
0.000752828
1.92171e-06
0.000751391
1.72369e-06
0.000750067
1.54206e-06
0.000748842
1.37577e-06
0.000747711
1.22293e-06
0.000746664
1.07892e-06
0.000745697
9.45054e-07
0.000744802
8.1659e-07
0.000743979
6.91544e-07
0.000743216
5.80255e-07
0.000742516
4.70097e-07
0.00074186
3.74113e-07
0.000741243
2.90196e-07
0.000740662
2.12369e-07
0.000740117
1.41108e-07
0.000739608
7.06714e-08
0.000739133
6.05693e-09
0.000738691
-5.94239e-08
0.000738282
-1.13413e-07
0.000737903
-1.73505e-07
0.000737555
-2.31501e-07
0.000737236
-2.89548e-07
0.000736945
-3.42936e-07
0.000736683
-4.01695e-07
0.000736446
-4.48652e-07
0.000736233
-5.01346e-07
0.000736043
-5.51417e-07
0.000735877
-6.00331e-07
0.000735731
-6.41999e-07
0.000735606
-6.88298e-07
0.0007355
-7.26247e-07
0.000735412
-7.68027e-07
0.000735341
-8.0621e-07
0.000735288
-8.44512e-07
0.00073525
-8.75964e-07
0.000735228
-9.14399e-07
0.000735224
-9.4722e-07
0.000735233
-9.83027e-07
0.000735256
-1.0114e-06
0.000735295
-1.04865e-06
0.000735347
-1.0754e-06
0.000735414
-1.10857e-06
0.000735493
-1.13667e-06
0.000735585
-1.16685e-06
0.000735687
-1.18992e-06
0.000735799
-1.21518e-06
0.000735919
-1.23623e-06
0.00073605
-1.26008e-06
0.000736188
-1.27797e-06
0.000736337
-1.29939e-06
0.000736491
-1.31526e-06
0.000736658
-1.3363e-06
0.000736826
-1.34602e-06
0.000737014
-1.37634e-06
0.000737197
-1.38139e-06
0.000737407
-1.41937e-06
0.000737601
-1.42619e-06
0.000737832
-1.46066e-06
0.000738035
-1.45458e-06
0.000738279
-1.48682e-06
0.000738486
-1.45669e-06
0.000738769
-1.54291e-06
0.000738977
-1.49594e-06
0.000739346
-1.73976e-06
0.000739578
-1.62794e-06
0.000740207
-2.90284e-06
0.000741375
-8.47535e-07
-1.5809e-05
0.000742045
0.000930296
1.80904e-05
0.000933078
2.47989e-05
0.000936234
2.529e-05
0.000939314
2.63081e-05
0.00094213
2.62314e-05
0.000944657
2.53359e-05
0.000946786
2.3884e-05
0.000948508
2.23397e-05
0.000949817
2.09129e-05
0.000950712
1.95492e-05
0.000951157
1.82546e-05
0.000951127
1.71818e-05
0.000950718
1.61869e-05
0.000949891
1.53643e-05
0.000948629
1.46754e-05
0.000946927
1.40688e-05
0.000944789
1.35273e-05
0.000942218
1.29964e-05
0.000939239
1.24536e-05
0.000935887
1.18591e-05
0.000932207
1.12757e-05
0.000928293
1.06208e-05
0.000924255
9.9563e-06
0.000920212
9.2657e-06
0.000916223
8.5817e-06
0.000912372
7.89642e-06
0.00090873
7.23939e-06
0.000905329
6.64477e-06
0.000902177
6.07099e-06
0.000899264
5.54918e-06
0.000896576
5.07116e-06
0.000894091
4.63453e-06
0.000891765
4.24787e-06
0.000889587
3.90108e-06
0.000887553
3.57609e-06
0.000885656
3.27303e-06
0.00088389
2.9884e-06
0.000882249
2.72043e-06
0.000880728
2.46602e-06
0.000879317
2.22708e-06
0.000878019
1.99033e-06
0.000876813
1.78546e-06
0.000875697
1.58702e-06
0.000874657
1.4141e-06
0.000873689
1.25792e-06
0.000872786
1.11493e-06
0.000871945
9.82239e-07
0.000871161
8.54514e-07
0.000870432
7.35534e-07
0.000869754
6.18247e-07
0.000869127
5.13922e-07
0.000868546
4.07173e-07
0.000868011
3.03603e-07
0.000867518
2.03088e-07
0.000867068
1.07156e-07
0.000866657
9.17578e-09
0.000866281
-7.23021e-08
0.000865938
-1.58117e-07
0.000865626
-2.39622e-07
0.000865344
-3.18225e-07
0.00086509
-3.87612e-07
0.000864862
-4.60468e-07
0.000864659
-5.23072e-07
0.00086448
-5.89378e-07
0.000864324
-6.50144e-07
0.00086419
-7.11094e-07
0.000864078
-7.63587e-07
0.000863987
-8.23625e-07
0.000863918
-8.78109e-07
0.000863869
-9.3383e-07
0.000863842
-9.83988e-07
0.000863831
-1.03794e-06
0.00086384
-1.08427e-06
0.000863864
-1.13276e-06
0.000863905
-1.17824e-06
0.00086396
-1.22111e-06
0.000864026
-1.25574e-06
0.000864103
-1.29214e-06
0.000864192
-1.32533e-06
0.000864292
-1.36051e-06
0.000864404
-1.39038e-06
0.000864528
-1.42281e-06
0.000864664
-1.45091e-06
0.00086481
-1.48251e-06
0.000864967
-1.50326e-06
0.000865137
-1.54665e-06
0.000865317
-1.56156e-06
0.000865511
-1.61266e-06
0.000865712
-1.62741e-06
0.000865923
-1.6715e-06
0.000866146
-1.67762e-06
0.000866374
-1.71519e-06
0.000866621
-1.70326e-06
0.000866866
-1.78857e-06
0.000867148
-1.77743e-06
0.000867431
-2.02315e-06
0.000867801
-1.99768e-06
0.00086827
-3.37212e-06
0.00086961
-2.18744e-06
-1.55969e-05
0.000869398
0.00102962
1.48957e-05
0.00103284
2.15831e-05
0.0010364
2.17316e-05
0.00104004
2.26626e-05
0.00104357
2.27026e-05
0.00104697
2.19395e-05
0.00105012
2.07323e-05
0.00105301
1.94478e-05
0.00105566
1.82628e-05
0.00105807
1.71467e-05
0.00106022
1.60977e-05
0.00106216
1.52488e-05
0.00106386
1.44793e-05
0.00106537
1.38582e-05
0.00106667
1.33734e-05
0.00106777
1.29702e-05
0.00106865
1.26481e-05
0.0010693
1.23479e-05
0.00106968
1.20709e-05
0.00106975
1.17934e-05
0.00106951
1.1516e-05
0.00106894
1.11911e-05
0.00106801
1.08852e-05
0.0010667
1.05681e-05
0.00106504
1.02505e-05
0.00106302
9.91067e-06
0.00106072
9.54504e-06
0.00105818
9.18069e-06
0.00105547
8.77613e-06
0.00105266
8.36733e-06
0.00104977
7.95964e-06
0.00104689
7.5128e-06
0.00104405
7.08859e-06
0.0010413
6.65323e-06
0.00103864
6.23101e-06
0.00103611
5.80734e-06
0.0010337
5.39887e-06
0.00103142
5.00037e-06
0.00102927
4.61515e-06
0.00102725
4.24714e-06
0.00102536
3.8822e-06
0.00102355
3.58893e-06
0.00102184
3.30201e-06
0.00102022
3.03087e-06
0.00101871
2.77293e-06
0.00101729
2.53305e-06
0.00101596
2.30659e-06
0.00101473
2.09148e-06
0.00101357
1.88804e-06
0.0010125
1.69184e-06
0.0010115
1.51014e-06
0.00101058
1.33303e-06
0.00100972
1.15926e-06
0.00100893
9.97369e-07
0.00100819
8.42601e-07
0.00100751
6.93689e-07
0.00100687
5.64864e-07
0.00100628
4.34179e-07
0.00100573
3.11865e-07
0.00100522
1.92925e-07
0.00100474
8.40013e-08
0.00100431
-2.56744e-08
0.00100391
-1.23381e-07
0.00100355
-2.242e-07
0.00100321
-3.18586e-07
0.00100291
-4.11484e-07
0.00100265
-4.95945e-07
0.00100241
-5.86477e-07
0.0010022
-6.72843e-07
0.00100203
-7.55395e-07
0.00100188
-8.35818e-07
0.00100175
-9.12458e-07
0.00100165
-9.84952e-07
0.00100157
-1.05325e-06
0.00100152
-1.12279e-06
0.00100148
-1.18341e-06
0.00100146
-1.23926e-06
0.00100147
-1.29436e-06
0.00100148
-1.34478e-06
0.00100152
-1.39462e-06
0.00100157
-1.44406e-06
0.00100164
-1.48959e-06
0.00100173
-1.53922e-06
0.00100183
-1.58008e-06
0.00100195
-1.62401e-06
0.00100207
-1.67462e-06
0.00100223
-1.7143e-06
0.00100238
-1.76845e-06
0.00100257
-1.80986e-06
0.00100274
-1.8503e-06
0.00100296
-1.88887e-06
0.00100316
-1.92102e-06
0.0010034
-1.94322e-06
0.00100363
-2.02149e-06
0.0010039
-2.0465e-06
0.00100418
-2.30341e-06
0.00100454
-2.35558e-06
0.00100493
-3.75639e-06
0.00100612
-3.38113e-06
-1.53378e-05
0.00100586
0.00113955
1.17857e-05
0.00114322
1.7911e-05
0.00114711
1.78441e-05
0.00115114
1.86303e-05
0.00115511
1.87348e-05
0.00115895
1.80901e-05
0.00116259
1.71001e-05
0.00116599
1.60435e-05
0.00116919
1.5063e-05
0.00117219
1.41468e-05
0.001175
1.32901e-05
0.00117765
1.25981e-05
0.00118015
1.19812e-05
0.00118252
1.14874e-05
0.00118478
1.11115e-05
0.00118694
1.08096e-05
0.00118901
1.05785e-05
0.00119098
1.03737e-05
0.00119286
1.01911e-05
0.00119464
1.00198e-05
0.0011963
9.85862e-06
0.00119782
9.6629e-06
0.00119921
9.49734e-06
0.00120045
9.33218e-06
0.00120151
9.1923e-06
0.00120238
9.0402e-06
0.00120302
8.89914e-06
0.00120345
8.7561e-06
0.0012036
8.62034e-06
0.00120348
8.49411e-06
0.0012031
8.33122e-06
0.00120247
8.14335e-06
0.0012016
7.96263e-06
0.0012005
7.75291e-06
0.00119919
7.53661e-06
0.00119771
7.29179e-06
0.00119607
7.03693e-06
0.00119431
6.76016e-06
0.00119246
6.46871e-06
0.00119054
6.16166e-06
0.00118859
5.83186e-06
0.00118664
5.54064e-06
0.0011847
5.24234e-06
0.0011828
4.93141e-06
0.00118095
4.62819e-06
0.00117916
4.32336e-06
0.00117743
4.02847e-06
0.00117579
3.73569e-06
0.00117422
3.45327e-06
0.00117274
3.17658e-06
0.00117134
2.91259e-06
0.00117001
2.65915e-06
0.00116876
2.41157e-06
0.00116755
2.20151e-06
0.0011664
1.99548e-06
0.0011653
1.79182e-06
0.00116426
1.60926e-06
0.00116327
1.42467e-06
0.00116233
1.24663e-06
0.00116145
1.07467e-06
0.00116063
9.10596e-07
0.00115985
7.50964e-07
0.00115913
5.98737e-07
0.00115845
4.49334e-07
0.00115783
3.03667e-07
0.00115725
1.65268e-07
0.00115673
3.33282e-08
0.00115624
-9.93865e-08
0.00115579
-2.28647e-07
0.00115538
-3.45539e-07
0.00115501
-4.62925e-07
0.00115467
-5.70282e-07
0.00115436
-6.74325e-07
0.00115408
-7.70695e-07
0.00115382
-8.70913e-07
0.0011536
-9.58865e-07
0.00115341
-1.04687e-06
0.00115324
-1.13002e-06
0.00115311
-1.21033e-06
0.001153
-1.28363e-06
0.00115291
-1.36161e-06
0.00115286
-1.43069e-06
0.00115282
-1.50561e-06
0.00115281
-1.57038e-06
0.00115283
-1.64187e-06
0.00115286
-1.70311e-06
0.00115292
-1.77602e-06
0.00115299
-1.83996e-06
0.00115309
-1.91038e-06
0.0011532
-1.95992e-06
0.00115334
-2.02798e-06
0.00115349
-2.07211e-06
0.00115367
-2.11663e-06
0.00115386
-2.21282e-06
0.00115407
-2.25853e-06
0.00115431
-2.54778e-06
0.00115464
-2.68554e-06
0.00115499
-4.09952e-06
0.00115601
-4.4082e-06
-1.49747e-05
0.00115565
0.0012613
8.72101e-06
0.00126542
1.37893e-05
0.00126966
1.36036e-05
0.00127409
1.4203e-05
0.00127848
1.43383e-05
0.00128274
1.38301e-05
0.00128678
1.30635e-05
0.00129058
1.22421e-05
0.00129417
1.14732e-05
0.00129756
1.07601e-05
0.00130075
1.00971e-05
0.00130379
9.55876e-06
0.00130669
9.08392e-06
0.00130947
8.70159e-06
0.00131217
8.41372e-06
0.00131479
8.18572e-06
0.00131736
8.01443e-06
0.00131986
7.86658e-06
0.00132232
7.73644e-06
0.00132472
7.6191e-06
0.00132707
7.51012e-06
0.00132936
7.37502e-06
0.00133159
7.26098e-06
0.00133377
7.15406e-06
0.0013359
7.06703e-06
0.00133796
6.97957e-06
0.00133996
6.8994e-06
0.00134188
6.82883e-06
0.00134374
6.76596e-06
0.0013455
6.72994e-06
0.00134717
6.66363e-06
0.00134872
6.59284e-06
0.00135015
6.52924e-06
0.00135145
6.4613e-06
0.00135259
6.38967e-06
0.00135358
6.30876e-06
0.00135439
6.22733e-06
0.00135502
6.12796e-06
0.00135545
6.03472e-06
0.0013557
5.91744e-06
0.00135571
5.81848e-06
0.00135557
5.68424e-06
0.00135526
5.54639e-06
0.0013548
5.39473e-06
0.00135418
5.24229e-06
0.00135343
5.07377e-06
0.00135256
4.90163e-06
0.00135158
4.71299e-06
0.00135052
4.51885e-06
0.00134938
4.31067e-06
0.0013482
4.09864e-06
0.00134698
3.87948e-06
0.00134574
3.65023e-06
0.0013445
3.4403e-06
0.00134327
3.22798e-06
0.00134205
3.00554e-06
0.00134086
2.80299e-06
0.00133969
2.59157e-06
0.00133856
2.3772e-06
0.00133747
2.16914e-06
0.00133642
1.9612e-06
0.00133541
1.75966e-06
0.00133445
1.56017e-06
0.00133353
1.36587e-06
0.00133266
1.17321e-06
0.00133184
9.87971e-07
0.00133106
8.11912e-07
0.00133031
6.50629e-07
0.00132959
4.95636e-07
0.00132889
3.53115e-07
0.00132822
2.03997e-07
0.00132758
6.56655e-08
0.00132698
-7.31374e-08
0.00132641
-2.02313e-07
0.00132588
-3.4059e-07
0.00132539
-4.62128e-07
0.00132493
-5.87202e-07
0.0013245
-7.06132e-07
0.00132412
-8.24438e-07
0.00132377
-9.3363e-07
0.00132346
-1.04909e-06
0.00132318
-1.15334e-06
0.00132294
-1.26316e-06
0.00132273
-1.36073e-06
0.00132255
-1.46678e-06
0.00132241
-1.55829e-06
0.00132229
-1.6638e-06
0.00132221
-1.75853e-06
0.00132215
-1.85245e-06
0.00132213
-1.93747e-06
0.00132213
-2.02334e-06
0.00132215
-2.09463e-06
0.0013222
-2.1632e-06
0.00132227
-2.2819e-06
0.00132237
-2.36689e-06
0.0013225
-2.67271e-06
0.00132273
-2.91903e-06
0.00132296
-4.32624e-06
0.00132376
-5.20708e-06
-1.44579e-05
0.00132324
0.00139614
5.65791e-06
0.00140075
9.18473e-06
0.00140539
8.9584e-06
0.00141024
9.35317e-06
0.00141511
9.47377e-06
0.00141982
9.11927e-06
0.00142428
8.59838e-06
0.00142849
8.03242e-06
0.00143247
7.49569e-06
0.00143623
7.00399e-06
0.00143977
6.54955e-06
0.00144315
6.17777e-06
0.00144639
5.85235e-06
0.0014495
5.58733e-06
0.00145252
5.38947e-06
0.00145548
5.23477e-06
0.00145837
5.1207e-06
0.00146121
5.02498e-06
0.00146401
4.94077e-06
0.00146676
4.86763e-06
0.00146947
4.80099e-06
0.00147213
4.711e-06
0.00147476
4.63306e-06
0.00147735
4.56106e-06
0.00147991
4.5049e-06
0.00148245
4.44881e-06
0.00148495
4.39725e-06
0.00148742
4.3524e-06
0.00148987
4.31696e-06
0.0014923
4.30537e-06
0.00149469
4.27056e-06
0.00149705
4.23365e-06
0.00149938
4.20266e-06
0.00150166
4.17547e-06
0.00150391
4.144e-06
0.0015061
4.11303e-06
0.00150825
4.08019e-06
0.00151034
4.04367e-06
0.00151236
4.00824e-06
0.00151431
3.96875e-06
0.00151619
3.94317e-06
0.00151797
3.90262e-06
0.00151966
3.85503e-06
0.00152124
3.80891e-06
0.00152272
3.76221e-06
0.00152408
3.71341e-06
0.00152532
3.66295e-06
0.00152643
3.607e-06
0.0015274
3.54935e-06
0.00152823
3.48242e-06
0.00152891
3.4197e-06
0.00152945
3.34033e-06
0.00152983
3.26661e-06
0.0015301
3.167e-06
0.00153024
3.09368e-06
0.00153026
2.98646e-06
0.00153017
2.88921e-06
0.00152999
2.77365e-06
0.00152971
2.65429e-06
0.00152935
2.53037e-06
0.00152891
2.3998e-06
0.00152841
2.26303e-06
0.00152785
2.12036e-06
0.00152724
1.97083e-06
0.0015266
1.81463e-06
0.00152593
1.65777e-06
0.00152525
1.4956e-06
0.00152455
1.34298e-06
0.00152386
1.18691e-06
0.00152317
1.04173e-06
0.00152249
8.84004e-07
0.00152182
7.35902e-07
0.00152117
5.83781e-07
0.00152053
4.38956e-07
0.00151991
2.79276e-07
0.00151931
1.38e-07
0.00151873
-1.01186e-08
0.00151818
-1.55649e-07
0.00151765
-3.00517e-07
0.00151716
-4.39098e-07
0.00151669
-5.83285e-07
0.00151626
-7.1849e-07
0.00151585
-8.55966e-07
0.00151548
-9.84165e-07
0.00151513
-1.11705e-06
0.00151481
-1.2387e-06
0.00151451
-1.3713e-06
0.00151425
-1.49613e-06
0.00151401
-1.60867e-06
0.00151379
-1.72159e-06
0.00151359
-1.8225e-06
0.00151342
-1.92107e-06
0.00151326
-2.00998e-06
0.00151313
-2.14505e-06
0.00151303
-2.2652e-06
0.00151293
-2.57776e-06
0.00151293
-2.91584e-06
0.0015129
-4.30284e-06
0.00151332
-5.62541e-06
-1.36635e-05
0.00151253
0.00154551
2.5271e-06
0.00155064
4.05366e-06
0.00155576
3.84587e-06
0.00156107
4.03721e-06
0.00156645
4.09162e-06
0.00157167
3.90651e-06
0.0015766
3.66008e-06
0.00158126
3.37246e-06
0.00158567
3.09161e-06
0.00158983
2.84513e-06
0.00159376
2.61943e-06
0.0015975
2.43381e-06
0.00160108
2.27119e-06
0.00160453
2.1361e-06
0.00160789
2.03715e-06
0.00161116
1.96218e-06
0.00161437
1.91016e-06
0.00161752
1.86962e-06
0.00162063
1.83328e-06
0.00162369
1.80641e-06
0.00162671
1.78367e-06
0.00162968
1.7383e-06
0.00163262
1.69567e-06
0.00163552
1.65706e-06
0.0016384
1.62939e-06
0.00164125
1.60046e-06
0.00164407
1.57317e-06
0.00164688
1.54622e-06
0.00164966
1.53098e-06
0.00165244
1.5332e-06
0.00165519
1.51849e-06
0.00165792
1.49913e-06
0.00166064
1.48567e-06
0.00166334
1.47646e-06
0.00166602
1.46409e-06
0.00166868
1.45288e-06
0.00167132
1.43984e-06
0.00167394
1.42667e-06
0.00167654
1.41e-06
0.00167911
1.39811e-06
0.00168165
1.39464e-06
0.00168417
1.3828e-06
0.00168667
1.36349e-06
0.00168913
1.3487e-06
0.00169155
1.33317e-06
0.00169395
1.32029e-06
0.00169631
1.30544e-06
0.00169862
1.29193e-06
0.00170089
1.27604e-06
0.00170312
1.25994e-06
0.00170529
1.24546e-06
0.0017074
1.22804e-06
0.00170946
1.20987e-06
0.00171144
1.1847e-06
0.00171336
1.17603e-06
0.00171519
1.15174e-06
0.00171695
1.13224e-06
0.00171862
1.10556e-06
0.0017202
1.07601e-06
0.00172168
1.04841e-06
0.00172306
1.01727e-06
0.00172434
9.848e-07
0.00172551
9.4911e-07
0.00172657
9.08994e-07
0.00172752
8.65981e-07
0.00172836
8.20273e-07
0.00172908
7.7305e-07
0.00172971
7.16507e-07
0.00173024
6.55093e-07
0.00173069
5.95984e-07
0.00173105
5.24693e-07
0.00173133
4.54285e-07
0.00173152
3.8619e-07
0.00173166
3.02075e-07
0.00173172
2.23772e-07
0.00173172
1.39718e-07
0.00173166
4.10873e-08
0.00173156
-5.36993e-08
0.00173142
-1.53284e-07
0.00173123
-2.53234e-07
0.00173101
-3.61806e-07
0.00173076
-4.6896e-07
0.00173048
-5.79614e-07
0.00173019
-6.87398e-07
0.00172987
-8.00789e-07
0.00172954
-9.06287e-07
0.00172919
-1.0276e-06
0.00172884
-1.13891e-06
0.00172846
-1.23639e-06
0.00172808
-1.33835e-06
0.00172769
-1.42882e-06
0.00172728
-1.51683e-06
0.00172687
-1.59752e-06
0.00172644
-1.71742e-06
0.00172601
-1.83586e-06
0.00172556
-2.12997e-06
0.00172516
-2.50921e-06
0.00172469
-3.83902e-06
0.00172456
-5.48777e-06
-1.23875e-05
0.00172328
0.001711
-7.94008e-07
0.00171671
-1.6497e-06
0.00172235
-1.79997e-06
0.0017282
-1.81442e-06
0.00173416
-1.86671e-06
0.00173993
-1.86425e-06
0.0017454
-1.80281e-06
0.00175056
-1.7866e-06
0.00175543
-1.78532e-06
0.00176004
-1.75919e-06
0.00176439
-1.73346e-06
0.00176853
-1.71109e-06
0.0017725
-1.69487e-06
0.00177632
-1.68582e-06
0.00178003
-1.67499e-06
0.00178366
-1.66193e-06
0.00178721
-1.64485e-06
0.00179071
-1.62434e-06
0.00179415
-1.60862e-06
0.00179754
-1.58366e-06
0.00180088
-1.5576e-06
0.00180417
-1.55538e-06
0.00180743
-1.55929e-06
0.00181065
-1.56217e-06
0.00181384
-1.55888e-06
0.001817
-1.55916e-06
0.00182013
-1.56107e-06
0.00182325
-1.57016e-06
0.00182634
-1.56499e-06
0.00182942
-1.54824e-06
0.00183249
-1.54451e-06
0.00183553
-1.5472e-06
0.00183856
-1.54445e-06
0.00184158
-1.53809e-06
0.00184458
-1.53362e-06
0.00184756
-1.52849e-06
0.00185052
-1.52516e-06
0.00185347
-1.5202e-06
0.0018564
-1.52384e-06
0.00185932
-1.51545e-06
0.00186222
-1.50347e-06
0.0018651
-1.49791e-06
0.00186796
-1.49859e-06
0.0018708
-1.49664e-06
0.00187363
-1.49463e-06
0.00187644
-1.49086e-06
0.00187924
-1.48827e-06
0.00188201
-1.4843e-06
0.00188477
-1.48218e-06
0.00188751
-1.47897e-06
0.00189023
-1.47572e-06
0.00189293
-1.46982e-06
0.00189561
-1.472e-06
0.00189826
-1.46906e-06
0.0019009
-1.45756e-06
0.0019035
-1.45379e-06
0.00190608
-1.44878e-06
0.00190864
-1.44536e-06
0.00191116
-1.44467e-06
0.00191364
-1.43946e-06
0.0019161
-1.43621e-06
0.00191851
-1.43016e-06
0.00192089
-1.42643e-06
0.00192322
-1.42157e-06
0.0019255
-1.41777e-06
0.00192773
-1.41082e-06
0.00192991
-1.40239e-06
0.00193202
-1.3986e-06
0.00193407
-1.39361e-06
0.00193605
-1.38527e-06
0.00193796
-1.38135e-06
0.00193979
-1.37506e-06
0.00194153
-1.3581e-06
0.00194319
-1.35535e-06
0.00194475
-1.33822e-06
0.00194622
-1.3266e-06
0.00194758
-1.31758e-06
0.00194883
-1.30784e-06
0.00194997
-1.29216e-06
0.001951
-1.27797e-06
0.0019519
-1.26266e-06
0.00195268
-1.24897e-06
0.00195333
-1.23217e-06
0.00195386
-1.21516e-06
0.00195425
-1.199e-06
0.00195453
-1.17645e-06
0.00195467
-1.1719e-06
0.00195467
-1.13887e-06
0.00195456
-1.12987e-06
0.00195434
-1.11855e-06
0.00195401
-1.0965e-06
0.00195357
-1.07431e-06
0.00195302
-1.05228e-06
0.00195237
-1.06703e-06
0.00195164
-1.10084e-06
0.0019508
-1.29163e-06
0.00194991
-1.62411e-06
0.00194887
-2.79328e-06
0.00194791
-4.53e-06
-1.03051e-05
0.00194583
0.00171104
-4.14955e-06
0.00171675
-7.36506e-06
0.0017224
-7.44982e-06
0.00172826
-7.67183e-06
0.00173422
-7.82891e-06
0.00174
-7.63624e-06
0.00174546
-7.2636e-06
0.00175062
-6.94644e-06
0.00175549
-6.66357e-06
0.0017601
-6.36299e-06
0.00176445
-6.08708e-06
0.0017686
-5.85581e-06
0.00177256
-5.66098e-06
0.00177638
-5.50836e-06
0.0017801
-5.38742e-06
0.00178372
-5.28665e-06
0.00178728
-5.20033e-06
0.00179077
-5.11827e-06
0.00179421
-5.05162e-06
0.0017976
-4.97366e-06
0.00180094
-4.89815e-06
0.00180424
-4.84943e-06
0.00180749
-4.81432e-06
0.00181071
-4.78193e-06
0.0018139
-4.74705e-06
0.00181706
-4.71894e-06
0.0018202
-4.69512e-06
0.00182331
-4.68753e-06
0.00182641
-4.66121e-06
0.00182949
-4.62885e-06
0.00183255
-4.60757e-06
0.0018356
-4.59343e-06
0.00183863
-4.57422e-06
0.00184164
-4.55195e-06
0.00184464
-4.53051e-06
0.00184762
-4.50845e-06
0.00185058
-4.48857e-06
0.00185353
-4.46441e-06
0.00185646
-4.45539e-06
0.00185937
-4.42632e-06
0.00186226
-4.39683e-06
0.00186514
-4.37398e-06
0.001868
-4.35506e-06
0.00187083
-4.33516e-06
0.00187365
-4.31463e-06
0.00187646
-4.29298e-06
0.00187924
-4.27131e-06
0.001882
-4.24835e-06
0.00188475
-4.22596e-06
0.00188747
-4.20151e-06
0.00189017
-4.17755e-06
0.00189285
-4.14522e-06
0.0018955
-4.12787e-06
0.00189813
-4.09432e-06
0.00190073
-4.05587e-06
0.00190329
-4.02139e-06
0.00190583
-3.98391e-06
0.00190833
-3.94617e-06
0.00191079
-3.90644e-06
0.00191321
-3.86218e-06
0.00191559
-3.81417e-06
0.00191792
-3.76175e-06
0.0019202
-3.70601e-06
0.00192243
-3.64698e-06
0.00192459
-3.58199e-06
0.00192669
-3.51107e-06
0.00192872
-3.43409e-06
0.00193068
-3.3563e-06
0.00193256
-3.27493e-06
0.00193436
-3.18083e-06
0.00193607
-3.09317e-06
0.00193769
-2.99163e-06
0.00193921
-2.88143e-06
0.00194063
-2.77514e-06
0.00194195
-2.65636e-06
0.00194316
-2.53512e-06
0.00194425
-2.41483e-06
0.00194524
-2.28993e-06
0.0019461
-2.15973e-06
0.00194685
-2.02553e-06
0.00194748
-1.89255e-06
0.00194799
-1.75727e-06
0.00194839
-1.633e-06
0.00194868
-1.50864e-06
0.00194888
-1.38966e-06
0.00194896
-1.25954e-06
0.00194893
-1.14086e-06
0.00194881
-1.02036e-06
0.00194859
-9.12591e-07
0.00194828
-8.04643e-07
0.00194787
-6.88936e-07
0.00194737
-5.74916e-07
0.00194678
-4.65758e-07
0.00194611
-3.91417e-07
0.00194535
-3.46699e-07
0.0019445
-4.3953e-07
0.00194358
-7.01147e-07
0.00194248
-1.68944e-06
0.00194129
-3.3452e-06
-8.13748e-06
0.00193912
0.0015456
-7.3736e-06
0.00155077
-1.25259e-05
0.00155589
-1.25735e-05
0.00156122
-1.30027e-05
0.00156661
-1.32211e-05
0.00157183
-1.28525e-05
0.00157676
-1.21963e-05
0.00158142
-1.16087e-05
0.00158583
-1.1071e-05
0.00158999
-1.05206e-05
0.00159392
-1.00191e-05
0.00159766
-9.59909e-06
0.00160125
-9.24239e-06
0.0016047
-8.96081e-06
0.00160805
-8.74061e-06
0.00161133
-8.56054e-06
0.00161454
-8.41202e-06
0.00161769
-8.27347e-06
0.0016208
-8.16179e-06
0.00162386
-8.03449e-06
0.00162688
-7.91311e-06
0.00162985
-7.82255e-06
0.00163279
-7.75139e-06
0.00163569
-7.68619e-06
0.00163857
-7.621e-06
0.00164141
-7.56578e-06
0.00164423
-7.51625e-06
0.00164704
-7.49337e-06
0.00164982
-7.44402e-06
0.00165259
-7.39488e-06
0.00165534
-7.35476e-06
0.00165806
-7.32167e-06
0.00166077
-7.28352e-06
0.00166346
-7.24145e-06
0.00166613
-7.19948e-06
0.00166878
-7.15497e-06
0.0016714
-7.11278e-06
0.001674
-7.06165e-06
0.00167658
-7.03191e-06
0.00167912
-6.97073e-06
0.00168164
-6.91144e-06
0.00168412
-6.85675e-06
0.00168656
-6.80137e-06
0.00168897
-6.74414e-06
0.00169134
-6.68235e-06
0.00169367
-6.61688e-06
0.00169594
-6.54663e-06
0.00169816
-6.47109e-06
0.00170033
-6.39042e-06
0.00170243
-6.30275e-06
0.00170446
-6.20997e-06
0.00170642
-6.09959e-06
0.00170829
-6.00556e-06
0.00171008
-5.88053e-06
0.00171178
-5.75114e-06
0.00171337
-5.61753e-06
0.00171486
-5.47678e-06
0.00171625
-5.32902e-06
0.00171752
-5.17523e-06
0.00171867
-5.01203e-06
0.00171969
-4.84227e-06
0.0017206
-4.66458e-06
0.00172137
-4.48288e-06
0.00172202
-4.29673e-06
0.00172256
-4.11485e-06
0.00172298
-3.93966e-06
0.00172331
-3.76344e-06
0.00172355
-3.58825e-06
0.00172369
-3.41493e-06
0.00172374
-3.23098e-06
0.0017237
-3.05835e-06
0.0017236
-2.88946e-06
0.00172343
-2.71529e-06
0.0017232
-2.54685e-06
0.00172292
-2.37537e-06
0.0017226
-2.20753e-06
0.00172223
-2.04657e-06
0.00172183
-1.88853e-06
0.0017214
-1.73112e-06
0.00172095
-1.5759e-06
0.00172048
-1.42684e-06
0.00172001
-1.28172e-06
0.00171953
-1.1519e-06
0.00171904
-1.02542e-06
0.00171856
-9.03689e-07
0.00171807
-7.75952e-07
0.00171759
-6.56099e-07
0.00171711
-5.37255e-07
0.00171662
-4.28869e-07
0.00171614
-3.21489e-07
0.00171566
-2.07549e-07
0.00171518
-9.59126e-08
0.0017147
1.27855e-08
0.00171422
9.05849e-08
0.00171373
1.38048e-07
0.00171322
6.96016e-08
0.00171269
-1.66546e-07
0.00171203
-1.02949e-06
0.00171123
-2.54897e-06
-6.56089e-06
0.00170966
0.00139628
-1.05773e-05
0.00140093
-1.71734e-05
0.00140559
-1.72371e-05
0.00141046
-1.78707e-05
0.00141534
-1.80987e-05
0.00142006
-1.75694e-05
0.00142451
-1.66527e-05
0.00142873
-1.58223e-05
0.00143271
-1.5053e-05
0.00143646
-1.4275e-05
0.00144001
-1.35695e-05
0.00144339
-1.29787e-05
0.00144663
-1.24742e-05
0.00144974
-1.20758e-05
0.00145277
-1.17656e-05
0.00145572
-1.15118e-05
0.00145861
-1.13055e-05
0.00146145
-1.11117e-05
0.00146424
-1.09584e-05
0.00146699
-1.07807e-05
0.00146969
-1.0614e-05
0.00147235
-1.04806e-05
0.00147497
-1.03721e-05
0.00147756
-1.02707e-05
0.00148011
-1.01713e-05
0.00148262
-1.00833e-05
0.00148511
-1.00007e-05
0.00148757
-9.95353e-06
0.00148999
-9.86897e-06
0.00149239