/*--------------------------------*- C++ -*----------------------------------*\
| =========                 |                                                 |
| \\      /  F ield         | OpenFOAM: The Open Source CFD Toolbox           |
|  \\    /   O peration     | Version:  v2012                                 |
|   \\  /    A nd           | Website:  www.openfoam.com                      |
|    \\/     M anipulation  |                                                 |
\*---------------------------------------------------------------------------*/
FoamFile
{
    version     2.0;
    format      ascii;
    class       volScalarField;
    location    "0.12";
    object      nut.air;
}
// * * * * * * * * * * * * * * * * * * * * * * * * * * * * * * * * * * * * * //

dimensions      [0 2 -1 0 0 0 0];


internalField   nonuniform List<scalar> 
5600
(
1.31155e-05
2.99282e-05
5.00562e-05
6.5065e-05
7.30444e-05
7.56048e-05
7.50321e-05
7.28172e-05
7.01527e-05
6.76986e-05
6.55173e-05
6.37519e-05
6.24245e-05
6.1615e-05
6.11875e-05
6.11541e-05
6.13402e-05
6.16908e-05
6.21191e-05
6.25337e-05
6.29376e-05
6.32782e-05
6.35594e-05
6.38114e-05
6.39824e-05
6.41787e-05
6.43048e-05
6.44648e-05
6.45667e-05
6.46942e-05
6.47917e-05
6.48872e-05
6.4974e-05
6.50371e-05
6.51057e-05
6.51396e-05
6.51915e-05
6.52038e-05
6.52458e-05
6.5242e-05
6.52778e-05
6.52657e-05
6.5294e-05
6.52819e-05
6.53028e-05
6.52948e-05
6.53137e-05
6.53069e-05
6.53303e-05
6.5318e-05
6.53496e-05
6.53306e-05
6.53669e-05
6.53455e-05
6.53823e-05
6.53626e-05
6.53995e-05
6.53788e-05
6.54201e-05
6.53953e-05
6.54455e-05
6.54176e-05
6.54737e-05
6.5443e-05
6.55025e-05
6.54698e-05
6.55382e-05
6.55002e-05
6.55842e-05
6.55381e-05
6.56334e-05
6.55801e-05
6.56809e-05
6.56216e-05
6.57298e-05
6.56594e-05
6.57829e-05
6.56924e-05
6.58371e-05
6.5725e-05
6.58894e-05
6.57636e-05
6.59392e-05
6.58102e-05
6.59845e-05
6.58676e-05
6.60198e-05
6.59442e-05
6.60335e-05
6.60628e-05
6.59869e-05
6.62878e-05
6.57642e-05
6.68209e-05
6.49921e-05
6.8334e-05
6.23041e-05
7.3393e-05
5.16271e-05
9.26007e-05
0.000161048
0.000141975
0.000113734
0.000102287
0.000100784
0.000107381
0.000116739
0.000134373
0.000148924
0.000163197
0.000179949
0.000200105
0.00022101
0.00024334
0.000265305
0.000286967
0.000307472
0.000326256
0.000343621
0.000358665
0.000372258
0.000384235
0.000394619
0.000404644
0.000412866
0.00042164
0.000428668
0.000436067
0.000442098
0.000448234
0.00045359
0.000458415
0.000462905
0.000466498
0.000470083
0.000472696
0.000475648
0.000477515
0.000480071
0.000481376
0.000483609
0.000484597
0.000486472
0.000487369
0.000488957
0.000489871
0.000491385
0.000492153
0.000493723
0.000494193
0.000495872
0.000496091
0.00049775
0.000497858
0.000499419
0.000499496
0.000501026
0.00050095
0.000502588
0.000502314
0.000504103
0.000503729
0.000505568
0.000505097
0.000506972
0.000506339
0.000508426
0.000507561
0.000509978
0.000508849
0.000511488
0.000510182
0.000512895
0.000511398
0.000514328
0.000512457
0.00051584
0.000513382
0.000517289
0.000514263
0.000518609
0.000515217
0.000519834
0.000516261
0.000520939
0.000517391
0.000521859
0.000518688
0.000522494
0.000520525
0.000522264
0.000523905
0.000519908
0.000530644
0.000512148
0.000545389
0.000491333
0.000579932
0.000438606
0.000586751
0.000158969
0.000155657
0.000150666
0.000143756
0.000134238
0.00012465
0.000113654
0.00011023
0.000105337
0.000109882
0.000112485
0.000122285
0.000131578
0.000145358
0.000161382
0.000179548
0.000201555
0.000224633
0.000251152
0.000279119
0.000308806
0.000341743
0.000374902
0.000412999
0.000446311
0.000478972
0.000506852
0.000535541
0.000560386
0.00058068
0.000598398
0.000613817
0.000628435
0.000640819
0.000653693
0.000663926
0.000675359
0.000683631
0.000693869
0.000700652
0.000709727
0.000715703
0.000723615
0.000729236
0.000736182
0.000741287
0.000747733
0.000751863
0.000758161
0.000761207
0.000767407
0.00076978
0.000775579
0.000777635
0.000783
0.000784801
0.000790133
0.000791358
0.000796871
0.000797473
0.000803142
0.000803478
0.000809095
0.00080915
0.000814781
0.000814186
0.000820279
0.000818958
0.000825616
0.000823873
0.000830731
0.000828717
0.00083568
0.000833072
0.000840621
0.000836915
0.000845539
0.000840454
0.000850148
0.000843819
0.000854376
0.00084706
0.000858481
0.000850193
0.000862628
0.000852962
0.000866983
0.000855087
0.000871908
0.000856478
0.000877646
0.000857094
0.000884649
0.000855993
0.000894624
0.000851275
0.000911264
0.000841727
0.000895542
0.000818121
0.000159609
0.000156602
0.000154565
0.000153203
0.00014858
0.000150005
0.000140436
0.000144603
0.000131839
0.000136596
0.000125686
0.000126894
0.000121153
0.0001184
0.000119188
0.000116522
0.000122099
0.000125025
0.000133677
0.000145248
0.00015723
0.000177562
0.000194694
0.000223077
0.000247862
0.000282824
0.000315142
0.000353275
0.000388451
0.000421527
0.000453949
0.000484603
0.000516294
0.000544692
0.000574827
0.000600584
0.000629141
0.000652317
0.000679198
0.000700138
0.000725003
0.000744677
0.000767259
0.000785815
0.000804053
0.000817041
0.000832424
0.000842913
0.000857796
0.000866019
0.000880319
0.000887385
0.000900601
0.000907068
0.000919352
0.000925048
0.00093731
0.000941659
0.000954103
0.000957209
0.000969507
0.000972137
0.000984094
0.000986094
0.000998106
0.000998636
0.00101136
0.00101049
0.00102386
0.00102245
0.00103585
0.00103416
0.00104769
0.00104476
0.00105936
0.00105428
0.0010706
0.00106327
0.00108099
0.0010718
0.00109056
0.00107977
0.0010998
0.00108727
0.0011091
0.00109389
0.0011188
0.0010992
0.00112926
0.0011034
0.00114051
0.00110696
0.00115255
0.00110972
0.00116526
0.00111233
0.00117651
0.00111897
0.00118101
0.00113388
0.000159678
0.000157272
0.000154476
0.000155329
0.000148921
0.000154809
0.000143841
0.000153386
0.000141073
0.000148841
0.000141451
0.000141513
0.000142725
0.000134552
0.000140844
0.000131466
0.000133749
0.000132622
0.0001237
0.000133721
0.000116774
0.000133622
0.000117747
0.000135797
0.000129107
0.000145893
0.000152123
0.000169028
0.000186864
0.000207125
0.00023292
0.000257391
0.000289291
0.000317956
0.000355077
0.00038173
0.000413969
0.000438401
0.000471222
0.000495432
0.000527277
0.000552089
0.000582351
0.000607938
0.000636906
0.000661178
0.000690043
0.000711601
0.000740582
0.000759205
0.000787368
0.000804539
0.000830895
0.000847287
0.000872226
0.00088706
0.000911953
0.000923508
0.000948477
0.000958108
0.00098252
0.000991489
0.00101527
0.00102315
0.00104717
0.00105223
0.00107725
0.00107963
0.00110513
0.00110681
0.00113193
0.00113316
0.00115688
0.00115532
0.00117909
0.00117422
0.00119996
0.00119236
0.00121923
0.00120964
0.00123698
0.00122576
0.00125385
0.00124096
0.00127047
0.00125502
0.00128721
0.00126758
0.00130388
0.00127968
0.00131986
0.00129276
0.00133458
0.00130719
0.00134697
0.00132376
0.00135473
0.0013445
0.00135813
0.00136632
0.000159461
0.000158005
0.0001538
0.000156676
0.000148131
0.000156205
0.000144115
0.000153969
0.000143844
0.000148371
0.000147033
0.000141388
0.000149489
0.000138013
0.000146002
0.000141822
0.000135753
0.000150423
0.000124287
0.000155988
0.000118641
0.000153555
0.000119975
0.000145634
0.00012509
0.000135858
0.00013079
0.000128677
0.000134341
0.000128388
0.000139407
0.0001341
0.000151701
0.000148254
0.000172564
0.000172928
0.000203016
0.000208453
0.000240652
0.000254185
0.000286166
0.000307171
0.000339396
0.000365591
0.000401169
0.000422694
0.000452343
0.000470845
0.000503256
0.000520436
0.000553056
0.000571009
0.000602603
0.000621196
0.000652648
0.000669897
0.000703267
0.000718283
0.00075268
0.00076668
0.000800147
0.000813931
0.00084686
0.000859547
0.00089348
0.000902469
0.000937554
0.000943458
0.000978587
0.00098455
0.00101891
0.00102526
0.0010599
0.00106323
0.00110002
0.0010995
0.00113827
0.00113524
0.0011739
0.00116984
0.00120678
0.00120228
0.00123766
0.00123344
0.0012669
0.00126309
0.00129516
0.00129112
0.00132185
0.00131932
0.0013465
0.00134903
0.00136992
0.00137838
0.00139333
0.00140488
0.00141807
0.00142629
0.00144747
0.00145491
0.000159146
0.000158581
0.00015341
0.000157127
0.00014832
0.00015569
0.000145708
0.000151984
0.000146953
0.000145598
0.000150354
0.000139907
0.000150643
0.000140367
0.000143259
0.000148863
0.000130043
0.000159449
0.000119729
0.000162243
0.000119778
0.000155
0.000127169
0.000144883
0.000134789
0.000136113
0.000140627
0.000129864
0.000143124
0.00012602
0.000146523
0.000118545
0.000153573
0.000112023
0.000156254
0.000111733
0.000154802
0.000119285
0.000149803
0.000133481
0.000151786
0.000147476
0.000164957
0.000163206
0.000190276
0.000184526
0.000220937
0.000216101
0.000255945
0.000257082
0.000294301
0.000304085
0.000341099
0.000354391
0.000394407
0.000407118
0.000451963
0.000465806
0.000500788
0.000509469
0.000543086
0.000553004
0.000587277
0.0005965
0.000633952
0.000640345
0.000679226
0.000684608
0.000722317
0.000730254
0.000767502
0.000777166
0.000816681
0.000823872
0.000866348
0.000870676
0.000913987
0.000917854
0.000959486
0.000964075
0.00100241
0.00100792
0.00104264
0.00104995
0.00108163
0.00109048
0.00112054
0.00112954
0.00115787
0.00116828
0.00119339
0.00120801
0.0012291
0.00124705
0.00126648
0.00128377
0.00130346
0.00131937
0.0013401
0.00136167
0.000158975
0.000158637
0.000153711
0.00015652
0.000149631
0.000154016
0.000148027
0.000149703
0.000149245
0.000144167
0.000150921
0.000140925
0.000148482
0.00014406
0.000139375
0.000153047
0.00012744
0.000160588
0.000121469
0.000158847
0.000125806
0.000149433
0.00013393
0.000140801
0.000139092
0.000135206
0.000142438
0.000130588
0.000145623
0.000124735
0.000152499
0.000114325
0.00016086
0.000108344
0.000159286
0.000113289
0.000149269
0.000124539
0.000137122
0.000132489
0.000136101
0.000125331
0.000148704
0.000111029
0.000163265
0.000103705
0.000164857
0.000112673
0.000159754
0.000127025
0.000159604
0.000137988
0.000174031
0.000147246
0.000192883
0.000164476
0.0002131
0.000193465
0.000235507
0.000227071
0.000265726
0.000261428
0.000304796
0.000299099
0.000348358
0.000344148
0.000391769
0.000394081
0.000436607
0.000446263
0.000489077
0.000501562
0.000548871
0.000553115
0.000590797
0.000593698
0.000630491
0.000636274
0.000670505
0.00067974
0.000710627
0.000722482
0.000749702
0.00076424
0.000789404
0.00080592
0.000830879
0.000847984
0.000871982
0.000890485
0.0009125
0.000934065
0.000955224
0.00097912
0.00100088
0.00102516
0.0010453
0.00107122
0.00108895
0.00111993
0.000159042
0.000158208
0.000154471
0.000155386
0.000151192
0.000152419
0.000149672
0.000148692
0.000149604
0.000145004
0.000149117
0.000143666
0.000145578
0.000146528
0.000138388
0.000151953
0.00013112
0.000154713
0.000129234
0.000151054
0.000133424
0.0001441
0.000137745
0.000139781
0.000138798
0.000137584
0.000140092
0.000133396
0.000144444
0.000126031
0.000151464
0.000117837
0.000155465
0.000117368
0.0001487
0.000127894
0.000135047
0.000139926
0.000126327
0.000140405
0.000133185
0.000125532
0.000149788
0.000109457
0.000158263
0.000108754
0.000148943
0.000122615
0.000136795
0.000128896
0.00013869
0.000118761
0.000153866
0.00010575
0.000159971
0.00010897
0.000152264
0.000123233
0.000145715
0.000127861
0.000154783
0.000123106
0.000170438
0.000126304
0.000177123
0.000144668
0.000179093
0.000167321
0.00018958
0.000186066
0.000212657
0.000207386
0.000242712
0.000238339
0.000273044
0.000274334
0.000303925
0.000313121
0.000340472
0.00035557
0.000381113
0.000399982
0.000423031
0.000444868
0.000467828
0.000491636
0.000516635
0.000541674
0.000566992
0.000593449
0.00061775
0.000646499
0.000666684
0.000690646
0.000710748
0.000736326
0.00075679
0.000783856
0.000806402
0.000836566
0.000159211
0.000157696
0.00015516
0.000154456
0.000152227
0.00015156
0.000150275
0.000148783
0.000148917
0.000146488
0.000147304
0.000145489
0.000144526
0.000146179
0.000140713
0.000147469
0.000137606
0.000147173
0.000137105
0.000144379
0.00013857
0.000141185
0.000139076
0.000140016
0.000137824
0.000139618
0.000137512
0.000137092
0.000140041
0.000132008
0.000144214
0.00012712
0.000145722
0.000127758
0.000140038
0.000135653
0.000129627
0.00014393
0.0001239
0.000143048
0.000129693
0.000131851
0.000141189
0.000121529
0.000144988
0.000123742
0.000136255
0.000134147
0.000127367
0.000136881
0.000130379
0.000127788
0.000140557
0.0001194
0.000142003
0.000124077
0.000132761
0.000133648
0.000127073
0.000132307
0.000134453
0.000121542
0.000143377
0.000118627
0.000140093
0.000128096
0.000131003
0.000135553
0.000131
0.00013314
0.000139218
0.000130335
0.000145169
0.000136257
0.000147375
0.000146242
0.000151673
0.000155805
0.000161536
0.000168333
0.000174768
0.000184687
0.00019108
0.000203772
0.00021203
0.00022617
0.000237925
0.000254205
0.000269061
0.000287766
0.000304445
0.000325217
0.000345168
0.00036874
0.000392263
0.000418292
0.000443724
0.000470605
0.000497338
0.000524558
0.000159311
0.000157445
0.000155446
0.000154102
0.000152528
0.000151412
0.000150212
0.000149186
0.00014828
0.000147338
0.000146553
0.000145899
0.000144815
0.000144936
0.000142982
0.000144256
0.000141397
0.000143272
0.000140609
0.000141602
0.000140532
0.000139811
0.000140186
0.000138917
0.000138867
0.000138998
0.000137157
0.000138911
0.000136474
0.000137232
0.000137808
0.000133925
0.000139735
0.000131925
0.000138418
0.00013459
0.00013251
0.000140266
0.000126742
0.000142221
0.000127626
0.000136505
0.000134716
0.000128512
0.000139215
0.000127393
0.000135074
0.000133444
0.000128132
0.000137126
0.000127721
0.00013285
0.000133545
0.000126891
0.00013603
0.000127881
0.000131295
0.000133413
0.000127043
0.000134022
0.000130294
0.000128618
0.000135841
0.00012654
0.000135283
0.000131235
0.000131539
0.000135917
0.000132379
0.000136642
0.000137551
0.0001377
0.000142754
0.000143003
0.000147872
0.000151486
0.000155516
0.000161671
0.000167124
0.000175082
0.000182383
0.000192473
0.000201681
0.000214015
0.000225359
0.000239758
0.000253471
0.000270341
0.000287082
0.000306304
0.000325497
0.000345904
0.00036707
0.000389346
0.000412916
0.000437758
0.000463481
0.000490339
0.000518002
0.000546481
0.00015935
0.000157375
0.000155478
0.000154089
0.000152433
0.000151602
0.000149881
0.000149611
0.000147804
0.000147738
0.000146338
0.00014575
0.00014536
0.000143888
0.000144328
0.000142668
0.000142791
0.00014215
0.000141071
0.000141585
0.000140047
0.000140203
0.000140015
0.000138312
0.000140018
0.000137226
0.000138755
0.000137711
0.000136365
0.000138567
0.000134825
0.000137651
0.000135552
0.000134982
0.000136878
0.00013343
0.00013573
0.000134998
0.000132141
0.000137444
0.000129964
0.000136679
0.000131793
0.000132773
0.000134888
0.00013029
0.000134852
0.00013172
0.000132135
0.000134264
0.000130882
0.000134552
0.000132707
0.000133579
0.000135267
0.000134555
0.000136952
0.000138263
0.000139453
0.000143361
0.000145116
0.000149825
0.000154181
0.000159465
0.000166242
0.000173398
0.00018217
0.000191811
0.000202747
0.000214777
0.000227895
0.000242425
0.000257694
0.000274231
0.000291564
0.00030995
0.000329206
0.000349341
0.000370394
0.000392428
0.000415274
0.0004391
0.000463551
0.000488804
0.000514442
0.000540884
0.000567475
0.000595117
0.000622704
0.00064959
0.000668805
0.000688606
0.000708337
0.000728659
0.000749551
0.000771064
0.000792925
0.000815496
0.000837514
0.000859898
0.000159388
0.000157298
0.000155529
0.000154024
0.000152413
0.000151665
0.000149671
0.000149892
0.000147367
0.000148176
0.000145833
0.00014606
0.000145144
0.000143686
0.000144697
0.000141834
0.000143592
0.000141137
0.000141599
0.000141216
0.000139577
0.000140875
0.000138631
0.00013939
0.000138793
0.000137428
0.000138836
0.000136349
0.000137675
0.000136552
0.000135754
0.0001369
0.000134518
0.000136167
0.000134531
0.000134704
0.000134784
0.000133912
0.000134251
0.000134283
0.000133521
0.000134923
0.000133933
0.000135348
0.000135961
0.0001368
0.000139473
0.000140866
0.000145088
0.000148625
0.000154243
0.000160752
0.000168339
0.000177912
0.000188293
0.000200686
0.000214552
0.000229578
0.000246327
0.000263878
0.000283047
0.000303354
0.000324626
0.000347413
0.000370907
0.000395749
0.000421569
0.000448014
0.000475666
0.000503354
0.00053228
0.000556989
0.000576833
0.000597023
0.000617225
0.000637873
0.000658646
0.000679497
0.000700604
0.000721822
0.000743342
0.000764964
0.000786749
0.000808582
0.00083055
0.000852618
0.000874765
0.000897136
0.000919364
0.000941641
0.000963638
0.000985815
0.00100759
0.00102941
0.00105115
0.00107291
0.0010944
0.00111576
0.00113595
0.00115577
0.000159393
0.000157249
0.000155576
0.000153895
0.000152513
0.000151466
0.000149758
0.000149727
0.000147271
0.000148224
0.000145368
0.000146414
0.000144332
0.000144125
0.000143917
0.000141843
0.000143337
0.000140343
0.000141917
0.000139906
0.000139784
0.000139906
0.000137827
0.000139322
0.000136837
0.000137742
0.000136659
0.000135776
0.000136414
0.000134405
0.000135485
0.000134102
0.000134241
0.000134532
0.000133861
0.000135779
0.000135943
0.000139114
0.000141867
0.000146768
0.000152989
0.000160862
0.000170727
0.000182543
0.000196415
0.000212102
0.000229592
0.00024866
0.000269716
0.000291958
0.000316115
0.000341322
0.000367984
0.000395786
0.000424579
0.000454652
0.000482345
0.000504495
0.000526972
0.000549444
0.000572193
0.000594979
0.00061787
0.000641026
0.000664053
0.000687512
0.000710832
0.000734371
0.00075797
0.000781429
0.000805085
0.000828481
0.000852205
0.000875787
0.000899249
0.000922656
0.000945717
0.00096848
0.00099105
0.00101321
0.00103524
0.00105682
0.00107813
0.00109907
0.00111989
0.0011403
0.00116053
0.00118064
0.00120031
0.00121933
0.00123809
0.00125674
0.00127483
0.001293
0.00131086
0.00132879
0.00134636
0.00136352
0.00137947
0.0013948
0.000159359
0.000157251
0.000155526
0.000153793
0.000152503
0.000151163
0.000149811
0.000149208
0.000147248
0.000147638
0.000144948
0.000145997
0.000143208
0.000143909
0.000142104
0.000141418
0.000141247
0.000139001
0.000139902
0.000137123
0.000137623
0.000135822
0.000134727
0.000134624
0.000132184
0.000132967
0.000130871
0.000131962
0.000132416
0.000134529
0.000139028
0.000144245
0.000153284
0.000163707
0.000177523
0.000193837
0.000212115
0.000233461
0.000256192
0.000281672
0.000308513
0.000337435
0.00036786
0.000400226
0.000427509
0.000452781
0.000478368
0.000504098
0.000529957
0.00055572
0.000581585
0.000607234
0.00063299
0.000658625
0.000684213
0.000709733
0.000734827
0.000759945
0.000784783
0.000809297
0.000833495
0.000857183
0.000880451
0.000903319
0.000925636
0.000947732
0.000969241
0.000990558
0.00101146
0.00103195
0.00105203
0.00107132
0.00109045
0.00110913
0.00112759
0.0011457
0.00116349
0.0011809
0.00119806
0.00121477
0.00123128
0.00124728
0.00126305
0.00127838
0.00129349
0.00130811
0.0013226
0.00133669
0.0013506
0.00136409
0.00137717
0.00139
0.00140248
0.00141481
0.00142694
0.00143894
0.00145086
0.00146211
0.00147251
0.00148244
0.000159293
0.000157234
0.00015531
0.00015361
0.000152124
0.000150615
0.000149171
0.000147951
0.000146013
0.000145378
0.000142608
0.000142601
0.000139039
0.000139184
0.000135539
0.000135009
0.000132211
0.000130337
0.000128499
0.000126261
0.000126056
0.000125841
0.000128217
0.000132628
0.000139235
0.000150133
0.00016287
0.000180704
0.000200711
0.000224658
0.000251036
0.000280166
0.000312171
0.000346069
0.000378777
0.000407924
0.000437276
0.000466781
0.000495801
0.000525016
0.000553658
0.000582408
0.000610805
0.000638705
0.000666135
0.00069295
0.000719056
0.000744334
0.000768802
0.000792426
0.000815343
0.000837488
0.000859089
0.000880051
0.000900404
0.000919936
0.000938501
0.00095669
0.000974403
0.000991702
0.00100863
0.00102506
0.00104112
0.00105673
0.00107189
0.00108672
0.00110107
0.00111509
0.00112874
0.00114191
0.001155
0.00116614
0.00117668
0.00118682
0.0011967
0.00120632
0.00121568
0.0012248
0.00123375
0.00124241
0.00125096
0.00125922
0.0012674
0.00127531
0.00128318
0.0012908
0.00129838
0.00130573
0.00131303
0.0013201
0.00132709
0.0013339
0.00134065
0.00134722
0.00135379
0.0013601
0.00136649
0.00137259
0.00137863
0.00138448
0.00015911
0.000157044
0.00015461
0.000152665
0.000150173
0.000147476
0.000143852
0.000140341
0.000135868
0.000132727
0.000128275
0.000125546
0.000121208
0.000120323
0.000118302
0.000120678
0.000123261
0.000130267
0.000139031
0.000151744
0.00016734
0.000186778
0.000209709
0.000236995
0.000267866
0.000302492
0.000338791
0.000377515
0.000411109
0.000444596
0.000476998
0.000508897
0.00053988
0.000569577
0.000598284
0.000625852
0.000652394
0.000677837
0.000702094
0.000725616
0.00074799
0.00076977
0.00079026
0.000808909
0.000823948
0.00083798
0.000851209
0.00086367
0.000875491
0.000886694
0.000897423
0.000907636
0.000917501
0.000926964
0.000936111
0.000944967
0.000953484
0.000961765
0.000969746
0.000977478
0.000984983
0.000992222
0.000999273
0.0010061
0.00101271
0.0010192
0.00102545
0.0010316
0.00103758
0.00104338
0.00104913
0.00105468
0.00106017
0.00106543
0.00107059
0.0010756
0.00108049
0.00108525
0.00108991
0.00109441
0.00109886
0.00110314
0.0011074
0.0011115
0.0011156
0.00111954
0.00112349
0.00112728
0.00113109
0.00113473
0.00113839
0.00114191
0.00114549
0.00114889
0.0011524
0.00115565
0.00115907
0.00116219
0.0011653
0.0011682
0.00015842
0.000156384
0.000150123
0.000144093
0.000134378
0.000124045
0.000114894
0.000109782
0.000108409
0.000111262
0.000117023
0.00012599
0.000137188
0.000151776
0.000168503
0.000188693
0.000210947
0.000236339
0.000263535
0.000293311
0.000324815
0.000359102
0.000395344
0.000433445
0.000465629
0.000496314
0.000525369
0.000552769
0.000576656
0.000596006
0.000612933
0.000628128
0.00064198
0.000654732
0.000666608
0.000677464
0.00068754
0.000696836
0.000705399
0.000713493
0.000720957
0.000728122
0.000734817
0.000741233
0.000747326
0.000753048
0.000758462
0.000763545
0.000768353
0.000772884
0.000777199
0.000781277
0.000785202
0.00078894
0.000792555
0.000796057
0.000799428
0.000802726
0.00080591
0.000809017
0.000812041
0.000814972
0.000817838
0.000820617
0.00082331
0.000825965
0.000828512
0.000831036
0.000833482
0.000835864
0.000838226
0.000840522
0.000842808
0.00084499
0.000847158
0.000849257
0.000851329
0.000853344
0.000855331
0.000857247
0.000859159
0.000860984
0.00086283
0.00086459
0.000866382
0.000868082
0.000869814
0.000871445
0.000873123
0.000874693
0.000876322
0.00087785
0.000879473
0.000880962
0.000882565
0.000883984
0.000885559
0.0008869
0.000888237
0.000889366
0.000160223
0.00014287
0.000113607
0.000103989
0.000102118
0.000110434
0.000120022
0.000140255
0.000152873
0.00016758
0.000185646
0.000205938
0.000227612
0.000249973
0.000272167
0.000293812
0.000314021
0.000332823
0.000349513
0.000364565
0.000377687
0.00038941
0.00039991
0.000409348
0.000418212
0.00042626
0.000433775
0.000440563
0.000446811
0.000452631
0.000457816
0.000462532
0.000466609
0.000470179
0.000473323
0.000476042
0.000478486
0.000480635
0.000482553
0.000484302
0.000485844
0.000487294
0.000488607
0.00048985
0.000491074
0.000492261
0.000493415
0.000494513
0.000495568
0.000496566
0.000497522
0.000498422
0.000499288
0.000500107
0.000500898
0.000501662
0.000502403
0.000503137
0.000503853
0.000504565
0.000505269
0.000505967
0.00050666
0.00050735
0.000508028
0.000508709
0.000509367
0.000510032
0.000510674
0.000511313
0.000511948
0.000512572
0.000513203
0.000513811
0.000514435
0.000515035
0.00051564
0.00051623
0.000516819
0.000517387
0.000517964
0.000518512
0.000519079
0.000519615
0.000520175
0.000520696
0.000521241
0.000521743
0.000522278
0.000522765
0.000523295
0.000523785
0.000524323
0.000524815
0.000525348
0.000525822
0.00052634
0.000526776
0.000527198
0.000527544
1.31127e-05
2.99578e-05
5.00871e-05
6.50518e-05
7.28737e-05
7.53214e-05
7.46046e-05
7.22735e-05
6.95983e-05
6.71362e-05
6.49392e-05
6.31775e-05
6.19114e-05
6.11437e-05
6.08064e-05
6.08223e-05
6.10677e-05
6.1463e-05
6.18996e-05
6.23424e-05
6.2735e-05
6.30764e-05
6.33618e-05
6.35901e-05
6.37921e-05
6.39641e-05
6.41222e-05
6.42613e-05
6.43849e-05
6.45015e-05
6.46031e-05
6.4698e-05
6.47758e-05
6.48414e-05
6.48944e-05
6.4935e-05
6.4968e-05
6.49919e-05
6.50101e-05
6.50238e-05
6.50323e-05
6.50396e-05
6.50435e-05
6.50472e-05
6.50502e-05
6.5054e-05
6.50585e-05
6.50635e-05
6.5069e-05
6.50748e-05
6.50807e-05
6.50866e-05
6.50929e-05
6.50988e-05
6.51054e-05
6.51119e-05
6.51192e-05
6.51269e-05
6.51354e-05
6.51453e-05
6.51558e-05
6.51676e-05
6.51802e-05
6.51936e-05
6.5208e-05
6.52231e-05
6.52385e-05
6.52551e-05
6.5272e-05
6.52899e-05
6.53086e-05
6.5328e-05
6.53487e-05
6.53688e-05
6.53904e-05
6.54118e-05
6.54343e-05
6.54567e-05
6.54796e-05
6.55022e-05
6.55254e-05
6.55479e-05
6.55716e-05
6.55945e-05
6.56187e-05
6.56419e-05
6.56667e-05
6.56903e-05
6.57158e-05
6.57401e-05
6.57667e-05
6.57923e-05
6.582e-05
6.58469e-05
6.58743e-05
6.59021e-05
6.59303e-05
6.59599e-05
6.59924e-05
6.6029e-05
3.88285e-05
0.00133247
0.00237493
0.00315354
0.00386001
0.00441169
0.00481705
0.00492484
0.0049089
0.0048804
0.00485248
0.00483647
0.00484427
0.00487014
0.00490769
0.00495517
0.00500891
0.00507702
0.00515862
0.00524748
0.00534486
0.00545189
0.00556464
0.00568101
0.00580793
0.00593753
0.00606679
0.00619402
0.00631692
0.00642978
0.00653875
0.00656291
0.0065306
0.00648384
0.00641511
0.0063184
0.00620097
0.00606776
0.00591053
0.0057316
0.00555003
0.00537295
0.00519505
0.00502276
0.00486664
0.00472032
0.0045696
0.00441849
0.00428084
0.00415687
0.00403813
0.0039251
0.00382045
0.00373492
0.00370151
0.00374584
0.00383227
0.00387259
0.00380297
0.00365628
0.00352081
0.00345588
0.00346997
0.00355131
0.00368017
0.00383072
0.00397301
0.00408236
0.00414151
0.00414968
0.00411582
0.00405508
0.00397491
0.00387915
0.00376459
0.00363205
0.00348017
0.00331213
0.0031286
0.00293375
0.00272762
0.00251274
0.00228928
0.00206174
0.00183342
0.00161144
0.00139902
0.00120102
0.00101598
0.000846614
0.00069259
0.000559837
0.000449093
0.000359518
0.000292844
0.000240584
0.000209509
0.000183961
0.00017423
0.000162101
0.000322973
0.000838253
0.00172075
0.00250083
0.00319269
0.00374828
0.00417185
0.00447305
0.00468569
0.00470892
0.00467384
0.00465685
0.00465221
0.00465722
0.00467425
0.00470314
0.00474217
0.00479952
0.00486857
0.00494292
0.00502307
0.00511027
0.00520401
0.00530254
0.00541134
0.0055274
0.00564967
0.00577329
0.00590056
0.00604189
0.0061797
0.00631976
0.00629375
0.00625109
0.00618545
0.00609013
0.00597278
0.00584015
0.00568406
0.00550608
0.0053266
0.00515414
0.00498249
0.00481761
0.0046713
0.00453679
0.00439691
0.00425539
0.00412937
0.004018
0.00390748
0.00379977
0.00370733
0.00364484
0.00363669
0.0037001
0.00380421
0.00387068
0.00383332
0.00370914
0.00357787
0.00350429
0.00350545
0.00357273
0.00368755
0.00382502
0.00395608
0.00405571
0.00410628
0.00410616
0.00406563
0.00400117
0.00392192
0.00383092
0.00372402
0.00359949
0.00345514
0.00329262
0.00311279
0.00291911
0.00271272
0.0024961
0.0022705
0.00203998
0.00180824
0.00158152
0.00136359
0.00115914
0.000968895
0.000796684
0.000644343
0.000515696
0.000411061
0.00032773
0.000267825
0.000221885
0.000195897
0.000174686
0.000166992
0.000157499
0.000987964
0.000752778
0.00108474
0.0016955
0.00234724
0.00290456
0.003348
0.00368039
0.00392867
0.00411416
0.0042576
0.00438352
0.00442173
0.00443029
0.00445201
0.0044863
0.00453363
0.00458949
0.00464938
0.00471242
0.00478052
0.00485303
0.00493142
0.00501561
0.00510762
0.00520753
0.00531727
0.00543088
0.00555309
0.0056965
0.00584227
0.00600841
0.0059957
0.00595879
0.00589785
0.00580545
0.00568936
0.00555859
0.00540527
0.00522994
0.00505414
0.00488825
0.0047253
0.00457055
0.00443713
0.00431831
0.00419354
0.00406576
0.00395578
0.00386176
0.00376367
0.00366509
0.00359027
0.00355847
0.00358266
0.00366795
0.00378777
0.00387662
0.00386994
0.00376946
0.00364366
0.00356091
0.00354703
0.00359753
0.00369523
0.0038165
0.00393345
0.00402074
0.00406035
0.00404973
0.00400043
0.00393069
0.00385172
0.00376591
0.00366786
0.00355309
0.00341808
0.0032629
0.00308823
0.00289692
0.00269096
0.00247309
0.00224547
0.00201213
0.00177707
0.00154609
0.00132325
0.0011136
0.000919675
0.000746677
0.000597212
0.000473439
0.000375167
0.000298811
0.000246142
0.000206656
0.000185247
0.00016771
0.000161561
0.000153917
0.00117723
0.00116322
0.00106141
0.00116801
0.00152068
0.00195922
0.00237512
0.00272073
0.00299873
0.00322369
0.00340664
0.00356875
0.00371461
0.00384942
0.0039824
0.00411572
0.00425109
0.00432247
0.00438965
0.00445918
0.00453375
0.00461031
0.00469088
0.00477666
0.00486751
0.00496349
0.00506719
0.00517294
0.00528441
0.00540717
0.00554144
0.00562352
0.00561753
0.00558903
0.00553534
0.00544838
0.00533589
0.00520931
0.00506143
0.00489177
0.00472279
0.00456694
0.00441672
0.00427667
0.00416111
0.00406353
0.00395992
0.0038521
0.00376453
0.00369425
0.00361465
0.00353176
0.0034829
0.00349129
0.0035556
0.00366556
0.0037976
0.00390157
0.00391993
0.00384215
0.00372295
0.00363103
0.00360022
0.00363097
0.00370804
0.00380922
0.00390801
0.00397885
0.00400349
0.00397875
0.0039176
0.00384043
0.00376073
0.0036803
0.00359212
0.00348868
0.00336478
0.00321871
0.00305072
0.00286311
0.0026585
0.0024401
0.00221096
0.00197535
0.00173759
0.00150347
0.00127723
0.00106464
0.000869506
0.00069797
0.000552317
0.000434025
0.000342905
0.000274289
0.000228824
0.000195236
0.00017752
0.000162801
0.000157657
0.000151185
0.00136487
0.00137809
0.0013451
0.00128675
0.00127264
0.0013666
0.00154917
0.00177515
0.00200457
0.00222357
0.00242056
0.00260265
0.00277538
0.0029385
0.00309853
0.00325775
0.00341954
0.00357661
0.0037313
0.00388222
0.0040291
0.00417248
0.00431034
0.00444309
0.0045697
0.00468639
0.00479329
0.00488793
0.0049681
0.00503572
0.00509082
0.00512956
0.00513825
0.00512221
0.0050801
0.00500324
0.00489914
0.00478163
0.00464447
0.0044863
0.00433021
0.0041906
0.00405984
0.00394182
0.00385161
0.00378288
0.00370842
0.00362892
0.00357185
0.00353262
0.00347885
0.00342074
0.00340837
0.00346597
0.00357617
0.0037123
0.00385241
0.00396216
0.00399583
0.00393594
0.00382261
0.00372111
0.00367128
0.00367872
0.00373083
0.00380701
0.00388236
0.00393124
0.0039355
0.00389196
0.00381544
0.00372869
0.00364744
0.00357267
0.00349533
0.00340466
0.00329348
0.00315822
0.00299849
0.00281607
0.00261408
0.00239632
0.00216668
0.0019299
0.00169057
0.00145486
0.00122738
0.00101471
0.000821021
0.000652578
0.000511562
0.00039958
0.000316188
0.000255228
0.000216115
0.000187346
0.000172269
0.000159516
0.000154867
0.000149022
0.00146497
0.001481
0.00147636
0.00145951
0.00142881
0.00139519
0.00136818
0.00136621
0.00139206
0.00145442
0.00154534
0.00165633