/*--------------------------------*- C++ -*----------------------------------*\
| =========                 |                                                 |
| \\      /  F ield         | OpenFOAM: The Open Source CFD Toolbox           |
|  \\    /   O peration     | Version:  v2012                                 |
|   \\  /    A nd           | Website:  www.openfoam.com                      |
|    \\/     M anipulation  |                                                 |
\*---------------------------------------------------------------------------*/
FoamFile
{
    version     2.0;
    format      ascii;
    class       volScalarField;
    location    "0.037";
    object      k.air;
}
// * * * * * * * * * * * * * * * * * * * * * * * * * * * * * * * * * * * * * //

dimensions      [0 2 -2 0 0 0 0];


internalField   nonuniform List<scalar> 
5600
(
0.606308
0.840835
0.95507
0.97817
0.949307
0.897697
0.839381
0.787215
0.743695
0.707709
0.67893
0.657325
0.642401
0.632788
0.626741
0.622863
0.620344
0.618747
0.617795
0.617291
0.617073
0.617039
0.617125
0.617287
0.617461
0.617598
0.617692
0.61775
0.617784
0.617802
0.617812
0.617817
0.61782
0.617821
0.617822
0.617822
0.617822
0.617822
0.617822
0.617822
0.617822
0.617822
0.617822
0.617822
0.617822
0.617822
0.617822
0.617823
0.617823
0.617823
0.617823
0.617823
0.617823
0.617823
0.617823
0.617823
0.617823
0.617823
0.617823
0.617823
0.617823
0.617823
0.617823
0.617823
0.617823
0.617823
0.617823
0.617823
0.617824
0.617822
0.617826
0.617818
0.617836
0.617795
0.617884
0.6177
0.618064
0.617381
0.618593
0.616574
0.619721
0.615188
0.621194
0.614002
0.621764
0.614152
0.621521
0.612794
0.626994
0.601307
0.644957
0.583599
0.656375
0.590457
0.622084
0.648766
0.541088
0.725787
0.508665
0.557976
0.371541
0.315676
0.288811
0.275458
0.274874
0.285038
0.307068
0.344222
0.387433
0.431286
0.471422
0.507567
0.540991
0.570886
0.59455
0.610567
0.620111
0.625062
0.627209
0.62791
0.628057
0.628121
0.628278
0.62853
0.628868
0.629223
0.629504
0.629696
0.629818
0.629891
0.629931
0.629953
0.629965
0.62997
0.629973
0.629975
0.629975
0.629975
0.629976
0.629976
0.629976
0.629976
0.629976
0.629976
0.629976
0.629976
0.629976
0.629976
0.629976
0.629976
0.629976
0.629976
0.629976
0.629976
0.629976
0.629976
0.629976
0.629976
0.629976
0.629976
0.629976
0.629976
0.629976
0.629976
0.629976
0.629976
0.629977
0.629976
0.629979
0.629971
0.62999
0.629945
0.630049
0.629819
0.630304
0.629326
0.631203
0.627789
0.633652
0.624207
0.638384
0.61872
0.643645
0.614995
0.644674
0.615881
0.645625
0.605347
0.674578
0.553651
0.740797
0.493622
0.750173
0.554938
0.585195
0.791261
0.329333
0.937575
0.365078
0.42587
0.369094
0.281958
0.227808
0.19291
0.168538
0.153978
0.145546
0.143274
0.146901
0.155749
0.167612
0.181142
0.197613
0.218228
0.241932
0.265363
0.285072
0.299579
0.309028
0.314419
0.317065
0.318188
0.318703
0.319108
0.319495
0.319826
0.320091
0.320291
0.320429
0.320517
0.32057
0.3206
0.320616
0.320625
0.320629
0.320631
0.320632
0.320632
0.320632
0.320632
0.320632
0.320632
0.320632
0.320632
0.320632
0.320632
0.320632
0.320633
0.320633
0.320633
0.320633
0.320633
0.320633
0.320633
0.320633
0.320633
0.320633
0.320633
0.320633
0.320633
0.320633
0.320633
0.320633
0.320633
0.320633
0.320633
0.320633
0.320631
0.320637
0.320622
0.320658
0.320576
0.320757
0.320372
0.321157
0.319632
0.322448
0.317524
0.325634
0.313128
0.331046
0.307374
0.335912
0.304636
0.336095
0.304879
0.340859
0.286821
0.379054
0.228969
0.43963
0.19216
0.410206
0.303455
0.221828
0.520269
0.0362532
0.592209
0.0984205
0.272963
0.370075
0.280674
0.224131
0.186038
0.158523
0.138257
0.122961
0.111234
0.102844
0.097167
0.0938662
0.0922412
0.0922395
0.094665
0.100131
0.107812
0.115623
0.121906
0.125881
0.127684
0.127976
0.127489
0.126794
0.126209
0.125814
0.125597
0.12551
0.125493
0.125505
0.125523
0.125539
0.12555
0.125557
0.125561
0.125563
0.125564
0.125565
0.125565
0.125565
0.125565
0.125565
0.125565
0.125565
0.125565
0.125565
0.125565
0.125565
0.125565
0.125565
0.125565
0.125565
0.125565
0.125565
0.125565
0.125565
0.125565
0.125565
0.125565
0.125565
0.125565
0.125565
0.125565
0.125565
0.125565
0.125565
0.125565
0.125566
0.125564
0.125569
0.125557
0.125585
0.12552
0.125661
0.12537
0.125947
0.124858
0.126807
0.123508
0.128756
0.12095
0.131705
0.118058
0.133839
0.117164
0.1337
0.116611
0.138343
0.103598
0.161976
0.0711734
0.190698
0.0604743
0.162202
0.133782
0.0577243
0.23345
0.0220152
0.280247
0.0196286
0.250707
0.370286
0.280785
0.224393
0.186041
0.158422
0.137654
0.121561
0.1087
0.0983584
0.0899644
0.0830883
0.0773811
0.0726414
0.0689913
0.0666007
0.0653038
0.0646313
0.063923
0.062825
0.0613452
0.0597029
0.058142
0.0568244
0.055821
0.0551308
0.0547019
0.0544577
0.0543279
0.0542634
0.0542334
0.0542204
0.0542153
0.0542135
0.054213
0.0542129
0.0542129
0.0542129
0.054213
0.054213
0.054213
0.054213
0.054213
0.054213
0.054213
0.054213
0.054213
0.054213
0.054213
0.054213
0.054213
0.054213
0.054213
0.054213
0.054213
0.054213
0.054213
0.054213
0.054213
0.054213
0.054213
0.054213
0.054213
0.054213
0.054213
0.054213
0.0542129
0.0542132
0.0542124
0.0542144
0.0542097
0.0542206
0.0541964
0.0542481
0.0541422
0.054349
0.0539652
0.05464
0.053521
0.0552622
0.0527358
0.0561322
0.0519318
0.056704
0.0516662
0.0569036
0.0508243
0.0596002
0.0448816
0.0694664
0.0318171
0.081749
0.0255782
0.0734423
0.052632
0.0294309
0.0983853
0.00344713
0.117947
0.00143285
0.183947
0.370322
0.280813
0.224513
0.186212
0.158641
0.137911
0.121806
0.10894
0.0984579
0.0897744
0.0824657
0.0762187
0.0708334
0.0662168
0.0623085
0.0589761
0.0560482
0.0533424
0.0507847
0.0484137
0.0463225
0.0445943
0.0432628
0.0423081
0.041671
0.0412743
0.0410421
0.0409136
0.0408461
0.0408124
0.0407963
0.0407889
0.0407857
0.0407844
0.0407838
0.0407836
0.0407836
0.0407835
0.0407835
0.0407835
0.0407835
0.0407835
0.0407835
0.0407835
0.0407835
0.0407835
0.0407835
0.0407835
0.0407835
0.0407835
0.0407835
0.0407835
0.0407835
0.0407835
0.0407835
0.0407835
0.0407835
0.0407835
0.0407835
0.0407835
0.0407835
0.0407835
0.0407835
0.0407835
0.0407835
0.0407835
0.0407836
0.0407833
0.0407839
0.0407825
0.040786
0.0407779
0.0407955
0.0407591
0.0408307
0.0406976
0.0409304
0.0405485
0.0411325
0.0403059
0.041381
0.0401051
0.0414887
0.0400773
0.0415807
0.0395933
0.0429671
0.0367056
0.0478118
0.0298261
0.0557159
0.0230054
0.0567373
0.0326256
0.0326872
0.0662942
0.00179487
0.0792974
0.00837801
0.0967952
0.370326
0.280812
0.224531
0.186257
0.158708
0.138006
0.121924
0.109092
0.0986305
0.0899439
0.0826125
0.0763415
0.0709323
0.0662478
0.0621681
0.0585598
0.0552909
0.0522697
0.049478
0.0469656
0.0448105
0.0430713
0.0417588
0.0408337
0.0402239
0.0398469
0.0396272
0.0395061
0.0394427
0.0394111
0.0393961
0.0393892
0.0393862
0.0393849
0.0393844
0.0393842
0.0393841
0.0393841
0.0393841
0.0393841
0.0393841
0.0393841
0.0393841
0.0393841
0.0393841
0.0393841
0.0393841
0.0393841
0.0393841
0.0393841
0.0393841
0.0393841
0.0393841
0.0393841
0.0393841
0.0393841
0.0393841
0.0393841
0.0393841
0.0393841
0.0393841
0.0393841
0.0393841
0.0393841
0.0393841
0.0393841
0.0393841
0.0393841
0.039384
0.0393841
0.0393841
0.0393838
0.0393851
0.0393812
0.0393909
0.0393697
0.0394117
0.0393355
0.0394625
0.0392679
0.039542
0.0391871
0.0396136
0.0391249
0.0396953
0.0389449
0.0401257
0.0380203
0.0418782
0.0351072
0.0460107
0.0305882
0.048586
0.0340729
0.034944
0.0581078
0.00793624
0.0726369
0.0143693
0.0483481
0.370325
0.280804
0.224527
0.18626
0.158718
0.138026
0.121953
0.109133
0.0986831
0.0900053
0.0826811
0.0764191
0.0710216
0.0663453
0.0622611
0.0586335
0.0553355
0.052285
0.049471
0.0469458
0.0447865
0.0430495
0.0417427
0.0408243
0.0402206
0.0398479
0.0396312
0.039512
0.0394497
0.0394188
0.039404
0.0393974
0.0393944
0.0393932
0.0393927
0.0393925
0.0393925
0.0393924
0.0393924
0.0393924
0.0393924
0.0393924
0.0393924
0.0393924
0.0393924
0.0393924
0.0393924
0.0393924
0.0393924
0.0393924
0.0393924
0.0393924
0.0393924
0.0393924
0.0393924
0.0393924
0.0393924
0.0393924
0.0393924
0.0393924
0.0393924
0.0393924
0.0393924
0.0393924
0.0393924
0.0393924
0.0393924
0.0393924
0.0393924
0.0393924
0.0393925
0.039392
0.0393937
0.0393895
0.0393985
0.039381
0.0394115
0.0393644
0.039427
0.0393607
0.0394026
0.0394294
0.0392872
0.0395614
0.0392139
0.039467
0.0395735
0.0388172
0.0404461
0.0378229
0.0415427
0.0366194
0.0426267
0.0367669
0.0394997
0.0441602
0.0296812
0.0510351
0.0329369
0.0390817
0.370323
0.280796
0.224519
0.186254
0.158714
0.138025
0.121957
0.10914
0.0986941
0.0900203
0.0827005
0.076443
0.0710496
0.0663773
0.0622971
0.0586728
0.0553765
0.0523266
0.049513
0.0469886
0.0448308
0.0430957
0.041791
0.0408744
0.0402717
0.0398996
0.0396831
0.0395638
0.0395014
0.0394703
0.0394554
0.0394486
0.0394457
0.0394444
0.0394439
0.0394437
0.0394436
0.0394436
0.0394436
0.0394436
0.0394436
0.0394436
0.0394436
0.0394436
0.0394436
0.0394436
0.0394436
0.0394436
0.0394436
0.0394436
0.0394436
0.0394436
0.0394436
0.0394436
0.0394436
0.0394436
0.0394436
0.0394436
0.0394436
0.0394436
0.0394436
0.0394436
0.0394436
0.0394436
0.0394436
0.0394436
0.0394436
0.0394436
0.0394436
0.0394435
0.0394439
0.0394428
0.0394456
0.0394391
0.039453
0.0394253
0.0394768
0.0393877
0.0395302
0.0393214
0.039597
0.0392793
0.0395775
0.0393998
0.0393348
0.0397388
0.0389968
0.0399077
0.0391871
0.0392484
0.0402206
0.0382197
0.0406843
0.038798
0.0390883
0.0407619
0.037783
0.0407466
0.0393057
0.0382766
0.370323
0.280791
0.224515
0.186251
0.158712
0.138024
0.121957
0.109142
0.0986967
0.0900243
0.0827065
0.0764507
0.0710582
0.0663868
0.0623082
0.0586861
0.055392
0.0523434
0.0495301
0.0470059
0.0448487
0.0431145
0.0418106
0.0408943
0.0402916
0.0399191
0.039702
0.0395823
0.0395195
0.0394882
0.0394732
0.0394663
0.0394633
0.039462
0.0394614
0.0394612
0.0394611
0.0394611
0.0394611
0.0394611
0.0394611
0.0394611
0.0394611
0.0394611
0.0394611
0.0394611
0.0394611
0.0394611
0.0394611
0.0394611
0.0394611
0.0394611
0.0394611
0.0394611
0.0394611
0.0394611
0.0394611
0.0394611
0.0394611
0.0394611
0.0394611
0.0394611
0.0394611
0.0394611
0.0394611
0.0394611
0.0394611
0.0394611
0.0394612
0.039461
0.0394614
0.0394603
0.0394628
0.0394577
0.0394675
0.0394499
0.0394792
0.0394343
0.0394971
0.0394179
0.0395069
0.0394177
0.0395023
0.0394113
0.0395403
0.0393393
0.0395971
0.0394108
0.0392768
0.0399714
0.0387483
0.0399862
0.039579
0.0386062
0.0405258
0.0390527
0.0387952
0.0406482
0.0388932
0.0390369
0.370323
0.280793
0.224517
0.186253
0.158714
0.138026
0.121959
0.109144
0.0986991
0.0900267
0.0827087
0.0764528
0.0710602
0.0663888
0.0623102
0.0586881
0.0553939
0.0523452
0.0495318
0.0470074
0.0448498
0.0431153
0.041811
0.0408946
0.0402917
0.0399191
0.0397021
0.0395824
0.0395196
0.0394882
0.0394732
0.0394664
0.0394633
0.039462
0.0394615
0.0394613
0.0394612
0.0394612
0.0394612
0.0394612
0.0394612
0.0394612
0.0394612
0.0394612
0.0394612
0.0394612
0.0394612
0.0394612
0.0394612
0.0394612
0.0394612
0.0394612
0.0394612
0.0394612
0.0394612
0.0394612
0.0394612
0.0394612
0.0394612
0.0394612
0.0394612
0.0394612
0.0394612
0.0394612
0.0394612
0.0394612
0.0394612
0.0394611
0.0394612
0.039461
0.0394616
0.0394603
0.039463
0.0394576
0.0394677
0.03945
0.0394788
0.0394358
0.0394936
0.0394256
0.0394911
0.0394492
0.0394433
0.0395118
0.0393929
0.0395105
0.0394797
0.0393387
0.0396797
0.0392187
0.0396033
0.039544
0.0391147
0.039946
0.0391363
0.0393087
0.0401601
0.0386097
0.0397674
0.0402647
0.370324
0.2808
0.224525
0.186262
0.158722
0.138033
0.121964
0.109148
0.0987012
0.0900272
0.0827071
0.0764491
0.0710554
0.066383
0.0623028
0.0586784
0.0553822
0.0523321
0.0495179
0.0469929
0.0448343
0.0430986
0.0417933
0.0408761
0.040273
0.0399006
0.0396838
0.0395643
0.0395018
0.0394706
0.0394557
0.0394489
0.0394459
0.0394446
0.0394441
0.0394439
0.0394438
0.0394438
0.0394438
0.0394438
0.0394438
0.0394438
0.0394438
0.0394438
0.0394438
0.0394438
0.0394438
0.0394438
0.0394438
0.0394438
0.0394438
0.0394438
0.0394438
0.0394438
0.0394438
0.0394438
0.0394438
0.0394438
0.0394438
0.0394438
0.0394438
0.0394438
0.0394438
0.0394438
0.0394438
0.0394438
0.0394438
0.0394437
0.0394439
0.0394436
0.0394442
0.0394429
0.0394455
0.0394406
0.0394495
0.0394342
0.0394584
0.0394232
0.0394694
0.0394165
0.0394661
0.039435
0.0394318
0.0394769
0.0393993
0.0394821
0.0394265
0.0394407
0.0394516
0.0394385
0.0394808
0.0393032
0.039722
0.0391364
0.0395376
0.0397265
0.0389753
0.0396307
0.039779
0.0391072
0.370326
0.280811
0.224537
0.186272
0.158731
0.138038
0.121965
0.109145
0.0986944
0.0900163
0.0826915
0.0764287
0.0710304
0.0663538
0.06227
0.0586433
0.055346
0.052296
0.0494819
0.0469562
0.0447959
0.0430577
0.0417497
0.0408304
0.0402259
0.0398527
0.0396357
0.0395163
0.0394539
0.0394229
0.0394082
0.0394015
0.0393985
0.0393973
0.0393968
0.0393966
0.0393966
0.0393965
0.0393965
0.0393965
0.0393965
0.0393965
0.0393965
0.0393965
0.0393965
0.0393965
0.0393965
0.0393965
0.0393965
0.0393965
0.0393965
0.0393965
0.0393965
0.0393965
0.0393965
0.0393965
0.0393965
0.0393965
0.0393965
0.0393965
0.0393965
0.0393965
0.0393965
0.0393965
0.0393965
0.0393965
0.0393965
0.0393965
0.0393966
0.0393963
0.0393969
0.0393958
0.039398
0.0393938
0.0394013
0.0393888
0.039408
0.0393809
0.039415
0.0393785
0.0394085
0.0393971
0.0393797
0.0394263
0.0393663
0.0394095
0.0394118
0.0393624
0.0394187
0.0394166
0.0393394
0.039435
0.0394474
0.0392337
0.0396302
0.0391317
0.0397164
0.039045
0.0395306
0.0400871
0.370327
0.280823
0.224546
0.186275
0.158724
0.138024
0.121941
0.109107
0.0986445
0.0899585
0.0826275
0.0763562
0.0709467
0.0662646
0.0621911
0.0585936
0.0553367
0.0523256
0.0495407
0.0470317
0.0448772
0.0431371
0.0418227
0.0408956
0.0402842
0.039906
0.0396856
0.0395641
0.0395005
0.0394688
0.0394536
0.0394467
0.0394437
0.0394424
0.0394419
0.0394417
0.0394416
0.0394416
0.0394416
0.0394416
0.0394416
0.0394416
0.0394416
0.0394416
0.0394416
0.0394416
0.0394416
0.0394416
0.0394416
0.0394416
0.0394416
0.0394416
0.0394416
0.0394416
0.0394416
0.0394416
0.0394416
0.0394416
0.0394416
0.0394416
0.0394416
0.0394416
0.0394416
0.0394416
0.0394416
0.0394416
0.0394416
0.0394416
0.0394417
0.0394415
0.0394419
0.039441
0.0394428
0.0394394
0.0394454
0.0394355
0.0394506
0.0394298
0.0394549
0.0394299
0.0394471
0.0394472
0.039423
0.0394688
0.0394177
0.0394476
0.0394596
0.0394128
0.039451
0.0394743
0.0393843
0.0394582
0.0395317
0.0392454
0.0396786
0.0391621
0.0399482
0.0384497
0.040683
0.0389908
0.370325
0.280831
0.224527
0.186238
0.158653
0.137936
0.121825
0.108956
0.0984785
0.0898085
0.0825168
0.0762859
0.0709199
0.0663454
0.0625
0.0592643
0.0564311
0.0538028
0.051299
0.0489588
0.0468809
0.045154
0.0438177
0.0428563
0.0422131
0.0418117
0.0415766
0.0414466
0.0413783
0.0413441
0.0413278
0.0413204
0.0413171
0.0413157
0.0413152
0.041315
0.0413149
0.0413148
0.0413148
0.0413148
0.0413148
0.0413148
0.0413148
0.0413148
0.0413148
0.0413148
0.0413148
0.0413148
0.0413148
0.0413148
0.0413148
0.0413148
0.0413148
0.0413148
0.0413148
0.0413148
0.0413148
0.0413148
0.0413148
0.0413148
0.0413148
0.0413148
0.0413148
0.0413148
0.0413148
0.0413148
0.0413148
0.0413148
0.0413149
0.0413147
0.0413151
0.0413143
0.0413158
0.0413131
0.0413178
0.0413101
0.0413217
0.041306
0.0413244
0.0413071
0.0413169
0.0413219
0.041298
0.0413364
0.0412993
0.0413137
0.0413312
0.0413066
0.0412742
0.0414313
0.0411513
0.0414228
0.0413884
0.040985
0.0418829
0.0404463
0.042641
0.039093
0.0437324
0.0393703
0.370305
0.280795
0.224406
0.186077
0.158418
0.137718
0.121601
0.108782
0.0985074
0.0902381
0.0835346
0.0779983
0.0734616
0.0701243
0.0681564
0.0674076
0.0672388
0.066935
0.0661251
0.0648253
0.0632749
0.0617462
0.0604318
0.0594204
0.0587201
0.0582833
0.0580337
0.0579006
0.0578341
0.057803
0.0577894
0.057784
0.0577819
0.0577813
0.0577811
0.0577811
0.0577811
0.0577811
0.0577812
0.0577812
0.0577812
0.0577812
0.0577812
0.0577812
0.0577812
0.0577812
0.0577812
0.0577812
0.0577812
0.0577812
0.0577812
0.0577812
0.0577812
0.0577812
0.0577812
0.0577812
0.0577812
0.0577812
0.0577812
0.0577812
0.0577812
0.0577812
0.0577812
0.0577812
0.0577812
0.0577812
0.0577812
0.0577812
0.0577812
0.0577811
0.0577814
0.0577808
0.057782
0.0577797
0.0577838
0.0577771
0.0577873
0.0577734
0.0577896
0.0577748
0.0577815
0.0577911
0.0577601
0.0578082
0.0577609
0.0577812
0.0578002
0.0577771
0.0576996
0.0580192
0.0573837
0.0581982
0.0575957
0.0574408
0.0587566
0.0559449
0.0603532
0.0532923
0.061891
0.0514711
0.370185
0.280562
0.224253
0.186017
0.158672
0.138601
0.123427
0.112173
0.104317
0.0995559
0.0972065
0.096481
0.0975417
0.101324
0.108416
0.117638
0.126769
0.13403
0.138669
0.14091
0.141473
0.141144
0.140536
0.139999
0.139632
0.139427
0.139345
0.139329
0.139338
0.139355
0.139369
0.139378
0.139385
0.139388
0.13939
0.139391
0.139391
0.139392
0.139392
0.139392
0.139392
0.139392
0.139392
0.139392
0.139392
0.139392
0.139392
0.139392
0.139392
0.139392
0.139392
0.139392
0.139392
0.139392
0.139392
0.139392
0.139392
0.139392
0.139392
0.139392
0.139392
0.139392
0.139392
0.139392
0.139392
0.139392
0.139392
0.139392
0.139392
0.139392
0.139392
0.139392
0.139393
0.13939
0.139395
0.139387
0.1394
0.13938
0.139406
0.139378
0.139398
0.139405
0.13935
0.139466
0.139299
0.139471
0.139364
0.139365
0.139395
0.139576
0.138851
0.140272
0.138491
0.139607
0.140369
0.136536
0.143197
0.132393
0.143691
0.127182
0.369437
0.281442
0.228692
0.192901
0.170679
0.156185
0.150027
0.150004
0.156478
0.168165
0.182231
0.19794
0.216747
0.239646
0.265213
0.289878
0.310258
0.325039
0.334543
0.339952
0.342645
0.343807
0.344335
0.344751
0.345151
0.345483
0.345742
0.345931
0.346058
0.346138
0.346185
0.346212
0.346226
0.346233
0.346237
0.346238
0.346239
0.346239
0.34624
0.34624
0.34624
0.34624
0.34624
0.34624
0.34624
0.34624
0.34624
0.34624
0.34624
0.34624
0.34624
0.34624
0.34624
0.34624
0.34624
0.34624
0.34624
0.34624
0.34624
0.34624
0.34624
0.34624
0.34624
0.34624
0.34624
0.34624
0.34624
0.34624
0.34624
0.34624
0.34624
0.34624
0.346241
0.346238
0.346244
0.346234
0.346251
0.346223
0.346265
0.346211
0.346266
0.346236
0.3462
0.346351
0.346053
0.346474
0.346037
0.346323
0.346298
0.346172
0.346022
0.34699
0.345025
0.347115
0.346605
0.343157
0.350723
0.337386
0.350065
0.330318
0.372124
0.31556
0.292973
0.279191
0.286374
0.295928
0.331071
0.37274
0.419005
0.464199
0.504471
0.540315
0.573061
0.601613
0.623323
0.637441
0.645551
0.649591
0.651216
0.651624
0.651584
0.651525
0.651608
0.65181
0.652099
0.652417
0.652675
0.652851
0.652961
0.653026
0.653062
0.653081
0.653091
0.653096
0.653098
0.6531
0.6531
0.6531
0.6531
0.653101
0.653101
0.653101
0.653101
0.653101
0.653101
0.653101
0.653101
0.653101
0.653101
0.653101
0.653101
0.653101
0.653101
0.653101
0.653101
0.653101
0.653101
0.653101
0.653101
0.653101
0.653101
0.653101
0.653101
0.653101
0.653101
0.653101
0.653101
0.653101
0.653101
0.653101
0.653102
0.653101
0.653102
0.653101
0.653104
0.653098
0.653109
0.653089
0.653122
0.653074
0.653135
0.653075
0.653103
0.653155
0.652967
0.653323
0.652833
0.653328
0.653019
0.653021
0.653197
0.653264
0.652478
0.653944
0.652741
0.65162
0.656519
0.645927
0.659173
0.640373
0.606744
0.839809
0.952186
0.969549
0.937611
0.881273
0.821097
0.769039
0.72494
0.688759
0.660179
0.638998
0.624517
0.615298
0.609575
0.605943
0.60357
0.602031
0.601087
0.600562
0.600324
0.600276
0.600355
0.600509
0.600673
0.600802
0.600889
0.600942
0.600973
0.600989
0.600998
0.601003
0.601005
0.601006
0.601007
0.601007
0.601007
0.601007
0.601007
0.601007
0.601007
0.601007
0.601007
0.601007
0.601007
0.601007
0.601007
0.601008
0.601008
0.601008
0.601008
0.601008
0.601008
0.601008
0.601008
0.601008
0.601008
0.601008
0.601008
0.601008
0.601008
0.601008
0.601008
0.601008
0.601008
0.601008
0.601008
0.601008
0.601008
0.601008
0.601008
0.601008
0.601008
0.601008
0.601009
0.601008
0.60101
0.601006
0.601013
0.601002
0.601018
0.600999
0.601014
0.601014
0.600983
0.601061
0.600935
0.601088
0.60096
0.601009
0.601058
0.601002
0.600943
0.601295
0.600964
0.601284
0.602715
0.601872
0.609218
0.610415
1.13363
0.00658403
1.45153
1.00467
0.28377
0.0983154
0.0703949
0.06538
0.0632233
0.0610363
0.0578601
0.0545806
0.0514232
0.0483794
0.0456919
0.0435909
0.0420842
0.041054
0.0403863
0.0399814
0.0397546
0.039643
0.0395937
0.039573
0.0395644
0.0395607
0.0395592
0.0395585
0.0395581
0.039558
0.0395579
0.0395578
0.0395578
0.0395578
0.0395578
0.0395578
0.0395578
0.0395578
0.0395578
0.0395578
0.0395578
0.0395578
0.0395578
0.0395578
0.0395578
0.0395578
0.0395578
0.0395578
0.0395578
0.0395578
0.0395578
0.0395578
0.0395578
0.0395578
0.0395578
0.0395578
0.0395578
0.0395578
0.0395578
0.0395578
0.0395578
0.0395578
0.0395578
0.0395578
0.0395578
0.0395578
0.0395578
0.0395578
0.0395578
0.0395578
0.0395578
0.0395578
0.0395578
0.0395578
0.0395578
0.0395578
0.0395578
0.0395578
0.0395578
0.0395578
0.0395578
0.0395578
0.0395578
0.0395578
0.0395578
0.0395577
0.0395579
0.0395577
0.0395578
0.0395578
0.0395576
0.0395579
0.0395575
0.0395575
0.0395574
0.0395564
0.0395563
0.0395538
0.0395529
0.0395469
1.56969
0.0262136
1.37713
0.601814
0.157979
0.0723075
0.0610025
0.0606141
0.059789
0.0587017
0.0564965
0.0537804
0.050952
0.0481045
0.0455092
0.0434481
0.0419804
0.0409955
0.0403625
0.0399758
0.0397528
0.0396369
0.0395833
0.03956
0.03955
0.0395458
0.039544
0.0395432
0.0395428
0.0395427
0.0395426
0.0395425
0.0395425
0.0395425
0.0395425
0.0395425
0.0395425
0.0395425
0.0395425
0.0395425
0.0395425
0.0395425
0.0395425
0.0395425
0.0395425
0.0395425
0.0395425
0.0395425
0.0395425
0.0395425
0.0395425
0.0395425
0.0395425
0.0395425
0.0395425
0.0395425
0.0395425
0.0395425
0.0395425
0.0395425
0.0395425
0.0395425
0.0395425
0.0395425
0.0395425
0.0395425
0.0395425
0.0395425
0.0395425
0.0395425
0.0395425
0.0395425
0.0395425
0.0395425
0.0395425
0.0395425
0.0395425
0.0395425
0.0395425
0.0395425
0.0395425
0.0395425
0.0395425
0.0395425
0.0395426
0.0395424
0.0395426
0.0395424
0.0395425
0.0395426
0.0395421
0.039543
0.0395418
0.039543
0.0395416
0.0395425
0.0395408
0.0395414
0.0395391
0.0395393
1.20195
0.28871
0.790192
0.241568
0.0708173
0.0537133
0.0560162
0.0592649
0.0585802
0.0573119
0.0554615
0.0530961
0.0505083
0.0478266
0.0453224
0.0433036
0.0418752
0.0409407
0.0403491
0.0399844
0.0397677
0.039647
0.0395858
0.0395571
0.039544
0.0395382
0.0395355
0.0395343
0.0395338
0.0395335
0.0395334
0.0395333
0.0395333
0.0395332
0.0395332
0.0395332
0.0395332
0.0395332
0.0395332
0.0395332
0.0395332
0.0395332
0.0395332
0.0395332
0.0395332
0.0395332
0.0395332
0.0395332
0.0395332
0.0395332
0.0395332
0.0395332
0.0395332
0.0395332
0.0395332
0.0395332
0.0395332
0.0395332
0.0395332
0.0395332
0.0395332
0.0395332
0.0395332
0.0395332
0.0395332
0.0395332
0.0395332
0.0395332
0.0395332
0.0395332
0.0395332
0.0395332
0.0395332
0.0395332
0.0395332
0.0395332
0.0395332
0.0395332
0.0395332
0.0395332
0.0395332
0.0395332
0.0395332
0.0395332
0.0395333
0.0395332
0.0395333
0.0395332
0.0395332
0.0395335
0.0395326
0.0395342
0.039532
0.0395347
0.0395318
0.0395352
0.0395317
0.0395366
0.0395327
0.0395415
0.619026
0.333225
0.280318
0.0959178
0.0627248
0.0557744
0.0542336
0.057394
0.0570506
0.0556928
0.0542528
0.0523401
0.0500368
0.047531
0.0451286
0.0431583
0.0417641
0.0408733
0.0403253
0.0399913
0.0397898
0.0396708
0.039605
0.0395711
0.0395544
0.0395464
0.0395425
0.0395406
0.0395397
0.0395393
0.039539
0.0395389
0.0395389
0.0395388
0.0395388
0.0395388
0.0395388
0.0395388
0.0395388
0.0395388
0.0395388
0.0395388
0.0395388
0.0395388
0.0395388
0.0395388
0.0395388
0.0395388
0.0395388
0.0395388
0.0395388
0.0395388
0.0395388
0.0395388
0.0395388
0.0395388
0.0395388
0.0395388
0.0395388
0.0395388
0.0395388
0.0395388
0.0395388
0.0395388
0.0395388
0.0395388
0.0395388
0.0395388
0.0395388
0.0395388
0.0395388
0.0395388
0.0395388
0.0395388
0.0395388
0.0395388
0.0395388
0.0395388
0.0395388
0.0395388
0.0395388
0.0395388
0.0395388
0.0395388
0.0395389
0.0395387
0.0395389
0.0395388
0.0395387
0.0395392
0.0395381
0.0395401
0.0395373
0.039541
0.0395372
0.0395422
0.0395377
0.0395455
0.0395412
0.0395561
0.263773
0.190199
0.119143
0.075209
0.0423375
0.0416223
0.048654
0.0556043
0.0566823
0.0547755
0.0531526
0.0515388
0.0495325
0.0472176
0.0449276
0.0430142
0.0416495
0.0407884
0.0402751
0.0399715
0.0397908
0.039682
0.039618
0.0395825
0.0395637
0.0395542
0.0395495
0.0395471
0.0395459
0.0395453
0.039545
0.0395449
0.0395448
0.0395447
0.0395447
0.0395447
0.0395447
0.0395447
0.0395447
0.0395447
0.0395447
0.0395447
0.0395447
0.0395447
0.0395447
0.0395447
0.0395447
0.0395447
0.0395447
0.0395447
0.0395447
0.0395447
0.0395447
0.0395447
0.0395447
0.0395447
0.0395447
0.0395447
0.0395447
0.0395447
0.0395447
0.0395447
0.0395447
0.0395447
0.0395447
0.0395447
0.0395447
0.0395447
0.0395447
0.0395447
0.0395447
0.0395447
0.0395447
0.0395447
0.0395447
0.0395447
0.0395447
0.0395447
0.0395447
0.0395447
0.0395447
0.0395447
0.0395447
0.0395447
0.0395448
0.0395446
0.0395448
0.0395447
0.0395446
0.0395451
0.039544
0.039546
0.0395433
0.039547
0.0395432
0.0395483
0.0395442
0.039552
0.0395486
0.0395645
0.118292
0.0720529
0.0634054
0.0326137
0.0329751
0.050663
0.0553122
0.0570676
0.0574978
0.0549048
0.0524797
0.050754
0.0489646
0.0468634
0.0447111
0.04287
0.0415375
0.0406954
0.0402033
0.0399215
0.0397598
0.0396642
0.0396072
0.0395745
0.0395567
0.0395474
0.0395427
0.0395403
0.0395391
0.0395385
0.0395382
0.039538
0.0395379
0.0395379
0.0395379
0.0395379
0.0395379
0.0395379
0.0395379
0.0395379
0.0395379
0.0395379
0.0395379
0.0395379
0.0395379
0.0395379
0.0395379
0.0395379
0.0395379
0.0395379
0.0395379
0.0395379
0.0395379
0.0395379
0.0395379
0.0395379
0.0395379
0.0395379
0.0395379
0.0395379
0.0395379
0.0395379
0.0395379
0.0395379
0.0395379
0.0395379
0.0395379
0.0395379
0.0395379
0.0395379
0.0395379
0.0395379
0.0395379
0.0395379
0.0395379
0.0395379
0.0395379
0.0395379
0.0395379
0.0395379
0.0395379
0.0395379
0.0395379
0.0395378
0.0395379
0.0395378
0.039538
0.0395378
0.0395378
0.0395382
0.0395373
0.039539
0.0395367
0.0395398
0.0395367
0.0395409
0.0395377
0.0395442
0.0395418
0.0395556
0.0575395
0.0499854
0.0401403
0.0371945
0.0545615
0.0545679
0.0527641
0.0531334
0.0551927
0.0543813
0.0520396
0.0500503
0.0482955
0.0463887
0.0444202
0.0426961
0.0414194
0.0406004
0.0401249
0.0398598
0.0397128
0.0396294
0.0395812
0.0395538
0.0395389
0.0395312
0.0395273
0.0395253
0.0395244
0.0395238
0.0395236
0.0395235
0.0395234
0.0395234
0.0395233
0.0395233
0.0395233
0.0395233
0.0395233
0.0395233
0.0395233
0.0395233
0.0395233
0.0395233
0.0395233
0.0395233
0.0395233
0.0395233
0.0395233
0.0395233
0.0395233
0.0395233
0.0395233
0.0395233
0.0395233
0.0395233
0.0395233
0.0395233
0.0395233
0.0395233
0.0395233
0.0395233
0.0395233
0.0395233
0.0395233
0.0395233
0.0395233
0.0395233
0.0395233
0.0395233
0.0395233
0.0395233
0.0395233
0.0395233
0.0395233
0.0395233
0.0395233
0.0395233
0.0395233
0.0395233
0.0395233
0.0395233
0.0395233
0.0395233
0.0395234
0.0395233
0.0395234
0.0395233
0.0395233
0.0395236
0.0395228
0.0395243
0.0395223
0.0395249
0.0395223
0.0395258
0.0395231
0.0395284
0.0395264
0.0395379
0.0436925
0.0480697
0.0357202
0.0481928
0.051638
0.0471492
0.0497583
0.0524719
0.0542607
0.0548429
0.0533262
0.0509378
0.0485315
0.0462557
0.0442037
0.0425294
0.041317
0.0405348
0.0400757
0.0398195
0.0396782
0.0396001
0.0395571
0.0395339
0.0395219
0.0395157
0.0395126
0.039511
0.0395103
0.0395099
0.0395098
0.0395097
0.0395096
0.0395096
0.0395096
0.0395096
0.0395096
0.0395096
0.0395096
0.0395096
0.0395096
0.0395096
0.0395096
0.0395096
0.0395096
0.0395096
0.0395096
0.0395096
0.0395096
0.0395096
0.0395096
0.0395096
0.0395096
0.0395096
0.0395096
0.0395096
0.0395096
0.0395096
0.0395096
0.0395096
0.0395096
0.0395096
0.0395096
0.0395096
0.0395096
0.0395096
0.0395096
0.0395096
0.0395096
0.0395096
0.0395096
0.0395096
0.0395096
0.0395096
0.0395096
0.0395096
0.0395096
0.0395096
0.0395096
0.0395096
0.0395096
0.0395096
0.0395096
0.0395096
0.0395096
0.0395096
0.0395096
0.0395096
0.0395095
0.0395098
0.0395092
0.0395104
0.0395087
0.0395109
0.0395087
0.0395116
0.0395092
0.0395136
0.0395116
0.0395211
0.0416554
0.0401006
0.0418807
0.041606
0.0456185
0.0464569
0.0475465
0.0509294
0.0513795
0.0517391
0.0522944
0.0516839
0.049705
0.0470189
0.0444203
0.0424077
0.0410882
0.0403258
0.0399241
0.0397215
0.0396174
0.0395615
0.0395312
0.0395149
0.0395066
0.0395025
0.0395006
0.0394996
0.0394992
0.0394989
0.0394988
0.0394987
0.0394987
0.0394987
0.0394987
0.0394987
0.0394987
0.0394987
0.0394987
0.0394987
0.0394987
0.0394987
0.0394987
0.0394987
0.0394987
0.0394987
0.0394987
0.0394987
0.0394987
0.0394987
0.0394987
0.0394987
0.0394987
0.0394987
0.0394987
0.0394987
0.0394987
0.0394987
0.0394987
0.0394987
0.0394987
0.0394987
0.0394987
0.0394987
0.0394987
0.0394987
0.0394987
0.0394987
0.0394987
0.0394987
0.0394987
0.0394987
0.0394987
0.0394987
0.0394987
0.0394987
0.0394987
0.0394987
0.0394987
0.0394987
0.0394987
0.0394987
0.0394987
0.0394986
0.0394987
0.0394986
0.0394987
0.0394986
0.0394986
0.0394989
0.0394983
0.0394993
0.0394979
0.0394997
0.0394978
0.0395002
0.0394981
0.0395015
0.0394997
0.0395072
0.0395668
0.0419071
0.0401747
0.038271
0.0457931
0.0492041
0.0474281
0.0502096
0.0520504
0.0505512
0.0494917
0.0496468
0.049468
0.0481009
0.0459128
0.0436839
0.0419375
0.0407962
0.0401441
0.0398054
0.0396384
0.0395578
0.0395197
0.0395022
0.0394944
0.039491
0.0394895
0.0394889
0.0394887
0.0394886
0.0394886
0.0394885
0.0394885
0.0394885
0.0394885
0.0394885
0.0394885
0.0394885
0.0394885
0.0394885
0.0394885
0.0394885
0.0394885
0.0394885
0.0394885
0.0394885
0.0394885
0.0394885
0.0394885
0.0394885
0.0394885
0.0394885
0.0394885
0.0394885
0.0394885
0.0394885
0.0394885
0.0394885
0.0394885
0.0394885
0.0394885
0.0394885
0.0394885
0.0394885
0.0394885
0.0394885
0.0394885
0.0394885
0.0394885
0.0394885
0.0394885
0.0394885
0.0394885
0.0394885
0.0394885
0.0394885
0.0394885
0.0394885
0.0394885
0.0394885
0.0394885
0.0394885
0.0394885
0.0394885
0.0394885
0.0394885
0.0394885
0.0394885
0.0394885
0.0394886
0.0394882
0.039489
0.0394879
0.0394892
0.0394878
0.0394894
0.0394878
0.0394901
0.0394885
0.0394936
0.0381547
0.0402386
0.0407323
0.04248
0.0415924
0.0423796
0.0467573
0.0489286
0.0511366
0.0521579
0.0508826
0.0485352
0.046274
0.0444157
0.0429144
0.0417263
0.0408471
0.0402553
0.0398938
0.0396904
0.0395817
0.0395255
0.0394976
0.0394848
0.0394792
0.0394769
0.0394761
0.0394758
0.0394757
0.0394757