/*--------------------------------*- C++ -*----------------------------------*\
| =========                 |                                                 |
| \\      /  F ield         | OpenFOAM: The Open Source CFD Toolbox           |
|  \\    /   O peration     | Version:  v2012                                 |
|   \\  /    A nd           | Website:  www.openfoam.com                      |
|    \\/     M anipulation  |                                                 |
\*---------------------------------------------------------------------------*/
FoamFile
{
    version     2.0;
    format      ascii;
    class       surfaceScalarField;
    location    "0.268";
    object      phi.air;
}
// * * * * * * * * * * * * * * * * * * * * * * * * * * * * * * * * * * * * * //

dimensions      [0 3 -1 0 0 0 0];
oriented        oriented;


internalField   nonuniform List<scalar> 
3672
(
0.0064006
7.14517e-06
0.00639136
8.99623e-06
0.00638142
9.68684e-06
0.00637056
1.06126e-05
0.0063586
1.17119e-05
0.00634559
1.27594e-05
0.00633129
1.40467e-05
0.00631578
1.52582e-05
0.00629637
1.91628e-05
2.80586e-05
0.00626806
0.00641089
4.26004e-06
0.00641309
6.79313e-06
0.00641555
7.2261e-06
0.00641823
7.93235e-06
0.00642104
8.90607e-06
0.00642399
9.8076e-06
0.00642694
1.10891e-05
0.00642967
1.25285e-05
0.00643129
1.75455e-05
2.48537e-05
0.0064345
0.00640988
2.38202e-06
0.00641223
4.44505e-06
0.00641473
4.71802e-06
0.00641752
5.14462e-06
0.00642056
5.87155e-06
0.00642375
6.60995e-06
0.00642716
7.68595e-06
0.00643042
9.26282e-06
0.0064346
1.3366e-05
1.8425e-05
0.00644103
0.00640936
1.0263e-06
0.00641175
2.05189e-06
0.00641429
2.17918e-06
0.00641704
2.39546e-06
0.00642008
2.82902e-06
0.00642335
3.34014e-06
0.00642686
4.1794e-06
0.00643058
5.54009e-06
0.00643542
8.5221e-06
1.19255e-05
0.00644192
0.00640916
-1.3313e-07
0.00641153
-3.17989e-07
0.00641408
-3.6805e-07
0.0064168
-3.3066e-07
0.00641985
-2.20073e-07
0.00642318
1.20087e-08
0.0064268
5.59748e-07
0.0064308
1.54158e-06
0.00643581
3.50708e-06
5.35652e-06
0.00644238
0.00640918
-1.30997e-06
0.00641156
-2.70308e-06
0.00641412
-2.9249e-06
0.00641686
-3.07022e-06
0.00641993
-3.29409e-06
0.00642331
-3.36794e-06
0.00642702
-3.15054e-06
0.00643117
-2.61079e-06
0.00643623
-1.55004e-06
-9.18176e-07
0.00644251
0.00640941
-2.72028e-06
0.00641185
-5.1427e-06
0.00641442
-5.49271e-06
0.00641721
-5.85951e-06
0.00642032
-6.40729e-06
0.00642374
-6.78915e-06
0.00642751
-6.92237e-06
0.00643175
-6.8458e-06
0.00643674
-6.54488e-06
-6.74828e-06
0.00644257
0.00640999
-4.70719e-06
0.0064124
-7.5559e-06
0.00641495
-8.04445e-06
0.00641781
-8.71403e-06
0.00642095
-9.55364e-06
0.0064244
-1.02353e-05
0.00642821
-1.0735e-05
0.00643249
-1.11202e-05
0.00643739
-1.14533e-05
-1.21458e-05
0.00644279
0.00641105
-7.76188e-06
0.00641334
-9.83865e-06
0.00641585
-1.05521e-05
0.00641858
-1.14513e-05
0.00642152
-1.24901e-05
0.00642469
-1.34058e-05
0.00642817
-1.42168e-05
0.00643204
-1.49858e-05
0.00643631
-1.57293e-05
-1.68101e-05
0.00644098
0.00640049
0.0063909
0.0063806
0.0063694
0.00635716
0.006344
0.00633004
0.0063153
0.00629982
0.00628326
0.00618912
0.000122524
-4.3588e-05
0.00598884
8.26139e-05
0.000117663
0.00572442
-0.000168608
0.000433026
0.00550756
-0.000541273
0.000758139
0.0053591
-0.000908014
0.00105647
0.00525264
-0.00120373
0.00131019
0.0051718
-0.00137931
0.00146014
0.00510266
-0.00142724
0.00149639
0.00503454
-0.00137472
0.00144283
0.00496666
-0.00125532
0.00132321
0.004899
-0.00110287
0.00117053
0.00483219
-0.000944957
0.00101177
0.00476701
-0.000799075
0.000864257
0.00470315
-0.000671185
0.000735046
0.00464097
-0.000563969
0.00062615
0.00458113
-0.000477622
0.000537464
0.00452416
-0.000409615
0.000466579
0.0044704
-0.000355417
0.000409176
0.00442023
-0.000311729
0.000361908
0.00437423
-0.000277363
0.000323355
0.0043325
-0.00025068
0.000292408
0.00429472
-0.000228953
0.000266742
0.00426059
-0.000210307
0.000244434
0.00423019
-0.000194359
0.000224754
0.00420342
-0.000181333
0.000208111
0.0041801
-0.00017067
0.000193987
0.0041601
-0.000161345
0.00018134
0.00414293
-0.000152598
0.000169768
0.00412819
-0.000144626
0.000159371
0.00411556
-0.000137678
0.000150306
0.00410468
-0.000131571
0.000142454
0.00409526
-0.000125933
0.000135345
0.00408704
-0.000120573
0.000128797
0.00407974
-0.000115346
0.000122649
0.00407332
-0.000110476
0.00011689
0.00406776
-0.000106061
0.000111622
0.00406298
-0.000102077
0.000106855
0.00405893
-9.84215e-05
0.000102472
0.00405556
-9.49958e-05
9.83707e-05
0.0040528
-9.17198e-05
9.44797e-05
0.00405061
-8.86537e-05
9.08411e-05
0.00404893
-8.58287e-05
8.751e-05
0.00404767
-8.3215e-05
8.44766e-05
0.00404677
-8.07725e-05
8.16758e-05
0.00404618
-7.84296e-05
7.90131e-05
0.00404588
-7.61096e-05
7.64098e-05
0.00404584
-7.38566e-05
7.39026e-05
0.00404603
-7.17522e-05
7.15625e-05
0.00404645
-6.98317e-05
6.94111e-05
0.0040471
-6.80717e-05
6.7421e-05
0.00404796
-6.63883e-05
6.55217e-05
0.00404902
-6.47167e-05
6.36607e-05
0.00405025
-6.30924e-05
6.1865e-05
0.00405163
-6.15634e-05
6.01765e-05
0.00405317
-6.01389e-05
5.86031e-05
0.00405485
-5.88117e-05
5.71307e-05
0.00405667
-5.75565e-05
5.57397e-05
0.0040586
-5.63216e-05
5.43903e-05
0.00406062
-5.50988e-05
5.30743e-05
0.00406273
-5.3912e-05
5.18059e-05
0.00406491
-5.27957e-05
5.06137e-05
0.00406717
-5.17485e-05
4.94928e-05
0.0040695
-5.07687e-05
4.84402e-05
0.00407189
-4.98157e-05
4.74229e-05
0.00407434
-4.88883e-05
4.64408e-05
0.00407683
-4.7975e-05
4.54841e-05
0.00407936
-4.71039e-05
4.45748e-05
0.00408192
-4.62726e-05
4.37086e-05
0.00408452
-4.54836e-05
4.28877e-05
0.00408714
-4.47168e-05
4.20936e-05
0.00408978
-4.39727e-05
4.13282e-05
0.00409244
-4.32405e-05
4.05814e-05
0.00409511
-4.25305e-05
3.98627e-05
0.00409778
-4.18393e-05
3.91673e-05
0.00410046
-4.11755e-05
3.85012e-05
0.00410313
-4.05239e-05
3.78529e-05
0.00410579
-3.98888e-05
3.72244e-05
0.00410844
-3.92549e-05
3.66037e-05
0.00411108
-3.86368e-05
3.60015e-05
0.00411369
-3.80231e-05
3.54078e-05
0.00411629
-3.74284e-05
3.4835e-05
0.00411886
-3.68355e-05
3.4267e-05
0.0041214
-3.62573e-05
3.37159e-05
0.00412391
-3.56746e-05
3.3163e-05
0.00412639
-3.51055e-05
3.26248e-05
0.00412884
-3.45342e-05
3.20864e-05
0.00413125
-3.39807e-05
3.1566e-05
0.00413363
-3.3428e-05
3.10479e-05
0.00413598
-3.28945e-05
3.05491e-05
0.00413829
-3.23637e-05
3.0054e-05
0.00414056
-3.18594e-05
2.95849e-05
0.0041428
-3.13632e-05
2.91241e-05
0.00414501
-3.09189e-05
2.87127e-05
0.00414718
-3.0484e-05
2.83105e-05
0.00414933
-3.01958e-05
2.80477e-05
0.00415145
-2.98779e-05
2.77547e-05
0.00415358
-3.00398e-05
2.79138e-05
0.00415568
-2.99107e-05
2.7811e-05
0.00415787
-3.12139e-05
2.9019e-05
-3.11762e-05
2.92143e-05
0.00647836
7.86562e-05
0.00651174
4.92393e-05
0.00650174
-0.000158608
0.0064363
-0.000475831
0.00632498
-0.000796694
0.00617908
-0.00105783
0.00601661
-0.00121683
0.00585461
-0.00126525
0.00570352
-0.00122363
0.0055688
-0.00112061
0.00545258
-0.000986642
0.0053542
-0.00084658
0.00527096
-0.000715832
0.00519926
-0.000599487
0.00513577
-0.000500483
0.005078
-0.000419853
0.00502381
-0.000355419
0.00497125
-0.000302858
0.00491923
-0.000259713
0.00486783
-0.000225964
0.0048178
-0.000200646
0.00476965
-0.000180804
0.00472337
-0.000164028
0.00467931
-0.000150298
0.00463809
-0.000140117
0.00459992
-0.000132493
0.00456469
-0.000126119
0.00453237
-0.000120276
0.0045029
-0.000115152
0.00447616
-0.000110945
0.00445191
-0.000107313
0.00442989
-0.000103918
0.0044099
-0.000100578
0.00439178
-9.72346e-05
0.00437541
-9.40997e-05
0.00436064
-9.12883e-05
0.00434731
-8.87534e-05
0.00433529
-8.63994e-05
0.00432443
-8.41368e-05
0.00431463
-8.19237e-05
0.00430578
-7.97961e-05
0.00429769
-7.77447e-05
0.0042903
-7.58229e-05
0.00428357
-7.4042e-05
0.00427746
-7.23146e-05
0.00427191
-7.05674e-05
0.00426691
-6.88502e-05
0.0042624
-6.72464e-05
0.00425837
-6.58024e-05
0.00425479
-6.44947e-05
0.00425163
-6.32205e-05
0.00424883
-6.1921e-05
0.00424639
-6.06503e-05
0.00424427
-5.94414e-05
0.00424244
-5.83145e-05
0.0042409
-5.72665e-05
0.00423959
-5.62487e-05
0.00423849
-5.52184e-05
0.00423757
-5.41865e-05
0.00423684
-5.31829e-05
0.00423629
-5.22416e-05
0.00423591
-5.13631e-05
0.00423568
-5.05425e-05
0.00423559
-4.97252e-05
0.00423562
-4.89177e-05
0.00423576
-4.81126e-05
0.00423599
-4.73424e-05
0.00423632
-4.66024e-05
0.00423674
-4.5898e-05
0.00423723
-4.52049e-05
0.00423778
-4.45257e-05
0.00423839
-4.38462e-05
0.00423904
-4.31805e-05
0.00423972
-4.25255e-05
0.00424044
-4.18926e-05
0.00424118
-4.12655e-05
0.00424194
-4.06489e-05
0.00424271
-4.00269e-05
0.00424349
-3.94159e-05
0.00424427
-3.88051e-05
0.00424506
-3.82108e-05
0.00424583
-3.76144e-05
0.00424661
-3.70307e-05
0.00424737
-3.64398e-05
0.00424813
-3.58613e-05
0.00424887
-3.52791e-05
0.00424961
-3.47143e-05
0.00425033
-3.41489e-05
0.00425104
-3.36026e-05
0.00425173
-3.3058e-05
0.00425241
-3.25401e-05
0.00425308
-3.20301e-05
0.00425373
-3.15729e-05
0.00425437
-3.11252e-05
0.004255
-3.08253e-05
0.00425563
-3.05011e-05
0.00425624
-3.06513e-05
0.00425686
-3.05288e-05
0.00425752
-3.18827e-05
-3.17339e-05
0.00647001
4.96757e-05
0.00650349
1.57561e-05
0.00650081
-0.000155927
0.00644848
-0.000423501
0.00634924
-0.000697454
0.00621162
-0.000920203
0.00605283
-0.00105804
0.00589068
-0.0011031
0.00573795
-0.00107089
0.00560293
-0.000985598
0.00548872
-0.000872427
0.00539506
-0.000752924
0.00531917
-0.000639938
0.00525775
-0.000538067
0.00520809
-0.000450822
0.00516809
-0.000379857
0.00513526
-0.000322593
0.00510707
-0.00027466
0.00508203
-0.000234677
0.00505949
-0.000203424
0.00503841
-0.000179563
0.00501743
-0.00015983
0.00499568
-0.000142274
0.00497277
-0.00012739
0.00494866
-0.000116009
0.00492343
-0.000107259
0.004897
-9.9693e-05
0.00486944
-9.27184e-05
0.00484103
-8.6741e-05
0.0048122
-8.21088e-05
0.00478358
-7.86992e-05
0.00475566
-7.59972e-05
0.00472868
-7.3595e-05
0.00470297
-7.15284e-05
0.00467877
-6.98958e-05
0.0046562
-6.87177e-05
0.00463526
-6.78145e-05
0.00461584
-6.6977e-05
0.0045978
-6.60984e-05
0.00458104
-6.51606e-05
0.00456546
-6.42214e-05
0.00455101
-6.32934e-05
0.00453761
-6.24232e-05
0.00452518
-6.16086e-05
0.00451361
-6.07524e-05
0.00450288
-5.98304e-05
0.00449293
-5.89064e-05
0.00448375
-5.80654e-05
0.00447527
-5.7316e-05
0.00446736
-5.65888e-05
0.00445997
-5.58311e-05
0.00445309
-5.50444e-05
0.00444672
-5.42791e-05
0.00444082
-5.35385e-05
0.00443535
-5.28476e-05
0.0044303
-5.22127e-05
0.00442563
-5.15799e-05
0.00442132
-5.09036e-05
0.00441733
-5.02023e-05
0.00441366
-4.95093e-05
0.00441028
-4.88614e-05
0.00440716
-4.82501e-05
0.00440426
-4.76399e-05
0.00440154
-4.70055e-05
0.00439899
-4.63672e-05
0.0043966
-4.57214e-05
0.00439436
-4.50987e-05
0.00439224
-4.44896e-05
0.00439025
-4.39045e-05
0.00438836
-4.33147e-05
0.00438656
-4.27265e-05
0.00438484
-4.21226e-05
0.00438318
-4.15231e-05
0.00438158
-4.09253e-05
0.00438003
-4.03434e-05
0.00437852
-3.97592e-05
0.00437706
-3.91794e-05
0.00437562
-3.85878e-05
0.0043742
-3.80038e-05
0.00437282
-3.74161e-05
0.00437145
-3.68437e-05
0.0043701
-3.62667e-05
0.00436877
-3.57013e-05
0.00436746
-3.5127e-05
0.00436616
-3.45646e-05
0.00436488
-3.39981e-05
0.00436362
-3.34489e-05
0.00436236
-3.28985e-05
0.00436113
-3.23673e-05
0.00435991
-3.18374e-05
0.0043587
-3.1334e-05
0.00435751
-3.08393e-05
0.00435633
-3.03953e-05
0.00435517
-2.99633e-05
0.00435402
-2.9674e-05
0.00435289
-2.93658e-05
0.00435176
-2.95211e-05
0.00435065
-2.94239e-05
0.0043495
-3.07292e-05
-3.06855e-05
0.0064645
2.71009e-05
0.00648861
-8.35549e-06
0.00648172
-0.000149035
0.00642849
-0.00037027
0.00633104
-0.000600005
0.00619798
-0.000787151
0.00604459
-0.000904647
0.00588736
-0.000945872
0.00573872
-0.000922253
0.00560633
-0.000853205
0.00549351
-0.000759614
0.00540017
-0.000659579
0.00532363
-0.000563397
0.00526125
-0.000475688
0.00521122
-0.000400794
0.00517149
-0.000340125
0.00513907
-0.000290168
0.00511173
-0.000247326
0.00508915
-0.000212093
0.00507129
-0.00018557
0.00505682
-0.000165085
0.0050438
-0.000146813
0.0050318
-0.000130276
0.00502165
-0.000117242
0.00501335
-0.000107709
0.00500577
-9.96754e-05
0.00499797
-9.18908e-05
0.00498978
-8.45305e-05
0.00498132
-7.82775e-05
0.00497255
-7.33429e-05
0.00496322
-6.93709e-05
0.00495299
-6.57633e-05
0.00494151
-6.21212e-05
0.00492866
-5.867e-05
0.00491455
-5.57913e-05
0.00489943
-5.35936e-05
0.0048835
-5.18862e-05
0.00486691
-5.03912e-05
0.0048498
-4.89854e-05
0.00483233
-4.76862e-05
0.00481473
-4.6627e-05
0.00479741
-4.59761e-05
0.00478066
-4.56669e-05
0.0047645
-4.54467e-05
0.00474893
-4.51914e-05
0.00473405
-4.49414e-05
0.00471992
-4.47827e-05
0.0047066
-4.47432e-05
0.00469404
-4.47574e-05
0.00468217
-4.47167e-05
0.00467091
-4.45742e-05
0.00466023
-4.43653e-05
0.0046501
-4.41441e-05
0.00464049
-4.39328e-05
0.00463139
-4.37416e-05
0.00462274
-4.35661e-05
0.00461454
-4.33826e-05
0.00460678
-4.3146e-05
0.00459944
-4.28606e-05
0.00459249
-4.25569e-05
0.00458589
-4.22612e-05
0.00457961
-4.19712e-05
0.00457362
-4.16502e-05
0.0045679
-4.12807e-05
0.00456241
-4.08768e-05
0.00455713
-4.04406e-05
0.00455202
-3.99951e-05
0.00454707
-3.95404e-05
0.00454226
-3.90905e-05
0.00453756
-3.86169e-05
0.00453297
-3.81313e-05
0.00452846
-3.76157e-05
0.00452403
-3.70965e-05
0.00451968
-3.65709e-05
0.00451539
-3.60568e-05
0.00451117
-3.55343e-05
0.004507
-3.50146e-05
0.00450289
-3.44804e-05
0.00449884
-3.39518e-05
0.00449485
-3.34209e-05
0.00449091
-3.29038e-05
0.00448702
-3.23824e-05
0.00448319
-3.18707e-05
0.00447942
-3.13506e-05
0.00447569
-3.08426e-05
0.00447203
-3.0331e-05
0.00446841
-2.98371e-05
0.00446486
-2.9342e-05
0.00446136
-2.88665e-05
0.00445791
-2.83921e-05
0.00445452
-2.79442e-05
0.00445119
-2.75058e-05
0.00444791
-2.71145e-05
0.00444468
-2.67384e-05
0.0044415
-2.64915e-05
0.00443838
-2.62406e-05
0.00443525
-2.6397e-05
0.00443222
-2.63883e-05
0.00442904
-2.75545e-05
-2.78751e-05
0.00645963
9.85241e-06
0.00647551
-2.42332e-05
0.00646423
-0.000137754
0.00641073
-0.000316772
0.00631603
-0.00050531
0.00618842
-0.00065954
0.00604148
-0.000757705
0.00588982
-0.000794216
0.00574502
-0.000777449
0.00561482
-0.000723006
0.00550299
-0.000647779
0.00540946
-0.000566054
0.00533192
-0.000485854
0.00526868
-0.000412446
0.00521833
-0.000350446
0.00517791
-0.000299707
0.00514402
-0.000256282
0.00511563
-0.000218931
0.0050932
-0.000189666
0.00507565
-0.000168013
0.00506031
-0.000149753
0.00504611
-0.000132611
0.00503419
-0.000118356
0.00502517
-0.000108218
0.00501784
-0.000100379
0.00501082
-9.26602e-05
0.00500396
-8.50276e-05
0.00499805
-7.86179e-05
0.00499356
-7.37939e-05
0.00499008
-6.98585e-05
0.00498682
-6.61086e-05
0.0049833
-6.22423e-05
0.00497977
-5.8593e-05
0.00497671
-5.56088e-05
0.00497405
-5.31316e-05
0.00497142
-5.09724e-05
0.00496853
-4.89899e-05
0.0049651
-4.69662e-05
0.00496106
-4.49435e-05
0.00495647
-4.30938e-05
0.00495138
-4.15337e-05
0.00494572
-4.03237e-05
0.00493939
-3.93299e-05
0.00493225
-3.8308e-05
0.00492425
-3.71909e-05
0.00491543
-3.61214e-05
0.00490592
-3.52712e-05
0.00489586
-3.4689e-05
0.00488539
-3.42895e-05
0.00487462
-3.39434e-05
0.00486362
-3.35722e-05
0.00485246
-3.32043e-05
0.00484121
-3.29003e-05
0.00483002
-3.27341e-05
0.00481895
-3.26795e-05
0.00480804
-3.26551e-05
0.00479727
-3.26126e-05
0.00478668
-3.25503e-05
0.00477629
-3.24771e-05
0.00476614
-3.24013e-05
0.00475619
-3.2316e-05
0.00474644
-3.22232e-05
0.00473692
-3.21231e-05
0.00472762
-3.19864e-05
0.00471854
-3.17934e-05
0.00470965
-3.15489e-05
0.00470092
-3.12704e-05
0.00469236
-3.09765e-05
0.00468394
-3.06739e-05
0.00467567
-3.03399e-05
0.00466752
-2.99884e-05
0.00465951
-2.96019e-05
0.00465162
-2.92074e-05
0.00464385
-2.8803e-05
0.0046362
-2.84056e-05
0.00462866
-2.79988e-05
0.00462125
-2.75958e-05
0.00461394
-2.71768e-05
0.00460675
-2.67641e-05
0.00459968
-2.63474e-05
0.00459272
-2.59441e-05
0.00458587
-2.55357e-05
0.00457914
-2.51372e-05
0.00457252
-2.47333e-05
0.00456602
-2.43402e-05
0.00455964
-2.39464e-05
0.00455337
-2.35688e-05
0.00454722
-2.31922e-05
0.00454119
-2.28337e-05
0.00453527
-2.24779e-05
0.00452947
-2.21466e-05
0.00452379
-2.18262e-05
0.00451823
-2.15457e-05
0.00451277
-2.12857e-05
0.00450741
-2.11287e-05
0.00450217
-2.09954e-05
0.00449693
-2.116e-05
0.00449186
-2.13205e-05
0.00448653
-2.22253e-05
-2.3247e-05
0.00645566
-3.30157e-06
0.00646519
-3.37648e-05
0.00645042
-0.000122979
0.00639697
-0.000263323
0.00630461
-0.000412949
0.00618116
-0.000536097
0.00603902
-0.00061556
0.00589158
-0.00064678
0.00574989
-0.000635754
0.00562172
-0.000594833
0.0055108
-0.00053686
0.00541687
-0.000472122
0.0053385
-0.000407493
0.00527487
-0.000348809
0.0052239
-0.000299477
0.00518185
-0.000257655
0.00514624
-0.000220673
0.00511746
-0.000190157
0.00509534
-0.000167542
0.00507683
-0.0001495
0.00505961
-0.000132532
0.00504476
-0.000117764
0.00503355
-0.000107151
0.00502474
-9.94075e-05
0.00501636
-9.19912e-05
0.00500803
-8.43366e-05
0.00500084
-7.78337e-05
0.0049954
-7.31792e-05
0.00499112
-6.95152e-05
0.00498709
-6.58292e-05
0.00498284
-6.18569e-05
0.00497881
-5.82086e-05
0.00497563
-5.54216e-05
0.00497323
-5.32007e-05
0.00497116
-5.10679e-05
0.00496904
-4.8854e-05
0.00496675
-4.66981e-05
0.00496463
-4.48401e-05
0.00496294
-4.32537e-05
0.00496155
-4.17099e-05
0.00496024
-4.02207e-05
0.00495881
-3.88941e-05
0.00495719
-3.77094e-05
0.00495545
-3.65672e-05
0.00495366
-3.54026e-05
0.00495179
-3.42527e-05
0.00494974
-3.32144e-05
0.00494736
-3.23111e-05
0.00494453
-3.14669e-05
0.0049412
-3.0604e-05
0.00493733
-2.97027e-05
0.00493293
-2.88102e-05
0.004928
-2.79694e-05
0.00492248
-2.72129e-05
0.00491631
-2.65092e-05
0.00490946
-2.58062e-05
0.00490194
-2.50909e-05
0.00489379
-2.44017e-05
0.00488507
-2.376e-05
0.00487584
-2.31687e-05
0.00486613
-2.26104e-05
0.004856
-2.20834e-05
0.00484547
-2.15965e-05
0.00483463
-2.11452e-05
0.00482355
-2.07165e-05
0.00481231
-2.03081e-05
0.00480096
-1.99218e-05
0.00478955
-1.95657e-05
0.0047781
-1.92285e-05
0.00476668
-1.89165e-05
0.0047553
-1.86118e-05
0.00474402
-1.83197e-05
0.00473285
-1.80338e-05
0.0047218
-1.77553e-05
0.00471089
-1.74947e-05
0.00470013
-1.72385e-05
0.00468953
-1.69982e-05
0.0046791
-1.67478e-05
0.00466885
-1.65121e-05
0.00465878
-1.62747e-05
0.00464889
-1.6056e-05
0.0046392
-1.58409e-05
0.00462969
-1.56362e-05
0.0046204
-1.54338e-05
0.00461129
-1.52393e-05
0.0046024
-1.50508e-05
0.0045937
-1.48737e-05
0.00458522
-1.47036e-05
0.00457693
-1.45445e-05
0.00456884
-1.43924e-05
0.00456095
-1.42556e-05
0.00455325
-1.41291e-05
0.00454574
-1.40304e-05
0.00453841
-1.39551e-05
0.00453122
-1.39428e-05
0.00452421
-1.39888e-05
0.00451723
-1.41741e-05
0.00451049
-1.45793e-05
0.00450335
-1.50867e-05
-1.71157e-05
0.00645273
-1.34585e-05
0.00645752
-3.85542e-05
0.00643989
-0.000105347
0.00638638
-0.000209818
0.00629583
-0.000322398
0.00617559
-0.000415852
0.00603718
-0.00047715
0.00589298
-0.000502583
0.00575358
-0.000496358
0.00562651
-0.000467764
0.00551521
-0.000425552
0.0054197
-0.000376615
0.00533985
-0.000327643
0.00527522
-0.000284183
0.00522224
-0.00024649
0.00517725
-0.000212667
0.00514034
-0.000183759
0.00511161
-0.000161433
0.00508778
-0.000143705
0.00506601
-0.000127737
0.00504713
-0.00011365
0.00503231
-0.000102942
0.00502014
-9.49787e-05
0.00500851
-8.77822e-05
0.00499723
-8.07118e-05
0.00498742
-7.45218e-05
0.0049794
-6.98135e-05
0.00497233
-6.611e-05
0.00496529
-6.24826e-05
0.00495811
-5.86497e-05
0.00495138
-5.512e-05
0.00494548
-5.23113e-05
0.00494011
-5.00502e-05
0.00493482
-4.79085e-05
0.00492933
-4.55826e-05
0.00492373
-4.32516e-05
0.00491831
-4.1278e-05
0.00491313
-3.96625e-05
0.00490804
-3.81668e-05
0.00490292
-3.65869e-05
0.00489765
-3.49526e-05
0.00489221
-3.34516e-05
0.00488667
-3.21687e-05
0.00488111
-3.10033e-05
0.00487553
-2.98234e-05
0.0048699
-2.86244e-05
0.00486416
-2.74785e-05
0.00485827
-2.64196e-05
0.00485222
-2.54137e-05
0.00484605
-2.44322e-05
0.00483981
-2.34668e-05
0.00483354
-2.25351e-05
0.0048272
-2.16376e-05
0.00482077
-2.07805e-05
0.0048142
-1.9938e-05
0.00480748
-1.90903e-05
0.00480064
-1.82461e-05
0.00479368
-1.74467e-05
0.00478661
-1.66887e-05
0.0047794
-1.59524e-05
0.004772
-1.52108e-05
0.00476439
-1.44729e-05
0.00475655
-1.37636e-05
0.00474851
-1.30976e-05
0.00474025
-1.24642e-05
0.0047318
-1.18554e-05
0.00472315
-1.12686e-05
0.00471429
-1.07126e-05
0.00470525
-1.01888e-05
0.00469605
-9.708e-06
0.0046867
-9.26981e-06
0.00467725
-8.86928e-06
0.00466772
-8.50344e-06
0.00465814
-8.1675e-06
0.00464851
-7.86642e-06
0.00463887
-7.60075e-06
0.00462924
-7.36651e-06
0.00461965
-7.16429e-06
0.00461013
-6.98682e-06
0.00460069
-6.83733e-06
0.00459135
-6.71291e-06
0.00458212
-6.61486e-06
0.00457302
-6.53699e-06
0.00456407
-6.47889e-06
0.00455526
-6.43563e-06
0.00454662
-6.40977e-06
0.00453815
-6.3983e-06
0.00452985
-6.40157e-06
0.00452172
-6.41446e-06
0.00451376
-6.43805e-06
0.00450598
-6.4706e-06
0.00449836
-6.51237e-06
0.0044909
-6.57061e-06
0.0044836
-6.65261e-06
0.00447641
-6.75775e-06
0.00446938
-6.95122e-06
0.00446232
-7.12143e-06
0.00445547
-7.72733e-06
0.00444816
-7.77482e-06
-1.07115e-05
0.0064508
-2.14626e-05
0.00645216
-3.99197e-05
0.00643219
-8.53722e-05
0.00637824
-0.000155876
0.00628837
-0.000232521
0.00616929
-0.00029678
0.00603185
-0.000339705
0.00588761
-0.000358339
0.00574722
-0.000355967
0.00561785
-0.000338401
0.00550245
-0.000310148
0.00540291
-0.000277072
0.00531973
-0.000244472
0.0052499
-0.000214353
0.00519023
-0.000186814
0.00514027
-0.000162706
0.00509926
-0.000142754
0.00506416
-0.000126333
0.00503264
-0.000112182
0.00500489
-9.99929e-05
0.00498112
-8.98801e-05
0.00495992
-8.17411e-05
0.00493984
-7.48997e-05
0.00492087
-6.8809e-05
0.00490354
-6.33787e-05
0.00488766
-5.86459e-05
0.00487245
-5.46043e-05
0.00485743
-5.10907e-05
0.00484278
-4.78248e-05
0.00482879
-4.46625e-05
0.0048154
-4.1736e-05
0.00480229
-3.91954e-05
0.00478922
-3.69785e-05
0.00477622
-3.49084e-05
0.00476346
-3.28291e-05
0.00475103
-3.08131e-05
0.00473878
-2.90328e-05
0.0047266
-2.74827e-05
0.00471447
-2.60374e-05
0.00470248
-2.45932e-05
0.00469069
-2.31614e-05
0.00467908
-2.18434e-05
0.0046676
-2.06892e-05
0.00465624
-1.96432e-05
0.00464503
-1.86175e-05
0.00463401
-1.76013e-05
0.00462317
-1.66386e-05
0.00461251
-1.57582e-05
0.00460203
-1.49393e-05
0.00459176
-1.41607e-05
0.00458171
-1.34121e-05
0.00457187
-1.27005e-05
0.00456226
-1.20247e-05
0.00455287
-1.1387e-05
0.0045437
-1.07755e-05
0.00453479
-1.01782e-05
0.00452614
-9.59872e-06
0.00451775
-9.05615e-06
0.00450961
-8.54847e-06
0.00450172
-8.05929e-06
0.00449408
-7.57073e-06
0.0044867
-7.09109e-06
0.00447957
-6.63451e-06
0.00447268
-6.21016e-06
0.00446602
-5.80549e-06
0.00445958
-5.41476e-06
0.00445335
-5.03193e-06
0.0044473
-4.66776e-06
0.00444143
-4.31984e-06
0.00443572
-3.99704e-06
0.00443016
-3.70394e-06
0.00442472
-3.43126e-06
0.00441939
-3.17705e-06
0.00441417
-2.94225e-06
0.00440902
-2.72502e-06
0.00440396
-2.53479e-06
0.00439896
-2.36362e-06
0.00439401
-2.21651e-06
0.00438911
-2.08522e-06
0.00438424
-1.97195e-06
0.0043794
-1.8767e-06
0.00437459
-1.7985e-06
0.00436979
-1.73854e-06
0.004365
-1.69097e-06
0.00436022
-1.65721e-06
0.00435545
-1.63565e-06
0.00435068
-1.62866e-06
0.00434591
-1.63364e-06
0.00434115
-1.65011e-06
0.00433639
-1.67645e-06
0.00433163
-1.71343e-06
0.00432688
-1.76263e-06
0.00432213
-1.82425e-06
0.00431739
-1.91318e-06
0.00431264
-1.99991e-06
0.00430788
-2.19246e-06
0.00430301
-2.25837e-06
0.00429815
-2.86576e-06
0.00429293
-2.55753e-06
-5.63625e-06
0.00644653
-2.70128e-05
0.00644397
-3.73617e-05
0.00642001
-6.141e-05
0.00636214
-9.80092e-05
0.00626748
-0.000137856
0.00614212
-0.000171423
0.00599643
-0.000194013
0.00584215
-0.000204064
0.00568929
-0.000203104
0.00554469
-0.000193798
0.00541339
-0.000178852
0.0052975
-0.000161186
0.00519612
-0.000143089
0.00510769
-0.000125922
0.00503126
-0.000110388
0.00496534
-9.67849e-05
0.00490762
-8.50321e-05
0.00485613
-7.48424e-05
0.00480999
-6.60417e-05
0.0047686
-5.86073e-05
0.00473102
-5.22965e-05
0.00469637
-4.70868e-05
0.00466409
-4.2623e-05
0.00463413
-3.88502e-05
0.00460631
-3.55553e-05
0.00458017
-3.25078e-05
0.00455531
-2.97437e-05
0.00453158
-2.73594e-05
0.00450902
-2.52629e-05
0.00448761
-2.32597e-05
0.00446722
-2.13417e-05
0.00444763
-1.96093e-05
0.00442877
-1.81124e-05
0.00441063
-1.67738e-05
0.00439328
-1.54782e-05
0.00437669
-1.42254e-05
0.00436076
-1.30982e-05
0.00434539
-1.21146e-05
0.00433058
-1.12256e-05
0.00431636
-1.03734e-05
0.00430274
-9.5446e-06
0.00428968
-8.78072e-06
0.0042771
-8.11278e-06
0.00426498
-7.52104e-06
0.00425332
-6.95829e-06
0.00424213
-6.41227e-06
0.0042314
-5.90262e-06
0.00422108
-5.44386e-06
0.00421117
-5.02759e-06
0.00420165
-4.63987e-06
0.00419251
-4.27363e-06
0.00418374
-3.93334e-06
0.00417534
-3.61808e-06
0.00416728
-3.32813e-06
0.00415956
-3.05891e-06
0.00415219
-2.80368e-06
0.00414515
-2.56113e-06
0.00413843
-2.33946e-06
0.00413202
-2.13824e-06
0.00412591
-1.95093e-06
0.00412011
-1.76696e-06
0.00411461
-1.59e-06
0.0041094
-1.42431e-06
0.00410446
-1.2747e-06
0.00409979
-1.13287e-06
0.00409537
-9.97019e-07
0.0040912
-8.61123e-07
0.00408727
-7.32695e-07
0.00408355
-6.06535e-07
0.00408004
-4.82198e-07
0.00407672
-3.81346e-07
0.00407356
-2.78497e-07
0.00407057
-1.81132e-07
0.00406771
-8.75999e-08
0.00406499
3.19496e-09
0.00406237
8.39258e-08
0.00405985
1.57987e-07
0.00405741
2.19188e-07
0.00405505
2.75112e-07
0.00405275
3.23232e-07
0.00405051
3.63474e-07
0.00404832
3.9616e-07
0.00404616
4.18094e-07
0.00404404
4.34241e-07
0.00404193
4.45436e-07
0.00403985
4.51242e-07
0.00403777
4.51917e-07
0.00403569
4.48346e-07
0.0040336
4.38348e-07
0.00403149
4.2621e-07
0.00402938
4.04676e-07
0.00402723
3.78846e-07
0.00402507
3.38724e-07
0.00402287
2.88259e-07
0.00402062
2.49377e-07
0.0040183
1.26007e-07
0.00401589
1.51012e-07
0.00401334
-3.11451e-07
0.00401062
1.60107e-07
-2.32769e-06
0.00625665
0.00621968
0.00615866
0.00606105
0.00592359
0.00575257
0.00555896
0.0053553
0.00515261
0.00495922
0.00478079
0.00462003
0.00447736
0.00435187
0.00424191
0.00414556
0.00406096
0.00398656
0.00392096
0.00386279
0.00381094
0.00376429
0.00372211
0.00368371
0.0036486
0.00361654
0.00358724
0.00356033
0.00353552
0.00351271
0.00349182
0.00347266
0.003455
0.00343868
0.00342365
0.00340988
0.00339723
0.00338557
0.0033748
0.00336488
0.00335579
0.00334746
0.0033398
0.00333273
0.00332623
0.00332027
0.00331482
0.00330984
0.00330526
0.00330108
0.00329726
0.00329378
0.00329062
0.00328774
0.00328514
0.00328279
0.00328069
0.0032788
0.00327712
0.00327562
0.00327431
0.00327318
0.00327221
0.00327139
0.00327071
0.00327017
0.00326976
0.00326949
0.00326933
0.00326931
0.00326938
0.00326956
0.00326983
0.0032702
0.00327066
0.0032712
0.00327181
0.00327248
0.00327321
0.00327399
0.00327481
0.00327566
0.00327653
0.00327742
0.00327832
0.00327923
0.00328014
0.00328104
0.00328193
0.00328281
0.00328367
0.0032845
0.0032853
0.00328604
0.00328674
0.00328733
0.00328793
0.00328807
0.00328869
-0.000831931
0.000788343
-0.00121946
0.000387527
-0.00139906
0.000179604
-0.00140205
2.98389e-06
-0.00126096
-0.00014109
-0.000964944
-0.000296012
-0.000524487
-0.000440457
-0.000525013
-0.000754951
0.00166096
-0.00111808
0.000750658
-0.00122824
0.000289766
-0.00120009
-2.51743e-05
-0.00105429
-0.000286883
-0.00080876
-0.000541545
-0.000456447
-0.00079277
-0.000981964
-0.000156197
0.00225018
-0.000557936
0.0011524
-0.000717709
0.000449539
-0.000731038
-1.18449e-05
-0.000650845
-0.000367076
-0.000507296
-0.000685094
-0.000303369
-0.000996696
-0.00128582
0.00042966
0.00257866
9.69594e-05
0.0014851
-0.000111092
0.000657591
-0.000205851
8.29144e-05
-0.000222047
-0.000350881
-0.000187707
-0.000719434
-0.000121697
-0.00106271
-0.00140799
0.0008703
0.00276483
0.000617313
0.00173808
0.000395231
0.000879672
0.000239663
0.000238482
0.000137923
-0.000249141
7.01122e-05
-0.000651623
2.21292e-05
-0.00101472
-0.00138632
0.00119706
0.00287795
0.000996735
0.00193841
0.000781886
0.00109452
0.000592639
0.000427729
0.000428777
-8.52789e-05
0.000279857
-0.000502703
0.000137296
-0.000872162
-0.00124949
0.00139125
0.00294685
0.00123796
0.0020917
0.00104155
0.00129093
0.000835841
0.000633434
0.000631639
0.000118923
0.000426462
-0.000297527
0.000215944
-0.000661644
-0.00103401
0.00145065
0.00299259
0.00133258
0.00220978
0.00116183
0.00146168
0.000958537
0.000836731
0.000737528
0.000339933
0.000503661
-6.36598e-05
0.000257023
-0.000415006
-0.000777462
0.00141291
0.00302251
0.00131813
0.00230455
0.00116837
0.00161144
0.000977287
0.00102781
0.000758596
0.000558624
0.000520555
0.000174381
0.000266336
-0.000160788
-0.000511611
0.00130671
0.00303901
0.00123242
0.00237884
0.00110369
0.00174017
0.000930025
0.00120147
0.000724837
0.000763812
0.000498038
0.000401181
0.000254498
8.27511e-05
-0.000257608
0.00116655
0.00304299
0.00111067
0.00243472
0.00100156
0.00184929
0.000848389
0.00135464
0.000663817
0.000948384
0.000456975
0.000608023
0.000233418
0.000306308
-2.46981e-05
0.00101832
0.00303644
0.000977727
0.00247531
0.000885637
0.00194138
0.000752658
0.00148762
0.000590757
0.00111029
0.000407545
0.000791235
0.000209177
0.000504676
0.000183968
0.000878065
0.00302263
0.00084915
0.00250423
0.000772226
0.0020183
0.000657556
0.00160229
0.00051641
0.00125143
0.000355832
0.000951813
0.000181825
0.000678683
0.000365286
0.000753418
0.00300426
0.000733062
0.00252458
0.000668919
0.00208245
0.000570473
0.00170074
0.000448191
0.00137371
0.000308589
0.00109142
0.00015728
0.000829992
0.000522064
0.000646721
0.00298369
0.000631949
0.00253936
0.000578421
0.00213597
0.000494505
0.00178465
0.000388958
0.00147926
0.000267851
0.00121252
0.000136397
0.000961446
0.000657964
0.0005578
0.00296335
0.000545725
0.00255143
0.00050068
0.00218102
0.000429645
0.00185569
0.000338812
0.00157009
0.000233683
0.00131765
0.00011893
0.0010762
0.000776399
0.000485207
0.00294472
0.000474333
0.0025623
0.000435571
0.00221978
0.000374707
0.00191655
0.000296191
0.00164861
0.000204651
0.00140919
0.000103876
0.00117697
0.000879783
0.000425678
0.00292822
0.000415489
0.00257249
0.000381397
0.00225387
0.00032832
0.00196963
0.000259838
0.00171709
0.000179722
0.00148931
9.09941e-05
0.0012657
0.000970288
0.000376156
0.00291397
0.000366468
0.00258218
0.000336078
0.00228426
0.000289225
0.00201648
0.000228944
0.00177737
0.000158393
0.00155986
8.01974e-05
0.0013439
0.00105
0.000335322
0.00290201
0.000325955