/*--------------------------------*- C++ -*----------------------------------*\
| =========                 |                                                 |
| \\      /  F ield         | OpenFOAM: The Open Source CFD Toolbox           |
|  \\    /   O peration     | Version:  v2012                                 |
|   \\  /    A nd           | Website:  www.openfoam.com                      |
|    \\/     M anipulation  |                                                 |
\*---------------------------------------------------------------------------*/
FoamFile
{
    version     2.0;
    format      ascii;
    class       volVectorField;
    location    "0.268";
    object      U.air;
}
// * * * * * * * * * * * * * * * * * * * * * * * * * * * * * * * * * * * * * //

dimensions      [0 1 -1 0 0 0 0];


internalField   nonuniform List<vector> 
1900
(
(39.9676 0.00859688 0)
(39.9239 0.015103 0)
(39.8679 0.0180588 0)
(39.8035 0.0207993 0)
(39.73 0.0237062 0)
(39.6526 0.0267683 0)
(39.5681 0.0297565 0)
(39.4712 0.034433 0)
(39.3801 0.0347839 0)
(39.2118 0.073503 0)
(40.0053 0.0147927 0)
(40.0212 0.0233975 0)
(40.0401 0.0257182 0)
(40.0561 0.0277458 0)
(40.0726 0.0304775 0)
(40.0898 0.0329399 0)
(40.1095 0.0364838 0)
(40.1257 0.0385579 0)
(40.1466 0.0533818 0)
(40.1568 0.0585716 0)
(40.0029 0.00824746 0)
(40.0161 0.0135856 0)
(40.0335 0.0137912 0)
(40.051 0.0145443 0)
(40.0688 0.0163129 0)
(40.0879 0.0182043 0)
(40.1087 0.0208556 0)
(40.1299 0.024805 0)
(40.1543 0.0350813 0)
(40.1844 0.0529455 0)
(40.0018 0.00414496 0)
(40.0132 0.00782145 0)
(40.0301 0.00860527 0)
(40.0479 0.00970547 0)
(40.066 0.0114323 0)
(40.0852 0.0132518 0)
(40.1064 0.0158684 0)
(40.1291 0.0197454 0)
(40.1561 0.0288802 0)
(40.1894 0.0416247 0)
(40.0015 0.001112 0)
(40.012 0.00211927 0)
(40.0285 0.00232728 0)
(40.0464 0.0026624 0)
(40.0645 0.00325309 0)
(40.084 0.00405072 0)
(40.1056 0.00562476 0)
(40.1294 0.00842126 0)
(40.1575 0.0146682 0)
(40.1918 0.0210544 0)
(40.0016 -0.00180292 0)
(40.0122 -0.00371605 0)
(40.0288 -0.00416326 0)
(40.0468 -0.00431399 0)
(40.065 -0.0043608 0)
(40.0846 -0.00401592 0)
(40.1066 -0.00289512 0)
(40.1311 -0.000789724 0)
(40.1597 0.00317612 0)
(40.1936 0.00640825 0)
(40.0019 -0.00486279 0)
(40.0136 -0.00947527 0)
(40.0308 -0.0105123 0)
(40.0489 -0.0114613 0)
(40.0672 -0.0126727 0)
(40.0871 -0.0134371 0)
(40.1094 -0.0134428 0)
(40.1344 -0.0127054 0)
(40.163 -0.0110203 0)
(40.1957 -0.0104531 0)
(40.0032 -0.00926928 0)
(40.0168 -0.0153327 0)
(40.0348 -0.0157394 0)
(40.0527 -0.016477 0)
(40.0709 -0.01804 0)
(40.0911 -0.0194037 0)
(40.1136 -0.0202815 0)
(40.1388 -0.020797 0)
(40.1672 -0.0210301 0)
(40.1987 -0.0225688 0)
(40.0057 -0.0162088 0)
(40.0223 -0.0253699 0)
(40.042 -0.0274341 0)
(40.0582 -0.0288787 0)
(40.0751 -0.0308085 0)
(40.0938 -0.0324197 0)
(40.1145 -0.0335734 0)
(40.1374 -0.0344434 0)
(40.1628 -0.0352272 0)
(40.1893 -0.0366674 0)
(39.9675 -0.0101412 0)
(39.9214 -0.0185951 0)
(39.8645 -0.0229106 0)
(39.797 -0.0265887 0)
(39.7223 -0.0303253 0)
(39.6428 -0.0339089 0)
(39.5582 -0.0373399 0)
(39.4686 -0.0407417 0)
(39.3739 -0.044104 0)
(39.2741 -0.0480425 0)
(39.1724 -0.0392827 0)
(38.0177 -0.354715 0)
(36.4706 -0.795034 0)
(34.9649 -1.35454 0)
(33.857 -1.88883 0)
(33.1084 -2.33222 0)
(32.5394 -2.60362 0)
(32.0825 -2.66912 0)
(31.6443 -2.56941 0)
(31.2132 -2.34955 0)
(30.7878 -2.07022 0)
(30.3628 -1.7786 0)
(29.953 -1.50931 0)
(29.5502 -1.27302 0)
(29.1567 -1.07501 0)
(28.7761 -0.915319 0)
(28.4118 -0.789282 0)
(28.0663 -0.68922 0)
(27.7411 -0.608683 0)
(27.4404 -0.544778 0)
(27.1678 -0.495062 0)
(26.92 -0.454157 0)
(26.6962 -0.418086 0)
(26.4938 -0.38606 0)
(26.3169 -0.359146 0)
(26.1599 -0.335987 0)
(26.0258 -0.315263 0)
(25.9104 -0.296172 0)
(25.8113 -0.278891 0)
(25.7264 -0.263718 0)
(25.6538 -0.250445 0)
(25.5905 -0.238454 0)
(25.5363 -0.227471 0)
(25.4878 -0.216955 0)
(25.4451 -0.207095 0)
(25.4078 -0.198127 0)
(25.3757 -0.190042 0)
(25.3482 -0.182626 0)
(25.3251 -0.175705 0)
(25.306 -0.169112 0)
(25.2907 -0.162949 0)
(25.2787 -0.157293 0)
(25.2697 -0.152134 0)
(25.263 -0.147335 0)
(25.2584 -0.142757 0)
(25.2557 -0.138248 0)
(25.2547 -0.133911 0)
(25.2551 -0.12986 0)
(25.257 -0.126107 0)
(25.2604 -0.122661 0)
(25.2652 -0.119381 0)
(25.2712 -0.116153 0)
(25.2783 -0.113027 0)
(25.2865 -0.110084 0)
(25.2957 -0.107345 0)
(25.3057 -0.104784 0)
(25.3167 -0.102362 0)
(25.3284 -0.10001 0)
(25.3408 -0.0977047 0)
(25.3537 -0.0954751 0)
(25.367 -0.0933732 0)
(25.3809 -0.0914011 0)
(25.3952 -0.0895476 0)
(25.41 -0.0877539 0)
(25.4251 -0.0860111 0)
(25.4405 -0.0843184 0)
(25.4562 -0.0827049 0)
(25.4721 -0.081167 0)
(25.4882 -0.079706 0)
(25.5045 -0.0782917 0)
(25.5209 -0.0769228 0)
(25.5375 -0.0755849 0)
(25.5541 -0.0742915 0)
(25.5708 -0.0730394 0)
(25.5875 -0.0718369 0)
(25.6042 -0.0706642 0)
(25.6208 -0.0695237 0)
(25.6375 -0.0683927 0)
(25.6539 -0.0672931 0)
(25.6704 -0.0662054 0)
(25.6866 -0.0651542 0)
(25.7028 -0.0641089 0)
(25.7186 -0.0630924 0)
(25.7345 -0.0620704 0)
(25.75 -0.0610737 0)
(25.7655 -0.0600753 0)
(25.7805 -0.0591086 0)
(25.7956 -0.058145 0)
(25.8103 -0.0572157 0)
(25.8249 -0.0562925 0)
(25.8391 -0.0554158 0)
(25.8533 -0.0545543 0)
(25.867 -0.0537833 0)
(25.8809 -0.0530293 0)
(25.8941 -0.0525319 0)
(25.9078 -0.05198 0)
(25.9204 -0.0522652 0)
(25.9349 -0.0520662 0)
(25.9452 -0.0543081 0)
(25.9652 -0.0544218 0)
(40.259 0.20537 0)
(40.4989 0.295873 0)
(40.6487 -0.0460585 0)
(40.4722 -0.66826 0)
(39.9271 -1.33079 0)
(39.098 -1.89413 0)
(38.1065 -2.25376 0)
(37.0576 -2.38364 0)
(36.057 -2.32256 0)
(35.1535 -2.13323 0)
(34.3667 -1.87929 0)
(33.697 -1.61182 0)
(33.1364 -1.36196 0)
(32.6586 -1.14099 0)
(32.2419 -0.953977 0)
(31.8681 -0.802288 0)
(31.5228 -0.682019 0)
(31.1927 -0.585335 0)
(30.8671 -0.506851 0)
(30.5441 -0.445318 0)
(30.2262 -0.398413 0)
(29.9198 -0.361438 0)
(29.6254 -0.330479 0)
(29.3422 -0.304944 0)
(29.0755 -0.285436 0)
(28.828 -0.270494 0)
(28.5988 -0.25775 0)
(28.3884 -0.245986 0)
(28.1952 -0.235436 0)
(28.0205 -0.226453 0)
(27.8615 -0.218462 0)
(27.7177 -0.210817 0)
(27.5867 -0.20325 0)
(27.468 -0.19563 0)
(27.3606 -0.188182 0)
(27.2636 -0.181277 0)
(27.1762 -0.174991 0)
(27.0973 -0.169182 0)
(27.0261 -0.163697 0)
(26.9617 -0.158424 0)
(26.9039 -0.153427 0)
(26.8511 -0.148736 0)
(26.8029 -0.144441 0)
(26.7589 -0.140517 0)
(26.7189 -0.136763 0)
(26.6825 -0.13303 0)
(26.6497 -0.129377 0)
(26.62 -0.125959 0)
(26.5934 -0.122871 0)
(26.5698 -0.120064 0)
(26.5488 -0.117377 0)
(26.5302 -0.114682 0)
(26.5139 -0.11205 0)
(26.4997 -0.109549 0)
(26.4874 -0.107214 0)
(26.4769 -0.105035 0)
(26.4681 -0.102936 0)
(26.4606 -0.100839 0)
(26.4543 -0.0987649 0)
(26.4492 -0.0967562 0)
(26.4452 -0.0948757 0)
(26.4423 -0.0931079 0)
(26.4404 -0.0914667 0)
(26.4395 -0.0898702 0)
(26.4393 -0.0883196 0)
(26.4398 -0.0867572 0)
(26.441 -0.0852625 0)
(26.4428 -0.083838 0)
(26.4451 -0.0824834 0)
(26.448 -0.081165 0)
(26.4512 -0.0798778 0)
(26.4549 -0.0786062 0)
(26.4588 -0.0773642 0)
(26.463 -0.0761535 0)
(26.4674 -0.0749838 0)
(26.4719 -0.0738355 0)
(26.4766 -0.072707 0)
(26.4814 -0.0715802 0)
(26.4863 -0.0704722 0)
(26.4911 -0.0693738 0)
(26.496 -0.068302 0)
(26.5009 -0.0672334 0)
(26.5057 -0.0661869 0)
(26.5106 -0.0651311 0)
(26.5153 -0.0640982 0)
(26.52 -0.0630595 0)
(26.5246 -0.062053 0)
(26.5292 -0.0610448 0)
(26.5336 -0.060073 0)
(26.538 -0.0591022 0)
(26.5423 -0.0581818 0)
(26.5465 -0.0572725 0)
(26.5506 -0.0564599 0)
(26.5547 -0.0556616 0)
(26.5586 -0.0551293 0)
(26.5626 -0.0545475 0)
(26.5663 -0.0548245 0)
(26.5703 -0.0545623 0)
(26.5737 -0.0569856 0)
(26.5795 -0.0567942 0)
(40.2699 0.127743 0)
(40.4561 0.017745 0)
(40.6021 -0.368698 0)
(40.4975 -0.908896 0)
(40.0434 -1.44081 0)
(39.2825 -1.86017 0)
(38.3234 -2.09982 0)
(37.2915 -2.15533 0)
(36.276 -2.06704 0)
(35.3656 -1.88561 0)
(34.5824 -1.6579 0)
(33.9341 -1.42301 0)
(33.4103 -1.20418 0)
(32.9867 -1.00901 0)
(32.644 -0.842229 0)
(32.3687 -0.706395 0)
(32.1466 -0.597471 0)
(31.9599 -0.507404 0)
(31.7951 -0.432368 0)
(31.6483 -0.37328 0)
(31.5147 -0.32825 0)
(31.3854 -0.29228 0)
(31.253 -0.261764 0)
(31.1141 -0.236467 0)
(30.9673 -0.217209 0)
(30.8133 -0.20303 0)
(30.6522 -0.191632 0)
(30.4836 -0.181422 0)
(30.3082 -0.172709 0)
(30.129 -0.166075 0)
(29.9482 -0.161046 0)
(29.7718 -0.156732 0)
(29.5996 -0.152587 0)
(29.4349 -0.148709 0)
(29.2788 -0.145487 0)
(29.1327 -0.142893 0)
(28.997 -0.140618 0)
(28.8713 -0.138431 0)
(28.7546 -0.136186 0)
(28.6461 -0.133831 0)
(28.5453 -0.131511 0)
(28.4517 -0.129204 0)
(28.3649 -0.126833 0)
(28.2844 -0.124443 0)
(28.2097 -0.121988 0)
(28.1401 -0.119415 0)
(28.0756 -0.116834 0)
(28.0159 -0.114424 0)
(27.961 -0.112238 0)
(27.91 -0.110182 0)
(27.8623 -0.108155 0)
(27.8177 -0.106121 0)
(27.7765 -0.104167 0)
(27.7382 -0.102328 0)
(27.7028 -0.10063 0)
(27.6699 -0.0990889 0)
(27.6397 -0.0976163 0)
(27.6116 -0.0960878 0)
(27.5858 -0.0945119 0)
(27.5619 -0.0929633 0)
(27.5399 -0.0915144 0)
(27.5197 -0.0901517 0)
(27.5011 -0.0888207 0)
(27.4835 -0.0874654 0)
(27.4671 -0.0861284 0)
(27.4516 -0.0848091 0)
(27.4373 -0.0835542 0)
(27.4236 -0.0823371 0)
(27.4109 -0.0811792 0)
(27.3987 -0.0800249 0)
(27.3873 -0.0788911 0)
(27.3762 -0.0777387 0)
(27.3658 -0.076608 0)
(27.3556 -0.0754827 0)
(27.3458 -0.0743967 0)
(27.3362 -0.0733076 0)
(27.327 -0.0722368 0)
(27.3179 -0.0711437 0)
(27.3091 -0.0700712 0)
(27.3002 -0.0689904 0)
(27.2917 -0.0679421 0)
(27.2832 -0.066884 0)
(27.2749 -0.0658477 0)
(27.2666 -0.0647957 0)
(27.2585 -0.0637651 0)
(27.2504 -0.0627281 0)
(27.2425 -0.0617207 0)
(27.2346 -0.0607131 0)
(27.2269 -0.0597377 0)
(27.2192 -0.0587668 0)
(27.2116 -0.0578411 0)
(27.2041 -0.0569321 0)
(27.1968 -0.0561138 0)
(27.1894 -0.055316 0)
(27.1823 -0.0547777 0)
(27.1749 -0.0542007 0)
(27.1683 -0.0544651 0)
(27.1605 -0.0542659 0)
(27.1552 -0.0566426 0)
(27.1446 -0.0564505 0)
(40.2634 0.0673393 0)
(40.4034 0.00417044 0)
(40.4966 -0.262169 0)
(40.3657 -0.678569 0)
(39.9156 -1.11199 0)
(39.179 -1.46759 0)
(38.2537 -1.69375 0)
(37.2565 -1.77788 0)
(36.2703 -1.73995 0)
(35.381 -1.6138 0)
(34.6103 -1.43842 0)
(33.9675 -1.24906 0)
(33.4417 -1.06683 0)
(33.0113 -0.900454 0)
(32.6635 -0.75744 0)
(32.3886 -0.641164 0)
(32.169 -0.546616 0)
(31.9846 -0.466191 0)
(31.8286 -0.398897 0)
(31.7037 -0.347135 0)
(31.6065 -0.308114 0)
(31.5232 -0.274813 0)
(31.4442 -0.24392 0)
(31.3738 -0.217914 0)
(31.3179 -0.1985 0)
(31.2703 -0.182892 0)
(31.2231 -0.168383 0)
(31.1731 -0.154504 0)
(31.121 -0.142187 0)
(31.0675 -0.132202 0)
(31.0115 -0.124612 0)
(30.9511 -0.118577 0)
(30.8838 -0.113182 0)
(30.8079 -0.10826 0)
(30.7234 -0.10433 0)
(30.6317 -0.101702 0)
(30.5346 -0.0999737 0)
(30.4329 -0.0986079 0)
(30.3275 -0.0973824 0)
(30.2193 -0.0962514 0)
(30.1093 -0.0952595 0)
(29.9996 -0.0944941 0)
(29.8932 -0.094024 0)
(29.7905 -0.0937092 0)
(29.6914 -0.0933579 0)
(29.5962 -0.0929367 0)
(29.5055 -0.0925335 0)
(29.4198 -0.0922172 0)
(29.3392 -0.0919806 0)
(29.2631 -0.0917068 0)
(29.191 -0.0912376 0)
(29.1225 -0.0905686 0)
(29.0577 -0.0898248 0)
(28.996 -0.0890472 0)
(28.9378 -0.0882704 0)
(28.8823 -0.0875136 0)
(28.8298 -0.0867182 0)
(28.78 -0.0858213 0)
(28.7329 -0.0848514 0)
(28.6883 -0.08387 0)
(28.6462 -0.0829383 0)
(28.6059 -0.0820818 0)
(28.5678 -0.0812483 0)
(28.5311 -0.0803392 0)
(28.4963 -0.079369 0)
(28.4626 -0.078356 0)
(28.4304 -0.0773572 0)
(28.3989 -0.0763709 0)
(28.3686 -0.0754154 0)
(28.3387 -0.0744374 0)
(28.31 -0.0734538 0)
(28.2814 -0.0724327 0)
(28.2537 -0.0714155 0)
(28.2261 -0.0703957 0)
(28.1993 -0.0694023 0)
(28.1726 -0.0684002 0)
(28.1466 -0.0674061 0)
(28.1206 -0.0663887 0)
(28.0953 -0.0653838 0)
(28.07 -0.0643717 0)
(28.0454 -0.0633905 0)
(28.0208 -0.0624021 0)
(27.9969 -0.0614311 0)
(27.973 -0.0604414 0)
(27.9498 -0.0594712 0)
(27.9265 -0.0584923 0)
(27.904 -0.0575437 0)
(27.8815 -0.0565921 0)
(27.8596 -0.0556747 0)
(27.8377 -0.054759 0)
(27.8166 -0.0538902 0)
(27.7954 -0.0530378 0)
(27.775 -0.0522727 0)
(27.7544 -0.0515316 0)
(27.7348 -0.0510349 0)
(27.7145 -0.0505167 0)
(27.6962 -0.0507826 0)
(27.6747 -0.0506781 0)
(27.6601 -0.0528893 0)
(27.6311 -0.053115 0)
(40.2555 0.0314291 0)
(40.3567 -0.0318827 0)
(40.4022 -0.258916 0)
(40.2468 -0.617319 0)
(39.8045 -0.995502 0)
(39.098 -1.30665 0)
(38.2122 -1.50461 0)
(37.2566 -1.57697 0)
(36.3007 -1.54065 0)
(35.4296 -1.42757 0)
(34.6689 -1.27304 0)
(34.0286 -1.10739 0)
(33.4975 -0.947133 0)
(33.0594 -0.80068 0)
(32.7085 -0.676622 0)
(32.4325 -0.576249 0)
(32.2052 -0.491999 0)
(32.0102 -0.419212 0)
(31.8516 -0.360574 0)
(31.7314 -0.317089 0)
(31.6331 -0.282466 0)
(31.5401 -0.250258 0)
(31.4561 -0.221777 0)
(31.3917 -0.200707 0)
(31.3438 -0.185432 0)
(31.3004 -0.171697 0)
(31.2561 -0.157885 0)
(31.2148 -0.145203 0)
(31.1825 -0.135227 0)
(31.1589 -0.127648 0)
(31.139 -0.121163 0)
(31.1182 -0.114713 0)
(31.095 -0.107766 0)
(31.0741 -0.101424 0)
(31.057 -0.0960606 0)
(31.0409 -0.0915665 0)
(31.0242 -0.0877753 0)
(31.0048 -0.0841427 0)
(30.9815 -0.0803678 0)
(30.9543 -0.0767619 0)
(30.9241 -0.0737639 0)
(30.8907 -0.0717012 0)
(30.8536 -0.0704267 0)
(30.8117 -0.0693694 0)
(30.7644 -0.068228 0)
(30.7118 -0.0671834 0)
(30.6543 -0.0665121 0)
(30.593 -0.0662912 0)
(30.5288 -0.0663391 0)
(30.4624 -0.0663824 0)
(30.3943 -0.0663062 0)
(30.325 -0.0661997 0)
(30.255 -0.0661662 0)
(30.1846 -0.0662642 0)
(30.1152 -0.0664752 0)
(30.0465 -0.066714 0)
(29.979 -0.0669365 0)
(29.9121 -0.0670778 0)
(29.8467 -0.0671382 0)
(29.7824 -0.0671463 0)
(29.7199 -0.0671181 0)
(29.6583 -0.0670427 0)
(29.5982 -0.0668704 0)
(29.5393 -0.0665791 0)
(29.4822 -0.0661775 0)
(29.4259 -0.0656799 0)
(29.3712 -0.0651254 0)
(29.317 -0.0645278 0)
(29.2643 -0.0639093 0)
(29.2119 -0.0632255 0)
(29.161 -0.062496 0)
(29.1102 -0.0616947 0)
(29.0609 -0.0608701 0)
(29.0117 -0.0600248 0)
(28.9639 -0.059191 0)
(28.9162 -0.0583363 0)
(28.8699 -0.0574822 0)
(28.8236 -0.0565976 0)
(28.7787 -0.055723 0)
(28.7339 -0.0548426 0)
(28.6904 -0.0539686 0)
(28.647 -0.0530832 0)
(28.6049 -0.0522234 0)
(28.5629 -0.0513564 0)
(28.5223 -0.0505129 0)
(28.4817 -0.0496674 0)
(28.4426 -0.0488531 0)
(28.4035 -0.048039 0)
(28.3658 -0.0472592 0)
(28.3282 -0.0464832 0)
(28.292 -0.0457534 0)
(28.2558 -0.0450425 0)
(28.2211 -0.0444114 0)
(28.1862 -0.0438119 0)
(28.1531 -0.0434231 0)
(28.119 -0.0430503 0)
(28.0883 -0.0433167 0)
(28.0523 -0.0434257 0)
(28.0279 -0.0452805 0)
(27.9796 -0.0464644 0)
(40.2478 0.00636945 0)
(40.3189 -0.0529349 0)
(40.3277 -0.234956 0)
(40.154 -0.518802 0)
(39.7188 -0.818108 0)
(39.0361 -1.06199 0)
(38.1811 -1.21593 0)
(37.2552 -1.27239 0)
(36.3241 -1.2453 0)
(35.4677 -1.1599 0)
(34.7176 -1.04249 0)
(34.0785 -0.913868 0)
(33.5407 -0.786724 0)
(33.0988 -0.670448 0)
(32.7469 -0.572322 0)
(32.4638 -0.49133 0)
(32.2229 -0.42069 0)
(32.02 -0.360211 0)
(31.8647 -0.314688 0)
(31.745 -0.281118 0)
(31.6341 -0.250527 0)
(31.5301 -0.221714 0)
(31.4492 -0.199675 0)
(31.3908 -0.184658 0)
(31.3394 -0.171917 0)
(31.2861 -0.158249 0)
(31.2355 -0.145166 0)
(31.1965 -0.135243 0)
(31.1678 -0.128058 0)
(31.1431 -0.121676 0)
(31.1175 -0.114804 0)
(31.09 -0.107518 0)
(31.0672 -0.101482 0)
(31.0504 -0.0969198 0)
(31.0372 -0.0931023 0)
(31.0247 -0.0895257 0)
(31.0107 -0.0859073 0)
(30.9961 -0.0822983 0)
(30.9842 -0.0790648 0)
(30.975 -0.0761604 0)
(30.9669 -0.073622 0)
(30.9586 -0.0715427 0)
(30.9491 -0.0696592 0)
(30.9384 -0.0675963 0)
(30.9274 -0.0652868 0)
(30.9161 -0.0629728 0)
(30.904 -0.0609673 0)
(30.8904 -0.059365 0)
(30.8743 -0.0580078 0)
(30.8552 -0.0566951 0)
(30.8327 -0.0553433 0)
(30.8069 -0.0540266 0)
(30.7778 -0.0528488 0)
(30.7453 -0.0519396 0)
(30.7089 -0.0512709 0)
(30.6683 -0.0506988 0)
(30.6234 -0.0500955 0)
(30.5744 -0.0495108 0)
(30.5216 -0.048981 0)
(30.4655 -0.0485223 0)
(30.4064 -0.0481106 0)
(30.3444 -0.0477327 0)
(30.2798 -0.0473943 0)
(30.213 -0.0470743 0)
(30.1444 -0.0467302 0)
(30.0747 -0.0463484 0)
(30.0041 -0.045937 0)
(29.933 -0.0455204 0)
(29.8617 -0.0450963 0)
(29.7901 -0.0446482 0)
(29.7191 -0.0441698 0)
(29.648 -0.0436491 0)
(29.5782 -0.0431105 0)
(29.5085 -0.0425538 0)
(29.4403 -0.0420062 0)
(29.3723 -0.0414409 0)
(29.306 -0.0408807 0)
(29.24 -0.0402885 0)
(29.1758 -0.0397029 0)
(29.112 -0.0391062 0)
(29.05 -0.0385514 0)
(28.9885 -0.0379953 0)
(28.929 -0.0374439 0)
(28.8699 -0.0368803 0)
(28.8129 -0.0363277 0)
(28.7563 -0.0357756 0)
(28.7019 -0.0352474 0)
(28.6477 -0.0347237 0)
(28.5959 -0.0342271 0)
(28.5442 -0.0337376 0)
(28.495 -0.033286 0)
(28.4457 -0.0328526 0)
(28.3989 -0.0324834 0)
(28.3518 -0.0321527 0)
(28.3075 -0.0319757 0)
(28.2617 -0.0318703 0)
(28.2208 -0.0321648 0)
(28.1729 -0.0326443 0)
(28.1403 -0.0339058 0)
(28.076 -0.0366339 0)
(40.2419 -0.0161657 0)
(40.2904 -0.0671901 0)
(40.2717 -0.206837 0)
(40.0832 -0.423796 0)
(39.6529 -0.65625 0)
(38.9885 -0.849191 0)
(38.1576 -0.975715 0)
(37.2546 -1.02823 0)
(36.3421 -1.01512 0)
(35.4966 -0.954414 0)
(34.749 -0.865796 0)
(34.1027 -0.764665 0)
(33.5525 -0.662238 0)
(33.1042 -0.570406 0)
(32.7463 -0.493354 0)
(32.4438 -0.425291 0)
(32.1853 -0.364874 0)
(31.9839 -0.317458 0)
(31.828 -0.28206 0)
(31.6872 -0.251029 0)
(31.5566 -0.221958 0)
(31.4518 -0.198907 0)
(31.3722 -0.182795 0)
(31.3003 -0.169592 0)
(31.2271 -0.156063 0)
(31.1595 -0.143082 0)
(31.1048 -0.133124 0)
(31.0596 -0.126084 0)
(31.0166 -0.119879 0)
(30.9718 -0.11305 0)
(30.927 -0.106063 0)
(30.8878 -0.100402 0)
(30.8534 -0.0962302 0)
(30.8207 -0.0926685 0)
(30.7874 -0.088836 0)
(30.7522 -0.0846773 0)
(30.7174 -0.0808667 0)
(30.6846 -0.0778189 0)
(30.6528 -0.0752172 0)
(30.6211 -0.072551 0)
(30.5888 -0.069762 0)
(30.5554 -0.0671059 0)
(30.5209 -0.0647318 0)
(30.4862 -0.0625707 0)
(30.4514 -0.0604765 0)
(30.4165 -0.0584306 0)
(30.3812 -0.056524 0)
(30.3449 -0.0547661 0)
(30.3076 -0.0530461 0)
(30.2694 -0.0512875 0)
(30.2306 -0.0494972 0)
(30.1915 -0.0477418 0)
(30.1522 -0.04605 0)
(30.1125 -0.0444303 0)
(30.0719 -0.0428069 0)
(30.0304 -0.0411055 0)
(29.9881 -0.0393663 0)
(29.945 -0.0376876 0)
(29.9012 -0.0361071 0)
(29.8567 -0.0345992 0)
(29.8112 -0.0331233 0)
(29.7643 -0.0316825 0)
(29.7161 -0.0303215 0)
(29.6665 -0.0290562 0)
(29.6157 -0.0278752 0)
(29.5635 -0.0267677 0)
(29.5101 -0.0257362 0)
(29.4555 -0.0247939 0)
(29.3996 -0.0239288 0)
(29.3426 -0.0231533 0)
(29.2847 -0.0224557 0)
(29.226 -0.0218261 0)
(29.1667 -0.0212572 0)
(29.107 -0.0207435 0)
(29.047 -0.0202906 0)
(28.9868 -0.019887 0)
(28.9267 -0.0195318 0)
(28.8665 -0.0192042 0)
(28.8071 -0.018911 0)
(28.7476 -0.0186458 0)
(28.6893 -0.0184116 0)
(28.6309 -0.0182017 0)
(28.5741 -0.0180203 0)
(28.5173 -0.0178616 0)
(28.4623 -0.0177239 0)
(28.4074 -0.0176069 0)
(28.3544 -0.0175115 0)
(28.3016 -0.0174345 0)
(28.2508 -0.0173735 0)
(28.2001 -0.0173264 0)
(28.1515 -0.0172979 0)
(28.1029 -0.0172852 0)
(28.0564 -0.0173062 0)
(28.0097 -0.0173682 0)
(27.9654 -0.0175029 0)
(27.9196 -0.0177728 0)
(27.8784 -0.0181375 0)
(27.8297 -0.0191002 0)
(27.7968 -0.0196137 0)
(27.7301 -0.024158 0)
(40.2386 -0.0300089 0)
(40.2709 -0.0704532 0)
(40.2318 -0.171527 0)
(40.0308 -0.327113 0)
(39.6008 -0.494848 0)
(38.9444 -0.634489 0)
(38.1222 -0.726413 0)
(37.2227 -0.76508 0)
(36.3069 -0.757404 0)
(35.4528 -0.717568 0)
(34.6848 -0.656646 0)
(34.008 -0.584728 0)
(33.438 -0.513507 0)
(32.9681 -0.449568 0)
(32.5664 -0.391691 0)
(32.2238 -0.339697 0)
(31.9436 -0.296477 0)
(31.7131 -0.262411 0)
(31.5065 -0.233692 0)
(31.3201 -0.208024 0)
(31.1606 -0.186397 0)
(31.024 -0.169928 0)
(30.8965 -0.156888 0)
(30.7735 -0.144823 0)
(30.6597 -0.133312 0)
(30.5573 -0.123458 0)
(30.4617 -0.115777 0)
(30.3675 -0.10942 0)
(30.2742 -0.103055 0)
(30.1846 -0.0964545 0)
(30.0997 -0.0905131 0)
(30.0176 -0.0857586 0)
(29.9359 -0.0818234 0)
(29.8543 -0.0779759 0)
(29.7737 -0.0737909 0)
(29.6952 -0.0696694 0)
(29.6184 -0.0662227 0)
(29.5423 -0.0634035 0)
(29.4663 -0.0607494 0)
(29.3909 -0.0579248 0)
(29.3166 -0.0550042 0)
(29.2437 -0.0523247 0)
(29.1717 -0.0500687 0)
(29.1004 -0.0480708 0)
(29.0299 -0.0460621 0)
(28.9605 -0.0439866 0)
(28.8923 -0.041958 0)
(28.8252 -0.0400647 0)
(28.7592 -0.0382924 0)
(28.6944 -0.036608 0)
(28.6309 -0.0349881 0)
(28.5689 -0.0334368 0)
(28.5081 -0.0319385 0)
(28.4489 -0.0305013 0)
(28.3909 -0.0291026 0)
(28.3345 -0.0277345 0)
(28.2796 -0.0264151 0)
(28.2266 -0.0251887 0)
(28.1748 -0.0240302 0)
(28.1249 -0.0228965 0)
(28.0763 -0.0217374 0)
(28.0296 -0.0205775 0)
(27.9841 -0.0194546 0)
(27.9406 -0.018398 0)
(27.8982 -0.0173807 0)
(27.8574 -0.0163898 0)
(27.8178 -0.0154103 0)
(27.7796 -0.0144654 0)
(27.7423 -0.0135555 0)
(27.7063 -0.0127054 0)
(27.671 -0.0119306 0)
(27.6368 -0.0112135 0)
(27.6031 -0.0105329 0)
(27.5703 -0.0098969 0)
(27.5379 -0.0093169 0)
(27.5061 -0.00880612 0)
(27.4747 -0.00835704 0)
(27.4436 -0.00797344 0)
(27.4129 -0.00764252 0)
(27.3824 -0.0073659 0)
(27.3522 -0.00714137 0)
(27.322 -0.00696479 0)
(27.2921 -0.00683323 0)
(27.2621 -0.00674269 0)
(27.2323 -0.00668836 0)
(27.2025 -0.00666964 0)
(27.1727 -0.00668384 0)
(27.1429 -0.00672986 0)
(27.1132 -0.00679926 0)
(27.0834 -0.00689319 0)
(27.0537 -0.00700726 0)
(27.024 -0.00714404 0)
(26.9945 -0.00730729 0)
(26.9647 -0.00751264 0)
(26.9355 -0.00772828 0)
(26.9049 -0.00811342 0)
(26.8769 -0.00835658 0)
(26.8424 -0.00948503 0)
(26.8199 -0.00918214 0)
(26.7695 -0.0145936 0)
(40.2229 -0.0441214 0)
(40.2345 -0.0683461 0)
(40.1702 -0.129278 0)
(39.943 -0.223499 0)
(39.4859 -0.326545 0)
(38.7965 -0.413767 0)
(37.9306 -0.472623 0)
(36.9718 -0.498688 0)
(35.9908 -0.496124 0)
(35.0465 -0.47237 0)
(34.1775 -0.433738 0)
(33.4037 -0.388443 0)
(32.7269 -0.343399 0)
(32.1361 -0.301322 0)
(31.6228 -0.263067 0)
(31.1828 -0.230017 0)
(30.8009 -0.202528 0)
(30.4631 -0.179459 0)
(30.159 -0.159383 0)
(29.8878 -0.142344 0)
(29.643 -0.128098 0)
(29.4192 -0.116335 0)
(29.2107 -0.106164 0)
(29.0164 -0.0971554 0)
(28.8369 -0.0893664 0)
(28.6694 -0.0825366 0)
(28.5108 -0.0763744 0)
(28.359 -0.0707288 0)
(28.2145 -0.0655429 0)
(28.0775 -0.0607248 0)
(27.9475 -0.056278 0)
(27.8229 -0.052212 0)
(27.7029 -0.0484663 0)
(27.5873 -0.0449651 0)
(27.4766 -0.0416149 0)
(27.3708 -0.0384719 0)
(27.2695 -0.0356359 0)
(27.1719 -0.0330427 0)
(27.0776 -0.0305837 0)
(26.987 -0.0282117 0)
(26.9001 -0.0259596 0)
(26.817 -0.0239123 0)
(26.737 -0.022079 0)
(26.66 -0.0203802 0)
(26.5857 -0.0187298 0)
(26.5145 -0.0171435 0)
(26.446 -0.0156847 0)
(26.3804 -0.0143791 0)
(26.3172 -0.0131813 0)
(26.2567 -0.012051 0)
(26.1983 -0.0109714 0)
(26.1426 -0.00996287 0)
(26.0889 -0.00903085 0)
(26.0377 -0.00817867 0)
(25.9883 -0.00738436 0)
(25.9413 -0.00662282 0)
(25.8962 -0.00588698 0)
(25.8535 -0.005199 0)
(25.8124 -0.0045619 0)
(25.7734 -0.00396281 0)
(25.7361 -0.00337894 0)
(25.701 -0.00281882 0)
(25.6674 -0.00229679 0)
(25.6359 -0.00182049 0)
(25.6058 -0.00137339 0)
(25.5776 -0.000946947 0)
(25.5507 -0.000537201 0)
(25.5255 -0.000153515 0)
(25.5015 0.000201271 0)
(25.4792 0.000525832 0)
(25.4577 0.000836809 0)
(25.4376 0.0010702 0)
(25.4184 0.00127129 0)
(25.4002 0.00145565 0)
(25.3827 0.00163132 0)
(25.3662 0.00178099 0)
(25.35 0.00191727 0)
(25.3347 0.00203032 0)
(25.3196 0.00213385 0)
(25.3052 0.00222489 0)
(25.291 0.00230062 0)
(25.2772 0.00235203 0)
(25.2636 0.00239552 0)
(25.2503 0.00243722 0)
(25.2371 0.00247426 0)
(25.224 0.00250497 0)
(25.211 0.00252594 0)
(25.1981 0.00253833 0)
(25.185 0.00253925 0)
(25.172 0.00253255 0)
(25.1588 0.00251223 0)
(25.1455 0.00247953 0)
(25.1321 0.0024267 0)
(25.1184 0.00231785 0)
(25.1048 0.00222383 0)
(25.0899 0.00194253 0)
(25.0767 0.00194544 0)
(25.0582 0.000987247 0)
(25.0479 0.00151927 0)
(25.0178 -0.00294814 0)
(39.1402 -0.0539802 0)
(38.9464 -0.0675466 0)
(38.6586 -0.0934487 0)
(38.1914 -0.131021 0)
(37.4774 -0.172078 0)
(36.5128 -0.207811 0)
(35.3544 -0.233297 0)
(34.0901 -0.246404 0)
(32.7977 -0.248012 0)
(31.5411 -0.240146 0)
(30.3741 -0.22536 0)
(29.3097 -0.206682 0)
(28.3624 -0.186534 0)
(27.526 -0.166251 0)
(26.7956 -0.147177 0)
(26.1542 -0.130045 0)
(25.5938 -0.114747 0)
(25.0991 -0.100689 0)
(24.666 -0.0882264 0)
(24.281 -0.0775861 0)
(23.9406 -0.0685572 0)
(23.6346 -0.0608276 0)
(23.3585 -0.0542202 0)
(23.1083 -0.0489091 0)
(22.8793 -0.0445064 0)
(22.6703 -0.0403849 0)
(22.4794 -0.0365118 0)
(22.3047 -0.0332688 0)
(22.1434 -0.0306349 0)
(21.995 -0.0281946 0)
(21.8588 -0.0257621 0)
(21.7343 -0.0235344 0)
(21.6196 -0.021716 0)
(21.5137 -0.0202275 0)
(21.4159 -0.0188174 0)
(21.3262 -0.01741 0)
(21.244 -0.0161293 0)
(21.1683 -0.015074 0)
(21.0983 -0.0142034 0)
(21.0339 -0.0133971 0)
(20.9745 -0.0125844 0)
(20.9204 -0.0118148 0)
(20.8706 -0.0111609 0)
(20.8248 -0.0106264 0)
(20.7823 -0.0101418 0)
(20.7436 -0.00966564 0)
(20.708 -0.00920402 0)
(20.6756 -0.00878068 0)
(20.6457 -0.00839772 0)
(20.6185 -0.00804917 0)
(20.5934 -0.00772234 0)
(20.5708 -0.00741689 0)
(20.55 -0.007123 0)
(20.5313 -0.0068432 0)
(20.5141 -0.00657582 0)
(20.4988 -0.00632467 0)
(20.4848 -0.00609012 0)
(20.4725 -0.0058857 0)
(20.4613 -0.00570354 0)
(20.4515 -0.00553425 0)
(20.4426 -0.00535846 0)
(20.4352 -0.00518581 0)
(20.4285 -0.0050176 0)
(20.423 -0.00486649 0)
(20.4182 -0.00471092 0)
(20.4146 -0.00455416 0)
(20.4115 -0.00437012 0)
(20.4095 -0.00418477 0)
(20.4081 -0.00396355 0)
(20.4076 -0.00370395 0)
(20.4077 -0.00352691 0)
(20.4085 -0.00335045 0)
(20.4099 -0.00319807 0)
(20.4119 -0.00305208 0)
(20.4145 -0.00290822 0)
(20.4176 -0.00277342 0)
(20.4213 -0.00264708 0)
(20.4253 -0.00253956 0)
(20.4297 -0.00244161 0)
(20.4344 -0.0023565 0)
(20.4394 -0.00228896 0)
(20.4446 -0.00226224 0)
(20.45 -0.0022538 0)
(20.4555 -0.0022556 0)
(20.4611 -0.00226428 0)
(20.4668 -0.00227863 0)
(20.4724 -0.00229628 0)
(20.4781 -0.00231517 0)
(20.4837 -0.0023373 0)
(20.4892 -0.00235725 0)
(20.4947 -0.00238232 0)
(20.4999 -0.00240505 0)
(20.5052 -0.00243519 0)
(20.5097 -0.00249625 0)
(20.5146 -0.00253996 0)
(20.518 -0.00268043 0)
(20.5227 -0.00262412 0)
(20.524 -0.00322299 0)
(20.5277 -0.00208118 0)
(20.5227 -0.00798306 0)
(1.95437 0.421238 0)
(1.64907 2.05102 0)
(0.910905 2.40128 0)
(0.110915 2.5677 0)
(-0.665574 2.43237 0)
(-1.46651 1.98152 0)
(-2.15367 1.28401 0)
(-2.51272 0.770952 0)
(10.5778 0.318084 0)
(4.36564 1.81698 0)
(1.74411 2.17481 0)
(-0.155018 2.21102 0)
(-2.00006 2.04563 0)
(-3.87731 1.69172 0)
(-5.71493 1.11972 0)
(-6.92409 0.530807 0)
(16.8868 -0.371862 0)
(7.91511 0.751522 0)
(2.86677 1.2142 0)
(-0.390801 1.32793 0)
(-2.9925 1.24932 0)
(-5.40338 1.0588 0)
(-7.85091 0.75371 0)
(-9.97521 0.288393 0)
(20.5479 -1.17077 0)
(11.239 -0.438566 0)
(4.58037 0.0734929 0)
(0.166287 0.31211 0)
(-3.14767 0.393389 0)
(-6.02668 0.379204 0)
(-8.77042 0.303335 0)
(-11.4791 0.0760387 0)
(22.4346 -1.81035 0)
(13.5547 -1.3272 0)
(6.44274 -0.873379 0)
(1.28495 -0.548981 0)
(-2.61863 -0.328239 0)
(-5.86406 -0.179404 0)
(-8.80814 -0.0646638 0)
(-11.7951 -0.0515923 0)
(23.6383 -2.31559 0)
(15.4317 -1.97617 0)
(8.2598 -1.57569 0)
(2.7433 -1.21556 0)
(-1.47202 -0.904727 0)
(-4.91751 -0.6309 0)
(-7.98474 -0.38078 0)
(-11.1055 -0.205936 0)
(24.3329 -2.60593 0)
(16.9013 -2.37076 0)
(10.0266 -2.03617 0)
(4.4423 -1.67069 0)
(0.115671 -1.30549 0)
(-3.37699 -0.946697 0)
(-6.43093 -0.597699 0)
(-9.51232 -0.307157 0)
(24.7682 -2.67801 0)
(17.9672 -2.50943 0)
(11.515 -2.23409 0)
(6.15517 -1.89315 0)
(1.91899 -1.51311 0)
(-1.51044 -1.11238 0)
(-4.49001 -0.712704 0)
(-7.5282 -0.358451 0)
(25.0646 -2.58807 0)
(18.8341 -2.46097 0)
(12.8345 -2.23086 0)
(7.7937 -1.91911 0)
(3.7629 -1.55072 0)
(0.479115 -1.14693 0)
(-2.3746 -0.740312 0)
(-5.32873 -0.369183 0)
(25.2511 -2.38136 0)
(19.5304 -2.28726 0)
(13.9918 -2.09729 0)
(9.31691 -1.82128 0)
(5.53753 -1.48045 0)
(2.42574 -1.09686 0)
(-0.297032 -0.70885 0)
(-3.17826 -0.353642 0)
(25.3304 -2.11382 0)
(20.061 -2.0517 0)
(14.9677 -1.89742 0)
(10.6754 -1.65937 0)
(7.1691 -1.35424 0)
(4.24237 -1.00516 0)
(1.65855 -0.650576 0)
(-1.14555 -0.325744 0)
(25.3127 -1.83516 0)
(20.4566 -1.79905 0)
(15.8045 -1.67508 0)
(11.8633 -1.47223 0)
(8.60655 -1.20348 0)
(5.86486 -0.895301 0)
(3.41663 -0.580452 0)
(0.697018 -0.291713 0)
(25.2217 -1.57406 0)
(20.7376 -1.55794 0)
(16.5021 -1.45906 0)
(12.8899 -1.2863 0)
(9.86459 -1.05223 0)
(7.29292 -0.782697 0)
(4.96285 -0.504845 0)
(2.30894 -0.250368 0)
(25.0839 -1.34494 0)
(20.9389 -1.34153 0)
(17.0855 -1.26287 0)
(13.7725 -1.11622 0)
(10.9567 -0.91354 0)
(8.53864 -0.679449 0)
(6.31455 -0.436077 0)
(3.71822 -0.214299 0)
(24.9171 -1.15044 0)
(21.0781 -1.15489 0)
(17.5721 -1.09157 0)
(14.5311 -0.966837 0)
(11.9027 -0.792609 0)
(9.61999 -0.590036 0)
(7.48724 -0.37733 0)
(4.93595 -0.184443 0)
(24.7431 -0.990529 0)
(21.1863 -0.996854 0)
(17.9782 -0.945159 0)
(15.1713 -0.838333 0)
(12.7158 -0.68967 0)
(10.5573 -0.514591 0)
(8.50738 -0.327796 0)
(5.99389 -0.161599 0)
(24.5806 -0.86175 0)
(21.281 -0.866885 0)
(18.3233 -0.822364 0)
(15.7146 -0.730069 0)
(13.4159 -0.602457 0)
(11.3715 -0.450341 0)
(9.39989 -0.284162 0)
(6.91574 -0.145751 0)
(24.4343 -0.75656 0)
(21.3685 -0.760216 0)
(18.6245 -0.72014 0)
(16.1855 -0.639432 0)
(14.0239 -0.528458 0)
(12.0823 -0.39529 0)
(10.1867 -0.247034 0)
(7.71807 -0.131361 0)
(24.3062 -0.669228 0)
(21.451 -0.671357 0)
(18.8913 -0.634778 0)
(16.5988 -0.563332 0)
(14.5565 -0.465727 0)
(12.706 -0.348423 0)
(10.8783 -0.216975 0)
(8.42443 -0.11597 0)
(24.1974 -0.597272 0)
(21.5299 -0.597989 0)
(19.1306 -0.564104 0)
(16.9656 -0.500113 0)
(15.0276 -0.413275 0)
(13.2571 -0.309036 0)
(11.4891 -0.192249 0)
(9.04788 -0.102178 0)
(24.1079 -0.538802 0)
(21.6076 -0.538545 0)
(19.3485 -0.506594 0)
(17.2962 -0.448791 0)
(15.4495 -0.370592 0)
(13.7491 -0.276861 0)
(12.0333 -0.172089 0)
(9.60242 -0.0907409 0)
(24.0339 -0.490228 0)
(21.6842 -0.489326 0)
(19.5462 -0.459311 0)
(17.5963 -0.40672 0)
(15.8314 -0.335665 0)
(14.1935 -0.250553 0)
(12.5237 -0.155591 0)
(10.101 -0.0813894 0)
(23.9718 -0.448299 0)
(21.7581 -0.446692 0)
(19.7279 -0.41862 0)
(17.8704 -0.370448 0)
(16.1794 -0.305559 0)
(14.5977 -0.227899 0)
(12.969 -0.141342 0)
(10.5529 -0.0734359 0)
(23.9206 -0.411494 0)
(21.8295 -0.408996 0)
(19.8962 -0.382841 0)
(18.1218 -0.338541 0)
(16.4975 -0.279075 0)
(14.9666 -0.207978 0)
(13.3747 -0.128775 0)
(10.9636 -0.0665713 0)
(23.8796 -0.380178 0)
(21.8974 -0.376864 0)
(20.0519 -0.352186 0)
(18.353 -0.311123 0)
(16.7895 -0.256295 0)
(15.3049 -0.190853 0)
(13.7462 -0.117975 0)
(11.3386 -0.0607646 0)
(23.8483 -0.353968 0)
(21.9653 -0.349393 0)
(20.1991 -0.326283 0)
(18.5682 -0.287943 0)
(17.0596 -0.236977 0)