/*--------------------------------*- C++ -*----------------------------------*\
| =========                 |                                                 |
| \\      /  F ield         | OpenFOAM: The Open Source CFD Toolbox           |
|  \\    /   O peration     | Version:  v2012                                 |
|   \\  /    A nd           | Website:  www.openfoam.com                      |
|    \\/     M anipulation  |                                                 |
\*---------------------------------------------------------------------------*/
FoamFile
{
    version     2.0;
    format      ascii;
    class       surfaceScalarField;
    location    "0.323";
    object      phi.air;
}
// * * * * * * * * * * * * * * * * * * * * * * * * * * * * * * * * * * * * * //

dimensions      [0 3 -1 0 0 0 0];
oriented        oriented;


internalField   nonuniform List<scalar> 
3672
(
0.0064006
7.14517e-06
0.00639136
8.99623e-06
0.00638142
9.68684e-06
0.00637056
1.06126e-05
0.0063586
1.17119e-05
0.00634559
1.27593e-05
0.00633129
1.40467e-05
0.00631578
1.52582e-05
0.00629637
1.91628e-05
2.80585e-05
0.00626806
0.00641089
4.26003e-06
0.00641309
6.79313e-06
0.00641555
7.2261e-06
0.00641823
7.93235e-06
0.00642104
8.90607e-06
0.00642399
9.8076e-06
0.00642694
1.10891e-05
0.00642967
1.25285e-05
0.00643129
1.75455e-05
2.48537e-05
0.0064345
0.00640988
2.38202e-06
0.00641223
4.44505e-06
0.00641473
4.71802e-06
0.00641752
5.14462e-06
0.00642056
5.87155e-06
0.00642375
6.60995e-06
0.00642716
7.68595e-06
0.00643042
9.26281e-06
0.0064346
1.33659e-05
1.8425e-05
0.00644103
0.00640936
1.0263e-06
0.00641175
2.05189e-06
0.00641429
2.17918e-06
0.00641704
2.39546e-06
0.00642008
2.82902e-06
0.00642335
3.34014e-06
0.00642686
4.1794e-06
0.00643058
5.54008e-06
0.00643542
8.52209e-06
1.19254e-05
0.00644192
0.00640916
-1.33129e-07
0.00641153
-3.17988e-07
0.00641408
-3.68048e-07
0.0064168
-3.30658e-07
0.00641985
-2.20073e-07
0.00642318
1.20088e-08
0.0064268
5.59746e-07
0.0064308
1.54158e-06
0.00643581
3.50707e-06
5.35649e-06
0.00644238
0.00640918
-1.30997e-06
0.00641156
-2.70308e-06
0.00641412
-2.92489e-06
0.00641686
-3.07022e-06
0.00641993
-3.29409e-06
0.00642331
-3.36794e-06
0.00642702
-3.15054e-06
0.00643117
-2.6108e-06
0.00643623
-1.55005e-06
-9.18195e-07
0.00644251
0.00640941
-2.72028e-06
0.00641185
-5.1427e-06
0.00641442
-5.49271e-06
0.00641721
-5.85951e-06
0.00642032
-6.40729e-06
0.00642374
-6.78915e-06
0.00642751
-6.92237e-06
0.00643175
-6.8458e-06
0.00643674
-6.54489e-06
-6.74829e-06
0.00644257
0.00640999
-4.70719e-06
0.0064124
-7.5559e-06
0.00641495
-8.04444e-06
0.00641781
-8.71402e-06
0.00642095
-9.55364e-06
0.0064244
-1.02353e-05
0.00642821
-1.0735e-05
0.00643249
-1.11202e-05
0.00643739
-1.14533e-05
-1.21458e-05
0.00644279
0.00641105
-7.76188e-06
0.00641334
-9.83864e-06
0.00641585
-1.05521e-05
0.00641858
-1.14513e-05
0.00642152
-1.24901e-05
0.00642469
-1.34058e-05
0.00642817
-1.42168e-05
0.00643204
-1.49858e-05
0.00643631
-1.57293e-05
-1.68101e-05
0.00644098
0.00640049
0.0063909
0.0063806
0.0063694
0.00635716
0.006344
0.00633004
0.0063153
0.00629982
0.00628326
0.00618912
0.000122524
-4.35879e-05
0.00598884
8.26129e-05
0.000117663
0.00572442
-0.000168605
0.000433026
0.00550756
-0.000541274
0.000758141
0.00535911
-0.000908017
0.00105647
0.00525264
-0.00120371
0.00131018
0.0051718
-0.00137929
0.00146013
0.00510269
-0.00142732
0.00149644
0.00503456
-0.00137476
0.00144289
0.00496658
-0.00125502
0.001323
0.00489902
-0.00110294
0.0011705
0.00483231
-0.000945551
0.00101226
0.00476694
-0.000798731
0.000864101
0.00470298
-0.0006704
0.000734366
0.00464103
-0.000564381
0.000626328
0.00458134
-0.000478636
0.000538328
0.00452414
-0.000409391
0.000466593
0.00447017
-0.000354249
0.000408214
0.00442019
-0.000311561
0.000361538
0.00437445
-0.000278455
0.000324197
0.0043326
-0.000251278
0.000293134
0.00429455
-0.000228233
0.000266278
0.00426045
-0.000209454
0.000243554
0.00423027
-0.000194567
0.000224748
0.00420356
-0.000182136
0.000208847
0.00418012
-0.00017092
0.000194355
0.00416003
-0.000160857
0.000180953
0.00414287
-0.000152126
0.000169282
0.00412819
-0.000144681
0.000159365
0.00411559
-0.00013803
0.000150628
0.0041047
-0.000131802
0.000142689
0.00409527
-0.000125892
0.000135323
0.00408703
-0.00012035
0.000128591
0.00407972
-0.000115164
0.000122474
0.00407331
-0.000110489
0.0001169
0.00406776
-0.000106237
0.000111787
0.00406299
-0.000102238
0.000107005
0.00405895
-9.84194e-05
0.000102468
0.00405556
-9.48526e-05
9.82356e-05
0.00405279
-9.15846e-05
9.43562e-05
0.0040506
-8.86389e-05
9.0832e-05
0.00404893
-8.59402e-05
8.76112e-05
0.00404768
-8.33577e-05
8.46028e-05
0.00404678
-8.08018e-05
8.1704e-05
0.00404618
-7.83061e-05
7.89029e-05
0.00404587
-7.59636e-05
7.62774e-05
0.00404582
-7.38433e-05
7.3893e-05
0.00404602
-7.18693e-05
7.16685e-05
0.00404646
-6.99609e-05
6.95226e-05
0.00404711
-6.80886e-05
6.74317e-05
0.00404797
-6.62911e-05
6.5435e-05
0.00404901
-6.46111e-05
6.35707e-05
0.00405023
-6.30662e-05
6.18472e-05
0.00405162
-6.162e-05
6.02289e-05
0.00405317
-6.02248e-05
5.86748e-05
0.00405486
-5.88587e-05
5.71658e-05
0.00405668
-5.75287e-05
5.57135e-05
0.0040586
-5.62482e-05
5.43293e-05
0.00406061
-5.50469e-05
5.3033e-05
0.00406272
-5.39229e-05
5.1817e-05
0.00406491
-5.28502e-05
5.06601e-05
0.00406717
-5.17931e-05
4.95294e-05
0.0040695
-5.07687e-05
4.84386e-05
0.00407189
-4.97816e-05
4.73932e-05
0.00407433
-4.88563e-05
4.6414e-05
0.00407682
-4.79671e-05
4.54791e-05
0.00407935
-4.71196e-05
4.45893e-05
0.00408192
-4.62952e-05
4.37272e-05
0.00408452
-4.54958e-05
4.28965e-05
0.00408714
-4.47118e-05
4.20884e-05
0.00408978
-4.39572e-05
4.13154e-05
0.00409244
-4.32282e-05
4.05721e-05
0.00409511
-4.25306e-05
3.98634e-05
0.00409778
-4.18494e-05
3.91754e-05
0.00410046
-4.11854e-05
3.85088e-05
0.00410313
-4.05252e-05
3.78539e-05
0.00410579
-3.98823e-05
3.72193e-05
0.00410844
-3.9248e-05
3.6598e-05
0.00411108
-3.86355e-05
3.60004e-05
0.00411369
-3.80272e-05
3.54112e-05
0.00411629
-3.74332e-05
3.4839e-05
0.00411886
-3.68368e-05
3.42681e-05
0.0041214
-3.62549e-05
3.37139e-05
0.00412391
-3.56715e-05
3.31603e-05
0.00412639
-3.51043e-05
3.26237e-05
0.00412884
-3.45355e-05
3.20874e-05
0.00413125
-3.39827e-05
3.15677e-05
0.00413363
-3.34288e-05
3.10487e-05
0.00413598
-3.28939e-05
3.05486e-05
0.00413829
-3.23626e-05
3.00531e-05
0.00414056
-3.18589e-05
2.95845e-05
0.0041428
-3.13636e-05
2.91244e-05
0.00414501
-3.09196e-05
2.87133e-05
0.00414718
-3.04844e-05
2.83108e-05
0.00414933
-3.01955e-05
2.80475e-05
0.00415145
-2.98774e-05
2.77543e-05
0.00415358
-3.00395e-05
2.79135e-05
0.00415568
-2.99108e-05
2.78111e-05
0.00415787
-3.12142e-05
2.90194e-05
-3.11764e-05
2.92145e-05
0.00647836
7.86561e-05
0.00651174
4.92387e-05
0.00650174
-0.000158607
0.0064363
-0.00047583
0.00632498
-0.000796698
0.00617908
-0.00105782
0.00601661
-0.00121682
0.00585465
-0.00126536
0.00570346
-0.00122357
0.00556868
-0.00112025
0.00545271
-0.000986973
0.0053544
-0.000847239
0.00527085
-0.00071518
0.00519898
-0.000598531
0.0051358
-0.000501208
0.00507834
-0.000421169
0.00502387
-0.000354928
0.00497091
-0.000301287
0.00491908
-0.000259726
0.00486814
-0.000227513
0.00481803
-0.000201169
0.00476943
-0.000179635
0.00472307
-0.000163093
0.00467936
-0.000150862
0.00463837
-0.000141143
0.00460004
-0.000132589
0.00456458
-0.000125399
0.00453222
-0.000119765
0.00450286
-0.000115322
0.00447623
-0.000111402
0.00445198
-0.000107549
0.00442989
-0.000103801
0.00440984
-0.000100304
0.00439175
-9.70773e-05
0.00437543
-9.41659e-05
0.00436068
-9.14824e-05
0.00434733
-8.88904e-05
0.00433527
-8.63644e-05
0.0043244
-8.39804e-05
0.00431462
-8.18011e-05
0.00430578
-7.97987e-05
0.00429771
-7.78671e-05
0.00429032
-7.59707e-05
0.00428358
-7.40629e-05
0.00427745
-7.2176e-05
0.0042719
-7.04126e-05
0.0042669
-6.88402e-05
0.0042624
-6.73777e-05
0.00425838
-6.594e-05
0.0042548
-6.45097e-05
0.00425163
-6.31169e-05
0.00424883
-6.18087e-05
0.00424638
-6.06175e-05
0.00424426
-5.94993e-05
0.00424245
-5.84129e-05
0.00424091
-5.7322e-05
0.0042396
-5.62163e-05
0.00423848
-5.5135e-05
0.00423757
-5.41299e-05
0.00423684
-5.31967e-05
0.00423629
-5.23014e-05
0.00423591
-5.14108e-05
0.00423568
-5.05428e-05
0.00423559
-4.96897e-05
0.00423562
-4.88824e-05
0.00423575
-4.81015e-05
0.00423599
-4.73584e-05
0.00423632
-4.66286e-05
0.00423674
-4.59136e-05
0.00423723
-4.52001e-05
0.00423778
-4.45074e-05
0.00423838
-4.38309e-05
0.00423903
-4.318e-05
0.00423972
-4.25374e-05
0.00424044
-4.19044e-05
0.00424118
-4.12672e-05
0.00424194
-4.06413e-05
0.00424271
-4.00189e-05
0.00424349
-3.94143e-05
0.00424427
-3.88098e-05
0.00424506
-3.82163e-05
0.00424583
-3.76159e-05
0.00424661
-3.7028e-05
0.00424737
-3.64363e-05
0.00424813
-3.58601e-05
0.00424887
-3.52805e-05
0.00424961
-3.47164e-05
0.00425033
-3.41497e-05
0.00425104
-3.36019e-05
0.00425173
-3.30568e-05
0.00425241
-3.25396e-05
0.00425308
-3.20305e-05
0.00425373
-3.15736e-05
0.00425437
-3.11256e-05
0.004255
-3.0825e-05
0.00425563
-3.05006e-05
0.00425624
-3.0651e-05
0.00425686
-3.05289e-05
0.00425752
-3.1883e-05
-3.17341e-05
0.00647001
4.96757e-05
0.00650349
1.57557e-05
0.00650081
-0.000155926
0.00644848
-0.000423501
0.00634924
-0.000697458
0.00621162
-0.000920192
0.00605285
-0.00105805
0.00589069
-0.0011032
0.00573783
-0.0010707
0.0056029
-0.000985317
0.00548899
-0.000873066
0.00539515
-0.0007534
0.00531879
-0.000638814
0.00525752
-0.00053726
0.00520849
-0.000452183
0.00516851
-0.000381185
0.00513497
-0.000321387
0.00510651
-0.000272827
0.00508208
-0.000235302
0.00506002
-0.00020545
0.00503869
-0.000179839
0.00501721
-0.000158151
0.00499523
-0.000141122
0.00497258
-0.00012821
0.00494887
-0.000117428
0.00492374
-0.00010746
0.0048971
-9.8764e-05
0.00486931
-9.19757e-05
0.00484087
-8.68749e-05
0.00481221
-8.27461e-05
0.00478372
-7.90596e-05
0.00475568
-7.57541e-05
0.00472855
-7.31754e-05
0.00470288
-7.14089e-05
0.00467882
-7.01033e-05
0.00465632
-6.89857e-05
0.00463533
-6.79042e-05
0.00461581
-6.6846e-05
0.00459772
-6.58841e-05
0.00458098
-6.50612e-05
0.00456547
-6.42943e-05
0.00455106
-6.34565e-05
0.00453764
-6.25501e-05
0.00452516
-6.15795e-05
0.00451358
-6.05928e-05
0.00450286
-5.96997e-05
0.00449295
-5.89316e-05
0.00448378
-5.82053e-05
0.00447527
-5.74295e-05
0.00446734
-5.65818e-05
0.00445996
-5.57303e-05
0.0044531
-5.49468e-05
0.00444673
-5.42504e-05
0.00444082
-5.35933e-05
0.00443536
-5.29479e-05
0.0044303
-5.2269e-05
0.00442563
-5.15427e-05
0.00442131
-5.08155e-05
0.00441733
-5.01459e-05
0.00441366
-4.95261e-05
0.00441028
-4.89236e-05
0.00440717
-4.82991e-05
0.00440427
-4.76413e-05
0.00440155
-4.69691e-05
0.00439899
-4.6328e-05
0.0043966
-4.57077e-05
0.00439435
-4.51157e-05
0.00439225
-4.45194e-05
0.00439025
-4.39227e-05
0.00438836
-4.3309e-05
0.00438656
-4.27053e-05
0.00438484
-4.21056e-05
0.00438318
-4.15234e-05
0.00438158
-4.09389e-05
0.00438003
-4.03561e-05
0.00437853
-3.97604e-05
0.00437706
-3.9171e-05
0.00437562
-3.85793e-05
0.0043742
-3.80024e-05
0.00437282
-3.74212e-05
0.00437145
-3.68495e-05
0.0043701
-3.62682e-05
0.00436877
-3.56983e-05
0.00436746
-3.51234e-05
0.00436616
-3.45635e-05
0.00436488
-3.39997e-05
0.00436362
-3.3451e-05
0.00436236
-3.28993e-05
0.00436113
-3.23664e-05
0.00435991
-3.18363e-05
0.0043587
-3.13336e-05
0.00435751
-3.08398e-05
0.00435633
-3.03961e-05
0.00435517
-2.99636e-05
0.00435402
-2.96737e-05
0.00435289
-2.93653e-05
0.00435176
-2.95208e-05
0.00435065
-2.9424e-05
0.0043495
-3.07296e-05
-3.06857e-05
0.0064645
2.71008e-05
0.00648861
-8.35575e-06
0.00648172
-0.000149035
0.00642849
-0.000370269
0.00633104
-0.000600009
0.00619798
-0.00078714
0.00604461
-0.000904682
0.00588732
-0.000945915
0.00573858
-0.00092196
0.00560646
-0.000853197
0.00549383
-0.000760436
0.00539994
-0.000659505
0.00532308
-0.000561957
0.00526146
-0.00047564
0.00521205
-0.000402773
0.00517152
-0.000340652
0.00513806
-0.000287935
0.00511128
-0.000246047
0.00509006
-0.000214078
0.0050722
-0.000187595
0.00505629
-0.000163921
0.00504261
-0.000144471
0.00503173
-0.000130243
0.0050227
-0.000119184
0.00501402
-0.000108749
0.00500537
-9.88091e-05
0.00499717
-9.05599e-05
0.00498937
-8.41806e-05
0.0049815
-7.90008e-05
0.00497308
-7.43235e-05
0.00496367
-6.96487e-05
0.00495303
-6.51212e-05
0.0049412
-6.13451e-05
0.0049283
-5.85074e-05
0.00491442
-5.62242e-05
0.00489955
-5.41186e-05
0.00488371
-5.20645e-05
0.00486703
-5.01608e-05
0.00484975
-4.86079e-05
0.0048322
-4.75058e-05
0.0048147
-4.67957e-05
0.00479751
-4.62644e-05
0.00478071
-4.57562e-05
0.00476443
-4.52985e-05
0.00474883
-4.49912e-05
0.00473402
-4.4885e-05
0.00471999
-4.4902e-05
0.00470668
-4.49027e-05
0.00469407
-4.48135e-05
0.00468213
-4.46448e-05
0.00467086
-4.44553e-05
0.00466021
-4.42963e-05
0.00465011
-4.41553e-05
0.00464052
-4.40056e-05
0.00463141
-4.38307e-05
0.00462274
-4.35995e-05
0.00461453
-4.33348e-05
0.00460678
-4.30648e-05
0.00459945
-4.28146e-05
0.00459249
-4.25751e-05
0.00458589
-4.23185e-05
0.00457961
-4.20184e-05
0.00457362
-4.16547e-05
0.0045679
-4.12465e-05
0.00456241
-4.08354e-05
0.00455712
-4.04238e-05
0.00455202
-4.00118e-05
0.00454707
-3.95725e-05
0.00454226
-3.91108e-05
0.00453756
-3.8611e-05
0.00453297
-3.81084e-05
0.00452846
-3.7598e-05
0.00452403
-3.70973e-05
0.00451968
-3.65853e-05
0.00451539
-3.60697e-05
0.00451117
-3.55352e-05
0.004507
-3.50057e-05
0.00450289
-3.44718e-05
0.00449884
-3.39507e-05
0.00449485
-3.34262e-05
0.00449091
-3.29095e-05
0.00448702
-3.23836e-05
0.00448319
-3.18676e-05
0.00447942
-3.13471e-05
0.00447569
-3.08417e-05
0.00447203
-3.03327e-05
0.00446841
-2.98392e-05
0.00446486
-2.93426e-05
0.00446136
-2.88656e-05
0.00445791
-2.83909e-05
0.00445452
-2.79438e-05
0.00445119
-2.75063e-05
0.00444791
-2.71151e-05
0.00444468
-2.67386e-05
0.0044415
-2.64912e-05
0.00443838
-2.62401e-05
0.00443525
-2.63967e-05
0.00443222
-2.63884e-05
0.00442904
-2.75548e-05
-2.78753e-05
0.00645963
9.85239e-06
0.00647551
-2.42333e-05
0.00646423
-0.000137754
0.00641073
-0.000316772
0.00631603
-0.000505312
0.00618842
-0.000659531
0.00604149
-0.000757748
0.00588975
-0.000794175
0.00574497
-0.00077718
0.00561511
-0.000723338
0.00550311
-0.000648438
0.00540887
-0.000565262
0.00533162
-0.000484703
0.00526953
-0.000413557
0.00521896
-0.000352204
0.00517696
-0.000298652
0.00514295
-0.000253916
0.00511637
-0.00021947
0.00509469
-0.000192393
0.00507542
-0.000168334
0.0050587
-0.000147202
0.00504563
-0.0001314
0.00503548
-0.000120088
0.00502628
-0.000109983
0.00501735
-9.98179e-05
0.00500953
-9.09923e-05
0.00500348
-8.45124e-05
0.00499883
-7.95247e-05
0.00499463
-7.48097e-05
0.00499026
-6.99499e-05
0.00498599
-6.53746e-05
0.00498248
-6.1611e-05
0.00497974
-5.8608e-05
0.00497727
-5.6042e-05
0.00497465
-5.35988e-05
0.00497163
-5.10986e-05
0.00496824
-4.86749e-05
0.00496461
-4.6536e-05
0.00496075
-4.47444e-05
0.00495651
-4.32639e-05
0.00495167
-4.19569e-05
0.00494603
-4.0626e-05
0.00493951
-3.92345e-05
0.00493214
-3.79291e-05
0.00492402
-3.68751e-05
0.00491526
-3.61223e-05
0.00490591
-3.55479e-05
0.00489598
-3.49762e-05
0.00488553
-3.43601e-05
0.00487467
-3.37878e-05
0.00486357
-3.33547e-05
0.00485237
-3.30944e-05
0.00484118
-3.29625e-05
0.00483005
-3.28819e-05
0.00481899
-3.27704e-05
0.00480804
-3.26444e-05
0.00479725
-3.25459e-05
0.00478667
-3.24888e-05
0.00477631
-3.2453e-05
0.00476615
-3.24172e-05
0.00475619
-3.23565e-05
0.00474643
-3.22611e-05
0.00473691
-3.2132e-05
0.00472762
-3.1961e-05
0.00471854
-3.1756e-05
0.00470965
-3.15303e-05
0.00470092
-3.12833e-05
0.00469236
-3.1006e-05
0.00468394
-3.06942e-05
0.00467566
-3.03358e-05
0.00466752
-2.99674e-05
0.00465951
-2.95849e-05
0.00465162
-2.92072e-05
0.00464385
-2.88159e-05
0.0046362
-2.84181e-05
0.00462866
-2.80004e-05
0.00462125
-2.75876e-05
0.00461394
-2.71685e-05
0.00460676
-2.67628e-05
0.00459968
-2.63523e-05
0.00459272
-2.59496e-05
0.00458587
-2.5537e-05
0.00457914
-2.51343e-05
0.00457252
-2.473e-05
0.00456602
-2.43394e-05
0.00455964
-2.3948e-05
0.00455337
-2.35707e-05
0.00454722
-2.31927e-05
0.00454119
-2.28329e-05
0.00453527
-2.24769e-05
0.00452947
-2.21463e-05
0.0045238
-2.18266e-05
0.00451823
-2.15463e-05
0.00451277
-2.12859e-05
0.00450741
-2.11285e-05
0.00450217
-2.09949e-05
0.00449693
-2.11597e-05
0.00449186
-2.13206e-05
0.00448653
-2.22256e-05
-2.32472e-05
0.00645566
-3.30158e-06
0.00646519
-3.37649e-05
0.00645042
-0.000122979
0.00639697
-0.000263323
0.00630461
-0.00041295
0.00618117
-0.000536091
0.00603901
-0.000615596
0.0058915
-0.000646664
0.00575001
-0.000635686
0.00562203
-0.000595355
0.00551049
-0.000536903
0.00541624
-0.000471006
0.00533889
-0.000407361
0.00527588
-0.000350544
0.00522358
-0.000299905
0.00518039
-0.00025546
0.00514627
-0.000219794
0.00511926
-0.000192464
0.00509581
-0.000168942
0.00507501
-0.000147531
0.00505851
-0.000130702
0.00504607
-0.000118962
0.00503514
-0.00010916
0.00502437
-9.92134e-05
0.00501477
-9.02175e-05
0.0050074
-8.36224e-05
0.00500174
-7.88455e-05
0.00499658
-7.43677e-05
0.00499123
-6.9465e-05
0.00498612
-6.48375e-05
0.00498204
-6.12929e-05
0.00497898
-5.85548e-05
0.00497641
-5.603e-05
0.00497377
-5.34084e-05
0.00497096
-5.07865e-05
0.00496839
-4.85242e-05
0.00496639
-4.6681e-05
0.00496483
-4.49724e-05
0.00496339
-4.3307e-05
0.00496185
-4.17216e-05
0.00496015
-4.02577e-05
0.00495848
-3.89523e-05
0.00495694
-3.76964e-05
0.00495544
-3.64267e-05
0.00495384
-3.52781e-05
0.00495201
-3.42976e-05
0.00494985
-3.33829e-05
0.0049473
-3.24291e-05
0.00494437
-3.14331e-05
0.00494106
-3.04718e-05
0.0049373
-2.95971e-05
0.00493301
-2.88078e-05
0.00492811
-2.80595e-05
0.00492254
-2.73072e-05
0.00491629
-2.65208e-05
0.00490939
-2.57476e-05
0.00490188
-2.50351e-05
0.00489378
-2.43909e-05
0.00488511
-2.37816e-05
0.00487589
-2.31928e-05
0.00486615
-2.26239e-05
0.00485598
-2.20876e-05
0.00484544
-2.15922e-05
0.00483461
-2.11319e-05
0.00482356
-2.07007e-05
0.00481233
-2.03015e-05
0.00480097
-1.99303e-05
0.00478955
-1.95819e-05
0.00477809
-1.92387e-05
0.00476667
-1.89139e-05
0.00475531
-1.86008e-05
0.00474403
-1.83091e-05
0.00473285
-1.8031e-05
0.0047218
-1.77619e-05
0.00471089
-1.75048e-05
0.00470013
-1.72426e-05
0.00468953
-1.69931e-05
0.00467911
-1.67404e-05
0.00466885
-1.65095e-05
0.00465878
-1.6278e-05
0.00464889
-1.6061e-05
0.0046392
-1.58428e-05
0.0046297
-1.56341e-05
0.0046204
-1.54309e-05
0.00461129
-1.52383e-05
0.0046024
-1.50521e-05
0.0045937
-1.48754e-05
0.00458522
-1.4704e-05
0.00457693
-1.45437e-05
0.00456884
-1.43915e-05
0.00456095
-1.42553e-05
0.00455325
-1.41294e-05
0.00454574
-1.40309e-05
0.00453841
-1.39553e-05
0.00453122
-1.39427e-05
0.00452421
-1.39885e-05
0.00451723
-1.41739e-05
0.00451049
-1.45794e-05
0.00450335
-1.5087e-05
-1.71159e-05
0.00645273
-1.34585e-05
0.00645752
-3.85543e-05
0.00643989
-0.000105347
0.00638638
-0.000209819
0.00629583
-0.000322398
0.00617559
-0.000415851
0.00603717
-0.000477171
0.00589296
-0.000502454
0.00575377
-0.000496496
0.00562659
-0.000468185
0.00551461
-0.000424918
0.00541953
-0.000375925
0.00534096
-0.000328794
0.00527552
-0.000285103
0.0052207
-0.000245086
0.00517676
-0.00021152
0.00514206
-0.000185094
0.00511239
-0.000162794
0.00508615
-0.000142705
0.00506488
-0.00012626
0.00504833
-0.00011415
0.00503372
-0.000104353
0.00501963
-9.50644e-05
0.00500706
-8.66494e-05
0.00499693
-8.00885e-05
0.00498846
-7.51517e-05
0.00498033
-7.07081e-05
0.00497206
-6.60988e-05
0.00496431
-6.17138e-05
0.00495766
-5.8189e-05
0.00495181
-5.54466e-05
0.00494618
-5.29215e-05
0.00494035
-5.02077e-05
0.00493444
-4.74898e-05
0.00492882
-4.51731e-05
0.0049236
-4.3303e-05
0.00491855
-4.16302e-05
0.00491347
-3.98879e-05
0.00490821
-3.80492e-05
0.0049028
-3.63175e-05
0.0048974
-3.48563e-05
0.00489204
-3.3591e-05
0.00488667
-3.23275e-05
0.00488125
-3.10063e-05
0.00487571
-2.97307e-05
0.00486998
-2.85741e-05
0.0048641
-2.75001e-05
0.00485812
-2.64519e-05
0.0048521
-2.54113e-05
0.00484604
-2.44105e-05
0.0048399
-2.34616e-05
0.00483365
-2.25553e-05
0.00482726
-2.16652e-05
0.00482073
-2.07822e-05
0.00481411
-1.98998e-05
0.00480742
-1.9054e-05
0.00480064
-1.82573e-05
0.00479374
-1.74915e-05
0.00478667
-1.67164e-05
0.00477942
-1.59378e-05
0.00477197
-1.51767e-05
0.00476434
-1.4456e-05
0.00475652
-1.37744e-05
0.00474851
-1.31175e-05
0.00474028
-1.24726e-05
0.00473183
-1.1849e-05
0.00472316
-1.12584e-05
0.00471428
-1.07086e-05
0.00470524
-1.01918e-05
0.00469603
-9.71324e-06
0.00468671
-9.27258e-06
0.00467727
-8.86755e-06
0.00466773
-8.49957e-06
0.00465814
-8.16606e-06
0.0046485
-7.8686e-06
0.00463886
-7.60387e-06
0.00462924
-7.36687e-06
0.00461966
-7.16118e-06
0.00461013
-6.98422e-06
0.00460069
-6.8383e-06
0.00459135
-6.71574e-06
0.00458212
-6.61661e-06
0.00457302
-6.53632e-06
0.00456407
-6.47677e-06
0.00455527
-6.43453e-06
0.00454662
-6.41059e-06
0.00453815
-6.39971e-06
0.00452985
-6.40197e-06
0.00452172
-6.41382e-06
0.00451376
-6.43728e-06
0.00450598
-6.47035e-06
0.00449836
-6.51262e-06
0.0044909
-6.57096e-06
0.0044836
-6.65277e-06
0.00447641
-6.75766e-06
0.00446938
-6.95099e-06
0.00446232
-7.12126e-06
0.00445547
-7.72735e-06
0.00444816
-7.77499e-06
-1.07116e-05
0.0064508
-2.14626e-05
0.00645216
-3.99198e-05
0.00643219
-8.53722e-05
0.00637824
-0.000155876
0.00628837
-0.000232521
0.0061693
-0.000296784
0.00603182
-0.000339688
0.00588776
-0.000358398
0.00574737
-0.000356103
0.00561728
-0.000338092
0.00550218
-0.000309823
0.00540387
-0.000277616
0.00532003
-0.000244957
0.00524875
-0.000213823
0.00518989
-0.000186223
0.00514144
-0.00016307
0.00509969
-0.000143344
0.00506309
-0.00012619
0.00503206
-0.000111678
0.00500573
-9.9931e-05
0.00498183
-9.02422e-05
0.00495942
-8.19511e-05
0.00493909
-7.47303e-05
0.00492098
-6.85413e-05
0.00490421
-6.33209e-05
0.00488791
-5.88465e-05
0.00487203
-5.48337e-05
0.004857
-5.10647e-05
0.00484285
-4.75691e-05
0.00482918
-4.45095e-05
0.0048156
-4.18667e-05
0.00480211
-3.94404e-05
0.00478894
-3.70343e-05
0.00477616
-3.47097e-05
0.00476364
-3.26487e-05
0.00475119
-3.08575e-05
0.00473877
-2.92112e-05
0.00472647
-2.75861e-05
0.00471438
-2.59626e-05
0.00470251
-2.4443e-05
0.00469077
-2.31126e-05
0.00467911
-2.19336e-05
0.00466757
-2.07922e-05
0.00465621
-1.96451e-05
0.00464503
-1.85494e-05
0.00463401
-1.75576e-05
0.00462316
-1.665e-05
0.0046125
-1.57875e-05
0.00460204
-1.49489e-05
0.00459178
-1.41518e-05
0.00458172
-1.3406e-05
0.00457187
-1.27053e-05
0.00456224
-1.20338e-05
0.00455285
-1.13863e-05
0.0045437
-1.07579e-05
0.00453481
-1.01633e-05
0.00452616
-9.60904e-06
0.00451775
-9.08209e-06
0.0045096
-8.5603e-06
0.00450171
-8.04492e-06
0.00449408
-7.54801e-06
0.00448671
-7.08394e-06
0.00447958
-6.64663e-06
0.00447269
-6.22557e-06
0.00446602
-5.80915e-06
0.00445958
-5.40663e-06
0.00445334
-5.02257e-06
0.0044473
-4.66549e-06
0.00444143
-4.32416e-06
0.00443572
-4.00263e-06
0.00443016
-3.70659e-06
0.00442472
-3.42945e-06
0.00441939
-3.17272e-06
0.00441417
-2.93971e-06
0.00440902
-2.72649e-06
0.00440396
-2.53842e-06
0.00439896
-2.36524e-06
0.00439401
-2.21426e-06
0.00438911
-2.08216e-06
0.00438424
-1.97176e-06
0.0043794
-1.87909e-06
0.00437459
-1.80052e-06
0.00436979
-1.7384e-06
0.004365
-1.68923e-06
0.00436022
-1.65605e-06
0.00435545
-1.63624e-06
0.00435068
-1.62985e-06
0.00434591
-1.63393e-06
0.00434115
-1.64952e-06
0.00433639
-1.67585e-06
0.00433163
-1.71331e-06
0.00432688
-1.76284e-06
0.00432213
-1.82446e-06
0.00431739
-1.91327e-06
0.00431264
-1.99987e-06
0.00430788
-2.19234e-06
0.00430301
-2.25825e-06
0.00429815
-2.86575e-06
0.00429293
-2.55763e-06
-5.63636e-06
0.00644653
-2.70128e-05
0.00644397
-3.73618e-05
0.00642001
-6.141e-05
0.00636214
-9.80092e-05
0.00626748
-0.000137856
0.00614211
-0.000171423
0.00599644
-0.000194017
0.00584211
-0.000204066
0.00568908
-0.000203074
0.0055448
-0.000193809
0.00541389
-0.000178914
0.00529744
-0.00016117
0.0051955
-0.000143013
0.00510759
-0.000125911
0.00503184
-0.000110471
0.0049656
-9.68309e-05
0.0049072
-8.49494e-05
0.00485579
-7.47756e-05
0.00481024
-6.61261e-05
0.00476898
-5.86734e-05
0.00473093
-5.21989e-05
0.00469601
-4.70242e-05
0.00466401
-4.27297e-05
0.00463439
-3.89203e-05
0.00460652
-3.545e-05
0.00458009
-3.24174e-05
0.00455509
-2.98334e-05
0.0045315
-2.74781e-05
0.00450915
-2.52182e-05
0.00448777
-2.31311e-05
0.00446722
-2.13198e-05
0.0044475
-1.97171e-05
0.00442866
-1.81919e-05
0.00441067
-1.6719e-05
0.0043934
-1.5382e-05
0.00437675
-1.42114e-05
0.00436071
-1.31657e-05
0.0043453
-1.21766e-05
0.00433055
-1.12116e-05
0.00431641
-1.03073e-05
0.00430281
-9.51003e-06
0.00428969
-8.81387e-06
0.00427706
-8.16353e-06
0.00426494
-7.52746e-06
0.00425332
-6.92662e-06
0.00424215
-6.38935e-06
0.00423141
-5.90795e-06
0.00422108
-5.45966e-06
0.00421117
-5.03279e-06
0.00420165
-4.63419e-06
0.00419251
-4.26901e-06
0.00418374
-3.93483e-06
0.00417533
-3.62299e-06
0.00416727
-3.33029e-06
0.00415957
-3.05293e-06
0.0041522
-2.7959e-06
0.00414516
-2.56303e-06
0.00413842
-2.34978e-06
0.00413201
-2.14431e-06
0.00412591
-1.9458e-06
0.00412012
-1.75743e-06
0.00411462
-1.58679e-06
0.0041094
-1.42948e-06
0.00410446
-1.28128e-06
0.00409978
-1.13411e-06
0.00409537
-9.93173e-07
0.00409121
-8.5724e-07
0.00408727
-7.32342e-07
0.00408356
-6.08522e-07
0.00408004
-4.84095e-07
0.00407671
-3.82624e-07
0.00407356
-2.78316e-07
0.00407057
-1.7891e-07
0.00406772
-8.55874e-08
0.00406499
2.74843e-09
0.00406237
8.1528e-08
0.00405984
1.56442e-07
0.00405741
2.20377e-07
0.00405505
2.77516e-07
0.00405275
3.23943e-07
0.00405051
3.61714e-07
0.00404832
3.94322e-07
0.00404616
4.17956e-07
0.00404404
4.35624e-07
0.00404194
4.4654e-07
0.00403985
4.50822e-07
0.00403777
4.50911e-07
0.00403569
4.48199e-07
0.0040336
4.38897e-07
0.00403149
4.26636e-07
0.00402938
4.04635e-07
0.00402723
3.78606e-07
0.00402507
3.38654e-07
0.00402287
2.88309e-07
0.00402062
2.49403e-07
0.0040183
1.26025e-07
0.00401589
1.51049e-07
0.00401334
-3.1143e-07
0.00401062
1.60068e-07
-2.32774e-06
0.00625665
0.00621968
0.00615866
0.00606105
0.00592359
0.00575257
0.00555895
0.00535529
0.00515263
0.00495924
0.00478074
0.00461999
0.00447741
0.00435192
0.00424189
0.00414549
0.00406097
0.00398664
0.00392095
0.00386272
0.00381096
0.00376438
0.00372209
0.00368362
0.00364862
0.00361665
0.00358726
0.00356023
0.00353546
0.00351278
0.00349191
0.00347264
0.0034549
0.00343864
0.00342371
0.00340995
0.00339723
0.00338551
0.00337475
0.0033649
0.00335584
0.00334748
0.00333977
0.0033327
0.00332623
0.00332029
0.00331484
0.00330983
0.00330526
0.00330108
0.00329726
0.00329378
0.00329061
0.00328774
0.00328514
0.0032828
0.00328069
0.0032788
0.00327711
0.00327562
0.00327432
0.00327318
0.00327221
0.00327138
0.00327071
0.00327017
0.00326977
0.00326949
0.00326934
0.00326931
0.00326938
0.00326956
0.00326983
0.0032702
0.00327066
0.0032712
0.00327181
0.00327248
0.00327322
0.00327399
0.00327481
0.00327566
0.00327653
0.00327742
0.00327832
0.00327923
0.00328014
0.00328104
0.00328193
0.00328281
0.00328367
0.00328451
0.0032853
0.00328604
0.00328674
0.00328733
0.00328793
0.00328807
0.00328869
-0.000831931
0.000788343
-0.00121946
0.000387527
-0.00139906
0.000179604
-0.00140205
2.98389e-06
-0.00126096
-0.00014109
-0.000964944
-0.000296012
-0.000524487
-0.000440457
-0.000525013
-0.000754951
0.00166096
-0.00111808
0.000750658
-0.00122824
0.000289766
-0.00120009
-2.51743e-05
-0.00105429
-0.000286883
-0.00080876
-0.000541545
-0.000456447
-0.00079277
-0.000981964
-0.000156197
0.00225018
-0.000557935
0.0011524
-0.000717708
0.000449539
-0.000731037
-1.18448e-05
-0.000650844
-0.000367076
-0.000507295
-0.000685094
-0.000303369
-0.000996696
-0.00128582
0.00042966
0.00257866
9.6958e-05
0.0014851
-0.000111094
0.000657591
-0.000205853
8.29145e-05
-0.000222049
-0.000350881
-0.000187708
-0.000719434
-0.000121698
-0.00106271
-0.00140799
0.000870297
0.00276483
0.000617311
0.00173808
0.00039523
0.000879672
0.000239664
0.000238481
0.000137924
-0.000249141
7.01129e-05
-0.000651623
2.21298e-05
-0.00101472
-0.00138632
0.00119707
0.00287795
0.000996738
0.00193841
0.000781889
0.00109452
0.000592641
0.000427729
0.000428779
-8.52789e-05
0.000279859
-0.000502703
0.000137297
-0.000872161
-0.00124949
0.00139123
0.00294685
0.00123794
0.0020917
0.00104152
0.00129093
0.000835822
0.000633432
0.000631623
0.00011892
0.000426449
-0.00029753
0.000215937
-0.000661648
-0.00103402
0.00145068
0.0029926
0.00133261
0.00220978
0.00116186
0.00146168
0.000958562
0.000836731
0.000737549
0.000339933
0.000503677
-6.36584e-05
0.000257033
-0.000415004
-0.000777459
0.00141297
0.00302252
0.00131819
0.00230456
0.00116842
0.00161145
0.000977332
0.00102782
0.000758632
0.000558633
0.000520582
0.000174392
0.000266352
-0.000160774
-0.000511592
0.00130655
0.00303897
0.00123229
0.00237882
0.00110357
0.00174016
0.000929925
0.00120147
0.000724753
0.000763806
0.000497972
0.000401173
0.000254458
8.27393e-05
-0.00025763
0.00116651
0.00304297
0.00111063
0.0024347
0.00100151
0.00184927
0.000848357
0.00135463
0.000663794
0.000948369
0.000456961
0.000608006
0.000233414
0.000306285
-2.47231e-05
0.00101873
0.0030365
0.00097806
0.00247537
0.000885914
0.00194142
0.000752891
0.00148765
0.000590946
0.00111031
0.000407687
0.000791265
0.000209258
0.000504714
0.000184024
0.000877979
0.00302262
0.000849091
0.00250425
0.000772182
0.00201833
0.000657519
0.00160231
0.000516379
0.00125145
0.000355806
0.000951838
0.000181806
0.000678714
0.000365324
0.000752807
0.00300418
0.000732545
0.00252452
0.000668489
0.00208238
0.000570119
0.00170068
0.000447909
0.00137366
0.000308382
0.00109137
0.000157162
0.000829934
0.000521984
0.000646794
0.00298371
0.000631999
0.00253931
0.000578459
0.00213592
0.000494533
0.00178461
0.000388979
0.00147922
0.000267868
0.00121248
0.000136411
0.000961391
0.000657897
0.000558592
0.00296345
0.000546406
0.0025515
0.000501245
0.00218109
0.000430105
0.00185575
0.000339173
0.00157015
0.000233945
0.0013177
0.000119076
0.00107626
0.000776479
0.000485331
0.00294471
0.000474453
0.00256237
0.000435675
0.00221986
0.000374799
0.00191663
0.000296268
0.00164868
0.000204707
0.00140927
0.000103903
0.00117706
0.000879891
0.00042481
0.00292811
0.000414742
0.00257244
0.000380782
0.00225382
0.000327825
0.00196958
0.000259452
0.00171705
0.000179445
0.00148927
9.084e-05
0.00126567
0.000970241
0.000375705
0.00291395
0.000366063
0.00258209
0.000335733
0.00228415
0.000288934
0.00201638
0.000228709
0.00177728
0.000158224
0.00155976
8.01075e-05
0.00134378
0.00104986
0.000336054
0.00290209
0.000326577