/*--------------------------------*- C++ -*----------------------------------*\
| =========                 |                                                 |
| \\      /  F ield         | OpenFOAM: The Open Source CFD Toolbox           |
|  \\    /   O peration     | Version:  v2012                                 |
|   \\  /    A nd           | Website:  www.openfoam.com                      |
|    \\/     M anipulation  |                                                 |
\*---------------------------------------------------------------------------*/
FoamFile
{
    version     2.0;
    format      ascii;
    class       vectorField;
    location    "0.143/lagrangian/kinematicCloud";
    object      UCorrect;
}
// * * * * * * * * * * * * * * * * * * * * * * * * * * * * * * * * * * * * * //


54
(
(1.16242e-26 1.5907e-28 0)
(0 0 0)
(0 0 0)
(0 0 0)
(0 0 0)
(0 0 0)
(0 0 0)
(0 0 0)
(0 0 0)
(7.89246e-29 1.74754e-30 0)
(0 0 0)
(8.55669e-29 9.28784e-31 0)
(1.46509e-26 6.61169e-29 0)
(3.71766e-27 1.80841e-27 0)
(2.92328e-29 2.81246e-32 0)
(0 0 0)
(0 0 0)
(0 0 0)
(0 0 0)
(0 0 0)
(0 0 0)
(2.66211e-26 1.01239e-28 0)
(0 0 0)
(1.42804e-26 9.59222e-28 0)
(1.08277e-26 1.7346e-28 0)
(0 0 0)
(0 0 0)
(0 0 0)
(0 0 0)
(0 0 0)
(0 0 0)
(0 0 0)
(-3.40073e-27 -1.08015e-29 0)
(0 0 0)
(0 0 0)
(0 0 0)
(0 0 0)
(1.97824e-27 1.02678e-27 0)
(0 0 0)
(0 0 0)
(-1.04113e-27 2.0632e-27 0)
(0 0 0)
(0 0 0)
(-6.82306e-31 2.60695e-31 0)
(0 0 0)
(-2.30745e-30 4.83358e-31 0)
(0 0 0)
(0 0 0)
(0 0 0)
(0 0 0)
(0 0 0)
(0 0 0)
(0 0 0)
(-3.22454e-27 1.83932e-29 0)
)


// ************************************************************************* //
