/*--------------------------------*- C++ -*----------------------------------*\
| =========                 |                                                 |
| \\      /  F ield         | OpenFOAM: The Open Source CFD Toolbox           |
|  \\    /   O peration     | Version:  v2012                                 |
|   \\  /    A nd           | Website:  www.openfoam.com                      |
|    \\/     M anipulation  |                                                 |
\*---------------------------------------------------------------------------*/
FoamFile
{
    version     2.0;
    format      ascii;
    class       volScalarField;
    location    "0.28";
    object      p;
}
// * * * * * * * * * * * * * * * * * * * * * * * * * * * * * * * * * * * * * //

dimensions      [0 2 -2 0 0 0 0];


internalField   nonuniform List<scalar> 
1900
(
-299.623
-300.722
-301.622
-302.283
-302.96
-303.727
-304.533
-305.361
-305.974
-306.578
-300.077
-300.876
-301.704
-302.38
-303.061
-303.821
-304.632
-305.47
-306.23
-307.05
-300.363
-300.928
-301.696
-302.409
-303.106
-303.867
-304.693
-305.577
-306.47
-307.715
-300.547
-300.991
-301.726
-302.468
-303.178
-303.94
-304.784
-305.709
-306.722
-308.095
-300.645
-301.039
-301.754
-302.506
-303.221
-303.986
-304.848
-305.807
-306.888
-308.277
-300.662
-301.061
-301.781
-302.535
-303.254
-304.027
-304.904
-305.889
-307.004
-308.372
-300.597
-301.056
-301.807
-302.557
-303.277
-304.061
-304.951
-305.952
-307.079
-308.403
-300.445
-301.036
-301.83
-302.557
-303.27
-304.065
-304.969
-305.979
-307.11
-308.391
-300.189
-301.03
-301.891
-302.579
-303.277
-304.077
-304.985
-305.995
-307.118
-308.36
-299.754
-300.929
-301.881
-302.562
-303.26
-304.073
-304.992
-306.009
-307.135
-308.357
-305.92
-318.28
-337.562
-339.208
-320.079
-286.052
-243.02
-198.244
-157.318
-122.529
-94.181
-71.7605
-54.2993
-40.7523
-30.1814
-21.8423
-15.212
-9.87861
-5.51286
-1.88996
1.12457
3.64371
5.78558
7.63174
9.22324
10.5854
11.7525
12.7744
13.6692
14.4481
15.1231
15.7039
16.2036
16.6314
16.9936
17.2999
17.5547
17.7609
17.9249
18.0518
18.1457
18.2093
18.2429
18.2475
18.2255
18.181
18.1168
18.0334
17.9312
17.8111
17.6742
17.5216
17.3552
17.176
16.9842
16.7804
16.5649
16.3382
16.1013
15.855
15.5995
15.3351
15.0619
14.78
14.4897
14.1911
13.885
13.5715
13.2505
12.9221
12.5865
12.2441
11.8949
11.539
11.1764
10.8073
10.4318
10.05
9.66202
9.26807
8.868
8.46222
8.0505
7.63321
7.21018
6.78165
6.34754
5.90807
5.46333
5.01345
4.55857
4.09885
3.63416
3.165
2.69016
2.21245
1.72484
1.24264
0.733538
0.279209
-309.337
-321.606
-333.412
-332.127
-313.079
-280.334
-239.752
-197.437
-158.319
-124.593
-96.67
-74.2438
-56.5659
-42.6955
-31.7814
-23.1292
-16.2273
-10.6629
-6.11188
-2.35367
0.752028
3.34327
5.54981
7.44621
9.07028
10.4596
11.6507
12.6888
13.5924
14.377
15.0559
15.6388
16.1357
16.5605
16.9257
17.2365
17.4948
17.7046
17.8722
18.0027
18.1001
18.1669
18.202
18.2073
18.1861
18.1424
18.0785
17.996
17.8947
17.7756
17.6395
17.4874
17.3214
17.1425
16.9511
16.7477
16.5328
16.3066
16.07
15.824
15.5688
15.3046
15.0319
14.7501
14.4598
14.1614
13.8556
13.5423
13.2215
12.8932
12.5578
12.2154
11.8663
11.5104
11.1479
10.7788
10.4033
10.0215
9.63358
9.23957
8.83948
8.43363
8.02188
7.60453
7.18145
6.75288
6.31876
5.87932
5.43462
4.98484
4.53011
4.07061
3.6064
3.1377
2.66452
2.18743
1.70545
1.22186
0.729553
0.251892
-310.271
-317.92
-326.263
-324.072
-306.103
-275.371
-237.271
-197.127
-159.468
-126.593
-99.0039
-76.5646
-58.6868
-44.5325
-33.3236
-24.4124
-17.2875
-11.5312
-6.82572
-2.95092
0.251915
2.93537
5.22632
7.18561
8.8528
10.2797
11.5115
12.5815
13.5053
14.3029
14.9916
15.5827
16.0832
16.509
16.8778
17.1919
17.4519
17.6626
17.8307
17.9619
18.0588
18.1236
18.1575
18.1626
18.1425
18.1004
18.0383
17.957
17.8569
17.7396
17.6053
17.4548
17.29
17.1118
16.921
16.7175
16.5022
16.2758
16.0394
15.7935
15.5383
15.2743
15.002
14.7206
14.4305
14.1325
13.827
13.5139
13.1933
12.8651
12.5298
12.1875
11.8385
11.4826
11.1201
10.7511
10.3756
9.99373
9.60574
9.21165
8.81151
8.40556
7.99375
7.5763
7.15318
6.72454
6.29041
5.85095
5.4063
4.95659
4.50202
4.04272
3.579
3.11078
2.63928
2.16291
1.68654
1.20186
0.727119
0.223766
-310.492
-316.294
-321.939
-318.557
-301.089
-271.666
-235.203
-196.607
-160.106
-127.984
-100.75
-78.3706
-60.3707
-46.0085
-34.572
-25.4517
-18.139
-12.2204
-7.38785
-3.41728
-0.132371
2.61877
4.95578
6.94443
8.63447
10.08
11.3291
12.4146
13.3507
14.1579
14.8584
15.4656
15.9848
16.4273
16.8082
17.1326
17.4021
17.6213
17.7958
17.9314
18.0293
18.0932
18.127
18.1325
18.113
18.0715
18.0097
17.9281
17.8269
17.7078
17.5724
17.422
17.258
17.0804
16.8902
16.6868
16.4712
16.2449
16.0091
15.7638
15.5092
15.2454
14.9725
14.6908
14.4009
14.1032
13.798
13.485
13.1646
12.8366
12.5015
12.1593
11.8102
11.4544
11.0919
10.7228
10.3473
9.96539
9.57727
9.18311
8.78285
8.37678
7.96486
7.5473
7.12412
6.6954
6.26128
5.82181
5.37724
4.92759
4.47322
4.01413
3.55092
3.08317
2.61338
2.13776
1.66709
1.18109
0.723997
0.196001
-310.518
-314.805
-318.112
-313.455
-296.276
-267.995
-233.033
-195.92
-160.56
-129.163
-102.282
-79.9758
-61.8749
-47.3356
-35.7042
-26.3984
-18.9198
-12.8589
-7.91023
-3.84952
-0.48929
2.32564
4.70858
6.73009
8.44915
9.9208
11.1905
12.2913
13.2409
14.0589
14.7659
15.376
15.8995
16.3465
16.7273
17.0518
17.3229
17.5441
17.7211
17.8597
17.9615
18.0311
18.0718
18.0839
18.0703
18.0339
17.976
17.8976
17.7988
17.6811
17.5467
17.3973
17.2338
17.0566
16.8668
16.6635
16.4478
16.2215
15.9857
15.7401
15.4852
15.2207
14.9463
14.6636
14.3732
14.0752
13.7696
13.4561
13.1353
12.8067
12.4714
12.1288
11.7796
11.4235
11.0608
10.6916
10.316
9.93403
9.54584
9.15164
8.75152
8.34556
7.93371
7.51616
7.09303
6.66434
6.23032
5.79091
5.34651
4.897
4.44289
3.98407
3.52139
3.05421
2.58604
2.11133
1.64591
1.15932
0.718408
0.171099
-310.4
-313.509
-315.041
-309.398
-292.508
-265.228
-231.494
-195.546
-161.049
-130.179
-103.556
-81.2983
-63.1068
-48.4184
-36.6309
-27.174
-19.5558
-13.3788
-8.33911
-4.20469
-0.783796
2.08138
4.50211
6.55128
8.29312
9.78429
11.0698
12.1801
13.1384
13.9647
14.6782
15.2935
15.8224
16.276
16.6622
16.9889
17.2625
17.4872
17.6684
17.8101
17.9136
17.9824
18.0222
18.0342
18.0204
17.9834
17.9247
17.8455
17.7467
17.6298
17.4969
17.3492
17.1873
17.012
16.8239
16.6227
16.4091
16.1846
15.95
15.7056
15.4515
15.1877
14.9141
14.632
14.342
14.0439
13.738
13.4241
13.1028
12.7738
12.4381
12.0952
11.7457
11.3894
11.0265
10.6572
10.2816
9.89959
9.51152
9.11738
8.71738
8.31145
7.89972
7.48226
7.05928
6.63071
6.19686
5.75761
5.31343
4.86414
4.41033
3.95187
3.48973
3.0232
2.55649
2.08291
1.62173
1.13607
0.707818
0.152309
-310.21
-312.446
-312.668
-306.232
-289.501
-262.955
-230.135
-195.076
-161.265
-130.839
-104.469
-82.2824
-64.0485
-49.2682
-37.3712
-27.8043
-20.0789
-13.8079
-8.69902
-4.5095
-1.03647
1.87316
4.32228
6.39033
8.15199
9.66272
10.9623
12.0805
13.0446
13.8799
14.6013
15.2214
15.7551
16.2121
16.6022
16.933
17.2088
17.4347
17.6181
17.7613
17.8666
17.9371
17.978
17.992
17.9803
17.9448
17.8869
17.8083
17.7105
17.5947
17.4622
17.3141
17.1513
16.9749
16.7855
16.5834
16.3691
16.1435
15.9078
15.6624
15.4076
15.1433
14.8695
14.5872
14.2971
13.9991
13.6934
13.3799
13.0591
12.7307
12.3957
12.0535
11.7045
11.3488
10.9865
10.6176
10.2426
9.861
9.47349
9.0797
8.68003
8.27437
7.86301
7.44595
7.02331
6.59512
6.1616
5.72272
5.27885
4.82993
4.37649
3.91844
3.45685
2.99101
2.52545
2.05317
1.5947
1.11178
0.690373
0.143277
-310.014
-311.622
-310.914
-303.872
-287.218
-261.199
-229.052
-194.666
-161.383
-131.313
-105.167
-83.0521
-64.7939
-49.9584
-37.9852
-28.324
-20.5113
-14.1768
-9.01353
-4.76614
-1.2432
1.69444
4.16136
6.25215
8.03784
9.56371
10.8678
11.9913
12.9659
13.8117
14.5383
15.1591
15.6935
16.1551
16.5504
16.884
17.1599
17.3855
17.5698
17.7156
17.8233
17.8948
17.9353
17.9494
17.9384
17.9034
17.8455
17.7668
17.6689
17.5531
17.4203
17.2719
17.1089
16.9324
16.7431
16.5413
16.3271
16.1013
15.8652
15.6197
15.3647
15.1001
14.826
14.5433
14.2526
13.9541
13.648
13.334
13.0127
12.684
12.3487
12.0061
11.657
11.3011
10.9387
10.5699
10.1949
9.81346
9.42615
9.03268
8.63335
8.2282
7.81742
7.401
6.97898
6.55147
6.11861
5.6804
5.23716
4.78886
4.33599
3.87851
3.41756
2.95244
2.48776
2.01697
1.55964
1.08119
0.660175
0.138641
-309.857
-311.036
-309.718
-302.257
-285.629
-259.948
-228.241
-194.297
-161.363
-131.533
-105.534
-83.4748
-65.2203
-50.3546
-38.328
-28.6149
-20.7625
-14.3936
-9.19512
-4.91849
-1.37371
1.58128
4.06216
6.16484
7.95784
9.48747
10.7956
11.9243
12.9038
13.7522
14.4798
15.1022
15.6395
16.1043
16.5016
16.8359
17.1123
17.3394
17.5256
17.6731
17.7817
17.8536
17.8947
17.9098
17.9001
17.866
17.8087
17.7305
17.6332
17.5182
17.3863
17.2385
17.0761
16.9
16.7111
16.5095
16.2956
16.07
15.8342
15.5889
15.3343
15.07
14.7963
14.5139
14.2238
13.9259
13.6205
13.3072
12.9865
12.6586
12.3244
11.9824
11.6337
11.2783
10.9165
10.5482
10.1736
9.79267
9.40564
9.01242
8.61321
8.20799
7.79716
7.38067
6.95862
6.53104
6.09815
5.6599
5.21666
4.76832
4.31547
3.85809
3.39728
2.93228
2.4676
1.99758
1.53982
1.06573
0.639704
0.148964
-309.799
-310.776
-309.167
-301.515
-284.923
-259.448
-228.001
-194.311
-161.572
-131.866
-105.94
-83.9014
-65.6283
-50.7247
-38.6591
-28.9104
-21.0225
-14.62
-9.39627
-5.10187
-1.53756
1.44342
3.9402
6.05031
7.84916
9.38623
10.7008
11.8326
12.814
13.6649
14.3958
15.0206
15.5596
16.0258
16.4247
16.7607
17.0388
17.2671
17.4542
17.6026
17.7123
17.7854
17.8274
17.8433
17.8343
17.801
17.7444
17.6667
17.57
17.4556
17.3242
17.177
17.015
16.8394
16.6509
16.4498
16.2364
16.0114
15.776
15.5312
15.2769
15.013
14.7397
14.4576
14.1677
13.87
13.5647
13.2514
12.9309
12.6029
12.2684
11.9274
11.5791
11.2238
10.8621
10.4939
10.1195
9.73887
9.35203
8.95908
8.56021
8.15559
7.74503
7.32876
6.9069
6.47946
6.04665
5.60845
5.16526
4.71692
4.26415
3.80679
3.3462
2.8816
2.41695
1.94793
1.48894
1.02011
0.591364
0.112924
-314.074
-315.342
-316.519
-316.764
-316.246
-314.976
-313.67
-313.762
-333.208
-334.725
-335.67
-336.006
-335.684
-334.97
-334.106
-333.757
-348.321
-351.158
-352.673
-353.239
-353.129
-352.819
-352.512
-352.172
-346.898
-350.263
-352.116
-352.862
-352.69
-352.175
-351.696
-351.058
-325.752
-328.652
-330.387
-330.946
-330.605
-329.869
-329.084
-328.157
-289.994
-292.05
-293.341
-293.795
-293.469
-292.521
-291.108
-289.508
-244.965
-246.037
-246.888
-247.289
-247.031
-246.003
-244.217
-242.159
-198.426
-198.458
-198.712
-198.926
-198.648
-197.567
-195.616
-193.372
-156.289
-155.594
-155.332
-155.236
-154.834
-153.718
-151.763
-149.557
-120.787
-119.665
-119.118
-118.846
-118.356
-117.253
-115.405
-113.363
-92.2216
-90.9958
-90.3487
-89.9545
-89.3932
-88.3488
-86.6746
-84.8484
-69.882
-68.7289
-68.0922
-67.6281
-67.0276
-66.0682
-64.5942
-63.0105
-52.6417
-51.6314
-51.0423
-50.5761
-49.9954
-49.1314
-47.8533
-46.4918
-39.376
-38.5388
-38.0342
-37.6032
-37.0678
-36.3071
-35.2179
-34.0636
-29.0829
-28.4027
-27.9598
-27.5625
-27.0878
-26.4325
-25.5111
-24.5343
-20.9983
-20.46
-20.0582
-19.6796
-19.2637
-18.7052
-17.9268
-17.0849
-14.5758
-14.151
-13.7992
-13.4557
-13.0909
-12.6117
-11.9512
-11.1944
-9.40271
-9.06686
-8.76988
-8.47248
-8.1536
-7.74014
-7.17751
-6.49911
-5.1568
-4.89189
-4.64555
-4.39225
-4.115
-3.7562
-3.27309
-2.68419
-1.6183
-1.40922
-1.20483
-0.98995
-0.749593
-0.436893
-0.0175328
0.493265
1.34602
1.51828
1.69459
1.8766
2.08433
2.35772
2.72435
3.17039
3.83332
3.98063
4.13663
4.29384
4.47591
4.71748
5.0411
5.43438
5.94565
6.06948
6.20415
6.34248
6.50591
6.72301
7.01226
7.36298
7.76709
7.87199
7.98782
8.11032
8.25776
8.45387
8.71409
9.02931
9.34127
9.43321
9.53651
9.64719
9.78138
9.9595
10.1947
10.4795
10.6967
10.7841
10.8757
10.9758
11.0989
11.262
11.476
11.7349
11.8611
11.9485
12.0319
12.1228
12.2358
12.3855
12.581
12.8177
12.8721
12.9519
13.0282
13.1127
13.2182
13.3572
13.5374
13.7553
13.7564
13.8288
13.8989
13.9778
14.0766
14.2061
14.3726
14.5742
14.5262
14.5926
14.6583
14.7327
14.8258
14.9469
15.1015
15.2886
15.1932
15.2544
15.3158
15.3861
15.474
15.5878
15.7316
15.9058
15.7673
15.8236
15.8813
15.948
16.0314
16.1385
16.2728
16.4356
16.2628
16.3139
16.3678
16.431
16.5102
16.6112
16.7369
16.8896
16.6874
16.7344
16.7851
16.8452
16.9205
17.0161
17.1342
17.2779
17.0467
17.0915
17.1401
17.1977
17.2698
17.3608
17.4721
17.6077
17.3504
17.3933
17.4401
17.4956
17.5647
17.6513
17.7564
17.8847
17.603
17.6442
17.6893
17.7427
17.809
17.8918
17.9912
18.1129
17.8073
17.8472
17.8909
17.9425
18.0065
18.0857
18.18
18.2957
17.9694
18.0079
18.0503
18.1004
18.1622
18.2382
18.3278
18.4381
18.0944
18.1317
18.1729
18.2215
18.2813
18.3543
18.4397
18.5451
18.1864
18.2226
18.2626
18.3098
18.3677
18.4379
18.5194
18.6204
18.2483
18.2832
18.322
18.3677
18.4238
18.4914
18.5692
18.6661
18.2806
18.3144
18.3521
18.3966
18.451
18.5163
18.5907
18.6838
18.2841
18.3172
18.3541
18.3977
18.4506
18.5137
18.5851
18.6747
18.2613
18.2938
18.3302
18.3729
18.4245
18.4857
18.5543
18.6408
18.2162
18.248
18.2836
18.3254
18.3758
18.4351
18.5011
18.5847
18.1514
18.1825
18.2172
18.2581
18.3072
18.3648
18.4284
18.5092
18.0671
18.0977
18.1319
18.172
18.22
18.276
18.3373
18.4156
17.9642
17.9944
18.0281
18.0675
18.1145
18.169
18.2281
18.3041
17.8436
17.8733
17.9065
17.9451
17.9912
18.0442
18.1013
18.1751
17.7061
17.7353
17.7679
17.806
17.8511
17.9028
17.958
18.0299
17.5531
17.582
17.6142
17.6517
17.6959
17.7464
17.7999
17.8699
17.3864
17.4149
17.4468
17.4837
17.5272
17.5765
17.6285
17.6967
17.2068
17.2351
17.2666
17.303
17.3457
17.394
17.4444
17.511
17.0147
17.0427
17.0738
17.1098
17.1517
17.199
17.2479
17.313
16.8105
16.8382
16.869
16.9044
16.9457
16.9919
17.0394
17.1031
16.5946
16.6219
16.6524
16.6873
16.7279
16.7732
16.8195
16.8819
16.3676
16.3947
16.4248
16.4594
16.4994
16.5437
16.5888
16.6499
16.1304
16.1573
16.1871
16.2213
16.2607
16.3042
16.3482
16.4082
15.8839
15.9106
15.9401
15.9739
16.0127
16.0555
16.0983
16.1572
15.6282
15.6546
15.6839
15.7173
15.7556
15.7976
15.8395
15.8973
15.3636
15.3898
15.4188
15.4518
15.4896
15.5309
15.5717
15.6286
15.0901
15.116
15.1448
15.1774
15.2146
15.2552
15.2951
15.3511
14.8079
14.8336
14.8621
14.8944
14.9311
14.971
15.01
15.0651
14.5173
14.5428
14.571
14.603
14.6392
14.6785
14.7167
14.771
14.2187
14.2441
14.2721
14.3038
14.3396
14.3783
14.4157
14.4692
13.9124
13.9377
13.9655
13.9969
14.0323
14.0705
14.1071
14.16
13.5988
13.6239
13.6515
13.6826
13.7176
13.7553
13.7912
13.8433
13.2776
13.3025
13.33
13.3608
13.3955
13.4326
13.4678
13.5194
12.9491
12.9739
13.0012
13.0318
13.066
13.1027
13.1372
13.1882
12.6134
12.6381
12.6652
12.6956
12.7295
12.7657
12.7997
12.8501
12.2709
12.2955
12.3225
12.3526
12.3861
12.4219
12.4553
12.5051
11.9216
11.946
11.9729
12.0028
12.0361
12.0714
12.1043
12.1537
11.5656
11.59
11.6167
11.6464
11.6794
11.7143
11.7466
11.7955
11.203
11.2273
11.2539
11.2834
11.3161
11.3507
11.3825
11.431
10.8339
10.8581
10.8846
10.9139
10.9463
10.9806
11.0118
11.0599
10.4583
10.4825
10.5089
10.5381
10.5702
10.6042
10.635
10.6826
10.0765
10.1006
10.1269
10.1559
10.1878
10.2214
10.2517
10.299
9.68849
9.7126
9.73881
9.76767
9.79937
9.83263
9.86261
9.90949
9.29453
9.31859
9.34471
9.37339
9.40482
9.43775
9.46729
9.51379
8.89448
8.91853
8.94459
8.97316
9.0044
9.03706
9.06623
9.11242
8.4887
8.51272
8.53868
8.56709
8.59808
8.63043
8.6592
8.70504
8.077
8.101
8.12692
8.15522
8.18604
8.21816
8.24661
8.29218
7.65973
7.68372
7.70957
7.73774
7.76835
7.8002
7.82836
7.8737
7.23672
7.2607
7.28651
7.31458
7.34503
7.37668
7.40493
7.45072
6.80818
6.83213
6.85787
6.88581
6.91603
6.94737
6.97543
7.02133
6.37406
6.39797
6.42362
6.45144
6.48149
6.51259
6.54036
6.58603
5.93455
5.9584
5.98396
6.01164
6.0415
6.07237
6.09986
6.14528
5.48973
5.51349
5.53894
5.56644
5.59607
5.62669
5.65386
5.69894
5.03976
5.06343
5.08875
5.1161
5.14555
5.17597
5.20289
5.24776
4.58471
4.60821
4.63333
4.66044
4.68958
4.71967
4.7462
4.79065
4.1248
4.14814
4.1731
4.20001
4.22894
4.25884
4.28518
4.32954
3.65968
3.68265
3.70723
3.73376
3.7623
3.79181
3.81773
3.86167
3.19015
3.2128
3.23704
3.26322
3.29138
3.32054
3.34613
3.38984
2.71392
2.73549
2.75879
2.78415
2.81165
2.84033
2.86562
2.90921
2.23574
2.25687
2.27966
2.30444
2.33126
2.35926
2.38392
2.42683
1.74348
1.76112
1.78104
1.8036
1.82891
1.85614
1.88072
1.92465
1.2628
1.28123
1.30121
1.3231
1.34703
1.37227
1.39485
1.43517
0.739329
0.746899
0.757989
0.773184
0.79288
0.815961
0.834907
0.883327
0.302165
0.320222
0.336608
0.351741
0.366662
0.383733
0.400925
0.376907
)
;

boundaryField
{
    frontAndBack
    {
        type            empty;
    }
    inlet
    {
        type            zeroGradient;
    }
    outlet
    {
        type            fixedValue;
        value           uniform 0;
    }
    walls
    {
        type            zeroGradient;
    }
}


// ************************************************************************* //
