/*--------------------------------*- C++ -*----------------------------------*\
| =========                 |                                                 |
| \\      /  F ield         | OpenFOAM: The Open Source CFD Toolbox           |
|  \\    /   O peration     | Version:  v2012                                 |
|   \\  /    A nd           | Website:  www.openfoam.com                      |
|    \\/     M anipulation  |                                                 |
\*---------------------------------------------------------------------------*/
FoamFile
{
    version     2.0;
    format      ascii;
    class       volScalarField;
    location    "0.33";
    object      epsilon.air;
}
// * * * * * * * * * * * * * * * * * * * * * * * * * * * * * * * * * * * * * //

dimensions      [0 2 -3 0 0 0 0];


internalField   nonuniform List<scalar> 
1900
(
112.724
141.424
210.097
257.591
369.051
443.457
614.739
724.909
971.324
1128.62
15.4676
16.4471
18.6374
20.4503
23.7573
27.7269
32.004
39.2874
45.1213
56.7586
14.7926
14.6415
14.5755
14.5063
14.5148
14.5573
14.6409
14.8309
15.0774
15.4132
14.77
14.6304
14.4634
14.3354
14.1726
14.059
13.9039
13.8079
13.6653
13.5938
14.7766
14.6215
14.4705
14.3204
14.1749
14.0288
13.889
13.7471
13.6139
13.4769
14.7778
14.6205
14.4714
14.3195
14.1755
14.0283
13.8892
13.7471
13.6133
13.4773
14.7777
14.6206
14.4731
14.3234
14.1842
14.0448
13.9177
13.7912
13.6809
13.5714
14.7763
14.6497
14.564
14.5032
14.5107
14.5514
14.6371
14.8176
15.0481
15.3923
15.2147
16.5975
18.2822
20.67
23.6043
27.5568
32.281
38.3837
45.5845
54.7912
105.915
146.612
198.356
265.784
350.025
456.031
585.68
743.594
931.831
1153.91
4099.48
15199.8
19580.7
22443.2
21104.9
18002.4
15067
12773.2
11281.9
10370.7
9875.09
9705.32
9532.44
9264.08
8856.75
8356.28
7799.46
7211.26
6644.63
6126.46
5649.37
5222.4
4838.03
4487.24
4167.94
3878.45
3615.88
3378.33
3162.57
2966.65
2788.26
2625.39
2476.4
2339.73
2214.25
2098.78
1992.42
1894.18
1803.32
1719.07
1640.83
1568
1500.1
1436.67
1377.3
1321.66
1269.42
1220.32
1174.09
1130.51
1089.38
1050.5
1013.71
978.831
945.736
914.269
884.325
855.767
828.518
802.454
777.53
753.626
730.731
708.718
687.612
667.272
647.76
628.906
610.821
593.294
576.497
560.164
544.545
529.299
514.775
500.533
487.041
473.734
461.22
448.779
437.193
425.544
414.831
403.888
393.995
383.667
374.547
364.74
356.361
346.984
339.338
330.298
323.4
314.601
308.486
299.821
294.54
285.887
281.48
271.102
113.092
337.703
518.025
922.672
1125.19
1148.33
1120.08
1055.05
1049.25
1088.69
1194.04
1408.77
1696.8
2029.36
2380.39
2694.13
2972.83
3204.55
3359.32
3436.3
3428.51
3389.46
3302.93
3185
3056.51
2924.88
2793.71
2666.9
2543.39
2425.97
2313.87
2206.94
2105.65
2009.77
1919.44
1834.35
1754.45
1679.21
1608.43
1541.8
1479.06
1419.91
1364.1
1311.41
1261.59
1214.45
1169.79
1127.43
1087.21
1048.98
1012.61
977.968
944.948
913.427
883.318
854.508
826.931
800.48
775.108
750.717
727.282
704.709
683.003
662.06
641.921
622.462
603.759
585.66
568.28
551.425
535.265
519.55
504.52
489.854
475.88
462.19
449.215
436.433
424.409
412.474
401.353
390.196
379.931
369.473
360.014
350.167
341.468
332.143
324.172
315.277
308.023
299.468
292.938
284.63
278.853
270.689
265.709
257.571
253.429
243.686
16.427
19.8651
22.8844
29.0938
34.7996
38.7153
41.6695
43.7062
46.6234
50.633
58.6383
70.8931
95.4892
130.323
189.567
267.607
374.387
509.815
666.783
838.205
1007.32
1165.53
1305.01
1421.5
1511.52
1573.85
1610.92
1627.58
1624.79
1613.9
1590.93
1560.89
1526.77
1489.81
1451.44
1411.82
1372.09
1331.79
1291.95
1252.78
1214.29
1176.71
1140.16
1104.71
1070.39
1037.13
1005
973.897
943.818
914.725
886.599
859.389
833.079
807.623
783.009
759.181
736.139
713.821
692.232
671.31
651.066
631.441
612.465
594.062
576.294
559.061
542.457
526.347
510.86
495.812
481.381
467.324
453.886
440.754
428.25
415.978
404.36
392.891
382.116
371.395
361.426
351.397
342.196
332.79
324.316
315.458
307.67
299.278
292.149
284.141
277.657
269.953
264.116
256.631
251.464
244.109
239.646
232.32
228.598
219.829
13.4531
13.4605
13.5462
13.8026
14.3354
15.0064
15.7227
16.3415
16.9295
17.3437
17.8954
18.3576
19.2931
20.4996
22.7201
26.2541
31.7414
40.8813
54.7723
76.2941
106.769
147.633
199.608
261.544
331.368
406.173
481.256
554.554
621.435
682.619
735.387
779.181
813.872
839.763
858.214
869.597
875.482
875.031
872.455
866.596
857.781
847.026
834.882
821.496
807.199
792.119
776.539
760.364
743.927
727.291
710.494
693.615
676.744
659.94
643.275
626.751
610.477
594.425
578.681
563.206
548.074
533.246
518.79
504.65
490.92
477.522
464.562
451.919
439.733
427.829
416.399
405.201
394.497
383.963
373.947
364.039
354.677
345.345
336.609
327.824
319.7
311.426
303.894
296.086
289.121
281.721
275.297
268.245
262.349
255.585
250.203
243.658
238.791
232.401
228.067
221.767
217.992
211.71
208.524
200.993
13.3298
13.159
13.0623
13.1165
13.3055
13.7167
14.2908
14.9121
15.4563
15.8812
16.2121
16.4324
16.6102
16.759
16.8934
17.089
17.3271
17.7405
18.3212
19.3162
20.8505
23.2718
26.8309
32.1973
39.8827
50.751
65.1976
83.7245
106.462
133.324
163.832
196.926
231.952
267.244
302.339
335.376
366.617
394.8
419.859
441.302
459.214
473.601
484.922
493.354
499.251
502.897
504.663
504.381
503.211
500.646
496.817
492.012
486.481
480.245
473.518
466.345
458.896
451.157
443.308
435.293
427.273
419.178
411.12
403.078
395.164
387.301
379.589
371.925
364.442
356.999
349.779
342.564
335.629
328.635
321.985
315.222
308.863
302.341
296.287
290
284.256
278.197
272.772
266.93
261.83
256.183
251.411
245.929
241.478
236.118
231.996
226.733
222.956
217.758
214.345
209.18
206.155
200.988
198.375
192.152
13.325
13.1543
13.0314
13.0862
13.2958
13.7745
14.4991
15.4918
16.5081
17.6069
18.5925
19.5153
20.2514
20.8581
21.2838
21.5959
21.7755
21.8568
21.8434
21.7994
21.7059
21.6084
21.5344
21.5592
21.6669
21.9285
22.4776
23.3684
24.8666
27.0117
30.2613
34.6184
40.6179
48.1439
57.5368
68.6969
81.742
96.3687
112.444
129.501
147.15
164.923
182.395
199.265
215.189
229.953
243.472
255.585
266.4
275.894
284.18
291.259
297.34
302.435
306.695
310.175
313.008
315.171
316.834
317.902
318.615
318.712
318.535
318.069
317.138
315.845
314.27
312.392
310.302
307.958
305.45
302.7
299.871
296.724
293.677
290.234
287.002
283.319
279.966
276.119
272.707
268.745
265.336
261.302
257.948
253.869
250.613
246.507
243.385
239.262
236.299
232.157
229.373
225.21
222.625
218.442
216.08
211.88
209.766
204.688
13.4659
13.36
13.4094
13.6557
14.3032
15.6905
18.0256
21.4501
25.4086
29.7163
33.5946
37.0639
39.5814
41.5091
42.5799
43.327
43.3881
43.2602
42.9241
42.4104
41.805
41.1509
40.4922
39.8611
39.3368
38.8612
38.51
38.2328
38.1411
38.1984
38.3751
38.747
39.3563
40.274
41.5098
43.2396
45.4456
48.3841
52.0218
56.6895
62.3205
69.2537
77.3282
86.7989
97.445
109.345
122.21
135.95
150.258
164.938
179.718
194.362
208.677
222.484
235.665
248.124
259.792
270.631
280.598
289.704
297.932
305.342
311.9
317.702
322.741
327.054
330.667
333.636
335.923
337.723
338.842
339.632
339.642
339.421
338.873
337.684
336.478
334.51
332.812
330.292
328.193
325.24
322.871
319.599
317.079
313.579
311
307.341
304.777
301.014
298.518
294.688
292.293
288.421
286.151
282.268
280.152
276.288
274.373
269.781
15.9129
16.8569
18.5441
21.9358
28.3892
39.5134
55.4463
75.0652
95.4712
114.273
129.177
140.089
146.441
149.944
150.72
150.356
149.369
147.729
146.263
145.184
144.543
144.652
145.245
146.514
149.074
152.106
156.309
161.118
167.131
173.979
181.852
190.776
200.54
211.543
223.335
236.481
250.437
265.595
281.376
298.147
315.307
333.262
351.258
369.623
387.599
405.464
422.705
439.555
455.755
471.361
486.349
500.546
514.155
526.887
539.006
550.251
560.696
570.197
578.759
586.238
592.738
598.188
602.683
606.195
608.864
610.568
611.656
611.684
611.322
610.458
608.801
606.678
604.077
600.852
597.548
593.416
589.505
584.671
580.35
575.01
570.383
564.695
559.948
554.075
549.365
543.423
538.86
532.932
528.601
522.754
518.711
512.986
509.258
503.681
500.288
494.887
491.878
486.675
484.155
478.291
68.0458
90.4272
126.191
184.889
271.885
385.221
511.593
635.946
744.951
831.796
892.174
932.217
953.058
962.984
964.561
963.571
961.344
957.535
956.714
957.818
960.815
965.926
974.545
986.135
1000.44
1016.39
1034.87
1055.27
1077.92
1101.74
1126.79
1152.69
1179.13
1206.08
1232.97
1259.85
1286.01
1311.45
1335.63
1358.86
1380.67
1401.29
1420.13
1437.66
1453.34
1467.64
1480.34
1491.73
1501.8
1510.49
1518.07
1524.06
1529.14
1532.5
1535.1
1535.99
1535.68
1534.49
1531.97
1527.7
1522.72
1516.22
1509.13
1500.78
1491.88
1482
1471.65
1460.73
1449.47
1437.71
1425.91
1413.46
1401.26
1388.21
1375.76
1362.38
1349.84
1336.31
1323.86
1310.37
1298.23
1284.95
1273.3
1260.38
1249.39
1236.91
1226.64
1214.64
1205.17
1193.69
1185.09
1174.14
1166.42
1156
1149.2
1139.29
1133.49
1124.1
1119.51
1109.3
1464.68
1897.08
2398.96
2961.83
3563.09
4171.9
4746.08
5251.12
5654.93
5950.49
6131.85
6219.31
6206.88
6160.23
6061.66
5928.68
5778.28
5619.74
5459.27
5301.36
5148.95
5004.01
4867.44
4739.68
4620.98
4511.1
4409.92
4316.78
4231.66
4153.9
4083.47
4019.7
3962.33
3910.98
3865.36
3825.15
3789.76
3758.78
3731.69
3708.3
3688.17
3671.06
3656.35
3644.04
3633.61
3625.13
3618.14
3612.62
3608.33
3605.04
3602.75
3600.98
3599.94
3599.17
3598.95
3599.03
3599.36
3599.84
3600.82
3601.55
3602.91
3604.08
3605.62
3606.98
3608.38
3609.27
3610.07
3610.07
3609.79
3608.95
3607.72
3605.27
3602.89
3598.97
3595.38
3590.07
3585.29
3578.56
3572.5
3564.26
3556.89
3547.14
3538.58
3527.45
3517.93
3505.63
3495.45
3482.24
3471.79
3457.92
3447.52
3433.1
3422.98
3407.9
3398.26
3382.31
3373.29
3356.35
3347.69
3325.84
1108.92
1064.38
1122.17
1210.12
1238.9
1121.35
818.629
1980.03
54639.5
16130.7
7352.32
6104.81
6234.07
6485.51
6556.1
8027.64
74260.7
43595
24810.9
18453.8
16097.6
15001.5
14629.8
19666.8
76431.6
71023.7
54241.1
41190.4
32686.1
27160.1
24549.4
34065
69739.5
75715.1
67755
55655.3
44570.4
35845.2
30866.3
42708
57743.5
71182.3
67956.6
59052.9
48384.7
38738.1
32785.9
45231.6
47468.8
61833.3
62496.7
56619.2
47169.3
38177.3
32450.8
44244.9
39063.7
51809.7
53578.2
49829.4
42384.8
34665.2
29580.5
39748
32606.2
42975.8
44907
42118
36286.7
30028.5
25808
34022
27594.8
35613.6
37245.6
35101.6
30529.4
25545.2
22213.2
29360.5
23485.5
29580.4
30816
29112.9
25522.4
21625.5
19151
26001.8
20109.5
24694.7
25570.8
24179.8
21336.4
18295.5
16492.1
22968.2
17374.2
20784.3
21369.6
20210.4
17940
15557.4
14266.5
20355.3
15143.1
17662.1
18026.8
17046.5
15218.1
13337.6
12433.1
18156.9
13293.6
15153.5
15360
14524.2
13038.2
11543.8
10932.8
16332.7
11732.3
13112.8
13211.2
12495.4
11278.4
10084.7
9698.99
14814.3
10408
11440.8
11466.5
10850.9
9846.78
8888.97
8677.75
13544.3
9268.69
10052.9
10034.6
9502.61
8669.63
7899.48
7824.98
12473.5
8286.21
8890.35
8847.18
8385.71
7691.55
7072.38
7105
11561.1
7442.94
7911.86
7853.91
7452.77
6871.63
6374.73
6490.55
10776.6
6715.88
7083.06
7016.86
6667.34
6178.67
5781.17
5963.39
10096.3
6089.42
6377.9
6307.4
6001.79
5589.06
5272.72
5508.22
9502.31
5547.29
5774.5
5702.39
5434.29
5084.38
4834.73
5113.16
8981.55
5073.79
5253.93
5182.46
4946.78
4649.49
4455.26
4768.7
8523.5
4657.88
4801.75
4732.42
4524.97
4272.17
4124.49
4466.82
8119.06
4290.91
4406.65
4340.47
4157.74
3942.85
3834.57
4200.99
7760.78
3965.62
4059.41
3997.04
3836.05
3653.71
3579.02
3965.65
7442.02
3676.46
3752.83
3694.56
3552.76
3398.48
3352.59
3756.22
7156.92
3418.24
3480.81
3426.77
3301.95
3172.03
3150.95
3568.99
6900.73
3186.96
3238.48
3188.66
3078.9
2970.22
2970.7
3400.89
6669.52
2979.05
3021.73
2976.08
2879.76
2789.72
2808.56
3249.59
6460.07
2791.52
2827.14
2785.54
2701.23
2627.58
2662.42
3112.8
6269.67
2621.85
2651.84
2614.14
2540.62
2481.43
2530.33
2988.75
6096.13
2467.81
2493.35
2459.42
2395.63
2349.28
2410.59
2875.97
5937.58
2327.62
2349.64
2319.31
2264.32
2229.41
2301.76
2773.2
5792.53
2199.68
2218.94
2192.04
2145
2120.35
2202.57
2679.34
5659.64
2082.65
2099.73
2076.1
2036.27
2020.85
2111.91
2593.43
5537.76
1975.31
1990.7
1970.14
1936.89
1929.78
2028.85
2514.63
5425.86
1876.62
1890.7
1873.05
1845.79
1846.23
1952.52
2442.19
5323
1785.63
1798.73
1783.83
1762.06
1769.26
1882.25
2375.45
5228.3
1701.56
1713.93
1701.62
1684.88
1698.22
1817.36
2313.8
5140.93
1623.69
1635.54
1625.68
1613.56
1632.5
1757.27
2256.74
5060.14
1551.4
1562.9
1555.36
1547.5
1571.57
1701.5
2203.77
4985.21
1484.16
1495.46
1490.11
1486.17
1514.97
1649.63
2154.52
4915.51
1421.49
1432.71
1429.43
1429.14
1462.27
1601.29
2108.6
4850.46
1362.97
1374.23
1372.92
1375.96
1413.16
1556.18
2065.75
4789.62
1308.25
1319.64
1320.2
1326.33
1367.31
1514.01
2025.69
4732.58
1257
1268.59
1270.94
1279.96
1324.43
1474.55
1988.22
4679.04
1208.93
1220.78
1224.83
1236.58
1284.3
1437.59
1953.13
4628.76
1163.78
1175.95
1181.63
1195.93
1246.67
1402.93
1920.26
4581.55
1121.31
1133.86
1141.1
1157.79
1211.37
1370.4
1889.47
4537.3
1081.31
1094.27
1103.02
1121.96
1178.19
1339.85
1860.63
4495.87
1043.57
1056.99
1067.18
1088.26
1146.99
1311.12
1833.6
4457.19
1007.92
1021.82
1033.4
1056.5
1117.59
1284.09
1808.28
4421.1
974.194
988.608
1001.52
1026.54
1089.87
1258.63
1784.54
4387.51
942.224
957.173
971.383
998.227
1063.68
1234.62
1762.29
4356.24
911.89
927.394
942.857
971.441
1038.92
1211.95
1741.39
4327.16
883.044
899.12
915.799
946.05
1015.47
1190.52
1721.78
4300.07
855.598
872.261
890.118
921.962
993.234
1170.23
1703.31
4274.79
829.416
846.679
865.683
899.06
972.109
1151
1685.93
4251.12
804.445
822.316
842.433
877.276
952.021
1132.74
1669.51
4228.91
780.555
799.042
820.241
856.498
932.878
1115.38
1653.99
4207.95
757.724
776.828
799.076
836.686
914.625
1098.83
1639.27
4188.14
735.818
755.538
778.805
817.72
897.162
1083.03
1625.3
4169.27
714.851
735.181
759.433
799.595
880.471
1067.93
1611.98
4151.36
694.672
715.603
740.807
782.171
864.429
1053.44
1599.27
4134.11
675.339
696.859
722.982
765.497
849.069
1039.57
1587.13
4117.76
656.67
678.763
705.769
749.389
834.225
1026.18
1575.45
4101.82
638.778
661.429
689.288
733.968
820.012
1013.36
1564.31
4086.82
621.437
644.622
673.295
718.988
806.192
1000.89
1553.49
4071.94
604.828
628.535
657.998
704.668
792.989
988.986
1543.22
4058.13
588.667
612.865
643.075
690.671
780.056
977.31
1533.13
4044.12
573.223
597.905
628.846
677.347
767.77
966.253
1523.66
4031.46
558.128
583.258
614.88
664.228
755.627
955.28
1514.2
4018.17
543.762
569.34
601.64
651.829
744.201
945.024
1505.5
4006.6
529.648
555.628
588.548
639.509
732.776
934.69
1496.61
3993.95
516.296
542.689
576.238
627.987
722.175
925.219
1488.69
3983.49
503.09
529.84
563.948
616.398
711.407
915.471
1480.33
3971.47
490.697
517.825
552.518
605.708
701.598
906.771
1473.2
3962.12
478.327
505.767
540.959
594.782
691.426
897.557
1465.33
3950.7
466.84
494.622
530.355
584.878
682.372
889.607
1458.99
3942.5
455.229
483.276
519.448
574.54
672.723
880.86
1451.54
3931.61
444.591
472.942
509.614
565.366
664.378
873.627
1445.99
3924.56
433.651
462.222
499.274
555.532
655.169
865.264
1438.87
3914.07
423.805
452.643
490.153
547.033
647.48
858.703
1434.07
3908.07
413.446
442.456
480.29
537.613
638.621
850.629
1427.18
3897.83
404.346
433.586
471.833
529.74
631.536
844.686
1423.06
3892.61
394.474
423.843
462.36
520.647
622.938
836.801
1416.28
3882.52
386.09
415.651
454.536
513.363
616.412
831.419
1412.74
3877.62
376.616
406.264
445.368
504.518
607.997
823.643
1406.01
3867.61
368.942
398.745
438.167
497.803
601.993
818.745
1402.82
3862.8
359.775
389.629
429.227
489.138
593.704
811.042
1396.22
3852.71
352.83
382.802
422.665
482.997
588.203
806.567
1393.22
3847.87
343.878
373.871
413.876
474.449
580.001
798.929
1386.76
3837.62
337.701
367.775
407.988
468.906
574.997
794.815
1383.86
3832.65
328.863
358.937
399.272
460.419
566.864
787.28
1377.58
3822.44
323.505
353.623
394.103
455.504
562.36
783.48
1374.74
3817.28
314.667
344.778
385.383
447.031
554.292
776.108
1368.67
3807.43
310.166
340.275
380.953
442.748
550.259
772.527
1365.84
3802.51
299.533
329.599
370.387
432.439
540.4
763.489
1358.12
3791.34
)
;

boundaryField
{
    frontAndBack
    {
        type            empty;
    }
    inlet
    {
        type            fixedValue;
        value           uniform 14.855;
    }
    outlet
    {
        type            zeroGradient;
    }
    walls
    {
        lowReCorrection 0;
        blending        stepwise;
        n               2;
        type            epsilonWallFunction;
        value           nonuniform List<scalar> 
228
(
112.724
141.424
210.097
257.591
369.051
443.457
614.739
724.909
971.324
1128.62
1108.92
1064.38
1122.17
1210.12
1238.9
1121.35
818.629
1980.03
1980.03
8027.64
19666.8
34065
42708
45231.6
44244.9
39748
34022
29360.5
26001.8
22968.2
20355.3
18156.9
16332.7
14814.3
13544.3
12473.5
11561.1
10776.6
10096.3
9502.31
8981.55
8523.5
8119.06
7760.78
7442.02
7156.92
6900.73
6669.52
6460.07
6269.67
6096.13
5937.58
5792.53
5659.64
5537.76
5425.86
5323
5228.3
5140.93
5060.14
4985.21
4915.51
4850.46
4789.62
4732.58
4679.04
4628.76
4581.55
4537.3
4495.87
4457.19
4421.1
4387.51
4356.24
4327.16
4300.07
4274.79
4251.12
4228.91
4207.95
4188.14
4169.27
4151.36
4134.11
4117.76
4101.82
4086.82
4071.94
4058.13
4044.12
4031.46
4018.17
4006.6
3993.95
3983.49
3971.47
3962.12
3950.7
3942.5
3931.61
3924.56
3914.07
3908.07
3897.83
3892.61
3882.52
3877.62
3867.61
3862.8
3852.71
3847.87
3837.62
3832.65
3822.44
3817.28
3807.43
3802.51
3791.34
105.915
146.612
198.356
265.784
350.025
456.031
585.68
743.594
931.831
1153.91
1464.68
1897.08
2398.96
2961.83
3563.09
4171.9
4746.08
5251.12
5654.93
5950.49
6131.85
6219.31
6206.88
6160.23
6061.66
5928.68
5778.28
5619.74
5459.27
5301.36
5148.95
5004.01
4867.44
4739.68
4620.98
4511.1
4409.92
4316.78
4231.66
4153.9
4083.47
4019.7
3962.33
3910.98
3865.36
3825.15
3789.76
3758.78
3731.69
3708.3
3688.17
3671.06
3656.35
3644.04
3633.61
3625.13
3618.14
3612.62
3608.33
3605.04
3602.75
3600.98
3599.94
3599.17
3598.95
3599.03
3599.36
3599.84
3600.82
3601.55
3602.91
3604.08
3605.62
3606.98
3608.38
3609.27
3610.07
3610.07
3609.79
3608.95
3607.72
3605.27
3602.89
3598.97
3595.38
3590.07
3585.29
3578.56
3572.5
3564.26
3556.89
3547.14
3538.58
3527.45
3517.93
3505.63
3495.45
3482.24
3471.79
3457.92
3447.52
3433.1
3422.98
3407.9
3398.26
3382.31
3373.29
3356.35
3347.69
3325.84
)
;
    }
}


// ************************************************************************* //
