/*--------------------------------*- C++ -*----------------------------------*\
| =========                 |                                                 |
| \\      /  F ield         | OpenFOAM: The Open Source CFD Toolbox           |
|  \\    /   O peration     | Version:  v2012                                 |
|   \\  /    A nd           | Website:  www.openfoam.com                      |
|    \\/     M anipulation  |                                                 |
\*---------------------------------------------------------------------------*/
FoamFile
{
    version     2.0;
    format      ascii;
    class       volScalarField;
    location    "0.33";
    object      p;
}
// * * * * * * * * * * * * * * * * * * * * * * * * * * * * * * * * * * * * * //

dimensions      [0 2 -2 0 0 0 0];


internalField   nonuniform List<scalar> 
1900
(
-299.623
-300.722
-301.622
-302.283
-302.96
-303.727
-304.532
-305.361
-305.973
-306.577
-300.077
-300.876
-301.704
-302.38
-303.06
-303.821
-304.632
-305.47
-306.23
-307.05
-300.363
-300.928
-301.695
-302.409
-303.106
-303.867
-304.693
-305.577
-306.47
-307.715
-300.547
-300.991
-301.726
-302.468
-303.178
-303.94
-304.784
-305.709
-306.721
-308.095
-300.645
-301.039
-301.753
-302.505
-303.221
-303.986
-304.847
-305.807
-306.888
-308.277
-300.662
-301.061
-301.78
-302.535
-303.254
-304.027
-304.904
-305.889
-307.004
-308.371
-300.596
-301.056
-301.807
-302.557
-303.277
-304.06
-304.951
-305.951
-307.078
-308.402
-300.445
-301.036
-301.83
-302.557
-303.269
-304.065
-304.969
-305.979
-307.109
-308.391
-300.188
-301.03
-301.891
-302.579
-303.276
-304.077
-304.985
-305.995
-307.118
-308.36
-299.754
-300.929
-301.881
-302.562
-303.259
-304.073
-304.992
-306.009
-307.135
-308.357
-305.919
-318.28
-337.562
-339.208
-320.079
-286.053
-243.019
-198.242
-157.323
-122.529
-94.1716
-71.7643
-54.314
-40.748
-30.1619
-21.8434
-15.2338
-9.88374
-5.49204
-1.87713
1.1107
3.62655
5.78908
7.64646
9.22691
10.5761
11.7445
12.7758
13.6755
14.4523
15.1225
15.6999
16.2003
16.6324
16.9971
17.3017
17.5534
17.7584
17.9234
18.052
18.1474
18.2113
18.2429
18.2454
18.224
18.1818
18.1188
18.0348
17.931
17.8099
17.6732
17.5216
17.3561
17.1771
16.9847
16.7799
16.564
16.3378
16.1016
15.8558
15.6001
15.3351
15.0616
14.7797
14.4896
14.1913
13.8853
13.5717
13.2504
12.9219
12.5864
12.2441
11.895
11.5391
11.1764
10.8073
10.4317
10.05
9.66203
9.26808
8.86799
8.46217
8.05044
7.63316
7.21015
6.78162
6.34751
5.90803
5.46328
5.01341
4.55854
4.09882
3.63413
3.16498
2.69014
2.21243
1.72483
1.24263
0.733534
0.279207
-309.337
-321.605
-333.412
-332.126
-313.079
-280.334
-239.751
-197.436
-158.325
-124.591
-96.6613
-74.2494
-56.5779
-42.6887
-31.7663
-23.1345
-16.2446
-10.6622
-6.09369
-2.34726
0.738487
3.33134
5.55448
7.45753
9.07218
10.4518
11.6445
12.69
13.5978
14.3809
15.0554
15.6348
16.1325
16.562
16.9296
17.2379
17.493
17.7019
17.8709
18.0031
18.1021
18.1689
18.2016
18.205
18.1848
18.1434
18.0808
17.9973
17.8943
17.7742
17.6386
17.4876
17.3223
17.1436
16.9515
16.7471
16.5318
16.3062
16.0705
15.8248
15.5693
15.3046
15.0315
14.7498
14.4598
14.1617
13.8559
13.5424
13.2214
12.893
12.5577
12.2154
11.8664
11.5105
11.1479
10.7788
10.4033
10.0215
9.63359
9.23957
8.83946
8.43358
8.02182
7.60448
7.18142
6.75285
6.31873
5.87927
5.43457
4.9848
4.53008
4.07058
3.60637
3.13768
2.66449
2.18741
1.70544
1.22185
0.729548
0.25189
-310.271
-317.92
-326.263
-324.072
-306.102
-275.372
-237.269
-197.127
-159.473
-126.589
-98.9972
-76.5724
-58.6949
-44.5234
-33.3139
-24.4208
-17.299
-11.5257
-6.81185
-2.95163
0.239031
2.93247
5.23476
7.18925
8.848
10.2749
11.5112
12.5832
13.508
14.3056
14.9917
15.579
16.0796
16.5107
16.8821
17.1935
17.4499
17.6597
17.8295
17.9624
18.061
18.1258
18.1567
18.16
18.1415
18.1019
18.0406
17.958
17.8562
17.7381
17.6046
17.4551
17.2911
17.1129
16.9212
16.7168
16.5013
16.2756
16.0399
15.7943
15.5388
15.2742
15.0016
14.7203
14.4305
14.1328
13.8273
13.514
13.1932
12.8649
12.5298
12.1876
11.8386
11.4827
11.1201
10.751
10.3755
9.99372
9.60574
9.21165
8.81148
8.40551
7.9937
7.57626
7.15314
6.7245
6.29037
5.85091
5.40625
4.95655
4.50199
4.0427
3.57898
3.11075
2.63926
2.16289
1.68652
1.20185
0.727114
0.223765
-310.492
-316.294
-321.939
-318.557
-301.089
-271.666
-235.202
-196.609
-160.11
-127.978
-100.746
-78.3804
-60.375
-45.9975
-34.5665
-25.4616
-18.1464
-12.2132
-7.37804
-3.41979
-0.142489
2.61777
4.9637
6.9474
8.62853
10.0748
11.331
12.417
13.3504
14.1585
14.86
15.465
15.9823
16.4278
16.8104
17.1331
17.4008
17.6195
17.7953
17.9318
18.0311
18.095
18.1257
18.1298
18.1125
18.0735
18.0121
17.9288
17.8259
17.7062
17.5717
17.4225
17.2592
17.0816
16.8902
16.6858
16.4703
16.2449
16.0098
15.7646
15.5096
15.2452
14.9721
14.6905
14.4009
14.1035
13.7983
13.4851
13.1645
12.8364
12.5014
12.1593
11.8103
11.4545
11.0919
10.7228
10.3472
9.96538
9.57728
9.18309
8.78282
8.37673
7.96482
7.54726
7.12408
6.69536
6.26124
5.82176
5.3772
4.92756
4.47319
4.0141
3.55089
3.08315
2.61335
2.13774
1.66708
1.18108
0.723991
0.196
-310.518
-314.805
-318.111
-313.455
-296.275
-267.995
-233.032
-195.923
-160.561
-129.156
-102.283
-79.9855
-61.8747
-47.3241
-35.7022
-26.4104
-18.9244
-12.848
-7.90325
-3.8563
-0.497714
2.32826
4.71641
6.73113
8.44169
9.91519
11.194
12.2967
13.2418
14.0562
14.7636
15.3759
15.9001
16.348
16.73
17.0512
17.3208
17.5424
17.7207
17.8598
17.9632
18.033
18.0707
18.0818
18.07
18.0354
17.9776
17.8981
17.7983
17.6801
17.5461
17.3976
17.2348
17.0578
16.8668
16.6623
16.4469
16.2216
15.9864
15.7409
15.4855
15.2204
14.9459
14.6634
14.3734
14.0756
13.7699
13.4561
13.1351
12.8066
12.4714
12.1289
11.7797
11.4236
11.0608
10.6916
10.316
9.93403
9.54583
9.15162
8.75148
8.34552
7.93368
7.51612
7.093
6.6643
6.23028
5.79087
5.34647
4.89697
4.44286
3.98405
3.52136
3.05418
2.58602
2.11131
1.6459
1.15931
0.718402
0.171098
-310.4
-313.509
-315.041
-309.398
-292.508
-265.228
-231.493
-195.549
-161.048
-130.173
-103.562
-81.3054
-63.0996
-48.4105
-36.6356
-27.1838
-19.5545
-13.3673
-8.33676
-4.21533
-0.789027
2.08897
4.50894
6.54805
8.28466
9.78148
11.0743
12.1854
13.138
13.9607
14.676
15.2947
15.8256
16.2774
16.6615
16.9864
17.2611
17.4882
17.6704
17.8103
17.9122
17.982
18.0216
18.0337
18.0214
17.9851
17.9256
17.8452
17.7457
17.6289
17.4967
17.3498
17.1884
17.0129
16.8237
16.6217
16.4083
16.1847
15.9507
15.7063
15.4518
15.1874
14.9137
14.6318
14.3422
14.0443
13.7382
13.4241
13.1027
12.7737
12.4382
12.0954
11.7458
11.3894
11.0265
10.6572
10.2816
9.8996
9.5115
9.11734
8.71733
8.31142
7.8997
7.48223
7.05924
6.63066
6.19682
5.75758
5.31339
4.8641
4.4103
3.95184
3.4897
3.02318
2.55647
2.08289
1.62172
1.13606
0.707812
0.152308
-310.21
-312.445
-312.667
-306.232
-289.501
-262.955
-230.134
-195.078
-161.263
-130.838
-104.475
-82.2844
-64.0396
-49.2648
-37.3816
-27.8095
-20.0689
-13.8007
-8.70641
-4.51739
-1.03149
1.88068
4.32021
6.38418
8.14953
9.66538
10.9643
12.0801
13.0443
13.8785
14.6003
15.2232
15.7561
16.2126
16.6026
16.931
17.2073
17.4363
17.6194
17.7613
17.8652
17.9363
17.978
17.9925
17.9813
17.9456
17.887
17.808
17.7102
17.5945
17.4622
17.3145
17.1519
16.9754
16.7855
16.5827
16.3684
16.1436
15.9085
15.6632
15.4079
15.1429
14.869
14.5871
14.2973
13.9995
13.6936
13.3798
13.0589
12.7306
12.3957
12.0536
11.7046
11.3488
10.9864
10.6176
10.2427
9.86102
9.47348
9.07965
8.67998
8.27433
7.863
7.44592
7.02326
6.59506
6.16156
5.72268
5.27882
4.82989
4.37645
3.91841
3.45682
2.99099
2.52543
2.05316
1.59469
1.11177
0.690366
0.143276
-310.014
-311.622
-310.914
-303.872
-287.218
-261.198
-229.052
-194.666
-161.382
-131.317
-105.17
-83.0459
-64.7905
-49.9641
-37.9893
-28.3194
-20.5071
-14.1799
-9.0166
-4.76333
-1.24072
1.69166
4.15899
6.25472
8.03949
9.55973
10.8641
11.9932
12.9715
13.8123
14.5335
15.1567
15.6955
16.159
16.5524
16.8809
17.1558
17.386
17.5728
17.7175
17.822
17.8926
17.9345
17.9501
17.9399
17.9044
17.8457
17.7666
17.6686
17.5528
17.4202
17.2722
17.1095
16.9331
16.7434
16.5408
16.3262
16.1011
15.8658
15.6205
15.3651
15.0999
14.8255
14.5431
14.2528
13.9545
13.6482
13.334
13.0125
12.6839
12.3488
12.0062
11.657
11.301
10.9387
10.5698
10.1949
9.81349
9.42613
9.03263
8.63329
8.22817
7.81741
7.40098
6.97893
6.55141
6.11856
5.68037
5.23713
4.78883
4.33596
3.87848
3.41753
2.95241
2.48774
2.01696
1.55963
1.08118
0.660169
0.138639
-309.856
-311.036
-309.717
-302.257
-285.628
-259.948
-228.241
-194.296
-161.364
-131.534
-105.532
-83.4744
-65.2229
-50.355
-38.3261
-28.6141
-20.7635
-14.3947
-9.19393
-4.9164
-1.37481
1.57837
4.06261
6.16825
7.95751
9.48229
10.7928
11.9277
12.9094
13.7516
14.4742
15.1002
15.6427
16.1085
16.5028
16.8321
17.1083
17.3404
17.5291
17.6747
17.7798
17.851
17.8941
17.9111
17.9018
17.8668
17.8085
17.73
17.633
17.5181
17.3862
17.2388
17.0766
16.9006
16.7113
16.5091
16.2948
16.0698
15.8348
15.5898
15.3347
15.0697
14.7957
14.5137
14.224
13.9263
13.6207
13.3071
12.9864
12.6585
12.3244
11.9826
11.6338
11.2783
10.9164
10.5481
10.1737
9.79271
9.40563
9.01236
8.61315
8.20796
7.79715
7.38065
6.95858
6.53097
6.0981
5.65987
5.21663
4.76829
4.31543
3.85806
3.39725
2.93225
2.46758
1.99757
1.53981
1.06572
0.639698
0.148962
-309.799
-310.776
-309.167
-301.515
-284.923
-259.447
-228.001
-194.311
-161.572
-131.867
-105.94
-83.9006
-65.6276
-50.7253
-38.6605
-28.91
-21.0206
-14.6202
-9.39777
-5.10126
-1.53626
1.44229
3.93877
6.05183
7.85013
9.38292
10.6974
11.8344
12.8193
13.6654
14.3909
15.0181
15.5621
16.0299
16.4263
16.7574
17.0347
17.2677
17.4576
17.6044
17.7107
17.7829
17.8267
17.8445
17.836
17.8018
17.7441
17.6663
17.5699
17.4555
17.3242
17.1772
17.0155
16.8399
16.6511
16.4494
16.2357
16.0111
15.7766
15.532
15.2773
15.0127
14.7392
14.4574
14.1679
13.8704
13.5649
13.2514
12.9307
12.6028
12.2685
11.9275
11.5791
11.2238
10.862
10.4939
10.1196
9.73892
9.35202
8.95902
8.56015
8.15556
7.74502
7.32874
6.90686
6.47939
6.0466
5.60842
5.16524
4.71689
4.26412
3.80676
3.34617
2.88157
2.41693
1.94791
1.48892
1.0201
0.591357
0.112922
-314.073
-315.342
-316.519
-316.763
-316.246
-314.976
-313.67
-313.762
-333.208
-334.724
-335.67
-336.006
-335.684
-334.97
-334.106
-333.757
-348.321
-351.157
-352.673
-353.239
-353.129
-352.819
-352.512
-352.172
-346.898
-350.263
-352.116
-352.862
-352.689
-352.174
-351.695
-351.058
-325.751
-328.651
-330.387
-330.946
-330.605
-329.868
-329.084
-328.157
-289.994
-292.05
-293.342
-293.795
-293.469
-292.521
-291.108
-289.508
-244.964
-246.037
-246.887
-247.288
-247.03
-246.002
-244.217
-242.158
-198.424
-198.456
-198.71
-198.925
-198.647
-197.566
-195.615
-193.372
-156.294
-155.598
-155.335
-155.24
-154.837
-153.721
-151.766
-149.56
-120.788
-119.666
-119.12
-118.848
-118.358
-117.254
-115.406
-113.363
-92.2123
-90.9871
-90.3409
-89.9475
-89.3868
-88.3431
-86.6693
-84.8434
-69.8847
-68.7309
-68.0933
-67.6288
-67.0282
-66.069
-64.5956
-63.0123
-52.6564
-51.6451
-51.0549
-50.5877
-50.006
-49.141
-47.8621
-46.5001
-39.3721
-38.5355
-38.0323
-37.6023
-37.0673
-36.3066
-35.217
-34.0624
-29.0633
-28.3847
-27.9434
-27.5472
-27.0738
-26.4195
-25.499
-24.5228
-20.998
-20.4591
-20.056
-19.6763
-19.2601
-18.7017
-17.9239
-17.0824
-14.5973
-14.1703
-13.8162
-13.4712
-13.1052
-12.625
-11.9637
-11.2065
-9.40967
-9.07422
-8.77822
-8.48162
-8.16279
-7.74888
-7.18556
-6.50648
-5.13717
-4.87506
-4.63138
-4.37979
-4.10375
-3.74582
-3.26315
-2.67439
-1.60413
-1.39519
-1.1904
-0.975271
-0.735276
-0.423271
-0.00467717
0.505435
1.33403
1.50901
1.68779
1.87137
2.08006
2.35398
2.72069
3.16656
3.81595
3.96401
4.12025
4.27777
4.4605
4.70284
5.02711
5.42088
5.94737
6.06916
6.2019
6.33908
6.50195
6.7189
7.00836
7.35946
7.78106
7.88473
7.99983
8.12169
8.26844
8.46393
8.72376
9.03878
9.34604
9.43915
9.54369
9.65504
9.78941
9.96741
10.2023
10.4867
10.6884
10.7771
10.8697
10.9704
11.0941
11.2576
11.4717
11.7305
11.853
11.94
12.023
12.1137
12.2267
12.3767
12.5725
12.8094
12.8728
12.9518
13.0273
13.1113
13.2165
13.3554
13.5357
13.7538
13.7623
13.8345
13.9046
13.9834
14.082
14.2113
14.3778
14.5793
14.5304
14.597
14.663
14.7376
14.8307
14.9517
15.1061
15.2931
15.1929
15.2543
15.3158
15.3862
15.4741
15.5878
15.7316
15.9057
15.7635
15.82
15.8778
15.9446
16.0281
16.1352
16.2696
16.4324
16.2595
16.3106
16.3645
16.4278
16.5071
16.6083
16.7341
16.8869
16.6881
16.7349
16.7854
16.8453
16.9206
17.0162
17.1343
17.2781
17.0502
17.0947
17.1432
17.2006
17.2726
17.3634
17.4746
17.6102
17.3525
17.3955
17.4424
17.4978
17.5669
17.6535
17.7585
17.8867
17.6021
17.6435
17.6888
17.7423
17.8087
17.8915
17.9909
18.1126
17.8048
17.8447
17.8886
17.9403
18.0044
18.0837
18.178
18.2938
17.9677
18.0061
18.0485
18.0985
18.1604
18.2364
18.3261
18.4365
18.0945
18.1317
18.1729
18.2214
18.2811
18.3542
18.4396
18.545
18.1881
18.2242
18.2642
18.3113
18.3691
18.4393
18.5207
18.6217
18.2503
18.2851
18.3239
18.3696
18.4255
18.4931
18.5709
18.6677
18.2807
18.3147
18.3525
18.3971
18.4515
18.5167
18.5912
18.6842
18.2822
18.3155
18.3526
18.3963
18.4493
18.5125
18.584
18.6736
18.2598
18.2923
18.3286
18.3713
18.4229
18.4842
18.5528
18.6393
18.2168
18.2484
18.2838
18.3255
18.3758
18.4351
18.5011
18.5847
18.1533
18.1843
18.219
18.2597
18.3088
18.3663
18.4299
18.5107
18.0686
18.0993
18.1335
18.1736
18.2217
18.2776
18.3388
18.4171
17.9642
17.9945
18.0283
18.0678
18.1148
18.1693
18.2284
18.3044
17.8424
17.8721
17.9053
17.9441
17.9901
18.0432
18.1004
18.1742
17.7049
17.7341
17.7667
17.8048
17.8499
17.9016
17.9569
18.0288
17.553
17.5818
17.614
17.6515
17.6957
17.7462
17.7997
17.8697
17.3872
17.4158
17.4476
17.4845
17.528
17.5773
17.6292
17.6975
17.208
17.2362
17.2677
17.3041
17.3468
17.395
17.4454
17.512
17.0152
17.0432
17.0744
17.1103
17.1523
17.1995
17.2484
17.3135
16.8101
16.8378
16.8686
16.9041
16.9454
16.9916
17.0392
17.1029
16.5938
16.6211
16.6516
16.6866
16.7272
16.7725
16.8188
16.8812
16.3672
16.3942
16.4243
16.4589
16.4988
16.5432
16.5883
16.6495
16.1307
16.1575
16.1873
16.2214
16.2608
16.3044
16.3483
16.4083
15.8847
15.9113
15.9408
15.9746
16.0133
16.0561
16.0989
16.1578
15.6288
15.6553
15.6846
15.718
15.7562
15.7982
15.84
15.8979
15.3636
15.3899
15.419
15.452
15.4897
15.531
15.5718
15.6287
15.0898
15.1157
15.1445
15.1771
15.2143
15.2549
15.2948
15.3508
14.8076
14.8333
14.8618
14.894
14.9307
14.9706
15.0096
15.0647
14.5173
14.5427
14.5709
14.6029
14.6391
14.6785
14.7166
14.7709
14.2189
14.2443
14.2723
14.304
14.3398
14.3785
14.4159
14.4694
13.9127
13.938
13.9658
13.9972
14.0326
14.0708
14.1074
14.1603
13.599
13.6241
13.6517
13.6828
13.7178
13.7554
13.7913
13.8435
13.2776
13.3025
13.33
13.3608
13.3954
13.4326
13.4678
13.5194
12.949
12.9738
13.0011
13.0316
13.0659
13.1025
13.1371
13.1881
12.6133
12.638
12.6651
12.6955
12.7294
12.7656
12.7996
12.85
12.2709
12.2955
12.3225
12.3526
12.3861
12.4219
12.4553
12.5051
11.9217
11.9461
11.973
12.0029
12.0362
12.0715
12.1044
12.1537
11.5657
11.5901
11.6168
11.6465
11.6795
11.7144
11.7467
11.7956
11.203
11.2273
11.2539
11.2834
11.3162
11.3508
11.3826
11.431
10.8338
10.8581
10.8845
10.9139
10.9463
10.9805
11.0118
11.0598
10.4582
10.4824
10.5088
10.538
10.5702
10.6041
10.6349
10.6826
10.0765
10.1006
10.1269
10.1559
10.1878
10.2213
10.2517
10.2989
9.68849
9.71261
9.73882
9.76768
9.79938
9.83263
9.86261
9.90949
9.29455
9.31861
9.34473
9.37341
9.40484
9.43777
9.46731
9.51381
8.89447
8.91852
8.94458
8.97315
9.00439
9.03705
9.06623
9.11241
8.48865
8.51266
8.53864
8.56704
8.59804
8.63038
8.65915
8.70499
8.07693
8.10094
8.12686
8.15515
8.18597
8.21809
8.24654
8.29211
7.65968
7.68367
7.70952
7.73768
7.76829
7.80015
7.82831
7.87365
7.23669
7.26067
7.28648
7.31455
7.34499
7.37665
7.4049
7.45069
6.80816
6.83211
6.85785
6.88579
6.91601
6.94735
6.97541
7.02131
6.37403
6.39794
6.42359
6.45141
6.48146
6.51256
6.54033
6.58599
5.93451
5.95835
5.98392
6.01159
6.04146
6.07233
6.09982
6.14523
5.48968
5.51344
5.53889
5.56639
5.59602
5.62664
5.65381
5.69889
5.03972
5.06339
5.08871
5.11606
5.14551
5.17592
5.20284
5.24772
4.58468
4.60818
4.6333
4.6604
4.68955
4.71964
4.74616
4.79061
4.12478
4.14812
4.17307
4.19999
4.22892
4.25881
4.28515
4.32951
3.65966
3.68263
3.70721
3.73374
3.76227
3.79178
3.8177
3.86165
3.19012
3.21277
3.23702
3.2632
3.29135
3.32051
3.34611
3.38981
2.7139
2.73546
2.75876
2.78413
2.81162
2.84031
2.8656
2.90919
2.23572
2.25685
2.27965
2.30442
2.33124
2.35924
2.3839
2.42681
1.74347
1.76111
1.78103
1.80359
1.8289
1.85613
1.88071
1.92464
1.26279
1.28123
1.3012
1.32309
1.34703
1.37226
1.39484
1.43516
0.739325
0.746895
0.757986
0.77318
0.792877
0.815958
0.834904
0.883323
0.302163
0.32022
0.336607
0.351739
0.36666
0.383731
0.400923
0.376905
)
;

boundaryField
{
    frontAndBack
    {
        type            empty;
    }
    inlet
    {
        type            zeroGradient;
    }
    outlet
    {
        type            fixedValue;
        value           uniform 0;
    }
    walls
    {
        type            zeroGradient;
    }
}


// ************************************************************************* //
