/*--------------------------------*- C++ -*----------------------------------*\
| =========                 |                                                 |
| \\      /  F ield         | OpenFOAM: The Open Source CFD Toolbox           |
|  \\    /   O peration     | Version:  v2012                                 |
|   \\  /    A nd           | Website:  www.openfoam.com                      |
|    \\/     M anipulation  |                                                 |
\*---------------------------------------------------------------------------*/
FoamFile
{
    version     2.0;
    format      ascii;
    class       volScalarField;
    location    "0.098";
    object      nut.air;
}
// * * * * * * * * * * * * * * * * * * * * * * * * * * * * * * * * * * * * * //

dimensions      [0 2 -1 0 0 0 0];


internalField   nonuniform List<scalar> 
5600
(
2.45135e-05
3.47346e-05
4.04095e-05
4.24627e-05
4.22716e-05
4.09706e-05
3.92087e-05
3.75395e-05
3.61125e-05
3.49474e-05
3.40603e-05
3.34384e-05
3.30355e-05
3.28063e-05
3.26941e-05
3.26615e-05
3.26695e-05
3.27001e-05
3.27347e-05
3.27686e-05
3.27988e-05
3.28234e-05
3.28489e-05
3.28777e-05
3.29094e-05
3.29431e-05
3.29783e-05
3.30141e-05
3.30489e-05
3.30814e-05
3.31103e-05
3.31343e-05
3.31534e-05
3.31676e-05
3.3179e-05
3.31872e-05
3.3195e-05
3.31988e-05
3.32044e-05
3.32026e-05
3.32074e-05
3.31998e-05
3.32085e-05
3.31959e-05
3.32158e-05
3.31967e-05
3.32309e-05
3.31953e-05
3.32426e-05
3.31827e-05
3.32482e-05
3.31592e-05
3.32522e-05
3.31322e-05
3.3257e-05
3.31113e-05
3.32509e-05
3.31196e-05
3.321e-05
3.31831e-05
3.31198e-05
3.32929e-05
3.30182e-05
3.33709e-05
3.30046e-05
3.33095e-05
3.31574e-05
3.30843e-05
3.34262e-05
3.28313e-05
3.36185e-05
3.27556e-05
3.35656e-05
3.29354e-05
3.32787e-05
3.32828e-05
3.29096e-05
3.36175e-05
3.26769e-05
3.36955e-05
3.28075e-05
3.33158e-05
3.34176e-05
3.25278e-05
3.42456e-05
3.19109e-05
3.45235e-05
3.21405e-05
3.37593e-05
3.32451e-05
3.24109e-05
3.45105e-05
3.15806e-05
3.46727e-05
3.23613e-05
3.28021e-05
3.52161e-05
2.81619e-05
4.26521e-05
1.01531e-05
0.000151656
0.000137411
0.000112239
9.86289e-05
9.39064e-05
9.49401e-05
0.000102102
0.000110129
0.000116483
0.000124308
0.000132728
0.000141245
0.000149465
0.000157258
0.000164416
0.000170956
0.000176795
0.000182072
0.00018677
0.000191066
0.000194981
0.000198627
0.000202084
0.000205371
0.000208468
0.000211352
0.000214043
0.000216563
0.000218849
0.000220925
0.000222778
0.000224418
0.000225883
0.00022718
0.00022836
0.000229412
0.000230417
0.000231288
0.000232166
0.000232854
0.000233663
0.000234118
0.000234944
0.000235167
0.000236212
0.000236229
0.000237592
0.000237204
0.000238901
0.000237876
0.000240006
0.000238149
0.000240872
0.000238122
0.000241398
0.000238081
0.000241257
0.00023874
0.000239977
0.00024067
0.000237555
0.000243217
0.000235499
0.000244205
0.000236275
0.000241435
0.00024101
0.000235436
0.000247195
0.000230475
0.000250029
0.000230596
0.000246798
0.000236392
0.000239064
0.000244868
0.000231012
0.000251324
0.000227653
0.000250345
0.000233798
0.000238349
0.00025045
0.000219812
0.000267226
0.000210003
0.000266751
0.00022156
0.000243472
0.000250803
0.000212756
0.00027653
0.000199631
0.000272159
0.000220583
0.000236212
0.000256767
0.000210165
0.000261143
0.000239689
0.000156515
0.00015157
0.000143027
0.00013518
0.000125238
0.000120744
0.000113753
0.00010972
0.000108706
0.000109814
0.000112658
0.000117464
0.000123667
0.000131373
0.000140239
0.000150386
0.000161469
0.000173815
0.000187082
0.000201745
0.000217003
0.00023288
0.000246059
0.000258431
0.000270052
0.000281096
0.000290527
0.000298415
0.000305426
0.000311766
0.000317599
0.000323062
0.0003282
0.000332939
0.000337381
0.000341436
0.000345362
0.000348871
0.00035249
0.000355481
0.000358915
0.000361208
0.000364563
0.00036606
0.000369808
0.000370514
0.00037503
0.00037465
0.00038012
0.000378085
0.000384691
0.00038037
0.000388272
0.000381577
0.000390202
0.000382815
0.00038942
0.00038593
0.000385193
0.000391611
0.000378981
0.000397022
0.00037585
0.000396173
0.000381524
0.000385705
0.000395394
0.000370995
0.000408149
0.000363008
0.000409281
0.000369072
0.000396533
0.00038638
0.000376977
0.000405818
0.000360335
0.000416361
0.00035883
0.000405571
0.000382303
0.000370631
0.000423789
0.00033015
0.000452134
0.000320572
0.000433714
0.000363556
0.000371443
0.000433475
0.000306352
0.000475722
0.000295268
0.000439504
0.00036511
0.000353636
0.000436864
0.000310951
0.000436402
0.00035834
0.000157813
0.000154006
0.000150076
0.000146782
0.000142678
0.000139244
0.000135561
0.000131505
0.000128182
0.000124946
0.000122927
0.000120049
0.000117352
0.000115765
0.000115469
0.000116816
0.000119742
0.000124708
0.000131223
0.000139844
0.00015009
0.00016243
0.000176222
0.000191278
0.000207051
0.000223568
0.000238779
0.000252799
0.000266495
0.000279827
0.000292853
0.000305384
0.00031761
0.000329294
0.000340528
0.000351119
0.000361535
0.00037127
0.000381297
0.00039009
0.000399604
0.000406682
0.000415896
0.000420821
0.00042939
0.000431607
0.000441604
0.000441743
0.00045376
0.000450706
0.000464947
0.000457342
0.000473629
0.000461652
0.000477946
0.000466015
0.000475755
0.000473846
0.000466631
0.0004853
0.000455458
0.000493174
0.000453286
0.000486515
0.000468831
0.000463222
0.000495922
0.000437705
0.000514322
0.00043009
0.000508316
0.000448259
0.000480203
0.00048222
0.000444762
0.00051492
0.000419445
0.000526126
0.000426678
0.000495575
0.000478976
0.00042695
0.00055195
0.000362744
0.000584833
0.000362019
0.000533416
0.000455706
0.000419893
0.000571195
0.000317497
0.000615857
0.00032626
0.000522597
0.000472103
0.000384285
0.000567815
0.000332841
0.000548613
0.000420004
0.000158111
0.00015462
0.000151624
0.000149094
0.000146717
0.000144516
0.000142441
0.000140403
0.0001384
0.000136554
0.000134614
0.000133011
0.000130858
0.000129233
0.000127029
0.000125769
0.000123872
0.000122119
0.00012065
0.000120086
0.000120453
0.000122216
0.000125384
0.0001303
0.000136769
0.000144975
0.000154723
0.000166023
0.000178501
0.000192228
0.000206774
0.000222305
0.000235322
0.000247987
0.000260852
0.00027326
0.00028614
0.000298144
0.000311581
0.000323262
0.000337393
0.000347621
0.000362162
0.000369854
0.000385589
0.000390578
0.000409187
0.000411136
0.000433754
0.000430497
0.00045704
0.000445656
0.000474861
0.00045602
0.000483342
0.00046615
0.000479032
0.000481452
0.000462716
0.000500303
0.000445694
0.000509691
0.000446936
0.000492921
0.000477626
0.000451492
0.000521545
0.000414046
0.000544608
0.000410479
0.000525992
0.000446981
0.000475964
0.00050303
0.000420882
0.000550409
0.000387991
0.000557829
0.000412103
0.000495557
0.000505759
0.000382716
0.00061646
0.00029977
0.000646716
0.000328909
0.000542629
0.000478376
0.000366522
0.000642024
0.000246068
0.000670786
0.00030529
0.000502513
0.000503592
0.000332003
0.000594558
0.000301429
0.000543184
0.000412323
0.00015818
0.000154795
0.000152025
0.000149709
0.000147678
0.000145898
0.000144249
0.000142776
0.000141326
0.000140065
0.000138717
0.000137607
0.000136365
0.000135323
0.000134146
0.000133166
0.000132066
0.000131006
0.000129849
0.000128761
0.000127631
0.000126701
0.000125847
0.000125026
0.000124315
0.000124118
0.000124426
0.000125644
0.000127863
0.000131101
0.000135715
0.000141389
0.000148763
0.000156855
0.000166626
0.000176447
0.000188486
0.000199196
0.000213865
0.000225458
0.000243389
0.000251188
0.000266854
0.000271537
0.000289723
0.000291463
0.000314526
0.000313204
0.000343104
0.000335989
0.000372522
0.000356025
0.000395835
0.000372161
0.000405537
0.000389392
0.000396519
0.000412686
0.000373863
0.000436275
0.000355777
0.000440235
0.000366968
0.000407152
0.000414725
0.000350695
0.000467806
0.000312664
0.000482036
0.000323288
0.000444037
0.000378706
0.000376724
0.000448902
0.000312335
0.000499987
0.000284226
0.000490705
0.00033434
0.000393739
0.000462708
0.000257074
0.000581236
0.000186131
0.000579411
0.000251747
0.000435526
0.000432084
0.000245591
0.000591459
0.000152881
0.000575827
0.000261793
0.000383587
0.000442459
0.000271629
0.000478622
0.000270393
0.000441748
0.000353092
0.0001582
0.000154852
0.000152145
0.000149895
0.000147961
0.000146284
0.00014478
0.000143441
0.000142196
0.000141081
0.000139999
0.000139032
0.000138076
0.000137209
0.000136341
0.000135555
0.000134756
0.000134029
0.000133281
0.000132607
0.00013188
0.000131257
0.000130571
0.000129965
0.000129286
0.000128706
0.000128058
0.00012752
0.000127082
0.000126686
0.000126558
0.000126094
0.000126483
0.000126435
0.000127964
0.000128488
0.000132019
0.000132724
0.000139058
0.000140011
0.000150624
0.000151398
0.000166672
0.000165287
0.0001852
0.000180291
0.000206874
0.000198761
0.000235086
0.000222372
0.000267744
0.000247903
0.000294067
0.000268146
0.000298269
0.000289821
0.000282611
0.000318149
0.000256343
0.000340786
0.000243208
0.000332481
0.000267981
0.000283638
0.000327156
0.000224071
0.000375543
0.000198833
0.00037172
0.000225929
0.000319641
0.000289025
0.000248917
0.000360472
0.000188453
0.000408229
0.000173274
0.000379205
0.000243029
0.000259743
0.000382883
0.000137462
0.00045489
9.38149e-05
0.000424766
0.000178757
0.000300473
0.000340299
0.000146395
0.000425256
0.000103814
0.000379282
0.000226387
0.000260764
0.000319099
0.000246667
0.000290897
0.000248069
0.000298496
0.000301075
0.000158207
0.000154873
0.000152188
0.000149959
0.000148059
0.000146411
0.000144954
0.000143655
0.000142474
0.000141404
0.000140407
0.000139497
0.000138632
0.000137837
0.00013707
0.000136361
0.00013567
0.000135027
0.000134395
0.000133811
0.00013322
0.000132685
0.000132135
0.000131636
0.00013112
0.000130661
0.000130175
0.000129731
0.00012931
0.000128878
0.000128533
0.000128076
0.000127818
0.000127322
0.000127269
0.000126648
0.000127082
0.000126045
0.000127322
0.000125376
0.000128159
0.000125008
0.000130362
0.000125314
0.000134034
0.000125815
0.000139303
0.00012745
0.000148178
0.000133428
0.00016104
0.000144937
0.000172277
0.000160861
0.000173734
0.000179909
0.000162143
0.000197966
0.000145434
0.000204939
0.00014404
0.000190838
0.000169337
0.000156155
0.000199787
0.000121358
0.000210102
0.000120068
0.000199688
0.000146945
0.000179954
0.000175106
0.00014643
0.000206575
9.72252e-05
0.000230934
8.64616e-05
0.000218114
0.000153104
0.000153393
0.000213472
7.73532e-05
0.000224076
7.32116e-05
0.000210904
0.000154594
0.000179501
0.000205044
0.000110179
0.000217733
0.000118847
0.000169164
0.000242729
0.000131086
0.00019518
0.000210986
0.000144183
0.000208258
0.000141144
0.000257219
0.00015821
0.000154882
0.000152205
0.000149984
0.000148096
0.000146461
0.00014502
0.000143735
0.000142575
0.000141522
0.000140553
0.000139662
0.00013883
0.000138057
0.000137329
0.000136646
0.000135997
0.000135385
0.0001348
0.000134246
0.00013371
0.000133203
0.00013271
0.000132243
0.000131783
0.00013135
0.000130921
0.000130513
0.00013012
0.00012973
0.000129371
0.00012899
0.00012867
0.00012829
0.000128039
0.00012763
0.000127495
0.000126991
0.00012702
0.00012636
0.000126641
0.000125807
0.000126441
0.000125357
0.000126403
0.000124778
0.000126532
0.000124023
0.00012723
0.000123705
0.000128582
0.000124675
0.000129384
0.000127323
0.000127712
0.000131047
0.000122991
0.000134
0.000118244
0.000133587
0.000119113
0.000128187
0.000125386
0.000119683
0.000129445
0.000116139
0.000127778
0.000120289
0.000125453
0.000120667
0.000127899
0.000118867
0.000126187
0.000126488
0.00010982
0.000136068
0.000106453
0.00013026
0.000129777
0.00010943
0.000137431
0.00011392
0.000120417
0.000154924
9.76312e-05
0.000170807
8.41444e-05
0.000158282
9.94226e-05
0.000121445
0.00017486
5.97528e-05
0.000207298
5.31126e-05
0.000150277
0.000146117
8.19479e-05
0.00018321
6.75254e-05
0.000197882
0.000158211
0.000154886
0.000152212
0.000149996
0.000148112
0.000146482
0.000145047
0.000143768
0.000142616
0.00014157
0.00014061
0.000139726
0.000138906
0.000138142
0.000137426
0.000136754
0.000136119
0.000135519
0.000134949
0.000134408
0.00013389
0.000133396
0.000132922
0.000132469
0.000132031
0.00013161
0.000131203
0.000130811
0.000130436
0.000130067
0.000129716
0.000129359
0.000129037
0.00012869
0.000128413
0.00012806
0.000127829
0.000127442
0.000127265
0.000126851
0.00012675
0.000126335
0.000126285
0.000125862
0.000125819
0.000125341
0.000125391
0.000124789
0.000125181
0.000124358
0.000125184
0.000124158
0.000124954
0.000124274
0.00012394
0.000124778
0.000122167
0.000125417
0.000120682
0.000125344
0.000121003
0.000123839
0.00012314
0.000121902
0.000124602
0.000122044
0.000123593
0.000124052
0.000122458
0.000124257
0.000123596
0.000123279
0.000123471
0.000125009
0.000121758
0.000123188
0.000130664
0.000108687
0.000148106
9.43044e-05
0.00014685
0.000111399
0.000115255
0.000161042
7.06557e-05
0.000202213
4.5188e-05
0.000191932
7.8833e-05
0.000125574
0.000172968
5.01773e-05
0.000236015
3.05272e-05
0.000217642
7.00596e-05
0.000154417
0.000122115
9.84935e-05
0.000213165
0.000158211
0.000154886
0.000152212
0.000149996
0.000148113
0.000146482
0.000145047
0.000143768
0.000142617
0.00014157
0.000140611
0.000139726
0.000138906
0.000138142
0.000137426
0.000136754
0.000136119
0.000135519
0.000134949
0.000134407
0.000133889
0.000133394
0.000132922
0.000132467
0.000132031
0.000131608
0.000131202
0.000130809
0.000130434
0.000130065
0.000129713
0.000129358
0.000129033
0.000128692
0.000128405
0.00012807
0.000127817
0.000127465
0.000127246
0.000126894
0.000126721
0.000126404
0.000126256
0.000125968
0.000125791
0.000125501
0.00012534
0.00012505
0.000125072
0.000124787
0.000125038
0.000124746
0.000124934
0.000124754
0.000124393
0.000124665
0.000123463
0.000124457
0.000122668
0.000124045
0.000122645
0.000123235
0.000123572
0.000122189
0.000124688
0.000121791
0.000124703
0.000122964
0.000122935
0.000125981
0.000119341
0.000130318
0.000115267
0.00013215
0.000117521
0.000123376
0.000134897
0.000101603
0.000160066
8.1285e-05
0.000167725
8.65398e-05
0.000140994
0.000132712
8.875e-05
0.000202267
4.0951e-05
0.000232046
3.77229e-05
0.00018702
9.47633e-05
0.000114385
0.000177572
6.60275e-05
0.000236734
4.34535e-05
0.000244362
3.19408e-05
0.000203589
6.98711e-05
0.00015821
0.000154882
0.000152205
0.000149985
0.000148097
0.000146461
0.000145021
0.000143735
0.000142577
0.000141521
0.000140555
0.00013966
0.000138831
0.000138055
0.000137329
0.000136643
0.000135997
0.000135381
0.0001348
0.00013424
0.000133709
0.000133195
0.000132708
0.000132232
0.000131783
0.000131337
0.000130919
0.000130502
0.000130115
0.000129728
0.000129366
0.000128999
0.000128667
0.000128319
0.000128035
0.000127717
0.000127483
0.000127177
0.000126974
0.00012669
0.000126547
0.000126377
0.00012633
0.000126287
0.000126255
0.000126223
0.000126233
0.000126294
0.000126689
0.00012718
0.000128284
0.000129209
0.000130488
0.000131322
0.00013187
0.00013229
0.000131687
0.000131866
0.000130306
0.000130571
0.000128636
0.000128832
0.000127628
0.000126671
0.000127943
0.000124224
0.000129019
0.000122635
0.000128519
0.000124697
0.000123677
0.000132218
0.000115227
0.000139562
0.000111396
0.000135623
0.00012313
0.00011742
0.000148196
9.53536e-05
0.000168526
8.35692e-05
0.000165763
9.47772e-05
0.000135819
0.000139481
9.48985e-05
0.000192641
6.72747e-05
0.000205443
6.24645e-05
0.000184058
7.47104e-05
0.000152824
0.000114991
0.000114162
0.000189608
6.65524e-05
0.0002347
3.13219e-05
0.000158207
0.000154873
0.000152189
0.000149959
0.00014806
0.000146411
0.000144956
0.000143653
0.000142478
0.000141399
0.000140411
0.000139489
0.000138635
0.000137826
0.000137071
0.000136348
0.000135668
0.00013501
0.000134395
0.000133787
0.000133221
0.000132658
0.000132136
0.000131606
0.000131132
0.000130632
0.000130193
0.000129727
0.000129338
0.00012893
0.00012857
0.0001282
0.000127907
0.000127591
0.000127449
0.000127295
0.00012736
0.000127344
0.000127501
0.000127753
0.000128404
0.000129403
0.000130875
0.00013269
0.000134703
0.000137156
0.000140142
0.000144278
0.000149772
0.000156541
0.00016447
0.00017225
0.00017983
0.000185728
0.000190777
0.00019362
0.000195671
0.000196197
0.000195669
0.000195791
0.000192779
0.000194511
0.000189104
0.000193025
0.000187188
0.000190305
0.000188953
0.000185362
0.000193358
0.000180683
0.000195021
0.00018221
0.00018903
0.000191675
0.00017905
0.000199863
0.000175294
0.000197563
0.000181904
0.000187709
0.00019428
0.000175693
0.000208627
0.000163247
0.000218032
0.000157998
0.000212114
0.000169832
0.000194063
0.00019443
0.000171368
0.000224292
0.000144361
0.000249992
0.000123521
0.000247302
0.000140759
0.000201972
0.000209776
0.000141499
0.0001582
0.000154852
0.000152147
0.000149895
0.000147963
0.000146281
0.000144784
0.000143429
0.000142205
0.000141059
0.000140004
0.000139009
0.000138074
0.00013718
0.000136338
0.000135522
0.000134747
0.000133992
0.000133274
0.000132554
0.000131884
0.000131212
0.000130586
0.000129911
0.000129341
0.000128707
0.000128225
0.000127749
0.000127536
0.000127342
0.000127261
0.000127539
0.000128192
0.000129411
0.000131377
0.000134087
0.000137582
0.000141901
0.000147326
0.000153948
0.000161782
0.000170585
0.00018009
0.000189981
0.000200134
0.000211033
0.000222986
0.000236559
0.000251453
0.00026728
0.000281763
0.000292
0.000300796
0.000307392
0.00031269
0.000315315
0.000317747
0.000317513
0.00031807
0.000317006
0.000315618
0.0003165
0.000311823
0.000317307
0.000308518
0.000318204
0.000308047
0.000315879
0.000312444
0.000309281
0.000319945
0.000302657
0.000323954
0.000302569
0.000319802
0.000309933
0.000310822
0.000319061
0.000302588
0.000326297
0.000296703
0.000329677
0.000297457
0.000322451
0.000311486
0.000303409
0.000332611
0.000285435
0.000345612
0.00027933
0.000342377
0.000290339
0.000321589
0.000319024
0.000289955
0.000351139
0.000267635
0.000359851
0.000273399
0.000336428
0.00015818
0.000154797
0.000152024
0.00014971
0.000147676
0.000145888
0.000144251
0.000142734
0.000141347
0.000139986
0.000138746
0.00013753
0.000136384
0.000135241
0.000134172
0.000133098
0.000132022
0.000130902
0.000129781
0.000128709
0.000127716
0.000126957
0.000126222
0.000125578
0.000125546
0.000126001
0.000127514
0.000129977
0.00013381
0.000138933
0.0001454
0.000153327
0.00016244
0.00017282
0.00018427
0.000196613
0.000209701
0.000223638
0.000238586
0.000252084
0.000264108
0.000276119
0.000287912
0.000299465
0.000310963
0.000322832
0.000335263
0.000348442
0.000361859
0.000375332
0.000387952
0.000399271
0.000408643
0.000415771
0.000421186
0.000424161
0.000426649
0.000426729
0.000427669
0.000426598
0.000426462
0.00042641
0.000424082
0.000427406
0.00042123
0.000429117
0.00041971
0.000429003
0.000421666
0.000424848
0.000427572
0.000418258
0.000433502
0.000414598
0.000434009
0.000417378
0.000428423
0.000424717
0.000420217
0.000433291
0.000411774
0.000440842
0.000406576
0.000441485
0.000412012
0.000429397
0.000428791
0.000410676
0.000446673
0.000396757
0.000455104
0.00039493
0.000448558
0.000409687
0.000425783
0.000437083
0.000398576
0.000460208
0.000386002
0.000460001
0.000158113
0.000154622
0.00015161
0.000149108
0.000146662
0.000144531
0.000142362
0.000140364
0.000138376
0.000136469
0.000134757
0.000132833
0.000131012
0.000129032
0.000127426
0.000125769
0.00012411
0.000122525
0.000121935
0.000122142
0.000123955
0.000127083
0.000132243
0.000138939
0.000147638
0.000157874
0.000169851
0.000183117
0.000197762
0.0002133
0.000228879
0.000242164
0.000255602
0.000269075
0.000282453
0.000295703
0.000308816
0.000322007
0.000335239
0.000348504
0.000361594
0.000374163
0.000386108
0.000397472
0.000408505
0.000419517
0.000430607
0.000441811
0.000452728
0.000463137
0.000472327
0.00048038
0.000486827
0.000491712
0.000495267
0.00049731
0.000498931
0.000499042
0.000499822
0.000498999
0.000499359
0.000498993
0.00049818
0.000499822
0.000496363
0.0005014
0.000494756
0.000502242
0.00049514
0.000500266
0.000498714
0.00049554
0.000503739
0.000491341
0.000506231
0.000491237
0.00050388
0.000495576
0.000498125
0.000502196
0.000490945
0.000509532
0.000484461
0.000513666
0.000484455
0.000508502
0.000494389
0.000494935
0.000509156
0.000480993
0.000520866
0.000473431
0.000523049
0.000477984
0.000511213
0.000495698
0.000489552
0.00051769
0.000471591
0.000529502
0.000157849
0.000153943
0.000150097
0.000146716
0.000142563
0.000139339
0.000135244
0.000131827
0.000128223
0.000125992
0.000123571
0.00012071
0.000118645
0.000117781
0.000118593
0.000121021
0.000125572
0.000131891
0.000140409
0.000150785
0.000163412
0.000177691
0.000193342
0.000209784
0.000227088
0.000242467
0.000257137
0.000271507
0.000285543
0.000299142
0.000312255
0.000325003
0.00033726
0.000348971
0.000360107
0.000370774
0.000381002
0.000390952
0.000400439
0.000409526
0.000418077
0.000426145
0.000432916
0.000438811
0.000444438
0.000449944
0.000455359
0.000460712
0.000465825
0.000470631
0.000474864
0.000478501
0.000481385
0.000483571
0.000485169
0.000486079
0.000486832
0.000486846
0.000487261
0.000486815
0.000487101
0.000486789
0.00048654
0.000487264
0.000485561
0.000488231
0.000484501
0.00048893
0.00048438
0.000488155
0.000486142
0.00048555
0.00048919
0.00048269
0.000491236
0.000481935
0.000490519
0.000483985
0.000487417
0.000487849
0.000483013
0.000492556
0.000478517
0.000495976
0.000477183
0.000494295
0.000482027
0.000486782
0.000491143
0.000477414
0.000499668
0.000470902
0.000503091
0.000471404
0.000497767
0.000481255
0.000484322
0.000496584
0.000470165
0.000508517
0.000156641
0.00015121
0.000143346
0.000134634
0.000126075
0.000120996
0.000114997
0.000112513
0.000112465
0.000114172
0.000117966
0.000123472
0.000130598
0.000139122
0.000149056
0.000160158
0.000172606
0.000186208
0.000201282
0.000217281
0.000233496
0.00024695
0.000259669
0.000271861
0.00028309
0.000294118
0.000302639
0.00031006
0.000316737
0.000322864
0.000328603
0.000333967
0.000338938
0.000343529
0.000347773
0.000351731
0.000355433
0.00035895
0.000362282
0.000365444
0.000368398
0.000371131
0.00037369
0.000376117
0.000378466
0.000380772
0.00038302
0.000385206
0.00038725
0.000389136
0.000390754
0.000392128
0.000393187
0.000393976
0.00039453
0.000394834
0.000395086
0.000395047
0.000395215
0.000394978
0.000395174
0.000394954
0.000394995
0.00039517
0.000394586
0.000395678
0.000394004
0.000396205
0.000393698
0.000396137
0.00039428
0.000395037
0.000395787
0.000393388
0.000397264
0.000392409
0.000397536
0.000392909
0.000396321
0.000394708
0.000394056
0.000397331
0.000391285
0.000399883
0.00038949
0.000400338
0.000390727
0.000397378
0.000395015
0.000392339
0.000400217
0.000387631
0.000403864
0.000385674
0.000403561
0.000388494
0.000398294
0.000395671
0.000390591
0.000403685
0.000151621
0.000136819
0.000113473
9.95246e-05
9.76032e-05
9.81258e-05
0.000110572
0.000115054
0.000121815
0.000129681
0.00013798
0.000146237
0.000154209
0.000161681
0.000168584
0.000174823
0.000180492
0.000185568
0.000190196
0.000194424
0.000198339
0.000202069
0.000205554
0.000208847
0.00021187
0.000214681
0.000217316
0.000219725
0.00022189
0.000223815
0.000225516
0.000227027
0.000228366
0.000229554
0.000230622
0.000231596
0.000232485
0.000233307
0.000234065
0.000234762
0.000235396
0.000235962
0.00023651
0.000237061
0.000237629
0.000238201
0.000238753
0.000239271
0.000239729
0.000240124
0.000240439
0.000240687
0.000240855
0.00024097
0.000241032
0.000241057
0.000241074
0.000241034
0.000241069
0.000240988
0.000241071
0.000240971
0.000241061
0.000241041
0.000240966
0.000241221
0.000240756
0.000241475
0.000240544
0.000241605
0.000240585
0.000241359
0.000241051
0.000240727
0.000241745
0.000240112
0.000242162
0.000239977
0.000241985
0.000240459
0.000241227
0.000241451
0.000240054
0.000242701
0.000238912
0.000243512
0.000238665
0.000243059
0.000239822
0.000241324
0.000241906
0.000239116
0.000243991
0.000237428
0.000245075
0.000237203
0.000244383
0.000238874
0.0002421
0.000241654
2.45432e-05
3.47523e-05
4.04101e-05
4.23028e-05
4.20136e-05
4.05608e-05
3.87138e-05
3.7056e-05
3.56099e-05
3.44451e-05
3.35765e-05
3.29761e-05
3.25986e-05
3.2385e-05
3.2287e-05
3.22583e-05
3.22698e-05
3.22979e-05
3.2331e-05
3.23649e-05
3.23936e-05
3.24263e-05
3.24614e-05
3.24993e-05
3.2539e-05
3.25762e-05
3.26143e-05
3.26515e-05
3.26859e-05
3.27164e-05
3.27415e-05
3.2761e-05
3.27752e-05
3.27848e-05
3.27914e-05
3.2796e-05
3.27988e-05
3.28001e-05
3.27998e-05
3.27982e-05
3.27957e-05
3.27927e-05
3.27905e-05
3.27907e-05
3.27933e-05
3.27972e-05
3.28007e-05
3.28028e-05
3.28025e-05
3.28003e-05
3.27957e-05
3.27906e-05
3.27845e-05
3.27788e-05
3.27731e-05
3.27685e-05
3.27652e-05
3.27617e-05
3.27618e-05
3.27585e-05
3.27624e-05
3.27588e-05
3.27649e-05
3.27627e-05
3.27637e-05
3.27702e-05
3.27564e-05
3.27819e-05
3.27459e-05
3.27915e-05
3.27423e-05
3.27875e-05
3.27566e-05
3.27639e-05
3.27869e-05
3.27323e-05
3.2814e-05
3.27158e-05
3.28171e-05
3.2727e-05
3.27919e-05
3.27651e-05
3.27429e-05
3.28227e-05
3.26836e-05
3.28748e-05
3.26509e-05
3.28797e-05
3.26788e-05
3.28213e-05
3.27617e-05
3.27237e-05
3.2865e-05
3.2628e-05
3.29442e-05
3.25797e-05
3.29578e-05
3.26143e-05
3.28968e-05
3.27289e-05
0.000289492
0.000822936
0.00115722
0.00156431
0.00188037
0.0022628
0.00254001
0.00258264
0.00253644
0.00259294
0.00187057
0.000976711
0.000500296
0.000301429
0.000182029
0.0001705
0.000189907
0.000197396
0.000175364
0.00026228
0.000350933
0.000383952
0.000368083
0.000330222
0.000291253
0.000260756
0.000239502
0.000224297
0.000212086
0.000201554
0.000192554
0.000185068
0.00017874
0.000172999
0.000167376
0.000161694
0.000156067
0.000150777
0.000146098
0.000142145
0.000138821
0.000135922
0.000133312
0.000131006
0.000129091
0.000127615
0.00012657
0.000125901
0.000125509
0.000125294
0.000125179
0.00012512
0.00012509
0.000125075
0.000125067
0.000125063
0.000125061
0.00012506
0.00012506
0.000125059
0.000125059
0.000125059
0.000125059
0.000125059
0.000125059
0.000125059
0.000125058
0.00012506
0.000125058
0.00012506
0.000125057
0.00012506
0.000125057
0.00012506
0.000125057
0.000125061
0.000125057
0.000125061
0.000125056
0.000125062
0.000125056
0.000125062
0.000125056
0.000125062
0.000125055
0.000125062
0.000125055
0.000125063
0.000125055
0.000125063
0.000125054
0.000125063
0.000125054
0.000125063
0.000125053
0.000125063
0.000125052
0.000125062
0.000125052
0.000125066
0.0002004
0.000558039
0.000867302
0.00127938
0.00156965
0.00193826
0.00229134
0.0023496
0.00245684
0.00230965
0.00141396
0.00065619
0.000346387
0.000278931
0.000205018
0.000202896
0.000204357
0.000215515
0.000175214
0.000216548
0.000284134
0.000311351
0.000300908
0.000274973
0.000249408
0.000230478
0.000217857
0.000208679
0.000200663
0.000193062
0.000186081
0.00018
0.00017472
0.000169832
0.000164924
0.00015981
0.000154589
0.000149553
0.000145011
0.000141137
0.000137902
0.000135144
0.000132724
0.000130618
0.00012888
0.000127537
0.00012657
0.000125935
0.000125554
0.000125341
0.000125225
0.000125163
0.000125131
0.000125114
0.000125106
0.000125101
0.000125099
0.000125098
0.000125097
0.000125097
0.000125097
0.000125096
0.000125097
0.000125096
0.000125096
0.000125097
0.000125096
0.000125097
0.000125095
0.000125098
0.000125094
0.000125098
0.000125094
0.000125098
0.000125094
0.000125099
0.000125094
0.000125099
0.000125093
0.0001251
0.000125093
0.0001251
0.000125093
0.0001251
0.000125092
0.000125101
0.000125092
0.000125101
0.000125091
0.000125102
0.000125091
0.000125102
0.00012509
0.000125102
0.00012509
0.000125103
0.00012509
0.000125104
0.000125092
0.000125113
0.000329937
0.000422705
0.000511888
0.000907559
0.00117068
0.00152049
0.00186741
0.00193116
0.00211186
0.00177521
0.00091968
0.000364142
0.000213417
0.000288253
0.000209887
0.000234461
0.000192665
0.000197729
0.000185651
0.000199894
0.000243334
0.000262234
0.000256089
0.000240157
0.00022458
0.000213133
0.000205416
0.000199436
0.000193636
0.00018761
0.000181727
0.000176419
0.000171743
0.00016739
0.000162966
0.000158259
0.000153338
0.000148487
0.000144041
0.00014022
0.000137057
0.000134433
0.000132202
0.000130295
0.000128722
0.000127495
0.000126597
0.000125992
0.000125617
0.000125399
0.000125277
0.00012521
0.000125174
0.000125155
0.000125145
0.000125139
0.000125137
0.000125135
0.000125134
0.000125134
0.000125134
0.000125133
0.000125134
0.000125133
0.000125133
0.000125134
0.000125133
0.000125135
0.000125132
0.000125136
0.000125131
0.000125136
0.000125131
0.000125136
0.000125131
0.000125137
0.00012513
0.000125137
0.00012513
0.000125138
0.000125129
0.000125138
0.000125129
0.000125139
0.000125128
0.000125139
0.000125128
0.00012514
0.000125127
0.00012514
0.000125127
0.000125141
0.000125126
0.000125142
0.000125126
0.000125143
0.000125127
0.000125148
0.000125133
0.000125166
0.00039851
0.000526083
0.000321951
0.000578287
0.00071481
0.00101425
0.00132819
0.00141419
0.00159737
0.00110792
0.000457375
9.87204e-05
0.000188483
0.000376868
0.000218057
0.000175756
0.000155973
0.000159703
0.000171213
0.000190728
0.000221547
0.000235577
0.000232747
0.000222726
0.000212226
0.000204209
0.000198646
0.000194101
0.000189348
0.000184091
0.000178742
0.000173812
0.000169457
0.000165435
0.000161351
0.000156952
0.000152264
0.000147553
0.000143168
0.000139377
0.000136269
0.000133764
0.000131715
0.000130004
0.00012859
0.000127473
0.000126644
0.000126071
0.000125703
0.000125478
0.000125346
0.000125271
0.000125229
0.000125206
0.000125193
0.000125187
0.000125183
0.000125181
0.000125181
0.00012518
0.00012518
0.000125179
0.00012518
0.000125179
0.000125179
0.00012518
0.000125178
0.000125181
0.000125177
0.000125182
0.000125177
0.000125182
0.000125177
0.000125182
0.000125176
0.000125183
0.000125175
0.000125184
0.000125175
0.000125184
0.000125174
0.000125185
0.000125174
0.000125186
0.000125173
0.000125186
0.000125172
0.000125187
0.000125172
0.000125188
0.000125171
0.000125189
0.00012517
0.00012519
0.000125171
0.000125193
0.000125173
0.000125201
0.000125185
0.00012523
0.00038558
0.00050834
0.000408897
0.000478118
0.000439808
0.00056646
0.000722543
0.000850869
0.000913256
0.000433206
6.35358e-05
6.47575e-05
0.000299878
0.000414323
0.000100567
0.00013841
0.000148634
0.000138048
0.000146195
0.000172812
0.000204246
0.000219981
0.000220489
0.000213497
0.000205204
0.000198703
0.000194195
0.00019044
0.000186309
0.00018151
0.000176462
0.000171733
0.000167568
0.00016378
0.000159972
0.000155839
0.000151354
0.000146755
0.000142405
0.000138615
0.00013553
0.00013311
0.000131212
0.000129681
0.000128427
0.000127432
0.000126684
0.000126153
0.000125794
0.000125563
0.00012542
0.000125336
0.000125287
0.000125259
0.000125244