/*--------------------------------*- C++ -*----------------------------------*\
| =========                 |                                                 |
| \\      /  F ield         | OpenFOAM: The Open Source CFD Toolbox           |
|  \\    /   O peration     | Version:  v2012                                 |
|   \\  /    A nd           | Website:  www.openfoam.com                      |
|    \\/     M anipulation  |                                                 |
\*---------------------------------------------------------------------------*/
FoamFile
{
    version     2.0;
    format      ascii;
    class       volScalarField;
    location    "0.098";
    object      p;
}
// * * * * * * * * * * * * * * * * * * * * * * * * * * * * * * * * * * * * * //

dimensions      [0 2 -2 0 0 0 0];


internalField   nonuniform List<scalar> 
1900
(
-299.624
-300.723
-301.623
-302.284
-302.961
-303.728
-304.534
-305.362
-305.975
-306.579
-300.078
-300.877
-301.705
-302.381
-303.061
-303.822
-304.633
-305.471
-306.231
-307.051
-300.364
-300.929
-301.697
-302.41
-303.107
-303.868
-304.694
-305.578
-306.471
-307.716
-300.548
-300.992
-301.727
-302.469
-303.179
-303.941
-304.785
-305.71
-306.723
-308.096
-300.646
-301.04
-301.755
-302.506
-303.222
-303.987
-304.849
-305.808
-306.889
-308.278
-300.663
-301.062
-301.781
-302.536
-303.255
-304.028
-304.905
-305.89
-307.005
-308.372
-300.598
-301.057
-301.808
-302.558
-303.278
-304.062
-304.952
-305.953
-307.08
-308.404
-300.446
-301.037
-301.831
-302.558
-303.271
-304.066
-304.97
-305.98
-307.111
-308.392
-300.189
-301.031
-301.892
-302.58
-303.278
-304.078
-304.986
-305.996
-307.119
-308.361
-299.755
-300.93
-301.882
-302.563
-303.261
-304.074
-304.993
-306.01
-307.136
-308.358
-305.921
-318.281
-337.563
-339.209
-320.08
-286.054
-243.02
-198.246
-157.323
-122.526
-94.1796
-71.7693
-54.3041
-40.7424
-30.177
-21.8556
-15.2222
-9.86913
-5.50115
-1.89667
1.10973
3.64181
5.7952
7.63545
9.21603
10.5782
11.7527
12.7786
13.6713
14.4469
15.1202
15.7015
16.203
16.6325
16.9945
17.2987
17.5521
17.7589
17.9245
18.0522
18.1459
18.2085
18.2408
18.2455
18.225
18.1816
18.117
18.0325
17.9295
17.8095
17.6733
17.5214
17.355
17.1753
16.9829
16.7788
16.5637
16.3376
16.101
15.8547
15.599
15.3344
15.0613
14.7796
14.4895
14.1909
13.8844
13.5705
13.2492
12.9207
12.5852
12.2429
11.8937
11.538
11.1755
10.8067
10.4314
10.0497
9.66168
9.26754
8.86728
8.46134
8.04958
7.63247
7.2096
6.7813
6.34724
5.90758
5.4625
5.01224
4.55716
4.09754
3.63317
3.16449
2.69007
2.21246
1.72479
1.24244
0.733249
0.279174
-309.338
-321.607
-333.414
-332.128
-313.08
-280.335
-239.752
-197.44
-158.323
-124.589
-96.6701
-74.252
-56.5682
-42.6869
-31.7812
-23.1414
-16.2322
-10.6532
-6.10562
-2.36235
0.741547
3.34416
5.55683
7.44711
9.06414
10.4545
11.6511
12.6917
13.594
14.3763
15.0534
15.6364
16.1352
16.5617
16.9265
17.2351
17.492
17.7027
17.872
18.0032
18.1003
18.166
18.1998
18.2054
18.1857
18.143
18.0788
17.995
17.893
17.774
17.6386
17.4871
17.3212
17.1419
16.9498
16.746
16.5315
16.306
16.0698
15.8237
15.5682
15.3039
15.0312
14.7497
14.4596
14.1612
13.8551
13.5413
13.2202
12.8918
12.5565
12.2142
11.8651
11.5094
11.147
10.7782
10.4029
10.0212
9.63323
9.23905
8.83879
8.43279
8.02099
7.60381
7.18088
6.75251
6.31843
5.87879
5.43375
4.98363
4.52872
4.06931
3.6054
3.13715
2.66436
2.18737
1.70534
1.22166
0.729276
0.251827
-310.272
-317.921
-326.264
-324.073
-306.104
-275.373
-237.271
-197.13
-159.471
-126.589
-99.0061
-76.572
-58.686
-44.5263
-33.3272
-24.4218
-17.2871
-11.5235
-6.82558
-2.96075
0.247716
2.9411
5.2288
7.17931
8.84768
10.2807
11.5136
12.5813
13.505
14.3031
14.99
15.5798
16.0824
16.5105
16.8789
17.1904
17.4489
17.6607
17.8307
17.9625
18.0591
18.1226
18.1551
18.1608
18.1424
18.101
18.0383
17.9558
17.8552
17.7381
17.6045
17.4545
17.2898
17.1112
16.9196
16.7159
16.501
16.2752
16.0391
15.7932
15.5377
15.2736
15.0013
14.7202
14.4303
14.1324
13.8266
13.513
13.1921
12.8638
12.5285
12.1863
11.8373
11.4815
11.1192
10.7504
10.3751
9.99338
9.60537
9.21117
8.81087
8.40477
7.9929
7.57561
7.15261
6.72412
6.29002
5.85038
5.40539
4.95538
4.50066
4.04142
3.57799
3.11016
2.63906
2.16277
1.68635
1.20166
0.726854
0.223669
-310.493
-316.295
-321.94
-318.558
-301.09
-271.667
-235.203
-196.611
-160.107
-127.98
-100.755
-78.3768
-60.3675
-46.0044
-34.5778
-25.458
-18.1362
-12.2162
-7.3908
-3.42389
-0.133201
2.62292
4.95542
6.93812
8.63053
10.0823
11.3311
12.4118
13.3487
14.1598
14.8599
15.4636
15.9822
16.4271
16.809
17.1317
17.4
17.6198
17.7956
17.9312
18.0293
18.0923
18.1245
18.1309
18.1131
18.0722
18.0095
17.9267
17.8251
17.7064
17.5717
17.4218
17.2579
17.0797
16.8886
16.6852
16.4701
16.2444
16.0088
15.7635
15.5087
15.2446
14.9717
14.6902
14.4006
14.1031
13.7976
13.4843
13.1635
12.8353
12.5002
12.158
11.809
11.4533
11.0909
10.7221
10.3467
9.965
9.57689
9.18266
8.78228
8.37608
7.9641
7.54665
7.12354
6.69489
6.26081
5.82118
5.37631
4.92641
4.47188
4.0128
3.54986
3.08246
2.61307
2.13755
1.66684
1.18088
0.723737
0.19587
-310.519
-314.806
-318.113
-313.456
-296.277
-267.996
-233.034
-195.924
-160.56
-129.161
-102.288
-79.9793
-61.8706
-47.3338
-35.7108
-26.4032
-18.916
-12.856
-7.91543
-3.85422
-0.487748
2.32814
4.70572
6.72492
8.44688
9.92289
11.1921
12.2891
13.2384
14.059
14.7668
15.3758
15.898
16.3457
16.7282
17.051
17.3205
17.5426
17.7209
17.8593
17.9615
18.0306
18.0698
18.0823
18.07
18.034
17.9757
17.8966
17.7975
17.6797
17.5457
17.3969
17.2338
17.0561
16.8652
16.6618
16.4467
16.221
15.9853
15.7397
15.4846
15.2198
14.9454
14.6629
14.373
14.0752
13.7694
13.4555
13.1343
12.8055
12.4701
12.1275
11.7783
11.4223
11.0597
10.6908
10.3154
9.9336
9.54545
9.15125
8.75103
8.34498
7.93308
7.51555
7.09242
6.66369
6.2297
5.79023
5.34559
4.89588
4.44158
3.98269
3.52027
3.05338
2.58563
2.11105
1.64563
1.1591
0.718177
0.170935
-310.401
-313.51
-315.042
-309.399
-292.509
-265.229
-231.495
-195.548
-161.048
-130.18
-103.564
-81.2974
-63.102
-48.4215
-36.637
-27.175
-19.5523
-13.3784
-8.34476
-4.2082
-0.781112
2.08324
4.4981
6.5464
8.29183
9.78631
11.07
12.1782
13.1368
13.9648
14.6787
15.2935
15.8216
16.2744
16.6614
16.9887
17.2616
17.4866
17.6681
17.8089
17.9121
17.9819
18.0214
18.0332
18.02
17.9832
17.9241
17.8445
17.7454
17.6285
17.4959
17.3488
17.1873
17.0116
16.8225
16.621
16.4079
16.1841
15.9497
15.7051
15.4508
15.1867
14.9131
14.6312
14.3417
14.044
13.738
13.4237
13.102
12.7727
12.4369
12.0939
11.7443
11.388
11.0252
10.6562
10.2809
9.89916
9.51115
9.11704
8.71699
8.31105
7.8993
7.48175
7.05859
6.62985
6.19603
5.75686
5.31257
4.86313
4.40904
3.9504
3.48849
3.02224
2.55598
2.08262
1.62148
1.13589
0.707664
0.152126
-310.211
-312.447
-312.669
-306.233
-289.502
-262.956
-230.136
-195.078
-161.266
-130.842
-104.473
-82.2801
-64.0459
-49.2738
-37.3768
-27.8011
-20.075
-13.8125
-8.70509
-4.50805
-1.03242
1.87033
4.3161
6.38889
8.15352
9.66294
10.9597
12.0785
13.0453
13.8803
14.6005
15.221
15.7546
16.2116
16.6015
16.9318
17.2078
17.4347
17.6175
17.76
17.8653
17.9366
17.9776
17.9911
17.9794
17.9441
17.8863
17.8077
17.7096
17.5934
17.461
17.3135
17.1512
16.9746
16.7843
16.5817
16.3678
16.1431
15.9075
15.662
15.4068
15.1421
14.8682
14.5863
14.2968
13.9994
13.6937
13.3797
13.0584
12.7297
12.3944
12.052
11.703
11.3472
10.985
10.6164
10.2419
9.86061
9.4732
9.07944
8.67976
8.27416
7.86284
7.44557
7.02255
6.59401
6.16055
5.72191
5.27811
4.82907
4.37518
3.91682
3.45546
2.98991
2.52483
2.05292
1.59452
1.11166
0.690317
0.143094
-310.015
-311.623
-310.915
-303.873
-287.219
-261.2
-229.053
-194.667
-161.386
-131.318
-105.165
-83.0492
-64.7981
-49.9632
-37.9837
-28.3218
-20.5147
-14.1809
-9.01228
-4.76415
-1.24649
1.6897
4.16158
6.2544
8.03532
9.55845
10.8669
11.9946
12.968
13.8086
14.5344
15.1595
15.6961
16.1557
16.5484
16.8809
17.1585
17.3866
17.5705
17.7145
17.8212
17.8935
17.935
17.949
17.9377
17.9027
17.8449
17.7662
17.668
17.5516
17.419
17.2715
17.109
16.9324
16.742
16.5393
16.3256
16.101
15.8651
15.6193
15.3639
15.0988
14.8246
14.5422
14.2523
13.9546
13.6485
13.3339
13.0122
12.6831
12.3474
12.0047
11.6554
11.2993
10.937
10.5685
10.1941
9.81311
9.42591
9.03243
8.63314
8.22814
7.81745
7.40077
6.97818
6.55013
6.11733
5.67955
5.23657
4.78817
4.33463
3.8767
3.41601
2.95121
2.48703
2.01671
1.55948
1.08106
0.660195
0.138529
-309.858
-311.037
-309.719
-302.258
-285.63
-259.949
-228.242
-194.298
-161.365
-131.534
-105.534
-83.4777
-65.2229
-50.3538
-38.3277
-28.6175
-20.7654
-14.3939
-9.1937
-4.91957
-1.37788
1.57906
4.06376
6.16534
7.95362
9.48301
10.7964
11.9279
12.9044
13.748
14.4765
15.1039
15.6425
16.1042
16.4988
16.8327
17.1116
17.3411
17.5262
17.6714
17.7792
17.8524
17.8948
17.9098
17.8992
17.865
17.8079
17.7299
17.6325
17.5168
17.3849
17.238
17.0762
16.9
16.7099
16.5074
16.2941
16.0699
15.8341
15.5885
15.3334
15.0686
14.7948
14.5129
14.2235
13.9266
13.6212
13.3071
12.986
12.6576
12.3229
11.9811
11.6321
11.2764
10.9146
10.5467
10.1729
9.79241
9.40556
9.01226
8.61305
8.20798
7.79727
7.38056
6.95784
6.52958
6.09671
5.65898
5.21618
4.76776
4.31399
3.85603
3.39549
2.93099
2.46692
1.99739
1.53968
1.0655
0.639513
0.148728
-309.8
-310.777
-309.168
-301.516
-284.924
-259.449
-228.002
-194.312
-161.574
-131.868
-105.941
-83.9022
-65.6295
-50.7261
-38.6605
-28.9112
-21.0234
-14.6217
-9.39708
-5.10201
-1.5394
1.44072
3.93962
6.05087
7.84681
9.38213
10.7002
11.8356
12.8153
13.6614
14.3922
15.0216
15.5625
16.0261
16.4222
16.7575
17.0378
17.2687
17.4549
17.601
17.7099
17.7841
17.8275
17.8433
17.8335
17.8
17.7436
17.6661
17.5694
17.4543
17.3227
17.1764
17.0151
16.8393
16.6499
16.4476
16.2348
16.0114
15.776
15.5307
15.2761
15.0116
14.7381
14.4565
14.1673
13.8705
13.5657
13.2514
12.9303
12.602
12.2667
11.9257
11.5774
11.2219
10.8602
10.4924
10.1188
9.73865
9.35202
8.95903
8.56011
8.15557
7.74506
7.32858
6.90607
6.47797
6.04519
5.60749
5.16482
4.71647
4.26263
3.80463
3.3443
2.87985
2.41617
1.94786
1.48895
1.02001
0.590965
0.112707
-314.075
-315.343
-316.52
-316.765
-316.247
-314.977
-313.671
-313.763
-333.209
-334.726
-335.671
-336.007
-335.685
-334.971
-334.107
-333.758
-348.322
-351.159
-352.674
-353.241
-353.13
-352.82
-352.513
-352.173
-346.899
-350.264
-352.117
-352.863
-352.691
-352.176
-351.697
-351.059
-325.753
-328.653
-330.388
-330.947
-330.607
-329.87
-329.085
-328.158
-289.995
-292.051
-293.343
-293.796
-293.47
-292.522
-291.11
-289.509
-244.965
-246.038
-246.888
-247.289
-247.031
-246.003
-244.218
-242.159
-198.428
-198.459
-198.713
-198.928
-198.649
-197.568
-195.618
-193.374
-156.294
-155.598
-155.336
-155.24
-154.837
-153.722
-151.766
-149.56
-120.785
-119.663
-119.118
-118.846
-118.356
-117.253
-115.405
-113.362
-92.219
-90.9929
-90.3461
-89.9523
-89.3913
-88.3474
-86.6736
-84.8478
-69.891
-68.7375
-68.0997
-67.6347
-67.0336
-66.0738
-64.5997
-63.0159
-52.6467
-51.6362
-51.0474
-50.5813
-50.0004
-49.1359
-47.8573
-46.4954
-39.366
-38.5298
-38.0267
-37.5967
-37.0621
-36.302
-35.213
-34.0589
-29.078
-28.3981
-27.9551
-27.5575
-27.0831
-26.4282
-25.5073
-24.5311
-21.0111
-20.4714
-20.068
-19.6882
-19.2715
-18.7124
-17.9339
-17.0919
-14.5869
-14.1615
-13.8094
-13.4658
-13.1008
-12.621
-11.9599
-11.2027
-9.39432
-9.06005
-8.76488
-8.46877
-8.15062
-7.73751
-7.1749
-6.49636
-5.14439
-4.88056
-4.63493
-4.38197
-4.10522
-3.74701
-3.26439
-2.67588
-1.62355
-1.413
-1.20697
-0.990998
-0.750132
-0.437291
-0.0180814
0.492413
1.33121
1.50476
1.68197
1.86455
2.07287
2.34679
2.71376
3.16
3.83017
3.97641
4.13119
4.28766
4.46948
4.71109
5.03495
5.42856
5.95459
6.07714
6.21084
6.34851
6.51141
6.72812
7.01723
7.36796
7.77156
7.87703
7.99366
8.11657
8.26407
8.46006
8.72007
9.03504
9.33492
9.42799
9.53227
9.6436
9.77821
9.95657
10.1918
10.4765
10.6893
10.7766
10.8679
10.9678
11.091
11.2543
11.4684
11.7274
11.8608
11.9474
12.0301
12.1205
12.2332
12.3828
12.5784
12.8152
12.8761
12.9558
13.032
13.1165
13.2219
13.3608
13.5409
13.7589
13.7586
13.8313
13.9018
13.981
14.0798
14.2093
14.3758
14.5773
14.525
14.5915
14.6573
14.7318
14.8249
14.946
15.1005
15.2875
15.1904
15.2515
15.3128
15.383
15.4708
15.5845
15.7283
15.9026
15.7648
15.821
15.8788
15.9455
16.0289
16.1361
16.2704
16.4333
16.2622
16.3133
16.3673
16.4305
16.5097
16.6108
16.7366
16.8893
16.6886
16.7356
16.7862
16.8462
16.9215
17.0171
17.1352
17.2788
17.0477
17.0924
17.1409
17.1985
17.2705
17.3614
17.4727
17.6083
17.3494
17.3923
17.4392
17.4946
17.5637
17.6504
17.7554
17.8838
17.6005
17.6417
17.6869
17.7403
17.8068
17.8895
17.9889
18.1107
17.8052
17.8451
17.8888
17.9405
18.0045
18.0837
18.178
18.2938
17.9689
18.0074
18.0497
18.0997
18.1615
18.2375
18.3271
18.4375
18.0949
18.1322
18.1733
18.2219
18.2816
18.3546
18.44
18.5454
18.1867
18.2229
18.2629
18.31
18.3679
18.4381
18.5195
18.6205
18.2475
18.2824
18.3212
18.367
18.423
18.4907
18.5685
18.6653
18.2786
18.3124
18.3502
18.3948
18.4492
18.5145
18.589
18.6821
18.2821
18.3152
18.3522
18.3958
18.4487
18.5119
18.5833
18.673
18.2608
18.2932
18.3294
18.3721
18.4237
18.4849
18.5535
18.64
18.2167
18.2485
18.284
18.3257
18.3761
18.4354
18.5014
18.5849
18.1516
18.1827
18.2175
18.2583
18.3075
18.3651
18.4286
18.5094
18.0663
18.0969
18.1312
18.1713
18.2193
18.2753
18.3366
18.4149
17.9625
17.9927
18.0264
18.0658
18.1129
18.1674
18.2265
18.3025
17.8419
17.8716
17.9048
17.9435
17.9895
18.0426
18.0997
18.1735
17.7051
17.7343
17.767
17.805
17.8501
17.9018
17.9571
18.0289
17.5529
17.5817
17.614
17.6514
17.6957
17.7461
17.7997
17.8697
17.3862
17.4148
17.4466
17.4835
17.527
17.5763
17.6282
17.6965
17.2062
17.2344
17.2659
17.3024
17.345
17.3933
17.4437
17.5103
17.0134
17.0414
17.0725
17.1085
17.1505
17.1977
17.2466
17.3118
16.8089
16.8366
16.8674
16.9029
16.9442
16.9904
17.038
17.1017
16.5934
16.6207
16.6511
16.6861
16.7267
16.772
16.8183
16.8807
16.367
16.394
16.4242
16.4587
16.4987
16.5431
16.5882
16.6493
16.1301
16.157
16.1868
16.221
16.2604
16.3039
16.3479
16.4079
15.8836
15.9103
15.9398
15.9736
16.0124
16.0552
16.098
16.1569
15.6277
15.6541
15.6834
15.7168
15.755
15.7971
15.8389
15.8968
15.3629
15.3891
15.4181
15.4511
15.4888
15.5301
15.571
15.6279
15.0895
15.1154
15.1442
15.1768
15.214
15.2546
15.2945
15.3505
14.8076
14.8333
14.8618
14.894
14.9307
14.9706
15.0096
15.0647
14.5172
14.5426
14.5709
14.6028
14.639
14.6784
14.7165
14.7708
14.2184
14.2438
14.2719
14.3035
14.3393
14.378
14.4154
14.4689
13.9118
13.9371
13.9649
13.9963
14.0317
14.0699
14.1065
14.1593
13.5978
13.6229
13.6505
13.6816
13.7166
13.7542
13.7901
13.8423
13.2763
13.3012
13.3287
13.3595
13.3942
13.4313
13.4665
13.518
12.9477
12.9725
12.9998
13.0304
13.0646
13.1013
13.1358
13.1868
12.6121
12.6368
12.6639
12.6942
12.7282
12.7644
12.7984
12.8488
12.2697
12.2943
12.3213
12.3514
12.385
12.4208
12.4541
12.504
11.9205
11.945
11.9718
12.0017
12.035
12.0704
12.1032
12.1526
11.5646
11.589
11.6157
11.6454
11.6784
11.7134
11.7457
11.7946
11.2021
11.2265
11.2531
11.2826
11.3154
11.35
11.3818
11.4303
10.8333
10.8575
10.884
10.9133
10.9458
10.98
11.0113
11.0593
10.4579
10.4821
10.5085
10.5377
10.5699
10.6038
10.6346
10.6823
10.0762
10.1004
10.1266
10.1556
10.1875
10.2211
10.2515
10.2987
9.68815
9.71227
9.73848
9.76734
9.79903
9.83229
9.86226
9.90913
9.29399
9.31806
9.34417
9.37284
9.40427
9.43719
9.46672
9.51322
8.89374
8.91779
8.94384
8.9724
9.00364
9.03629
9.06545
9.11163
8.4878
8.51182
8.53779
8.56619
8.59719
8.62954
8.6583
8.70414
8.07607
8.10008
8.12601
8.15432
8.18515
8.21728
8.24573
8.29131
7.65898
7.68296
7.70881
7.73698
7.76759
7.79945
7.82762
7.87297
7.23614
7.26012
7.28594
7.31401
7.34445
7.37611
7.40437
7.45018
6.80784
6.83178
6.85751
6.88543
6.91564
6.94698
6.97503
7.02093
6.37377
6.39767
6.42331
6.45111
6.48115
6.51224
6.54001
6.58565
5.93407
5.95791
5.98347
6.01114
6.041
6.07186
6.09934
6.14473
5.48892
5.51269
5.53813
5.56562
5.59525
5.62587
5.65303
5.69809
5.03855
5.06222
5.08755
5.1149
5.14435
5.17477
5.20171
5.24658
4.5833
4.6068
4.63192
4.65902
4.68816
4.71824
4.74478
4.78925
4.12349
4.14683
4.17178
4.19868
4.2276
4.25748
4.28381
4.32816
3.65869
3.68166
3.70623
3.73275
3.76127
3.79076
3.81668
3.8606
3.18966
3.21231
3.23657
3.26274
3.2909
3.32007
3.3457
3.38943
2.71385
2.73542
2.75873
2.7841
2.8116
2.84029
2.86562
2.90923
2.23578
2.25693
2.27973
2.30451
2.33135
2.35936
2.38407
2.427
1.74347
1.76114
1.78107
1.80365
1.82898
1.85623
1.88086
1.92485
1.26262
1.28107
1.30106
1.32296
1.3469
1.37214
1.39474
1.43504
0.739037
0.746612
0.757711
0.772918
0.792627
0.815723
0.83471
0.883143
0.302154
0.320231
0.33663
0.351768
0.366687
0.383742
0.400942
0.376793
)
;

boundaryField
{
    frontAndBack
    {
        type            empty;
    }
    inlet
    {
        type            zeroGradient;
    }
    outlet
    {
        type            fixedValue;
        value           uniform 0;
    }
    walls
    {
        type            zeroGradient;
    }
}


// ************************************************************************* //
