/*--------------------------------*- C++ -*----------------------------------*\
| =========                 |                                                 |
| \\      /  F ield         | OpenFOAM: The Open Source CFD Toolbox           |
|  \\    /   O peration     | Version:  v2012                                 |
|   \\  /    A nd           | Website:  www.openfoam.com                      |
|    \\/     M anipulation  |                                                 |
\*---------------------------------------------------------------------------*/
FoamFile
{
    version     2.0;
    format      ascii;
    class       scalarField;
    location    "0.066/lagrangian/kinematicCloud";
    object      age;
}
// * * * * * * * * * * * * * * * * * * * * * * * * * * * * * * * * * * * * * //


69
(
0.0652
0.0642
0.0631
0.062
0.061
0.06
0.059
0.058
0.0569
0.0558
0.055725
0.0547
0.0536
0.0525
0.0514
0.0503
0.0492
0.0481
0.047
0.046925
0.0459
0.0448
0.0437
0.0426
0.042525
0.0415
0.0404
0.040325
0.0393
0.039225
0.0382
0.0371
0.036
0.0349
0.034825
0.0339
0.0329
0.0319
0.0309
0.0299
0.0289
0.0279
0.0269
0.0259
0.0249
0.0239
0.0229
0.0219
0.0209
0.0199
0.0189
0.0179
0.0169
0.0159
0.0149
0.0139
0.0129
0.0119
0.0109
0.0099
0.0089
0.0079
0.0069
0.0059
0.0049
0.0039
0.0029
0.0019
0.0009
)


// ************************************************************************* //
