/*--------------------------------*- C++ -*----------------------------------*\
| =========                 |                                                 |
| \\      /  F ield         | OpenFOAM: The Open Source CFD Toolbox           |
|  \\    /   O peration     | Version:  v2012                                 |
|   \\  /    A nd           | Website:  www.openfoam.com                      |
|    \\/     M anipulation  |                                                 |
\*---------------------------------------------------------------------------*/
FoamFile
{
    version     2.0;
    format      ascii;
    class       vectorField;
    location    "0.066/lagrangian/kinematicCloud";
    object      UCorrect;
}
// * * * * * * * * * * * * * * * * * * * * * * * * * * * * * * * * * * * * * //


69
(
(0 0 0)
(0 0 0)
(-3.44074e-25 1.7764e-26 0)
(-7.74945e-28 1.07893e-28 0)
(-4.1411e-25 1.64395e-26 0)
(-4.61768e-25 3.32034e-26 0)
(-2.15399e-25 -2.07828e-26 0)
(-1.18943e-24 4.5865e-26 0)
(0 0 0)
(-8.29563e-25 1.26512e-25 0)
(-8.58524e-25 1.32779e-25 0)
(0 0 0)
(-2.31844e-32 2.18454e-36 0)
(2.33906e-07 2.40015e-11 0)
(0 0 0)
(-1.31888e-24 4.74712e-26 0)
(-5.99916e-25 -2.23494e-27 0)
(-5.15193e-27 -5.30118e-30 0)
(0 0 0)
(0 0 0)
(-1.30632e-24 -2.43245e-26 0)
(0 0 0)
(-1.20148e-24 -3.75044e-26 0)
(0 0 0)
(0 0 0)
(0 0 0)
(-3.3962e-25 -6.71697e-26 0)
(-1.06922e-09 -7.0326e-11 0)
(0 0 0)
(7.78226e-10 6.16895e-11 0)
(5.23527e-09 6.21997e-13 0)
(-6.88058e-28 -4.21508e-29 0)
(0 0 0)
(0 0 0)
(0 0 0)
(0 0 0)
(-7.53137e-10 -1.13827e-11 0)
(5.25787e-10 6.87082e-12 0)
(0 0 0)
(5.53329e-08 1.26073e-11 0)
(-2.65344e-28 -1.35281e-30 0)
(0 0 0)
(-7.74135e-10 8.60877e-13 0)
(5.36894e-10 -1.21554e-12 0)
(-5.5776e-25 -8.57734e-28 0)
(0 0 0)
(-4.31781e-31 -1.36996e-34 0)
(0 0 0)
(0 0 0)
(0 0 0)
(-2.92842e-07 -3.73267e-11 0)
(0 0 0)
(0 0 0)
(-5.28982e-09 -6.28565e-13 0)
(-9.02349e-10 -4.31209e-14 0)
(6.28232e-10 1.73891e-14 0)
(0 0 0)
(-3.4422e-09 -1.33818e-13 0)
(0 0 0)
(2.8751e-09 1.53289e-13 0)
(-7.78136e-09 1.54845e-12 0)
(-9.64639e-10 8.12028e-14 0)
(6.70892e-10 -6.21106e-14 0)
(6.90024e-09 -1.45361e-12 0)
(0 0 0)
(0 0 0)
(0 0 0)
(0 0 0)
(-2.96031e-35 -2.18622e-41 0)
)


// ************************************************************************* //
