/*--------------------------------*- C++ -*----------------------------------*\
| =========                 |                                                 |
| \\      /  F ield         | OpenFOAM: The Open Source CFD Toolbox           |
|  \\    /   O peration     | Version:  v2012                                 |
|   \\  /    A nd           | Website:  www.openfoam.com                      |
|    \\/     M anipulation  |                                                 |
\*---------------------------------------------------------------------------*/
FoamFile
{
    version     2.0;
    format      ascii;
    class       scalarField;
    location    "0.146/lagrangian/kinematicCloud";
    object      age;
}
// * * * * * * * * * * * * * * * * * * * * * * * * * * * * * * * * * * * * * //


54
(
0.1452
0.1442
0.1431
0.142
0.141
0.14
0.139
0.138
0.1369
0.1358
0.135725
0.1347
0.1336
0.1325
0.1314
0.1303
0.1292
0.1281
0.127
0.126925
0.1259
0.1248
0.1237
0.1226
0.122525
0.1215
0.1204
0.120325
0.1193
0.119225
0.1182
0.1171
0.116
0.1149
0.114825
0.1139
0.1129
0.1119
0.1109
0.1099
0.1089
0.1079
0.1069
0.1059
0.1049
0.1039
0.1029
0.1019
0.1009
0.0999
0.0989
0.0979
0.0969
0.0959
)


// ************************************************************************* //
