/*--------------------------------*- C++ -*----------------------------------*\
| =========                 |                                                 |
| \\      /  F ield         | OpenFOAM: The Open Source CFD Toolbox           |
|  \\    /   O peration     | Version:  v2012                                 |
|   \\  /    A nd           | Website:  www.openfoam.com                      |
|    \\/     M anipulation  |                                                 |
\*---------------------------------------------------------------------------*/
FoamFile
{
    version     2.0;
    format      ascii;
    class       Cloud<basicKinematicParcel>;
    location    "0.146/lagrangian/kinematicCloud";
    object      coordinates;
}
// * * * * * * * * * * * * * * * * * * * * * * * * * * * * * * * * * * * * * //

54
(
(0.0609441 0.355967 0.113561 0.469528) 394 589 2
(0.630057 0.136087 0.0488842 0.184971) 898 1796 1
(0.329858 0.335071 0.228639 0.106432) 1198 2394 2
(0.131696 0.312352 0.434152 0.1218) 596 1193 2
(0.220641 0.156337 0.233343 0.38968) 1495 2791 2
(0.178719 0.41064 0.0698643 0.340776) 1196 2390 2
(0.767957 0.116022 0.0734027 0.0426189) 68 134 2
(0.181477 0.409261 0.346566 0.0626952) 1691 3380 2
(0.119999 0.237323 0.44 0.202678) 1590 3181 2
(0.283757 0.358121 0.00449484 0.353627) 793 1584 2
(0.280635 0.359683 0.311464 0.048219) 893 1787 1
(0.154291 0.422854 0.057489 0.365365) 590 1180 2
(0.20875 0.218218 0.177407 0.395625) 1878 3756 1
(0.395741 0.302129 0.142478 0.159652) 178 157 1
(0.666137 0.166932 0.00384286 0.163089) 1880 3561 1
(0.777919 0.00327437 0.107766 0.111041) 989 1978 1
(0.501531 0.100742 0.148492 0.249234) 384 569 2
(0.371516 0.112433 0.314242 0.201809) 1780 3561 2
(0.512519 0.202529 0.243741 0.0412119) 586 1170 1
(0.277068 0.361466 0.0818802 0.279586) 1584 3169 1
(0.110229 0.444885 0.151106 0.29378) 1386 2573 1
(0.499966 0.250017 0.236063 0.0139538) 1780 3558 2
(0.767341 0.0325175 0.0838117 0.116329) 1384 2569 2
(0.806372 0.0968141 0.0923478 0.00446629) 482 965 1
(0.230201 0.384899 0.197896 0.187004) 884 1766 2
(0.180873 0.409563 0.400854 0.00870926) 1383 2764 2
(0.238774 0.11143 0.269183 0.380613) 379 758 1
(0.885023 0.0130718 0.0444166 0.0574884) 1481 2962 1
(0.488855 0.255573 0.229983 0.0255898) 174 349 1
(0.0609551 0.469522 0.0548392 0.414683) 1480 2961 1
(0.0527373 0.473631 0.461323 0.0123086) 38 74 2
(0.89743 0.0512849 0.0335657 0.0177192) 275 550 2
(0.17535 0.401318 0.412325 0.0110067) 1866 3733 2
(0.111802 0.405075 0.0390243 0.444099) 1078 2156 1
(0.139648 0.430176 0.266458 0.163718) 678 1157 1
(0.311408 0.149166 0.344296 0.195131) 1278 2554 1
(0.64768 0.17616 0.0991205 0.0770396) 777 1355 1
(0.0647823 0.467609 0.223815 0.243794) 876 1752 2
(0.127846 0.163071 0.436077 0.273006) 1276 2550 1
(0.390979 0.232918 0.30451 0.0715923) 63 127 2
(0.327046 0.0459774 0.336477 0.290499) 674 1349 2
(0.219632 0.390184 0.128123 0.262061) 1274 2546 2
(0.0369474 0.0688853 0.481526 0.412641) 573 1144 1
(0.279674 0.360163 0.279727 0.0804358) 572 1142 2
(0.122952 0.438524 0.38507 0.0534539) 772 1542 2
(0.391877 0.304061 0.0419109 0.262151) 1171 2343 1
(0.00124437 0.189158 0.499378 0.310219) 1469 2939 2
(0.224722 0.376469 0.387639 0.0111701) 970 1938 1
(0.274665 0.362667 0.203475 0.159192) 869 1539 1
(0.270352 0.364824 0.119901 0.244923) 1368 2737 1
(0.446097 0.276952 0.0106005 0.266351) 365 730 2
(0.029836 0.485082 0.158193 0.326889) 767 1535 1
(0.225298 0.387351 0.192542 0.194809) 1565 3131 1
(0.0604298 0.135565 0.33422 0.469785) 261 323 2
)


// ************************************************************************* //
