/*--------------------------------*- C++ -*----------------------------------*\
| =========                 |                                                 |
| \\      /  F ield         | OpenFOAM: The Open Source CFD Toolbox           |
|  \\    /   O peration     | Version:  v2012                                 |
|   \\  /    A nd           | Website:  www.openfoam.com                      |
|    \\/     M anipulation  |                                                 |
\*---------------------------------------------------------------------------*/
FoamFile
{
    version     2.0;
    format      ascii;
    class       Cloud<basicKinematicParcel>;
    location    "0.146/lagrangian/kinematicCloud";
    object      positions;
}
// * * * * * * * * * * * * * * * * * * * * * * * * * * * * * * * * * * * * * //

54
(
(2.1787 0.00120357 0.03) 2048
(2.36114 0.0123442 0.03) 2761
(2.33612 0.0203335 0.03) 3059
(2.2724 0.00668813 0.03) 2455
(2.23369 0.0280161 0.03) 3252
(2.28165 0.0212863 0.03) 3055
(1.54344 0.000796231 0.03) 2003
(2.09387 0.032746 0.03) 3542
(2.08711 0.0324081 0.03) 3441
(2.20414 0.0108945 0.03) 2650
(2.21774 0.014387 0.03) 2851
(2.11693 0.00588063 0.03) 2444
(1.76495 0.0377578 0.03) 3818
(1.74489 0.00109137 0.03) 2017
(1.8067 0.0371154 0.03) 3721
(2.1254 0.0170132 0.03) 2944
(1.93112 0.00327527 0.03) 2230
(1.81696 0.0363085 0.03) 3722
(2.00187 0.0073771 0.03) 2435
(1.93305 0.0327534 0.03) 3530
(2.01055 0.0268085 0.03) 3236
(1.81124 0.0354568 0.03) 3622
(1.96553 0.0276733 0.03) 3233
(1.89168 0.00614285 0.03) 2427
(1.97692 0.0140048 0.03) 2734
(1.93198 0.0271432 0.03) 3230
(1.81601 0.00503947 0.03) 2322
(1.87599 0.0303678 0.03) 3326
(1.63931 0.00255789 0.03) 2209
(1.84317 0.0312958 0.03) 3424
(0.671955 9.26642e-05 0.03) 44
(1.68665 0.00363218 0.03) 2213
(1.42821 0.038405 0.03) 1895
(1.84206 0.0208326 0.03) 3024
(1.80233 0.00959968 0.03) 2621
(1.8065 0.0265271 0.03) 3221
(1.79028 0.0124481 0.03) 2720
(1.78335 0.0147336 0.03) 2820
(1.75086 0.0268575 0.03) 3217
(1.35933 0.00137118 0.03) 190
(1.71347 0.011643 0.03) 2615
(1.70171 0.0260205 0.03) 3214
(1.65907 0.00984856 0.03) 2611
(1.6275 0.0085693 0.03) 2509
(1.64319 0.0124553 0.03) 2710
(1.63326 0.0247702 0.03) 3109
(1.56483 0.0317489 0.03) 3404
(1.60068 0.0185666 0.03) 2907
(1.57689 0.0149452 0.03) 2805
(1.53722 0.0295106 0.03) 3302
(1.44108 0.00510873 0.03) 396
(1.52174 0.0145617 0.03) 2801
(1.43842 0.0333665 0.03) 1595
(1.32247 0.00310766 0.03) 288
)


// ************************************************************************* //
