/*--------------------------------*- C++ -*----------------------------------*\
| =========                 |                                                 |
| \\      /  F ield         | OpenFOAM: The Open Source CFD Toolbox           |
|  \\    /   O peration     | Version:  v2012                                 |
|   \\  /    A nd           | Website:  www.openfoam.com                      |
|    \\/     M anipulation  |                                                 |
\*---------------------------------------------------------------------------*/
FoamFile
{
    version     2.0;
    format      ascii;
    class       vectorField;
    location    "0.146/lagrangian/kinematicCloud";
    object      U;
}
// * * * * * * * * * * * * * * * * * * * * * * * * * * * * * * * * * * * * * //


54
(
(9.10226 -0.000750046 0)
(10.3194 -0.000901516 0)
(10.3221 -0.000791058 0)
(9.97579 -0.000299248 0)
(9.92165 -0.00113886 0)
(10.3187 -0.000972587 0)
(5.51866 -0.00198191 0)
(9.33034 -0.00176222 0)
(9.40434 -0.0021606 0)
(10.2379 0.000581671 0)
(10.3598 -0.000193942 0)
(9.79219 0.00132003 0)
(7.79871 -0.00144583 0)
(7.80774 0.00062095 0)
(8.21076 -0.000995948 0)
(10.3905 -0.000305755 0)
(9.20026 0.00192811 0)
(8.59855 -0.00249688 0)
(9.90078 0.00313358 0)
(9.45054 -0.00391246 0)
(10.1386 -0.00453336 0)
(8.8982 -0.0040392 0)
(10.0858 -0.00495779 0)
(9.67911 0.00297668 0)
(10.3155 0.00210733 0)
(10.1373 -0.00507886 0)
(9.43559 0.00314052 0)
(9.85375 -0.00508887 0)
(8.4458 0.00240554 0)
(9.7513 -0.00504504 0)
(2.18132 -0.000459554 0)
(8.95157 0.00124162 0)
(7.5239 -0.00311515 0)
(10.344 -0.00213911 0)
(10.0516 0.00375087 0)
(10.2056 -0.00502924 0)
(10.2291 0.00330485 0)
(10.2999 0.002267 0)
(10.2006 -0.00516028 0)
(7.42149 -0.00100008 0)
(10.1818 0.00368444 0)
(10.2411 -0.0049601 0)
(10.0504 0.00410224 0)
(9.92103 0.00388408 0)
(10.2165 0.00364258 0)
(10.2773 -0.00435494 0)
(9.83746 -0.00569265 0)
(10.3093 3.0242e-05 0)
(10.2792 0.00255756 0)
(10.0808 -0.00592894 0)
(9.41922 0.00302251 0)
(10.2704 0.00280584 0)
(9.65103 -0.00514682 0)
(8.89519 0.0028748 0)
)


// ************************************************************************* //
