/*--------------------------------*- C++ -*----------------------------------*\
| =========                 |                                                 |
| \\      /  F ield         | OpenFOAM: The Open Source CFD Toolbox           |
|  \\    /   O peration     | Version:  v2012                                 |
|   \\  /    A nd           | Website:  www.openfoam.com                      |
|    \\/     M anipulation  |                                                 |
\*---------------------------------------------------------------------------*/
FoamFile
{
    version     2.0;
    format      ascii;
    class       scalarField;
    location    "0.104/lagrangian/kinematicCloud";
    object      age;
}
// * * * * * * * * * * * * * * * * * * * * * * * * * * * * * * * * * * * * * //


54
(
0.1032
0.1022
0.1011
0.1
0.099
0.098
0.097
0.096
0.0949
0.0938
0.093725
0.0927
0.0916
0.0905
0.0894
0.0883
0.0872
0.0861
0.085
0.084925
0.0839
0.0828
0.0817
0.0806
0.080525
0.0795
0.0784
0.078325
0.0773
0.077225
0.0762
0.0751
0.074
0.0729
0.072825
0.0719
0.0709
0.0699
0.0689
0.0679
0.0669
0.0659
0.0649
0.0639
0.0629
0.0619
0.0609
0.0599
0.0589
0.0579
0.0569
0.0559
0.0549
0.0539
)


// ************************************************************************* //
