/*--------------------------------*- C++ -*----------------------------------*\
| =========                 |                                                 |
| \\      /  F ield         | OpenFOAM: The Open Source CFD Toolbox           |
|  \\    /   O peration     | Version:  v2012                                 |
|   \\  /    A nd           | Website:  www.openfoam.com                      |
|    \\/     M anipulation  |                                                 |
\*---------------------------------------------------------------------------*/
FoamFile
{
    version     2.0;
    format      ascii;
    class       Cloud<basicKinematicParcel>;
    location    "0.104/lagrangian/kinematicCloud";
    object      coordinates;
}
// * * * * * * * * * * * * * * * * * * * * * * * * * * * * * * * * * * * * * //

54
(
(0.0935839 0.235178 0.21803 0.453208) 368 537 2
(0.157182 0.360073 0.0613364 0.421409) 869 1738 1
(0.56474 0.21763 0.105373 0.112257) 1169 2139 1
(0.124116 0.424421 0.437942 0.0135214) 568 1137 2
(0.270182 0.122005 0.242904 0.364909) 1467 2735 2
(0.597883 0.201059 0.0549766 0.146082) 1167 2332 2
(0.287981 0.35601 0.34405 0.0119599) 51 102 2
(0.411079 0.201728 0.0927322 0.294461) 1664 3129 2
(0.00592018 0.49704 0.488854 0.00818577) 1564 3129 1
(0.948883 0.0255584 0.0182596 0.00729887) 764 1526 2
(0.278737 0.360631 0.174119 0.186512) 864 1729 1
(0.19486 0.40257 0.149382 0.253188) 563 927 1
(0.531713 0.209561 0.234144 0.0245827) 1856 3713 2
(0.165562 0.417219 0.0868217 0.330397) 155 310 2
(0.378172 0.310914 0.186765 0.124149) 1856 3712 2
(0.594878 0.0917188 0.110842 0.202561) 960 1920 1
(0.372731 0.313635 0.296531 0.0171039) 358 517 1
(0.211507 0.394246 0.383275 0.0109713) 1756 3513 1
(0.614073 0.192963 0.0393157 0.153648) 558 1114 2
(0.0667863 0.38051 0.466607 0.0860973) 1557 3115 2
(0.301076 0.130016 0.219446 0.349462) 1357 2515 2
(0.277297 0.361352 0.253599 0.107753) 1754 3508 2
(0.407192 0.296404 0.0114349 0.284969) 1356 2710 2
(0.0359174 0.473894 0.00814771 0.482041) 454 908 1
(0.531321 0.23434 0.0532807 0.181059) 855 1511 1
(0.410511 0.193121 0.101623 0.294744) 1354 2509 2
(0.120616 0.271702 0.439692 0.16799) 353 704 1
(0.619003 0.0237336 0.166765 0.190499) 1453 2906 1
(0.113175 0.279344 0.443412 0.164068) 150 298 1
(0.202208 0.0781693 0.320727 0.398896) 1552 2905 2
(0.10947 0.445265 0.354903 0.0903617) 30 22250 2
(0.103239 0.448381 0.373804 0.0745766) 249 498 2
(0.0553376 0.142606 0.329725 0.472331) 1944 3689 2
(0.272473 0.296355 0.363764 0.0674084) 1050 2098 1
(0.0237104 0.0054569 0.488145 0.482688) 550 1098 1
(0.426154 0.252506 0.286923 0.0344166) 1249 2499 2
(0.466288 0.266856 0.0280893 0.238767) 748 1496 2
(0.425732 0.287134 0.280631 0.00650266) 848 1694 2
(0.266669 0.366666 0.0493225 0.317343) 1247 2495 1
(0.26777 0.0423117 0.323803 0.366115) 41 82 1
(0.416299 0.0341942 0.291851 0.257656) 646 1290 1
(0.870008 0.0649961 0.0413168 0.0236793) 1245 2488 2
(0.376509 0.135452 0.311745 0.176293) 544 1089 2
(0.125347 0.437327 0.378624 0.058703) 544 1086 2
(0.0954974 0.452251 0.376055 0.0761963) 743 1287 1
(0.260948 0.128014 0.369526 0.241512) 1142 2285 2
(0.202583 0.398708 0.0475438 0.351165) 1541 3082 2
(0.743737 0.11786 0.128131 0.0102711) 941 1880 1
(0.196287 0.273387 0.128469 0.401856) 840 1481 2
(0.0287214 0.0290555 0.485639 0.456584) 1339 2679 2
(0.269744 0.0385995 0.326529 0.365128) 338 477 2
(0.124536 0.297692 0.437732 0.14004) 738 1477 2
(0.0553871 0.19301 0.279296 0.472306) 1637 3075 2
(0.165188 0.417406 0.327024 0.0903819) 136 273 1
)


// ************************************************************************* //
