/*--------------------------------*- C++ -*----------------------------------*\
| =========                 |                                                 |
| \\      /  F ield         | OpenFOAM: The Open Source CFD Toolbox           |
|  \\    /   O peration     | Version:  v2012                                 |
|   \\  /    A nd           | Website:  www.openfoam.com                      |
|    \\/     M anipulation  |                                                 |
\*---------------------------------------------------------------------------*/
FoamFile
{
    version     2.0;
    format      ascii;
    class       scalarField;
    location    "0.145/lagrangian/kinematicCloud";
    object      age;
}
// * * * * * * * * * * * * * * * * * * * * * * * * * * * * * * * * * * * * * //


54
(
0.1442
0.1432
0.1421
0.141
0.14
0.139
0.138
0.137
0.1359
0.1348
0.134725
0.1337
0.1326
0.1315
0.1304
0.1293
0.1282
0.1271
0.126
0.125925
0.1249
0.1238
0.1227
0.1216
0.121525
0.1205
0.1194
0.119325
0.1183
0.118225
0.1172
0.1161
0.115
0.1139
0.113825
0.1129
0.1119
0.1109
0.1099
0.1089
0.1079
0.1069
0.1059
0.1049
0.1039
0.1029
0.1019
0.1009
0.0999
0.0989
0.0979
0.0969
0.0959
0.0949
)


// ************************************************************************* //
