/*--------------------------------*- C++ -*----------------------------------*\
| =========                 |                                                 |
| \\      /  F ield         | OpenFOAM: The Open Source CFD Toolbox           |
|  \\    /   O peration     | Version:  v2012                                 |
|   \\  /    A nd           | Website:  www.openfoam.com                      |
|    \\/     M anipulation  |                                                 |
\*---------------------------------------------------------------------------*/
FoamFile
{
    version     2.0;
    format      ascii;
    class       volScalarField;
    location    "0.316";
    object      omega.air;
}
// * * * * * * * * * * * * * * * * * * * * * * * * * * * * * * * * * * * * * //

dimensions      [0 0 -1 0 0 0 0];


internalField   nonuniform List<scalar> 
5600
(
6586.3
7485.49
7886.81
7965.17
7866.41
7687.45
7480.97
7290.05
7125.33
6987.78
6878.92
6796.29
6736.28
6693.38
6663.67
6642.27
6627.08
6614.8
6605.36
6596.46
6589.64
6582.63
6577.88
6573.09
6570.52
6567.58
6566.37
6564.62
6564.08
6562.72
6562.16
6560.55
6559.63
6557.66
6556.49
6554.33
6553.05
6550.83
6549.58
6547.42
6546.31
6544.31
6543.44
6541.66
6541.08
6539.56
6539.26
6537.98
6537.89
6536.8
6536.9
6535.87
6536.2
6535.29
6535.85
6535.08
6535.89
6535.27
6536.31
6535.87
6537.19
6536.84
6538.45
6538.17
6540.05
6539.84
6541.99
6541.82
6544.26
6544.09
6546.84
6546.64
6549.73
6549.47
6552.92
6552.57
6556.4
6555.94
6560.11
6559.57
6563.98
6563.46
6567.9
6567.67
6571.69
6572.4
6575.01
6578.12
6577.16
6586.02
6576.67
6598.57
6569.11
6622.94
6540.56
6683.57
6440.53
6868.23
6038.73
7491.18
2450.55
2296.51
2571.67
2795.07
2928.22
2998.02
3010.27
2968.22
2968.92
3017.26
3073.44
3119
3147.16
3158.5
3154.91
3140.54
3118.26
3091.3
3062.14
3032.56
3003.23
2973.99
2945.02
2916.51
2889.21
2863.29
2839.66
2817.46
2797.58
2778.6
2761.96
2745.94
2732.08
2718.69
2707.18
2696
2686.39
2677.03
2668.96
2661.1
2654.28
2647.65
2641.87
2636.28
2631.28
2626.32
2621.89
2617.43
2613.51
2609.49
2606.05
2602.59
2599.54
2596.51
2593.89
2591.25
2589
2586.7
2584.8
2582.73
2581.11
2579.33
2577.93
2576.38
2575.18
2573.82
2572.79
2571.63
2570.71
2569.77
2568.97
2568.19
2567.52
2566.89
2566.35
2565.86
2565.42
2565.06
2564.68
2564.45
2564.07
2564.03
2563.57
2563.84
2563.15
2563.98
2562.67
2564.68
2561.81
2566.36
2559.41
2570.76
2552.88
2582.36
2534.8
2614.58
2478.57
2715.26
2279.53
3066.73
2358.54
1859.93
1592.13
1427.82
1346.09
1273.82
1279.95
1309.16
1351.9
1412.46
1482.26
1549.53
1611.13
1663.93
1704.88
1733.42
1749.11
1752.48
1744.3
1726.5
1702.38
1676.78
1653.6
1634.91
1619.45
1605.79
1593.23
1581.77
1571.23
1561
1551.15
1540.95
1531.32
1521.67
1512.9
1504.19
1496.4
1488.69
1481.88
1475.15
1469.21
1463.34
1458.12
1452.86
1448.27
1443.64
1439.61
1435.49
1431.95
1428.3
1425.18
1421.97
1419.25
1416.43
1414.08
1411.58
1409.54
1407.33
1405.55
1403.54
1401.98
1400.16
1398.78
1397.11
1395.91
1394.36
1393.32
1391.9
1391
1389.73
1388.94
1387.81
1387.13
1386.12
1385.53
1384.64
1384.09
1383.34
1382.76
1382.21
1381.5
1381.3
1380.25
1380.67
1378.9
1380.51
1377.22
1381.14
1374.74
1383.22
1370.37
1388.32
1361.81
1400.01
1343.74
1425.75
1304.99
1478.48
1229.38
1556.04
2345.16
1822.38
1493.22
1267.66
1111.15
992.62
906.849
846.946
802.64
776.735
760.415
769.433
791.642
824.079
860.93
902.266
941.257
978.664
1011.2
1039.65
1061.38
1079.17
1091.62
1100.98
1105.71
1107.16
1103.57
1097.11
1087.59
1078.02
1068.44
1060.71
1053.93
1048.05
1042.52
1037.35
1032.5
1027.86
1023.56
1019.23
1015.11
1010.63
1006.16
1001.42
996.989
992.443
988.338
984.175
980.479
976.736
973.451
970.125
967.226
964.274
961.709
959.012
956.663
954.154
951.988
949.64
947.644
945.447
943.62
941.57
939.911
938.004
936.507
934.746
933.408
931.786
930.587
929.115
928.02
926.677
925.648
924.434
923.433
922.421
921.383
920.646
919.421
919.124
917.479
917.929
915.456
917.195
913.172
917.136
910.31
918.127
906.352
920.818
900.506
926.176
891.828
934.537
880.85
942.045
875.431
926.572
2341.97
1815.98
1479.81
1247.93
1079.71
952.579
853.185
774.616
710.649
658.885
616.118
581.934
556.224
536.17
523.573
514.795
513.771
520.916
532.25
549.215
568.532
591.923
616.105
642.235
667.073
692.208
713.805
733.368
748.175
760.899
769.706
777.431
782.134
786.064
787.252
787.774
785.845
783.576
779.515
775.793
771.212
767.6
764.159
761.306
758.39
755.714
753.014
750.448
747.965
745.574
743.344
741.149
739.071
736.966
734.811
732.434
730.124
727.682
725.391
722.996
720.8
718.505
716.439
714.273
712.36
710.343
708.587
706.727
705.123
703.4
701.917
700.287
698.862
697.322
695.918
694.499
693.075
691.832
690.348
689.381
687.739
687.175
685.212
685.265
682.707
683.726
680.146
682.607
677.429
681.986
674.47
681.892
671.325
682.071
668.526
681.407
667.714
677.137
671.832
664.947
2341.13
1814.13
1476.76
1243.89
1074.16
945.333
844.327
763.134
696.603
641
594.216
553.995
519.7
489.851
464.158
441.905
422.622
406.919
393.559
383.395
375.278
370.36
367.316
368.998
373.091
381.395
391.405
405.431
419.961
437.815
454.59
473.792
490.9
509.303
524.546
540.283
552.246
564.163
572.361
580.471
585.548
590.738
593.873
597.311
598.917
600.756
600.914
601.285
600.176
599.326
597.303
595.627
593.229
591.231
589.092
587.479
585.73
584.284
582.706
581.3
579.829
578.436
577.07
575.712
574.467
573.174
572.035
570.813
569.704
568.504
567.303
565.929
564.59
563.185
561.77
560.426
558.942
557.713
556.131
555.1
553.389
552.648
550.732
550.388
548.158
548.345
545.667
546.508
543.258
544.836
540.972
543.225
538.932
541.414
537.389
539.034
536.593
535.851
535.99
532.426
2340.86
1813.44
1475.75
1242.6
1072.61
943.436
842.138
760.54
693.596
637.493
590.076
549.205
513.889
482.886
455.601
431.363
409.768
390.355
373.07
357.318
343.39
330.637
319.412
309.373
300.74
293.304
287.182
282.348
278.879
276.86
276.53
278.459
281.683
287.373
293.932
303.057
312.435
324.207
335.435
348.586
360.51
374.058
385.577
398.416
408.865
420.319
429.162
438.697
445.581
452.912
457.777
462.936
466.087
469.469
471.447
473.831
475.089
476.682
477.312
478.187
478.248
478.472
478.037
477.696
476.859
476.067
474.972
473.88
472.75
471.574
470.541
469.571
468.671
467.801
466.921
466.122
465.201
464.479
463.467
462.849
461.715
461.251
459.969
459.698
458.245
458.174
456.537
456.653
454.825
455.077
453.089
453.373
451.318
451.454
449.44
449.37
447.35
447.294
444.533
445.251
2340.76
1813.13
1475.33
1242.07
1072
942.722
841.358
759.659
692.638
636.431
588.915
547.914
512.495
481.276
453.892
429.292
407.569
387.624
370.049
353.535
339.052
325.191
313.075
301.292
291.108
280.954
272.435
263.611
256.534
248.909
243.12
236.718
232.202
227.013
223.816
219.921
218.13
215.714
215.451
215.053
216.681
218.405
221.932
225.794
231.162
237.046
244.034
251.624
259.809
268.527
277.388
286.639
295.661
304.868
313.424
322.037
329.853
337.635
344.543
351.281
357.152
362.714
367.494
371.834
375.517
378.659
381.36
383.449
385.374
386.691
388.076
388.993
390.044
390.619
391.34
391.624
392.007
392.057
392.095
391.944
391.637
391.337
390.697
390.304
389.353
388.911
387.687
387.233
385.775
385.328
383.669
383.231
381.411
381.032
379.051
378.746
376.451
376.295
373.399
373.312
2340.71
1812.97
1475.12
1241.81
1071.71
942.396
841.006
759.282
692.226
636.005
588.449
547.426
511.983
480.712
453.327
428.651
406.919
386.905
369.277
352.704
338.128
324.171
311.951
299.986
289.668
279.228
270.473
261.247
253.766
245.546
239.125
231.731
226.242
219.522
214.878
208.731
204.849
199.23
196.053
190.955
188.497
183.911
182.189
178.153
177.193
173.794
173.636
171.006
171.717
170.108
171.878
171.413
174.261
175.051
179.001
181.089
186.091
189.397
195.347
199.719
206.433
211.635
218.856
224.571
232.03
237.962
245.375
251.268
258.307
263.831
270.27
275.31
281.093
285.587
290.632
294.54
298.807
302.121
305.591
308.284
310.936
313.043
314.897
316.468
317.56
318.644
319.063
319.748
319.587
319.957
319.326
319.47
318.486
318.532
317.239
317.097
315.453
315.102
313.098
312.276
2340.68
1812.9
1475.02
1241.69
1071.57
942.257
840.839
759.128
692.032
635.836
588.235
547.238
511.752
480.505
453.07
428.438
406.622
386.691
368.939
352.478
337.76
323.918
311.549
299.707
289.208
278.93
269.93
260.914
253.124
245.139
238.355
231.206
225.279
218.817
213.62
207.738
203.162
197.778
193.744
188.782
185.236
180.634
177.529
173.25
170.543
166.558
164.225
160.513
158.544
155.101
153.49
150.343
149.079
146.25
145.346
142.866
142.364
140.267
140.182
138.547
138.908
137.813
138.64
138.228
139.581
139.889
141.759
142.788
145.168
146.918
149.774
152.167
155.405
158.37
161.913
165.352
169.092
172.865
176.703
180.698
184.532
188.622
192.344
196.399
199.928
203.832
207.092
210.745
213.66
216.969
219.488
222.339
224.419
226.692
228.407
230.316
231.762
233.228
234.389
235.269
2340.68
1812.91
1475.03
1241.71
1071.58
942.283
840.845
759.158
692.035
635.867
588.234
547.272
511.743
480.549
453.047
428.494
406.588
386.755
368.898
352.547
337.712
323.998
311.484
299.808
289.123
279.05
269.829
261.051
253.009
245.297
238.221
231.392
225.124
219.034
213.449
207.986
202.985
198.064
193.564
189.121
185.061
181.046
177.378
173.756
170.442
167.196
164.209
161.339
158.681
156.189
153.872
151.767
149.825
148.136
146.604
145.383
144.309
143.617
143.069
143.009
143.125
143.749
144.581
145.932
147.529
149.629
151.998
154.817
157.898
161.356
165.048
169.037
173.222
177.595
182.11
186.706
191.388
196.051
200.727
205.285
209.792
214.115
218.324
222.258
226.015
229.478
232.749
235.744
238.533
241.067
243.385
245.474
247.342
249.01
250.439
251.679
252.679
253.529
254.162
254.737
2340.71
1813
1475.15
1241.86
1071.74
942.465
841.029
759.363
692.237
636.092
588.452
547.517
511.973
480.819
453.29
428.788
406.848
387.072
369.182
352.89
338.02
324.379
311.819
300.237
289.5
279.539
270.273
261.622
253.553
245.995
238.913
232.289
226.053
220.236
214.755
209.656
204.869
200.45
196.357
192.627
189.234
186.217
183.577
181.337
179.537
178.177
177.323
177.087
177.422
178.425
180.038
182.361
185.322
188.968
193.24
198.122
203.564
209.502
215.887
222.583
229.582
236.721
244.003
251.242
258.479
265.441
272.235
278.655
284.861
290.64
296.164
301.238
306.029
310.352
314.363
317.909
321.132
323.908
326.366
328.398
330.133
331.503
332.601
333.436
334.046
334.466
334.768
334.906
334.93
334.805
334.555
334.174
333.659
333.028
332.263
331.402
330.418
329.381
328.281
327.238
2340.76
1813.17
1475.39
1242.15
1072.07
942.822
841.415
759.775
692.676
636.557
588.944
548.041
512.522
481.409
453.907
429.46
407.553
387.85
370.009
353.822
339.028
325.542
313.101
301.752
291.218
281.613
272.69
264.575
257.066
250.339
244.218
238.888
234.155
230.28
227.043
224.768
223.198
222.822
223.484
225.325
228.236
232.326
237.478
243.715
250.899
258.949
267.709
276.959
286.616
296.424
306.338
316.024
325.444
334.47
343.072
351.151
358.691
365.614
371.919
377.553
382.535
386.843
390.522
393.591
396.115
398.167
399.859
401.299
402.535
403.548
404.383
405.007
405.475
405.749
405.879
405.833
405.656
405.327
404.889
404.324
403.678
402.941
402.144
401.332
400.468
399.63
398.806
397.985
397.145
396.289
395.394
394.473
393.499
392.493
391.431
390.341
389.202
388.065
386.94
385.92
2340.87
1813.49
1475.85
1242.7
1072.73
943.557
842.25
760.681
693.693
637.656
590.18
549.376
514.042
483.076
455.845
431.635
410.13
390.847
373.644
358.168
344.354
332.01
321.094
311.745
303.653
297.152
291.931
288.427
286.311
286.459
288.568
292.784
298.884
306.931
316.617
327.792
340.093
353.153
366.639
380.345
393.8
406.909
419.346
431.065
441.762
451.456
459.902
467.214
473.254
478.258
482.206
485.387
488.035
490.203
491.94
493.258
494.188
494.74
494.946
494.823
494.407
493.727
492.831
491.759
490.569
489.343
488.133
487.049
486.03
485.057
484.101
483.155
482.21
481.268
480.321
479.375
478.429
477.492
476.566
475.655
474.763
473.881
473.021
472.146
471.289
470.374
469.401
468.397
467.36
466.314
465.245
464.181
463.094
462.021
460.927
459.858
458.778
457.745
456.781
455.974
2341.15
1814.19
1476.91
1243.99
1074.37
945.464
844.558
763.342
696.864
641.37
594.589
554.621
520.5
490.962
465.762
443.831
425.82
410.633
398.928
389.603
383.743
380.085
380.94
385.402
393.436
404.669
418.829
435.246
453.413
472.414
491.918
511.216
529.565
546.642
561.814
575.034
585.948
594.93
601.972
607.591
612.15
615.743
618.424
620.213
621.135
621.258
620.631
619.392
617.625
615.553
613.242
611.015
609.051
607.251
605.536
603.875
602.236
600.622
599.02
597.453
595.913
594.431
592.988
591.611
590.257
588.946
587.588
586.135
584.598
583.036
581.443
579.858
578.269
576.702
575.139
573.604
572.094
570.62
569.186
567.795
566.446
565.144
563.89
562.679
561.508
560.374
559.26
558.175
557.1
556.054
555.009
554
552.985
552.019
551.038
550.119
549.202
548.372
547.654
547.152
2342.03
1815.98
1480.11
1247.96
1080.28
952.706
854.161
775.203
712.348
660.616
619.076
586.932
562.598
545.507
534.584
530.077
534.45
545.063
561.029
581.076
604.57
630.61
657.649
684.795
711.039
734.718
754.968
771.335
784.177
794.175
801.84
807.314
810.765
812.232
811.874
809.912
806.64
802.648
798.212
794.141
790.649
787.472
784.454
781.477
778.556
775.68
772.907
770.235
767.704
765.259
762.898
760.506
757.928
755.276
752.583
749.907
747.252
744.656
742.109
739.645
737.244
734.94
732.708
730.582
728.53
726.583
724.697
722.888
721.105
719.381
717.676
716.026
714.395
712.816
711.266
709.775
708.328
706.94
705.598
704.312
703.072
701.887
700.746
699.659
698.612
697.619
696.66
695.747
694.857
694.014
693.181
692.397
691.612
690.885
690.147
689.48
688.823
688.273
687.88
687.785
2345.25
1822.39
1493.86
1268.16
1113.23
994.178
912.593
852.015
814.514
787.866
783.662
800.116
829.084
866.038
907.634
950.23
990.288
1026.99
1058.27
1083.61
1103.44
1118.45
1129.08
1135.73
1137.46
1134.74
1127.99
1118.69
1108.65
1099.46
1091.81
1085.14
1079.04
1073.27
1067.82
1062.62
1057.74
1052.99
1048.38
1043.52
1038.47
1033.33
1028.23
1023.25
1018.47
1013.89
1009.56
1005.45
1001.59
997.954
994.538
991.334
988.272
985.353
982.537
979.837
977.228
974.725
972.306
969.99
967.755
965.623
963.568
961.616
959.739
957.963
956.258
954.647
953.096
951.62
950.193
948.83
947.506
946.248
945.042
943.896
942.79
941.739
940.724
939.761
938.839
937.96
937.12
936.323
935.563
934.848
934.167
933.529
932.917
932.353
931.801
931.304
930.799
930.365
929.907
929.546
929.189
928.983
928.985
929.415
2358.73
1860.91
1594.77
1434.01
1353.99
1289
1305.25
1337.29
1392.12
1465.15
1539.73
1610.27
1672.38
1723.06
1760.08
1783.38
1792.55
1788.85
1773.31
1750.18
1724.15
1700.71
1682.17
1666.51
1652.51
1639.48
1627.39
1615.94
1604.93
1593.83
1582.73
1571.91
1561.57
1551.73
1542.45
1533.71
1525.55
1517.91
1510.81
1504.16
1497.94
1492.03
1486.48
1481.29
1476.43
1471.85
1467.55
1463.51
1459.72
1456.17
1452.85
1449.75
1446.84
1444.13
1441.57
1439.17
1436.9
1434.76
1432.72
1430.8
1428.96
1427.22
1425.57
1424
1422.51
1421.09
1419.76
1418.5
1417.3
1416.18
1415.12
1414.12
1413.19
1412.3
1411.45
1410.64
1409.86
1409.11
1408.41
1407.74
1407.11
1406.52
1405.97
1405.45
1404.97
1404.53
1404.12
1403.76
1403.42
1403.14
1402.86
1402.64
1402.41
1402.28
1402.07
1402.06
1401.95
1402.22
1402.69
1403.85
2454.74
2305.68
2580.44
2808.67
2934.22
3010.01
2994.57
2967.45
3014.83
3085.64
3150.03
3196.61
3222.41
3229.88
3222.23
3203.95
3178.36
3148.8
3117.79
3086.34
3054.82
3023.05
2991.97
2961.67
2933.61
2907.2
2882.91
2860.48
2839.91
2820.98
2803.65
2787.82
2773.39
2760.22
2748.2
2737.21
2727.14
2717.94
2709.48
2701.76
2694.62
2688.07
2682
2676.3
2670.91
2665.8
2660.99
2656.44
2652.17
2648.16
2644.41
2640.9
2637.62
2634.57
2631.73
2629.08
2626.6
2624.29
2622.12
2620.1
2618.18
2616.4
2614.71
2613.13
2611.66
2610.28
2609
2607.8
2606.71
2605.68
2604.74
2603.89
2603.1
2602.38
2601.71
2601.1
2600.53
2600.01
2599.52
2599.08
2598.69
2598.35
2598.05
2597.8
2597.6
2597.44
2597.33
2597.27
2597.24
2597.27
2597.33
2597.44
2597.56
2597.77
2597.92
2598.33
2598.52
2599.47
2600.42
2602.42
6588.08
7481.93
7876.76
7936
7826.38
7629.93
7415.08
7222.08
7053.55
6914.35
6805.39
6723.41
6664.03
6621.63
6591.85
6570.24
6554.28
6541.58
6531.2
6522.48
6514.92
6508.91
6504.01
6500.33
6497.42
6495.1
6493.31
6491.84
6490.47
6489.03
6487.34
6485.47
6483.4
6481.23
6478.93
6476.61
6474.25
6471.94
6469.66
6467.5
6465.43
6463.5
6461.71
6460.09
6458.62
6457.28
6456.06
6454.93
6453.9
6452.95
6452.09
6451.33
6450.67
6450.13
6449.7
6449.38
6449.17
6449.09
6449.12
6449.25
6449.49
6449.82
6450.27
6450.8
6451.41
6452.11
6452.9
6453.77
6454.73
6455.76
6456.89
6458.1
6459.38
6460.74
6462.18
6463.67
6465.24
6466.85
6468.52
6470.22
6471.97
6473.74
6475.56
6477.41
6479.3
6481.22
6483.2
6485.19
6487.25
6489.33
6491.47
6493.62
6495.86
6498.07
6500.44
6502.59
6504.93
6506.76
6507.99
6507.9
5491.27
3367.64
2415.43
1948.44
1665.39
1480.83
1346.9
1246.02
1163.95
1095.62
1037.21
985.902
940.051
898.621
860.815
825.77
793.062
762.124
732.488
704.073
676.69
650.302
624.92
600.55
577.113
554.673
533.189
512.694
493.144
474.523
456.824
440.091
424.288
409.364
395.258
381.902
369.246
357.238
345.829
334.974
324.632
314.766
305.342
296.328
287.698
279.421
271.474
263.836
256.485
249.398
242.559
235.94
229.535
223.319
217.295
211.43
205.747
200.211
194.862
189.638
184.609
179.707
175.051
170.523
166.277
162.166
158.412
154.777
151.541
148.333
145.637
142.851
140.708
138.2
136.511
134.191
132.989
130.756
129.886
127.549
126.992
124.845
124.65
122.831
122.6
121.198
121.352
121.106
122.346
122.999
124.281
124.279
124.409
123.073
122.375
120.069
119.189
116.261
115.65
112.301
1538.07
2573.24
2358.43
1985.82
1702.06
1501.96
1354.89
1243.76
1154.12
1081.13
1019.84
966.833
920.541
879.609
842.878
809.27
778.164
748.906
721.009
694.33
668.648
643.855
619.892
596.758
574.316
552.669
531.75
511.715
492.385
473.911
456.133
439.344
423.532
408.611
394.503
381.133
368.451
356.404
344.943
334.024
323.608
313.662
304.152
295.049
286.328
277.959
269.923
262.198
254.762
247.593
240.675
233.983
227.508
221.231
215.149
209.237
203.515
197.954
192.591
187.371
182.359
177.497
172.895
168.447
164.295
160.299
156.673
153.179
150.093
147.03
144.481
141.821
139.802
137.381
135.771
133.489
132.323
130.097
129.221
126.855
126.236
124.019
123.721
121.798
121.391
119.778
119.584
118.97
119.754
120.04
121.024
120.886
121.003
119.754
119.172
117.042
116.286
113.611
113.089
110.086
1129.99
1420
1804.64
1801.55
1642.56
1475.73
1336.89
1225.29
1133.67
1058.32
995.317
941.408
895.05
854.677
818.938
786.647
757.069
729.43
703.34
678.532
654.71
631.722
609.439
587.824
566.72
546.249
526.29
507.108
488.417
470.496
453.035
436.453
420.821
406.053
392.069
378.795
366.187
354.194
342.765
331.857
321.437
311.474
301.939
292.806
284.046
275.638
267.56
259.793
252.314
245.107
238.151
231.426
224.92
218.62
212.52
206.602
200.882
195.343
190.011
184.847
179.906
175.145
170.66
166.362
162.373
158.567
155.142
151.864
148.996
146.146
143.802
141.32
139.465
137.167
135.656
133.433
132.307
130.101
129.216
126.829
126.142
123.861
123.453
121.435
120.851
119.039
118.497
117.509
117.803
117.673
118.281
117.929
117.944
116.727
116.198
114.234
113.561
111.172
110.718
108.131
895.449
846.82
1029.27
1250.53
1340.43
1313.69
1239.09
1156.56
1080.05
1012.62
954.479
904.254
860.618
822.426
788.659
758.28
730.558
704.752
680.516
657.556
635.545
614.344
593.793
573.758
554.12
535.022
516.304
498.274
480.603
463.578
446.951
430.958
415.747
401.305
387.582
374.52
362.094
350.25
338.938
328.124
317.776
307.872
298.386
289.294
280.567
272.189
264.137
256.392
248.935
241.751
234.817
228.12
221.644
215.381
209.324
203.465
197.812
192.363
187.135
182.105
177.317
172.745
168.468
164.415
160.688
157.172
154.046
151.079
148.517
145.958
143.882
141.635
139.979
137.835
136.434
134.285
133.191
131.008
130.096
127.687
126.914
124.571
124.037
121.923
121.155
119.152
118.26
116.902
116.677
116.093
116.251
115.612
115.427
114.185
113.627
111.817
111.173
109.108
108.692
106.605
675.192
656.017
666.742
732.589
836.319
921.846
960.604
959.776
936.421
903.221
867.554
833.263
801.211
771.618
744.39
719.161
695.496
673.131
651.705
631.15
611.254
591.981
573.201
554.846
536.795
519.21
501.945
485.282
468.858
452.923
437.437
422.365
407.87
393.983
380.694
367.992
355.877
344.288
333.186
322.55
312.358
302.595
293.24
284.274
275.665
267.402
259.461
251.825
244.475
237.399
230.571
223.985
217.624
211.487
205.561
199.853
194.364
189.105
184.086
179.303
174.785
170.525
166.584
162.909
159.575
156.481
153.776
151.235
149.075
146.892
145.144
143.178
141.739
139.763
138.458
136.378
135.285
133.109
132.131
129.689
128.796
126.38
125.687
123.468
122.494
120.306
119.056
117.333
116.566
115.505
115.148
114.164
113.687
112.362
111.692
110.022
109.348
107.653
107.247
105.762
530.555
531.1
526.799
527.667
540.635
566.635
598.734
629.808
653.26
668.165
674.753
675.797
672.747
666.594
657.915
647.335
635.113
621.771
607.365
592.323
576.771
561.007
545.033
529.172
513.306
497.631
482.078
466.86
451.903
437.289
423.141
409.358
396.002
383.018
370.444
358.349
346.763
335.594
324.843
314.518
304.614
295.125
286.035
277.328
268.974
260.963
253.267
245.875
238.764
231.927
225.337
218.994
212.878
206.997
201.339
195.92
190.738
185.819
181.165
176.792
172.713
168.941
165.513
162.392
159.622
157.114
154.973
152.983
151.318
149.581
148.192
146.521
145.277
143.443
142.18
140.127
138.965
136.753
135.639
133.13
132.058
129.546
128.642
126.295
125.073
122.696
121.07
118.993
117.663
116.117
115.194
113.832
112.985
111.541
110.685
109.155
108.404
107.146
106.726
105.976
439.299
441.191
439.574
434.501
427.955
422.568
418.228
416.341
416.718
420.705
427.761
437.941
450.516
464.666
478.835
492.008
502.706
510.362
514.173
514.324
510.918
504.923
496.599
486.751
475.762
464.046
451.779
439.108
426.524
413.956
401.578
389.383
377.312
365.648
354.315
343.35
332.736
322.317
312.235
302.546
293.255
284.363
275.854
267.713
259.907
252.427
245.244
238.349
231.719
225.35
219.218
213.331
207.668
202.25
197.063
192.142
187.477
183.114
179.049
175.318
171.911
168.863
166.178
163.836
161.832
160.088
158.651
157.313
156.192
154.912
153.844
152.408
151.258
149.471
148.127
146.006
144.653
142.32
140.961
138.323
136.985
134.332
133.139
130.627
129.096
126.515
124.483
122.067
120.157
118.14
116.62
114.881
113.624
112.059
110.983
109.624
108.787
108.067
107.642
107.811
369.17
371.215
371.074
367.568
360.891
352.134
341.785
330.737
319.464
308.888
299.429
291.914
287.142
285.926
288.892
296.318
307.911
322.843
339.649
356.839
372.259
385.525
394.16
399.228
401.148
400.241
397.054
391.856
385.336
377.748
369.422
360.568
351.144
341.718
331.997
322.265
312.575
303.359
294.553
286.132
278.068
270.35
262.952
255.86
249.041
242.488
236.178
230.11
224.264
218.648
213.244
208.071
203.114
198.412
193.952
189.785
185.903
182.374
179.182
176.377
173.926
171.879
170.192
168.854
167.796
166.941
166.265
165.569
164.907
163.955
163.027
161.635
160.357
158.422
156.788
154.438
152.717
150.139
148.387
145.535
143.819
140.963
139.381
136.653
134.734
131.934
129.461
126.73
124.232
121.793
119.677
117.62
115.969
114.345
113.096
111.994
111.15
111.127
110.775
112.118
309.704
309.586
308.545
305.209
299.417
291.481
282.169
272.062
262.279
253.046
245.443
239.555
235.691
233.666
233.471
234.479
236.933
240.113
244.906
250.226
257.67
265.101
275.43
286.389
296.944
306.163
313.672
318.964
322.054
322.965
321.881
318.992
314.435
308.308
301.798
295.072
288.042
281.288
274.772
268.465
262.34
256.389
250.599
244.97
239.49
234.169
228.999
224
219.165
214.519
210.057
205.816
201.791
198.039
194.555
191.41
188.593
186.19
184.166
182.581
181.363
180.559
180.059
179.837
179.741
179.695
179.591
179.269
178.723
177.734
176.554
174.843
173.078
170.7
168.493
165.705
163.402
160.431
158.128
154.966
152.746
149.616
147.537
144.544
142.16
139.133
136.193
133.198
130.132
127.371
124.714
122.483
120.55
119.036
117.788
117.131
116.515
117.429
117.367
120.207
235.955
236.739
237.14
236.709
235.501
233.95
232.744
232.514
233.868
236.756
241.376
246.935
253.329
259.937
266.026
271.298
275.544
278.867
281.415
283.097
284.196
285.087
285.779
286.612
287.649
288.844
290.088
291.189
292.041
292.421
292.269
291.324
289.626
286.848
283.5
279.771
275.657
271.3
266.79
262.197
257.561
252.922
248.3
243.729
239.223
234.817
230.523
226.378
222.387
218.593
215.001
211.668
208.597
205.863
203.466
201.489
199.914
198.826
198.156
197.947
198.055
198.493
199.051
199.677
200.13
200.358
200.193
199.568
198.454
196.789
194.767
192.238
189.553
186.4
183.343
179.916
176.846
173.36
170.377
166.82
163.991
160.532
157.876
154.594
151.703
148.471
145.081
141.915
138.356
135.464
132.415
130.308
128.347
127.293
126.42
126.567
126.657
128.855
129.528
134.159
255.23
255.705
256.425
258.118
261.055
265.603
271.543
278.922
286.991
295.624
304.122
312.18
319.111
324.745
329.265
332.766
335.429
337.466
339.015
340.125
340.948
341.259
341.164
340.664
339.85
338.701
337.23
335.443
333.338
330.877
328.085
324.873
321.328
317.303
312.798
307.949
302.801
297.436
291.932
286.376
280.835
275.369
270.012
264.811
259.79
254.994
250.436
246.158
242.162
238.495
235.164
232.235
229.708
227.661
226.085
225.059
224.534
224.558
224.991
225.809
226.768
227.803
228.606
229.109
229.048
228.452
227.171
225.278
222.768
219.748
216.359
212.624
208.762
204.669
200.67
196.548
192.694
188.664
184.995
181.026
177.595
173.817
170.614
167.086
163.756
160.407
156.69
153.524
149.683
146.992
143.889
142.437
140.915
140.949
141.046
142.589
144.106
147.972
149.992
156.273
326.396
325.731
325.705
327.008
329.861
334.194
339.758
346.301
353.339
360.729
368.099
375.081
381.463
387.099
391.992
396.067
399.471
402.048
403.929
405.187
405.95
406.222
406.069
405.446
404.393
402.83
400.793
398.289
395.254
391.731
387.629
383.03
377.866
372.206
366.151
359.769
353.053
346.111
339.036
331.931
324.878
317.958
311.218
304.724
298.516
292.658
287.18
282.131
277.522
273.408
269.81
266.795
264.361
262.57
261.401
260.898
260.956
261.538
262.404
263.423
264.253
264.748
264.581
263.745
262.06
259.671
256.509
252.78
248.523
243.955
239.166
234.274
229.389
224.513
219.781
215.095
210.628
206.155
201.957
197.664
193.782
189.776
186.198
182.537
178.972
175.643
171.855
168.914
165.165
163.117
160.511
160.411
159.957
161.901
163.579
167.249
170.765
176.482
180.048
187.029
385.161
384.67
384.949
386.676
390.146
395.272
401.936
409.78
418.511
427.472
436.196
444.39
451.81
458.368
463.965
468.64
472.383
475.282
477.326
478.617
479.13
478.929
478.008
476.395
474.078
471.097
467.482
463.221
458.364
452.922
446.913
440.414
433.448
426.115
418.568
410.745
402.795
394.819
386.869
379
371.266
363.725
356.409
349.368
342.646
336.311
330.409
325.003
320.12
315.835
312.188
309.248
307.01
305.508
304.696
304.555
304.907
305.596
306.285
306.728
306.531
305.541
303.555
300.676
296.861
292.356
287.202
281.674
275.853
269.983
264.119
258.39
252.837
247.449
242.239
237.158
232.297
227.524
223.001
218.491
214.35
210.223
206.493
202.832
199.288
196.132
192.6
190.141
186.993
186.103
184.722
186.73
188.055
192.735
196.442
202.916
208.417
215.794
220.174
226.581
455.498
455.358
456.069
458.393
462.702
468.939
476.908
486.298
496.616
507.457
518.196
528.451
537.877
546.171
553.138
558.691
562.758
565.402
566.583
566.456
564.953
562.263
558.421
553.525
547.715
541.131
533.952
526.278
518.267
509.929
501.454
492.832
484.236
475.633
467.017
458.396
449.925
441.631
433.523
425.608
417.926
410.52
403.394
396.568
390.08
384.001
378.389
373.31
368.811
364.973
361.852
359.496
357.879
356.98
356.705
356.939
357.417
357.854
357.836
357.035
355.116
352.052
347.833
342.667
336.66
330.122
323.196
316.164
309.137
302.319
295.755
289.526
283.599
277.882
272.39
267.061
262.004
257.049
252.375
247.735
243.512
239.376
235.729
232.224
228.993
226.221
223.372
221.778
219.954
220.927
221.767
226.729
230.664
238.803
244.815
254.485
261.124
269.514
273.113
278.053
547.075
547.433
548.856
552.291
558.283
566.781
577.615
590.326
604.365
618.991
633.378
646.845
658.774
668.527
675.876
680.574
682.646
682.156
679.295
674.338
667.482
659.144
649.545
638.995
627.858
616.337
604.698
593.099
581.646
570.49
559.725
549.359
539.455
530.015
520.931
512.26
503.926
495.892
488.153
480.681
473.528
466.753
460.308
454.178
448.418
443.109
438.329
434.143
430.608
427.794
425.746
424.462
423.853
423.806
424.145
424.642
424.936
424.634
423.288
420.593
416.442
410.985
404.395
396.961
388.923
380.604
372.216
364.014
356.138
348.709
341.776
335.266
329.13
323.218
317.623
312.187
307.099
302.068
297.393
292.724
288.608
284.626
281.35
278.256
275.725
273.704
272.178
272.122
272.72
276.581
280.941
289.709
297.052
309.001
317.23
329.63
335.563
343.962
344.707
348.286
688.254
689.31
691.755
696.934
705.673
717.958
733.506
751.504
771.079
790.664
809.186
825.13
837.585
845.678
849.316
848.333
843.246
834.45
822.745
808.754
793.177
776.64
759.612
742.578
725.891
709.655
694.159
679.355
665.335
652.234
639.949
628.532
617.918
608.076
598.946
590.49
582.572
575.113
568.076
561.397
555.107
549.296
543.883
538.803
534.139
530.004
526.497
523.679
521.596
520.279
519.72
519.821
520.384
521.161
521.879
522.199
521.688
519.891
516.434
511.238
504.487
496.464
487.505
477.935
468.089
458.273
448.744
439.67
431.24
423.498
416.39
409.717
403.532
397.611
392.112
386.749
381.82
376.879
372.397
367.904
364.179
360.686
358.23
356.048
354.845
354.301
355.138
357.859
362.511
370.629
379.919
392.952
404.113
419.412
428.854
442.157
444.867
452.327
448.227
452.012
930.649
932.683
936.612
944.581
957.808
976.168
998.644
1023.68
1049.14
1072.48
1092.01
1105.18
1111.24
1109.63
1101.09
1086.23
1066.7
1043.58
1018.47
992.423
966.393
941.075
916.732
893.843
872.419
852.517
834.334
817.503
802.195
788.174
775.383
763.732
753.129
743.501
734.824
726.978
719.836
713.325
707.362
701.872
696.844
692.36
688.385
684.751
681.597
679.09
677.343
676.389
676.22
676.776
677.935
679.455
680.984
682.114
682.487
681.713
679.335
674.947
668.502
660.252
650.599
639.907
628.636
617.109
605.693
594.655
584.307
574.754
566.147
558.287
551.147
544.552
538.641
533.061
528.016
523.108
518.704
514.258
510.368
506.586
503.835
501.605
500.799
500.591
501.867
504.207
509.114
516.627
527.366
541.072
555.888