/*--------------------------------*- C++ -*----------------------------------*\
| =========                 |                                                 |
| \\      /  F ield         | OpenFOAM: The Open Source CFD Toolbox           |
|  \\    /   O peration     | Version:  v2012                                 |
|   \\  /    A nd           | Website:  www.openfoam.com                      |
|    \\/     M anipulation  |                                                 |
\*---------------------------------------------------------------------------*/
FoamFile
{
    version     2.0;
    format      ascii;
    class       volScalarField;
    location    "0.062";
    object      omega.air;
}
// * * * * * * * * * * * * * * * * * * * * * * * * * * * * * * * * * * * * * //

dimensions      [0 0 -1 0 0 0 0];


internalField   nonuniform List<scalar> 
5600
(
6586.27
7485.51
7886.84
7965.13
7866.35
7687.56
7480.98
7289.97
7125.26
6987.87
6878.92
6796.41
6736.19
6693.48
6663.6
6642.7
6627.26
6615.36
6605.08
6596.48
6589.05
6582.42
6577.01
6573.4
6571.44
6570.42
6569.49
6568.1
6566.02
6563.34
6560.48
6557.83
6555.68
6554.12
6553.15
6552.69
6552.6
6552.8
6553.2
6553.68
6554.12
6554.47
6554.72
6554.89
6555
6555.07
6555.11
6555.13
6555.15
6555.16
6555.16
6555.16
6555.17
6555.16
6555.17
6555.16
6555.19
6555.13
6555.24
6555.04
6555.38
6554.8
6555.77
6554.23
6556.58
6553.13
6557.99
6551.46
6559.85
6549.52
6561.83
6547.4
6564.48
6543.58
6570.34
6535.3
6580.64
6525.64
6585.55
6531.52
6563.57
6570.96
6511.16
6624.09
6477.29
6624.24
6523.14
6530.73
6648.07
6400.21
6758.76
6339.27
6769.33
6347.54
6738
6342.16
6684.56
6257.79
6994.84
4295.35
2450.49
2296.67
2571.7
2794.97
2928.32
2998.12
3009.89
2968.29
2969.1
3017.28
3073.43
3118.81
3147.26
3158.53
3154.97
3139.92
3117.75
3091.12
3062.4
3032.76
3003.49
2974.39
2945.32
2916.26
2887.8
2860.73
2835.77
2813.15
2793.25
2776.35
2762.52
2751.7
2743.61
2737.94
2734.19
2731.86
2730.52
2729.79
2729.44
2729.47
2729.78
2730.13
2730.42
2730.63
2730.77
2730.86
2730.92
2730.96
2730.98
2730.99
2731
2731.01
2731.01
2731.01
2731.01
2731.01
2731.01
2731.01
2731.01
2731.01
2731.01
2731.01
2731.01
2731.01
2731.02
2730.99
2731.05
2730.95
2731.11
2730.88
2731.18
2730.81
2731.24
2730.77
2731.29
2730.65
2731.58
2730.07
2732.4
2729.55
2732.18
2729.38
2732.85
2729.96
2730.32
2732.89
2730.55
2730.38
2731.45
2728.91
2741.87
2719.29
2760.87
2712.09
2781.53
2695.77
2841.18
2590.01
3048.69
2381.53
2358.55
1859.91
1592.15
1427.86
1346.01
1273.75
1280.2
1309.04
1351.77
1412.51
1482.46
1549.3
1611.05
1664.01
1705.16
1732.93
1748.69
1752.1
1744.97
1726.93
1702.35
1676.2
1653.52
1634.73
1619.44
1605.32
1591.56
1578.45
1566.02
1554.34
1543.9
1535.19
1528.45
1523.67
1520.54
1518.68
1517.69
1517.25
1517.18
1517.39
1517.75
1518.14
1518.46
1518.69
1518.84
1518.95
1519.01
1519.06
1519.08
1519.09
1519.1
1519.11
1519.11
1519.11
1519.11
1519.11
1519.11
1519.11
1519.11
1519.12
1519.11
1519.11
1519.13
1519.07
1519.2
1518.95
1519.37
1518.74
1519.6
1518.51
1519.78
1518.39
1519.84
1518.19
1520.31
1517
1522.05
1514.54
1524.23
1513.53
1523.06
1517.97
1513.87
1525.07
1508.6
1525.64
1517.79
1509.54
1536.07
1493.59
1556.71
1474.1
1592
1457.6
1615.67
1422.97
1702.74
1350.67
1887.97
1337.73
2345.17
1822.35
1493.24
1267.65
1111.18
992.495
907.028
846.886
802.614
776.525
760.85
769.29
791.557
823.813
861.377
902.22
941.139
977.802
1011.3
1039.78
1062.26
1079.26
1091.5
1100.01
1105.74
1107.69
1104.07
1095.05
1082.72
1069.9
1058.85
1050.32
1044.34
1040.52
1038.37
1037.38
1037.09
1037.22
1037.63
1038.22
1038.83
1039.37
1039.78
1040.09
1040.29
1040.43
1040.52
1040.57
1040.6
1040.62
1040.63
1040.64
1040.64
1040.64
1040.64
1040.65
1040.62
1040.67
1040.59
1040.72
1040.52
1040.82
1040.4
1040.95
1040.27
1041.07
1040.21
1041.11
1040.19
1041.28
1039.84
1042.14
1038.64
1043.85
1037.52
1044.43
1040.27
1039.73
1049.04
1030.3
1058.79
1025.73
1063.36
1042.07
1050.34
1054.82
1044.3
1055.03
1069.15
1036.35
1110.58
1011.16
1126.81
988.32
1144.45
970.246
1158.15
1042.15
1117.36
1121.63
2341.97
1815.96
1479.82
1247.91
1079.75
952.508
853.255
774.585
710.687
658.75
616.299
581.836
556.327
535.924
523.758
514.739
514.026
520.513
532.142
548.627
569.224
592.805
617.124
641.396
665.689
690.487
714.265
734.118
748.576
758.035
763.615
766.55
768.025
768.897
769.611
770.333
771.114
771.955
772.826
773.677
774.454
775.103
775.613
775.988
776.248
776.419
776.528
776.596
776.636
776.659
776.672
776.68
776.683
776.688
776.684
776.692
776.681
776.697
776.679
776.693
776.697
776.646
776.794
776.473
777.07
776.078
777.566
775.53
778.054
775.231
778.053
775.518
777.736
775.359
779.094
772.12
784.36
765.804
789.739
764.783
786.148
774.523
771.646
792.444
762.385
782.416
795.978
736.52
849.575
677.976
875.228
682.56
829.452
734.762
776.905
802.836
670.862
865.565
650.612
789.384
2341.13
1814.12
1476.77
1243.87
1074.19
945.307
844.345
763.129
696.612
640.97
594.247
553.976
519.743
489.769
464.237
441.798
422.776
406.853
393.578
383.135
375.338
370.465
368.166
369.137
372.58
379.299
390.361
405.49
423.085
440.861
456.498
468.924
477.867
483.681
487.074
488.801
489.498
489.62
489.482
489.322
489.279
489.363
489.511
489.669
489.809
489.919
490.001
490.058
490.096
490.118
490.135
490.138
490.154
490.134
490.181
490.095
490.255
489.97
490.465
489.634
490.978
488.884
492.017
487.517
493.698
485.554
495.817
483.308
498.119
480.61
501.576
475.401
508.889
465.32
519.289
456.342
518.982
469.563
486.898
519.305
427.467
569.753
391.395
553.133
447.543
452.342
569.25
333.906
651.694
272.273
616.007
354.091
491.057
497.808
337.757
654.362
225.99
592.555
340.262
493.479
2340.86
1813.44
1475.76
1242.6
1072.61
943.437
842.127
760.561
693.571
637.519
590.047
549.233
513.876
482.888
455.6
431.355
409.759
390.421
373.001
357.363
343.262
330.7
319.508
309.584
300.706
292.934
286.622
282.074
279.5
278.347
278.392
278.542
278.062
276.634
274.334
271.458
268.347
265.299
262.567
260.34
258.696
257.579
256.866
256.433
256.185
256.05
255.982
255.95
255.937
255.931
255.933
255.928
255.94
255.918
255.962
255.881
256.027
255.771
256.205
255.496
256.612
254.924
257.376
253.959
258.523
252.664
259.929
251.117
261.757
248.658
265.341
243.361
272.482
234.83
280.1
231.281
274.437
249.978
241.275
294.199
194.783
326.304
186.762
298.098
244.401
224.535
318.699
168.363
345.221
172.419
324.638
209.313
277.517
276.821
182.33
374.609
126.672
370.343
154.011
352.677
2340.75
1813.13
1475.32
1242.07
1071.99
942.739
841.332
759.694
692.596
636.477
588.866
547.962
512.45
481.326
453.83
429.364
407.469
387.761
369.911
353.68
338.865
325.334
312.945
301.539
290.96
281.116
272.017
263.713
256.249
249.5
243.317
237.428
231.613
225.783
220.007
214.457
209.346
204.857
201.111
198.154
195.945
194.379
193.319
192.632
192.204
191.948
191.8
191.718
191.674
191.65
191.64
191.633
191.633
191.626
191.635
191.618
191.649
191.594
191.686
191.538
191.768
191.425
191.915
191.244
192.125
191.011
192.383
190.712
192.779
190.134
193.665
188.855
195.35
187.047
196.798
186.988
194.571
192.505
185.792
203.323
175.705
209.648
177.373
201.113
191.963
185.496
203.738
181.211
203.261
185.001
203.871
179.384
211.033
178.886
193.99
211.53
155.129
240.622
144.633
247.666
2340.71
1812.97
1475.11
1241.82
1071.69
942.417
840.978
759.316
692.189
636.046
588.404
547.473
511.931
480.778
453.246
428.742
406.803
387.044
369.144
352.845
337.951
324.314
311.793
300.236
289.492
279.456
270.091
261.403
253.394
245.995
239.067
232.431
225.942
219.549
213.318
207.412
202.032
197.352
193.479
190.43
188.146
186.514
185.4
184.67
184.21
183.932
183.769
183.677
183.627
183.6
183.586
183.579
183.576
183.574
183.575
183.571
183.577
183.567
183.583
183.557
183.596
183.54
183.618
183.514
183.648
183.481
183.685
183.433
183.756
183.324
183.916
183.114
184.152
182.925
184.19
183.197
183.503
184.376
181.936
186.061
180.614
186.606
181.382
184.875
183.687
183.095
184.172
184.073
182.888
184.093
185.565
178.884
191.192
176.252
188.132
185.652
175.803
195.252
173.345
194.684
2340.68
1812.9
1475.01
1241.7
1071.56
942.272
840.821
759.149
692.012
635.86
588.208
547.267
511.717
480.554
453.011
428.497
406.547
386.778
368.868
352.556
337.648
323.994
311.456
299.881
289.12
279.063
269.669
260.943
252.882
245.423
238.431
231.734
225.187
218.742
212.465
206.521
201.109
196.404
192.511
189.446
187.148
185.504
184.378
183.64
183.174
182.891
182.725
182.631
182.579
182.551
182.537
182.53
182.526
182.524
182.524
182.522
182.525
182.52
182.528
182.517
182.532
182.511
182.538
182.507
182.538
182.511
182.53
182.522
182.524
182.513
182.561
182.438
182.672
182.309
182.775
182.293
182.644
182.605
182.175
183.134
181.743
183.312
181.918
182.86
182.456
182.492
182.564
182.452
182.989
181.266
184.884
179.377
185.734
180.452
182.506
185.463
176.789
190.412
173.869
191.658
2340.68
1812.91
1475.02
1241.72
1071.58
942.289
840.838
759.165
692.028
635.876
588.223
547.282
511.731
480.568
453.025
428.511
406.561
386.791
368.881
352.569
337.66
324.007
311.469
299.894
289.133
279.077
269.683
260.957
252.897
245.44
238.45
231.753
225.207
218.762
212.486
206.541
201.129
196.424
192.531
189.466
187.167
185.522
184.397
183.658
183.192
182.909
182.743
182.649
182.597
182.569
182.555
182.548
182.544
182.542
182.542
182.541
182.543
182.539
182.545
182.536
182.548
182.533
182.551
182.531
182.55
182.536
182.54
182.551
182.523
182.565
182.516
182.56
182.539
182.517
182.602
182.435
182.697
182.345
182.749
182.381
182.573
182.721
182.097
183.243
181.665
183.434
181.872
182.659
183.374
180.41
186.063
177.991
187.292
178.6
184.809
182.473
179.857
188.527
172.172
197.577
2340.71
1813
1475.15
1241.86
1071.74
942.467
841.028
759.364
692.236
636.093
588.45
547.518
511.975
480.82
453.288
428.784
406.845
387.086
369.186
352.887
337.994
324.36
311.842
300.288
289.548
279.517
270.158
261.484
253.49
246.111
239.204
232.59
226.119
219.741
213.522
207.625
202.251
197.575
193.704
190.656
188.372
186.741
185.626
184.896
184.436
184.158
183.995
183.903
183.852
183.825
183.811
183.804
183.801
183.799
183.799
183.798
183.8
183.796
183.801
183.794
183.803
183.792
183.805
183.792
183.803
183.797
183.795
183.807
183.785
183.813
183.783
183.812
183.786
183.808
183.796
183.778
183.867
183.647
184.056
183.447
184.171
183.55
183.715
184.435
182.444
185.868
181.289
186.119
182.594
182.915
187.383
177.567
191.817
175.072
192.242
176.057
190.288
179.497
183.32
190.82
2340.76
1813.17
1475.39
1242.15
1072.07
942.823
841.414
759.777
692.674
636.557
588.946
548.038
512.53
481.403
453.913
429.445
407.564
387.854
370.026
353.8
339.009
325.508
313.162
301.805
291.278
281.512
272.511
264.368
257.083
250.603
244.685
239.039
233.436
227.783
222.145
216.701
211.666
207.229
203.518
200.582
198.388
196.831
195.777
195.094
194.668
194.413
194.266
194.184
194.14
194.117
194.106
194.1
194.097
194.096
194.096
194.094
194.096
194.093
194.098
194.091
194.1
194.09
194.1
194.091
194.096
194.098
194.087
194.108
194.079
194.112
194.077
194.116
194.065
194.138
194.045
194.122
194.151
193.867
194.584
193.302
195.129
193.046
194.744
194.417
192.18
198.051
188.097
201.36
187.212
198.455
194.245
188.597
204.102
180.968
208.563
177.965
211.785
173.777
212.616
176.718
2340.87
1813.5
1475.85
1242.71
1072.73
943.561
842.243
760.694
693.679
637.663
590.175
549.381
514.044
483.074
455.842
431.616
410.159
390.853
373.66
358.109
344.298
332.008
321.306
311.889
303.588
296.59
291.249
288.024
286.893
287.813
289.613
291.22
291.904
291.397
289.817
287.496
284.812
282.09
279.597
277.538
276.008
274.964
274.294
273.887
273.652
273.524
273.458
273.426
273.412
273.407
273.405
273.405
273.405
273.405
273.406
273.405
273.407
273.405
273.409
273.403
273.41
273.402
273.41
273.404
273.405
273.414
273.391
273.431
273.373
273.448
273.354
273.475
273.312
273.532
273.26
273.523
273.434
273.051
274.312
271.764
275.802
270.543
275.997
272.269
271.562
279.681
261.779
289.671
254.554
290.033
262.874
273.823
282.365
256.471
293.099
249.957
296.847
242.519
299.696
233.428
2341.15
1814.19
1476.91
1244
1074.37
945.465
844.547
763.374
696.826
641.39
594.575
554.653
520.481
490.963
465.733
443.841
425.881
410.67
398.822
389.418
383.614
380.508
381.664
385.61
392.212
402.573
417.193
435.337
455.075
473.855
489.955
502.281
510.943
516.559
519.909
521.721
522.578
522.9
522.966
522.969
523.029
523.163
523.326
523.481
523.609
523.706
523.776
523.823
523.854
523.873
523.884
523.891
523.894
523.896
523.897
523.898
523.898
523.899
523.898
523.899
523.898
523.899
523.899
523.898
523.899
523.9
523.894
523.911
523.875
523.938
523.841
523.976
523.8
524.023
523.744
524.077
523.732
523.957
524.124
523.148
525.412
521.506
526.975
520.679
526.258
523.621
520.701
531.62
511.138
540.235
505.527
539.323
513.43
525.747
529.609
509.53
541.302
496.389
544.482
477.896
2342.03
1815.98
1480.11
1247.97
1080.28
952.684
854.179
775.245
712.272
660.619
619.12
586.981
562.54
545.398
534.669
530.186
534.516
544.952
560.526
580.775
605.139
631.687
658.117
683.915
709.126
733.448
754.653
770.983
782.193
788.965
792.435
793.84
794.282
794.478
794.785
795.289
795.946
796.714
797.554
798.386
799.119
799.72
800.182
800.514
800.74
800.887
800.98
801.037
801.07
801.089
801.1
801.106
801.109
801.111
801.111
801.112
801.111
801.113
801.11
801.115
801.109
801.115
801.109
801.114
801.113
801.109
801.119
801.104
801.12
801.109
801.109
801.122
801.099
801.127
801.092
801.158
801.004
801.332
800.75
801.591
800.641
801.341
801.442
799.87
803.552
797.337
805.905
796.171
804.604
801.062
796.009
811.513
786.873
815.318
789.667
806.421
799.878
793.008
806.786
767.016
2345.25
1822.38
1493.86
1268.18
1113.21
994.126
912.712
852.018
814.353
787.855
783.92
800.074
828.833
866.011
907.98
950.344
989.997
1026.53
1058.21
1084.07
1104.06
1118.66
1128.41
1134.76
1137.25
1134.94
1127.12
1115.4
1102.38
1090.32
1080.52
1073.08
1067.81
1064.39
1062.43
1061.48
1061.18
1061.27
1061.61
1062.12
1062.66
1063.14
1063.51
1063.78
1063.96
1064.08
1064.15
1064.2
1064.23
1064.24
1064.25
1064.26
1064.26
1064.26
1064.26
1064.26
1064.26
1064.26
1064.26
1064.26
1064.26
1064.26
1064.26
1064.26
1064.26
1064.26
1064.26
1064.26
1064.27
1064.26
1064.27
1064.26
1064.26
1064.26
1064.27
1064.26
1064.24
1064.33
1064.1
1064.53
1063.9
1064.63
1064.04
1064.13
1065
1062.72
1066.66
1061.26
1067.29
1062.38
1064.11
1067.44
1058.39
1071.85
1056.51
1069.94
1059.25
1062.63
1059.25
1039.53
2358.74
1860.89
1594.79
1434.04
1353.9
1289.04
1305.42
1337.13
1392.01
1465.25
1539.89
1610.04
1672.34
1723.34
1760.21
1783.15
1792
1788.88
1773.97
1750.69
1724
1700.53
1681.64
1665.91
1651.76
1637.89
1624.39
1611.38
1598.61
1586.41
1575.52
1566.64
1559.94
1555.26
1552.2
1550.35
1549.34
1548.87
1548.74
1548.87
1549.18
1549.51
1549.78
1549.98
1550.11
1550.21
1550.26
1550.3
1550.32
1550.33
1550.34
1550.34
1550.34
1550.35
1550.35
1550.35
1550.35
1550.35
1550.35
1550.35
1550.35
1550.35
1550.35
1550.35
1550.35
1550.35
1550.35
1550.35
1550.35
1550.35
1550.35
1550.35
1550.34
1550.35
1550.34
1550.35
1550.34
1550.37
1550.31
1550.41
1550.27
1550.41
1550.35
1550.21
1550.66
1549.82
1551.04
1549.6
1550.86
1550.26
1549.55
1551.88
1547.79
1553.05
1547
1551.69
1546.89
1544.71
1540.79
1520.7
2454.71
2305.82
2580.43
2808.52
2934.44
3009.96
2994.29
2967.44
3014.97
3085.61
3150
3196.47
3222.57
3230.07
3222.2
3203.6
3178.01
3148.96
3118.03
3086.62
3054.98
3023.29
2991.77
2960.67
2931.48
2903.81
2878.63
2856.21
2836.75
2820.4
2807.12
2796.84
2789.26
2783.91
2780.33
2778.08
2776.77
2776.06
2775.7
2775.67
2775.91
2776.2
2776.44
2776.62
2776.74
2776.82
2776.87
2776.91
2776.92
2776.94
2776.94
2776.94
2776.95
2776.95
2776.95
2776.95
2776.95
2776.95
2776.95
2776.95
2776.95
2776.95
2776.95
2776.95
2776.95
2776.95
2776.95
2776.95
2776.95
2776.95
2776.95
2776.95
2776.95
2776.95
2776.95
2776.95
2776.95
2776.95
2776.94
2776.97
2776.93
2776.98
2776.92
2776.97
2776.97
2776.86
2777.08
2776.75
2777.21
2776.61
2777.09
2777.04
2776.5
2777.17
2775.64
2777.3
2772.15
2770.75
2760.94
2741.7
6588.06
7481.94
7876.77
7935.96
7826.36
7630.04
7415.05
7222.02
7053.48
6914.45
6805.38
6723.45
6663.91
6621.58
6591.83
6570.34
6554.55
6541.58
6531.02
6522.19
6514.75
6508.61
6504.01
6501.25
6499.75
6498.89
6497.97
6496.43
6494.07
6491.13
6488.1
6485.39
6483.19
6481.59
6480.58
6480.05
6479.88
6479.99
6480.31
6480.71
6481.09
6481.39
6481.6
6481.75
6481.84
6481.9
6481.94
6481.96
6481.97
6481.98
6481.98
6481.99
6481.99
6481.99
6481.99
6481.99
6481.99
6481.99
6481.99
6481.99
6481.99
6481.99
6481.99
6481.99
6482
6481.99
6482
6481.99
6481.99
6482.01
6481.96
6482.03
6481.93
6482.06
6481.91
6482.08
6481.91
6482.07
6481.94
6481.99
6482.17
6481.53
6482.94
6480.52
6483.95
6480.02
6483.42
6482.19
6479.42
6487.88
6473.33
6493.17
6471.21
6491.8
6478.26
6483.2
6494.48
6478.76
6525.58
6509.81
3814.64
2356.47
1659.12
1432.53
1297.12
1467.92
1346.71
800.268
409.294
267.267
236.268
232.913
235.476
235.717
231.399
224.682
218.217
212.932
208.437
204.154
199.873
195.751
192.098
189.175
187.076
185.684
184.736
184.005
183.41
182.951
182.623
182.42
182.32
182.279
182.264
182.259
182.257
182.256
182.256
182.256
182.256
182.255
182.255
182.255
182.255
182.255
182.255
182.255
182.255
182.255
182.255
182.255
182.255
182.255
182.255
182.255
182.255
182.255
182.255
182.255
182.255
182.255
182.255
182.255
182.255
182.255
182.255
182.255
182.255
182.255
182.255
182.255
182.255
182.255
182.255
182.255
182.255
182.256
182.255
182.256
182.255
182.256
182.255
182.256
182.255
182.256
182.255
182.256
182.255
182.256
182.255
182.255
182.255
182.254
182.254
182.252
182.251
182.247
182.245
182.237
3379.09
2786.29
1990.12
1642.85
1403.16
1560.04
1259.91
648.975
332.227
243.504
228.338
228.719
231.22
231.407
227.895
222.292
216.668
211.843
207.594
203.501
199.402
195.434
191.88
188.995
186.896
185.504
184.591
183.92
183.381
182.957
182.642
182.43
182.314
182.26
182.236
182.226
182.221
182.219
182.217
182.217
182.217
182.216
182.216
182.216
182.216
182.216
182.216
182.216
182.216
182.216
182.216
182.216
182.216
182.216
182.216
182.216
182.216
182.216
182.216
182.216
182.216
182.216
182.216
182.216
182.216
182.216
182.216
182.216
182.216
182.216
182.216
182.216
182.216
182.216
182.216
182.216
182.216
182.216
182.216
182.217
182.215
182.217
182.215
182.217
182.215
182.217
182.215
182.217
182.215
182.218
182.215
182.218
182.214
182.218
182.213
182.217
182.212
182.215
182.209
182.213
2123.12
2642.58
2177.85
1829.12
1517.46
1630.27
1088.07
482.262
264.47
222.091
221.98
226.144
228.591
228.416
225.217
220.306
215.305
210.875
206.861
202.946
199.013
195.184
191.714
188.855
186.742
185.342
184.462
183.863
183.392
183.003
182.695
182.474
182.338
182.264
182.227
182.209
182.199
182.195
182.192
182.191
182.19
182.19
182.19
182.19
182.19
182.19
182.19
182.19
182.19
182.19
182.19
182.19
182.19
182.19
182.19
182.19
182.19
182.19
182.19
182.19
182.19
182.19
182.19
182.19
182.19
182.19
182.19
182.19
182.19
182.19
182.19
182.19
182.19
182.19
182.19
182.19
182.19
182.19
182.189
182.19
182.189
182.191
182.189
182.191
182.188
182.191
182.188
182.192
182.187
182.193
182.187
182.193
182.186
182.194
182.185
182.195
182.185
182.198
182.188
182.21
1036.04
1790.49
1999.57
1826.99
1587.53
1580.5
800.097
322.471
227.551
218.596
223.584
227.605
228.468
227.031
223.488
218.802
214.153
210.004
206.196
202.457
198.688
194.994
191.604
188.762
186.623
185.195
184.331
183.796
183.397
183.055
182.769
182.551
182.401
182.309
182.256
182.228
182.212
182.204
182.2
182.197
182.196
182.195
182.195
182.195
182.195
182.195
182.195
182.195
182.195
182.195
182.195
182.195
182.195
182.195
182.195
182.195
182.195
182.195
182.195
182.195
182.195
182.195
182.195
182.195
182.195
182.195
182.195
182.195
182.195
182.195
182.195
182.195
182.195
182.195
182.195
182.195
182.195
182.195
182.194
182.196
182.194
182.196
182.193
182.196
182.193
182.197
182.192
182.198
182.191
182.199
182.191
182.2
182.19
182.202
182.189
182.205
182.191
182.212
182.199
182.237
778.358
812.291
1438.32
1421.39
1506.21
1227.32
426.323
229.402
215.934
214.682
221.027
227.063
228.329
226.309
222.399
217.711
213.21
209.231
205.591
202.026
198.424
194.866
191.557
188.729
186.554
185.076
184.189
183.684
183.346
183.063
182.82
182.623
182.474
182.371
182.306
182.267
182.245
182.233
182.226
182.223
182.221
182.22
182.219
182.219
182.219
182.219
182.219
182.219
182.219
182.219
182.219
182.219
182.219
182.219
182.219
182.219
182.219
182.219
182.219
182.219
182.219
182.219
182.219
182.219
182.219
182.219
182.219
182.219
182.219
182.219
182.219
182.219
182.219
182.219
182.219
182.219
182.218
182.219
182.218
182.219
182.218
182.22
182.217
182.22
182.217
182.221
182.216
182.222
182.215
182.223
182.214
182.224
182.213
182.226
182.213
182.23
182.216
182.24
182.228
182.274
566.858
421.878
829.521
814.11
1135.2
528.619
191.79
216.465
216.609
211.445
218.282
226.008
228.293
226.121
221.829
216.964
212.45
208.545
205.04
201.647
198.223
194.809
191.585
188.774
186.559
185.008
184.058
183.532
183.226
182.997
182.804
182.64
182.505
182.404
182.335
182.291
182.265
182.251
182.243
182.238
182.236
182.235
182.234
182.234
182.234
182.234
182.234
182.234
182.234
182.234
182.234
182.234
182.234
182.234
182.234
182.234
182.234
182.234
182.234
182.234
182.234
182.234
182.234
182.234
182.234
182.234
182.234
182.234
182.234
182.234
182.234
182.234
182.234
182.234
182.234
182.234
182.233
182.234
182.233
182.234
182.233
182.235
182.232
182.235
182.232
182.236
182.231
182.237
182.23
182.238
182.229
182.239
182.229
182.241
182.229
182.245
182.232
182.255
182.245
182.29
247.329
322.24
343.5
512.474
496.337
175.333
205.107
240.188
207.578
199.704
212.304
222.782
226.957
225.635
221.365
216.307
211.669
207.77
204.394
201.205
197.997
194.764
191.652
188.879
186.632
185.005
183.966
183.381
183.067
182.869
182.714
182.581
182.468
182.38
182.318
182.278
182.255
182.241
182.234
182.229
182.227
182.226
182.225
182.225
182.225
182.225
182.225
182.225
182.225
182.225
182.225
182.225
182.225
182.225
182.225
182.225
182.225
182.225
182.225
182.225
182.225
182.225
182.225
182.225
182.225
182.225
182.225
182.225
182.225
182.225
182.225
182.225
182.225
182.225
182.225
182.225
182.225
182.225
182.224
182.225
182.224
182.226
182.224
182.226
182.223
182.227
182.223
182.227
182.222
182.228
182.221
182.229
182.22
182.231
182.221
182.235
182.223
182.243
182.235
182.275
170.522
225.715
217.146
295.93
215.704
201.975
236.67
220.73
179.796
192.216
217.92
227.22
228.436
226.222
221.71
216.347
211.371
207.238
203.796
200.686
197.639
194.585
191.628
188.949
186.723
185.055
183.941
183.283
182.931
182.735
182.6
182.49
182.4
182.332
182.285
182.255
182.236
182.225
182.219
182.216
182.215
182.214
182.213
182.213
182.213
182.213
182.213
182.213
182.213
182.213
182.213
182.213
182.213
182.213
182.213
182.213
182.213
182.213
182.213
182.213
182.213
182.213
182.213
182.213
182.213
182.213
182.213
182.213
182.213
182.213
182.213
182.213
182.213
182.213
182.213
182.213
182.213
182.213
182.213
182.214
182.212
182.214
182.212
182.214
182.212
182.215
182.211
182.215
182.21
182.216
182.21
182.217
182.209
182.219
182.209
182.221
182.211
182.228
182.221
182.255
179.352
185.325
200.853
185.057
206.245
179.584
196.402
191.462
168.084
213.613
255.076
255.614
243.014
232.641
224.873
218.23
212.466
207.672
203.696
200.227
197.02
193.989
191.176
188.682
186.612
185.03
183.934
183.251
182.867
182.657
182.526
182.43
182.358
182.307
182.274
182.254
182.243
182.237
182.233
182.232
182.23
182.23
182.23
182.229
182.229
182.229
182.229
182.229
182.229
182.229
182.229
182.229
182.229
182.229
182.229
182.229
182.229
182.229
182.229
182.229
182.229
182.229
182.229
182.229
182.229
182.229
182.229
182.229
182.229
182.229
182.229
182.229
182.229
182.229
182.229
182.229
182.229
182.23
182.229
182.23
182.229
182.23
182.228
182.23
182.228
182.231
182.227
182.232
182.227
182.232
182.226
182.233
182.226
182.234
182.225
182.237
182.227
182.242
182.234
182.263
174.115
190.619
181.221
183.788
197
165.507
226.695
194.903
182.478
281.891
345.931
328.737
287.391
255.121
234.963
222.622
214.58
208.775
204.1
200.058
196.47
193.273
190.453
188.047
186.114
184.682
183.713
183.116
182.781
182.601
182.498
182.429
182.381
182.35
182.331
182.321
182.316
182.313
182.312
182.312
182.311
182.311
182.311
182.311
182.311
182.311
182.311
182.311
182.311
182.311
182.311
182.311
182.311
182.311
182.311
182.311
182.311
182.311
182.311
182.311
182.311
182.311
182.311
182.311
182.311
182.311
182.311
182.311
182.311
182.311
182.311
182.311
182.311
182.311
182.311
182.311
182.311
182.311
182.311
182.312
182.311
182.312
182.31
182.312
182.31
182.313
182.309
182.313
182.309
182.314
182.308
182.315
182.307
182.316
182.306
182.318
182.307
182.323
182.312
182.34
164.01
203.176
162.302
202.441
173.994
183.902
225.4
155.113
242.679
446.585
535.374
485.176
391.066
315.541
268.782
241.541
225.09
214.618
207.679
202.854
199.151
195.904
192.826
189.962
187.514
185.637
184.344
183.535
183.069
182.818
182.684
182.61
182.568
182.547
182.538
182.536
182.536
182.536
182.537
182.538
182.538
182.538
182.539
182.539
182.539
182.539
182.539
182.539
182.539
182.539
182.539
182.539
182.539
182.539
182.539
182.539
182.539
182.539
182.539
182.539
182.539
182.539
182.539
182.539
182.539
182.539
182.539
182.539
182.539
182.539
182.539
182.539
182.539
182.539
182.539
182.539
182.539
182.539
182.538
182.539
182.538
182.54
182.538
182.54
182.537
182.541
182.536
182.542
182.535
182.543
182.534
182.544
182.533
182.546
182.531
182.549
182.531
182.554
182.535
182.57
167.592
205.629
153.314
219.367
147.397
220.503
200.582
196.479
482.81
773.975
850.162
752.65
594.946
450.43
350.13
289.648
254.434
233.349
220.197
211.587
205.388
200.329
195.885
192.024
188.901
186.607
185.074
184.133
183.599
183.316
183.175
183.108
183.081
183.075
183.08
183.088
183.095
183.1
183.103
183.105
183.107
183.107
183.108
183.108
183.108
183.108
183.108
183.108
183.108
183.108
183.108
183.108
183.108
183.108
183.108
183.108
183.108
183.108
183.108
183.108
183.108
183.108
183.108
183.108
183.108
183.108
183.108
183.108
183.108
183.108
183.108
183.108
183.108
183.108
183.108
183.108
183.108
183.109
183.108
183.109
183.107
183.11
183.106
183.111
183.104
183.113
183.102
183.116
183.099
183.119
183.096
183.123
183.093
183.127
183.09
183.134
183.09
183.147
183.101
183.181
196.308
190.705
173.394
213.918
152.263
260.579
209.191
427.154
880.316
1177.66
1190.52
1041.73
845.013
660.631
513.929
409.109
338.611
292.281
262.31
242.672
228.499
216.99
207.367
199.654
193.891
189.935
187.431
185.959
185.157
184.768
184.613
184.577
184.595
184.633
184.673
184.706
184.73
184.745
184.755
184.761
184.764
184.766
184.767
184.767
184.767
184.767
184.768
184.768
184.768
184.768
184.768
184.768
184.768
184.768
184.768
184.768
184.768
184.768
184.768
184.768
184.768
184.768
184.768
184.768
184.768
184.768
184.768
184.768
184.768
184.768
184.768
184.768
184.768
184.768
184.767
184.768
184.767
184.769
184.766
184.77
184.764
184.773
184.76
184.777
184.755
184.783
184.747
184.793
184.736
184.806
184.723
184.822
184.709
184.842
184.697
184.871
184.698
184.925
184.747
185.058
280.914
228.323
246.995
240.116
244.113
350.528
406.071
837.839
1326.93
1537.11
1456.11
1265.32
1057.54
867.54
706.358
581.664
489.181
421.424
370.822
331.388
298.529
269.682
245.079
225.737
211.774
202.463
196.662
193.279
191.492
190.737
190.585
190.72
190.959
191.204
191.407
191.557
191.658
191.721
191.758
191.778
191.789
191.795
191.798
191.8
191.801
191.801
191.801
191.801
191.801
191.801
191.801
191.801
191.801
191.801
191.802
191.802
191.802
191.802
191.802
191.802
191.802
191.802
191.802
191.802
191.802
191.802
191.802
191.802
191.802
191.802
191.801
191.802
191.801
191.802
191.801
191.803
191.799
191.805
191.796
191.81
191.79
191.818
191.781
191.829
191.765
191.851
191.735
191.891
191.688
191.948
191.63
192.02
191.563
192.121
191.503
192.266
191.505
192.544
191.734
193.207
527.766
448.343
493.458
446.496
515.478
619.197
751.108
1291.75
1743.93
1815.87
1638.91
1434.45
1234.49
1048.6
884.719
753.896
651.378
570.577
504.478
448.208
398.735
353.96
314.307
282.728
260.073
244.125
233.171
226.365
222.96
222.02
222.491
223.528
224.68
225.718
226.521
227.073
227.426
227.641
227.767
227.836
227.874
227.894
227.904
227.909
227.911
227.912
227.913
227.913
227.913
227.914
227.914
227.914
227.914
227.914
227.914
227.914
227.914
227.914
227.914
227.914
227.914
227.914
227.914
227.914
227.914
227.914
227.914
227.914
227.914
227.914
227.914
227.914
227.913
227.915
227.912
227.918
227.907
227.925
227.897
227.938
227.881
227.955
227.864
227.975
227.835
228.025
227.755
228.146
227.604
228.334
227.41
228.587
227.17
228.976
226.919
229.571
226.888
230.701
227.717
233.309
803.65
723.576
791.723
706.241
847.932
874.559
1094.77
1787.04
2156.88
1997.81
1727.49
1536.28
1355.95
1182.06
1026.56
897.73
791.558
702.583
626.476
560.431
502.023
449.158
403.642
372.357
357.517
351.224
347.44
345.456
345.872
348.398
351.879
355.339
358.331
360.674
362.351
363.458
364.141
364.539
364.763
364.885
364.948
364.981
364.998
365.006
365.01
365.012
365.013
365.013
365.014
365.014
365.014
365.014
365.014
365.014
365.014
365.014
365.014
365.014
365.014
365.014
365.014
365.014
365.014
365.014
365.014
365.014
365.014
365.014
365.014
365.014
365.014
365.015
365.013
365.016
365.011
365.021
365.003
365.032
364.987
365.052
364.966
365.072
364.953
365.079
364.946
365.106
364.879
365.245
364.683
365.516
364.402
365.911
364.026
366.623
363.516
367.937
363.238
370.53
364.673
376.075
1050.42
991.366
1039.87
962.205
1137.78
1125.26
1618.25
2460.25
2538.14
2026.53
1673.64
1491.25
1339.82
1194.15
1066.12
957.128
866.543
790.765
726.174
670.828
623.161
581.921
548.209
527.553
526.847
540.908
557.455
571.524
582.832
591.816
598.68
603.699
607.273
609.721
611.294
612.247
612.8
613.108
613.274
613.361
613.405
613.427
613.438
613.443
613.445
613.446
613.447
613.447
613.447
613.447
613.447
613.448
613.448
613.448
613.448
613.448
613.448
613.448
613.448
613.448
613.448
613.448
613.448
613.448
613.448
613.448
613.448
613.448
613.448
613.448
613.448
613.448
613.448
613.448
613.448
613.449
613.446
613.452
613.441
613.46
613.431
613.471
613.424
613.468
613.444
613.435
613.49
613.406
613.502
613.464
613.444