/*--------------------------------*- C++ -*----------------------------------*\
| =========                 |                                                 |
| \\      /  F ield         | OpenFOAM: The Open Source CFD Toolbox           |
|  \\    /   O peration     | Version:  v2012                                 |
|   \\  /    A nd           | Website:  www.openfoam.com                      |
|    \\/     M anipulation  |                                                 |
\*---------------------------------------------------------------------------*/
FoamFile
{
    version     2.0;
    format      ascii;
    class       surfaceScalarField;
    location    "0.094";
    object      phi.air;
}
// * * * * * * * * * * * * * * * * * * * * * * * * * * * * * * * * * * * * * //

dimensions      [0 3 -1 0 0 0 0];
oriented        oriented;


internalField   nonuniform List<scalar> 
10964
(
0.00133692
2.84375e-05
0.001298
3.81215e-05
0.00125299
4.42176e-05
0.00120459
4.75983e-05
0.00115604
4.77484e-05
0.00110999
4.52466e-05
0.00106814
4.10413e-05
0.00103159
3.57363e-05
0.0010002
3.05773e-05
0.000973633
2.57539e-05
0.000951931
2.08867e-05
0.000934816
1.62976e-05
0.000921853
1.21459e-05
0.00091243
8.60389e-06
0.000905865
5.74674e-06
0.000901535
3.51176e-06
0.000898713
2.00436e-06
0.000896999
8.95477e-07
0.000896023
1.58473e-07
0.000895354
-1.47933e-07
0.000894975
-4.38848e-07
0.000894687
-5.28935e-07
0.000894447
-5.76383e-07
0.000894286
-6.55339e-07
0.000894175
-7.04745e-07
0.00089417
-8.10869e-07
0.00089422
-8.66379e-07
0.000894282
-8.77725e-07
0.000894444
-9.765e-07
0.000894612
-9.83699e-07
0.000894763
-9.65806e-07
0.000894904
-9.56816e-07
0.000895
-9.10612e-07
0.000895035
-8.50176e-07
0.000894952
-7.3133e-07
0.000894885
-7.47818e-07
0.00089475
-6.80062e-07
0.000894561
-6.2537e-07
0.000894383
-6.36778e-07
0.000894135
-5.66216e-07
0.000893919
-5.98724e-07
0.000893652
-5.47511e-07
0.000893433
-5.95964e-07
0.000893188
-5.69397e-07
0.000892964
-5.89853e-07
0.000892789
-6.40051e-07
0.00089254
-5.65491e-07
0.000892395
-6.69427e-07
0.000892214
-6.33487e-07
0.000892081
-6.81109e-07
0.000891958
-6.90853e-07
0.000891815
-6.7204e-07
0.000891723
-7.22545e-07
0.000891586
-6.76533e-07
0.000891495
-7.24019e-07
0.000891393
-7.12648e-07
0.000891324
-7.44688e-07
0.00089127
-7.60235e-07
0.000891237
-7.81289e-07
0.00089124
-8.1743e-07
0.000891232
-8.05928e-07
0.000891252
-8.34683e-07
0.000891282
-8.44065e-07
0.000891317
-8.49297e-07
0.000891381
-8.78661e-07
0.000891415
-8.47481e-07
0.000891462
-8.61509e-07
0.000891544
-8.96254e-07
0.000891607
-8.76715e-07
0.00089176
-9.67112e-07
0.000891887
-9.40791e-07
0.000892057
-9.84374e-07
0.000892223
-9.80611e-07
0.00089238
-9.70876e-07
0.000892602
-1.03607e-06
0.000892772
-9.8354e-07
0.000893014
-1.05556e-06
0.000893283
-1.08297e-06
0.000893501
-1.03166e-06
0.000893809
-1.12188e-06
0.000894042
-1.04695e-06
0.000894298
-1.06976e-06
0.00089456
-1.07528e-06
0.000894781
-1.03464e-06
0.000895065
-1.09833e-06
0.000895299
-1.04734e-06
0.000895554
-1.0683e-06
0.000895873
-1.13316e-06
0.000896118
-1.05807e-06
0.000896399
-1.09491e-06
0.000896742
-1.15598e-06
0.000896875
-9.46065e-07
0.000897325
-1.26432e-06
0.000897531
-1.01845e-06
0.000897955
-1.23758e-06
0.000898208
-1.06626e-06
0.000898597
-1.20331e-06
0.00089997
-2.18487e-06
0.000897215
1.93984e-06
-1.86347e-05
0.00091504
0.00151471
2.62856e-05
0.00151419
3.86414e-05
0.00151229
4.6119e-05
0.00150787
5.20219e-05
0.00150066
5.496e-05
0.00149084
5.50587e-05
0.00147872
5.31685e-05
0.0014647
4.97511e-05
0.00144941
4.58721e-05
0.00143338
4.17809e-05
0.00141695
3.73164e-05
0.0014005
3.27522e-05
0.00138429
2.8354e-05
0.00136877
2.41261e-05
0.0013541
2.04103e-05
0.00134057
1.7045e-05
0.00132815
1.4427e-05
0.001317
1.20387e-05
0.00130706
1.01009e-05
0.0012982
8.71396e-06
0.0012905
7.25901e-06
0.00128367
6.29677e-06
0.0012779
5.20291e-06
0.00127292
4.32068e-06
0.00126868
3.53927e-06
0.00126497
2.89591e-06
0.00126166
2.44095e-06
0.00125884
1.93936e-06
0.00125628
1.58837e-06
0.00125392
1.37316e-06
0.00125172
1.23971e-06
0.00124964
1.1233e-06
0.00124771
1.01494e-06
0.00124591
9.46425e-07
0.00124423
9.50118e-07
0.00124267
8.14898e-07
0.00124125
7.41938e-07
0.00123991
7.11424e-07
0.00123869
5.86606e-07
0.00123756
5.62416e-07
0.00123651
4.4879e-07
0.00123553
4.30583e-07
0.00123464
2.95704e-07
0.00123383
2.45587e-07
0.00123305
1.82866e-07
0.00123234
7.12132e-08
0.00123166
1.19252e-07
0.00123105
-5.69237e-08
0.00123047
-5.78134e-08
0.00122993
-1.38948e-07
0.00122942
-1.81656e-07
0.00122892
-1.72075e-07
0.00122847
-2.69772e-07
0.00122804
-2.47582e-07
0.00122765
-3.35974e-07
0.00122728
-3.47754e-07
0.00122695
-4.09533e-07
0.00122665
-4.65635e-07
0.00122641
-5.31554e-07
0.00122622
-6.27941e-07
0.00122605
-6.35383e-07
0.00122591
-6.9566e-07
0.00122581
-7.52914e-07
0.00122573
-7.67578e-07
0.00122567
-8.16125e-07
0.00122559
-7.66307e-07
0.00122551
-7.80324e-07
0.00122546
-8.46711e-07
0.00122544
-8.58518e-07
0.00122549
-1.01944e-06
0.00122555
-9.99436e-07
0.00122564
-1.07441e-06
0.00122576
-1.09699e-06
0.00122587
-1.08219e-06
0.00122601
-1.17462e-06
0.00122617
-1.14148e-06
0.00122635
-1.24324e-06
0.0012266
-1.32459e-06
0.00122683
-1.26254e-06
0.00122709
-1.3885e-06
0.00122735
-1.30902e-06
0.00122759
-1.30465e-06
0.00122784
-1.325e-06
0.00122808
-1.27574e-06
0.00122831
-1.33165e-06
0.00122861
-1.3431e-06
0.00122887
-1.32782e-06
0.00122917
-1.43777e-06
0.00122947
-1.35147e-06
0.00122979
-1.41505e-06
0.00123007
-1.43839e-06
0.00123044
-1.3163e-06
0.00123067
-1.49509e-06
0.00123115
-1.49749e-06
0.00123131
-1.4016e-06
0.00123201
-1.76144e-06
0.00123213
-1.32669e-06
0.00123336
-3.41091e-06
0.00123349
1.81243e-06
-2.53134e-05
0.00124016
0.00167797
2.29788e-05
0.00168095
3.56694e-05
0.00168479
4.22695e-05
0.00168871
4.8109e-05
0.0016922
5.14629e-05
0.00169503
5.22342e-05
0.00169688
5.13129e-05
0.00169741
4.92289e-05
0.0016966
4.66785e-05
0.00169456
4.38175e-05
0.0016911
4.07814e-05
0.00168616
3.76902e-05
0.0016797
3.48147e-05
0.0016718
3.2022e-05
0.00166262
2.95975e-05
0.00165229
2.73751e-05
0.00164112
2.55893e-05
0.00162942
2.37438e-05
0.00161744
2.20777e-05
0.00160563
2.05275e-05
0.00159424
1.86482e-05
0.00158337
1.71705e-05
0.00157343
1.51414e-05
0.00156426
1.34845e-05
0.00155601
1.17905e-05
0.00154866
1.02454e-05
0.00154195
9.15004e-06
0.00153608
7.81123e-06
0.00153064
7.02923e-06
0.00152572
6.29045e-06
0.00152123
5.73361e-06
0.00151709
5.26273e-06
0.00151337
4.73757e-06
0.00150996
4.35696e-06
0.0015069
4.00473e-06
0.00150404
3.67567e-06
0.0015015
3.28153e-06
0.00149915
3.06325e-06
0.001497
2.74116e-06
0.00149503
2.52506e-06
0.00149321
2.27456e-06
0.00149154
2.09417e-06
0.00148999
1.84608e-06
0.00148862
1.62309e-06
0.00148728
1.52176e-06
0.00148602
1.32924e-06
0.00148485
1.28629e-06
0.00148376
1.03189e-06
0.00148277
9.34629e-07
0.0014818
8.35633e-07
0.0014809
7.14253e-07
0.00148004
6.88584e-07
0.00147924
5.28586e-07
0.00147851
4.81388e-07
0.00147783
3.45225e-07
0.00147721
2.77643e-07
0.00147662
1.80736e-07
0.00147609
5.58461e-08
0.00147563
-6.44175e-08
0.00147525
-2.47175e-07
0.00147493
-3.13681e-07
0.00147464
-4.10551e-07
0.00147442
-5.35352e-07
0.00147422
-5.68843e-07
0.00147403
-6.25771e-07
0.00147384
-5.74057e-07
0.00147363
-5.68571e-07
0.00147347
-6.865e-07
0.00147336
-7.53536e-07
0.00147331
-9.68207e-07
0.00147331
-9.98616e-07
0.00147333
-1.0952e-06
0.00147339
-1.15741e-06
0.00147345
-1.14232e-06
0.00147352
-1.24277e-06
0.00147363
-1.2549e-06
0.00147377
-1.37647e-06
0.00147398
-1.53231e-06
0.00147419
-1.47757e-06
0.00147442
-1.61786e-06
0.00147468
-1.56833e-06
0.00147489
-1.5163e-06
0.00147512
-1.55242e-06
0.00147535
-1.51106e-06
0.00147556
-1.53479e-06
0.00147584
-1.62811e-06
0.0014761
-1.58395e-06
0.00147638
-1.724e-06
0.0014767
-1.6693e-06
0.00147702
-1.72838e-06
0.00147732
-1.74407e-06
0.00147771
-1.70827e-06
0.00147798
-1.76013e-06
0.00147842
-1.93578e-06
0.00147871
-1.69252e-06
0.00147922
-2.2757e-06
0.0014796
-1.70091e-06
0.00148046
-4.27355e-06
0.00148219
8.46179e-08
-2.6135e-05
0.00148301
0.00185751
1.96146e-05
0.00186113
3.20447e-05
0.0018658
3.76012e-05
0.00187103
4.2882e-05
0.00187645
4.60445e-05
0.00188187
4.68159e-05
0.00188704
4.61406e-05
0.00189183
4.44333e-05
0.00189615
4.23609e-05
0.00189994
4.00317e-05
0.00190316
3.75569e-05
0.00190573
3.51176e-05
0.00190766
3.28929e-05
0.00190886
3.08146e-05
0.00190926
2.91984e-05
0.00190878
2.78595e-05
0.00190751
2.6861e-05
0.00190527
2.59823e-05
0.00190202
2.53279e-05
0.00189768
2.48641e-05
0.00189224
2.40902e-05
0.00188574
2.36724e-05
0.0018782
2.26829e-05
0.00186983
2.18487e-05
0.00186077
2.08506e-05
0.00185141
1.96111e-05
0.00184187
1.86865e-05
0.00183264
1.70371e-05
0.00182369
1.59837e-05
0.00181542
1.45627e-05
0.00180786
1.32904e-05
0.00180089
1.22304e-05
0.00179467
1.09556e-05
0.00178889
1.01369e-05
0.00178379
9.11255e-06
0.0017789
8.56714e-06
0.00177444
7.73708e-06
0.00177033
7.17233e-06
0.00176649
6.58248e-06
0.00176297
6.04138e-06
0.00175966
5.5879e-06
0.00175668
5.07597e-06
0.00175385
4.67021e-06
0.00175133
4.14448e-06
0.00174897
3.88175e-06
0.0017468
3.50641e-06
0.00174483
3.25098e-06
0.001743
2.86422e-06
0.00174134
2.59632e-06
0.0017397
2.47402e-06
0.00173819
2.21793e-06
0.00173677
2.10989e-06
0.00173544
1.85969e-06
0.00173423
1.69132e-06
0.0017331
1.47886e-06
0.00173206
1.31354e-06
0.00173108
1.16412e-06
0.00173021
9.29065e-07
0.00172941
7.35801e-07
0.00172872
4.37368e-07
0.00172814
2.68406e-07
0.00172761
1.14193e-07
0.00172717
-9.51084e-08
0.00172676
-1.58375e-07
0.00172636
-2.17303e-07
0.00172596
-1.74916e-07
0.00172553
-1.46399e-07
0.00172518
-3.34129e-07
0.00172489
-4.65885e-07
0.00172468
-7.57069e-07
0.00172456
-8.77143e-07
0.00172444
-9.78025e-07
0.00172438
-1.09565e-06
0.00172432
-1.07818e-06
0.00172426
-1.18061e-06
0.00172425
-1.25263e-06
0.00172427
-1.39653e-06
0.00172438
-1.63435e-06
0.00172452
-1.61899e-06
0.00172466
-1.76518e-06
0.00172486
-1.76387e-06
0.00172501
-1.67041e-06
0.00172517
-1.70856e-06
0.00172534
-1.67654e-06
0.00172547
-1.6729e-06
0.00172567
-1.82447e-06
0.00172589
-1.80545e-06
0.0017261
-1.93448e-06
0.00172641
-1.98047e-06
0.00172668
-1.99947e-06
0.00172701
-2.06853e-06
0.00172734
-2.04188e-06
0.00172765
-2.07123e-06
0.00172798
-2.26183e-06
0.00172842
-2.12894e-06
0.00172872
-2.57651e-06
0.00172928
-2.26685e-06
0.00172987
-4.85737e-06
0.00173193
-1.97535e-06
-2.5098e-05
0.00173089
0.0020562
1.62798e-05
0.00206033
2.7908e-05
0.00206546
3.24758e-05
0.00207128
3.70564e-05
0.00207741
3.99149e-05
0.00208363
4.0599e-05
0.00208973
4.00406e-05
0.00209559
3.85695e-05
0.00210114
3.6812e-05
0.00210634
3.48366e-05
0.00211122
3.26779e-05
0.00211565
3.06788e-05
0.00211982
2.87294e-05
0.00212362
2.7013e-05
0.00212713
2.56897e-05
0.00213036
2.46284e-05
0.00213336
2.38631e-05
0.00213608
2.326e-05
0.00213852
2.2885e-05
0.00214072
2.26703e-05
0.0021424
2.24045e-05
0.00214385
2.22255e-05
0.00214465
2.18834e-05
0.00214472
2.17783e-05
0.0021441
2.14713e-05
0.00214269
2.10156e-05
0.00214041
2.09727e-05
0.00213716
2.02797e-05
0.00213306
2.0091e-05
0.00212811
1.95077e-05
0.00212251
1.88952e-05
0.00211631
1.84291e-05
0.00210979
1.74769e-05
0.00210286
1.70605e-05
0.00209602
1.59529e-05
0.00208909
1.5503e-05
0.00208244
1.43811e-05
0.00207614
1.3475e-05
0.00207007
1.26501e-05
0.00206447
1.1647e-05
0.00205905
1.1004e-05
0.0020543
9.82722e-06
0.00204964
9.3281e-06
0.00204537
8.42069e-06
0.00204147
7.77635e-06
0.00203777
7.20791e-06
0.00203443
6.59401e-06
0.00203124
6.05184e-06
0.00202832
5.52009e-06
0.00202542
5.36604e-06
0.00202271
4.93373e-06
0.00202018
4.64187e-06
0.00201778
4.25321e-06
0.00201563
3.84829e-06
0.0020136
3.5013e-06
0.00201177
3.14837e-06
0.00201003
2.90555e-06
0.00200846
2.49565e-06
0.00200703
2.16664e-06
0.00200573
1.73512e-06
0.00200461
1.39243e-06
0.00200358
1.13864e-06
0.00200265
8.35483e-07
0.00200176
7.32156e-07
0.00200084
7.08727e-07
0.00199994
7.22267e-07
0.00199906
7.37025e-07
0.00199828
4.44012e-07
0.00199763
1.78133e-07
0.00199709
-2.10228e-07
0.00199668
-4.65698e-07
0.00199625
-5.54698e-07
0.00199588
-7.20348e-07
0.00199552
-7.23813e-07
0.00199517
-8.3135e-07
0.00199493
-1.0145e-06
0.00199473
-1.19562e-06
0.00199463
-1.52595e-06
0.00199461
-1.60821e-06
0.00199461
-1.7571e-06
0.00199465
-1.80253e-06
0.00199466
-1.68183e-06
0.00199465
-1.70134e-06
0.00199466
-1.68516e-06
0.00199467
-1.68095e-06
0.0019947
-1.8615e-06
0.0019948
-1.90728e-06
0.0019949
-2.0259e-06
0.00199511
-2.19916e-06
0.0019953
-2.17996e-06
0.00199554
-2.30827e-06
0.00199578
-2.28802e-06
0.00199605
-2.33617e-06
0.00199631
-2.52619e-06
0.00199667
-2.48892e-06
0.00199696
-2.86387e-06
0.00199746
-2.77091e-06
0.00199794
-5.33351e-06
0.00199965
-3.68603e-06
-2.41784e-05
0.00199873
0.00227616
1.29913e-05
0.00228085
2.3222e-05
0.00228645
2.68717e-05
0.00229284
3.06685e-05
0.00229961
3.31407e-05
0.00230649
3.37194e-05
0.00231328
3.32572e-05
0.00231981
3.20328e-05
0.00232605
3.05749e-05
0.00233194
2.89505e-05
0.00233748
2.71294e-05
0.00234266
2.55049e-05
0.00234753
2.38591e-05
0.0023521
2.24389e-05
0.00235643
2.13578e-05
0.0023606
2.04592e-05
0.00236462
1.9842e-05
0.00236854
1.93472e-05
0.00237235
1.90748e-05
0.00237614
1.88775e-05
0.0023798
1.87443e-05
0.00238343
1.8596e-05
0.00238693
1.83869e-05
0.00239033
1.83786e-05
0.00239359
1.82047e-05
0.00239658
1.80305e-05
0.0023996
1.79466e-05
0.00240212
1.77601e-05
0.00240454
1.76728e-05
0.0024065
1.75518e-05
0.002408
1.73901e-05
0.00240913
1.7306e-05
0.00240941
1.71885e-05
0.00240933
1.71429e-05
0.00240855
1.67392e-05
0.00240725
1.68004e-05
0.00240526
1.63725e-05
0.00240276
1.59748e-05
0.00239967
1.57378e-05
0.00239601
1.53044e-05
0.00239205
1.49696e-05
0.00238804
1.38369e-05
0.00238361
1.37565e-05
0.0023789
1.31306e-05
0.00237409
1.25821e-05
0.00236913
1.21707e-05
0.00236463
1.10981e-05
0.00236001
1.06668e-05
0.00235564
9.88811e-06
0.00235133
9.68152e-06
0.00234711
9.15237e-06
0.00234315
8.60069e-06
0.00233934
8.06278e-06
0.00233597
7.21382e-06
0.00233274
6.73927e-06
0.00232981
6.07783e-06
0.00232702
5.69393e-06
0.00232437
5.14856e-06
0.0023219
4.62995e-06
0.00231954
4.09773e-06
0.00231741
3.52423e-06
0.00231546
3.09025e-06
0.00231358
2.71231e-06
0.00231175
2.56021e-06
0.00230983
2.6337e-06
0.00230798
2.57297e-06
0.00230626
2.45449e-06
0.00230472
1.98281e-06
0.00230346
1.44103e-06
0.00230232
9.27058e-07
0.00230136
4.92115e-07
0.00230039
4.14462e-07
0.00229942
2.47714e-07
0.00229851
1.86508e-07
0.00229761
7.67106e-08
0.00229687
-2.79876e-07
0.00229621
-5.37035e-07
0.00229566
-9.7229e-07
0.00229527
-1.22174e-06
0.00229486
-1.34183e-06
0.00229451
-1.4564e-06
0.00229416
-1.32544e-06
0.00229378
-1.322e-06
0.00229343
-1.34381e-06
0.0022931
-1.34779e-06
0.00229281
-1.56888e-06
0.00229261
-1.70864e-06
0.00229244
-1.8547e-06
0.00229235
-2.11462e-06
0.00229232
-2.14274e-06
0.00229232
-2.30749e-06
0.00229237
-2.33891e-06
0.00229245
-2.41418e-06
0.00229254
-2.62566e-06
0.00229272
-2.66449e-06
0.00229287
-3.01674e-06
0.0022932
-3.10043e-06
0.00229354
-5.6752e-06
0.002295
-5.1446e-06
-2.31826e-05
0.00229401
0.00251975
9.70367e-06
0.00252499
1.79788e-05
0.00253113
2.07319e-05
0.00253813
2.3671e-05
0.00254561
2.56651e-05
0.0025532
2.6123e-05
0.0025607
2.57577e-05
0.00256792
2.48127e-05
0.00257482
2.36735e-05
0.00258136
2.24147e-05
0.0025875
2.09893e-05
0.00259328
1.97255e-05
0.0025987
1.8441e-05
0.00260381
1.73262e-05
0.00260868
1.64843e-05
0.00261337
1.57741e-05
0.00261791
1.52958e-05
0.00262236
1.4903e-05
0.00262674
1.46944e-05
0.00263108
1.45319e-05
0.00263539
1.44362e-05
0.00263966
1.43274e-05
0.00264388
1.41647e-05
0.00264809
1.41755e-05
0.00265225
1.40416e-05
0.00265634
1.39434e-05
0.00266044
1.38431e-05
0.00266445
1.37532e-05
0.00266844
1.36813e-05
0.00267236
1.36321e-05
0.0026762
1.35506e-05
0.00268
1.34999e-05
0.00268363
1.35597e-05
0.00268735
1.34254e-05
0.00269068
1.34138e-05
0.00269412
1.33533e-05
0.00269721
1.32859e-05
0.00270006
1.31208e-05
0.00270269
1.311e-05
0.002705
1.2992e-05
0.00270706
1.29121e-05
0.00270811
1.27933e-05
0.00270917
1.2694e-05
0.00270976
1.25333e-05
0.00270994
1.24036e-05
0.0027098
1.23167e-05
0.00270916
1.17316e-05
0.00270799
1.1843e-05
0.00270641
1.14691e-05
0.00270474
1.13468e-05
0.00270268
1.12125e-05
0.00270037
1.09076e-05
0.00269783
1.06116e-05
0.00269517
9.87037e-06
0.00269234
9.56689e-06
0.00268934
9.07549e-06
0.00268632
8.71298e-06
0.00268317
8.30563e-06
0.00268002
7.77446e-06
0.00267686
7.26463e-06
0.00267382
6.56519e-06
0.00267101
5.89764e-06
0.00266816
5.56069e-06
0.00266537
5.35026e-06
0.00266246
5.54097e-06
0.0026597
5.33438e-06
0.00265724
4.9178e-06
0.00265496
4.25976e-06
0.00265309
3.31383e-06
0.00265128
2.73735e-06
0.00264961
2.15711e-06
0.00264798
2.05067e-06
0.00264623
1.98927e-06
0.00264456
1.8605e-06
0.00264287
1.77078e-06
0.00264135
1.23589e-06
0.00263998
8.31992e-07
0.00263864
3.71835e-07
0.00263748
-6.60041e-08
0.00263631
-1.72957e-07
0.00263522
-3.61774e-07
0.0026342
-3.05272e-07
0.00263315
-2.71372e-07
0.00263218
-3.7727e-07
0.00263126
-4.29477e-07
0.00263039
-6.93107e-07
0.00262965
-9.70571e-07
0.00262895
-1.15087e-06
0.00262834
-1.50628e-06
0.00262785
-1.65437e-06
0.00262739
-1.84424e-06
0.00262707
-2.02111e-06
0.00262678
-2.12302e-06
0.00262649
-2.34304e-06
0.00262633
-2.49645e-06
0.00262616
-2.85303e-06
0.0026262
-3.13849e-06
0.0026262
-5.67218e-06
0.00262719
-6.13549e-06
-2.19458e-05
0.00262595
0.00278949
6.37734e-06
0.00279533
1.21374e-05
0.00280208
1.39816e-05
0.00280975
1.59995e-05
0.002818
1.74125e-05
0.0028264
1.773e-05
0.00283468
1.74709e-05
0.00284267
1.68275e-05
0.0028503
1.60426e-05
0.00285754
1.51771e-05
0.00286433
1.4199e-05
0.00287073
1.33215e-05
0.00287673
1.24412e-05
0.00288239
1.16631e-05
0.0028878
1.10741e-05
0.00289299
1.05827e-05
0.00289804
1.02481e-05
0.00290298
9.96847e-06
0.00290785
9.82217e-06
0.00291267
9.70812e-06
0.00291747
9.63721e-06
0.00292223
9.56898e-06
0.00292694
9.452e-06
0.00293165
9.47006e-06
0.00293631
9.38234e-06
0.00294093
9.31856e-06
0.00294553
9.24524e-06
0.00295011
9.17673e-06
0.00295465
9.13851e-06
0.00295918
9.1014e-06
0.00296368
9.05532e-06
0.00296817
9.01012e-06
0.00297265
9.07429e-06
0.00297712
8.96018e-06
0.00298154
8.98901e-06
0.00298595
8.94098e-06
0.00299033
8.90703e-06
0.00299466
8.79481e-06
0.00299897
8.79804e-06
0.00300319
8.77111e-06
0.00300741
8.68968e-06
0.00301137
8.83366e-06
0.00301545
8.61353e-06
0.00301937
8.61614e-06
0.00302321
8.56159e-06
0.00302704
8.48725e-06
0.00303032
8.45469e-06
0.00303385
8.3128e-06
0.00303688
8.43565e-06
0.00303985
8.3788e-06
0.00304268
8.3792e-06
0.00304539
8.20448e-06
0.00304791
8.09262e-06
0.00304973
8.0464e-06
0.00305138
7.91778e-06
0.00305259
7.86868e-06
0.00305361
7.68513e-06
0.00305434
7.57679e-06
0.00305483
7.28212e-06
0.00305498
7.11908e-06
0.00305467
6.88021e-06
0.00305393
6.62858e-06
0.00305278
6.71759e-06
0.00305146
6.66814e-06
0.00305019
6.80781e-06
0.00304893
6.59735e-06
0.0030477
6.15056e-06
0.00304629
5.66842e-06
0.00304472
4.88154e-06
0.00304287
4.59238e-06
0.00304086
4.1671e-06
0.00303884
4.06527e-06
0.00303677
4.06381e-06
0.00303489
3.74101e-06
0.00303307
3.58859e-06
0.00303133
2.9718e-06
0.00302968
2.48003e-06
0.0030279
2.15502e-06
0.00302616
1.67273e-06
0.00302443
1.56236e-06
0.00302273
1.33452e-06
0.00302117
1.2523e-06
0.00301965
1.24768e-06
0.00301824
1.03687e-06
0.00301693
8.82199e-07
0.00301566
5.7259e-07
0.00301448
2.11871e-07
0.00301335
-2.31529e-08
0.00301225
-4.05519e-07
0.00301127
-6.68789e-07
0.00301033
-9.09245e-07
0.00300951
-1.19679e-06
0.00300875
-1.3675e-06
0.00300798
-1.56791e-06
0.0030073
-1.82343e-06
0.0030067
-2.25228e-06
0.00300622
-2.65341e-06
0.00300572
-5.17174e-06
0.00300612
-6.5436e-06
-2.03169e-05
0.0030045
0.0030882
2.94016e-06
0.00309469
5.65098e-06
0.00310213
6.53786e-06
0.00311056
7.57204e-06
0.00311967
8.29682e-06
0.00312895
8.44914e-06
0.00313811
8.31505e-06
0.00314694
7.9914e-06
0.00315539
7.59942e-06
0.0031634
7.16805e-06
0.00317092
6.67743e-06
0.003178
6.23559e-06
0.00318465
5.79446e-06
0.00319093
5.3887e-06
0.00319692
5.08227e-06
0.00320267
4.83118e-06
0.00320826
4.65763e-06
0.00321372
4.50387e-06
0.00321912
4.42353e-06
0.00322446
4.36794e-06
0.00322978
4.32495e-06
0.00323504
4.29946e-06
0.00324026
4.23234e-06
0.00324548
4.25621e-06
0.00325064
4.22397e-06
0.00325577
4.18931e-06
0.00326086
4.14866e-06
0.00326594
4.10023e-06
0.00327098
4.09387e-06
0.00327601
4.0716e-06
0.00328102
4.04692e-06
0.00328601
4.01871e-06
0.00329102
4.06901e-06
0.00329598
3.99847e-06
0.00330095
4.01927e-06
0.00330588
4.00625e-06
0.00331082
3.9742e-06
0.0033157
3.91339e-06
0.00332059
3.91086e-06
0.00332544
3.92212e-06
0.00333027
3.85348e-06
0.00333512
3.9875e-06
0.00333987
3.85945e-06
0.00334464
3.84941e-06
0.00334936
3.83819e-06
0.00335409
3.75917e-06
0.00335874
3.8065e-06
0.00336339
3.66166e-06
0.003368
3.82042e-06
0.00337256
3.82336e-06
0.00337713
3.81246e-06
0.00338162
3.71447e-06
0.00338608
3.62724e-06
0.00339044
3.68986e-06
0.00339473
3.62427e-06
0.00339893
3.67448e-06
0.00340301
3.60227e-06
0.00340711
3.47507e-06
0.00341107
3.32272e-06
0.0034149
3.28692e-06
0.00341854
3.2377e-06
0.00342187
3.30446e-06
0.00342517
3.41718e-06
0.00342817
3.66882e-06
0.00343123
3.7459e-06
0.00343413
3.70001e-06
0.00343683
3.4502e-06
0.00343935
3.14208e-06
0.00344136
2.8777e-06
0.00344315
2.80363e-06
0.0034444
2.91828e-06
0.00344554
2.92567e-06
0.00344661
2.98568e-06
0.00344751
2.84726e-06
0.00344848
2.61784e-06
0.00344913
2.3201e-06
0.00344948
2.12884e-06
0.00344961
2.02746e-06
0.00344938
1.90043e-06
0.00344899
1.94919e-06
0.00344842
1.91283e-06
0.00344777
1.90223e-06
0.00344718
1.83195e-06
0.00344657
1.64361e-06
0.00344602
1.43683e-06
0.00344547
1.12655e-06
0.0034448
8.7523e-07
0.00344412
6.5841e-07
0.00344328
4.33347e-07
0.00344236
2.54028e-07
0.00344141
4.31291e-08
0.00344039
-1.80768e-07
0.00343946
-4.37543e-07
0.00343852
-6.26992e-07
0.00343762
-9.27202e-07
0.00343681
-1.44281e-06
0.00343608
-1.91376e-06
0.00343522
-4.31609e-06
0.0034351
-6.42384e-06
-1.8187e-05
0.00343297
0.00341903
-7.28033e-07
0.00342623
-1.5427e-06
0.00343445
-1.68841e-06
0.00344374
-1.71724e-06
0.00345382
-1.78269e-06
0.00346409
-1.82158e-06
0.00347422
-1.80719e-06
0.003484
-1.78937e-06
0.00349334
-1.74699e-06
0.0035022
-1.69296e-06
0.00351054
-1.65763e-06
0.00351838
-1.60272e-06
0.00352574
-1.56941e-06
0.00353269
-1.56128e-06
0.00353932
-1.55087e-06
0.0035457
-1.54291e-06
0.00355188
-1.52915e-06
0.00355794
-1.5504e-06
0.00356392
-1.55277e-06
0.00356983
-1.54745e-06
0.00357571
-1.55347e-06
0.00358154
-1.53444e-06
0.00358732
-1.54957e-06
0.00359309
-1.512e-06
0.00359881
-1.49106e-06
0.00360449
-1.4877e-06
0.00361013
-1.49608e-06
0.00361575
-1.51569e-06
0.00362133
-1.49338e-06
0.0036269
-1.49723e-06
0.00363245
-1.50069e-06
0.00363798
-1.50978e-06
0.00364352
-1.4695e-06
0.00364901
-1.49923e-06
0.00365451
-1.48157e-06
0.00365999
-1.46582e-06
0.00366545
-1.48839e-06
0.00367087
-1.50936e-06
0.00367628
-1.50142e-06
0.00368167
-1.46108e-06
0.00368702
-1.49686e-06
0.00369241
-1.4058e-06
0.00369772
-1.45223e-06
0.00370303
-1.45588e-06
0.00370829
-1.42645e-06
0.00371354
-1.48673e-06
0.00371878
-1.43816e-06
0.00372396
-1.51892e-06
0.00372918
-1.39807e-06
0.00373436
-1.34928e-06
0.00373953
-1.36578e-06
0.00374465
-1.40217e-06
0.00374974
-1.46377e-06
0.00375483
-1.3951e-06
0.00375987
-1.42231e-06
0.00376493
-1.38654e-06
0.00376994
-1.40244e-06
0.00377494
-1.52772e-06
0.00377989
-1.62417e-06
0.00378478
-1.60765e-06
0.00378964
-1.61577e-06
0.00379443
-1.49397e-06
0.00379925
-1.39907e-06
0.00380404
-1.12284e-06
0.00380886
-1.07281e-06
0.00381365
-1.09064e-06
0.00381834
-1.23576e-06
0.00382299
-1.50656e-06
0.00382745
-1.58917e-06
0.00383192
-1.66584e-06
0.00383626
-1.41656e-06
0.00384055
-1.36338e-06
0.00384485
-1.32244e-06
0.00384899
-1.29145e-06
0.00385314
-1.5257e-06
0.00385699
-1.53746e-06
0.00386077
-1.64183e-06
0.0038644
-1.61123e-06
0.00386775
-1.44075e-06
0.00387104
-1.34289e-06
0.00387403
-1.08145e-06
0.00387695
-1.01879e-06
0.00387978
-9.97261e-07
0.00388239
-9.59836e-07
0.00388498
-1.16258e-06
0.00388729
-1.1761e-06
0.00388947
-1.30767e-06
0.00389146
-1.33137e-06
0.00389306
-1.17097e-06
0.00389455
-1.23031e-06
0.00389562
-1.02921e-06
0.00389641
-9.7321e-07
0.00389701
-1.03557e-06
0.00389731
-9.28138e-07
0.0038975
-1.11449e-06
0.00389748
-1.42349e-06
0.00389737
-1.80287e-06
0.00389685
-3.7992e-06
0.00389655
-6.12025e-06
-1.57206e-05
0.00389408
0.00341906
-4.42734e-06
0.00342627
-8.74878e-06
0.0034345
-9.91607e-06
0.00344379
-1.1012e-05
0.00345388
-1.18649e-05
0.00346415
-1.20946e-05
0.00347427
-1.19273e-05
0.00348405
-1.15729e-05
0.0034934
-1.10943e-05
0.00350226
-1.05511e-05
0.0035106
-9.99743e-06
0.00351843
-9.43661e-06
0.0035258
-8.93501e-06
0.00353275
-8.51142e-06
0.00353938
-8.18187e-06
0.00354575
-7.91995e-06
0.00355194
-7.7125e-06
0.003558
-7.60787e-06
0.00356397
-7.52792e-06
0.00356989
-7.46312e-06
0.00357576
-7.43095e-06
0.0035816
-7.3693e-06
0.00358739
-7.3368e-06
0.00359315
-7.2747e-06
0.00359886
-7.20644e-06
0.00360454
-7.16361e-06
0.00361019
-7.14397e-06
0.0036158
-7.1323e-06
0.00362139
-7.07949e-06
0.00362696
-7.0658e-06
0.00363251
-7.04667e-06
0.00363804
-7.0398e-06
0.00364357
-7.0072e-06
0.00364908
-7.00459e-06
0.00365457
-6.97664e-06
0.00366004
-6.93585e-06
0.0036655
-6.94618e-06
0.00367093
-6.93803e-06
0.00367635
-6.91978e-06
0.00368174
-6.84887e-06
0.00368709
-6.84913e-06
0.00369246
-6.77403e-06
0.00369777
-6.76288e-06
0.00370308
-6.76686e-06
0.00370837
-6.71823e-06
0.00371362
-6.74151e-06
0.00371886
-6.67365e-06
0.00372404
-6.70319e-06
0.00372925
-6.60297e-06
0.00373443
-6.52958e-06
0.0037396
-6.53337e-06
0.00374472
-6.52015e-06
0.0037498
-6.54459e-06
0.00375486
-6.46228e-06
0.00375992
-6.47676e-06
0.00376497
-6.44155e-06
0.00376999
-6.42014e-06
0.00377497
-6.51164e-06
0.00377989
-6.53552e-06
0.00378477
-6.49119e-06
0.0037896
-6.45064e-06
0.00379442
-6.31283e-06
0.00379922
-6.19287e-06
0.00380402
-5.92589e-06
0.00380882
-5.86968e-06
0.00381356
-5.83395e-06
0.00381827
-5.94933e-06
0.00382286
-6.09181e-06
0.00382735
-6.08011e-06
0.00383177
-6.08949e-06
0.0038361
-5.74689e-06
0.00384043
-5.69352e-06
0.00384463
-5.51706e-06
0.00384874
-5.40465e-06
0.00385273
-5.51749e-06
0.00385652
-5.32712e-06
0.0038602
-5.32279e-06
0.00386366
-5.0684e-06
0.00386705
-4.82625e-06
0.00387025
-4.54162e-06
0.00387325
-4.08738e-06
0.00387615
-3.91569e-06
0.00387878
-3.62498e-06
0.00388128
-3.46827e-06
0.00388352
-3.40047e-06
0.00388548
-3.12968e-06
0.00388721
-3.03992e-06
0.00388865
-2.77233e-06
0.00388991
-2.43647e-06
0.00389086
-2.17193e-06
0.0038916
-1.76877e-06
0.00389214
-1.51652e-06
0.00389239
-1.29003e-06
0.00389247
-1.00448e-06
0.00389233
-9.72886e-07
0.00389199
-1.08217e-06
0.0038915
-1.31792e-06
0.00389059
-2.88301e-06
0.00388959
-5.12332e-06
-1.29307e-05
0.0038868
0.00308828
-7.94882e-06
0.0030948
-1.52659e-05
0.00310225
-1.7364e-05
0.00311069
-1.94539e-05
0.00311981
-2.09874e-05
0.0031291
-2.13817e-05
0.00313825
-2.10772e-05
0.00314709
-2.04165e-05
0.00315554
-1.95399e-05
0.00316354
-1.85524e-05
0.00317107
-1.75323e-05
0.00317815
-1.65097e-05
0.0031848
-1.55865e-05
0.00319107
-1.47863e-05
0.00319706
-1.4169e-05
0.00320282
-1.36789e-05
0.0032084
-1.32935e-05
0.00321387
-1.30804e-05
0.00321927
-1.29239e-05
0.00322461
-1.28061e-05
0.00322992
-1.27404e-05
0.00323519
-1.26394e-05
0.00324042
-1.25677e-05
0.00324563
-1.24779e-05
0.00325079
-1.23684e-05
0.00325592
-1.22902e-05
0.00326102
-1.22465e-05
0.00326609
-1.22059e-05
0.00327114
-1.21239e-05
0.00327617
-1.20968e-05
0.00328117
-1.20537e-05
0.00328617
-1.20342e-05
0.00329117
-1.20086e-05
0.00329614
-1.1977e-05
0.0033011
-1.19322e-05
0.00330603
-1.18715e-05
0.00331095
-1.18664e-05
0.00331585
-1.18371e-05
0.00332074
-1.18037e-05
0.00332559
-1.17014e-05
0.00333041
-1.16676e-05
0.00333522
-1.15846e-05
0.00333999
-1.15389e-05
0.00334476
-1.15327e-05
0.00334951
-1.14695e-05
0.00335419
-1.14238e-05
0.00335884
-1.13211e-05
0.00336344
-1.13062e-05
0.00336804
-1.11957e-05
0.0033726
-1.10936e-05
0.0033771
-1.10328e-05
0.00338157
-1.09899e-05
0.00338594
-1.09111e-05
0.00339025
-1.07714e-05
0.0033945
-1.07282e-05
0.00339863
-1.05771e-05
0.00340273
-1.0521e-05
0.00340665
-1.04325e-05
0.00341047
-1.0352e-05
0.00341414
-1.01567e-05
0.0034176
-9.91285e-06
0.00342095
-9.66024e-06
0.00342405
-9.30179e-06
0.00342712
-8.99587e-06
0.00342991
-8.65791e-06
0.0034325
-8.42286e-06
0.00343485
-8.29573e-06
0.00343685
-8.09745e-06
0.00343863
-7.8517e-06
0.00344002
-7.48851e-06
0.0034413
-7.02112e-06
0.00344222
-6.61319e-06
0.00344295
-6.24644e-06
0.00344349
-5.94849e-06
0.00344368
-5.70267e-06
0.00344373
-5.37805e-06
0.00344352
-5.11535e-06
0.00344317
-4.71941e-06
0.00344265
-4.30836e-06
0.00344197
-3.854e-06
0.00344122
-3.34664e-06
0.00344033
-3.01775e-06
0.00343938
-2.6803e-06
0.00343834
-2.42878e-06
0.00343719
-2.24718e-06
0.00343603
-1.97192e-06
0.00343475
-1.76278e-06
0.00343347
-1.49049e-06
0.00343218
-1.14162e-06
0.00343087
-8.63579e-07
0.00342966
-5.56038e-07
0.00342843
-2.89812e-07
0.00342725
-1.14076e-07
0.00342616
9.26816e-08
0.00342504
1.48395e-07
0.00342392
3.55479e-08
0.00342279
-1.94573e-07
0.00342146
-1.54785e-06
0.00342002
-3.68367e-06
-1.01961e-05
0.00341729
0.00278961
-1.14033e-05
0.0027955
-2.11469e-05
0.00280225
-2.41221e-05
0.00280995
-2.71466e-05
0.00281821
-2.92493e-05
0.00282661
-2.97821e-05
0.00283489
-2.93575e-05
0.00284289
-2.84138e-05
0.00285052
-2.71718e-05
0.00285775
-2.57824e-05
0.00286455
-2.4339e-05
0.00287094
-2.28972e-05
0.00287695
-2.15913e-05
0.00288261
-2.04503e-05
0.00288802
-1.95754e-05
0.00289321
-1.88757e-05
0.00289825
-1.83322e-05
0.00290319
-1.80213e-05
0.00290807
-1.77972e-05
0.00291289
-1.76319e-05
0.00291769
-1.75355e-05
0.00292245
-1.73986e-05
0.00292717
-1.72907e-05
0.00293187
-1.7176e-05
0.00293652
-1.70232e-05
0.00294115
-1.6916e-05
0.00294575
-1.68426e-05
0.00295031
-1.67737e-05
0.00295486
-1.66674e-05
0.00295938
-1.66233e-05
0.00296388
-1.65487e-05
0.00296835
-1.65097e-05
0.00297284
-1.6492e-05
0.00297727
-1.64142e-05
0.00298169
-1.63476e-05
0.00298607
-1.62553e-05
0.00299042
-1.6211e-05
0.00299473
-1.61447e-05
0.00299896
-1.60378e-05
0.00300318
-1.59177e-05
0.00300729
-1.57846e-05
0.00301135
-1.56371e-05
0.00301529
-1.54843e-05
0.00301913
-1.53752e-05
0.00302286
-1.51989e-05
0.00302639