/*--------------------------------*- C++ -*----------------------------------*\
| =========                 |                                                 |
| \\      /  F ield         | OpenFOAM: The Open Source CFD Toolbox           |
|  \\    /   O peration     | Version:  v2012                                 |
|   \\  /    A nd           | Website:  www.openfoam.com                      |
|    \\/     M anipulation  |                                                 |
\*---------------------------------------------------------------------------*/
FoamFile
{
    version     2.0;
    format      ascii;
    class       volVectorField;
    location    "0.094";
    object      U.air;
}
// * * * * * * * * * * * * * * * * * * * * * * * * * * * * * * * * * * * * * //

dimensions      [0 1 -1 0 0 0 0];


internalField   nonuniform List<vector> 
1900
(
(39.9869 0.00143005 0)
(39.9862 0.00179019 0)
(39.9789 0.00310611 0)
(39.9582 0.00501387 0)
(39.9304 0.00756455 0)
(39.8687 0.0152067 0)
(39.7202 0.0291738 0)
(39.592 0.0699302 0)
(38.6435 0.22259 0)
(38.4935 0.56702 0)
(40.0027 -0.00101031 0)
(40.0173 0.00212932 0)
(40.0216 0.00618298 0)
(40.021 0.0127735 0)
(40.0048 0.0246308 0)
(39.9548 0.0491784 0)
(39.8699 0.0859137 0)
(39.6923 0.220761 0)
(39.3118 0.478793 0)
(38.693 1.3594 0)
(39.9743 -0.00343334 0)
(39.9854 -0.00157472 0)
(39.9918 0.00338866 0)
(39.9909 0.0116458 0)
(39.9817 0.0302365 0)
(39.9561 0.0633647 0)
(39.9023 0.130328 0)
(39.763 0.300145 0)
(39.5849 0.704741 0)
(39.3096 1.59527 0)
(39.994 -0.00110134 0)
(39.99 -0.000692837 0)
(40.0002 0.00548394 0)
(39.9865 0.01676 0)
(39.9755 0.0374244 0)
(39.9627 0.0771718 0)
(39.9202 0.162795 0)
(39.861 0.354597 0)
(39.8253 0.785804 0)
(39.8302 1.57691 0)
(39.9761 -0.000466845 0)
(39.9888 -0.00288577 0)
(40 0.00390383 0)
(40.0051 0.0188529 0)
(40.006 0.0409278 0)
(40.0116 0.0854838 0)
(40.0009 0.178983 0)
(40.0041 0.369891 0)
(40.0761 0.772825 0)
(40.2838 1.44822 0)
(40.0093 0.0007375 0)
(39.993 -0.00374505 0)
(40.0018 -0.00157984 0)
(40.0093 0.0118468 0)
(40.0186 0.0333731 0)
(40.0356 0.0784673 0)
(40.0693 0.170572 0)
(40.1327 0.345817 0)
(40.3054 0.695743 0)
(40.6446 1.25921 0)
(39.9926 0.000256849 0)
(40 0.000369938 0)
(39.9807 0.00335599 0)
(39.987 0.0105501 0)
(40.0034 0.0292669 0)
(40.0157 0.0688594 0)
(40.0719 0.147965 0)
(40.1743 0.296592 0)
(40.3995 0.579639 0)
(40.8536 1.02509 0)
(39.9921 -0.00147684 0)
(40.0053 1.91692e-06 0)
(40.0229 0.00116182 0)
(40.0444 0.00781659 0)
(40.0564 0.0243619 0)
(40.0813 0.0554897 0)
(40.1563 0.114562 0)
(40.3016 0.228101 0)
(40.592 0.433347 0)
(41.1087 0.748795 0)
(39.9914 -0.0040461 0)
(40.0156 -0.00763572 0)
(40.0161 -0.00707609 0)
(40.0307 -0.00269297 0)
(40.0543 0.0101436 0)
(40.1002 0.0307745 0)
(40.1887 0.0668301 0)
(40.3588 0.137772 0)
(40.6811 0.264701 0)
(41.227 0.45586 0)
(39.9798 -0.00564427 0)
(39.9773 -0.00715522 0)
(39.9577 -0.00656801 0)
(39.9553 -0.00565961 0)
(39.9488 -0.00177112 0)
(39.9812 0.0046199 0)
(40.0478 0.015759 0)
(40.2061 0.0392669 0)
(40.5274 0.0827592 0)
(41.0951 0.147344 0)
(32.8627 3.15502 0)
(25.7235 6.40105 0)
(26.3952 6.67468 0)
(26.8701 5.65883 0)
(26.6906 3.85326 0)
(26.3752 1.83953 0)
(26.3021 -0.103015 0)
(26.6489 -2.05318 0)
(27.6299 -3.99479 0)
(29.5398 -6.11036 0)
(31.7056 -8.17781 0)
(32.2475 -8.77909 0)
(32.0337 -8.34886 0)
(31.412 -7.09284 0)
(30.6014 -5.47227 0)
(29.8711 -3.91309 0)
(29.3817 -2.70011 0)
(29.0779 -1.81934 0)
(28.8955 -1.20559 0)
(28.7863 -0.79281 0)
(28.7206 -0.52094 0)
(28.6811 -0.347894 0)
(28.6559 -0.230951 0)
(28.6393 -0.153244 0)
(28.6289 -0.105465 0)
(28.6219 -0.0738431 0)
(28.6168 -0.0543536 0)
(28.6127 -0.0434169 0)
(28.609 -0.0365539 0)
(28.6065 -0.0340766 0)
(28.602 -0.032011 0)
(28.6007 -0.0319349 0)
(28.5999 -0.0317516 0)
(28.584 -0.0325188 0)
(28.5829 -0.0328635 0)
(28.5808 -0.0322581 0)
(28.578 -0.0318099 0)
(28.5751 -0.0314247 0)
(28.5721 -0.0305922 0)
(28.5685 -0.0296423 0)
(28.5644 -0.0290773 0)
(28.56 -0.0287863 0)
(28.555 -0.0287305 0)
(28.5493 -0.0289279 0)
(28.5431 -0.0293877 0)
(28.5363 -0.0301119 0)
(28.5291 -0.031107 0)
(28.5214 -0.0323822 0)
(28.5134 -0.0339313 0)
(28.5051 -0.0357217 0)
(28.4965 -0.0377003 0)
(28.4879 -0.0398038 0)
(28.4792 -0.0419618 0)
(28.4705 -0.0440947 0)
(28.4618 -0.0461221 0)
(28.4532 -0.047963 0)
(28.4448 -0.0495409 0)
(28.4364 -0.0507961 0)
(28.4281 -0.0517066 0)
(28.4198 -0.0522974 0)
(28.4115 -0.0526338 0)
(28.4029 -0.0528052 0)
(28.394 -0.0529102 0)
(28.3846 -0.0530408 0)
(28.3744 -0.053264 0)
(28.3636 -0.0536168 0)
(28.352 -0.0541047 0)
(28.3397 -0.0547084 0)
(28.3267 -0.0553915 0)
(28.3131 -0.0561097 0)
(28.2991 -0.0568225 0)
(28.2846 -0.057498 0)
(28.2697 -0.0581084 0)
(28.2545 -0.0586343 0)
(28.239 -0.059073 0)
(28.2232 -0.0594357 0)
(28.207 -0.0597409 0)
(28.1904 -0.0600106 0)
(28.1734 -0.0602663 0)
(28.1559 -0.0605255 0)
(28.138 -0.0607998 0)
(28.1197 -0.0610959 0)
(28.101 -0.0614139 0)
(28.082 -0.061745 0)
(28.0627 -0.0620791 0)
(28.0432 -0.0624131 0)
(28.0236 -0.0627462 0)
(28.004 -0.0630803 0)
(27.9845 -0.0634189 0)
(27.965 -0.0637872 0)
(27.946 -0.0642082 0)
(27.9268 -0.0647052 0)
(27.9082 -0.0653208 0)
(27.8894 -0.0660576 0)
(27.8714 -0.0670738 0)
(27.8527 -0.0682213 0)
(27.8356 -0.0700386 0)
(27.8153 -0.0719068 0)
(27.8015 -0.0749381 0)
(27.773 -0.0779609 0)
(38.9725 5.02697 0)
(39.0918 7.58152 0)
(38.9922 7.19 0)
(38.4635 5.77858 0)
(37.8222 3.85627 0)
(37.4296 1.7415 0)
(37.3606 -0.275228 0)
(37.9414 -2.31718 0)
(38.9591 -4.36757 0)
(40.0146 -6.56678 0)
(39.9505 -8.0898 0)
(38.6265 -8.63315 0)
(36.5834 -8.04657 0)
(34.4377 -6.70742 0)
(32.5453 -5.08703 0)
(31.213 -3.65215 0)
(30.357 -2.52797 0)
(29.8096 -1.70699 0)
(29.4758 -1.13709 0)
(29.2662 -0.748821 0)
(29.14 -0.498185 0)
(29.056 -0.326932 0)
(28.9939 -0.217509 0)
(28.9602 -0.146731 0)
(28.938 -0.0998591 0)
(28.9241 -0.0704429 0)
(28.9141 -0.051749 0)
(28.9077 -0.0413716 0)
(28.9032 -0.0353705 0)
(28.899 -0.0333989 0)
(28.896 -0.0320064 0)
(28.8926 -0.0321314 0)
(28.8888 -0.0310613 0)
(28.885 -0.0319203 0)
(28.8809 -0.0341428 0)
(28.8759 -0.0342904 0)
(28.8699 -0.0341227 0)
(28.8639 -0.0340027 0)
(28.8578 -0.0335952 0)
(28.8513 -0.0332678 0)
(28.8446 -0.0332435 0)
(28.838 -0.0333586 0)
(28.8313 -0.0336942 0)
(28.8244 -0.0342776 0)
(28.8171 -0.0350769 0)
(28.8095 -0.036062 0)
(28.8015 -0.037226 0)
(28.7929 -0.0385817 0)
(28.7837 -0.0401439 0)
(28.7739 -0.0419177 0)
(28.7635 -0.0438879 0)
(28.7525 -0.0460076 0)
(28.741 -0.0482001 0)
(28.729 -0.0503685 0)
(28.7167 -0.0524102 0)
(28.704 -0.0542287 0)
(28.6908 -0.0557446 0)
(28.6773 -0.0569104 0)
(28.6634 -0.0577259 0)
(28.6492 -0.0582304 0)
(28.6346 -0.0584874 0)
(28.6197 -0.058576 0)
(28.6045 -0.0585865 0)
(28.5889 -0.0586054 0)
(28.573 -0.0586967 0)
(28.5567 -0.0588973 0)
(28.54 -0.0592157 0)
(28.523 -0.059638 0)
(28.5057 -0.0601369 0)
(28.488 -0.0606776 0)
(28.4701 -0.0612232 0)
(28.452 -0.0617376 0)
(28.4336 -0.0621896 0)
(28.415 -0.0625609 0)
(28.3961 -0.0628497 0)
(28.377 -0.0630646 0)
(28.3577 -0.063222 0)
(28.338 -0.063343 0)
(28.318 -0.0634489 0)
(28.2977 -0.0635548 0)
(28.2771 -0.0636708 0)
(28.2562 -0.0638076 0)
(28.2351 -0.0639736 0)
(28.2139 -0.0641712 0)
(28.1926 -0.0643958 0)
(28.1715 -0.0646427 0)
(28.1505 -0.0649052 0)
(28.1297 -0.0651895 0)
(28.1091 -0.0654899 0)
(28.0888 -0.0658224 0)
(28.0687 -0.0661995 0)
(28.0488 -0.0666412 0)
(28.0291 -0.06718 0)
(28.0094 -0.0678358 0)
(27.99 -0.0687306 0)
(27.9698 -0.0697862 0)
(27.9512 -0.0713484 0)
(27.9283 -0.0731597 0)
(27.9132 -0.0755967 0)
(27.8799 -0.0789787 0)
(40.0637 4.62336 0)
(42.9192 7.29998 0)
(46.0553 7.32512 0)
(47.5784 6.0795 0)
(48.3041 4.15341 0)
(48.6128 2.00344 0)
(48.7606 -0.105773 0)
(48.7901 -2.22617 0)
(48.4426 -4.32788 0)
(47.389 -6.22654 0)
(45.2129 -7.62678 0)
(42.1086 -7.93096 0)
(38.7528 -7.24755 0)
(35.7143 -5.96153 0)
(33.4103 -4.55091 0)
(31.8146 -3.28222 0)
(30.7781 -2.28311 0)
(30.112 -1.55086 0)
(29.685 -1.03662 0)
(29.4192 -0.687904 0)
(29.2498 -0.454181 0)
(29.1511 -0.305976 0)
(29.07 -0.198785 0)
(29.0233 -0.13364 0)
(28.9949 -0.0943003 0)
(28.9743 -0.065286 0)
(28.9594 -0.0472163 0)
(28.9563 -0.0395334 0)
(28.9382 -0.031709 0)
(28.9312 -0.0286809 0)
(28.9266 -0.0285752 0)
(28.921 -0.0274849 0)
(28.9136 -0.0254731 0)
(28.9119 -0.0255448 0)
(28.8946 -0.0258622 0)
(28.8873 -0.0252528 0)
(28.8788 -0.0246714 0)
(28.8714 -0.0236827 0)
(28.864 -0.0221051 0)
(28.8561 -0.0209907 0)
(28.8485 -0.0204064 0)
(28.8416 -0.0199526 0)
(28.8349 -0.0196897 0)
(28.8283 -0.0196733 0)
(28.8218 -0.0198978 0)
(28.8152 -0.0203491 0)
(28.8084 -0.0210299 0)
(28.8012 -0.0219588 0)
(28.7934 -0.0231452 0)
(28.7848 -0.024576 0)
(28.7752 -0.0262178 0)
(28.7647 -0.0280167 0)
(28.7531 -0.0299018 0)
(28.7406 -0.0317896 0)
(28.7272 -0.0335889 0)
(28.713 -0.0352089 0)
(28.6981 -0.0365692 0)
(28.6828 -0.0376158 0)
(28.667 -0.038331 0)
(28.6509 -0.0387384 0)
(28.6346 -0.0388944 0)
(28.618 -0.0388791 0)
(28.6012 -0.0387895 0)
(28.5841 -0.0387171 0)
(28.5668 -0.0387288 0)
(28.5492 -0.0388682 0)
(28.5312 -0.0391521 0)
(28.513 -0.039569 0)
(28.4945 -0.040087 0)
(28.4757 -0.0406631 0)
(28.4567 -0.0412509 0)
(28.4373 -0.0418098 0)
(28.4177 -0.0423054 0)
(28.3979 -0.042713 0)
(28.3779 -0.0430243 0)
(28.3576 -0.043245 0)
(28.3372 -0.0433918 0)
(28.3166 -0.0434902 0)
(28.2958 -0.0435706 0)
(28.275 -0.0436629 0)
(28.2541 -0.0437912 0)
(28.2333 -0.0439713 0)
(28.2126 -0.0442125 0)
(28.1922 -0.0445198 0)
(28.1719 -0.0448898 0)
(28.1519 -0.0453102 0)
(28.1321 -0.0457641 0)
(28.1125 -0.0462465 0)
(28.0932 -0.0467481 0)
(28.074 -0.047281 0)
(28.0549 -0.0478533 0)
(28.0358 -0.0484854 0)
(28.0168 -0.0491992 0)
(27.9976 -0.0500156 0)
(27.9785 -0.0510291 0)
(27.9584 -0.0522091 0)
(27.9396 -0.0537573 0)
(27.9161 -0.0556907 0)
(27.9005 -0.0578484 0)
(27.8658 -0.0617263 0)
(40.7358 3.76687 0)
(43.7552 6.05806 0)
(47.8104 6.42103 0)
(51.0957 5.39736 0)
(53.0016 3.78029 0)
(54.0921 1.79899 0)
(54.4454 -0.186821 0)
(54.0412 -2.16973 0)
(52.744 -4.0291 0)
(50.4847 -5.64543 0)
(47.2331 -6.69765 0)
(43.4009 -6.87208 0)
(39.5422 -6.25527 0)
(36.3067 -5.1756 0)
(33.8588 -3.97188 0)
(32.1588 -2.88733 0)
(31.0244 -2.02289 0)
(30.2898 -1.38485 0)
(29.8129 -0.931694 0)
(29.5062 -0.620291 0)
(29.3135 -0.417161 0)
(29.1832 -0.274723 0)
(29.0971 -0.182062 0)
(29.0435 -0.125934 0)
(29.0058 -0.0872837 0)
(28.9788 -0.0620013 0)
(28.9631 -0.0492741 0)
(28.9497 -0.039894 0)
(28.9358 -0.0346234 0)
(28.9313 -0.0319167 0)
(28.9163 -0.0338729 0)
(28.9031 -0.0345006 0)
(28.8958 -0.0342407 0)
(28.8863 -0.0346527 0)
(28.879 -0.0352001 0)
(28.8714 -0.0357315 0)
(28.8625 -0.0367303 0)
(28.8548 -0.0371799 0)
(28.8471 -0.0363579 0)
(28.8386 -0.0358542 0)
(28.8307 -0.0359969 0)
(28.824 -0.0363266 0)
(28.818 -0.0368041 0)
(28.8125 -0.0374277 0)
(28.8074 -0.0381781 0)
(28.8025 -0.039032 0)
(28.7974 -0.0399643 0)
(28.7921 -0.040976 0)
(28.786 -0.0420878 0)
(28.7789 -0.0433234 0)
(28.7705 -0.0446957 0)
(28.7607 -0.0461925 0)
(28.7494 -0.0477724 0)
(28.7365 -0.0493684 0)
(28.7221 -0.050898 0)
(28.7064 -0.0522764 0)
(28.6896 -0.0534277 0)
(28.6717 -0.0543003 0)
(28.6531 -0.0548808 0)
(28.6338 -0.0551944 0)
(28.6142 -0.0552879 0)
(28.5942 -0.0552186 0)
(28.574 -0.0550642 0)
(28.5536 -0.0549118 0)
(28.5332 -0.0548268 0)
(28.5127 -0.0548446 0)
(28.4921 -0.0549751 0)
(28.4715 -0.0552076 0)
(28.4509 -0.0555171 0)
(28.4303 -0.0558713 0)
(28.4096 -0.0562342 0)
(28.3889 -0.0565729 0)
(28.3682 -0.0568607 0)
(28.3475 -0.0570816 0)
(28.3269 -0.0572326 0)
(28.3065 -0.0573222 0)
(28.2862 -0.0573663 0)
(28.2661 -0.0573872 0)
(28.2463 -0.0574123 0)
(28.2267 -0.0574712 0)
(28.2074 -0.0575854 0)
(28.1883 -0.0577606 0)
(28.1694 -0.0579937 0)
(28.1507 -0.0582805 0)
(28.1322 -0.0586116 0)
(28.1138 -0.0589727 0)
(28.0954 -0.059349 0)
(28.077 -0.0597339 0)
(28.0587 -0.0601193 0)
(28.0402 -0.060509 0)
(28.0216 -0.0609098 0)
(28.0028 -0.0613387 0)
(27.9837 -0.0618209 0)
(27.9642 -0.0623756 0)
(27.9445 -0.0630811 0)
(27.9235 -0.0639286 0)
(27.9038 -0.065059 0)
(27.8789 -0.0665836 0)
(27.8627 -0.0682287 0)
(27.8255 -0.0716971 0)
(41.2652 3.09749 0)
(44.0773 4.84232 0)
(48.0287 5.22273 0)
(51.8327 4.49517 0)
(54.2909 3.16969 0)
(55.7583 1.44522 0)
(56.1573 -0.208595 0)
(55.5726 -1.88932 0)
(53.9313 -3.43901 0)
(51.2684 -4.75146 0)
(47.7305 -5.59775 0)
(43.7819 -5.7552 0)
(39.8672 -5.25653 0)
(36.5968 -4.36084 0)
(34.1368 -3.37147 0)
(32.3867 -2.46981 0)
(31.1936 -1.74393 0)
(30.3979 -1.19833 0)
(29.8739 -0.810367 0)
(29.5414 -0.545489 0)
(29.3127 -0.360101 0)
(29.1617 -0.239917 0)
(29.0633 -0.156027 0)
(29.0024 -0.105097 0)
(28.9611 -0.0721083 0)
(28.9295 -0.0464542 0)
(28.9113 -0.0334141 0)
(28.8976 -0.0244258 0)
(28.8819 -0.0170611 0)
(28.875 -0.013621 0)
(28.8665 -0.0116214 0)
(28.8472 -0.0111217 0)
(28.841 -0.0109884 0)
(28.8342 -0.0111286 0)
(28.8262 -0.010679 0)
(28.8188 -0.0105163 0)
(28.8153 -0.0101301 0)
(28.7962 -0.00888517 0)
(28.7893 -0.00817824 0)
(28.7819 -0.00774099 0)
(28.7749 -0.00758447 0)
(28.7682 -0.00761161 0)
(28.7614 -0.00782728 0)
(28.7543 -0.00819884 0)
(28.7469 -0.00869822 0)
(28.7392 -0.00929914 0)
(28.7312 -0.00997884 0)
(28.7228 -0.0107213 0)
(28.7137 -0.0115246 0)
(28.704 -0.0123984 0)
(28.6933 -0.0133521 0)
(28.6816 -0.0143832 0)
(28.6686 -0.0154705 0)
(28.6543 -0.0165728 0)
(28.6387 -0.0176344 0)
(28.6219 -0.0185919 0)
(28.6039 -0.0193847 0)
(28.5851 -0.0199696 0)
(28.5655 -0.0203319 0)
(28.5454 -0.0204866 0)
(28.525 -0.0204712 0)
(28.5044 -0.0203446 0)
(28.4838 -0.0201859 0)
(28.4635 -0.0200771 0)
(28.4434 -0.0200813 0)
(28.4236 -0.0202296 0)
(28.4041 -0.020526 0)
(28.3849 -0.0209542 0)
(28.3658 -0.0214825 0)
(28.347 -0.0220713 0)
(28.3283 -0.0226783 0)
(28.3097 -0.0232637 0)
(28.2913 -0.0237978 0)
(28.273 -0.0242635 0)
(28.2548 -0.0246558 0)
(28.2368 -0.0249804 0)
(28.219 -0.0252514 0)
(28.2013 -0.0254889 0)
(28.1838 -0.0257186 0)
(28.1663 -0.0259668 0)
(28.1489 -0.0262527 0)
(28.1315 -0.0265848 0)
(28.1142 -0.0269643 0)
(28.0967 -0.027389 0)
(28.0792 -0.0278518 0)
(28.0615 -0.0283398 0)
(28.0436 -0.0288385 0)
(28.0255 -0.0293388 0)
(28.0071 -0.0298322 0)
(27.9883 -0.030319 0)
(27.9692 -0.0308081 0)
(27.9498 -0.031315 0)
(27.93 -0.0318682 0)
(27.9096 -0.0324842 0)
(27.8892 -0.0332388 0)
(27.8673 -0.0341327 0)
(27.8469 -0.0352572 0)
(27.8213 -0.036813 0)
(27.8044 -0.0383843 0)
(27.7669 -0.0420766 0)
(41.6958 2.50074 0)
(44.2917 3.87805 0)
(47.8861 4.18285 0)
(51.6522 3.59509 0)
(54.293 2.5647 0)
(55.853 1.17814 0)
(56.25 -0.149295 0)
(55.6319 -1.53859 0)
(53.9172 -2.80599 0)
(51.1946 -3.85973 0)
(47.6732 -4.5331 0)
(43.8084 -4.66149 0)
(39.9697 -4.26152 0)
(36.7964 -3.55542 0)
(34.3518 -2.76685 0)
(32.5651 -2.04037 0)
(31.3223 -1.44678 0)
(30.4849 -1.00036 0)
(29.9263 -0.680375 0)
(29.5611 -0.459292 0)
(29.3234 -0.309903 0)
(29.1613 -0.207504 0)
(29.0622 -0.144306 0)
(28.9958 -0.103433 0)
(28.9452 -0.0755763 0)
(28.9232 -0.0607251 0)
(28.9016 -0.0505128 0)
(28.8736 -0.0443113 0)
(28.8657 -0.0424786 0)
(28.8565 -0.041077 0)
(28.8483 -0.0399704 0)
(28.842 -0.0409327 0)
(28.8349 -0.0422101 0)
(28.8271 -0.043895 0)
(28.8204 -0.0441142 0)
(28.813 -0.0440818 0)
(28.8047 -0.0433907 0)
(28.7968 -0.0423381 0)
(28.7883 -0.0423971 0)
(28.7789 -0.0424045 0)
(28.7695 -0.0423845 0)
(28.7604 -0.0424568 0)
(28.751 -0.0426727 0)
(28.7415 -0.0429895 0)
(28.7318 -0.043401 0)
(28.722 -0.0438893 0)
(28.7118 -0.0444255 0)
(28.7013 -0.0449914 0)
(28.6903 -0.0455853 0)
(28.6787 -0.0462157 0)
(28.6663 -0.0468925 0)
(28.653 -0.0476175 0)
(28.6388 -0.0483778 0)
(28.6235 -0.0491438 0)
(28.6073 -0.049872 0)
(28.5902 -0.0505128 0)
(28.5724 -0.0510212 0)
(28.5539 -0.0513693 0)
(28.5349 -0.0515495 0)
(28.5157 -0.0515705 0)
(28.4963 -0.0514701 0)
(28.477 -0.0513177 0)
(28.4578 -0.0511805 0)
(28.4389 -0.0511087 0)
(28.4203 -0.0511367 0)
(28.4019 -0.0512773 0)
(28.3838 -0.0515234 0)
(28.3659 -0.0518535 0)
(28.348 -0.0522404 0)
(28.3302 -0.0526558 0)
(28.3124 -0.0530707 0)
(28.2946 -0.0534581 0)
(28.2769 -0.0537969 0)
(28.2591 -0.0540755 0)
(28.2412 -0.0542917 0)
(28.2234 -0.0544522 0)
(28.2055 -0.0545694 0)
(28.1876 -0.0546589 0)
(28.1696 -0.0547413 0)
(28.1515 -0.0548382 0)
(28.1334 -0.0549657 0)
(28.1151 -0.0551302 0)
(28.0966 -0.0553289 0)
(28.0779 -0.0555538 0)
(28.059 -0.0557941 0)
(28.0398 -0.056037 0)
(28.0202 -0.0562711 0)
(28.0004 -0.0564908 0)
(27.9803 -0.0566935 0)
(27.9598 -0.0568829 0)
(27.939 -0.05707 0)
(27.918 -0.0572679 0)
(27.8966 -0.0575058 0)
(27.8747 -0.0577912 0)
(27.8529 -0.0581951 0)
(27.8296 -0.0587025 0)
(27.8081 -0.0594327 0)
(27.7809 -0.0604817 0)
(27.7634 -0.0616934 0)
(27.7234 -0.0646001 0)
(42.0038 1.93353 0)
(44.4975 2.95843 0)
(47.8099 3.21805 0)
(51.3055 2.75714 0)
(53.9208 1.96105 0)
(55.4875 0.878398 0)
(55.8715 -0.137272 0)
(55.2654 -1.21487 0)
(53.5584 -2.18082 0)
(50.8997 -2.978 0)
(47.4946 -3.49054 0)
(43.7753 -3.59396 0)
(40.0578 -3.29923 0)
(36.9524 -2.77031 0)
(34.5129 -2.16827 0)
(32.6907 -1.6036 0)
(31.42 -1.13994 0)
(30.5446 -0.786024 0)
(29.9616 -0.531679 0)
(29.5723 -0.3517 0)
(29.3168 -0.228377 0)
(29.1517 -0.145798 0)
(29.0404 -0.0883162 0)
(28.969 -0.0530924 0)
(28.9258 -0.0317181 0)
(28.8957 -0.0127093 0)
(28.8742 -0.00145429 0)
(28.8614 0.00399826 0)
(28.851 0.00664701 0)
(28.8415 0.00834511 0)
(28.8347 0.00952146 0)
(28.826 0.00867147 0)
(28.8183 0.00823463 0)
(28.8141 0.00799038 0)
(28.7911 0.00791411 0)
(28.7866 0.0072301 0)
(28.7706 0.00850614 0)
(28.7539 0.00907551 0)
(28.7446 0.00860471 0)
(28.7333 0.00860935 0)
(28.7218 0.00872656 0)
(28.7103 0.00856443 0)
(28.6985 0.00819167 0)
(28.6864 0.00769923 0)
(28.674 0.00710693 0)
(28.6613 0.00644922 0)
(28.6483 0.00577129 0)
(28.635 0.0051043 0)
(28.6214 0.0044605 0)
(28.6073 0.00383706 0)
(28.5928 0.00322195 0)
(28.5778 0.00260319 0)
(28.5622 0.00197716 0)
(28.5461 0.00135322 0)
(28.5295 0.000754056 0)
(28.5123 0.000210986 0)
(28.4947 -0.000243295 0)
(28.4767 -0.000583115 0)
(28.4585 -0.000791331 0)
(28.4402 -0.000874407 0)
(28.4218 -0.000880748 0)
(28.4036 -0.000868409 0)
(28.3857 -0.000884035 0)
(28.368 -0.00097696 0)
(28.3505 -0.00118504 0)
(28.3331 -0.00151809 0)
(28.3158 -0.00196459 0)
(28.2986 -0.00250254 0)
(28.2813 -0.0031045 0)
(28.2639 -0.00373991 0)
(28.2464 -0.00437573 0)
(28.2288 -0.00497914 0)
(28.211 -0.00552374 0)
(28.193 -0.00599423 0)
(28.175 -0.00638712 0)
(28.1568 -0.0067087 0)
(28.1385 -0.00697098 0)
(28.1202 -0.0071904 0)
(28.1017 -0.00738961 0)
(28.0831 -0.00759216 0)
(28.0644 -0.00781426 0)
(28.0455 -0.00806306 0)
(28.0264 -0.00833882 0)
(28.007 -0.00863836 0)
(27.9874 -0.00895611 0)
(27.9674 -0.00928375 0)
(27.9472 -0.00961263 0)
(27.9266 -0.00993742 0)
(27.9058 -0.0102554 0)
(27.8847 -0.0105685 0)
(27.8634 -0.0108861 0)
(27.8417 -0.0112175 0)
(27.8199 -0.0115932 0)
(27.7977 -0.0120102 0)
(27.7754 -0.0125377 0)
(27.7518 -0.0131505 0)
(27.7301 -0.01399 0)
(27.7027 -0.0150753 0)
(27.6849 -0.0164061 0)
(27.645 -0.0193135 0)
(42.2969 1.36365 0)
(44.6901 2.0699 0)
(47.8404 2.27108 0)
(51.1971 1.94408 0)
(53.7087 1.39457 0)
(55.2678 0.613267 0)
(55.5859 -0.0916736 0)
(54.9949 -0.862731 0)
(53.3508 -1.54889 0)
(50.7531 -2.11599 0)
(47.4157 -2.48498 0)
(43.7862 -2.56753 0)
(40.1345 -2.36947 0)
(37.0572 -2.00742 0)
(34.583 -1.583 0)
(32.7525 -1.19098 0)
(31.4501 -0.865317 0)
(30.5339 -0.612203 0)
(29.9309 -0.435937 0)
(29.5286 -0.309786 0)
(29.2479 -0.220873 0)
(29.0665 -0.161285 0)
(28.9513 -0.122728 0)
(28.8581 -0.0977643 0)
(28.8113 -0.0833626 0)
(28.7803 -0.0708778 0)
(28.756 -0.0632722 0)
(28.7399 -0.0589621 0)
(28.729 -0.0568707 0)
(28.7182 -0.0550628 0)
(28.7083 -0.0532947 0)
(28.7005 -0.0536601 0)
(28.6896 -0.0536989 0)
(28.6825 -0.053245 0)
(28.6735 -0.0502463 0)
(28.6517 -0.0503476 0)
(28.6429 -0.0489771 0)
(28.6331 -0.0481049 0)
(28.6227 -0.048082 0)
(28.612 -0.0476562 0)
(28.6012 -0.0470611 0)
(28.5905 -0.0467352 0)
(28.5796 -0.0465744 0)
(28.5684 -0.0465226 0)
(28.5569 -0.0465851 0)
(28.5449 -0.0467379 0)
(28.5326 -0.0469407 0)
(28.5198 -0.0471662 0)
(28.5066 -0.0474058 0)
(28.4929 -0.047665 0)
(28.4788 -0.0479559 0)
(28.4643 -0.048287 0)
(28.4495 -0.0486551 0)
(28.4344 -0.0490414 0)
(28.4189 -0.0494145 0)
(28.4032 -0.049737 0)
(28.3871 -0.0499785 0)
(28.3707 -0.050123 0)
(28.354 -0.050159 0)
(28.337 -0.0500938 0)
(28.3199 -0.0499809 0)
(28.3027 -0.0498807 0)
(28.2855 -0.0498319 0)
(28.2685 -0.0498564 0)
(28.2515 -0.0499592 0)
(28.2345 -0.0501371 0)
(28.2175 -0.050384 0)
(28.2004 -0.0506877 0)
(28.1832 -0.0510273 0)
(28.1658 -0.051377 0)
(28.1482 -0.0517123 0)
(28.1303 -0.0520125 0)
(28.1122 -0.0522634 0)
(28.0937 -0.052459 0)
(28.075 -0.0526007 0)
(28.0561 -0.0526952 0)
(28.0369 -0.052752 0)
(28.0175 -0.052782 0)
(27.9978 -0.0528012 0)
(27.9779 -0.0528255 0)
(27.9578 -0.0528637 0)
(27.9373 -0.0529178 0)
(27.9165 -0.0529852 0)
(27.8953 -0.0530612 0)
(27.8737 -0.0531402 0)
(27.8517 -0.0532157 0)
(27.8294 -0.0532825 0)
(27.8067 -0.0533386 0)
(27.7836 -0.0533848 0)
(27.7602 -0.0534245 0)
(27.7366 -0.0534661 0)
(27.7127 -0.053516 0)
(27.6886 -0.0535988 0)
(27.6641 -0.0537022 0)
(27.6397 -0.0538984 0)
(27.6138 -0.0541182 0)
(27.5901 -0.0545925 0)
(27.5601 -0.0550749 0)
(27.5411 -0.0561562 0)
(27.4966 -0.0577581 0)
(42.4365 0.816357 0)
(44.7853 1.23155 0)
(47.836 1.36064 0)
(51.1469 1.16018 0)
(53.5659 0.841827 0)
(55.1692 0.357617 0)
(55.4156 -0.049058 0)
(54.8063 -0.515994 0)
(53.1705 -0.923306 0)
(50.5797 -1.24777 0)
(47.2806 -1.44936 0)
(43.6736 -1.47929 0)
(40.0657 -1.34603 0)
(36.9406 -1.11801 0)
(34.4666 -0.862666 0)
(32.5957 -0.625372 0)
(31.2268 -0.427267 0)
(30.3148 -0.282371 0)
(29.6676 -0.175541 0)
(29.2193 -0.0980829 0)
(28.9444 -0.0487421 0)
(28.749 -0.0147937 0)
(28.629 0.00777077 0)
(28.5567 0.017736 0)
(28.4903 0.0257059 0)
(28.4591 0.0302818 0)
(28.4301 0.0329257 0)
(28.4128 0.0329879 0)
(28.4006 0.032615 0)
(28.3855 0.0320497 0)
(28.3767 0.0313405 0)
(28.3674 0.0304146 0)
(28.3408 0.0292978 0)
(28.329 0.0281708 0)
(28.3191 0.0287755 0)
(28.309 0.0279823 0)
(28.299 0.0271639 0)
(28.2889 0.0266257 0)
(28.2793 0.0260216 0)
(28.2697 0.0257171 0)
(28.2601 0.0255286 0)
(28.2507 0.0251989 0)
(28.2412 0.0247711 0)
(28.2314 0.0242988 0)
(28.221 0.023782 0)
(28.2102 0.0232392 0)
(28.1988 0.022703 0)
(28.1868 0.0221937 0)
(28.1742 0.0217137 0)
(28.1611 0.0212516 0)
(28.1473 0.0207904 0)
(28.1326 0.0203187 0)
(28.1171 0.0198381 0)
(28.1006 0.0193653 0)
(28.0831 0.0189281 0)
(28.0647 0.0185574 0)
(28.0456 0.0182772 0)
(28.0261 0.0180954 0)
(28.0062 0.0180091 0)
(27.9864 0.017999 0)
(27.9667 0.0180172 0)
(27.9472 0.0180092 0)
(27.9279 0.0179366 0)
(27.9087 0.0177798 0)
(27.8896 0.0175331 0)
(27.8703 0.0171968 0)
(27.8509 0.0167804 0)
(27.8311 0.0163055 0)
(27.8109 0.0158009 0)
(27.7902 0.0152956 0)
(27.769 0.0148149 0)
(27.7472 0.0143795 0)
(27.725 0.0140041 0)
(27.7024 0.0136954 0)
(27.6793 0.0134529 0)
(27.656 0.0132702 0)
(27.6324 0.0131403 0)
(27.6087 0.013055 0)
(27.5847 0.0129974 0)
(27.5605 0.0129482 0)
(27.5361 0.0128966 0)
(27.5115 0.0128379 0)
(27.4866 0.0127708 0)
(27.4615 0.0126942 0)
(27.4361 0.0126069 0)
(27.4105 0.012509 0)
(27.3846 0.0124016 0)
(27.3584 0.0122846 0)
(27.3321 0.0121568 0)
(27.3055 0.0120158 0)
(27.2787 0.0118557 0)
(27.2518 0.0116731 0)
(27.2246 0.0114486 0)
(27.197 0.0112048 0)
(27.1696 0.0108534 0)
(27.1406 0.0105265 0)
(27.1139 0.00988159 0)
(27.0804 0.00946047 0)
(27.0587 0.00807924 0)
(27.009 0.00705718 0)
(42.31 0.265316 0)
(44.633 0.400297 0)
(47.5871 0.444084 0)
(50.9115 0.373724 0)
(53.2026 0.275845 0)
(54.9497 0.100826 0)
(55.0851 -0.0260573 0)
(54.4606 -0.184058 0)
(52.8131 -0.329941 0)
(50.2124 -0.459753 0)
(46.9073 -0.560402 0)
(43.2868 -0.608512 0)
(39.6519 -0.595475 0)
(36.5152 -0.538325 0)
(33.9899 -0.457996 0)
(32.0655 -0.372618 0)
(30.6756 -0.297594 0)
(29.6927 -0.236273 0)
(29.0055 -0.18754 0)
(28.5469 -0.152195 0)
(28.2317 -0.127359 0)
(28.006 -0.108786 0)
(27.8654 -0.0964335 0)
(27.7557 -0.08762 0)
(27.667 -0.0803624 0)
(27.6083 -0.0746738 0)
(27.5545 -0.0703688 0)
(27.5078 -0.0676594 0)
(27.4651 -0.0651457 0)
(27.4252 -0.0630209 0)
(27.3848 -0.0615111 0)
(27.3467 -0.0593008 0)
(27.3103 -0.0574601 0)
(27.2739 -0.0560424 0)
(27.2373 -0.0556016 0)
(27.2013 -0.0550494 0)
(27.1654 -0.0544273 0)
(27.1291 -0.053527 0)
(27.0936 -0.0527881 0)
(27.0581 -0.0520957 0)
(27.023 -0.0514336 0)
(26.9886 -0.0508887 0)
(26.9543 -0.0504419 0)
(26.9198 -0.0500698 0)
(26.885 -0.0497767 0)
(26.8496 -0.0495574 0)
(26.8137 -0.04939 0)
(26.777 -0.0492483 0)
(26.7397 -0.0491092 0)
(26.7018 -0.0489581 0)
(26.6634 -0.0487907 0)
(26.6244 -0.0486121 0)
(26.5849 -0.0484331 0)
(26.5449 -0.0482661 0)
(26.5044 -0.0481202 0)
(26.4634 -0.0479995 0)
(26.422 -0.0479015 0)
(26.3804 -0.0478195 0)
(26.3387 -0.0477508 0)
(26.297 -0.0477021 0)
(26.2554 -0.047681 0)
(26.2138 -0.047687 0)
(26.1721 -0.0477191 0)
(26.1302 -0.0477803 0)
(26.0878 -0.0478723 0)
(26.0447 -0.0479882 0)
(26.0008 -0.0481147 0)
(25.9559 -0.0482388 0)
(25.91 -0.0483504 0)
(25.863 -0.0484423 0)
(25.8151 -0.0485095 0)
(25.7662 -0.0485493 0)
(25.7167 -0.0485607 0)
(25.6666 -0.0485456 0)
(25.616 -0.0485077 0)
(25.5652 -0.0484516 0)
(25.5143 -0.0483799 0)
(25.4632 -0.0482947 0)
(25.4123 -0.0482039 0)
(25.3614 -0.0481165 0)
(25.3106 -0.0480359 0)
(25.2598 -0.0479615 0)
(25.2091 -0.0478915 0)
(25.1583 -0.0478242 0)
(25.1076 -0.0477589 0)
(25.0568 -0.0476939 0)
(25.0059 -0.0476279 0)
(24.9549 -0.0475603 0)
(24.9039 -0.0474917 0)
(24.8528 -0.0474238 0)
(24.8015 -0.0473597 0)
(24.7501 -0.0473003 0)
(24.6984 -0.0472573 0)
(24.6462 -0.0472115 0)
(24.5944 -0.047227 0)
(24.5398 -0.047189 0)
(24.4894 -0.0473679 0)
(24.4269 -0.0472819 0)
(24.3859 -0.0479127 0)
(24.2927 -0.0479941 0)
(5.39675 5.34084 0)
(6.09427 7.0967 0)
(2.2119 8.61392 0)
(-0.0956156 8.55669 0)
(-2.6607 7.71442 0)
(-4.5689 5.85821 0)
(-5.80271 3.61057 0)
(-5.96468 2.40053 0)
(13.8198 7.62122 0)
(10.1976 8.40627 0)
(2.86937 8.81492 0)
(-3.09713 8.54801 0)
(-9.36488 7.63507 0)
(-14.7652 5.96269 0)
(-18.8452 3.68798 0)
(-20.4471 2.10233 0)
(18.2235 7.47485 0)
(11.3995 7.55311 0)
(2.67524 7.24358 0)
(-5.55313 6.71605 0)
(-13.8983 5.86179 0)
(-21.716 4.63258 0)
(-28.3647 2.90133 0)
(-31.8173 1.34406 0)
(18.7351 5.95311 0)
(9.93592 5.44792 0)
(0.56333 4.92324 0)
(-8.44972 4.3178 0)
(-17.4448 3.62467 0)
(-26.1906 2.81334 0)
(-34.2603 1.80466 0)
(-39.4262 0.714464 0)
(17.6827 3.81758 0)
(7.52809 3.23661 0)
(-1.68192 2.8904 0)
(-10.9943 2.45899 0)
(-20.2925 2.02452 0)
(-29.2467 1.52479 0)
(-37.6992 0.995298 0)
(-43.921 0.348853 0)
(16.5558 1.71611 0)
(6.07828 1.41418 0)
(-3.14573 1.25862 0)
(-12.3725 1.09393 0)
(-21.9047 0.92036 0)
(-31.0003 0.683637 0)
(-39.5171 0.463937 0)
(-46.2802 0.138899 0)
(16.3293 -0.0595855 0)
(5.63877 -0.164529 0)
(-3.74144 0.0215382 0)
(-12.7845 -0.0316178 0)
(-22.3385 0.0031426 0)
(-31.5109 -0.00922745 0)
(-40.0498 0.02202 0)
(-47.0629 -0.0192104 0)
(16.7688 -1.85812 0)
(7.03919 -1.76177 0)
(-2.50628 -1.50231 0)
(-12.1735 -1.141 0)
(-21.8411 -0.926359 0)
(-31.0863 -0.664447 0)
(-39.7018 -0.387298 0)
(-46.7978 -0.15857 0)
(17.5795 -3.59567 0)
(8.51447 -3.28934 0)
(-0.814526 -2.88172 0)
(-10.2791 -2.49809 0)
(-19.857 -2.0491 0)
(-28.9474 -1.50043 0)
(-37.3982 -0.92176 0)
(-44.4271 -0.344052 0)
(19.4523 -5.51065 0)
(10.4484 -4.94936 0)
(1.16989 -4.35575 0)
(-8.26455 -3.71886 0)
(-17.5895 -2.98212 0)
(-26.3262 -2.16669 0)
(-34.554 -1.32776 0)
(-41.4661 -0.475573 0)
(22.8238 -7.64881 0)
(14.3135 -6.91955 0)
(5.46884 -6.11712 0)
(-3.50265 -5.19824 0)
(-12.2708 -4.14704 0)
(-20.8293 -3.02462 0)
(-28.9808 -1.86855 0)
(-35.8951 -0.646429 0)
(25.0655 -8.53089 0)
(17.8134 -7.96681 0)
(9.87947 -7.15208 0)
(1.54449 -6.14445 0)
(-6.88214 -4.98736 0)
(-15.3038 -3.68283 0)
(-23.0726 -2.27626 0)
(-29.6925 -0.763161 0)
(26.3751 -8.25009 0)
(20.3929 -7.83803 0)
(13.6421 -7.16182 0)
(6.3985 -6.25431 0)
(-1.09496 -5.14526 0)
(-8.58202 -3.82287 0)
(-15.7599 -2.34905 0)
(-22.2454 -0.761286 0)
(27.2664 -7.09611 0)
(22.5267 -6.80012 0)
(16.9169 -6.26026 0)
(10.6844 -5.50118 0)
(4.06482 -4.52577 0)
(-2.72013 -3.37571 0)
(-9.43354 -2.07977 0)
(-15.6356 -0.655422 0)
(27.6997 -5.54478 0)
(24.0811 -5.35646 0)
(19.5228 -4.96733 0)
(14.24 -4.39086 0)
(8.45157 -3.63958 0)
(2.43733 -2.71542 0)
(-3.78718 -1.65652 0)
(-9.7972 -0.501294 0)
(27.8378 -3.99601 0)
(25.0978 -3.90736 0)
(21.3969 -3.64797 0)
(16.8858 -3.23407 0)
(11.7582 -2.68418 0)
(6.23545 -2.01076 0)
(0.529777 -1.23496 0)
(-5.23737 -0.364926 0)
(27.8721 -2.7576 0)
(25.737 -2.71223 0)
(22.6733 -2.54658 0)
(18.7537 -2.2635 0)
(14.1395 -1.87963 0)
(9.03405 -1.40874 0)
(3.65092 -0.86658 0)
(-1.8034 -0.255349 0)
(27.8907 -1.85252 0)
(26.1459 -1.82512 0)
(23.5218 -1.71985 0)
(20.0229 -1.53043 0)
(15.7752 -1.26881 0)
(10.9688 -0.946226 0)
(5.8202 -0.582153 0)
(0.723737 -0.176377 0)
(27.9103 -1.22285 0)
(26.4137 -1.20388 0)
(24.0817 -1.13558 0)
(20.8695 -1.00899 0)
(16.8689 -0.832699 0)
(12.2505 -0.613717 0)
(7.21191 -0.370787 0)
(2.02161 -0.0961318 0)
(27.9302 -0.800794 0)
(26.5914 -0.788479 0)
(24.4497 -0.744241 0)
(21.428 -0.661232 0)
(17.5941 -0.54586 0)
(13.1098 -0.400864 0)
(8.17896 -0.243418 0)
(3.10443 -0.0651568 0)
(27.9467 -0.52731 0)
(26.7082 -0.518537 0)
(24.689 -0.489362 0)
(21.7918 -0.434645 0)
(18.0678 -0.358915 0)
(13.6689 -0.262391 0)
(8.79545 -0.158417 0)
(3.73409 -0.0433679 0)
(27.9598 -0.349006 0)
(26.7858 -0.342504 0)
(24.8459 -0.323112 0)
(22.0299 -0.286276 0)
(18.3766 -0.236496 0)
(14.031 -0.172261 0)
(9.19142 -0.10268 0)
(4.12854 -0.0305125 0)
(27.9701 -0.230134 0)
(26.8385 -0.226244 0)
(24.9505 -0.213315 0)
(22.1873 -0.188648 0)
(18.5796 -0.156241 0)
(14.2694 -0.113774 0)
(9.45358 -0.0663692 0)
(4.38767 -0.0238913 0)
(27.9774 -0.153065 0)
(26.8737 -0.150778 0)
(25.0197 -0.14217 0)
(22.2911 -0.125658 0)
(18.7142 -0.104329 0)
(14.4279 -0.0763896 0)
(9.62828 -0.0428456 0)
(4.55676 -0.0211182 0)
(27.9822 -0.10481 0)
(26.897 -0.103205 0)
(25.0657 -0.0974264 0)
(22.3609 -0.0859084 0)
(18.8049 -0.0716146 0)
(14.5349 -0.0533112 0)
(9.74745 -0.0272101 0)
(4.66809 -0.0192843 0)
(27.9856 -0.0734654 0)
(26.9129 -0.0726862 0)
(25.0975 -0.06875 0)
(22.4087 -0.0608875 0)
(18.8672 -0.0509479 0)
(14.6092 -0.0393257 0)
(9.83145 -0.0167782 0)
(4.74341 -0.0178883 0)
(27.987 -0.0539269 0)
(26.923 -0.0539068 0)
(25.1187 -0.0512495 0)
(22.4417 -0.045842 0)
(18.912 -0.0382042 0)
(14.6637 -0.0313566 0)
(9.89414 -0.0100801 0)