/*--------------------------------*- C++ -*----------------------------------*\
| =========                 |                                                 |
| \\      /  F ield         | OpenFOAM: The Open Source CFD Toolbox           |
|  \\    /   O peration     | Version:  v2012                                 |
|   \\  /    A nd           | Website:  www.openfoam.com                      |
|    \\/     M anipulation  |                                                 |
\*---------------------------------------------------------------------------*/
FoamFile
{
    version     2.0;
    format      ascii;
    class       surfaceScalarField;
    location    "0.012";
    object      phi.air;
}
// * * * * * * * * * * * * * * * * * * * * * * * * * * * * * * * * * * * * * //

dimensions      [0 3 -1 0 0 0 0];
oriented        oriented;


internalField   nonuniform List<scalar> 
10964
(
0.000657094
2.51396e-05
0.000628142
2.81109e-05
0.000599607
2.76909e-05
0.000573836
2.4925e-05
0.000552864
2.01235e-05
0.000538587
1.34279e-05
0.000531049
6.68741e-06
0.000527837
2.36016e-06
0.000526563
4.22296e-07
0.000526115
-4.0396e-07
0.000526016
-7.52955e-07
0.000525997
-8.32242e-07
0.000525994
-8.48894e-07
0.000525996
-8.53828e-07
0.000525997
-8.52606e-07
0.000525997
-8.52035e-07
0.000525998
-8.5191e-07
0.000525998
-8.51811e-07
0.000525998
-8.51751e-07
0.000525998
-8.51757e-07
0.000525998
-8.51744e-07
0.000525998
-8.51744e-07
0.000525998
-8.51744e-07
0.000525998
-8.51744e-07
0.000525998
-8.51742e-07
0.000525998
-8.51742e-07
0.000525998
-8.51744e-07
0.000525998
-8.51744e-07
0.000525998
-8.51744e-07
0.000525998
-8.51743e-07
0.000525998
-8.51743e-07
0.000525998
-8.51744e-07
0.000525998
-8.51744e-07
0.000525998
-8.51743e-07
0.000525998
-8.51743e-07
0.000525998
-8.51743e-07
0.000525998
-8.51744e-07
0.000525998
-8.51744e-07
0.000525998
-8.51745e-07
0.000525998
-8.51744e-07
0.000525998
-8.51742e-07
0.000525998
-8.51742e-07
0.000525998
-8.51742e-07
0.000525998
-8.51743e-07
0.000525998
-8.51745e-07
0.000525998
-8.51746e-07
0.000525998
-8.51744e-07
0.000525998
-8.51742e-07
0.000525998
-8.51742e-07
0.000525998
-8.51743e-07
0.000525998
-8.51743e-07
0.000525998
-8.51743e-07
0.000525998
-8.51744e-07
0.000525998
-8.51745e-07
0.000525998
-8.51746e-07
0.000525998
-8.51744e-07
0.000525998
-8.51743e-07
0.000525998
-8.51743e-07
0.000525998
-8.51743e-07
0.000525998
-8.51743e-07
0.000525998
-8.51743e-07
0.000525998
-8.51742e-07
0.000525998
-8.51742e-07
0.000525998
-8.51742e-07
0.000525998
-8.51742e-07
0.000525998
-8.51742e-07
0.000525998
-8.51743e-07
0.000525998
-8.51743e-07
0.000525998
-8.51744e-07
0.000525998
-8.51745e-07
0.000525998
-8.51746e-07
0.000525998
-8.51746e-07
0.000525998
-8.51745e-07
0.000525998
-8.51744e-07
0.000525998
-8.51744e-07
0.000525998
-8.51744e-07
0.000525998
-8.51742e-07
0.000525998
-8.51742e-07
0.000525998
-8.51742e-07
0.000525998
-8.51742e-07
0.000525998
-8.51742e-07
0.000525998
-8.51743e-07
0.000525998
-8.51742e-07
0.000525998
-8.51749e-07
0.000525998
-8.51726e-07
0.000525998
-8.5183e-07
0.000525998
-8.5148e-07
0.000525999
-8.52821e-07
0.000525996
-8.48752e-07
0.000526006
-8.61911e-07
0.000525982
-8.27927e-07
0.000526051
-9.19954e-07
0.000525932
-7.33439e-07
0.00052624
-1.15914e-06
0.000525971
-5.83072e-07
0.000527008
-1.88861e-06
0.000527753
-1.59601e-06
0.00053201
-5.10843e-06
0.00054031
-9.15196e-06
-5.13477e-05
0.000590812
0.000757049
2.4371e-05
0.000754681
3.04785e-05
0.000750606
3.17658e-05
0.000745219
3.03119e-05
0.00073992
2.54226e-05
0.000736174
1.71738e-05
0.000734339
8.52281e-06
0.00073374
2.95949e-06
0.000733646
5.15737e-07
0.00073372
-4.77802e-07
0.000733822
-8.55327e-07
0.00073389
-8.99974e-07
0.000733922
-8.81045e-07
0.000733935
-8.67006e-07
0.000733941
-8.58301e-07
0.000733943
-8.54425e-07
0.000733944
-8.52646e-07
0.000733944
-8.5205e-07
0.000733945
-8.51834e-07
0.000733945
-8.51795e-07
0.000733945
-8.51764e-07
0.000733945
-8.51756e-07
0.000733945
-8.51754e-07
0.000733945
-8.51753e-07
0.000733945
-8.51752e-07
0.000733945
-8.51751e-07
0.000733945
-8.51753e-07
0.000733945
-8.51754e-07
0.000733945
-8.51753e-07
0.000733945
-8.51752e-07
0.000733945
-8.51752e-07
0.000733945
-8.51754e-07
0.000733945
-8.51755e-07
0.000733945
-8.51753e-07
0.000733945
-8.51752e-07
0.000733945
-8.51752e-07
0.000733945
-8.51753e-07
0.000733945
-8.51754e-07
0.000733945
-8.51754e-07
0.000733945
-8.51754e-07
0.000733945
-8.51751e-07
0.000733945
-8.5175e-07
0.000733945
-8.51749e-07
0.000733945
-8.51751e-07
0.000733945
-8.51756e-07
0.000733945
-8.51758e-07
0.000733945
-8.51755e-07
0.000733945
-8.51752e-07
0.000733945
-8.51751e-07
0.000733945
-8.51752e-07
0.000733945
-8.51752e-07
0.000733945
-8.51752e-07
0.000733945
-8.51754e-07
0.000733945
-8.51757e-07
0.000733945
-8.51758e-07
0.000733945
-8.51755e-07
0.000733945
-8.51753e-07
0.000733945
-8.51752e-07
0.000733945
-8.51752e-07
0.000733945
-8.51751e-07
0.000733945
-8.51751e-07
0.000733945
-8.51752e-07
0.000733945
-8.51752e-07
0.000733945
-8.51751e-07
0.000733945
-8.5175e-07
0.000733945
-8.5175e-07
0.000733945
-8.51751e-07
0.000733945
-8.51753e-07
0.000733945
-8.51754e-07
0.000733945
-8.51757e-07
0.000733945
-8.51758e-07
0.000733945
-8.51758e-07
0.000733945
-8.51756e-07
0.000733945
-8.51755e-07
0.000733945
-8.51756e-07
0.000733945
-8.51754e-07
0.000733945
-8.51751e-07
0.000733945
-8.5175e-07
0.000733945
-8.51751e-07
0.000733945
-8.5175e-07
0.000733945
-8.51749e-07
0.000733945
-8.5175e-07
0.000733945
-8.51753e-07
0.000733945
-8.51755e-07
0.000733945
-8.51755e-07
0.000733945
-8.51781e-07
0.000733945
-8.5176e-07
0.000733945
-8.52072e-07
0.000733948
-8.51566e-07
0.000733941
-8.551e-07
0.000733962
-8.48849e-07
0.000733922
-8.80783e-07
0.000734025
-8.35726e-07
0.000733912
-1.04685e-06
0.00073425
-9.2076e-07
0.000734445
-2.08342e-06
0.000735171
-2.32222e-06
0.000738319
-8.25623e-06
0.000747443
-1.82755e-05
-8.41496e-05
0.000780244
0.000840412
2.12919e-05
0.000842339
2.85518e-05
0.00084407
3.00344e-05
0.000845195
2.91872e-05
0.000846022
2.45955e-05
0.000846741
1.64549e-05
0.000847246
8.01782e-06
0.000847791
2.41472e-06
0.000848311
-4.35868e-09
0.00084866
-8.26845e-07
0.000848876
-1.07159e-06
0.000849001
-1.02469e-06
0.000849057
-9.37303e-07
0.00084908
-8.90161e-07
0.00084909
-8.682e-07
0.000849094
-8.58667e-07
0.000849096
-8.54082e-07
0.000849096
-8.52525e-07
0.000849097
-8.52007e-07
0.000849097
-8.51872e-07
0.000849097
-8.51793e-07
0.000849097
-8.51773e-07
0.000849097
-8.51768e-07
0.000849097
-8.51765e-07
0.000849097
-8.51762e-07
0.000849097
-8.51762e-07
0.000849097
-8.51764e-07
0.000849097
-8.51765e-07
0.000849097
-8.51764e-07
0.000849097
-8.51764e-07
0.000849097
-8.51764e-07
0.000849097
-8.51766e-07
0.000849097
-8.51767e-07
0.000849097
-8.51765e-07
0.000849097
-8.51763e-07
0.000849097
-8.51763e-07
0.000849097
-8.51764e-07
0.000849097
-8.51765e-07
0.000849097
-8.51765e-07
0.000849097
-8.51766e-07
0.000849097
-8.51763e-07
0.000849097
-8.5176e-07
0.000849097
-8.51759e-07
0.000849097
-8.51761e-07
0.000849097
-8.51768e-07
0.000849097
-8.5177e-07
0.000849097
-8.51766e-07
0.000849097
-8.51763e-07
0.000849097
-8.51761e-07
0.000849097
-8.51763e-07
0.000849097
-8.51763e-07
0.000849097
-8.51763e-07
0.000849097
-8.51766e-07
0.000849097
-8.5177e-07
0.000849097
-8.51772e-07
0.000849097
-8.51769e-07
0.000849097
-8.51764e-07
0.000849097
-8.51762e-07
0.000849097
-8.51762e-07
0.000849097
-8.51761e-07
0.000849097
-8.51761e-07
0.000849097
-8.51762e-07
0.000849097
-8.51763e-07
0.000849097
-8.51762e-07
0.000849097
-8.5176e-07
0.000849097
-8.51759e-07
0.000849097
-8.51761e-07
0.000849097
-8.51764e-07
0.000849097
-8.51766e-07
0.000849097
-8.51769e-07
0.000849097
-8.51771e-07
0.000849097
-8.5177e-07
0.000849097
-8.51769e-07
0.000849097
-8.51766e-07
0.000849097
-8.51768e-07
0.000849097
-8.51766e-07
0.000849097
-8.51761e-07
0.000849097
-8.51761e-07
0.000849097
-8.51761e-07
0.000849097
-8.51761e-07
0.000849097
-8.51759e-07
0.000849097
-8.51759e-07
0.000849097
-8.51765e-07
0.000849097
-8.51767e-07
0.000849097
-8.51774e-07
0.000849097
-8.51783e-07
0.000849097
-8.51856e-07
0.000849097
-8.51944e-07
0.000849098
-8.52468e-07
0.000849097
-8.5368e-07
0.000849104
-8.56175e-07
0.000849095
-8.71835e-07
0.000849141
-8.81656e-07
0.000849122
-1.02775e-06
0.000849354
-1.15301e-06
0.000849497
-2.22579e-06
0.000850504
-3.32958e-06
0.000852682
-1.04347e-05
0.00086128
-2.68731e-05
-0.000108356
0.000885487
0.000930294
1.80704e-05
0.000933144
2.57017e-05
0.000936332
2.68467e-05
0.000939291
2.62287e-05
0.000941898
2.19884e-05
0.000943875
1.44781e-05
0.000945124
6.76847e-06
0.000946016
1.5224e-06
0.000946624
-6.1194e-07
0.000947006
-1.20918e-06
0.00094724
-1.30541e-06
0.000947372
-1.15653e-06
0.000947431
-9.96531e-07
0.000947455
-9.14185e-07
0.000947465
-8.78425e-07
0.00094747
-8.63112e-07
0.000947471
-8.55556e-07
0.000947472
-8.53009e-07
0.000947472
-8.52182e-07
0.000947472
-8.51951e-07
0.000947472
-8.51822e-07
0.000947472
-8.51791e-07
0.000947472
-8.51783e-07
0.000947472
-8.51778e-07
0.000947472
-8.51774e-07
0.000947472
-8.51773e-07
0.000947472
-8.51777e-07
0.000947472
-8.51777e-07
0.000947472
-8.51775e-07
0.000947472
-8.51776e-07
0.000947472
-8.51778e-07
0.000947472
-8.51779e-07
0.000947472
-8.5178e-07
0.000947472
-8.51778e-07
0.000947472
-8.51776e-07
0.000947472
-8.51775e-07
0.000947472
-8.51777e-07
0.000947472
-8.51777e-07
0.000947472
-8.51777e-07
0.000947472
-8.51778e-07
0.000947472
-8.51776e-07
0.000947472
-8.51772e-07
0.000947472
-8.5177e-07
0.000947472
-8.51773e-07
0.000947472
-8.51782e-07
0.000947472
-8.51784e-07
0.000947472
-8.51778e-07
0.000947472
-8.51774e-07
0.000947472
-8.51774e-07
0.000947472
-8.51776e-07
0.000947472
-8.51775e-07
0.000947472
-8.51774e-07
0.000947472
-8.51778e-07
0.000947472
-8.51783e-07
0.000947472
-8.51786e-07
0.000947472
-8.51782e-07
0.000947472
-8.51776e-07
0.000947472
-8.51774e-07
0.000947472
-8.51774e-07
0.000947472
-8.51773e-07
0.000947472
-8.51772e-07
0.000947472
-8.51774e-07
0.000947472
-8.51776e-07
0.000947472
-8.51775e-07
0.000947473
-8.51772e-07
0.000947473
-8.51771e-07
0.000947473
-8.51773e-07
0.000947473
-8.51777e-07
0.000947473
-8.51779e-07
0.000947473
-8.51783e-07
0.000947473
-8.51785e-07
0.000947473
-8.51783e-07
0.000947473
-8.51781e-07
0.000947473
-8.51779e-07
0.000947473
-8.51781e-07
0.000947473
-8.5178e-07
0.000947473
-8.51773e-07
0.000947473
-8.51772e-07
0.000947473
-8.51774e-07
0.000947473
-8.51773e-07
0.000947473
-8.51771e-07
0.000947473
-8.51771e-07
0.000947473
-8.51778e-07
0.000947473
-8.51782e-07
0.000947473
-8.5179e-07
0.000947473
-8.518e-07
0.000947473
-8.51896e-07
0.000947473
-8.51995e-07
0.000947473
-8.52758e-07
0.000947473
-8.53914e-07
0.000947476
-8.58741e-07
0.000947477
-8.7336e-07
0.000947498
-9.01688e-07
0.000947516
-1.04628e-06
0.000947655
-1.29186e-06
0.000947854
-2.42501e-06
0.000948901
-4.37681e-06
0.000951091
-1.26245e-05
0.000959098
-3.488e-05
-0.000128385
0.000979127
0.00102963
1.48744e-05
0.00103296
2.23715e-05
0.00103663
2.31786e-05
0.0010402
2.26491e-05
0.00104335
1.88403e-05
0.00104564
1.21955e-05
0.00104701
5.39294e-06
0.0010479
6.37236e-07
0.0010484
-1.11343e-06
0.00104869
-1.50066e-06
0.00104887
-1.48602e-06
0.00104897
-1.2559e-06
0.00104902
-1.04267e-06
0.00104904
-9.34366e-07
0.00104904
-8.87228e-07
0.00104905
-8.67014e-07
0.00104905
-8.56963e-07
0.00104905
-8.5352e-07
0.00104905
-8.52365e-07
0.00104905
-8.52037e-07
0.00104905
-8.51855e-07
0.00104905
-8.51811e-07
0.00104905
-8.51799e-07
0.00104905
-8.51792e-07
0.00104905
-8.51787e-07
0.00104905
-8.51787e-07
0.00104905
-8.5179e-07
0.00104905
-8.51791e-07
0.00104905
-8.51788e-07
0.00104905
-8.5179e-07
0.00104905
-8.51793e-07
0.00104905
-8.51794e-07
0.00104905
-8.51794e-07
0.00104905
-8.51792e-07
0.00104905
-8.51789e-07
0.00104905
-8.51788e-07
0.00104905
-8.5179e-07
0.00104905
-8.51791e-07
0.00104905
-8.51789e-07
0.00104905
-8.51792e-07
0.00104905
-8.51791e-07
0.00104905
-8.51786e-07
0.00104905
-8.51784e-07
0.00104905
-8.51788e-07
0.00104905
-8.51797e-07
0.00104905
-8.51797e-07
0.00104905
-8.5179e-07
0.00104905
-8.51787e-07
0.00104905
-8.51788e-07
0.00104905
-8.51791e-07
0.00104905
-8.5179e-07
0.00104905
-8.51788e-07
0.00104905
-8.51792e-07
0.00104905
-8.51798e-07
0.00104905
-8.518e-07
0.00104905
-8.51796e-07
0.00104905
-8.5179e-07
0.00104905
-8.51786e-07
0.00104905
-8.51787e-07
0.00104905
-8.51787e-07
0.00104905
-8.51785e-07
0.00104905
-8.51787e-07
0.00104905
-8.5179e-07
0.00104905
-8.51789e-07
0.00104905
-8.51786e-07
0.00104905
-8.51785e-07
0.00104905
-8.51787e-07
0.00104905
-8.51792e-07
0.00104905
-8.51793e-07
0.00104905
-8.51796e-07
0.00104905
-8.51799e-07
0.00104905
-8.51796e-07
0.00104905
-8.51795e-07
0.00104905
-8.51792e-07
0.00104905
-8.51794e-07
0.00104905
-8.51794e-07
0.00104905
-8.51787e-07
0.00104905
-8.51786e-07
0.00104905
-8.51789e-07
0.00104905
-8.51787e-07
0.00104905
-8.51786e-07
0.00104905
-8.51785e-07
0.00104905
-8.51793e-07
0.00104905
-8.51798e-07
0.00104905
-8.51806e-07
0.00104905
-8.51824e-07
0.00104905
-8.51929e-07
0.00104905
-8.52099e-07
0.00104905
-8.52953e-07
0.00104905
-8.54597e-07
0.00104905
-8.60624e-07
0.00104906
-8.77877e-07
0.00104908
-9.1961e-07
0.00104911
-1.07786e-06
0.00104924
-1.42679e-06
0.00104947
-2.64853e-06
0.00105052
-5.42577e-06
0.00105279
-1.48971e-05
0.00106032
-4.24133e-05
-0.000145082
0.00107702
0.00113956
1.17471e-05
0.00114338
1.8554e-05
0.00114744
1.91236e-05
0.0011514
1.86812e-05
0.00115484
1.53991e-05
0.00115729
9.74712e-06
0.00115869
4.00077e-06
0.00115936
-3.39883e-08
0.00115966
-1.41276e-06
0.00115981
-1.6539e-06
0.00115991
-1.58212e-06
0.00115995
-1.30422e-06
0.00115998
-1.06804e-06
0.00115999
-9.46227e-07
0.00115999
-8.91076e-07
0.00116
-8.68088e-07
0.00116
-8.57427e-07
0.00116
-8.53794e-07
0.00116
-8.52433e-07
0.00116
-8.52072e-07
0.00116
-8.51878e-07
0.00116
-8.5183e-07
0.00116
-8.51814e-07
0.00116
-8.51806e-07
0.00116
-8.51803e-07
0.00116
-8.51802e-07
0.00116
-8.51804e-07
0.00116
-8.51806e-07
0.00116
-8.51804e-07
0.00116
-8.51806e-07
0.00116
-8.51809e-07
0.00116
-8.5181e-07
0.00116
-8.51811e-07
0.00116
-8.51808e-07
0.00116
-8.51805e-07
0.00116
-8.51803e-07
0.00116
-8.51805e-07
0.00116
-8.51806e-07
0.00116
-8.51804e-07
0.00116
-8.51806e-07
0.00116
-8.51806e-07
0.00116
-8.51801e-07
0.00116
-8.51801e-07
0.00116
-8.51805e-07
0.00116
-8.51813e-07
0.00116
-8.51811e-07
0.00116
-8.51803e-07
0.00116
-8.51801e-07
0.00116
-8.51804e-07
0.00116
-8.51808e-07
0.00116
-8.51806e-07
0.00116
-8.51803e-07
0.00116
-8.51808e-07
0.00116
-8.51813e-07
0.00116
-8.51815e-07
0.00116
-8.51811e-07
0.00116
-8.51804e-07
0.00116
-8.518e-07
0.00116
-8.51802e-07
0.00116
-8.51802e-07
0.00116
-8.51801e-07
0.00116
-8.51803e-07
0.00116
-8.51805e-07
0.00116
-8.51804e-07
0.00116
-8.51802e-07
0.00116
-8.51801e-07
0.00116
-8.51804e-07
0.00116
-8.51809e-07
0.00116
-8.5181e-07
0.00116
-8.51811e-07
0.00116
-8.51813e-07
0.00116
-8.51809e-07
0.00116
-8.51808e-07
0.00116
-8.51806e-07
0.00116
-8.51808e-07
0.00116
-8.51809e-07
0.00116
-8.51802e-07
0.00116
-8.51803e-07
0.00116
-8.51805e-07
0.00116
-8.51803e-07
0.00116
-8.51802e-07
0.00116
-8.51802e-07
0.00116
-8.5181e-07
0.00116
-8.51815e-07
0.00116
-8.51824e-07
0.00116
-8.51847e-07
0.00116
-8.51962e-07
0.00116
-8.52181e-07
0.00116
-8.53134e-07
0.00116
-8.55113e-07
0.00116
-8.62241e-07
0.00116
-8.81312e-07
0.00116002
-9.34566e-07
0.00116005
-1.10472e-06
0.00116017
-1.55037e-06
0.0011604
-2.88254e-06
0.00116141
-6.43407e-06
0.0011637
-1.71826e-05
0.00117049
-4.9208e-05
-0.000158312
0.00118372
0.0012613
8.6807e-06
0.00126559
1.42661e-05
0.00127008
1.46264e-05
0.00127446
1.43006e-05
0.00127817
1.16929e-05
0.00128072
7.1982e-06
0.00128208
2.64018e-06
0.00128259
-5.49606e-07
0.0012827
-1.51321e-06
0.00128273
-1.68999e-06
0.00128273
-1.57746e-06
0.00128271
-1.28775e-06
0.00128271
-1.06705e-06
0.00128271
-9.49132e-07
0.00128271
-8.91392e-07
0.00128271
-8.67782e-07
0.00128271
-8.57628e-07
0.00128271
-8.5397e-07
0.00128271
-8.52501e-07
0.00128271
-8.52101e-07
0.00128271
-8.51904e-07
0.00128271
-8.5185e-07
0.00128271
-8.5183e-07
0.00128271
-8.51822e-07
0.00128271
-8.5182e-07
0.00128271
-8.51819e-07
0.00128271
-8.51821e-07
0.00128271
-8.51822e-07
0.00128271
-8.51821e-07
0.00128271
-8.51823e-07
0.00128271
-8.51827e-07
0.00128271
-8.51827e-07
0.00128271
-8.51828e-07
0.00128271
-8.51826e-07
0.00128271
-8.51823e-07
0.00128271
-8.5182e-07
0.00128271
-8.5182e-07
0.00128271
-8.51822e-07
0.00128271
-8.51821e-07
0.00128271
-8.51822e-07
0.00128271
-8.51822e-07
0.00128271
-8.51819e-07
0.00128271
-8.51821e-07
0.00128271
-8.51824e-07
0.00128271
-8.51829e-07
0.00128271
-8.51825e-07
0.00128271
-8.51817e-07
0.00128271
-8.51817e-07
0.00128271
-8.51822e-07
0.00128271
-8.51827e-07
0.00128271
-8.51825e-07
0.00128271
-8.51822e-07
0.00128271
-8.51825e-07
0.00128271
-8.5183e-07
0.00128271
-8.5183e-07
0.00128271
-8.51826e-07
0.00128271
-8.5182e-07
0.00128271
-8.51816e-07
0.00128271
-8.51818e-07
0.00128271
-8.5182e-07
0.00128271
-8.51818e-07
0.00128271
-8.5182e-07
0.00128271
-8.51822e-07
0.00128271
-8.51821e-07
0.00128271
-8.5182e-07
0.00128271
-8.5182e-07
0.00128271
-8.51821e-07
0.00128271
-8.51827e-07
0.00128271
-8.51828e-07
0.00128271
-8.51828e-07
0.00128271
-8.51827e-07
0.00128271
-8.51823e-07
0.00128271
-8.51823e-07
0.00128271
-8.51822e-07
0.00128271
-8.51824e-07
0.00128271
-8.51825e-07
0.00128271
-8.5182e-07
0.00128271
-8.51821e-07
0.00128271
-8.51824e-07
0.00128271
-8.51822e-07
0.00128271
-8.51822e-07
0.00128271
-8.51822e-07
0.00128271
-8.51829e-07
0.00128271
-8.51833e-07
0.00128271
-8.51843e-07
0.00128271
-8.51873e-07
0.00128271
-8.52e-07
0.00128271
-8.52277e-07
0.00128271
-8.53329e-07
0.00128271
-8.55744e-07
0.00128272
-8.63984e-07
0.00128272
-8.85762e-07
0.00128274
-9.50217e-07
0.00128277
-1.13575e-06
0.00128288
-1.66523e-06
0.00128312
-3.11877e-06
0.00128403
-7.34646e-06
0.00128617
-1.9324e-05
0.00129186
-5.48984e-05
-0.000167231
0.00130078
0.00139613
5.62881e-06
0.00140091
9.49185e-06
0.00140587
9.65984e-06
0.00141071
9.46548e-06
0.00141475
7.64655e-06
0.00141745
4.50565e-06
0.00141877
1.31896e-06
0.0014191
-8.78209e-07
0.00141905
-1.4684e-06
0.00141895
-1.59141e-06
0.00141884
-1.46761e-06
0.00141877
-1.21504e-06
0.00141874
-1.03332e-06
0.00141872
-9.35639e-07
0.00141872
-8.8519e-07
0.00141871
-8.6478e-07
0.00141871
-8.56747e-07
0.00141871
-8.53731e-07
0.00141871
-8.52411e-07
0.00141871
-8.52065e-07
0.00141871
-8.51905e-07
0.00141871
-8.51864e-07
0.00141871
-8.51847e-07
0.00141871
-8.5184e-07
0.00141871
-8.51838e-07
0.00141871
-8.51837e-07
0.00141871
-8.51839e-07
0.00141871
-8.51842e-07
0.00141871
-8.5184e-07
0.00141871
-8.51842e-07
0.00141871
-8.51846e-07
0.00141871
-8.51847e-07
0.00141871
-8.51846e-07
0.00141871
-8.51845e-07
0.00141871
-8.51843e-07
0.00141871
-8.51838e-07
0.00141871
-8.51837e-07
0.00141871
-8.5184e-07
0.00141871
-8.5184e-07
0.00141871
-8.5184e-07
0.00141871
-8.5184e-07
0.00141871
-8.51839e-07
0.00141871
-8.51844e-07
0.00141871
-8.51845e-07
0.00141871
-8.51846e-07
0.00141871
-8.51841e-07
0.00141871
-8.51833e-07
0.00141871
-8.51836e-07
0.00141871
-8.51841e-07
0.00141871
-8.51847e-07
0.00141871
-8.51846e-07
0.00141871
-8.51842e-07
0.00141871
-8.51846e-07
0.00141871
-8.51848e-07
0.00141871
-8.51846e-07
0.00141871
-8.51842e-07
0.00141871
-8.51837e-07
0.00141871
-8.51834e-07
0.00141871
-8.51836e-07
0.00141871
-8.51839e-07
0.00141871
-8.51838e-07
0.00141871
-8.51838e-07
0.00141871
-8.5184e-07
0.00141871
-8.51841e-07
0.00141871
-8.51841e-07
0.00141871
-8.51841e-07
0.00141871
-8.51841e-07
0.00141871
-8.51846e-07
0.00141871
-8.51848e-07
0.00141871
-8.51845e-07
0.00141871
-8.51843e-07
0.00141871
-8.51838e-07
0.00141871
-8.51839e-07
0.00141871
-8.5184e-07
0.00141871
-8.51841e-07
0.00141871
-8.51842e-07
0.00141871
-8.5184e-07
0.00141871
-8.51842e-07
0.00141871
-8.51844e-07
0.00141871
-8.51842e-07
0.00141871
-8.51843e-07
0.00141871
-8.51845e-07
0.00141871
-8.51849e-07
0.00141871
-8.51852e-07
0.00141871
-8.51863e-07
0.00141871
-8.51899e-07
0.00141871
-8.52033e-07
0.00141871
-8.52348e-07
0.00141871
-8.53475e-07
0.00141871
-8.56166e-07
0.00141872
-8.65239e-07
0.00141872
-8.88602e-07
0.00141873
-9.6165e-07
0.00141875
-1.15912e-06
0.00141885
-1.75984e-06
0.00141906
-3.33172e-06
0.00141982
-8.10195e-06
0.00142161
-2.11178e-05
0.00142569
-5.89755e-05
-0.000171167
0.00142962
0.00154549
2.51569e-06
0.00155079
4.19229e-06
0.00155627
4.18181e-06
0.00156162
4.12009e-06
0.00156604
3.22116e-06
0.00156889
1.66072e-06
0.00157016
4.76342e-08
0.00157033
-1.0526e-06
0.00157017
-1.30753e-06
0.00156993
-1.34841e-06
0.00156971
-1.24757e-06
0.00156958
-1.08313e-06
0.00156951
-9.68466e-07
0.00156948
-9.06451e-07
0.00156947
-8.73935e-07
0.00156947
-8.60538e-07
0.00156947
-8.55274e-07
0.00156947
-8.532e-07
0.00156947
-8.52278e-07
0.00156947
-8.52028e-07
0.00156947
-8.5191e-07
0.00156947
-8.51879e-07
0.00156947
-8.51867e-07
0.00156947
-8.51861e-07
0.00156947
-8.51858e-07
0.00156947
-8.51857e-07
0.00156947
-8.5186e-07
0.00156947
-8.51863e-07
0.00156947
-8.51861e-07
0.00156947
-8.51862e-07
0.00156947
-8.51867e-07
0.00156947
-8.51868e-07
0.00156947
-8.51867e-07
0.00156947
-8.51866e-07
0.00156947
-8.51864e-07
0.00156947
-8.51859e-07
0.00156947
-8.51857e-07
0.00156947
-8.51861e-07
0.00156947
-8.5186e-07
0.00156947
-8.5186e-07
0.00156947
-8.5186e-07
0.00156947
-8.51861e-07
0.00156947
-8.51869e-07
0.00156947
-8.51868e-07
0.00156947
-8.51864e-07
0.00156947
-8.51858e-07
0.00156947
-8.51853e-07
0.00156947
-8.51857e-07
0.00156947
-8.51863e-07
0.00156947
-8.51868e-07
0.00156947
-8.51868e-07
0.00156947
-8.51865e-07
0.00156947
-8.51868e-07
0.00156947
-8.51867e-07
0.00156947
-8.51864e-07
0.00156947
-8.5186e-07
0.00156947
-8.51857e-07
0.00156947
-8.51855e-07
0.00156947
-8.51857e-07
0.00156947
-8.5186e-07
0.00156947
-8.51859e-07
0.00156947
-8.51859e-07
0.00156947
-8.51861e-07
0.00156947
-8.51862e-07
0.00156947
-8.51864e-07
0.00156947
-8.51865e-07
0.00156947
-8.51863e-07
0.00156947
-8.51867e-07
0.00156947
-8.51869e-07
0.00156947
-8.51865e-07
0.00156947
-8.5186e-07
0.00156947
-8.51856e-07
0.00156947
-8.51858e-07
0.00156947
-8.51859e-07
0.00156947
-8.5186e-07
0.00156947
-8.51861e-07
0.00156947
-8.51862e-07
0.00156947
-8.51865e-07
0.00156947
-8.51866e-07
0.00156947
-8.51865e-07
0.00156947
-8.51867e-07
0.00156947
-8.51869e-07
0.00156947
-8.51871e-07
0.00156947
-8.51873e-07
0.00156947
-8.51886e-07
0.00156947
-8.51925e-07
0.00156947
-8.52065e-07
0.00156947
-8.52416e-07
0.00156947
-8.53605e-07
0.00156947
-8.56562e-07
0.00156947
-8.6631e-07
0.00156947
-8.91364e-07
0.00156948
-9.70742e-07
0.0015695
-1.17819e-06
0.00156956
-1.82526e-06
0.00156972
-3.49101e-06
0.00157023
-8.61276e-06
0.0015714
-2.2284e-05
0.00157337
-6.09404e-05
-0.000169226
0.00157142
0.00171098
-7.86347e-07
0.00171687
-1.6899e-06
0.00172292
-1.86868e-06
0.00172882
-1.78166e-06
0.00173367
-1.62896e-06
0.00173673
-1.39895e-06
0.00173798
-1.20027e-06
0.00173802
-1.09869e-06
0.00173776
-1.04859e-06
0.00173739
-9.77941e-07
0.00173707
-9.26316e-07
0.00173688
-8.92691e-07
0.00173679
-8.74325e-07
0.00173674
-8.63492e-07
0.00173673
-8.57094e-07
0.00173672
-8.54203e-07
0.00173672
-8.52955e-07
0.00173672
-8.52331e-07
0.00173672
-8.52028e-07
0.00173672
-8.51952e-07
0.00173672
-8.51905e-07
0.00173672
-8.51892e-07
0.00173672
-8.51886e-07
0.00173672
-8.51882e-07
0.00173672
-8.51881e-07
0.00173672
-8.5188e-07
0.00173672
-8.51882e-07
0.00173672
-8.51887e-07
0.00173672
-8.51886e-07
0.00173672
-8.51885e-07
0.00173672
-8.51888e-07
0.00173672
-8.51891e-07
0.00173672
-8.51892e-07
0.00173672
-8.5189e-07
0.00173672
-8.51886e-07
0.00173672
-8.51881e-07
0.00173672
-8.51881e-07
0.00173672
-8.51885e-07
0.00173672
-8.51882e-07
0.00173672
-8.51881e-07
0.00173672
-8.51883e-07
0.00173672
-8.51886e-07
0.00173672
-8.51894e-07
0.00173672
-8.51891e-07
0.00173672
-8.51885e-07
0.00173672
-8.5188e-07
0.00173672
-8.51875e-07
0.00173672
-8.5188e-07
0.00173672
-8.51886e-07
0.00173672
-8.51891e-07
0.00173672
-8.51892e-07
0.00173672
-8.5189e-07
0.00173672
-8.51891e-07
0.00173672
-8.51889e-07
0.00173672
-8.51884e-07
0.00173672
-8.5188e-07
0.00173672
-8.51879e-07
0.00173672
-8.51879e-07
0.00173672
-8.5188e-07
0.00173672
-8.51883e-07
0.00173672
-8.51883e-07
0.00173672
-8.51883e-07
0.00173672
-8.51885e-07
0.00173672
-8.51886e-07
0.00173672
-8.51889e-07
0.00173672
-8.5189e-07
0.00173672
-8.51886e-07
0.00173672
-8.51889e-07
0.00173672
-8.51893e-07
0.00173672
-8.51887e-07
0.00173672
-8.5188e-07
0.00173672
-8.51876e-07
0.00173672
-8.51879e-07
0.00173672
-8.51882e-07
0.00173672
-8.51882e-07
0.00173672
-8.51883e-07
0.00173672
-8.51887e-07
0.00173672
-8.5189e-07
0.00173672
-8.51891e-07
0.00173672
-8.5189e-07
0.00173672
-8.51892e-07
0.00173672
-8.51894e-07
0.00173672
-8.51895e-07
0.00173672
-8.51896e-07
0.00173672
-8.51908e-07
0.00173672
-8.5195e-07
0.00173672
-8.52091e-07
0.00173672
-8.52455e-07
0.00173672
-8.53652e-07
0.00173672
-8.56695e-07
0.00173672
-8.66615e-07
0.00173672
-8.92069e-07
0.00173672
-9.7366e-07
0.00173673
-1.1847e-06
0.00173675
-1.84935e-06
0.00173682
-3.55721e-06
0.00173699
-8.77738e-06
0.00173725
-2.25481e-05
0.00173651
-6.02055e-05
-0.000160716
0.001728
0.00171102
-4.12333e-06
0.00171692
-7.5863e-06
0.00172297
-7.92312e-06
0.00172888
-7.68687e-06
0.00173373
-6.48295e-06
0.00173678
-4.45224e-06
0.00173802
-2.4344e-06
0.00173805
-1.13471e-06
0.00173778
-7.77987e-07
0.0017374
-5.99845e-07
0.00173708
-6.03349e-07
0.00173689
-7.00152e-07
0.00173679
-7.78319e-07
0.00173675
-8.19183e-07
0.00173673
-8.39726e-07
0.00173672
-8.47683e-07
0.00173672
-8.50507e-07
0.00173672
-8.51402e-07
0.00173672
-8.51774e-07
0.00173672
-8.51877e-07
0.00173672
-8.51901e-07
0.00173672
-8.51904e-07
0.00173672
-8.51904e-07
0.00173672
-8.51902e-07
0.00173672
-8.51905e-07
0.00173672
-8.51905e-07
0.00173672
-8.51904e-07
0.00173672
-8.51909e-07
0.00173672
-8.5191e-07
0.00173672
-8.51909e-07
0.00173672
-8.5191e-07
0.00173672
-8.51913e-07
0.00173672
-8.51916e-07
0.00173672
-8.51913e-07
0.00173672
-8.51908e-07
0.00173672
-8.51904e-07
0.00173672
-8.51905e-07
0.00173672
-8.51908e-07
0.00173672
-8.51903e-07
0.00173672
-8.51903e-07
0.00173672
-8.51907e-07
0.00173672
-8.51911e-07
0.00173672
-8.51917e-07
0.00173672
-8.51913e-07
0.00173672
-8.51907e-07
0.00173672
-8.51903e-07
0.00173672
-8.51899e-07
0.00173672
-8.51904e-07
0.00173672
-8.51909e-07
0.00173672
-8.51914e-07
0.00173672
-8.51916e-07
0.00173672
-8.51915e-07
0.00173672
-8.51914e-07
0.00173672
-8.5191e-07
0.00173672
-8.51905e-07
0.00173672
-8.51901e-07
0.00173672
-8.51902e-07
0.00173672
-8.51903e-07
0.00173672
-8.51904e-07
0.00173672
-8.51906e-07
0.00173672
-8.51905e-07
0.00173672
-8.51906e-07
0.00173672
-8.51909e-07
0.00173672
-8.5191e-07
0.00173672
-8.51912e-07
0.00173672
-8.51915e-07
0.00173672
-8.51911e-07
0.00173672
-8.51912e-07
0.00173672
-8.51915e-07
0.00173672
-8.51909e-07
0.00173672
-8.519e-07
0.00173672
-8.51897e-07
0.00173672
-8.519e-07
0.00173672
-8.51903e-07
0.00173672
-8.51905e-07
0.00173672
-8.51905e-07
0.00173672
-8.5191e-07
0.00173672
-8.51915e-07
0.00173672
-8.51915e-07
0.00173672
-8.51914e-07
0.00173672
-8.51916e-07
0.00173672
-8.5192e-07
0.00173672
-8.51919e-07
0.00173672
-8.51917e-07
0.00173672
-8.51929e-07
0.00173672
-8.51973e-07
0.00173672
-8.52109e-07
0.00173672
-8.52471e-07
0.00173672
-8.5363e-07
0.00173672
-8.56641e-07
0.00173672
-8.66304e-07
0.00173672
-8.91323e-07
0.00173672
-9.70928e-07
0.00173671
-1.17671e-06
0.00173668
-1.82272e-06
0.00173662
-3.49376e-06
0.00173638
-8.53577e-06
0.00173556
-2.17284e-05
0.00173212
-5.67711e-05
-0.000146752
0.00171816
0.00154559
-7.33311e-06
0.00155093
-1.29271e-05
0.00155642
-1.34098e-05
0.00156176
-1.30321e-05
0.00156619
-1.09065e-05
0.00156902
-7.28965e-06
0.00157027
-3.6835e-06
0.00157042
-1.28117e-06
0.00157024
-5.99935e-07
0.00156997
-3.31418e-07
0.00156974
-3.65875e-07
0.00156959
-5.58947e-07
0.00156953
-7.08764e-07
0.00156949
-7.87626e-07
0.00156948
-8.27719e-07
0.00156948
-8.43137e-07
0.00156948
-8.48829e-07
0.00156947
-8.50781e-07
0.00156947
-8.51612e-07
0.00156947
-8.51829e-07
0.00156947
-8.51903e-07
0.00156947
-8.51918e-07
0.00156947
-8.51923e-07
0.00156947
-8.51922e-07
0.00156947
-8.51926e-07
0.00156947
-8.51927e-07
0.00156947
-8.51926e-07
0.00156947
-8.5193e-07
0.00156947
-8.5193e-07
0.00156947
-8.51929e-07
0.00156947
-8.5193e-07
0.00156947
-8.51934e-07
0.00156947
-8.51936e-07
0.00156947
-8.51933e-07
0.00156947
-8.51929e-07
0.00156947
-8.51927e-07
0.00156947
-8.51927e-07
0.00156947
-8.51928e-07
0.00156947
-8.51923e-07
0.00156947
-8.51923e-07
0.00156947
-8.5193e-07
0.00156947
-8.51934e-07
0.00156947
-8.51938e-07
0.00156947
-8.51934e-07
0.00156948
-8.51927e-07
0.00156948
-8.51923e-07
0.00156948
-8.51921e-07
0.00156948
-8.51924e-07
0.00156948
-8.51929e-07
0.00156948
-8.51934e-07
0.00156948
-8.51939e-07
0.00156948
-8.51938e-07
0.00156948
-8.51934e-07
0.00156948
-8.51929e-07
0.00156948
-8.51923e-07
0.00156948
-8.5192e-07
0.00156948
-8.51923e-07
0.00156948
-8.51925e-07
0.00156948
-8.51926e-07
0.00156948
-8.51927e-07
0.00156948
-8.51926e-07
0.00156948
-8.51927e-07
0.00156948
-8.51931e-07
0.00156948
-8.51933e-07
0.00156948
-8.51933e-07
0.00156948
-8.51937e-07
0.00156948
-8.51935e-07
0.00156948
-8.51933e-07
0.00156948
-8.51934e-07
0.00156948
-8.51928e-07
0.00156948
-8.51919e-07
0.00156948
-8.51917e-07
0.00156948
-8.51918e-07
0.00156948
-8.51921e-07
0.00156948
-8.51925e-07
0.00156948
-8.51926e-07
0.00156948
-8.51932e-07
0.00156948
-8.51937e-07
0.00156948
-8.51937e-07
0.00156948
-8.51936e-07
0.00156948
-8.51938e-07
0.00156948
-8.51942e-07
0.00156948
-8.5194e-07
0.00156948
-8.51937e-07
0.00156948
-8.51947e-07
0.00156948
-8.51989e-07
0.00156948
-8.52115e-07
0.00156948
-8.52451e-07
0.00156948
-8.53519e-07
0.00156948
-8.56318e-07
0.00156947
-8.65243e-07
0.00156947
-8.88437e-07
0.00156946
-9.62353e-07
0.00156944
-1.15488e-06
0.00156938
-1.75695e-06
0.0015692
-3.32291e-06
0.00156865
-7.985e-06
0.00156704
-2.01171e-05
0.00156191
-5.1636e-05
-0.000130309
0.00154546
0.00139628
-1.05335e-05
0.00140111
-1.77554e-05
0.00140608
-1.83829e-05
0.00141092
-1.78658e-05
0.00141496
-1.49512e-05
0.00141763
-9.96037e-06
0.00141891
-4.95973e-06
0.0014192
-1.57389e-06
0.00141912
-5.24853e-07
0.001419
-2.07763e-07
0.00141888
-2.45938e-07
0.0014188
-4.75253e-07
0.00141876
-6.67687e-07
0.00141874
-7.69635e-07
0.00141873
-8.19628e-07
0.00141873