/*--------------------------------*- C++ -*----------------------------------*\
| =========                 |                                                 |
| \\      /  F ield         | OpenFOAM: The Open Source CFD Toolbox           |
|  \\    /   O peration     | Version:  v2012                                 |
|   \\  /    A nd           | Website:  www.openfoam.com                      |
|    \\/     M anipulation  |                                                 |
\*---------------------------------------------------------------------------*/
FoamFile
{
    version     2.0;
    format      ascii;
    class       volVectorField;
    location    "0.012";
    object      U.air;
}
// * * * * * * * * * * * * * * * * * * * * * * * * * * * * * * * * * * * * * //

dimensions      [0 1 -1 0 0 0 0];


internalField   nonuniform List<vector> 
5600
(
(9.20582 0.00909954 0)
(8.8359 0.0179492 0)
(8.43286 0.0181306 0)
(8.05285 0.0137723 0)
(7.72716 0.00745875 0)
(7.47452 0.00098231 0)
(7.33088 -0.00388776 0)
(7.26897 -0.0057495 0)
(7.24419 -0.00587209 0)
(7.23368 -0.0063754 0)
(7.23089 -0.00680515 0)
(7.23072 -0.00691455 0)
(7.23075 -0.00691006 0)
(7.23072 -0.00689553 0)
(7.2307 -0.00687893 0)
(7.23072 -0.00686921 0)
(7.23073 -0.00686544 0)
(7.23073 -0.00686442 0)
(7.23073 -0.00686382 0)
(7.23073 -0.00686367 0)
(7.23073 -0.00686358 0)
(7.23073 -0.00686357 0)
(7.23073 -0.00686357 0)
(7.23073 -0.00686357 0)
(7.23073 -0.00686356 0)
(7.23073 -0.00686356 0)
(7.23073 -0.00686357 0)
(7.23073 -0.00686357 0)
(7.23073 -0.00686356 0)
(7.23073 -0.00686356 0)
(7.23073 -0.00686356 0)
(7.23073 -0.00686357 0)
(7.23073 -0.00686357 0)
(7.23073 -0.00686356 0)
(7.23073 -0.00686356 0)
(7.23073 -0.00686356 0)
(7.23073 -0.00686357 0)
(7.23073 -0.00686357 0)
(7.23073 -0.00686357 0)
(7.23073 -0.00686357 0)
(7.23073 -0.00686356 0)
(7.23073 -0.00686356 0)
(7.23073 -0.00686356 0)
(7.23073 -0.00686356 0)
(7.23073 -0.00686357 0)
(7.23073 -0.00686357 0)
(7.23073 -0.00686357 0)
(7.23073 -0.00686356 0)
(7.23073 -0.00686356 0)
(7.23073 -0.00686356 0)
(7.23073 -0.00686356 0)
(7.23073 -0.00686356 0)
(7.23073 -0.00686357 0)
(7.23073 -0.00686357 0)
(7.23073 -0.00686357 0)
(7.23073 -0.00686357 0)
(7.23073 -0.00686356 0)
(7.23073 -0.00686356 0)
(7.23073 -0.00686356 0)
(7.23073 -0.00686356 0)
(7.23073 -0.00686356 0)
(7.23073 -0.00686356 0)
(7.23073 -0.00686356 0)
(7.23073 -0.00686356 0)
(7.23073 -0.00686356 0)
(7.23074 -0.00686356 0)
(7.23074 -0.00686356 0)
(7.23074 -0.00686356 0)
(7.23074 -0.00686357 0)
(7.23074 -0.00686357 0)
(7.23074 -0.00686357 0)
(7.23074 -0.00686357 0)
(7.23074 -0.00686357 0)
(7.23074 -0.00686357 0)
(7.23074 -0.00686357 0)
(7.23074 -0.00686357 0)
(7.23074 -0.00686356 0)
(7.23074 -0.00686356 0)
(7.23074 -0.00686356 0)
(7.23074 -0.00686356 0)
(7.23074 -0.00686356 0)
(7.23074 -0.00686356 0)
(7.23074 -0.00686356 0)
(7.23074 -0.00686358 0)
(7.23074 -0.00686353 0)
(7.23074 -0.00686377 0)
(7.23074 -0.00686296 0)
(7.23073 -0.00686617 0)
(7.23077 -0.00685651 0)
(7.23064 -0.00688853 0)
(7.23109 -0.00680593 0)
(7.22992 -0.00703425 0)
(7.23319 -0.00656844 0)
(7.22638 -0.00763998 0)
(7.24264 -0.00627463 0)
(7.21839 -0.00914737 0)
(7.27673 -0.0085823 0)
(7.2386 -0.0119061 0)
(7.44182 -0.0207735 0)
(7.41065 -0.018916 0)
(9.39259 0.0364873 0)
(9.38814 0.0389893 0)
(9.35049 0.0390408 0)
(9.28855 0.0373021 0)
(9.21878 0.0328293 0)
(9.15636 0.024758 0)
(9.12302 0.0156709 0)
(9.11171 0.00910185 0)
(9.10932 0.0057148 0)
(9.10937 0.00447591 0)
(9.11036 0.00409948 0)
(9.11166 0.00395159 0)
(9.11236 0.00388227 0)
(9.11253 0.00384723 0)
(9.1126 0.00383125 0)
(9.11265 0.00382197 0)
(9.11268 0.00381805 0)
(9.11268 0.00381706 0)
(9.11268 0.00381659 0)
(9.11268 0.00381639 0)
(9.11268 0.00381632 0)
(9.11268 0.00381631 0)
(9.11268 0.00381631 0)
(9.11268 0.00381631 0)
(9.11268 0.00381631 0)
(9.11268 0.0038163 0)
(9.11268 0.0038163 0)
(9.11268 0.00381631 0)
(9.11268 0.0038163 0)
(9.11268 0.0038163 0)
(9.11268 0.00381631 0)
(9.11268 0.00381631 0)
(9.11268 0.00381631 0)
(9.11268 0.00381631 0)
(9.11268 0.0038163 0)
(9.11268 0.0038163 0)
(9.11268 0.00381631 0)
(9.11268 0.00381631 0)
(9.11268 0.00381631 0)
(9.11268 0.00381631 0)
(9.11268 0.00381631 0)
(9.11268 0.0038163 0)
(9.11268 0.0038163 0)
(9.11268 0.0038163 0)
(9.11268 0.00381631 0)
(9.11268 0.00381631 0)
(9.11268 0.00381631 0)
(9.11268 0.00381631 0)
(9.11268 0.0038163 0)
(9.11268 0.0038163 0)
(9.11268 0.0038163 0)
(9.11268 0.0038163 0)
(9.11268 0.00381631 0)
(9.11268 0.00381631 0)
(9.11268 0.00381631 0)
(9.11268 0.00381631 0)
(9.11268 0.00381631 0)
(9.11268 0.0038163 0)
(9.11268 0.0038163 0)
(9.11269 0.00381631 0)
(9.11269 0.0038163 0)
(9.11269 0.0038163 0)
(9.11269 0.0038163 0)
(9.11269 0.0038163 0)
(9.11269 0.0038163 0)
(9.11269 0.0038163 0)
(9.11269 0.0038163 0)
(9.11269 0.00381631 0)
(9.11269 0.00381631 0)
(9.11269 0.00381631 0)
(9.11269 0.00381631 0)
(9.11269 0.00381631 0)
(9.11269 0.00381631 0)
(9.11269 0.00381631 0)
(9.11269 0.00381631 0)
(9.11269 0.00381631 0)
(9.11269 0.00381631 0)
(9.11269 0.0038163 0)
(9.11269 0.0038163 0)
(9.11269 0.0038163 0)
(9.11269 0.0038163 0)
(9.11269 0.0038163 0)
(9.11269 0.00381631 0)
(9.11269 0.0038163 0)
(9.11269 0.00381632 0)
(9.11269 0.00381627 0)
(9.11269 0.00381642 0)
(9.1127 0.00381592 0)
(9.11267 0.00381762 0)
(9.11277 0.00381275 0)
(9.1125 0.00382654 0)
(9.1133 0.00379446 0)
(9.11156 0.00386926 0)
(9.11586 0.00373647 0)
(9.10914 0.00394813 0)
(9.12431 0.00325038 0)
(9.1177 0.00349677 0)
(9.14235 -0.00251698 0)
(9.22562 -0.00447979 0)
(9.33417 -0.0825253 0)
(9.40032 0.0230525 0)
(9.43272 0.0318921 0)
(9.45686 0.0336259 0)
(9.474 0.0324818 0)
(9.48433 0.0270154 0)
(9.49192 0.017014 0)
(9.49786 0.00627207 0)
(9.50407 -0.000514056 0)
(9.51119 -0.00359558 0)
(9.51569 -0.00481098 0)
(9.51829 -0.00504206 0)
(9.52035 -0.00493609 0)
(9.52136 -0.00481201 0)
(9.52167 -0.00474519 0)
(9.5218 -0.00471131 0)
(9.52188 -0.00469434 0)
(9.52191 -0.00468676 0)
(9.52191 -0.00468443 0)
(9.52192 -0.00468353 0)
(9.52192 -0.00468323 0)
(9.52192 -0.0046831 0)
(9.52192 -0.00468307 0)
(9.52192 -0.00468307 0)
(9.52192 -0.00468306 0)
(9.52192 -0.00468306 0)
(9.52192 -0.00468306 0)
(9.52192 -0.00468306 0)
(9.52192 -0.00468306 0)
(9.52192 -0.00468306 0)
(9.52192 -0.00468306 0)
(9.52192 -0.00468306 0)
(9.52192 -0.00468306 0)
(9.52192 -0.00468306 0)
(9.52192 -0.00468306 0)
(9.52192 -0.00468306 0)
(9.52192 -0.00468306 0)
(9.52192 -0.00468306 0)
(9.52192 -0.00468306 0)
(9.52192 -0.00468306 0)
(9.52192 -0.00468306 0)
(9.52192 -0.00468306 0)
(9.52192 -0.00468305 0)
(9.52192 -0.00468305 0)
(9.52192 -0.00468305 0)
(9.52192 -0.00468306 0)
(9.52192 -0.00468307 0)
(9.52192 -0.00468306 0)
(9.52192 -0.00468306 0)
(9.52192 -0.00468305 0)
(9.52192 -0.00468306 0)
(9.52192 -0.00468306 0)
(9.52192 -0.00468306 0)
(9.52192 -0.00468306 0)
(9.52192 -0.00468307 0)
(9.52192 -0.00468307 0)
(9.52192 -0.00468307 0)
(9.52192 -0.00468306 0)
(9.52192 -0.00468306 0)
(9.52192 -0.00468306 0)
(9.52192 -0.00468306 0)
(9.52192 -0.00468305 0)
(9.52192 -0.00468306 0)
(9.52192 -0.00468306 0)
(9.52192 -0.00468305 0)
(9.52192 -0.00468305 0)
(9.52192 -0.00468305 0)
(9.52192 -0.00468305 0)
(9.52192 -0.00468306 0)
(9.52192 -0.00468306 0)
(9.52192 -0.00468307 0)
(9.52192 -0.00468307 0)
(9.52192 -0.00468307 0)
(9.52192 -0.00468306 0)
(9.52192 -0.00468306 0)
(9.52193 -0.00468306 0)
(9.52193 -0.00468306 0)
(9.52193 -0.00468305 0)
(9.52193 -0.00468305 0)
(9.52193 -0.00468305 0)
(9.52193 -0.00468305 0)
(9.52193 -0.00468305 0)
(9.52193 -0.00468305 0)
(9.52193 -0.00468306 0)
(9.52193 -0.00468306 0)
(9.52193 -0.00468307 0)
(9.52193 -0.00468309 0)
(9.52193 -0.00468317 0)
(9.52193 -0.00468333 0)
(9.52192 -0.00468386 0)
(9.52195 -0.00468601 0)
(9.52189 -0.00468751 0)
(9.52212 -0.00471421 0)
(9.52173 -0.00471101 0)
(9.52318 -0.00495261 0)
(9.52164 -0.00498224 0)
(9.52843 -0.00641404 0)
(9.52822 -0.00719439 0)
(9.55041 -0.0134702 0)
(9.60193 -0.0309106 0)
(9.70864 -0.110735 0)
(9.39927 0.0217465 0)
(9.43201 0.0304008 0)
(9.46688 0.0320052 0)
(9.50024 0.0312708 0)
(9.52955 0.0263284 0)
(9.55226 0.0178274 0)
(9.56678 0.00959512 0)
(9.57817 0.00437607 0)
(9.58635 0.00278406 0)
(9.59057 0.00209384 0)
(9.59312 0.00172835 0)
(9.59512 0.00172586 0)
(9.5961 0.00182038 0)
(9.59639 0.00187579 0)
(9.5965 0.00189959 0)
(9.59658 0.00190804 0)
(9.59661 0.00191247 0)
(9.59661 0.00191411 0)
(9.59661 0.00191458 0)
(9.59662 0.00191464 0)
(9.59662 0.00191471 0)
(9.59662 0.00191473 0)
(9.59662 0.00191474 0)
(9.59662 0.00191474 0)
(9.59662 0.00191475 0)
(9.59662 0.00191475 0)
(9.59662 0.00191474 0)
(9.59662 0.00191474 0)
(9.59662 0.00191474 0)
(9.59662 0.00191474 0)
(9.59662 0.00191474 0)
(9.59662 0.00191474 0)
(9.59662 0.00191474 0)
(9.59662 0.00191474 0)
(9.59662 0.00191474 0)
(9.59662 0.00191475 0)
(9.59662 0.00191474 0)
(9.59662 0.00191474 0)
(9.59662 0.00191474 0)
(9.59662 0.00191474 0)
(9.59662 0.00191475 0)
(9.59662 0.00191475 0)
(9.59662 0.00191475 0)
(9.59662 0.00191475 0)
(9.59662 0.00191474 0)
(9.59662 0.00191474 0)
(9.59662 0.00191474 0)
(9.59662 0.00191475 0)
(9.59662 0.00191475 0)
(9.59662 0.00191475 0)
(9.59662 0.00191475 0)
(9.59662 0.00191475 0)
(9.59662 0.00191474 0)
(9.59662 0.00191474 0)
(9.59662 0.00191474 0)
(9.59662 0.00191474 0)
(9.59662 0.00191474 0)
(9.59662 0.00191475 0)
(9.59662 0.00191475 0)
(9.59662 0.00191475 0)
(9.59662 0.00191475 0)
(9.59662 0.00191475 0)
(9.59662 0.00191474 0)
(9.59662 0.00191475 0)
(9.59662 0.00191475 0)
(9.59662 0.00191475 0)
(9.59662 0.00191475 0)
(9.59662 0.00191474 0)
(9.59662 0.00191474 0)
(9.59662 0.00191474 0)
(9.59662 0.00191474 0)
(9.59662 0.00191474 0)
(9.59662 0.00191474 0)
(9.59662 0.00191474 0)
(9.59662 0.00191474 0)
(9.59662 0.00191474 0)
(9.59662 0.00191475 0)
(9.59662 0.00191475 0)
(9.59662 0.00191475 0)
(9.59662 0.00191475 0)
(9.59662 0.00191475 0)
(9.59662 0.00191475 0)
(9.59662 0.00191474 0)
(9.59662 0.00191474 0)
(9.59662 0.00191473 0)
(9.59662 0.00191473 0)
(9.59662 0.00191462 0)
(9.59663 0.00191457 0)
(9.59663 0.00191377 0)
(9.59663 0.00191286 0)
(9.59663 0.0019082 0)
(9.59669 0.00189449 0)
(9.59669 0.00186939 0)
(9.59712 0.00173363 0)
(9.59738 0.00147954 0)
(9.60006 0.000257841 0)
(9.60427 -0.00159851 0)
(9.62124 -0.0108473 0)
(9.66761 -0.0325848 0)
(9.751 -0.129859 0)
(9.39754 0.0182861 0)
(9.42914 0.0267559 0)
(9.4648 0.0278704 0)
(9.50097 0.0271649 0)
(9.53368 0.022615 0)
(9.55754 0.0147764 0)
(9.5724 0.00639958 0)
(9.58352 -0.0002042 0)
(9.59 -0.00341766 0)
(9.59274 -0.00393266 0)
(9.59443 -0.00381053 0)
(9.59586 -0.0034996 0)
(9.59656 -0.00326801 0)
(9.59676 -0.00316078 0)
(9.59684 -0.00311514 0)
(9.5969 -0.00309432 0)
(9.59693 -0.00308413 0)
(9.59693 -0.00308069 0)
(9.59693 -0.00307959 0)
(9.59693 -0.00307919 0)
(9.59694 -0.00307901 0)
(9.59694 -0.00307897 0)
(9.59694 -0.00307896 0)
(9.59694 -0.00307896 0)
(9.59694 -0.00307895 0)
(9.59694 -0.00307895 0)
(9.59694 -0.00307895 0)
(9.59694 -0.00307895 0)
(9.59694 -0.00307895 0)
(9.59694 -0.00307895 0)
(9.59694 -0.00307896 0)
(9.59694 -0.00307896 0)
(9.59694 -0.00307896 0)
(9.59694 -0.00307896 0)
(9.59694 -0.00307895 0)
(9.59694 -0.00307895 0)
(9.59694 -0.00307895 0)
(9.59694 -0.00307895 0)
(9.59694 -0.00307895 0)
(9.59694 -0.00307896 0)
(9.59694 -0.00307895 0)
(9.59694 -0.00307895 0)
(9.59694 -0.00307895 0)
(9.59694 -0.00307895 0)
(9.59694 -0.00307896 0)
(9.59694 -0.00307896 0)
(9.59694 -0.00307895 0)
(9.59694 -0.00307895 0)
(9.59694 -0.00307895 0)
(9.59694 -0.00307896 0)
(9.59694 -0.00307895 0)
(9.59694 -0.00307895 0)
(9.59694 -0.00307896 0)
(9.59694 -0.00307896 0)
(9.59694 -0.00307896 0)
(9.59694 -0.00307896 0)
(9.59694 -0.00307895 0)
(9.59694 -0.00307895 0)
(9.59694 -0.00307895 0)
(9.59694 -0.00307895 0)
(9.59694 -0.00307895 0)
(9.59694 -0.00307895 0)
(9.59694 -0.00307895 0)
(9.59694 -0.00307895 0)
(9.59694 -0.00307895 0)
(9.59694 -0.00307895 0)
(9.59694 -0.00307895 0)
(9.59694 -0.00307896 0)
(9.59694 -0.00307896 0)
(9.59694 -0.00307896 0)
(9.59694 -0.00307896 0)
(9.59694 -0.00307896 0)
(9.59694 -0.00307896 0)
(9.59694 -0.00307896 0)
(9.59694 -0.00307896 0)
(9.59694 -0.00307896 0)
(9.59694 -0.00307895 0)
(9.59694 -0.00307895 0)
(9.59694 -0.00307895 0)
(9.59694 -0.00307895 0)
(9.59694 -0.00307895 0)
(9.59694 -0.00307895 0)
(9.59694 -0.00307896 0)
(9.59694 -0.00307896 0)
(9.59694 -0.00307897 0)
(9.59694 -0.00307899 0)
(9.59694 -0.00307908 0)
(9.59694 -0.00307924 0)
(9.59695 -0.00308001 0)
(9.59695 -0.00308154 0)
(9.59696 -0.00308689 0)
(9.597 -0.00310327 0)
(9.59707 -0.00313835 0)
(9.59736 -0.0032954 0)
(9.59791 -0.00357602 0)
(9.6 -0.00473705 0)
(9.60445 -0.00716916 0)
(9.61926 -0.0165681 0)
(9.6602 -0.0436184 0)
(9.7269 -0.153559 0)
(9.39578 0.0145863 0)
(9.42627 0.0228053 0)
(9.46174 0.0235437 0)
(9.49885 0.0228886 0)
(9.53152 0.018966 0)
(9.55446 0.0120679 0)
(9.56867 0.00515248 0)
(9.57795 0.00118828 0)
(9.58184 0.000116997 0)
(9.58275 -0.000189163 0)
(9.5834 -0.000204423 0)
(9.58413 4.10163e-05 0)
(9.58453 0.000313031 0)
(9.58462 0.000468296 0)
(9.58464 0.000538088 0)
(9.58466 0.000567559 0)
(9.58467 0.000581765 0)
(9.58467 0.000586728 0)
(9.58467 0.000588501 0)
(9.58467 0.00058892 0)
(9.58467 0.000589181 0)
(9.58467 0.000589245 0)
(9.58467 0.000589265 0)
(9.58467 0.000589276 0)
(9.58467 0.000589282 0)
(9.58467 0.000589283 0)
(9.58467 0.000589279 0)
(9.58467 0.000589277 0)
(9.58467 0.000589281 0)
(9.58468 0.000589279 0)
(9.58468 0.000589276 0)
(9.58468 0.000589273 0)
(9.58468 0.000589273 0)
(9.58468 0.000589276 0)
(9.58468 0.00058928 0)
(9.58468 0.000589282 0)
(9.58468 0.000589278 0)
(9.58468 0.000589277 0)
(9.58468 0.000589279 0)
(9.58468 0.000589276 0)
(9.58468 0.000589278 0)
(9.58468 0.000589286 0)
(9.58468 0.000589289 0)
(9.58468 0.000589283 0)
(9.58468 0.000589269 0)
(9.58468 0.000589268 0)
(9.58468 0.000589278 0)
(9.58468 0.000589283 0)
(9.58468 0.000589282 0)
(9.58468 0.000589278 0)
(9.58468 0.00058928 0)
(9.58468 0.000589283 0)
(9.58468 0.000589276 0)
(9.58468 0.000589267 0)
(9.58468 0.000589263 0)
(9.58468 0.000589269 0)
(9.58468 0.000589279 0)
(9.58468 0.000589284 0)
(9.58468 0.000589283 0)
(9.58468 0.000589284 0)
(9.58468 0.000589286 0)
(9.58468 0.000589283 0)
(9.58468 0.00058928 0)
(9.58468 0.000589282 0)
(9.58468 0.000589286 0)
(9.58468 0.000589288 0)
(9.58468 0.000589283 0)
(9.58468 0.000589276 0)
(9.58468 0.000589274 0)
(9.58468 0.000589269 0)
(9.58468 0.000589266 0)
(9.58468 0.000589269 0)
(9.58468 0.000589271 0)
(9.58468 0.000589275 0)
(9.58468 0.000589273 0)
(9.58468 0.000589273 0)
(9.58468 0.000589283 0)
(9.58468 0.000589284 0)
(9.58468 0.000589282 0)
(9.58468 0.000589284 0)
(9.58468 0.000589286 0)
(9.58468 0.000589287 0)
(9.58468 0.000589276 0)
(9.58468 0.000589268 0)
(9.58468 0.000589256 0)
(9.58468 0.000589231 0)
(9.58468 0.000589087 0)
(9.58468 0.000588842 0)
(9.58468 0.000587667 0)
(9.58469 0.000585344 0)
(9.58469 0.000576869 0)
(9.58472 0.000553295 0)
(9.58477 0.000492017 0)
(9.58501 0.000281735 0)
(9.58544 -0.000231985 0)
(9.58729 -0.00181725 0)
(9.59123 -0.00561386 0)
(9.60406 -0.0170231 0)
(9.63874 -0.0504822 0)
(9.68839 -0.169469 0)
(9.39486 0.01129 0)
(9.42333 0.0181713 0)
(9.45861 0.0187774 0)
(9.49658 0.0183079 0)
(9.52912 0.0150426 0)
(9.55042 0.00944838 0)
(9.56347 0.00367782 0)
(9.57145 -0.00114363 0)
(9.57316 -0.0026294 0)
(9.57291 -0.00285415 0)
(9.57264 -0.00274908 0)
(9.57267 -0.00240904 0)
(9.57273 -0.00217594 0)
(9.57271 -0.00207629 0)
(9.57269 -0.00202947 0)
(9.57269 -0.00201107 0)
(9.5727 -0.00200258 0)
(9.5727 -0.00200009 0)
(9.5727 -0.00199903 0)
(9.5727 -0.00199871 0)
(9.5727 -0.00199855 0)
(9.5727 -0.00199851 0)
(9.5727 -0.0019985 0)
(9.5727 -0.00199849 0)
(9.5727 -0.00199849 0)
(9.5727 -0.00199849 0)
(9.5727 -0.00199849 0)
(9.5727 -0.00199849 0)
(9.5727 -0.00199849 0)
(9.5727 -0.0019985 0)
(9.5727 -0.0019985 0)
(9.5727 -0.0019985 0)
(9.5727 -0.0019985 0)
(9.5727 -0.0019985 0)
(9.5727 -0.0019985 0)
(9.5727 -0.00199849 0)
(9.5727 -0.00199849 0)
(9.5727 -0.00199849 0)
(9.5727 -0.00199849 0)
(9.5727 -0.00199849 0)
(9.5727 -0.00199849 0)
(9.5727 -0.00199849 0)
(9.5727 -0.0019985 0)
(9.5727 -0.0019985 0)
(9.5727 -0.0019985 0)
(9.5727 -0.0019985 0)
(9.5727 -0.00199849 0)
(9.5727 -0.00199849 0)
(9.5727 -0.00199849 0)
(9.5727 -0.0019985 0)
(9.5727 -0.0019985 0)
(9.5727 -0.00199849 0)
(9.5727 -0.0019985 0)
(9.5727 -0.0019985 0)
(9.5727 -0.0019985 0)
(9.57271 -0.0019985 0)
(9.57271 -0.00199849 0)
(9.57271 -0.00199849 0)
(9.57271 -0.00199849 0)
(9.57271 -0.00199849 0)
(9.57271 -0.00199849 0)
(9.57271 -0.00199849 0)
(9.57271 -0.00199849 0)
(9.57271 -0.00199849 0)
(9.57271 -0.00199849 0)
(9.57271 -0.00199849 0)
(9.57271 -0.0019985 0)
(9.57271 -0.0019985 0)
(9.57271 -0.0019985 0)
(9.57271 -0.0019985 0)
(9.57271 -0.0019985 0)
(9.57271 -0.00199849 0)
(9.57271 -0.00199849 0)
(9.57271 -0.00199849 0)
(9.57271 -0.00199849 0)
(9.57271 -0.0019985 0)
(9.57271 -0.00199849 0)
(9.57271 -0.00199849 0)
(9.57271 -0.0019985 0)
(9.57271 -0.0019985 0)
(9.57271 -0.0019985 0)
(9.57271 -0.0019985 0)
(9.57271 -0.0019985 0)
(9.57271 -0.0019985 0)
(9.57271 -0.00199851 0)
(9.57271 -0.00199854 0)
(9.57271 -0.00199865 0)
(9.57271 -0.00199889 0)
(9.57271 -0.00199983 0)
(9.57271 -0.00200187 0)
(9.57272 -0.00200916 0)
(9.57275 -0.00202792 0)
(9.57281 -0.002084 0)
(9.57302 -0.00224968 0)
(9.57344 -0.00272419 0)
(9.57498 -0.004125 0)
(9.57837 -0.00825934 0)
(9.58861 -0.0207026 0)
(9.61605 -0.0581798 0)
(9.6479 -0.182191 0)
(9.39428 0.00793123 0)
(9.42097 0.0131309 0)
(9.45588 0.0135156 0)
(9.49434 0.013187 0)
(9.5271 0.0107086 0)
(9.54722 0.00644813 0)
(9.55937 0.00214458 0)
(9.56568 -0.000502036 0)
(9.56614 -0.00120179 0)
(9.56496 -0.00136185 0)
(9.56369 -0.00117959 0)
(9.5633 -0.000858051 0)
(9.56308 -0.00059189 0)
(9.56289 -0.000424782 0)
(9.5628 -0.000340177 0)
(9.56279 -0.000305578 0)
(9.56278 -0.00029106 0)
(9.56278 -0.000285175 0)
(9.56278 -0.000282804 0)
(9.56278 -0.000282227 0)
(9.56278 -0.000281929 0)
(9.56278 -0.000281853 0)
(9.56278 -0.00028182 0)
(9.56278 -0.000281807 0)
(9.56278 -0.000281804 0)
(9.56278 -0.000281803 0)
(9.56278 -0.000281805 0)
(9.56278 -0.000281807 0)
(9.56278 -0.000281804 0)
(9.56278 -0.000281807 0)
(9.56278 -0.000281812 0)
(9.56278 -0.000281814 0)
(9.56278 -0.000281814 0)
(9.56278 -0.000281811 0)
(9.56278 -0.000281807 0)
(9.56278 -0.000281803 0)
(9.56278 -0.000281804 0)
(9.56278 -0.000281808 0)
(9.56278 -0.000281807 0)
(9.56278 -0.000281808 0)
(9.56278 -0.000281807 0)
(9.56278 -0.000281801 0)
(9.56278 -0.000281803 0)
(9.56278 -0.000281807 0)
(9.56278 -0.000281814 0)
(9.56278 -0.000281812 0)
(9.56278 -0.000281801 0)
(9.56278 -0.0002818 0)
(9.56278 -0.000281805 0)
(9.56278 -0.000281811 0)
(9.56278 -0.000281809 0)
(9.56278 -0.000281805 0)
(9.56278 -0.000281811 0)
(9.56278 -0.000281818 0)
(9.56278 -0.00028182 0)
(9.56278 -0.000281814 0)
(9.56278 -0.000281804 0)
(9.56278 -0.000281798 0)
(9.56278 -0.000281801 0)
(9.56278 -0.000281804 0)
(9.56278 -0.000281802 0)
(9.56278 -0.000281802 0)
(9.56278 -0.000281805 0)
(9.56278 -0.000281804 0)
(9.56278 -0.000281802 0)
(9.56278 -0.000281802 0)
(9.56278 -0.000281804 0)
(9.56278 -0.000281812 0)
(9.56278 -0.000281814 0)
(9.56278 -0.000281814 0)
(9.56278 -0.000281814 0)
(9.56278 -0.00028181 0)
(9.56278 -0.000281809 0)
(9.56278 -0.000281808 0)
(9.56278 -0.00028181 0)
(9.56278 -0.000281811 0)
(9.56278 -0.000281805 0)
(9.56278 -0.000281804 0)
(9.56278 -0.000281807 0)
(9.56278 -0.000281804 0)
(9.56279 -0.000281804 0)
(9.56279 -0.000281805 0)
(9.56279 -0.000281814 0)
(9.56279 -0.00028182 0)
(9.56279 -0.000281834 0)
(9.56279 -0.000281874 0)
(9.56279 -0.000282041 0)
(9.56279 -0.000282422 0)
(9.56279 -0.000283808 0)
(9.56279 -0.000287095 0)
(9.56279 -0.000298109 0)
(9.56281 -0.000327195 0)
(9.56284 -0.00041471 0)
(9.563 -0.000657521 0)
(9.56328 -0.00135685 0)
(9.56449 -0.00314747 0)
(9.56703 -0.00829651 0)
(9.5744 -0.0222675 0)
(9.59353 -0.0633046 0)
(9.60602 -0.189266 0)
(9.3939 0.00451476 0)
(9.41933 0.00754566 0)
(9.45388 0.00770665 0)
(9.49257 0.00753735 0)
(9.52576 0.00599012 0)
(9.54465 0.00341399 0)
(9.55603 0.000687604 0)
(9.56084 -0.00122397 0)
(9.56069 -0.00173326 0)
(9.5587 -0.0018628 0)
(9.55658 -0.00175883 0)
(9.55582 -0.00153823 0)
(9.55539 -0.00140068 0)
(9.55506 -0.00134708 0)
(9.55493 -0.00132195 0)
(9.55491 -0.00131102 0)
(9.5549 -0.00130756 0)
(9.55489 -0.00130665 0)
(9.55489 -0.0013062 0)
(9.55489 -0.00130601 0)
(9.55489 -0.00130595 0)
(9.55489 -0.00130593 0)
(9.55489 -0.00130593 0)
(9.55489 -0.00130592 0)
(9.55489 -0.00130592 0)
(9.55489 -0.00130592 0)
(9.55489 -0.00130592 0)
(9.55489 -0.00130593 0)
(9.55489 -0.00130592 0)
(9.55489 -0.00130593 0)
(9.55489 -0.00130593 0)
(9.55489 -0.00130593 0)
(9.55489 -0.00130593 0)
(9.55489 -0.00130593 0)
(9.55489 -0.00130593 0)
(9.55489 -0.00130592 0)
(9.55489 -0.00130592 0)
(9.55489 -0.00130592 0)
(9.55489 -0.00130592 0)
(9.55489 -0.00130592 0)
(9.55489 -0.00130592 0)
(9.55489 -0.00130592 0)
(9.55489 -0.00130593 0)
(9.55489 -0.00130593 0)
(9.55489 -0.00130593 0)
(9.55489 -0.00130592 0)
(9.55489 -0.00130591 0)
(9.55489 -0.00130592 0)
(9.55489 -0.00130593 0)
(9.55489 -0.00130593 0)
(9.55489 -0.00130593 0)
(9.55489 -0.00130593 0)
(9.55489 -0.00130593 0)
(9.5549 -0.00130593 0)
(9.5549 -0.00130592 0)
(9.5549 -0.00130592 0)
(9.5549 -0.00130592 0)
(9.5549 -0.00130592 0)
(9.5549 -0.00130592 0)
(9.5549 -0.00130592 0)
(9.5549 -0.00130592 0)
(9.5549 -0.00130592 0)
(9.5549 -0.00130592 0)
(9.5549 -0.00130593 0)
(9.5549 -0.00130593 0)
(9.5549 -0.00130593 0)
(9.5549 -0.00130593 0)
(9.5549 -0.00130593 0)
(9.5549 -0.00130593 0)
(9.5549 -0.00130593 0)
(9.5549 -0.00130592 0)
(9.5549 -0.00130592 0)
(9.5549 -0.00130592 0)
(9.5549 -0.00130592 0)
(9.5549 -0.00130592 0)
(9.5549 -0.00130592 0)
(9.5549 -0.00130592 0)
(9.5549 -0.00130593 0)
(9.5549 -0.00130593 0)
(9.5549 -0.00130593 0)
(9.5549 -0.00130593 0)
(9.5549 -0.00130593 0)
(9.5549 -0.00130593 0)
(9.5549 -0.00130594 0)
(9.5549 -0.00130595 0)
(9.5549 -0.00130599 0)
(9.5549 -0.00130612 0)
(9.5549 -0.00130646 0)
(9.5549 -0.00130763 0)
(9.5549 -0.00131047 0)
(9.55491 -0.00131998 0)
(9.55492 -0.00134418 0)
(9.55494 -0.00142151 0)
(9.55506 -0.00162632 0)
(9.55524 -0.00227855 0)
(9.55601 -0.0040103 0)
(9.55753 -0.00944051 0)
(9.56154 -0.0242647 0)
(9.5713 -0.0669126 0)
(9.56435 -0.190497 0)
(9.39372 0.000957881 0)
(9.41853 0.00137271 0)
(9.45289 0.00128557 0)
(9.4917 0.00128942 0)
(9.52505 0.000865759 0)
(9.54315 0.000133832 0)
(9.55411 -0.000663742 0)
(9.55767 -0.00118247 0)
(9.55719 -0.00130728 0)
(9.55464 -0.00131771 0)
(9.55195 -0.00123797 0)
(9.55089 -0.00110084 0)
(9.5503 -0.000986942 0)
(9.54988 -0.000905809 0)
(9.54972 -0.000861237 0)
(9.54968 -0.000843623 0)
(9.54967 -0.000835897 0)
(9.54966 -0.000832184 0)
(9.54966 -0.000830698 0)
(9.54966 -0.00083036 0)
(9.54966 -0.000830165 0)
(9.54966 -0.000830122 0)
(9.54966 -0.0008301 0)
(9.54966 -0.00083009 0)
(9.54966 -0.000830086 0)
(9.54966 -0.000830085 0)
(9.54966 -0.000830088 0)
(9.54966 -0.000830093 0)
(9.54966 -0.000830091 0)
(9.54966 -0.000830091 0)
(9.54966 -0.000830096 0)
(9.54966 -0.000830098 0)
(9.54966 -0.000830098 0)
(9.54966 -0.000830095 0)
(9.54966 -0.000830092 0)
(9.54966 -0.000830086 0)
(9.54966 -0.000830085 0)
(9.54966 -0.000830091 0)
(9.54966 -0.00083009 0)
(9.54966 -0.00083009 0)
(9.54966 -0.000830089 0)
(9.54966 -0.00083009 0)
(9.54966 -0.000830097 0)
(9.54966 -0.000830096 0)
(9.54966 -0.000830092 0)
(9.54966 -0.000830087 0)
(9.54966 -0.000830082 0)
(9.54966 -0.000830086 0)
(9.54966 -0.000830092 0)
(9.54966 -0.000830097 0)
(9.54966 -0.000830096 0)
(9.54966 -0.000830093 0)
(9.54966 -0.000830097 0)
(9.54966 -0.000830098 0)
(9.54966 -0.000830096 0)
(9.54966 -0.000830091 0)
(9.54966 -0.000830087 0)
(9.54966 -0.000830083 0)
(9.54966 -0.000830084 0)
(9.54966 -0.000830088 0)
(9.54966 -0.000830088 0)
(9.54966 -0.000830087 0)
(9.54966 -0.000830089 0)
(9.54966 -0.00083009 0)
(9.54966 -0.000830092 0)
(9.54966 -0.000830093 0)
(9.54966 -0.00083009 0)
(9.54966 -0.000830095 0)
(9.54966 -0.000830101 0)
(9.54966 -0.000830096 0)
(9.54966 -0.00083009 0)
(9.54966 -0.000830086 0)
(9.54966 -0.000830088 0)
(9.54966 -0.00083009 0)
(9.54966 -0.00083009 0)
(9.54966 -0.00083009 0)
(9.54966 -0.000830092 0)
(9.54966 -0.000830094 0)
(9.54966 -0.000830094 0)
(9.54966 -0.000830093 0)
(9.54966 -0.000830094 0)
(9.54966 -0.000830096 0)
(9.54966 -0.000830099 0)
(9.54966 -0.000830103 0)
(9.54966 -0.000830119 0)
(9.54966 -0.000830166 0)
(9.54966 -0.000830328 0)
(9.54966 -0.000830747 0)
(9.54966 -0.00083214 0)
(9.54967 -0.000835642 0)
(9.54967 -0.000847134 0)
(9.54967 -0.000876597 0)
(9.54967 -0.000970558 0)
(9.54972 -0.00121298 0)
(9.54974 -0.00196447 0)
(9.55003 -0.00386167 0)
(9.55035 -0.00963675 0)
(9.55062 -0.0249644 0)
(9.55078 -0.0676082 0)
(9.52353 -0.184686 0)
(9.39376 -0.00272272 0)
(9.41875 -0.00511036 0)
(9.4532 -0.00543539 0)
(9.49203 -0.00525082 0)
(9.52535 -0.00448232 0)
(9.54348 -0.00324681 0)
(9.55438 -0.00199532 0)
(9.55785 -0.00121128 0)
(9.55733 -0.000927322 0)
(9.55472 -0.000650645 0)
(9.55199 -0.000563993 0)
(9.55094 -0.000635888 0)
(9.55033 -0.000722452 0)
(9.54991 -0.000785326 0)
(9.54973 -0.000816656 0)
(9.5497 -0.000827758 0)
(9.54969 -0.000832528 0)
(9.54968 -0.00083485 0)
(9.54967 -0.000835649 0)
(9.54967 -0.000835797 0)
(9.54967 -0.000835874 0)
(9.54967 -0.000835886 0)
(9.54967 -0.000835894 0)
(9.54967 -0.000835894 0)
(9.54967 -0.000835896 0)
(9.54967 -0.000835895 0)
(9.54967 -0.000835895 0)
(9.54967 -0.000835901 0)
(9.54967 -0.000835902 0)
(9.54967 -0.0008359 0)
(9.54967 -0.000835902 0)
(9.54967 -0.000835906 0)
(9.54967 -0.000835909 0)
(9.54967 -0.000835906 0)
(9.54967 -0.0008359 0)
(9.54967 -0.000835896 0)
(9.54967 -0.000835897 0)
(9.54967 -0.000835899 0)
(9.54967 -0.000835894 0)
(9.54967 -0.000835893 0)
(9.54967 -0.000835897 0)
(9.54968 -0.000835904 0)
(9.54968 -0.000835913 0)
(9.54968 -0.000835909 0)
(9.54968 -0.0008359 0)
(9.54968 -0.000835891 0)
(9.54968 -0.000835886 0)
(9.54968 -0.000835892 0)
(9.54968 -0.0008359 0)
(9.54968 -0.000835908 0)
(9.54968 -0.000835912 0)
(9.54968 -0.00083591 0)
(9.54968 -0.000835908 0)
(9.54968 -0.000835902 0)
(9.54968 -0.000835893 0)
(9.54968 -0.000835888 0)
(9.54968 -0.000835891 0)
(9.54968 -0.000835893 0)
(9.54968 -0.000835896 0)
(9.54968 -0.000835899 0)
(9.54968 -0.000835898 0)
(9.54968 -0.000835897 0)
(9.54968 -0.000835901 0)
(9.54968 -0.000835904 0)
(9.54968 -0.000835907 0)
(9.54968 -0.00083591 0)
(9.54968 -0.000835905 0)
(9.54968 -0.000835905 0)
(9.54968 -0.000835908 0)
(9.54968 -0.0008359 0)
(9.54968 -0.000835888 0)
(9.54968 -0.000835883 0)
(9.54968 -0.000835886 0)
(9.54968 -0.000835891 0)
(9.54968 -0.000835894 0)
(9.54968 -0.000835895 0)
(9.54968 -0.000835903 0)
(9.54968 -0.000835909 0)
(9.54968 -0.000835911 0)
(9.54968 -0.000835909 0)
(9.54968 -0.000835912 0)
(9.54968 -0.000835917 0)
(9.54968 -0.000835915 0)
(9.54968 -0.000835913 0)
(9.54968 -0.000835926 0)
(9.54968 -0.000835975 0)
(9.54968 -0.000836136 0)
(9.54968 -0.000836559 0)
(9.54968 -0.00083793 0)
(9.54968 -0.000841458 0)
(9.54968 -0.000852875 0)
(9.54968 -0.000882253 0)
(9.54966 -0.000976121 0)
(9.54965 -0.00121748 0)
(9.54951 -0.00196693 0)
(9.54927 -0.0038695 0)
(9.54829 -0.00959943 0)
(9.54487 -0.0246746 0)
(9.53552 -0.0652909 0)
(9.49016 -0.171985 0)
(9.39403 -0.00635157 0)
(9.42001 -0.0113239 0)
(9.45485 -0.0118686 0)
(9.49355 -0.0115016 0)
(9.52658 -0.00960826 0)
(9.5455 -0.00651252 0)
(9.5569 -0.00330857 0)
(9.5614 -0.00135551 0)
(9.56117 -0.000930002 0)
(9.55905 -0.000937891 0)
(9.55678 -0.00107372 0)
(9.55595 -0.00119645 0)
(9.55548 -0.00126243 0)
(9.55513 -0.00128164 0)
(9.55499 -0.00129248 0)
(9.55497 -0.00129773 0)
(9.55496 -0.00129888 0)
(9.55495 -0.0012985 0)
(9.55495 -0.00129846 0)
(9.55495 -0.00129854 0)
(9.55495 -0.00129852 0)
(9.55495 -0.00129851 0)
(9.55495 -0.0012985 0)
(9.55495 -0.0012985 0)
(9.55495 -0.0012985 0)
(9.55495 -0.0012985 0)
(9.55495 -0.0012985 0)
(9.55495 -0.00129851 0)
(9.55495 -0.00129851 0)
(9.55495 -0.00129851 0)
(9.55495 -0.00129851 0)
(9.55495 -0.00129851 0)
(9.55495 -0.00129851 0)
(9.55495 -0.00129851 0)
(9.55495 -0.0012985 0)
(9.55495 -0.0012985 0)
(9.55495 -0.0012985 0)
(9.55495 -0.00129851 0)
(9.55495 -0.0012985 0)
(9.55495 -0.0012985 0)
(9.55495 -0.00129851 0)
(9.55495 -0.00129851 0)
(9.55495 -0.00129851 0)
(9.55495 -0.00129851 0)
(9.55495 -0.0012985 0)
(9.55495 -0.0012985 0)
(9.55495 -0.0012985 0)
(9.55495 -0.0012985 0)
(9.55495 -0.00129851 0)
(9.55495 -0.00129851 0)
(9.55495 -0.00129851 0)
(9.55495 -0.00129851 0)
(9.55495 -0.00129851 0)
(9.55495 -0.00129851 0)
(9.55495 -0.00129851 0)
(9.55495 -0.0012985 0)
(9.55495 -0.0012985 0)
(9.55495 -0.0012985 0)
(9.55495 -0.0012985 0)
(9.55495 -0.0012985 0)
(9.55495 -0.0012985 0)
(9.55495 -0.0012985 0)
(9.55495 -0.00129851 0)
(9.55495 -0.00129851 0)
(9.55495 -0.00129851 0)
(9.55495 -0.00129851 0)
(9.55495 -0.00129851 0)
(9.55495 -0.00129851 0)
(9.55495 -0.00129851 0)
(9.55495 -0.00129851 0)
(9.55495 -0.0012985 0)
(9.55495 -0.0012985 0)
(9.55495 -0.0012985 0)
(9.55495 -0.00129851 0)
(9.55495 -0.00129851 0)
(9.55495 -0.0012985 0)
(9.55495 -0.00129851 0)
(9.55495 -0.00129851 0)
(9.55495 -0.00129851 0)
(9.55495 -0.00129851 0)
(9.55495 -0.00129851 0)
(9.55495 -0.00129851 0)
(9.55495 -0.00129851 0)
(9.55495 -0.00129851 0)
(9.55495 -0.00129853 0)
(9.55495 -0.00129857 0)
(9.55495 -0.0012987 0)
(9.55495 -0.00129906 0)
(9.55495 -0.00130018 0)
(9.55495 -0.00130312 0)
(9.55495 -0.00131248 0)
(9.55494 -0.00133681 0)
(9.5549 -0.00141437 0)
(9.55482 -0.00161704 0)
(9.55452 -0.0022683 0)
(9.55381 -0.00400412 0)
(9.55163 -0.00933482 0)
(9.54496 -0.0234148 0)
(9.52764 -0.0605358 0)
(9.46732 -0.154778 0)
(9.39451 -0.00989235 0)
(9.42211 -0.0169776 0)
(9.45743 -0.0176801 0)
(9.49587 -0.0171466 0)
(9.5284 -0.014324 0)
(9.54856 -0.00954718 0)
(9.56056 -0.00482168 0)
(9.56641 -0.00146506 0)
(9.56677 -0.000266871 0)
(9.56534 0.000432908 0)
(9.56395 0.000541354 0)
(9.56351 0.000254573 0)
(9.56323 -1.15884e-05 0)
(9.563 -0.0001674 0)
(9.56289 -0.000243838 0)
(9.56287 -0.000273465 0)
(9.56287 -0.000285082 0)
(9.56286 -0.000289856 0)
(9.56286 -0.000291638 0)
(9.56286 -0.000292047 0)
(9.56286 -0.000292229 0)
(9.56286 -0.00029227 0)
(9.56286 -0.00029229 0)
(9.56286 -0.000292293 0)
(9.56286 -0.000292296 0)
(9.56286 -0.000292297 0)
(9.56286 -0.000292297 0)
(9.56286 -0.000292301 0)