/*--------------------------------*- C++ -*----------------------------------*\
| =========                 |                                                 |
| \\      /  F ield         | OpenFOAM: The Open Source CFD Toolbox           |
|  \\    /   O peration     | Version:  v2012                                 |
|   \\  /    A nd           | Website:  www.openfoam.com                      |
|    \\/     M anipulation  |                                                 |
\*---------------------------------------------------------------------------*/
FoamFile
{
    version     2.0;
    format      ascii;
    class       surfaceScalarField;
    location    "0.058";
    object      phi.air;
}
// * * * * * * * * * * * * * * * * * * * * * * * * * * * * * * * * * * * * * //

dimensions      [0 3 -1 0 0 0 0];
oriented        oriented;


internalField   nonuniform List<scalar> 
10964
(
0.0013369
2.84562e-05
0.00129795
3.81527e-05
0.00125294
4.4211e-05
0.00120454
4.75995e-05
0.00115608
4.76637e-05
0.00111005
4.52188e-05
0.00106818
4.10681e-05
0.0010316
3.57643e-05
0.00100018
3.06143e-05
0.000973635
2.57284e-05
0.000951933
2.08864e-05
0.000934816
1.62999e-05
0.000921841
1.21571e-05
0.000912416
8.60727e-06
0.000905896
5.70084e-06
0.000901548
3.53055e-06
0.000898759
1.9709e-06
0.000897036
9.04645e-07
0.000896005
2.13439e-07
0.000895386
-1.99017e-07
0.000894996
-4.26937e-07
0.000894704
-5.24521e-07
0.000894467
-5.79315e-07
0.000894286
-6.35612e-07
0.000894178
-7.08407e-07
0.000894149
-7.86794e-07
0.000894195
-8.61462e-07
0.000894283
-9.03618e-07
0.000894418
-9.51114e-07
0.000894587
-9.84175e-07
0.000894759
-9.87449e-07
0.000894904
-9.59953e-07
0.000895007
-9.17873e-07
0.000895029
-8.36322e-07
0.000894983
-7.68899e-07
0.000894891
-7.22484e-07
0.00089474
-6.63773e-07
0.00089457
-6.4484e-07
0.000894359
-6.04085e-07
0.000894146
-6.00884e-07
0.000893902
-5.71098e-07
0.000893669
-5.81098e-07
0.000893422
-5.67903e-07
0.000893194
-5.85861e-07
0.000892953
-5.74004e-07
0.000892755
-6.16629e-07
0.000892529
-5.8819e-07
0.000892351
-6.36471e-07
0.00089218
-6.43296e-07
0.000891989
-6.24022e-07
0.000891871
-6.95824e-07
0.000891691
-6.34478e-07
0.000891588
-7.11492e-07
0.000891426
-6.5197e-07
0.000891339
-7.27593e-07
0.000891202
-6.7786e-07
0.00089103
-6.4151e-07
0.000890902
-6.86623e-07
0.000890633
-5.45585e-07
0.000890458
-6.3927e-07
0.000890153
-5.08853e-07
0.000889969
-6.30696e-07
0.000889726
-5.7157e-07
0.000889539
-6.27571e-07
0.000889447
-7.21859e-07
0.000889251
-6.19057e-07
0.000889254
-8.16685e-07
0.000889125
-6.85071e-07
0.000889139
-8.28782e-07
0.000889088
-7.63126e-07
0.000889128
-8.54705e-07
0.000889165
-8.51882e-07
0.000889079
-7.28402e-07
0.000889262
-9.96767e-07
0.000889159
-7.11361e-07
0.000889288
-9.43848e-07
0.000889246
-7.71731e-07
0.000889307
-8.76427e-07
0.000889336
-8.42099e-07
0.000889186
-6.64795e-07
0.000889493
-1.12207e-06
0.000889182
-5.02463e-07
0.000889345
-9.77682e-07
0.000889268
-7.36399e-07
0.000889259
-8.06947e-07
0.000889285
-8.39387e-07
0.000889038
-5.68108e-07
0.000889368
-1.14375e-06
0.000888942
-3.87938e-07
0.000888966
-8.39144e-07
0.000889036
-8.84537e-07
0.000888584
-3.62345e-07
0.000889224
-1.4547e-06
0.000888188
2.22652e-07
0.00088888
-1.50844e-06
0.000887844
2.24591e-07
0.000888179
-1.15334e-06
0.000886903
4.6501e-07
0.00088131
4.77388e-06
-8.18937e-06
0.000888688
0.00151471
2.63037e-05
0.00151419
3.86744e-05
0.00151229
4.61138e-05
0.00150787
5.20162e-05
0.00150066
5.48777e-05
0.00149084
5.50334e-05
0.00147871
5.32025e-05
0.00146469
4.978e-05
0.00144939
4.59215e-05
0.00143335
4.1764e-05
0.00141694
3.72994e-05
0.00140048
3.27559e-05
0.00138432
2.8317e-05
0.00136879
2.41381e-05
0.00135416
2.03314e-05
0.00134058
1.71122e-05
0.00132817
1.43812e-05
0.00131699
1.20839e-05
0.00130703
1.01709e-05
0.00129823
8.60608e-06
0.00129049
7.30887e-06
0.00128374
6.22619e-06
0.0012779
5.2566e-06
0.00127294
4.33022e-06
0.00126866
3.57268e-06
0.00126493
2.94405e-06
0.00126166
2.40054e-06
0.00125882
1.94504e-06
0.00125627
1.58956e-06
0.00125392
1.36563e-06
0.00125173
1.21001e-06
0.00124966
1.1101e-06
0.00124773
1.0143e-06
0.00124592
9.72195e-07
0.00124423
9.2202e-07
0.00124266
8.3901e-07
0.00124123
7.71306e-07
0.00123991
6.77287e-07
0.00123868
6.21488e-07
0.00123755
5.29779e-07
0.0012365
4.80543e-07
0.00123553
3.89862e-07
0.00123463
3.32833e-07
0.0012338
2.43138e-07
0.00123303
1.91839e-07
0.00123232
9.1143e-08
0.00123165
8.42224e-08
0.00123102
-5.29415e-09
0.00123043
-4.79474e-08
0.00122984
-3.48217e-08
0.0012293
-1.59944e-07
0.00122878
-1.14682e-07
0.00122831
-2.42879e-07
0.00122788
-2.19884e-07
0.00122747
-3.12841e-07
0.00122707
-2.86339e-07
0.00122665
-2.15807e-07
0.00122625
-2.83561e-07
0.00122582
-1.16053e-07
0.00122539
-2.17942e-07
0.00122497
-8.67639e-08
0.00122459
-2.48702e-07
0.00122428
-2.60186e-07
0.00122395
-2.95278e-07
0.0012237
-4.73172e-07
0.0012235
-4.21937e-07
0.00122333
-6.45319e-07
0.00122322
-5.70876e-07
0.00122315
-7.65434e-07
0.00122311
-7.17915e-07
0.00122309
-8.40758e-07
0.00122311
-8.73232e-07
0.00122315
-7.59907e-07
0.00122315
-1.00047e-06
0.0012232
-7.65588e-07
0.00122325
-9.85959e-07
0.00122327
-8.00155e-07
0.00122329
-8.92861e-07
0.00122334
-8.93776e-07
0.00122334
-6.61517e-07
0.00122329
-1.07349e-06
0.00122335
-5.60965e-07
0.0012233
-9.3232e-07
0.00122328
-7.13144e-07
0.00122323
-7.53683e-07
0.00122325
-8.58365e-07
0.00122315
-4.71741e-07
0.00122304
-1.03713e-06
0.00122307
-4.20029e-07
0.00122293
-6.95381e-07
0.0012229
-8.52406e-07
0.00122272
-1.81912e-07
0.00122265
-1.38634e-06
0.00122264
2.34156e-07
0.0012221
-9.69074e-07
0.00122249
-1.70835e-07
0.00122122
1.19825e-07
0.00122214
-4.50746e-07
0.00122061
6.30466e-06
-9.28904e-06
0.00122171
0.00167798
2.29947e-05
0.00168095
3.5698e-05
0.00168479
4.22719e-05
0.00168871
4.81019e-05
0.0016922
5.13829e-05
0.00169502
5.22164e-05
0.00169688
5.13466e-05
0.0016974
4.92532e-05
0.00169659
4.67331e-05
0.00169455
4.38084e-05
0.00169109
4.07534e-05
0.00168615
3.76987e-05
0.00167972
3.47495e-05
0.00167183
3.20221e-05
0.00166265
2.9516e-05
0.00165232
2.74394e-05
0.00164113
2.55741e-05
0.0016294
2.38118e-05
0.00161745
2.21174e-05
0.00160563
2.04313e-05
0.00159422
1.8713e-05
0.00158345
1.6999e-05
0.00157343
1.52772e-05
0.00156428
1.34857e-05
0.00155601
1.18415e-05
0.0015486
1.03473e-05
0.00154197
9.03469e-06
0.00153603
7.88019e-06
0.00153065
6.97476e-06
0.00152574
6.27076e-06
0.00152124
5.71744e-06
0.00151713
5.22065e-06
0.00151338
4.75995e-06
0.00150996
4.38842e-06
0.00150687
4.02082e-06
0.00150405
3.65747e-06
0.00150148
3.33399e-06
0.00149914
3.02209e-06
0.00149699
2.77398e-06
0.00149501
2.50288e-06
0.0014932
2.29831e-06
0.00149152
2.0614e-06
0.00148999
1.8645e-06
0.00148857
1.66918e-06
0.00148725
1.50611e-06
0.001486
1.34443e-06
0.00148484
1.24176e-06
0.00148371
1.12168e-06
0.00148269
9.79495e-07
0.00148169
9.61204e-07
0.00148076
7.67968e-07
0.0014799
7.49258e-07
0.00147908
5.77345e-07
0.00147837
4.86693e-07
0.00147764
4.24209e-07
0.00147701
3.42133e-07
0.00147634
4.53395e-07
0.00147572
3.33324e-07
0.00147511
4.94672e-07
0.00147449
3.98854e-07
0.00147395
4.52279e-07
0.00147338
3.21068e-07
0.00147299
1.38539e-07
0.00147251
1.77842e-07
0.00147215
-1.1142e-07
0.00147189
-1.64622e-07
0.00147165
-3.98595e-07
0.00147151
-4.31151e-07
0.00147137
-6.32629e-07
0.00147135
-6.97216e-07
0.00147127
-7.52841e-07
0.00147129
-8.97851e-07
0.00147133
-7.95178e-07
0.00147132
-9.92613e-07
0.0014714
-8.48084e-07
0.00147141
-9.9075e-07
0.0014715
-8.90507e-07
0.00147143
-8.28834e-07
0.00147155
-1.01618e-06
0.00147158
-6.83558e-07
0.00147148
-9.75956e-07
0.00147156
-6.46441e-07
0.00147146
-8.31481e-07
0.0014715
-7.50861e-07
0.00147134
-5.8781e-07
0.00147144
-9.6384e-07
0.00147138
-4.14533e-07
0.00147116
-8.17467e-07
0.00147123
-4.87893e-07
0.00147103
-4.98331e-07
0.00147105
-8.6591e-07
0.00147087
-6.63739e-09
0.00147064
-1.15595e-06
0.00147083
4.5603e-08
0.0014701
-2.41103e-07
0.00147049
-5.62732e-07
0.0014696
1.01305e-06
0.00147006
-9.10649e-07
0.0014709
5.46177e-06
-5.96948e-06
0.00146758
0.00185751
1.96279e-05
0.00186114
3.20695e-05
0.00186581
3.76054e-05
0.00187104
4.28727e-05
0.00187643
4.59886e-05
0.00188185
4.6801e-05
0.00188704
4.61536e-05
0.00189181
4.44782e-05
0.00189614
4.2406e-05
0.00189994
4.00106e-05
0.00190315
3.75397e-05
0.00190574
3.5114e-05
0.00190766
3.28276e-05
0.00190887
3.08146e-05
0.00190927
2.91124e-05
0.0019088
2.79086e-05
0.00190751
2.68626e-05
0.00190527
2.6052e-05
0.00190201
2.53803e-05
0.00189767
2.47685e-05
0.00189225
2.41348e-05
0.00188576
2.34908e-05
0.00187825
2.27854e-05
0.00186986
2.1878e-05
0.0018608
2.08973e-05
0.0018514
1.97451e-05
0.00184189
1.85532e-05
0.00183258
1.7185e-05
0.00182369
1.58698e-05
0.00181545
1.45038e-05
0.00180786
1.33151e-05
0.00180095
1.21258e-05
0.00179466
1.10548e-05
0.00178893
1.01134e-05
0.00178373
9.22235e-06
0.00177891
8.47358e-06
0.00177445
7.79868e-06
0.00177031
7.15557e-06
0.00176648
6.60784e-06
0.00176294
6.04556e-06
0.00175967
5.56897e-06
0.00175664
5.08778e-06
0.00175387
4.63859e-06
0.00175129
4.24846e-06
0.00174895
3.84268e-06
0.00174676
3.53243e-06
0.0017448
3.20664e-06
0.00174289
3.02847e-06
0.00174117
2.69716e-06
0.00173955
2.58671e-06
0.00173802
2.29159e-06
0.00173662
2.15009e-06
0.00173528
1.92281e-06
0.00173412
1.6425e-06
0.00173291
1.63463e-06
0.00173189
1.36771e-06
0.00173084
1.49622e-06
0.00172988
1.29576e-06
0.00172897
1.40461e-06
0.00172806
1.31272e-06
0.0017273
1.20866e-06
0.00172648
1.14369e-06
0.0017259
7.1223e-07
0.00172525
8.37063e-07
0.00172474
3.91625e-07
0.00172438
1.9856e-07
0.00172405
-6.88741e-08
0.00172386
-2.39927e-07
0.00172366
-4.3043e-07
0.00172364
-6.79032e-07
0.00172349
-6.08383e-07
0.00172351
-9.09961e-07
0.00172352
-8.12621e-07
0.00172352
-9.92971e-07
0.00172362
-9.40046e-07
0.00172361
-9.81607e-07
0.00172375
-1.03384e-06
0.00172363
-7.07813e-07
0.00172378
-1.16267e-06
0.0017238
-7.11066e-07
0.00172372
-8.93871e-07
0.00172379
-7.18157e-07
0.00172367
-7.12028e-07
0.00172376
-8.42312e-07
0.00172353
-3.53263e-07
0.00172365
-1.08423e-06
0.0017236
-3.61717e-07
0.00172337
-5.86351e-07
0.00172341
-5.29246e-07
0.00172318
-2.73394e-07
0.00172323
-9.18163e-07
0.00172303
1.97678e-07
0.00172277
-8.97261e-07
0.00172298
-1.58373e-07
0.00172246
2.74482e-07
0.00172255
-6.56036e-07
0.00172248
1.08258e-06
0.0017223
-7.30797e-07
0.00172353
4.23172e-06
-2.63547e-06
0.0017202
0.0020562
1.62904e-05
0.00206034
2.79293e-05
0.00206546
3.24806e-05
0.00207129
3.70471e-05
0.0020774
3.98726e-05
0.00208362
4.05831e-05
0.00208973
4.00414e-05
0.00209559
3.86251e-05
0.00210115
3.68477e-05
0.00210635
3.48029e-05
0.0021112
3.26939e-05
0.00211568
3.06316e-05
0.00211981
2.86979e-05
0.00212361
2.70176e-05
0.0021271
2.56162e-05
0.00213035
2.46638e-05
0.00213333
2.38862e-05
0.00213606
2.33214e-05
0.00213851
2.29235e-05
0.00214067
2.26087e-05
0.00214246
2.23476e-05
0.00214381
2.21393e-05
0.00214463
2.1964e-05
0.00214474
2.17752e-05
0.00214413
2.15007e-05
0.00214273
2.11509e-05
0.00214042
2.08557e-05
0.00213718
2.04246e-05
0.00213304
2.00112e-05
0.00212811
1.94387e-05
0.00212251
1.8917e-05
0.00211636
1.82674e-05
0.00210981
1.76127e-05
0.00210302
1.68962e-05
0.00209603
1.62174e-05
0.00208919
1.5309e-05
0.0020825
1.44932e-05
0.00207614
1.3517e-05
0.00207009
1.26568e-05
0.00206442
1.17136e-05
0.00205913
1.08571e-05
0.00205417
1.00489e-05
0.00204961
9.19971e-06
0.00204529
8.56829e-06
0.00204139
7.74505e-06
0.00203763
7.2928e-06
0.00203421
6.62002e-06
0.00203091
6.33303e-06
0.00202788
5.73004e-06
0.00202507
5.39534e-06
0.00202241
4.95181e-06
0.00202
4.55458e-06
0.00201763
4.2993e-06
0.00201556
3.71004e-06
0.00201344
3.75434e-06
0.00201157
3.23531e-06
0.00200981
3.25982e-06
0.00200813
2.97091e-06
0.00200664
2.89808e-06
0.00200513
2.82325e-06
0.00200393
2.41125e-06
0.0020026
2.47208e-06
0.00200162
1.69105e-06
0.0020007
1.7593e-06
0.00199995
1.13632e-06
0.00199945
6.99682e-07
0.00199897
4.13448e-07
0.00199873
1.31368e-09
0.00199841
-1.13516e-07
0.00199837
-6.33848e-07
0.00199819
-4.3587e-07
0.00199814
-8.59156e-07
0.00199816
-8.27638e-07
0.00199813
-9.63106e-07
0.00199825
-1.06351e-06
0.00199819
-9.16575e-07
0.00199838
-1.22308e-06
0.00199827
-6.04066e-07
0.00199835
-1.23783e-06
0.00199843
-7.91189e-07
0.00199834
-8.0287e-07
0.00199845
-8.30606e-07
0.00199829
-5.54045e-07
0.00199845
-9.98091e-07
0.00199824
-1.43249e-07
0.00199821
-1.06268e-06
0.00199826
-4.02102e-07
0.00199801
-3.41894e-07
0.00199808
-6.00067e-07
0.00199788
-6.77068e-08
0.00199789
-9.28759e-07
0.00199786
2.28315e-07
0.00199752
-5.6516e-07
0.00199781
-4.49164e-07
0.00199764
4.47479e-07
0.00199759
-6.00545e-07
0.00199792
7.4801e-07
0.00199738
-1.93705e-07
0.00199825
3.3672e-06
-1.30272e-06
0.00199692
0.00227616
1.29996e-05
0.00228085
2.32396e-05
0.00228646
2.68763e-05
0.00229284
3.06605e-05
0.00229961
3.31092e-05
0.00230649
3.37043e-05
0.00231328
3.32463e-05
0.00231982
3.2083e-05
0.00232606
3.06144e-05
0.00233194
2.89175e-05
0.00233749
2.71459e-05
0.0023427
2.54245e-05
0.00234754
2.3854e-05
0.00235207
2.24855e-05
0.00235639
2.12999e-05
0.00236056
2.04933e-05
0.00236458
1.98679e-05
0.0023685
1.93977e-05
0.00237235
1.907e-05
0.00237612
1.8839e-05
0.00237979
1.86814e-05
0.00238337
1.85613e-05
0.00238687
1.84637e-05
0.00239027
1.83726e-05
0.00239354
1.82341e-05
0.00239661
1.80766e-05
0.00239951
1.79546e-05
0.00240212
1.78152e-05
0.00240446
1.76702e-05
0.00240642
1.74851e-05
0.00240798
1.73554e-05
0.00240907
1.71763e-05
0.00240954
1.71413e-05
0.00240938
1.70542e-05
0.00240864
1.69591e-05
0.00240728
1.66668e-05
0.00240531
1.64716e-05
0.00240275
1.60693e-05
0.00239965
1.57572e-05
0.0023961
1.52645e-05
0.00239213
1.483e-05
0.00238783
1.43499e-05
0.00238329
1.37384e-05
0.00237854
1.33173e-05
0.00237375
1.25308e-05
0.00236881
1.22393e-05
0.00236403
1.13941e-05
0.00235934
1.10228e-05
0.00235486
1.02129e-05
0.00235069
9.56776e-06
0.00234662
9.02384e-06
0.00234299
8.17698e-06
0.00233925
8.04286e-06
0.00233593
7.02872e-06
0.00233263
7.06162e-06
0.00232949
6.37175e-06
0.00232668
6.06805e-06
0.00232381
5.84097e-06
0.00232132
5.38649e-06
0.00231874
5.4018e-06
0.00231662
4.53023e-06
0.00231453
4.5713e-06
0.00231282
3.39457e-06
0.00231149
3.09178e-06
0.00231036
2.26945e-06
0.00230965
1.40882e-06
0.00230892
1.1441e-06
0.0023086
3.1559e-07
0.00230815
3.42908e-07
0.00230795
-4.40387e-07
0.0023078
-2.85941e-07
0.00230767
-7.22441e-07
0.00230771
-8.75946e-07
0.00230761
-8.60815e-07
0.00230778
-1.23287e-06
0.00230766
-7.93576e-07
0.00230776
-1.32151e-06
0.00230782
-6.65155e-07
0.0023078
-1.21797e-06
0.00230797
-9.60776e-07
0.00230783
-6.65448e-07
0.00230807
-1.07234e-06
0.00230791
-3.96349e-07
0.00230794
-1.02527e-06
0.002308
-2.04828e-07
0.00230786
-9.1715e-07
0.00230805
-5.93271e-07
0.00230778
-7.58681e-08
0.00230796
-7.75552e-07
0.00230803
-1.42862e-07
0.00230789
-7.87828e-07
0.00230826
-1.3756e-07
0.00230791
-2.13011e-07
0.00230822
-7.61985e-07
0.0023085
1.61813e-07
0.00230843
-5.24414e-07
0.00230901
1.64531e-07
0.00230855
2.68062e-07
0.00230941
2.50748e-06
-9.9923e-07
0.00230911
0.00251975
9.70968e-06
0.002525
1.79925e-05
0.00253114
2.07361e-05
0.00253814
2.36652e-05
0.0025456
2.56431e-05
0.0025532
2.61075e-05
0.0025607
2.57461e-05
0.00256792
2.48593e-05
0.00257483
2.37061e-05
0.00258138
2.23664e-05
0.00258753
2.0998e-05
0.00259328
1.96777e-05
0.00259869
1.84447e-05
0.00260381
1.73571e-05
0.00260867
1.64397e-05
0.00261334
1.58315e-05
0.00261787
1.53352e-05
0.00262233
1.4936e-05
0.00262673
1.46684e-05
0.00263107
1.44976e-05
0.00263537
1.43855e-05
0.00263963
1.43017e-05
0.00264386
1.42313e-05
0.00264806
1.41747e-05
0.00265222
1.40699e-05
0.00265634
1.39646e-05
0.00266042
1.38738e-05
0.00266444
1.37867e-05
0.00266843
1.36889e-05
0.00267233
1.35821e-05
0.00267619
1.34956e-05
0.00267994
1.3427e-05
0.00268366
1.34201e-05
0.00268723
1.34862e-05
0.00269074
1.345e-05
0.002694
1.34072e-05
0.00269717
1.32996e-05
0.0027
1.32393e-05
0.00270266
1.30929e-05
0.00270493
1.29918e-05
0.0027069
1.2862e-05
0.00270851
1.27405e-05
0.00270958
1.26722e-05
0.00271036
1.25334e-05
0.00271043
1.24674e-05
0.00271027
1.23905e-05
0.00270957
1.20969e-05
0.00270856
1.20388e-05
0.00270702
1.17535e-05
0.00270524
1.13475e-05
0.00270311
1.11493e-05
0.00270072
1.05675e-05
0.00269825
1.05131e-05
0.00269535
9.92425e-06
0.00269242
9.99538e-06
0.00268902
9.76882e-06
0.00268574
9.35029e-06
0.00268213
9.45267e-06
0.00267871
8.8086e-06
0.0026755
8.60979e-06
0.0026725
7.52435e-06
0.00267009
6.9879e-06
0.00266778
5.70092e-06
0.00266625
4.62016e-06
0.00266468
3.84317e-06
0.00266366
2.42843e-06
0.00266288
1.92423e-06
0.00266231
8.8981e-07
0.00266198
6.71577e-07
0.00266162
-8.0742e-08
0.00266162
-2.83991e-07
0.00266129
-3.96271e-07
0.00266131
-8.95494e-07
0.00266117
-7.27053e-07
0.00266118
-1.2342e-06
0.0026613
-9.16352e-07
0.00266124
-1.2656e-06
0.00266158
-1.00048e-06
0.00266128
-9.16891e-07
0.00266156
-1.23843e-06
0.00266146
-5.73569e-07
0.00266148
-1.08773e-06
0.00266165
-5.64649e-07
0.00266158
-9.5672e-07
0.00266214
-7.65343e-07
0.00266179
-5.71503e-07
0.00266229
-1.08985e-06
0.00266245
-2.39126e-07
0.00266254
-8.59874e-07
0.00266302
-6.27322e-07
0.00266279
-5.56469e-07
0.0026636
-9.50915e-07
0.00266354
-1.47817e-07
0.00266372
-9.39902e-07
0.00266426
-3.83845e-07
0.00266423
-4.88394e-07
0.0026648
-4.05439e-07
0.00266477
2.98184e-07
0.00266553
1.74004e-06
-9.27525e-07
0.00266546
0.00278949
6.38119e-06
0.00279533
1.21469e-05
0.00280208
1.39855e-05
0.00280975
1.59974e-05
0.002818
1.73965e-05
0.00282639
1.77148e-05
0.00283466
1.74775e-05
0.00284265
1.6871e-05
0.0028503
1.60584e-05
0.00285753
1.5137e-05
0.00286433
1.41931e-05
0.00287072
1.32845e-05
0.00287673
1.2441e-05
0.00288239
1.16915e-05
0.00288778
1.10542e-05
0.00289298
1.06266e-05
0.00289805
1.02676e-05
0.00290301
9.9778e-06
0.00290787
9.80849e-06
0.00291266
9.70307e-06
0.00291744
9.61075e-06
0.00292219
9.5464e-06
0.00292692
9.50392e-06
0.00293162
9.47212e-06
0.00293629
9.40342e-06
0.00294092
9.33056e-06
0.00294554
9.26215e-06
0.00295012
9.19932e-06
0.00295468
9.13455e-06
0.0029592
9.06527e-06
0.00296369
9.00433e-06
0.00296815
8.95933e-06
0.00297262
8.95342e-06
0.00297709
9.02166e-06
0.00298153
9.00426e-06
0.00298595
8.98813e-06
0.00299034
8.91075e-06
0.00299468
8.9029e-06
0.00299897
8.79911e-06
0.0030032
8.7634e-06
0.00300738
8.68282e-06
0.00301147
8.65161e-06
0.00301548
8.65942e-06
0.00301942
8.58698e-06
0.00302323
8.66123e-06
0.00302705
8.56777e-06
0.00303055
8.60442e-06
0.0030341
8.48375e-06
0.00303734
8.5195e-06
0.00304036
8.31825e-06
0.00304323
8.28175e-06
0.0030456
8.20009e-06
0.0030481
8.00794e-06
0.00304986
8.16439e-06
0.00305189
7.97471e-06
0.00305334
8.31357e-06
0.00305427
8.4232e-06
0.00305503
8.69433e-06
0.00305517
8.66559e-06
0.0030553
8.47609e-06
0.00305493
7.89683e-06
0.00305482
7.09935e-06
0.00305424
6.28078e-06
0.00305392
4.93659e-06
0.00305356
4.20763e-06
0.00305322
2.76667e-06
0.00305308
2.06633e-06
0.00305277
1.19798e-06
0.00305291
5.26139e-07
0.00305255
2.78965e-07
0.00305284
-5.70165e-07
0.00305274
-2.92878e-07
0.00305278
-9.40417e-07
0.00305291
-8.50892e-07
0.00305283
-1.15752e-06
0.00305319
-1.27164e-06
0.00305283
-9.11566e-07
0.00305339
-1.56403e-06
0.00305309
-6.17024e-07
0.00305324
-1.38071e-06
0.00305344
-7.76225e-07
0.00305337
-1.01786e-06
0.00305378
-9.79393e-07
0.0030534
-5.76064e-07
0.00305398
-1.33688e-06
0.00305366
-2.59286e-07
0.00305379
-1.21831e-06
0.00305417
-6.16051e-07
0.00305402
-7.11836e-07
0.00305439
-9.96543e-07
0.00305413
-2.97752e-07
0.00305443
-1.2515e-06
0.00305463
-3.43312e-07
0.00305445
-7.57978e-07
0.00305472
-6.63281e-07
0.00305471
-4.74212e-07
0.00305483
-5.24644e-07
0.00305494
1.87106e-07
0.00305528
1.40188e-06
-1.05748e-06
0.00305541
0.0030882
2.94188e-06
0.00309469
5.65609e-06
0.00310214
6.54115e-06
0.00311056
7.57334e-06
0.00311967
8.28982e-06
0.00312894
8.43876e-06
0.00313811
8.31323e-06
0.00314696
8.01563e-06
0.00315539
7.63023e-06
0.00316337
7.15547e-06
0.00317091
6.65568e-06
0.003178
6.19808e-06
0.00318464
5.7924e-06
0.00319091
5.42836e-06
0.00319688
5.08029e-06
0.00320267
4.83915e-06
0.00320829
4.64716e-06
0.00321376
4.5088e-06
0.00321913
4.43973e-06
0.00322446
4.37398e-06
0.00322976
4.30678e-06
0.00323503
4.28161e-06
0.00324025
4.2796e-06
0.00324545
4.27343e-06
0.00325062
4.23261e-06
0.00325577
4.17905e-06
0.00326089
4.13868e-06
0.00326597
4.12296e-06
0.003271
4.1005e-06
0.00327602
4.05179e-06
0.00328101
4.00707e-06
0.00328599
3.9809e-06
0.00329097
3.97472e-06
0.00329596
4.03115e-06
0.00330094
4.02865e-06
0.00330591
4.02067e-06
0.00331084
3.98058e-06
0.00331575
3.98852e-06
0.00332062
3.92693e-06
0.00332548
3.90169e-06
0.0033303
3.87146e-06
0.00333508
3.87177e-06
0.00333984
3.89657e-06
0.00334458
3.84189e-06
0.00334934
3.90053e-06
0.00335407
3.84241e-06
0.00335878
3.89613e-06
0.00336345
3.81253e-06
0.00336811
3.85945e-06
0.00337267
3.75884e-06
0.00337719
3.75991e-06
0.0033816
3.79064e-06
0.00338599
3.61632e-06
0.00339035
3.80753e-06
0.00339469
3.63621e-06
0.00339907
3.92708e-06
0.0034035
3.99304e-06
0.00340796
4.2367e-06
0.00341231
4.32072e-06
0.00341652
4.26451e-06
0.00342029
4.12511e-06
0.0034239
3.48524e-06
0.00342685
3.33162e-06
0.00342942
2.36541e-06
0.00343158
2.0536e-06
0.00343309
1.25759e-06
0.00343436
7.97311e-07
0.00343504
5.12199e-07
0.00343567
-1.00148e-07
0.00343596
-1.64184e-08
0.00343615
-7.59853e-07
0.00343637
-5.07223e-07
0.00343633
-9.01616e-07
0.00343639
-9.11849e-07
0.00343624
-1.01183e-06
0.00343622
-1.24395e-06
0.0034361
-7.95722e-07
0.00343598
-1.44017e-06
0.00343602
-6.63427e-07
0.00343587
-1.22427e-06
0.00343597
-8.82199e-07
0.00343584
-8.87086e-07
0.00343587
-1.01023e-06
0.00343582
-5.20598e-07
0.00343571
-1.22872e-06
0.00343584
-3.87799e-07
0.00343564
-1.01687e-06
0.00343574
-7.20902e-07
0.00343565
-6.2133e-07
0.00343564
-9.8655e-07
0.00343573
-3.92307e-07
0.00343552
-1.03949e-06
0.00343567
-4.9286e-07
0.00343554
-6.24066e-07
0.00343558
-7.05543e-07
0.00343563
-5.20036e-07
0.00343558
-4.77444e-07
0.00343566
1.09551e-07
0.00343604
1.01999e-06
-1.4497e-06
0.00343643
0.00341904
-7.28577e-07
0.00342623
-1.5424e-06
0.00343446
-1.68592e-06
0.00344375
-1.71148e-06
0.00345382
-1.78174e-06
0.00346408
-1.82313e-06
0.00347421
-1.81231e-06
0.00348402
-1.79452e-06
0.00349337
-1.72539e-06
0.0035022
-1.67416e-06
0.00351053
-1.66896e-06
0.00351836
-1.63848e-06
0.00352573
-1.57091e-06
0.00353268
-1.52185e-06
0.0035393
-1.54536e-06
0.00354569
-1.54873e-06
0.00355189
-1.55588e-06
0.00355796
-1.56088e-06
0.00356394
-1.53841e-06
0.00356985
-1.53965e-06
0.00357572
-1.55685e-06
0.00358154
-1.54145e-06
0.00358733
-1.51039e-06
0.00359309
-1.4889e-06
0.00359881
-1.48521e-06
0.00360449
-1.50387e-06
0.00361015
-1.52226e-06
0.00361579
-1.51126e-06
0.00362138
-1.49525e-06
0.00362694
-1.50118e-06
0.00363246
-1.5163e-06
0.00363797
-1.52767e-06
0.00364349
-1.54141e-06
0.00364902
-1.50103e-06
0.00365453
-1.48282e-06
0.00366002
-1.46607e-06
0.00366547
-1.47323e-06
0.00367092
-1.45777e-06
0.00367632
-1.47974e-06
0.0036817
-1.47641e-06
0.00368704
-1.46849e-06
0.00369236
-1.45135e-06
0.00369768
-1.41627e-06
0.00370297
-1.44904e-06
0.00370827
-1.40694e-06
0.00371355
-1.4307e-06
0.00371883
-1.38775e-06
0.00372406
-1.41978e-06
0.00372929
-1.3663e-06
0.00373444
-1.39144e-06
0.00373956
-1.36399e-06
0.00374465
-1.29386e-06
0.00374967
-1.40973e-06
0.00375475
-1.2731e-06
0.00375978
-1.3924e-06
0.00376496
-1.2511e-06
0.00377019
-1.23403e-06
0.0037756
-1.17493e-06
0.00378109
-1.17234e-06
0.00378653
-1.17289e-06
0.00379174
-1.0795e-06
0.00379647
-1.24442e-06
0.00380077
-9.68431e-07
0.00380431
-1.17468e-06
0.00380729
-9.34992e-07
0.00380957
-1.02222e-06
0.00381128
-9.09907e-07
0.00381251
-7.18865e-07
0.00381325
-8.34137e-07
0.0038138
-5.72103e-07
0.00381394
-9.02772e-07
0.0038141
-6.58899e-07
0.00381399
-7.97729e-07
0.00381388
-7.9718e-07
0.00381364
-7.69656e-07
0.00381332
-9.32043e-07
0.00381317
-6.41133e-07
0.00381279
-1.06347e-06
0.00381275
-6.16809e-07
0.00381246
-9.42435e-07
0.00381239
-8.09512e-07
0.00381227
-7.69477e-07
0.00381217
-9.04052e-07
0.00381221
-5.60974e-07
0.00381203
-1.04752e-06
0.00381216
-5.16268e-07
0.00381202
-8.8431e-07
0.00381207
-7.69571e-07
0.00381206
-6.13006e-07
0.00381201
-9.32407e-07
0.00381212
-4.98622e-07
0.00381201
-9.34154e-07
0.0038121
-5.85862e-07
0.00381208
-6.05753e-07
0.0038121
-7.23961e-07
0.00381211
-5.32016e-07
0.00381213
-4.93814e-07
0.00381225
-6.90239e-09
0.00381276
5.11061e-07
-1.96711e-06
0.00381327
0.00341907
-4.43022e-06
0.00342628
-8.75329e-06
0.00343451
-9.91441e-06
0.0034438
-1.10013e-05
0.00345387
-1.18557e-05
0.00346414
-1.2091e-05
0.00347426
-1.19366e-05
0.00348406
-1.15891e-05
0.00349341
-1.10821e-05
0.00350228
-1.0537e-05
0.00351062
-1.00086e-05
0.00351844
-9.4632e-06
0.0035258
-8.92733e-06
0.00353275
-8.47452e-06
0.00353938
-8.17551e-06
0.00354575
-7.92175e-06
0.00355194
-7.74104e-06
0.00355801
-7.63173e-06
0.00356401
-7.53486e-06
0.00356993
-7.46508e-06
0.00357578
-7.40455e-06
0.00358158
-7.34123e-06
0.00358736
-7.29495e-06
0.00359313
-7.25592e-06
0.00359885
-7.20804e-06
0.00360454
-7.19153e-06
0.0036102
-7.18551e-06
0.00361583
-7.14129e-06
0.00362143
-7.0879e-06
0.00362698
-7.05837e-06
0.00363251
-7.0466e-06
0.00363803
-7.04216e-06
0.00364355
-7.06048e-06
0.00364907
-7.0212e-06
0.00365457
-6.98906e-06
0.00366007
-6.96728e-06
0.00366555
-6.95058e-06
0.003671
-6.90597e-06
0.0036764
-6.88423e-06
0.00368178
-6.8478e-06
0.00368711
-6.80653e-06
0.00369244
-6.77292e-06
0.00369775
-6.72803e-06
0.00370304
-6.743e-06
0.00370834
-6.70965e-06
0.00371362
-6.70726e-06
0.0037189
-6.66645e-06
0.00372414
-6.65701e-06
0.00372935
-6.57983e-06
0.0037345
-6.5445e-06
0.00373962
-6.47873e-06
0.0037447
-6.37169e-06
0.00374973
-6.44223e-06
0.00375479
-6.33561e-06
0.00375983
-6.43421e-06
0.00376499
-6.4042e-06
0.00377021
-6.46186e-06
0.00377561
-6.57171e-06
0.00378109
-6.64917e-06
0.00378652
-6.6006e-06
0.00379169
-6.25595e-06
0.00379643
-5.97871e-06
0.00380068
-5.22094e-06
0.00380423
-4.72314e-06
0.00380718
-3.88884e-06
0.00380946
-3.29788e-06
0.00381116
-2.61413e-06
0.00381237
-1.93038e-06
0.00381313
-1.58881e-06
0.00381365
-1.09623e-06
0.00381382
-1.06982e-06
0.00381395
-7.88877e-07
0.00381387
-7.18674e-07
0.00381374
-6.64e-07
0.00381349
-5.23699e-07
0.0038132
-6.42169e-07
0.003813
-4.39116e-07
0.00381267
-7.39151e-07
0.00381255
-4.98103e-07
0.00381233
-7.20052e-07
0.00381224
-7.18253e-07
0.00381212
-6.47129e-07
0.00381203
-8.14091e-07
0.00381202
-5.49047e-07
0.0038119
-9.27916e-07
0.00381196
-5.77514e-07
0.00381188
-8.07746e-07
0.00381189
-7.81393e-07
0.00381189
-6.11225e-07
0.00381187
-9.07818e-07
0.00381192
-5.48627e-07
0.00381188
-8.9526e-07
0.00381191
-6.20052e-07
0.00381194
-6.30383e-07
0.00381194
-7.23202e-07
0.00381195
-5.49204e-07
0.00381201
-5.53119e-07
0.00381209
-8.45561e-08
0.00381258
1.73226e-08
-2.40111e-06
0.00381302
0.00308829
-7.95403e-06
0.00309481
-1.52748e-05
0.00310226
-1.73631e-05
0.00311069
-1.94382e-05
0.00311981
-2.09706e-05
0.00312909
-2.13747e-05
0.00313824
-2.10879e-05
0.00314709
-2.04376e-05
0.00315555
-1.95437e-05
0.00316357
-1.85579e-05
0.0031711
-1.7532e-05
0.00317814
-1.6508e-05
0.00318478
-1.55643e-05
0.00319105
-1.47501e-05
0.00319704
-1.41641e-05
0.00320281
-1.36838e-05
0.0032084
-1.33366e-05
0.00321388
-1.31114e-05
0.00321928
-1.2934e-05
0.00322463
-1.28111e-05
0.00322992
-1.27039e-05
0.00323518
-1.25995e-05
0.00324041
-1.25204e-05
0.00324561
-1.24596e-05
0.00325078
-1.23749e-05
0.00325592
-1.23309e-05
0.00326104
-1.23035e-05
0.00326612
-1.22258e-05
0.00327117
-1.21376e-05
0.00327619
-1.20773e-05
0.00328118
-1.20416e-05
0.00328616
-1.20215e-05
0.00329115
-1.20459e-05
0.00329613
-1.20007e-05
0.0033011
-1.19565e-05
0.00330606
-1.19291e-05
0.003311
-1.18923e-05
0.00331591
-1.18184e-05
0.00332079
-1.17573e-05
0.00332562
-1.16801e-05
0.00333042
-1.16068e-05
0.0033352
-1.15578e-05
0.00333998
-1.1504e-05
0.00334473
-1.14967e-05
0.00334948
-1.14535e-05
0.00335418
-1.14099e-05
0.00335887
-1.13536e-05
0.00336352
-1.13144e-05
0.00336813
-1.11874e-05
0.00337266
-1.10732e-05
0.00337712
-1.09354e-05
0.00338152
-1.07752e-05
0.00338584
-1.07674e-05
0.00339013
-1.06253e-05
0.00339438
-1.06809e-05
0.00339864
-1.06639e-05
0.00340294
-1.07656e-05
0.00340723
-1.08587e-05
0.00341147
-1.08895e-05
0.00341549
-1.06164e-05
0.00341916
-9.92836e-06
0.00342252
-9.3384e-06
0.00342531
-8.01213e-06
0.00342772
-7.12859e-06
0.00342963
-5.80296e-06
0.0034311
-4.76391e-06
0.00343222
-3.73349e-06
0.00343298
-2.68957e-06
0.00343356
-2.16864e-06
0.00343387
-1.40656e-06
0.00343405
-1.253e-06
0.00343415
-8.94465e-07
0.00343415
-7.18918e-07
0.00343411
-6.21646e-07
0.00343403
-4.37594e-07
0.00343395
-5.66902e-07
0.00343385
-3.39558e-07
0.00343374
-6.28938e-07
0.00343367
-4.23792e-07
0.00343358
-6.38203e-07
0.00343352
-6.54046e-07
0.00343349
-6.2116e-07
0.00343345
-7.71006e-07
0.00343345
-5.48486e-07
0.00343341
-8.8861e-07
0.00343341
-5.78215e-07
0.00343342
-8.17226e-07
0.00343335
-7.08335e-07
0.00343343
-6.89235e-07
0.00343337
-8.51896e-07
0.00343342
-6.01279e-07
0.00343343
-8.98368e-07
0.00343342
-6.14595e-07
0.00343352
-7.24706e-07
0.0034334
-6.10319e-07
0.00343354
-6.87163e-07
0.0034335
-5.1095e-07
0.00343363
-2.13387e-07
0.00343401
-3.67632e-07
-2.52477e-06
0.00343414
0.00278962
-1.1411e-05
0.0027955
-2.116e-05
0.00280226
-2.41218e-05
0.00280995
-2.71261e-05
0.0028182
-2.92252e-05
0.0028266
-2.97704e-05
0.00283488
-2.9372e-05
0.00284289
-2.84472e-05
0.00285053
-2.71832e-05
0.00285776
-2.57866e-05
0.00286456
-2.43325e-05
0.00287095
-2.28986e-05
0.00287696
-2.15764e-05
0.00288262
-2.04074e-05
0.00288801
-1.95508e-05
0.0028932
-1.88713e-05
0.00289824
-1.83814e-05
0.00290318
-1.80533e-05
0.00290806
-1.78125e-05
0.00291288
-1.76325e-05
0.00291765
-1.74728e-05
0.0029224
-1.73459e-05
0.00292712
-1.72449e-05
0.00293183
-1.71643e-05
0.00293649
-1.70426e-05
0.00294114
-1.69735e-05
0.00294575
-1.69195e-05
0.00295034
-1.68074e-05
0.00295488
-1.66837e-05
0.0029594
-1.65912e-05
0.00296388
-1.65266e-05
0.00296834
-1.64833e-05
0.0029728
-1.65079e-05
0.00297725
-1.64428e-05
0.00298167
-1.63807e-05
0.00298607
-1.63303e-05
0.00299044
-1.62592e-05
0.00299475
-1.61322e-05
0.002999
-1.60068e-05
0.00300317
-1.58478e-05
0.00300728
-1.57145e-05
0.0030113
-1.55789e-05
0.00301525
-1.54604e-05
0.00301909
-1.53353e-05
0.00302283