/*--------------------------------*- C++ -*----------------------------------*\
| =========                 |                                                 |
| \\      /  F ield         | OpenFOAM: The Open Source CFD Toolbox           |
|  \\    /   O peration     | Version:  v2012                                 |
|   \\  /    A nd           | Website:  www.openfoam.com                      |
|    \\/     M anipulation  |                                                 |
\*---------------------------------------------------------------------------*/
FoamFile
{
    version     2.0;
    format      ascii;
    class       vectorField;
    location    "0.097/lagrangian/kinematicCloud";
    object      U;
}
// * * * * * * * * * * * * * * * * * * * * * * * * * * * * * * * * * * * * * //


54
(
(9.48755 -0.000439398 0)
(10.2111 -0.000731543 0)
(10.218 -0.000684139 0)
(10.1238 2.24597e-05 0)
(10.1011 -0.0013055 0)
(10.2315 -0.0010091 0)
(6.48412 -0.00144064 0)
(9.68145 -0.00252294 0)
(9.74134 -0.00300663 0)
(10.2313 0.00118151 0)
(10.2458 0.000159194 0)
(10.0247 0.00254684 0)
(8.32676 -0.00238693 0)
(8.35696 0.00137824 0)
(8.7325 -0.001985 0)
(10.2539 -0.000105101 0)
(9.58763 0.00346824 0)
(9.09375 -0.00337998 0)
(10.103 0.00486961 0)
(9.80016 -0.00554079 0)
(10.215 -0.00561438 0)
(9.35919 -0.00525897 0)
(10.1993 -0.00617331 0)
(9.97897 0.00507667 0)
(10.2452 0.00240724 0)
(10.2172 -0.00601322 0)
(9.81493 0.00511187 0)
(10.0995 -0.00678205 0)
(9.00204 0.00375511 0)
(10.0428 -0.00682761 0)
(3.66013 -0.000429137 0)
(9.46804 0.0031748 0)
(8.1471 -0.00426581 0)
(10.241 -0.00181544 0)
(10.1973 0.00518466 0)
(10.2345 -0.00533813 0)
(10.2358 0.00370786 0)
(10.2407 0.00227503 0)
(10.2346 -0.00537384 0)
(8.31033 0.000160875 0)
(10.2337 0.00429651 0)
(10.2392 -0.00475195 0)
(10.2105 0.00528933 0)
(10.1729 0.00553704 0)
(10.2388 0.00381917 0)
(10.2419 -0.00375105 0)
(10.153 -0.00710005 0)
(10.2422 0.0001032 0)
(10.2426 0.0022906 0)
(10.2308 -0.00625386 0)
(9.95249 0.00495647 0)
(10.2458 0.00246863 0)
(10.0997 -0.00677124 0)
(9.62143 0.00492134 0)
)


// ************************************************************************* //
