/*--------------------------------*- C++ -*----------------------------------*\
| =========                 |                                                 |
| \\      /  F ield         | OpenFOAM: The Open Source CFD Toolbox           |
|  \\    /   O peration     | Version:  v2012                                 |
|   \\  /    A nd           | Website:  www.openfoam.com                      |
|    \\/     M anipulation  |                                                 |
\*---------------------------------------------------------------------------*/
FoamFile
{
    version     2.0;
    format      ascii;
    class       vectorField;
    location    "0.097/lagrangian/kinematicCloud";
    object      U;
}
// * * * * * * * * * * * * * * * * * * * * * * * * * * * * * * * * * * * * * //


100
(
(6.84354 -0.105903 0)
(7.71253 -0.0244483 0)
(7.69123 -0.0169308 0)
(7.42383 -0.0370885 0)
(7.61363 -0.00789906 0)
(7.62817 -0.0122821 0)
(5.27684 -0.139522 0)
(7.53576 -0.00426136 0)
(7.48963 -0.00458869 0)
(7.53103 -0.0122692 0)
(7.51487 -0.0133828 0)
(7.19053 -0.0362309 0)
(0.436624 -1.57775e-05 0)
(0.380175 4.29556e-06 0)
(4.32725 0.00270438 0)
(7.45333 -0.00652643 0)
(6.28175 -0.0994033 0)
(7.00777 -0.00352796 0)
(6.84745 -0.0389433 0)
(7.31925 -0.00136027 0)
(7.31964 -0.00335721 0)
(2.69288 0.00714455 0)
(7.26315 -0.0010721 0)
(6.39426 -0.0647259 0)
(7.2038 0.00316034 0)
(7.21815 -0.000553699 0)
(6.44196 -0.051925 0)
(7.17779 0.000380337 0)
(3.54737 0.156092 0)
(7.13328 -0.000343677 0)
(0.468626 1.62741e-05 0)
(5.42932 -0.0713286 0)
(2.0092 0.00192289 0)
(7.06264 0.00758134 0)
(6.70614 0.00150995 0)
(7.01461 0.00505325 0)
(6.98249 0.0173456 0)
(6.94268 0.0214645 0)
(6.90838 0.0114043 0)
(1.45087 0.000424374 0)
(6.62764 0.0496238 0)
(6.74769 0.0287051 0)
(5.58853 0.0748975 0)
(6.08029 0.100286 0)
(6.37016 0.112532 0)
(6.39206 0.0684656 0)
(6.24422 0.0331237 0)
(6.11947 0.125736 0)
(5.93489 0.151719 0)
(5.79413 0.0532351 0)
(4.51887 0.152384 0)
(5.34358 0.192632 0)
(5.28191 0.0317142 0)
(1.34672 0.000151556 0)
(4.92694 0.081299 0)
(4.77779 0.0749155 0)
(4.61408 0.0199235 0)
(4.45385 0.093899 0)
(4.28732 0.0950917 0)
(4.18185 0.0677616 0)
(4.08829 0.0156078 0)
(3.94122 0.03869 0)
(3.83377 0.0287104 0)
(3.75249 0.00947888 0)
(2.83243 0.000362024 0)
(3.53752 0.0106591 0)
(3.42438 0.00771578 0)
(2.62843 0.000562297 0)
(3.24353 0.00422097 0)
(3.15547 0.00364676 0)
(3.06255 0.00182805 0)
(2.96422 0.00148122 0)
(2.86643 0.000769207 0)
(2.77691 0.000352034 0)
(2.63682 -0.000225524 0)
(0.837805 -0.000132051 0)
(2.0729 -0.000326946 0)
(2.38466 0.000243177 0)
(1.65074 -0.000305682 0)
(2.18844 -0.000324161 0)
(2.08893 -1.1759e-05 0)
(1.98792 5.90905e-06 0)
(1.88876 -0.000129581 0)
(1.78685 -2.06236e-06 0)
(1.09749 -0.000144793 0)
(1.58475 -1.91866e-05 0)
(1.48229 -6.54978e-05 0)
(1.37954 -3.19274e-05 0)
(1.27595 1.23033e-05 0)
(1.17183 -4.52183e-05 0)
(1.06691 -1.28349e-05 0)
(0.962069 -6.895e-05 0)
(0.246035 3.53554e-06 0)
(0.749684 7.88809e-06 0)
(0.643031 -2.70092e-05 0)
(0.53535 -1.08824e-05 0)
(0.427353 -1.11867e-05 0)
(0.318481 -4.62598e-06 0)
(0.0534108 6.46147e-07 0)
(0.0994435 7.31502e-07 0)
)


// ************************************************************************* //
