/*--------------------------------*- C++ -*----------------------------------*\
| =========                 |                                                 |
| \\      /  F ield         | OpenFOAM: The Open Source CFD Toolbox           |
|  \\    /   O peration     | Version:  v2012                                 |
|   \\  /    A nd           | Website:  www.openfoam.com                      |
|    \\/     M anipulation  |                                                 |
\*---------------------------------------------------------------------------*/
FoamFile
{
    version     2.0;
    format      ascii;
    class       volScalarField;
    location    "0.233";
    object      omega.air;
}
// * * * * * * * * * * * * * * * * * * * * * * * * * * * * * * * * * * * * * //

dimensions      [0 0 -1 0 0 0 0];


internalField   nonuniform List<scalar> 
5600
(
6586.28
7485.35
7887.26
7964.55
7867.09
7686.6
7481.83
7289.41
7125.82
6987.91
6878.4
6797.43
6734.62
6695.07
6661.98
6643.41
6626.37
6615.13
6605.29
6596.32
6589.81
6582.52
6577.72
6573.55
6569.85
6568.39
6565.57
6565.28
6563.6
6563.03
6562.07
6560.54
6559.82
6557.41
6556.83
6553.98
6553.48
6550.48
6550
6547.17
6546.61
6544.21
6543.57
6541.65
6541.12
6539.6
6539.4
6537.87
6538.13
6536.64
6537.12
6535.84
6536.26
6535.48
6535.72
6535.38
6535.72
6535.46
6536.34
6535.85
6537.38
6536.7
6538.68
6538.1
6540.1
6539.93
6541.93
6541.96
6544.2
6544.04
6546.83
6546.45
6549.79
6549.42
6553.09
6552.76
6556.63
6556.18
6560.36
6559.67
6564.2
6563.43
6568.12
6567.62
6572.02
6572.31
6575.52
6577.89
6577.75
6585.52
6577.22
6597.86
6569.95
6621.84
6542.15
6681.81
6443.27
6865.58
6043.54
7482.2
2449.91
2298.37
2571.08
2796.2
2927.32
2998.6
3010.07
2968.08
2968.63
3016.64
3074.34
3117.51
3148.85
3156.87
3156.29
3139.8
3118.69
3090.85
3062.64
3032.36
3003.17
2974.31
2944.58
2916.99
2888.75
2863.59
2839.36
2817.7
2797.33
2778.72
2761.92
2745.88
2732.11
2718.65
2707.15
2695.96
2686.38
2676.99
2668.94
2661.09
2654.29
2647.67
2641.89
2636.26
2631.3
2626.24
2621.87
2617.42
2613.46
2609.5
2606.02
2602.57
2599.48
2596.54
2593.81
2591.28
2588.97
2586.66
2584.78
2582.7
2581.11
2579.31
2577.9
2576.38
2575.15
2573.81
2572.78
2571.63
2570.75
2569.8
2568.96
2568.12
2567.4
2566.74
2566.21
2565.77
2565.46
2565.16
2564.83
2564.59
2564.18
2564.08
2563.58
2563.79
2563.14
2563.95
2562.77
2564.72
2562.05
2566.44
2559.71
2570.57
2553.13
2581.89
2535.24
2613.74
2479.68
2713.6
2283
3060.89
2358.36
1860.39
1591.62
1428.59
1345.55
1273.64
1280.99
1307.95
1353.31
1410.67
1484.39
1547.07
1613.22
1662.41
1705.68
1733.33
1748.74
1752.91
1744.05
1726.62
1702.34
1676.69
1653.66
1634.85
1619.4
1605.76
1593.15
1581.78
1571.21
1560.94
1551.18
1540.89
1531.29
1521.62
1512.9
1504.09
1496.41
1488.6
1481.88
1475.08
1469.2
1463.3
1458.11
1452.83
1448.25
1443.58
1439.57
1435.44
1431.92
1428.23
1425.13
1421.94
1419.14
1416.44
1413.94
1411.6
1409.47
1407.28
1405.5
1403.47
1401.96
1400.07
1398.74
1397.06
1395.84
1394.31
1393.25
1391.86
1390.97
1389.69
1388.91
1387.69
1387.01
1385.95
1385.39
1384.52
1384.07
1383.37
1382.86
1382.27
1381.59
1381.27
1380.27
1380.56
1378.92
1380.38
1377.35
1381.03
1375
1383.1
1370.73
1388.01
1362.24
1399.37
1344.43
1424.7
1306.3
1476.85
1231.82
1553.55
2345.12
1822.44
1493.21
1267.55
1111.55
991.786
908.187
845.197
804.9
774.266
762.71
769.099
792.209
824.35
860.541
902.937
940.427
979.265
1010.93
1039.44
1061.93
1078.35
1092.56
1100.04
1106.55
1106.45
1103.98
1096.85
1087.59
1078.06
1068.28
1060.83
1053.72
1048.11
1042.43
1037.3
1032.47
1027.76
1023.55
1019.14
1015.07
1010.56
1006.1
1001.37
996.936
992.376
988.27
984.094
980.422
976.649
973.353
970.099
967.081
964.247
961.566
958.955
956.57
954.074
951.895
949.526
947.583
945.342
943.538
941.502
939.798
937.921
936.399
934.639
933.334
931.697
930.538
928.989
927.891
926.481
925.488
924.286
923.383
922.398
921.436
920.642
919.491
919.058
917.507
917.787
915.475
917.016
913.273
916.95
910.513
917.94
906.649
920.52
900.887
925.662
892.352
933.826
881.575
941.251
876.399
925.868
2341.99
1815.89
1480.01
1247.56
1080.28
951.835
854.022
773.863
711.163
658.844
615.576
583.172
554.805
537.87
522.123
515.818
513.429
520.396
532.972
547.959
570
590.373
617.73
640.818
668.249
691.569
714.103
733.519
747.765
761.491
769.013
778.155
781.369
786.709
786.682
788.152
785.522
783.68
779.437
775.688
771.186
767.528
764.072
761.289
758.266
755.713
752.898
750.374
747.903
745.473
743.268
741.081
738.969
736.896
734.697
732.341
730.001
727.597
725.286
722.863
720.728
718.394
716.346
714.185
712.251
710.243
708.477
706.604
705.03
703.28
701.855
700.167
698.758
697.157
695.783
694.361
692.999
691.755
690.347
689.315
687.759
687.075
685.215
685.126
682.722
683.554
680.204
682.404
677.521
681.783
674.637
681.664
671.58
681.774
668.823
681.098
667.982
676.894
672.113
664.729
2341.18
1813.98
1476.99
1243.54
1074.59
944.924
844.6
763.159
696.174
641.901
592.904
555.563
518.146
491.121
463.487
441.824
423.448
405.51
395.164
381.71
376.72
369.281
367.931
369.12
372.927
382.012
390.784
406.412
418.859
439.102
453.151
475.28
489.462
510.639
523.607
540.988
551.953
564.329
572.497
580.332
585.657
590.795
593.74
597.526
598.6
601.063
600.683
601.328
600.145
599.158
597.484
595.333
593.317
591.097
589.042
587.488
585.526
584.293
582.627
581.233
579.84
578.316
577.069
575.622
574.42
573.147
571.967
570.781
569.639
568.397
567.238
565.823
564.57
563.15
561.764
560.387
558.888
557.585
556.035
554.925
553.302
552.483
550.69
550.255
548.176
548.215
545.699
546.331
543.246
544.619
540.98
543.017
539.04
541.27
537.542
538.992
536.7
535.804
536.124
532.243
2340.92
1813.31
1475.92
1242.4
1072.76
943.424
841.919
761.062
692.766
638.57
588.897
550.292
513.104
483.2
455.842
430.612
410.85
389.203
373.99
356.831
343.314
331.232
318.413
310.591
299.558
294.42
286.22
283.282
277.998
277.69
275.852
279.101
281.116
287.843
293.785
302.976
312.848
323.766
335.999
348.27
360.624
374.424
385.149
399.168
408.196
421.049
428.992
438.724
445.894
452.514
458.541
462.444
466.355
469.46
471.386
474.242
474.691
476.918
477.234
478.232
478.481
478.264
478.214
477.596
476.868
476.181
474.919
474.018
472.743
471.492
470.48
469.451
468.749
467.973
467.169
466.326
465.275
464.351
463.234
462.479
461.424
460.948
459.845
459.562
458.275
458.114
456.572
456.536
454.743
454.828
452.934
453.095
451.259
451.347
449.503
449.463
447.467
447.31
444.646
445.067
2340.8
1813.05
1475.38
1242.07
1071.87
943.032
840.836
760.367
691.818
637.234
588.276
548.26
512.519
480.89
454.54
428.553
408.187
387.315
369.913
354.135
338.06
326.392
311.854
302.336
290.349
281.378
272.314
263.469
256.886
248.37
243.763
235.961
232.999
226.109
224.738
218.928
218.997
214.974
215.802
214.955
216.507
218.642
221.534
226.163
230.882
237.076
244.199
251.21
260.482
267.685
278.271
286.189
295.708
305.21
312.872
323
329.183
337.963
344.605
351.153
357.779
362.32
367.763
371.824
375.459
378.977
381.267
383.708
385.498
386.638
388.085
388.815
390.109
390.869
391.713
392.036
392.226
392.017
391.833
391.435
391.164
390.875
390.454
390.137
389.368
388.896
387.737
387.168
385.683
385.054
383.389
382.822
381.148
380.847
379.017
378.865
376.611
376.319
373.469
373.097
2340.73
1812.96
1475.07
1241.95
1071.43
942.814
840.468
759.862
691.705
636.354
588.359
547.233
512.415
480.16
453.839
428.338
406.913
387.276
368.571
353.636
337.109
325.112
311.213
300.428
289.541
279.045
270.929
260.538
254.684
244.457
240.299
230.514
227.402
218.467
215.692
208.179
205.068
199.241
195.854
191.075
188.568
183.482
182.802
177.312
178.032
173.047
173.883
170.946
171.522
170.461
171.11
171.927
173.883
175.302
178.639
180.923
186.256
189.124
195.711
199.136
206.66
211.372
218.796
224.707
231.742
238.164
245.099
251.196
258.39
263.686
270.433
275.219
281.055
285.604
290.642
294.684
298.872
302.108
305.478
307.919
310.568
312.649
314.701
316.334
317.58
318.603
319.054
319.668
319.508
319.745
319.084
319.067
318.163
318.287
317.11
317.144
315.562
315.084
313.098
312.066
2340.69
1812.92
1474.94
1241.84
1071.34
942.562
840.499
759.435
691.825
635.886
588.366
546.955
512.117
480.163
453.286
428.425
406.407
387.109
368.389
353.071
337.211
324.352
311.277
299.798
289.301
278.665
270.363
260.326
253.85
244.326
239.198
230.406
225.978
218.293
213.924
207.682
203.031
198.006
193.567
188.795
185.475
180.16
178.167
172.567
171.147
166.211
164.218
160.859
157.919
155.968
152.581
150.922
148.971
145.965
146.01
141.822
143.276
139.768
140.326
138.761
138.189
138.451
138.239
138.328
139.747
139.441
142.097
142.372
145.098
146.913
149.747
152.518
155.472
158.24
161.588
164.739
168.702
172.609
176.829
181.1
185.061
189.091
192.74
196.542
200.036
203.779
207.044
210.689
213.665
217.015
219.651
222.466
224.543
226.765
228.416
230.299
231.74
233.15
234.326
235.183
2340.68
1812.92
1474.99
1241.79
1071.47
942.42
840.699
759.28
691.962
635.869
588.307
547.14
511.902
480.403
453.144
428.473
406.527
386.888
368.716
352.755
337.505
324.179
311.354
299.869
289.15
278.933
270.036
260.784
253.301
245.037
238.407
231.314
225.105
219.134
213.319
208.115
202.919
198.049
193.688
188.926
185.296
180.859
177.471
173.815
170.258
167.481
163.938
161.516
158.688
156.034
154.158
151.47
150.053
148.105
146.468
145.659
144.01
143.86
143.019
142.906
143.351
143.519
144.741
145.922
147.445
149.817
151.836
154.934
157.905
161.297
165.081
168.934
173.23
177.676
182.215
186.912
191.471
196.081
200.635
205.051
209.556
213.904
218.209
222.262
226.029
229.522
232.734
235.704
238.443
240.924
243.178
245.254
247.142
248.904
250.436
251.743
252.772
253.544
254.097
254.572
2340.71
1813
1475.14
1241.88
1071.72
942.501
840.988
759.403
692.204
636.113
588.444
547.514
511.987
480.798
453.317
428.755
406.889
387.026
369.227
352.859
338.022
324.416
311.742
300.344
289.39
279.621
270.251
261.574
253.661
245.864
239.021
232.252
225.996
220.387
214.542
209.888
204.671
200.576
196.341
192.521
189.453
185.946
183.821
181.214
179.489
178.391
177.011
177.391
177.226
178.466
180.16
182.163
185.52
188.838
193.237
198.242
203.383
209.618
215.856
222.52
229.73
236.568
244.103
251.194
258.435
265.539
272.095
278.713
284.836
290.555
296.179
301.173
306.054
310.39
314.412
317.974
321.104
323.893
326.286
328.286
330.021
331.399
332.58
333.434
334.07
334.471
334.722
334.842
334.839
334.702
334.423
334.036
333.523
332.958
332.243
331.436
330.463
329.359
328.198
327.068
2340.76
1813.17
1475.39
1242.14
1072.07
942.813
841.424
759.765
692.683
636.555
588.937
548.063
512.484
481.461
453.85
429.509
407.53
387.834
370.071
353.722
339.143
325.442
313.149
301.776
291.12
281.76
272.54
264.68
257.045
250.267
244.36
238.716
234.303
230.199
227.036
224.873
223.009
223.058
223.258
225.484
228.203
232.232
237.667
243.483
251.104
258.802
267.767
276.98
286.54
296.528
306.236
316.112
325.383
334.498
343.056
351.152
358.694
365.581
371.959
377.517
382.564
386.827
390.522
393.585
396.11
398.17
399.838
401.299
402.511
403.523
404.382
405.007
405.507
405.779
405.911
405.846
405.631
405.299
404.837
404.289
403.656
402.941
402.176
401.36
400.5
399.637
398.786
397.946
397.085
396.227
395.33
394.421
393.467
392.506
391.46
390.382
389.235
388.049
386.883
385.808
2340.87
1813.49
1475.85
1242.7
1072.74
943.54
842.275
760.645
693.737
637.607
590.223
549.35
514.04
483.118
455.763
431.748
410.011
390.946
373.595
358.149
344.437
331.885
321.22
311.666
303.662
297.226
291.805
288.564
286.214
286.467
288.634
292.644
299.063
306.757
316.767
327.711
340.097
353.236
366.491
380.508
393.651
406.992
419.322
431.02
441.841
451.351
460.003
467.133
473.301
478.247
482.19
485.423
488
490.234
491.915
493.27
494.183
494.731
494.962
494.81
494.422
493.718
492.834
491.755
490.569
489.34
488.131
487.04
486.017
485.041
484.095
483.173
482.246
481.31
480.356
479.381
478.406
477.452
476.52
475.631
474.762
473.907
473.061
472.184
471.314
470.382
469.384
468.361
467.318
466.284
465.236
464.198
463.133
462.075
460.973
459.888
458.794
457.725
456.742
455.908
2341.15
1814.19
1476.91
1243.99
1074.37
945.457
844.575
763.308
696.916
641.298
594.675
554.534
520.572
490.929
465.739
443.916
425.684
410.783
398.782
389.707
383.688
380.078
380.999
385.354
393.476
404.671
418.803
435.296
453.367
472.447
491.92
511.181
529.634
546.555
561.913
574.957
586.006
594.917
601.965
607.622
612.105
615.779
618.386
620.223
621.131
621.236
620.659
619.356
617.657
615.53
613.261
611.006
609.061
607.248
605.533
603.881
602.226
600.628
599.017
597.457
595.913
594.429
592.99
591.608
590.257
588.943
587.587
586.118
584.592
583.024
581.444
579.888
578.308
576.747
575.162
573.595
572.061
570.577
569.155
567.79
566.47
565.181
563.927
562.704
561.517
560.369
559.234
558.136
557.067
556.04
555.025
554.046
553.047
552.076
551.086
550.141
549.207
548.333
547.6
547.086
2342.02
1815.99
1480.1
1247.97
1080.27
952.717
854.155
775.197
712.373
660.562
619.161
586.818
562.734
545.363
534.702
530.016
534.418
545.101
560.952
581.149
604.482
630.681
657.57
684.842
711.003
734.735
754.962
771.353
784.168
794.185
801.835
807.315
810.768
812.215
811.906
809.884
806.679
802.629
798.234
794.126
790.66
787.452
784.449
781.469
778.543
775.687
772.894
770.249
767.696
765.267
762.905
760.491
757.955
755.25
752.602
749.896
747.252
744.664
742.101
739.656
737.236
734.943
732.705
730.582
728.526
726.58
724.693
722.869
721.103
719.375
717.691
716.065
714.438
712.854
711.274
709.751
708.289
706.896
705.578
704.315
703.101
701.921
700.781
699.676
698.612
697.599
696.627
695.704
694.827
694.008
693.208
692.454
691.682
690.947
690.193
689.492
688.809
688.205
687.802
687.703
2345.25
1822.39
1493.85
1268.17
1113.2
994.216
912.552
852.06
814.466
787.885
783.686
800.056
829.162
865.925
907.76
950.096
990.427
1026.9
1058.31
1083.59
1103.42
1118.48
1129.04
1135.78
1137.41
1134.78
1127.97
1118.71
1108.63
1099.46
1091.8
1085.13
1079.04
1073.28
1067.82
1062.64
1057.74
1053
1048.38
1043.51
1038.49
1033.3
1028.25
1023.22
1018.47
1013.89
1009.55
1005.48
1001.57
997.98
994.526
991.333
988.286
985.328
982.56
979.817
977.241
974.724
972.306
970
967.747
965.627
963.559
961.618
959.73
957.96
956.251
954.63
953.096
951.624
950.221
948.875
947.55
946.273
945.036
943.862
942.746
941.695
940.707
939.768
938.867
937.996
937.155
936.337
935.556
934.816
934.126
933.484
932.89
932.358
931.84
931.372
930.875
930.431
929.944
929.543
929.14
928.888
928.888
929.32
2358.74
1860.9
1594.76
1434.03
1353.93
1289.11
1305.16
1337.36
1392.05
1465.21
1539.68
1610.3
1672.41
1723
1760.18
1783.28
1792.65
1788.75
1773.39
1750.1
1724.22
1700.65
1682.21
1666.49
1652.51
1639.49
1627.38
1615.96
1604.92
1593.83
1582.73
1571.91
1561.57
1551.74
1542.44
1533.73
1525.53
1517.93
1510.79
1504.16
1497.94
1492
1486.5
1481.26
1476.45
1471.84
1467.55
1463.53
1459.7
1456.2
1452.82
1449.76
1446.83
1444.11
1441.59
1439.15
1436.93
1434.75
1432.73
1430.8
1428.96
1427.23
1425.55
1424
1422.49
1421.09
1419.75
1418.48
1417.31
1416.2
1415.16
1414.17
1413.23
1412.31
1411.43
1410.59
1409.8
1409.07
1408.39
1407.75
1407.14
1406.56
1406
1405.46
1404.95
1404.49
1404.08
1403.72
1403.41
1403.16
1402.92
1402.73
1402.49
1402.34
1402.09
1402.04
1401.87
1402.11
1402.58
1403.76
2454.77
2305.62
2580.43
2808.67
2934.19
3010.06
2994.49
2967.49
3014.77
3085.73
3149.94
3196.72
3222.33
3229.96
3222.17
3204.03
3178.27
3148.84
3117.78
3086.29
3054.89
3022.97
2992.06
2961.6
2933.66
2907.18
2882.93
2860.47
2839.92
2820.97
2803.66
2787.82
2773.39
2760.23
2748.18
2737.23
2727.11
2717.96
2709.45
2701.77
2694.61
2688.05
2682.03
2676.27
2670.94
2665.79
2660.99
2656.46
2652.14
2648.19
2644.37
2640.92
2637.61
2634.57
2631.75
2629.06
2626.64
2624.28
2622.14
2620.1
2618.18
2616.4
2614.7
2613.14
2611.65
2610.28
2609
2607.8
2606.72
2605.72
2604.78
2603.93
2603.13
2602.38
2601.68
2601.04
2600.46
2599.95
2599.5
2599.11
2598.75
2598.41
2598.09
2597.81
2597.57
2597.39
2597.28
2597.23
2597.25
2597.32
2597.41
2597.54
2597.64
2597.82
2597.91
2598.28
2598.38
2599.37
2600.33
2602.35
6588.07
7481.93
7876.74
7936.03
7826.35
7629.94
7415.07
7222.07
7053.58
6914.28
6805.48
6723.31
6664.13
6621.54
6591.88
6570.24
6554.22
6541.68
6531.05
6522.65
6514.76
6509.03
6503.95
6500.33
6497.48
6495.01
6493.41
6491.78
6490.51
6489.02
6487.34
6485.47
6483.39
6481.22
6478.92
6476.62
6474.22
6471.98
6469.6
6467.55
6465.38
6463.53
6461.71
6460.08
6458.66
6457.24
6456.1
6454.91
6453.9
6452.98
6452.05
6451.39
6450.62
6450.18
6449.68
6449.39
6449.2
6449.06
6449.16
6449.21
6449.51
6449.83
6450.26
6450.82
6451.41
6452.14
6452.91
6453.79
6454.75
6455.8
6456.91
6458.09
6459.35
6460.68
6462.11
6463.62
6465.23
6466.88
6468.56
6470.29
6472.02
6473.77
6475.57
6477.38
6479.3
6481.21
6483.23
6485.25
6487.33
6489.43
6491.54
6493.69
6495.87
6498.06
6500.39
6502.55
6504.91
6506.77
6508.13
6508.09
5486.04
3368.24
2416.24
1949.08
1665.99
1481.3
1347.29
1246.38
1164.27
1095.94
1037.52
986.156
940.22
898.668
860.691
825.493
792.636
761.614
731.941
703.458
676.013
649.509
623.97
599.407
575.797
553.145
531.461
510.735
490.915
471.851
453.542
436.223
419.743
403.978
388.96
374.587
360.708
347.335
334.566
322.396
310.906
300.246
290.315
280.889
272.089
263.997
256.252
248.593
241.454
235.167
229.359
223.731
218.983
215.519
212.264
207.876
203.373
201.654
204.545
210.342
215.334
216.704
214.534
210.368
205.528
200.38
195.271
190.171
185.448
181.027
177.197
173.685
170.813
168.241
166.378
164.722
163.447
161.674
159.466
155.903
151.328
145.191
138.299
130.312
122.12
113.329
105.027
96.9886
90.4506
84.5131
79.4476
73.9053
69.3053
64.6515
61.7501
58.836
57.8434
56.2967
56.2142
55.2099
1555.27
2575.65
2359.74
1986.7
1702.82
1502.55
1355.35
1244.2
1154.5
1081.48
1020.21
967.118
920.717
879.635
842.678
808.831
777.491
748.022
719.958
693.093
667.202
642.167
617.92
594.416
571.636
549.583
528.204
507.61
487.749
468.504
449.928
432.304
415.482
399.329
383.901
369.126
354.859
341.124
328.08
315.758
304.247
293.709
284.034
274.947
266.543
258.916
251.668
244.488
237.841
232.17
227.077
222.071
217.725
214.579
211.655
207.364
202.266
199.132
200.168
204.362
208.478
209.79
208.05
204.446
200.09
195.329
190.499
185.687
181.229
177.11
173.493
170.141
167.28
164.71
162.742
161.035
159.646
157.879
155.636
152.195
147.657
141.649
134.693
126.721
118.41
109.728
101.439
93.5759
86.8657
80.713
75.1412
69.5788
64.9695
60.8573
58.2966
56.0814
55.2925
54.3032
54.2631
53.7697
1134.04
1419.76
1804.54
1801.87
1643.21
1476.37
1337.39
1225.81
1134.14
1058.72
995.74
941.733
895.234
854.701
818.693
786.088
756.22
728.238
701.843
676.738
652.56
629.188
606.492
584.324
562.701
541.599
520.891
500.762
481.18
462.158
443.708
425.986
408.945
392.485
376.715
361.61
347.041
333.049
319.871
307.587
296.291
286.143
277.011
268.565
260.859
253.984
247.509
241.091
235.222
230.437
226.312
222.158
218.372
215.577
212.912
208.618
202.83
198.153
197.102
199.345
202.181
203.067
201.499
198.321
194.383
189.99
185.447
180.968
176.853
173.132
169.821
166.707
163.92
161.394
159.35
157.589
156.073
154.274
151.968
148.597
144.071
138.143
131.117
123.115
114.678
106.029
97.726
89.952
83.0887
76.7706
71.0155
65.7179
61.5404
58.1492
56.1036
54.4661
53.9014
53.2593
53.2661
53.0421
896.683
847.222
1029.01
1249.91
1340.37
1314.09
1239.51
1157.12
1080.64
1013.1
955.004
904.65
860.805
822.444
788.356
757.589
729.545
703.289
678.64
655.31
632.829
611.115
590.033
569.336
549.017
529.073
509.353
489.986
471.026
452.504
434.413
416.787
399.667
383.021
367.021
351.728
337.031
322.988
309.948
298.055
287.392
278.087
269.961
262.621
256.055
250.323
244.97
239.662
234.908
231.294
228.36
225.23
222.087
219.582
216.988
212.477
205.818
199.428
196.048
195.976
197.087
197.111
195.372
192.404
188.759
184.679
180.413
176.304
172.627
169.416
166.522
163.74
161.104
158.677
156.595
154.786
153.131
151.261
148.858
145.495
140.938
135.022
127.894
119.804
111.204
102.487
94.0989
86.3005
79.2847
72.9354
67.3922
62.6859
59.1766
56.4779
54.8845
53.6369
53.2191
52.7633
52.7834
52.679
675.647
656.198
666.972
732.577
835.936
921.707
960.744
960.256
937.15
903.852
868.277
833.812
801.41
771.589
743.927
718.181
694.147
671.228
649.304
628.344
607.909
588.04
568.677
549.5
530.582
511.944
493.395
474.994
456.909
438.972
421.288
403.901
386.889
370.278
354.287
339.113
324.649
310.977
298.623
287.789
278.511
270.814
264.424
258.863
254.013
249.87
245.989
242.103
238.728
236.443
234.736
232.576
229.934
227.457
224.587
219.548
211.82
203.59
197.716
195.032
194.006
192.722
190.407
187.354
183.809
179.939
175.92
172.219
169.078
166.514
164.166
161.823
159.423
157.159
155.083
153.238
151.431
149.453
146.91
143.494
138.845
132.871
125.589
117.35
108.537
99.668
91.1146
83.2109
76.1192
69.959
64.8805
60.8397
57.9188
55.7225
54.4084
53.3746
52.992
52.602
52.5889
52.5096
530.735
531.128
526.786
527.896
540.646
566.409
598.894
630.051
653.909
668.961
675.688
676.619
673.049
666.473
657.077
645.627
632.809
618.68
603.599
588.084
571.942
555.526
539.028
522.136
505.214
488.336
471.282
454.091
437.066
419.924
402.856
385.986
369.434
353.296
337.804
323.311
309.446
297.051
286.571
278.15
271.664
266.885
263.344
260.442
257.929
255.734
253.509
251.135
249.117
247.981
247.163
245.523
242.871
239.888
236.236
230.298
221.335
211.227
202.796
197.297
193.763
190.732
187.405
183.912
180.218
176.431
172.634
169.411
166.934
165.2
163.56
161.793
159.715
157.682
155.646
153.784
151.798
149.674
146.923
143.399
138.583
132.497
124.998
116.586
107.547
98.5654
89.9006
82.0097
74.9931
69.133
64.4118
60.7819
58.1036
56.0954
54.7722
53.7451
53.2348
52.7922
52.6752
52.5379
439.239
441.115
439.354
434.492
427.991
422.356
418.385
416.441
416.906
421.335
428.352
438.607
450.985
464.481
477.668
489.356
498.708
504.727
507.14
506.33
502.12
495.229
486.387
475.628
463.504
450.516
436.629
421.976
407.079
391.699
376.144
360.762
345.678
331.122
317.016
303.971
292.74
283.954
277.762
274.077
272.418
272.129
272.459
272.728
272.603
272.082
271.097
269.728
268.454
267.72
266.912
264.851
261.317
257.092
252.081
244.908
234.671
222.821
211.915
203.532
197.239
192.096
187.355
183.063
178.947
175.112
171.538
168.925
167.306
166.639
165.91
164.882
163.199
161.459
159.469
157.617
155.411
153.127
150.086
146.44
141.385
135.208
127.439
118.929
109.735
100.96
92.5415
85.1963
78.4486
72.8373
67.9753
64.1985
61.0401
58.6824
56.7856
55.4223
54.4436
53.7572
53.3766
53.0604
368.943
371.027
370.752
367.337
360.768
351.892
341.731
330.759
319.399
309.176
299.58
292.032
287.425
285.697
288.113
294.721
304.682
317.66
332.184
346.753
360.096
370.896
378.49
382.539
382.831
380.101
374.879
367.279
358.282
347.983
336.915
326.044
314.192
303.463
294.583
287.698
283.49
281.885
282.836
285.924
290.193
294.572
298.148
300.414
301.264
301.014
299.954
298.327
296.538
294.89
292.713
288.919
283.466
277.29
270.478
261.942
250.691
237.641
224.778
213.841
204.912
197.594
191.244
185.924
181.189
177.232
173.951
172.181
171.706
172.418
172.805
172.646
171.345
169.896
167.897
166.09
163.613
161.207
157.808
154.121
148.783
142.667
134.596
126.2
116.91
108.956
101.342
95.3396
89.0997
84.0403
78.5961
74.354
69.7566
66.4635
62.9604
60.7491
58.5077
57.2415
56.1603
55.458
309.431
309.343
308.238
304.921
299.206
291.264
282.021
272.01
262.211
253.081
245.444
239.53
235.629
233.575
233.241
234.497
236.708
240.131
244.515
249.705
255.77
262.674
269.918
277.318
284.25
289.889
293.693
295.869
296.715
296.135
294.707
293.497
291.718
290.975
292.06
295.011
299.679
305.907
313.575
322.036
330.002
336.364
340.38
342.02
341.652
339.877
337.177
333.816
330.055
325.943
320.769
313.863
305.593
297.005
288.252
278.585
266.954
253.669
239.897
227.299
216.331
207.172
199.371
193.091
187.792
183.878
181.201
180.731
181.864
184.305
185.912
186.562
185.432
184.137
181.98
180.223
177.417
174.987
171.193
167.634
161.987
156.177
147.796
139.85
130.355
123.526
116.532
112.243
106.553
103.155
97.5379
94.072
88.0025
84.4912
78.5584
75.6487
70.9221
68.9857
66.2824
65.123
235.846
236.659
237.059
236.631
235.436
233.87
232.673
232.422
233.755
236.621
241.194
246.739
253.108
259.79
266.071
271.638
276.285
280.177
283.226
285.673
287.294
288.737
290.144
291.634
293.245
295.155
297.25
299.495
302.138
305
308.333
312.612
317.709
323.801
331.083
339.394
348.461
358.14
368.139
377.715
385.574
390.578
392.235
390.999
387.663
382.872
377.018
370.292
362.792
354.299
344.366
333.418
322.145
311.411
301.359
291.459
280.531
268.272
255.015
242.087
230.138
219.926
211.296
204.559
199.22
195.978
194.706
196.372
199.74
204.086
206.642
207.547
206.072
204.554
202.003
200.193
197.053
194.68
190.57
187.266
181.421
176.104
167.64
160.531
150.975
144.688
137.134
134.25
129.14
128.123
123.238
122.488
116.662
115.51
108.67
107.371
100.886
100.178
95.8697
95.8509
254.992
255.456
256.141
257.853
260.768
265.324
271.258
278.613
286.675
295.314
303.787
311.867
318.873
324.622
329.385
333.245
336.337
338.955
341.156
342.817
344.46
345.728
346.8
347.862
349.078
350.606
352.5
354.899
357.95
361.645
366.18
371.74
378.276
385.84
394.38
403.666
413.563
423.664
432.894
439.853
443.422
443.122
439.268
432.764
424.57
415.189
404.734
393.264
380.827
367.54
353.837
340.567
328.156
317.138
307.512
298.75
289.589
279.344
267.758
255.776
244.14
234.092
225.784
219.667
215.478
214.189
215.734
220.601
226.629
232.309
234.702
234.568
231.956
229.554
226.368
224.199
220.851
218.435
214.352
211.206
205.678
200.972
193.424
187.236
178.432
172.251
164.404
161.107
156.396
156.275
153.237
154.627
151.548
153.374
149.532
151.61
147.464
150.172
146.905
150.487
326.182
325.503
325.462
326.784
329.623
333.966
339.511
346.042
353.071
360.457
367.826
374.841
381.315
387.112
392.296
396.793
400.712
403.929
406.47
408.452
410.1
411.436
412.613
413.823
415.151
416.679
418.545
420.884
423.78
427.297
431.601
436.804
442.939
450.117
458.255
467.129
476.311
484.368
488.926
488.489
483.084
473.874
462.385
449.669
436.337
422.791
408.908
394.515
379.746
365.205
351.472
338.948
327.796
318.335
310.38
303.389
296.172
287.946
278.22
267.73
257.398
248.766
242.174
238.135
236.728
239.048
244.89
253.508
261.627
266.96
267.4
264.805
260.363
256.499
252.525
249.652
246.208
243.576
239.867
236.831
232.083
227.768
221.354
215.647
208.192
202.804
196.41
192.968
188.875
188.609
187.206
189.238
188.706
191.746
190.978
194.595
193.227
197.387
195.711
200.809
385.018
384.516
384.785
386.531
389.989
395.131
401.769
409.609
418.309
427.261
435.998
444.225
451.78
458.564
464.521
469.67
474.025
477.581
480.391
482.51
484.018
484.964
485.497
485.787
485.886
485.936
486.187
486.786
487.878
489.63
492.257
495.99
500.955
507.161
514.304
521.601
527.265
528.491
523.603
512.94
498.32
481.954
465.414
449.264
433.564
418.407
403.586
388.866
374.44
360.993
348.933
338.433
329.471
322.09
315.942
310.496
304.726
297.912
289.618
280.652
272.291
266.215
262.766
262.388
265.468
273.003
284.036
295.903
304.374
307.174
304.091
298.237
291.611
286.086
281.2
277.475
273.854
270.991
267.576
264.411
259.972
255.68
249.982
245.127
239.557
236.055
232.118
230.887
228.849
229.726
228.881
231.185
230.819
233.992
233.327
237.054
235.686
239.952
238.119
243.423
455.426
455.288
456.003
458.351
462.645
468.899
476.818
486.208
496.455
507.296
518.012
528.329
537.923
546.527
553.934
560.11
564.916
568.343
570.476
571.291
570.844
569.359
567.041
564.039
560.621
557.143
553.953
551.291
549.468
548.793
549.555
552.07
556.25
561.511
566.848
570.093
568.018
559.009
544.183
525.43
505.11
485.199
466.57
449.333
433.248
418.017
403.353
389.298
376.162
364.524
354.616
346.424
339.679
334.185
329.487
325.08
320.126
314.067
306.744
299.372
293.787
291.658
293.068
298.217
307.668
321.887
338.102
351.502
357.721
355.9
348.37
339.041
330.16
323.005
317.106
312.49
308.474
305.23
301.698
298.2
294.016
290.335
286.184
283.246
280.155
279.012
277.565
278.516
278.414
280.915
281.074
284.235
283.706
287.009
285.278
288.99
286.25
290.817
287.858
293.93
547.019
547.388
548.825
552.283
558.259
566.763
577.527
590.232
604.164
618.814
633.135
646.748
658.882
669.083
677.014
682.56
685.518
686.02
684.21
680.222
674.34
667.209
659.116
650.424
641.83
633.796
626.649
620.765
616.582
614.422
614.497
616.839
620.616
624.127
625.219
620.66
608.259
589.529
567.197
543.597
520.559
499.224
479.958
462.667
446.877
431.991
417.856
404.778
393.18
383.52
375.817
369.795
364.953
360.927
357.211
353.335
348.65
342.862
336.314
331.021
329.624
333.56
342.213
355.258
373.159
394.901
414.776
426.622
427.586
419.75
407.569
395.009
384.072
375.464
368.519
362.994
358.41
354.693
351.094
348.005
345.117
343.138
341.34
340.674
340.056
340.927
341.467
343.686
344.641
347.407
347.72
350.535
349.583
352.51
350.195
353.941
350.431
355.771
351.891
359.696
688.193
689.26
691.729
696.924
705.648
717.919
733.385
751.359
770.807
790.433
808.868
825.079
837.794
846.562
850.973
851.102
847.024
839.338
828.59
815.424
800.65
785.313
769.743
754.756
741.164
729.15
719.038
711.35
706.481
704.522
705.284
707.967
710.491
709.834
702.969
687.833
665.423
638.922
611.319
584.855
560.586
538.804
519.588
502.636
487.122
472.59
459.139
447.15
437.09
429.328
423.654
419.503
416.152
413.146
409.984
406.225
401.417
395.712
390.308
388.53
394.104
407.735
427.248
451.232
479.528
507.88
527.708
533.731
526.861
512.649
496.245
481.072
468.554
458.862
451.07
444.779
439.72
436.034
433.296
431.846
431.181
431.489
432.045
433.33
434.559
436.645
438.241
440.672
441.846
444.006
444.121
446.006
444.765
447.081
444.445
448.311
444.111
450.941
445.716
456.857
930.581
932.62
936.579
944.558
957.774
976.094
998.481
1023.46
1048.81
1072.19
1091.66
1105.27
1111.69
1111.11
1103.5
1089.99
1071.42
1049.24
1024.83
999.347
974.027
949.915
927.275
907.118
889.808
875.172
863.715
856.069
852.329
851.945
853.849
855.869
854.453
845.749
827.432
800.885
769.671
736.988
705.572
677.152
652.195
630.501
611.747
595.044
579.682
565.589
552.89
541.963
533.302
527.225
523.295
520.648
518.35
515.924
512.963
509.061
503.976
498.723
496.142
501.578
519.832
549.657
585.413
623.78
662.668
693.123
706.559
702.109
686.236
666.307
646.761
630.034
616.796
606.726
598.712
592.35
587.627
585.034
584.198
585.178
586.974
589.456
591.775
594.309
596.464
598.862
600.581
602.492
603.334
604.598
604.411
605.387
604.18
605.933
603.446
607.591
602.975
612.132