/*--------------------------------*- C++ -*----------------------------------*\
| =========                 |                                                 |
| \\      /  F ield         | OpenFOAM: The Open Source CFD Toolbox           |
|  \\    /   O peration     | Version:  v2012                                 |
|   \\  /    A nd           | Website:  www.openfoam.com                      |
|    \\/     M anipulation  |                                                 |
\*---------------------------------------------------------------------------*/
FoamFile
{
    version     2.0;
    format      ascii;
    class       volScalarField;
    location    "0.061";
    object      epsilon.air;
}
// * * * * * * * * * * * * * * * * * * * * * * * * * * * * * * * * * * * * * //

dimensions      [0 2 -3 0 0 0 0];


internalField   nonuniform List<scalar> 
1900
(
112.724
141.424
210.097
257.591
369.051
443.456
614.74
724.901
971.326
1128.6
15.4676
16.4471
18.6374
20.4503
23.7573
27.7271
32.0039
39.2876
45.1235
56.7646
14.7926
14.6415
14.5755
14.5063
14.5148
14.5574
14.6409
14.8309
15.0774
15.4134
14.77
14.6304
14.4635
14.3353
14.1726
14.0589
13.904
13.8079
13.6654
13.5937
14.7767
14.6214
14.4706
14.3203
14.1749
14.0288
13.8891
13.7471
13.614
13.4768
14.7778
14.6204
14.4715
14.3195
14.1755
14.0283
13.8893
13.7471
13.6134
13.4772
14.7777
14.6207
14.4731
14.3235
14.1841
14.045
13.9175
13.7915
13.6807
13.5716
14.7762
14.6498
14.5639
14.5034
14.5108
14.5517
14.6366
14.8199
15.0459
15.3947
15.2141
16.5985
18.2803
20.6742
23.5988
27.5654
32.274
38.3957
45.5783
54.8012
105.942
146.563
198.386
265.745
350.049
456.04
585.704
743.676
931.864
1154.05
4101.17
15204.5
19580.9
22433.5
21097.4
18003.3
15071.1
12780.5
11287.4
10373
9873.3
9697.96
9523.78
9255.73
8848.85
8349.52
7794.31
7207.24
6640.82
6122.5
5645.61
5218.85
4834.54
4483.66
4164.42
3875.07
3612.65
3375.27
3159.69
2964.02
2785.89
2623.26
2474.48
2337.99
2212.63
2097.21
1990.83
1892.54
1801.58
1717.21
1638.87
1565.95
1497.98
1434.51
1375.17
1319.57
1267.42
1218.42
1172.32
1128.86
1087.85
1049.06
1012.35
977.529
944.483
913.022
883.091
854.5
827.234
801.11
776.152
752.177
729.25
707.177
686.058
665.683
646.184
627.324
609.273
591.755
574.99
558.652
543.03
527.726
513.126
498.738
485.075
471.517
458.747
445.973
434.089
422.075
411.085
399.807
389.7
379.097
369.826
359.794
351.291
341.699
333.908
324.628
317.54
308.464
302.133
293.174
287.694
278.76
274.223
263.555
113.205
337.979
518.251
922.755
1124.91
1149.09
1121.05
1056.52
1050.63
1089.98
1195.15
1408.65
1695.91
2028.24
2379.06
2692.13
2970.87
3203.39
3357.93
3433.67
3425.63
3386.56
3300.33
3182.25
3053.91
2922.54
2791.68
2665.03
2541.57
2424.24
2312.21
2205.28
2103.97
2008.1
1917.79
1832.72
1752.83
1677.58
1606.78
1540.11
1477.32
1418.1
1362.24
1309.49
1259.66
1212.51
1167.88
1125.58
1085.44
1047.3
1011.03
976.48
943.547
912.082
882.029
853.237
825.677
799.204
773.818
749.375
725.909
703.274
681.535
660.54
640.381
620.889
602.184
584.072
566.701
549.84
533.682
517.945
502.883
488.148
474.08
460.242
447.092
434.071
421.792
409.539
398.12
386.611
376.058
365.269
355.574
345.453
336.577
327.029
318.916
309.817
302.413
293.637
286.929
278.364
272.388
263.944
258.778
250.362
246.092
236.061
16.4289
19.8707
22.8887
29.1007
34.7872
38.733
41.6894
43.7464
46.6704
50.6848
58.7186
70.9499
95.5188
130.32
189.618
267.61
374.049
509.458
666.78
837.492
1005.89
1163.74
1303.14
1419.39
1509.51
1572.28
1610.01
1627.08
1624.36
1613.51
1590.56
1560.29
1525.89
1488.65
1450.09
1410.36
1370.53
1330.2
1290.37
1251.2
1212.75
1175.17
1138.62
1103.14
1068.78
1035.49
1003.34
972.24
942.19
913.147
885.091
857.95
831.716
806.313
781.753
757.947
734.922
712.586
690.981
670.01
649.734
630.051
611.039
592.587
574.792
557.528
540.909
524.781
509.281
494.217
479.764
465.676
452.185
438.981
426.373
413.964
402.173
390.485
379.464
368.451
358.189
347.829
338.331
328.607
319.874
310.746
302.755
294.148
286.859
278.665
272.033
264.133
258.139
250.424
245.086
237.47
232.842
225.245
221.393
212.332
13.4532
13.4608
13.5469
13.8037
14.3348
15.011
15.7209
16.3434
16.9305
17.3464
17.9017
18.3654
19.3061
20.505
22.7324
26.2748
31.7504
40.8323
54.8028
76.2945
106.622
147.319
199.096
260.919
330.512
405.324
480.668
554.354
621.521
683.037
736.016
779.801
814.257
839.748
857.801
868.869
874.381
873.833
871.147
865.169
856.404
845.701
833.603
820.214
805.915
790.818
775.213
759.017
742.575
725.95
709.193
692.357
675.546
658.779
642.16
625.656
609.392
593.32
577.554
562.027
546.857
531.968
517.466
503.274
489.507
476.072
463.082
450.416
438.201
426.277
414.815
403.588
392.827
382.241
372.128
362.115
352.596
343.086
334.129
325.099
316.7
308.139
300.312
292.215
284.975
277.324
270.676
263.432
257.362
250.435
244.911
238.2
233.201
226.613
222.141
215.605
211.688
205.15
201.839
194.019
13.33
13.1588
13.0629
13.1174
13.3066
13.7203
14.2886
14.9137
15.456
15.883
16.2162
16.4399
16.6231
16.7652
16.9063
17.0943
17.3367
17.7356
18.3285
19.3158
20.8513
23.2604
26.7959
32.1593
39.7997
50.63
65.0348
83.6279
106.417
133.419
164.08
197.356
232.491
267.805
302.807
335.699
366.706
394.627
419.395
440.586
458.344
472.638
483.928
492.312
498.198
501.837
503.601
503.315
502.145
499.584
495.791
491.029
485.547
479.356
472.668
465.516
458.077
450.322
442.455
434.383
426.329
418.16
410.043
401.938
393.968
386.05
378.283
370.579
363.051
355.582
348.334
341.104
334.13
327.132
320.418
313.616
307.159
300.553
294.341
287.907
281.942
275.685
269.998
263.938
258.573
252.728
247.722
242.069
237.434
231.944
227.691
222.299
218.421
213.06
209.551
204.174
201.036
195.625
192.89
186.378
13.3252
13.1542
13.0319
13.087
13.2969
13.7748
14.5022
15.4915
16.5099
17.6088
18.6027
19.5265
20.264
20.8727
21.2984
21.6048
21.7768
21.8539
21.8409
21.7981
21.7054
21.6076
21.5375
21.5636
21.6717
21.9318
22.4732
23.3672
24.8568
27.0115
30.2684
34.6562
40.7068
48.286
57.7473
68.9473
82.0438
96.6569
112.697
129.619
147.147
164.737
182.08
198.768
214.569
229.198
242.652
254.694
265.495
274.979
283.304
290.437
296.589
301.754
306.09
309.623
312.51
314.692
316.386
317.422
318.154
318.16
317.955
317.432
316.407
315.036
313.367
311.422
309.27
306.877
304.359
301.586
298.775
295.691
292.634
289.271
286.033
282.416
279.011
275.183
271.657
267.661
264.08
259.971
256.42
252.255
248.824
244.652
241.403
237.235
234.192
230
227.171
222.912
220.289
215.94
213.508
209.095
206.873
201.533
13.4657
13.3602
13.4099
13.6566
14.3057
15.6895
18.038
21.4479
25.4114
29.7277
33.6269
37.078
39.6033
41.5459
42.6131
43.3249
43.3687
43.2416
42.9226
42.4032
41.788
41.1458
40.5051
39.8932
39.3486
38.868
38.5073
38.2315
38.1268
38.1799
38.3536
38.7099
39.3654
40.2544
41.5602
43.2604
45.5302
48.4349
52.1431
56.7727
62.4636
69.3185
77.412
86.7571
97.3722
109.101
121.904
135.484
149.724
164.309
179.043
193.682
208.019
221.887
235.152
247.677
259.45
270.336
280.417
289.56
297.903
305.325
311.926
317.722
322.723
327.006
330.536
333.431
335.669
337.383
338.555
339.255
339.482
339.329
338.898
338.003
336.966
335.345
333.787
331.61
329.602
326.952
324.609
321.574
319.039
315.72
313.139
309.636
307.112
303.502
301.074
297.37
295.051
291.224
289.006
285.046
282.921
278.897
276.901
272.111
15.9101
16.8583
18.5489
21.9327
28.4205
39.5062
55.4928
75.0487
95.4892
114.336
129.271
140.092
146.496
150.08
150.721
150.31
149.259
147.69
146.222
145.099
144.478
144.64
145.269
146.667
148.994
152.161
156.235
161.148
167.086
173.883
181.763
190.607
200.491
211.488
223.42
236.555
250.521
265.635
281.465
298.219
315.48
333.317
351.343
369.508
387.575
405.325
422.779
439.589
455.9
471.516
486.42
500.706
514.155
526.966
538.924
550.105
560.461
569.883
578.485
586.059
592.757
598.408
603.099
606.826
609.593
611.506
612.57
612.724
612.414
611.553
610.036
607.961
605.655
602.802
599.775
596.307
592.787
588.717
584.786
580.269
576.006
571.128
566.687
561.539
557.126
551.798
547.601
542.19
538.292
532.9
529.258
523.91
520.472
515.133
511.879
506.514
503.523
498.2
495.625
489.654
68.0435
90.4256
126.248
184.907
272.073
385.237
511.715
636.004
744.961
831.76
892.612
932.39
953.005
963.063
964.465
963.316
960.603
957.436
956.546
957.442
960.204
966.011
974.768
986.182
1000.07
1016.35
1034.84
1055.25
1077.54
1101.19
1126.27
1152.18
1178.86
1205.86
1232.88
1259.73
1285.92
1311.43
1335.82
1359.02
1380.82
1401.14
1419.92
1437.18
1452.91
1467.03
1479.9
1491.13
1501.27
1509.96
1517.38
1523.69
1528.43
1532.18
1534.43
1535.37
1535.04
1533.79
1531.2
1527.32
1522.41
1516.39
1509.39
1501.38
1492.72
1483.01
1472.73
1462.02
1450.9
1439.27
1427.54
1415.37
1403.34
1390.93
1378.78
1366.25
1354.15
1341.62
1329.57
1317.15
1305.35
1293.13
1281.83
1269.85
1259.35
1247.57
1238.1
1226.54
1218.08
1206.9
1199.18
1188.47
1181.27
1170.99
1164.36
1154.4
1148.52
1138.93
1134.25
1123.91
1464.7
1897.23
2399.03
2961.84
3563.17
4171.74
4746
5250.94
5654.5
5950.07
6131.55
6218.31
6205.73
6158.94
6060.33
5927.19
5777.02
5618.56
5458.32
5300.67
5148.43
5003.43
4866.8
4738.98
4620.13
4510.13
4408.78
4315.74
4230.71
4153.16
4082.92
4019.35
3962.17
3910.98
3865.29
3824.88
3789.17
3757.98
3730.74
3707.27
3687.05
3669.9
3655.31
3643.12
3632.99
3624.51
3617.71
3612
3607.58
3604.14
3601.39
3599.68
3598.31
3597.68
3597.48
3597.6
3597.97
3598.58
3599.55
3600.5
3601.81
3603.08
3604.62
3605.93
3607.26
3608.3
3608.53
3608.37
3607.8
3606.42
3604.28
3601.02
3597.39
3592.66
3587.72
3581.67
3575.62
3568.45
3561.37
3552.98
3544.83
3534.95
3525.8
3514.14
3504.15
3490.58
3479.92
3464.88
3453.8
3438.21
3427.03
3411.4
3400.69
3384.82
3374.94
3358.51
3349.35
3332.05
3323.17
3300.66
1111.67
1067.37
1125.07
1213
1241.74
1123.75
820.332
1984.18
54674.3
16163.1
7373.04
6121.27
6247.94
6498.24
6568.18
8041.98
74303.3
43695.2
24881.4
18499
16128.7
15025.5
14651.2
19697
76408.9
71056.1
54303
41245.7
32728.8
27191.5
24573.4
34098.5
69714.1
75712.1
67772.8
55680.9
44594.4
35864
30880.7
42725.3
57730.1
71170.2
67949.6
59053.7
48390.6
38746.1
32793.8
45238.2
47461
61814.6
62483
56611.8
47167.6
38179
32454.3
44245.9
39061.6
51796.4
53566
49820.8
42381.8
34666.7
29585.2
39755.4
32603.5
42965.1
44897.5
42111.8
36285
30030.1
25812.6
34032.8
27587.7
35602.3
37236.2
35095.3
30527.2
25546
22217.5
29375.1
23473.6
29567.7
30805.9
29105.8
25518.7
21624.7
19153.8
26015.8
20095.7
24681.2
25559.7
24171.2
21330.7
18292.1
16491.9
22978.9
17360.8
20770.8
21357.6
20200.1
17931.7
15551
14262.5
20359.3
15130.5
17648.7
18013.9
17034.6
15207.6
13328.7
12425.9
18153.4
13282.2
15140.9
15347.1
14511.8
13026.9
11533.8
10923.8
16323.8
11722.6
13101.5
13199.3
12483.7
11267.6
10074.8
9689.59
14802.3
10400.2
11431.3
11456.3
10840.8
9837.28
8880.1
8668.79
13530.8
9262.29
10045.1
10026.3
9494.27
8661.74
7892.01
7817.14
12459.8
8280.73
8883.92
8840.39
8379
7685.31
7066.56
7098.87
11549.1
7437.99
7906.38
7848.32
7447.48
6866.91
6370.55
6486.34
10768
6711.47
7078.37
7012.27
6663.2
6175.18
5778.33
5960.85
10091.4
6085.36
6373.68
6303.4
5998.33
5586.31
5270.73
5506.85
9500.53
5543.31
5770.45
5698.63
5431.11
5081.97
4833.19
5112.53
8982.22
5069.79
5249.92
5178.75
4943.68
4647.18
4453.88
4768.47
8526.04
4653.92
4797.77
4728.76
4521.89
4269.85
4123.08
4466.65
8122.67
4287.06
4402.77
4336.88
4154.67
3940.46
3833
4200.56
7764.38
3961.91
4055.67
3993.56
3833.03
3651.25
3577.24
3964.81
7444.69
3672.97
3749.33
3691.27
3549.85
3396.03
3350.66
3755
7158.26
3415.03
3477.62
3423.77
3299.26
3169.7
3149.01
3567.51
6900.76
3184.1
3235.67
3186.03
3076.52
2968.1
2968.83
3399.3
6668.46
2976.56
3019.32
2973.82
2877.7
2787.85
2806.86
3248
6458.26
2789.37
2825.09
2783.63
2699.47
2625.97
2660.92
3111.34
6267.54
2619.98
2650.09
2612.51
2539.12
2480.04
2529.03
2987.49
6094.14
2466.16
2491.8
2457.97
2394.28
2348.03
2409.45
2874.91
5936.08
2326.09
2348.19
2317.93
2263.02
2228.22
2300.69
2772.3
5791.67
2198.17
2217.48
2190.63
2143.66
2119.12
2201.49
2678.5
5659.36
2081.09
2098.18
2074.58
2034.82
2019.5
2110.74
2592.54
5537.84
1973.63
1989.01
1968.46
1935.27
1928.28
2027.51
2513.58
5425.96
1874.8
1888.84
1871.2
1844
1844.55
1950.99
2440.91
5322.79
1783.67
1796.71
1781.82
1760.11
1767.41
1880.53
2373.9
5227.5
1699.47
1711.78
1699.49
1682.81
1696.23
1815.47
2311.98
5139.33
1621.51
1633.31
1623.47
1611.42
1630.43
1755.26
2254.67
5057.64
1549.17
1560.65
1553.14
1545.35
1569.49
1699.43
2201.54
4981.88
1481.93
1493.23
1487.93
1484.07
1512.92
1647.57
2152.2
4911.51
1419.31
1430.57
1427.35
1427.14
1460.33
1599.32
2106.33
4846.1
1360.88
1372.2
1370.98
1374.11
1411.37
1554.35
2063.6
4785.2
1306.28
1317.75
1318.41
1324.64
1365.68
1512.37
2023.76
4728.46
1255.17
1266.85
1269.31
1278.44
1323
1473.12
1986.56
4675.46
1207.24
1219.19
1223.37
1235.23
1283.04
1436.38
1951.79
4625.98
1162.22
1174.5
1180.31
1194.72
1245.59
1401.93
1919.25
4579.65
1119.87
1132.53
1139.9
1156.72
1210.44
1369.6
1888.78
4536.37
1079.96
1093.03
1101.9
1120.99
1177.37
1339.21
1860.21
4495.8
1042.31
1055.83
1066.14
1087.36
1146.26
1310.62
1833.44
4457.89
1006.7
1020.69
1032.39
1055.63
1116.91
1283.66
1808.28
4422.37
973.013
987.513
1000.54
1025.7
1089.21
1258.24
1784.65
4389.17
941.038
956.062
970.372
997.348
1062.99
1234.2
1762.4
4358.04
910.708
926.279
941.832
970.536
1038.19
1211.49
1741.45
4328.87
881.817
897.947
914.701
945.057
1014.63
1189.94
1721.69
4301.47
854.348
871.056
888.977
920.91
992.315
1169.53
1703.03
4275.72
828.093
845.387
864.438
897.882
971.037
1150.11
1685.38
4251.4
803.084
820.981
841.133
876.027
950.847
1131.69
1668.66
4228.43
779.111
797.61
818.828
855.112
931.533
1114.1
1652.8
4206.58
756.247
775.361
797.621
835.244
913.193
1097.39
1637.77
4185.92
734.272
753.991
777.257
816.165
895.584
1081.39
1623.47
4166.14
713.298
733.632
757.884
798.033
878.863
1066.2
1609.93
4147.51
693.081
714.013
739.212
780.549
862.736
1051.59
1597
4129.59
673.777
695.312
721.44
763.934
847.428
1037.74
1584.79
4112.88
655.109
677.22
704.233
747.83
832.581
1024.33
1573.08
4096.71
637.275
659.966
687.853
732.529
818.507
1011.66
1562.09
4081.88
619.956
643.192
671.904
717.604
804.756
999.283
1551.44
4067.33
603.409
627.193
656.723
703.435
791.748
987.64
1541.53
4054.28
587.259
611.55
641.843
689.503
778.918
976.14
1531.78
4041.13
571.84
596.64
627.697
676.306
766.827
965.388
1522.82
4029.68
556.701
581.963
613.719
663.206
754.758
954.601
1513.79
4017.62
542.28
568.01
600.475
650.852
743.46
944.621
1505.66
4007.52
528.024
554.166
587.267
638.449
732.017
934.398
1497.16
3996.15
514.511
541.08
574.836
626.852
721.426
925.098
1489.73
3987.12
501.052
527.981
562.307
615.049
710.501
915.308
1481.57
3976.03
488.406
515.721
550.651
604.171
700.575
906.631
1474.74
3967.71
475.696
503.322
538.753
592.918
690.102
897.178
1466.76
3956.51
463.914
491.888
527.872
582.759
680.836
889.099
1460.45
3948.52
451.932
480.166
516.585
572.032
670.787
879.938
1452.55
3936.94
441.025
469.571
506.494
562.607
662.196
872.469
1446.75
3929.04
429.746
458.504
495.795
552.389
652.562
863.606
1438.96
3917.03
419.702
448.738
486.489
543.7
644.661
856.781
1433.73
3909.31
409.065
438.266
476.329
533.958
635.435
848.248
1426.14
3897.07
399.835
429.278
467.76
525.968
628.207
842.093
1421.6
3889.88
389.735
419.304
458.051
516.635
619.358
833.927
1414.38
3877.86
381.244
411.02
450.149
509.282
612.764
828.441
1410.59
3871.63
371.551
401.416
440.774
500.253
604.208
820.598
1403.81
3860.24
363.743
393.78
433.481
493.483
598.199
815.752
1400.7
3855.05
354.331
384.423
424.32
484.641
589.824
808.125
1394.4
3844.6
347.201
377.428
417.625
478.43
584.35
803.822
1391.69
3840
337.966
368.22
408.581
469.678
576.052
796.308
1385.86
3830.56
331.573
361.924
402.531
464.042
571.073
792.388
1383.24
3826.08
322.436
352.791
393.537
455.315
562.781
784.881
1377.47
3816.78
316.879
347.287
388.205
450.287
558.254
781.184
1374.8
3812.08
307.758
338.162
379.211
441.558
549.971
773.712
1368.9
3802.51
303.124
333.525
374.645
437.139
545.808
770.019
1366
3797.42
292.187
322.527
363.733
426.451
535.533
760.527
1357.76
3785.31
)
;

boundaryField
{
    frontAndBack
    {
        type            empty;
    }
    inlet
    {
        type            fixedValue;
        value           uniform 14.855;
    }
    outlet
    {
        type            zeroGradient;
    }
    walls
    {
        lowReCorrection 0;
        blending        stepwise;
        n               2;
        type            epsilonWallFunction;
        value           nonuniform List<scalar> 
228
(
112.724
141.424
210.097
257.591
369.051
443.456
614.74
724.901
971.326
1128.6
1111.67
1067.37
1125.07
1213
1241.74
1123.75
820.332
1984.18
1984.18
8041.98
19697
34098.5
42725.3
45238.2
44245.9
39755.4
34032.8
29375.1
26015.8
22978.9
20359.3
18153.4
16323.8
14802.3
13530.8
12459.8
11549.1
10768
10091.4
9500.53
8982.22
8526.04
8122.67
7764.38
7444.69
7158.26
6900.76
6668.46
6458.26
6267.54
6094.14
5936.08
5791.67
5659.36
5537.84
5425.96
5322.79
5227.5
5139.33
5057.64
4981.88
4911.51
4846.1
4785.2
4728.46
4675.46
4625.98
4579.65
4536.37
4495.8
4457.89
4422.37
4389.17
4358.04
4328.87
4301.47
4275.72
4251.4
4228.43
4206.58
4185.92
4166.14
4147.51
4129.59
4112.88
4096.71
4081.88
4067.33
4054.28
4041.13
4029.68
4017.62
4007.52
3996.15
3987.12
3976.03
3967.71
3956.51
3948.52
3936.94
3929.04
3917.03
3909.31
3897.07
3889.88
3877.86
3871.63
3860.24
3855.05
3844.6
3840
3830.56
3826.08
3816.78
3812.08
3802.51
3797.42
3785.31
105.942
146.563
198.386
265.745
350.049
456.04
585.704
743.676
931.864
1154.05
1464.7
1897.23
2399.03
2961.84
3563.17
4171.74
4746
5250.94
5654.5
5950.07
6131.55
6218.31
6205.73
6158.94
6060.33
5927.19
5777.02
5618.56
5458.32
5300.67
5148.43
5003.43
4866.8
4738.98
4620.13
4510.13
4408.78
4315.74
4230.71
4153.16
4082.92
4019.35
3962.17
3910.98
3865.29
3824.88
3789.17
3757.98
3730.74
3707.27
3687.05
3669.9
3655.31
3643.12
3632.99
3624.51
3617.71
3612
3607.58
3604.14
3601.39
3599.68
3598.31
3597.68
3597.48
3597.6
3597.97
3598.58
3599.55
3600.5
3601.81
3603.08
3604.62
3605.93
3607.26
3608.3
3608.53
3608.37
3607.8
3606.42
3604.28
3601.02
3597.39
3592.66
3587.72
3581.67
3575.62
3568.45
3561.37
3552.98
3544.83
3534.95
3525.8
3514.14
3504.15
3490.58
3479.92
3464.88
3453.8
3438.21
3427.03
3411.4
3400.69
3384.82
3374.94
3358.51
3349.35
3332.05
3323.17
3300.66
)
;
    }
}


// ************************************************************************* //
