/*--------------------------------*- C++ -*----------------------------------*\
| =========                 |                                                 |
| \\      /  F ield         | OpenFOAM: The Open Source CFD Toolbox           |
|  \\    /   O peration     | Version:  v2012                                 |
|   \\  /    A nd           | Website:  www.openfoam.com                      |
|    \\/     M anipulation  |                                                 |
\*---------------------------------------------------------------------------*/
FoamFile
{
    version     2.0;
    format      ascii;
    class       volScalarField;
    location    "0.061";
    object      nut.air;
}
// * * * * * * * * * * * * * * * * * * * * * * * * * * * * * * * * * * * * * //

dimensions      [0 2 -1 0 0 0 0];


internalField   nonuniform List<scalar> 
1900
(
1.07826e-05
1.25664e-05
1.64255e-05
1.88861e-05
2.41588e-05
2.74149e-05
3.43191e-05
3.84516e-05
4.70968e-05
5.21758e-05
0.000160682
0.000159705
0.000159987
0.000159319
0.000160012
0.000159841
0.000161051
0.000161629
0.000163504
0.000165992
0.000160404
0.000159935
0.00015935
0.000158942
0.000158375
0.000158031
0.000157477
0.000157202
0.000156663
0.000156472
0.000160436
0.000159918
0.000159413
0.000158935
0.000158465
0.000158021
0.000157583
0.000157167
0.000156758
0.000156368
0.000160443
0.000159915
0.000159426
0.000158936
0.000158485
0.000158027
0.000157609
0.000157179
0.000156791
0.000156386
0.000160443
0.000159915
0.000159427
0.000158936
0.000158486
0.000158026
0.00015761
0.000157178
0.000156792
0.000156384
0.000160422
0.000159933
0.000159398
0.000158951
0.000158448
0.00015804
0.000157563
0.000157189
0.000156736
0.000156393
0.000160361
0.000159977
0.000159308
0.000158984
0.000158335
0.00015807
0.000157441
0.000157238
0.000156633
0.000156495
0.000160186
0.000160254
0.000159436
0.000159943
0.000159442
0.000160539
0.000160502
0.000162329
0.0001629
0.000165194
1.04288e-05
1.27949e-05
1.58555e-05
1.92304e-05
2.33352e-05
2.78917e-05
3.32115e-05
3.9071e-05
4.56968e-05
5.28804e-05
0.000196167
0.00064128
0.00141948
0.00211003
0.00247577
0.002674
0.00269258
0.00258674
0.00247364
0.00238986
0.00233874
0.00234366
0.00237545
0.00247807
0.00261004
0.00278462
0.00300186
0.00323871
0.00348031
0.00372032
0.00392673
0.00405941
0.00417897
0.00430451
0.00442121
0.00453137
0.00463439
0.0047289
0.00481964
0.00490359
0.00498782
0.00506683
0.00513408
0.005175
0.00520977
0.00524037
0.00526655
0.00528905
0.00530869
0.00532587
0.00534134
0.00535553
0.00536827
0.0053801
0.00539056
0.00540003
0.00540812
0.00541531
0.00542127
0.00542642
0.00543064
0.00543426
0.00543714
0.00543972
0.00544172
0.00544348
0.00544469
0.00544566
0.00544609
0.00544623
0.00544577
0.00544498
0.00544349
0.00544164
0.00543901
0.00543607
0.0054322
0.00542822
0.00542317
0.00541833
0.00541227
0.0054068
0.00539998
0.00539434
0.00538727
0.00538201
0.00537505
0.00537071
0.00536397
0.00536069
0.00535376
0.00535121
0.00534322
0.00534053
0.00533011
0.00532565
0.0053112
0.00530337
0.00528423
0.00527203
0.0052487
0.00523058
0.00520402
0.00517789
0.00515034
0.00511631
0.0050908
0.00505133
0.00503139
0.0049875
0.00017247
0.000182736
0.000219855
0.000325325
0.000480872
0.000625583
0.000699555
0.000748533
0.000767601
0.000767174
0.000765045
0.000776503
0.000806727
0.000838446
0.000891463
0.000968151
0.00106218
0.00118029
0.00131687
0.00147484
0.00164431
0.00182398
0.00200785
0.00219962
0.00240206
0.00260613
0.00280815
0.00300297
0.00318893
0.00336227
0.00352264
0.00366315
0.0037922
0.0038822
0.00396874
0.0040537
0.00413198
0.00420588
0.00427712
0.00434481
0.00441215
0.00447744
0.00453639
0.00458437
0.00462787
0.00466781
0.00470385
0.00473711
0.00476714
0.00479502
0.00482087
0.00484498
0.00486774
0.00488942
0.00490972
0.0049289
0.0049468
0.00496375
0.0049794
0.00499404
0.00500735
0.00501972
0.00503078
0.00504097
0.00504997
0.00505822
0.00506521
0.00507173
0.00507687
0.00508178
0.00508515
0.00508867
0.00509044
0.00509302
0.00509379
0.00509605
0.0050963
0.00509903
0.00509899
0.00510247
0.00510183
0.00510575
0.00510363
0.00510707
0.00510202
0.00510301
0.00509304
0.00508957
0.00507388
0.00506502
0.00504451
0.0050294
0.00500602
0.00498342
0.00495936
0.00492947
0.00490694
0.00487154
0.00485309
0.0048117
0.000155878
0.00015605
0.000155665
0.000156124
0.000159359
0.000165002
0.000172681
0.000180637
0.000185994
0.000190946
0.000194859
0.000199347
0.000205344
0.000212518
0.000222211
0.000236152
0.000254865
0.000281
0.000315789
0.000360328
0.000416498
0.000484949
0.000565744
0.000657989
0.000760747
0.000876053
0.00100046
0.00113622
0.00127744
0.00142789
0.00157741
0.00173664
0.0018974
0.0020564
0.00221533
0.00237203
0.00252376
0.00266991
0.00280894
0.00294093
0.00306403
0.00315933
0.00324165
0.00332172
0.00339897
0.00347377
0.00354555
0.00361494
0.0036808
0.00374598
0.00380981
0.00387193
0.00393498
0.00399617
0.00405494
0.00411213
0.00415936
0.00419875
0.00423512
0.00426907
0.00430038
0.00432977
0.00435695
0.00438296
0.00440731
0.00443041
0.00445198
0.00447257
0.00449134
0.00450913
0.00452499
0.00454026
0.00455335
0.0045665
0.0045776
0.00458937
0.0045991
0.00461052
0.00461919
0.00463061
0.00463805
0.0046492
0.0046546
0.0046646
0.00466664
0.00467342
0.00466984
0.00467114
0.00466091
0.00465593
0.00464004
0.0046289
0.00461058
0.00459295
0.00457419
0.00455026
0.00453247
0.00450336
0.00448771
0.00445157
0.000155907
0.000155427
0.000154966
0.000154627
0.000154423
0.00015444
0.00015454
0.000154749
0.00015491
0.000155056
0.000155125
0.000155123
0.000155173
0.000155076
0.00015528
0.000155184
0.000155801
0.000155934
0.000157408
0.000158338
0.000161603
0.000165799
0.000171257
0.00018033
0.000192013
0.000210594
0.000234305
0.000266587
0.000305528
0.000354924
0.000412033
0.000479256
0.000554862
0.000639427
0.000730657
0.000829822
0.000934293
0.00104474
0.00115866
0.00127624
0.00139458
0.00151483
0.00163725
0.0017576
0.00187627
0.00199479
0.00211088
0.00222481
0.00233526
0.00242936
0.00250932
0.00258849
0.00266767
0.00274608
0.0028233
0.00289979
0.00297489
0.00304913
0.00312208
0.00319483
0.00326645
0.00333926
0.00339828
0.00344803
0.00349485
0.00354046
0.00358423
0.00362582
0.00366418
0.00370038
0.00373397
0.00376586
0.00379469
0.00382273
0.00384832
0.00387335
0.00389628
0.0039193
0.0039396
0.00396114
0.00397907
0.00399906
0.00401417
0.00403184
0.00404296
0.00405634
0.00406123
0.00406793
0.00406523
0.00406449
0.00405555
0.00404887
0.00403707
0.00402514
0.00401305
0.00399662
0.00398471
0.00396443
0.00395313
0.00392618
0.00015595
0.00015543
0.00015499
0.000154567
0.00015429
0.000154113
0.000154091
0.000154194
0.000154289
0.000154423
0.000154397
0.00015443
0.000154246
0.000154214
0.000153928
0.000153899
0.000153557
0.000153577
0.000153203
0.000153306
0.000152917
0.000153147
0.000152791
0.000153197
0.000152959
0.000153679
0.000153774
0.000155137
0.00015604
0.000158759
0.000162226
0.000166732
0.000173162
0.000183516
0.000195713
0.000214029
0.000235698
0.000264225
0.000297579
0.000338467
0.000384745
0.000438216
0.000496934
0.000562581
0.000632383
0.000708085
0.000786694
0.000870125
0.000955371
0.00104405
0.00113219
0.00122136
0.00130819
0.00139569
0.00148507
0.00157344
0.00166168
0.00174996
0.0018374
0.00192401
0.0020092
0.00209354
0.00217636
0.00225774
0.00233726
0.00241484
0.00248857
0.00255766
0.00262233
0.00268223
0.00273795
0.00278971
0.00283709
0.00288168
0.00292243
0.00296098
0.00299703
0.00303223
0.00306506
0.00309792
0.00312796
0.00315883
0.0031854
0.00321283
0.00323489
0.00325717
0.00327288
0.00328777
0.00329544
0.00330267
0.00330429
0.00330719
0.0033069
0.00330704
0.00330643
0.0033043
0.00330362
0.0032999
0.00329724
0.00329042
0.000155952
0.000155421
0.000154977
0.00015452
0.000154251
0.000154035
0.000154121
0.000154179
0.000154489
0.000154667
0.000155096
0.000155405
0.000155954
0.000156388
0.000157052
0.000157583
0.000158321
0.000158909
0.0001597
0.000160324
0.000161171
0.000161835
0.00016275
0.000163473
0.000164479
0.000165288
0.000166403
0.000167326
0.000168575
0.000169637
0.00017107
0.000172315
0.000173992
0.000175496
0.000177564
0.000179835
0.000182374
0.000185626
0.000189098
0.000194025
0.00019947
0.000206894
0.000215455
0.000226871
0.0002402
0.000257477
0.000277592
0.000302738
0.000332105
0.000366769
0.000406667
0.000451631
0.000501954
0.000556176
0.00061525
0.00067738
0.000743225
0.000810739
0.000880816
0.000951131
0.0010228
0.00109341
0.00116441
0.00123307
0.00130111
0.0013659
0.00143014
0.00149281
0.00155471
0.00161463
0.00167355
0.00173084
0.00178632
0.00184117
0.00189402
0.0019454
0.00199594
0.00204619
0.00209443
0.00214336
0.00218913
0.00223655
0.00227963
0.00232427
0.0023634
0.00240361
0.00243776
0.00247138
0.00249751
0.0025224
0.00254071
0.00255907
0.00257317
0.00258806
0.00260094
0.00261449
0.00262714
0.00264122
0.00264902
0.00266778
0.000155871
0.000155442
0.000154875
0.000154529
0.000154135
0.000154113
0.000154397
0.000155112
0.000156502
0.000158757
0.000161991
0.000165484
0.000169691
0.000174015
0.000178705
0.000183136
0.000187748
0.000192039
0.000196482
0.00020064
0.000205022
0.000209191
0.000213707
0.000218039
0.000222834
0.000227473
0.000232633
0.000237689
0.000243139
0.000248932
0.000254913
0.000261255
0.000267817
0.00027487
0.000282239
0.000290132
0.000298448
0.000307266
0.000316633
0.000326472
0.000336973
0.000347915
0.000359632
0.000371767
0.000384781
0.000398206
0.00041263
0.000427463
0.000443454
0.000459854
0.000477639
0.000495847
0.000515669
0.000536029
0.000558235
0.000581102
0.000606078
0.000631808
0.000659934
0.000689142
0.000720304
0.000752863
0.000787788
0.000823848
0.000862215
0.000901653
0.000943053
0.000985501
0.00102974
0.00107486
0.00112142
0.00116882
0.00121709
0.00126627
0.00131573
0.00136575
0.00141535
0.00146601
0.00151507
0.00156585
0.00161374
0.00166442
0.00171079
0.00176022
0.00180403
0.00185109
0.00189202
0.00193486
0.0019695
0.00200515
0.00203234
0.00206144
0.00208315
0.00210964
0.00212996
0.00215613
0.00217592
0.00220256
0.00221719
0.00225044
0.000155799
0.000155733
0.000155028
0.000155435
0.000155764
0.000160088
0.000164386
0.000172738
0.000186175
0.00020131
0.000218057
0.000234288
0.000250138
0.000264316
0.000277848
0.000289907
0.000301904
0.000312909
0.00032444
0.000335665
0.00034789
0.000360251
0.000373212
0.00038629
0.000400069
0.00041391
0.000428488
0.000443104
0.000458513
0.000473925
0.000490157
0.000506373
0.00052361
0.000541763
0.000560638
0.000580191
0.000600279
0.000620875
0.000641925
0.000663349
0.000685176
0.000707301
0.000729828
0.000752581
0.000775743
0.000799073
0.000822862
0.000846667
0.000871019
0.00089559
0.00092032
0.00094547
0.000971091
0.000997054
0.00102354
0.00105037
0.00107777
0.00110548
0.00113375
0.00116224
0.00119121
0.0012203
0.00124967
0.00127897
0.00130839
0.00133758
0.00136663
0.00139527
0.00142348
0.00145099
0.00147769
0.00150365
0.00152863
0.00155276
0.00157551
0.00159748
0.00161808
0.00163833
0.00165734
0.00167677
0.0016948
0.00171413
0.00173158
0.00175079
0.0017679
0.00178722
0.00180366
0.00182089
0.00183382
0.00184712
0.00185699
0.00186882
0.00187827
0.00189456
0.00190813
0.00192893
0.00194291
0.0019655
0.0019761
0.00200038
0.000166516
0.000169603
0.000176144
0.000188678
0.000212041
0.000244423
0.00028277
0.00032303
0.000361849
0.000397531
0.000429334
0.000457425
0.000482549
0.000505607
0.000527821
0.000550296
0.00057339
0.000597119
0.000624459
0.00065286
0.000681105
0.000691056
0.000701621
0.000713016
0.000724919
0.000737565
0.000750513
0.000764162
0.000777931
0.000792259
0.000806562
0.000821321
0.000835856
0.000850239
0.000864423
0.000878452
0.000892305
0.000905985
0.000919513
0.000932826
0.000945979
0.000958929
0.000971718
0.000984285
0.000996691
0.00100888
0.0010209
0.00103276
0.00104443
0.00105592
0.00106723
0.00107833
0.00108923
0.0010999
0.00111038
0.00112066
0.00113076
0.00114068
0.00115045
0.00116007
0.00116959
0.00117899
0.00118832
0.00119759
0.00120678
0.0012158
0.00122461
0.00123312
0.0012413
0.00124912
0.00125662
0.00126383
0.00127059
0.00127687
0.00128265
0.00128832
0.00129405
0.00130005
0.00130639
0.00131272
0.00131922
0.00132544
0.00133149
0.00133712
0.00134204
0.00134614
0.0013481
0.00134784
0.00134557
0.00134203
0.00133801
0.00133754
0.00134287
0.00135404
0.00136742
0.00138121
0.00139418
0.00140871
0.00141789
0.00142863
6.23709e-05
7.45209e-05
8.79206e-05
0.000102396
0.000118129
0.000134678
0.000151713
0.000168235
0.000183701
0.000197067
0.000208128
0.000216297
0.000221571
0.000225223
0.000226535
0.000226141
0.000224563
0.000222167
0.000219222
0.000215997
0.000212597
0.000209235
0.000205978
0.000202876
0.000199952
0.000197229
0.000194707
0.000192392
0.000190275
0.000188354
0.000186617
0.000185056
0.00018366
0.000182418
0.000181317
0.000180347
0.000179496
0.000178754
0.000178111
0.000177559
0.000177088
0.000176691
0.00017636
0.000176089
0.000175872
0.000175702
0.000175575
0.000175485
0.000175428
0.000175401
0.000175398
0.000175417
0.000175454
0.000175505
0.00017557
0.000175643
0.000175726
0.000175817
0.000175913
0.00017602
0.000176131
0.000176244
0.000176381
0.000176522
0.000176661
0.00017681
0.000176965
0.000177118
0.000177264
0.000177402
0.000177529
0.000177643
0.000177737
0.000177818
0.000177883
0.000177929
0.000177992
0.000178064
0.00017814
0.000178236
0.000178366
0.000178488
0.000178581
0.000178672
0.000178762
0.000178828
0.000178819
0.000178611
0.000178201
0.000177642
0.000177066
0.000176637
0.000176454
0.000176529
0.000176727
0.000176977
0.000177354
0.000177784
0.000178042
0.000178301
0.000132029
0.00100866
0.00144191
0.00161975
0.00157206
0.00130269
0.000974526
0.000294976
0.00294546
0.00274224
0.00298682
0.0031407
0.00283862
0.00217103
0.00114302
0.000457658
0.00467239
0.00460563
0.00549736
0.00623566
0.0059145
0.00462861
0.0024687
0.00059508
0.00542864
0.00584552
0.00713127
0.00894465
0.00857619
0.00696548
0.00395373
0.000754748
0.0057499
0.00657411
0.00809042
0.0098719
0.00989392
0.00828777
0.00495181
0.000857639
0.00587159
0.00677445
0.00820922
0.00998179
0.0102975
0.00879239
0.00535496
0.000886355
0.00577174
0.00692614
0.00824446
0.00985459
0.0103959
0.00898466
0.00553471
0.000892909
0.00550988
0.00679026
0.00826821
0.0098212
0.0103339
0.0090055
0.00561259
0.000883354
0.00522773
0.00657763
0.00809735
0.00963633
0.0100801
0.00881376
0.00552219
0.000850846
0.00499394
0.00638373
0.00793932
0.00944293
0.00976023
0.00852686
0.00535274
0.00081181
0.00481927
0.00623495
0.00782156
0.00928978
0.00942981
0.008211
0.00515327
0.000770072
0.00472708
0.00616827
0.0077508
0.00900455
0.00909392
0.00787757
0.00492679
0.000735336
0.00468127
0.0061545
0.0077231
0.00874225
0.00876605
0.00753669
0.00467799
0.000711711
0.0046995
0.00619384
0.00773064
0.00850605
0.00845664
0.00721046
0.00443947
0.000689031
0.00473383
0.00626282
0.00777067
0.00829797
0.0081737
0.00690807
0.00422019
0.000668064
0.0047875
0.00633693
0.0076977
0.00810509
0.00791031
0.00663615
0.00401825
0.000648914
0.00486091
0.00640309
0.00756044
0.00791903
0.00766226
0.00638425
0.0038373
0.000603404
0.00494992
0.00646287
0.00743447
0.00774045
0.00743091
0.00615469
0.00368574
0.000521029
0.00505052
0.00651608
0.00731839
0.00757234
0.00721644
0.00594364
0.00354771
0.000459839
0.00516064
0.006565
0.00721375
0.00741663
0.00701887
0.00574934
0.00342022
0.00041282
0.00527807
0.00658853
0.00711915
0.00727302
0.00683737
0.00557075
0.00330271
0.000375651
0.00540318
0.00655406
0.00703368
0.00714099
0.00667077
0.00540688
0.0031949
0.000345643
0.00551883
0.00652065
0.00695402
0.00701853
0.00651723
0.00525603
0.00309575
0.000320962
0.00563027
0.00648962
0.00687963
0.00690443
0.00637507
0.00511664
0.00300436
0.000300359
0.00572866
0.00645934
0.00680935
0.00679752
0.00624299
0.00498733
0.00291983
0.000282941
0.00581882
0.00642977
0.00674258
0.00669695
0.00611921
0.00486692
0.00284139
0.000268045
0.00583336
0.00640048
0.00667859
0.0066015
0.00600453
0.00475411
0.00276844
0.000255191
0.00584144
0.00637016
0.00661637
0.00651035
0.00589683
0.00464819
0.00270035
0.000244
0.00584626
0.00633966
0.0065561
0.00642331
0.00579492
0.00454845
0.0026366
0.000234186
0.00584814
0.00630884
0.00649732
0.00633986
0.00569792
0.00445414
0.00257669
0.000225523
0.00584966
0.00627891
0.00644028
0.00625972
0.00560555
0.00436478
0.00252024
0.000217827
0.00585009
0.00624966
0.00638501
0.00618283
0.00551743
0.00428
0.00246699
0.000210955
0.00585
0.00622112
0.00633214
0.00610888
0.00543313
0.0041994
0.00241667
0.00020479
0.00584928
0.00619345
0.00628131
0.00603799
0.00535255
0.00412276
0.0023691
0.000199238
0.00584706
0.00616616
0.00623217
0.00597009
0.00527549
0.00404983
0.0023241
0.000194219
0.00584368
0.00613921
0.00618455
0.00590467
0.0052018
0.00398042
0.00228153
0.000189671
0.00583901
0.00611245
0.00613808
0.00584215
0.00513091
0.00391419
0.0022412
0.000185537
0.00583299
0.00608589
0.00609286
0.00578207
0.0050628
0.00385092
0.00220295
0.000181773
0.00582588
0.00605941
0.00604872
0.00572405
0.00499727
0.00379036
0.00216662
0.000178335
0.00581793
0.00603313
0.00600573
0.00566799
0.00493422
0.00373239
0.00213209
0.000175192
0.00580928
0.00600692
0.00596366
0.0056136
0.00487341
0.0036768
0.00209924
0.00017231
0.00580038
0.00598113
0.00592271
0.00556096
0.0048148
0.00362348
0.00206796
0.000169666
0.00579105
0.00595556
0.00588265
0.00550983
0.00475818
0.00357225
0.00203812
0.000167235
0.00578167
0.00593051
0.00584374
0.0054603
0.00470355
0.00352305
0.00200967
0.000164996
0.00577195
0.00590574
0.00580561
0.0054122
0.00465072
0.0034757
0.00198249
0.000162929
0.0057622
0.00588143
0.00576871
0.00536549
0.0045997
0.00343019
0.00195655
0.00016102
0.00575207
0.00585736
0.00573272
0.00532
0.00455027
0.00338635
0.00193176
0.000159254
0.0057419
0.00583376
0.00569773
0.00527589
0.00450249
0.00334417
0.00190809
0.000157619
0.0057314
0.00581036
0.00566344
0.00523292
0.00445618
0.0033035
0.00188545
0.000156103
0.00572086
0.00578745
0.00563005
0.00519123
0.00441139
0.00326435
0.00186382
0.000154698
0.00571002
0.00576471
0.00559729
0.00515058
0.00436793
0.00322657
0.00184312
0.000153392
0.00569923
0.0057425
0.00556538
0.00511112
0.00432588
0.00319019
0.00182334
0.00015218
0.0056882
0.00572044
0.00553406
0.00507262
0.00428504
0.00315505
0.00180439
0.000151053
0.00567727
0.00569899
0.00550348
0.00503521
0.0042455
0.00312117
0.00178626
0.000150005
0.00566619
0.00567779
0.00547343
0.00499866
0.00420707
0.00308843
0.00176889
0.000149028
0.0056553
0.00565711
0.00544413
0.0049631
0.00416979
0.00305681
0.00175225
0.000148118
0.00564427
0.00563662
0.00541532
0.00492833
0.00413352
0.00302622
0.00173628
0.000147268
0.00563341
0.00561658
0.00538718
0.00489445
0.00409826
0.00299661
0.00172095
0.000146474
0.00562238
0.00559665
0.00535946
0.00486128
0.0040639
0.00296793
0.00170622
0.000145731
0.00561144
0.00557705
0.0053323
0.00482887
0.00403044
0.00294011
0.00169205
0.000145035
0.00560028
0.0055575
0.00530548
0.00479708
0.00399779
0.00291313
0.00167843
0.000144384
0.00558912
0.00553822
0.00527911
0.00476594
0.00396593
0.00288693
0.00166532
0.000143772
0.00557764
0.00551894
0.005253
0.00473536
0.00393483
0.00286153
0.00165271
0.000143199
0.00556614
0.00549984
0.00522728
0.00470531
0.00390439
0.00283678
0.00164052
0.000142659
0.0055542
0.00548062
0.00520178
0.0046758
0.00387473
0.00281287
0.00162887
0.000142155
0.00554227
0.00546161
0.00517666
0.00464682
0.00384568
0.00278952
0.00161754
0.000141682
0.00552978
0.00544238
0.00515171
0.00461836
0.0038174
0.00276699
0.00160676
0.00014124
0.00551743
0.00542347
0.00512722
0.00459046
0.00378974
0.00274505
0.00159628
0.000140822
0.00550441
0.00540427
0.00510289
0.0045631
0.00376288
0.0027239
0.00158629
0.000140441
0.0054918
0.0053856
0.00507913
0.00453633
0.0037366
0.00270325
0.0015766
0.000140083
0.00547843
0.0053666
0.00505552
0.00451012
0.00371113
0.00268342
0.00156741
0.000139743
0.0054658
0.00534837
0.00503265
0.00448457
0.00368625
0.00266408
0.00155847
0.000139428
0.00545234
0.0053298
0.00500995
0.00445963
0.00366223
0.00264558
0.00155004
0.000139146
0.0054401
0.00531234
0.00498818
0.00443542
0.00363875
0.00262748
0.00154183
0.000138879
0.00542698
0.00529455
0.00496661
0.00441184
0.00361617
0.00261025
0.00153415
0.00013864
0.00541556
0.00527816
0.00494608
0.00438897
0.00359404
0.00259333
0.00152664
0.000138412
0.00540303
0.00526127
0.00492565
0.00436675
0.00357286
0.00257736
0.0015197
0.000138211
0.00539274
0.0052461
0.0049064
0.00434522
0.00355208
0.00256164
0.00151288
0.000138017
0.00538078
0.00523007
0.00488714
0.00432438
0.00353242
0.00254701
0.00150667
0.000137849
0.00537165
0.00521616
0.00486927
0.00430431
0.00351316
0.0025326
0.00150052
0.000137684
0.00535993
0.0052008
0.00485116
0.00428501
0.00349523
0.00251943
0.00149499
0.000137544
0.0053517
0.00518796
0.0048346
0.00426647
0.00347759
0.00250635
0.00148949
0.000137407
0.00533945
0.00517265
0.00481719
0.00424846
0.00346124
0.00249454
0.00148455
0.000137291
0.00533138
0.00516033
0.00480154
0.00423122
0.00344504
0.00248264
0.00147955
0.000137181
0.00531744
0.00514421
0.00478428
0.00421424
0.00343019
0.00247213
0.00147513
0.000137093
0.00530837
0.00513167
0.0047692
0.00419821
0.00341546
0.0024613
0.00147023
0.000136999
0.00529153
0.00511383
0.00475145
0.00418175
0.00340155
0.00245145
0.00146359
0.00013692
0.00528029
0.00510017
0.00473616
0.00416608
0.00338716
0.0024406
0.00145602
0.00013683
0.00525985
0.00507974
0.00471673
0.00414863
0.00337255
0.00243016
0.00144832
0.000136735
0.00524532
0.00506365
0.00469955
0.0041313
0.0033565
0.00241808
0.00143914
0.000136634
0.00522114
0.00503975
0.00467676
0.00411053
0.00333886
0.00240557
0.00142931
0.000136506
0.00520111
0.00501846
0.00465454
0.00408838
0.0033186
0.00239066
0.00141832
0.000136403
0.00517325
0.00499041
0.00462717
0.00406301
0.00329718
0.00237604
0.00140772
0.000136254
0.00514505
0.00496101
0.00459725
0.00403417
0.00327203
0.00235857
0.00139663
0.000136171
0.00511577
0.00493117
0.00456787
0.004007
0.00324961
0.00234397
0.00138695
0.000136025
0.00507948
0.00489386
0.00453073
0.00397226
0.00322051
0.00232475
0.00137663
0.000135973
0.00505256
0.00486657
0.00450409
0.00394811
0.0032013
0.00231251
0.00136879
0.000135871
0.00501119
0.00482477
0.00446343
0.00391132
0.00317164
0.00229388
0.00136023
0.000135863
0.00499074
0.00480454
0.00444422
0.0038944
0.00315853
0.00228591
0.00135616
0.000135856
0.0049463
0.00476094
0.00440323
0.00385859
0.00313114
0.00226952
0.00134999
0.000135913
)
;

boundaryField
{
    frontAndBack
    {
        type            empty;
    }
    inlet
    {
        type            calculated;
        value           nonuniform List<scalar> 10(9.54769e-06 0.000160714 0.000160714 0.000160714 0.000160714 0.000160714 0.000160714 0.000160714 0.000160714 9.54736e-06);
    }
    outlet
    {
        type            calculated;
        value           nonuniform List<scalar> 
18
(
0.0049463
0.00476094
0.00440323
0.00385859
0.00313114
0.00226952
0.00134944
0.0001718
0.0049875
0.0048117
0.00445157
0.00392618
0.00329042
0.00266778
0.00225044
0.00200038
0.00142918
0.000187099
)
;
    }
    walls
    {
        type            nutkWallFunction;
        blending        stepwise;
        Cmu             0.09;
        kappa           0.41;
        E               9.8;
        value           nonuniform List<scalar> 
228
(
2.20337e-05
2.44559e-05
2.91026e-05
3.17398e-05
3.68056e-05
3.96162e-05
4.50184e-05
4.79443e-05
5.35672e-05
5.65374e-05
0.00022826
0.000216672
0.000219078
0.000225623
0.000229851
0.000225514
0.000199531
3.37445e-05
3.37445e-05
5.92132e-05
7.99893e-05
9.57464e-05
0.000104038
0.000107449
0.000108225
0.000107093
0.000103229
9.8568e-05
9.35566e-05
8.93629e-05
8.64982e-05
8.37381e-05
8.11775e-05
7.88311e-05
7.66057e-05
7.44996e-05
7.26047e-05
7.08987e-05
6.9361e-05
6.79804e-05
6.67397e-05
6.56228e-05
6.46152e-05
6.37026e-05
6.28756e-05
6.21243e-05
6.14403e-05
6.08157e-05
6.02435e-05
5.97183e-05
5.92355e-05
5.87913e-05
5.83826e-05
5.80069e-05
5.76613e-05
5.73438e-05
5.7052e-05
5.67842e-05
5.6538e-05
5.63126e-05
5.61057e-05
5.59164e-05
5.57427e-05
5.5584e-05
5.54384e-05
5.5306e-05
5.51849e-05
5.50751e-05
5.49753e-05
5.48853e-05
5.48038e-05
5.47308e-05
5.46652e-05
5.46066e-05
5.45543e-05
5.45077e-05
5.44665e-05
5.44299e-05
5.43979e-05
5.43697e-05
5.43457e-05
5.43247e-05
5.43079e-05
5.42941e-05
5.42843e-05
5.4277e-05
5.42754e-05
5.42762e-05
5.42793e-05
5.42859e-05
5.42977e-05
5.43109e-05
5.43284e-05
5.43463e-05
5.43682e-05
5.43899e-05
5.44157e-05
5.44413e-05
5.44715e-05
5.45025e-05
5.4539e-05
5.45786e-05
5.46255e-05
5.46744e-05
5.47303e-05
5.47872e-05
5.48453e-05
5.49015e-05
5.49497e-05
5.50006e-05
5.50364e-05
5.50853e-05
5.5115e-05
5.51679e-05
5.52019e-05
5.52747e-05
5.53205e-05
5.54568e-05
2.15258e-05
2.47526e-05
2.84572e-05
3.20935e-05
3.60555e-05
4.00123e-05
4.41915e-05
4.83743e-05
5.26947e-05
5.69923e-05
6.2185e-05
6.81864e-05
7.41055e-05
7.97522e-05
8.50883e-05
8.98975e-05
9.41178e-05
9.75734e-05
0.000100287
0.00010217
0.000103363
0.00010385
0.000103735
0.000103363
0.00010259
0.000101559
0.00010038
9.91159e-05
9.78147e-05
9.65196e-05
9.52442e-05
9.40241e-05
9.28663e-05
9.17765e-05
9.07554e-05
8.98043e-05
8.89208e-05
8.81043e-05
8.73511e-05
8.6659e-05
8.60246e-05
8.54449e-05
8.49159e-05
8.44345e-05
8.39969e-05
8.35998e-05
8.32403e-05
8.29152e-05
8.26219e-05
8.23575e-05
8.21199e-05
8.19066e-05
8.17156e-05
8.15447e-05
8.13924e-05
8.12568e-05
8.11366e-05
8.10301e-05
8.0936e-05
8.0853e-05
8.07801e-05
8.07159e-05
8.06595e-05
8.06096e-05
8.05661e-05
8.05274e-05
8.0494e-05
8.04651e-05
8.04401e-05
8.04206e-05
8.04049e-05
8.03929e-05
8.03894e-05
8.03903e-05
8.0394e-05
8.04029e-05
8.04157e-05
8.04294e-05
8.04431e-05
8.04558e-05
8.04669e-05
8.0475e-05
8.04785e-05
8.04782e-05
8.0473e-05
8.04633e-05
8.04586e-05
8.04584e-05
8.04608e-05
8.04688e-05
8.0485e-05
8.04984e-05
8.05024e-05
8.05008e-05
8.04915e-05
8.04661e-05
8.04099e-05
8.02898e-05
8.01012e-05
7.98569e-05
7.95971e-05
7.93771e-05
7.92328e-05
7.91679e-05
7.91577e-05
7.91685e-05
7.92304e-05
7.92941e-05
7.93455e-05
7.93412e-05
)
;
    }
}


// ************************************************************************* //
