/*--------------------------------*- C++ -*----------------------------------*\
| =========                 |                                                 |
| \\      /  F ield         | OpenFOAM: The Open Source CFD Toolbox           |
|  \\    /   O peration     | Version:  v2012                                 |
|   \\  /    A nd           | Website:  www.openfoam.com                      |
|    \\/     M anipulation  |                                                 |
\*---------------------------------------------------------------------------*/
FoamFile
{
    version     2.0;
    format      ascii;
    class       volScalarField;
    location    "0.061";
    object      p;
}
// * * * * * * * * * * * * * * * * * * * * * * * * * * * * * * * * * * * * * //

dimensions      [0 2 -2 0 0 0 0];


internalField   nonuniform List<scalar> 
1900
(
-299.912
-301.012
-301.912
-302.573
-303.25
-304.017
-304.822
-305.651
-306.263
-306.867
-300.366
-301.166
-301.993
-302.669
-303.35
-304.111
-304.921
-305.759
-306.519
-307.339
-300.653
-301.217
-301.985
-302.698
-303.395
-304.157
-304.983
-305.866
-306.759
-308.004
-300.836
-301.28
-302.015
-302.757
-303.467
-304.23
-305.074
-305.998
-307.011
-308.384
-300.934
-301.328
-302.043
-302.795
-303.51
-304.276
-305.137
-306.097
-307.178
-308.566
-300.951
-301.35
-302.07
-302.825
-303.543
-304.316
-305.193
-306.178
-307.293
-308.661
-300.886
-301.346
-302.096
-302.847
-303.566
-304.35
-305.241
-306.241
-307.368
-308.692
-300.734
-301.325
-302.119
-302.846
-303.559
-304.355
-305.258
-306.269
-307.399
-308.68
-300.478
-301.319
-302.18
-302.869
-303.566
-304.367
-305.274
-306.285
-307.407
-308.649
-300.044
-301.218
-302.17
-302.851
-303.549
-304.363
-305.281
-306.298
-307.424
-308.646
-306.209
-318.569
-337.852
-339.498
-320.367
-286.34
-243.308
-198.536
-157.614
-122.816
-94.4669
-72.0552
-54.5891
-41.0273
-30.4631
-22.1431
-15.5115
-10.1602
-5.79274
-2.18705
0.82069
3.35295
5.50661
7.34794
8.92938
10.2914
11.466
12.4927
13.3862
14.1616
14.8341
15.4145
15.9153
16.3436
16.704
17.0072
17.2603
17.4673
17.6329
17.7607
17.8545
17.9174
17.9501
17.9551
17.935
17.892
17.8277
17.7435
17.6408
17.5212
17.3851
17.233
17.0665
16.8866
16.6939
16.4893
16.2736
16.047
15.8096
15.5625
15.3061
15.041
14.7676
14.4858
14.1958
13.8978
13.5923
13.2797
12.9599
12.6329
12.2989
11.9578
11.6097
11.2544
10.8917
10.522
10.1456
9.76259
9.37311
8.97742
8.57621
8.17005
7.75961
7.34522
6.92691
6.50493
6.0781
5.64529
5.20479
4.75739
4.3031
3.84918
3.39279
2.94235
2.49023
2.04173
1.58588
1.14077
0.665792
0.269588
-309.626
-321.895
-333.702
-332.416
-313.368
-280.622
-240.04
-197.73
-158.614
-124.878
-96.9575
-74.5381
-56.8535
-42.9721
-32.0675
-23.4291
-16.5214
-10.944
-6.39668
-2.65239
0.452447
3.05517
5.26836
7.15963
8.77723
10.1675
11.3642
12.4058
13.3088
14.0909
14.7673
15.3494
15.8475
16.2728
16.6361
16.9437
17.2004
17.4112
17.5804
17.7116
17.8088
17.8748
17.909
17.9149
17.8956
17.8532
17.7894
17.7059
17.6043
17.4858
17.3505
17.1989
17.0328
16.8534
16.661
16.4568
16.2416
16.0154
15.7783
15.5314
15.2751
15.0102
14.7372
14.4557
14.1658
13.8681
13.563
13.2508
12.9313
12.6046
12.2707
11.9298
11.5817
11.2263
10.8635
10.4937
10.1173
9.7344
9.34539
8.95047
8.55028
8.14522
7.73588
7.32266
6.90542
6.48436
6.05756
5.6236
5.18028
4.72925
4.27145
3.81305
3.35489
2.90384
2.45483
2.00977
1.56243
1.11687
0.664528
0.235652
-310.56
-318.209
-326.552
-324.362
-306.391
-275.66
-237.559
-197.42
-159.76
-126.878
-99.2934
-76.8583
-58.9717
-44.812
-33.6136
-24.7095
-17.5764
-11.814
-7.11611
-3.25038
-0.0414094
2.65181
4.94049
6.89212
8.56045
9.9932
11.2267
12.2955
13.2195
14.0172
14.7039
15.2932
15.7948
16.2217
16.5888
16.8993
17.1575
17.3692
17.5391
17.6708
17.7676
17.8314
17.8642
17.8703
17.8521
17.8111
17.7488
17.6667
17.5665
17.45
17.3165
17.1663
17.0015
16.8228
16.631
16.4268
16.2112
15.9846
15.7475
15.5007
15.2443
14.9795
14.7069
14.4258
14.1363
13.8391
13.5346
13.2228
12.9037
12.5772
12.2436
11.9028
11.5547
11.1991
10.8361
10.466
10.0895
9.70668
9.3182
8.92417
8.52516
8.12136
7.71339
7.30162
6.88602
6.46644
6.04028
5.60522
5.15853
4.70304
4.24072
3.7767
3.31539
2.864
2.41814
1.97662
1.5389
1.09424
0.665285
0.200672
-310.782
-316.584
-322.229
-318.847
-301.378
-271.954
-235.491
-196.901
-160.397
-128.269
-101.042
-78.6632
-60.6534
-46.2905
-34.8645
-25.7458
-18.4254
-12.5063
-7.68093
-3.71353
-0.422335
2.33398
4.66711
6.65082
8.34325
9.79462
11.0442
12.1262
13.0629
13.8732
14.5734
15.1774
15.695
16.1381
16.519
16.8412
17.109
17.3284
17.504
17.6397
17.7378
17.8008
17.8335
17.8402
17.8228
17.7821
17.7198
17.6374
17.5364
17.4182
17.2837
17.1337
16.9698
16.7917
16.6002
16.3963
16.1804
15.9538
15.7171
15.4707
15.2149
14.9501
14.6768
14.3954
14.1062
13.8097
13.5059
13.1946
12.8758
12.5497
12.2163
11.8756
11.5276
11.1717
10.8083
10.4378
10.061
9.67816
9.29024
8.8972
8.49956
8.09728
7.69105
7.28107
6.86762
6.44976
6.02447
5.58812
5.13823
4.67843
4.20987
3.73813
3.27277
2.82083
2.37898
1.94127
1.51559
1.07107
0.665199
0.165673
-310.807
-315.094
-318.401
-313.744
-296.565
-268.283
-233.322
-196.213
-160.849
-129.449
-102.575
-80.2658
-62.1567
-47.6201
-35.9977
-26.691
-19.2051
-13.1459
-8.20512
-4.1437
-0.77715
2.03925
4.41761
6.43744
8.15942
9.63538
10.9053
12.0031
12.9524
13.7725
14.48
15.0892
15.6108
16.0568
16.4384
16.7611
17.0299
17.251
17.429
17.5679
17.6702
17.7392
17.7786
17.7914
17.7794
17.7437
17.6858
17.6072
17.5087
17.3916
17.2578
17.109
16.9459
16.7683
16.5772
16.3732
16.1571
15.9304
15.6935
15.4466
15.1903
14.9248
14.65
14.3676
14.0781
13.7817
13.4778
13.1664
12.8474
12.521
12.1875
11.8466
11.4984
11.142
10.7778
10.4066
10.0292
9.64637
9.25917
8.86731
8.47143
8.07118
7.66722
7.25964
6.84875
6.43313
6.00904
5.57194
5.11953
4.65459
4.17737
3.69616
3.22676
2.77371
2.33749
1.90379
1.49012
1.04677
0.663612
0.133966
-310.689
-313.798
-315.331
-309.687
-292.797
-265.517
-231.783
-195.837
-161.337
-130.468
-103.851
-81.584
-63.3883
-48.708
-36.9241
-27.463
-19.8413
-13.6681
-8.63423
-4.49744
-1.07045
1.79423
4.21004
6.25902
8.00422
9.49861
10.7831
11.8922
12.8505
13.6778
14.3919
15.007
15.5344
15.9858
16.3717
16.6985
16.9714
17.1958
17.3763
17.5168
17.6206
17.6906
17.7302
17.7423
17.7292
17.6927
17.634
17.5549
17.4566
17.3403
17.2081
17.0611
16.8997
16.724
16.5347
16.3327
16.1186
15.8934
15.6577
15.4117
15.156
14.8909
14.6168
14.3351
14.0463
13.7503
13.4467
13.1354
12.8161
12.4896
12.1559
11.8149
11.4664
11.1095
10.7444
10.3721
9.99403
9.61126
9.22505
8.83467
8.44062
8.04255
7.64122
7.23646
6.82848
6.41566
5.9937
5.55684
5.10148
4.62889
4.14106
3.64967
3.1761
2.72197
2.29193
1.8637
1.46075
1.0212
0.657682
0.109137
-310.5
-312.735
-312.957
-306.521
-289.79
-263.244
-230.424
-195.367
-161.554
-131.13
-104.76
-82.5667
-64.3323
-49.5604
-37.6641
-28.0892
-20.3641
-14.1018
-8.99422
-4.79739
-1.32197
1.58162
4.02814
6.10113
7.8658
9.37572
10.6729
11.7919
12.7587
13.5933
14.3138
14.9345
15.4672
15.9231
16.3125
16.642
16.9173
17.1439
17.3262
17.4682
17.5735
17.6451
17.6864
17.7
17.6885
17.6535
17.5961
17.5181
17.4209
17.3053
17.1733
17.026
16.8639
16.6873
16.497
16.2938
16.0786
15.8522
15.6152
15.3681
15.1113
14.8454
14.571
14.2893
14.0007
13.7052
13.4026
13.0922
12.7738
12.4481
12.1154
11.7755
11.4276
11.071
10.7057
10.3327
9.95415
9.57182
9.18692
8.79838
8.40613
8.01044
7.61184
7.21019
6.80537
6.39532
5.9759
5.54058
5.08286
4.60228
4.103
3.60075
3.1232
2.66803
2.24335
1.82225
1.42786
0.995244
0.644509
0.09628
-310.303
-311.912
-311.203
-304.162
-287.507
-261.488
-229.341
-194.955
-161.674
-131.606
-105.453
-83.3359
-65.0845
-50.25
-38.2712
-28.61
-20.8037
-14.4701
-9.30129
-5.05334
-1.53579
1.401
3.87327
5.96648
7.74798
9.27144
10.5796
11.7074
12.6814
13.522
14.2474
14.8724
15.4088
15.8679
16.2595
16.5909
16.8679
17.096
17.2796
17.4227
17.5291
17.6018
17.6438
17.658
17.6467
17.6118
17.5546
17.4766
17.3793
17.2637
17.1316
16.9841
16.8219
16.6453
16.455
16.2518
16.0366
15.8099
15.5726
15.3251
15.0678
14.8014
14.5266
14.2445
13.9556
13.66
13.3575
13.047
12.7283
12.4025
12.0699
11.7301
11.3823
11.0255
10.6596
10.2858
9.90651
9.52455
9.14081
8.75346
8.3627
7.96925
7.57339
7.17485
6.77308
6.36599
5.94929
5.5155
5.05598
4.56873
4.05852
3.54621
3.06601
2.61166
2.19126
1.77772
1.38733
0.963896
0.616956
0.0918474
-310.146
-311.326
-310.007
-302.547
-285.918
-260.237
-228.531
-194.587
-161.654
-131.822
-105.821
-83.7642
-65.5092
-50.6408
-38.6153
-28.9056
-21.0543
-14.6831
-9.48274
-5.20857
-1.66699
1.29023
3.77532
5.87747
7.66647
9.19603
10.5089
11.6405
12.6178
13.4613
14.1893
14.8168
15.3555
15.8166
16.21
16.5428
16.8211
17.0506
17.2354
17.3795
17.4869
17.5606
17.6036
17.6186
17.6081
17.5739
17.5175
17.4403
17.3438
17.229
17.0976
16.9509
16.7893
16.6132
16.4232
16.2203
16.0052
15.7786
15.5413
15.2938
15.0366
14.7704
14.496
14.2144
13.9263
13.6319
13.3308
13.0214
12.7035
12.3786
12.0468
11.7077
11.3605
11.0041
10.6381
10.2637
9.88378
9.50213
9.11982
8.73331
8.34317
7.95033
7.55505
7.15745
6.75685
6.35133
5.93635
5.50356
5.04233
4.54862
4.02633
3.50149
3.01597
2.56264
2.14559
1.74488
1.35662
0.942606
0.592493
0.105117
-310.088
-311.066
-309.457
-301.804
-285.212
-259.737
-228.29
-194.601
-161.862
-132.156
-106.228
-84.1889
-65.9159
-51.0132
-38.9481
-29.1992
-21.3123
-14.9109
-9.68602
-5.39097
-1.82854
1.15186
3.65129
5.76298
7.5595
9.09507
10.4128
11.5481
12.5287
13.3748
14.105
14.7346
15.2754
15.7384
16.1335
16.4677
16.7473
16.978
17.164
17.3092
17.4176
17.4923
17.5362
17.552
17.5423
17.5089
17.4531
17.3767
17.2807
17.1664
17.0356
16.8894
16.7283
16.5526
16.3632
16.1607
15.946
15.7199
15.4831
15.2359
14.979
14.7131
14.439
14.1577
13.8698
13.5755
13.2743
12.9657
12.6485
12.3234
11.9918
11.6531
11.3061
10.95
10.5843
10.2097
9.82922
9.4471
9.06445
8.67904
8.28965
7.89758
7.50289
7.10566
6.70499
6.29921
5.88361
5.44925
4.98577
4.49097
3.96522
3.43469
2.94605
2.49632
2.07951
1.6757
1.29681
0.888243
0.533454
0.0763158
-314.363
-315.632
-316.808
-317.053
-316.535
-315.266
-313.959
-314.051
-333.497
-335.014
-335.96
-336.295
-335.973
-335.259
-334.396
-334.047
-348.611
-351.447
-352.963
-353.529
-353.419
-353.109
-352.801
-352.462
-347.188
-350.553
-352.406
-353.152
-352.979
-352.464
-351.985
-351.347
-326.04
-328.94
-330.676
-331.235
-330.894
-330.157
-329.373
-328.445
-290.281
-292.337
-293.629
-294.083
-293.757
-292.809
-291.396
-289.796
-245.252
-246.325
-247.176
-247.577
-247.319
-246.291
-244.506
-242.447
-198.719
-198.75
-199.004
-199.218
-198.939
-197.858
-195.908
-193.664
-156.585
-155.889
-155.627
-155.531
-155.128
-154.012
-152.057
-149.85
-121.075
-119.953
-119.407
-119.135
-118.645
-117.542
-115.694
-113.651
-92.5063
-91.2802
-90.6333
-90.2395
-89.6786
-88.6347
-86.9607
-85.1348
-70.1767
-69.0231
-68.3853
-67.9204
-67.3193
-66.3595
-64.8854
-63.3015
-52.9314
-51.9209
-51.3321
-50.8662
-50.2853
-49.4209
-48.1423
-46.7804
-39.6509
-38.8147
-38.3116
-37.8817
-37.3472
-36.5871
-35.4982
-34.3441
-29.3639
-28.6841
-28.2411
-27.8435
-27.3691
-26.7143
-25.7936
-24.8174
-21.2987
-20.7591
-20.3556
-19.9758
-19.5592
-19.0002
-18.2217
-17.3798
-14.8763
-14.4509
-14.0988
-13.7552
-13.3902
-12.9105
-12.2494
-11.4923
-9.68544
-9.35112
-9.05587
-8.75969
-8.44149
-8.02835
-7.46575
-6.78724
-5.43605
-5.17215
-4.92645
-4.67343
-4.39661
-4.03834
-3.55567
-2.96714
-1.91405
-1.70357
-1.4976
-1.28165
-1.04077
-0.727904
-0.308653
0.20189
1.04208
1.21549
1.39259
1.57513
1.78342
2.05735
2.42435
2.87063
3.54133
3.6876
3.84242
3.99892
4.18077
4.42242
4.74631
5.13998
5.66606
5.7887
5.92249
6.06023
6.22318
6.43996
6.72913
7.07991
7.48407
7.58956
7.70618
7.82911
7.97663
8.17265
8.43271
8.74773
9.04831
9.14138
9.24566
9.35699
9.4916
9.66997
9.9052
10.1899
10.4026
10.4901
10.5814
10.6814
10.8047
10.968
11.1821
11.4411
11.5742
11.6609
11.7437
11.8341
11.9469
12.0966
12.2922
12.5291
12.5903
12.67
12.7462
12.8307
12.9361
13.075
13.2551
13.4731
13.4736
13.5463
13.6168
13.6958
13.7947
13.9241
14.0906
14.2921
14.2397
14.3062
14.372
14.4465
14.5395
14.6606
14.8151
15.0021
14.9042
14.9653
15.0265
15.0967
15.1846
15.2982
15.442
15.6162
15.4778
15.534
15.5917
15.6584
15.7417
15.8488
15.9831
16.1459
15.9744
16.0254
16.0793
16.1424
16.2215
16.3226
16.4483
16.6009
16.3996
16.4465
16.4971
16.557
16.6322
16.7278
16.8458
16.9894
16.7572
16.8019
16.8504
16.908
16.98
17.0709
17.182
17.3176
17.0578
17.1007
17.1475
17.203
17.2721
17.3587
17.4637
17.592
17.3086
17.3497
17.3949
17.4483
17.5147
17.5975
17.6969
17.8186
17.5135
17.5533
17.597
17.6486
17.7126
17.7919
17.8862
18.002
17.6773
17.7158
17.7582
17.8082
17.87
17.946
18.0357
18.1461
17.8033
17.8407
17.8818
17.9304
17.9902
18.0632
18.1486
18.2541
17.8953
17.9315
17.9715
18.0187
18.0765
18.1468
18.2283
18.3293
17.9564
17.9914
18.0302
18.076
18.1321
18.1998
18.2776
18.3745
17.9879
18.0218
18.0597
18.1043
18.1587
18.2241
18.2986
18.3917
17.9918
18.025
18.062
18.1056
18.1586
18.2218
18.2933
18.3829
17.9708
18.0033
18.0396
18.0823
18.1339
18.1951
18.2638
18.3503
17.9271
17.959
17.9945
18.0363
18.0867
18.146
18.212
18.2956
17.8623
17.8935
17.9284
17.9692
18.0184
18.076
18.1396
18.2204
17.7774
17.808
17.8423
17.8824
17.9305
17.9865
18.0478
18.1261
17.6739
17.7041
17.7379
17.7773
17.8243
17.8788
17.9379
18.0139
17.5536
17.5832
17.6164
17.6551
17.7011
17.7541
17.8112
17.8851
17.4169
17.4461
17.4787
17.5167
17.5617
17.6134
17.6687
17.7405
17.2645
17.2933
17.3255
17.3629
17.4071
17.4575
17.5111
17.581
17.0975
17.126
17.1578
17.1947
17.2381
17.2874
17.3393
17.4076
16.9173
16.9455
16.9769
17.0132
17.0558
17.104
17.1544
17.221
16.7243
16.7522
16.7833
16.8192
16.8611
16.9083
16.9572
17.0223
16.5193
16.5469
16.5777
16.6131
16.6543
16.7005
16.7481
16.8118
16.3033
16.3305
16.3609
16.3959
16.4365
16.4817
16.528
16.5904
16.0763
16.1033
16.1334
16.168
16.2079
16.2523
16.2974
16.3585
15.8388
15.8657
15.8956
15.9297
15.9692
16.0127
16.0567
16.1167
15.5916
15.6183
15.6479
15.6818
15.7206
15.7635
15.8063
15.8652
15.335
15.3616
15.391
15.4245
15.4629
15.5049
15.5468
15.6046
15.0697
15.096
15.1252
15.1583
15.1962
15.2375
15.2783
15.3352
14.796
14.8221
14.851
14.8837
14.921
14.9617
15.0015
15.0574
14.514
14.5399
14.5685
14.6008
14.6376
14.6775
14.7165
14.7715
14.2237
14.2494
14.2777
14.3097
14.346
14.3853
14.4234
14.4777
13.9255
13.9509
13.979
14.0107
14.0465
14.0852
14.1225
14.176
13.6197
13.6449
13.6728
13.7041
13.7395
13.7776
13.8141
13.867
13.3068
13.3318
13.3594
13.3904
13.4253
13.4629
13.4987
13.551
12.9868
13.0115
13.0388
13.0695
13.1041
13.1411
13.1764
13.228
12.6596
12.6842
12.7113
12.7417
12.7758
12.8124
12.8471
12.8982
12.3254
12.3498
12.3767
12.4068
12.4406
12.4768
12.5109
12.5615
11.9842
12.0084
12.0352
12.0651
12.0986
12.1344
12.168
12.2181
11.636
11.6601
11.6867
11.7165
11.7497
11.7851
11.8182
11.8679
11.2806
11.3048
11.3313
11.3608
11.3938
11.4289
11.4615
11.5107
10.918
10.9421
10.9685
10.998
11.0307
11.0655
11.0976
11.1463
10.5483
10.5724
10.5988
10.628
10.6605
10.6949
10.7265
10.7747
10.1719
10.1959
10.2221
10.2511
10.2833
10.3173
10.3483
10.3961
9.78872
9.81254
9.83853
9.8673
9.89908
9.93258
9.96305
10.0104
9.3989
9.42243
9.44812
9.47654
9.5079
9.54092
9.57085
9.61779
9.00267
9.02581
9.05111
9.07912
9.11001
9.14254
9.17199
9.21864
8.60072
8.6233
8.6481
8.67562
8.70602
8.73807
8.76711
8.81362
8.19375
8.21571
8.23998
8.26701
8.29697
8.32866
8.35745
8.40397
7.78258
7.80405
7.82785
7.85447
7.88406
7.91544
7.9441
7.9907
7.36748
7.38848
7.41193
7.43824
7.46755
7.49872
7.52738
7.57426
6.94854
6.96914
6.99229
7.01841
7.04761
7.0788
7.10774
7.15516
6.52611
6.54648
6.56951
6.5956
6.6249
6.65632
6.68595
6.73437
6.09943
6.12001
6.14333
6.16978
6.19952
6.23148
6.26211
6.31168
5.66762
5.68905
5.71324
5.74057
5.77119
5.80398
5.83556
5.88579
5.22921
5.25226
5.27794
5.3067
5.33872
5.37281
5.40555
5.45651
4.78447
4.80954
4.83701
4.86741
4.90093
4.93631
4.96997
5.0215
4.33267
4.35955
4.38858
4.42034
4.45505
4.49139
4.5256
4.57714
3.88177
3.91069
3.94128
3.97415
4.00953
4.04601
4.07966
4.13009
3.42625
3.45566
3.48663
3.51982
3.55541
3.592
3.62532
3.67521
2.97613
3.00548
3.03607
3.06855
3.10311
3.13844
3.17027
3.21883
2.52153
2.549
2.5779
2.60888
2.6421
2.67628
2.70708
2.7551
2.07042
2.09593
2.12307
2.15235
2.18389
2.21649
2.24582
2.29269
1.60723
1.62701
1.6492
1.67437
1.70272
1.73323
1.76141
1.80857
1.16347
1.18415
1.20651
1.23105
1.25794
1.2863
1.31234
1.35627
0.669508
0.675683
0.685907
0.700891
0.721036
0.745052
0.766286
0.817644
0.298235
0.320803
0.341276
0.360186
0.378675
0.398907
0.41797
0.401573
)
;

boundaryField
{
    frontAndBack
    {
        type            empty;
    }
    inlet
    {
        type            zeroGradient;
    }
    outlet
    {
        type            fixedValue;
        value           uniform 0;
    }
    walls
    {
        type            zeroGradient;
    }
}


// ************************************************************************* //
