/*--------------------------------*- C++ -*----------------------------------*\
| =========                 |                                                 |
| \\      /  F ield         | OpenFOAM: The Open Source CFD Toolbox           |
|  \\    /   O peration     | Version:  v2012                                 |
|   \\  /    A nd           | Website:  www.openfoam.com                      |
|    \\/     M anipulation  |                                                 |
\*---------------------------------------------------------------------------*/
FoamFile
{
    version     2.0;
    format      ascii;
    class       volVectorField;
    location    "0.072";
    object      U.air;
}
// * * * * * * * * * * * * * * * * * * * * * * * * * * * * * * * * * * * * * //

dimensions      [0 1 -1 0 0 0 0];


internalField   nonuniform List<vector> 
5600
(
(18.5967 0.0138501 0)
(18.1355 0.0315766 0)
(17.5528 0.0442173 0)
(16.8978 0.0497181 0)
(16.2195 0.048008 0)
(15.563 0.0415246 0)
(14.9529 0.0328119 0)
(14.4127 0.0235142 0)
(13.9492 0.0153012 0)
(13.55 0.00860278 0)
(13.2188 0.00289856 0)
(12.9528 -0.00193359 0)
(12.7488 -0.00572816 0)
(12.5966 -0.00844214 0)
(12.4901 -0.0100854 0)
(12.4157 -0.0107859 0)
(12.3703 -0.0107461 0)
(12.3385 -0.0101005 0)
(12.3237 -0.00935607 0)
(12.3105 -0.00851578 0)
(12.3063 -0.00795169 0)
(12.3 -0.0072231 0)
(12.2981 -0.0067516 0)
(12.2933 -0.00629606 0)
(12.2933 -0.00611724 0)
(12.2912 -0.00597268 0)
(12.2927 -0.00585884 0)
(12.2921 -0.00582249 0)
(12.2956 -0.00569359 0)
(12.2961 -0.00566905 0)
(12.2998 -0.00554536 0)
(12.3009 -0.00544788 0)
(12.3028 -0.00523287 0)
(12.3035 -0.00507955 0)
(12.3029 -0.00489357 0)
(12.303 -0.00467366 0)
(12.3002 -0.00454805 0)
(12.2991 -0.00436278 0)
(12.2959 -0.00428841 0)
(12.2931 -0.00415827 0)
(12.291 -0.00405674 0)
(12.2852 -0.0040136 0)
(12.2854 -0.00392018 0)
(12.2778 -0.00391343 0)
(12.2789 -0.00383736 0)
(12.2718 -0.00388728 0)
(12.2725 -0.0038063 0)
(12.2674 -0.00385072 0)
(12.2663 -0.00390526 0)
(12.2652 -0.00376395 0)
(12.2602 -0.00388331 0)
(12.2621 -0.00376477 0)
(12.2564 -0.00387636 0)
(12.2583 -0.00374326 0)
(12.2543 -0.00384644 0)
(12.2538 -0.00385302 0)
(12.2546 -0.00372696 0)
(12.2493 -0.00392909 0)
(12.2546 -0.00373734 0)
(12.2472 -0.00406702 0)
(12.2544 -0.00378299 0)
(12.2476 -0.00398494 0)
(12.2521 -0.00395431 0)
(12.2505 -0.00388077 0)
(12.2483 -0.00423393 0)
(12.2559 -0.00386202 0)
(12.2465 -0.00423736 0)
(12.2592 -0.00403909 0)
(12.2491 -0.0042362 0)
(12.2605 -0.00422643 0)
(12.2555 -0.00409249 0)
(12.2589 -0.00434512 0)
(12.2632 -0.00391905 0)
(12.2573 -0.00425237 0)
(12.2672 -0.00405915 0)
(12.2601 -0.00397716 0)
(12.2651 -0.0040318 0)
(12.2644 -0.00365971 0)
(12.2584 -0.00406778 0)
(12.268 -0.00363587 0)
(12.2538 -0.00378052 0)
(12.2655 -0.00374995 0)
(12.2526 -0.00364972 0)
(12.2597 -0.00392125 0)
(12.2545 -0.00361154 0)
(12.2534 -0.00403515 0)
(12.2567 -0.00375539 0)
(12.2503 -0.00379945 0)
(12.2535 -0.00409764 0)
(12.2539 -0.0035969 0)
(12.2467 -0.00418949 0)
(12.257 -0.00384112 0)
(12.2469 -0.00366025 0)
(12.2485 -0.00444335 0)
(12.2597 -0.00328178 0)
(12.2342 -0.00425848 0)
(12.263 -0.00438082 0)
(12.2489 -0.00445865 0)
(12.2636 -0.00102389 0)
(12.1625 -0.0189942 0)
(18.7901 0.0365819 0)
(18.8039 0.0482659 0)
(18.7962 0.051638 0)
(18.7578 0.0559195 0)
(18.6851 0.0583267 0)
(18.5782 0.0587067 0)
(18.4414 0.0574859 0)
(18.2775 0.0549682 0)
(18.0938 0.0510172 0)
(17.8981 0.0468025 0)
(17.6957 0.0420964 0)
(17.4905 0.0369281 0)
(17.2871 0.0316881 0)
(17.0883 0.0266198 0)
(16.9012 0.0219892 0)
(16.7241 0.0179095 0)
(16.5646 0.0145974 0)
(16.4157 0.0118192 0)
(16.2885 0.00966318 0)
(16.168 0.00788505 0)
(16.0702 0.00656751 0)
(15.9749 0.00556926 0)
(15.9022 0.00479749 0)
(15.8303 0.00410206 0)
(15.7784 0.00357215 0)
(15.7251 0.00321846 0)
(15.6856 0.00292364 0)
(15.6448 0.00264686 0)
(15.6143 0.00242554 0)
(15.5823 0.00228959 0)
(15.5553 0.00221221 0)
(15.5282 0.00214134 0)
(15.5029 0.00212502 0)
(15.4808 0.00204297 0)
(15.4575 0.00202574 0)
(15.4391 0.00204618 0)
(15.4193 0.00192567 0)
(15.4029 0.00195896 0)
(15.3873 0.00183717 0)
(15.3715 0.00181707 0)
(15.3602 0.00180545 0)
(15.3448 0.00167247 0)
(15.3361 0.00166854 0)
(15.3224 0.00153977 0)
(15.3151 0.0015431 0)
(15.3043 0.00138175 0)
(15.2966 0.00141 0)
(15.289 0.00131527 0)
(15.2795 0.00120096 0)
(15.275 0.00129959 0)
(15.2652 0.00113606 0)
(15.2619 0.00120987 0)
(15.2539 0.00102216 0)
(15.2496 0.00112705 0)
(15.2452 0.000990472 0)
(15.2377 0.000929685 0)
(15.2376 0.000969755 0)
(15.2289 0.000874743 0)
(15.2301 0.000960961 0)
(15.2232 0.000776599 0)
(15.2243 0.000948433 0)
(15.2206 0.000812272 0)
(15.2176 0.000868774 0)
(15.219 0.000925973 0)
(15.2132 0.000737015 0)
(15.2171 0.000924313 0)
(15.2112 0.000724438 0)
(15.2152 0.000884833 0)
(15.2119 0.000746954 0)
(15.2133 0.000777023 0)
(15.2146 0.00087523 0)
(15.2121 0.000670046 0)
(15.2164 0.000929181 0)
(15.2132 0.000731068 0)
(15.2164 0.000839706 0)
(15.2149 0.00086963 0)
(15.2139 0.000813051 0)
(15.2164 0.00101297 0)
(15.2108 0.00080263 0)
(15.214 0.000973289 0)
(15.2079 0.000923579 0)
(15.2094 0.000934247 0)
(15.2065 0.000982129 0)
(15.2039 0.000836385 0)
(15.2047 0.00104019 0)
(15.2007 0.000824044 0)
(15.2018 0.00098794 0)
(15.1997 0.000987024 0)
(15.199 0.000793308 0)
(15.1996 0.00109682 0)
(15.1983 0.000799496 0)
(15.1962 0.000930623 0)
(15.2023 0.00110876 0)
(15.1901 0.000506311 0)
(15.2066 0.00120685 0)
(15.1868 0.000840634 0)
(15.2093 0.000335728 0)
(15.184 0.000964036 0)
(15.23 0.0031198 0)
(15.1527 -0.0259636 0)
(18.7905 0.0259654 0)
(18.8272 0.0395133 0)
(18.8714 0.0482439 0)
(18.9162 0.0560478 0)
(18.9582 0.0605217 0)
(18.9944 0.0615945 0)
(19.0214 0.0601619 0)
(19.0364 0.0562104 0)
(19.0337 0.053228 0)
(19.0183 0.0489597 0)
(18.9879 0.0443189 0)
(18.9409 0.0395802 0)
(18.877 0.0351711 0)
(18.7962 0.031058 0)
(18.7 0.027551 0)
(18.5896 0.0241931 0)
(18.4685 0.0214291 0)
(18.3388 0.0188883 0)
(18.2067 0.0167595 0)
(18.0698 0.0147896 0)
(17.9427 0.0130208 0)
(17.8125 0.0113055 0)
(17.7011 0.00962799 0)
(17.5876 0.00798465 0)
(17.4959 0.00641131 0)
(17.4028 0.00515105 0)
(17.3296 0.0040541 0)
(17.2551 0.00315884 0)
(17.1956 0.00242469 0)
(17.1352 0.00200586 0)
(17.0844 0.00170675 0)
(17.0354 0.00154856 0)
(16.9902 0.0013568 0)
(16.9525 0.00119334 0)
(16.9135 0.0010423 0)
(16.8829 0.00089915 0)
(16.8511 0.000685604 0)
(16.8244 0.00053522 0)
(16.8001 0.000356848 0)
(16.7747 0.000170979 0)
(16.7566 9.93323e-05 0)
(16.7334 -0.00011682 0)
(16.719 -0.000186953 0)
(16.6992 -0.000376601 0)
(16.6865 -0.000413665 0)
(16.671 -0.000556929 0)
(16.6573 -0.000577347 0)
(16.6461 -0.000626755 0)
(16.6309 -0.000766069 0)
(16.6233 -0.000710637 0)
(16.6092 -0.000873353 0)
(16.6024 -0.000841173 0)
(16.5916 -0.000993787 0)
(16.5833 -0.000953882 0)
(16.5774 -0.0010046 0)
(16.5654 -0.00107276 0)
(16.5645 -0.00105188 0)
(16.5521 -0.00117402 0)
(16.5523 -0.00112165 0)
(16.5432 -0.00148013 0)
(16.5421 -0.00126506 0)
(16.5387 -0.0013739 0)
(16.5314 -0.0014404 0)
(16.5335 -0.00141988 0)
(16.5248 -0.00168679 0)
(16.5285 -0.00147645 0)
(16.5211 -0.00182489 0)
(16.5235 -0.00167313 0)
(16.5205 -0.00187419 0)
(16.5187 -0.00192195 0)
(16.5213 -0.00180055 0)
(16.5165 -0.00201482 0)
(16.5204 -0.00179232 0)
(16.5167 -0.00195602 0)
(16.5185 -0.00180639 0)
(16.5184 -0.00169671 0)
(16.5152 -0.00177904 0)
(16.5184 -0.00145126 0)
(16.5124 -0.00156204 0)
(16.5147 -0.00135241 0)
(16.5099 -0.00134752 0)
(16.509 -0.00144345 0)
(16.5084 -0.00124017 0)
(16.5035 -0.00150244 0)
(16.5048 -0.00136906 0)
(16.5009 -0.00155145 0)
(16.5008 -0.00154737 0)
(16.5004 -0.00149392 0)
(16.4977 -0.00175772 0)
(16.4991 -0.00154196 0)
(16.4981 -0.00166892 0)
(16.4951 -0.00181853 0)
(16.5012 -0.00139336 0)
(16.492 -0.0020721 0)
(16.5008 -0.00130996 0)
(16.4937 -0.00191441 0)
(16.4983 -0.00203156 0)
(16.4944 -0.00280008 0)
(16.5129 0.000403587 0)
(16.4872 -0.0243344 0)
(18.7889 0.023439 0)
(18.8253 0.0378335 0)
(18.8727 0.0450438 0)
(18.924 0.0512174 0)
(18.9779 0.0545945 0)
(19.0327 0.0552597 0)
(19.0876 0.0541689 0)
(19.1385 0.0523586 0)
(19.185 0.0496387 0)
(19.2259 0.0469267 0)
(19.2617 0.0442677 0)
(19.291 0.0416847 0)
(19.3143 0.0393198 0)
(19.3298 0.0372534 0)
(19.3388 0.0351769 0)
(19.3378 0.0340446 0)
(19.3292 0.0326984 0)
(19.3118 0.0313422 0)
(19.2843 0.0302316 0)
(19.2457 0.0289128 0)
(19.1965 0.0275187 0)
(19.1352 0.0258986 0)
(19.0647 0.0240864 0)
(18.9825 0.0222319 0)
(18.8947 0.0202406 0)
(18.7989 0.0184359 0)
(18.7051 0.0166276 0)
(18.6065 0.014912 0)
(18.5174 0.0132525 0)
(18.4274 0.0119564 0)
(18.3486 0.0106107 0)
(18.2753 0.00973132 0)
(18.2056 0.00857491 0)
(18.1488 0.00769437 0)
(18.0903 0.00701684 0)
(18.0425 0.00637297 0)
(17.9943 0.00588403 0)
(17.9508 0.00535012 0)
(17.9129 0.00506503 0)
(17.8713 0.0046334 0)
(17.8413 0.00433846 0)
(17.8045 0.00399956 0)
(17.7797 0.00370227 0)
(17.7489 0.00338706 0)
(17.7269 0.00309634 0)
(17.7031 0.0028732 0)
(17.6812 0.00265041 0)
(17.6642 0.00254687 0)
(17.642 0.00224735 0)
(17.6293 0.00217628 0)
(17.6096 0.00193503 0)
(17.5981 0.00181292 0)
(17.5832 0.00162502 0)
(17.5698 0.00151013 0)
(17.5611 0.00151023 0)
(17.5441 0.00124253 0)
(17.541 0.00121231 0)
(17.5243 0.000943647 0)
(17.5225 0.000872219 0)
(17.5109 0.000273527 0)
(17.5067 0.000403063 0)
(17.502 0.000423317 0)
(17.4905 0.000156557 0)
(17.4922 0.000112697 0)
(17.4802 -0.000241498 0)
(17.4831 -5.56203e-05 0)
(17.4732 -0.000451987 0)
(17.4742 -0.00039117 0)
(17.4704 -0.000513732 0)
(17.4652 -0.00073762 0)
(17.4675 -0.000577798 0)
(17.4605 -0.000814326 0)
(17.4632 -0.000604766 0)
(17.4585 -0.00075474 0)
(17.4584 -0.000724602 0)
(17.4588 -0.000444207 0)
(17.4537 -0.000536395 0)
(17.4563 -0.000179517 0)
(17.4502 -0.000225043 0)
(17.4512 -4.09592e-05 0)
(17.4473 6.02629e-05 0)
(17.4446 -0.000164008 0)
(17.4445 0.000143647 0)
(17.4394 -0.000148655 0)
(17.4397 -5.49962e-05 0)
(17.437 -0.000214008 0)
(17.435 -0.000326834 0)
(17.4359 -0.000196481 0)
(17.4324 -0.000540506 0)
(17.434 -0.000340282 0)
(17.4322 -0.000401127 0)
(17.431 -0.000732721 0)
(17.4336 -0.000147576 0)
(17.4304 -0.000858528 0)
(17.4302 -0.000242219 0)
(17.4346 -0.000606483 0)
(17.4263 -0.00104588 0)
(17.4367 -0.00224918 0)
(17.4373 0.000788123 0)
(17.4355 -0.0246858 0)
(18.7873 0.0198336 0)
(18.8223 0.0334004 0)
(18.8695 0.0389967 0)
(18.9212 0.0442569 0)
(18.9759 0.0475404 0)
(19.0324 0.0484328 0)
(19.0897 0.0478191 0)
(19.1447 0.0461709 0)
(19.1971 0.0440225 0)
(19.2462 0.0416908 0)
(19.2922 0.0392366 0)
(19.3352 0.0366855 0)
(19.374 0.0343505 0)
(19.4111 0.0321648 0)
(19.4433 0.0305818 0)
(19.4756 0.0290358 0)
(19.5025 0.0279551 0)
(19.5304 0.0271152 0)
(19.552 0.0267497 0)
(19.5757 0.0264207 0)
(19.591 0.0262636 0)
(19.6083 0.026021 0)
(19.6159 0.0258424 0)
(19.6218 0.0254862 0)
(19.6187 0.0251337 0)
(19.6108 0.0246295 0)
(19.5933 0.0238976 0)
(19.5688 0.0231067 0)
(19.5344 0.022067 0)
(19.4934 0.0212455 0)
(19.4439 0.0199055 0)
(19.3906 0.0190165 0)
(19.3305 0.0176025 0)
(19.2704 0.016239 0)
(19.2052 0.0150895 0)
(19.1434 0.0137095 0)
(19.0824 0.0128211 0)
(19.0191 0.0114468 0)
(18.9682 0.0107716 0)
(18.9069 0.00968122 0)
(18.8643 0.00885604 0)
(18.8098 0.00800309 0)
(18.7725 0.00717125 0)
(18.7275 0.00655383 0)
(18.6923 0.0057905 0)
(18.6582 0.00547313 0)
(18.6221 0.0049267 0)
(18.5962 0.00469855 0)
(18.5621 0.00420499 0)
(18.5405 0.00390294 0)
(18.5114 0.00356634 0)
(18.4907 0.00317531 0)
(18.4693 0.00300178 0)
(18.4453 0.00260211 0)
(18.432 0.00261751 0)
(18.4068 0.00208495 0)
(18.3988 0.00187541 0)
(18.3767 0.00155879 0)
(18.3692 0.00120676 0)
(18.3546 0.000749261 0)
(18.3424 0.000616768 0)
(18.3353 0.000891893 0)
(18.3164 0.000439631 0)
(18.3164 0.000274171 0)
(18.2988 4.28796e-06 0)
(18.2989 2.04437e-05 0)
(18.2862 -0.000230808 0)
(18.2819 -0.000393499 0)
(18.2772 -0.000273666 0)
(18.2653 -0.000634704 0)
(18.2664 -0.000564548 0)
(18.2553 -0.000738899 0)
(18.2559 -0.000707735 0)
(18.2493 -0.000744396 0)
(18.2459 -0.000919561 0)
(18.2458 -0.00053303 0)
(18.238 -0.000639057 0)
(18.2397 -0.000365885 0)
(18.2328 -0.000315088 0)
(18.2325 -0.000290976 0)
(18.2293 -8.18796e-05 0)
(18.2248 -0.000334423 0)
(18.2244 -0.000105909 0)
(18.2195 -0.000253559 0)
(18.2188 -0.000359106 0)
(18.2171 -0.000331315 0)
(18.2135 -0.000601216 0)
(18.2149 -0.00047335 0)
(18.2111 -0.000745216 0)
(18.2126 -0.000715337 0)
(18.2112 -0.000643538 0)
(18.2101 -0.00103026 0)
(18.2116 -0.000646374 0)
(18.2108 -0.000940775 0)
(18.2084 -0.000940596 0)
(18.2145 -0.000846565 0)
(18.2082 -0.00132672 0)
(18.2141 -0.00300614 0)
(18.2196 -0.000511676 0)
(18.2166 -0.0223931 0)
(18.786 0.0160615 0)
(18.8195 0.0283985 0)
(18.8663 0.0329963 0)
(18.9178 0.0375869 0)
(18.9723 0.0405801 0)
(19.0287 0.0413445 0)
(19.086 0.0407436 0)
(19.1414 0.0392528 0)
(19.1944 0.0374483 0)
(19.2444 0.0354454 0)
(19.2916 0.0333145 0)
(19.3361 0.0311845 0)
(19.3772 0.0292277 0)
(19.4166 0.0275503 0)
(19.4528 0.0261851 0)
(19.4885 0.0251478 0)
(19.5215 0.0243997 0)
(19.5548 0.0238372 0)
(19.586 0.0235564 0)
(19.6182 0.023354 0)
(19.6479 0.0232257 0)
(19.6795 0.0230416 0)
(19.7072 0.0229026 0)
(19.7381 0.0227254 0)
(19.7631 0.0224229 0)
(19.7925 0.0221935 0)
(19.8138 0.0220173 0)
(19.8394 0.0218617 0)
(19.8572 0.0216741 0)
(19.877 0.0215964 0)
(19.8909 0.0213664 0)
(19.9003 0.0213181 0)
(19.9101 0.0208394 0)
(19.9092 0.0206001 0)
(19.9064 0.0203594 0)
(19.8965 0.01959 0)
(19.884 0.0193002 0)
(19.864 0.0183342 0)
(19.8422 0.0177697 0)
(19.8139 0.0170239 0)
(19.7835 0.0161201 0)
(19.7466 0.0153584 0)
(19.7103 0.0141116 0)
(19.6719 0.0134482 0)
(19.6297 0.0120878 0)
(19.5944 0.0115943 0)
(19.5474 0.0104561 0)
(19.5171 0.00986284 0)
(19.4718 0.00905941 0)
(19.4424 0.00825235 0)
(19.4041 0.00770925 0)
(19.3725 0.00668787 0)
(19.3457 0.00664551 0)
(19.3074 0.00566447 0)
(19.2915 0.00545456 0)
(19.2565 0.00481793 0)
(19.2423 0.00423055 0)
(19.2144 0.00393108 0)
(19.1975 0.00317512 0)
(19.1788 0.00288237 0)
(19.1518 0.00251348 0)
(19.1415 0.00291069 0)
(19.1132 0.0023536 0)
(19.1079 0.00193773 0)
(19.0843 0.00166595 0)
(19.0756 0.00136665 0)
(19.0611 0.00129073 0)
(19.0445 0.000775389 0)
(19.0381 0.00109346 0)
(19.0175 0.000531005 0)
(19.015 0.000375638 0)
(18.999 0.000308138 0)
(18.9937 1.44453e-05 0)
(18.9858 0.000159947 0)
(18.9751 -0.000308251 0)
(18.9734 0.000122173 0)
(18.9621 6.78378e-05 0)
(18.9608 0.000157808 0)
(18.9542 0.00040509 0)
(18.9489 0.000253258 0)
(18.9469 0.000605051 0)
(18.9399 0.000265419 0)
(18.9391 0.000433754 0)
(18.9348 0.000302217 0)
(18.9322 -2.99192e-05 0)
(18.9315 7.23419e-05 0)
(18.9271 -0.000303778 0)
(18.9282 -0.000271562 0)
(18.9252 -0.000516067 0)
(18.9253 -0.000635183 0)
(18.9258 -0.000490059 0)
(18.9238 -0.000893932 0)
(18.9247 -0.000729379 0)
(18.9261 -0.000666209 0)
(18.9224 -0.000998584 0)
(18.9289 -0.000961053 0)
(18.9258 -0.00129478 0)
(18.9265 -0.00336267 0)
(18.9366 -0.00146851 0)
(18.9346 -0.0205321 0)
(18.7853 0.0126023 0)
(18.8171 0.0228318 0)
(18.8634 0.0264603 0)
(18.9148 0.0301802 0)
(18.969 0.0326709 0)
(19.0252 0.0332634 0)
(19.0822 0.0327508 0)
(19.1377 0.0315662 0)
(19.1905 0.030111 0)
(19.2406 0.0284795 0)
(19.2879 0.0267489 0)
(19.3325 0.025053 0)
(19.3741 0.0234765 0)
(19.4135 0.0221269 0)
(19.4505 0.0210037 0)
(19.4862 0.0201778 0)
(19.5204 0.0195402 0)
(19.5541 0.0190097 0)
(19.5867 0.0187107 0)
(19.6193 0.0185055 0)
(19.6513 0.0183843 0)
(19.6837 0.0182333 0)
(19.7151 0.0181531 0)
(19.7471 0.0179741 0)
(19.7777 0.0177779 0)
(19.8091 0.0176357 0)
(19.8391 0.017604 0)
(19.8698 0.0174985 0)
(19.8993 0.017405 0)
(19.9283 0.0173251 0)
(19.9581 0.0172812 0)
(19.9852 0.0172512 0)
(20.0154 0.0170819 0)
(20.0403 0.0171455 0)
(20.0687 0.0171631 0)
(20.0927 0.0169652 0)
(20.1153 0.0169453 0)
(20.1426 0.0167345 0)
(20.1557 0.0167492 0)
(20.1833 0.0166762 0)
(20.1891 0.0164432 0)
(20.2135 0.0163668 0)
(20.2142 0.0160351 0)
(20.227 0.0158064 0)
(20.2267 0.0152983 0)
(20.2268 0.0152434 0)
(20.2253 0.0148009 0)
(20.2162 0.0141819 0)
(20.2114 0.0139246 0)
(20.1944 0.0131588 0)
(20.1836 0.0128958 0)
(20.1626 0.0116638 0)
(20.1486 0.0117099 0)
(20.1234 0.0107816 0)
(20.1068 0.00982731 0)
(20.0858 0.00935646 0)
(20.0622 0.00841276 0)
(20.0415 0.00803889 0)
(20.0165 0.00703786 0)
(19.9953 0.00758516 0)
(19.9544 0.00644752 0)
(19.9454 0.00612479 0)
(19.9151 0.00529416 0)
(19.9037 0.00456692 0)
(19.8775 0.00454685 0)
(19.858 0.00371622 0)
(19.8421 0.00384331 0)
(19.8143 0.00291298 0)
(19.8074 0.00314563 0)
(19.7818 0.00253662 0)
(19.7724 0.00185283 0)
(19.7559 0.00195056 0)
(19.7405 0.00125263 0)
(19.7324 0.00147856 0)
(19.7143 0.000916039 0)
(19.7073 0.00110182 0)
(19.6945 0.00115729 0)
(19.6833 0.000887243 0)
(19.6783 0.00127591 0)
(19.6646 0.000992573 0)
(19.6638 0.00115069 0)
(19.6545 0.000874878 0)
(19.6522 0.000787123 0)
(19.6488 0.000751222 0)
(19.6432 0.000274164 0)
(19.6436 0.000342883 0)
(19.6393 -3.62221e-05 0)
(19.6393 -0.000153077 0)
(19.6388 -0.000322058 0)
(19.6362 -0.000602247 0)
(19.6383 -0.000522272 0)
(19.6367 -0.00076162 0)
(19.6358 -0.000882466 0)
(19.6402 -0.000643416 0)
(19.6348 -0.00105464 0)
(19.6409 -0.0012718 0)
(19.64 -0.00123774 0)
(19.6378 -0.00376631 0)
(19.648 -0.00294773 0)
(19.648 -0.0191188 0)
(18.7848 0.00894215 0)
(18.8152 0.0166321 0)
(18.861 0.0192889 0)
(18.9123 0.0220323 0)
(18.9663 0.0239172 0)
(19.0223 0.0243582 0)
(19.079 0.023985 0)
(19.1345 0.0231316 0)
(19.1873 0.0220646 0)
(19.2373 0.0208695 0)
(19.2847 0.0195918 0)
(19.3292 0.0183367 0)
(19.371 0.0171654 0)
(19.4102 0.016166 0)
(19.4473 0.015318 0)
(19.483 0.0146694 0)
(19.5175 0.0141652 0)
(19.5512 0.013782 0)
(19.5839 0.0135959 0)
(19.6163 0.0134714 0)
(19.6487 0.0133734 0)
(19.681 0.0132744 0)
(19.7131 0.0132271 0)
(19.745 0.0131376 0)
(19.7765 0.0130307 0)
(19.8076 0.0129451 0)
(19.8386 0.0129013 0)
(19.8696 0.0127961 0)
(19.9003 0.0127614 0)
(19.9307 0.0126856 0)
(19.9614 0.0126694 0)
(19.9917 0.0126311 0)
(20.0221 0.0124786 0)
(20.0518 0.0125865 0)
(20.0819 0.0125632 0)
(20.1119 0.0124708 0)
(20.1409 0.0123296 0)
(20.1714 0.0122156 0)
(20.1987 0.0122343 0)
(20.2297 0.0121856 0)
(20.2556 0.0121882 0)
(20.2866 0.0121058 0)
(20.3116 0.0120814 0)
(20.3406 0.0120465 0)
(20.3663 0.0119085 0)
(20.3899 0.0118936 0)
(20.4201 0.0117567 0)
(20.4371 0.0116571 0)
(20.467 0.0117174 0)
(20.4809 0.0115295 0)
(20.508 0.0115402 0)
(20.5221 0.0112697 0)
(20.535 0.0114067 0)
(20.5592 0.0111863 0)
(20.5576 0.010704 0)
(20.5778 0.0105493 0)
(20.5733 0.0101041 0)
(20.5885 0.00991827 0)
(20.5833 0.00944633 0)
(20.59 0.0102063 0)
(20.5912 0.010088 0)
(20.5834 0.00887301 0)
(20.5892 0.0087685 0)
(20.5704 0.00772683 0)
(20.5767 0.00795591 0)
(20.5562 0.00707751 0)
(20.5575 0.00732884 0)
(20.5398 0.00648163 0)
(20.5333 0.00606472 0)
(20.5251 0.00620309 0)
(20.5032 0.00510717 0)
(20.4989 0.00513791 0)
(20.4771 0.00413196 0)
(20.4719 0.00406089 0)
(20.4552 0.00380659 0)
(20.4395 0.00350503 0)
(20.4306 0.00373768 0)
(20.4087 0.00287534 0)
(20.4069 0.00294943 0)
(20.3904 0.00237614 0)
(20.3889 0.00212203 0)
(20.3802 0.00181255 0)
(20.3755 0.00134864 0)
(20.3735 0.00134709 0)
(20.3676 0.000746071 0)
(20.3678 0.000581141 0)
(20.3652 0.000272793 0)
(20.364 -0.000108315 0)
(20.3652 -0.000210269 0)
(20.3627 -0.000494072 0)
(20.3642 -0.000587626 0)
(20.3645 -0.000604987 0)
(20.3617 -0.000988459 0)
(20.3665 -0.000760657 0)
(20.3628 -0.00103819 0)
(20.366 -0.00149178 0)
(20.3666 -0.00128251 0)
(20.3649 -0.00383801 0)
(20.3701 -0.00428577 0)
(20.3722 -0.0180745 0)
(18.7845 0.00518049 0)
(18.8138 0.00980994 0)
(18.8592 0.0114112 0)
(18.9105 0.0130979 0)
(18.9643 0.0142728 0)
(19.0201 0.0145402 0)
(19.0768 0.0143117 0)
(19.1322 0.0137914 0)
(19.1849 0.0131364 0)
(19.235 0.0124042 0)
(19.2823 0.0116166 0)
(19.3268 0.0108434 0)
(19.3685 0.0101189 0)
(19.4078 0.00950442 0)
(19.4451 0.00897597 0)
(19.4808 0.00857077 0)
(19.5151 0.00825692 0)
(19.5486 0.00802166 0)
(19.5816 0.00791136 0)
(19.6144 0.00783968 0)
(19.6468 0.00777803 0)
(19.6788 0.00771072 0)
(19.7107 0.00764777 0)
(19.7426 0.00757913 0)
(19.7742 0.00751417 0)
(19.8055 0.00747133 0)
(19.8366 0.00743314 0)
(19.8674 0.00735734 0)
(19.8982 0.00732971 0)
(19.929 0.00725394 0)
(19.9597 0.00725542 0)
(19.9902 0.00724033 0)
(20.0204 0.00717342 0)
(20.0506 0.00725477 0)
(20.081 0.0072338 0)
(20.1113 0.00720865 0)
(20.1412 0.00706399 0)
(20.1711 0.00706511 0)
(20.2007 0.00704705 0)
(20.2304 0.00705643 0)
(20.2599 0.00703922 0)
(20.2895 0.0069807 0)
(20.3187 0.00708619 0)
(20.3478 0.00692474 0)
(20.3769 0.00696179 0)
(20.4053 0.00680925 0)
(20.4346 0.00678047 0)
(20.4621 0.00675261 0)
(20.4911 0.00674808 0)
(20.5183 0.00670254 0)
(20.5468 0.0065515 0)
(20.5743 0.00667929 0)
(20.6002 0.00655253 0)
(20.6301 0.00651736 0)
(20.6527 0.00652183 0)
(20.6826 0.00655094 0)
(20.7037 0.006479 0)
(20.7321 0.00644332 0)
(20.7517 0.00646512 0)
(20.7762 0.0068313 0)
(20.8068 0.0067616 0)
(20.8206 0.00629726 0)
(20.8513 0.00629676 0)
(20.8586 0.0060683 0)
(20.8907 0.00642086 0)
(20.897 0.00618229 0)
(20.9218 0.00622427 0)
(20.9363 0.00628282 0)
(20.9438 0.0056413 0)
(20.9679 0.00596645 0)
(20.9694 0.00558387 0)
(20.9905 0.00557221 0)
(20.9911 0.00538464 0)
(21.0011 0.00515389 0)
(21.0073 0.0054681 0)
(21.0087 0.00520856 0)
(21.0192 0.00537322 0)
(21.0173 0.00496142 0)
(21.0238 0.0044513 0)
(21.0223 0.00413447 0)
(21.0252 0.00323118 0)
(21.0253 0.00307435 0)
(21.0257 0.00235033 0)
(21.0266 0.00203056 0)
(21.0274 0.0014237 0)
(21.0273 0.000927144 0)
(21.0293 0.000466843 0)
(21.0283 6.91089e-05 0)
(21.0307 -0.000246153 0)
(21.0303 -0.000382736 0)
(21.0305 -0.000685536 0)
(21.0327 -0.000638422 0)
(21.0307 -0.00102911 0)
(21.0331 -0.000919943 0)
(21.0319 -0.00108312 0)
(21.0323 -0.00163907 0)
(21.0337 -0.00144664 0)
(21.0328 -0.00393717 0)
(21.0344 -0.00515568 0)
(21.0347 -0.01682 0)
(18.7843 0.00122942 0)
(18.8131 0.00226382 0)
(18.8583 0.0027011 0)
(18.9096 0.00325502 0)
(18.9633 0.00361393 0)
(19.019 0.0036752 0)
(19.0756 0.00360636 0)
(19.131 0.00344723 0)
(19.1837 0.00325164 0)
(19.2338 0.00303154 0)
(19.2811 0.00279385 0)
(19.3256 0.00256776 0)
(19.3673 0.00234176 0)
(19.4066 0.00214306 0)
(19.4439 0.00195462 0)
(19.4796 0.00183625 0)
(19.514 0.00175095 0)
(19.5475 0.00165178 0)
(19.5804 0.00158272 0)
(19.6131 0.00154223 0)
(19.6457 0.00155104 0)
(19.6779 0.00156505 0)
(19.7097 0.00154366 0)
(19.7414 0.00149359 0)
(19.7731 0.00147368 0)
(19.8043 0.00149035 0)
(19.8355 0.00150555 0)
(19.8663 0.0014729 0)
(19.8972 0.00145257 0)
(19.9278 0.00140106 0)
(19.9584 0.0014203 0)
(19.989 0.00144687 0)
(20.0193 0.00142239 0)
(20.0497 0.001469 0)
(20.08 0.00144634 0)
(20.1103 0.00144066 0)
(20.1402 0.00134457 0)
(20.1701 0.00137139 0)
(20.1998 0.00134906 0)
(20.2295 0.00139424 0)
(20.2591 0.00135327 0)
(20.2886 0.00133893 0)
(20.3182 0.00143413 0)
(20.3474 0.00132941 0)
(20.3766 0.00139112 0)
(20.4055 0.00124189 0)
(20.4343 0.00129916 0)
(20.4629 0.00126271 0)
(20.4916 0.00128711 0)
(20.5201 0.00128904 0)
(20.5483 0.00118378 0)
(20.5766 0.0014368 0)
(20.6046 0.00117174 0)
(20.6328 0.00132637 0)
(20.6606 0.00134085 0)
(20.6886 0.00128832 0)
(20.716 0.00121045 0)
(20.7435 0.0011468 0)
(20.7707 0.00132157 0)
(20.7975 0.000970967 0)
(20.8252 0.00134382 0)
(20.8516 0.00111889 0)
(20.879 0.00139561 0)
(20.9048 0.00113242 0)
(20.9318 0.00103277 0)
(20.9572 0.00122907 0)
(20.9836 0.000886144 0)
(21.0096 0.0014051 0)
(21.0335 0.000939451 0)
(21.0595 0.00131777 0)
(21.0832 0.0012141 0)
(21.1084 0.00113209 0)
(21.1321 0.00141417 0)
(21.1556 0.00115067 0)
(21.1811 0.00168238 0)
(21.2049 0.00146854 0)
(21.2313 0.00175742 0)
(21.255 0.00167353 0)
(21.2782 0.00151401 0)
(21.3015 0.0014923 0)
(21.3188 0.00119912 0)
(21.3373 0.00116138 0)
(21.3505 0.000872931 0)
(21.3629 0.000717981 0)
(21.3732 0.000487644 0)
(21.379 0.000102629 0)
(21.3869 -7.29719e-05 0)
(21.389 -0.000386528 0)
(21.3935 -0.000571791 0)
(21.3939 -0.000561934 0)
(21.3957 -0.000866115 0)
(21.3959 -0.000695994 0)
(21.3958 -0.00105547 0)
(21.3964 -0.000929324 0)
(21.3951 -0.00103173 0)
(21.3955 -0.0015871 0)
(21.3945 -0.00152118 0)
(21.3941 -0.00370025 0)
(21.394 -0.00565658 0)
(21.3912 -0.015182 0)
(18.7843 -0.00286744 0)
(18.8133 -0.00567134 0)
(18.8586 -0.00644567 0)
(18.9099 -0.00706775 0)
(18.9636 -0.00757626 0)
(19.0193 -0.00773527 0)
(19.0759 -0.00763302 0)
(19.1313 -0.0074161 0)
(19.1841 -0.00712491 0)
(19.2341 -0.00680352 0)
(19.2814 -0.0064688 0)
(19.3259 -0.00613048 0)
(19.3677 -0.0058369 0)
(19.407 -0.00558879 0)
(19.4442 -0.00542361 0)
(19.4799 -0.00525929 0)
(19.5143 -0.00512717 0)
(19.5479 -0.00507393 0)
(19.5808 -0.0050549 0)
(19.6134 -0.00504603 0)
(19.6458 -0.00499166 0)
(19.6781 -0.00492014 0)
(19.7101 -0.00488276 0)
(19.7419 -0.00489691 0)
(19.7735 -0.00486939 0)
(19.8047 -0.00481277 0)
(19.8359 -0.0047712 0)
(19.8668 -0.00477412 0)
(19.8976 -0.00476781 0)
(19.9282 -0.00478116 0)
(19.9587 -0.00477151 0)
(19.9892 -0.00474568 0)
(20.0197 -0.00476726 0)
(20.0502 -0.00470205 0)
(20.0804 -0.00467753 0)
(20.1105 -0.00464911 0)
(20.1404 -0.0047006 0)
(20.1703 -0.00468193 0)
(20.2001 -0.00465901 0)
(20.2297 -0.00460966 0)
(20.2594 -0.00461286 0)
(20.2889 -0.00461937 0)
(20.3184 -0.00451593 0)
(20.3476 -0.0045564 0)
(20.3769 -0.00450331 0)
(20.4059 -0.0045749 0)
(20.4346 -0.00450339 0)
(20.4633 -0.00453722 0)
(20.4918 -0.0044989 0)
(20.5203 -0.00447046 0)
(20.5485 -0.00454311 0)
(20.5769 -0.00435632 0)
(20.605 -0.00454093 0)
(20.6331 -0.00440968 0)
(20.661 -0.00442391 0)
(20.6888 -0.00440414 0)
(20.7163 -0.00440876 0)
(20.7435 -0.00438466 0)
(20.771 -0.00421734 0)
(20.7978 -0.00435095 0)
(20.8249 -0.00391994 0)
(20.8516 -0.00419453 0)
(20.8784 -0.00408265 0)
(20.905 -0.00431771 0)
(20.931 -0.00423132 0)
(20.9575 -0.00402786 0)
(20.9828 -0.00426604 0)
(21.0084 -0.00366183 0)
(21.0334 -0.00408076 0)
(21.0577 -0.00388379 0)
(21.082 -0.00401069 0)
(21.1057 -0.00408684 0)
(21.1294 -0.00386325 0)
(21.1532 -0.00431845 0)
(21.1769 -0.00416484 0)
(21.2005 -0.00458057 0)
(21.225 -0.00440208 0)
(21.2467 -0.0044021 0)
(21.2704 -0.00435971 0)
(21.2885 -0.00395288 0)
(21.3085 -0.00365064 0)
(21.323 -0.00309762 0)
(21.3366 -0.00278929 0)
(21.35 -0.00225546 0)
(21.3559 -0.00191378 0)
(21.3667 -0.0016652 0)
(21.3689 -0.00143339 0)
(21.3749 -0.00129173 0)
(21.3763 -0.00112034 0)
(21.3774 -0.00096693 0)
(21.3804 -0.00102045 0)
(21.3787 -0.000789894 0)
(21.381 -0.00098551 0)
(21.3792 -0.00086019 0)
(21.3794 -0.000877829 0)
(21.3797 -0.00135701 0)
(21.377 -0.00154469 0)
(21.3785 -0.00326994 0)
(21.3753 -0.00552639 0)
(21.3728 -0.013891 0)
(18.7846 -0.00688329 0)
(18.8144 -0.0132447 0)
(18.86 -0.0151543 0)
(18.9113 -0.016917 0)
(18.9651 -0.0182418 0)
(19.021 -0.0186051 0)
(19.0777 -0.0183403 0)
(19.1331 -0.0177691 0)
(19.1859 -0.017013 0)
(19.2359 -0.0161727 0)
(19.2832 -0.0152896 0)
(19.3277 -0.0144134 0)
(19.3695 -0.0136217 0)
(19.4088 -0.0129333 0)
(19.446 -0.0124235 0)
(19.4816 -0.0119882 0)
(19.5161 -0.0116611 0)
(19.5497 -0.0114719 0)
(19.5826 -0.0113597 0)
(19.6151 -0.0112953 0)
(19.6475 -0.011215 0)
(19.6798 -0.0111311 0)
(19.712 -0.0110546 0)
(19.7438 -0.0110017 0)
(19.7752 -0.0109012 0)
(19.8064 -0.0108047 0)
(19.8375 -0.0107364 0)
(19.8685 -0.0107051 0)
(19.8993 -0.0106691 0)
(19.9299 -0.0106493 0)
(19.9605 -0.010637 0)
(19.991 -0.0105972 0)
(20.0214 -0.0106073 0)
(20.0518 -0.0105225 0)
(20.082 -0.0104778 0)
(20.1122 -0.0104265 0)
(20.1421 -0.0104398 0)
(20.1719 -0.0104305 0)
(20.2017 -0.0103767 0)
(20.2312 -0.0103319 0)
(20.2608 -0.010321 0)
(20.2902 -0.0103163 0)
(20.3194 -0.0102123 0)
(20.3487 -0.0101695 0)
(20.3774 -0.0101208 0)
(20.4063 -0.0101022 0)
(20.4346 -0.0100249 0)
(20.4629 -0.010004 0)
(20.4909 -0.00993945 0)
(20.5185 -0.00988268 0)
(20.5462 -0.00991244 0)
(20.5733 -0.00976783 0)
(20.6004 -0.00982475 0)
(20.627 -0.00974169 0)
(20.6528 -0.00970631 0)
(20.6789 -0.00964753 0)
(20.7034 -0.00964207 0)
(20.7279 -0.0096398 0)
(20.7513 -0.00950732 0)
(20.7745 -0.00950771 0)
(20.7959 -0.00926262 0)
(20.8176 -0.00941863 0)
(20.837 -0.00928706 0)
(20.8558 -0.00938202 0)
(20.8744 -0.00922687 0)
(20.8889 -0.00903318 0)
(20.9058 -0.00902197 0)
(20.9165 -0.00853369 0)
(20.9313 -0.00862446 0)
(20.9387 -0.00828214 0)
(20.949 -0.00812915 0)
(20.9549 -0.00804025 0)
(20.9597 -0.00782475 0)
(20.9661 -0.00799573 0)
(20.9661 -0.00770736 0)
(20.9696 -0.00774954 0)
(20.9686 -0.00746566 0)
(20.9694 -0.00697857 0)
(20.9686 -0.00681193 0)
(20.9672 -0.00599799 0)
(20.9677 -0.0055132 0)
(20.9655 -0.00460778 0)
(20.967 -0.00401911 0)
(20.9654 -0.00341322 0)
(20.9667 -0.00259375 0)
(20.9665 -0.00246799 0)
(20.9661 -0.00194912 0)
(20.9678 -0.00163172 0)
(20.9664 -0.00139403 0)
(20.9684 -0.00109698 0)
(20.9672 -0.00116273 0)
(20.9682 -0.000842987 0)
(20.9681 -0.00099368 0)
(20.967 -0.000880543 0)
(20.9688 -0.000854393 0)
(20.9665 -0.00131866 0)
(20.9681 -0.0013193 0)
(20.9655 -0.00314549 0)
(20.9643 -0.00530619 0)
(20.9606 -0.0124835 0)
(18.785 -0.0107594 0)
(18.8161 -0.0201288 0)
(18.8622 -0.0230421 0)
(18.9137 -0.025863 0)
(18.9676 -0.0278914 0)
(19.0237 -0.0284225 0)
(19.0805 -0.0280073 0)
(19.136 -0.0271121 0)
(19.1887 -0.025939 0)
(19.2388 -0.0246396 0)
(19.2861 -0.0232714 0)
(19.3307 -0.0219167 0)
(19.3724 -0.02068 0)
(19.4117 -0.0195919 0)
(19.4489 -0.0187728 0)
(19.4845 -0.0180808 0)
(19.5189 -0.017559 0)
(19.5524 -0.0172288 0)
(19.5854 -0.0170207 0)
(19.618 -0.0169035 0)
(19.6504 -0.0167969 0)
(19.6827 -0.0166912 0)
(19.7147 -0.0165715 0)
(19.7465 -0.0164698 0)
(19.778 -0.0163335 0)
(19.8093 -0.0162264 0)
(19.8404 -0.016135 0)
(19.8712 -0.0160613 0)
(19.9017 -0.0160025 0)
(19.9323 -0.0159652 0)
(19.9627 -0.0159422 0)
(19.9929 -0.0158875 0)
(20.0231 -0.0158883 0)
(20.0532 -0.015773 0)
(20.0829 -0.0157057 0)
(20.1125 -0.0156477 0)
(20.1422 -0.0155955 0)
(20.171 -0.0155678 0)
(20.2001 -0.0154736 0)
(20.2283 -0.0154006 0)
(20.2566 -0.0153772 0)
(20.2843 -0.01532 0)
(20.3108 -0.015249 0)
(20.3383 -0.0151915 0)
(20.3626 -0.0151305 0)
(20.3886 -0.0150536 0)
(20.4106 -0.0149526 0)
(20.4342 -0.0148924 0)
(20.454 -0.0147754 0)
(20.4739 -0.0147037 0)
(20.4921 -0.0145967 0)
(20.5062 -0.0144481 0)
(20.5227 -0.0143384 0)
(20.5317 -0.0141089 0)
(20.5434 -0.0138243 0)
(20.5481 -0.0135815 0)
(20.554 -0.0132438 0)
(20.5553 -0.0129474 0)
(20.5549 -0.0126639 0)
(20.5532 -0.0123427 0)
(20.5485 -0.0117875 0)
(20.5436 -0.0114941 0)