/*--------------------------------*- C++ -*----------------------------------*\
| =========                 |                                                 |
| \\      /  F ield         | OpenFOAM: The Open Source CFD Toolbox           |
|  \\    /   O peration     | Version:  v2012                                 |
|   \\  /    A nd           | Website:  www.openfoam.com                      |
|    \\/     M anipulation  |                                                 |
\*---------------------------------------------------------------------------*/
FoamFile
{
    version     2.0;
    format      ascii;
    class       vectorField;
    location    "0.088/lagrangian/kinematicCloud";
    object      UCorrect;
}
// * * * * * * * * * * * * * * * * * * * * * * * * * * * * * * * * * * * * * //


54
(
(2.08609e-27 1.92899e-30 0)
(0 0 0)
(0 0 0)
(0 0 0)
(0 0 0)
(0 0 0)
(0 0 0)
(1.86431e-27 -4.82491e-30 0)
(0 0 0)
(0 0 0)
(-1.1436e-28 1.18475e-30 0)
(8.39837e-28 5.31723e-30 0)
(1.18487e-10 1.05516e-13 0)
(0 0 0)
(-1.16759e-10 -1.09456e-13 0)
(0 0 0)
(0 0 0)
(3.30261e-27 -5.74384e-30 0)
(6.70435e-28 4.0682e-30 0)
(9.09102e-31 -3.62684e-33 0)
(6.45188e-32 2.3648e-34 0)
(0 0 0)
(2.27476e-28 1.43679e-30 0)
(1.30993e-27 6.29174e-30 0)
(-3.80658e-29 -1.55958e-30 0)
(1.33206e-28 3.46317e-30 0)
(0 0 0)
(0 0 0)
(0 0 0)
(0 0 0)
(6.57489e-27 7.10869e-31 0)
(0 0 0)
(0 0 0)
(0 0 0)
(0 0 0)
(0 0 0)
(1.13314e-32 -3.76046e-34 0)
(6.10586e-29 -1.62403e-30 0)
(0 0 0)
(0 0 0)
(1.6284e-28 -4.06588e-30 0)
(0 0 0)
(-1.81515e-13 3.50278e-15 0)
(1.92779e-13 -3.59456e-15 0)
(0 0 0)
(0 0 0)
(0 0 0)
(0 0 0)
(0 0 0)
(0 0 0)
(2.49566e-27 3.74482e-30 0)
(0 0 0)
(1.70494e-27 5.51747e-30 0)
(0 0 0)
)


// ************************************************************************* //
