/*--------------------------------*- C++ -*----------------------------------*\
| =========                 |                                                 |
| \\      /  F ield         | OpenFOAM: The Open Source CFD Toolbox           |
|  \\    /   O peration     | Version:  v2012                                 |
|   \\  /    A nd           | Website:  www.openfoam.com                      |
|    \\/     M anipulation  |                                                 |
\*---------------------------------------------------------------------------*/
FoamFile
{
    version     2.0;
    format      ascii;
    class       Cloud<basicKinematicParcel>;
    location    "0.091/lagrangian/kinematicCloud";
    object      positions;
}
// * * * * * * * * * * * * * * * * * * * * * * * * * * * * * * * * * * * * * //

54
(
(0.907487 0.00412373 0.03) 360
(0.91606 0.0157776 0.03) 861
(0.907967 0.023813 0.03) 1160
(0.896114 0.0094 0.03) 559
(0.884855 0.030764 0.03) 1458
(0.876462 0.0242624 0.03) 1158
(0.693732 0.000610439 0.03) 46
(0.843083 0.0346844 0.03) 1656
(0.833578 0.0343471 0.03) 1655
(0.834108 0.0129346 0.03) 755
(0.831677 0.0165854 0.03) 855
(0.818414 0.00767192 0.03) 554
(0.739698 0.0384616 0.03) 1849
(0.730195 0.00142226 0.03) 148
(0.738719 0.0379755 0.03) 1849
(0.777221 0.0188219 0.03) 951
(0.75266 0.00430277 0.03) 350
(0.723603 0.0373319 0.03) 1748
(0.743296 0.00837452 0.03) 549
(0.73644 0.0343245 0.03) 1649
(0.733006 0.0286503 0.03) 1348
(0.701317 0.0366102 0.03) 1746
(0.710479 0.0294125 0.03) 1347
(0.695048 0.00654657 0.03) 446
(0.696585 0.0149273 0.03) 846
(0.68621 0.0287777 0.03) 1345
(0.668366 0.00507398 0.03) 344
(0.674099 0.0319074 0.03) 1444
(0.633904 0.00205523 0.03) 142
(0.661797 0.0327644 0.03) 1544
(0.408771 7.19376e-05 0.03) 27
(0.626215 0.00314601 0.03) 241
(0.566619 0.0388764 0.03) 1937
(0.618899 0.0217435 0.03) 1041
(0.617632 0.00942328 0.03) 541
(0.609968 0.0277839 0.03) 1240
(0.598435 0.0123564 0.03) 739
(0.590056 0.0148023 0.03) 839
(0.578711 0.0279815 0.03) 1238
(0.520071 0.000996859 0.03) 34
(0.560088 0.0111616 0.03) 637
(0.548413 0.0269647 0.03) 1236
(0.537428 0.00907708 0.03) 535
(0.528727 0.00768143 0.03) 535
(0.518252 0.0118271 0.03) 734
(0.507973 0.0254603 0.03) 1133
(0.496537 0.0328549 0.03) 1533
(0.487424 0.0185143 0.03) 932
(0.476268 0.0144702 0.03) 831
(0.466364 0.0305238 0.03) 1431
(0.453095 0.00419876 0.03) 330
(0.446402 0.0140452 0.03) 729
(0.43546 0.0344468 0.03) 1629
(0.417622 0.00238023 0.03) 127
)


// ************************************************************************* //
