/*--------------------------------*- C++ -*----------------------------------*\
| =========                 |                                                 |
| \\      /  F ield         | OpenFOAM: The Open Source CFD Toolbox           |
|  \\    /   O peration     | Version:  v2012                                 |
|   \\  /    A nd           | Website:  www.openfoam.com                      |
|    \\/     M anipulation  |                                                 |
\*---------------------------------------------------------------------------*/
FoamFile
{
    version     2.0;
    format      ascii;
    class       scalarField;
    location    "0.115/lagrangian/kinematicCloud";
    object      age;
}
// * * * * * * * * * * * * * * * * * * * * * * * * * * * * * * * * * * * * * //


54
(
0.1142
0.1132
0.1121
0.111
0.11
0.109
0.108
0.107
0.1059
0.1048
0.104725
0.1037
0.1026
0.1015
0.1004
0.0993
0.0982
0.0971
0.096
0.095925
0.0949
0.0938
0.0927
0.0916
0.091525
0.0905
0.0894
0.089325
0.0883
0.088225
0.0872
0.0861
0.085
0.0839
0.083825
0.0829
0.0819
0.0809
0.0799
0.0789
0.0779
0.0769
0.0759
0.0749
0.0739
0.0729
0.0719
0.0709
0.0699
0.0689
0.0679
0.0669
0.0659
0.0649
)


// ************************************************************************* //
