/*--------------------------------*- C++ -*----------------------------------*\
| =========                 |                                                 |
| \\      /  F ield         | OpenFOAM: The Open Source CFD Toolbox           |
|  \\    /   O peration     | Version:  v2012                                 |
|   \\  /    A nd           | Website:  www.openfoam.com                      |
|    \\/     M anipulation  |                                                 |
\*---------------------------------------------------------------------------*/
FoamFile
{
    version     2.0;
    format      ascii;
    class       surfaceScalarField;
    location    "0.221";
    object      phi.air;
}
// * * * * * * * * * * * * * * * * * * * * * * * * * * * * * * * * * * * * * //

dimensions      [0 3 -1 0 0 0 0];
oriented        oriented;


internalField   nonuniform List<scalar> 
3672
(
0.0064006
7.14517e-06
0.00639136
8.99623e-06
0.00638142
9.68684e-06
0.00637056
1.06126e-05
0.0063586
1.17119e-05
0.00634559
1.27593e-05
0.00633129
1.40467e-05
0.00631578
1.52582e-05
0.00629637
1.91627e-05
2.80585e-05
0.00626806
0.00641089
4.26003e-06
0.00641309
6.79313e-06
0.00641555
7.2261e-06
0.00641823
7.93235e-06
0.00642104
8.90607e-06
0.00642399
9.8076e-06
0.00642694
1.10891e-05
0.00642967
1.25285e-05
0.00643129
1.75454e-05
2.48537e-05
0.0064345
0.00640988
2.38202e-06
0.00641223
4.44505e-06
0.00641473
4.71802e-06
0.00641752
5.14462e-06
0.00642056
5.87155e-06
0.00642375
6.60995e-06
0.00642716
7.68595e-06
0.00643042
9.26281e-06
0.0064346
1.33659e-05
1.8425e-05
0.00644103
0.00640936
1.0263e-06
0.00641175
2.05189e-06
0.00641429
2.17918e-06
0.00641704
2.39546e-06
0.00642008
2.82902e-06
0.00642335
3.34014e-06
0.00642686
4.1794e-06
0.00643058
5.54008e-06
0.00643542
8.52207e-06
1.19254e-05
0.00644192
0.00640916
-1.33129e-07
0.00641153
-3.17988e-07
0.00641408
-3.68049e-07
0.0064168
-3.30659e-07
0.00641985
-2.20073e-07
0.00642318
1.20077e-08
0.0064268
5.59744e-07
0.0064308
1.54157e-06
0.00643581
3.50706e-06
5.35648e-06
0.00644238
0.00640918
-1.30997e-06
0.00641156
-2.70308e-06
0.00641412
-2.92489e-06
0.00641686
-3.07022e-06
0.00641993
-3.29409e-06
0.00642331
-3.36794e-06
0.00642702
-3.15054e-06
0.00643117
-2.6108e-06
0.00643623
-1.55006e-06
-9.18203e-07
0.00644251
0.00640941
-2.72028e-06
0.00641185
-5.1427e-06
0.00641442
-5.49271e-06
0.00641721
-5.85951e-06
0.00642032
-6.40729e-06
0.00642374
-6.78915e-06
0.00642751
-6.92238e-06
0.00643175
-6.8458e-06
0.00643674
-6.54489e-06
-6.7483e-06
0.00644257
0.00640999
-4.70719e-06
0.0064124
-7.5559e-06
0.00641495
-8.04444e-06
0.00641781
-8.71403e-06
0.00642095
-9.55364e-06
0.0064244
-1.02353e-05
0.00642821
-1.0735e-05
0.00643249
-1.11202e-05
0.00643739
-1.14533e-05
-1.21458e-05
0.00644279
0.00641105
-7.76188e-06
0.00641334
-9.83864e-06
0.00641585
-1.05521e-05
0.00641858
-1.14513e-05
0.00642152
-1.24901e-05
0.00642469
-1.34058e-05
0.00642817
-1.42168e-05
0.00643204
-1.49858e-05
0.00643631
-1.57293e-05
-1.68101e-05
0.00644098
0.00640049
0.0063909
0.0063806
0.0063694
0.00635716
0.006344
0.00633004
0.0063153
0.00629982
0.00628326
0.00618912
0.000122524
-4.35877e-05
0.00598884
8.26136e-05
0.000117663
0.00572442
-0.000168606
0.000433027
0.00550756
-0.000541278
0.000758141
0.00535911
-0.000908011
0.00105646
0.00525264
-0.00120372
0.00131019
0.00517181
-0.00137932
0.00146014
0.00510268
-0.00142731
0.00149644
0.00503451
-0.0013746
0.00144277
0.0049666
-0.00125515
0.00132306
0.00489909
-0.00110327
0.00117078
0.00483224
-0.000945143
0.001012
0.00476686
-0.000798308
0.000863687
0.00470311
-0.000671066
0.000734814
0.00464116
-0.00056495
0.000626895
0.00458121
-0.000477921
0.000537875
0.00452396
-0.00040857
0.000465818
0.00447027
-0.000354778
0.000408472
0.0044204
-0.000312591
0.000362465
0.00437441
-0.000278318
0.000324303
0.0043324
-0.000250254
0.000292268
0.00429452
-0.000227912
0.000265785
0.00426061
-0.000210204
0.000244116
0.00423036
-0.000195188
0.000225441
0.00420348
-0.000181824
0.000208704
0.00418002
-0.000170266
0.000193728
0.00416002
-0.000160744
0.000180746
0.00414293
-0.000152542
0.000169633
0.00412823
-0.00014502
0.000159716
0.00411559
-0.000137979
0.000150615
0.00410469
-0.000131543
0.000142451
0.00409525
-0.000125699
0.000135132
0.00408702
-0.000120356
0.000128589
0.00407972
-0.000115347
0.000122643
0.00407332
-0.000110665
0.000117065
0.00406777
-0.000106234
0.000111785
0.00406299
-0.000102079
0.000106857
0.00405894
-9.82784e-05
0.000102336
0.00405555
-9.48538e-05
9.82381e-05
0.00405279
-9.16953e-05
9.44619e-05
0.0040506
-8.87567e-05
9.09384e-05
0.00404894
-8.59754e-05
8.76394e-05
0.00404768
-8.32626e-05
8.45186e-05
0.00404677
-8.066e-05
8.15772e-05
0.00404617
-7.82745e-05
7.88725e-05
0.00404587
-7.60795e-05
7.63824e-05
0.00404583
-7.3975e-05
7.40108e-05
0.00404604
-7.18888e-05
7.16825e-05
0.00404646
-6.98602e-05
6.94322e-05
0.00404711
-6.79738e-05
6.73331e-05
0.00404796
-6.62696e-05
6.54199e-05
0.004049
-6.46857e-05
6.36382e-05
0.00405023
-6.31558e-05
6.19236e-05
0.00405164
-6.16536e-05
6.0253e-05
0.00405318
-6.01866e-05
5.86385e-05
0.00405486
-5.87834e-05
5.7103e-05
0.00405667
-5.74795e-05
5.56753e-05
0.00405859
-5.62644e-05
5.43451e-05
0.00406061
-5.51081e-05
5.30843e-05
0.00406273
-5.39709e-05
5.18557e-05
0.00406492
-5.28467e-05
5.06555e-05
0.00406718
-5.17508e-05
4.94932e-05
0.0040695
-5.07305e-05
4.84069e-05
0.00407189
-4.9778e-05
4.73915e-05
0.00407433
-4.88799e-05
4.64353e-05
0.00407682
-4.79938e-05
4.55014e-05
0.00407936
-4.71297e-05
4.45964e-05
0.00408192
-4.62856e-05
4.3718e-05
0.00408452
-4.54775e-05
4.28814e-05
0.00408714
-4.46999e-05
4.20796e-05
0.00408978
-4.39595e-05
4.13182e-05
0.00409244
-4.32405e-05
4.05822e-05
0.00409511
-4.25417e-05
3.98718e-05
0.00409778
-4.18504e-05
3.91758e-05
0.00410046
-4.11773e-05
3.85024e-05
0.00410313
-4.05167e-05
3.7847e-05
0.00410579
-3.98804e-05
3.72176e-05
0.00410844
-3.92526e-05
3.66017e-05
0.00411108
-3.86411e-05
3.60049e-05
0.00411369
-3.80287e-05
3.54124e-05
0.00411629
-3.74304e-05
3.48367e-05
0.00411886
-3.68332e-05
3.4265e-05
0.0041214
-3.62538e-05
3.37129e-05
0.00412391
-3.56733e-05
3.31618e-05
0.00412639
-3.51068e-05
3.26259e-05
0.00412884
-3.45364e-05
3.20883e-05
0.00413125
-3.39817e-05
3.15669e-05
0.00413363
-3.34272e-05
3.10472e-05
0.00413598
-3.28931e-05
3.05479e-05
0.00413829
-3.23631e-05
3.00535e-05
0.00414056
-3.186e-05
2.95854e-05
0.0041428
-3.13643e-05
2.9125e-05
0.00414501
-3.09195e-05
2.87133e-05
0.00414718
-3.04839e-05
2.83104e-05
0.00414933
-3.01952e-05
2.80472e-05
0.00415145
-2.98774e-05
2.77543e-05
0.00415358
-3.00397e-05
2.79137e-05
0.00415568
-2.99108e-05
2.78111e-05
0.00415787
-3.12139e-05
2.90191e-05
-3.11761e-05
2.92142e-05
0.00647836
7.8656e-05
0.00651174
4.92391e-05
0.00650174
-0.000158607
0.00643629
-0.000475833
0.00632498
-0.000796695
0.00617908
-0.00105782
0.00601663
-0.00121686
0.00585462
-0.0012653
0.00570341
-0.0012234
0.00556882
-0.00112055
0.00545279
-0.00098725
0.0053542
-0.000846556
0.00527069
-0.000714798
0.00519916
-0.00059953
0.00513605
-0.000501839
0.00507821
-0.000420085
0.00502357
-0.000353927
0.00497096
-0.000302173
0.00491941
-0.000261035
0.00486816
-0.000227073
0.00481771
-0.000199799
0.0047693
-0.000179504
0.00472331
-0.000164221
0.00467959
-0.000151466
0.00463829
-0.00014052
0.00459982
-0.000131799
0.0045645
-0.000125426
0.0045323
-0.000120343
0.00450297
-0.000115685
0.00447625
-0.000111267
0.00445192
-0.000107211
0.00442984
-0.000103614
0.00440985
-0.000100368
0.0043918
-9.72969e-05
0.00437546
-9.43221e-05
0.00436066
-9.14356e-05
0.00434729
-8.87146e-05
0.00433526
-8.6242e-05
0.00432441
-8.40107e-05
0.00431464
-8.19212e-05
0.00430579
-7.99092e-05
0.00429771
-7.78939e-05
0.00429031
-7.58632e-05
0.00428356
-7.39122e-05
0.00427744
-7.21502e-05
0.0042719
-7.05425e-05
0.00426691
-6.89817e-05
0.00426241
-6.73935e-05
0.00425838
-6.58285e-05
0.0042548
-6.43881e-05
0.00425162
-6.30948e-05
0.00424882
-6.18862e-05
0.00424638
-6.07141e-05
0.00424427
-5.95412e-05
0.00424245
-5.8373e-05
0.00424091
-5.72355e-05
0.00423959
-5.61602e-05
0.00423848
-5.51548e-05
0.00423757
-5.41987e-05
0.00423685
-5.32486e-05
0.0042363
-5.22965e-05
0.00423591
-5.1365e-05
0.00423568
-5.05019e-05
0.00423559
-4.96846e-05
0.00423561
-4.89065e-05
0.00423575
-4.81314e-05
0.00423599
-4.73716e-05
0.00423633
-4.6619e-05
0.00423674
-4.58924e-05
0.00423723
-4.51852e-05
0.00423778
-4.45092e-05
0.00423838
-4.38454e-05
0.00423903
-4.31936e-05
0.00423972
-4.25389e-05
0.00424044
-4.18949e-05
0.00424118
-4.1257e-05
0.00424194
-4.06389e-05
0.00424271
-4.00242e-05
0.00424349
-3.94208e-05
0.00424427
-3.88117e-05
0.00424506
-3.82131e-05
0.00424583
-3.76118e-05
0.00424661
-3.70268e-05
0.00424737
-3.64384e-05
0.00424813
-3.58629e-05
0.00424887
-3.52815e-05
0.00424961
-3.47152e-05
0.00425033
-3.41479e-05
0.00425104
-3.36011e-05
0.00425173
-3.30574e-05
0.00425241
-3.25407e-05
0.00425308
-3.20312e-05
0.00425373
-3.15735e-05
0.00425437
-3.11251e-05
0.004255
-3.08247e-05
0.00425563
-3.05006e-05
0.00425624
-3.06512e-05
0.00425686
-3.05289e-05
0.00425752
-3.18827e-05
-3.17338e-05
0.00647001
4.96756e-05
0.00650349
1.57559e-05
0.00650081
-0.000155926
0.00644848
-0.000423503
0.00634924
-0.000697455
0.00621162
-0.000920193
0.00605284
-0.00105809
0.00589064
-0.0011031
0.00573786
-0.00107062
0.00560308
-0.000985764
0.00548893
-0.000873099
0.00539484
-0.000752468
0.00531882
-0.000638782
0.00525795
-0.000538656
0.00520859
-0.000452477
0.00516803
-0.000379527
0.00513468
-0.000320579
0.0051069
-0.000274391
0.00508253
-0.000236663
0.00505988
-0.000204427
0.00503823
-0.000178152
0.00501698
-0.000158252
0.00499543
-0.000142666
0.00497295
-0.00012899
0.00494903
-0.000116598
0.00492359
-0.000106359
0.00489687
-9.87102e-05
0.00486924
-9.27091e-05
0.00484097
-8.74172e-05
0.00481232
-8.26114e-05
0.00478367
-7.85636e-05
0.00475556
-7.5508e-05
0.00472856
-7.3365e-05
0.004703
-7.17392e-05
0.0046789
-7.02206e-05
0.00465629
-6.88202e-05
0.00463523
-6.76632e-05
0.00461575
-6.67557e-05
0.00459773
-6.59943e-05
0.00458104
-6.52299e-05
0.00456552
-6.43868e-05
0.00455106
-6.34307e-05
0.0045376
-6.24096e-05
0.00452513
-6.14449e-05
0.00451359
-6.06081e-05
0.0045029
-5.98465e-05
0.00449297
-5.90524e-05
0.00448376
-5.81903e-05
0.00447525
-5.73136e-05
0.00446734
-5.64804e-05
0.00445997
-5.57231e-05
0.0044531
-5.50207e-05
0.00444673
-5.43383e-05
0.00444082
-5.36345e-05
0.00443536
-5.29078e-05
0.0044303
-5.21786e-05
0.00442563
-5.14864e-05
0.00442131
-5.084e-05
0.00441733
-5.02187e-05
0.00441366
-4.95785e-05
0.00441028
-4.89173e-05
0.00440717
-4.82519e-05
0.00440426
-4.75985e-05
0.00440154
-4.69616e-05
0.00439899
-4.63529e-05
0.0043966
-4.57409e-05
0.00439436
-4.51315e-05
0.00439225
-4.45091e-05
0.00439025
-4.38984e-05
0.00438836
-4.3292e-05
0.00438656
-4.27079e-05
0.00438484
-4.21224e-05
0.00438318
-4.15382e-05
0.00438158
-4.09399e-05
0.00438003
-4.03453e-05
0.00437852
-3.97495e-05
0.00437705
-3.91689e-05
0.00437562
-3.85853e-05
0.0043742
-3.80093e-05
0.00437282
-3.74231e-05
0.00437145
-3.6846e-05
0.0043701
-3.62639e-05
0.00436877
-3.56972e-05
0.00436746
-3.51256e-05
0.00436616
-3.45664e-05
0.00436488
-3.40005e-05
0.00436362
-3.34497e-05
0.00436236
-3.28974e-05
0.00436113
-3.23657e-05
0.00435991
-3.18369e-05
0.0043587
-3.13347e-05
0.00435751
-3.08404e-05
0.00435633
-3.0396e-05
0.00435517
-2.99631e-05
0.00435402
-2.96734e-05
0.00435289
-2.93653e-05
0.00435176
-2.9521e-05
0.00435065
-2.9424e-05
0.0043495
-3.07293e-05
-3.06854e-05
0.0064645
2.71008e-05
0.00648861
-8.35567e-06
0.00648172
-0.000149035
0.00642849
-0.000370271
0.00633104
-0.000600006
0.00619799
-0.000787144
0.00604459
-0.000904692
0.00588728
-0.000945794
0.00573871
-0.000922042
0.00560659
-0.000853646
0.00549354
-0.000760052
0.00539969
-0.000658611
0.00532351
-0.000562606
0.00526194
-0.000477082
0.0052116
-0.000402142
0.00517073
-0.000338658
0.00513831
-0.000288152
0.00511229
-0.00024837
0.00509023
-0.000214611
0.00507121
-0.000185399
0.00505562
-0.000162568
0.00504331
-0.000145937
0.00503272
-0.000132083
0.00502258
-0.000118843
0.00501312
-0.000107137
0.00500489
-9.81316e-05
0.00499744
-9.126e-05
0.00498997
-8.52394e-05
0.00498193
-7.93803e-05
0.00497303
-7.37097e-05
0.00496324
-6.87749e-05
0.00495263
-6.4893e-05
0.00494111
-6.18452e-05
0.00492851
-5.91415e-05
0.0049147
-5.64148e-05
0.00489969
-5.38027e-05
0.00488364
-5.16177e-05
0.00486687
-4.99813e-05
0.00484966
-4.87872e-05
0.00483225
-4.78182e-05
0.0048148
-4.69361e-05
0.0047975
-4.6135e-05
0.00478062
-4.55302e-05
0.00476439
-4.52113e-05
0.00474889
-4.51104e-05
0.00473411
-4.50643e-05
0.00472002
-4.49597e-05
0.00470663
-4.48081e-05
0.004694
-4.46781e-05
0.0046821
-4.45851e-05
0.00467088
-4.44992e-05
0.00466025
-4.43894e-05
0.00465013
-4.42249e-05
0.00464052
-4.40157e-05
0.00463138
-4.37747e-05
0.00462272
-4.35162e-05
0.00461453
-4.32954e-05
0.00460679
-4.30967e-05
0.00459945
-4.28824e-05
0.00459249
-4.26213e-05
0.00458589
-4.2313e-05
0.00457961
-4.19751e-05
0.00457362
-4.1612e-05
0.0045679
-4.12356e-05
0.0045624
-4.08589e-05
0.00455712
-4.04588e-05
0.00455202
-4.00299e-05
0.00454707
-3.95623e-05
0.00454226
-3.90845e-05
0.00453756
-3.85925e-05
0.00453296
-3.81115e-05
0.00452846
-3.7616e-05
0.00452403
-3.71127e-05
0.00451968
-3.65859e-05
0.00451539
-3.60583e-05
0.00451117
-3.55241e-05
0.004507
-3.5004e-05
0.00450289
-3.44781e-05
0.00449884
-3.39576e-05
0.00449485
-3.34279e-05
0.00449091
-3.2906e-05
0.00448702
-3.23795e-05
0.00448319
-3.18667e-05
0.00447942
-3.13494e-05
0.00447569
-3.08444e-05
0.00447203
-3.03333e-05
0.00446841
-2.98377e-05
0.00446486
-2.93408e-05
0.00446136
-2.8865e-05
0.00445791
-2.83916e-05
0.00445452
-2.79449e-05
0.00445119
-2.75068e-05
0.00444791
-2.7115e-05
0.00444468
-2.67382e-05
0.0044415
-2.64908e-05
0.00443838
-2.62401e-05
0.00443525
-2.63968e-05
0.00443222
-2.63884e-05
0.00442904
-2.75545e-05
-2.7875e-05
0.00645963
9.85233e-06
0.00647551
-2.42333e-05
0.00646423
-0.000137754
0.00641073
-0.000316773
0.00631603
-0.000505309
0.00618843
-0.00065954
0.00604146
-0.000757723
0.00588976
-0.00079409
0.00574513
-0.000777421
0.00561506
-0.000723571
0.0055027
-0.000647693
0.00540896
-0.000564868
0.00533235
-0.000485997
0.00526954
-0.000414276
0.00521793
-0.000350531
0.00517667
-0.000297393
0.00514413
-0.000255612
0.00511712
-0.000221365
0.00509364
-0.000191131
0.00507422
-0.000165981
0.00505929
-0.00014763
0.00504706
-0.000133714
0.00503561
-0.000120631
0.00502505
-0.000108285
0.00501651
-9.85959e-05
0.00501005
-9.16695e-05
0.00500461
-8.58191e-05
0.00499922
-7.98553e-05
0.00499389
-7.40462e-05
0.00498933
-6.91499e-05
0.00498588
-6.53275e-05
0.00498312
-6.2132e-05
0.00498042
-5.91454e-05
0.0049774
-5.61238e-05
0.0049742
-5.32129e-05
0.00497109
-5.0693e-05
0.00496802
-4.85473e-05
0.00496478
-4.67375e-05
0.00496112
-4.51336e-05
0.00495681
-4.35077e-05
0.00495172
-4.18378e-05
0.00494584
-4.02582e-05
0.00493925
-3.89383e-05
0.00493199
-3.79562e-05
0.00492407
-3.71861e-05
0.00491543
-3.64254e-05
0.00490606
-3.55886e-05
0.00489601
-3.47649e-05
0.00488545
-3.41122e-05
0.00487456
-3.3699e-05
0.00486352
-3.34541e-05
0.0048524
-3.32703e-05
0.00484124
-3.30697e-05
0.00483008
-3.28488e-05
0.00481896
-3.26613e-05
0.00480801
-3.2567e-05
0.00479726
-3.25387e-05
0.00478669
-3.25298e-05
0.00477631
-3.25032e-05
0.00476614
-3.2448e-05
0.00475618
-3.23546e-05
0.00474643
-3.22307e-05
0.00473692
-3.2096e-05
0.00472763
-3.19471e-05
0.00471854
-3.17732e-05
0.00470965
-3.15618e-05
0.00470092
-3.13018e-05
0.00469236
-3.09983e-05
0.00468394
-3.06699e-05
0.00467567
-3.03178e-05
0.00466752
-2.99695e-05
0.00465951
-2.96011e-05
0.00465162
-2.92219e-05
0.00464385
-2.88173e-05
0.0046362
-2.84079e-05
0.00462867
-2.79897e-05
0.00462125
-2.75855e-05
0.00461394
-2.71742e-05
0.00460675
-2.67696e-05
0.00459968
-2.63542e-05
0.00459272
-2.59464e-05
0.00458587
-2.55331e-05
0.00457914
-2.51335e-05
0.00457252
-2.47322e-05
0.00456602
-2.43419e-05
0.00455964
-2.39485e-05
0.00455337
-2.35693e-05
0.00454722
-2.3191e-05
0.00454119
-2.28323e-05
0.00453527
-2.24776e-05
0.00452947
-2.21473e-05
0.00452379
-2.18271e-05
0.00451823
-2.15462e-05
0.00451277
-2.12855e-05
0.00450741
-2.11282e-05
0.00450217
-2.09949e-05
0.00449693
-2.11598e-05
0.00449186
-2.13206e-05
0.00448653
-2.22254e-05
-2.3247e-05
0.00645566
-3.30163e-06
0.00646519
-3.37649e-05
0.00645042
-0.000122979
0.00639697
-0.000263324
0.00630461
-0.000412947
0.00618117
-0.000536099
0.00603901
-0.000615567
0.00589159
-0.000646668
0.0057501
-0.000635928
0.00562171
-0.000595187
0.00551024
-0.000536221
0.0054168
-0.000471428
0.0053394
-0.000408593
0.00527515
-0.000350027
0.0052227
-0.000298088
0.00518117
-0.000255864
0.00514761
-0.000222044
0.00511866
-0.000192419
0.00509409
-0.000166564
0.00507514
-0.000147026
0.0050603
-0.000132795
0.00504664
-0.000120055
0.00503375
-0.000107741
0.00502319
-9.77218e-05
0.00501529
-9.06987e-05
0.00500873
-8.51044e-05
0.0050022
-7.92896e-05
0.00499573
-7.3386e-05
0.00499025
-6.85635e-05
0.00498612
-6.50227e-05
0.00498282
-6.20313e-05
0.00497966
-5.89689e-05
0.00497629
-5.57726e-05
0.00497307
-5.29088e-05
0.00497052
-5.06633e-05
0.00496857
-4.87431e-05
0.00496689
-4.68677e-05
0.00496516
-4.50084e-05
0.00496327
-4.32423e-05
0.00496145
-4.16825e-05
0.0049599
-4.02869e-05
0.00495853
-3.88914e-05
0.00495717
-3.75753e-05
0.00495566
-3.64502e-05
0.00495391
-3.54373e-05
0.0049519
-3.44136e-05
0.00494965
-3.33438e-05
0.00494718
-3.22872e-05
0.00494439
-3.13266e-05
0.00494118
-3.0485e-05
0.00493742
-2.96993e-05
0.00493306
-2.89045e-05
0.00492806
-2.80743e-05
0.00492245
-2.72355e-05
0.00491623
-2.64411e-05
0.00490939
-2.57331e-05
0.00490193
-2.50748e-05
0.00489383
-2.4432e-05
0.00488512
-2.37948e-05
0.00487586
-2.31848e-05
0.00486612
-2.26107e-05
0.00485596
-2.20757e-05
0.00484545
-2.15834e-05
0.00483463
-2.1131e-05
0.00482357
-2.07105e-05
0.00481233
-2.03162e-05
0.00480096
-1.99378e-05
0.00478954
-1.95758e-05
0.00477809
-1.92253e-05
0.00476668
-1.8904e-05
0.00475531
-1.86008e-05
0.00474403
-1.83181e-05
0.00473285
-1.8041e-05
0.0047218
-1.77656e-05
0.00471089
-1.74993e-05
0.00470013
-1.72336e-05
0.00468954
-1.69893e-05
0.0046791
-1.67438e-05
0.00466885
-1.65156e-05
0.00465878
-1.62807e-05
0.00464889
-1.60589e-05
0.0046392
-1.58393e-05
0.0046297
-1.5633e-05
0.0046204
-1.54325e-05
0.00461129
-1.52405e-05
0.0046024
-1.50527e-05
0.0045937
-1.48742e-05
0.00458522
-1.47025e-05
0.00457693
-1.45432e-05
0.00456884
-1.43921e-05
0.00456095
-1.42561e-05
0.00455325
-1.41299e-05
0.00454574
-1.40308e-05
0.00453841
-1.3955e-05
0.00453122
-1.39423e-05
0.00452421
-1.39884e-05
0.00451723
-1.41739e-05
0.00451049
-1.45794e-05
0.00450335
-1.50868e-05
-1.71157e-05
0.00645273
-1.34586e-05
0.00645752
-3.85543e-05
0.00643989
-0.000105347
0.00638638
-0.000209819
0.00629583
-0.000322396
0.00617559
-0.000415857
0.00603717
-0.000477143
0.00589303
-0.00050253
0.00575373
-0.00049663
0.00562626
-0.000467716
0.00551476
-0.000424725
0.0054203
-0.000376968
0.00534068
-0.00032897
0.00527429
-0.000283639
0.00522104
-0.000244836
0.00517832
-0.000213149
0.00514184
-0.000185557
0.00511067
-0.000161249
0.00508606
-0.000141957
0.00506654
-0.000127502
0.00504888
-0.000115134
0.00503242
-0.000103594
0.00501864
-9.39677e-05
0.00500774
-8.68192e-05
0.00499814
-8.10944e-05
0.00498857
-7.55421e-05
0.00497934
-7.00603e-05
0.00497135
-6.53911e-05
0.00496461
-6.18274e-05
0.00495844
-5.88522e-05
0.0049522
-5.57915e-05
0.00494582
-5.2582e-05
0.00493975
-4.97063e-05
0.00493426
-4.74195e-05
0.00492911
-4.55113e-05
0.00492399
-4.36294e-05
0.00491872
-4.15891e-05
0.00491329
-3.95795e-05
0.00490791
-3.78695e-05
0.00490267
-3.64369e-05
0.00489746
-3.50782e-05
0.00489221
-3.36464e-05
0.00488685
-3.22076e-05
0.0048813
-3.09029e-05
0.0048756
-2.9738e-05
0.00486982
-2.86336e-05
0.004864
-2.75282e-05
0.00485815
-2.6434e-05
0.00485222
-2.53915e-05
0.00484615
-2.44188e-05
0.00483993
-2.3482e-05
0.00483359
-2.25591e-05
0.00482716
-2.16429e-05
0.00482067
-2.07511e-05
0.00481413
-1.98983e-05
0.00480749
-1.90917e-05
0.0048007
-1.829e-05
0.00479375
-1.74816e-05
0.00478664
-1.6679e-05
0.00477937
-1.59158e-05
0.00477195
-1.5189e-05
0.00476435
-1.44833e-05
0.00475656
-1.3788e-05
0.00474854
-1.31098e-05
0.00474028
-1.24574e-05
0.00473181
-1.18418e-05
0.00472313
-1.12618e-05
0.00471427
-1.07152e-05
0.00470524
-1.0195e-05
0.00469605
-9.71141e-06
0.00468672
-9.26856e-06
0.00467727
-8.86577e-06
0.00466773
-8.50148e-06
0.00465813
-8.16926e-06
0.0046485
-7.86962e-06
0.00463887
-7.60119e-06
0.00462924
-7.36351e-06
0.00461966
-7.16138e-06
0.00461013
-6.98719e-06
0.00460069
-6.84055e-06
0.00459135
-6.71553e-06
0.00458212
-6.61471e-06
0.00457302
-6.53504e-06
0.00456407
-6.47748e-06
0.00455527
-6.43622e-06
0.00454662
-6.41127e-06
0.00453815
-6.39882e-06
0.00452985
-6.40072e-06
0.00452172
-6.41341e-06
0.00451376
-6.43777e-06
0.00450598
-6.47104e-06
0.00449836
-6.51296e-06
0.0044909
-6.57092e-06
0.0044836
-6.6525e-06
0.00447641
-6.75738e-06
0.00446938
-6.95084e-06
0.00446232
-7.12124e-06
0.00445547
-7.72735e-06
0.00444816
-7.77492e-06
-1.07115e-05
0.0064508
-2.14627e-05
0.00645216
-3.99198e-05
0.00643219
-8.53722e-05
0.00637824
-0.000155876
0.00628837
-0.000232521
0.00616929
-0.000296783
0.00603184
-0.000339687
0.00588776
-0.000358455
0.00574705
-0.000355917
0.00561734
-0.000338006
0.00550295
-0.000310334
0.0054037
-0.00027772
0.00531903
-0.000244294
0.00524899
-0.000213599
0.00519099
-0.000186845
0.00514125
-0.000163406
0.00509858
-0.000142889
0.00506313
-0.0001258
0.00503309
-0.000111918
0.0050059
-0.00010031
0.00498098
-9.02088e-05
0.00495903
-8.16471e-05
0.00493966
-7.45942e-05
0.00492153
-6.86953e-05
0.00490399
-6.35538e-05
0.00488734
-5.88922e-05
0.00487191
-5.4632e-05
0.00485739
-5.08627e-05
0.00484318
-4.76188e-05
0.00482907
-4.47471e-05
0.00481527
-4.19928e-05
0.00480198
-3.92905e-05
0.0047891
-3.6822e-05
0.00477638
-3.46974e-05
0.00476368
-3.28118e-05
0.00475105
-3.10031e-05
0.00473864
-2.91784e-05
0.00472648
-2.74236e-05
0.00471449
-2.58752e-05
0.00470257
-2.4519e-05
0.00469074
-2.32423e-05
0.00467905
-2.19634e-05
0.00466756
-2.07121e-05
0.00465623
-1.95724e-05
0.00464504
-1.85529e-05
0.00463401
-1.76045e-05
0.00462316
-1.6679e-05
0.00461251
-1.57791e-05
0.00460205
-1.49298e-05
0.00459178
-1.41477e-05
0.00458171
-1.3413e-05
0.00457186
-1.27078e-05
0.00456224
-1.20263e-05
0.00455286
-1.13751e-05
0.00454372
-1.07597e-05
0.00453481
-1.01827e-05
0.00452615
-9.62329e-06
0.00451774
-9.07202e-06
0.0045096
-8.53736e-06
0.00450172
-8.0353e-06
0.00449409
-7.56076e-06
0.00448671
-7.10321e-06
0.00447957
-6.65284e-06
0.00447268
-6.21615e-06
0.00446602
-5.79668e-06
0.00445958
-5.40285e-06
0.00445335
-5.02788e-06
0.0044473
-4.67213e-06
0.00444143
-4.32618e-06
0.00443572
-3.99992e-06
0.00443016
-3.70215e-06
0.00442472
-3.42705e-06
0.00441939
-3.17427e-06
0.00441416
-2.94341e-06
0.00440902
-2.72872e-06
0.00440396
-2.53679e-06
0.00439896
-2.36173e-06
0.00439401
-2.21323e-06
0.00438911
-2.0844e-06
0.00438424
-1.97437e-06
0.0043794
-1.87954e-06
0.00437459
-1.79888e-06
0.00436979
-1.73691e-06
0.004365
-1.68952e-06
0.00436022
-1.65745e-06
0.00435545
-1.63693e-06
0.00435068
-1.62918e-06
0.00434591
-1.63289e-06
0.00434115
-1.64925e-06
0.00433639
-1.67631e-06
0.00433163
-1.71379e-06
0.00432688
-1.76301e-06
0.00432213
-1.82441e-06
0.00431739
-1.9131e-06
0.00431264
-1.99967e-06
0.00430788
-2.19221e-06
0.00430301
-2.25821e-06
0.00429815
-2.86577e-06
0.00429293
-2.55763e-06
-5.63633e-06
0.00644653
-2.70128e-05
0.00644397
-3.73618e-05
0.00642001
-6.141e-05
0.00636214
-9.80094e-05
0.00626748
-0.000137856
0.00614212
-0.000171423
0.00599645
-0.000194017
0.00584204
-0.000204051
0.00568922
-0.000203094
0.00554505
-0.000193842
0.00541359
-0.000178872
0.00529699
-0.000161121
0.00519575
-0.00014305
0.00510813
-0.000125981
0.00503174
-0.000110459
0.00496508
-9.67438e-05
0.00490713
-8.49364e-05
0.0048562
-7.48709e-05
0.00481043
-6.61456e-05
0.00476869
-5.85687e-05
0.00473067
-5.21886e-05
0.00469616
-4.71388e-05
0.0046643
-4.2736e-05
0.00463441
-3.88019e-05
0.00460629
-3.54333e-05
0.00457993
-3.25386e-05
0.00455518
-2.98779e-05
0.00453169
-2.73703e-05
0.0045092
-2.51329e-05
0.00448765
-2.31977e-05
0.00446709
-2.1432e-05
0.00444751
-1.97073e-05
0.00442878
-1.80918e-05
0.00441075
-1.66715e-05
0.00439337
-1.54306e-05
0.00437666
-1.42905e-05
0.00436066
-1.3178e-05
0.00434534
-1.21118e-05
0.00433063
-1.11588e-05
0.00431644
-1.03272e-05
0.00430276
-9.56909e-06
0.00428964
-8.83686e-06
0.00427706
-8.13116e-06
0.00426497
-7.49095e-06
0.00425335
-6.9255e-06
0.00424215
-6.41222e-06
0.0042314
-5.92315e-06
0.00422107
-5.45487e-06
0.00421117
-5.02167e-06
0.00420165
-4.63154e-06
0.00419251
-4.27326e-06
0.00418374
-3.93753e-06
0.00417533
-3.62084e-06
0.00416728
-3.32486e-06
0.00415958
-3.0514e-06
0.0041522
-2.80305e-06
0.00414514
-2.5705e-06
0.00413842
-2.3474e-06
0.00413202
-2.13497e-06
0.00412592
-1.94098e-06
0.00412012
-1.76227e-06
0.00411462
-1.59491e-06
0.00410939
-1.43211e-06
0.00410446
-1.27714e-06
0.00409979
-1.12883e-06
0.00409538
-9.9192e-07
0.00409121
-8.59851e-07
0.00408727
-7.34853e-07
0.00408355
-6.08652e-07
0.00408004
-4.83116e-07
0.00407672
-3.81062e-07
0.00407357
-2.76671e-07
0.00407057
-1.79145e-07
0.00406771
-8.77712e-08
0.00406499
8.41554e-10
0.00406237
8.20658e-08
0.00405985
1.58736e-07
0.00405741
2.21539e-07
0.00405505
2.76223e-07
0.00405275
3.21814e-07
0.00405051
3.61051e-07
0.00404832
3.95628e-07
0.00404616
4.19388e-07
0.00404404
4.35611e-07
0.00404193
4.4539e-07
0.00403985
4.5012e-07
0.00403777
4.51422e-07
0.00403569
4.49041e-07
0.0040336
4.39024e-07
0.00403149
4.26183e-07
0.00402938
4.04331e-07
0.00402723
3.78649e-07
0.00402507
3.38766e-07
0.00402287
2.88378e-07
0.00402062
2.49456e-07
0.0040183
1.26097e-07
0.00401589
1.51094e-07
0.00401334
-3.11452e-07
0.00401062
1.60022e-07
-2.32776e-06
0.00625665
0.00621968
0.00615866
0.00606105
0.00592359
0.00575257
0.00555895
0.00535531
0.00515263
0.0049592
0.00478075
0.00462005
0.00447742
0.00435187
0.00424184
0.00414553
0.00406103
0.0039866
0.00392089
0.00386276
0.00381102
0.00376432
0.00372203
0.00368367
0.00364869
0.0036166
0.00358717
0.00356024
0.00353556
0.00351281
0.00349183
0.00347257
0.00345493
0.00343871
0.00342374
0.0034099
0.00339717
0.00338551
0.00337481
0.00336493
0.00335582
0.00334744
0.00333976
0.00333272
0.00332625
0.00332029
0.00331482
0.00330982
0.00330526
0.00330108
0.00329726
0.00329378
0.00329061
0.00328774
0.00328515
0.0032828
0.00328068
0.00327879
0.00327711
0.00327563
0.00327432
0.00327318
0.0032722
0.00327138
0.00327071
0.00327017
0.00326977
0.00326949
0.00326933
0.00326931
0.00326938
0.00326956
0.00326983
0.0032702
0.00327066
0.00327119
0.00327181
0.00327248
0.00327322
0.00327399
0.00327481
0.00327566
0.00327653
0.00327742
0.00327832
0.00327923
0.00328013
0.00328104
0.00328193
0.00328281
0.00328367
0.0032845
0.0032853
0.00328604
0.00328674
0.00328733
0.00328793
0.00328807
0.00328869
-0.000831931
0.000788343
-0.00121946
0.000387527
-0.00139906
0.000179604
-0.00140205
2.98393e-06
-0.00126096
-0.00014109
-0.000964944
-0.000296012
-0.000524487
-0.000440457
-0.000525013
-0.000754951
0.00166096
-0.00111808
0.000750658
-0.00122824
0.000289766
-0.00120009
-2.51742e-05
-0.00105429
-0.000286883
-0.00080876
-0.000541545
-0.000456447
-0.000792769
-0.000981964
-0.000156197
0.00225018
-0.000557935
0.0011524
-0.000717708
0.000449539
-0.000731038
-1.18447e-05
-0.000650845
-0.000367076
-0.000507296
-0.000685094
-0.000303369
-0.000996696
-0.00128582
0.000429658
0.00257866
9.69572e-05
0.0014851
-0.000111094
0.000657591
-0.000205853
8.29143e-05
-0.000222049
-0.000350881
-0.000187708
-0.000719434
-0.000121698
-0.00106271
-0.00140799
0.0008703
0.00276483
0.000617315
0.00173808
0.000395234
0.000879672
0.000239667
0.000238482
0.000137926
-0.00024914
7.01145e-05
-0.000651623
2.21306e-05
-0.00101472
-0.00138632
0.00119707
0.00287795
0.000996733
0.00193842
0.000781883
0.00109452
0.000592635
0.00042773
0.000428774
-8.52788e-05
0.000279854
-0.000502704
0.000137294
-0.000872162
-0.00124949
0.00139124
0.00294685
0.00123795
0.00209171
0.00104154
0.00129093
0.000835833
0.000633433
0.000631633
0.000118922
0.000426457
-0.000297528
0.000215942
-0.000661646
-0.00103401
0.00145069
0.0029926
0.00133262
0.00220978
0.00116188
0.00146168
0.000958578
0.000836734
0.000737562
0.000339938
0.000503687
-6.36539e-05
0.000257039
-0.000414998
-0.00077745
0.00141287
0.0030225
0.00131811
0.00230454
0.00116835
0.00161144
0.000977265
0.00102782
0.000758576
0.000558627
0.000520538
0.000174384
0.000266326
-0.000160785
-0.000511609
0.00130658
0.00303897
0.0012323
0.00237882
0.00110358
0.00174016
0.000929933
0.00120146
0.000724761
0.0007638
0.000497979
0.000401166
0.000254464
8.27296e-05
-0.000257641
0.00116674
0.00304301
0.00111082
0.00243474
0.00100168
0.0018493
0.000848499
0.00135465
0.00066391
0.000948389
0.000457046
0.000608029
0.00023346
0.000306316
-2.46892e-05
0.00101853
0.00303648
0.000977913
0.00247536
0.000885796
0.00194142
0.000752791
0.00148765
0.000590864
0.00111032
0.000407626
0.000791268
0.000209224
0.000504718
0.000184024
0.000877596
0.00302257
0.000848768
0.00250419
0.000771912
0.00201827
0.000657295
0.00160227
0.0005162
0.00125141
0.000355675
0.000951793
0.000181732
0.00067866
0.00036525
0.00075315
0.00300423
0.000732824
0.00252452
0.000668718
0.00208238
0.000570307
0.00170068
0.000448059
0.00137366
0.000308494
0.00109136
0.000157229
0.000829924
0.000521977
0.000647349
0.00298378
0.000632479
0.00253939
0.000578858
0.002136
0.000494861
0.00178468
0.000389239
0.00147928
0.000268056
0.00121254
0.000136515
0.000961465
0.000657994
0.000558262
0.00296339
0.000546133
0.00255152
0.000501021
0.00218111
0.000429927
0.00185577
0.000339036
0.00157017
0.000233844
0.00131773
0.000119017
0.00107629
0.000776517
0.000484578
0.00294463
0.0004738
0.00256229
0.000435133
0.00221978
0.000374357
0.00191655
0.000295921
0.00164861
0.000204457
0.0014092
0.000103766
0.00117698
0.000879791
0.000424947
0.00292816
0.000414847
0.00257239
0.000380863
0.00225376
0.00032788
0.00196953
0.00025949
0.001717
0.000179471
0.00148921
9.08579e-05
0.0012656
0.000970159
0.00037658
0.00291404
0.000366818
0.00258216
0.000336357
0.00228422
0.000289441
0.00201645
0.000229105
0.00177733
0.000158507
0.00155981
8.02629e-05
0.00134384
0.00104993
0.00033625
0.00290209
0.000326763