/*--------------------------------*- C++ -*----------------------------------*\
| =========                 |                                                 |
| \\      /  F ield         | OpenFOAM: The Open Source CFD Toolbox           |
|  \\    /   O peration     | Version:  v2012                                 |
|   \\  /    A nd           | Website:  www.openfoam.com                      |
|    \\/     M anipulation  |                                                 |
\*---------------------------------------------------------------------------*/
FoamFile
{
    version     2.0;
    format      ascii;
    class       volVectorField;
    location    "0.221";
    object      U.air;
}
// * * * * * * * * * * * * * * * * * * * * * * * * * * * * * * * * * * * * * //

dimensions      [0 1 -1 0 0 0 0];


internalField   nonuniform List<vector> 
1900
(
(39.9676 0.00859687 0)
(39.9239 0.015103 0)
(39.8679 0.0180588 0)
(39.8035 0.0207993 0)
(39.73 0.0237062 0)
(39.6526 0.0267683 0)
(39.5681 0.0297565 0)
(39.4712 0.034433 0)
(39.3801 0.0347838 0)
(39.2118 0.073503 0)
(40.0053 0.0147927 0)
(40.0212 0.0233975 0)
(40.0401 0.0257182 0)
(40.0561 0.0277458 0)
(40.0726 0.0304775 0)
(40.0898 0.0329399 0)
(40.1095 0.0364838 0)
(40.1257 0.0385578 0)
(40.1466 0.0533817 0)
(40.1568 0.0585715 0)
(40.0029 0.00824745 0)
(40.0161 0.0135856 0)
(40.0335 0.0137912 0)
(40.051 0.0145443 0)
(40.0688 0.0163129 0)
(40.0879 0.0182043 0)
(40.1087 0.0208556 0)
(40.1299 0.0248049 0)
(40.1543 0.0350812 0)
(40.1844 0.0529454 0)
(40.0018 0.00414496 0)
(40.0132 0.00782145 0)
(40.0301 0.00860527 0)
(40.0479 0.00970547 0)
(40.066 0.0114323 0)
(40.0852 0.0132518 0)
(40.1064 0.0158683 0)
(40.1291 0.0197454 0)
(40.1561 0.0288801 0)
(40.1894 0.0416246 0)
(40.0015 0.001112 0)
(40.012 0.00211927 0)
(40.0285 0.00232728 0)
(40.0464 0.00266241 0)
(40.0645 0.00325309 0)
(40.084 0.00405071 0)
(40.1056 0.00562475 0)
(40.1294 0.00842124 0)
(40.1575 0.0146682 0)
(40.1918 0.0210543 0)
(40.0016 -0.00180292 0)
(40.0122 -0.00371605 0)
(40.0288 -0.00416326 0)
(40.0468 -0.00431399 0)
(40.065 -0.0043608 0)
(40.0846 -0.00401592 0)
(40.1066 -0.00289513 0)
(40.1311 -0.000789744 0)
(40.1597 0.00317608 0)
(40.1936 0.00640818 0)
(40.0019 -0.00486279 0)
(40.0136 -0.00947527 0)
(40.0308 -0.0105123 0)
(40.0489 -0.0114613 0)
(40.0672 -0.0126727 0)
(40.0871 -0.0134371 0)
(40.1094 -0.0134428 0)
(40.1344 -0.0127054 0)
(40.163 -0.0110203 0)
(40.1957 -0.0104531 0)
(40.0032 -0.00926927 0)
(40.0168 -0.0153327 0)
(40.0348 -0.0157394 0)
(40.0527 -0.016477 0)
(40.0709 -0.01804 0)
(40.0911 -0.0194037 0)
(40.1136 -0.0202815 0)
(40.1388 -0.020797 0)
(40.1672 -0.0210301 0)
(40.1987 -0.0225689 0)
(40.0057 -0.0162088 0)
(40.0223 -0.0253699 0)
(40.042 -0.0274341 0)
(40.0582 -0.0288787 0)
(40.0751 -0.0308085 0)
(40.0938 -0.0324197 0)
(40.1145 -0.0335734 0)
(40.1374 -0.0344434 0)
(40.1628 -0.0352272 0)
(40.1893 -0.0366674 0)
(39.9675 -0.0101412 0)
(39.9214 -0.0185951 0)
(39.8645 -0.0229106 0)
(39.797 -0.0265887 0)
(39.7223 -0.0303253 0)
(39.6428 -0.0339089 0)
(39.5582 -0.0373399 0)
(39.4686 -0.0407417 0)
(39.3739 -0.044104 0)
(39.2741 -0.0480425 0)
(39.1724 -0.0392833 0)
(38.0177 -0.354715 0)
(36.4706 -0.795031 0)
(34.9649 -1.35456 0)
(33.8571 -1.88881 0)
(33.1083 -2.33223 0)
(32.5393 -2.60364 0)
(32.0829 -2.66922 0)
(31.6442 -2.56927 0)
(31.2126 -2.34926 0)
(30.7879 -2.07069 0)
(30.364 -1.77906 0)
(29.9519 -1.50816 0)
(29.5491 -1.2727 0)
(29.1579 -1.07648 0)
(28.7775 -0.915924 0)
(28.4108 -0.787751 0)
(28.0645 -0.688078 0)
(27.7418 -0.609878 0)
(27.4423 -0.546403 0)
(27.1677 -0.494588 0)
(26.9182 -0.452467 0)
(26.6957 -0.417732 0)
(26.4951 -0.387305 0)
(26.3179 -0.36004 0)
(26.1595 -0.335467 0)
(26.025 -0.314292 0)
(25.9102 -0.295985 0)
(25.8116 -0.27948 0)
(25.7266 -0.264247 0)
(25.6539 -0.250457 0)
(25.5905 -0.238071 0)
(25.5362 -0.22708 0)
(25.4877 -0.216929 0)
(25.445 -0.20742 0)
(25.4079 -0.198444 0)
(25.3758 -0.190059 0)
(25.3482 -0.182374 0)
(25.3251 -0.175449 0)
(25.3059 -0.169065 0)
(25.2906 -0.163126 0)
(25.2787 -0.157551 0)
(25.2698 -0.15222 0)
(25.263 -0.147134 0)
(25.2584 -0.142482 0)
(25.2556 -0.138213 0)
(25.2546 -0.134136 0)
(25.2551 -0.130076 0)
(25.2571 -0.126144 0)
(25.2605 -0.122493 0)
(25.2652 -0.119182 0)
(25.2711 -0.116105 0)
(25.2782 -0.113138 0)
(25.2865 -0.110234 0)
(25.2957 -0.107418 0)
(25.3058 -0.104733 0)
(25.3167 -0.102237 0)
(25.3283 -0.0999187 0)
(25.3407 -0.0977209 0)
(25.3536 -0.0955716 0)
(25.3671 -0.0934569 0)
(25.381 -0.091405 0)
(25.3953 -0.0894847 0)
(25.41 -0.087691 0)
(25.4251 -0.0859973 0)
(25.4405 -0.0843509 0)
(25.4562 -0.0827476 0)
(25.4721 -0.081187 0)
(25.4882 -0.0796945 0)
(25.5045 -0.078264 0)
(25.5209 -0.0769022 0)
(25.5375 -0.0755859 0)
(25.5541 -0.0743096 0)
(25.5708 -0.0730567 0)
(25.5875 -0.0718395 0)
(25.6042 -0.0706524 0)
(25.6208 -0.0695101 0)
(25.6375 -0.068389 0)
(25.6539 -0.0673 0)
(25.6704 -0.0662146 0)
(25.6866 -0.0651575 0)
(25.7028 -0.0641051 0)
(25.7186 -0.0630866 0)
(25.7345 -0.0620681 0)
(25.75 -0.0610759 0)
(25.7655 -0.0600789 0)
(25.7805 -0.0591103 0)
(25.7956 -0.0581437 0)
(25.8103 -0.0572134 0)
(25.8249 -0.0562914 0)
(25.8391 -0.0554168 0)
(25.8533 -0.0545561 0)
(25.867 -0.0537844 0)
(25.8809 -0.0530291 0)
(25.8941 -0.0525309 0)
(25.9078 -0.0519792 0)
(25.9204 -0.052265 0)
(25.9349 -0.0520664 0)
(25.9452 -0.0543082 0)
(25.9652 -0.0544217 0)
(40.259 0.205369 0)
(40.4989 0.295872 0)
(40.6487 -0.0460553 0)
(40.4722 -0.668263 0)
(39.9271 -1.3308 0)
(39.098 -1.89411 0)
(38.1063 -2.25379 0)
(37.0581 -2.38375 0)
(36.0564 -2.32225 0)
(35.1526 -2.13293 0)
(34.3682 -1.88024 0)
(33.6983 -1.61205 0)
(33.1348 -1.36043 0)
(32.6568 -1.14073 0)
(32.243 -0.955905 0)
(31.8705 -0.802962 0)
(31.5224 -0.67998 0)
(31.1899 -0.584004 0)
(30.8668 -0.50854 0)
(30.5468 -0.447245 0)
(30.2271 -0.397451 0)
(29.9174 -0.359274 0)
(29.6237 -0.330544 0)
(29.3436 -0.306853 0)
(29.0776 -0.286222 0)
(28.828 -0.26936 0)
(28.5974 -0.256551 0)
(28.3875 -0.246083 0)
(28.1954 -0.236312 0)
(28.0212 -0.22698 0)
(27.862 -0.218328 0)
(27.7174 -0.210378 0)
(27.5862 -0.202891 0)
(27.468 -0.195637 0)
(27.361 -0.188497 0)
(27.2639 -0.181571 0)
(27.1762 -0.175002 0)
(27.0971 -0.168941 0)
(27.026 -0.163453 0)
(26.9617 -0.158381 0)
(26.904 -0.153601 0)
(26.8513 -0.148997 0)
(26.803 -0.144534 0)
(26.7589 -0.140315 0)
(26.7188 -0.136478 0)
(26.6824 -0.132964 0)
(26.6497 -0.129587 0)
(26.6201 -0.126225 0)
(26.5935 -0.122932 0)
(26.5698 -0.119881 0)
(26.5488 -0.11715 0)
(26.5301 -0.114618 0)
(26.5138 -0.112165 0)
(26.4997 -0.109725 0)
(26.4874 -0.107312 0)
(26.477 -0.10498 0)
(26.4681 -0.102785 0)
(26.4605 -0.10073 0)
(26.4543 -0.0987852 0)
(26.4492 -0.0968693 0)
(26.4453 -0.0949709 0)
(26.4423 -0.0931096 0)
(26.4404 -0.0913927 0)
(26.4395 -0.0898012 0)
(26.4393 -0.0883049 0)
(26.4398 -0.0867915 0)
(26.441 -0.0853114 0)
(26.4428 -0.0838642 0)
(26.4452 -0.082473 0)
(26.448 -0.0811324 0)
(26.4512 -0.0798512 0)
(26.4548 -0.0786052 0)
(26.4588 -0.0773856 0)
(26.463 -0.0761755 0)
(26.4674 -0.0749877 0)
(26.4719 -0.0738216 0)
(26.4766 -0.0726905 0)
(26.4814 -0.0715755 0)
(26.4863 -0.0704805 0)
(26.4911 -0.0693848 0)
(26.496 -0.068306 0)
(26.5009 -0.067229 0)
(26.5057 -0.0661802 0)
(26.5106 -0.0651285 0)
(26.5153 -0.0641008 0)
(26.52 -0.0630636 0)
(26.5246 -0.0620548 0)
(26.5292 -0.0610433 0)
(26.5336 -0.0600703 0)
(26.538 -0.0591011 0)
(26.5423 -0.0581829 0)
(26.5465 -0.0572744 0)
(26.5506 -0.0564611 0)
(26.5547 -0.0556614 0)
(26.5586 -0.0551282 0)
(26.5626 -0.0545466 0)
(26.5663 -0.0548243 0)
(26.5703 -0.0545626 0)
(26.5737 -0.0569857 0)
(26.5795 -0.0567941 0)
(40.2699 0.127743 0)
(40.4561 0.0177447 0)
(40.6021 -0.368697 0)
(40.4975 -0.9089 0)
(40.0434 -1.44081 0)
(39.2825 -1.86015 0)
(38.3233 -2.09989 0)
(37.292 -2.15541 0)
(36.2749 -2.06656 0)
(35.3655 -1.88566 0)
(34.5847 -1.65912 0)
(33.9342 -1.4227 0)
(33.4069 -1.20206 0)
(32.9859 -1.00934 0)
(32.6478 -0.84514 0)
(32.3709 -0.706685 0)
(32.1431 -0.59423 0)
(31.9562 -0.506134 0)
(31.7973 -0.435208 0)
(31.6524 -0.375394 0)
(31.5148 -0.326667 0)
(31.3829 -0.289869 0)
(31.2503 -0.261672 0)
(31.1138 -0.238466 0)
(30.9696 -0.218443 0)
(30.8155 -0.202086 0)
(30.6521 -0.190176 0)
(30.4821 -0.181331 0)
(30.3072 -0.173677 0)
(30.1292 -0.166704 0)
(29.9494 -0.160759 0)
(29.7716 -0.156066 0)
(29.5985 -0.152346 0)
(29.4345 -0.149061 0)
(29.2796 -0.145926 0)
(29.1336 -0.14299 0)
(28.9972 -0.140398 0)
(28.8708 -0.138127 0)
(28.754 -0.13603 0)
(28.6459 -0.133916 0)
(28.5456 -0.131755 0)
(28.4521 -0.129447 0)
(28.365 -0.12686 0)
(28.2842 -0.124186 0)
(28.2094 -0.121695 0)
(28.1401 -0.119383 0)
(28.0758 -0.11708 0)
(28.0161 -0.11469 0)
(27.9609 -0.112283 0)
(27.9098 -0.109996 0)
(27.8622 -0.107933 0)
(27.8178 -0.106049 0)
(27.7765 -0.104267 0)
(27.7382 -0.102509 0)
(27.7028 -0.10075 0)
(27.6699 -0.0990375 0)
(27.6396 -0.0974496 0)
(27.6116 -0.0959671 0)
(27.5858 -0.0945353 0)
(27.5619 -0.0930859 0)
(27.5399 -0.0916157 0)
(27.5197 -0.0901556 0)
(27.5011 -0.088748 0)
(27.4835 -0.0873894 0)
(27.4671 -0.0861046 0)
(27.4516 -0.084843 0)
(27.4373 -0.0836095 0)
(27.4236 -0.0823693 0)
(27.4109 -0.0811689 0)
(27.3987 -0.0799871 0)
(27.3873 -0.0788596 0)
(27.3762 -0.0777377 0)
(27.3658 -0.0766332 0)
(27.3556 -0.0755079 0)
(27.3458 -0.0744007 0)
(27.3362 -0.0732914 0)
(27.327 -0.0722182 0)
(27.3179 -0.0711388 0)
(27.3091 -0.0700805 0)
(27.3002 -0.0690027 0)
(27.2917 -0.0679464 0)
(27.2832 -0.0668791 0)
(27.2749 -0.0658404 0)
(27.2666 -0.064793 0)
(27.2585 -0.0637681 0)
(27.2504 -0.0627325 0)
(27.2425 -0.0617223 0)
(27.2346 -0.0607112 0)
(27.2269 -0.0597349 0)
(27.2192 -0.0587657 0)
(27.2116 -0.0578423 0)
(27.2041 -0.0569342 0)
(27.1968 -0.0561149 0)
(27.1894 -0.0553157 0)
(27.1823 -0.0547765 0)
(27.1749 -0.0541998 0)
(27.1683 -0.0544649 0)
(27.1605 -0.0542661 0)
(27.1552 -0.0566427 0)
(27.1446 -0.0564504 0)
(40.2634 0.067339 0)
(40.4034 0.00417005 0)
(40.4966 -0.262168 0)
(40.3657 -0.678571 0)
(39.9156 -1.11199 0)
(39.179 -1.46758 0)
(38.2538 -1.69384 0)
(37.2567 -1.77781 0)
(36.2689 -1.73948 0)
(35.3822 -1.61434 0)
(34.6128 -1.4395 0)
(33.965 -1.24775 0)
(33.4378 -1.06492 0)
(33.0142 -0.902207 0)
(32.6696 -0.760441 0)
(32.3868 -0.639692 0)
(32.161 -0.542535 0)
(31.9835 -0.466522 0)
(31.837 -0.403428 0)
(31.7087 -0.348581 0)
(31.5999 -0.30424 0)
(31.5149 -0.271606 0)
(31.4468 -0.245883 0)
(31.3828 -0.221642 0)
(31.3201 -0.19898 0)
(31.265 -0.180504 0)
(31.2177 -0.166376 0)
(31.172 -0.154568 0)
(31.1244 -0.143806 0)
(31.0718 -0.133594 0)
(31.0133 -0.124468 0)
(30.9496 -0.117321 0)
(30.8807 -0.11228 0)
(30.8058 -0.108557 0)
(30.7236 -0.10526 0)
(30.6335 -0.102166 0)
(30.5361 -0.0997099 0)
(30.4331 -0.0981046 0)
(30.3267 -0.0970915 0)
(30.2183 -0.0963201 0)
(30.1093 -0.0955765 0)
(30.0005 -0.094747 0)
(29.8934 -0.0939686 0)
(29.7898 -0.0934471 0)
(29.6907 -0.0931903 0)
(29.5963 -0.0930189 0)
(29.5062 -0.0927514 0)
(29.4203 -0.0923461 0)
(29.3391 -0.0919197 0)
(29.2626 -0.0915351 0)
(29.1906 -0.0911107 0)
(29.1225 -0.0905751 0)
(29.0579 -0.0899268 0)
(28.9962 -0.0891793 0)
(28.9378 -0.0883515 0)
(28.8822 -0.0874549 0)
(28.8297 -0.0865639 0)
(28.7799 -0.0857154 0)
(28.733 -0.084881 0)
(28.6883 -0.0839917 0)
(28.6461 -0.0830389 0)
(28.6059 -0.082087 0)
(28.5678 -0.0811736 0)
(28.5311 -0.0802566 0)
(28.4963 -0.0793406 0)
(28.4626 -0.0783921 0)
(28.4304 -0.0774195 0)
(28.3989 -0.0764083 0)
(28.3686 -0.0754036 0)
(28.3387 -0.074394 0)
(28.31 -0.073419 0)
(28.2814 -0.0724332 0)
(28.2537 -0.0714442 0)
(28.2261 -0.0704224 0)
(28.1993 -0.069405 0)
(28.1726 -0.0683822 0)
(28.1466 -0.0673872 0)
(28.1206 -0.0663845 0)
(28.0953 -0.065394 0)
(28.07 -0.0643842 0)
(28.0454 -0.0633946 0)
(28.0208 -0.062397 0)
(27.9969 -0.0614239 0)
(27.973 -0.0604391 0)
(27.9498 -0.0594744 0)
(27.9265 -0.0584965 0)
(27.904 -0.057545 0)
(27.8815 -0.05659 0)
(27.8596 -0.0556719 0)
(27.8377 -0.0547581 0)
(27.8166 -0.0538915 0)
(27.7954 -0.0530397 0)
(27.775 -0.0522738 0)
(27.7544 -0.0515313 0)
(27.7348 -0.0510337 0)
(27.7145 -0.0505158 0)
(27.6962 -0.0507823 0)
(27.6747 -0.0506783 0)
(27.6601 -0.0528895 0)
(27.6311 -0.0531149 0)
(40.2555 0.0314289 0)
(40.3567 -0.031883 0)
(40.4022 -0.258915 0)
(40.2468 -0.617322 0)
(39.8045 -0.995501 0)
(39.098 -1.30664 0)
(38.2123 -1.50468 0)
(37.2563 -1.57679 0)
(36.2999 -1.54039 0)
(35.432 -1.42853 0)
(34.6697 -1.27353 0)
(34.0238 -1.10524 0)
(33.4959 -0.946292 0)
(33.0668 -0.803975 0)
(32.7121 -0.678192 0)
(32.4235 -0.572409 0)
(32.1985 -0.489194 0)
(32.0187 -0.422632 0)
(31.862 -0.364764 0)
(31.7261 -0.315077 0)
(31.6203 -0.277531 0)
(31.5403 -0.250295 0)
(31.4682 -0.226176 0)
(31.3974 -0.20268 0)
(31.3364 -0.182974 0)
(31.291 -0.16871 0)
(31.256 -0.157772 0)
(31.2231 -0.147577 0)
(31.1888 -0.137152 0)
(31.1566 -0.127353 0)
(31.1319 -0.119394 0)
(31.1137 -0.113197 0)
(31.0974 -0.107911 0)
(31.08 -0.10274 0)
(31.0598 -0.09712 0)
(31.04 -0.091718 0)
(31.021 -0.0869869 0)
(31.0016 -0.083157 0)
(30.9806 -0.0801157 0)
(30.956 -0.0773633 0)
(30.9268 -0.0745626 0)
(30.8924 -0.0719321 0)
(30.8533 -0.069921 0)
(30.8101 -0.0687143 0)
(30.7628 -0.0680743 0)
(30.7112 -0.0675869 0)
(30.6549 -0.0670147 0)
(30.5942 -0.0664487 0)
(30.5296 -0.0660978 0)
(30.4623 -0.0660188 0)
(30.3937 -0.0661181 0)
(30.3244 -0.0662819 0)
(30.2549 -0.0664004 0)
(30.1851 -0.0664508 0)
(30.1154 -0.0664935 0)
(30.0464 -0.0665889 0)
(29.9788 -0.066786 0)
(29.9121 -0.067009 0)
(29.8468 -0.0671785 0)
(29.7825 -0.0672481 0)
(29.7198 -0.0672042 0)
(29.6582 -0.0670571 0)
(29.5982 -0.0668124 0)
(29.5394 -0.0665 0)
(29.4822 -0.0661394 0)
(29.4259 -0.0657067 0)
(29.3712 -0.0651869 0)
(29.317 -0.0645698 0)
(29.2643 -0.0639011 0)
(29.2119 -0.0631821 0)
(29.161 -0.0624594 0)
(29.1102 -0.0616944 0)
(29.0609 -0.0608994 0)
(29.0117 -0.0600523 0)
(28.9639 -0.0591935 0)
(28.9162 -0.0583173 0)
(28.8699 -0.0574628 0)
(28.8236 -0.056594 0)
(28.7787 -0.055734 0)
(28.7339 -0.0548552 0)
(28.6904 -0.0539721 0)
(28.647 -0.0530777 0)
(28.6049 -0.0522164 0)
(28.5629 -0.0513546 0)
(28.5223 -0.0505162 0)
(28.4817 -0.0496713 0)
(28.4426 -0.048854 0)
(28.4035 -0.0480368 0)
(28.3658 -0.0472566 0)
(28.3282 -0.0464825 0)
(28.292 -0.0457546 0)
(28.2558 -0.0450443 0)
(28.2211 -0.0444123 0)
(28.1862 -0.0438116 0)
(28.1531 -0.043422 0)
(28.119 -0.0430494 0)
(28.0883 -0.0433164 0)
(28.0523 -0.0434258 0)
(28.0279 -0.0452807 0)
(27.9796 -0.0464644 0)
(40.2478 0.00636932 0)
(40.3189 -0.0529351 0)
(40.3277 -0.234956 0)
(40.154 -0.518805 0)
(39.7188 -0.818105 0)
(39.0361 -1.06199 0)
(38.1812 -1.21595 0)
(37.2551 -1.27216 0)
(36.3242 -1.24546 0)
(35.4705 -1.16076 0)
(34.7148 -1.04175 0)
(34.0738 -0.912174 0)
(33.5448 -0.787808 0)
(33.1062 -0.673421 0)
(32.7427 -0.571357 0)
(32.4526 -0.486983 0)
(32.2257 -0.420991 0)
(32.0348 -0.36549 0)
(31.865 -0.315563 0)
(31.7286 -0.275849 0)
(31.6292 -0.24822 0)
(31.5441 -0.225695 0)
(31.4589 -0.203064 0)
(31.3833 -0.182788 0)
(31.3273 -0.168215 0)
(31.285 -0.157828 0)
(31.2455 -0.148005 0)
(31.2035 -0.137154 0)
(31.1647 -0.127166 0)
(31.1352 -0.119592 0)
(31.1133 -0.113818 0)
(31.0941 -0.108548 0)
(31.0738 -0.103012 0)
(31.052 -0.0973052 0)
(31.0337 -0.0924846 0)
(31.0201 -0.088635 0)
(31.0094 -0.0853832 0)
(30.9992 -0.0824679 0)
(30.9878 -0.0796328 0)
(30.9756 -0.0767356 0)
(30.965 -0.0739567 0)
(30.9562 -0.0712938 0)
(30.948 -0.0689325 0)
(30.9392 -0.0670411 0)
(30.9292 -0.065365 0)
(30.9174 -0.0635543 0)
(30.904 -0.0615214 0)
(30.8894 -0.0594647 0)
(30.8731 -0.0576628 0)
(30.8546 -0.0562533 0)
(30.833 -0.055146 0)
(30.8077 -0.0541627 0)
(30.7785 -0.0531615 0)
(30.7454 -0.0521437 0)
(30.7084 -0.0512188 0)
(30.6677 -0.0505182 0)
(30.6231 -0.0499697 0)
(30.5745 -0.0495008 0)
(30.522 -0.0490438 0)
(30.4658 -0.0485975 0)
(30.4064 -0.0481604 0)
(30.3441 -0.0477366 0)
(30.2796 -0.0473512 0)
(30.2129 -0.0470143 0)
(30.1446 -0.0466993 0)
(30.0748 -0.0463692 0)
(30.0042 -0.0459876 0)
(29.9329 -0.045556 0)
(29.8616 -0.0450904 0)
(29.79 -0.0446127 0)
(29.7191 -0.0441379 0)
(29.6481 -0.0436452 0)
(29.5783 -0.0431319 0)
(29.5085 -0.042579 0)
(29.4403 -0.0420143 0)
(29.3723 -0.0414278 0)
(29.306 -0.0408615 0)
(29.24 -0.0402812 0)
(29.1758 -0.0397112 0)
(29.112 -0.0391188 0)
(29.05 -0.0385569 0)
(28.9885 -0.0379914 0)
(28.929 -0.0374373 0)
(28.8699 -0.036878 0)
(28.8129 -0.0363304 0)
(28.7563 -0.0357793 0)
(28.7019 -0.0352482 0)
(28.6477 -0.0347217 0)
(28.5959 -0.0342248 0)
(28.5442 -0.033737 0)
(28.495 -0.0332871 0)
(28.4457 -0.0328541 0)
(28.3989 -0.0324841 0)
(28.3518 -0.0321524 0)
(28.3075 -0.0319747 0)
(28.2617 -0.0318695 0)
(28.2208 -0.0321645 0)
(28.1729 -0.0326444 0)
(28.1403 -0.033906 0)
(28.076 -0.0366339 0)
(40.2419 -0.0161658 0)
(40.2904 -0.0671902 0)
(40.2717 -0.206836 0)
(40.0832 -0.423797 0)
(39.6529 -0.656247 0)
(38.9885 -0.849198 0)
(38.1576 -0.97572 0)
(37.2544 -1.02806 0)
(36.343 -1.01549 0)
(35.4976 -0.954992 0)
(34.7446 -0.864278 0)
(34.1013 -0.763769 0)
(33.5617 -0.665145 0)
(33.1056 -0.571453 0)
(32.7328 -0.489457 0)
(32.442 -0.423966 0)
(32.201 -0.369129 0)
(31.9873 -0.319377 0)
(31.8124 -0.278181 0)
(31.6811 -0.248381 0)
(31.5696 -0.224783 0)
(31.461 -0.20211 0)
(31.3643 -0.181625 0)
(31.2894 -0.166392 0)
(31.2285 -0.155443 0)
(31.1696 -0.145549 0)
(31.1091 -0.134927 0)
(31.0545 -0.125154 0)
(31.0095 -0.117872 0)
(30.9705 -0.11248 0)
(30.9325 -0.107343 0)
(30.8926 -0.101665 0)
(30.8527 -0.0960709 0)
(30.8169 -0.0915899 0)
(30.7842 -0.0881646 0)
(30.7526 -0.0850512 0)
(30.7204 -0.0816635 0)
(30.6867 -0.0780975 0)
(30.6526 -0.0748278 0)
(30.6196 -0.0721254 0)
(30.5871 -0.0697316 0)
(30.5546 -0.0672832 0)
(30.5217 -0.0648314 0)
(30.4876 -0.0625764 0)
(30.4524 -0.0605051 0)
(30.4165 -0.0585067 0)
(30.3802 -0.0565345 0)
(30.3439 -0.0546381 0)
(30.3072 -0.05288 0)
(30.2698 -0.0512462 0)
(30.2314 -0.0496199 0)
(30.1922 -0.0479167 0)
(30.1522 -0.0461358 0)
(30.1119 -0.04435 0)
(30.0713 -0.0426371 0)
(30.0302 -0.0410224 0)
(29.9884 -0.0394274 0)
(29.9455 -0.0377959 0)
(29.9016 -0.0361542 0)
(29.8567 -0.0345715 0)
(29.8108 -0.0330781 0)
(29.764 -0.031665 0)
(29.716 -0.0303293 0)
(29.6667 -0.0290659 0)
(29.6159 -0.0278769 0)
(29.5637 -0.0267677 0)
(29.5101 -0.0257402 0)
(29.4553 -0.0247976 0)
(29.3995 -0.0239272 0)
(29.3426 -0.0231468 0)
(29.2848 -0.0224489 0)
(29.2261 -0.0218237 0)
(29.1668 -0.0212609 0)
(29.107 -0.0207522 0)
(29.047 -0.0202969 0)
(28.9867 -0.0198839 0)
(28.9267 -0.0195218 0)
(28.8665 -0.0191977 0)
(28.8071 -0.018914 0)
(28.7476 -0.0186539 0)
(28.6893 -0.0184168 0)
(28.6309 -0.0182003 0)
(28.5741 -0.0180158 0)
(28.5173 -0.0178592 0)
(28.4623 -0.0177254 0)
(28.4074 -0.0176099 0)
(28.3544 -0.0175124 0)
(28.3016 -0.0174329 0)
(28.2508 -0.0173714 0)
(28.2001 -0.0173259 0)
(28.1515 -0.0172987 0)
(28.1029 -0.0172864 0)
(28.0564 -0.0173069 0)
(28.0097 -0.0173679 0)
(27.9654 -0.0175021 0)
(27.9196 -0.0177721 0)
(27.8784 -0.0181371 0)
(27.8297 -0.0191002 0)
(27.7968 -0.0196139 0)
(27.7301 -0.024158 0)
(40.2386 -0.030009 0)
(40.2709 -0.0704533 0)
(40.2318 -0.171527 0)
(40.0309 -0.327113 0)
(39.6008 -0.494846 0)
(38.9444 -0.634498 0)
(38.1222 -0.726377 0)
(37.2224 -0.765147 0)
(36.3093 -0.75775 0)
(35.4484 -0.716822 0)
(34.6825 -0.655898 0)
(34.0167 -0.586395 0)
(33.4395 -0.514575 0)
(32.9575 -0.44752 0)
(32.5653 -0.390297 0)
(32.2347 -0.341559 0)
(31.9453 -0.298129 0)
(31.7028 -0.261099 0)
(31.5037 -0.231865 0)
(31.3288 -0.208618 0)
(31.1647 -0.188206 0)
(31.0179 -0.170104 0)
(30.8913 -0.155339 0)
(30.7764 -0.143912 0)
(30.6652 -0.134245 0)
(30.5575 -0.124797 0)
(30.4574 -0.115777 0)
(30.3651 -0.108187 0)
(30.2762 -0.102233 0)
(30.1877 -0.0970404 0)
(30.1001 -0.0916185 0)
(30.0155 -0.0860195 0)
(29.9342 -0.081093 0)
(29.8547 -0.077172 0)
(29.7754 -0.0738163 0)
(29.6961 -0.0704174 0)
(29.6178 -0.066736 0)
(29.5412 -0.0631545 0)
(29.466 -0.0601524 0)
(29.3915 -0.05766 0)
(29.3172 -0.0552806 0)
(29.2437 -0.0527563 0)
(29.1714 -0.0501971 0)
(29.1002 -0.0478598 0)
(29.0299 -0.0458078 0)
(28.9606 -0.0439194 0)
(28.8922 -0.0420485 0)
(28.8251 -0.0401705 0)
(28.7592 -0.0383442 0)
(28.6945 -0.0366182 0)
(28.631 -0.034974 0)
(28.5688 -0.0334003 0)
(28.508 -0.0318906 0)
(28.4488 -0.0304549 0)
(28.3909 -0.0290889 0)
(28.3347 -0.0277904 0)
(28.2797 -0.0265052 0)
(28.2265 -0.0252264 0)
(28.1747 -0.023979 0)
(28.1249 -0.0228109 0)
(28.0763 -0.0216995 0)
(28.0296 -0.0206119 0)
(27.9842 -0.0195163 0)
(27.9406 -0.0184291 0)
(27.8981 -0.0173647 0)
(27.8574 -0.0163537 0)
(27.8177 -0.015388 0)
(27.7796 -0.014468 0)
(27.7423 -0.0135721 0)
(27.7063 -0.0127194 0)
(27.671 -0.0119325 0)
(27.6368 -0.0112054 0)
(27.6031 -0.0105245 0)
(27.5703 -0.00989604 0)
(27.5379 -0.00932222 0)
(27.5061 -0.00880991 0)
(27.4747 -0.00835491 0)
(27.4436 -0.00796901 0)
(27.4129 -0.0076417 0)
(27.3824 -0.00736972 0)
(27.3522 -0.00714567 0)
(27.322 -0.00696527 0)
(27.2921 -0.00683044 0)
(27.2621 -0.00674028 0)
(27.2323 -0.00668898 0)
(27.2025 -0.00667199 0)
(27.1727 -0.00668473 0)
(27.1429 -0.00672846 0)
(27.1132 -0.00679755 0)
(27.0834 -0.00689278 0)
(27.0537 -0.00700794 0)
(27.024 -0.0071449 0)
(26.9945 -0.00730773 0)
(26.9647 -0.00751252 0)
(26.9355 -0.00772777 0)
(26.9049 -0.00811285 0)
(26.8769 -0.00835626 0)
(26.8424 -0.00948505 0)
(26.8199 -0.00918233 0)
(26.7695 -0.0145937 0)
(40.2229 -0.0441215 0)
(40.2345 -0.0683461 0)
(40.1702 -0.129278 0)
(39.943 -0.223499 0)
(39.4859 -0.326545 0)
(38.7965 -0.413769 0)
(37.9306 -0.472607 0)
(36.9721 -0.498812 0)
(35.9892 -0.496014 0)
(35.0472 -0.472029 0)
(34.1814 -0.4341 0)
(33.4024 -0.388955 0)
(32.7217 -0.342948 0)
(32.1365 -0.300703 0)
(31.6279 -0.263433 0)
(31.1837 -0.230648 0)
(30.7967 -0.202304 0)
(30.4611 -0.178887 0)
(30.1619 -0.159472 0)
(29.8905 -0.142811 0)
(29.6414 -0.128128 0)
(29.4163 -0.116001 0)
(29.211 -0.106051 0)
(29.0189 -0.0973445 0)
(28.8379 -0.0894921 0)
(28.668 -0.0824968 0)
(28.5091 -0.0762958 0)
(28.3591 -0.0706793 0)
(28.2159 -0.0655379 0)
(28.0784 -0.0607939 0)
(27.9469 -0.056362 0)
(27.8218 -0.0521883 0)
(27.7025 -0.0483579 0)
(27.588 -0.0448903 0)
(27.4774 -0.0416695 0)
(27.371 -0.038611 0)
(27.2688 -0.0356762 0)
(27.1713 -0.0329392 0)
(27.0777 -0.0304722 0)
(26.9875 -0.0282151 0)
(26.9005 -0.0260693 0)
(26.8169 -0.0239947 0)
(26.7366 -0.0220389 0)
(26.6598 -0.0202806 0)
(26.5858 -0.0186929 0)
(26.5146 -0.0172013 0)
(26.446 -0.0157566 0)
(26.3804 -0.0143844 0)
(26.3172 -0.0131278 0)
(26.2567 -0.0120051 0)
(26.1983 -0.0109738 0)
(26.1426 -0.0099978 0)
(26.0889 -0.00906221 0)
(26.0377 -0.00817761 0)
(25.9883 -0.00735511 0)
(25.9414 -0.00660495 0)
(25.8962 -0.00589906 0)
(25.8534 -0.00521717 0)
(25.8123 -0.00456056 0)
(25.7735 -0.00394806 0)
(25.7362 -0.00337445 0)
(25.7011 -0.00283179 0)
(25.6674 -0.00231083 0)
(25.6359 -0.00181899 0)
(25.6058 -0.00135887 0)
(25.5776 -0.00093539 0)
(25.5507 -0.000539026 0)
(25.5256 -0.000163989 0)
(25.5015 0.000193837 0)
(25.4791 0.000526555 0)
(25.4577 0.00084209 0)
(25.4376 0.00107589 0)
(25.4184 0.00127374 0)
(25.4002 0.00145242 0)
(25.3827 0.00162485 0)
(25.3661 0.00177757 0)
(25.35 0.0019204 0)
(25.3347 0.00203636 0)
(25.3197 0.00213624 0)
(25.3052 0.00222137 0)
(25.291 0.00229647 0)
(25.2772 0.00235092 0)
(25.2636 0.00239764 0)
(25.2503 0.00243963 0)
(25.2371 0.00247436 0)
(25.224 0.00250323 0)
(25.211 0.00252499 0)
(25.198 0.00253925 0)
(25.185 0.0025404 0)
(25.172 0.00253272 0)
(25.1588 0.00251176 0)
(25.1455 0.00247911 0)
(25.1321 0.00242663 0)
(25.1184 0.00231804 0)
(25.1048 0.00222408 0)
(25.0899 0.00194281 0)
(25.0767 0.00194566 0)
(25.0582 0.000987251 0)
(25.0479 0.00151911 0)
(25.0178 -0.00294829 0)
(39.1402 -0.0539802 0)
(38.9464 -0.0675466 0)
(38.6586 -0.0934486 0)
(38.1914 -0.131021 0)
(37.4774 -0.172078 0)
(36.5128 -0.207809 0)
(35.3544 -0.233313 0)
(34.0901 -0.246377 0)
(32.7979 -0.247941 0)
(31.5411 -0.240281 0)
(30.3737 -0.225504 0)
(29.3096 -0.206425 0)
(28.3628 -0.186289 0)
(27.5264 -0.166538 0)
(26.7952 -0.147528 0)
(26.1537 -0.129827 0)
(25.5941 -0.11434 0)
(25.0997 -0.100819 0)
(24.6658 -0.088634 0)
(24.2804 -0.0775023 0)
(23.941 -0.0681527 0)
(23.6352 -0.0608705 0)
(23.3582 -0.0546285 0)
(23.1077 -0.0489386 0)
(22.8797 -0.0441303 0)
(22.671 -0.0402769 0)
(22.4792 -0.0368281 0)
(22.3039 -0.033462 0)
(22.1432 -0.0304136 0)
(21.9957 -0.0279375 0)
(21.8592 -0.0258416 0)
(21.7339 -0.0237927 0)
(21.619 -0.0217918 0)
(21.5137 -0.0200477 0)
(21.4164 -0.0186433 0)
(21.3266 -0.0174559 0)
(21.2437 -0.0162987 0)
(21.1679 -0.0151486 0)
(21.0982 -0.0141178 0)
(21.0342 -0.0132757 0)
(20.9749 -0.0125704 0)
(20.9204 -0.0119028 0)
(20.8703 -0.011234 0)
(20.8246 -0.0106136 0)
(20.7824 -0.0100804 0)
(20.7438 -0.00962816 0)
(20.708 -0.00921195 0)
(20.6755 -0.00880747 0)
(20.6456 -0.00841789 0)
(20.6185 -0.0080571 0)
(20.5935 -0.00771858 0)
(20.5708 -0.00740289 0)
(20.55 -0.0071076 0)
(20.5313 -0.00683417 0)
(20.5142 -0.00657687 0)
(20.4989 -0.0063397 0)
(20.4848 -0.00611145 0)
(20.4725 -0.00589411 0)
(20.4612 -0.00568975 0)
(20.4515 -0.0055117 0)
(20.4427 -0.00534889 0)
(20.4352 -0.00519564 0)
(20.4285 -0.00503451 0)
(20.423 -0.00487477 0)
(20.4182 -0.00470606 0)
(20.4146 -0.00454413 0)
(20.4115 -0.00436456 0)
(20.4095 -0.00418533 0)
(20.4081 -0.00396611 0)
(20.4076 -0.0037085 0)
(20.4077 -0.0035296 0)
(20.4085 -0.00334896 0)
(20.4099 -0.00319379 0)
(20.412 -0.00304999 0)
(20.4145 -0.0029103 0)
(20.4176 -0.00277644 0)
(20.4212 -0.00264729 0)
(20.4253 -0.00253722 0)
(20.4297 -0.00244024 0)
(20.4344 -0.0023582 0)
(20.4394 -0.00229021 0)
(20.4446 -0.00226259 0)
(20.45 -0.00225326 0)
(20.4555 -0.00225486 0)
(20.4611 -0.00226427 0)
(20.4668 -0.00227935 0)
(20.4724 -0.0022966 0)
(20.4781 -0.00231466 0)
(20.4837 -0.00233688 0)
(20.4892 -0.00235737 0)
(20.4947 -0.00238257 0)
(20.4999 -0.00240509 0)
(20.5052 -0.00243498 0)
(20.5097 -0.00249603 0)
(20.5146 -0.0025399 0)
(20.518 -0.00268039 0)
(20.5227 -0.00262406 0)
(20.524 -0.003223 0)
(20.5277 -0.00208131 0)
(20.5227 -0.00798318 0)
(1.95437 0.421237 0)
(1.64907 2.05102 0)
(0.910905 2.40128 0)
(0.110915 2.5677 0)
(-0.665574 2.43237 0)
(-1.46651 1.98152 0)
(-2.15367 1.28401 0)
(-2.51272 0.770952 0)
(10.5778 0.318084 0)
(4.36564 1.81697 0)
(1.74411 2.17481 0)
(-0.155017 2.21102 0)
(-2.00006 2.04563 0)
(-3.8773 1.69172 0)
(-5.71493 1.11972 0)
(-6.92409 0.530807 0)
(16.8868 -0.371864 0)
(7.91511 0.751521 0)
(2.86677 1.2142 0)
(-0.3908 1.32793 0)
(-2.9925 1.24932 0)
(-5.40338 1.0588 0)
(-7.85091 0.753711 0)
(-9.97521 0.288393 0)
(20.5479 -1.17077 0)
(11.239 -0.438563 0)
(4.58037 0.073497 0)
(0.166285 0.312114 0)
(-3.14767 0.393392 0)
(-6.02669 0.379206 0)
(-8.77042 0.303337 0)
(-11.4791 0.0760389 0)
(22.4347 -1.81035 0)
(13.5547 -1.3272 0)
(6.44275 -0.873384 0)
(1.28496 -0.548987 0)
(-2.61863 -0.328245 0)
(-5.86405 -0.179408 0)
(-8.80813 -0.0646676 0)
(-11.7951 -0.051594 0)
(23.6383 -2.31559 0)
(15.4316 -1.97617 0)
(8.25977 -1.57569 0)
(2.74329 -1.21556 0)
(-1.47203 -0.90472 0)
(-4.91753 -0.630894 0)
(-7.98475 -0.380774 0)
(-11.1055 -0.205933 0)
(24.3328 -2.60592 0)
(16.9013 -2.37074 0)
(10.0266 -2.03615 0)
(4.44228 -1.67067 0)
(0.115653 -1.30548 0)
(-3.377 -0.946688 0)
(-6.43094 -0.597694 0)
(-9.51233 -0.307157 0)
(24.7684 -2.67809 0)
(17.9673 -2.50951 0)
(11.5151 -2.23417 0)
(6.15524 -1.89322 0)
(1.91905 -1.51318 0)
(-1.51038 -1.11243 0)
(-4.48995 -0.712744 0)
(-7.52815 -0.358465 0)
(25.0646 -2.58798 0)
(18.8341 -2.46091 0)
(12.8345 -2.23081 0)
(7.7937 -1.91907 0)
(3.76293 -1.55068 0)
(0.479147 -1.1469 0)
(-2.37457 -0.740283 0)
(-5.3287 -0.369162 0)
(25.2506 -2.38111 0)
(19.53 -2.28706 0)
(13.9916 -2.0971 0)
(9.31677 -1.8211 0)
(5.5374 -1.4803 0)
(2.42559 -1.09674 0)
(-0.297186 -0.708763 0)
(-3.17841 -0.353615 0)
(25.3304 -2.11421 0)
(20.0611 -2.05201 0)
(14.9678 -1.89767 0)
(10.6754 -1.65959 0)
(7.16912 -1.35443 0)
(4.24237 -1.00531 0)
(1.65855 -0.65069 0)
(-1.14557 -0.325803 0)
(25.3134 -1.83558 0)
(20.4572 -1.79937 0)
(15.8049 -1.67539 0)
(11.8636 -1.47249 0)
(8.60684 -1.2037 0)
(5.86516 -0.895467 0)
(3.41695 -0.580567 0)
(0.697379 -0.291744 0)
(25.2212 -1.57307 0)
(20.7375 -1.55724 0)
(16.5021 -1.45846 0)
(12.8899 -1.28578 0)
(9.86457 -1.05181 0)
(7.2929 -0.782366 0)
(4.96284 -0.504605 0)
(2.30895 -0.250244 0)
(25.0831 -1.34452 0)
(20.9382 -1.34108 0)
(17.0849 -1.26246 0)
(13.772 -1.11589 0)
(10.9562 -0.913277 0)
(8.53812 -0.679249 0)
(6.31401 -0.435947 0)
(3.71762 -0.214278 0)
(24.9179 -1.15172 0)
(21.0781 -1.15588 0)
(17.572 -1.0924 0)
(14.531 -0.967546 0)
(11.9026 -0.793179 0)
(9.61988 -0.590472 0)
(7.48711 -0.377638 0)
(4.93577 -0.184602 0)
(24.7441 -0.991286 0)
(21.187 -0.997618 0)
(17.979 -0.945841 0)
(15.1721 -0.838889 0)
(12.7165 -0.690116 0)
(10.558 -0.514932 0)
(8.50808 -0.328023 0)
(5.99465 -0.161662 0)
(24.5798 -0.860473 0)
(21.2813 -0.865865 0)
(18.3238 -0.82153 0)
(15.715 -0.729366 0)
(13.4162 -0.601902 0)
(11.3718 -0.449923 0)
(9.40033 -0.283872 0)
(6.91625 -0.145587 0)
(24.4332 -0.755283 0)
(21.3677 -0.759017 0)
(18.6237 -0.719078 0)
(16.1847 -0.638559 0)
(14.0232 -0.527761 0)
(12.0817 -0.394759 0)
(10.186 -0.246675 0)
(7.71738 -0.131231 0)
(24.3067 -0.670138 0)
(21.4504 -0.672034 0)
(18.8905 -0.635308 0)
(16.5981 -0.563775 0)
(14.5558 -0.466066 0)
(12.7053 -0.348672 0)
(10.8775 -0.217147 0)
(8.42355 -0.116094 0)
(24.1986 -0.59895 0)
(21.5305 -0.599516 0)
(19.1311 -0.565434 0)
(16.9662 -0.501213 0)
(15.028 -0.414152 0)
(13.2575 -0.309699 0)
(11.4894 -0.192695 0)
(9.04823 -0.102364 0)
(24.108 -0.538619 0)
(21.6085 -0.53852 0)
(19.3494 -0.506615 0)
(17.2971 -0.448817 0)
(15.4504 -0.37063 0)
(13.75 -0.276899 0)
(12.0343 -0.172109 0)
(9.6035 -0.0907006 0)
(24.0331 -0.488553 0)
(21.6841 -0.487844 0)
(19.5461 -0.458031 0)
(17.5963 -0.405661 0)
(15.8315 -0.334823 0)
(14.1936 -0.249919 0)
(12.5238 -0.155165 0)
(10.1012 -0.0811939 0)
(23.9715 -0.447692 0)
(21.7572 -0.446033 0)
(19.727 -0.418027 0)
(17.8695 -0.369942 0)
(16.1785 -0.305137 0)
(14.5968 -0.227575 0)
(12.9681 -0.141131 0)
(10.5519 -0.0733843 0)
(23.921 -0.412686 0)
(21.8292 -0.410009 0)
(19.8959 -0.383714 0)
(18.1214 -0.339258 0)
(16.4971 -0.27964 0)
(14.9661 -0.208401 0)
(13.3741 -0.12906 0)
(10.963 -0.0667204 0)
(23.88 -0.381257 0)
(21.898 -0.377911 0)
(20.0525 -0.353114 0)
(18.3535 -0.311906 0)
(16.7899 -0.256935 0)
(15.3054 -0.191337 0)
(13.7466 -0.118293 0)
(11.3392 -0.0608793 0)
(23.8482 -0.353524 0)
(21.9657 -0.349078 0)
(20.1996 -0.326013 0)
(18.5688 -0.287728 0)
(17.0603 -0.236815 0)
(15.6178 -0.176189 0)