/*--------------------------------*- C++ -*----------------------------------*\
| =========                 |                                                 |
| \\      /  F ield         | OpenFOAM: The Open Source CFD Toolbox           |
|  \\    /   O peration     | Version:  v2012                                 |
|   \\  /    A nd           | Website:  www.openfoam.com                      |
|    \\/     M anipulation  |                                                 |
\*---------------------------------------------------------------------------*/
FoamFile
{
    version     2.0;
    format      ascii;
    class       volVectorField;
    location    "0.221";
    object      U.air;
}
// * * * * * * * * * * * * * * * * * * * * * * * * * * * * * * * * * * * * * //

dimensions      [0 1 -1 0 0 0 0];


internalField   nonuniform List<vector> 
5600
(
(9.2061 0.00896065 0)
(8.83529 0.0172602 0)
(8.45583 0.0174704 0)
(8.0795 0.0144992 0)
(7.73044 0.00998845 0)
(7.42111 0.00526451 0)
(7.15427 0.000865289 0)
(6.93581 -0.00268482 0)
(6.75383 -0.00523709 0)
(6.60473 -0.00717451 0)
(6.48975 -0.00846553 0)
(6.39479 -0.00923189 0)
(6.32709 -0.00951987 0)
(6.26734 -0.00946318 0)
(6.22613 -0.00919921 0)
(6.18927 -0.0087889 0)
(6.16004 -0.00833612 0)
(6.13704 -0.00788386 0)
(6.11394 -0.00747927 0)
(6.09817 -0.00722354 0)
(6.08062 -0.00698992 0)
(6.06886 -0.00681474 0)
(6.05639 -0.00671463 0)
(6.04797 -0.00661512 0)
(6.04006 -0.00651392 0)
(6.03365 -0.00639261 0)
(6.02904 -0.00625562 0)
(6.02412 -0.00614224 0)
(6.02082 -0.00601652 0)
(6.01737 -0.00588914 0)
(6.01407 -0.00574547 0)
(6.01108 -0.00561587 0)
(6.00748 -0.00552498 0)
(6.00459 -0.00544585 0)
(6.00107 -0.00538844 0)
(5.9981 -0.00532663 0)
(5.99483 -0.00528404 0)
(5.99178 -0.00523064 0)
(5.98893 -0.00518635 0)
(5.98578 -0.00514767 0)
(5.98343 -0.00510216 0)
(5.98041 -0.00506354 0)
(5.97847 -0.00501825 0)
(5.97566 -0.00499111 0)
(5.97423 -0.00495852 0)
(5.97179 -0.00493977 0)
(5.97065 -0.00493239 0)
(5.96879 -0.00493217 0)
(5.96775 -0.0049238 0)
(5.96622 -0.00491511 0)
(5.96531 -0.00493132 0)
(5.9641 -0.00493502 0)
(5.96341 -0.00493342 0)
(5.96233 -0.00494321 0)
(5.96196 -0.00494823 0)
(5.96102 -0.00499474 0)
(5.96096 -0.00501128 0)
(5.9603 -0.005047 0)
(5.96034 -0.00507391 0)
(5.96008 -0.00511493 0)
(5.96024 -0.00514417 0)
(5.96029 -0.00515501 0)
(5.96055 -0.00519664 0)
(5.96088 -0.00521918 0)
(5.96143 -0.00524452 0)
(5.96186 -0.00529153 0)
(5.9629 -0.00529225 0)
(5.96328 -0.00533737 0)
(5.96471 -0.00534641 0)
(5.96521 -0.00536479 0)
(5.96679 -0.00537966 0)
(5.96753 -0.00538456 0)
(5.96911 -0.0053999 0)
(5.97009 -0.0054134 0)
(5.97185 -0.00542971 0)
(5.97295 -0.00546091 0)
(5.97515 -0.00546362 0)
(5.97619 -0.00548247 0)
(5.97871 -0.00548816 0)
(5.97978 -0.00549414 0)
(5.9824 -0.00550004 0)
(5.98358 -0.00550161 0)
(5.98624 -0.00551371 0)
(5.98758 -0.00551579 0)
(5.99034 -0.00553202 0)
(5.99186 -0.00552993 0)
(5.99463 -0.00555729 0)
(5.99651 -0.00552875 0)
(5.99888 -0.00559921 0)
(6.00181 -0.00553614 0)
(6.00322 -0.0056412 0)
(6.00781 -0.00552312 0)
(6.0073 -0.00564312 0)
(6.01381 -0.00544468 0)
(6.01059 -0.00575952 0)
(6.02163 -0.00540384 0)
(6.01333 -0.00588344 0)
(6.03208 -0.00658755 0)
(6.03769 -0.00350513 0)
(5.9689 -0.0149785 0)
(9.39289 0.0365618 0)
(9.38792 0.0382042 0)
(9.35652 0.0375477 0)
(9.29945 0.0376094 0)
(9.22386 0.0369055 0)
(9.13563 0.0350899 0)
(9.03686 0.0326139 0)
(8.93096 0.0296489 0)
(8.82369 0.0268552 0)
(8.71467 0.0238448 0)
(8.61313 0.0210466 0)
(8.51083 0.0184001 0)
(8.42083 0.0161145 0)
(8.33217 0.0141796 0)
(8.25443 0.0123832 0)
(8.18347 0.0110981 0)
(8.11687 0.00986108 0)
(8.06256 0.00896521 0)
(8.00765 0.00814966 0)
(7.96575 0.00736437 0)
(7.92364 0.00674023 0)
(7.8915 0.00615053 0)
(7.86012 0.005685 0)
(7.83334 0.00525365 0)
(7.80956 0.00489196 0)
(7.78692 0.00451561 0)
(7.76823 0.00421007 0)
(7.74945 0.0039464 0)
(7.73271 0.00371764 0)
(7.717 0.00351509 0)
(7.70178 0.00335183 0)
(7.68877 0.00320608 0)
(7.67538 0.00309356 0)
(7.66425 0.00301402 0)
(7.65306 0.00292982 0)
(7.64332 0.0028675 0)
(7.63398 0.00279085 0)
(7.62514 0.0027235 0)
(7.61754 0.00265637 0)
(7.60964 0.00257941 0)
(7.60325 0.00250829 0)
(7.59648 0.00242816 0)
(7.59106 0.00235629 0)
(7.58526 0.00225862 0)
(7.58067 0.00217207 0)
(7.57574 0.0021076 0)
(7.57171 0.00205881 0)
(7.56746 0.00201201 0)
(7.56393 0.00197468 0)
(7.56023 0.00194995 0)
(7.55717 0.00192362 0)
(7.55397 0.00190437 0)
(7.55144 0.00188453 0)
(7.54866 0.00185615 0)
(7.54665 0.00185164 0)
(7.54434 0.00185545 0)
(7.54279 0.00185997 0)
(7.54098 0.00186587 0)
(7.53972 0.00187405 0)
(7.5384 0.00188651 0)
(7.53747 0.00189106 0)
(7.53664 0.00189925 0)
(7.53604 0.00189506 0)
(7.53545 0.00190728 0)
(7.53526 0.00190915 0)
(7.53493 0.00191009 0)
(7.53511 0.00192278 0)
(7.53512 0.00191765 0)
(7.53566 0.00192313 0)
(7.53608 0.00191975 0)
(7.53685 0.00191461 0)
(7.53753 0.00191541 0)
(7.53845 0.0019065 0)
(7.53927 0.00190477 0)
(7.54045 0.00190067 0)
(7.54146 0.00189367 0)
(7.54308 0.00189529 0)
(7.54428 0.00189022 0)
(7.54618 0.00188384 0)
(7.54757 0.00188429 0)
(7.54968 0.00187506 0)
(7.55111 0.00187648 0)
(7.55342 0.00186392 0)
(7.55481 0.00186602 0)
(7.55743 0.00185281 0)
(7.55873 0.00185758 0)
(7.56188 0.00184143 0)
(7.56301 0.00185818 0)
(7.56696 0.00181972 0)
(7.5676 0.0018534 0)
(7.57255 0.00179975 0)
(7.57223 0.00184536 0)
(7.57846 0.00180652 0)
(7.57643 0.00186116 0)
(7.58563 0.00175355 0)
(7.57961 0.00185249 0)
(7.59648 0.00163045 0)
(7.58122 0.00121892 0)
(7.61819 0.00379867 0)
(7.57049 -0.0139086 0)
(9.40087 0.0229798 0)
(9.42969 0.0304948 0)
(9.46083 0.0319422 0)
(9.47739 0.0330066 0)
(9.48907 0.0320384 0)
(9.48984 0.0301245 0)
(9.48377 0.0272242 0)
(9.46902 0.0240995 0)
(9.44572 0.0214102 0)
(9.41435 0.0186312 0)
(9.37576 0.0161876 0)
(9.33021 0.0138947 0)
(9.27903 0.0119111 0)
(9.22332 0.0104001 0)
(9.16415 0.00870784 0)
(9.10419 0.0076361 0)
(9.04173 0.00628342 0)
(8.98384 0.0052751 0)
(8.92378 0.00427913 0)
(8.87104 0.00324684 0)
(8.81776 0.00243923 0)
(8.7714 0.00155069 0)
(8.72736 0.00094347 0)
(8.68695 0.000293588 0)
(8.65188 -0.000137137 0)
(8.61741 -0.000539424 0)
(8.58835 -0.000838423 0)
(8.55982 -0.000992655 0)
(8.53413 -0.00115457 0)
(8.51098 -0.00125951 0)
(8.4884 -0.00137485 0)
(8.46951 -0.00146705 0)
(8.45038 -0.00155288 0)
(8.43431 -0.00163833 0)
(8.4184 -0.00171553 0)
(8.40436 -0.00177687 0)
(8.39128 -0.00182862 0)
(8.37861 -0.00189079 0)
(8.36793 -0.00192831 0)
(8.35687 -0.00197369 0)
(8.34783 -0.0020083 0)
(8.33842 -0.00203688 0)
(8.33076 -0.00204787 0)
(8.32275 -0.00206015 0)
(8.316 -0.00205683 0)
(8.30898 -0.00208105 0)
(8.30297 -0.00210708 0)
(8.29683 -0.0021386 0)
(8.29154 -0.00216109 0)
(8.28618 -0.00217326 0)
(8.28163 -0.00218959 0)
(8.27694 -0.00220138 0)
(8.27315 -0.00220747 0)
(8.26909 -0.00221986 0)
(8.26601 -0.00224797 0)
(8.26264 -0.00231079 0)
(8.26011 -0.00234701 0)
(8.25741 -0.00239818 0)
(8.25528 -0.00244784 0)
(8.25323 -0.00250261 0)
(8.25145 -0.002558 0)
(8.25001 -0.00258593 0)
(8.24876 -0.0026373 0)
(8.24748 -0.00267841 0)
(8.24677 -0.00271685 0)
(8.24571 -0.00277568 0)
(8.24544 -0.00279986 0)
(8.24496 -0.00286113 0)
(8.24505 -0.00289151 0)
(8.24514 -0.00292384 0)
(8.24547 -0.00294786 0)
(8.24587 -0.00296285 0)
(8.24641 -0.00297839 0)
(8.24692 -0.00300235 0)
(8.24773 -0.00302656 0)
(8.24847 -0.00307397 0)
(8.24971 -0.00309142 0)
(8.25075 -0.00311947 0)
(8.25228 -0.00313765 0)
(8.25359 -0.00315541 0)
(8.25537 -0.00315986 0)
(8.25673 -0.0031737 0)
(8.25872 -0.00317621 0)
(8.26004 -0.0031949 0)
(8.2623 -0.00319959 0)
(8.26358 -0.00323325 0)
(8.26632 -0.00323756 0)
(8.26757 -0.0032807 0)
(8.27113 -0.00328184 0)
(8.27203 -0.00331715 0)
(8.27657 -0.00330598 0)
(8.27667 -0.0033267 0)
(8.28219 -0.00328691 0)
(8.28124 -0.00335356 0)
(8.2886 -0.00330845 0)
(8.28549 -0.00352265 0)
(8.29722 -0.00339711 0)
(8.28947 -0.00455057 0)
(8.31427 -0.00257863 0)
(8.30219 -0.0163627 0)
(9.39963 0.0218105 0)
(9.43077 0.0296012 0)
(9.46814 0.0302952 0)
(9.49914 0.0313276 0)
(9.52917 0.0312261 0)
(9.5558 0.03004 0)
(9.57958 0.0285178 0)
(9.59992 0.0269077 0)
(9.61442 0.0255884 0)
(9.62629 0.0240991 0)
(9.63296 0.0227435 0)
(9.63475 0.0216993 0)
(9.63259 0.0205459 0)
(9.6265 0.0196804 0)
(9.61592 0.0186352 0)
(9.60082 0.0179201 0)
(9.58142 0.0169605 0)
(9.55744 0.0160687 0)
(9.52929 0.0151867 0)
(9.49702 0.0140763 0)
(9.46136 0.0131055 0)
(9.42244 0.0119618 0)
(9.38228 0.0110994 0)
(9.34043 0.0100704 0)
(9.30047 0.00922977 0)
(9.25966 0.00842864 0)
(9.22233 0.00764293 0)
(9.18642 0.00710034 0)
(9.15269 0.00646577 0)
(9.12309 0.00600487 0)
(9.09348 0.00555018 0)
(9.06856 0.00514966 0)
(9.04341 0.00481867 0)
(9.02128 0.00448671 0)
(8.99963 0.00422142 0)
(8.97964 0.00394317 0)
(8.96161 0.00373924 0)
(8.94357 0.0034997 0)
(8.92835 0.00329342 0)
(8.91275 0.00310092 0)
(8.89977 0.00290702 0)
(8.88648 0.00273097 0)
(8.87536 0.00256519 0)
(8.86391 0.00241936 0)
(8.85425 0.00229261 0)
(8.84439 0.00215258 0)
(8.83594 0.00201471 0)
(8.82743 0.00187563 0)
(8.82004 0.00174836 0)
(8.81264 0.00162977 0)
(8.80634 0.00148658 0)
(8.79987 0.00135567 0)
(8.79457 0.00123552 0)
(8.78899 0.00108666 0)
(8.7846 0.000956139 0)
(8.77996 0.000820854 0)
(8.77626 0.000718927 0)
(8.77244 0.000619797 0)
(8.7692 0.000545392 0)
(8.76622 0.000472599 0)
(8.7634 0.000371976 0)
(8.76107 0.000314131 0)
(8.75896 0.000253558 0)
(8.75678 0.000206028 0)
(8.75531 0.000157748 0)
(8.75342 8.2826e-05 0)
(8.75243 3.16215e-05 0)
(8.75119 -5.12065e-05 0)
(8.7507 -0.00011084 0)
(8.75021 -0.000163582 0)
(8.75002 -0.000209601 0)
(8.74989 -0.000241406 0)
(8.7499 -0.000273948 0)
(8.7499 -0.000312731 0)
(8.75019 -0.000361497 0)
(8.75048 -0.00042954 0)
(8.75113 -0.000469969 0)
(8.7518 -0.000518072 0)
(8.75275 -0.000565228 0)
(8.75376 -0.000595952 0)
(8.75499 -0.000618854 0)
(8.75615 -0.000641921 0)
(8.75756 -0.000660886 0)
(8.75877 -0.000686137 0)
(8.76033 -0.000710622 0)
(8.76169 -0.000761136 0)
(8.7635 -0.000789635 0)
(8.76519 -0.000859807 0)
(8.76746 -0.000883937 0)
(8.76943 -0.000941084 0)
(8.772 -0.000942145 0)
(8.77415 -0.000975966 0)
(8.77678 -0.000930963 0)
(8.77919 -0.00102969 0)
(8.78179 -0.000978881 0)
(8.78462 -0.00130073 0)
(8.78766 -0.00113953 0)
(8.79133 -0.00289127 0)
(8.79859 -0.000237663 0)
(8.80941 -0.0176863 0)
(9.3978 0.01834 0)
(9.42806 0.0258144 0)
(9.46514 0.0260868 0)
(9.49869 0.0271578 0)
(9.53103 0.027181 0)
(9.56252 0.0262976 0)
(9.5924 0.0248843 0)
(9.62127 0.0232475 0)
(9.64532 0.0218298 0)
(9.6696 0.0202158 0)
(9.68935 0.0189556 0)
(9.70902 0.0176708 0)
(9.72499 0.0166083 0)
(9.73957 0.0158494 0)
(9.75354 0.0150661 0)
(9.7628 0.0147096 0)
(9.7738 0.0141273 0)
(9.77902 0.0138318 0)
(9.78526 0.0134495 0)
(9.78638 0.0130286 0)
(9.78587 0.0128064 0)
(9.78217 0.0122993 0)
(9.77539 0.011939 0)
(9.76525 0.0113571 0)
(9.75152 0.0108224 0)
(9.73468 0.0102718 0)
(9.71461 0.0095461 0)
(9.6925 0.00901978 0)
(9.66817 0.00828561 0)
(9.64301 0.00764117 0)
(9.61655 0.00700228 0)
(9.59034 0.00635855 0)
(9.56376 0.00582099 0)
(9.53833 0.00525755 0)
(9.51373 0.00482923 0)
(9.4893 0.0043034 0)
(9.46755 0.00392438 0)
(9.44517 0.00348617 0)
(9.42579 0.0030916 0)
(9.40583 0.00271687 0)
(9.38882 0.00235145 0)
(9.3713 0.00204532 0)
(9.35583 0.00176305 0)
(9.33999 0.00149201 0)
(9.32619 0.00123794 0)
(9.31234 0.00102021 0)
(9.30021 0.000829243 0)
(9.28821 0.000647375 0)
(9.2775 0.000477868 0)
(9.26704 0.000320649 0)
(9.25801 0.000155962 0)
(9.24876 -1.98201e-06 0)
(9.24102 -0.000149969 0)
(9.23304 -0.000331508 0)
(9.22648 -0.000460043 0)
(9.21975 -0.000563395 0)
(9.21394 -0.000641176 0)
(9.20821 -0.000707765 0)
(9.20286 -0.000753176 0)
(9.1982 -0.000784522 0)
(9.19354 -0.000828663 0)
(9.18947 -0.000881318 0)
(9.18582 -0.000942184 0)
(9.182 -0.00101534 0)
(9.17908 -0.0010695 0)
(9.17574 -0.00115107 0)
(9.17335 -0.00121213 0)
(9.17086 -0.00131019 0)
(9.16909 -0.00140135 0)
(9.16768 -0.00145608 0)
(9.16634 -0.00150345 0)
(9.16529 -0.00153311 0)
(9.16423 -0.001554 0)
(9.1632 -0.0015977 0)
(9.16251 -0.00164432 0)
(9.16183 -0.00172047 0)
(9.16158 -0.00177171 0)
(9.16157 -0.00181856 0)
(9.16168 -0.00186765 0)
(9.16208 -0.00190864 0)
(9.16253 -0.00193039 0)
(9.16324 -0.001958 0)
(9.16386 -0.00196768 0)
(9.16476 -0.001991 0)
(9.16548 -0.00201756 0)
(9.16668 -0.00206114 0)
(9.16752 -0.00210652 0)
(9.16929 -0.00218159 0)
(9.17034 -0.00222066 0)
(9.17281 -0.0022722 0)
(9.17388 -0.00228605 0)
(9.17695 -0.0023101 0)
(9.17784 -0.0022971 0)
(9.18145 -0.00236038 0)
(9.18216 -0.00235291 0)
(9.18609 -0.00260206 0)
(9.18746 -0.00259534 0)
(9.1918 -0.00401663 0)
(9.19606 -0.00354365 0)
(9.20584 -0.0174046 0)
(9.39594 0.0145924 0)
(9.42519 0.0219245 0)
(9.46152 0.0220202 0)
(9.49583 0.0229518 0)
(9.52809 0.0229982 0)
(9.56023 0.0222763 0)
(9.59115 0.0210338 0)
(9.6211 0.0197072 0)
(9.64748 0.0185865 0)
(9.67383 0.0173753 0)
(9.69716 0.016407 0)
(9.72012 0.0155607 0)
(9.74127 0.0148792 0)
(9.76095 0.0143386 0)
(9.78089 0.013888 0)
(9.79827 0.013647 0)
(9.81657 0.0133008 0)
(9.83244 0.0130748 0)
(9.84913 0.0128764 0)
(9.86361 0.0126519 0)
(9.87814 0.012394 0)
(9.89145 0.0120853 0)
(9.90279 0.0119002 0)
(9.91487 0.011621 0)
(9.92319 0.0114612 0)
(9.93204 0.0112711 0)
(9.93786 0.0110228 0)
(9.94216 0.0108855 0)
(9.94514 0.0105615 0)
(9.94479 0.0104042 0)
(9.94304 0.0101315 0)
(9.93869 0.0097946 0)
(9.93254 0.00949937 0)
(9.92418 0.00907677 0)
(9.9143 0.0087543 0)
(9.90256 0.0082746 0)
(9.8897 0.00786312 0)
(9.87545 0.00742479 0)
(9.86063 0.00695461 0)
(9.84476 0.00652365 0)
(9.82899 0.00603664 0)
(9.81244 0.00562325 0)
(9.79672 0.00524472 0)
(9.78052 0.00489241 0)
(9.76523 0.00453623 0)
(9.74994 0.00420759 0)
(9.73561 0.00388661 0)
(9.72158 0.00359388 0)
(9.70834 0.00331635 0)
(9.69544 0.00302746 0)
(9.68407 0.00278255 0)
(9.67231 0.00255985 0)
(9.66206 0.00234945 0)
(9.6515 0.00215453 0)
(9.64212 0.00196872 0)
(9.63273 0.00178448 0)
(9.62392 0.00160681 0)
(9.61561 0.00146398 0)
(9.60723 0.00126448 0)
(9.60005 0.00109568 0)
(9.59288 0.000943595 0)
(9.58625 0.000767793 0)
(9.58033 0.000611223 0)
(9.57417 0.000430105 0)
(9.56912 0.000275145 0)
(9.56376 9.02852e-05 0)
(9.55923 -9.45901e-05 0)
(9.55501 -0.000281269 0)
(9.55124 -0.000481479 0)
(9.5483 -0.00060591 0)
(9.54524 -0.000700344 0)
(9.54259 -0.000769883 0)
(9.53981 -0.000813233 0)
(9.53723 -0.00089231 0)
(9.53473 -0.000990586 0)
(9.53265 -0.00111159 0)
(9.5307 -0.00123379 0)
(9.52947 -0.00133175 0)
(9.52807 -0.00143313 0)
(9.52743 -0.00150218 0)
(9.52648 -0.00156226 0)
(9.52623 -0.00160634 0)
(9.52561 -0.00164815 0)
(9.52565 -0.00168226 0)
(9.52536 -0.0017378 0)
(9.5257 -0.00181762 0)
(9.52557 -0.00188752 0)
(9.52652 -0.00200968 0)
(9.52669 -0.00208572 0)
(9.52833 -0.00217236 0)
(9.52876 -0.00222378 0)
(9.53091 -0.00225553 0)
(9.5315 -0.00226629 0)
(9.53391 -0.00233274 0)
(9.53475 -0.0023528 0)
(9.53715 -0.00263971 0)
(9.53896 -0.00274 0)
(9.54188 -0.00427617 0)
(9.54599 -0.00429749 0)
(9.55226 -0.0165423 0)
(9.395 0.0113296 0)
(9.42267 0.0175751 0)
(9.45814 0.0175056 0)
(9.49297 0.0182549 0)
(9.52498 0.0183447 0)
(9.557 0.0177615 0)
(9.5882 0.016731 0)
(9.6179 0.0156769 0)
(9.64506 0.0147797 0)
(9.6714 0.0137956 0)
(9.69565 0.0130165 0)
(9.71899 0.0123029 0)
(9.74118 0.0117289 0)
(9.76207 0.0112184 0)
(9.78284 0.0108014 0)
(9.80234 0.0105879 0)
(9.82199 0.0102702 0)
(9.8406 0.0100801 0)
(9.85934 0.00990159 0)
(9.87737 0.00972796 0)
(9.89498 0.00954818 0)
(9.91263 0.0093819 0)
(9.92911 0.0092596 0)
(9.94594 0.00909479 0)
(9.96169 0.00902496 0)
(9.97747 0.00891383 0)
(9.99278 0.00879575 0)
(10.007 0.00872416 0)
(10.0218 0.00861355 0)
(10.0346 0.00855642 0)
(10.0481 0.00845901 0)
(10.0595 0.00835203 0)
(10.0712 0.00827694 0)
(10.081 0.00815027 0)
(10.0901 0.00806795 0)
(10.0987 0.0079129 0)
(10.1044 0.00780405 0)
(10.1108 0.0076251 0)
(10.1138 0.00746281 0)
(10.1173 0.00722315 0)
(10.1175 0.00705208 0)
(10.1172 0.00683855 0)
(10.1154 0.00659134 0)
(10.1127 0.00634241 0)
(10.1085 0.00605394 0)
(10.1035 0.00575686 0)
(10.0973 0.00544769 0)
(10.0904 0.00514863 0)
(10.0827 0.00484706 0)
(10.0743 0.00447967 0)
(10.0657 0.00414135 0)
(10.0567 0.00384096 0)
(10.0475 0.00351279 0)
(10.0381 0.00318267 0)
(10.0289 0.00283299 0)
(10.0199 0.00258098 0)
(10.0107 0.00231171 0)
(10.0021 0.00211229 0)
(9.99312 0.0018448 0)
(9.98506 0.00157641 0)
(9.97704 0.00136246 0)
(9.96923 0.00110455 0)
(9.96218 0.0009593 0)
(9.95477 0.00079684 0)
(9.94838 0.000634692 0)
(9.94185 0.000474992 0)
(9.9357 0.000251442 0)
(9.93026 6.813e-05 0)
(9.92464 -0.000147371 0)
(9.91988 -0.000286476 0)
(9.91491 -0.000364224 0)
(9.91033 -0.00042352 0)
(9.90557 -0.000450596 0)
(9.90119 -0.000537508 0)
(9.89667 -0.000660359 0)
(9.89293 -0.000812838 0)
(9.88899 -0.000972695 0)
(9.88605 -0.00109704 0)
(9.88279 -0.00123104 0)
(9.88048 -0.00133783 0)
(9.87775 -0.00142112 0)
(9.87588 -0.00149724 0)
(9.87364 -0.00155528 0)
(9.87227 -0.00162026 0)
(9.8705 -0.00170928 0)
(9.86962 -0.00177137 0)
(9.8682 -0.00191748 0)
(9.86778 -0.00203201 0)
(9.86699 -0.00218662 0)
(9.86702 -0.00226146 0)
(9.86688 -0.00235585 0)
(9.8672 -0.00240559 0)
(9.86741 -0.00243851 0)
(9.86794 -0.00251075 0)
(9.8685 -0.00256258 0)
(9.86934 -0.00286461 0)
(9.87053 -0.00307497 0)
(9.87226 -0.00462632 0)
(9.87514 -0.0052903 0)
(9.87861 -0.016152 0)
(9.39444 0.0079914 0)
(9.42062 0.0126767 0)
(9.45546 0.0125412 0)
(9.49057 0.0130895 0)
(9.52242 0.0131943 0)
(9.55423 0.0127698 0)
(9.5856 0.012017 0)
(9.61503 0.0112473 0)
(9.6425 0.0105802 0)
(9.66862 0.00983723 0)
(9.6931 0.00925704 0)
(9.71643 0.00870923 0)
(9.73873 0.00829494 0)
(9.75995 0.00792095 0)
(9.78071 0.00763025 0)
(9.80068 0.00751097 0)
(9.82053 0.00730808 0)
(9.83968 0.00719706 0)
(9.85875 0.00708679 0)
(9.87751 0.00700166 0)
(9.89576 0.00688008 0)
(9.91402 0.00677086 0)
(9.93173 0.00668624 0)
(9.94941 0.00655941 0)
(9.96671 0.0065174 0)
(9.98386 0.00642345 0)
(10.001 0.0063589 0)
(10.0176 0.0063045 0)
(10.0343 0.00621553 0)
(10.0506 0.00620785 0)
(10.067 0.00616799 0)
(10.0829 0.006109 0)
(10.0988 0.00607184 0)
(10.1144 0.00603438 0)
(10.1294 0.00598212 0)
(10.1448 0.00593779 0)
(10.159 0.0059051 0)
(10.1738 0.00585314 0)
(10.1871 0.00578617 0)
(10.2012 0.00575045 0)
(10.2134 0.00570468 0)
(10.2265 0.00562635 0)
(10.2374 0.00554715 0)
(10.2491 0.00546946 0)
(10.2589 0.00539337 0)
(10.269 0.00530591 0)
(10.2772 0.005225 0)
(10.2856 0.00513553 0)
(10.2921 0.005043 0)
(10.2989 0.00489657 0)
(10.3032 0.00476788 0)
(10.3079 0.00463267 0)
(10.3105 0.00449949 0)
(10.3134 0.00432141 0)
(10.3142 0.0041633 0)
(10.3148 0.00396284 0)
(10.3145 0.00382268 0)
(10.3136 0.00367705 0)
(10.3121 0.00346457 0)
(10.3099 0.0031907 0)
(10.3072 0.00299981 0)
(10.3039 0.0027491 0)
(10.3002 0.00256789 0)
(10.2962 0.00236799 0)
(10.292 0.00212 0)
(10.2877 0.00191758 0)
(10.2831 0.00163091 0)
(10.2788 0.001341 0)
(10.2739 0.00100604 0)
(10.2694 0.000764981 0)
(10.2645 0.000624352 0)
(10.2599 0.000519267 0)
(10.2552 0.000451607 0)
(10.2509 0.000327799 0)
(10.2465 0.000133089 0)
(10.2427 -7.51788e-05 0)
(10.2385 -0.000366658 0)
(10.2351 -0.000551212 0)
(10.2313 -0.000728899 0)
(10.2281 -0.000869403 0)
(10.2246 -0.000987163 0)
(10.2217 -0.00110419 0)
(10.2185 -0.00120805 0)
(10.2161 -0.00131491 0)
(10.2135 -0.00143685 0)
(10.2116 -0.00153819 0)
(10.2094 -0.00169697 0)
(10.2077 -0.00187987 0)
(10.206 -0.00203863 0)
(10.2046 -0.00217992 0)
(10.2032 -0.00229392 0)
(10.202 -0.00235918 0)
(10.2008 -0.00240656 0)
(10.1997 -0.00250413 0)
(10.1988 -0.00258184 0)
(10.198 -0.00293855 0)
(10.1977 -0.00322671 0)
(10.1976 -0.00474814 0)
(10.1986 -0.00598629 0)
(10.1987 -0.0154513 0)
(9.39406 0.00454871 0)
(9.41913 0.00727842 0)
(9.45366 0.00712328 0)
(9.48882 0.00745126 0)
(9.52058 0.00751934 0)
(9.55226 0.00725469 0)
(9.58369 0.00680075 0)
(9.613 0.00632462 0)
(9.64059 0.00590893 0)
(9.6666 0.00544418 0)
(9.69115 0.00509713 0)
(9.71448 0.00475849 0)
(9.73672 0.0045176 0)
(9.75809 0.00429088 0)
(9.7787 0.00410671 0)
(9.79888 0.00404562 0)
(9.81861 0.00391535 0)
(9.83794 0.00384133 0)
(9.857 0.00376116 0)
(9.87585 0.00371554 0)
(9.89427 0.00363462 0)
(9.91252 0.00355178 0)
(9.93052 0.00349806 0)
(9.94826 0.0034123 0)
(9.96584 0.00339573 0)
(9.98327 0.00333413 0)
(10.0006 0.00329962 0)
(10.0177 0.00326807 0)
(10.0347 0.00321365 0)
(10.0516 0.00322197 0)
(10.0685 0.00320537 0)
(10.0851 0.00317301 0)
(10.1017 0.00314568 0)
(10.1183 0.00314048 0)
(10.1345 0.00310657 0)
(10.1509 0.00308467 0)
(10.1669 0.00307563 0)
(10.1831 0.00304996 0)
(10.1988 0.00301633 0)
(10.2147 0.0029879 0)
(10.2301 0.00298391 0)
(10.2458 0.00294191 0)
(10.2608 0.00291484 0)
(10.2761 0.00287908 0)
(10.2908 0.00286051 0)
(10.3056 0.00283802 0)
(10.3199 0.00282048 0)
(10.3343 0.00280086 0)
(10.3481 0.0027699 0)
(10.3621 0.00274024 0)
(10.3751 0.00271329 0)
(10.3886 0.00269914 0)
(10.4009 0.00265552 0)
(10.4138 0.0026161 0)
(10.4252 0.00258685 0)
(10.4368 0.00255886 0)
(10.4476 0.0025067 0)
(10.4578 0.00246347 0)
(10.4684 0.00239929 0)
(10.4773 0.0023188 0)
(10.4861 0.0022666 0)
(10.4944 0.00219752 0)
(10.5011 0.00215264 0)
(10.5086 0.00207353 0)
(10.5141 0.00195747 0)
(10.5204 0.00184337 0)
(10.5249 0.00169272 0)
(10.5297 0.00153136 0)
(10.5329 0.00138801 0)
(10.5356 0.00128297 0)
(10.5372 0.00123134 0)
(10.5387 0.00114973 0)
(10.5397 0.00108582 0)
(10.541 0.00094589 0)
(10.5417 0.000777967 0)
(10.5426 0.000556072 0)
(10.5425 0.000393175 0)
(10.5423 0.000209506 0)
(10.5415 2.14804e-05 0)
(10.5405 -0.000123312 0)
(10.539 -0.000234563 0)
(10.5373 -0.000370805 0)
(10.5353 -0.000513654 0)
(10.5335 -0.000677017 0)
(10.5317 -0.000857378 0)
(10.53 -0.00100624 0)
(10.5282 -0.00117593 0)
(10.5265 -0.00139245 0)
(10.5245 -0.00158553 0)
(10.5223 -0.00174828 0)
(10.5197 -0.00186517 0)
(10.517 -0.00194649 0)
(10.5142 -0.00201092 0)
(10.5113 -0.00212953 0)
(10.5086 -0.00226381 0)
(10.5058 -0.00261639 0)
(10.5034 -0.0030388 0)
(10.5007 -0.0045916 0)
(10.4989 -0.00623825 0)
(10.4957 -0.0142197 0)
(9.39387 0.000962884 0)
(9.41839 0.00131145 0)
(9.45276 0.00114235 0)
(9.48797 0.0012469 0)
(9.51966 0.00123198 0)
(9.55131 0.00114452 0)
(9.58271 0.00102373 0)
(9.61203 0.000872278 0)
(9.63962 0.000743351 0)
(9.6656 0.000584916 0)
(9.69019 0.000493392 0)
(9.71352 0.0003819 0)
(9.73574 0.000320805 0)
(9.75715 0.000249643 0)
(9.77773 0.000180568 0)
(9.79794 0.000194734 0)
(9.81764 0.000155455 0)
(9.83702 0.000144661 0)
(9.85606 0.000121425 0)
(9.87488 0.000136669 0)
(9.89338 0.000123897 0)
(9.91157 9.08054e-05 0)
(9.92963 8.41327e-05 0)
(9.94736 5.03318e-05 0)
(9.96498 5.89428e-05 0)
(9.98244 3.05013e-05 0)
(9.99975 2.36313e-05 0)
(10.0169 9.69194e-06 0)
(10.034 -2.09542e-05 0)
(10.051 -5.08474e-06 0)
(10.0679 -3.91671e-06 0)
(10.0847 -1.62761e-05 0)
(10.1013 -3.14784e-05 0)
(10.118 -2.08044e-05 0)
(10.1345 -3.16895e-05 0)
(10.151 -3.50089e-05 0)
(10.1673 -3.10236e-05 0)
(10.1836 -3.04862e-05 0)
(10.1997 -5.11128e-05 0)
(10.2158 -5.04294e-05 0)
(10.2318 -3.49999e-05 0)
(10.2477 -5.04465e-05 0)
(10.2635 -5.15827e-05 0)
(10.2792 -6.74065e-05 0)
(10.2947 -6.16243e-05 0)
(10.3103 -6.7574e-05 0)
(10.3256 -6.81588e-05 0)
(10.341 -7.06493e-05 0)
(10.3562 -8.83827e-05 0)
(10.3714 -8.86859e-05 0)
(10.3863 -9.61621e-05 0)
(10.4013 -9.55437e-05 0)
(10.416 -0.000123172 0)
(10.4308 -0.00015042 0)
(10.4452 -0.000120546 0)
(10.4597 -0.000135598 0)
(10.4739 -0.000128013 0)
(10.488 -0.00015468 0)
(10.5021 -0.000162958 0)
(10.5157 -0.000143936 0)
(10.5294 -0.000156615 0)
(10.5428 -0.00013251 0)
(10.5557 -0.000122117 0)
(10.569 -0.000129013 0)
(10.5815 -0.00015627 0)
(10.5942 -0.000192123 0)
(10.6063 -0.000242845 0)
(10.6182 -0.000277195 0)
(10.6298 -0.000259991 0)
(10.6403 -0.000201769 0)
(10.6509 -0.000150563 0)
(10.6608 -0.000132592 0)
(10.6703 -0.000158225 0)
(10.6801 -0.000241755 0)
(10.6888 -0.000347068 0)
(10.6978 -0.000399724 0)
(10.7056 -0.000447743 0)
(10.7129 -0.000515708 0)
(10.7195 -0.000552388 0)
(10.7249 -0.000560484 0)
(10.7303 -0.000574458 0)
(10.7346 -0.000601832 0)
(10.7384 -0.000664849 0)
(10.7416 -0.000768642 0)
(10.744 -0.000881892 0)
(10.7459 -0.00101053 0)
(10.7478 -0.00115643 0)
(10.7484 -0.00124393 0)
(10.7483 -0.00128302 0)
(10.7473 -0.00132031 0)
(10.7455 -0.00133349 0)
(10.7429 -0.0013384 0)
(10.7397 -0.0013587 0)
(10.7361 -0.00145016 0)
(10.7322 -0.00157424 0)
(10.7279 -0.00188497 0)
(10.7233 -0.00232498 0)
(10.7181 -0.00369354 0)
(10.7126 -0.00558654 0)
(10.7053 -0.0125348 0)
(9.39391 -0.0027457 0)
(9.41859 -0.00496814 0)
(9.45306 -0.00514022 0)
(9.48829 -0.00525955 0)
(9.51997 -0.00538149 0)
(9.55167 -0.00527427 0)
(9.58301 -0.00504374 0)
(9.61238 -0.00485752 0)
(9.63994 -0.00467931 0)
(9.66593 -0.00452212 0)
(9.69054 -0.00434211 0)
(9.71385 -0.00421829 0)
(9.7361 -0.00408747 0)
(9.75747 -0.00399678 0)
(9.7781 -0.00394133 0)
(9.79827 -0.00384034 0)
(9.81798 -0.00379246 0)
(9.83738 -0.00373442 0)
(9.8564 -0.00370352 0)
(9.87523 -0.00363315 0)
(9.89373 -0.00358561 0)
(9.91193 -0.00357499 0)
(9.92997 -0.00354258 0)
(9.94771 -0.00353528 0)
(9.96534 -0.00350091 0)
(9.9828 -0.00349644 0)
(10.0001 -0.00347281 0)
(10.0173 -0.00346714 0)
(10.0344 -0.00347165 0)
(10.0513 -0.00343562 0)
(10.0682 -0.00341385 0)
(10.085 -0.00340609 0)
(10.1017 -0.00340378 0)
(10.1184 -0.00337912 0)
(10.1348 -0.00336575 0)
(10.1513 -0.00335616 0)
(10.1676 -0.00333925 0)
(10.1839 -0.00331975 0)
(10.2 -0.00332835 0)
(10.2161 -0.00330694 0)
(10.2321 -0.00328356 0)
(10.2479 -0.00328067 0)
(10.2637 -0.0032692 0)
(10.2794 -0.00326869 0)
(10.2949 -0.00324854 0)
(10.3104 -0.00324308 0)
(10.3257 -0.00322421 0)
(10.341 -0.0032066 0)
(10.3561 -0.00320493 0)
(10.3711 -0.00318316 0)
(10.3861 -0.00317591 0)
(10.4008 -0.0031455 0)
(10.4156 -0.00314569 0)
(10.43 -0.00313863 0)
(10.4444 -0.00308986 0)
(10.4586 -0.00309049 0)
(10.4726 -0.00306019 0)
(10.4866 -0.00307106 0)
(10.5001 -0.00305296 0)
(10.5135 -0.00302221 0)
(10.5268 -0.00303336 0)
(10.5396 -0.00298897 0)
(10.5524 -0.00298247 0)
(10.5648 -0.00297466 0)
(10.5769 -0.00297773 0)
(10.5888 -0.00301006 0)
(10.6001 -0.00301625 0)
(10.611 -0.00302785 0)
(10.6215 -0.00294586 0)
(10.6313 -0.00284747 0)
(10.6411 -0.00275395 0)
(10.6501 -0.00265993 0)
(10.659 -0.00264566 0)
(10.6672 -0.0026487 0)
(10.6747 -0.00265677 0)
(10.6818 -0.00266077 0)
(10.6881 -0.00257712 0)
(10.6938 -0.00247779 0)
(10.6987 -0.00233057 0)
(10.703 -0.00219363 0)
(10.7068 -0.00207854 0)
(10.7099 -0.00194683 0)
(10.7124 -0.00185711 0)
(10.7144 -0.00178773 0)
(10.7157 -0.00174182 0)
(10.7167 -0.00171804 0)
(10.7167 -0.00168454 0)
(10.7164 -0.00157461 0)
(10.7154 -0.00142173 0)
(10.7139 -0.00122366 0)
(10.7117 -0.00100473 0)
(10.709 -0.000815905 0)
(10.7059 -0.000696769 0)
(10.7024 -0.000669557 0)
(10.6985 -0.000693595 0)
(10.6941 -0.000878507 0)
(10.6894 -0.00120533 0)
(10.6838 -0.00236839 0)
(10.6776 -0.00423236 0)
(10.6691 -0.0100114 0)
(9.39419 -0.00640418 0)
(9.41974 -0.0109689 0)
(9.45453 -0.0111187 0)
(9.48975 -0.0114599 0)
(9.52149 -0.0116773 0)
(9.55327 -0.0113786 0)
(9.58463 -0.0108174 0)
(9.61399 -0.0103194 0)
(9.64157 -0.00984702 0)
(9.66754 -0.00939311 0)
(9.69218 -0.00894835 0)
(9.71547 -0.00860014 0)
(9.73772 -0.00828022 0)
(9.75909 -0.00803655 0)
(9.77972 -0.00786417 0)
(9.79989 -0.00767806 0)
(9.81959 -0.00755606 0)
(9.839 -0.00742739 0)
(9.85803 -0.00734359 0)
(9.87682 -0.00721652 0)
(9.89535 -0.00710851 0)
(9.91352 -0.00705059 0)
(9.93155 -0.00697603 0)
(9.94927 -0.00693167 0)
(9.96687 -0.00687005 0)
(9.9843 -0.00683967 0)
(10.0015 -0.00679227 0)
(10.0187 -0.00677152 0)
(10.0356 -0.00675737 0)
(10.0526 -0.00670676 0)
(10.0693 -0.0066692 0)
(10.086 -0.00664311 0)
(10.1025 -0.00662486 0)
(10.119 -0.0065847 0)
(10.1353 -0.00654515 0)
(10.1515 -0.00651924 0)
(10.1675 -0.00647961 0)
(10.1835 -0.00643793 0)
(10.1992 -0.00641836 0)
(10.2147 -0.00637078 0)
(10.2303 -0.00632238 0)
(10.2453 -0.00628916 0)
(10.2605 -0.00625639 0)
(10.2752 -0.00622826 0)
(10.2897 -0.00619083 0)
(10.3041 -0.00615795 0)
(10.3179 -0.00612057 0)
(10.3319 -0.00608829 0)
(10.345 -0.00605967 0)
(10.3582 -0.00602964 0)
(10.3706 -0.0059935 0)
(10.3828 -0.00596757 0)
(10.3947 -0.00592112 0)
(10.4055 -0.00586359 0)
(10.4164 -0.0057784 0)
(10.4262 -0.0057179 0)
(10.4358 -0.00564115 0)
(10.4445 -0.00557553 0)
(10.4524 -0.00549357 0)
(10.4601 -0.00538344 0)
(10.4663 -0.00529636 0)
(10.4725 -0.00516039 0)
(10.4775 -0.00504749 0)
(10.4819 -0.00492497 0)
(10.4857 -0.00481198 0)
(10.4884 -0.00473006 0)
(10.4908 -0.00460616 0)
(10.4924 -0.00447432 0)
(10.4933 -0.00427843 0)
(10.4939 -0.00402121 0)
(10.4939 -0.00386481 0)
(10.4936 -0.00365023 0)
(10.4929 -0.0035182 0)
(10.4918 -0.00337617 0)
(10.4903 -0.00324507 0)
(10.4884 -0.00311248 0)
(10.4862 -0.00289091 0)
(10.4837 -0.0026716 0)
(10.4811 -0.00242585 0)
(10.4784 -0.00220336 0)
(10.4757 -0.00200935 0)
(10.4728 -0.0017975 0)
(10.47 -0.0016286 0)
(10.4672 -0.00148044 0)
(10.4643 -0.00136983 0)
(10.4614 -0.00129836 0)
(10.4584 -0.00119107 0)
(10.4553 -0.00104726 0)
(10.4522 -0.000895568 0)
(10.4492 -0.000729899 0)
(10.4462 -0.00050998 0)
(10.4434 -0.000299453 0)
(10.4405 -0.000133417 0)
(10.4377 -5.14629e-05 0)
(10.4349 -3.06699e-05 0)
(10.4319 -0.00015414 0)
(10.4288 -0.00046631 0)
(10.4252 -0.00146131 0)
(10.4209 -0.00317279 0)
(10.4143 -0.00797134 0)
(9.39466 -0.00995945 0)
(9.42161 -0.016458 0)
(9.45694 -0.0165751 0)
(9.49208 -0.0171152 0)
(9.52393 -0.0173723 0)
(9.55581 -0.0168838 0)
(9.58726 -0.0160132 0)
(9.61654 -0.0152382 0)
(9.64418 -0.0145036 0)
(9.67012 -0.0137893 0)
(9.69478 -0.0131075 0)
(9.71805 -0.0125592 0)
(9.74026 -0.0120668 0)
(9.76166 -0.0116794 0)
(9.7822 -0.0113965 0)
(9.8024 -0.0111318 0)
(9.82201 -0.0109509 0)
(9.84138 -0.010764 0)
(9.86034 -0.0106364 0)
(9.87898 -0.0104627 0)
(9.89746 -0.0103013 0)
(9.91537 -0.0101979 0)
(9.93327 -0.0100816 0)
(9.95072 -0.00999335 0)
(9.96807 -0.00989043 0)
(9.98516 -0.00981848 0)
(10.0019 -0.00974219 0)
(10.0187 -0.00968931 0)
(10.0351 -0.00964449 0)
(10.0514 -0.00957112 0)
(10.0673 -0.00951171 0)
(10.0832 -0.00946093 0)
(10.0986 -0.00941432 0)
(10.1138 -0.00935669 0)
(10.1286 -0.00929356 0)
(10.1432 -0.00924712 0)
(10.157 -0.00918309 0)
(10.1708 -0.00913635 0)
(10.1836 -0.00908002 0)
(10.1962 -0.00900526 0)
(10.2079 -0.00891065 0)
(10.2188 -0.00883103 0)
(10.2293 -0.00874063 0)
(10.2385 -0.00864285 0)
(10.2471 -0.00854019 0)
(10.2546 -0.00840947 0)
(10.2611 -0.00828747 0)