/*--------------------------------*- C++ -*----------------------------------*\
| =========                 |                                                 |
| \\      /  F ield         | OpenFOAM: The Open Source CFD Toolbox           |
|  \\    /   O peration     | Version:  v2012                                 |
|   \\  /    A nd           | Website:  www.openfoam.com                      |
|    \\/     M anipulation  |                                                 |
\*---------------------------------------------------------------------------*/
FoamFile
{
    version     2.0;
    format      ascii;
    class       volScalarField;
    location    "0.038";
    object      epsilon.air;
}
// * * * * * * * * * * * * * * * * * * * * * * * * * * * * * * * * * * * * * //

dimensions      [0 2 -3 0 0 0 0];


internalField   nonuniform List<scalar> 
1900
(
112.724
141.424
210.097
257.591
369.051
443.456
614.74
724.901
971.315
1128.61
15.4675
16.447
18.6358
20.4526
23.755
27.7297
32.0016
39.2885
45.1287
56.7778
14.7926
14.6415
14.5754
14.5063
14.5148
14.5574
14.6409
14.8312
15.0771
15.4136
14.7703
14.6301
14.4637
14.3351
14.1729
14.0587
13.9042
13.8076
13.6656
13.5934
14.7775
14.6207
14.4713
14.3195
14.1758
14.0279
13.89
13.7461
13.615
13.4758
14.7785
14.6197
14.4722
14.3188
14.1763
14.0275
13.8901
13.7463
13.6143
13.4764
14.7778
14.6206
14.4732
14.3235
14.1842
14.0452
13.9176
13.7918
13.6807
13.5721
14.7775
14.6496
14.5647
14.504
14.5116
14.5524
14.6381
14.8212
15.0473
15.3967
15.2385
16.5849
18.2987
20.6712
23.6142
27.5736
32.2889
38.4199
45.596
54.8459
106.372
146.332
198.778
265.68
350.479
456.173
586.261
744.051
932.636
1154.71
4099.3
15220.3
19622
22434.2
21087.4
17980.6
15045.6
12764.8
11280
10363.6
9862.79
9671.86
9482.95
9202.54
8796.84
8303.39
7756.73
7177.37
6619.03
6103.87
5627.88
5200.47
4812.78
4457.15
4133.04
3838.26
3571.13
3328.6
3107.91
2907.53
2725.46
2559.61
2408.89
2272.29
2148.19
2035.11
1931.55
1835.82
1746.32
1661.68
1580.85
1503.27
1428.98
1358.33
1291.9
1230.34
1174.11
1123.45
1078.3
1038.27
1002.57
970.166
940.034
911.293
883.12
854.878
826.221
797.099
767.731
738.587
710.327
683.638
658.997
636.659
616.697
599.03
583.362
569.109
555.45
541.564
526.836
510.88
493.482
474.564
454.248
432.702
410.179
386.792
362.803
338.202
313.344
288.067
262.965
237.717
213.314
189.192
166.793
145.176
126.133
108.191
93.3148
79.4504
68.7238
58.556
51.3618
43.9981
39.5112
33.8947
31.439
26.145
113.384
338.943
519.889
925.835
1126.63
1150.68
1122.08
1057.77
1053.38
1093.38
1198.77
1411.92
1692.27
2019.13
2363.21
2677.7
2959.55
3197.59
3357.69
3431.51
3421.5
3378.38
3283.66
3158.38
3023.06
2883.75
2747.21
2613.46
2484.6
2362.62
2246.81
2137.14
2034.42
1939.14
1850.28
1767.62
1690.35
1617.2
1547.47
1480.4
1415.23
1351.74
1290.19
1231.04
1174.86
1122.27
1073.78
1029.73
990.147
954.808
923.19
894.508
867.938
842.696
818.003
793.234
768.051
742.318
716.07
689.566
663.307
637.929
613.951
591.697
571.346
552.897
536.136
520.613
505.676
490.682
475.211
459.06
442.062
424.051
405.06
385.242
364.776
343.629
321.902
299.516
276.707
253.318
229.865
206.142
183.009
160.177
138.844
118.501
100.519
84.0209
70.3309
58.1603
48.7648
40.5084
34.6895
29.3294
26.0607
22.3879
20.8395
17.6058
16.4322
19.8845
22.9078
29.161
34.7802
38.8144
41.7133
43.8755
46.7471
51.0182
58.7749
71.9182
94.6653
131.696
187.192
267.364
372.311
510.439
670.038
843.524
1010.09
1165.71
1296.43
1403.22
1483.8
1535.98
1567.14
1573.51
1567.71
1551.78
1524.27
1491.27
1455.76
1419.79
1382.47
1345.52
1308.24
1269.24
1229.79
1189.75
1148.44
1106.37
1064.32
1023.01
983.125
945.338
910.13
877.863
848.546
822.069
798.205
776.389
756.004
736.508
717.283
697.828
677.876
657.266
635.923
613.954
591.705
569.655
548.274
527.928
508.879
491.215
474.799
459.345
444.433
429.701
415.006
400.39
385.77
370.751
355.226
339.291
322.974
306.043
288.418
269.745
250.105
229.304
207.843
185.671
163.682
141.805
121.214
101.716
84.5372
69.1521
56.5874
45.8976
37.8574
31.1988
26.6282
22.7161
20.3748
17.9404
16.9358
14.86
13.4537
13.4618
13.5498
13.8105
14.3484
15.0253
15.7459
16.3689
16.946
17.396
17.8814
18.4884
19.2126
20.6967
22.6276
26.3528
31.8533
40.6232
55.5042
77.1491
107.797
148.906
199.19
257.529
322.817
390.325
457.81
523.161
581.662
634.39
681.065
719.831
751.657
777.882
796.541
810.383
818.127
817.88
814.917
807.449
794.511
778.625
760.582
741.411
722.048
703.281
685.552
669.143
653.948
640.016
627.402
615.441
603.781
592.291
580.608
568.356
555.405
541.632
526.898
511.252
494.947
478.247
461.493
445.053
429.27
414.394
400.364
387.007
374.18
362.054
350.894
340.887
331.905
323.835
315.882
307.155
297.488
286.858
274.996
261.439
246.085
228.68
209.899
189.716
169.175
148.181
128.106
108.694
91.4399
75.7152
62.8474
51.7196
43.3894
36.3601
31.5906
27.3903
24.908
22.2281
21.0971
18.7089
13.3316
13.1575
13.0658
13.1224
13.3155
13.7292
14.3174
14.9329
15.4785
15.9119
16.2216
16.4851
16.6268
16.8117
16.9409
17.1135
17.4038
17.7313
18.4141
19.3489
20.9357
23.425
27.0045
31.9163
39.5337
49.162
61.8102
78.2399
97.6231
119.912
145.58
173.505
203.411
234.823
267.171
299.127
328.792
355.379
377.974
395.236
407.431
415.516
420.204
422.435
423.221
423.424
423.439
423.478
423.45
423.526
423.779
423.423
422.512
420.879
418.526
415.14
410.878
405.745
399.276
391.45
382.69
373.019
362.68
352.068
341.559
331.651
322.55
313.966
306.323
301.424
300.14
300.343
301.452
304.121
306.619
307.852
307.866
306.677
302.988
296.399
286.763
273.546
257.992
240.2
221.499
201.479
181.919
161.904
143.658
125.634
110.336
95.6067
84.1273
73.1061
65.3623
57.4579
52.6749
46.7398
44.1328
38.4973
13.3266
13.1531
13.0346
13.0917
13.3057
13.7841
14.5318
15.5157
16.5415
17.6404
18.6316
19.5679
20.301
20.9267
21.3485
21.6508
21.8191
21.8733
21.8567
21.8056
21.7217
21.6314
21.596
21.6288
21.7465
22.0131
22.4797
23.3234
24.5473
26.2877
28.7772
32.2651
36.9016
42.7557
50.5309
60.2739
71.5527
84.4893
98.5084
112.361
125.408
137.456
148.377
158.229
167.345
176.431
185.813
195.594
205.887
216.667
227.578
237.855
247.331
256.275
264.545
271.767
277.999
283.107
286.303
287.027
286.624
285.031
281.943
278.523
275.029
272.006
270.59
270.79
272.865
279.192
292.308
309.657
329.81
350.437
369.155
384.383
395.448
402.159
404.655
404.2
399.868
387.746
372.265
354.11
334.511
313.012
291.516
268.882
247.771
226.106
207.416
188.37
173.358
157.536
146.352
133.413
125.606
114.662
109.676
98.5928
13.4657
13.3612
13.4122
13.6628
14.3198
15.7055
18.101
21.5024
25.4918
29.8036
33.7055
37.1649
39.7008
41.6522
42.7103
43.3965
43.3911
43.242
42.8993
42.355
41.7643
41.2045
40.6266
40.1555
39.7072
39.385
39.1514
39.0276
39.0622
39.1847
39.4395
39.8483
40.3225
40.9722
41.9245
43.3725
45.3668
48.2519
52.3293
57.4685
63.6827
70.9342
78.7543
86.486
93.7069
100.562
107.106
113.88
121.892
131.982
144.118
158.038
173.694
190.924
209.052
227.041
244.012
259.023
271.147
279.92
285.553
288.77
290.991
293.355
296.321
300.536
308.046
321.842
344.463
376.95
417.59
462.491
506.421
544.394
573.861
594.716
606.865
611.066
610.756
606.584
593.653
574.095
551.425
526.101
499.44
471.612
444.383
417.294
392.581
368.634
348.333
328.396
312.879
296.422
285.022
271.089
262.875
250.572
244.904
232.165
15.9131
16.8619
18.563
21.9764
28.5061
39.6508
55.74
75.3158
95.753
114.606
129.433
140.341
146.681
150.334
150.816
150.339
149.174
147.38
146.027
144.681
144.558
144.907
145.915
147.882
150.876
154.696
159.443
165.059
171.669
179.29
187.557
196.459
205.74
215.7
226.699
239.07
253.26
269.972
289.577
311.938
337.202
364.726
391.717
414.773
432.178
443.749
450.441
454.1
456.643
459.368
463.45
470.773
483.308
501.91
525.204
549.696
571.542
588.505
599.66
604.742
605.081
603.158
601.476
602.045
605.381
614.004
632.411
668.595
721.854
785.686
848.782
902.274
941.266
963.682
971.421
971.009
964.907
949.888
930.102
904.48
874.12
840.437
804.941
768.656
733.011
698.658
666.934
637.778
612.286
589.441
570.45
553.145
539.748
526.316
517.198
506.001
499.679
489.854
485.404
475.494
68.0751
90.5364
126.45
185.388
272.957
386.386
513.032
637.052
745.747
832.235
892.71
932.678
953.136
963.09
964.096
962.576
959.115
955.514
955.018
956.097
959.629
967.171
977.782
990.65
1006.48
1024.3
1044.03
1065.69
1089.17
1113.43
1137.27
1161.01
1183.94
1206.74
1230.12
1255.01
1281.69
1310.84
1343.1
1376.77
1410.56
1440.89
1461.04
1466.17
1464.31
1456.77
1445.96
1437.03
1432.43
1432.35
1435.69
1446.23
1464.82
1488.35
1512.94
1531.21
1537.44
1536.25
1529.27
1517.03
1502.93
1487.03
1477.44
1476.77
1480.72
1493.11
1520.13
1569.06
1628.72
1681.84
1710.88
1714.69
1707.06
1680.63
1647.4
1612.12
1572.64
1530.18
1485.23
1437.86
1388.9
1339.66
1291.66
1246.08
1204.22
1166.62
1133.96
1105.86
1082.48
1062.76
1046.95
1033.39
1023.21
1013.39
1007.02
998.741
994.382
986.903
983.519
976.114
1465.84
1898.26
2400.59
2963.21
3564.85
4172.66
4746.5
5249.82
5652.53
5946.27
6127.34
6212.24
6199.22
6151.83
6052.2
5918.94
5769.06
5611.21
5452.05
5295.19
5143.2
4997.42
4858.96
4728.22
4605.77
4491.34
4385.05
4286.75
4196.39
4113.82
4039.29
3973.3
3915.41
3865.27
3821.78
3783.46
3748.32
3714.69
3681.4
3648.31
3617.34
3589.64
3565.48
3545.84
3532.26
3524.98
3522.76
3523.09
3526.11
3531.26
3535.12
3537.33
3538.17
3538.13
3536.99
3534.32
3530.54
3526.45
3523
3519.92
3515.43
3508.39
3497.63
3475.27
3438.1
3398.46
3372.18
3365.93
3370.67
3384.77
3389.19
3386.39
3371.53
3340.1
3301.41
3252.72
3193.25
3125.63
3052.35
2976.59
2901.99
2831.62
2767.75
2711.53
2663.48
2623.16
2590.09
2563.04
2541.32
2523.58
2509.45
2497.48
2488.02
2479.05
2472.49
2464.8
2460.27
2453.36
2450.3
2443.38
1130.68
1090.3
1150.31
1239.3
1268.45
1147.5
837.415
2023.06
54709.2
16298.8
7496.49
6234.67
6358.67
6609.05
6679.62
8185.03
74561.4
44204.8
25290.9
18805.9
16372.7
15235.1
14850.5
19989.1
76385.3
71315.3
54732.4
41653.9
33070.7
27466.7
24809.8
34458.8
69637.1
75780.3
67980.4
55937.7
44829.2
36051.1
31035.9
42961.3
57621.5
71149.5
67982.1
59141.9
48496.3
38849.9
32889
45379
47347.8
61690.9
62422.9
56598.8
47178.7
38196.2
32475.6
44282.8
38961.8
51660.2
53444.1
49717.6
42308
34617.5
29547.8
39694.8
32518.1
42832.5
44763.9
41992.9
36190.4
29956.4
25749.6
33932.3
27503.8
35476.1
37104.4
34975
30428.5
25468.9
22157.4
29315.5
23388.4
29451.1
30685.4
28995.1
25426.7
21551.9
19095.6
25950.1
20010.6
24574.2
25451.5
24072.3
21248.2
18226.2
16438.5
22918
17277.6
20673.7
21261.6
20113
17858.5
15491.8
14213.9
20303.4
15050.2
17559.9
17927.6
16956.5
15141.7
13275
12381.3
18101.5
13208.8
15061.7
15270.7
14442.8
12968.6
11486.3
10884.3
16277.3
11660.6
13034.5
13134.4
12425
11218
10034.5
9656.15
14762.5
10348.5
11374.9
11401.5
10791.2
9795.49
8846.35
8640.89
13496.4
9220.93
9999.69
9981.81
9453.98
8627.83
7864.6
7794.29
12430.1
8247.98
8847.43
8804.52
8346.37
7657.69
7043.97
7079.39
11521.9
7411.37
7876.99
7819.45
7421.15
6844.37
6351.68
6469.43
10742.5
6688.12
7053.47
6988.1
6641.21
6156.03
5761.72
5945.16
10066.1
6063.41
6351.18
6281.91
5978.76
5568.82
5254.83
5490.92
9473.54
5520.23
5747.98
5677.66
5412.07
5064.57
4816.75
5095.32
8952.32
5044.07
5225.82
5156.62
4923.61
4628.56
4435.87
4749.09
8492
4624.73
4771.02
4704.38
4499.72
4249.04
4102.63
4444.27
8083.3
4253.78
4372.65
4309.49
4129.6
3916.67
3809.35
4174.44
7718.68
3924.59
4021.87
3962.65
3804.43
3623.81
3549.72
3934.26
7391.8
3631.1
3711.21
3656.13
3517
3364.3
3318.74
3719.64
7097.95
3368.31
3434.76
3383.97
3261.84
3133.52
3112.74
3527.63
6833.88
3132.69
3188.16
3141.68
3034.75
2927.89
2928.84
3355.83
6596.65
2921.01
2967.64
2925.45
2832.22
2744.39
2764.1
3202.21
6383.24
2730.36
2769.98
2732.1
2651.34
2580.47
2616.75
3064.76
6191.19
2558.81
2592.93
2559.29
2489.81
2434.03
2485
2941.72
6018.2
2404.69
2434.46
2404.86
2345.5
2303.08
2366.99
2831.29
5862.01
2265.94
2292.33
2266.56
2216.23
2185.52
2260.75
2731.43
5720
2140.52
2164.28
2142.04
2099.68
2079.14
2164.07
2639.86
5588.93
2026.42
2048.03
2028.9
1993.41
1981.55
2074.66
2554.27
5465.51
1921.6
1941.3
1924.79
1895.12
1890.63
1990.58
2472.86
5347.43
1824.08
1841.99
1827.64
1802.94
1804.76
1910.51
2394.66
5233.68
1732.25
1748.47
1735.96
1715.64
1722.99
1833.98
2319.58
5124.41
1644.97
1659.7
1648.91
1632.65
1645.13
1761.1
2248.18
5020.61
1561.69
1575.24
1566.23
1553.96
1571.46
1692.41
2181.33
4923.71
1482.39
1495.12
1488.1
1479.93
1502.56
1628.67
2120.04
4835.33
1407.43
1419.78
1415.05
1411.2
1439.1
1570.62
2065.11
4756.86
1337.48
1349.94
1347.8
1348.41
1381.71
1518.81
2017.03
4689.15
1273.19
1286.2
1286.9
1291.99
1330.73
1473.38
1975.71
4632.02
1214.95
1228.85
1232.49
1241.98
1285.96
1433.92
1940.46
4584.32
1162.85
1177.82
1184.35
1197.98
1246.78
1399.62
1910.18
4544.11
1116.65
1132.75
1141.92
1159.23
1212.26
1369.37
1883.52
4509.05
1075.78
1092.87
1104.29
1124.69
1181.25
1341.91
1859.02
4476.67
1039.27
1057.07
1070.28
1093.14
1152.51
1315.98
1835.33
4444.66
1005.95
1024.14
1038.64
1063.36
1124.89
1290.47
1811.32
4411.14
974.726
992.988
1008.31
1034.36
1097.46
1264.56
1786.24
4375.02
944.675
962.7
978.463
1005.42
1069.66
1237.84
1759.9
4336.18
915.015
932.579
948.527
976.135
1041.27
1210.36
1732.64
4295.52
885.189
902.187
918.222
946.415
1012.44
1182.49
1705.2
4254.75
854.933
871.384
887.576
916.481
983.594
1154.89
1678.51
4216.2
824.341
840.414
856.993
886.895
955.421
1128.34
1653.44
4182.22
793.813
809.834
827.165
858.442
928.772
1103.74
1631.04
4155.25
764
780.406
798.911
831.953
904.457
1081.89
1612.24
4137.2
735.646
752.884
772.95
808.083
883.054
1063.3
1597.5
4128.92
709.39
727.834
749.755
787.198
864.815
1048.06
1586.52
4128.5
685.621
705.55
729.505
769.353
849.67
1036.02
1579.26
4134.79
664.497
686.087
712.145
754.384
837.33
1026.82
1575.55
4153.4
645.99
669.324
697.462
741.983
827.404
1019.95
1574.72
4178.35
629.945
655.049
685.185
731.833
819.538
1014.95
1575.39
4207.84
616.016
642.885
674.925
723.546
813.358
1011.55
1577.96
4240.14
603.546
632.153
666.023
716.526
808.368
1009.31
1581.91
4272.54
591.615
621.877
657.479
709.797
803.704
1007.61
1586.57
4301.22
579.293
611.06
648.244
702.265
798.25
1005.44
1591.4
4320.43
565.87
598.948
637.561
693.2
791.298
1002.02
1595.39
4326.7
550.889
585.085
625.035
682.335
782.791
997.586
1598.49
4322.31
534.135
569.293
610.559
669.659
772.811
992.117
1599.9
4298.66
515.586
551.598
594.2
655.236
761.27
985.161
1599.18
4252.66
495.393
532.131
576.031
639.051
748.08
976.46
1594.75
4192.35
473.684
510.959
556.034
620.99
733.046
965.896
1587.05
4118.27
450.718
488.3
534.326
600.983
715.792
952.782
1575.75
4033.55
426.644
464.284
510.973
578.971
695.999
936.141
1559.73
3942.6
401.784
439.241
486.275
555.208
673.87
916.033
1538.46
3850.17
376.148
413.171
460.21
529.65
649.407
892.708
1512.22
3760.68
350.168
386.556
433.284
502.792
623.048
866.892
1482.56
3677.96
323.674
359.245
405.424
474.724
595.124
839.15
1450.77
3604.34
297.378
332.069
377.584
446.526
566.913
810.819
1418.7
3541.41
270.881
304.639
349.499
418.196
538.787
782.76
1387.84
3489.43
245.394
278.364
322.718
391.321
512.275
756.585
1359.99
3448.27
220.136
252.367
296.438
365.382
487.269
732.612
1335.7
3416.75
196.905
228.714
272.799
342.309
465.367
712.165
1315.91
3393.98
174.309
205.701
250.038
320.624
445.588
694.749
1300.31
3378.32
154.677
186.029
230.872
302.604
429.514
681.317
1289.32
3368.74
135.802
166.933
212.377
285.743
415.343
670.595
1282.08
3363.67
120.437
151.725
197.936
272.801
404.819
663.282
1278.35
3362.35
105.545
136.606
183.546
260.391
395.612
657.989
1277.15
3363.05
94.2893
125.495
173.251
251.746
389.609
655.28
1277.56
3365.96
82.8775
113.697
162.172
242.857
384.233
654.04
1279.67
3369.97
75.0191
105.826
155.003
237.323
381.322
654.083
1282.74
3373.73
66.1736
96.3903
146.243
230.918
378.53
654.736
1286.36
3378.08
60.9022
90.8964
141.252
227.407
377.412
656.395
1289.87
3381.16
53.6289
82.8691
133.872
222.545
376.268
658.355
1293.58
3385.13
50.3206
79.139
130.452
220.427
376.019
659.936
1296.37
3386.83
42.9091
70.5791
122.573
215.673
375.491
662.291
1299.41
3390.61
)
;

boundaryField
{
    frontAndBack
    {
        type            empty;
    }
    inlet
    {
        type            fixedValue;
        value           uniform 14.855;
    }
    outlet
    {
        type            zeroGradient;
    }
    walls
    {
        lowReCorrection 0;
        blending        stepwise;
        n               2;
        type            epsilonWallFunction;
        value           nonuniform List<scalar> 
228
(
112.724
141.424
210.097
257.591
369.051
443.456
614.74
724.901
971.315
1128.61
1130.68
1090.3
1150.31
1239.3
1268.45
1147.5
837.415
2023.06
2023.06
8185.03
19989.1
34458.8
42961.3
45379
44282.8
39694.8
33932.3
29315.5
25950.1
22918
20303.4
18101.5
16277.3
14762.5
13496.4
12430.1
11521.9
10742.5
10066.1
9473.54
8952.32
8492
8083.3
7718.68
7391.8
7097.95
6833.88
6596.65
6383.24
6191.19
6018.2
5862.01
5720
5588.93
5465.51
5347.43
5233.68
5124.41
5020.61
4923.71
4835.33
4756.86
4689.15
4632.02
4584.32
4544.11
4509.05
4476.67
4444.66
4411.14
4375.02
4336.18
4295.52
4254.75
4216.2
4182.22
4155.25
4137.2
4128.92
4128.5
4134.79
4153.4
4178.35
4207.84
4240.14
4272.54
4301.22
4320.43
4326.7
4322.31
4298.66
4252.66
4192.35
4118.27
4033.55
3942.6
3850.17
3760.68
3677.96
3604.34
3541.41
3489.43
3448.27
3416.75
3393.98
3378.32
3368.74
3363.67
3362.35
3363.05
3365.96
3369.97
3373.73
3378.08
3381.16
3385.13
3386.83
3390.61
106.372
146.332
198.778
265.68
350.479
456.173
586.261
744.051
932.636
1154.71
1465.84
1898.26
2400.59
2963.21
3564.85
4172.66
4746.5
5249.82
5652.53
5946.27
6127.34
6212.24
6199.22
6151.83
6052.2
5918.94
5769.06
5611.21
5452.05
5295.19
5143.2
4997.42
4858.96
4728.22
4605.77
4491.34
4385.05
4286.75
4196.39
4113.82
4039.29
3973.3
3915.41
3865.27
3821.78
3783.46
3748.32
3714.69
3681.4
3648.31
3617.34
3589.64
3565.48
3545.84
3532.26
3524.98
3522.76
3523.09
3526.11
3531.26
3535.12
3537.33
3538.17
3538.13
3536.99
3534.32
3530.54
3526.45
3523
3519.92
3515.43
3508.39
3497.63
3475.27
3438.1
3398.46
3372.18
3365.93
3370.67
3384.77
3389.19
3386.39
3371.53
3340.1
3301.41
3252.72
3193.25
3125.63
3052.35
2976.59
2901.99
2831.62
2767.75
2711.53
2663.48
2623.16
2590.09
2563.04
2541.32
2523.58
2509.45
2497.48
2488.02
2479.05
2472.49
2464.8
2460.27
2453.36
2450.3
2443.38
)
;
    }
}


// ************************************************************************* //
