/*--------------------------------*- C++ -*----------------------------------*\
| =========                 |                                                 |
| \\      /  F ield         | OpenFOAM: The Open Source CFD Toolbox           |
|  \\    /   O peration     | Version:  v2012                                 |
|   \\  /    A nd           | Website:  www.openfoam.com                      |
|    \\/     M anipulation  |                                                 |
\*---------------------------------------------------------------------------*/
FoamFile
{
    version     2.0;
    format      ascii;
    class       volVectorField;
    location    "0.038";
    object      U.air;
}
// * * * * * * * * * * * * * * * * * * * * * * * * * * * * * * * * * * * * * //

dimensions      [0 1 -1 0 0 0 0];


internalField   nonuniform List<vector> 
5600
(
(18.5953 0.0139438 0)
(18.1338 0.0314778 0)
(17.5537 0.0439884 0)
(16.9012 0.0495791 0)
(16.2247 0.0480963 0)
(15.5654 0.0417606 0)
(14.9521 0.0329783 0)
(14.4104 0.0235226 0)
(13.9472 0.0151933 0)
(13.5506 0.00855677 0)
(13.2194 0.00297573 0)
(12.9521 -0.00185746 0)
(12.7476 -0.00580521 0)
(12.5978 -0.00857121 0)
(12.4916 -0.0101496 0)
(12.4182 -0.0107255 0)
(12.3689 -0.0106499 0)
(12.3382 -0.0100802 0)
(12.3209 -0.00932528 0)
(12.3117 -0.00863963 0)
(12.3065 -0.00794728 0)
(12.3022 -0.00726705 0)
(12.2978 -0.00667967 0)
(12.2938 -0.00625565 0)
(12.2915 -0.00607285 0)
(12.291 -0.00599604 0)
(12.2914 -0.0059068 0)
(12.2925 -0.005809 0)
(12.2945 -0.00574153 0)
(12.2976 -0.00572249 0)
(12.3013 -0.00559866 0)
(12.3037 -0.00536742 0)
(12.3042 -0.00515805 0)
(12.3027 -0.00482933 0)
(12.2985 -0.004546 0)
(12.292 -0.0043377 0)
(12.2843 -0.00418185 0)
(12.277 -0.00406759 0)
(12.2706 -0.00395173 0)
(12.2656 -0.00384997 0)
(12.2619 -0.0038239 0)
(12.2595 -0.00387121 0)
(12.2582 -0.00399702 0)
(12.2579 -0.00411659 0)
(12.258 -0.00421114 0)
(12.2587 -0.00427183 0)
(12.2597 -0.00430419 0)
(12.2608 -0.00431094 0)
(12.262 -0.00429272 0)
(12.2629 -0.00427015 0)
(12.2638 -0.0042415 0)
(12.2642 -0.00422034 0)
(12.2649 -0.00419498 0)
(12.2649 -0.00418266 0)
(12.2655 -0.00416762 0)
(12.2651 -0.00416912 0)
(12.2659 -0.0041507 0)
(12.265 -0.00416374 0)
(12.2664 -0.00413627 0)
(12.2646 -0.00416503 0)
(12.267 -0.00412665 0)
(12.264 -0.00417066 0)
(12.2678 -0.00411869 0)
(12.2631 -0.00417783 0)
(12.2688 -0.00410922 0)
(12.2619 -0.00418869 0)
(12.27 -0.00409713 0)
(12.2607 -0.0041975 0)
(12.2711 -0.00409817 0)
(12.2601 -0.00417888 0)
(12.271 -0.00413109 0)
(12.2612 -0.00411807 0)
(12.2684 -0.00422601 0)
(12.2655 -0.00391583 0)
(12.2615 -0.00444827 0)
(12.2735 -0.00385159 0)
(12.2555 -0.00422779 0)
(12.2752 -0.00414952 0)
(12.2576 -0.00399001 0)
(12.2684 -0.00448812 0)
(12.2707 -0.00344929 0)
(12.2481 -0.00486386 0)
(12.2898 -0.00366044 0)
(12.2355 -0.00429967 0)
(12.2939 -0.00406823 0)
(12.2361 -0.00383185 0)
(12.2849 -0.00420597 0)
(12.2456 -0.00356116 0)
(12.2645 -0.0045027 0)
(12.264 -0.00318531 0)
(12.2328 -0.00476473 0)
(12.2828 -0.00356102 0)
(12.2173 -0.00331885 0)
(12.2613 -0.0051609 0)
(12.2523 -0.00225463 0)
(12.1681 -0.00657363 0)
(12.321 -0.00265143 0)
(12.0401 0.000183407 0)
(12.1348 -0.0105971 0)
(12.1792 0.0415017 0)
(18.7902 0.036701 0)
(18.8039 0.0481958 0)
(18.7963 0.0514475 0)
(18.7581 0.0557374 0)
(18.6856 0.0583306 0)
(18.5786 0.0589415 0)
(18.4411 0.0577575 0)
(18.2763 0.055094 0)
(18.0924 0.0508693 0)
(17.8975 0.0466171 0)
(17.6959 0.0420662 0)
(17.4918 0.0369874 0)
(17.2887 0.0316302 0)
(17.0902 0.0265663 0)
(16.9007 0.0219711 0)
(16.7242 0.018048 0)
(16.5621 0.0147062 0)
(16.4158 0.0118711 0)
(16.2858 0.00954154 0)
(16.1706 0.00772805 0)
(16.0691 0.00648097 0)
(15.9797 0.00562798 0)
(15.9008 0.00492757 0)
(15.8326 0.00421313 0)
(15.7755 0.00362162 0)
(15.7255 0.00319717 0)
(15.6831 0.00290083 0)
(15.6453 0.00261856 0)
(15.6132 0.00232794 0)
(15.5838 0.00209891 0)
(15.5568 0.00203458 0)
(15.5309 0.00216851 0)
(15.5056 0.0023561 0)
(15.4807 0.00255565 0)
(15.4566 0.0027422 0)
(15.4335 0.00279242 0)
(15.4124 0.00269227 0)
(15.394 0.00243496 0)
(15.3789 0.00208655 0)
(15.3669 0.001711 0)
(15.3581 0.00144086 0)
(15.352 0.00118078 0)
(15.3483 0.0010743 0)
(15.3464 0.00105897 0)
(15.3457 0.00104763 0)
(15.3457 0.00102994 0)
(15.3462 0.0010125 0)
(15.3473 0.00100105 0)
(15.3488 0.00100745 0)
(15.35 0.00101866 0)
(15.3513 0.00103248 0)
(15.3519 0.00104566 0)
(15.3528 0.00105575 0)
(15.353 0.00106671 0)
(15.3536 0.00106921 0)
(15.3535 0.00107248 0)
(15.3541 0.00107694 0)
(15.3536 0.00107548 0)
(15.3545 0.00108253 0)
(15.3535 0.00107691 0)
(15.3548 0.00108493 0)
(15.3532 0.00107697 0)
(15.3552 0.00108535 0)
(15.3528 0.00107716 0)
(15.3557 0.001086 0)
(15.3523 0.00107567 0)
(15.3561 0.00108836 0)
(15.352 0.0010739 0)
(15.3562 0.00108681 0)
(15.3522 0.00108104 0)
(15.3555 0.00107675 0)
(15.3535 0.00110236 0)
(15.3529 0.00102371 0)
(15.3568 0.00120334 0)
(15.3501 0.000914894 0)
(15.3581 0.00117667 0)
(15.3497 0.0010632 0)
(15.3565 0.00105559 0)
(15.353 0.00115263 0)
(15.3499 0.00080574 0)
(15.3604 0.00140468 0)
(15.3442 0.000695948 0)
(15.3623 0.00119558 0)
(15.3432 0.0011054 0)
(15.359 0.00103708 0)
(15.3463 0.00123572 0)
(15.3504 0.000922457 0)
(15.3536 0.00146913 0)
(15.3369 0.00076805 0)
(15.3603 0.00174071 0)
(15.3265 0.000826363 0)
(15.3616 0.00136741 0)
(15.3215 0.00187997 0)
(15.348 0.000176296 0)
(15.3223 0.00419797 0)
(15.3196 0.000172873 0)
(15.3131 0.00591912 0)
(15.279 0.0112386 0)
(15.1648 0.0057196 0)
(15.2245 0.0778666 0)
(18.7906 0.0260691 0)
(18.8273 0.0394406 0)
(18.8714 0.04803 0)
(18.9159 0.0558497 0)
(18.9577 0.0605432 0)
(18.9944 0.061861 0)
(19.0213 0.0604572 0)
(19.0361 0.0562833 0)
(19.0334 0.05309 0)
(19.0182 0.0487818 0)
(18.988 0.0442685 0)
(18.9414 0.0395738 0)
(18.8779 0.0350496 0)
(18.7971 0.0310419 0)
(18.7 0.0276314 0)
(18.5889 0.024448 0)
(18.4669 0.0216065 0)
(18.3377 0.0189295 0)
(18.2052 0.0165304 0)
(18.0722 0.0145259 0)
(17.9422 0.0128103 0)
(17.8176 0.0113351 0)
(17.7 0.00988585 0)
(17.5907 0.00819613 0)
(17.4919 0.00656506 0)
(17.4034 0.0051308 0)
(17.3255 0.0039759 0)
(17.256 0.00304514 0)
(17.194 0.00228068 0)
(17.1374 0.00176038 0)
(17.0856 0.00150707 0)
(17.0377 0.00153357 0)
(16.9931 0.00161145 0)
(16.9517 0.00173566 0)
(16.9135 0.00187483 0)
(16.8786 0.00180126 0)
(16.8475 0.00149286 0)
(16.8207 0.000970979 0)
(16.7987 0.000353571 0)
(16.7814 -0.000271442 0)
(16.7684 -0.000754 0)
(16.7593 -0.00112331 0)
(16.7534 -0.00139306 0)
(16.75 -0.00169477 0)
(16.7484 -0.00190602 0)
(16.7479 -0.00202617 0)
(16.7481 -0.00213372 0)
(16.749 -0.0022127 0)
(16.7506 -0.00221757 0)
(16.752 -0.00219007 0)
(16.7535 -0.0021387 0)
(16.7543 -0.00209506 0)
(16.7554 -0.00205173 0)
(16.7556 -0.00202167 0)
(16.7564 -0.0019969 0)
(16.7563 -0.00198448 0)
(16.757 -0.00196337 0)
(16.7564 -0.00197148 0)
(16.7574 -0.00194209 0)
(16.7563 -0.0019674 0)
(16.7579 -0.00192946 0)
(16.756 -0.00196912 0)
(16.7583 -0.00192109 0)
(16.7556 -0.00197423 0)
(16.7588 -0.00191329 0)
(16.7551 -0.00198008 0)
(16.7592 -0.00191046 0)
(16.7549 -0.00197356 0)
(16.7591 -0.00192309 0)
(16.7554 -0.00194595 0)
(16.7579 -0.00196651 0)
(16.7574 -0.00183237 0)
(16.7545 -0.00210569 0)
(16.7607 -0.0017536 0)
(16.7523 -0.00209289 0)
(16.7613 -0.001838 0)
(16.7529 -0.00191116 0)
(16.7585 -0.00205069 0)
(16.7581 -0.00156847 0)
(16.7501 -0.00241451 0)
(16.7647 -0.00133965 0)
(16.7466 -0.00221439 0)
(16.7646 -0.00172343 0)
(16.7473 -0.00178826 0)
(16.7591 -0.00194125 0)
(16.7522 -0.00142289 0)
(16.749 -0.00220382 0)
(16.7601 -0.000953807 0)
(16.7375 -0.00221614 0)
(16.7651 -0.000781493 0)
(16.7301 -0.00197642 0)
(16.7612 -0.00124801 0)
(16.7303 -0.000576504 0)
(16.7444 -0.00228363 0)
(16.7332 0.0022486 0)
(16.722 -0.00213238 0)
(16.7237 0.00423879 0)
(16.6949 0.013723 0)
(16.6281 0.00825798 0)
(16.5389 0.106333 0)
(18.789 0.0235247 0)
(18.8254 0.0377698 0)
(18.8726 0.0448603 0)
(18.9237 0.0510608 0)
(18.9775 0.0546158 0)
(19.0325 0.0554837 0)
(19.0878 0.0544417 0)
(19.139 0.0524987 0)
(19.1853 0.0495042 0)
(19.2255 0.046727 0)
(19.2618 0.0441625 0)
(19.2905 0.041668 0)
(19.3143 0.0391844 0)
(19.3297 0.0372614 0)
(19.3388 0.0353413 0)
(19.3375 0.0343096 0)
(19.3289 0.0328923 0)
(19.3112 0.031365 0)
(19.2839 0.0298988 0)
(19.246 0.0285622 0)
(19.1972 0.0272223 0)
(19.137 0.0258902 0)
(19.0658 0.0244263 0)
(18.984 0.0226048 0)
(18.8936 0.0205767 0)
(18.7983 0.0185247 0)
(18.7009 0.0165405 0)
(18.6058 0.0146564 0)
(18.515 0.012938 0)
(18.4301 0.0115391 0)
(18.3511 0.0104688 0)
(18.2773 0.00969833 0)
(18.2092 0.00899948 0)
(18.1464 0.00835355 0)
(18.0893 0.00780304 0)
(18.0366 0.00718564 0)
(17.9893 0.00640223 0)
(17.9486 0.0054124 0)
(17.9152 0.00434864 0)
(17.8891 0.00333098 0)
(17.8695 0.0023851 0)
(17.8556 0.00159917 0)
(17.8464 0.000845785 0)
(17.8407 0.00012969 0)
(17.8377 -0.000257764 0)
(17.8365 -0.000512609 0)
(17.8362 -0.000713435 0)
(17.8368 -0.0009002 0)
(17.8382 -0.000945354 0)
(17.8397 -0.000911557 0)
(17.8413 -0.000816011 0)
(17.8423 -0.00073811 0)
(17.8434 -0.000653454 0)
(17.8438 -0.000599629 0)
(17.8447 -0.0005468 0)
(17.8445 -0.000524267 0)
(17.8453 -0.000485431 0)
(17.8448 -0.0004936 0)
(17.8457 -0.000449629 0)
(17.8448 -0.000478488 0)
(17.8461 -0.000429751 0)
(17.8445 -0.000474396 0)
(17.8465 -0.000420575 0)
(17.8442 -0.000475222 0)
(17.8468 -0.000417345 0)
(17.8438 -0.000470269 0)
(17.847 -0.000431242 0)
(17.8438 -0.00043998 0)
(17.8466 -0.000467047 0)
(17.8445 -0.000370515 0)
(17.8449 -0.000580343 0)
(17.847 -0.000177049 0)
(17.842 -0.000695545 0)
(17.849 -0.000223964 0)
(17.8413 -0.000565334 0)
(17.8484 -0.000414321 0)
(17.8428 -0.00022176 0)
(17.8444 -0.000825556 0)
(17.8484 0.000284045 0)
(17.8383 -0.00106083 0)
(17.8509 0.000162401 0)
(17.838 -0.000565555 0)
(17.8485 -0.000430582 0)
(17.8404 9.15211e-05 0)
(17.8425 -0.000764088 0)
(17.8465 0.000682174 0)
(17.8366 -0.000832409 0)
(17.8502 0.000958465 0)
(17.8319 -0.000632996 0)
(17.8511 0.000750267 0)
(17.8317 2.0509e-05 0)
(17.8435 9.12394e-05 0)
(17.8371 0.00188382 0)
(17.8324 -0.000660363 0)
(17.8383 0.00347233 0)
(17.8298 0.00036162 0)
(17.8222 0.00485507 0)
(17.8234 0.0175179 0)
(17.7791 0.0223905 0)
(17.6489 0.121463 0)
(18.7874 0.0199079 0)
(18.8224 0.0333513 0)
(18.8695 0.038839 0)
(18.9209 0.0441155 0)
(18.9755 0.0475467 0)
(19.0322 0.048618 0)
(19.0896 0.0480549 0)
(19.1452 0.0462719 0)
(19.1976 0.043914 0)
(19.2463 0.0415248 0)
(19.2921 0.0391968 0)
(19.3344 0.036693 0)
(19.3743 0.0342219 0)
(19.4098 0.0321616 0)
(19.4442 0.0306548 0)
(19.4744 0.029335 0)
(19.5037 0.0281373 0)
(19.5296 0.0271493 0)
(19.5536 0.0264382 0)
(19.5737 0.0260569 0)
(19.5928 0.0259271 0)
(19.6058 0.026004 0)
(19.6176 0.0261064 0)
(19.6216 0.0258717 0)
(19.6194 0.0255242 0)
(19.6102 0.024825 0)
(19.5929 0.0239279 0)
(19.5673 0.0228363 0)
(19.5338 0.0216393 0)
(19.4933 0.0205028 0)
(19.4464 0.0195855 0)
(19.3931 0.0189332 0)
(19.334 0.0181954 0)
(19.2703 0.0173941 0)
(19.2032 0.01646 0)
(19.1346 0.015051 0)
(19.0708 0.013086 0)
(19.0154 0.0107458 0)
(18.9696 0.00835749 0)
(18.9338 0.00610652 0)
(18.9071 0.00406158 0)
(18.8882 0.00228999 0)
(18.8756 0.000886802 0)
(18.8678 -7.30602e-05 0)
(18.8634 -0.0006393 0)
(18.8613 -0.00102522 0)
(18.8606 -0.00127107 0)
(18.8609 -0.00149815 0)
(18.862 -0.00161658 0)
(18.8637 -0.00161685 0)
(18.8651 -0.00152164 0)
(18.8664 -0.00142717 0)
(18.8673 -0.00134025 0)
(18.8681 -0.00127233 0)
(18.8685 -0.00122206 0)
(18.8691 -0.00117703 0)
(18.8692 -0.00114715 0)
(18.8695 -0.00114077 0)
(18.8694 -0.001107 0)
(18.8698 -0.00112725 0)
(18.8694 -0.00108532 0)
(18.87 -0.00112185 0)
(18.8693 -0.00107085 0)
(18.8701 -0.00111895 0)
(18.8691 -0.00106652 0)
(18.8702 -0.00110444 0)
(18.8686 -0.00108591 0)
(18.8706 -0.00106527 0)
(18.8678 -0.00112723 0)
(18.8713 -0.00100154 0)
(18.8672 -0.00123424 0)
(18.8717 -0.000870069 0)
(18.8677 -0.00122711 0)
(18.8705 -0.00100332 0)
(18.87 -0.00103035 0)
(18.8665 -0.00115795 0)
(18.8721 -0.000811327 0)
(18.8654 -0.00144424 0)
(18.872 -0.000516925 0)
(18.8682 -0.0013006 0)
(18.8651 -0.000912055 0)
(18.8746 -0.000863563 0)
(18.8584 -0.00110506 0)
(18.8758 -0.000557703 0)
(18.8578 -0.00132899 0)
(18.8758 -0.000647795 0)
(18.8649 -0.00137272 0)
(18.8731 -0.000266946 0)
(18.8754 -0.000944068 0)
(18.8625 -0.000453431 0)
(18.8854 -0.000321662 0)
(18.8586 -0.000796681 0)
(18.8868 0.000279599 0)
(18.8763 -0.00112981 0)
(18.8771 0.00194859 0)
(18.9072 0.000944289 0)
(18.845 0.00542152 0)
(18.8992 0.0178801 0)
(18.8318 0.0331725 0)
(18.7855 0.135446 0)
(18.786 0.0161082 0)
(18.8196 0.0283658 0)
(18.8663 0.0328666 0)
(18.9177 0.0374721 0)
(18.9718 0.0405925 0)
(19.0284 0.0415113 0)
(19.0858 0.0409342 0)
(19.1419 0.0393122 0)
(19.1947 0.0373636 0)
(19.2443 0.0353219 0)
(19.2915 0.0332966 0)
(19.3359 0.031159 0)
(19.3775 0.0291332 0)
(19.416 0.0275222 0)
(19.4528 0.026298 0)
(19.4879 0.0253785 0)
(19.5222 0.0245532 0)
(19.555 0.0238364 0)
(19.5867 0.0233222 0)
(19.6176 0.0230135 0)
(19.6479 0.0229549 0)
(19.6775 0.0230351 0)
(19.7071 0.0231088 0)
(19.7363 0.0231284 0)
(19.7643 0.0228377 0)
(19.7909 0.0224191 0)
(19.8156 0.0220102 0)
(19.8385 0.0215945 0)
(19.8584 0.0211971 0)
(19.8756 0.0209322 0)
(19.8889 0.0209173 0)
(19.9001 0.0211581 0)
(19.9095 0.0215798 0)
(19.9101 0.0218421 0)
(19.9055 0.0220272 0)
(19.8947 0.021486 0)
(19.8789 0.0197626 0)
(19.8601 0.0170476 0)
(19.8404 0.0137674 0)
(19.8228 0.0104681 0)
(19.8086 0.00745045 0)
(19.7982 0.00490524 0)
(19.7912 0.00289505 0)
(19.7871 0.00137359 0)
(19.7849 0.000266612 0)
(19.7842 -0.000445356 0)
(19.7844 -0.00102793 0)
(19.7856 -0.00145848 0)
(19.7873 -0.001669 0)
(19.7895 -0.00166268 0)
(19.7911 -0.00153225 0)
(19.793 -0.00136823 0)
(19.7937 -0.00124495 0)
(19.7953 -0.00110857 0)
(19.7952 -0.00103853 0)
(19.7965 -0.000954741 0)
(19.7959 -0.000910944 0)
(19.7974 -0.000874897 0)
(19.796 -0.000848135 0)
(19.7981 -0.000837631 0)
(19.7956 -0.000814407 0)
(19.7989 -0.000815969 0)
(19.7951 -0.000799212 0)
(19.7997 -0.000805603 0)
(19.7943 -0.000794999 0)
(19.8006 -0.000792137 0)
(19.7937 -0.000802008 0)
(19.801 -0.000771985 0)
(19.794 -0.000808079 0)
(19.8002 -0.000752021 0)
(19.7959 -0.000840857 0)
(19.7967 -0.000699258 0)
(19.8012 -0.000811995 0)
(19.7916 -0.000817359 0)
(19.8042 -0.000678745 0)
(19.7907 -0.000803351 0)
(19.8038 -0.000643125 0)
(19.795 -0.000909549 0)
(19.7961 -0.000521193 0)
(19.8072 -0.000643489 0)
(19.7862 -0.000834484 0)
(19.8134 -0.00057589 0)
(19.7859 -0.000720473 0)
(19.8144 -0.000356513 0)
(19.7923 -0.000800113 0)
(19.8072 -0.000513975 0)
(19.8041 -0.000666296 0)
(19.7936 -0.000464012 0)
(19.8197 -0.000339002 0)
(19.7876 -0.000405694 0)
(19.8273 -4.85564e-05 0)
(19.7916 -0.000373228 0)
(19.8248 0.000257024 0)
(19.8074 0.000224616 0)
(19.8004 0.000446989 0)
(19.8421 0.00243921 0)
(19.7782 0.00802433 0)
(19.8217 0.018787 0)
(19.7439 0.0417735 0)
(19.7476 0.142924 0)
(18.7853 0.0126466 0)
(18.8172 0.0228067 0)
(18.8633 0.026346 0)
(18.9146 0.030082 0)
(18.9687 0.0326876 0)
(19.025 0.0334126 0)
(19.0822 0.0329015 0)
(19.1381 0.0316042 0)
(19.1908 0.0300551 0)
(19.2405 0.0283871 0)
(19.2878 0.0267229 0)
(19.3325 0.0250104 0)
(19.3741 0.0234091 0)
(19.4131 0.022127 0)
(19.4504 0.0211033 0)
(19.4863 0.020357 0)
(19.521 0.0196473 0)
(19.5546 0.0190096 0)
(19.5872 0.0185278 0)
(19.6191 0.0182419 0)
(19.6509 0.0181945 0)
(19.6827 0.0182494 0)
(19.7147 0.0183021 0)
(19.7466 0.0182989 0)
(19.7782 0.0180968 0)
(19.8095 0.0178126 0)
(19.8402 0.017547 0)
(19.8702 0.0172944 0)
(19.8993 0.017039 0)
(19.9277 0.0168829 0)
(19.9558 0.0169176 0)
(19.9836 0.0170592 0)
(20.0117 0.0174892 0)
(20.0404 0.0182651 0)
(20.0692 0.0188843 0)
(20.0964 0.018771 0)
(20.1207 0.0175451 0)
(20.1414 0.0154609 0)
(20.1579 0.0128659 0)
(20.1707 0.00999732 0)
(20.1802 0.00715366 0)
(20.1872 0.00458652 0)
(20.1921 0.00245313 0)
(20.1956 0.000841659 0)
(20.1978 -0.00024501 0)
(20.1992 -0.000928272 0)
(20.2001 -0.00141052 0)
(20.201 -0.00181222 0)
(20.2019 -0.00204455 0)
(20.203 -0.00203311 0)
(20.2039 -0.00187728 0)
(20.2049 -0.00168201 0)
(20.2055 -0.00153107 0)
(20.2063 -0.00137994 0)
(20.2066 -0.00127927 0)
(20.2073 -0.00117338 0)
(20.2072 -0.00113258 0)
(20.2078 -0.00107912 0)
(20.2075 -0.00106598 0)
(20.2081 -0.00103171 0)
(20.2075 -0.00103148 0)
(20.2084 -0.00100662 0)
(20.2073 -0.00101316 0)
(20.2088 -0.000990515 0)
(20.2071 -0.00100722 0)
(20.2091 -0.000982632 0)
(20.207 -0.00100509 0)
(20.2093 -0.000982012 0)
(20.2073 -0.00100204 0)
(20.2088 -0.000994021 0)
(20.2082 -0.000976159 0)
(20.2073 -0.00108297 0)
(20.2099 -0.00091795 0)
(20.2062 -0.00103197 0)
(20.2107 -0.000916845 0)
(20.2067 -0.00102352 0)
(20.21 -0.000983467 0)
(20.2086 -0.000942914 0)
(20.2071 -0.00124932 0)
(20.2116 -0.000687284 0)
(20.2061 -0.00107684 0)
(20.2128 -0.00086252 0)
(20.2072 -0.00102641 0)
(20.2128 -0.000950432 0)
(20.2088 -0.000990441 0)
(20.2114 -0.00126116 0)
(20.2099 -0.000595676 0)
(20.2082 -0.00131364 0)
(20.2133 -0.000531556 0)
(20.2062 -0.000945749 0)
(20.2162 -0.000781003 0)
(20.2084 -0.000710443 0)
(20.2162 -0.000986875 0)
(20.2091 0.000514749 0)
(20.2091 -0.000897803 0)
(20.2133 0.0029188 0)
(20.2001 0.00746634 0)
(20.2047 0.0209554 0)
(20.1712 0.0489309 0)
(20.167 0.145316 0)
(18.7848 0.00897753 0)
(18.8153 0.0166114 0)
(18.861 0.0192046 0)
(18.912 0.0219653 0)
(18.9658 0.0239286 0)
(19.022 0.0244621 0)
(19.0791 0.0240862 0)
(19.1349 0.0231572 0)
(19.1875 0.0220374 0)
(19.2374 0.0208011 0)
(19.2847 0.0195539 0)
(19.3292 0.0182997 0)
(19.3708 0.0171284 0)
(19.4099 0.0161627 0)
(19.4473 0.0153676 0)
(19.4832 0.0147936 0)
(19.518 0.0142644 0)
(19.5516 0.013799 0)
(19.5843 0.0134538 0)
(19.6165 0.0132576 0)
(19.6485 0.0132343 0)
(19.6806 0.0132944 0)
(19.7126 0.0133668 0)
(19.7447 0.0133969 0)
(19.7769 0.0132744 0)
(19.8085 0.013064 0)
(19.8396 0.0128663 0)
(19.8703 0.0126931 0)
(19.9005 0.0125081 0)
(19.9302 0.0123677 0)
(19.9598 0.0123715 0)
(19.9895 0.0125133 0)
(20.0198 0.0129109 0)
(20.051 0.013403 0)
(20.0833 0.0137795 0)
(20.1161 0.0137731 0)
(20.1474 0.0130205 0)
(20.1756 0.0115619 0)
(20.1997 0.0095717 0)
(20.2192 0.00731552 0)
(20.2341 0.00510809 0)
(20.2447 0.00317561 0)
(20.2519 0.00162763 0)
(20.2563 0.000488288 0)
(20.2586 -0.000288547 0)
(20.2596 -0.000808239 0)
(20.2599 -0.00126054 0)
(20.2596 -0.00171371 0)
(20.2589 -0.00197784 0)
(20.2581 -0.00198773 0)
(20.2575 -0.00184878 0)
(20.2571 -0.00166619 0)
(20.2568 -0.0014981 0)
(20.2566 -0.00133114 0)
(20.2564 -0.00120327 0)
(20.2564 -0.00108606 0)
(20.2563 -0.0010192 0)
(20.2563 -0.000938918 0)
(20.2563 -0.000926029 0)
(20.2563 -0.000868859 0)
(20.2563 -0.000879839 0)
(20.2564 -0.000830241 0)
(20.2563 -0.000858003 0)
(20.2564 -0.000812139 0)
(20.2563 -0.000848178 0)
(20.2564 -0.000808693 0)
(20.2563 -0.000835087 0)
(20.2564 -0.000823616 0)
(20.2563 -0.000809989 0)
(20.2564 -0.000866778 0)
(20.2564 -0.000727466 0)
(20.2563 -0.000940556 0)
(20.2564 -0.000703151 0)
(20.2563 -0.000876604 0)
(20.2565 -0.000753411 0)
(20.2563 -0.000812539 0)
(20.2564 -0.000904439 0)
(20.2565 -0.000620166 0)
(20.2563 -0.00105176 0)
(20.2565 -0.00053067 0)
(20.2564 -0.000960349 0)
(20.2565 -0.000736591 0)
(20.2565 -0.000827933 0)
(20.2565 -0.000840802 0)
(20.2565 -0.000617106 0)
(20.2567 -0.0010021 0)
(20.2564 -0.00028141 0)
(20.2568 -0.000952977 0)
(20.2567 -0.000254026 0)
(20.2568 -0.000692536 0)
(20.2573 -0.000597758 0)
(20.2568 -0.000359203 0)
(20.2573 -0.000348341 0)
(20.2572 0.00110252 0)
(20.2572 -6.4525e-06 0)
(20.2555 0.00374342 0)
(20.2532 0.00903004 0)
(20.2502 0.0228036 0)
(20.2412 0.0536548 0)
(20.2412 0.145945 0)
(18.7845 0.00520131 0)
(18.8139 0.00979794 0)
(18.8591 0.0113701 0)
(18.9102 0.0130657 0)
(18.9639 0.0142718 0)
(19.0199 0.0145971 0)
(19.0769 0.0143765 0)
(19.1325 0.0138042 0)
(19.1853 0.0131143 0)
(19.2352 0.0123666 0)
(19.2822 0.0116035 0)
(19.3266 0.0108256 0)
(19.3683 0.0100929 0)
(19.4075 0.00948975 0)
(19.4449 0.00898818 0)
(19.4808 0.00864214 0)
(19.5156 0.00832953 0)
(19.5493 0.0080406 0)
(19.582 0.00781885 0)
(19.6142 0.0076845 0)
(19.6462 0.00766055 0)
(19.6783 0.00771051 0)
(19.7103 0.0077745 0)
(19.7426 0.00778579 0)
(19.7747 0.00768804 0)
(19.8063 0.00753642 0)
(19.8374 0.00739899 0)
(19.8681 0.00728842 0)
(19.8984 0.00718191 0)
(19.9283 0.00710461 0)
(19.958 0.00712659 0)
(19.9879 0.00721343 0)
(20.0184 0.00742851 0)
(20.0498 0.00773146 0)
(20.0822 0.00803 0)
(20.1153 0.00812234 0)
(20.1472 0.0077182 0)
(20.1763 0.00682197 0)
(20.2014 0.00558782 0)
(20.2217 0.00419691 0)
(20.237 0.00281405 0)
(20.2478 0.00156047 0)
(20.2548 0.000516947 0)
(20.2588 -0.00026739 0)
(20.2606 -0.000770962 0)
(20.2612 -0.00107329 0)
(20.2609 -0.00137724 0)
(20.2596 -0.00161639 0)
(20.2577 -0.0017399 0)
(20.2556 -0.00171588 0)
(20.2538 -0.00160777 0)
(20.2523 -0.00147384 0)
(20.2511 -0.00136487 0)
(20.2502 -0.00125728 0)
(20.2496 -0.00118402 0)
(20.2491 -0.00111232 0)
(20.2488 -0.00107462 0)
(20.2485 -0.00103408 0)
(20.2484 -0.00102699 0)
(20.2483 -0.000993038 0)
(20.2482 -0.0010015 0)
(20.2482 -0.000967414 0)
(20.2482 -0.000989609 0)
(20.2482 -0.000954216 0)
(20.2482 -0.000984412 0)
(20.2481 -0.000952615 0)
(20.2482 -0.000975313 0)
(20.2481 -0.000966871 0)
(20.2482 -0.000945444 0)
(20.2481 -0.00100086 0)
(20.2482 -0.000894673 0)
(20.2482 -0.00106215 0)
(20.2481 -0.000881454 0)
(20.2482 -0.00101502 0)
(20.2481 -0.000927384 0)
(20.2482 -0.000943493 0)
(20.2481 -0.00103981 0)
(20.2482 -0.000824644 0)
(20.2482 -0.00115567 0)
(20.2481 -0.000768739 0)
(20.2482 -0.00105749 0)
(20.2482 -0.000935381 0)
(20.2482 -0.000949664 0)
(20.2482 -0.000969943 0)
(20.2483 -0.000827156 0)
(20.2482 -0.00107804 0)
(20.2483 -0.000607735 0)
(20.2484 -0.00110763 0)
(20.2484 -0.000642334 0)
(20.2486 -0.000926168 0)
(20.2486 -0.000856455 0)
(20.2487 -0.000576925 0)
(20.2486 -0.000613931 0)
(20.249 0.000516182 0)
(20.2488 -3.73495e-05 0)
(20.2478 0.00332367 0)
(20.2468 0.00910385 0)
(20.2457 0.0233452 0)
(20.2446 0.0554869 0)
(20.2572 0.140654 0)
(18.7843 0.00123654 0)
(18.8132 0.00226261 0)
(18.8583 0.00269812 0)
(18.9094 0.00324672 0)
(18.963 0.00359525 0)
(19.0189 0.00368197 0)
(19.0758 0.00363239 0)
(19.1313 0.00344923 0)
(19.1839 0.00323894 0)
(19.2339 0.003028 0)
(19.2811 0.00280771 0)
(19.3256 0.0025701 0)
(19.3672 0.00232816 0)
(19.4064 0.0021259 0)
(19.4438 0.0019347 0)
(19.4798 0.00184268 0)
(19.5145 0.0017756 0)
(19.548 0.00167354 0)
(19.5808 0.00157338 0)
(19.613 0.00150976 0)
(19.6449 0.00150092 0)
(19.6769 0.00153793 0)
(19.7091 0.00158137 0)
(19.7415 0.00159294 0)
(19.7736 0.00156584 0)
(19.8053 0.00152317 0)
(19.8364 0.00149007 0)
(19.867 0.00147265 0)
(19.8972 0.0014523 0)
(19.9271 0.00142358 0)
(19.9569 0.00143651 0)
(19.987 0.00144496 0)
(20.0175 0.00151342 0)
(20.0488 0.00166799 0)
(20.0811 0.00182009 0)
(20.1141 0.00190457 0)
(20.1461 0.00183154 0)
(20.1754 0.00159555 0)
(20.2007 0.00124092 0)
(20.2212 0.000811043 0)
(20.2366 0.000359654 0)
(20.2473 -5.12171e-05 0)
(20.254 -0.000380231 0)
(20.2576 -0.000620508 0)
(20.2591 -0.000779252 0)
(20.2594 -0.000892403 0)
(20.2587 -0.00104961 0)
(20.2569 -0.00121124 0)
(20.2542 -0.00132823 0)
(20.2513 -0.00136367 0)
(20.2487 -0.00133485 0)
(20.2465 -0.00127001 0)
(20.2448 -0.00120518 0)
(20.2435 -0.00112949 0)
(20.2425 -0.00107175 0)
(20.2418 -0.00101207 0)
(20.2412 -0.000979128 0)
(20.2409 -0.000942164 0)
(20.2407 -0.000932396 0)
(20.2405 -0.000905272 0)
(20.2404 -0.000907989 0)
(20.2403 -0.000883808 0)
(20.2403 -0.000896447 0)
(20.2403 -0.000872703 0)
(20.2403 -0.00089103 0)
(20.2402 -0.000870378 0)
(20.2402 -0.000883185 0)
(20.2402 -0.00087913 0)
(20.2402 -0.000864599 0)
(20.2402 -0.000902276 0)
(20.2403 -0.000828492 0)
(20.2402 -0.000942568 0)
(20.2402 -0.00082318 0)
(20.2403 -0.000901782 0)
(20.2402 -0.000851675 0)
(20.2403 -0.000852825 0)
(20.2403 -0.000927943 0)
(20.2403 -0.000772314 0)
(20.2403 -0.0010024 0)
(20.2403 -0.000742059 0)
(20.2403 -0.000918603 0)
(20.2403 -0.000858233 0)
(20.2403 -0.000837738 0)
(20.2403 -0.000877906 0)
(20.2404 -0.000760499 0)
(20.2403 -0.000942295 0)
(20.2404 -0.000598945 0)
(20.2405 -0.000909544 0)
(20.2405 -0.000604099 0)
(20.2407 -0.000731302 0)
(20.2407 -0.000729215 0)
(20.2408 -0.000449237 0)
(20.2408 -0.000406497 0)
(20.2412 0.00054535 0)
(20.2413 0.000470028 0)
(20.2407 0.00354952 0)
(20.2408 0.00956342 0)
(20.2422 0.0236364 0)
(20.2475 0.0555812 0)
(20.2718 0.131724 0)
(18.7844 -0.002872 0)
(18.8134 -0.00566569 0)
(18.8586 -0.00642421 0)
(18.9097 -0.00705494 0)
(18.9633 -0.00758919 0)
(19.019 -0.00775723 0)
(19.0759 -0.00764407 0)
(19.1315 -0.00742261 0)
(19.1842 -0.00712472 0)
(19.2341 -0.00679287 0)
(19.2814 -0.00645215 0)
(19.3258 -0.00611599 0)
(19.3675 -0.00584037 0)
(19.4068 -0.00561638 0)
(19.4441 -0.00548413 0)
(19.48 -0.00531268 0)
(19.5148 -0.0051374 0)
(19.5485 -0.0050428 0)
(19.5813 -0.00499539 0)
(19.6134 -0.00497008 0)
(19.6454 -0.0049612 0)
(19.6773 -0.00495106 0)
(19.7095 -0.0049374 0)
(19.7419 -0.00491336 0)
(19.774 -0.00486572 0)
(19.8057 -0.00481846 0)
(19.8368 -0.0047591 0)
(19.8674 -0.00467728 0)
(19.8976 -0.00461993 0)
(19.9274 -0.00463738 0)
(19.9573 -0.0046547 0)
(19.9873 -0.00470859 0)
(20.0178 -0.00476748 0)
(20.0492 -0.0047849 0)
(20.0814 -0.0047966 0)
(20.1144 -0.00467983 0)
(20.1464 -0.00436976 0)
(20.1757 -0.00392518 0)
(20.2011 -0.00340043 0)
(20.2215 -0.0028446 0)
(20.2369 -0.00231398 0)
(20.2476 -0.00185409 0)
(20.2543 -0.00149121 0)
(20.2579 -0.00122595 0)
(20.2594 -0.00105562 0)
(20.2597 -0.000934678 0)
(20.259 -0.00078175 0)
(20.2571 -0.000633658 0)
(20.2544 -0.000532163 0)
(20.2515 -0.000513021 0)
(20.2489 -0.000552521 0)
(20.2467 -0.00060496 0)
(20.245 -0.000663771 0)
(20.2436 -0.000711509 0)
(20.2426 -0.000758782 0)
(20.2419 -0.000791126 0)
(20.2414 -0.000825437 0)
(20.241 -0.000843807 0)
(20.2408 -0.000868534 0)
(20.2406 -0.000872655 0)
(20.2405 -0.000888429 0)
(20.2404 -0.000882582 0)
(20.2404 -0.00089547 0)
(20.2404 -0.000885009 0)
(20.2403 -0.00089753 0)
(20.2403 -0.000887239 0)
(20.2403 -0.000894503 0)
(20.2403 -0.000894637 0)
(20.2403 -0.000882554 0)
(20.2403 -0.000909491 0)
(20.2403 -0.000860168 0)
(20.2403 -0.000936027 0)
(20.2403 -0.000858931 0)
(20.2403 -0.000903391 0)
(20.2403 -0.000879115 0)
(20.2404 -0.000870746 0)
(20.2403 -0.000932501 0)
(20.2404 -0.000819256 0)
(20.2404 -0.000980805 0)
(20.2403 -0.000803172 0)
(20.2404 -0.000911765 0)
(20.2404 -0.000889697 0)
(20.2404 -0.000855153 0)
(20.2404 -0.000905699 0)
(20.2405 -0.000796529 0)
(20.2404 -0.000939658 0)
(20.2405 -0.000675385 0)
(20.2406 -0.000885027 0)
(20.2406 -0.000718911 0)
(20.2408 -0.000756406 0)
(20.2408 -0.000792852 0)
(20.2409 -0.000522997 0)
(20.2409 -0.00046712 0)
(20.2414 0.000309893 0)
(20.2417 0.000560766 0)
(20.2417 0.00335681 0)
(20.2429 0.00932171 0)
(20.2468 0.0228872 0)
(20.2578 0.053255 0)
(20.2915 0.119704 0)
(18.7846 -0.00689938 0)
(18.8144 -0.0132333 0)
(18.86 -0.015107 0)
(18.9111 -0.0168812 0)
(18.9648 -0.0182554 0)
(19.0208 -0.0186632 0)
(19.0778 -0.0183885 0)
(19.1334 -0.0177842 0)
(19.1861 -0.0170034 0)
(19.236 -0.0161466 0)
(19.2832 -0.015259 0)
(19.3277 -0.0143783 0)
(19.3694 -0.0136164 0)
(19.4086 -0.012969 0)
(19.4459 -0.0125107 0)
(19.4818 -0.0120811 0)
(19.5165 -0.0117029 0)
(19.5502 -0.0114427 0)
(19.583 -0.0112535 0)
(19.6152 -0.0111453 0)
(19.6471 -0.0111215 0)
(19.6791 -0.0111337 0)
(19.7113 -0.0111518 0)
(19.7437 -0.0111308 0)
(19.7759 -0.0110081 0)
(19.8074 -0.010849 0)
(19.8384 -0.0106938 0)
(19.8692 -0.010525 0)
(19.8995 -0.0103762 0)
(19.9292 -0.010349 0)
(19.9588 -0.010383 0)
(19.9888 -0.010524 0)
(20.0193 -0.0107164 0)
(20.0507 -0.0108832 0)
(20.0831 -0.011062 0)
(20.1162 -0.0109462 0)
(20.1481 -0.0102909 0)
(20.1773 -0.00917923 0)
(20.2023 -0.00777641 0)
(20.2225 -0.00626347 0)
(20.2379 -0.00480642 0)
(20.2487 -0.0035202 0)
(20.2556 -0.00247652 0)
(20.2596 -0.00170439 0)
(20.2615 -0.00120311 0)
(20.262 -0.00090106 0)
(20.2616 -0.00061117 0)
(20.2604 -0.000400839 0)
(20.2584 -0.000306316 0)
(20.2562 -0.000338737 0)
(20.2543 -0.000446977 0)
(20.2527 -0.000557032 0)
(20.2515 -0.000652783 0)
(20.2506 -0.000727586 0)
(20.2499 -0.000789038 0)
(20.2494 -0.000833492 0)
(20.249 -0.000871477 0)
(20.2488 -0.000895853 0)
(20.2486 -0.000919493 0)
(20.2485 -0.00092822 0)
(20.2485 -0.000941423 0)
(20.2484 -0.000940564 0)
(20.2484 -0.000949933 0)
(20.2484 -0.000944826 0)
(20.2484 -0.000952813 0)
(20.2484 -0.00094741 0)
(20.2484 -0.000951054 0)
(20.2484 -0.000953002 0)
(20.2484 -0.000942634 0)
(20.2484 -0.000962975 0)
(20.2484 -0.000927809 0)
(20.2484 -0.000980511 0)
(20.2484 -0.000928502 0)
(20.2484 -0.000954909 0)
(20.2484 -0.000943065 0)
(20.2484 -0.000930473 0)
(20.2484 -0.00098297 0)
(20.2484 -0.000892456 0)
(20.2484 -0.00101576 0)
(20.2484 -0.000884181 0)
(20.2484 -0.00095986 0)
(20.2484 -0.000946671 0)
(20.2484 -0.000910461 0)
(20.2484 -0.000975598 0)
(20.2485 -0.000860383 0)
(20.2485 -0.000992941 0)
(20.2485 -0.000761481 0)
(20.2486 -0.00092319 0)
(20.2486 -0.00082242 0)
(20.2488 -0.000821712 0)
(20.2489 -0.000864192 0)
(20.249 -0.000574535 0)
(20.249 -0.000557327 0)
(20.2495 0.000107119 0)
(20.25 0.000546748 0)
(20.2506 0.00316814 0)
(20.2527 0.00881581 0)
(20.2589 0.0214926 0)
(20.2744 0.0493534 0)
(20.3152 0.106653 0)
(18.7851 -0.0107865 0)
(18.8161 -0.0201056 0)
(18.8621 -0.0229632 0)
(18.9134 -0.0257992 0)
(18.9671 -0.027906 0)
(19.0234 -0.0285241 0)
(19.0805 -0.0280982 0)
(19.1363 -0.0271388 0)
(19.189 -0.0259136 0)
(19.2389 -0.0245952 0)
(19.2861 -0.0232331 0)
(19.3306 -0.0218679 0)
(19.3723 -0.0206681 0)
(19.4114 -0.0196407 0)
(19.4486 -0.0189043 0)
(19.4846 -0.0182262 0)
(19.5193 -0.0176316 0)
(19.553 -0.0171938 0)
(19.5858 -0.0168611 0)
(19.6179 -0.0166768 0)
(19.6499 -0.01664 0)
(19.6819 -0.0166723 0)
(19.7141 -0.0167214 0)
(19.7464 -0.0167095 0)
(19.7785 -0.0165332 0)
(19.8101 -0.0162966 0)
(19.8413 -0.0160773 0)
(19.872 -0.0158346 0)
(19.902 -0.0155899 0)
(19.9317 -0.0155099 0)
(19.9612 -0.0155375 0)
(19.9909 -0.015766 0)
(20.0212 -0.016138 0)
(20.0523 -0.0164497 0)
(20.0845 -0.0167164 0)
(20.1172 -0.0165194 0)
(20.1484 -0.015532 0)
(20.1765 -0.013858 0)
(20.2004 -0.0116884 0)
(20.2197 -0.00931042 0)
(20.2344 -0.00702647 0)
(20.245 -0.00503225 0)
(20.2521 -0.00342714 0)
(20.2564 -0.00223419 0)
(20.2588 -0.00142829 0)
(20.2597 -0.00089861 0)
(20.26 -0.000443055 0)
(20.2597 1.14932e-05 0)