/*--------------------------------*- C++ -*----------------------------------*\
| =========                 |                                                 |
| \\      /  F ield         | OpenFOAM: The Open Source CFD Toolbox           |
|  \\    /   O peration     | Version:  v2012                                 |
|   \\  /    A nd           | Website:  www.openfoam.com                      |
|    \\/     M anipulation  |                                                 |
\*---------------------------------------------------------------------------*/
FoamFile
{
    version     2.0;
    format      ascii;
    class       volScalarField;
    location    "0.008";
    object      nut.air;
}
// * * * * * * * * * * * * * * * * * * * * * * * * * * * * * * * * * * * * * //

dimensions      [0 2 -1 0 0 0 0];


internalField   nonuniform List<scalar> 
1900
(
1.07825e-05
1.25664e-05
1.64264e-05
1.8888e-05
2.41656e-05
2.74279e-05
3.43692e-05
3.85181e-05
4.73487e-05
5.20914e-05
0.000159645
0.00016092
0.000158741
0.000160766
0.000158602
0.000161624
0.000159909
0.000164908
0.000168684
0.000185483
0.000160372
0.000159986
0.000159291
0.000159014
0.000158297
0.000158106
0.000157414
0.000157259
0.000156727
0.00015744
0.000160562
0.000159873
0.000159394
0.000159042
0.000158245
0.000158295
0.000157208
0.000157512
0.000156382
0.000156734
0.000160522
0.000159935
0.00015937
0.00015908
0.000158271
0.000158294
0.000157257
0.000157533
0.000156378
0.000156804
0.000160361
0.000160181
0.000159144
0.000159381
0.000158009
0.000158607
0.000156986
0.000157822
0.000156129
0.000157014
0.000160403
0.000160128
0.00015917
0.000159337
0.000158007
0.00015858
0.00015696
0.000157816
0.000156069
0.000157055
0.000160826
0.000159384
0.000159889
0.000158278
0.000158973
0.00015735
0.00015802
0.000156655
0.000157036
0.000156155
0.000160333
0.00016017
0.000159418
0.000159908
0.00015932
0.000160373
0.000160218
0.000161325
0.000160574
0.000160978
1.0739e-05
1.25161e-05
1.59051e-05
1.92021e-05
2.27658e-05
2.85398e-05
3.25269e-05
3.97581e-05
4.51716e-05
5.2841e-05
0.000205661
0.000865584
0.00186279
0.00161317
0.00088239
0.000574837
0.000363399
0.000266393
0.000227489
0.000210231
0.000201431
0.000196583
0.000193754
0.000191874
0.000190399
0.000189126
0.000187964
0.000186676
0.000184827
0.000181983
0.000178063
0.000173349
0.000168329
0.000163522
0.000159334
0.000155983
0.000153505
0.000151796
0.000150689
0.000150013
0.000149618
0.000149398
0.000149281
0.00014922
0.00014919
0.000149176
0.000149169
0.000149167
0.000149166
0.000149167
0.000149166
0.000149167
0.000149167
0.000149168
0.000149169
0.000149171
0.000149175
0.000149178
0.00014918
0.00014918
0.000149182
0.000149183
0.000149183
0.000149184
0.000149184
0.000149185
0.000149184
0.000149183
0.000149183
0.000149182
0.000149182
0.000149182
0.000149182
0.000149182
0.000149181
0.000149181
0.00014918
0.00014918
0.00014918
0.000149181
0.00014918
0.000149181
0.00014918
0.000149181
0.000149181
0.00014918
0.000149181
0.000149181
0.000149181
0.000149181
0.000149181
0.000149181
0.000149181
0.000149181
0.00014918
0.000149179
0.000149178
0.000149179
0.000149179
0.00014918
0.00014918
0.000149181
0.000149183
0.000149183
0.000149183
0.000149183
0.000149183
0.000149183
0.000149183
0.000149183
0.000223074
0.000335078
0.000500896
0.000480788
0.000359383
0.000258067
0.000214063
0.00019802
0.000191761
0.000188357
0.000186249
0.000185032
0.000184404
0.000184131
0.000184079
0.000184072
0.000183838
0.000183066
0.000181508
0.000179035
0.000175619
0.000171445
0.000166917
0.000162521
0.000158656
0.000155548
0.000153238
0.00015164
0.000150601
0.000149962
0.000149588
0.000149379
0.000149267
0.000149209
0.000149181
0.000149168
0.000149162
0.00014916
0.000149159
0.000149159
0.000149159
0.00014916
0.000149161
0.000149161
0.000149162
0.000149165
0.000149168
0.00014917
0.000149171
0.000149172
0.000149174
0.000149173
0.000149173
0.000149173
0.000149173
0.000149173
0.000149172
0.000149172
0.000149173
0.000149172
0.000149173
0.000149173
0.000149173
0.000149173
0.000149173
0.000149173
0.000149173
0.000149173
0.000149174
0.000149173
0.000149173
0.000149174
0.000149173
0.000149173
0.000149173
0.000149173
0.000149173
0.000149173
0.000149173
0.000149173
0.000149174
0.000149173
0.000149172
0.000149172
0.000149172
0.000149172
0.000149172
0.000149172
0.000149172
0.000149172
0.000149171
0.000149172
0.000149171
0.000149171
0.000149171
0.000149172
0.000149172
0.000149172
0.000149173
0.000149172
0.00016178
0.000200204
0.000205341
0.000201754
0.000186445
0.000182573
0.000181796
0.000182392
0.000183107
0.000182787
0.000182252
0.000181924
0.000181832
0.000181973
0.000182304
0.000182691
0.000182793
0.000182135
0.00018035
0.000177366
0.000173458
0.000169077
0.000164681
0.000160645
0.000157225
0.000154538
0.000152572
0.000151225
0.000150354
0.000149822
0.000149511
0.000149338
0.000149245
0.000149197
0.000149174
0.000149162
0.000149158
0.000149157
0.000149156
0.000149157
0.000149157
0.000149158
0.000149158
0.000149159
0.00014916
0.000149162
0.000149166
0.000149168
0.000149169
0.00014917
0.000149171
0.000149171
0.000149171
0.000149171
0.00014917
0.000149171
0.00014917
0.00014917
0.00014917
0.00014917
0.00014917
0.00014917
0.00014917
0.00014917
0.00014917
0.00014917
0.000149171
0.000149171
0.000149171
0.00014917
0.00014917
0.00014917
0.000149169
0.00014917
0.00014917
0.00014917
0.00014917
0.00014917
0.00014917
0.00014917
0.00014917
0.00014917
0.00014917
0.00014917
0.00014917
0.000149171
0.000149171
0.000149171
0.000149171
0.000149171
0.000149171
0.000149171
0.000149171
0.000149171
0.000149171
0.000149171
0.000149171
0.000149172
0.000149171
0.000149171
0.000155886
0.000158384
0.000160907
0.000162839
0.000166336
0.000170463
0.000175134
0.000178444
0.000181085
0.000181569
0.000181483
0.000181457
0.000181603
0.000181915
0.000182443
0.000183078
0.000183389
0.000182774
0.00018081
0.000177484
0.000173179
0.000168464
0.000163889
0.000159846
0.000156536
0.000154008
0.000152197
0.000150975
0.000150195
0.000149723
0.000149451
0.000149299
0.00014922
0.000149179
0.000149159
0.00014915
0.000149146
0.000149146
0.000149145
0.000149145
0.000149145
0.000149146
0.000149147
0.000149147
0.000149148
0.000149152
0.000149156
0.000149157
0.000149159
0.000149159
0.00014916
0.000149161
0.000149161
0.000149161
0.000149162
0.000149161
0.000149162
0.00014916
0.000149161
0.000149161
0.00014916
0.00014916
0.00014916
0.00014916
0.000149159
0.000149159
0.00014916
0.000149159
0.000149159
0.000149159
0.00014916
0.00014916
0.00014916
0.00014916
0.00014916
0.000149159
0.000149159
0.000149159
0.000149159
0.000149159
0.000149159
0.00014916
0.00014916
0.00014916
0.000149159
0.000149159
0.000149159
0.000149159
0.000149159
0.000149159
0.000149159
0.00014916
0.00014916
0.000149159
0.00014916
0.000149159
0.00014916
0.00014916
0.000149159
0.00014916
0.000155604
0.00015673
0.000156369
0.000158059
0.000162132
0.000166132
0.000173325
0.000176983
0.000180673
0.000182197
0.000183355
0.000184665
0.000185991
0.000187211
0.000188435
0.00018952
0.000189841
0.000188629
0.00018552
0.000180792
0.000175169
0.000169449
0.000164227
0.000159839
0.000156395
0.000153845
0.000152055
0.000150864
0.000150113
0.000149663
0.000149405
0.000149263
0.000149187
0.000149149
0.000149131
0.000149122
0.000149119
0.000149118
0.000149118
0.000149118
0.000149118
0.000149119
0.000149119
0.000149121
0.000149122
0.000149126
0.000149129
0.000149131
0.000149132
0.000149132
0.000149132
0.000149132
0.000149133
0.000149132
0.000149133
0.000149132
0.000149131
0.000149132
0.000149131
0.000149131
0.000149131
0.000149131
0.000149131
0.000149132
0.000149131
0.000149131
0.000149131
0.000149131
0.000149131
0.000149131
0.000149131
0.000149132
0.000149132
0.000149131
0.000149132
0.000149132
0.000149131
0.000149132
0.000149132
0.000149132
0.000149132
0.000149132
0.000149132
0.000149132
0.000149132
0.000149132
0.000149132
0.000149133
0.000149134
0.000149134
0.000149134
0.000149135
0.000149135
0.000149134
0.000149134
0.000149134
0.000149134
0.000149134
0.000149133
0.000149133
0.0001553
0.000156425
0.000155708
0.000156545
0.000160653
0.000164768
0.000172475
0.000180884
0.000186115
0.000193042
0.000199195
0.000205188
0.000210393
0.000213647
0.000215701
0.000216471
0.000215083
0.00021065
0.000203194
0.000193776
0.000183913
0.000174848
0.000167296
0.000161461
0.000157192
0.000154201
0.000152187
0.000150888
0.000150087
0.000149613
0.000149345
0.000149199
0.000149122
0.000149084
0.000149066
0.000149058
0.000149054
0.000149054
0.000149053
0.000149054
0.000149055
0.000149055
0.000149056
0.000149056
0.000149057
0.000149061
0.000149063
0.000149065
0.000149066
0.000149067
0.000149068
0.000149068
0.000149068
0.000149067
0.000149067
0.000149067
0.000149066
0.000149067
0.000149067
0.000149067
0.000149067
0.000149067
0.000149067
0.000149067
0.000149068
0.000149067
0.000149067
0.000149066
0.000149067
0.000149067
0.000149066
0.000149066
0.000149066
0.000149066
0.000149065
0.000149064
0.000149063
0.000149064
0.000149063
0.000149063
0.000149064
0.000149064
0.000149064
0.000149066
0.000149069
0.000149068
0.000149069
0.000149068
0.000149068
0.000149068
0.000149068
0.000149067
0.000149068
0.000149068
0.000149067
0.000149068
0.000149067
0.000149067
0.000149066
0.000149067
0.000155093
0.00015649
0.000154941
0.000155999
0.000160227
0.000166517
0.000181219
0.000205387
0.000223226
0.000245883
0.000267218
0.000276998
0.000284479
0.000290962
0.000293129
0.000291595
0.000284783
0.000271707
0.000253357
0.000232213
0.000211263
0.000192975
0.000178568
0.000168071
0.000160859
0.000156123
0.000153126
0.000151288
0.000150195
0.000149566
0.000149214
0.000149024
0.000148924
0.000148874
0.000148849
0.000148839
0.000148835
0.000148833
0.000148833
0.000148832
0.000148832
0.000148833
0.000148833
0.000148834
0.000148837
0.000148841
0.000148843
0.000148845
0.000148846
0.000148846
0.000148848
0.000148847
0.000148846
0.000148846
0.000148845
0.000148845
0.000148845
0.000148845
0.000148845
0.000148845
0.000148845
0.000148845
0.000148845
0.000148845
0.000148844
0.000148845
0.000148845
0.000148845
0.000148845
0.000148845
0.000148845
0.000148845
0.000148845
0.000148845
0.000148845
0.000148845
0.000148845
0.000148845
0.000148844
0.000148844
0.000148844
0.000148844
0.000148844
0.000148844
0.000148844
0.000148845
0.000148845
0.000148845
0.000148845
0.000148845
0.000148845
0.000148845
0.000148845
0.000148845
0.000148845
0.000148845
0.000148846
0.000148846
0.000148845
0.000148842
0.000156134
0.000155913
0.000154779
0.000158498
0.000168934
0.000196773
0.000251403
0.000308948
0.000346633
0.000388051
0.000416702
0.000425683
0.000436311
0.000445891
0.000450131
0.000446011
0.000428407
0.000397268
0.000357091
0.000313535
0.000271663
0.000235217
0.000206107
0.000184572
0.000169739
0.000160086
0.000154029
0.000150334
0.000148136
0.000146846
0.000146096
0.000145689
0.000145467
0.000145352
0.000145295
0.000145259
0.000145257
0.000145265
0.000145272
0.000145277
0.00014528
0.000145283
0.000145286
0.000145287
0.000145288
0.000145289
0.000145289
0.00014529
0.00014529
0.00014529
0.00014529
0.00014529
0.000145289
0.000145289
0.000145288
0.000145288
0.000145287
0.000145287
0.000145287
0.000145287
0.000145287
0.000145287
0.000145287
0.000145287
0.000145286
0.000145286
0.000145286
0.000145286
0.000145286
0.000145286
0.000145286
0.000145286
0.000145286
0.000145286
0.000145286
0.000145286
0.000145285
0.000145285
0.000145285
0.000145285
0.000145286
0.000145285
0.000145285
0.000145286
0.000145286
0.000145286
0.000145286
0.000145286
0.000145286
0.000145286
0.000145286
0.000145285
0.000145285
0.000145284
0.000145283
0.000145283
0.000145285
0.000145287
0.00014529
0.000145302
0.000159209
0.000158441
0.00016855
0.000208675
0.000283856
0.000382563
0.000479888
0.000533193
0.000583649
0.000618684
0.000631762
0.000650927
0.000666279
0.000681699
0.000697939
0.000696681
0.000653893
0.000584913
0.000499491
0.000417425
0.000345636
0.000287196
0.00024211
0.000208902
0.000186531
0.000172897
0.000164335
0.000159185
0.000156287
0.000154752
0.000153969
0.000153519
0.00015331
0.000153363
0.000153627
0.000153904
0.000154123
0.000154276
0.000154377
0.000154438
0.000154474
0.000154494
0.000154506
0.000154511
0.000154514
0.000154515
0.000154516
0.000154516
0.000154516
0.000154517
0.000154518
0.000154517
0.000154518
0.000154518
0.000154518
0.000154518
0.000154518
0.000154519
0.000154519
0.000154518
0.000154518
0.000154518
0.000154518
0.000154518
0.000154518
0.000154518
0.000154518
0.000154518
0.000154518
0.000154518
0.000154518
0.000154518
0.000154518
0.000154516
0.000154516
0.000154516
0.000154516
0.000154516
0.000154515
0.000154515
0.000154515
0.000154516
0.000154515
0.000154515
0.000154515
0.000154515
0.000154516
0.000154516
0.000154516
0.000154516
0.000154517
0.000154517
0.000154518
0.000154521
0.000154527
0.000154538
0.000154562
0.000154627
0.000154682
0.000155173
6.09409e-05
7.16814e-05
8.5246e-05
0.000100858
0.000121855
0.000145048
0.00017154
0.000189623
0.000202081
0.000208755
0.00020817
0.000203961
0.000197888
0.000191362
0.000184929
0.000178586
0.000172511
0.000166848
0.000161832
0.000158096
0.000156261
0.000155493
0.000155119
0.000155744
0.000157301
0.000158914
0.000160382
0.000161589
0.000162504
0.000163153
0.000163589
0.000163866
0.000164029
0.000164112
0.000164147
0.000164159
0.000164163
0.000164164
0.000164164
0.000164164
0.000164164
0.000164164
0.000164165
0.000164165
0.000164165
0.000164165
0.000164165
0.000164166
0.000164166
0.000164166
0.000164166
0.000164165
0.000164166
0.000164166
0.000164166
0.000164166
0.000164166
0.000164166
0.000164166
0.000164166
0.000164166
0.000164166
0.000164166
0.000164166
0.000164166
0.000164166
0.000164166
0.000164166
0.000164166
0.000164166
0.000164166
0.000164166
0.000164166
0.000164166
0.000164165
0.000164165
0.000164165
0.000164165
0.000164165
0.000164166
0.000164166
0.000164166
0.000164166
0.000164166
0.000164166
0.000164166
0.000164166
0.000164166
0.000164166
0.000164166
0.000164167
0.000164167
0.000164167
0.000164167
0.000164167
0.000164168
0.000164168
0.000164174
0.00016417
0.000164189
0.000277212
0.00119407
0.00132359
0.00164125
0.00153481
0.00125449
0.000956521
0.000389544
0.00111148
0.00250509
0.00311174
0.00322331
0.00320034
0.00265113
0.00152726
0.000408663
0.00271731
0.00322445
0.00364315
0.00378513
0.00389966
0.0037325
0.00274168
0.000383509
0.00333785
0.00321047
0.0034782
0.00376998
0.00389145
0.00395154
0.00331277
0.000377535
0.00232349
0.00310605
0.00309178
0.00323258
0.00331966
0.00331525
0.00315813
0.000446322
0.00108079
0.00196312
0.00226739
0.00239373
0.00253403
0.00248989
0.00233432
0.000491303
0.000655443
0.001044
0.00141317
0.00155187
0.0017862
0.00189889
0.00189914
0.000672106
0.000424001
0.000666327
0.000986912
0.0011248
0.00139737
0.00167704
0.00170681
0.00058176
0.000315704
0.000479594
0.000772162
0.000965627
0.00126049
0.00161583
0.00161723
0.00037157
0.000265486
0.00037883
0.000599217
0.000917091
0.00122503
0.00159288
0.00153494
0.000229557
0.000239977
0.000323436
0.000502035
0.000815705
0.0012087
0.00154377
0.00140696
0.000171744
0.000225721
0.000290503
0.000439586
0.000712733
0.00116773
0.00141977
0.00125641
0.000142508
0.000216864
0.000268511
0.000392828
0.000632241
0.00104964
0.0012708
0.0011117
0.000126616
0.000210459
0.000251678
0.000353727
0.000559756
0.000925458
0.00113315
0.000981009
0.000118076
0.000205228
0.000237666
0.00031934
0.000492558
0.000807914
0.00100929
0.000867605
0.000113611
0.000200848
0.000225866
0.000289472
0.000432894
0.000704077
0.000903238
0.000773413
0.000111039
0.0001972
0.000216095
0.000264749
0.000383568
0.000619148
0.000816865
0.000696059
0.000110958
0.000193902
0.000208004
0.000245429
0.000345697
0.000553486
0.000741272
0.000626881
0.000113056
0.000190373
0.00020108
0.000230957
0.000317917
0.000502381
0.000666525
0.000557687
0.000115968
0.000186232
0.000194835
0.000220039
0.000297011
0.000458279
0.000583688
0.000484802
0.000119484
0.000181445
0.000188848
0.00021107
0.000279256
0.000415885
0.000499664
0.00040927
0.000123317
0.000176203
0.000182817
0.000202637
0.000261573
0.0003722
0.000420681
0.000338602
0.000127056
0.000170811
0.000176641
0.000193912
0.000242568
0.000326681
0.000346315
0.000271498
0.000130253
0.000165629
0.000170523
0.000184862
0.000222747
0.000282233
0.000281913
0.000225154
0.000132706
0.000161016
0.000164877
0.000176059
0.000203667
0.00024266
0.000230647
0.000195159
0.000134438
0.00015723
0.000160087
0.000168239
0.000187037
0.000210599
0.000192784
0.000176749
0.000135578
0.000154365
0.000156347
0.000161911
0.000173888
0.000186872
0.000166686
0.00016603
0.000136285
0.000152351
0.000153643
0.00015721
0.00016436
0.000170689
0.000149786
0.000160113
0.0001367
0.000151027
0.000151817
0.000153968
0.000157962
0.000160377
0.000139431
0.000157049
0.000136931
0.000150205
0.000150655
0.000151872
0.000153939
0.000154181
0.000133356
0.000155586
0.000137055
0.00014972
0.000149952
0.000150592
0.00015155
0.00015064
0.000129925
0.000154947
0.000137118
0.000149446
0.000149548
0.000149848
0.000150198
0.000148702
0.000128086
0.000154652
0.000137149
0.000149297
0.000149323
0.000149434
0.000149465
0.000147679
0.000127098
0.000154611
0.000137163
0.00014922
0.000149204
0.000149213
0.000149082
0.000147156
0.000126574
0.000154653
0.000137169
0.000149181
0.000149143
0.000149099
0.00014889
0.000146896
0.000126306
0.000154703
0.000137172
0.000149162
0.000149114
0.000149043
0.000148796
0.00014677
0.000126171
0.000154747
0.000137173
0.000149154
0.0001491
0.000149016
0.000148752
0.000146711
0.000126103
0.00015478
0.000137173
0.000149151
0.000149094
0.000149004
0.000148733
0.000146684
0.000126069
0.000154804
0.000137173
0.000149149
0.000149092
0.000148999
0.000148724
0.000146672
0.000126052
0.000154818
0.000137173
0.000149149
0.000149092
0.000148998
0.000148721
0.000146667
0.000126044
0.000154828
0.000137173
0.00014915
0.000149092
0.000148997
0.00014872
0.000146665
0.00012604
0.000154834
0.000137173
0.00014915
0.000149093
0.000148998
0.00014872
0.000146665
0.000126037
0.000154836
0.000137173
0.000149151
0.000149093
0.000148998
0.00014872
0.000146664
0.000126036
0.000154839
0.000137173
0.000149151
0.000149094
0.000148999
0.00014872
0.000146664
0.000126035
0.00015484
0.000137173
0.000149152
0.000149094
0.000148999
0.000148721
0.000146665
0.000126035
0.000154841
0.000137173
0.000149155
0.000149095
0.000149
0.000148722
0.000146665
0.000126034
0.000154842
0.000137173
0.000149158
0.000149098
0.000149002
0.000148722
0.000146665
0.000126034
0.000154842
0.000137173
0.00014916
0.000149102
0.000149004
0.000148726
0.000146667
0.000126034
0.000154844
0.000137173
0.000149162
0.000149102
0.000149006
0.000148727
0.000146671
0.000126034
0.000154844
0.000137173
0.000149162
0.000149102
0.000149007
0.000148727
0.000146672
0.000126034
0.000154844
0.000137173
0.000149164
0.000149103
0.000149007
0.000148728
0.000146674
0.000126034
0.000154844
0.000137173
0.000149165
0.000149103
0.000149008
0.000148729
0.000146673
0.000126033
0.000154844
0.000137173
0.000149165
0.000149103
0.000149008
0.000148729
0.000146673
0.000126033
0.000154844
0.000137173
0.000149166
0.000149104
0.000149008
0.00014873
0.000146673
0.000126033
0.000154845
0.000137173
0.000149166
0.000149104
0.000149008
0.000148729
0.000146673
0.000126033
0.000154845
0.000137173
0.000149165
0.000149103
0.000149008
0.000148729
0.000146673
0.000126033
0.000154845
0.000137173
0.000149165
0.000149103
0.000149008
0.000148729
0.000146673
0.000126033
0.000154845
0.000137173
0.000149164
0.000149103
0.000149008
0.000148729
0.000146671
0.000126032
0.000154845
0.000137173
0.000149164
0.000149103
0.000149009
0.00014873
0.000146672
0.000126032
0.000154845
0.000137173
0.000149165
0.000149103
0.000149008
0.00014873
0.000146672
0.000126032
0.000154845
0.000137173
0.000149165
0.000149103
0.000149008
0.00014873
0.000146672
0.000126032
0.000154845
0.000137173
0.000149163
0.000149103
0.000149009
0.00014873
0.000146672
0.000126032
0.000154845
0.000137173
0.000149164
0.000149104
0.000149008
0.00014873
0.000146671
0.000126032
0.000154845
0.000137173
0.000149162
0.000149103
0.000149008
0.000148731
0.000146671
0.000126032
0.000154844
0.000137173
0.000149163
0.000149103
0.000149008
0.00014873
0.000146671
0.000126032
0.000154844
0.000137173
0.000149163
0.000149103
0.000149008
0.00014873
0.000146671
0.000126031
0.000154844
0.000137173
0.000149163
0.000149103
0.000149009
0.000148731
0.000146671
0.000126032
0.000154844
0.000137173
0.000149163
0.000149103
0.000149009
0.000148731
0.000146671
0.000126031
0.000154844
0.000137173
0.000149163
0.000149103
0.00014901
0.000148731
0.000146671
0.000126031
0.000154843
0.000137173
0.000149163
0.000149103
0.000149009
0.000148731
0.000146671
0.000126031
0.000154844
0.000137173
0.000149162
0.000149103
0.00014901
0.000148731
0.000146671
0.000126032
0.000154844
0.000137173
0.000149163
0.000149103
0.00014901
0.000148731
0.000146671
0.000126032
0.000154844
0.000137173
0.000149163
0.000149103
0.00014901
0.000148731
0.000146672
0.000126032
0.000154843
0.000137173
0.000149163
0.000149103
0.00014901
0.000148731
0.000146671
0.000126032
0.000154843
0.000137173
0.000149164
0.000149103
0.00014901
0.000148731
0.000146672
0.000126032
0.000154844
0.000137173
0.000149164
0.000149103
0.00014901
0.000148731
0.000146671
0.000126032
0.000154843
0.000137173
0.000149163
0.000149103
0.00014901
0.000148731
0.000146671
0.000126032
0.000154843
0.000137173
0.000149163
0.000149104
0.00014901
0.000148731
0.000146672
0.000126032
0.000154843
0.000137173
0.000149164
0.000149105
0.00014901
0.000148731
0.000146672
0.000126032
0.000154843
0.000137173
0.000149163
0.000149105
0.00014901
0.000148731
0.000146672
0.000126031
0.000154843
0.000137173
0.000149164
0.000149105
0.00014901
0.000148731
0.000146672
0.000126031
0.000154843
0.000137173
0.000149164
0.000149105
0.00014901
0.000148732
0.000146672
0.000126031
0.000154843
0.000137173
0.000149163
0.000149105
0.00014901
0.000148732
0.000146672
0.000126031
0.000154843
0.000137173
0.000149164
0.000149105
0.00014901
0.000148732
0.000146672
0.000126031
0.000154843
0.000137173
0.000149163
0.000149105
0.00014901
0.000148732
0.000146672
0.000126031
0.000154843
0.000137173
0.000149164
0.000149106
0.000149011
0.000148732
0.000146672
0.000126031
0.000154843
0.000137173
0.000149164
0.000149105
0.000149011
0.000148732
0.000146672
0.000126031
0.000154843
0.000137173
0.000149163
0.000149105
0.000149011
0.000148732
0.000146672
0.000126031
0.000154843
0.000137173
0.000149163
0.000149105
0.000149012
0.000148732
0.000146672
0.000126031
0.000154842
0.000137173
0.000149164
0.000149105
0.000149011
0.000148732
0.000146672
0.000126031
0.000154843
0.000137173
0.000149164
0.000149105
0.000149011
0.000148733
0.000146672
0.000126032
0.000154843
0.000137173
0.000149164
0.000149105
0.000149011
0.000148732
0.000146673
0.000126032
0.000154843
0.000137173
0.000149165
0.000149105
0.000149011
0.000148732
0.000146673
0.000126032
0.000154844
0.000137172
0.000149164
0.000149105
0.000149011
0.000148733
0.000146674
0.000126033
0.000154844
0.000137172
0.000149164
0.000149105
0.00014901
0.000148733
0.000146674
0.000126033
0.000154843
0.000137171
0.000149165
0.000149106
0.000149011
0.000148733
0.000146674
0.000126034
0.000154841
0.000137169
0.000149164
0.000149105
0.00014901
0.000148733
0.000146674
0.000126035
0.000154837
0.000137166
0.000149165
0.000149105
0.00014901
0.000148733
0.000146674
0.000126037
0.000154833
0.00013716
0.000149165
0.000149106
0.00014901
0.000148732
0.000146675
0.000126041
0.000154821
0.000137133
0.000149166
0.000149106
0.000149011
0.00014873
0.000146678
0.000126057
0.00015478
0.000137109
)
;

boundaryField
{
    frontAndBack
    {
        type            empty;
    }
    inlet
    {
        type            calculated;
        value           nonuniform List<scalar> 10(9.5477e-06 0.000160714 0.000160714 0.000160714 0.000160714 0.000160714 0.000160714 0.000160714 0.000160714 9.54747e-06);
    }
    outlet
    {
        type            calculated;
        value           nonuniform List<scalar> 
18
(
0.000149166
0.000149106
0.000149011
0.00014873
0.000146678
0.000126057
0.00015478
0.000173159
0.000149183
0.000149172
0.000149171
0.00014916
0.000149133
0.000149067
0.000148842
0.000145302
0.000155173
0.000172183
)
;
    }
    walls
    {
        type            nutkWallFunction;
        blending        stepwise;
        Cmu             0.09;
        kappa           0.41;
        E               9.8;
        value           nonuniform List<scalar> 
228
(
2.20335e-05
2.44558e-05
2.91023e-05
3.17396e-05
3.68038e-05
3.96152e-05
4.50051e-05
4.79373e-05
5.34442e-05
5.65167e-05
0.000304644
0.000327476
0.000340309
0.000352671
0.000358673
0.000351103
0.000309969
6.37174e-05
6.37174e-05
9.09831e-05
0.000100132
0.000103069
0.000103831
8.99725e-05
8.05105e-05
6.97904e-05
6.36034e-05
5.87291e-05
5.4968e-05
5.2306e-05
5.07073e-05
4.99968e-05
4.98893e-05
5.00557e-05
5.07235e-05
5.18484e-05
5.30891e-05
5.43906e-05
5.56875e-05
5.689e-05
5.79042e-05
5.86954e-05
5.92773e-05
5.96835e-05
5.99547e-05
6.01296e-05
6.02399e-05
6.03082e-05
6.035e-05
6.03751e-05
6.039e-05
6.03989e-05
6.04042e-05
6.04072e-05
6.04091e-05
6.04101e-05
6.04107e-05
6.0411e-05
6.04112e-05
6.04113e-05
6.04114e-05
6.04114e-05
6.04114e-05
6.04115e-05
6.04115e-05
6.04115e-05
6.04115e-05
6.04115e-05
6.04115e-05
6.04115e-05
6.04115e-05
6.04115e-05
6.04115e-05
6.04115e-05
6.04115e-05
6.04115e-05
6.04115e-05
6.04115e-05
6.04115e-05
6.04115e-05
6.04115e-05
6.04115e-05
6.04115e-05
6.04115e-05
6.04115e-05
6.04115e-05
6.04115e-05
6.04115e-05
6.04115e-05
6.04115e-05
6.04115e-05
6.04115e-05
6.04114e-05
6.04114e-05
6.04114e-05
6.04114e-05
6.04114e-05
6.04114e-05
6.04114e-05
6.04114e-05
6.04114e-05
6.04114e-05
6.04114e-05
6.04114e-05
6.04114e-05
6.04114e-05
6.04114e-05
6.04114e-05
6.04114e-05
6.04114e-05
6.04114e-05
6.04114e-05
6.04113e-05
6.04113e-05
6.04112e-05
6.04112e-05
6.04083e-05
6.04116e-05
2.19717e-05
2.43906e-05
2.85149e-05
3.20673e-05
3.55358e-05
4.0561e-05
4.37059e-05
4.89129e-05
5.25104e-05
5.72482e-05
6.19732e-05
6.78013e-05
7.41887e-05
8.00128e-05
8.56878e-05
8.96833e-05
9.26779e-05
9.31062e-05
9.2652e-05
9.14301e-05
8.93114e-05
8.70259e-05
8.47964e-05
8.28236e-05
8.11252e-05
7.95728e-05
7.81658e-05
7.69128e-05
7.58317e-05
7.50666e-05
7.47845e-05
7.47917e-05
7.49195e-05
7.53049e-05
7.59188e-05
7.65236e-05
7.70559e-05
7.74848e-05
7.78063e-05
7.80334e-05
7.81861e-05
7.8284e-05
7.83431e-05
7.83756e-05
7.83913e-05
7.83988e-05
7.84022e-05
7.84039e-05
7.84047e-05
7.84051e-05
7.84054e-05
7.84055e-05
7.84056e-05
7.84057e-05
7.84057e-05
7.84058e-05
7.84058e-05
7.84059e-05
7.84059e-05
7.84059e-05
7.84059e-05
7.84059e-05
7.84059e-05
7.84059e-05
7.8406e-05
7.8406e-05
7.8406e-05
7.8406e-05
7.8406e-05
7.8406e-05
7.8406e-05
7.8406e-05
7.84061e-05
7.84061e-05
7.84061e-05
7.84059e-05
7.8406e-05
7.8406e-05
7.8406e-05
7.8406e-05
7.8406e-05
7.8406e-05
7.8406e-05
7.84059e-05
7.84057e-05
7.84058e-05
7.84058e-05
7.84058e-05
7.84058e-05
7.84058e-05
7.84059e-05
7.84059e-05
7.84059e-05
7.84059e-05
7.84059e-05
7.84059e-05
7.84059e-05
7.8406e-05
7.8406e-05
7.8406e-05
7.8406e-05
7.8406e-05
7.8406e-05
7.84059e-05
7.84058e-05
7.84055e-05
7.84052e-05
7.84041e-05
7.84033e-05
7.83978e-05
)
;
    }
}


// ************************************************************************* //
