/*--------------------------------*- C++ -*----------------------------------*\
| =========                 |                                                 |
| \\      /  F ield         | OpenFOAM: The Open Source CFD Toolbox           |
|  \\    /   O peration     | Version:  v2012                                 |
|   \\  /    A nd           | Website:  www.openfoam.com                      |
|    \\/     M anipulation  |                                                 |
\*---------------------------------------------------------------------------*/
FoamFile
{
    version     2.0;
    format      ascii;
    class       Cloud<basicKinematicParcel>;
    location    "0.068/lagrangian/kinematicCloud";
    object      coordinates;
}
// * * * * * * * * * * * * * * * * * * * * * * * * * * * * * * * * * * * * * //

38
(
(0.261933 0.193289 0.369033 0.175745) 1040 7668 2
(0.601294 0.114298 0.0850554 0.199353) 1691 7591 1
(0.177007 0.278179 0.133318 0.411496) 1082 2047 2
(0.639584 0.180208 0.0591874 0.12102) 999 1881 1
(0.378819 0.0898725 0.220718 0.31059) 1894 3667 1
(0.563344 0.218328 0.0854779 0.13285) 1060 2141 2
(0.616721 0.151751 0.0398883 0.19164) 796 1478 2
(0.324495 0.337753 0.0856436 0.252109) 1799 3489 2
(0.216836 0.391582 0.136835 0.254746) 191 463 2
(0.53086 0.23457 0.0698209 0.164749) 790 1664 2
(0.156635 0.295589 0.421683 0.126094) 1758 3415 2
(0.0894072 0.237778 0.217519 0.455296) 886 1657 2
(0.101776 0.122787 0.326325 0.449112) 1632 3178 1
(0.0361395 0.145355 0.336575 0.48193) 881 1845 1
(0.376661 0.0871022 0.224567 0.31167) 1513 2955 1
(0.725163 0.0115467 0.137418 0.125872) 1663 3237 2
(0.917144 0.0369243 0.0414281 0.00450387) 1044 2124 1
(0.143182 0.428409 0.325241 0.103168) 474 1036 1
(0.461652 0.269174 0.26457 0.00460397) 1668 3245 2
(0.759624 0.0689659 0.120188 0.051222) 671 1428 2
(0.445172 0.277414 0.151805 0.125609) 268 626 1
(0.196688 0.0486872 0.352969 0.401656) 265 619 1
(0.310607 0.0974588 0.344697 0.247238) 663 1412 2
(0.353594 0.323203 0.224523 0.0986797) 1439 2816 2
(0.346847 0.257617 0.0689602 0.326577) 157 361 1
(0.37203 0.313985 0.0408848 0.2731) 656 1395 2
(0.140025 0.429988 0.235869 0.194118) 1509 2945 2
(0.175933 0.412033 0.0873643 0.324669) 150 342 2
(0.648659 0.175671 0.161308 0.0143628) 248 583 2
(0.213252 0.393374 0.08733 0.306044) 646 1179 1
(0.282279 0.0412673 0.358861 0.317593) 843 1767 1
(0.54986 0.22507 0.0977581 0.127312) 441 967 2
(0.322247 0.0463526 0.338877 0.292524) 338 765 2
(0.452258 0.273871 0.0859333 0.187938) 836 1753 2
(0.867811 0.0660944 0.0617332 0.00436113) 1356 2661 1
(0.270519 0.212578 0.152162 0.36474) 331 552 2
(0.502351 0.199461 0.0493637 0.248824) 928 1938 1
(0.145555 0.427223 0.0638118 0.363411) 1244 2450 2
)


// ************************************************************************* //
