/*--------------------------------*- C++ -*----------------------------------*\
| =========                 |                                                 |
| \\      /  F ield         | OpenFOAM: The Open Source CFD Toolbox           |
|  \\    /   O peration     | Version:  v2012                                 |
|   \\  /    A nd           | Website:  www.openfoam.com                      |
|    \\/     M anipulation  |                                                 |
\*---------------------------------------------------------------------------*/
FoamFile
{
    version     2.0;
    format      ascii;
    class       volScalarField;
    location    "0.363";
    object      k.air;
}
// * * * * * * * * * * * * * * * * * * * * * * * * * * * * * * * * * * * * * //

dimensions      [0 2 -2 0 0 0 0];


internalField   nonuniform List<scalar> 
5600
(
0.606305
0.840806
0.955129
0.978152
0.949176
0.897589
0.839551
0.787281
0.743284
0.707302
0.67933
0.658388
0.643338
0.632664
0.62531
0.620032
0.616298
0.61328
0.610971
0.608788
0.607124
0.605413
0.604253
0.603088
0.602461
0.601744
0.601452
0.601023
0.600894
0.600562
0.600427
0.600036
0.599811
0.599334
0.599047
0.598523
0.598211
0.597674
0.597368
0.596846
0.596574
0.596094
0.595878
0.595449
0.595304
0.594942
0.594866
0.594555
0.594539
0.594258
0.594298
0.594044
0.594123
0.593908
0.594041
0.593855
0.594049
0.5939
0.594151
0.594047
0.594363
0.594281
0.594668
0.594604
0.595056
0.595008
0.595528
0.595487
0.596078
0.596036
0.596704
0.596653
0.597407
0.59734
0.598182
0.598092
0.599026
0.598912
0.599927
0.599793
0.600869
0.60074
0.601824
0.601766
0.602747
0.602917
0.603556
0.60431
0.604079
0.606239
0.603959
0.609303
0.602123
0.615267
0.5952
0.630209
0.571139
0.676609
0.478105
0.841997
0.371636
0.31557
0.288652
0.275675
0.274956
0.284664
0.307347
0.344957
0.387098
0.430224
0.471449
0.509008
0.541772
0.569433
0.591942
0.609764
0.623521
0.633879
0.641778
0.647728
0.6526
0.656355
0.660048
0.662976
0.665959
0.668036
0.670339
0.671698
0.673317
0.673902
0.67491
0.674952
0.675595
0.675397
0.675883
0.675586
0.676003
0.675679
0.67609
0.675796
0.676255
0.676025
0.676562
0.676408
0.677021
0.67688
0.677513
0.677341
0.677983
0.677791
0.678461
0.678262
0.679006
0.678802
0.679638
0.679456
0.680402
0.680226
0.681291
0.681098
0.682266
0.682057
0.683331
0.683082
0.684467
0.684164
0.68566
0.685294
0.686907
0.686474
0.688232
0.687698
0.68963
0.688971
0.691101
0.690293
0.692634
0.691654
0.694194
0.693036
0.695745
0.694449
0.697247
0.69594
0.698642
0.697619
0.6998
0.699716
0.700421
0.702696
0.69973
0.707636
0.696123
0.716934
0.68589
0.736375
0.65888
0.780829
0.585146
0.884445
0.369154
0.281892
0.227745
0.192983
0.168605
0.153778
0.145625
0.143611
0.146976
0.155085
0.16704
0.181947
0.199279
0.218576
0.239126
0.260635
0.282472
0.304543
0.326398
0.348231
0.36953
0.390359
0.409295
0.425532
0.439954
0.452045
0.463016
0.471869
0.480051
0.486548
0.49284
0.497681
0.502731
0.506464
0.510607
0.513513
0.516994
0.519323
0.522361
0.524313
0.52706
0.52875
0.531289
0.532745
0.535131
0.536367
0.538572
0.539592
0.541662
0.542516
0.54451
0.545241
0.547217
0.547856
0.549847
0.550407
0.552431
0.552902
0.554965
0.55533
0.557438
0.557687
0.559855
0.559971
0.562226
0.562193
0.56455
0.564374
0.566856
0.566535
0.56916
0.568678
0.57148
0.570799
0.573811
0.572884
0.576138
0.574917
0.578424
0.576885
0.580653
0.5788
0.582811
0.580704
0.584879
0.582671
0.586795
0.584827
0.588411
0.587395
0.589411
0.590838
0.589128
0.596204
0.586089
0.60562
0.577161
0.622898
0.557504
0.637002
0.370113
0.280628
0.224134
0.186022
0.158587
0.138157
0.122998
0.111304
0.102969
0.0969403
0.0936029
0.0922563
0.0930014
0.0953015
0.0995268
0.105274
0.112839
0.121907
0.132835
0.145241
0.159468
0.175124
0.192522
0.210422
0.229132
0.247348
0.265544
0.281943
0.297794
0.311724
0.325212
0.336659
0.347913
0.357359
0.366862
0.374685
0.382845
0.389457
0.396612
0.402243
0.40853
0.413241
0.418718
0.42262
0.42737
0.430484
0.434679
0.437284
0.441127
0.443366
0.446979
0.448946
0.45241
0.454153
0.45751
0.45902
0.462276
0.463554
0.466734
0.467788
0.470925
0.471761
0.474892
0.475515
0.478678
0.479093
0.482322
0.482532
0.485867
0.485861
0.489328
0.489099
0.492723
0.492227
0.496038
0.495229
0.499279
0.498109
0.502426
0.500857
0.505467
0.503489
0.50841
0.506049
0.511251
0.508594
0.513964
0.511199
0.516463
0.513995
0.518582
0.517238
0.519991
0.521469
0.520069
0.527256
0.518403
0.533775
0.51811
0.529886
0.370313
0.280746
0.224422
0.185997
0.15848
0.137583
0.121617
0.108657
0.0984702
0.0898358
0.0830883
0.077248
0.0729472
0.0691145
0.0667067
0.0645288
0.0638724
0.0633795
0.0644588
0.0657046
0.0687405
0.0720834
0.0775137
0.0834044
0.0915144
0.100077
0.110742
0.121461
0.133827
0.145995
0.159488
0.172597
0.186581
0.199242
0.212509
0.224214
0.236451
0.247009
0.258148
0.267555
0.277616
0.285901
0.29507
0.302339
0.310579
0.316814
0.324203
0.329586
0.336328
0.341051
0.34731
0.351492
0.357339
0.361007
0.366452
0.369555
0.374629
0.377268
0.382074
0.38431
0.388923
0.390802
0.395287
0.396845
0.401265
0.40253
0.406935
0.407925
0.412354
0.41306
0.417539
0.417931
0.422474
0.422532
0.42717
0.426883
0.431638
0.430923
0.435845
0.434729
0.439867
0.438358
0.443733
0.441862
0.447444
0.445314
0.450983
0.448759
0.454297
0.452299
0.457279
0.456094
0.459775
0.460306
0.461718
0.464737
0.463673
0.46796
0.467838
0.465876
0.370348
0.280771
0.224557
0.186151
0.15871
0.137827
0.121897
0.108838
0.0985819
0.0896292
0.0825936
0.0760541
0.0710608
0.0660762
0.0624968
0.0585945
0.0560816
0.0530265
0.0514007
0.0490504
0.0482316
0.046573
0.0465945
0.0457564
0.0467742
0.0469293
0.049125
0.050526
0.0541091
0.0569744
0.0621195
0.0666091
0.0734581
0.0794749
0.0877297
0.0949881
0.104326
0.112439
0.122517
0.131162
0.141765
0.150719
0.161294
0.170036
0.180354
0.188643
0.198497
0.206164
0.215455
0.222445
0.231171
0.237499
0.245699
0.251421
0.25926
0.264425
0.271827
0.276411
0.283403
0.28744
0.294093
0.297637
0.304031
0.307144
0.313353
0.31608
0.322148
0.324508
0.330445
0.332435
0.338232
0.339774
0.345441
0.346587
0.352181
0.352959
0.358519
0.358928
0.364457
0.364539
0.370054
0.369868
0.375349
0.374982
0.380365
0.379947
0.385105
0.384815
0.389549
0.389639
0.393672
0.394445
0.397488
0.399144
0.401167
0.403413
0.405132
0.406682
0.409586
0.408838
0.370353
0.280767
0.224583
0.186187
0.158786
0.137912
0.122032
0.108969
0.0987626
0.0897844
0.0827774
0.0761729
0.0711552
0.0660373
0.062353
0.0582196
0.0554867
0.0520354
0.0500224
0.0470638
0.0456242
0.0430394
0.0420843
0.0398093
0.0393005
0.0373078
0.0372352
0.0355335
0.0359295
0.0345666
0.035507
0.0345893
0.0361618
0.0358119
0.0381152
0.0384657
0.0416008
0.0427793
0.0468327
0.0489373
0.0539773
0.0571018
0.0630719
0.067079
0.0739064
0.0786991
0.0862587
0.0916616
0.0997674
0.105559
0.114021
0.119999
0.128691
0.134679
0.143269
0.149102
0.157607
0.163203
0.171543
0.176815
0.184932
0.189829
0.197698
0.202204
0.209825
0.21395
0.221333
0.225098
0.232336
0.235823
0.242897
0.246056
0.252913
0.255732
0.262363
0.264863
0.271267
0.273494
0.279657
0.281671
0.287573
0.289456
0.295055
0.296903
0.302135
0.304045
0.308822
0.3109
0.315116
0.317451
0.321034
0.323654
0.326627
0.329411
0.331963
0.334647
0.337077
0.339407
0.341537
0.343861
0.37035
0.280761
0.224575
0.186194
0.158791
0.137938
0.122054
0.10902
0.0988019
0.0898603
0.0828336
0.076271
0.0712223
0.0661478
0.0624164
0.0583232
0.0555213
0.0520996
0.0499864
0.0470365
0.0454549
0.0428441
0.0416871
0.0393255
0.0385198
0.0363438
0.035843
0.0338053
0.0335813
0.0316524
0.0316887
0.029861
0.0301495
0.0284252
0.0289718
0.0273648
0.0281892
0.0267282
0.0278627
0.0266007
0.0280915
0.0270867
0.0289904
0.0283125
0.0306822
0.0304118
0.0333037
0.0335241
0.0369898
0.0377678
0.0418472
0.0432407
0.0479597
0.0499899
0.0552616
0.0578318
0.0636267
0.066702
0.0729684
0.0764822
0.0831415
0.0870004
0.0939517
0.0980464
0.105183
0.109408
0.11664
0.120913
0.128044
0.132178
0.139179
0.143273
0.15016
0.154187
0.160899
0.164843
0.171315
0.175185
0.181365
0.185179
0.191018
0.194806
0.20026
0.204059
0.209089
0.212935
0.217512
0.221419
0.225536
0.229491
0.233174
0.237139
0.240435
0.244355
0.247288
0.251152
0.253647
0.257573
0.259252
0.263402
0.370342
0.280764
0.224555
0.186204
0.158769
0.137961
0.122031
0.109058
0.0987788
0.0899143
0.0828108
0.0763416
0.0711991
0.0662359
0.062391
0.0584287
0.0554915
0.0522203
0.0499483
0.0471685
0.0454012
0.0429809
0.0416063
0.0394554
0.0383951
0.0364464
0.0356484
0.033849
0.0332759
0.031589
0.031208
0.0296118
0.0293961
0.0278728
0.0278075
0.0263406
0.0264166
0.0249959
0.0252081
0.0238292
0.0241769
0.0228396
0.0233244
0.0220354
0.0226617
0.021435
0.0222103
0.0210667
0.0220062
0.0209756
0.0220999
0.021216
0.0225503
0.0218559
0.0234287
0.0229703
0.0248099
0.024635
0.0267721
0.0269292
0.029396
0.0299339
0.0327541
0.0337142
0.0369024
0.0383259
0.0418852
0.0437962
0.0476686
0.0499962
0.0541283
0.0568559
0.061218
0.0643314
0.068882
0.0723542
0.0770347
0.0808257
0.0855689
0.0896293
0.0943631
0.0986365
0.103288
0.107721
0.112231
0.116774
0.121104
0.125711
0.129839
0.134467
0.138395
0.142999
0.146744
0.151328
0.154873
0.159376
0.162623
0.166999
0.169834
0.17384
0.370333
0.280774
0.224536
0.186222
0.158743
0.137988
0.121999
0.109096
0.0987407
0.0899645
0.0827666
0.0764042
0.0711477
0.066312
0.0623315
0.058519
0.0554236
0.0523248
0.0498714
0.0472876
0.0453142
0.0431149
0.0415079
0.0396039
0.0382836
0.0366081
0.0355209
0.034022
0.0331277
0.0317702
0.0310326
0.0297945
0.0291844
0.0280459
0.0275451
0.0264878
0.0260819
0.0250932
0.0247699
0.0238395
0.0235893
0.0227101
0.0225241
0.0216926
0.0215622
0.0207781
0.0206959
0.0199591
0.0199221
0.019234
0.0192393
0.0186027
0.0186522
0.0180702
0.0181646
0.0176468
0.0177887
0.017346
0.0175414
0.0171848
0.0174457
0.0171915
0.0175286
0.0174049
0.0178268
0.0178647
0.0183892
0.0186179
0.0192688
0.0197167
0.0205239
0.0212196
0.0222067
0.0231828
0.0243797
0.0256714
0.0271068
0.02874
0.0304408
0.0324427
0.0344332
0.0368189
0.0391108
0.0418817
0.0444827
0.0476253
0.0505285
0.0540076
0.0571901
0.0609656
0.0643982
0.0684035
0.0720424
0.0761993
0.0800205
0.0843085
0.0882727
0.0925863
0.0966215
0.100791
0.370328
0.280785
0.224526
0.18624
0.158728
0.138011
0.121978
0.109125
0.0987147
0.0899985
0.0827346
0.0764441
0.0711092
0.0663583
0.0622863
0.0585715
0.0553716
0.0523837
0.0498126
0.047353
0.0452487
0.0431865
0.0414361
0.0396814
0.0382058
0.0366919
0.0354365
0.0341128
0.0330363
0.031868
0.0309352
0.0298985
0.0290823
0.0281562
0.0274387
0.0266057
0.0259718
0.0252196
0.0246577
0.0239759
0.0234773
0.022859
0.0224158
0.0218572
0.0214628
0.020963
0.020613
0.0201718
0.0198655
0.0194853
0.0192225
0.0189058
0.0186938
0.0184441
0.0182895
0.0181171
0.018028
0.0179467
0.0179362
0.0179619
0.0180519
0.0182025
0.018414
0.0187172
0.0190719
0.0195617
0.0200901
0.0207924
0.0215243
0.0224664
0.0234378
0.0246511
0.0258928
0.0274063
0.02895
0.0307916
0.0326633
0.0348506
0.0370661
0.0396108
0.042178
0.0450788
0.0479909
0.0511968
0.0543856
0.0578565
0.0612968
0.0650069
0.0686747
0.072592
0.0764648
0.0805513
0.0845897
0.0888005
0.0929619
0.0972514
0.101498
0.105838
0.110175
0.114616
0.370326
0.280798
0.224529
0.186256
0.158727
0.138028
0.121973
0.109141
0.0987037
0.0900129
0.0827179
0.0764575
0.0710868
0.0663706
0.0622584
0.0585827
0.0553381
0.0523942
0.0497737
0.0473631
0.0452054
0.0431964
0.0413903
0.0396917
0.0381595
0.0367055
0.0353922
0.0341342
0.0329993
0.0319032
0.0309151
0.0299573
0.0290932
0.0282554
0.0275015
0.0267711
0.0261179
0.0254895
0.0249349
0.0244077
0.0239535
0.0235327
0.0231864
0.0228837
0.0226595
0.0224941
0.0224133
0.022415
0.0225095
0.0227125
0.023018
0.023466
0.0240302
0.0247642
0.0256343
0.0267005
0.0279249
0.029373
0.0310001
0.032873
0.0349448
0.0372798
0.0398291
0.0426501
0.0456916
0.0489749
0.0524213
0.0560971
0.059925
0.0639721
0.0681532
0.0725362
0.0770244
0.0816886
0.0864227
0.0913009
0.0962072
0.101224
0.106223
0.111303
0.116323
0.121408
0.12639
0.131343
0.136165
0.140977
0.1457
0.150407
0.155012
0.15959
0.164054
0.168478
0.17278
0.177033
0.181163
0.185242
0.189211
0.193148
0.19705
0.201007
0.370326
0.280811
0.224539
0.186269
0.158732
0.138038
0.12197
0.109142
0.098692
0.0900067
0.0826966
0.0764431
0.0710561
0.0663482
0.0622195
0.058554
0.0552933
0.0523632
0.0497275
0.0473364
0.0451667
0.0431844
0.0413735
0.0397118
0.0381881
0.036787
0.0355026
0.0343236
0.0332494
0.0322736
0.0313997
0.0306236
0.0299518
0.0293862
0.0289363
0.0286084
0.028416
0.0283748
0.028501
0.0288097
0.029324
0.0300556
0.0310346
0.0322701
0.033798
0.0356206
0.037777
0.0402555
0.0431024
0.0462937
0.0498742
0.0537858
0.0580003
0.0625372
0.0673554
0.0724667
0.0778218
0.0834232
0.0892141
0.0951892
0.101288
0.107504
0.113782
0.12012
0.126476
0.132752
0.138946
0.145115
0.15123
0.157294
0.163281
0.16919
0.175004
0.180725
0.18634
0.191851
0.197251
0.202541
0.207721
0.212789
0.217753
0.222601
0.227354
0.23204
0.236629
0.241135
0.245518
0.249799
0.253948
0.257995
0.261905
0.265712
0.269382
0.272951
0.27639
0.279735
0.282969
0.286145
0.289288
0.292485
0.370327
0.280823
0.224546
0.186273
0.158726
0.138023
0.121943
0.109107
0.0986431
0.0899492
0.082627
0.0763686
0.0709749
0.0662702
0.0621464
0.0584986
0.0552612
0.0523748
0.0497911
0.0474826
0.0454093
0.0435682
0.0419264
0.0405058
0.0392659
0.0382516
0.0374277
0.036856
0.0365095
0.0364748
0.0367216
0.0373457
0.0383185
0.0397365
0.0415774
0.043926
0.0467662
0.0501609
0.0540987
0.0586402
0.0636862
0.0692606
0.0753015
0.0818102
0.088706
0.0959603
0.103487
0.111236
0.119149
0.127168
0.1353
0.143358
0.151359
0.159294
0.16712
0.174824
0.182371
0.189755
0.196952
0.203969
0.210791
0.217431
0.223883
0.230161
0.236263
0.242258
0.248119
0.253837
0.259389
0.264781
0.270006
0.275074
0.279986
0.284756
0.289384
0.293878
0.298249
0.302499
0.306644
0.310681
0.314628
0.318471
0.32223
0.325881
0.329456
0.332907
0.336244
0.339475
0.342606
0.345648
0.348597
0.351466
0.354243
0.35695
0.35957
0.36213
0.364617
0.367071
0.369526
0.37205
0.370324
0.280829
0.224528
0.186235
0.158661
0.137929
0.121827
0.108961
0.0984914
0.0897886
0.0824949
0.0762785
0.0709846
0.0664039
0.0624844
0.0590805
0.0562113
0.05376
0.0517629
0.0501571
0.0489976
0.0482673
0.0480714
0.0484129
0.0493709
0.0510103
0.0533946
0.0565914
0.060648
0.0656204
0.0715429
0.0784104
0.0860311
0.0944529
0.103442
0.113008
0.122935
0.133239
0.143798
0.154574
0.165293
0.175912
0.186339
0.19653
0.206403
0.215951
0.225126
0.233957
0.242412
0.250548
0.258313
0.265847
0.273083
0.280026
0.286664
0.293021
0.299098
0.30493
0.310523
0.315915
0.321109
0.326141
0.331007
0.335734
0.340306
0.344745
0.349019
0.353115
0.357043
0.360828
0.364477
0.368003
0.371414
0.374718
0.377906
0.380991
0.383985
0.38689
0.389726
0.392485
0.39519
0.397828
0.400426
0.40296
0.405457
0.407892
0.410284
0.412612
0.414896
0.417121
0.419301
0.42143
0.42351
0.425553
0.427543
0.429506
0.431429
0.433346
0.43529
0.437324
0.370306
0.28079
0.224403
0.186076
0.158442
0.137691
0.121601
0.108819
0.0985579
0.090164
0.0834241
0.0779616
0.073706
0.0703936
0.0681103
0.0666782
0.0663231
0.066789
0.0684015
0.0709817
0.0749334
0.0801512
0.0869552
0.09515
0.104966
0.116015
0.128222
0.14124
0.155049
0.169407
0.184268
0.198937
0.213206
0.226996
0.240173
0.252745
0.264649
0.275946
0.286567
0.29661
0.306071
0.314988
0.323339
0.331131
0.338414
0.345253
0.351704
0.357825
0.363648
0.369197
0.374477
0.379487
0.384186
0.388635
0.392846
0.396862
0.400684
0.40435
0.407857
0.411238
0.41449
0.417644
0.420695
0.42367
0.426562
0.42939
0.432143
0.434825
0.437427
0.439957
0.442414
0.4448
0.447128
0.44938
0.451543
0.453644
0.455691
0.457688
0.459648
0.461561
0.463451
0.4653
0.467133
0.468931
0.470718
0.472471
0.47422
0.475928
0.47763
0.479292
0.480943
0.482559
0.484159
0.485734
0.487286
0.488819
0.490346
0.491865
0.49344
0.495133
0.370195
0.280542
0.224228
0.186053
0.158711
0.13852
0.12343
0.112324
0.10442
0.0992825
0.0968385
0.0965708
0.098371
0.102006
0.107633
0.115006
0.124347
0.135448
0.148588
0.163399
0.180317
0.198736
0.218288
0.238265
0.258307
0.277674
0.295832
0.312661
0.328135
0.342251
0.354976
0.366566
0.37709
0.386679
0.395452
0.403543
0.41103
0.417975
0.424393
0.4303
0.435683
0.440697
0.445266
0.449408
0.453224
0.456776
0.460116
0.463279
0.466299
0.469198
0.47199
0.474695
0.477291
0.479798
0.482203
0.484529
0.486765
0.488935
0.491026
0.493063
0.495035
0.496964
0.498841
0.500688
0.502495
0.50428
0.506036
0.507772
0.509481
0.511161
0.512815
0.514437
0.516033
0.517606
0.519149
0.520658
0.522136
0.523582
0.525004
0.526398
0.527783
0.529136
0.530487
0.531811
0.53314
0.534443
0.53576
0.53705
0.538352
0.539627
0.540912
0.542171
0.543436
0.54468
0.545926
0.547151
0.548402
0.54963
0.550924
0.552345
0.369474
0.281384
0.228612
0.193059
0.170709
0.155956
0.150115
0.150452
0.156553
0.167305
0.181629
0.19881
0.21842
0.239719
0.262348
0.285624
0.309399
0.333093
0.356941
0.380288
0.403306
0.423857
0.441746
0.457307
0.470496
0.482407
0.492497
0.501028
0.508346
0.514614
0.520104
0.524948
0.529231
0.533034
0.536431
0.539497
0.542294
0.544885
0.547296
0.549576
0.551716
0.553737
0.555667
0.557487
0.559192
0.560793
0.562304
0.563744
0.565125
0.566469
0.567778
0.569073
0.570348
0.571615
0.57286
0.574097
0.575309
0.576513
0.57769
0.578859
0.580003
0.581138
0.582256
0.583365
0.584465
0.585559
0.586652
0.587743
0.588837
0.589922
0.591017
0.592101
0.593189
0.594264
0.595334
0.596381
0.597414
0.598425
0.599429
0.600411
0.601397
0.602364
0.603338
0.604294
0.605265
0.606218
0.607192
0.608151
0.609133
0.610099
0.611087
0.612058
0.613047
0.614026
0.61501
0.615999
0.616992
0.618019
0.619065
0.620242
0.372191
0.315456
0.292824
0.279519
0.286385
0.295374
0.331463
0.373612
0.418619
0.463065
0.504555
0.5416
0.573477
0.599924
0.621221
0.637809
0.650546
0.66007
0.667421
0.673049
0.677644
0.681648
0.685132
0.688111
0.690603
0.692636
0.694332
0.695597
0.696477
0.697
0.697262
0.697363
0.697344
0.69726
0.69712
0.696967
0.696797
0.696657
0.696533
0.696466
0.696433
0.696454
0.696523
0.696611
0.6967
0.696787
0.696867
0.696951
0.697037
0.697144
0.697268
0.697424
0.697611
0.697839
0.698098
0.698398
0.698723
0.699083
0.699462
0.69987
0.70029
0.700735
0.701192
0.701664
0.702157
0.702662
0.703191
0.703731
0.704299
0.704877
0.705482
0.7061
0.706737
0.707385
0.708046
0.708711
0.709381
0.710045
0.710716
0.711379
0.712053
0.71272
0.713403
0.714081
0.714779
0.715471
0.716189
0.716902
0.717643
0.718379
0.719142
0.719903
0.720684
0.721471
0.722261
0.723082
0.723859
0.724721
0.725527
0.726372
0.606742
0.839813
0.952198
0.969555
0.937536
0.881262
0.821358
0.769007
0.724418
0.688386
0.660681
0.640129
0.625397
0.614956
0.607664
0.602392
0.598511
0.595429
0.592916
0.590804
0.588978
0.587527
0.586345
0.585459
0.584757
0.584201
0.583767
0.583416
0.583085
0.582739
0.582333
0.581884
0.581385
0.580863
0.580311
0.579755
0.579188
0.578633
0.578087
0.577568
0.577072
0.576609
0.576181
0.575794
0.575441
0.575123
0.574828
0.574561
0.574312
0.574087
0.573881
0.573698
0.57354
0.573411
0.573307
0.573232
0.573183
0.573162
0.573169
0.5732
0.573259
0.573338
0.573444
0.573571
0.573718
0.573884
0.574073
0.574281
0.574511
0.574759
0.575029
0.575317
0.575625
0.57595
0.576294
0.576652
0.577028
0.577414
0.577814
0.578221
0.578641
0.579066
0.579503
0.579946
0.580401
0.580861
0.581336
0.581815
0.58231
0.582809
0.583324
0.583841
0.58438
0.584911
0.585482
0.586001
0.586566
0.587005
0.587303
0.587281
0.0456651
2.29885
2.88373
3.08625
3.23218
3.28899
3.26901
3.19968
3.09922
2.99194
2.88369
2.7805
2.68587
2.60062
2.52354
2.45273
2.38654
2.32325
2.261
2.19954
2.13799
2.07605
2.0139
1.95189
1.88958
1.82772
1.76659
1.70695
1.6481
1.59047
1.53433
1.48024
1.42809
1.37783
1.32945
1.2829
1.23815
1.19515
1.15383
1.11411
1.07592
1.03921
1.00392
0.970004
0.9374
0.906079
0.875971
0.847056
0.819261
0.792578
0.76692
0.742281
0.71857
0.695787
0.673832
0.652711
0.632319
0.612651
0.593632
0.575234
0.557414
0.540098
0.523333
0.506911
0.491085
0.475404
0.460409
0.445362
0.431063
0.416637
0.402904
0.389092
0.375875
0.36264
0.350011
0.337308
0.325362
0.31328
0.302186
0.290947
0.280815
0.270654
0.261533
0.252766
0.244696
0.237415
0.230442
0.224407
0.218751
0.21356
0.209351
0.204579
0.20156
0.197066
0.194901
0.190508
0.189062
0.184308
0.183544
0.178354
0.352001
1.1334
2.0709
2.51711
2.74953
2.84823
2.8592
2.81055
2.72784
2.63331
2.53777
2.44913
2.37121
2.30386
2.2452
2.19324
2.14594
2.10145
2.05808
2.01502
1.97125
1.92623
1.87978
1.83211
1.7829
1.73275
1.68189
1.63139
1.58055
1.53001
1.47965
1.43027
1.38236
1.3359
1.29093
1.24742
1.20542
1.16489
1.12579
1.08807
1.05167
1.01658
0.982746
0.950155
0.918755
0.888529
0.859422
0.831422
0.804466
0.778552
0.753601
0.729611
0.706498
0.684264
0.662816
0.642158
0.622195
0.602918
0.584263
0.566191
0.548678
0.531632
0.51513
0.498931
0.483327
0.467833
0.45303
0.438143
0.424014
0.409736
0.396163
0.382501
0.369445
0.356379
0.343928
0.33143
0.319697
0.307872
0.297048
0.286121
0.276331
0.26652
0.257819
0.249421
0.241846
0.234927
0.228488
0.222785
0.217658
0.212755
0.209021
0.20448
0.201832
0.1975
0.19559
0.191284
0.189988
0.185251
0.184539
0.179335
0.550583
0.546559
1.02424
1.58087
1.97775
2.19003
2.28091
2.2915
2.25669
2.198
2.13182
2.06962
2.01357
1.96549
1.92529
1.89166
1.86271
1.83659
1.81195
1.78738
1.76174
1.73438
1.70491
1.67317
1.63899
1.60283
1.56477
1.52589
1.48572
1.44475
1.40318
1.36087
1.31889
1.27764
1.2373
1.19794
1.15969
1.12254
1.08648
1.0515
1.01758
0.984733
0.952943
0.922213
0.892513
0.863843
0.836165
0.809477
0.783729
0.758927
0.735002
0.711958
0.689719
0.668292
0.647592
0.627619
0.608295
0.589605
0.571498
0.55392
0.53688
0.520255
0.50416
0.488317
0.473068
0.45788
0.443389
0.428773
0.414926
0.4009
0.387592
0.374182
0.361391
0.348596
0.336426
0.324241
0.31283
0.301376
0.290938
0.280441
0.271117
0.261777
0.253627
0.245711
0.238761
0.232307
0.226525
0.221238
0.216745
0.212198
0.20902
0.204761
0.202541
0.198404
0.196784
0.192587
0.191457
0.186755
0.186104
0.180901
0.530771
0.494969
0.560616
0.768426
1.0714
1.34307
1.52408
1.61883
1.6565
1.65909
1.6431
1.62279
1.6007
1.5807
1.5648
1.55319
1.54458
1.53784
1.53108
1.52384
1.51528
1.50489
1.4922
1.47655
1.45802
1.43688
1.41322
1.38777
1.36032
1.3309
1.30066
1.26784
1.23383
1.19952
1.16531
1.13143
1.09814
1.06546
1.03343
1.00208
0.97146
0.941615
0.912569
0.884351
0.856958
0.830409
0.804687
0.779801
0.755717
0.732452
0.709951
0.688222
0.667202
0.646902
0.627251
0.608243
0.589821
0.571962
0.554633
0.537765
0.5214
0.505385
0.489879
0.474562
0.459833
0.445103
0.431078
0.416872
0.40345
0.389809
0.376904
0.363876
0.351483
0.33909
0.327336
0.315602
0.304653
0.293717
0.283813
0.273899
0.265198
0.256478
0.249041
0.241746
0.235578
0.229706
0.224721
0.219944
0.216199
0.212077
0.209536
0.205607
0.203865
0.199952
0.198648
0.194575
0.193619
0.188963
0.188376
0.183181
0.47267
0.46324
0.459914
0.486959
0.557253
0.66715
0.788871
0.897667
0.980165
1.03735
1.07354
1.09944
1.11884
1.13516
1.15052
1.16633
1.18202
1.19785
1.21165
1.22358
1.23329
1.24043
1.24464
1.24558
1.24324
1.23773
1.22925
1.21809
1.20407
1.18701
1.16887
1.14733
1.12349
1.0981
1.07179
1.04498
1.01811
0.991183
0.964318
0.937644
0.911276
0.885312
0.859822
0.834872
0.81049
0.786718
0.763563
0.74105
0.719166
0.697938
0.677327
0.657348
0.637955
0.619164
0.600918
0.58321
0.566004
0.549267
0.532995
0.517095
0.501654
0.486476
0.471782
0.457197
0.44319
0.429107
0.415735
0.402116
0.389296
0.376207
0.363878
0.351394
0.33957
0.327747
0.31658
0.305472
0.295163
0.284929
0.275749
0.266605
0.258723
0.250805
0.244275
0.237762
0.232557
0.227395
0.223358
0.219184
0.216297
0.21266
0.210826
0.207258
0.206031
0.202354
0.201376
0.197429
0.196643
0.192026
0.191498
0.186305
0.410935
0.411359
0.406255
0.402163
0.403551
0.414293
0.431575
0.45571
0.483159
0.514581
0.5471
0.581629
0.617705
0.6552
0.69329
0.732135
0.77067
0.808894
0.84507
0.878548
0.908782
0.935414
0.957967
0.976817
0.991763
1.00258
1.00964
1.01274
1.01272
1.00899
1.00347
0.994828
0.983357
0.969031
0.952643
0.934822
0.91613
0.896494
0.876185
0.855458
0.834515
0.813518
0.792592
0.771843
0.75134
0.731151
0.711312
0.691869
0.67283
0.654238
0.636076
0.618368
0.601085
0.584251
0.567831
0.551813
0.536193
0.52092
0.50603
0.491402
0.477174
0.463104
0.449484
0.435875
0.422832
0.409618
0.397125
0.384302
0.372304
0.359968
0.348427
0.336689
0.325646
0.314599
0.304236
0.293973
0.284529
0.275226
0.267001
0.258859
0.252029
0.245128
0.239726
0.234175
0.230123
0.225798
0.222853
0.219355
0.21742
0.214297
0.213213
0.210006
0.209303
0.205844
0.20518
0.201333
0.200695
0.196089
0.195605
0.190385
0.343498
0.345948
0.344363
0.338861
0.330695
0.321928
0.312466
0.30337
0.294467
0.28721
0.282212
0.281174
0.285638
0.297085
0.316059
0.34292
0.376845
0.41674
0.460644
0.506265
0.551565
0.595017
0.635241
0.671506
0.703761
0.73128
0.75448
0.772467
0.787332
0.79804
0.805813
0.810313
0.811422
0.809532
0.804999
0.798227
0.789649
0.778924
0.766706
0.753387
0.739251
0.724516
0.709363
0.693938
0.678351
0.662701
0.64706
0.631496
0.616048
0.600777
0.585695
0.570837
0.556201
0.541819
0.527686
0.513785
0.500151
0.486713
0.47356
0.460534
0.447838
0.435172
0.422918
0.410554
0.398746
0.386654
0.375299
0.363512
0.352587
0.341241
0.330743
0.319988
0.309983
0.299962
0.290668
0.281513
0.273209
0.265114
0.258124
0.251256
0.245743
0.240097
0.236055
0.231638
0.228914
0.225518
0.223776
0.220975
0.220036
0.217401
0.217059
0.214163
0.213947
0.210647
0.210248
0.206445
0.205903
0.201252
0.20078
0.195479
0.263141
0.267086
0.268055
0.264887
0.257974
0.248327
0.236653
0.223955
0.210994
0.198696
0.187688
0.178644
0.172168
0.168626
0.168612
0.172465
0.180987
0.194485
0.21378
0.238619
0.268912
0.303459
0.340881
0.379493
0.418349
0.455436
0.490399
0.52155
0.549415
0.573287
0.593485
0.610102
0.622769
0.63276
0.639512
0.643247
0.644381
0.64317
0.639961
0.635063
0.62876
0.621283
0.612849
0.603633
0.593787
0.583436
0.572693
0.561653
0.55039
0.538986
0.52749
0.515949
0.504398
0.492872
0.481408
0.46998
0.458674
0.447389
0.436287
0.425153
0.414282
0.403293
0.392683
0.381823
0.371522
0.360804
0.350855
0.340354
0.330779
0.320677
0.311508
0.302003
0.293335
0.284626
0.276714
0.268977
0.262135
0.255566
0.250124
0.244822
0.240894
0.23673
0.23424
0.231079
0.229785
0.227325
0.226804
0.224625
0.224641
0.222375
0.222691
0.21998
0.220154
0.216899
0.216674
0.212818
0.212291
0.207509
0.207
0.20154
0.1757
0.179268
0.181339
0.18054
0.176852
0.170954
0.163753
0.156327
0.149754
0.144687
0.141694
0.140808
0.141989
0.144877
0.149161
0.154423
0.160611
0.167499
0.175479
0.184493
0.195403
0.208081
0.223964
0.242384
0.263546
0.286708
0.311738
0.337443
0.363272
0.388317
0.411876
0.433532
0.452485
0.468689
0.48227
0.493133
0.501303
0.5077
0.512196
0.514821
0.515733
0.515086
0.513079
0.509874
0.505643
0.500517
0.494642
0.488124
0.481072
0.47358
0.465735
0.457586
0.449213
0.44064
0.43196
0.423122
0.414279
0.405282
0.396384
0.387293
0.37842
0.369274
0.3605
0.35133
0.342748
0.333607
0.325301
0.31631
0.308351
0.299742
0.292198
0.284219
0.277212
0.27012
0.263937
0.257947
0.252917
0.248198
0.244606
0.241124
0.238974
0.23642
0.235538
0.233611
0.233679
0.232006
0.232565
0.230781
0.23158
0.22944
0.230238
0.227499
0.2279
0.224526
0.224339
0.220297
0.21967
0.214651
0.21404
0.208337
0.104549
0.10832
0.111784
0.114507
0.116602
0.1186
0.121199
0.125074
0.130674
0.138071
0.147155
0.15744
0.168488
0.179698
0.190641
0.201042
0.210762
0.219737
0.228106
0.235821
0.24314
0.250218
0.257213
0.264455
0.272266
0.280819
0.290324
0.300683
0.312008
0.324078
0.336749
0.349597
0.362281
0.374089
0.38521
0.395464
0.404465
0.412236
0.418748
0.423923
0.427785
0.43033
0.431659
0.431833
0.430979
0.429162
0.42652
0.423122
0.419084
0.414471
0.409398
0.403886
0.398051
0.39188
0.385529
0.378889
0.372198
0.365225
0.358337
0.35113
0.344156
0.336782
0.329826
0.32235
0.315543
0.30805
0.301512
0.294164
0.288015
0.28109
0.27543
0.269215
0.264178
0.258982
0.25486
0.250909
0.247984
0.245337
0.24375
0.242153
0.241733
0.24066
0.24115
0.240169
0.241256
0.23998
0.241262
0.239464
0.240736
0.23835
0.239381
0.236322
0.236753
0.233059
0.232745
0.228364
0.227504
0.22216
0.221374
0.215378
0.119067
0.123472
0.128296
0.134165
0.141501
0.150574
0.161449
0.174073
0.188064
0.20306
0.218499
0.233802
0.248339
0.26179
0.274088
0.285229
0.295248
0.304184
0.312283
0.31965
0.326499
0.332758
0.338581
0.344039
0.349231
0.354309
0.359161
0.36368
0.368118
0.372319
0.376569
0.38057
0.384659
0.388358
0.391593
0.394453
0.396835
0.398669
0.399977
0.400713
0.400915
0.400522
0.399586
0.398078
0.396056
0.393489
0.39047
0.386982
0.383111
0.37885
0.37431
0.369447
0.364396
0.359072
0.353678
0.348022
0.342419
0.336532
0.330839
0.3248
0.319111
0.312978
0.307396
0.30124
0.295906
0.289823
0.284878
0.279051
0.274654
0.269376
0.265627
0.261194
0.258204
0.25493
0.252924
0.250967
0.250065
0.249265
0.24935
0.249173
0.249908
0.249699
0.25087
0.250171
0.251598
0.250101
0.251549
0.249214
0.250571
0.247528
0.248555
0.244889
0.245197
0.240995
0.24041
0.235602
0.234416
0.228759
0.227748
0.221528
0.205093
0.209201
0.213957
0.220279
0.228689
0.239189
0.251589
0.265439
0.280195
0.295191
0.309868
0.323759
0.336622
0.34834
0.359007
0.368646
0.377531
0.385634
0.393169
0.400151
0.406762
0.412905
0.4187
0.423986
0.428877
0.433133
0.436973
0.440184
0.4429
0.444901
0.446411
0.447122
0.44749
0.446836
0.445352
0.443196
0.440314
0.436773
0.432723
0.42823
0.423432
0.418332
0.413049
0.407578
0.401991
0.39625
0.390456
0.384546
0.378607
0.372583
0.366587
0.360517
0.354524
0.348457
0.342552
0.336539
0.330786
0.324864
0.319329
0.313527
0.308261
0.302604
0.297685
0.292231
0.287792
0.282625
0.27881
0.274109
0.271081
0.267108
0.264928
0.26193
0.260633
0.25886
0.25851
0.257947
0.258391
0.258604
0.259474
0.25977
0.260728
0.2605
0.261506
0.260384
0.261475
0.259262
0.260423
0.257234
0.258439
0.254543
0.255505
0.251093
0.251263
0.246477
0.245631
0.240459
0.238969
0.233164
0.231932
0.225723
0.295813
0.299247
0.303449
0.309249
0.317042
0.326717
0.337976
0.350321
0.363211
0.376008
0.388272
0.399769
0.410429
0.420309
0.429505
0.438128
0.446293
0.454038
0.461415
0.468357
0.474892
0.480854
0.486307
0.491029
0.495088
0.49827
0.500714
0.502211
0.502955
0.50276
0.501803
0.499968
0.497434
0.494234
0.490433