/*--------------------------------*- C++ -*----------------------------------*\
| =========                 |                                                 |
| \\      /  F ield         | OpenFOAM: The Open Source CFD Toolbox           |
|  \\    /   O peration     | Version:  v2012                                 |
|   \\  /    A nd           | Website:  www.openfoam.com                      |
|    \\/     M anipulation  |                                                 |
\*---------------------------------------------------------------------------*/
FoamFile
{
    version     2.0;
    format      ascii;
    class       volScalarField;
    location    "0.254";
    object      p;
}
// * * * * * * * * * * * * * * * * * * * * * * * * * * * * * * * * * * * * * //

dimensions      [0 2 -2 0 0 0 0];


internalField   nonuniform List<scalar> 
1900
(
-299.623
-300.723
-301.623
-302.284
-302.96
-303.727
-304.533
-305.361
-305.974
-306.578
-300.077
-300.877
-301.704
-302.38
-303.061
-303.822
-304.632
-305.47
-306.23
-307.05
-300.364
-300.928
-301.696
-302.409
-303.106
-303.867
-304.693
-305.577
-306.47
-307.715
-300.547
-300.991
-301.726
-302.468
-303.178
-303.941
-304.785
-305.709
-306.722
-308.095
-300.645
-301.039
-301.754
-302.506
-303.221
-303.987
-304.848
-305.808
-306.889
-308.277
-300.662
-301.061
-301.781
-302.536
-303.254
-304.027
-304.904
-305.889
-307.004
-308.372
-300.597
-301.057
-301.807
-302.558
-303.277
-304.061
-304.952
-305.952
-307.079
-308.403
-300.445
-301.036
-301.83
-302.557
-303.27
-304.065
-304.969
-305.98
-307.11
-308.391
-300.189
-301.03
-301.891
-302.58
-303.277
-304.078
-304.985
-305.995
-307.118
-308.36
-299.755
-300.929
-301.881
-302.562
-303.26
-304.074
-304.992
-306.009
-307.135
-308.357
-305.92
-318.28
-337.562
-339.208
-320.079
-286.052
-243.019
-198.247
-157.319
-122.523
-94.184
-71.7697
-54.2929
-40.738
-30.1885
-21.8603
-15.2083
-9.85834
-5.50983
-1.9082
1.11484
3.65496
5.79824
7.62817
9.21186
10.5829
11.7592
12.7804
13.6693
14.4447
15.1202
15.7041
16.2063
16.6342
16.994
17.2977
17.5527
17.7614
17.9271
18.0535
18.146
18.2085
18.2418
18.2479
18.2277
18.1829
18.117
18.0323
17.9302
17.8113
17.6753
17.5226
17.3555
17.1754
16.9832
16.7798
16.5652
16.3389
16.1017
15.8548
15.5989
15.3345
15.0617
14.7801
14.4898
14.1911
13.8847
13.5711
13.2502
12.9219
12.5865
12.244
11.8947
11.5387
11.1761
10.8071
10.4316
10.0498
9.6618
9.2678
8.86772
8.46195
8.05024
7.63296
7.20992
6.78137
6.34727
5.90782
5.46309
5.01324
4.55837
4.09866
3.63399
3.16486
2.69005
2.21236
1.72477
1.24259
0.733507
0.279199
-309.337
-321.606
-333.413
-332.127
-313.079
-280.334
-239.751
-197.441
-158.32
-124.587
-96.6751
-74.2502
-56.5581
-42.6856
-31.7909
-23.1414
-16.2194
-10.648
-6.11485
-2.36877
0.748675
3.35375
5.55746
7.44182
9.06205
10.4587
11.656
12.6932
13.5928
14.3745
15.0533
15.6389
16.1385
16.5631
16.9258
17.2341
17.493
17.7054
17.8745
18.0043
18.1003
18.1659
18.201
18.2079
18.1883
18.1442
18.0787
17.9948
17.8939
17.7759
17.6405
17.4883
17.3216
17.1419
16.9501
16.7471
16.533
16.3073
16.0705
15.8239
15.5682
15.304
15.0317
14.7502
14.46
14.1614
13.8553
13.5419
13.2211
12.893
12.5577
12.2153
11.8661
11.5101
11.1476
10.7786
10.4032
10.0214
9.63336
9.2393
8.8392
8.43337
8.02162
7.60427
7.18119
6.7526
6.31849
5.87906
5.43438
4.98462
4.52991
4.07042
3.60623
3.13756
2.6644
2.18734
1.70539
1.22181
0.729522
0.251882
-310.271
-317.92
-326.263
-324.072
-306.103
-275.371
-237.27
-197.131
-159.466
-126.588
-99.0105
-76.568
-58.6778
-44.5282
-33.3338
-24.4174
-17.2776
-11.5237
-6.83355
-2.96066
0.256864
2.94467
5.22401
7.17782
8.85171
10.2849
11.5141
12.581
13.5053
14.3027
14.9899
15.5819
16.0857
16.5121
16.878
17.1893
17.4498
17.6635
17.8333
17.9636
18.0589
18.1225
18.1565
18.1636
18.1449
18.102
18.0381
17.9558
17.8563
17.7401
17.6064
17.4556
17.2902
17.1112
16.92
16.7171
16.5025
16.2765
16.0398
15.7933
15.5377
15.2738
15.0018
14.7207
14.4307
14.1325
13.8267
13.5135
13.193
12.8649
12.5298
12.1874
11.8383
11.4824
11.1199
10.7508
10.3754
9.99355
9.60551
9.21139
8.81123
8.4053
7.99349
7.57604
7.15291
6.72426
6.29014
5.8507
5.40606
4.95637
4.50182
4.04254
3.57884
3.11064
2.63916
2.16281
1.68647
1.20181
0.727089
0.223756
-310.492
-316.294
-321.939
-318.557
-301.089
-271.666
-235.203
-196.61
-160.103
-127.982
-100.758
-78.3707
-60.3613
-46.0084
-34.5815
-25.4517
-18.1303
-12.2188
-7.39499
-3.42093
-0.126976
2.6237
4.95157
6.9386
8.63532
10.0854
11.3303
12.4109
13.3509
14.1611
14.8598
15.4636
15.9835
16.4289
16.8097
17.1316
17.4009
17.622
17.7976
17.9324
18.0294
18.0922
18.1262
18.134
18.1155
18.0728
18.0091
17.9268
17.8264
17.7085
17.5735
17.4229
17.2581
17.0796
16.889
16.6865
16.4716
16.2456
16.0094
15.7637
15.5087
15.2449
14.9722
14.6908
14.401
14.1032
13.7977
13.4846
13.1643
12.8364
12.5014
12.1592
11.81
11.4542
11.0916
10.7226
10.3471
9.96519
9.57704
9.18285
8.78259
8.37652
7.9646
7.54703
7.12385
6.69513
6.26102
5.82156
5.377
4.92737
4.47302
4.01395
3.55076
3.08304
2.61326
2.13767
1.66702
1.18104
0.723967
0.195991
-310.518
-314.805
-318.112
-313.455
-296.276
-267.995
-233.033
-195.922
-160.557
-129.164
-102.289
-79.9721
-61.8671
-47.3384
-35.7124
-26.3962
-18.9115
-12.8599
-7.91743
-3.84923
-0.483643
2.32697
4.70369
6.7268
8.45132
9.92502
11.1916
12.2879
13.2397
14.0608
14.7677
15.377
15.8986
16.3466
16.7291
17.051
17.3208
17.5442
17.7231
17.8609
17.9622
18.0308
18.0709
18.0847
18.0721
18.0349
17.9759
17.897
17.7985
17.6813
17.5474
17.3981
17.2343
17.056
16.8656
16.6631
16.4482
16.2221
15.9859
15.7399
15.4848
15.2202
14.9461
14.6636
14.3734
14.0752
13.7694
13.4557
13.135
12.8065
12.4713
12.1287
11.7794
11.4233
11.0606
10.6914
10.3158
9.93381
9.5456
9.1514
8.75127
8.3453
7.93345
7.51588
7.09276
6.66407
6.23006
5.79067
5.34627
4.89678
4.44269
3.9839
3.52123
3.05407
2.58593
2.11124
1.64584
1.15927
0.718379
0.171089
-310.4
-313.509
-315.041
-309.398
-292.508
-265.228
-231.494
-195.546
-161.048
-130.183
-103.56
-81.2898
-63.1035
-48.4256
-36.6342
-27.1691
-19.5509
-13.3821
-8.3449
-4.20249
-0.777958
2.08088
4.49699
6.5493
8.29549
9.78763
11.0698
12.1783
13.1374
13.966
14.6801
15.2949
15.8217
16.2747
16.6625
16.99
17.2629
17.4874
17.6684
17.8093
17.9134
17.9838
18.0231
18.0349
18.0215
17.9838
17.9245
17.8451
17.7465
17.6301
17.4975
17.3499
17.1877
17.0115
16.8229
16.6222
16.4093
16.1851
15.9504
15.7055
15.4511
15.1872
14.9139
14.6321
14.3421
14.0439
13.7377
13.4237
13.1026
12.7736
12.438
12.0951
11.7455
11.3892
11.0263
10.657
10.2813
9.89936
9.51127
9.11714
8.71715
8.31119
7.89945
7.48198
7.05901
6.63045
6.19661
5.75737
5.31319
4.86391
4.41013
3.9517
3.48958
3.02307
2.55637
2.08281
1.62166
1.13602
0.707789
0.152299
-310.211
-312.446
-312.668
-306.232
-289.501
-262.955
-230.135
-195.076
-161.266
-130.843
-104.469
-82.2756
-64.049
-49.2762
-37.3706
-27.7957
-20.0785
-13.816
-8.70028
-4.50229
-1.03412
1.86685
4.31923
6.39393
8.15428
9.66206
10.9607
12.0805
13.0464
13.8799
14.6013
15.2233
15.755
16.2118
16.6027
16.9326
17.209
17.4359
17.6179
17.7605
17.8666
17.9386
17.9792
17.9922
17.9806
17.9451
17.8873
17.8087
17.7105
17.5947
17.4624
17.3146
17.1518
16.9747
16.7848
16.5829
16.3691
16.144
15.9082
15.6623
15.4071
15.1428
14.8693
14.5873
14.2972
13.999
13.6931
13.3796
13.0588
12.7305
12.3955
12.0533
11.7043
11.3486
10.9863
10.6174
10.2424
9.86076
9.47323
9.07947
8.67981
8.27412
7.86274
7.44566
7.02303
6.59486
6.16136
5.72247
5.27861
4.8297
4.37628
3.91826
3.45669
2.99087
2.52533
2.05308
1.59463
1.11173
0.690345
0.143267
-310.014
-311.622
-310.914
-303.872
-287.218
-261.199
-229.052
-194.665
-161.387
-131.316
-105.16
-83.051
-64.8003
-49.9587
-37.9793
-28.3234
-20.5165
-14.1771
-9.00836
-4.76567
-1.24839
1.69329
4.16642
6.2538
8.03249
9.56069
10.8727
11.9963
12.9648
13.8064
14.537
15.1643
15.6974
16.154
16.5474
16.8819
17.1615
17.389
17.5706
17.7136
17.8217
17.8959
17.9376
17.9504
17.9386
17.9035
17.8458
17.7671
17.6688
17.553
17.4206
17.2726
17.1095
16.9324
16.7423
16.5405
16.327
16.102
15.8658
15.6196
15.3641
15.0995
14.8258
14.5434
14.2527
13.954
13.6477
13.3337
13.0125
12.6838
12.3486
12.0059
11.6567
11.3008
10.9386
10.5697
10.1947
9.8132
9.42588
9.03245
8.63313
8.22796
7.81714
7.40071
6.9787
6.55121
6.11837
5.68016
5.23692
4.78863
4.33579
3.87833
3.4174
2.9523
2.48765
2.01688
1.55957
1.08114
0.660147
0.138631
-309.857
-311.036
-309.718
-302.257
-285.629
-259.948
-228.241
-194.297
-161.364
-131.531
-105.534
-83.4775
-65.2193
-50.3512
-38.3284
-28.6178
-20.763
-14.3906
-9.19322
-4.92125
-1.37689
1.58341
4.0662
6.16349
7.95228
9.48687
10.8017
11.928
12.9008
13.7468
14.4801
15.1085
15.643
16.1018
16.4979
16.8347
17.115
17.343
17.5256
17.6702
17.78
17.8554
17.8975
17.9108
17.8996
17.8656
17.809
17.731
17.6334
17.5181
17.3864
17.239
17.0766
16.9
16.7103
16.5088
16.2956
16.0707
15.8348
15.5888
15.3336
15.0694
14.7962
14.5141
14.2239
13.9258
13.6201
13.3069
12.9863
12.6585
12.3243
11.9822
11.6335
11.2781
10.9163
10.548
10.1734
9.79241
9.40536
9.01218
8.61299
8.20775
7.79688
7.38037
6.95834
6.53078
6.09792
5.65967
5.21641
4.76809
4.31527
3.85792
3.39712
2.93214
2.46749
1.99749
1.53975
1.06568
0.639676
0.148954
-309.799
-310.777
-309.167
-301.515
-284.923
-259.448
-228.001
-194.311
-161.573
-131.866
-105.939
-83.901
-65.6283
-50.7249
-38.659
-28.9098
-21.0228
-14.6204
-9.39518
-5.10149
-1.53939
1.44287
3.94258
6.05093
7.84542
9.38442
10.7051
11.8368
12.8124
13.6598
14.3952
15.0262
15.5633
16.0238
16.4212
16.7594
17.0412
17.2706
17.4544
17.5999
17.7106
17.7871
17.8302
17.8443
17.8339
17.8006
17.7447
17.6673
17.5702
17.4555
17.3244
17.1775
17.0155
16.8393
16.6502
16.4491
16.2364
16.012
15.7766
15.531
15.2763
15.0124
14.7396
14.4578
14.1678
13.8698
13.5643
13.2511
12.9307
12.6027
12.2683
11.9272
11.5788
11.2235
10.8619
10.4938
10.1193
9.73862
9.35175
8.95884
8.56001
8.15536
7.74476
7.32847
6.90662
6.4792
6.04642
5.60822
5.16502
4.71669
4.26395
3.80661
3.34604
2.88146
2.41684
1.94783
1.48886
1.02006
0.591336
0.112914
-314.074
-315.343
-316.519
-316.764
-316.246
-314.976
-313.67
-313.762
-333.208
-334.725
-335.671
-336.006
-335.684
-334.97
-334.107
-333.758
-348.321
-351.158
-352.673
-353.24
-353.129
-352.819
-352.512
-352.172
-346.898
-350.263
-352.116
-352.862
-352.69
-352.175
-351.696
-351.058
-325.752
-328.652
-330.387
-330.946
-330.606
-329.869
-329.084
-328.157
-289.994
-292.05
-293.341
-293.795
-293.469
-292.521
-291.108
-289.508
-244.964
-246.036
-246.887
-247.288
-247.03
-246.002
-244.217
-242.159
-198.429
-198.46
-198.714
-198.928
-198.65
-197.568
-195.617
-193.374
-156.291
-155.596
-155.333
-155.238
-154.835
-153.719
-151.764
-149.558
-120.781
-119.659
-119.113
-118.842
-118.352
-117.25
-115.402
-113.359
-92.2228
-90.9963
-90.3489
-89.9545
-89.3933
-88.3492
-86.6753
-84.8494
-69.8925
-68.7391
-68.1014
-67.6364
-67.035
-66.0748
-64.6001
-63.0159
-52.6354
-51.6256
-51.038
-50.5729
-49.9927
-49.1288
-47.8505
-46.4888
-39.3613
-38.5253
-38.0216
-37.5914
-37.0569
-36.2972
-35.2087
-34.055
-29.0892
-28.4081
-27.9636
-27.5648
-27.0896
-26.4341
-25.513
-24.5365
-21.0167
-20.4767
-20.0735
-19.6939
-19.277
-18.7175
-17.9385
-17.096
-14.5737
-14.1499
-13.7996
-13.4573
-13.0931
-12.6139
-11.9529
-11.1957
-9.38251
-9.04892
-8.75401
-8.45788
-8.14003
-7.72741
-7.16532
-6.48724
-5.15178
-4.88625
-4.63879
-4.38458
-4.10715
-3.74863
-3.26602
-2.6777
-1.63554
-1.42403
-1.21746
-1.0012
-0.759867
-0.446501
-0.0268714
0.483949
1.3348
1.50686
1.68252
1.86414
2.07202
2.34583
2.71297
3.15952
3.84307
3.98826
4.14235
4.29831
4.47962
4.72079
5.0444
5.4379
5.95869
6.08218
6.21697
6.35528
6.51838
6.73505
7.02396
7.37438
7.76497
7.87153
7.98895
8.11241
8.26033
8.4566
8.71668
9.03158
9.33023
9.42288
9.52656
9.63758
9.77218
9.95065
10.186
10.4709
10.6932
10.7797
10.8702
10.9696
11.0925
11.2556
11.4698
11.7289
11.8674
11.954
12.0368
12.1273
12.2399
12.3894
12.585
12.8217
12.8783
12.9584
13.0352
13.12
13.2256
13.3646
13.5446
13.7624
13.7568
13.8296
13.9002
13.9794
14.0783
14.2078
14.3743
14.5757
14.5228
14.5893
14.6548
14.7292
14.8222
14.9434
15.0979
15.285
15.1903
15.2515
15.3126
15.3829
15.4708
15.5845
15.7284
15.9027
15.7673
15.8234
15.8812
15.948
16.0314
16.1386
16.2729
16.4359
16.2655
16.3166
16.3705
16.4337
16.5128
16.6139
16.7396
16.8923
16.6904
16.7374
16.7881
16.848
16.9232
17.0188
17.1368
17.2804
17.0472
17.092
17.1406
17.1983
17.2703
17.3613
17.4725
17.6081
17.3483
17.3913
17.4382
17.4937
17.5629
17.6496
17.7547
17.883
17.601
17.6422
17.6873
17.7407
17.8072
17.89
17.9894
18.1112
17.8077
17.8475
17.8911
17.9427
18.0067
18.0859
18.1802
18.296
17.9716
18.0101
18.0524
18.1024
18.1641
18.2401
18.3297
18.44
18.0962
18.1336
18.1748
18.2234
18.2831
18.3561
18.4415
18.5469
18.1869
18.2231
18.2632
18.3104
18.3682
18.4385
18.5199
18.6209
18.2474
18.2824
18.3213
18.3671
18.4232
18.4908
18.5687
18.6655
18.2795
18.3133
18.3511
18.3957
18.4501
18.5154
18.5899
18.683
18.2845
18.3174
18.3543
18.3978
18.4507
18.5138
18.5852
18.6749
18.2634
18.2958
18.332
18.3745
18.4261
18.4873
18.5558
18.6423
18.218
18.2499
18.2855
18.3273
18.3777
18.437
18.503
18.5865
18.1517
18.1829
18.2177
18.2586
18.3078
18.3654
18.429
18.5098
18.0662
18.0968
18.131
18.1712
18.2192
18.2752
18.3365
18.4148
17.9633
17.9934
18.0271
18.0664
18.1135
18.1679
18.2271
18.3031
17.8437
17.8733
17.9064
17.9451
17.9911
18.0441
18.1013
18.1751
17.7071
17.7363
17.769
17.807
17.852
17.9037
17.959
18.0308
17.5542
17.5831
17.6153
17.6528
17.697
17.7475
17.801
17.871
17.3867
17.4152
17.4471
17.484
17.5275
17.5768
17.6287
17.697
17.2062
17.2345
17.266
17.3025
17.3452
17.3934
17.4438
17.5105
17.0138
17.0417
17.0729
17.1089
17.1509
17.1981
17.2471
17.3122
16.81
16.8376
16.8684
16.9039
16.9452
16.9914
17.039
17.1027
16.5948
16.6221
16.6525
16.6875
16.7281
16.7734
16.8196
16.882
16.3683
16.3953
16.4255
16.46
16.4999
16.5443
16.5894
16.6505
16.1309
16.1577
16.1876
16.2217
16.2611
16.3047
16.3486
16.4086
15.8838
15.9104
15.94
15.9738
16.0126
16.0554
16.0982
16.1571
15.6276
15.654
15.6834
15.7168
15.7551
15.7971
15.8389
15.8968
15.363
15.3892
15.4183
15.4513
15.489
15.5303
15.5711
15.628
15.0899
15.1158
15.1446
15.1772
15.2144
15.255
15.2949
15.3509
14.8081
14.8338
14.8622
14.8945
14.9312
14.9711
15.0101
15.0652
14.5175
14.543
14.5712
14.6031
14.6394
14.6787
14.7169
14.7712
14.2186
14.244
14.2721
14.3037
14.3395
14.3783
14.4156
14.4692
13.9121
13.9374
13.9652
13.9966
14.032
14.0702
14.1068
14.1597
13.5984
13.6235
13.6512
13.6822
13.7172
13.7549
13.7908
13.843
13.2773
13.3022
13.3297
13.3605
13.3952
13.4323
13.4675
13.5191
12.949
12.9738
13.0011
13.0316
13.0659
13.1025
13.1371
13.188
12.6134
12.638
12.6652
12.6955
12.7294
12.7656
12.7996
12.85
12.2708
12.2954
12.3224
12.3525
12.3861
12.4218
12.4552
12.505
11.9214
11.9459
11.9727
12.0026
12.0359
12.0713
12.1041
12.1535
11.5653
11.5897
11.6164
11.6461
11.6791
11.7141
11.7463
11.7952
11.2027
11.227
11.2536
11.2831
11.3158
11.3504
11.3822
11.4307
10.8336
10.8579
10.8844
10.9137
10.9461
10.9803
11.0116
11.0596
10.4581
10.4823
10.5087
10.5379
10.5701
10.604
10.6348
10.6825
10.0763
10.1005
10.1267
10.1557
10.1877
10.2212
10.2516
10.2988
9.68827
9.71238
9.7386
9.76746
9.79916
9.83242
9.8624
9.90928
9.29426
9.31833
9.34444
9.37312
9.40455
9.43748
9.46702
9.51352
8.89419
8.91824
8.9443
8.97286
9.0041
9.03676
9.06594
9.11213
8.48843
8.51244
8.53841
8.56681
8.59781
8.63015
8.65892
8.70476
8.07674
8.10075
8.12667
8.15497
8.18579
8.21791
8.24636
8.29193
7.65948
7.68347
7.70933
7.73749
7.7681
7.79996
7.82812
7.87346
7.23646
7.26044
7.28625
7.31433
7.34477
7.37643
7.40467
7.45046
6.80791
6.83186
6.85759
6.88553
6.91576
6.9471
6.97516
7.02106
6.37378
6.39769
6.42335
6.45116
6.48121
6.51231
6.54009
6.58575
5.93429
5.95814
5.9837
6.01138
6.04124
6.07211
6.0996
6.14502
5.4895
5.51326
5.5387
5.5662
5.59584
5.62645
5.65363
5.69871
5.03955
5.06321
5.08854
5.11589
5.14534
5.17575
5.20268
5.24755
4.58451
4.60801
4.63314
4.66024
4.68938
4.71947
4.746
4.79045
4.12462
4.14796
4.17291
4.19983
4.22876
4.25865
4.28499
4.32935
3.65952
3.68248
3.70707
3.7336
3.76213
3.79164
3.81756
3.86151
3.19001
3.21266
3.23691
3.26308
3.29124
3.3204
3.34599
3.3897
2.71381
2.73537
2.75867
2.78403
2.81153
2.84022
2.86551
2.9091
2.23565
2.25678
2.27958
2.30435
2.33117
2.35917
2.38383
2.42674
1.74341
1.76106
1.78097
1.80353
1.82884
1.85608
1.88065
1.92458
1.26275
1.28118
1.30116
1.32305
1.34698
1.37222
1.3948
1.43512
0.739297
0.746867
0.757958
0.773152
0.792848
0.815929
0.834875
0.883295
0.302155
0.320212
0.336599
0.351731
0.366652
0.383723
0.400915
0.376896
)
;

boundaryField
{
    frontAndBack
    {
        type            empty;
    }
    inlet
    {
        type            zeroGradient;
    }
    outlet
    {
        type            fixedValue;
        value           uniform 0;
    }
    walls
    {
        type            zeroGradient;
    }
}


// ************************************************************************* //
