/*--------------------------------*- C++ -*----------------------------------*\
| =========                 |                                                 |
| \\      /  F ield         | OpenFOAM: The Open Source CFD Toolbox           |
|  \\    /   O peration     | Version:  v2012                                 |
|   \\  /    A nd           | Website:  www.openfoam.com                      |
|    \\/     M anipulation  |                                                 |
\*---------------------------------------------------------------------------*/
FoamFile
{
    version     2.0;
    format      ascii;
    class       surfaceScalarField;
    location    "0.313";
    object      phi.air;
}
// * * * * * * * * * * * * * * * * * * * * * * * * * * * * * * * * * * * * * //

dimensions      [0 3 -1 0 0 0 0];
oriented        oriented;


internalField   nonuniform List<scalar> 
10964
(
0.000657106
2.51274e-05
0.000628902
2.73624e-05
0.000601318
2.6741e-05
0.000575026
2.54452e-05
0.000551119
2.30598e-05
0.000530162
2.01072e-05
0.000512502
1.68082e-05
0.000497901
1.3749e-05
0.000485908
1.11386e-05
0.000476267
8.78708e-06
0.000468659
6.75352e-06
0.000462713
5.09043e-06
0.000458071
3.78615e-06
0.000454433
2.7828e-06
0.00045154
2.03718e-06
0.000449194
1.48949e-06
0.000447253
1.08519e-06
0.00044561
7.86517e-07
0.000444195
5.59355e-07
0.000442977
3.62365e-07
0.00044192
2.0129e-07
0.000441019
4.46145e-08
0.000440275
-1.12324e-07
0.000439661
-2.4134e-07
0.000439158
-3.53277e-07
0.00043874
-4.37334e-07
0.000438398
-5.1451e-07
0.000438106
-5.63151e-07
0.000437852
-6.02265e-07
0.000437613
-6.16339e-07
0.000437379
-6.21263e-07
0.000437142
-6.19097e-07
0.000436906
-6.19272e-07
0.000436671
-6.20467e-07
0.000436436
-6.20403e-07
0.000436206
-6.26026e-07
0.000435979
-6.28541e-07
0.00043576
-6.3678e-07
0.000435547
-6.41924e-07
0.000435344
-6.52743e-07
0.000435151
-6.62607e-07
0.000434969
-6.73715e-07
0.000434797
-6.83602e-07
0.000434641
-6.99374e-07
0.000434499
-7.1322e-07
0.000434371
-7.2787e-07
0.000434255
-7.3986e-07
0.000434151
-7.51246e-07
0.000434057
-7.61518e-07
0.000433974
-7.72145e-07
0.000433893
-7.74322e-07
0.000433821
-7.83647e-07
0.000433759
-7.93351e-07
0.000433705
-8.01955e-07
0.000433659
-8.08914e-07
0.000433623
-8.19612e-07
0.000433593
-8.25419e-07
0.000433572
-8.35009e-07
0.000433563
-8.46295e-07
0.000433563
-8.54979e-07
0.000433568
-8.60709e-07
0.000433584
-8.71192e-07
0.000433606
-8.77304e-07
0.000433637
-8.86739e-07
0.000433675
-8.93081e-07
0.000433722
-9.02743e-07
0.000433774
-9.0779e-07
0.000433837
-9.17786e-07
0.000433903
-9.21583e-07
0.000433979
-9.31168e-07
0.000434059
-9.35782e-07
0.000434149
-9.44954e-07
0.000434243
-9.49206e-07
0.000434345
-9.56848e-07
0.000434452
-9.62607e-07
0.000434566
-9.69426e-07
0.000434686
-9.74797e-07
0.000434811
-9.80713e-07
0.000434943
-9.86392e-07
0.000435079
-9.91057e-07
0.00043522
-9.9673e-07
0.000435364
-9.98553e-07
0.000435514
-1.00573e-06
0.000435663
-1.00362e-06
0.000435821
-1.01307e-06
0.000435973
-1.00681e-06
0.000436142
-1.02407e-06
0.000436295
-1.00807e-06
0.00043649
-1.05042e-06
0.000436647
-1.01207e-06
0.000436858
-1.06596e-06
0.00043701
-1.00636e-06
0.00043723
-1.07506e-06
0.000437352
-9.76788e-07
0.000437638
-1.14054e-06
0.000437737
-9.53396e-07
0.000438153
-1.27152e-06
0.000438866
-1.56726e-06
0.000437462
5.47936e-07
-1.11722e-05
0.000447782
0.000757085
2.43227e-05
0.000754877
2.95706e-05
0.000751202
3.04157e-05
0.000745928
3.07191e-05
0.000739361
2.96269e-05
0.000731832
2.76362e-05
0.000723576
2.50641e-05
0.00071497
2.23547e-05
0.000706311
1.97978e-05
0.000697783
1.73153e-05
0.000689587
1.49498e-05
0.00068184
1.28375e-05
0.000674619
1.10065e-05
0.000667976
9.42636e-06
0.000661923
8.09001e-06
0.000656453
6.95891e-06
0.000651544
5.99438e-06
0.000647161
5.16993e-06
0.000643278
4.44272e-06
0.000639872
3.76837e-06
0.000636901
3.17144e-06
0.000634312
2.63352e-06
0.000632004
2.19595e-06
0.000629934
1.82916e-06
0.00062808
1.49996e-06
0.000626416
1.2272e-06
0.000624894
1.00705e-06
0.000623479
8.52671e-07
0.000622159
7.17636e-07
0.000620928
6.14098e-07
0.000619781
5.25502e-07
0.000618716
4.46509e-07
0.000617735
3.61561e-07
0.000616828
2.8652e-07
0.00061599
2.17484e-07
0.000615213
1.50893e-07
0.000614493
9.18276e-08
0.000613824
3.19402e-08
0.000613204
-2.13994e-08
0.000612629
-7.78291e-08
0.000612098
-1.31886e-07
0.000611606
-1.81898e-07
0.000611153
-2.30601e-07
0.000610735
-2.81726e-07
0.000610349
-3.2658e-07
0.000609989
-3.67941e-07
0.000609653
-4.0383e-07
0.00060934
-4.38362e-07
0.000609048
-4.69391e-07
0.000608777
-5.01539e-07
0.000608526
-5.2282e-07
0.000608294
-5.5199e-07
0.000608081
-5.80436e-07
0.000607888
-6.08639e-07
0.000607713
-6.3407e-07
0.000607558
-6.64495e-07
0.000607419
-6.86195e-07
0.000607297
-7.13324e-07
0.000607192
-7.41e-07
0.000607103
-7.6664e-07
0.00060703
-7.87186e-07
0.000606972
-8.13232e-07
0.000606927
-8.3255e-07
0.000606897
-8.5616e-07
0.000606881
-8.7714e-07
0.000606876
-8.98286e-07
0.000606882
-9.14035e-07
0.000606901
-9.36539e-07
0.000606931
-9.51095e-07
0.000606974
-9.74153e-07
0.000607026
-9.88165e-07
0.000607091
-1.00979e-06
0.000607165
-1.02309e-06
0.00060725
-1.04202e-06
0.000607345
-1.05733e-06
0.00060745
-1.07465e-06
0.000607563
-1.08803e-06
0.000607685
-1.10305e-06
0.000607815
-1.11563e-06
0.000607953
-1.12907e-06
0.000608096
-1.13991e-06
0.000608248
-1.15053e-06
0.000608403
-1.16114e-06
0.000608569
-1.16948e-06
0.000608734
-1.17788e-06
0.000608916
-1.18866e-06
0.00060909
-1.19862e-06
0.000609291
-1.20864e-06
0.000609473
-1.23263e-06
0.00060969
-1.22933e-06
0.000609876
-1.2517e-06
0.000610112
-1.24214e-06
0.000610286
-1.24942e-06
0.00061057
-1.26048e-06
0.000610717
-1.28757e-06
0.000611134
-1.3704e-06
0.000611258
-1.39547e-06
0.000611964
-2.27357e-06
0.000612195
3.17243e-07
-1.51905e-05
0.000616213
0.000840343
2.13132e-05
0.000842332
2.75813e-05
0.000844302
2.84452e-05
0.000845632
2.9389e-05
0.000846213
2.90464e-05
0.000845985
2.78638e-05
0.000845036
2.60129e-05
0.000843329
2.40619e-05
0.000840904
2.22234e-05
0.000837777
2.04421e-05
0.000834026
1.87008e-05
0.000829712
1.71513e-05
0.00082494
1.57787e-05
0.000819829
1.45376e-05
0.000814507
1.3412e-05
0.000809098
1.23675e-05
0.000803704
1.13881e-05
0.00079845
1.04244e-05
0.000793419
9.47401e-06
0.000788679
8.50771e-06
0.000784255
7.59565e-06
0.000780181
6.70751e-06
0.000776459
5.91846e-06
0.000773064
5.22358e-06
0.000769972
4.59219e-06
0.000767152
4.04667e-06
0.000764562
3.59735e-06
0.000762171
3.24359e-06
0.00075997
2.91858e-06
0.000757948
2.63601e-06
0.000756091
2.38253e-06
0.000754389
2.14928e-06
0.000752829
1.92148e-06
0.000751392
1.72354e-06
0.000750067
1.54189e-06
0.000748842
1.37586e-06
0.000747711
1.22323e-06
0.000746663
1.07929e-06
0.000745696
9.45597e-07
0.000744802
8.16809e-07
0.000743978
6.91771e-07
0.000743216
5.80311e-07
0.000742515
4.70209e-07
0.000741859
3.74223e-07
0.000741242
2.90268e-07
0.000740662
2.12368e-07
0.000740117
1.40857e-07
0.000739608
7.0546e-08
0.000739133
5.91387e-09
0.000738691
-5.97315e-08
0.000738282
-1.13449e-07
0.000737903
-1.73281e-07
0.000737554
-2.31549e-07
0.000737236
-2.90013e-07
0.000736945
-3.43752e-07
0.000736683
-4.02365e-07
0.000736446
-4.48793e-07
0.000736234
-5.0108e-07
0.000736044
-5.51038e-07
0.000735877
-5.99877e-07
0.000735731
-6.41676e-07
0.000735606
-6.8799e-07
0.0007355
-7.25942e-07
0.000735412
-7.68231e-07
0.000735341
-8.06569e-07
0.000735288
-8.44904e-07
0.00073525
-8.76292e-07
0.000735228
-9.14803e-07
0.000735225
-9.47695e-07
0.000735234
-9.83372e-07
0.000735257
-1.01138e-06
0.000735296
-1.04853e-06
0.000735348
-1.07527e-06
0.000735415
-1.10834e-06
0.000735494
-1.13638e-06
0.000735585
-1.16645e-06
0.000735687
-1.18957e-06
0.000735799
-1.21505e-06
0.000735919
-1.23623e-06
0.00073605
-1.25998e-06
0.000736188
-1.27782e-06
0.000736337
-1.29931e-06
0.000736491
-1.31535e-06
0.000736658
-1.33654e-06
0.000736827
-1.34611e-06
0.000737014
-1.37624e-06
0.000737197
-1.38135e-06
0.000737407
-1.41918e-06
0.000737601
-1.42607e-06
0.000737832
-1.46059e-06
0.000738035
-1.45436e-06
0.000738279
-1.4866e-06
0.000738486
-1.45642e-06
0.000738768
-1.54246e-06
0.000738976
-1.49548e-06
0.000739345
-1.73936e-06
0.000739577
-1.62742e-06
0.000740207
-2.90299e-06
0.000741375
-8.51192e-07
-1.58508e-05
0.000742035
0.000930296
1.80904e-05
0.000933078
2.47985e-05
0.000936234
2.529e-05
0.000939314
2.63089e-05
0.00094213
2.62298e-05
0.000944657
2.53373e-05
0.000946786
2.38839e-05
0.000948508
2.23395e-05
0.000949817
2.09142e-05
0.000950712
1.95474e-05
0.000951157
1.8256e-05
0.000951127
1.71816e-05
0.000950718
1.61868e-05
0.000949891
1.53652e-05
0.000948629
1.4674e-05
0.000946928
1.40688e-05
0.00094479
1.3526e-05
0.000942219
1.2995e-05
0.00093924
1.24535e-05
0.000935888
1.18588e-05
0.000932208
1.12764e-05
0.000928294
1.06214e-05
0.000924255
9.9572e-06
0.000920212
9.26694e-06
0.000916222
8.58192e-06
0.000912371
7.89726e-06
0.000908729
7.23935e-06
0.000905329
6.64438e-06
0.000902176
6.0708e-06
0.000899264
5.54826e-06
0.000896576
5.07079e-06
0.000894091
4.6338e-06
0.000891765
4.24746e-06
0.000889588
3.9009e-06
0.000887554
3.57602e-06
0.000885656
3.27337e-06
0.00088389
2.98915e-06
0.000882248
2.72128e-06
0.000880727
2.46704e-06
0.000879316
2.22756e-06
0.000878017
1.99056e-06
0.000876812
1.78542e-06
0.000875696
1.58685e-06
0.000874656
1.4139e-06
0.000873689
1.25766e-06
0.000872786
1.11462e-06
0.000871945
9.81742e-07
0.000871162
8.54209e-07
0.000870432
7.35319e-07
0.000869755
6.18013e-07
0.000869127
5.14022e-07
0.000868546
4.07539e-07
0.000868011
3.03708e-07
0.000867518
2.02766e-07
0.000867068
1.06364e-07
0.000866657
8.45696e-09
0.000866281
-7.25439e-08
0.000865938
-1.57896e-07
0.000865626
-2.39295e-07
0.000865344
-3.17791e-07
0.00086509
-3.87301e-07
0.000864862
-4.60126e-07
0.000864659
-5.22649e-07
0.00086448
-5.89589e-07
0.000864324
-6.50562e-07
0.000864191
-7.11544e-07
0.000864078
-7.63979e-07
0.000863988
-8.24138e-07
0.000863919
-8.78779e-07
0.00086387
-9.34354e-07
0.000863842
-9.84025e-07
0.000863832
-1.03784e-06
0.000863841
-1.08416e-06
0.000863865
-1.1325e-06
0.000863906
-1.17785e-06
0.00086396
-1.22058e-06
0.000864026
-1.25527e-06
0.000864103
-1.29195e-06
0.000864192
-1.32533e-06
0.000864292
-1.36032e-06
0.000864405
-1.39009e-06
0.000864528
-1.42263e-06
0.000864664
-1.45101e-06
0.00086481
-1.48282e-06
0.000864967
-1.50341e-06
0.000865137
-1.54649e-06
0.000865318
-1.56148e-06
0.000865511
-1.61249e-06
0.000865712
-1.62725e-06
0.000865923
-1.67144e-06
0.000866146
-1.6774e-06
0.000866374
-1.71488e-06
0.000866621
-1.70289e-06
0.000866866
-1.78801e-06
0.000867148
-1.77677e-06
0.000867431
-2.02256e-06
0.0008678
-1.99712e-06
0.00086827
-3.37209e-06
0.00086961
-2.19126e-06
-1.56307e-05
0.000869389
0.00102962
1.48958e-05
0.00103284
2.15823e-05
0.0010364
2.17328e-05
0.00104004
2.26624e-05
0.00104357
2.2701e-05
0.00104697
2.19415e-05
0.00105012
2.0731e-05
0.00105301
1.94485e-05
0.00105566
1.8263e-05
0.00105807
1.71455e-05
0.00106022
1.60991e-05
0.00106216
1.52483e-05
0.00106386
1.448e-05
0.00106537
1.38584e-05
0.00106667
1.33726e-05
0.00106777
1.29698e-05
0.00106865
1.26465e-05
0.0010693
1.23467e-05
0.00106968
1.20703e-05
0.00106975
1.17929e-05
0.00106951
1.15167e-05
0.00106894
1.11918e-05
0.00106801
1.08863e-05
0.0010667
1.05698e-05
0.00106504
1.02512e-05
0.00106302
9.91197e-06
0.00106071
9.5455e-06
0.00105818
9.18039e-06
0.00105547
8.77578e-06
0.00105266
8.366e-06
0.00104977
7.95855e-06
0.00104689
7.51141e-06
0.00104405
7.08751e-06
0.0010413
6.65272e-06
0.00103864
6.23109e-06
0.00103611
5.80811e-06
0.0010337
5.40042e-06
0.00103142
5.00215e-06
0.00102927
4.61719e-06
0.00102725
4.24828e-06
0.00102535
3.88271e-06
0.00102355
3.58882e-06
0.00102184
3.30136e-06
0.00102022
3.02994e-06
0.00101871
2.77171e-06
0.00101729
2.53182e-06
0.00101596
2.30531e-06
0.00101473
2.09065e-06
0.00101358
1.88755e-06
0.0010125
1.69166e-06
0.00101151
1.51057e-06
0.00101058
1.33385e-06
0.00100972
1.15987e-06
0.00100893
9.97496e-07
0.00100819
8.4217e-07
0.00100751
6.932e-07
0.00100687
5.64704e-07
0.00100628
4.34381e-07
0.00100573
3.12068e-07
0.00100522
1.93187e-07
0.00100474
8.41314e-08
0.00100431
-2.55159e-08
0.00100391
-1.23073e-07
0.00100355
-2.24492e-07
0.00100321
-3.19025e-07
0.00100291
-4.11903e-07
0.00100265
-4.96327e-07
0.00100241
-5.87019e-07
0.0010022
-6.73567e-07
0.00100203
-7.55937e-07
0.00100188
-8.3583e-07
0.00100175
-9.12413e-07
0.00100165
-9.84926e-07
0.00100157
-1.05304e-06
0.00100152
-1.12231e-06
0.00100148
-1.1828e-06
0.00100146
-1.23877e-06
0.00100147
-1.29417e-06
0.00100149
-1.34483e-06
0.00100152
-1.39439e-06
0.00100157
-1.44359e-06
0.00100164
-1.48922e-06
0.00100173
-1.53927e-06
0.00100183
-1.58042e-06
0.00100195
-1.62421e-06
0.00100207
-1.6744e-06
0.00100223
-1.7141e-06
0.00100238
-1.76829e-06
0.00100256
-1.80966e-06
0.00100274
-1.85026e-06
0.00100296
-1.88867e-06
0.00100316
-1.92067e-06
0.0010034
-1.94274e-06
0.00100363
-2.02087e-06
0.0010039
-2.04567e-06
0.00100418
-2.30267e-06
0.00100454
-2.35507e-06
0.00100492
-3.75631e-06
0.00100612
-3.3849e-06
-1.53646e-05
0.00100585
0.00113955
1.17858e-05
0.00114322
1.79102e-05
0.00114711
1.78456e-05
0.00115114
1.86302e-05
0.0011551
1.87343e-05
0.00115895
1.80907e-05
0.00116259
1.70976e-05
0.00116599
1.60454e-05
0.00116919
1.50619e-05
0.00117219
1.41468e-05
0.001175
1.32914e-05
0.00117765
1.25974e-05
0.00118015
1.19829e-05
0.00118252
1.14866e-05
0.00118478
1.11116e-05
0.00118694
1.08088e-05
0.00118901
1.05768e-05
0.00119098
1.0373e-05
0.00119286
1.01896e-05
0.00119464
1.00196e-05
0.0011963
9.85872e-06
0.00119782
9.66319e-06
0.00119921
9.49898e-06
0.00120045
9.33356e-06
0.00120151
9.19393e-06
0.00120238
9.04202e-06
0.00120302
8.9e-06
0.00120344
8.75672e-06
0.0012036
8.6201e-06
0.00120347
8.49284e-06
0.0012031
8.32978e-06
0.00120247
8.14148e-06
0.0012016
7.96085e-06
0.0012005
7.75165e-06
0.0011992
7.53619e-06
0.00119771
7.29249e-06
0.00119607
7.03895e-06
0.00119431
6.76291e-06
0.00119246
6.47212e-06
0.00119054
6.16407e-06
0.00118859
5.8336e-06
0.00118664
5.54103e-06
0.0011847
5.2414e-06
0.0011828
4.92951e-06
0.00118094
4.62531e-06
0.00117916
4.32029e-06
0.00117744
4.02544e-06
0.00117579
3.73362e-06
0.00117423
3.45199e-06
0.00117274
3.17612e-06
0.00117134
2.9134e-06
0.00117001
2.66078e-06
0.00116876
2.41321e-06
0.00116756
2.20267e-06
0.0011664
1.996e-06
0.0011653
1.79216e-06
0.00116426
1.60972e-06
0.00116327
1.42501e-06
0.00116233
1.24667e-06
0.00116145
1.07447e-06
0.00116063
9.10326e-07
0.00115985
7.50541e-07
0.00115913
5.98354e-07
0.00115845
4.48747e-07
0.00115783
3.032e-07
0.00115726
1.65077e-07
0.00115673
3.30366e-08
0.00115624
-9.97987e-08
0.00115579
-2.29148e-07
0.00115538
-3.45719e-07
0.00115501
-4.62609e-07
0.00115467
-5.70229e-07
0.00115436
-6.74432e-07
0.00115408
-7.70667e-07
0.00115382
-8.7048e-07
0.0011536
-9.58227e-07
0.00115341
-1.04648e-06
0.00115324
-1.1301e-06
0.00115311
-1.21066e-06
0.001153
-1.2834e-06
0.00115292
-1.3609e-06
0.00115286
-1.43002e-06
0.00115282
-1.50556e-06
0.00115281
-1.57073e-06
0.00115283
-1.64199e-06
0.00115286
-1.70274e-06
0.00115292
-1.77559e-06
0.00115299
-1.83969e-06
0.00115309
-1.91018e-06
0.0011532
-1.95992e-06
0.00115334
-2.02784e-06
0.00115349
-2.07175e-06
0.00115367
-2.11607e-06
0.00115386
-2.21217e-06
0.00115407
-2.25766e-06
0.00115431
-2.54699e-06
0.00115464
-2.68518e-06
0.00115499
-4.09956e-06
0.00115601
-4.41176e-06
-1.49953e-05
0.00115564
0.0012613
8.72111e-06
0.00126542
1.37886e-05
0.00126966
1.36049e-05
0.00127409
1.42029e-05
0.00127848
1.43385e-05
0.00128274
1.383e-05
0.00128678
1.30607e-05
0.00129058
1.22441e-05
0.00129417
1.14718e-05
0.00129756
1.07605e-05
0.00130075
1.00985e-05
0.00130379
9.55818e-06
0.00130669
9.0857e-06
0.00130947
8.70088e-06
0.00131217
8.41386e-06
0.00131479
8.18519e-06
0.00131736
8.01276e-06
0.00131986
7.86577e-06
0.00132232
7.73486e-06
0.00132472
7.61843e-06
0.00132707
7.51002e-06
0.00132936
7.37506e-06
0.00133159
7.2625e-06
0.00133377
7.15557e-06
0.0013359
7.06884e-06
0.00133796
6.98171e-06
0.00133996
6.90075e-06
0.00134188
6.82989e-06
0.00134374
6.76622e-06
0.0013455
6.72913e-06
0.00134717
6.66231e-06
0.00134872
6.59098e-06
0.00135015
6.52714e-06
0.00135144
6.45949e-06
0.00135259
6.3884e-06
0.00135358
6.30879e-06
0.00135439
6.2289e-06
0.00135502
6.13083e-06
0.00135545
6.03845e-06
0.0013557
5.92071e-06
0.00135571
5.82163e-06
0.00135556
5.68522e-06
0.00135526
5.54604e-06
0.0013548
5.39294e-06
0.00135418
5.23886e-06
0.00135343
5.0695e-06
0.00135256
4.89684e-06
0.00135159
4.70914e-06
0.00135052
4.516e-06
0.00134939
4.30911e-06
0.0013482
4.09895e-06
0.00134698
3.88139e-06
0.00134574
3.6529e-06
0.0013445
3.44287e-06
0.00134327
3.22999e-06
0.00134205
3.00753e-06
0.00134086
2.80498e-06
0.00133969
2.59248e-06
0.00133856
2.37729e-06
0.00133747
2.16841e-06
0.00133642
1.96039e-06
0.00133541
1.75849e-06
0.00133445
1.55837e-06
0.00133353
1.36448e-06
0.00133266
1.17253e-06
0.00133184
9.88038e-07
0.00133106
8.11856e-07
0.00133031
6.50468e-07
0.00132959
4.95552e-07
0.00132889
3.53788e-07
0.00132822
2.05262e-07
0.00132758
6.61258e-08
0.00132698
-7.32779e-08
0.00132641
-2.02629e-07
0.00132588
-3.40354e-07
0.00132539
-4.61521e-07
0.00132493
-5.87105e-07
0.0013245
-7.06939e-07
0.00132412
-8.25524e-07
0.00132377
-9.33631e-07
0.00132346
-1.04813e-06
0.00132318
-1.15217e-06
0.00132294
-1.26294e-06
0.00132273
-1.36112e-06
0.00132255
-1.46669e-06
0.00132241
-1.55746e-06
0.00132229
-1.66274e-06
0.00132221
-1.75792e-06
0.00132215
-1.8522e-06
0.00132213
-1.93753e-06
0.00132213
-2.02329e-06
0.00132215
-2.09432e-06
0.00132219
-2.1626e-06
0.00132226
-2.28126e-06
0.00132237
-2.36618e-06
0.0013225
-2.67218e-06
0.00132273
-2.91906e-06
0.00132296
-4.32671e-06
0.00132376
-5.21041e-06
-1.44731e-05
0.00132324
0.00139614
5.65798e-06
0.00140075
9.18426e-06
0.00140539
8.9594e-06
0.00141024
9.35323e-06
0.00141511
9.47381e-06
0.00141982
9.11897e-06
0.00142428
8.59629e-06
0.00142849
8.0338e-06
0.00143247
7.49465e-06
0.00143623
7.00436e-06
0.00143977
6.55071e-06
0.00144315
6.17763e-06
0.00144639
5.85361e-06
0.0014495
5.58689e-06
0.00145253
5.38937e-06
0.00145548
5.23432e-06
0.00145837
5.11941e-06
0.00146121
5.02404e-06
0.00146401
4.93936e-06
0.00146676
4.86669e-06
0.00146947
4.80081e-06
0.00147213
4.71104e-06
0.00147476
4.6344e-06
0.00147735
4.56267e-06
0.00147991
4.50671e-06
0.00148245
4.45099e-06
0.00148495
4.39882e-06
0.00148742
4.3536e-06
0.00148987
4.31752e-06
0.0014923
4.30488e-06
0.00149469
4.26944e-06
0.00149705
4.23198e-06
0.00149938
4.20051e-06
0.00150166
4.1735e-06
0.00150391
4.14228e-06
0.0015061
4.11253e-06
0.00150825
4.08114e-06
0.00151034
4.04588e-06
0.00151236
4.01154e-06
0.00151431
3.97168e-06
0.00151619
3.94641e-06
0.00151797
3.90399e-06
0.00151966
3.85521e-06
0.00152124
3.80772e-06
0.00152272
3.75933e-06
0.00152408
3.70967e-06
0.00152532
3.65815e-06
0.00152643
3.60282e-06
0.0015274
3.54587e-06
0.00152823
3.4803e-06
0.00152891
3.41912e-06
0.00152945
3.34134e-06
0.00152983
3.26896e-06
0.00153011
3.16953e-06
0.00153024
3.09645e-06
0.00153026
2.98947e-06
0.00153017
2.89209e-06
0.00152999
2.7755e-06
0.00152971
2.65504e-06
0.00152935
2.52993e-06
0.00152891
2.3988e-06
0.00152841
2.26148e-06
0.00152785
2.11789e-06
0.00152724
1.96848e-06
0.0015266
1.81315e-06
0.00152593
1.65745e-06
0.00152525
1.49561e-06
0.00152456
1.34313e-06
0.00152386
1.18724e-06
0.00152317
1.04343e-06
0.00152249
8.86769e-07
0.00152182
7.37339e-07
0.00152116
5.83929e-07
0.00152052
4.3832e-07
0.0015199
2.79212e-07
0.0015193
1.38546e-07
0.00151873
-1.04521e-08
0.00151818
-1.57644e-07
0.00151766
-3.02885e-07
0.00151716
-4.39652e-07
0.0015167
-5.82227e-07
0.00151626
-7.16695e-07
0.00151585
-8.55542e-07
0.00151548
-9.84661e-07
0.00151513
-1.11658e-06
0.00151481
-1.23706e-06
0.00151451
-1.36915e-06
0.00151425
-1.49476e-06
0.001514
-1.60805e-06
0.00151379
-1.72157e-06
0.00151359
-1.82254e-06
0.00151341
-1.92078e-06
0.00151326
-2.00936e-06
0.00151312
-2.14451e-06
0.00151302
-2.265e-06
0.00151293
-2.57784e-06
0.00151293
-2.9166e-06
0.0015129
-4.30416e-06
0.00151332
-5.62879e-06
-1.36744e-05
0.00151252
0.00154551
2.52714e-06
0.00155064
4.05338e-06
0.00155576
3.84654e-06
0.00156107
4.03731e-06
0.00156645
4.09148e-06
0.00157167
3.90594e-06
0.0015766
3.65893e-06
0.00158126
3.3733e-06
0.00158567
3.09099e-06
0.00158983
2.8457e-06
0.00159376
2.62004e-06
0.0015975
2.4342e-06
0.00160108
2.27194e-06
0.00160453
2.1358e-06
0.00160789
2.03692e-06
0.00161116
1.96148e-06
0.00161437
1.90926e-06
0.00161752
1.86853e-06
0.00162063
1.83216e-06
0.00162369
1.80551e-06
0.00162671
1.78351e-06
0.00162968
1.73861e-06
0.00163262
1.69684e-06
0.00163552
1.65867e-06
0.0016384
1.63116e-06
0.00164125
1.60243e-06
0.00164407
1.5747e-06
0.00164688
1.5473e-06
0.00164966
1.53157e-06
0.00165244
1.53282e-06
0.00165519
1.51747e-06
0.00165792
1.49761e-06
0.00166064
1.48364e-06
0.00166334
1.47458e-06
0.00166602
1.4624e-06
0.00166868
1.45229e-06
0.00167132
1.44047e-06
0.00167394
1.42825e-06
0.00167654
1.41268e-06
0.00167911
1.40027e-06
0.00168166
1.39739e-06
0.00168418
1.38394e-06
0.00168667
1.36374e-06
0.00168913
1.34785e-06
0.00169156
1.33086e-06
0.00169395
1.31744e-06
0.00169631
1.3015e-06
0.00169862
1.28867e-06
0.00170089
1.27315e-06
0.00170311
1.25839e-06
0.00170529
1.24497e-06
0.0017074
1.2286e-06
0.00170946
1.21141e-06
0.00171144
1.18644e-06
0.00171336
1.17819e-06
0.0017152
1.15411e-06
0.00171695
1.13447e-06
0.00171862
1.10723e-06
0.0017202
1.07699e-06
0.00172168
1.04842e-06
0.00172306
1.01647e-06
0.00172434
9.83403e-07
0.00172551
9.4731e-07
0.00172657
9.07199e-07
0.00172752
8.64625e-07
0.00172836
8.19614e-07
0.00172908
7.72782e-07
0.00172971
7.16939e-07
0.00173024
6.55889e-07
0.00173069
5.97954e-07
0.00173104
5.27814e-07
0.00173133
4.56043e-07
0.00173152
3.86905e-07
0.00173166
3.01759e-07
0.00173171
2.23396e-07
0.00173171
1.39582e-07
0.00173166
4.00721e-08
0.00173156
-5.63816e-08
0.00173142
-1.56372e-07
0.00173123
-2.5427e-07
0.00173101
-3.61103e-07
0.00173076
-4.67107e-07
0.00173048
-5.78947e-07
0.00173019
-6.87486e-07
0.00172987
-7.99594e-07
0.00172954
-9.03792e-07
0.00172919
-1.02448e-06
0.00172883
-1.13652e-06
0.00172846
-1.23492e-06
0.00172808
-1.3377e-06
0.00172768
-1.42852e-06
0.00172728
-1.51658e-06
0.00172687
-1.59718e-06
0.00172644
-1.71727e-06
0.00172601
-1.83627e-06
0.00172556
-2.13074e-06
0.00172516
-2.51071e-06
0.00172469
-3.8413e-06
0.00172456
-5.49157e-06
-1.23955e-05
0.00172328
0.001711
-7.93999e-07
0.00171671
-1.64983e-06
0.00172235
-1.79952e-06
0.0017282
-1.81438e-06
0.00173416
-1.86677e-06
0.00173993
-1.86523e-06
0.0017454
-1.80331e-06
0.00175056
-1.78595e-06
0.00175543
-1.78579e-06
0.00176004
-1.75823e-06
0.00176439
-1.73335e-06
0.00176853
-1.71037e-06
0.0017725
-1.69436e-06
0.00177632
-1.68616e-06
0.00178003
-1.67522e-06
0.00178366
-1.66295e-06
0.00178721
-1.64557e-06
0.00179071
-1.62548e-06
0.00179415
-1.60947e-06
0.00179754
-1.58427e-06
0.00180088
-1.55777e-06
0.00180417
-1.55478e-06
0.00180743
-1.55818e-06
0.00181065
-1.56075e-06
0.00181384
-1.5572e-06
0.001817
-1.55745e-06
0.00182013
-1.5597e-06
0.00182325
-1.56939e-06
0.00182634
-1.56457e-06
0.00182943
-1.54857e-06
0.00183249
-1.54555e-06
0.00183553
-1.54855e-06
0.00183856
-1.54625e-06
0.00184158
-1.53956e-06
0.00184458
-1.53489e-06
0.00184756
-1.52883e-06
0.00185052
-1.52464e-06
0.00185347
-1.51924e-06
0.0018564
-1.52181e-06
0.00185932
-1.51427e-06
0.00186222
-1.5013e-06
0.0018651
-1.49732e-06
0.00186796
-1.49846e-06
0.00187081
-1.49744e-06
0.00187363
-1.49662e-06
0.00187644
-1.49294e-06
0.00187924
-1.49136e-06
0.00188201
-1.48629e-06
0.00188477
-1.48405e-06
0.00188751
-1.47949e-06
0.00189023
-1.47569e-06
0.00189293
-1.46918e-06
0.00189561
-1.47079e-06
0.00189826
-1.46798e-06
0.0019009
-1.45628e-06
0.0019035
-1.45243e-06
0.00190609
-1.44768e-06
0.00190864
-1.4446e-06
0.00191116
-1.4443e-06
0.00191365
-1.43966e-06
0.0019161
-1.43693e-06
0.00191851
-1.43124e-06
0.00192089
-1.42747e-06
0.00192322
-1.42237e-06
0.0019255
-1.41807e-06
0.00192773
-1.41084e-06
0.00192991
-1.40244e-06
0.00193202
-1.39782e-06
0.00193407
-1.39159e-06
0.00193605
-1.38339e-06
0.00193796
-1.38012e-06
0.00193979
-1.37383e-06
0.00194153
-1.35718e-06
0.00194319
-1.35518e-06
0.00194475
-1.33947e-06
0.00194622
-1.32912e-06
0.00194758
-1.31995e-06
0.00194883
-1.30942e-06
0.00194997
-1.29334e-06
0.001951
-1.27907e-06
0.0019519
-1.2631e-06
0.00195268
-1.24846e-06
0.00195333
-1.23032e-06
0.00195386
-1.21285e-06
0.00195425
-1.19658e-06
0.00195452
-1.17411e-06
0.00195467
-1.16948e-06
0.00195467
-1.13622e-06
0.00195456
-1.12751e-06
0.00195434
-1.11672e-06
0.00195401
-1.09537e-06
0.00195356
-1.07393e-06
0.00195302
-1.05262e-06
0.00195237
-1.06788e-06
0.00195164
-1.10206e-06
0.0019508
-1.29285e-06
0.00194991
-1.62548e-06
0.00194887
-2.79532e-06
0.00194791
-4.53362e-06
-1.03113e-05
0.00194582
0.00171104
-4.14956e-06
0.00171675
-7.36507e-06
0.0017224
-7.44948e-06
0.00172826
-7.67186e-06
0.00173422
-7.82894e-06
0.00174
-7.6373e-06
0.00174546
-7.26382e-06
0.00175062
-6.94595e-06
0.00175549
-6.66385e-06
0.0017601
-6.36202e-06
0.00176445
-6.08702e-06
0.0017686
-5.85518e-06
0.00177256
-5.6605e-06
0.00177638
-5.50876e-06
0.0017801
-5.38765e-06
0.00178372
-5.28768e-06
0.00178728
-5.20113e-06
0.00179077
-5.11921e-06
0.00179421
-5.05235e-06
0.0017976
-4.97397e-06
0.00180094
-4.8982e-06
0.00180424
-4.8488e-06
0.00180749
-4.81316e-06
0.00181071
-4.78079e-06
0.0018139
-4.74563e-06
0.00181706
-4.71744e-06
0.0018202
-4.69416e-06
0.00182331
-4.68686e-06
0.00182641
-4.66108e-06
0.00182949
-4.62922e-06
0.00183255
-4.6084e-06
0.0018356
-4.59465e-06
0.00183863
-4.57562e-06
0.00184164
-4.55293e-06
0.00184464
-4.53127e-06
0.00184762
-4.5084e-06
0.00185058
-4.48819e-06
0.00185353
-4.46373e-06
0.00185646
-4.45423e-06
0.00185937
-4.42542e-06
0.00186226
-4.39589e-06
0.00186514
-4.37367e-06
0.001868
-4.35539e-06
0.00187084
-4.33619e-06
0.00187366
-4.31632e-06
0.00187646
-4.29477e-06
0.00187924
-4.273e-06
0.001882
-4.24956e-06
0.00188475
-4.22644e-06
0.00188747
-4.20122e-06
0.00189017
-4.17684e-06
0.00189284
-4.14422e-06
0.0018955
-4.12691e-06
0.00189813
-4.09371e-06
0.00190072
-4.05529e-06
0.00190329
-4.02111e-06
0.00190583
-3.98397e-06
0.00190833
-3.94631e-06
0.00191079
-3.90688e-06
0.00191322
-3.86266e-06
0.00191559
-3.81481e-06
0.00191793
-3.76259e-06
0.0019202
-3.70658e-06
0.00192243
-3.64666e-06
0.00192459
-3.58116e-06
0.00192669
-3.51081e-06
0.00192872
-3.43323e-06
0.00193068
-3.35502e-06
0.00193256
-3.27241e-06
0.00193436
-3.17907e-06
0.00193607
-3.09332e-06
0.00193769
-2.99135e-06
0.00193921
-2.88119e-06
0.00194063
-2.77525e-06
0.00194195
-2.65805e-06
0.00194316
-2.53852e-06
0.00194426
-2.41807e-06
0.00194524
-2.29078e-06
0.0019461
-2.15929e-06
0.00194685
-2.02604e-06
0.00194748
-1.8931e-06
0.00194799
-1.7573e-06
0.00194839
-1.63059e-06
0.00194868
-1.50498e-06
0.00194887
-1.38681e-06
0.00194896
-1.25768e-06
0.00194893
-1.13924e-06
0.00194881
-1.01838e-06
0.00194859
-9.10464e-07
0.00194828
-8.02722e-07
0.00194787
-6.877e-07
0.00194737
-5.74632e-07
0.00194678
-4.66437e-07
0.00194611
-3.92749e-07
0.00194536
-3.4824e-07
0.0019445
-4.40751e-07
0.00194358
-7.02042e-07
0.00194248
-1.69066e-06
0.00194129
-3.34784e-06
-8.14198e-06
0.00193912
0.0015456
-7.37363e-06
0.00155077
-1.25259e-05
0.00155589
-1.25732e-05
0.00156122
-1.30029e-05
0.00156661
-1.3221e-05
0.00157183
-1.28535e-05
0.00157676
-1.21965e-05
0.00158142
-1.16083e-05
0.00158583
-1.10712e-05
0.00158999
-1.05198e-05
0.00159392
-1.0019e-05
0.00159766
-9.59864e-06
0.00160125
-9.24199e-06
0.0016047
-8.96116e-06
0.00160805
-8.74081e-06
0.00161133
-8.56145e-06
0.00161454
-8.41282e-06
0.00161769
-8.27413e-06
0.0016208
-8.16252e-06
0.00162386
-8.03457e-06
0.00162688
-7.91299e-06
0.00162985
-7.822e-06
0.00163279
-7.75035e-06
0.00163569
-7.68517e-06
0.00163857
-7.61994e-06
0.00164141
-7.56468e-06
0.00164423
-7.51551e-06
0.00164704
-7.49292e-06
0.00164982
-7.44409e-06
0.00165259
-7.39529e-06
0.00165534
-7.35546e-06
0.00165807
-7.3226e-06
0.00166077
-7.28449e-06
0.00166346
-7.242e-06
0.00166613
-7.19962e-06
0.00166878
-7.15499e-06
0.0016714
-7.11226e-06
0.001674
-7.06098e-06
0.00167658
-7.03155e-06
0.00167912
-6.96987e-06
0.00168164
-6.91164e-06
0.00168412
-6.8567e-06
0.00168657
-6.80232e-06
0.00168898
-6.74531e-06
0.00169134
-6.68377e-06
0.00169367
-6.61848e-06
0.00169594
-6.54715e-06
0.00169816
-6.47175e-06
0.00170033
-6.38985e-06
0.00170243
-6.30196e-06
0.00170446
-6.20854e-06
0.00170641
-6.09854e-06
0.00170829
-6.00475e-06
0.00171008
-5.88017e-06
0.00171177
-5.7513e-06
0.00171337
-5.61793e-06
0.00171486
-5.47764e-06
0.00171625
-5.32991e-06
0.00171752
-5.17595e-06
0.00171867
-5.01268e-06
0.00171969
-4.84276e-06
0.0017206
-4.66498e-06
0.00172137
-4.4829e-06
0.00172202
-4.29589e-06
0.00172256
-4.11372e-06
0.00172298
-3.93873e-06
0.00172331
-3.76235e-06
0.00172354
-3.58705e-06
0.00172368
-3.41288e-06
0.00172374
-3.22969e-06
0.0017237
-3.05871e-06
0.0017236
-2.88965e-06
0.00172343
-2.71554e-06
0.00172321
-2.54742e-06
0.00172292
-2.37717e-06
0.0017226
-2.21059e-06
0.00172223
-2.04923e-06
0.00172183
-1.8889e-06
0.0017214
-1.73042e-06
0.00172095
-1.57613e-06
0.00172048
-1.42711e-06
0.00172001
-1.28142e-06
0.00171952
-1.14951e-06
0.00171904
-1.02208e-06
0.00171856
-9.01264e-07
0.00171807
-7.74535e-07
0.00171759
-6.54894e-07
0.00171711
-5.35768e-07
0.00171662
-4.27264e-07
0.00171614
-3.20033e-07
0.00171566
-2.06631e-07
0.00171518
-9.58098e-08
0.0017147
1.2155e-08
0.00171422
8.93613e-08
0.00171373
1.3671e-07
0.00171323
6.86128e-08
0.00171269
-1.67257e-07
0.00171203
-1.03044e-06
0.00171123
-2.55105e-06
-6.56404e-06
0.00170966
0.00139628
-1.05773e-05
0.00140093
-1.71734e-05
0.00140559
-1.72368e-05
0.00141046
-1.78708e-05
0.00141534
-1.80985e-05
0.00142006
-1.75702e-05
0.00142451
-1.66531e-05
0.00142873
-1.58218e-05
0.00143271
-1.50533e-05
0.00143646
-1.42743e-05
0.00144001
-1.35693e-05
0.00144339
-1.29784e-05
0.00144663
-1.24739e-05
0.00144974
-1.2076e-05
0.00145277
-1.17657e-05
0.00145572
-1.15125e-05
0.00145861
-1.13062e-05
0.00146145
-1.11122e-05
0.00146424
-1.0959e-05
0.00146699
-1.07807e-05
0.00146969
-1.06138e-05
0.00147235
-1.04801e-05
0.00147497
-1.03713e-05
0.00147755
-1.02698e-05
0.00148011
-1.01705e-05
0.00148262
-1.00826e-05
0.00148511
-1.00003e-05
0.00148757
-9.95335e-06
0.00148999
-9.8692e-06
0.00149239
-9.7883e-06