/*--------------------------------*- C++ -*----------------------------------*\
| =========                 |                                                 |
| \\      /  F ield         | OpenFOAM: The Open Source CFD Toolbox           |
|  \\    /   O peration     | Version:  v2012                                 |
|   \\  /    A nd           | Website:  www.openfoam.com                      |
|    \\/     M anipulation  |                                                 |
\*---------------------------------------------------------------------------*/
FoamFile
{
    version     2.0;
    format      ascii;
    class       volScalarField;
    location    "0.081";
    object      k.air;
}
// * * * * * * * * * * * * * * * * * * * * * * * * * * * * * * * * * * * * * //

dimensions      [0 2 -2 0 0 0 0];


internalField   nonuniform List<scalar> 
5600
(
0.606303
0.840812
0.95512
0.978152
0.94918
0.897602
0.839522
0.787304
0.743274
0.707328
0.679283
0.658429
0.643305
0.632716
0.62524
0.620097
0.616242
0.613353
0.610901
0.60885
0.607041
0.605502
0.604244
0.603217
0.602405
0.601802
0.601358
0.601057
0.600835
0.600644
0.600418
0.600124
0.59977
0.599387
0.598999
0.598603
0.598172
0.597681
0.597138
0.596556
0.595952
0.595369
0.59485
0.594412
0.594084
0.593837
0.5937
0.593589
0.593603
0.593546
0.593709
0.593609
0.593927
0.593642
0.594164
0.593562
0.594418
0.593377
0.594707
0.5931
0.595066
0.592688
0.595591
0.592062
0.59631
0.591377
0.59677
0.591475
0.595754
0.593701
0.592225
0.598174
0.587759
0.601515
0.587033
0.598717
0.593606
0.588976
0.60477
0.579082
0.611828
0.576977
0.60883
0.584343
0.597419
0.59713
0.583478
0.609697
0.574897
0.610552
0.58545
0.584158
0.624634
0.540169
0.665451
0.511037
0.685687
0.455485
0.780276
0.0682021
0.371633
0.315563
0.288684
0.275658
0.274922
0.284734
0.307325
0.344891
0.387127
0.430273
0.471449
0.508955
0.541776
0.569474
0.591912
0.609783
0.623489
0.633906
0.64172
0.647827
0.652524
0.656407
0.659892
0.66311
0.665804
0.668115
0.670072
0.671755
0.67311
0.674182
0.674894
0.675246
0.675301
0.675213
0.675168
0.675273
0.675507
0.675806
0.676095
0.676281
0.67631
0.676147
0.67586
0.675487
0.675126
0.674722
0.674476
0.674117
0.674145
0.673766
0.67421
0.673579
0.674688
0.673382
0.675409
0.672929
0.676262
0.672182
0.677278
0.671119
0.678634
0.669511
0.680658
0.667171
0.683115
0.665203
0.68365
0.667343
0.67758
0.677795
0.66348
0.693413
0.650125
0.700129
0.654365
0.682462
0.683623
0.646641
0.719093
0.619055
0.732982
0.621615
0.711811
0.655053
0.668834
0.700528
0.624258
0.737625
0.605763
0.723203
0.6632
0.619318
0.794141
0.491509
0.878517
0.454175
0.830579
0.528053
0.690286
0.702388
0.369148
0.281896
0.227751
0.192992
0.168564
0.15383
0.145605
0.143597
0.146966
0.155134
0.167034
0.181925
0.199232
0.21866
0.239101
0.260613
0.282482
0.304548
0.326344
0.348311
0.369455
0.390387
0.409135
0.425671
0.439822
0.452123
0.46274
0.47188
0.479821
0.486835
0.492902
0.498115
0.502527
0.50633
0.509784
0.513065
0.516257
0.519361
0.522255
0.524777
0.526834
0.528349
0.529361
0.529908
0.5302
0.530155
0.530176
0.529827
0.529999
0.529394
0.530101
0.528998
0.53067
0.528549
0.531619
0.527828
0.532785
0.526747
0.534215
0.525192
0.536215
0.522785
0.539164
0.519564
0.542148
0.51791
0.540962
0.523567
0.529602
0.540434
0.509256
0.560322
0.495855
0.561401
0.511007
0.529378
0.554808
0.482179
0.595672
0.456789
0.599619
0.47354
0.561641
0.523493
0.503477
0.582653
0.449039
0.621254
0.440812
0.581316
0.533695
0.439983
0.691554
0.304983
0.753471
0.316616
0.639389
0.491149
0.397831
0.774067
0.370101
0.280646
0.224116
0.186055
0.158536
0.138216
0.122947
0.111352
0.102907
0.0970145
0.093539
0.0923398
0.0928644
0.0954412
0.0994437
0.105326
0.112771
0.121999
0.132701
0.14539
0.159348
0.175207
0.192332
0.210548
0.229054
0.247506
0.265255
0.281874
0.297468
0.311995
0.325357
0.337254
0.34785
0.357318
0.365959
0.374084
0.381937
0.389554
0.396722
0.403098
0.408447
0.41262
0.415704
0.417758
0.419124
0.419729
0.420221
0.41998
0.420389
0.419542
0.420574
0.418939
0.421255
0.418227
0.422421
0.417214
0.423905
0.415788
0.425779
0.413686
0.428494
0.410418
0.432353
0.406483
0.4354
0.405914
0.43138
0.4162
0.413854
0.439746
0.388185
0.461444
0.37809
0.452917
0.406659
0.405987
0.46352
0.35123
0.50301
0.333586
0.492133
0.366071
0.438341
0.430675
0.368323
0.499339
0.309799
0.530655
0.318956
0.461184
0.445478
0.292644
0.611613
0.165735
0.64051
0.218002
0.48911
0.440658
0.207002
0.716176
0.370294
0.280779
0.224386
0.18605
0.158415
0.13766
0.121536
0.108748
0.0983681
0.0899494
0.0829654
0.0773973
0.0727699
0.0692939
0.0665454
0.0646896
0.0636932
0.0635888
0.0642133
0.0659521
0.0685181
0.0723041
0.0772609
0.0835884
0.0912999
0.100396
0.110504
0.121546
0.13337
0.146163
0.159464
0.173318
0.186739
0.199464
0.211593
0.223436
0.235275
0.24712
0.258614
0.269226
0.278424
0.286056
0.292039
0.296308
0.299299
0.300907
0.302105
0.302075
0.302799
0.301685
0.303032
0.300803
0.303709
0.299772
0.304976
0.298479
0.306679
0.296738
0.308949
0.294104
0.312344
0.29008
0.316835
0.285971
0.319061
0.287637
0.311054
0.303462
0.287394
0.33223
0.259501
0.351113
0.257414
0.329884
0.300317
0.270712
0.363641
0.217154
0.393598
0.213207
0.366427
0.260449
0.301847
0.332756
0.227421
0.401177
0.174754
0.415961
0.206618
0.322176
0.349336
0.152856
0.497704
0.0559777
0.495862
0.126922
0.35047
0.3402
0.0833616
0.56468
0.370322
0.280814
0.224508
0.186218
0.158633
0.13792
0.121796
0.108954
0.0984535
0.0897727
0.0824362
0.0762331
0.0708647
0.0662833
0.0622846
0.0588194
0.0558392
0.0532959
0.0511061
0.0493553
0.0479205
0.0469052
0.0462503
0.0460982
0.0463876
0.0473299
0.0487882
0.0509012
0.0536314
0.057269
0.0617189
0.0671891
0.0734122
0.0801005
0.0871071
0.0946132
0.10297
0.112356
0.122617
0.133135
0.143504
0.152607
0.160118
0.165697
0.169731
0.17199
0.17365
0.173698
0.174535
0.173148
0.174503
0.171833
0.174804
0.170453
0.175799
0.169005
0.177374
0.167149
0.17971
0.164298
0.183295
0.160182
0.18746
0.157088
0.187667
0.161853
0.175919
0.181359
0.150141
0.209063
0.127103
0.218644
0.13648
0.187053
0.186097
0.129142
0.238959
0.0920507
0.250188
0.104573
0.215616
0.152674
0.157997
0.214077
0.0952697
0.267168
0.0603723
0.26439
0.106308
0.175425
0.222141
0.0539654
0.316608
0.00514925
0.306593
0.0502021
0.230667
0.188815
0.0445963
0.347241
0.370325
0.280814
0.22453
0.186259
0.158705
0.13801
0.121923
0.109094
0.0986254
0.0899382
0.0826098
0.0763593
0.070954
0.0662546
0.0621227
0.0584674
0.0552216
0.0523227
0.0497154
0.0473885
0.045281
0.0434061
0.0417016
0.0402116
0.0388705
0.0377466
0.0367933
0.0360225
0.0354246
0.035054
0.0349425
0.035147
0.0356894
0.0365166
0.0375623
0.0388731
0.0406201
0.0430204
0.046225
0.0501544
0.0546608
0.0591128
0.0631295
0.0662639
0.0686147
0.0698566
0.0707427
0.0705028
0.0707956
0.0695739
0.0701476
0.0681431
0.0697343
0.0668493
0.0699208
0.0657179
0.0706822
0.0644021
0.0721388
0.0624397
0.0744397
0.059916
0.0766142
0.0589339
0.0751843
0.0640368
0.0656592
0.0778619
0.0493029
0.0930544
0.0393357
0.092655
0.0520742
0.0685621
0.083429
0.0375875
0.106319
0.026925
0.103089
0.0403795
0.0853132
0.0617244
0.0610759
0.0910883
0.027191
0.121854
0.00766155
0.119281
0.0343022
0.0736441
0.0906259
0.0190983
0.130012
0.00368297
0.126741
0.0134197
0.114253
0.0621124
0.0423642
0.133259
0.370324
0.280805
0.224526
0.18626
0.158717
0.138028
0.121955
0.109133
0.0986781
0.0899989
0.0826831
0.0764373
0.0710432
0.0663424
0.0622089
0.0585472
0.0552829
0.0523555
0.0497145
0.0473256
0.0451497
0.043168
0.041348
0.0396821
0.0381448
0.0367345
0.0354367
0.0342391
0.0331337
0.0321166
0.0311904
0.0303623
0.0296368
0.0290007
0.0284351
0.0279318
0.0275212
0.0272449
0.0271748
0.0273344
0.0277011
0.0281622
0.0286217
0.0289272
0.0290937
0.0289855
0.0288328
0.0283778
0.0281361
0.0274825
0.0273956
0.0266223
0.0268815
0.0259793
0.0266895
0.0255112
0.0267963
0.0250304
0.0272264
0.0243518
0.0279561
0.0235852
0.0285028
0.0235656
0.0276223
0.0256998
0.0241248
0.030302
0.0191939
0.0343343
0.0175604
0.032666
0.0230071
0.0245714
0.0318769
0.0174424
0.0354004
0.0181762
0.0323623
0.0215418
0.030659
0.0222661
0.0283768
0.0289694
0.0164984
0.0428032
0.00674306
0.0443195
0.0150644
0.0299935
0.0306576
0.0176699
0.0371459
0.0175504
0.03486
0.0194202
0.0342985
0.0303737
0.01135
0.0512302
0.370323
0.280796
0.224519
0.186253
0.158714
0.138027
0.121959
0.10914
0.0986893
0.0900141
0.0827028
0.0764606
0.0710716
0.0663741
0.0622444
0.0585865
0.0553246
0.0523986
0.0497596
0.0473686
0.0451916
0.0432019
0.0413758
0.0396955
0.0381443
0.0367089
0.0353766
0.0341359
0.032978
0.031896
0.030885
0.0299411
0.0290596
0.0282326
0.0274522
0.0267121
0.0260155
0.0253678
0.0247806
0.0242565
0.0237906
0.0233588
0.0229465
0.0225177
0.0220874
0.0216165
0.02118
0.020701
0.0203327
0.0199018
0.0196667
0.019312
0.0192312
0.0189463
0.0190012
0.0187408
0.0189273
0.0185911
0.0189899
0.0184054
0.019165
0.0181987
0.0193009
0.0182002
0.0190526
0.0187718
0.0181389
0.0199378
0.0169442
0.0208463
0.0166982
0.0202389
0.0181727
0.0182836
0.0199969
0.017252
0.0199135
0.0182414
0.0188483
0.0184725
0.0198601
0.0168244
0.0207293
0.0181618
0.016952
0.0228768
0.0139574
0.0222914
0.0183712
0.0164203
0.0230215
0.0149913
0.0210615
0.0194327
0.0153907
0.0250886
0.0105472
0.0296764
0.00568765
0.0306982
0.370323
0.280792
0.224515
0.18625
0.158712
0.138026
0.121959
0.109141
0.0986921
0.0900184
0.0827085
0.0764678
0.0710803
0.0663842
0.062256
0.0585996
0.0553391
0.0524144
0.049777
0.047387
0.0452114
0.0432223
0.0413971
0.039717
0.0381662
0.0367304
0.0353965
0.0341533
0.032992
0.031906
0.0308898
0.0299378
0.0290432
0.0281987
0.0273978
0.0266369
0.0259159
0.0252365
0.0246006
0.0240053
0.0234457
0.0229085
0.0223883
0.0218677
0.0213591
0.0208438
0.0203666
0.0198911
0.0194996
0.0191108
0.0188457
0.0185656
0.0184243
0.0182451
0.0181899
0.0180858
0.0180792
0.0180098
0.0180487
0.0179554
0.0180705
0.0179032
0.0180998
0.0178928
0.0180581
0.0179989
0.0178761
0.0182438
0.0176068
0.0184711
0.0175095
0.0183721
0.0178257
0.0179143
0.0182705
0.0176619
0.0182336
0.0179244
0.0179693
0.0179557
0.0182194
0.0176799
0.0180878
0.0185142
0.0167717
0.0195555
0.0169904
0.0175252
0.0205643
0.0135141
0.0236376
0.0124616
0.0220929
0.0169413
0.0147407
0.0263861
0.00540776
0.0324471
0.00462083
0.0272036
0.370323
0.280793
0.224517
0.186252
0.158714
0.138028
0.121961
0.109144
0.0986946
0.0900207
0.0827107
0.0764699
0.0710824
0.0663862
0.0622579
0.0586014
0.0553409
0.052416
0.0497785
0.0473885
0.0452128
0.0432237
0.0413984
0.0397183
0.0381675
0.0367316
0.0353978
0.0341547
0.0329935
0.0319076
0.0308915
0.0299398
0.0290457
0.0282019
0.0274018
0.0266417
0.0259214
0.0252433
0.0246094
0.0240171
0.023461
0.022928
0.0224112
0.0218948
0.0213874
0.020876
0.0203962
0.0199265
0.019527
0.0191487
0.0188685
0.0186064
0.0184421
0.0182884
0.018204
0.018131
0.0180899
0.0180599
0.0180492
0.0180224
0.0180455
0.0180017
0.0180449
0.018005
0.0180246
0.0180342
0.017986
0.018077
0.0179412
0.0181191
0.0179108
0.0181223
0.0179536
0.018021
0.0181125
0.0178216
0.0183247
0.0176323
0.0184383
0.017687
0.0180839
0.0184654
0.0168763
0.0198765
0.0157381
0.020147
0.0168207
0.017581
0.0206193
0.0131181
0.0250016
0.00965604
0.0264102
0.0115104
0.0203299
0.0216364
0.0083878
0.0322188
0.00188847
0.0335073
0.370324
0.280801
0.224525
0.186261
0.158722
0.138035
0.121966
0.109148
0.0986964
0.0900209
0.0827093
0.0764668
0.0710775
0.0663797
0.0622498
0.0585915
0.0553296
0.052403
0.0497643
0.0473727
0.0451962
0.0432061
0.0413807
0.0397003
0.0381496
0.0367152
0.0353842
0.0341454
0.0329895
0.0319099
0.0309023
0.0299639
0.02909
0.0282725
0.0275019
0.0267741
0.0260902
0.0254627
0.0249038
0.0244168
0.0239932
0.0236081
0.0232372
0.022849
0.0224403
0.0219974
0.0215546
0.0211027
0.0206983
0.0203117
0.0200053
0.0197296
0.0195363
0.0193781
0.0192708
0.0192015
0.0191441
0.0191207
0.019099
0.0190788
0.0190943
0.0190552
0.0190965
0.0190513
0.0190875
0.0190645
0.019067
0.0190926
0.0190247
0.0191551
0.0189414
0.0192456
0.0188756
0.0192376
0.0190157
0.0189136
0.019545
0.0182248
0.0202363
0.0178144
0.0200096
0.0189712
0.0179116
0.0216236
0.015446
0.0230391
0.0156672
0.0210286
0.0192444
0.0163362
0.0246513
0.0107995
0.0293508
0.00821781
0.0282609
0.013611
0.0193016
0.0244882
0.0092549
0.0323865
0.370325
0.280812
0.224537
0.186272
0.15873
0.13804
0.121967
0.109145
0.0986893
0.0900095
0.0826938
0.0764465
0.0710525
0.0663514
0.0622171
0.0585557
0.0552928
0.0523635
0.0497269
0.0473363
0.045167
0.0431847
0.0413748
0.0397107
0.0381849
0.0367868
0.035506
0.0343294
0.0332499
0.0322662
0.0313844
0.0306173
0.0299687
0.0294224
0.0289564
0.028575
0.0283033
0.0282239
0.0284067
0.0288746
0.0295697
0.0303648
0.0311135
0.0316798
0.0320006
0.0320527
0.0318971
0.0315703
0.0311733
0.0307195
0.030301
0.0299075
0.0296033
0.0293672
0.0291938
0.0290915
0.0289983
0.0289682
0.0289261
0.0289099
0.0289152
0.0288751
0.0289272
0.0288493
0.0289478
0.028824
0.0289659
0.0288277
0.0289094
0.028974
0.028641
0.0293713
0.0281554
0.0298369
0.0278889
0.0296748
0.0287066
0.028095
0.030909
0.0257681
0.0325324
0.0256963
0.0305294
0.029579
0.0258017
0.0338182
0.0231444
0.0344675
0.0241851
0.0320858
0.0279088
0.0268
0.0350221
0.0190128
0.0419605
0.0146599
0.0422948
0.01771
0.0362285
0.0250382
0.370326
0.280824
0.224545
0.186274
0.158724
0.138025
0.121942
0.109109
0.0986411
0.08995
0.082627
0.0763702
0.0709711
0.0662744
0.0621435
0.058498
0.0552665
0.0523686
0.049796
0.0474754
0.0454172
0.0435626
0.0419389
0.0404912
0.0392632
0.0382481
0.0374549
0.03686
0.0365042
0.036423
0.0366854
0.0373569
0.0384377
0.0398528
0.0415502
0.0435998
0.0462201
0.0496067
0.0539357
0.0590959
0.0646162
0.0699544
0.0746287
0.0783187
0.0809285
0.0825188
0.0832945
0.0834522
0.0832345
0.0827707
0.0822413
0.0817069
0.0812781
0.0809582
0.0807286
0.0806075
0.0804882
0.0804763
0.0804063
0.0804297
0.080397
0.0803988
0.080427
0.0803449
0.0805082
0.0802283
0.0806574
0.0800753
0.080752
0.0801445
0.080386
0.0809369
0.0791014
0.0826407
0.0772526
0.0841128
0.0768321
0.0827671
0.0803132
0.0774521
0.0863929
0.0723167
0.0888024
0.0734733
0.0843151
0.0798311
0.0778253
0.0856778
0.0726321
0.0906955
0.0680046
0.0928811
0.0702122
0.0850091
0.0831799
0.0699048
0.0976602
0.0577955
0.10406
0.0539389
0.370323
0.280831
0.224528
0.186236
0.158659
0.137931
0.121825
0.108965
0.0984863
0.0897902
0.0824971
0.0762808
0.0709728
0.0664202
0.062471
0.0590841
0.0562232
0.0537423
0.0517729
0.050147
0.0490125
0.0482631
0.0480845
0.0483696
0.0493795
0.0510401
0.0534611
0.0565531
0.0605517
0.0654716
0.0715559
0.0786168
0.0863843
0.0945373
0.102989
0.111924
0.121735
0.132418
0.143833
0.155384
0.166142
0.17546
0.182956
0.188545
0.192385
0.194762
0.196045
0.196553
0.196593
0.196356
0.196039
0.195718
0.195488
0.19534
0.195255
0.195241
0.195202
0.195255
0.195205
0.195286
0.195223
0.195297
0.195257
0.195258
0.195351
0.195113
0.195577
0.194821
0.195896
0.194584
0.195877
0.195091
0.194654
0.197161
0.191828
0.200326
0.189107
0.201525
0.190427
0.197123
0.19757
0.1886
0.205427
0.183446
0.206673
0.185874
0.20153
0.192674
0.193323
0.202651
0.181613
0.21435
0.172892
0.216595
0.178508
0.203349
0.196369
0.183043
0.214367
0.164971
0.370304
0.280792
0.224405
0.186075
0.15844
0.137693
0.1216
0.108824
0.098546
0.0901707
0.0834318
0.0779587
0.0736815
0.0704346
0.0680754
0.066695
0.0663382
0.0667546
0.0684171
0.0709842
0.0749485
0.0801524
0.0869216
0.0951126
0.105043
0.116115
0.128231
0.141061
0.154819
0.16933
0.184511
0.199349
0.213459
0.226705
0.239238
0.251394
0.263426
0.275285
0.286552
0.296772
0.305619
0.312837
0.318367
0.322332
0.324961
0.326535
0.327354
0.327663
0.327679
0.327532
0.327372
0.327238
0.32718
0.327162
0.327174
0.327216
0.327226
0.327293
0.327266
0.327352
0.327288
0.327379
0.32731
0.327363
0.327375
0.327257
0.327556
0.326999
0.327886
0.326662
0.328103
0.326764
0.32744
0.328205
0.325136
0.331207
0.321957
0.333706
0.321183
0.33185
0.325951
0.324671
0.334112
0.317416
0.338887
0.315891
0.337246
0.320015
0.330787
0.328912
0.319124
0.342491
0.306029
0.35178
0.303149
0.346615
0.314644
0.329175
0.333329
0.306163
0.370192
0.280543
0.224235
0.186046
0.158709
0.138525
0.123434
0.112321
0.104403
0.0993031
0.0968549
0.09654
0.0983548
0.102062
0.107586
0.11503
0.124356
0.135411
0.148613
0.163425
0.180313
0.198698
0.218253
0.238319
0.258425
0.277713
0.295719
0.312446
0.328
0.342346
0.355268
0.366824
0.377058
0.386187
0.394519
0.402383
0.409996
0.417313
0.42407
0.429928
0.434729
0.438461
0.441173
0.442998
0.444105
0.444677
0.444889
0.444877
0.444764
0.444617
0.444511
0.444451
0.444465
0.444505
0.44456
0.444619
0.444648
0.444711
0.444698
0.44477
0.444718
0.444801
0.44473
0.444799
0.444768
0.444733
0.444891
0.444545
0.445154
0.444236
0.445435
0.444122
0.44519
0.444935
0.443651
0.447201
0.440911
0.449855
0.439171
0.449808
0.441565
0.444985
0.448025
0.438143
0.453833
0.434536
0.454841
0.435923
0.451012
0.442117
0.441842
0.453898
0.4288
0.465735
0.421052
0.467301
0.425102
0.456299
0.438994
0.436053
0.36947
0.281383
0.22863
0.193039
0.170704
0.155976
0.150119
0.150423
0.156544
0.167358
0.181621
0.198759
0.218434
0.239768
0.262301
0.285649
0.309396
0.333072
0.356974
0.380313
0.403281
0.423815
0.441756
0.457365
0.470558
0.482393
0.492407
0.500899
0.508286
0.514716
0.520315
0.525062
0.529054
0.532498
0.535617
0.538593
0.541527
0.544393
0.547061
0.549373
0.551211
0.552551
0.55343
0.553885
0.554055
0.554029
0.553884
0.553684
0.553502
0.553372
0.553301
0.553277
0.553322
0.553389
0.55346
0.553523
0.553559
0.553612
0.553609
0.553665
0.553626
0.553693
0.553632
0.553699
0.553652
0.553663
0.553727
0.55354
0.553912
0.553301
0.55417
0.553106
0.554169
0.553472
0.553279
0.554972
0.551244
0.557239
0.549296
0.558185
0.549999
0.555509
0.554406
0.550111
0.559765
0.545828
0.562299
0.545275
0.560823
0.548877
0.554681
0.557608
0.543901
0.568854
0.534449
0.574408
0.533184
0.570094
0.540869
0.556334
0.372185
0.315454
0.292856
0.27948
0.286382
0.295424
0.331443
0.373558
0.418643
0.46312
0.504522
0.541571
0.573499
0.599943
0.621194
0.637831
0.650534
0.660054
0.667447
0.673075
0.677626
0.681609
0.685134
0.688141
0.690646
0.692632
0.694265
0.695504
0.696454
0.697094
0.697416
0.697397
0.697124
0.696784
0.696527
0.69642
0.696465
0.696626
0.696806
0.696908
0.696879
0.696704
0.696412
0.69604
0.695646
0.695268
0.694935
0.69467
0.694494
0.694396
0.694366
0.694387
0.694463
0.694546
0.694623
0.694682
0.694721
0.694763
0.694768
0.694807
0.694782
0.694831
0.694785
0.694839
0.694793
0.694824
0.694832
0.694755
0.694943
0.694598
0.695137
0.694407
0.695252
0.694481
0.694855
0.695307
0.693577
0.696931
0.691895
0.69823
0.691507
0.697271
0.693931
0.693675
0.698052
0.689787
0.70111
0.687987
0.701422
0.689317
0.698137
0.694723
0.690698
0.703461
0.682078
0.710531
0.677915
0.711087
0.680139
0.705443
0.60674
0.839817
0.952192
0.969557
0.937543
0.88126
0.821346
0.769011
0.72443
0.688379
0.660672
0.640131
0.625409
0.614945
0.60766
0.602395
0.598513
0.59543
0.592912
0.590792
0.588965
0.587536
0.586373
0.585466
0.584738
0.584161
0.583735
0.583404
0.583123
0.582825
0.582456
0.582009
0.581514
0.581005
0.580513
0.580028
0.579526
0.578998
0.57844
0.577854
0.577262
0.576702
0.576202
0.575781
0.575447
0.575201
0.575036
0.57494
0.574898
0.574897
0.574932
0.574985
0.575046
0.575096
0.575138
0.575167
0.575188
0.575204
0.575209
0.575221
0.575216
0.57523
0.575217
0.575233
0.575218
0.575232
0.575226
0.575218
0.575251
0.57518
0.575303
0.57512
0.575357
0.575099
0.57531
0.575254
0.57502
0.575683
0.574511
0.57617
0.574196
0.57618
0.574607
0.575356
0.575755
0.574099
0.576914
0.573257
0.577384
0.573258
0.57689
0.574411
0.575098
0.576929
0.572419
0.579807
0.570919
0.581861
0.572898
0.585317
1.18792
1.96719
1.98018
2.57809
3.1504
3.06176
3.2977
3.32102
2.01092
0.721166
0.207182
0.0729154
0.0435188
0.0376146
0.0351929
0.0357812
0.0371916
0.0379776
0.0386648
0.0390164
0.0383734
0.0366709
0.0344162
0.032178
0.030267
0.0287079
0.0273698
0.0261118
0.0248672
0.0236521
0.0225305
0.021567
0.0207891
0.0201712
0.0196596
0.0192173
0.0188426
0.0185458
0.0183282
0.0181836
0.0180986
0.0180534
0.0180306
0.0180195
0.0180142
0.0180116
0.0180104
0.0180097
0.0180094
0.0180093
0.0180092
0.0180091
0.0180091
0.0180091
0.0180091
0.0180091
0.0180091
0.0180091
0.0180091
0.0180091
0.0180091
0.0180091
0.0180091
0.0180091
0.0180091
0.0180091
0.0180091
0.0180091
0.0180091
0.0180091
0.0180091
0.0180091
0.018009
0.0180092
0.0180089
0.0180093
0.0180088
0.0180093
0.0180089
0.0180093
0.0180088
0.0180093
0.0180088
0.0180094
0.0180087
0.0180094
0.0180087
0.0180095
0.0180087
0.0180095
0.0180086
0.0180095
0.0180085
0.0180094
0.0180083
0.0180091
0.0180078
0.0180083
0.0180069
0.0180074
0.450363
1.58511
1.75145
2.29786
2.88086
2.75216
2.9761
2.85087
1.44758
0.422028
0.112324
0.048449
0.0339933
0.0313463
0.0320614
0.0335003
0.0346319
0.0351235
0.0356323
0.0360249
0.0357146
0.0345404
0.0328264
0.0310153
0.0293942
0.0280288
0.0268357
0.0256991
0.0245551
0.0234151
0.0223411
0.0214024
0.0206371
0.0200334
0.0195464
0.0191368
0.0187943
0.0185236
0.0183231
0.0181857
0.0181019
0.0180559
0.0180319
0.0180197
0.0180136
0.0180106
0.0180091
0.0180083
0.0180079
0.0180077
0.0180076
0.0180076
0.0180075
0.0180075
0.0180075
0.0180075
0.0180075
0.0180075
0.0180075
0.0180075
0.0180075
0.0180075
0.0180075
0.0180075
0.0180075
0.0180075
0.0180075
0.0180075
0.0180075
0.0180075
0.0180075
0.0180075
0.0180074
0.0180077
0.0180073
0.0180078
0.0180072
0.0180078
0.0180072
0.0180078
0.0180071
0.0180079
0.018007
0.018008
0.018007
0.0180081
0.0180069
0.0180081
0.0180068
0.0180082
0.0180067
0.0180083
0.0180066
0.0180083
0.0180065
0.0180082
0.0180062
0.018008
0.018006
0.0180089
0.145974
0.944465
1.09194
1.70118
2.3796
2.27267
2.53844
2.19774
0.852008
0.188187
0.0555569
0.0382848
0.0348328
0.0324148
0.0320729
0.032836
0.033581
0.0339597
0.0343598
0.0346257
0.0343105
0.0332921
0.0318108
0.030215
0.0287532
0.0275018
0.0264026
0.025353
0.0242867
0.0232069
0.0221715
0.0212524
0.0204967
0.0199059
0.0194443
0.0190697
0.0187605
0.0185135
0.0183266
0.0181954
0.0181119
0.0180634
0.0180369
0.0180228
0.0180155
0.0180117
0.0180097
0.0180087
0.0180082
0.0180079
0.0180078
0.0180077
0.0180077
0.0180077
0.0180077
0.0180076
0.0180076
0.0180076
0.0180076
0.0180076
0.0180076
0.0180076
0.0180076
0.0180076
0.0180077
0.0180076
0.0180077
0.0180076
0.0180077
0.0180076
0.0180076
0.0180077
0.0180075
0.0180078
0.0180074
0.018008
0.0180072
0.0180081
0.0180072
0.0180081
0.0180071
0.0180082
0.018007
0.0180084
0.0180068
0.0180085
0.0180067
0.0180086
0.0180066
0.0180088
0.0180064
0.0180089
0.0180063
0.0180092
0.0180062
0.0180094
0.0180063
0.0180102
0.0180073
0.0180138
0.063733
0.654138
0.47823
0.836301
1.54575
1.54
1.89296
1.32582
0.330448
0.0534515
0.0415129
0.0356178
0.0324137
0.0302959
0.0303302
0.031539
0.0325595
0.0331723
0.0336673
0.0338869
0.0335211
0.0325313
0.0311399
0.0296435
0.0282621
0.0270746
0.0260367
0.0250522
0.0240494
0.0230212
0.0220186
0.0211149
0.0203656
0.0197849
0.0193464
0.0190062
0.0187308
0.018508
0.0183359
0.018212
0.0181296
0.0180787
0.018049
0.0180323
0.0180232
0.0180183
0.0180156
0.0180143
0.0180135
0.0180132
0.018013
0.0180129
0.0180128
0.0180128
0.0180128
0.0180128
0.0180128
0.0180128
0.0180128
0.0180128
0.0180128
0.0180128
0.0180128
0.0180128
0.0180128
0.0180128
0.0180128
0.0180127
0.0180128
0.0180128
0.0180127
0.0180128
0.0180126
0.018013
0.0180124
0.0180132
0.0180123
0.0180133
0.0180122
0.0180134
0.0180121
0.0180135
0.0180119
0.0180137
0.0180117
0.0180139
0.0180116
0.0180141
0.0180114
0.0180143
0.0180112
0.0180146
0.018011
0.018015
0.018011
0.0180156
0.0180115
0.0180174
0.0180139
0.0180239
0.0474714
0.468818
0.277235
0.404187
0.637232
0.696642
1.00244
0.429406
0.0360899
0.0291286
0.0430512
0.0289681
0.0284591
0.0291207
0.0287783
0.0299629
0.0313975
0.0323887
0.0330663
0.0333178
0.0329474
0.0319805
0.0306384
0.0291941
0.0278555
0.0267067
0.0257139
0.0247844
0.0238388
0.0228583
0.0218855
0.0209936
0.0202462
0.0196692
0.0192456
0.0189333
0.01869
0.018494
0.0183414
0.0182287
0.01815
0.018098
0.0180654
0.0180459
0.0180347
0.0180284
0.018025
0.0180231
0.0180221
0.0180216
0.0180213
0.0180212
0.0180211
0.0180211
0.0180211
0.0180211
0.0180211
0.0180211
0.018021
0.018021
0.018021
0.018021
0.0180211
0.018021
0.0180211
0.018021
0.0180211
0.018021
0.0180211
0.018021
0.018021
0.0180211
0.0180209
0.0180213
0.0180207
0.0180215
0.0180205
0.0180217
0.0180204
0.0180218
0.0180203
0.0180219
0.0180201
0.0180222
0.0180199
0.0180223
0.0180197
0.0180225
0.0180195
0.0180228
0.0180192
0.0180231
0.0180191
0.0180236
0.0180192
0.0180245
0.01802
0.018027
0.0180235
0.0180356
0.0662562
0.252254
0.159134
0.313645
0.180481
0.326906
0.193177
0.0474197
0.0459401
0.0508063
0.0437992
0.019061
0.022614
0.0290052
0.0285114
0.0283392
0.0295533
0.0309376
0.032002
0.0324977
0.0322846
0.0314336
0.030177
0.0287893
0.0274877
0.0263726
0.0254235
0.0245494
0.0236618
0.0227284
0.0217832
0.0208991
0.0201467
0.0195629
0.0191411
0.0188444
0.0186278
0.0184599
0.0183296
0.0182312
0.018159
0.0181084
0.0180749
0.0180538
0.0180411
0.0180338
0.0180296
0.0180274
0.0180262
0.0180255
0.0180252
0.018025
0.0180249
0.0180249
0.0180248
0.0180248
0.0180248
0.0180248
0.0180248
0.0180248
0.0180248
0.0180248
0.0180248
0.0180248
0.0180248
0.0180248
0.0180248
0.0180248
0.0180248
0.0180248
0.0180248
0.0180249
0.0180247
0.0180251
0.0180244
0.0180253
0.0180242
0.0180255
0.0180241
0.0180255
0.018024
0.0180257
0.0180238
0.0180259
0.0180236
0.0180261
0.0180235
0.0180263
0.0180233
0.0180265
0.0180231
0.0180268
0.018023
0.0180273
0.0180231
0.0180282
0.0180241
0.0180308
0.0180279
0.01804
0.079896
0.0573121
0.10817
0.123948
0.124054
0.129169
0.0325117
0.0464761
0.0251733
0.0302075
0.0332489
0.00733609
0.0211914
0.034602
0.0333708
0.0301324
0.0292738
0.0299105
0.030914
0.0315645
0.0315404
0.0308541
0.0297155
0.0283991
0.0271401
0.0260641
0.025167
0.0243578
0.0235349
0.0226504
0.0217301
0.0208475
0.0200811
0.0194785
0.0190438
0.0187476
0.0185466
0.0184018
0.0182918
0.0182075
0.018144
0.018098
0.0180667
0.0180465
0.0180342
0.0180269
0.0180228
0.0180205
0.0180192
0.0180185
0.0180182
0.018018
0.0180179
0.0180178
0.0180178
0.0180178
0.0180178
0.0180178
0.0180178
0.0180178
0.0180178
0.0180178
0.0180178
0.0180178
0.0180178
0.0180178
0.0180178
0.0180178
0.0180178
0.0180178
0.0180178
0.0180179
0.0180176
0.018018
0.0180174
0.0180182
0.0180173
0.0180184
0.0180172
0.0180184
0.0180171
0.0180186
0.0180169
0.0180187
0.0180168
0.0180189
0.0180166
0.018019
0.0180165
0.0180192
0.0180163
0.0180195
0.0180163
0.0180198
0.0180164
0.0180207
0.0180173
0.0180229
0.0180207
0.0180313
0.0377674
0.00241018
0.0496365
0.0378511
0.0696697
0.0117869
0.0400345
0.0201482
0.00164308
0.0391118
0.0379758
0.0054021
0.0375683
0.0573065
0.0484999
0.0376233
0.0325859
0.0312997
0.0313054
0.0313991
0.0311243
0.0303785
0.0292618
0.0279833
0.0267634
0.0257384
0.0249136
0.0241911
0.0234507
0.0226259
0.0217334
0.0208495
0.0200624
0.0194318
0.0189726
0.0186628
0.0184624
0.0183292
0.0182334
0.0181613
0.0181074
0.0180688
0.0180426
0.0180258
0.0180153
0.0180091
0.0180056
0.0180036
0.0180026
0.018002
0.0180017
0.0180016
0.0180015
0.0180015
0.0180014
0.0180014
0.0180014
0.0180014
0.0180014
0.0180014
0.0180014
0.0180014
0.0180014
0.0180014
0.0180014
0.0180014
0.0180014
0.0180014
0.0180014
0.0180014
0.0180014
0.0180015
0.0180013
0.0180016
0.0180011
0.0180018
0.018001
0.0180019
0.0180009
0.018002
0.0180009
0.0180021
0.0180007
0.0180022
0.0180006
0.0180023
0.0180005
0.0180024
0.0180004
0.0180026
0.0180003
0.0180027
0.0180002
0.018003
0.0180003
0.0180036
0.018001
0.0180053
0.0180036
0.0180122
0.0209446
0.00546292
0.0334784
0.0103697
0.0374297
0.0119493
0.0151001
0.0291586
0.000675124
0.0495798
0.0249438
0.00164017
0.0844945
0.121506
0.0905556
0.056979
0.0394832
0.033004
0.0313079
0.0309466
0.0305556
0.029773
0.0286429
0.0273709
0.0261875
0.0252386
0.0245251
0.023931
0.0233113
0.0225787
0.0217399
0.0208736
0.0200776
0.0194239
0.0189386
0.0186078
0.018396
0.0182619
0.0181724
0.0181088
0.0180633
0.018032
0.0180115
0.0179988
0.0179913
0.0179869
0.0179844
0.0179831
0.0179823
0.0179819
0.0179817
0.0179816
0.0179815
0.0179815
0.0179815
0.0179815
0.0179815
0.0179815
0.0179815
0.0179815
0.0179815
0.0179815
0.0179815
0.0179815
0.0179815
0.0179815
0.0179815
0.0179815
0.0179815
0.0179815
0.0179815
0.0179815
0.0179814
0.0179816
0.0179813
0.0179817
0.0179811
0.0179818
0.0179811
0.0179819
0.0179811
0.0179819
0.017981
0.017982
0.0179809
0.0179821
0.0179808
0.0179822
0.0179807
0.0179823
0.0179806
0.0179824
0.0179806
0.0179826
0.0179806
0.017983
0.017981
0.0179841
0.0179827
0.017989
0.0164542
0.0138047
0.0262302
0.00831323
0.031415
0.00474598
0.0291406
0.0168304
0.0142256
0.0485558
0.010672
0.0502165
0.22553
0.29901
0.220139
0.124634
0.0698322
0.0466331
0.0375815
0.0337717
0.0317158
0.0301138
0.0285565
0.0270549
0.0257658
0.0247971
0.0241186
0.0235886
0.0230457
0.0223909
0.0216207
0.0208057
0.0200411
0.0194
0.0189134
0.0185739
0.0183523
0.0182122
0.0181225
0.0180628
0.0180229
0.017997
0.017981
0.0179716
0.0179662
0.0179633
0.0179618
0.017961
0.0179606
0.0179604
0.0179603
0.0179602
0.0179602
0.0179602
0.0179602
0.0179602
0.0179602
0.0179602
0.0179602
0.0179602
0.0179602
0.0179602
0.0179602
0.0179602
0.0179602
0.0179602
0.0179602
0.0179602
0.0179602
0.0179602
0.0179602
0.0179602
0.0179601
0.0179602
0.0179601
0.0179603
0.01796
0.0179603
0.01796
0.0179604
0.01796
0.0179604
0.0179599
0.0179605
0.0179599
0.0179605
0.0179598
0.0179606
0.0179598
0.0179606
0.0179597
0.0179607
0.0179596
0.0179608
0.0179595
0.017961
0.0179596
0.0179614
0.0179603
0.0179643
0.00598704
0.0261599
0.0140509
0.0173606
0.0223749
0.00938916
0.0318765
0.00501703
0.0396471
0.0527524
0.0437815
0.219377
0.530209
0.652928
0.512871
0.305839
0.1609
0.0877589
0.0571692
0.0444524
0.0381598
0.0341423
0.0310584
0.0285764
0.0266681
0.0252995
0.024341
0.0236052
0.0229188
0.0221798
0.0213773
0.0205698
0.0198375
0.0192386
0.0187912
0.0184811
0.0182784
0.0181504
0.0180695
0.0180172
0.0179834
0.0179624
0.0179499
0.0179429
0.0179392
0.0179373
0.0179363
0.0179359
0.0179357
0.0179356
0.0179356
0.0179356
0.0179355
0.0179355
0.0179355
0.0179355
0.0179355
0.0179355
0.0179355
0.0179355
0.0179355
0.0179355
0.0179355
0.0179355
0.0179355
0.0179355
0.0179356
0.0179355
0.0179356
0.0179355
0.0179356