/*--------------------------------*- C++ -*----------------------------------*\
| =========                 |                                                 |
| \\      /  F ield         | OpenFOAM: The Open Source CFD Toolbox           |
|  \\    /   O peration     | Version:  v2012                                 |
|   \\  /    A nd           | Website:  www.openfoam.com                      |
|    \\/     M anipulation  |                                                 |
\*---------------------------------------------------------------------------*/
FoamFile
{
    version     2.0;
    format      ascii;
    class       volScalarField;
    location    "0.081";
    object      omega.air;
}
// * * * * * * * * * * * * * * * * * * * * * * * * * * * * * * * * * * * * * //

dimensions      [0 0 -1 0 0 0 0];


internalField   nonuniform List<scalar> 
5600
(
6586.28
7485.53
7886.77
7965.17
7866.42
7687.48
7480.88
7290.12
7125.3
6987.87
6878.74
6796.45
6736.15
6693.6
6663.4
6642.54
6626.87
6615.09
6605.08
6596.7
6589.3
6583
6577.84
6573.62
6570.28
6567.81
6565.99
6564.75
6563.84
6563.06
6562.13
6560.91
6559.46
6557.89
6556.3
6554.67
6552.88
6550.85
6548.59
6546.18
6543.68
6541.29
6539.16
6537.37
6536.04
6535.04
6534.49
6534.05
6534.12
6533.9
6534.57
6534.18
6535.47
6534.32
6536.43
6533.98
6537.47
6533.22
6538.66
6532.08
6540.13
6530.39
6542.27
6527.82
6545.24
6524.95
6547.24
6525.17
6543.31
6534.09
6528.97
6552.47
6510.26
6566.73
6506.5
6556.09
6532.96
6516.25
6579.04
6474.42
6609.02
6464.42
6597.95
6494.25
6551.61
6546.99
6493.64
6599.31
6456.39
6605.07
6497.62
6498.91
6657.09
6311.95
6824.12
6181.69
6907.78
5931.9
7267.94
3768.65
2450.54
2296.57
2571.6
2795.1
2928.25
2997.92
3010.36
2968.23
2969.01
3017.16
3073.62
3118.81
3147.32
3158.29
3155.1
3140.41
3118.25
3091.2
3062.2
3032.63
3003.31
2973.88
2944.67
2916.41
2889.12
2863.52
2839.68
2817.68
2797.29
2778.63
2761.55
2745.92
2731.57
2718.41
2706.46
2695.74
2686.11
2677.43
2669.59
2662.6
2656.45
2651.05
2646.49
2642.84
2640.03
2637.95
2636.51
2635.53
2634.95
2634.58
2634.41
2634.41
2634.66
2634.81
2635.12
2635.13
2635.42
2635.27
2635.6
2635.29
2635.75
2635.25
2635.9
2635.12
2636.11
2634.85
2636.46
2634.58
2636.36
2635.03
2635.85
2635.58
2634.74
2637.37
2633.28
2637.28
2634.71
2635.49
2636.49
2632.39
2641.13
2628.68
2641.91
2630.04
2638.79
2631.97
2636.7
2634.66
2634.03
2636.55
2638.08
2627.13
2649.33
2615.99
2675.91
2591.88
2720.24
2535.34
2848.43
2348.57
2358.55
1859.91
1592.17
1427.75
1346.14
1273.76
1280.02
1308.99
1352.05
1412.39
1482.39
1549.29
1611.36
1663.72
1705.03
1733.31
1749.21
1752.28
1744.48
1726.31
1702.6
1676.64
1653.56
1634.71
1619.31
1605.74
1593.3
1581.99
1571.35
1561.13
1550.98
1540.84
1530.91
1521.4
1512.43
1503.96
1495.94
1488.34
1481.11
1474.39
1468.35
1463.05
1458.57
1454.98
1452.26
1450.3
1448.98
1448.12
1447.63
1447.31
1447.24
1447.19
1447.47
1447.47
1447.93
1447.71
1448.29
1447.74
1448.56
1447.66
1448.81
1447.47
1449.13
1447.07
1449.68
1446.44
1450.27
1446.2
1449.91
1447.35
1447.78
1450.36
1444.28
1453.27
1443.25
1451.56
1447.8
1444.43
1456.26
1436.17
1462.53
1433.75
1460.6
1439.48
1452.96
1447.78
1444.58
1454.96
1440.12
1453.83
1452.33
1432.14
1482.33
1400.95
1506.77
1384.5
1520.18
1385.3
1537.71
1376.21
2345.16
1822.36
1493.25
1267.62
1111.19
992.565
906.959
846.768
802.803
776.597
760.641
769.187
791.817
823.971
861.143
902.01
941.526
978.346
1011.5
1039.36
1061.64
1078.9
1091.79
1100.73
1105.79
1106.73
1103.68
1097.17
1088.14
1078.13
1068.5
1060.34
1053.52
1047.65
1042.38
1037.37
1032.43
1027.51
1022.52
1017.41
1012.37
1007.57
1003.33
999.917
997.367
995.629
994.506
993.881
993.531
993.432
993.439
993.574
993.804
993.961
994.302
994.239
994.675
994.344
994.898
994.357
995.03
994.278
995.271
993.873
995.961
992.93
997.037
992.005
997.444
992.657
995.204
996.275
990.712
999.715
989.23
998.449
994.668
988.974
1004.23
980.14
1009.72
979.846
1007.13
987.14
998.784
995.83
990.632
1001.79
988.361
1000.33
1002.33
980.584
1022.26
974.864
1035.87
976.978
1024.86
1000.75
1024
1023.38
2341.97
1815.96
1479.83
1247.91
1079.73
952.543
853.243
774.542
710.714
658.824
616.203
581.852
556.271
536.094
523.785
514.524
514.042
520.686
532.458
549.027
568.812
591.587
616.322
641.827
667.516
691.802
713.879
732.866
748.609
760.906
770.301
777.187
782.009
785.241
787.168
787.694
786.541
783.583
779.023
773.529
767.781
762.891
759.08
756.317
754.391
753.258
752.567
752.473
752.399
752.805
752.871
753.543
753.526
754.282
754.081
754.795
754.383
755.169
754.375
755.598
754.089
756.061
753.977
755.859
755.122
753.834
758.254
750.141
761.85
748.194
761.783
752.679
755.304
761.598
748.577
764.937
750.885
760.683
765.735
750.265
774.988
747.55
772.331
749.744
771.123
755.472
768.982
766.943
764.246
765.435
771.571
752.823
795.114
743.741
796.319
771.153
743.89
808.368
732.147
835.636
2341.13
1814.12
1476.76
1243.88
1074.18
945.32
844.343
763.122
696.606
641.002
594.218
553.993
519.702
489.819
464.241
441.799
422.73
406.827
393.628
383.312
375.427
370.204
367.486
368.711
373.352
381.257
391.768
404.89
420.044
437.299
455.358
473.926
491.855
508.632
524.239
538.837
552.293
564.061
573.437
580.184
584.545
587.273
588.901
589.871
590.437
590.895
591.264
591.767
592.196
592.765
593.223
593.708
594.2
594.408
595.036
594.817
595.602
595.052
595.823
595.275
595.868
595.229
596.484
593.999
598.659
591.075
601.827
588.627
602.515
591.188
596.781
600.523
586.588
607.834
586.744
599.454
602.919
579.516
624.401
565.105
622.802
580.454
599.982
601.562
585.03
612.826
574.818
618.36
582.441
587.066
632.43
530.281
677.033
495.966
652.721
558.151
544.45
661.859
462.229
709.585
2340.86
1813.44
1475.75
1242.6
1072.61
943.441
842.127
760.56
693.566
637.529
590.041
549.236
513.865
482.897
455.599
431.367
409.752
390.393
373.01
357.381
343.338
330.684
319.391
309.368
300.715
293.315
287.27
282.325
278.866
276.634
276.555
278.522
282.324
287.583
293.963
301.773
311.378
323.135
336.398
350.163
363.507
375.116
384.562
391.574
396.67
399.736
402.031
402.582
403.821
402.736
404.286
401.746
404.786
400.562
405.883
399.322
407.458
397.714
409.612
395.223
412.733
391.671
416.106
389.242
415.59
394.129
404.473
411.892
381.763
435.131
362.256
439.77
373.127
407.001
422.109
351.427
471.211
313.09
476.766
329.382
429.033
392.926
362.971
456.336
307.827
489.69
288.909
459.847
351.961
359.266
471.783
243.991
551.695
196.198
502.317
276.787
394.99
404.94
267.694
492.524
2340.75
1813.13
1475.32
1242.07
1071.99
942.74
841.332
759.694
692.594
636.479
588.866
547.962
512.447
481.326
453.832
429.369
407.471
387.746
369.909
353.682
338.902
325.342
312.926
301.456
290.912
281.165
272.203
263.894
256.255
249.186
242.771
237.015
231.96
227.467
223.586
220.091
217.47
215.583
215.044
215.894
217.854
220.296
222.728
224.454
225.558
225.409
225.077
223.261
222.478
219.509
219.451
215.609
217.382
212.548
216.804
210.246
217.526
207.974
219.524
204.975
222.679
201.625
225.021
201.425
221.217
210.665
205.917
231.065
183.562
249.359
174.361
242.318
197.896
204.851
241.991
164.573
268.503
155.759
258.482
178.606
229.108
213.182
191.134
256.353
146.349
292.248
129.871
274.859
173.204
210.399
245.03
144.528
292.989
128.201
284.916
147.982
263.56
192.316
191.043
252.521
2340.71
1812.97
1475.11
1241.82
1071.69
942.418
840.978
759.316
692.188
636.047
588.405
547.474
511.93
480.776
453.248
428.747
406.805
387.035
369.137
352.849
337.976
324.331
311.78
300.182
289.443
279.472
270.199
261.549
253.462
245.877
238.759
232.084
225.841
219.978
214.47
209.231
204.301
199.656
195.382
191.52
188.057
184.89
181.911
178.931
175.935
172.751
169.632
166.33
163.462
160.406
158.283
155.747
154.689
152.661
152.69
150.842
151.893
149.713
151.916
148.808
152.395
148.132
152.6
148.484
151.251
151.009
147.55
155.427
143.313
158.471
143.086
155.747
149.131
147.806
156.981
141.834
160.074
142.408
157.904
145.226
155.186
148.476
149.081
158.314
135.997
170.943
130.042
169.338
140.948
154.392
156.237
141.645
164.155
138.624
163.525
140.091
160.953
152.513
133.475
179.222
2340.68
1812.9
1475.01
1241.7
1071.56
942.272
840.822
759.148
692.011
635.86
588.209
547.268
511.715
480.552
453.013
428.503
406.549
386.77
368.858
352.56
337.671
324.015
311.444
299.83
289.069
279.073
269.769
261.086
252.958
245.327
238.149
231.397
225.047
219.064
213.407
208.025
202.89
197.997
193.363
189.006
184.924
181.074
177.391
173.784
170.205
166.606
163.058
159.58
156.357
153.374
150.862
148.665
147.033
145.633
144.774
143.954
143.647
143.116
143.202
142.7
143.094
142.504
143.038
142.558
142.77
142.963
142.203
143.581
141.665
143.889
141.756
143.401
142.609
142.399
143.541
141.691
144.033
141.334
144.44
140.919
144.553
141.653
142.481
145.113
138.209
149.045
135.898
149.075
138.389
144.587
144.323
137.564
151.748
130.325
157.33
127.408
156.223
134.346
142.133
151.982
2340.68
1812.91
1475.02
1241.72
1071.58
942.289
840.838
759.165
692.027
635.875
588.224
547.283
511.729
480.566
453.027
428.517
406.562
386.783
368.871
352.573
337.683
324.028
311.456
299.843
289.082
279.087
269.783
261.101
252.974
245.343
238.167
231.417
225.07
219.092
213.438
208.061
202.932
198.047
193.425
189.084
185.021
181.192
177.529
173.943
170.376
166.796
163.251
159.794
156.559
153.606
151.062
148.915
147.222
145.902
144.942
144.252
143.781
143.463
143.275
143.116
143.098
142.965
143.054
142.906
143.03
142.923
142.96
143.023
142.816
143.197
142.626
143.373
142.514
143.354
142.746
142.828
143.623
141.623
145
140.394
145.641
140.786
143.968
143.646
140.283
147.576
136.491
150.869
134.007
151.875
135.476
146.997
143.931
135.471
156.22
123.677
165.266
118.321
165.786
123.993
2340.71
1813
1475.15
1241.86
1071.74
942.467
841.028
759.364
692.236
636.093
588.451
547.518
511.973
480.819
453.29
428.79
406.845
387.078
369.176
352.894
338.016
324.379
311.826
300.234
289.497
279.536
270.27
261.634
253.559
245.993
238.897
232.264
226.059
220.264
214.8
209.66
204.798
200.298
196.215
192.582
189.37
186.476
183.748
181.025
178.2
175.225
172.155
169.063
166.092
163.327
160.897
158.836
157.194
155.939
155.008
154.374
153.908
153.642
153.432
153.333
153.264
153.201
153.235
153.115
153.284
153.021
153.362
152.974
153.306
153.202
152.836
153.933
151.909
154.868
151.28
154.803
152.426
152.377
155.972
148.308
159.536
146.356
159.153
149.219
154.467
154.783
148.387
161.185
141.281
168.399
135.46
170.609
138.958
160.995
153.495
143.116
170.825
126.996
182.867
117.57
2340.76
1813.17
1475.39
1242.15
1072.07
942.821
841.416
759.773
692.677
636.556
588.948
548.036
512.528
481.402
453.915
429.453
407.559
387.846
370.011
353.818
339.033
325.532
313.124
301.726
291.229
281.595
272.718
264.579
257.081
250.284
244.18
238.862
234.265
230.405
227.067
224.508
222.609
222.119
223.171
225.673
229.199
233.103
236.723
239.545
241.315
242.011
241.804
240.916
239.608
238.071
236.519
235.102
233.942
233.082
232.446
232.06
231.747
231.633
231.469
231.478
231.387
231.407
231.414
231.296
231.573
231.053
231.874
230.749
232.052
230.893
231.345
232.381
228.985
235.44
225.739
237.939
225.098
235.568
231.026
226.551
241.452
217.075
247.137
216.267
242.998
223.745
233.851
234.193
221.449
248.768
205.347
261.652
199.221
257.356
214.035
235.008
239.578
207.525
260.653
184.993
2340.87
1813.49
1475.85
1242.7
1072.73
943.558
842.25
760.681
693.691
637.657
590.183
549.372
514.043
483.075
455.847
431.63
410.141
390.835
373.649
358.163
344.365
332.006
321.123
311.679
303.667
297.168
292.024
288.416
286.213
286.241
288.517
292.998
299.375
307.13
316.06
326.316
338.39
351.919
366.457
380.955
394.192
405.391
414.227
420.776
425.341
428.345
430.191
431.25
431.78
431.995
432.01
431.955
431.902
431.902
431.935
431.996
432.036
432.115
432.108
432.209
432.14
432.262
432.166
432.251
432.249
432.118
432.478
431.799
432.877
431.402
433.118
431.549
432.315
433.231
429.69
436.587
426.11
439.38
425.075
437.588
430.184
429.576
439.887
420.008
446.931
416.284
446.421
420.549
438.761
431.873
423.902
448.949
405.9
462.217
397.876
461.256
405.428
447.588
421
423.274
2341.15
1814.19
1476.91
1243.99
1074.37
945.466
844.556
763.347
696.853
641.381
594.591
554.62
520.479
490.998
465.734
443.845
425.833
410.597
398.94
389.605
383.773
380.1
380.881
385.319
393.537
404.83
418.871
435.015
453.121
472.302
492.232
511.641
529.687
546.017
560.706
573.815
585.251
594.528
601.319
605.932
608.827
610.402
611.104
611.365
611.481
611.636
611.893
612.27
612.715
613.218
613.717
614.199
614.611
614.957
615.242
615.443
615.613
615.708
615.788
615.84
615.851
615.91
615.858
615.956
615.834
615.999
615.81
615.99
615.906
615.757
616.322
615.158
617.036
614.493
617.384
614.807
616.104
617.204
612.775
620.81
609.886
621.728
611.781
617.056
618.37
610.142
624.056
606.302
625.946
605.894
624.596
610.311
616.308
622.303
601.553
636.485
588.192
645.019
581.439
640.355
2342.03
1815.98
1480.11
1247.96
1080.28
952.711
854.162
775.203
712.328
660.646
619.086
586.895
562.575
545.58
534.538
530.104
534.448
545.021
561.041
581.13
604.574
630.577
657.562
684.912
711.165
734.656
754.75
771.261
784.294
794.475
802.009
807.093
810.097
811.447
811.327
809.697
806.481
801.949
796.453
790.909
785.924
781.65
778.197
775.615
773.839
772.753
772.205
772.043
772.103
772.288
772.554
772.876
773.191
773.463
773.687
773.849
773.982
774.058
774.127
774.16
774.185
774.21
774.199
774.241
774.185
774.275
774.153
774.305
774.155
774.242
774.321
773.948
774.742
773.448
775.206
773.214
775
774.079
773.472
776.115
771.374
777.616
771.096
776.377
773.836
772.875
777.409
769.924
779.648
768.13
780.799
768.301
778.683
773.259
771.315
782.47
760.267
792.821
747.318
797.402
2345.25
1822.39
1493.87
1268.15
1113.23
994.193
912.6
851.976
814.506
787.949
783.626
800.039
829.123
866.064
907.638
950.22
990.27
1027.02
1058.26
1083.62
1103.42
1118.44
1129.15
1135.79
1137.34
1134.55
1127.97
1118.95
1108.92
1099.63
1091.65
1084.65
1078.37
1072.65
1067.25
1062.01
1056.87
1051.67
1046.3
1040.6
1034.91
1029.74
1025.38
1021.96
1019.46
1017.75
1016.66
1016.02
1015.68
1015.54
1015.54
1015.63
1015.8
1015.99
1016.15
1016.28
1016.38
1016.45
1016.5
1016.53
1016.55
1016.57
1016.57
1016.59
1016.57
1016.6
1016.56
1016.61
1016.57
1016.58
1016.64
1016.46
1016.79
1016.28
1016.95
1016.23
1016.8
1016.65
1016.11
1017.5
1015.27
1018.1
1015.18
1017.49
1016.48
1015.74
1018.24
1014.25
1019.42
1013.34
1019.91
1013.44
1018.82
1015.59
1015.41
1019.63
1009.18
1025.11
999.538
1027.67
2358.73
1860.9
1594.78
1433.99
1353.99
1289.03
1305.23
1337.24
1392.17
1465.2
1539.68
1610.29
1672.4
1723.03
1760.12
1783.36
1792.53
1788.87
1773.29
1750.2
1724.2
1700.72
1682.16
1666.43
1652.42
1639.49
1627.49
1616.07
1604.97
1593.74
1582.46
1571.48
1560.97
1551.03
1541.67
1532.88
1524.63
1516.87
1509.65
1503.02
1497.07
1491.9
1487.64
1484.23
1481.67
1479.83
1478.56
1477.71
1477.2
1476.92
1476.79
1476.78
1476.88
1477.04
1477.2
1477.32
1477.41
1477.47
1477.52
1477.55
1477.56
1477.58
1477.58
1477.6
1477.59
1477.6
1477.58
1477.61
1477.59
1477.58
1477.64
1477.52
1477.71
1477.45
1477.76
1477.47
1477.61
1477.76
1477.2
1478.25
1476.77
1478.48
1476.84
1478.06
1477.63
1476.96
1478.74
1476.01
1479.51
1475.54
1479.64
1475.79
1478.73
1477.16
1476.65
1478.9
1472.81
1480.95
1465.07
1477.15
2454.75
2305.69
2580.38
2808.72
2934.23
3009.92
2994.63
2967.48
3014.82
3085.67
3150.04
3196.62
3222.38
3229.9
3222.23
3203.96
3178.33
3148.78
3117.83
3086.43
3054.86
3022.94
2991.83
2961.61
2933.73
2907.42
2883.04
2860.42
2839.67
2820.65
2803.31
2787.44
2772.87
2759.57
2747.52
2736.71
2727.03
2718.39
2710.76
2704.02
2698.14
2693.08
2688.88
2685.51
2682.91
2680.97
2679.59
2678.65
2678.08
2677.75
2677.56
2677.54
2677.67
2677.85
2678.02
2678.16
2678.25
2678.32
2678.37
2678.4
2678.42
2678.44
2678.44
2678.45
2678.45
2678.46
2678.45
2678.46
2678.45
2678.46
2678.46
2678.44
2678.49
2678.4
2678.52
2678.39
2678.5
2678.43
2678.43
2678.59
2678.2
2678.75
2678.15
2678.7
2678.22
2678.57
2678.57
2678.02
2679.11
2677.62
2679.23
2677.56
2679.09
2677.58
2678.72
2677.65
2676.94
2676.14
2669.39
2667.1
6588.07
7481.94
7876.75
7936
7826.41
7629.92
7415.04
7222.1
7053.59
6914.32
6805.35
6723.42
6664.08
6621.58
6591.83
6570.25
6554.29
6541.58
6531.19
6522.43
6514.87
6508.95
6504.13
6500.36
6497.33
6494.94
6493.17
6491.8
6490.64
6489.4
6487.86
6486
6483.94
6481.83
6479.79
6477.77
6475.67
6473.46
6471.12
6468.66
6466.19
6463.86
6461.79
6460.04
6458.67
6457.66
6456.99
6456.61
6456.44
6456.45
6456.6
6456.83
6457.08
6457.29
6457.46
6457.58
6457.67
6457.73
6457.75
6457.8
6457.78
6457.84
6457.78
6457.85
6457.79
6457.85
6457.82
6457.79
6457.92
6457.63
6458.13
6457.38
6458.37
6457.28
6458.19
6457.9
6457.01
6459.67
6454.89
6461.74
6453.5
6461.87
6455.11
6458.51
6459.87
6453.24
6464.79
6449.61
6466.87
6449.48
6464.96
6454.15
6457.61
6464.59
6446.38
6476.74
6439.87
6485.58
6447.93
6500.32
3742.12
2832.6
2152.44
1705.03
1492.43
1393.99
1252.26
1270.56
1259.54
891.387
486.801
258.05
189.004
173.092
172.606
182.316
190.028
194.533
196.845
195.855
191.368
184.809
177.949
171.883
166.883
162.723
159.07
155.712
152.627
149.912
147.7
146.068
144.989
144.303
143.795
143.32
142.863
142.463
142.146
141.929
141.807
141.749
141.724
141.714
141.71
141.708
141.707
141.707
141.706
141.706
141.706
141.706
141.706
141.706
141.706
141.706
141.706
141.706
141.706
141.706
141.706
141.706
141.706
141.706
141.706
141.706
141.706
141.706
141.706
141.706
141.706
141.706
141.706
141.706
141.706
141.706
141.706
141.706
141.706
141.706
141.705
141.706
141.705
141.706
141.705
141.706
141.705
141.706
141.705
141.706
141.705
141.706
141.705
141.706
141.704
141.704
141.702
141.701
141.698
141.695
2892.35
2725.83
2327.53
1870.74
1595.71
1460.38
1272.18
1307.09
1218
739.979
365.454
207.296
169.13
165.867
166.713
173.424
179.763
183.671
186.069
186.296
183.825
179.371
174.217
169.342
165.125
161.496
158.228
155.159
152.279
149.69
147.535
145.911
144.814
144.12
143.634
143.206
142.798
142.439
142.146
141.932
141.801
141.734
141.702
141.687
141.68
141.677
141.675
141.674
141.674
141.673
141.673
141.673
141.673
141.673
141.673
141.673
141.673
141.673
141.673
141.673
141.673
141.673
141.673
141.673
141.673
141.673
141.673
141.673
141.673
141.673
141.673
141.673
141.673
141.673
141.673
141.674
141.672
141.674
141.672
141.674
141.672
141.674
141.672
141.674
141.672
141.674
141.672
141.674
141.671
141.675
141.671
141.675
141.671
141.675
141.67
141.674
141.669
141.673
141.668
141.674
1610.27
1964.08
2135.69
1923.55
1675.05
1517.29
1289.63
1347.88
1097
549.885
265.832
168.461
152.561
159.797
163.707
169.175
174.79
178.461
180.66
181.094
179.365
175.913
171.695
167.54
163.83
160.564
157.576
154.731
152.016
149.529
147.416
145.787
144.664
143.957
143.497
143.126
142.776
142.452
142.174
141.961
141.821
141.74
141.697
141.675
141.664
141.658
141.655
141.653
141.652
141.652
141.652
141.651
141.651
141.651
141.651
141.651
141.651
141.651
141.651
141.651
141.651
141.651
141.651
141.651
141.651
141.651
141.651
141.651
141.651
141.652
141.651
141.652
141.651
141.652
141.651
141.652
141.651
141.652
141.65
141.652
141.65
141.653
141.65
141.653
141.649
141.653
141.649
141.654
141.649
141.654
141.648
141.655
141.648
141.656
141.647
141.657
141.647
141.659
141.65
141.67
1006.6
1216.39
1523.06
1662.24
1639.26
1496.49
1283.99
1343.41
840.927
347.306
200.708
151.361
150.128
162.701
166.423
169.087
173.134
176.367
178.271
178.527
176.921
173.84
170.063
166.291
162.879
159.849
157.062
154.393
151.819
149.423
147.343
145.701
144.542
143.811
143.369
143.054
142.765
142.48
142.223
142.017
141.871
141.778
141.723
141.692
141.674
141.665
141.66
141.657
141.655
141.655
141.654
141.654
141.654
141.654
141.654
141.654
141.654
141.654
141.654
141.654
141.654
141.654
141.654
141.654
141.654
141.654
141.654
141.654
141.654
141.654
141.653
141.654
141.653
141.654
141.653
141.655
141.653
141.655
141.652
141.655
141.652
141.656
141.652
141.656
141.651
141.657
141.65
141.657
141.65
141.658
141.649
141.659
141.648
141.66
141.648
141.663
141.65
141.669
141.658
141.691
695.254
897.828
948.672
1004.8
1313.18
1212.22
1202.01
1116.83
437.146
215.182
174.224
138.317
147.297
166.849
170.944
170.719
172.725
175.343
177.063
177.196
175.581
172.622
169.029
165.436
162.177
159.289
156.646
154.121
151.674
149.365
147.319
145.66
144.455
143.683
143.234
142.955
142.721
142.486
142.267
142.082
141.94
141.839
141.772
141.731
141.707
141.693
141.685
141.681
141.679
141.677
141.677
141.676
141.676
141.676
141.676
141.676
141.676
141.676
141.676
141.676
141.676
141.676
141.676
141.676
141.676
141.676
141.676
141.676
141.676
141.676
141.676
141.676
141.676
141.677
141.675
141.677
141.675
141.677
141.675
141.678
141.674
141.678
141.674
141.679
141.673
141.68
141.672
141.68
141.671
141.681
141.671
141.682
141.67
141.684
141.67
141.688
141.673
141.696
141.684
141.726
447.562
703.472
637.042
655.818
785.691
677.05
932.316
495.329
175.335
193.217
155.308
123.752
155.98
186.017
186.083
178.226
175.13
175.636
176.665
176.557
174.868
171.926
168.387
164.851
161.653
158.841
156.302
153.899
151.569
149.349
147.344
145.673
144.418
143.584
143.093
142.816
142.624
142.444
142.272
142.119
141.989
141.889
141.817
141.77
141.74
141.723
141.713
141.707
141.704
141.703
141.702
141.701
141.701
141.701
141.701
141.701
141.701
141.701
141.701
141.701
141.701
141.701
141.701
141.701
141.701
141.701
141.701
141.701
141.701
141.701
141.701
141.701
141.7
141.701
141.7
141.702
141.7
141.702
141.699
141.702
141.699
141.703
141.698
141.704
141.698
141.704
141.697
141.705
141.696
141.706
141.695
141.707
141.695
141.709
141.695
141.713
141.698
141.722
141.712
141.755
301.707
477.612
363.481
527.349
379.559
492.147
378.761
155.604
187.809
193.701
124.209
116.68
190.043
233.526
223.107
198.949
184.102
178.751
177.423
176.475
174.527
171.524
167.975
164.436
161.243
158.463
155.993
153.689
151.467
149.338
147.386
145.72
144.423
143.521
142.965
142.656
142.479
142.343
142.213
142.09
141.979
141.888
141.821
141.776
141.747
141.729
141.719
141.713
141.71
141.708
141.707
141.707
141.707
141.706
141.706
141.706
141.706
141.706
141.706
141.706
141.706
141.706
141.706
141.706
141.706
141.706
141.706
141.706
141.706
141.707
141.706
141.707
141.706
141.707
141.706
141.707
141.705
141.707
141.705
141.708
141.705
141.708
141.704
141.709
141.704
141.71
141.703
141.71
141.702
141.711
141.702
141.712
141.701
141.714
141.701
141.717
141.705
141.726
141.717
141.756
230.385
206.393
234.07
270.527
267.897
253.713
191.109
152.959
172.801
149.411
96.1865
156.589
283.598
335.375
302.179
247.603
208.93
189.872
182.081
178.353
175.252
171.769
167.997
164.328
161.045
158.215
155.742
153.48
151.33
149.281
147.394
145.756
144.445
143.494
142.877
142.52
142.329
142.21
142.108
142.011
141.922
141.85
141.797
141.76
141.737
141.722
141.714
141.709
141.707
141.705
141.705
141.704
141.704
141.704
141.704
141.704
141.704
141.704
141.704
141.704
141.704
141.704
141.704
141.704
141.704
141.704
141.704
141.704
141.704
141.704
141.704
141.704
141.703
141.704
141.703
141.705
141.703
141.705
141.703
141.705
141.702
141.706
141.702
141.706
141.701
141.707
141.701
141.707
141.7
141.708
141.699
141.709
141.699
141.71
141.699
141.713
141.702
141.72
141.712
141.747
144.575
151.51
144.396
183.259
166.706
145.072
165.532
106.876
171.817
146.41
129.725
284.902
455.927
507.931
443.621
343.003
265.111
220.657
198.331
186.922
179.93
174.444
169.572
165.241
161.518
158.379
155.704
153.341
151.178
149.168
147.334
145.74
144.447
143.485
142.837
142.445
142.229
142.107
142.02
141.943
141.876
141.824
141.787
141.763
141.749
141.74
141.735
141.732
141.731
141.73
141.729
141.729
141.729
141.729
141.729
141.729
141.729
141.729
141.729
141.729
141.729
141.729
141.729
141.729
141.729
141.729
141.729
141.729
141.729
141.729
141.729
141.729
141.728
141.729
141.728
141.729
141.728
141.73
141.728
141.73
141.727
141.73
141.727
141.731
141.726
141.731
141.726
141.732
141.725
141.733
141.724
141.734
141.724
141.735
141.724
141.737
141.725
141.743
141.733
141.765
129.706
157.914
116.499
178.992
109.616
174.977
129.701
133.44
204.572
124.099
216.562
499.723
702.455
743.243
656.057
509.512
372.726
283.285
235.052
209.367
193.878
183.101
174.916
168.504
163.457
159.474
156.284
153.649
151.371
149.326
147.475
145.857
144.538
143.551
142.879
142.462
142.226
142.096
142.017
141.958
141.914
141.882
141.862
141.85
141.843
141.84
141.838
141.837
141.837
141.837
141.836
141.836
141.836
141.836
141.836
141.836
141.836
141.836
141.836
141.836
141.836
141.836
141.836
141.836
141.836
141.836
141.836
141.836
141.836
141.837
141.836
141.837
141.836
141.837
141.836
141.837
141.836
141.837
141.835
141.838
141.835
141.838
141.834
141.839
141.834
141.84
141.833
141.84
141.832
141.841
141.831
141.842
141.83
141.844
141.83
141.846
141.831
141.851
141.837
141.87
153.614
137.681
136.432
159.149
111.997
183.603
99.691
185.391
177.289
168.936
476.216
837.699
1011.47
999.608
885.192
720.362
550.622
412.073
318.525
261.336
227.032
205.264
190.121
178.896
170.493
164.33
159.85
156.484
153.742
151.309
149.073
147.082
145.438
144.204
143.358
142.826
142.516
142.345
142.252
142.199
142.168
142.153
142.147
142.146
142.147
142.149
142.15
142.151
142.152
142.152
142.153
142.153
142.153
142.153
142.153
142.153
142.153
142.153
142.153
142.153
142.153
142.153
142.153
142.153
142.153
142.153
142.153
142.153
142.153
142.153
142.153
142.153
142.152
142.154
142.152
142.154
142.152
142.155
142.151
142.155
142.15
142.156
142.149
142.158
142.147
142.159
142.146
142.161
142.144
142.163
142.142
142.165
142.14
142.168
142.139
142.172
142.14
142.181
142.15
142.206
183.536
119.786
172.072
137.091
145.942
174.583
124.793
239.371
218.723
419.566
854.192
1176.72
1257.31
1180.33
1045.28
881.863
713.299
562.213
445.634
363.063
306.003
265.666
235.961
213.605
196.935
184.873
176.193
169.567
163.962
158.935
154.517
150.833
147.99
145.977
144.66
143.858
143.402
143.167
143.062
143.027
143.028
143.047
143.071
143.092
143.109
143.121
143.129
143.133
143.136
143.138
143.139
143.139
143.139
143.139
143.139
143.139
143.139
143.139
143.139
143.139
143.139
143.139
143.139
143.14
143.139
143.14
143.139
143.14
143.139
143.14
143.139
143.14
143.138
143.141
143.137
143.142
143.136
143.144
143.134
143.147
143.13
143.151
143.126
143.156
143.121
143.161
143.115
143.168
143.108
143.175
143.1
143.185
143.093
143.196
143.088
143.213
143.092
143.248
143.129
143.337
263.466
174.443
252.59
175.822
240.894
220.355
247.331
369.441
416.928
754.774
1195.31
1419.22
1401.5
1290.07
1155.82
1001.79
839.814
692.23
573.469
485.355
420.828
372.174
333.084
300.227
272.608
250.045
231.686
215.796
201.01
187.248
175.261
165.515
158.213
153.204
150.04
148.176
147.168
146.724
146.627
146.71
146.866
147.036
147.185
147.298
147.377
147.427
147.459
147.477
147.487
147.493
147.496
147.498
147.499
147.499
147.499
147.499
147.499
147.499
147.5
147.5
147.5
147.5
147.5
147.5
147.499
147.5
147.499
147.5
147.499
147.501
147.498
147.502
147.496
147.504
147.493
147.507
147.489
147.513
147.481
147.524
147.467
147.541
147.448
147.562
147.426
147.586
147.399
147.618
147.366
147.656
147.329
147.702
147.29
147.764
147.265
147.853
147.286
148.043
147.471
148.502
435.09
389.275
443.576
359.036
463.723
385.187
509.813
580.633
649.59
1083.96
1507.62
1592.59
1471.74
1354.31
1237.59
1098.48
947.461
808.276
694.835
607.423
540.67
488.256
444.426
405.558
370.684
339.973
312.842
287.739
263.791
241.758
222.515
206.052
192.346
181.707
174.262
169.68
167.318
166.573
166.843
167.584
168.447
169.252
169.903
170.379
170.698
170.898
171.018
171.086
171.124
171.145
171.156
171.161
171.164
171.166
171.166
171.167
171.167
171.167
171.167
171.167
171.167
171.167
171.167
171.167
171.167
171.168
171.166
171.169
171.164
171.171
171.161
171.175
171.156
171.181
171.15
171.188
171.141
171.202
171.118
171.237
171.071
171.296
171.004
171.367
170.93
171.449
170.836
171.563
170.712
171.711
170.565
171.902
170.4
172.165
170.284
172.552
170.359
173.358
171.109
175.267
585.668
612.278
599.905
573.428
645.342
561.584
741.079
699.852
886.372
1463.1
1810.81
1668.85
1446.43
1343.81
1262.28
1156.37
1029.29
905.535
800.582
715.217
645.852
588.241
538.772
494.859
455.446
420.295
388.584
358.578
329.707
304.767
287.345
276.74
268.86
261.614
255.475
251.514
250.263
251.316
253.641
256.303
258.787
260.83
262.339
263.368
264.026
264.428
264.665
264.798
264.872
264.911
264.931
264.941
264.947
264.949
264.95
264.951
264.951
264.952
264.952
264.952
264.952
264.952
264.952
264.952
264.951
264.953
264.95
264.955
264.947
264.96
264.94
264.968
264.931
264.978
264.922
264.986
264.913
265
264.886
265.048
264.813
265.148
264.694
265.274
264.567
265.41
264.416
265.6
264.199
265.872
263.92
266.262
263.561
266.87
263.224
267.82
263.266
269.646
264.881
273.757
737.293
782.914
736.67
757.303
776.338
744.989
915.864
825.721
1289.38
1947.72
2039.08
1610.63
1327.13
1248.37
1201.48
1133.05
1039.87
939.305
846.103
766.211
700.392
646.625
601.526
562.429
527.951
497.376
469.819
443.929
418.831
396.326
382.242
380.65
386.728
394.082
400.504
406.154
411.567
416.779
421.355
425.043
427.868
429.932
431.343
432.246
432.789
433.103
433.277
433.371
433.42
433.445
433.457
433.463
433.466
433.468
433.469
433.469
433.469
433.469
433.469
433.469
433.469
433.469
433.469
433.469
433.469
433.47
433.469
433.471
433.467
433.474
433.463
433.479
433.456
433.487
433.448
433.493
433.446
433.492
433.449
433.493
433.436
433.526
433.383
433.594
433.31
433.669
433.238
433.765
433.125
433.949
432.926
434.299
432.599
435.01
432.138
436.421
431.877
439.308
433.473
445.366
983.108
1018.41
965.151
1011.61
987.734
1041.2
1152
1166.16
1938.23
2489.29
2098.27
1466.33
1226.11
1157.32
1114.49
1062.21
993.44
916.21
842.036
779.75
731.473
695.118
666.48
642.718
622.829
606.157
591.832
579.19
568.531
561.126
558.464
562.149
573.356
588.642
603.298
615.214
624.208
630.747
635.311
638.392
640.446
641.779
642.601
643.081
643.341
643.478
643.546
643.579
643.594
643.601
643.603
643.605
643.605
643.605
643.605
643.605
643.605
643.605
643.605
643.605
643.605
643.605
643.605
643.605
643.605
643.605
643.606
643.604
643.607
643.603
643.608
643.603
643.608
643.604
643.606
643.606
643.607
643.597
643.627
643.564
643.671
643.518
643.711
643.492
643.727
643.483
643.748
643.471
643.763