/*--------------------------------*- C++ -*----------------------------------*\
| =========                 |                                                 |
| \\      /  F ield         | OpenFOAM: The Open Source CFD Toolbox           |
|  \\    /   O peration     | Version:  v2012                                 |
|   \\  /    A nd           | Website:  www.openfoam.com                      |
|    \\/     M anipulation  |                                                 |
\*---------------------------------------------------------------------------*/
FoamFile
{
    version     2.0;
    format      ascii;
    class       vectorField;
    location    "0.132/lagrangian/kinematicCloud";
    object      UCorrect;
}
// * * * * * * * * * * * * * * * * * * * * * * * * * * * * * * * * * * * * * //


54
(
(2.53145e-32 1.74763e-35 0)
(0 0 0)
(0 0 0)
(0 0 0)
(5.68849e-28 -4.16766e-31 0)
(0 0 0)
(0 0 0)
(0 0 0)
(0 0 0)
(0 0 0)
(0 0 0)
(6.93749e-28 3.42817e-30 0)
(1.004e-27 -2.74264e-30 0)
(0 0 0)
(2.25088e-31 -6.66847e-34 0)
(0 0 0)
(0 0 0)
(4.46226e-31 -7.67875e-34 0)
(0 0 0)
(0 0 0)
(0 0 0)
(0 0 0)
(3.46473e-28 -4.27577e-30 0)
(9.59627e-28 7.48198e-30 0)
(0 0 0)
(2.58694e-28 -3.94561e-30 0)
(0 0 0)
(7.45285e-28 -6.06242e-30 0)
(0 0 0)
(0 0 0)
(0 0 0)
(0 0 0)
(0 0 0)
(-2.90543e-28 5.40103e-31 0)
(0 0 0)
(9.986e-29 -2.46745e-30 0)
(4.66667e-33 3.40111e-34 0)
(0 0 0)
(0 0 0)
(0 0 0)
(0 0 0)
(0 0 0)
(0 0 0)
(0 0 0)
(0 0 0)
(0 0 0)
(0 0 0)
(-2.35146e-28 1.60573e-31 0)
(0 0 0)
(0 0 0)
(0 0 0)
(0 0 0)
(0 0 0)
(0 0 0)
)


// ************************************************************************* //
