/*--------------------------------*- C++ -*----------------------------------*\
| =========                 |                                                 |
| \\      /  F ield         | OpenFOAM: The Open Source CFD Toolbox           |
|  \\    /   O peration     | Version:  v2012                                 |
|   \\  /    A nd           | Website:  www.openfoam.com                      |
|    \\/     M anipulation  |                                                 |
\*---------------------------------------------------------------------------*/
FoamFile
{
    version     2.0;
    format      ascii;
    class       vectorField;
    location    "0.116/lagrangian/kinematicCloud";
    object      UCorrect;
}
// * * * * * * * * * * * * * * * * * * * * * * * * * * * * * * * * * * * * * //


54
(
(3.07434e-29 1.18399e-29 0)
(0 0 0)
(0 0 0)
(0 0 0)
(0 0 0)
(1.56416e-29 1.3442e-30 0)
(0 0 0)
(1.15319e-27 7.11702e-28 0)
(-1.66661e-28 6.62785e-28 0)
(0 0 0)
(0 0 0)
(-1.81835e-30 1.45027e-30 0)
(0 0 0)
(-3.27492e-27 1.05841e-29 0)
(-2.96624e-27 -1.25364e-29 0)
(0 0 0)
(-6.46734e-27 4.19973e-29 0)
(0 0 0)
(0 0 0)
(-6.17491e-27 -4.23513e-29 0)
(-3.05838e-30 -1.03328e-32 0)
(0 0 0)
(0 0 0)
(0 0 0)
(0 0 0)
(0 0 0)
(0 0 0)
(-3.32566e-30 -2.25964e-32 0)
(0 0 0)
(0 0 0)
(0 0 0)
(-3.65231e-27 2.2293e-29 0)
(-3.35547e-27 -1.18598e-29 0)
(0 0 0)
(0 0 0)
(0 0 0)
(0 0 0)
(-4.82372e-30 7.44288e-33 0)
(0 0 0)
(0 0 0)
(0 0 0)
(0 0 0)
(0 0 0)
(-8.54984e-27 4.74326e-29 0)
(-1.03594e-26 2.48775e-29 0)
(-1.14769e-26 -6.37285e-30 0)
(0 0 0)
(0 0 0)
(0 0 0)
(0 0 0)
(-4.44291e-27 2.63372e-29 0)
(0 0 0)
(0 0 0)
(0 0 0)
)


// ************************************************************************* //
