/*--------------------------------*- C++ -*----------------------------------*\
| =========                 |                                                 |
| \\      /  F ield         | OpenFOAM: The Open Source CFD Toolbox           |
|  \\    /   O peration     | Version:  v2012                                 |
|   \\  /    A nd           | Website:  www.openfoam.com                      |
|    \\/     M anipulation  |                                                 |
\*---------------------------------------------------------------------------*/
FoamFile
{
    version     2.0;
    format      ascii;
    class       volScalarField;
    location    "0.124";
    object      epsilon.air;
}
// * * * * * * * * * * * * * * * * * * * * * * * * * * * * * * * * * * * * * //

dimensions      [0 2 -3 0 0 0 0];


internalField   nonuniform List<scalar> 
1900
(
112.724
141.424
210.097
257.591
369.051
443.457
614.741
724.902
971.328
1128.6
15.4676
16.4471
18.6373
20.4505
23.7571
27.7278
32.0002
39.31
44.9863
56.9814
14.7926
14.6415
14.5755
14.5063
14.515
14.5558
14.6443
14.8291
15.0762
15.4175
14.77
14.6304
14.4634
14.3354
14.1726
14.059
13.904
13.8079
13.6654
13.5937
14.7766
14.6216
14.4704
14.3204
14.1748
14.0289
13.889
13.7471
13.614
13.4768
14.7777
14.6205
14.4714
14.3196
14.1754
14.0283
13.8892
13.7472
13.6134
13.4773
14.7776
14.6207
14.473
14.3235
14.1841
14.0449
13.9176
13.7913
13.6808
13.5715
14.7758
14.6499
14.5639
14.5033
14.5109
14.55
14.6397
14.8173
15.0471
15.3928
15.209
16.6022
18.2782
20.6739
23.6012
27.5607
32.2787
38.3869
45.5832
54.79
105.879
146.603
198.35
265.761
350.04
456.031
585.696
743.639
931.818
1153.99
4099.75
15204.3
19578.3
22425.9
21087.9
17992.3
15067.2
12780.9
11297.4
10386.2
9889.06
9713.58
9536.65
9263.98
8853.44
8353.02
7797.59
7210.33
6643.95
6126
5649.32
5222.54
4838.02
4487.06
4167.71
3878.18
3615.5
3377.92
3162.12
2966.24
2787.95
2625.24
2476.43
2339.96
2214.65
2099.31
1993.01
1894.78
1803.87
1719.5
1641.11
1568.11
1500.04
1436.46
1376.98
1321.27
1269.01
1219.93
1173.77
1130.27
1089.23
1050.43
1013.71
978.894
945.836
914.389
884.452
855.891
828.639
802.571
777.649
753.747
730.854
708.838
687.722
667.358
647.81
628.909
610.768
593.186
576.339
559.973
544.336
529.1
514.604
500.414
486.984
473.75
461.307
448.928
437.39
425.764
415.06
404.097
394.173
383.794
374.622
364.756
356.325
346.902
339.218
330.157
323.24
314.445
308.328
299.683
294.411
285.786
281.395
271.054
112.986
337.968
517.966
921.992
1123.43
1147.42
1119.69
1055.59
1051.29
1091.19
1197.22
1411.76
1699.96
2032.06
2381.47
2693.54
2972.75
3205.38
3359.6
3435.54
3427.61
3388.57
3301.96
3183.8
3055.44
2924.15
2793.22
2666.77
2543.43
2426.11
2314.13
2207.22
2105.91
2010.02
1919.68
1834.6
1754.71
1679.49
1608.72
1542.08
1479.29
1420.07
1364.18
1311.38
1261.47
1214.24
1169.52
1127.13
1086.92
1048.73
1012.42
977.844
944.894
913.438
883.381
854.606
827.045
800.594
775.213
750.809
727.364
704.785
683.076
662.134
641.993
622.528
603.812
585.689
568.275
551.381
535.18
519.432
504.377
489.706
475.741
462.08
449.147
436.419
424.452
412.571
401.496
390.367
380.117
369.649
360.169
350.283
341.542
332.167
324.15
315.215
307.926
299.351
292.805
284.499
278.722
270.574
265.603
257.489
253.359
243.645
16.4233
19.873
22.8866
29.0954
34.7703
38.6985
41.6569
43.7097
46.6618
50.6969
58.7669
71.0396
95.7861
130.574
190.109
267.796
374.458
510.198
667.553
838.208
1006.77
1164.6
1303.35
1419.11
1508.94
1571.78
1609.4
1627.16
1624.71
1614.27
1591.88
1561.84
1527.63
1490.46
1451.85
1412.05
1372.13
1331.75
1291.92
1252.75
1214.31
1176.77
1140.24
1104.79
1070.42
1037.1
1004.89
973.724
943.6
914.499
886.39
859.224
832.975
807.588
783.04
759.266
736.258
713.95
692.353
671.409
651.143
631.494
612.499
594.085
576.312
559.08
542.477
526.364
510.864
495.797
481.34
467.259
453.797
440.651
428.143
415.883
404.289
392.856
382.125
371.449
361.523
351.524
342.345
332.94
324.457
315.572
307.753
299.32
292.151
284.107
277.589
269.864
264.009
256.521
251.35
244.006
239.55
232.242
228.53
219.787
13.4532
13.4607
13.5467
13.8035
14.336
15.008
15.7199
16.3386
16.9246
17.3362
17.8926
18.3579
19.3161
20.4881
22.7635
26.2703
31.7568
40.883
54.8827
76.3919
106.731
147.489
199.183
260.742
330.049
404.582
479.607
553.175
620.487
682.321
735.776
780.033
814.99
840.875
859.12
870.257
875.682
875.105
872.387
866.365
857.592
846.89
834.84
821.506
807.234
792.148
776.513
760.275
743.781
727.103
710.291
693.429
676.607
659.867
643.281
626.832
610.617
594.594
578.854
563.356
548.192
533.325
518.829
504.66
490.911
477.506
464.546
451.907
439.719
427.809
416.366
405.152
394.429
383.88
373.854
363.947
354.597
345.287
336.584
327.835
319.751
311.511
304.007
296.211
289.25
281.84
275.397
268.317
262.388
255.594
250.179
243.612
238.721
232.322
227.976
221.678
217.904
211.631
208.452
200.94
13.33
13.1588
13.0627
13.1172
13.3063
13.7181
14.2888
14.9103
15.4498
15.8717
16.2063
16.4285
16.6171
16.7568
16.9094
17.092
17.3385
17.7393
18.3287
19.3242
20.8423
23.2724
26.7945
32.1601
39.7409
50.5391
64.8374
83.3238
105.967
132.903
163.533
196.875
232.166
267.749
303.033
336.151
367.321
395.34
420.237
441.485
459.296
473.582
484.891
493.307
499.198
502.848
504.554
504.244
503.031
500.404
496.546
491.762
486.264
480.101
473.461
466.384
459.021
451.34
443.531
435.51
427.477
419.349
411.245
403.166
395.22
387.334
379.607
371.933
364.439
356.981
349.746
342.51
335.55
328.535
321.871
315.099
308.741
302.231
296.201
289.945
284.241
278.219
272.832
267.016
261.938
256.299
251.527
246.036
241.566
236.187
232.036
226.752
222.948
217.733
214.301
209.124
206.09
200.918
198.305
192.088
13.3252
13.1542
13.0317
13.0867
13.2966
13.7731
14.5023
15.4871
16.5013
17.598
18.5867
19.5121
20.2524
20.8704
21.2993
21.6054
21.7822
21.8568
21.8425
21.797
21.697
21.5994
21.5298
21.5564
21.6642
21.9235
22.4538
23.3645
24.8163
26.9672
30.1863
34.5491
40.5717
48.1431
57.636
68.8908
82.0631
96.7526
112.904
129.951
147.606
165.314
182.732
199.516
215.344
230.013
243.411
255.427
266.119
275.548
283.75
290.831
296.912
302.07
306.409
309.993
312.935
315.187
316.947
318.057
318.832
318.946
318.774
318.313
317.373
316.061
314.461
312.551
310.433
308.038
305.497
302.686
299.804
296.615
293.535
290.053
286.805
283.119
279.778
275.954
272.579
268.658
265.295
261.305
257.993
253.951
250.72
246.636
243.519
239.4
236.424
232.269
229.462
225.276
222.668
218.458
216.077
211.853
209.728
204.63
13.4659
13.3601
13.4097
13.656
14.3049
15.686
18.0388
21.4337
25.3955
29.7088
33.5833
37.045
39.592
41.562
42.6134
43.335
43.3836
43.2567
42.9259
42.3912
41.768
41.1421
40.4911
39.8859
39.3391
38.8852
38.5277
38.2532
38.1373
38.1842
38.3518
38.6874
39.36
40.2183
41.5194
43.224
45.4872
48.4399
52.1371
56.827
62.5098
69.4512
77.5561
87.0136
97.636
109.494
122.265
135.95
150.117
164.744
179.372
193.969
208.185
221.99
235.174
247.678
259.417
270.308
280.378
289.555
297.911
305.42
312.08
317.968
323.072
327.427
331.085
334.052
336.34
338.063
339.177
339.8
339.752
339.45
338.8
337.463
336.206
334.196
332.477
329.955
327.879
324.968
322.655
319.45
316.997
313.569
311.051
307.452
304.929
301.2
298.719
294.894
292.494
288.606
286.324
282.411
280.279
276.376
274.441
269.795
15.9127
16.8545
18.5509
21.9244
28.419
39.4964
55.4834
74.9878
95.4349
114.279
129.104
140.031
146.536
150.139
150.761
150.355
149.355
147.751
146.213
145.09
144.468
144.636
145.255
146.676
148.974
152.243
156.353
161.164
167.206
173.784
181.865
190.486
200.531
211.35
223.337
236.439
250.44
265.686
281.523
298.353
315.522
333.378
351.349
369.561
387.481
405.275
422.458
439.43
455.595
471.441
486.346
500.726
514.25
527.075
539.168
550.345
560.692
569.989
578.405
585.741
592.228
597.712
602.327
606.003
608.864
610.759
612.096
612.32
612.025
611.226
609.615
607.325
604.557
601.152
597.623
593.281
589.23
584.275
579.872
574.493
569.878
564.239
559.564
553.775
549.148
543.292
538.804
532.95
528.681
522.884
518.89
513.19
509.501
503.94
500.586
495.197
492.211
486.997
484.458
478.517
68.0484
90.4081
126.23
184.858
272.056
385.14
511.689
635.777
744.554
831.724
892.373
932.281
953.029
963.66
964.776
963.562
961.194
957.789
956.389
957.291
960.42
966.133
974.564
986.241
1000.49
1016.87
1035.17
1055.41
1077.85
1101.37
1126.62
1152.2
1178.94
1205.67
1232.82
1259.7
1286.11
1311.79
1336.14
1359.43
1381.18
1401.61
1420.35
1437.67
1453.2
1467.37
1479.93
1491.45
1501.41
1510.41
1517.8
1524.08
1529.04
1532.58
1535.21
1535.94
1535.57
1534.19
1531.34
1526.92
1521.92
1515.47
1508.52
1500.4
1491.78
1482.24
1472.23
1461.58
1450.52
1438.84
1427.02
1414.39
1401.93
1388.61
1375.91
1362.27
1349.54
1335.89
1323.37
1309.88
1297.77
1284.55
1272.96
1260.08
1249.11
1236.64
1226.38
1214.39
1204.98
1193.54
1185.03
1174.15
1166.55
1156.22
1149.55
1139.76
1134.04
1124.71
1120.11
1109.81
1464.59
1897.17
2398.89
2961.83
3563.22
4171.79
4746.35
5251.07
5654.89
5950.93
6132.29
6219.46
6207.02
6160.35
6061.73
5928.42
5777.85
5619.22
5458.99
5301.38
5149.04
5004.24
4867.79
4740.1
4621.06
4511.02
4409.53
4316.36
4231.07
4153.35
4083.15
4019.64
3962.72
3911.5
3866.09
3825.79
3790.31
3759.13
3731.74
3708.05
3687.64
3670.38
3655.76
3643.57
3633.49
3625.29
3618.58
3613.37
3608.99
3605.74
3602.96
3600.84
3599.38
3598.27
3597.91
3598
3598.43
3599.09
3600.44
3601.62
3603.49
3604.98
3606.69
3607.96
3609.11
3609.74
3610.08
3609.99
3609.65
3608.81
3607.72
3605.54
3603.42
3599.76
3596.35
3591.09
3586.19
3579.18
3572.7
3563.96
3556.07
3545.87
3536.99
3525.73
3516.27
3504.23
3494.46
3481.74
3471.8
3458.36
3448.31
3434.03
3423.95
3408.74
3398.89
3382.68
3373.4
3356.23
3347.49
3325.57
1108.72
1064.24
1122.15
1210.22
1239.08
1121.57
818.804
1980.38
54599.6
16102.8
7348.11
6106.01
6236.29
6487.9
6558.86
8032.4
74262.6
43614.9
24828.7
18467.2
16106.8
15008.6
14637.1
19681.5
76415.6
71039.5
54270.4
41213.8
32701.8
27169.9
24556.6
34081.9
69719.6
75714.9
67763.6
55663.7
44575
35846
30865
42708.1
57733.6
71176.5
67948.3
59042.7
48375.3
38730.3
32778.9
45220.5
47469.4
61823.2
62481.5
56603.5
47155.8
38166.7
32441.6
44225.4
39075.3
51808.2
53569.2
49818.6
42376.7
34660.6
29577.7
39736.6
32626.5
42983.4
44908.7
42118.7
36288.6
30032.3
25813.1
34025.6
27612.7
35623.3
37252.1
35108
30536.8
25553.5
22222.3
29370.7
23495.9
29588.6
30824.3
29122.1
25532.6
21636.3
19162.9
26020.1
20115.2
24701.2
25579.1
24189.4
21346.9
18306.1
16503.9
22990.2
17376.5
20788.6
21376.1
20218
17948
15565.3
14275.5
20375
15142.1
17663.3
18029.9
17050.4
15222.2
13341.7
12438.4
18171.7
13290.9
15152.6
15360.3
14524.9
13038.9
11544.6
10934.5
16342.2
11729.5
13110.8
13209.6
12493.9
11276.7
10082.8
9697.42
14817.5
10405.9
11438.7
11464.2
10848.3
9843.63
8885.29
8673.58
13540.7
9267.24
10051.1
10032.2
9499.55
8665.89
7894.99
7819.35
12464.4
8285.29
8888.99
8845.21
8382.98
7688.15
7068.16
7099.35
11549.1
7442.52
7911.11
7852.65
7450.9
6869.16
6371.47
6485.78
10764.4
6716.02
7082.98
7016.41
6666.44
6177.3
5779.12
5959.93
10085.5
6089.82
6378.2
6307.48
6001.61
5588.59
5271.79
5506.19
9493.91
5547.61
5774.85
5702.68
5434.5
5084.52
4834.71
5112.54
8976.47
5073.96
5254.18
5182.73
4947.13
4649.96
4455.85
4769.22
8522.03
4657.86
4801.78
4732.54
4525.27
4272.72
4125.35
4468.03
8120.56
4290.67
4406.41
4340.34
4157.82
3943.25
3835.4
4202.42
7764.13
3965.13
4058.89
3996.62
3835.87
3653.85
3579.61
3966.94
7446.06
3675.81
3752.12
3693.95
3552.36
3398.38
3352.9
3757.19
7160.77
3417.51
3480.03
3426.08
3301.45
3171.77
3151
3569.56
6903.71
3186.3
3237.79
3188.05
3078.44
2969.93
2970.59
3401.1
6671.29
2978.57
3021.26
2975.69
2879.47
2789.52
2808.43
3249.56
6460.6
2791.3
2826.98
2785.46
2701.21
2627.58
2662.39
3112.69
6269.26
2621.93
2652.02
2614.4
2540.91
2481.69
2530.49
2988.72
6095.2
2468.18
2493.85
2459.98
2396.2
2349.78
2410.99
2876.15
5936.66
2328.22
2350.38
2320.1
2265.09
2230.12
2302.38
2773.67
5792.12
2200.42
2219.8
2192.94
2145.88
2121.18
2203.36
2680.11
5660.14
2083.45
2100.62
2076.99
2037.14
2021.7
2112.79
2594.44
5539.34
1976.06
1991.49
1970.92
1937.64
1930.54
2029.68
2515.76
5428.41
1877.25
1891.32
1873.63
1846.34
1846.81
1953.2
2443.26
5326.2
1786.07
1799.11
1784.16
1762.35
1769.58
1882.7
2376.32
5231.68
1701.78
1714.05
1701.67
1684.89
1698.24
1817.5
2314.35
5143.98
1623.68
1635.41
1625.48
1613.31
1632.25
1757.1
2256.86
5062.36
1551.19
1562.58
1554.95
1547.03
1571.08
1701.03
2203.43
4986.21
1483.79
1494.99
1489.55
1485.55
1514.3
1648.91
2153.73
4915.05
1421.02
1432.16
1428.81
1428.45
1461.5
1600.39
2107.44
4848.5
1362.47
1373.67
1372.3
1375.27
1412.37
1555.19
2064.32
4786.34
1307.77
1319.12
1319.64
1325.7
1366.56
1513.03
2024.14
4728.33
1256.58
1268.16
1270.48
1279.45
1323.8
1473.66
1986.69
4674.29
1208.61
1220.46
1224.5
1236.2
1283.81
1436.85
1951.75
4624.02
1163.57
1175.76
1181.44
1195.7
1246.35
1402.4
1919.15
4577.32
1121.2
1133.78
1141.03
1157.71
1211.22
1370.1
1888.72
4534
1081.29
1094.29
1103.06
1122.01
1178.21
1339.78
1860.27
4493.8
1043.63
1057.08
1067.3
1088.41
1147.15
1311.28
1833.66
4456.51
1008.03
1021.97
1033.58
1056.74
1117.88
1284.45
1808.72
4421.79
974.331
988.782
1001.75
1026.84
1090.25
1259.15
1785.32
4389.43
942.375
957.365
971.634
998.561
1064.14
1235.26
1763.32
4359.13
912.047
927.594
943.122
971.8
1039.42
1212.67
1742.61
4330.7
883.201
899.324
916.071
946.418
1015.99
1191.28
1723.07
4303.87
855.756
872.468
890.392
922.33
993.745
1170.99
1704.6
4278.53
829.576
846.887
865.952
899.413
972.59
1151.71
1687.13
4254.48
804.608
822.524
842.692
877.604
952.456
1133.37
1670.56
4231.69
780.718
799.241
820.477
856.781
933.239
1115.89
1654.84
4210.01
757.883
777.01
799.277
836.911
914.895
1099.2
1639.87
4189.45
735.961
755.688
778.953
817.866
897.321
1083.24
1625.64
4169.86
714.966
735.285
759.513
799.649
880.505
1067.97
1612.05
4151.29
694.744
715.644
740.805
782.12
864.329
1053.3
1599.08
4133.5
675.354
696.826
722.889
765.335
848.831
1039.25
1586.68
4116.67
656.619
678.65
705.584
749.121
833.861
1025.7
1574.78
4100.38
638.657
661.237
689.016
733.603
819.535
1012.73
1563.44
4085.04
621.253
644.365
672.957
718.554
805.636
1000.16
1552.47
4069.98
604.593
628.229
657.613
704.188
792.38
988.182
1542.08
4055.93
588.406
612.542
642.682
690.191
779.449
976.499
1531.96
4041.86
572.956
597.588
628.471
676.893
767.191
965.462
1522.48
4029.05
557.889
582.985
614.566
663.85
755.137
954.585
1513.1
4015.84
543.57
569.13
601.404
651.544
743.819
944.448
1504.53
4004.35
529.529
555.51
588.422
639.354
732.548
934.295
1495.85
3991.99
516.258
542.666
576.225
627.964
722.104
925.018
1488.18
3981.95
503.14
529.921
564.054
616.516
711.507
915.486
1480.1
3970.43
490.83
517.999
552.731
605.956
701.864
907.013
1473.31
3961.85
478.528
506.016
541.258
595.134
691.826
897.985
1465.71
3951.05
467.092
494.927
530.721
585.318
682.901
890.241
1459.74
3943.77
455.502
483.602
519.84
575.016
673.312
881.6
1452.49
3933.45
444.868
473.273
510.016
565.87
665.029
874.501
1447.23
3927.17
433.9
462.518
499.639
555.999
655.792
866.138
1440.19
3917
424.017
452.899
490.477
547.465
648.087
859.608
1435.53
3911.37
413.596
442.641
480.533
537.953
639.128
851.429
1428.54
3901
404.436
433.704
472.001
529.998
631.954
845.404
1424.37
3895.67
394.494
423.879
462.432
520.788
623.213
837.337
1417.34
3884.97
386.051
415.618
454.522
513.395
616.545
831.771
1413.57
3879.57
376.522
406.164
445.27
504.441
607.981
823.777
1406.46
3868.58
368.802
398.587
437.99
497.613
601.811
818.64
1402.99
3863.13
359.609
389.435
428.998
488.872
593.407
810.74
1395.92
3851.91
352.636
382.568
422.374
482.632
587.745
806.014
1392.63
3846.49
343.687
373.634
413.574
474.058
579.49
798.251
1385.77
3835.37
337.5
367.52
407.651
468.45
574.371
793.949
1382.69
3830.07
328.685
358.706
398.963
459.99
566.253
786.38
1376.15
3819.5
323.335
353.397
393.793
455.061
561.711
782.503
1373.26
3814.23
314.532
344.596
385.127
446.656
553.718
775.198
1367.16
3804.69
310.051
340.121
380.734
442.42
549.744
771.683
1364.42
3800.05
299.473
329.52
370.272
432.254
540.078
762.902
1357.07
3789.79
)
;

boundaryField
{
    frontAndBack
    {
        type            empty;
    }
    inlet
    {
        type            fixedValue;
        value           uniform 14.855;
    }
    outlet
    {
        type            zeroGradient;
    }
    walls
    {
        lowReCorrection 0;
        blending        stepwise;
        n               2;
        type            epsilonWallFunction;
        value           nonuniform List<scalar> 
228
(
112.724
141.424
210.097
257.591
369.051
443.457
614.741
724.902
971.328
1128.6
1108.72
1064.24
1122.15
1210.22
1239.08
1121.57
818.804
1980.38
1980.38
8032.4
19681.5
34081.9
42708.1
45220.5
44225.4
39736.6
34025.6
29370.7
26020.1
22990.2
20375
18171.7
16342.2
14817.5
13540.7
12464.4
11549.1
10764.4
10085.5
9493.91
8976.47
8522.03
8120.56
7764.13
7446.06
7160.77
6903.71
6671.29
6460.6
6269.26
6095.2
5936.66
5792.12
5660.14
5539.34
5428.41
5326.2
5231.68
5143.98
5062.36
4986.21
4915.05
4848.5
4786.34
4728.33
4674.29
4624.02
4577.32
4534
4493.8
4456.51
4421.79
4389.43
4359.13
4330.7
4303.87
4278.53
4254.48
4231.69
4210.01
4189.45
4169.86
4151.29
4133.5
4116.67
4100.38
4085.04
4069.98
4055.93
4041.86
4029.05
4015.84
4004.35
3991.99
3981.95
3970.43
3961.85
3951.05
3943.77
3933.45
3927.17
3917
3911.37
3901
3895.67
3884.97
3879.57
3868.58
3863.13
3851.91
3846.49
3835.37
3830.07
3819.5
3814.23
3804.69
3800.05
3789.79
105.879
146.603
198.35
265.761
350.04
456.031
585.696
743.639
931.818
1153.99
1464.59
1897.17
2398.89
2961.83
3563.22
4171.79
4746.35
5251.07
5654.89
5950.93
6132.29
6219.46
6207.02
6160.35
6061.73
5928.42
5777.85
5619.22
5458.99
5301.38
5149.04
5004.24
4867.79
4740.1
4621.06
4511.02
4409.53
4316.36
4231.07
4153.35
4083.15
4019.64
3962.72
3911.5
3866.09
3825.79
3790.31
3759.13
3731.74
3708.05
3687.64
3670.38
3655.76
3643.57
3633.49
3625.29
3618.58
3613.37
3608.99
3605.74
3602.96
3600.84
3599.38
3598.27
3597.91
3598
3598.43
3599.09
3600.44
3601.62
3603.49
3604.98
3606.69
3607.96
3609.11
3609.74
3610.08
3609.99
3609.65
3608.81
3607.72
3605.54
3603.42
3599.76
3596.35
3591.09
3586.19
3579.18
3572.7
3563.96
3556.07
3545.87
3536.99
3525.73
3516.27
3504.23
3494.46
3481.74
3471.8
3458.36
3448.31
3434.03
3423.95
3408.74
3398.89
3382.68
3373.4
3356.23
3347.49
3325.57
)
;
    }
}


// ************************************************************************* //
