/*--------------------------------*- C++ -*----------------------------------*\
| =========                 |                                                 |
| \\      /  F ield         | OpenFOAM: The Open Source CFD Toolbox           |
|  \\    /   O peration     | Version:  v2012                                 |
|   \\  /    A nd           | Website:  www.openfoam.com                      |
|    \\/     M anipulation  |                                                 |
\*---------------------------------------------------------------------------*/
FoamFile
{
    version     2.0;
    format      ascii;
    class       volScalarField;
    location    "0.124";
    object      omega.air;
}
// * * * * * * * * * * * * * * * * * * * * * * * * * * * * * * * * * * * * * //

dimensions      [0 0 -1 0 0 0 0];


internalField   nonuniform List<scalar> 
5600
(
6775.48
9482.98
11876
13294.3
13892.6
13969.3
13767.7
13436.3
13074.1
12744.8
12448.5
12203.8
12009.3
11871.6
11781.1
11730.4
11710.5
11709
11717.9
11733.4
11745.1
11759.8
11766.9
11776.3
11780.5
11786.4
11791.1
11795.5
11800.7
11804.1
11809.4
11811.3
11815.6
11815.7
11818.2
11816.4
11817.5
11814.6
11814.6
11811.3
11810.4
11807.1
11806
11802.4
11801.8
11798.2
11798.5
11794.8
11795.7
11792.3
11793.4
11790.4
11791.8
11788.8
11790.8
11787.6
11790.2
11787
11790.1
11787.2
11790.8
11787.9
11792.4
11789.2
11794.8
11791.4
11797.8
11794.4
11801.4
11797.8
11805.7
11801.8
11811.3
11806.6
11817.9
11812.1
11824.7
11818
11831.5
11824.1
11838.1
11830.2
11844.7
11836.4
11851.3
11843.1
11857.5
11851.8
11861.6
11864.6
11860.1
11887
11844.8
11935.1
11784.8
12063.5
11562.5
12475.2
10625.1
13896.1
2507.63
2657.82
3499.77
4407.04
5081.15
5501.39
5765.2
5917.37
6000.53
5999.02
6090.45
6222.82
6350.86
6439.42
6482.38
6479.48
6436.8
6366
6274.64
6172.83
6064.98
5961.41
5861.58
5771.22
5685.38
5604.89
5528.62
5457.75
5394.24
5334.99
5283.14
5233.9
5191.59
5150.95
5116.67
5083.63
5055.94
5029.25
5006.73
4985.16
4966.66
4948.79
4933.52
4918.75
4905.99
4893.48
4882.44
4871.53
4861.83
4852.23
4843.74
4835.26
4827.86
4820.38
4813.97
4807.45
4801.9
4796.17
4791.44
4786.26
4782.37
4777.78
4774.52
4770.49
4767.58
4764.1
4761.58
4758.73
4756.48
4753.83
4751.68
4749.33
4747.4
4745.46
4743.98
4742.52
4741.39
4740.24
4739.25
4738.38
4737.37
4736.91
4735.66
4735.73
4733.8
4735.13
4731.59
4735.49
4728.49
4738.51
4722.39
4747.73
4706.1
4773.33
4662.38
4847.37
4531.79
5073.76
4098.19
5796.94
2558.12
2209.16
2002.93
1887.41
1868.34
1937.49
2043.95
2169.19
2321.33
2455.6
2600.21
2763.92
2937.55
3108.82
3266.71
3399.62
3507.36
3581.57
3630.43
3645.58
3637.73
3599.14
3540.65
3464.49
3387.2
3319.24
3263.07
3213.59
3168.47
3126.29
3089.17
3054.63
3024.72
2993.89
2966.28
2938.91
2914.77
2890.75
2869.62
2848.69
2830.24
2812.03
2796.28
2780.55
2767.01
2753.54
2742.15
2730.54
2720.78
2710.68
2702.22
2693.32
2685.96
2678.04
2671.7
2664.65
2659.23
2652.95
2648.29
2642.64
2638.7
2633.61
2630.29
2625.6
2622.8
2618.42
2616.09
2612.05
2610.03
2606.17
2604.42
2600.68
2599.21
2595.77
2594.75
2591.59
2590.89
2588.03
2587.41
2584.98
2584.16
2582.45
2581
2580.47
2577.57
2579.33
2573.35
2579.76
2567.33
2583.49
2557.23
2594.08
2537.76
2618.98
2497.82
2673.78
2415.69
2781.84
2266.34
2924.38
2553.41
2194.16
1927.74
1720.88
1562.25
1441.54
1349.55
1283.12
1232.94
1204.21
1188.09
1196.71
1229.25
1276.42
1352.92
1434.98
1544.21
1646.78
1767.24
1871.93
1980.86
2068.18
2144.71
2200.99
2241.9
2271.21
2288.32
2297.03
2292.94
2281.1
2257.21
2230.79
2198.92
2173.45
2149
2127.16
2106.36
2086.3
2067.46
2049.13
2032.4
2016.38
2002.29
1987.68
1973.96
1959.92
1947.3
1934.39
1923.04
1911.35
1901.17
1890.62
1881.53
1872.02
1864.05
1855.58
1848.68
1841.06
1834.98
1828.06
1822.69
1816.3
1811.55
1805.53
1801.33
1795.68
1791.89
1786.57
1783.18
1778.1
1775.14
1770.21
1767.71
1763.13
1761.14
1756.97
1755.26
1751.56
1749.84
1746.75
1744.76
1742.58
1739.87
1739.15
1734.89
1736.61
1729.37
1735.5
1722.6
1736.72
1713.51
1741.55
1700.57
1751.7
1682.23
1767.33
1660.67
1779.16
1653.75
1743.02
2551.44
2191.34
1920.22
1709.7
1539.11
1404.47
1287
1195.89
1112.07
1045.5
987.987
934.746
900.226
857.214
840.627
811.237
807.635
799.509
811.195
828.604
858.827
900.954
950.55
1013.13
1077.42
1152.33
1223.96
1302.52
1369.68
1438.94
1488.27
1536.54
1565.13
1594.34
1610.23
1624.78
1630.38
1633.64
1630.49
1625.42
1614.97
1604.82
1590.16
1578.98
1566.28
1555.8
1544.57
1534.31
1523.91
1513.98
1504.13
1494.76
1485.77
1477.23
1469.45
1461.9
1454.84
1447.21
1440.41
1433.02
1426.62
1419.46
1413.52
1406.61
1401.17
1394.62
1389.51
1383.28
1378.61
1372.7
1368.61
1363.05
1359.49
1354.24
1351.03
1346.14
1343.09
1338.61
1335.51
1331.67
1328.32
1325.36
1321.49
1319.78
1314.96
1315.05
1308.48
1311.35
1301.77
1308.81
1294.66
1307.3
1287.4
1306.15
1281.12
1303.07
1279.1
1292.78
1287.16
1268.34
2550.65
2190.89
1917.96
1708.02
1535.75
1400.16
1281.62
1186.41
1102.09
1028.72
969.313
908.195
866.383
815.315
782.819
743.93
713.726
688.202
658.913
643.672
618.75
609.628
592.639
588.683
580.89
586.077
588.66
608.23
621.745
658.309
685.13
734.584
773.274
828.508
875.214
930.205
977.898
1027.92
1068.17
1110.3
1138.45
1170.48
1186.43
1207.85
1217.4
1230.38
1235.04
1241.43
1241.9
1243.96
1240.38
1239.14
1232.69
1228.8
1221.26
1215.43
1208.16
1202.67
1196.15
1191.06
1184.96
1179.74
1174.1
1168.73
1163.63
1158.29
1153.48
1148.18
1143.79
1138.79
1135.1
1130.5
1127.08
1122.24
1118.71
1113.72
1109.94
1105.07
1101.11
1096.72
1092.59
1088.87
1084.53
1081.64
1077.03
1075.23
1070.08
1069.59
1063.58
1064.48
1057.57
1059.58
1052.31
1054.38
1048.1
1048.2
1045.16
1040.67
1042.59
1033.51
2550.25
2190.81
1917.31
1707.15
1535.4
1398.2
1281.55
1183.68
1101.29
1026.17
966.284
906.565
860.21
813.866
773.858
740.157
702.865
678.952
645.131
626.123
598.122
580.471
558.595
542.225
524.058
511.258
494.253
486.145
471.068
465.315
456.449
450.033
450.425
445.467
453.487
456.537
468.67
485.572
499.744
530.906
548.652
588.218
611.7
652.572
681.616
721.093
750.729
788.061
813.373
848.334
867.436
896.692
910.887
932.34
942.392
956.213
962.112
971.917
974.485
981.417
981.662
985.567
984.779
985.908
984.428
983.685
981.043
979.065
975.31
972.492
968.688
965.249
962.231
958.601
955.795
951.816
948.644
944.538
941.216
937.41
934.052
930.623
927.199
924.21
920.829
918.482
915.138
913.454
910.095
908.753
905.488
903.969
900.865
899.001
896.194
893.844
891.139
888.479
884.932
883.212
2550.16
2190.52
1917.44
1706.25
1535.87
1396.86
1281.91
1182.69
1100.6
1026.43
963.906
908.171
856.691
815.558
770.822
740.15
701.598
676.567
645.218
622.221
597.962
576.085
556.881
537.217
520.514
503.79
489.154
473.367
463.173
445.148
441.133
420.249
420.77
400.484
400.225
386.256
381.107
374.642
367.108
363.594
360.453
353.95
359.749
351.854
362.741
360.46
371.081
379.994
389.736
406.862
420.531
440.779
461.153
482.281
505.663
529.952
551.473
579.727
598.385
625.896
643.954
666.911
685.296
703.518
719.563
734.798
746.683
759.41
767.756
776.828
783.185
788.373
793.6
796.297
800.139
800.985
803.215
802.701
803.839
802.792
803.098
801.659
801.099
799.246
798.067
796.115
794.535
792.759
790.797
789.015
786.695
784.923
782.491
780.967
778.301
776.992
773.706
772.363
767.965
766.596
2550.28
2190.09
1917.76
1705.58
1536.19
1396.36
1281.71
1182.87
1099.49
1027.41
962.174
909.273
855.295
815.73
770.666
738.911
702.589
674.574
646.316
620.539
598.372
574.958
556.909
535.84
521.076
501.381
490.349
470.445
463.621
443.216
439.128
420.073
416.029
400.353
394.675
382.463
376.436
364.513
361.915
346.679
349.49
330.926
336.802
318.871
323.632
309.197
312.105
299.775
304.421
290.06
299.403
283.176
295.532
281.023
292.661
283.669
294.422
289.612
302.489
299.438
316.911
315.71
335.85
339.208
358.969
367.765
386.994
399.063
419.859
432.509
454.507
466.732
487.729
500.3
519.476
532.22
549.61
561.482
576.655
587.259
600.019
609.112
619.411
626.68
634.565
640.207
645.831
650.172
653.829
656.876
658.794
660.723
661.23
662.575
662.043
662.972
661.411
661.548
658.779
657.747
2550.43
2189.83
1917.86
1705.4
1536.06
1396.46
1281.27
1183.16
1099.03
1027.46
962.179
908.642
856.025
814.449
771.778
737.58
703.367
673.83
646.365
620.449
597.935
575.084
556.47
535.808
520.752
501.433
489.53
471.411
461.542
445.48
435.947
422.892
412.907
402.267
392.96
382.607
375.963
364.044
360.663
347.685
345.595
334.01
330.817
321.729
317.813
309.215
307.194
296.671
297.639
285.782
287.404
277.205
277.168
269.112
268.877
260.013
262.926
251.138
256.909
244.929
249.695
241.246
243.221
237.587
239.795
233.566
238.77
231.533
238.593
233.157
239.701
237.555
243.263
243.955
249.866
253.462
260.436
266.936
274.801
282.772
291.411
300.174
309.696
319.514
329.245
339.699
348.932
359.156
367.947
377.753
386.268
395.737
403.672
412.359
419.417
427.133
433.601
440.435
446.327
452.009
2550.48
2189.82
1917.8
1705.54
1535.86
1396.66
1281.14
1183.15
1099.28
1026.95
962.957
907.693
857.076
813.466
772.623
736.978
703.755
673.648
646.431
620.489
597.804
575.396
555.906
536.732
519.455
503.083
487.681
473.269
459.956
446.586
435.464
422.818
413.33
401.856
392.998
383.272
374.474
366.292
357.993
350.365
343.367
335.58
329.918
322.335
317.064
310.669
304.878
299.961
293.951
289.547
284.474
279.55
275.81
270.784
267.2
263.562
258.998
257.103
252.31
250.701
247.48
245.067
243.64
241.547
240.459
240.425
239.146
241.054
240.89
243.706
245.836
249.59
253.893
259.2
265.242
272.034
279.703
287.696
296.842
306.111
316.275
326.528
337.19
347.899
358.849
369.689
380.658
391.331
401.857
411.975
421.691
430.835
439.463
447.613
455.138
462.143
468.385
474.091
479.192
483.96
2550.5
2189.89
1917.79
1705.74
1535.8
1396.92
1281.13
1183.3
1099.52
1026.84
963.489
907.374
857.717
813.225
773.036
737.115
703.756
674.173
646.197
621.074
597.736
575.677
556.232
536.694
519.956
503.15
487.845
473.893
459.572
447.643
435.029
423.603
413.592
401.898
394.049
383.043
375.55
366.805
358.44
351.997
343.662
337.729
331.288
324.552
320.235
313.715
309.835
305.458
301.062
298.96
295.476
294.151
293.566
292.857
294.995
296.805
300.568
306.349
312.201
321.248
330.68
341.892
355.053
368.519
384.133
400.006
416.869
434.321
451.901
469.813
487.656
505.182
522.425
538.704
554.464
569.091
583.088
595.86
607.982
618.792
628.894
637.645
645.694
652.459
658.538
663.468
667.704
670.944
673.609
675.689
677.3
678.472
679.233
679.604
679.531
679.211
678.46
677.559
676.365
675.222
2550.55
2189.94
1917.93
1705.89
1535.94
1397.22
1281.24
1183.71
1099.63
1027.26
963.736
907.653
858.212
813.32
773.722
737.2
704.369
674.555
646.489
621.896
597.772
576.707
556.444
537.498
520.788
503.571
489.303
474.389
461.213
449.014
436.572
426.368
415.572
406.121
397.849
388.944
382.823
375.744
370.846
366.874
363.509
362.836
362.865
365.388
370.233
376.877
386.866
398.766
413.665
430.92
450.263
471.725
494.529
518.459
543.183
567.93
592.961
617.209
640.791
663.141
684.313
703.93
722.017
738.417
753.046
765.882
776.997
786.238
794.084
800.226
805.389
809.554
812.917
815.516
817.456
818.787
819.6
819.916
819.825
819.3
818.453
817.233
815.813
814.09
812.25
810.201
808.111
805.867
803.681
801.507
799.369
797.263
795.141
792.991
790.757
788.519
786.199
783.935
781.682
779.645
2550.63
2190.06
1918.24
1706.14
1536.4
1397.61
1281.74
1184.32
1100.09
1028.12
964.195
908.678
858.877
814.33
774.836
738.138
706.019
675.668
648.555
623.725
600.188
579.83
559.604
542.34
525.798
510.742
498
485.387
476.016
467.104
461.042
457.111
455.789
458.302
464.016
474.197
488.762
507.691
531.185
558.508
589.086
622.37
656.961
693.052
729.049
764.548
798.515
830.626
860.291
887.13
910.864
931.349
948.381
962.426
973.324
982.327
989.324
994.73
998.74
1001.45
1003.08
1003.69
1003.41
1002.34
1000.55
998.175
995.291
991.975
988.476
984.708
981.13
977.665
974.306
970.97
967.613
964.249
960.882
957.54
954.201
950.865
947.554
944.294
941.098
937.997
934.98
932.125
929.324
926.73
924.07
921.369
918.675
915.959
913.225
910.498
907.729
905.028
902.341
899.789
897.336
895.2
2550.76
2190.44
1918.86
1706.84
1537.41
1398.61
1283.12
1185.82
1101.91
1030.46
966.677
912.242
862.529
819.589
780.607
745.833
715.362
687.393
663.911
642.782
625.277
611.551
600.491
594.827
592.734
597.905
608.539
626.859
653.125
686.522
727.48
773.104
823.387
875.701
929.641
982.198
1032.44
1078.44
1119.75
1154.67
1183.98
1206.66
1224.98
1239.36
1250.13
1257.86
1262.77
1265.22
1265.46
1263.75
1260.37
1255.59
1249.72
1243.17
1236.2
1229.69
1223.36
1217.29
1211.36
1205.53
1199.75
1194.04
1188.39
1182.83
1177.38
1172.09
1166.95
1162.1
1157.39
1153.1
1148.7
1144.29
1139.84
1135.4
1130.95
1126.54
1122.21
1117.98
1113.84
1109.79
1105.84
1102.01
1098.28
1094.69
1091.21
1087.88
1084.66
1081.56
1078.58
1075.69
1072.89
1070.16
1067.48
1064.86
1062.26
1059.77
1057.35
1055.09
1053.01
1051.35
2551.17
2191.54
1920.55
1709.08
1540.64
1402.77
1289.54
1194.35
1114.14
1046.59
987.928
940.46
898.817
867.33
841.149
824.653
815
817.312
830.046
854.466
890.311
937.873
994.864
1061.07
1132.6
1209.35
1286.49
1363.02
1433.01
1493.96
1543.49
1581.57
1611.01
1632.99
1648.26
1657.31
1661.13
1659.95
1654.74
1645.66
1634.32
1620.75
1608
1595.97
1584.47
1573.3
1562.39
1551.64
1541.11
1530.84
1520.93
1511.48
1502.6
1494.29
1486.52
1478.66
1470.95
1463.4
1456.01
1448.84
1441.82
1435.05
1428.42
1422.02
1415.8
1409.8
1403.99
1398.46
1393.12
1388.11
1383.28
1378.66
1374.17
1369.86
1365.68
1361.66
1357.79
1354.06
1350.48
1347.05
1343.73
1340.54
1337.47
1334.52
1331.7
1328.98
1326.37
1323.84
1321.41
1319.07
1316.8
1314.6
1312.48
1310.4
1308.38
1306.44
1304.64
1302.99
1301.61
1300.77
2552.74
2195.18
1927.1
1721.79
1563.17
1442.63
1354.35
1285.92
1243.33
1212.53
1204.45
1219.92
1257.13
1316.55
1395.72
1492.18
1600.78
1715.82
1832.71
1944.59
2047.58
2134.28
2203.85
2254.8
2291.53
2315.72
2329.77
2331.94
2323.45
2304.34
2277.84
2246.85
2218.63
2193.54
2170.31
2148.43
2127.5
2107.36
2088.17
2070.14
2053.36
2038.04
2022.98
2008.02
1993.6
1979.76
1966.63
1954.11
1942.26
1930.99
1920.32
1910.24
1900.73
1891.78
1883.41
1875.54
1868.12
1861.11
1854.46
1848.16
1842.12
1836.4
1830.87
1825.61
1820.53
1815.65
1810.98
1806.52
1802.26
1798.22
1794.33
1790.64
1787.1
1783.69
1780.47
1777.4
1774.47
1771.69
1769.07
1766.58
1764.22
1761.97
1759.86
1757.83
1755.92
1754.08
1752.33
1750.63
1749
1747.41
1745.89
1744.4
1742.98
1741.58
1740.27
1739
1737.89
1737
1736.46
1736.64
2556.95
2211.41
2002.18
1894.84
1875.51
1959.25
2066.4
2207.2
2362.45
2500.37
2658.16
2832.64
3015.62
3190.89
3348.86
3479.31
3580.86
3649.66
3688.51
3696.06
3676.08
3627.39
3558.59
3478.1
3403.22
3341.24
3288.32
3239.86
3195.14
3154.17
3117.31
3084.1
3052.12
3021.54
2992.87
2966.16
2941.11
2917.76
2895.87
2875.52
2856.56
2839.02
2822.83
2807.69
2793.84
2781.03
2769.22
2758.21
2747.98
2738.41
2729.45
2721.06
2713.18
2705.82
2698.91
2692.49
2686.48
2680.84
2675.57
2670.63
2665.99
2661.65
2657.52
2653.64
2649.94
2646.43
2643.13
2639.97
2637.02
2634.17
2631.49
2628.89
2626.36
2623.91
2621.59
2619.36
2617.24
2615.27
2613.44
2611.72
2610.13
2608.65
2607.29
2606.02
2604.85
2603.73
2602.7
2601.68
2600.73
2599.8
2598.92
2598.07
2597.27
2596.53
2595.8
2595.26
2594.75
2594.67
2595.02
2596.52
2508.37
2665.11
3511.62
4424.91
5100.83
5522.86
5790.74
5943.8
6009.66
6036.69
6165.32
6318.02
6450.71
6536.45
6572.63
6559.12
6508.74
6428.26
6330.7
6222.57
6112.2
6005.8
5906.27
5814.13
5726.76
5644.45
5567.01
5496.8
5432.53
5374.33
5321.54
5273.57
5230.26
5191.13
5155.84
5124.27
5095.78
5070.34
5047.2
5026.4
5007.4
4990.25
4974.56
4960.35
4947.2
4934.92
4923.46
4912.69
4902.64
4893.18
4884.33
4876.03
4868.24
4860.99
4854.19
4847.89
4842.02
4836.52
4831.43
4826.67
4822.27
4818.14
4814.3
4810.68
4807.29
4804.14
4801.2
4798.44
4795.88
4793.42
4791.15
4788.95
4786.85
4784.88
4783.01
4781.21
4779.57
4778.09
4776.77
4775.58
4774.52
4773.58
4772.77
4772.05
4771.43
4770.88
4770.38
4769.92
4769.51
4769.14
4768.81
4768.58
4768.37
4768.3
4768.16
4768.47
4768.46
4769.57
4770.8
4773.78
6769.94
9485.12
11871.8
13280.1
13857.4
13918.8
13700.3
13354.3
12989.2
12654.4
12355.5
12108.8
11918.1
11784.9
11699.5
11655.6
11638.4
11640.8
11651.3
11666.1
11679.6
11691.2
11700.3
11707.1
11713
11718.5
11723.5
11728.4
11732.8
11737
11740.6
11743.4
11745.3
11746.2
11746.1
11745.3
11743.7
11741.9
11739.5
11737
11734.2
11731.4
11728.6
11725.9
11723.4
11721.1
11719
11717.1
11715.4
11713.8
11712.4
11711.1
11709.9
11708.8
11707.9
11707.1
11706.5
11706
11705.8
11705.8
11705.9
11706.3
11706.8
11707.6
11708.5
11709.6
11710.9
11712.4
11713.9
11715.6
11717.4
11719.3
11721.4
11723.6
11726
11728.5
11731.3
11734.1
11737.1
11740.1
11743.3
11746.5
11749.8
11753
11756.4
11759.6
11763.1
11766.4
11769.9
11773.4
11777
11780.6
11784.4
11788.1
11792.1
11796.1
11800
11803.8
11806.5
11807.3
10965.8
6798.43
4856.33
3903.75
3330.67
2956.83
2687.38
2484.04
2319.64
2183.2
2067.04
1965.5
1875.1
1793.82
1719.87
1651.6
1587.92
1527.63
1469.99
1414.75
1361.77
1310.74
1261.6
1214.38
1168.91
1125.11
1083.05
1042.73
1004.03
966.88
931.454
897.284
864.74
833.844
804.55
776.69
750.099
724.631
700.078
676.306
653.218
630.57
608.31
586.892
566.846
547.948
529.725
512.484
496.598
481.37
466.197
451.932
439.636
428.705
418.308
409.625
404.085
399.535
391.987
381.502
373.863
374.717
383.73
394.556
400.492
399.167
392.81
384.3
375.209
366.034
357.065
348.332
340.185
332.752
326.294
320.69
316.043
312.065
308.906
306.194
303.827
300.971
297.455
292.303
285.756
276.805
266.625
253.993
241.134
226.024
211.968
196.209
182.862
168.921
157.2
144.643
133.116
122.122
114.57
106.246
2655.01
5031.52
4712.25
3975.4
3404.53
3000.73
2705.34
2482.08
2303.08
2157.33
2035.68
1930.94
1839.79
1759.63
1687.86
1622.46
1561.73
1504.62
1450.33
1398.42
1348.63
1300.57
1254.01
1209.03
1165.4
1123.02
1081.99
1042.31
1004.01
966.875
931.227
896.47
863.394
831.99
802.146
773.632
746.252
719.88
694.338
669.51
645.327
621.662
598.584
576.614
556.335
537.506
519.571
502.795
487.569
473.159
458.887
445.654
434.713
425.512
416.908
409.731
405.364
401.724
394.506
383.146
373.068
370.325
375.646
383.809
388.617
387.479
381.902
374.283
365.945
357.344
348.81
340.49
332.735
325.711
319.563
314.158
309.555
305.569
302.305
299.498
297.002
294.104
290.538
285.471
278.967
270.178
259.952
247.368
234.256
219.186
204.906
189.389
175.794
161.826
149.261
136.664
125.179
115.63
108.945
102.79
2105.05
2659.44
3533.76
3584.65
3281.76
2949.37
2671.71
2448.57
2266.1
2116.06
1991.2
1884.77
1793.53
1714.5
1644.62
1581.72
1523.57
1469.61
1418.82
1370.45
1324.15
1279.37
1235.82
1193.52
1152.29
1112
1072.73
1034.4
997.185
960.804
925.623
891.04
857.901
826.294
796.111
767.095
739.036
711.838
685.363
659.528
634.318
609.772
586.103
563.893
543.757
525.433
508.265
492.45
478.384
465.322
452.553
441.006
432.092
425.293
419.108
413.895
410.87
408.048
400.924
388.364
375.443
368.607
369.613
374.42
377.434
375.943
370.797
363.861
356.172
348.109
340.023
332.191
324.954
318.484
312.794
307.71
303.242
299.307
295.982
293.083
290.441
287.45
283.796
278.746
272.249
263.542
253.261
240.647
227.293
212.125
197.576
182.074
168.188
154.131
141.212
129.164
118.637
110.792
105.28
100.776
1703.64
1590.69
1954.86
2432.03
2649.44
2615.66
2474.95
2313.57
2162.94
2030.08
1915.56
1816.82
1731.08
1656.29
1590.07
1530.68
1475.84
1425.2
1377.82
1332.83
1289.86
1248.21
1207.6
1168.01
1129.33
1091.44
1054.41
1017.97
982.394
947.469
913.47
880.024
847.463
816.014
785.735
756.402
727.817
699.912
672.614
645.901
619.858
594.747
570.938
549.061
529.73
512.625
496.969
482.859
470.67
459.677
449.191
440.151
434.036
430.31
427.068
424.074
422.28
419.906
412.459
398.316
382.165
370.793
366.883
367.576
367.995
365.44
360.217
353.633
346.398
338.786
331.137
323.868
317.309
311.582
306.54
301.937
297.736
293.944
290.628
287.662
284.867
281.73
277.94
272.824
266.268
257.533
247.139
234.385
220.735
205.292
190.32
174.566
160.268
146.176
133.544
122.716
113.678
107.453
103.025
99.6237
1295.13
1256.09
1274.63
1399.69
1612.89
1800.24
1896.1
1909.34
1873.13
1814.24
1748.13
1683.28
1621.68
1564.29
1510.71
1461.04
1414.23
1369.55
1327.01
1286.1
1246.73
1208.36
1170.78
1133.97
1097.93
1062.59
1027.98
993.707
960.038
926.917
894.466
862.653
831.2
800.314
770.235
740.822
711.948
683.536
655.626
628.316
601.874
576.841
553.74
533.209
515.803
501.069
488.05
476.692
467.319
459.256
451.889
446.134
443.431
443.132
442.863
441.739
440.492
437.798
429.471
413.495
393.986
377.867
368.639
364.574
361.626
357.242
351.305
344.612
337.529
330.212
322.966
316.33
310.633
305.885
301.727
297.813
294.044
290.521
287.311
284.33
281.39
278.071
274.09
268.826
262.128
253.249
242.646
229.633
215.59
199.699
184.09
167.818
153.026
139.116
127.253
117.891
110.319
105.354
101.795
99.0292
1032.24
1032.83
1024.42
1024.3
1047.34
1096.97
1162.7
1231.83
1290.2
1333.22
1359.36
1372.44
1374.8
1368.17
1353.71
1333.48
1309.28
1281.38
1251.32
1219.75
1187.31
1154.66
1121.8
1088.87
1056.19
1023.74
991.646
959.827
928.313
897.196
866.471
836.388
806.54
776.768
747.346
718.24
689.459
660.862
632.756
605.476
579.608
556.007
535.298
518.061
504.624
494.234
485.613
478.461
473.033
468.783
465.215
463.188
464.009
466.81
468.673
468.165
466.109
461.95
452.083
434.182
411.51
390.753
376.048
366.729
359.695
352.698
345.322
337.963
330.653
323.443
316.582
310.703
306.103
302.653
299.689
296.737
293.612
290.519
287.529
284.61
281.54
278.01
273.765
268.27
261.333
252.211
241.281
227.916
213.424
197.056
180.74
163.88
148.629
134.946
123.751
115.406
108.848
104.551
101.563
98.9803
875.651
877.049
872.814
862.471
849.455
838.737
830.697
827.409
830.462
842.249
862.804
891.825
927.709
966.749
1004.98
1038.16
1064.41
1080.9
1087.62
1084.92
1074.4
1058.18
1037.77
1014.38
989.215
962.727
935.347
907.777
879.905
851.941
823.84
796.029
768.363
740.295
712.184
684.195
656.523
628.731
601.841
576.571
553.868
534.792
519.942
509.543
503.324
499.964
497.749
496.076
495.225
494.946
494.923
496.036
499.41
503.796
505.724
503.653
498.989
492.094
480.07
460.376
435.128
410.245
390.174
375.363
363.695
353.398
343.885
335.271
327.318
320.028
313.583
308.688
305.527
303.806
302.45
300.816
298.582
296.106
293.455
290.709
287.546
283.82
279.252
273.507
266.265
256.904
245.572
231.89
217.043
200.605
184.074
167.07
151.515
137.55
126.084
117.382
110.81
106.066
103.161
100.021
760.279
761.222
758.744
750.856
737.654
720.945
701.793
681.017
659.978
639.766
621.258
606.536
597.364
595.063
602.346
619.113
645.459
679.226
717.163
754.618
788.553
814.156
831.375
840.195
841.616
836.703
826.535
812.688
795.946
777.102
756.459
734.869
712.824
689.111
664.397
639.161
613.165
588.978
567.298
548.884
534.637
525.411
521.386
521.947
525.814
530.944
535.296
538.305
540.586
542.415
543.776
545.765
549.171
552.085
550.756
544.442
535.433
524.828
510.386
489.52
463.022
435.362
410.831
390.978
374.711
360.856
348.795
338.503
329.572
322.09
316.2
312.683
311.477
312.06
312.804
312.871
311.721
309.994
307.733
305.274
302.069
298.256
293.365
287.512
279.991
270.629
258.936
245.232
230.231
214.714
199.47
183.883
168.759
154.086
141.318
130.107
121.867
114.32
110.536
104.854
653.323
652.542
649.349
641.432
628.545
611.275
590.898
568.616
546.096
524.689
505.526
489.256
476.907
468.437
463.894
462.946
464.707
469.967
477.675
489.629
504.138
523.842
547.001
571.557
595.197
616.28
633.346
645.327
652.057
653.68
650.139
642.96
630.778
616.511
601.959
587.194
572.073
559.423
550.368
545.676
545.867
551.166
560.793
572.89
585.191
595.506
602.518
606.464
608.33
608.8
608.204
607.838
607.699
604.912
596.503
583.516
569.03
554.456
538.047
517.247
491.47
463.261
436.175
412.605
392.493
375.451
360.964
348.996
339.118
331.674
326.83
325.454
327.053
330.712
334.015
335.969
335.813
334.743
332.729
330.584
327.331
323.632
318.469
312.838
305.114
296.261
284.296
271.247
256.115
242.476
229.628
217.846
205.339
191.962
180.129
166.382
156.871
143.233
137.803
124.605
456.416
460.674
463.488
463.835
461.257
457.242
453.246
451.184
452.538
458.163
468.071
481.627
497.847
515.07
531.474
546.248
558.453
568.209
576.031
581.423
585.454
587.259
588.431
589.57
590.785
592.137
593.798
595.288
596.752
597.771
597.729
597.025
594.515
591.12
588.001
585.776
584.888
586.513
591.682
600.779
613.786
630.12
647.928
664.553
677.56
685.833
689.696
690.168
688.118
683.971
678.179
671.75
663.329
649.807
631.279
610.896
591.697
574.59
557.938
539.091
516.238
490.111
463.079
437.855
415.406
396.298
380.221
367.28
357.203
350.759
348.208
350.415
356.081
363.536
369.387
372.689
372.798
371.815
369.572
367.537
364.124
360.74
355.419
350.423
342.654
335.025
323.068
311.825
296.701
285.247
272.654
265.033
257.108
249.47
243.846
232.627
228.19
211.267
208.041
186.611
488.511
492.81
497.828
504.883
514.898
528.346
545.159
564.716
585.592
606.803
627.132
645.239
660.137
671.926
680.887
687.368
691.83
695.046
697.014
698.294
698.675
699.108
698.876
698.095
696.862
695.068
692.92
690.421
687.694
684.817
681.802
678.972
676.416
674.452
673.651
674.585
677.783
683.88
693.357
706.243
722.197
740.176
757.621
770.855
777.529
778.107
774.147
766.928
757.043
744.708
730.162
713.207
692.466
667.911
642.438
619.108
599.341
583.054
568.527
553.148
534.508
512.183
487.438
462.836
440.181
420.907
404.966
392.733
384.284
380.892
382.937
390.757
401.631
412.621
419.584
422.264
421.022
418.858
415.588
413.06
409.344
406.205
401.075
396.908
389.774
383.825
373.432
365.286
352.043
343.208
330.457
325.114
318.386
316.16
314.112
310.423
310.558
302.709
302.746
290.839
674.293
673.643
674.425
677.941
684.592
693.877
705.143
717.383
729.938
742.223
753.694
763.99
772.989
780.671
787.218
792.514
797.08
800.64
803.178
805.053
806.26
806.893
807.036
806.715
805.911
804.482
802.556
800.245
797.423
794.229
790.828
787.493
784.472
782.157
781.022
781.588
784.438
790.2
799.37
811.94
827.017
842.262
853.397
856.474
851.19
839.802
824.745
807.289
787.768
766.464
743.38
717.856
690.316
663.04
638.334
617.62
600.881
587.588
576.033
563.911
548.892
530.126
508.258
485.675
464.754
447.43
433.906
424.751
420.536
422.967
432.257
447.137
462.895
475.151
480.193
479.467
475.046
470.306
465.308
461.55
457.428
454.204
449.73
446.312
440.951
436.418
428.834
422.808
413.072
406.338
396.335
391.226
384.251
383.227
381.234
382.612
382.997
384.088
384.308
384.209
778.006
776.895
777.268
780.143
785.882
794.157
804.674
816.781
830.119
843.548
856.53
868.592
879.51
889.191
897.543
904.634
910.559
915.417
919.144
921.956
923.698
924.411
924.214
923.001
920.735
917.493
913.435
908.677
903.296
897.543
891.642
885.786
880.359
875.863
872.825
871.847
873.7
879.112
888.304
900.513
913.066
921.129
919.73
907.98
888.831
865.905
841.645
816.815
791.266
764.993
737.923
710.01
682.627
658.126
637.759
621.488
608.66
598.466
589.266
579.16
566.245
549.756
530.245
510.185
492.431
479.072
470.362
466.872
469.729
480.843
499.366
521.186
539.46
549.297
549.19
542.977
534.188
526.098
518.95
513.545
508.758
505.284
501.515
498.507
494.163
490
483.652
478.142
470.507
465.565
459.143
457.044
453.678
454.661
454.068
456.19
457.149
458.952
459.612
460.951
893.578
892.634
893.276
896.723
903.432
913.286
925.85
940.636
956.799
973.738
990.442
1006.42
1021.21
1034.45
1045.87
1055.34
1062.79
1068.2
1071.54
1072.91
1072.16
1069.54
1065.11
1058.8
1050.8
1041.55
1031.3
1020.23
1008.82
997.517
986.543
976.253
967.231
960.066
955.34
953.763
956.146
962.836
972.846
983.375
989.359
985.093
968.891
943.818
914.162
883.483
853.491
824.446
795.966
767.775
739.802
712.793
688.59
668.762
653.372
641.543
632.256
624.453
616.613
607.229
594.949
579.425
561.609
544.474
531.404
524.372
523.304
528.554
541.765
564.45
593.033
619.669
636.269
639.518
631.785
618.971
605.332
593.681
584.168
576.932
571.081
566.985
563.218
559.717
555.042
550.598
544.92
540.388
535.062
532.591
529.527
530.513
530.349
533.963
535.392
538.831
540.159
541.547
542.199
542.408
1050.33
1050.16
1051.94
1057.28
1066.97
1080.95
1098.81
1119.82
1142.92
1167
1190.66
1212.91
1232.86
1249.68
1262.9
1272.19
1277.56
1278.91
1276.59
1270.68
1261.57
1249.78
1235.56
1219.28
1201.58
1183.2
1164.37
1145.48
1127.25
1110.13
1094.28
1080.17
1068.54
1060.03
1055.26
1054.91
1059.41
1067.95
1077.34
1082.21
1076.41
1056.93
1026.88
991.311
954.257
918.327
884.538
852.869
822.872
794.115
766.794
742.21
722.14
707.273
696.598
688.705
682.225
675.989
668.627
658.946
646.153
630.613
614.214
600.965
594.919
597.607
608.053
626.068
653.518
690.044
727.213
753.912
763.222
756.221
739.503
719.878
701.54
686.566
674.745
665.638
658.368
653.056
648.489
644.354
639.885
636.208
632.258
629.742
627.102
627.039
626.637
629.61
630.99
635.408
636.684
640.056
639.998
641.317
640.581
640.784
1300.78
1301.86
1305.5
1314.02
1328.72
1349.64
1376.15
1406.91
1440.24
1473.76
1505.55
1533.31
1555.63
1571.19
1579.79
1581.18
1575.93
1564.43
1547.83
1526.74
1502.49
1475.86
1447.72
1418.81
1390
1361.92
1334.7
1308.94
1285.27
1263.81
1244.71
1228.55
1216.21
1208.34
1205.41
1207.75
1214.72
1223.43
1228.15
1221.81
1199.9
1164.57
1122.07
1077.82
1034.96
995.012
958.474
925.084
894.278
865.655
839.657
818.064
802.299
792.156
785.787
781.209
776.827
771.507
764.041
753.426
739.371
723.354
709.01
702.129
707.514
725.635
753.552
789.854
835.731
885.992
926.394
945.46
941.403
921.829
895.833
869.93
847.551
829.872
816.154
805.485
796.911
790.377
785.277
781.561
778.65
777.007
775.629
775.508
775.331
777.069
778.231
781.799
783.24
787.128
787.261
790.084
788.282
790.096
787.488
789.222
1737.99
1740.75
1747.05
1760.62
1783.45
1815.43
1854.65
1898.51
1943.17
1984.62
2019.65
2044.63
2058.12
2059.38
2049.24
2028.66
1999.52
1963.7
1923.37
1880.11
1835.72
1791.38
1747.97
1706.18
1666.73
1629.89
1595.71
1564.89
1537.58
1513.49
1492.94
1476.65
1465.52
1460.04
1460.18
1465.19
1472.45
1476.67
1470.29
1446.62
1405.83
1354.87
1300.87
1248.71
1200.56
1157.17
1118.56
1084.16
1053.15
1024.89
1000.39
981.854
970.341
964.692
962.214
960.439
957.678
952.973
945.315
933.728
918.313
902.385
892.954
898.761
924.774
968.733
1023.37
1084.95
1151.58
1209.55
1242.09
1243.22
1220.79
1187.76
1153.14
1122.13
1096.87
1077.55
1062.86
1051.56
1042.71
1036.26
1031.94
1029.94
1029.52
1030.44
1031.6
1033.49
1035.08
1037.76
1039.51
1042.67
1043.47
1046.3
1045.2
1047.62
1044.42