/*--------------------------------*- C++ -*----------------------------------*\
| =========                 |                                                 |
| \\      /  F ield         | OpenFOAM: The Open Source CFD Toolbox           |
|  \\    /   O peration     | Version:  v2012                                 |
|   \\  /    A nd           | Website:  www.openfoam.com                      |
|    \\/     M anipulation  |                                                 |
\*---------------------------------------------------------------------------*/
FoamFile
{
    version     2.0;
    format      ascii;
    class       Cloud<basicKinematicParcel>;
    location    "0.033/lagrangian/kinematicCloud";
    object      coordinates;
}
// * * * * * * * * * * * * * * * * * * * * * * * * * * * * * * * * * * * * * //

36
(
(0.102561 0.44872 0.232208 0.216512) 322 445 1
(0.762101 0.0431738 0.0757755 0.118949) 821 1642 1
(0.0887627 0.455619 0.200569 0.25505) 1121 2240 2
(0.152077 0.423961 0.211152 0.212809) 520 1041 1
(0.38051 0.266586 0.0431591 0.309745) 1419 2639 2
(0.258211 0.370895 0.34389 0.0270044) 1118 2236 2
(0.101201 0.416607 0.0327925 0.4494) 16 32 1
(0.695763 0.152119 0.0994275 0.0526911) 1617 3035 1
(0.321603 0.165699 0.1735 0.339199) 1616 3033 2
(0.0327327 0.483634 0.418733 0.0649006) 715 1430 2
(0.30262 0.0299645 0.34869 0.318725) 815 1631 2
(0.0493045 0.475348 0.358677 0.11667) 415 831 1
(0.186158 0.406921 0.287311 0.11961) 1814 3629 1
(0.107953 0.446023 0.360159 0.085864) 113 27 1
(0.348952 0.288736 0.0367886 0.325524) 1812 3624 1
(0.261909 0.257924 0.369045 0.111122) 912 1822 1
(0.00803823 0.495981 0.0139319 0.482049) 211 423 1
(0.205287 0.210324 0.187032 0.397356) 1810 3421 2
(0.10175 0.449125 0.241049 0.208076) 509 1018 2
(0.15038 0.42481 0.145309 0.279501) 1609 3218 2
(0.310651 0.344675 0.195785 0.148889) 1309 2616 2
(0.674854 0.162573 0.051443 0.11113) 1708 3417 1
(0.696156 0.0119043 0.151922 0.140018) 1307 2615 2
(0.356557 0.321721 0.133011 0.18871) 406 812 2
(0.433164 0.0971104 0.186308 0.283418) 806 1413 2
(0.0207433 0.489628 0.346167 0.143461) 1305 2610 2
(0.489724 0.255138 0.054749 0.200389) 305 608 2
(0.259658 0.370171 0.248699 0.121472) 1405 2811 1
(0.777346 0.111327 0.0452216 0.0661054) 104 208 2
(0.664432 0.167784 0.13896 0.0288242) 1504 2809 1
(0.129545 0.295649 0.139578 0.435227) 3 22223 1
(0.0665331 0.466733 0.202963 0.26377) 202 404 2
(0.31826 0.34087 0.213117 0.127753) 1902 3801 2
(0.805856 0.0970718 0.0936899 0.00338187) 1001 2003 1
(0.312034 0.343983 0.165059 0.178924) 501 1003 1
(0.209223 0.105033 0.395389 0.290356) 1200 2401 2
)


// ************************************************************************* //
