/*--------------------------------*- C++ -*----------------------------------*\
| =========                 |                                                 |
| \\      /  F ield         | OpenFOAM: The Open Source CFD Toolbox           |
|  \\    /   O peration     | Version:  v2012                                 |
|   \\  /    A nd           | Website:  www.openfoam.com                      |
|    \\/     M anipulation  |                                                 |
\*---------------------------------------------------------------------------*/
FoamFile
{
    version     2.0;
    format      ascii;
    class       Cloud<basicKinematicParcel>;
    location    "0.033/lagrangian/kinematicCloud";
    object      positions;
}
// * * * * * * * * * * * * * * * * * * * * * * * * * * * * * * * * * * * * * //

36
(
(0.0546751 0.00278733 0.03) 18
(0.0514636 0.00956086 0.03) 37
(0.0491787 0.0152157 0.03) 57
(0.0457616 0.0055864 0.03) 26
(0.0424232 0.0207915 0.03) 76
(0.0396947 0.0174062 0.03) 65
(0.0254195 0.00130787 0.03) 3
(0.0340019 0.022412 0.03) 85
(0.031057 0.0234788 0.03) 84
(0.0288196 0.00914309 0.03) 34
(0.0278892 0.00842699 0.03) 34
(0.0257029 0.00520417 0.03) 13
(0.00547276 0.0265752 0.03) 90
(0.00459981 5.9493e-05 0.03) 0
(0.0123536 0.0255661 0.03) 91
(0.0168399 0.0123124 0.03) 42
(0.0156544 0.00259498 0.03) 2
(0.0135632 0.0243769 0.03) 92
(0.0119983 0.00458986 0.03) 11
(0.012072 0.0219964 0.03) 81
(0.0102024 0.0195204 0.03) 71
(0.00610613 0.0258425 0.03) 90
(0.00747059 0.0204442 0.03) 71
(0.0058988 0.00348466 0.03) 10
(0.00527021 0.008585 0.03) 30
(0.00436592 0.0203997 0.03) 70
(0.0035474 0.00384689 0.03) 10
(0.00387953 0.0216979 0.03) 80
(0.00300296 0.00114468 0.03) 0
(0.00296696 0.0231354 0.03) 80
(0.00146746 0.00017185 0.03) 0
(0.00150878 0.00204342 0.03) 0
(0.0006707 0.0259316 0.03) 90
(0.000715189 0.0149442 0.03) 50
(0.00057324 0.0057568 0.03) 20
(0.00111588 0.0184107 0.03) 60
)


// ************************************************************************* //
