/*--------------------------------*- C++ -*----------------------------------*\
| =========                 |                                                 |
| \\      /  F ield         | OpenFOAM: The Open Source CFD Toolbox           |
|  \\    /   O peration     | Version:  v2012                                 |
|   \\  /    A nd           | Website:  www.openfoam.com                      |
|    \\/     M anipulation  |                                                 |
\*---------------------------------------------------------------------------*/
FoamFile
{
    version     2.0;
    format      ascii;
    class       vectorField;
    location    "0.033/lagrangian/kinematicCloud";
    object      UCorrect;
}
// * * * * * * * * * * * * * * * * * * * * * * * * * * * * * * * * * * * * * //


36
(
(0 0 0)
(0 0 0)
(0 0 0)
(6.95208e-28 3.069e-30 0)
(0 0 0)
(0 0 0)
(2.03678e-26 8.97792e-30 0)
(0 0 0)
(0 0 0)
(6.38078e-28 -1.59893e-30 0)
(0 0 0)
(9.35554e-28 -9.59647e-30 0)
(8.3767e-27 -2.58666e-30 0)
(8.28053e-27 9.8474e-31 0)
(6.32871e-27 6.88056e-30 0)
(6.3903e-28 2.4803e-32 0)
(0 0 0)
(0 0 0)
(0 0 0)
(0 0 0)
(0 0 0)
(0 0 0)
(0 0 0)
(1.44869e-27 -4.06893e-29 0)
(0 0 0)
(1.23855e-27 2.78718e-29 0)
(0 0 0)
(1.4288e-27 4.30106e-29 0)
(0 0 0)
(0 0 0)
(0 0 0)
(2.21802e-31 -7.04341e-33 0)
(0 0 0)
(0 0 0)
(0 0 0)
(0 0 0)
)


// ************************************************************************* //
