/*--------------------------------*- C++ -*----------------------------------*\
| =========                 |                                                 |
| \\      /  F ield         | OpenFOAM: The Open Source CFD Toolbox           |
|  \\    /   O peration     | Version:  v2012                                 |
|   \\  /    A nd           | Website:  www.openfoam.com                      |
|    \\/     M anipulation  |                                                 |
\*---------------------------------------------------------------------------*/
FoamFile
{
    version     2.0;
    format      ascii;
    class       vectorField;
    location    "0.051/lagrangian/kinematicCloud";
    object      UCorrect;
}
// * * * * * * * * * * * * * * * * * * * * * * * * * * * * * * * * * * * * * //


54
(
(0 0 0)
(2.14725e-28 1.11005e-30 0)
(0 0 0)
(3.65673e-28 2.80928e-30 0)
(3.97035e-28 -2.26376e-30 0)
(0 0 0)
(8.5837e-27 1.39625e-30 0)
(0 0 0)
(0 0 0)
(0 0 0)
(0 0 0)
(0 0 0)
(7.04368e-27 -1.0015e-29 0)
(0 0 0)
(0 0 0)
(2.88672e-28 1.13309e-31 0)
(2.37641e-27 1.41819e-30 0)
(0 0 0)
(0 0 0)
(0 0 0)
(4.8373e-28 1.04536e-29 0)
(3.71267e-27 5.88231e-30 0)
(0 0 0)
(0 0 0)
(0 0 0)
(0 0 0)
(0 0 0)
(0 0 0)
(0 0 0)
(0 0 0)
(1.48386e-26 3.19276e-30 0)
(0 0 0)
(0 0 0)
(0 0 0)
(0 0 0)
(0 0 0)
(0 0 0)
(7.15712e-28 -5.28503e-30 0)
(8.21395e-28 1.50412e-29 0)
(0 0 0)
(9.83797e-28 -1.53176e-29 0)
(0 0 0)
(2.38445e-31 -5.0116e-33 0)
(0 0 0)
(0 0 0)
(0 0 0)
(1.54122e-27 4.94058e-29 0)
(9.81102e-28 -1.08328e-30 0)
(0 0 0)
(1.58772e-27 4.01577e-29 0)
(2.25737e-27 -6.97959e-29 0)
(0 0 0)
(2.18978e-27 6.42177e-29 0)
(0 0 0)
)


// ************************************************************************* //
