/*--------------------------------*- C++ -*----------------------------------*\
| =========                 |                                                 |
| \\      /  F ield         | OpenFOAM: The Open Source CFD Toolbox           |
|  \\    /   O peration     | Version:  v2012                                 |
|   \\  /    A nd           | Website:  www.openfoam.com                      |
|    \\/     M anipulation  |                                                 |
\*---------------------------------------------------------------------------*/
FoamFile
{
    version     2.0;
    format      ascii;
    class       Cloud<basicKinematicParcel>;
    location    "0.046/lagrangian/kinematicCloud";
    object      positions;
}
// * * * * * * * * * * * * * * * * * * * * * * * * * * * * * * * * * * * * * //

49
(
(0.103656 0.00338273 0.03) 203
(0.101118 0.0101328 0.03) 403
(0.0976659 0.0155572 0.03) 603
(0.0921996 0.00600848 0.03) 302
(0.0881254 0.0209017 0.03) 802
(0.0840648 0.017539 0.03) 701
(0.052351 0.00131141 0.03) 7
(0.0758128 0.0224457 0.03) 900
(0.0714529 0.0234956 0.03) 900
(0.0677557 0.00919531 0.03) 400
(0.0667228 0.0084739 0.03) 39
(0.0632589 0.0052325 0.03) 19
(0.0101926 0.0265751 0.03) 91
(0.00927362 5.95209e-05 0.03) 1
(0.0309137 0.0255641 0.03) 94
(0.0489441 0.0123232 0.03) 47
(0.046269 0.00260001 0.03) 6
(0.0421773 0.0243747 0.03) 96
(0.0398509 0.00459626 0.03) 15
(0.0398425 0.0219941 0.03) 85
(0.0366471 0.0195182 0.03) 75
(0.0171222 0.0258415 0.03) 92
(0.0310362 0.0204414 0.03) 74
(0.028013 0.00348784 0.03) 14
(0.0272938 0.00858751 0.03) 34
(0.0250304 0.0203977 0.03) 73
(0.0227414 0.00384942 0.03) 13
(0.0229875 0.0216965 0.03) 83
(0.0143103 0.0011453 0.03) 2
(0.0205895 0.023134 0.03) 83
(0.00499189 0.000171912 0.03) 0
(0.0153012 0.0020441 0.03) 2
(0.00722598 0.0259314 0.03) 91
(0.0124639 0.014944 0.03) 51
(0.0122188 0.00575746 0.03) 21
(0.011486 0.0184105 0.03) 61
(0.00950142 0.010186 0.03) 31
(0.00898193 0.0102062 0.03) 31
(0.00727074 0.0186108 0.03) 61
(0.00306215 0.000634383 0.03) 0
(0.00595635 0.00711765 0.03) 20
(0.00441296 0.0174775 0.03) 60
(0.00334683 0.0035004 0.03) 10
(0.00344118 0.00531158 0.03) 10
(0.00258466 0.0079489 0.03) 20
(0.00209072 0.0162144 0.03) 60
(0.00141358 0.0222197 0.03) 80
(0.00144597 0.0120366 0.03) 40
(0.000888952 0.0105106 0.03) 30
)


// ************************************************************************* //
