/*--------------------------------*- C++ -*----------------------------------*\
| =========                 |                                                 |
| \\      /  F ield         | OpenFOAM: The Open Source CFD Toolbox           |
|  \\    /   O peration     | Version:  v2012                                 |
|   \\  /    A nd           | Website:  www.openfoam.com                      |
|    \\/     M anipulation  |                                                 |
\*---------------------------------------------------------------------------*/
FoamFile
{
    version     2.0;
    format      ascii;
    class       vectorField;
    location    "0.046/lagrangian/kinematicCloud";
    object      U;
}
// * * * * * * * * * * * * * * * * * * * * * * * * * * * * * * * * * * * * * //


49
(
(10.0745 0.000187188 0)
(10.2147 -0.00039662 0)
(10.2249 -0.000632866 0)
(10.2348 0.000730991 0)
(10.2404 -0.00181037 0)
(10.2461 -0.00113147 0)
(8.15593 -0.000132751 0)
(10.1828 -0.00398446 0)
(10.2053 -0.00449204 0)
(10.2666 0.001973 0)
(10.2656 0.000719242 0)
(10.2629 0.00405346 0)
(9.4862 -0.00403979 0)
(9.53435 0.00291753 0)
(9.78626 -0.00400562 0)
(10.285 4.89717e-05 0)
(10.2105 0.00513065 0)
(10.0357 -0.004875 0)
(10.2985 0.00425354 0)
(10.2771 -0.00597905 0)
(10.3041 -0.00385732 0)
(10.1851 -0.00590817 0)
(10.3142 -0.00396512 0)
(10.3147 0.00450877 0)
(10.3175 0.00144192 0)
(10.324 -0.00351784 0)
(10.3168 0.0047396 0)
(10.3307 -0.00445884 0)
(10.1308 0.00483788 0)
(10.3362 -0.00461374 0)
(7.50898 0.000137212 0)
(10.2992 0.00444012 0)
(9.84 -0.00464651 0)
(10.3615 -0.00075827 0)
(10.363 0.00264647 0)
(10.3695 -0.0023124 0)
(10.3759 0.00165074 0)
(10.3836 0.000982266 0)
(10.3915 -0.00191575 0)
(10.1868 0.00205312 0)
(10.4082 0.00145629 0)
(10.4165 -0.00128418 0)
(10.4258 0.00141051 0)
(10.4357 0.00134772 0)
(10.4452 0.000681733 0)
(10.4554 -0.000457215 0)
(10.4664 -0.000745824 0)
(10.4774 2.03048e-05 0)
(10.4892 3.66853e-05 0)
)


// ************************************************************************* //
