/*--------------------------------*- C++ -*----------------------------------*\
| =========                 |                                                 |
| \\      /  F ield         | OpenFOAM: The Open Source CFD Toolbox           |
|  \\    /   O peration     | Version:  v2012                                 |
|   \\  /    A nd           | Website:  www.openfoam.com                      |
|    \\/     M anipulation  |                                                 |
\*---------------------------------------------------------------------------*/
FoamFile
{
    version     2.0;
    format      ascii;
    class       vectorField;
    location    "0.046/lagrangian/kinematicCloud";
    object      UCorrect;
}
// * * * * * * * * * * * * * * * * * * * * * * * * * * * * * * * * * * * * * //


49
(
(0 0 0)
(-1.7626e-26 -2.04211e-27 0)
(0 0 0)
(0 0 0)
(-2.69788e-26 -3.88465e-28 0)
(-2.59223e-26 -8.15275e-28 0)
(-2.40294e-28 -7.58357e-30 0)
(0 0 0)
(0 0 0)
(0 0 0)
(0 0 0)
(0 0 0)
(4.98325e-30 2.39553e-33 0)
(-5.49619e-28 -3.89245e-29 0)
(0 0 0)
(0 0 0)
(-1.48208e-26 -1.36771e-27 0)
(0 0 0)
(0 0 0)
(0 0 0)
(0 0 0)
(0 0 0)
(0 0 0)
(0 0 0)
(-3.99846e-26 -6.35782e-28 0)
(-6.27778e-26 -2.95604e-28 0)
(0 0 0)
(0 0 0)
(0 0 0)
(0 0 0)
(0 0 0)
(0 0 0)
(-3.13069e-29 5.7548e-31 0)
(0 0 0)
(0 0 0)
(0 0 0)
(-9.05695e-28 3.1959e-29 0)
(0 0 0)
(-6.05307e-28 2.56431e-29 0)
(0 0 0)
(0 0 0)
(-2.67332e-28 9.56867e-30 0)
(0 0 0)
(0 0 0)
(0 0 0)
(0 0 0)
(0 0 0)
(0 0 0)
(-1.72619e-31 -2.9584e-35 0)
)


// ************************************************************************* //
