/*--------------------------------*- C++ -*----------------------------------*\
| =========                 |                                                 |
| \\      /  F ield         | OpenFOAM: The Open Source CFD Toolbox           |
|  \\    /   O peration     | Version:  v2012                                 |
|   \\  /    A nd           | Website:  www.openfoam.com                      |
|    \\/     M anipulation  |                                                 |
\*---------------------------------------------------------------------------*/
FoamFile
{
    version     2.0;
    format      ascii;
    class       volScalarField;
    location    "0.207";
    object      p;
}
// * * * * * * * * * * * * * * * * * * * * * * * * * * * * * * * * * * * * * //

dimensions      [0 2 -2 0 0 0 0];


internalField   nonuniform List<scalar> 
5600
(
-0.758314
-1.21656
-1.59706
-1.91582
-2.22609
-2.53672
-2.83779
-3.11979
-3.38294
-3.63241
-3.87004
-4.0938
-4.30878
-4.51513
-4.71449
-4.91181
-5.10233
-5.29321
-5.48048
-5.6651
-5.84867
-6.0273
-6.20678
-6.38132
-6.55728
-6.73097
-6.90273
-7.07469
-7.24475
-7.41586
-7.58422
-7.75404
-7.92218
-8.08971
-8.25747
-8.4234
-8.59001
-8.75493
-8.91999
-9.08434
-9.2478
-9.41112
-9.57311
-9.73537
-9.89599
-10.057
-10.2172
-10.377
-10.5361
-10.6948
-10.8532
-11.011
-11.1686
-11.3253
-11.4819
-11.6378
-11.7936
-11.949
-12.1036
-12.2582
-12.4121
-12.5655
-12.7185
-12.871
-13.0237
-13.1758
-13.328
-13.4793
-13.6303
-13.7812
-13.9312
-14.0815
-14.231
-14.3806
-14.5299
-14.6789
-14.828
-14.9766
-15.1251
-15.2731
-15.4208
-15.5683
-15.7151
-15.8621
-16.0089
-16.1558
-16.3025
-16.449
-16.5955
-16.7416
-16.8873
-17.0328
-17.1788
-17.3246
-17.4709
-17.6174
-17.7662
-17.9194
-18.075
-18.3089
-0.817345
-1.23673
-1.61372
-1.93359
-2.24408
-2.55507
-2.85602
-3.13835
-3.40177
-3.65135
-3.88918
-4.11326
-4.32856
-4.5353
-4.73498
-4.93266
-5.12344
-5.31456
-5.50204
-5.68669
-5.8705
-6.04919
-6.22879
-6.40341
-6.5795
-6.75337
-6.92514
-7.09726
-7.26738
-7.4386
-7.60703
-7.77693
-7.94509
-8.11264
-8.28046
-8.44639
-8.61306
-8.778
-8.94309
-9.10749
-9.27095
-9.43433
-9.59632
-9.75863
-9.91927
-10.0803
-10.2405
-10.4003
-10.5594
-10.7181
-10.8765
-11.0343
-11.192
-11.3486
-11.5052
-11.6611
-11.8169
-11.9723
-12.1268
-12.2814
-12.4354
-12.5887
-12.7417
-12.8941
-13.0469
-13.199
-13.3512
-13.5025
-13.6535
-13.8044
-13.9544
-14.1046
-14.2542
-14.4037
-14.553
-14.702
-14.8511
-14.9997
-15.1481
-15.2962
-15.4438
-15.5914
-15.7382
-15.8852
-16.032
-16.1789
-16.3256
-16.4722
-16.6184
-16.7648
-16.9102
-17.056
-17.2016
-17.348
-17.4933
-17.6415
-17.7874
-17.9445
-18.095
-18.3221
-0.855593
-1.24934
-1.62653
-1.9469
-2.2553
-2.5638
-2.86362
-3.14562
-3.40867
-3.65813
-3.89547
-4.11975
-4.3351
-4.54169
-4.74165
-4.93901
-5.13012
-5.32113
-5.50851
-5.69342
-5.87693
-6.05591
-6.23552
-6.4103
-6.58623
-6.76012
-6.93182
-7.10383
-7.27398
-7.44508
-7.61348
-7.78329
-7.95156
-8.11907
-8.28688
-8.45279
-8.61943
-8.78437
-8.94939
-9.11377
-9.27716
-9.44049
-9.60239
-9.76462
-9.92521
-10.0862
-10.2464
-10.4062
-10.5654
-10.7241
-10.8825
-11.0403
-11.1979
-11.3546
-11.5113
-11.6673
-11.8231
-11.9785
-12.1332
-12.2878
-12.4419
-12.5953
-12.7483
-12.9008
-13.0536
-13.2058
-13.358
-13.5094
-13.6604
-13.8113
-13.9613
-14.1116
-14.2612
-14.4107
-14.5601
-14.7091
-14.8582
-15.0069
-15.1553
-15.3035
-15.4511
-15.5987
-15.7454
-15.8925
-16.0393
-16.1862
-16.3329
-16.4795
-16.6258
-16.7722
-16.9176
-17.0634
-17.209
-17.3555
-17.5008
-17.649
-17.7953
-17.9529
-18.1026
-18.3221
-0.904346
-1.26578
-1.64195
-1.9637
-2.27087
-2.57846
-2.87858
-3.16131
-3.42488
-3.67476
-3.91263
-4.13693
-4.35277
-4.55945
-4.75972
-4.95664
-5.14799
-5.33844
-5.52564
-5.71034
-5.89341
-6.0727
-6.25195
-6.42709
-6.60304
-6.77713
-6.94934
-7.12157
-7.29206
-7.46329
-7.63197
-7.80181
-7.9702
-8.13771
-8.30559
-8.47162
-8.63831
-8.80339
-8.96848
-9.13301
-9.29652
-9.46001
-9.62211
-9.78453
-9.94529
-10.1063
-10.2666
-10.4264
-10.5857
-10.7444
-10.9029
-11.0607
-11.2185
-11.3752
-11.5318
-11.6877
-11.8434
-11.9989
-12.1533
-12.3079
-12.4618
-12.6151
-12.7681
-12.9204
-13.0732
-13.2253
-13.3775
-13.5288
-13.6797
-13.8306
-13.9806
-14.1308
-14.2804
-14.4298
-14.5793
-14.7282
-14.8773
-15.026
-15.1743
-15.3225
-15.4701
-15.6176
-15.7644
-15.9114
-16.0583
-16.2051
-16.3518
-16.4983
-16.6447
-16.7909
-16.9365
-17.0822
-17.228
-17.374
-17.5198
-17.6671
-17.8142
-17.9696
-18.1241
-18.3232
-0.954005
-1.28289
-1.65769
-1.98185
-2.2875
-2.59422
-2.89402
-3.1766
-3.44018
-3.68987
-3.92796
-4.152
-4.36812
-4.57483
-4.7756
-4.97236
-5.16418
-5.35459
-5.54183
-5.72696
-5.90962
-6.08941
-6.26809
-6.44357
-6.61903
-6.79292
-6.96514
-7.13692
-7.30752
-7.47827
-7.64719
-7.8168
-7.98533
-8.15292
-8.32075
-8.48694
-8.65346
-8.8187
-8.98366
-9.14814
-9.31164
-9.47498
-9.63701
-9.79927
-9.96004
-10.121
-10.2812
-10.441
-10.6002
-10.7588
-10.9173
-11.075
-11.2326
-11.3892
-11.5459
-11.702
-11.8577
-12.0132
-12.1679
-12.3225
-12.4765
-12.63
-12.7831
-12.9356
-13.0884
-13.2406
-13.3928
-13.5442
-13.6952
-13.8462
-13.9962
-14.1465
-14.2962
-14.4456
-14.5951
-14.7441
-14.8932
-15.0419
-15.1903
-15.3385
-15.4861
-15.6337
-15.7805
-15.9275
-16.0744
-16.2212
-16.368
-16.5145
-16.6609
-16.8071
-16.9528
-17.0984
-17.2443
-17.3903
-17.5361
-17.6834
-17.8302
-17.9853
-18.137
-18.3291
-1.00406
-1.30221
-1.67495
-2.00209
-2.30617
-2.61184
-2.91133
-3.19387
-3.45773
-3.70764
-3.94588
-4.17031
-4.38671
-4.59369
-4.79469
-4.99147
-5.18355
-5.37388
-5.56106
-5.74643
-5.92861
-6.10884
-6.28711
-6.46302
-6.63829
-6.81222
-6.98471
-7.15617
-7.32725
-7.49748
-7.66672
-7.83609
-8.00455
-8.17222
-8.33966
-8.50609
-8.67225
-8.83757
-9.00246
-9.16683
-9.33052
-9.49386
-9.65613
-9.81833
-9.97929
-10.1402
-10.3006
-10.4604
-10.6197
-10.7784
-10.9369
-11.0948
-11.2525
-11.4092
-11.5658
-11.7219
-11.8777
-12.0332
-12.1878
-12.3424
-12.4965
-12.6497
-12.8027
-12.9551
-13.1079
-13.2601
-13.4122
-13.5637
-13.7146
-13.8655
-14.0156
-14.1657
-14.3155
-14.4648
-14.6144
-14.7633
-14.9124
-15.0612
-15.2095
-15.3577
-15.5053
-15.6528
-15.7997
-15.9467
-16.0936
-16.2404
-16.3871
-16.5337
-16.6801
-16.8263
-16.972
-17.1176
-17.2634
-17.4095
-17.5552
-17.7023
-17.849
-18.0027
-18.1534
-18.3369
-1.05349
-1.32404
-1.69398
-2.02438
-2.32703
-2.63159
-2.93089
-3.21338
-3.4775
-3.72756
-3.96578
-4.19062
-4.40698
-4.61418
-4.81531
-5.01209
-5.20441
-5.39465
-5.58188
-5.76727
-5.94941
-6.12978
-6.30794
-6.48411
-6.65926
-6.83315
-7.00582
-7.17709
-7.34849
-7.5184
-7.68784
-7.85714
-8.02554
-8.19343
-8.36059
-8.52732
-8.69324
-8.85861
-9.02352
-9.18768
-9.35159
-9.51468
-9.6771
-9.839
-10
-10.1608
-10.3211
-10.4808
-10.64
-10.7988
-10.9572
-11.115
-11.2726
-11.4295
-11.5861
-11.7422
-11.898
-12.0535
-12.2081
-12.3627
-12.5167
-12.67
-12.8232
-12.9757
-13.1284
-13.2808
-13.4327
-13.5843
-13.7353
-13.8861
-14.0363
-14.1864
-14.3362
-14.4855
-14.6351
-14.7842
-14.9332
-15.082
-15.2303
-15.3784
-15.5262
-15.6736
-15.8206
-15.9675
-16.1145
-16.2613
-16.408
-16.5546
-16.701
-16.8472
-16.9929
-17.1386
-17.2844
-17.4304
-17.5761
-17.7229
-17.8695
-18.0216
-18.1707
-18.3449
-1.10046
-1.34855
-1.71536
-2.04884
-2.35033
-2.6538
-2.953
-3.23544
-3.49974
-3.74996
-3.98811
-4.21335
-4.42964
-4.63712
-4.83839
-5.03522
-5.22777
-5.41796
-5.60524
-5.79057
-5.97282
-6.15313
-6.3313
-6.50759
-6.68267
-6.85654
-7.02928
-7.20057
-7.37192
-7.54188
-7.71138
-7.88062
-8.04899
-8.217
-8.38405
-8.55083
-8.71673
-8.88214
-9.04705
-9.21117
-9.37524
-9.53807
-9.70067
-9.8624
-10.0236
-10.1843
-10.3447
-10.5043
-10.6635
-10.8223
-10.9806
-11.1385
-11.2959
-11.453
-11.6094
-11.7656
-11.9213
-12.0767
-12.2314
-12.3858
-12.5398
-12.6931
-12.8461
-12.9988
-13.1515
-13.3039
-13.4557
-13.6073
-13.7584
-13.9091
-14.0595
-14.2094
-14.3593
-14.5086
-14.6582
-14.8074
-14.9563
-15.1052
-15.2535
-15.4015
-15.5494
-15.6967
-15.8438
-15.9907
-16.1376
-16.2845
-16.4311
-16.5778
-16.7242
-16.8703
-17.0161
-17.1617
-17.3075
-17.4534
-17.5991
-17.7456
-17.8918
-18.0421
-18.1891
-18.3535
-1.14344
-1.37564
-1.73967
-2.07561
-2.37626
-2.67884
-2.978
-3.26036
-3.52478
-3.77515
-4.01324
-4.23883
-4.45504
-4.66276
-4.86411
-5.06096
-5.25367
-5.4438
-5.63113
-5.81635
-5.99874
-6.17894
-6.35716
-6.53351
-6.70858
-6.88244
-7.05518
-7.22657
-7.39779
-7.56788
-7.73738
-7.90656
-8.07497
-8.24294
-8.41002
-8.57678
-8.7427
-8.9081
-9.073
-9.23717
-9.40118
-9.564
-9.72662
-9.88834
-10.0496
-10.2103
-10.3706
-10.5302
-10.6894
-10.8483
-11.0066
-11.1645
-11.3218
-11.479
-11.6354
-11.7916
-11.9472
-12.1025
-12.2574
-12.4117
-12.5656
-12.719
-12.8719
-13.0247
-13.1772
-13.3298
-13.4815
-13.633
-13.7842
-13.9347
-14.0853
-14.2351
-14.3849
-14.5343
-14.6837
-14.833
-14.9818
-15.1307
-15.2791
-15.427
-15.5749
-15.7221
-15.8692
-16.0162
-16.1631
-16.31
-16.4566
-16.6032
-16.7497
-16.8958
-17.0416
-17.1873
-17.333
-17.4789
-17.6244
-17.7707
-17.9163
-18.0648
-18.209
-18.3627
-1.18062
-1.40484
-1.76749
-2.10487
-2.40503
-2.70711
-3.0063
-3.28855
-3.55303
-3.80355
-4.04156
-4.26738
-4.4835
-4.69137
-4.89277
-5.08961
-5.28247
-5.47254
-5.65993
-5.84506
-6.02756
-6.20768
-6.38592
-6.56234
-6.73738
-6.91124
-7.08393
-7.25542
-7.42655
-7.59674
-7.76624
-7.93535
-8.10382
-8.27173
-8.43887
-8.60558
-8.77154
-8.93694
-9.10181
-9.26605
-9.42997
-9.59285
-9.75542
-9.91717
-10.0784
-10.2391
-10.3994
-10.5591
-10.7183
-10.8771
-11.0354
-11.1933
-11.3507
-11.5078
-11.6643
-11.8204
-11.976
-12.1313
-12.2862
-12.4405
-12.5944
-12.7478
-12.9008
-13.0536
-13.2061
-13.3586
-13.5103
-13.6619
-13.8131
-13.9635
-14.1141
-14.2639
-14.4137
-14.5632
-14.7124
-14.8619
-15.0104
-15.1594
-15.3078
-15.4556
-15.6036
-15.7507
-15.8978
-16.0448
-16.1917
-16.3386
-16.4851
-16.6317
-16.7781
-16.9243
-17.0701
-17.2158
-17.3615
-17.5072
-17.6527
-17.7985
-17.9434
-18.0898
-18.2308
-18.3736
-1.20798
-1.43415
-1.7979
-2.13521
-2.43528
-2.73747
-3.03679
-3.31886
-3.58335
-3.83398
-4.07189
-4.29778
-4.51381
-4.72172
-4.92313
-5.11993
-5.31288
-5.50289
-5.69031
-5.87537
-6.05794
-6.238
-6.41621
-6.5927
-6.76769
-6.94156
-7.11418
-7.28575
-7.45684
-7.62706
-7.79658
-7.96563
-8.13416
-8.30201
-8.46921
-8.63589
-8.80185
-8.96728
-9.1321
-9.29642
-9.46028
-9.62317
-9.78571
-9.94749
-10.1087
-10.2694
-10.4297
-10.5895
-10.7486
-10.9074
-11.0657
-11.2236
-11.381
-11.5381
-11.6946
-11.8507
-12.0063
-12.1617
-12.3165
-12.4708
-12.6247
-12.7782
-12.9312
-13.0839
-13.2365
-13.3889
-13.5406
-13.6922
-13.8433
-13.994
-14.1444
-14.2942
-14.4441
-14.5935
-14.7428
-14.8921
-15.0407
-15.1896
-15.338
-15.4859
-15.6339
-15.781
-15.9282
-16.0752
-16.222
-16.3689
-16.5154
-16.6621
-16.8085
-16.9546
-17.1004
-17.2461
-17.3918
-17.5375
-17.6828
-17.8282
-17.9725
-18.1165
-18.2544
-18.3878
-1.22277
-1.4608
-1.82795
-2.16366
-2.46408
-2.76699
-3.06652
-3.34836
-3.6128
-3.86352
-4.10126
-4.32712
-4.54302
-4.75088
-4.95224
-5.14896
-5.34195
-5.53191
-5.71933
-5.90435
-6.08694
-6.26696
-6.44511
-6.62167
-6.79662
-6.9705
-7.14305
-7.31466
-7.48576
-7.65597
-7.82554
-7.99453
-8.16311
-8.33089
-8.49814
-8.66482
-8.83074
-8.99623
-9.16096
-9.32538
-9.48917
-9.65207
-9.8146
-9.97637
-10.1376
-10.2983
-10.4586
-10.6184
-10.7775
-10.9363
-11.0947
-11.2525
-11.4099
-11.567
-11.7236
-11.8796
-12.0353
-12.1906
-12.3453
-12.4998
-12.6536
-12.8071
-12.96
-13.1128
-13.2653
-13.4177
-13.5696
-13.721
-13.8722
-14.0229
-14.1733
-14.3233
-14.473
-14.6225
-14.7718
-14.9211
-15.0698
-15.2187
-15.3671
-15.5151
-15.663
-15.8103
-15.9574
-16.1044
-16.2512
-16.398
-16.5447
-16.6913
-16.8378
-16.984
-17.1299
-17.2756
-17.4212
-17.5668
-17.712
-17.857
-18.0007
-18.1428
-18.2779
-18.404
-1.22649
-1.48437
-1.85598
-2.189
-2.49015
-2.79415
-3.09395
-3.3755
-3.63988
-3.89066
-4.12822
-4.35396
-4.5697
-4.77743
-4.9787
-5.17532
-5.36833
-5.55823
-5.74564
-5.93064
-6.11324
-6.29321
-6.47128
-6.6479
-6.8228
-6.99667
-7.16917
-7.34078
-7.51192
-7.68208
-7.8517
-8.02063
-8.18926
-8.357
-8.52428
-8.69096
-8.85687
-9.02239
-9.18708
-9.35158
-9.5153
-9.67822
-9.84074
-10.0025
-10.1638
-10.3245
-10.4847
-10.6445
-10.8036
-10.9624
-11.1207
-11.2786
-11.4361
-11.5932
-11.7496
-11.9058
-12.0614
-12.2167
-12.3716
-12.5259
-12.6799
-12.8334
-12.9864
-13.1392
-13.2916
-13.444
-13.5959
-13.7474
-13.8987
-14.0493
-14.1999
-14.3498
-14.4996
-14.6491
-14.7984
-14.9477
-15.0965
-15.2452
-15.3937
-15.5418
-15.6896
-15.837
-15.984
-16.1309
-16.2777
-16.4245
-16.5712
-16.7177
-16.864
-17.0102
-17.1561
-17.3019
-17.4476
-17.5932
-17.7384
-17.8831
-18.026
-18.1669
-18.2998
-18.4206
-1.22141
-1.5057
-1.88195
-2.21165
-2.51387
-2.81911
-3.11923
-3.40043
-3.66471
-3.91554
-4.15289
-4.37848
-4.59406
-4.80163
-5.00276
-5.19927
-5.39225
-5.58211
-5.76949
-5.95449
-6.13708
-6.31702
-6.49501
-6.67168
-6.84654
-7.02039
-7.19284
-7.36443
-7.53563
-7.70572
-7.87539
-8.04428
-8.21292
-8.38065
-8.5479
-8.71459
-8.88049
-9.04593
-9.21069
-9.3752
-9.53892
-9.70184
-9.86434
-10.0261
-10.1874
-10.3481
-10.5084
-10.6682
-10.8274
-10.9861
-11.1446
-11.3024
-11.4599
-11.6171
-11.7735
-11.9298
-12.0854
-12.2408
-12.3957
-12.55
-12.7041
-12.8575
-13.0106
-13.1633
-13.3158
-13.4681
-13.6199
-13.7715
-13.9227
-14.0733
-14.2239
-14.3738
-14.5236
-14.6731
-14.8224
-14.9716
-15.1205
-15.2692
-15.4177
-15.5658
-15.7136
-15.861
-16.0082
-16.1551
-16.302
-16.4488
-16.5956
-16.7423
-16.8887
-17.0349
-17.1806
-17.3263
-17.4719
-17.6174
-17.7624
-17.907
-18.0497
-18.189
-18.3202
-18.4372
-1.21008
-1.52516
-1.90558
-2.23187
-2.53541
-2.842
-3.14254
-3.42335
-3.68756
-3.93836
-4.17551
-4.40082
-4.61621
-4.8236
-5.02461
-5.22097
-5.41389
-5.6037
-5.79101
-5.97604
-6.15856
-6.33846
-6.51635
-6.69308
-6.86788
-7.04173
-7.21414
-7.38567
-7.55699
-7.72698
-7.89668
-8.06557
-8.23417
-8.40203
-8.56918
-8.73598
-8.90189
-9.06733
-9.23226
-9.39669
-9.56046
-9.72342
-9.88599
-10.0479
-10.2092
-10.37
-10.5303
-10.6901
-10.8494
-11.0081
-11.1665
-11.3243
-11.4818
-11.6389
-11.7953
-11.9516
-12.1072
-12.2626
-12.4174
-12.5717
-12.7258
-12.8792
-13.0323
-13.185
-13.3374
-13.4898
-13.6416
-13.7932
-13.9443
-14.095
-14.2455
-14.3954
-14.5452
-14.6947
-14.844
-14.9932
-15.142
-15.2907
-15.4391
-15.5872
-15.7349
-15.8823
-16.0293
-16.1761
-16.3228
-16.4696
-16.6162
-16.7626
-16.909
-17.0552
-17.2011
-17.3469
-17.4926
-17.6382
-17.7831
-17.9274
-18.0696
-18.2089
-18.3392
-18.4534
-1.19455
-1.54314
-1.92681
-2.25004
-2.55496
-2.86278
-3.16379
-3.44426
-3.70848
-3.95921
-4.19625
-4.42129
-4.63642
-4.84357
-5.04451
-5.24073
-5.43365
-5.62336
-5.81074
-5.99583
-6.17825
-6.35815
-6.53591
-6.71263
-6.88735
-7.06114
-7.23358
-7.40511
-7.57653
-7.74646
-7.91626
-8.08517
-8.25382
-8.4219
-8.58903
-8.75603
-8.92195
-9.08751
-9.25246
-9.41677
-9.58053
-9.74343
-9.90602
-10.0679
-10.2292
-10.3899
-10.5502
-10.71
-10.8693
-11.028
-11.1864
-11.3442
-11.5017
-11.6588
-11.8153
-11.9715
-12.1271
-12.2825
-12.4373
-12.5917
-12.7458
-12.8991
-13.0523
-13.205
-13.3574
-13.5098
-13.6616
-13.8132
-13.9644
-14.1151
-14.2656
-14.4156
-14.5654
-14.7149
-14.8642
-15.0134
-15.1622
-15.3109
-15.4594
-15.6076
-15.7554
-15.9028
-16.05
-16.197
-16.3439
-16.4907
-16.6375
-16.7841
-16.9305
-17.0767
-17.2226
-17.3682
-17.5138
-17.6592
-17.8042
-17.9485
-18.0904
-18.2277
-18.3568
-18.4691
-1.17581
-1.55983
-1.94587
-2.26688
-2.57314
-2.88187
-3.18309
-3.46306
-3.72726
-3.97777
-4.21449
-4.43977
-4.65446
-4.8612
-5.06195
-5.25794
-5.45075
-5.6403
-5.82772
-6.01269
-6.19508
-6.37512
-6.55293
-6.7299
-6.90475
-7.07861
-7.2513
-7.42287
-7.59446
-7.76436
-7.93418
-8.10297
-8.27151
-8.43958
-8.60657
-8.77357
-8.93938
-9.1049
-9.26978
-9.43406
-9.59781
-9.76065
-9.92318
-10.085
-10.2462
-10.407
-10.5672
-10.727
-10.8862
-11.0448
-11.2032
-11.361
-11.5185
-11.6755
-11.8319
-11.9881
-12.1437
-12.299
-12.4538
-12.6081
-12.7621
-12.9154
-13.0686
-13.2212
-13.3736
-13.5259
-13.6776
-13.8292
-13.9803
-14.131
-14.2814
-14.4312
-14.581
-14.7304
-14.8796
-15.0288
-15.1776
-15.3262
-15.4747
-15.6227
-15.7705
-15.9177
-16.0647
-16.2115
-16.3583
-16.505
-16.6517
-16.7981
-16.9445
-17.0906
-17.2365
-17.3822
-17.5278
-17.6733
-17.8182
-17.9624
-18.1045
-18.2431
-18.372
-18.4836
-1.15495
-1.57417
-1.96146
-2.28184
-2.59001
-2.90036
-3.2019
-3.4814
-3.74562
-3.99599
-4.23248
-4.458
-4.67238
-4.87896
-5.07975
-5.27583
-5.46884
-5.65874
-5.84646
-6.0317
-6.21424
-6.3944
-6.57224
-6.74923
-6.924
-7.09762
-7.27014
-7.44154
-7.61312
-7.78294
-7.95279
-8.12162
-8.29017
-8.45828
-8.62527
-8.79231
-8.95814
-9.12371
-9.2886
-9.4529
-9.61667
-9.77952
-9.94203
-10.1038
-10.2651
-10.4259
-10.5861
-10.7459
-10.9052
-11.0638
-11.2223
-11.3801
-11.5376
-11.6947
-11.8511
-12.0073
-12.1629
-12.3183
-12.4731
-12.6275
-12.7815
-12.9349
-13.0881
-13.2407
-13.3932
-13.5455
-13.6973
-13.849
-14.0001
-14.1508
-14.3013
-14.4513
-14.601
-14.7505
-14.8998
-15.049
-15.1978
-15.3465
-15.495
-15.6431
-15.7909
-15.9383
-16.0855
-16.2324
-16.3792
-16.526
-16.6727
-16.8193
-16.9657
-17.1119
-17.2578
-17.4035
-17.549
-17.6945
-17.8394
-17.9835
-18.1251
-18.2622
-18.3897
-18.4997
-1.14035
-1.58874
-1.9737
-2.29138
-2.60036
-2.91251
-3.21455
-3.49352
-3.7579
-4.00827
-4.24464
-4.46977
-4.68399
-4.89044
-5.09113
-5.28709
-5.47999
-5.66976
-5.85736
-6.04243
-6.22466
-6.40442
-6.58204
-6.75883
-6.93347
-7.10698
-7.2793
-7.45058
-7.62209
-7.79183
-7.9616
-8.13034
-8.29879
-8.46683
-8.63374
-8.80071
-8.96646
-9.13196
-9.29679
-9.46103
-9.62473
-9.78753
-9.94999
-10.1117
-10.273
-10.4337
-10.5939
-10.7536
-10.9129
-11.0715
-11.2298
-11.3876
-11.545
-11.7021
-11.8585
-12.0147
-12.1702
-12.3256
-12.4803
-12.6347
-12.7887
-12.942
-13.0951
-13.2477
-13.4001
-13.5524
-13.7042
-13.8558
-14.0068
-14.1575
-14.308
-14.4579
-14.6076
-14.757
-14.9063
-15.0555
-15.2043
-15.3529
-15.5014
-15.6495
-15.7972
-15.9445
-16.0916
-16.2384
-16.3852
-16.532
-16.6787
-16.8252
-16.9715
-17.1177
-17.2636
-17.4092
-17.5548
-17.7003
-17.8452
-17.9893
-18.1312
-18.2691
-18.397
-18.5077
-1.10988
-1.60357
-1.99731
-2.31553
-2.62471
-2.93737
-3.24016
-3.51818
-3.78287
-4.03335
-4.26963
-4.49456
-4.70857
-4.91472
-5.11516
-5.31088
-5.50361
-5.69322
-5.88072
-6.06572
-6.24797
-6.42781
-6.60538
-6.78217
-6.95675
-7.13024
-7.30257
-7.4738
-7.64526
-7.81497
-7.9847
-8.15345
-8.32188
-8.48991
-8.65682
-8.82378
-8.98955
-9.15504
-9.31987
-9.48411
-9.64782
-9.81063
-9.97309
-10.1348
-10.2961
-10.4568
-10.617
-10.7767
-10.936
-11.0946
-11.253
-11.4107
-11.5682
-11.7253
-11.8817
-12.0379
-12.1934
-12.3488
-12.5035
-12.6579
-12.8119
-12.9652
-13.1184
-13.271
-13.4234
-13.5757
-13.7275
-13.8791
-14.0301
-14.1808
-14.3313
-14.4812
-14.6309
-14.7804
-14.9297
-15.0788
-15.2276
-15.3763
-15.5247
-15.6728
-15.8206
-15.9679
-16.115
-16.2619
-16.4087
-16.5555
-16.7021
-16.8487
-16.995
-17.1412
-17.2871
-17.4327
-17.5783
-17.7238
-17.8686
-18.0128
-18.1545
-18.292
-18.4197
-18.5299
-18.3047
-18.5909
-19.3097
-19.4336
-18.893
-17.8193
-16.3684
-14.6715
-12.9092
-11.179
-9.57259
-8.12292
-6.84821
-5.74176
-4.79146
-3.97782
-3.2805
-2.67946
-2.15906
-1.70696
-1.31306
-0.967112
-0.661988
-0.391945
-0.15173
0.0611109
0.247552
0.410033
0.548663
0.663551
0.760071
0.838357
0.898789
0.944327
0.978925
1.00623
1.0306
1.0559
1.08316
1.11144
1.13909
1.16316
1.17944
1.18741
1.19078
1.1885
1.18486
1.19118
1.20426
1.23828
1.26799
1.2601
1.2287
1.19512
1.17806
1.16305
1.15025
1.13845
1.13364
1.1292
1.12317
1.11091
1.08866
1.05196
1.01396
0.974961
0.935238
0.90713
0.884603
0.866901
0.853989
0.84583
0.839293
0.831918
0.820874
0.804811
0.784981
0.762509
0.738073
0.712197
0.685187
0.657208
0.628266
0.598458
0.568023
0.536848
0.504648
0.471895
0.438878
0.40588
0.372437
0.338993
0.305932
0.272802
0.238117
0.202934
0.165471
0.125466
0.0783226
0.032429
-18.3474
-18.5169
-19.2036
-19.3438
-18.8156
-17.762
-16.3331
-14.6558
-12.9091
-11.1903
-9.59235
-8.1475
-6.87525
-5.7696
-4.81891
-4.00401
-3.30495
-2.70195
-2.17938
-1.72525
-1.32963
-0.982553
-0.675616
-0.404566
-0.163927
0.0490289
0.235097
0.396465
0.533556
0.64709
0.741346
0.816876
0.875949
0.920855
0.955374
0.983333
1.009
1.03573
1.06418
1.09318
1.12101
1.14397
1.15819
1.16389
1.16605
1.16328
1.1591
1.16635
1.18206
1.22206
1.25919
1.25591
1.22883
1.1942
1.1771
1.15903
1.14368
1.13
1.12271
1.11567
1.10792
1.09413
1.0708
1.03422
0.996801
0.958757
0.919752
0.892653
0.870864
0.853656
0.840983
0.832698
0.826288
0.818828
0.807547
0.791399
0.771638
0.749314
0.725033
0.699272
0.672327
0.644366
0.615423
0.585618
0.555137
0.523913
0.491733
0.459041
0.426101
0.393139
0.359812
0.326507
0.293539
0.260675
0.226442
0.191833
0.155431
0.116973
0.0727661
0.0293579
-18.3405
-18.5223
-19.1295
-19.2521
-18.7289
-17.6924
-16.2859
-14.6304
-12.903
-11.2
-9.61268
-8.17483
-6.90686
-5.80264
-4.85144
-4.03478
-3.33342
-2.72798
-2.20283
-1.74619
-1.3483
-1.00011
-0.691312
-0.418746
-0.17762
0.0353243
0.220966
0.381088
0.51601
0.627398
0.719411
0.79243
0.849863
0.893953
0.928378
0.957177
0.984467
1.01308
1.04314
1.07319
1.10105
1.12262
1.1345
1.13763
1.13839
1.13501
1.13003
1.13845
1.15785
1.20365
1.24985
1.25186
1.22972
1.19461
1.17697
1.15536
1.13676
1.12073
1.11098
1.10105
1.09092
1.07536
1.05056
1.01447
0.977733
0.940796
0.90277
0.876579
0.855766
0.839155
0.826776
0.818366
0.812021
0.804396
0.792841
0.776587
0.756909
0.73476
0.710642
0.684996
0.658115
0.630166
0.601222
0.571415
0.540921
0.50964
0.477446
0.444789
0.411904
0.378998
0.345867
0.31276
0.27986
0.247152
0.213504
0.179556
0.144339
0.10761
0.0666435
0.0260213
-18.367
-18.5403
-19.0682
-19.1687
-18.6406
-17.6166
-16.2305
-14.5998
-12.8933
-11.2086
-9.63392
-8.20505
-6.94264
-5.84033
-4.88863
-4.07012
-3.36604
-2.75783
-2.22993
-1.77043
-1.36977
-1.01919
-0.708773
-0.434052
-0.192438
0.020207
0.20516
0.363713
0.496013
0.604732
0.694336
0.764604
0.819848
0.862874
0.897491
0.927553
0.956982
0.988016
1.02005
1.05139
1.07915
1.09909
1.10819
1.1084
1.10764
1.10342
1.09739
1.10685
1.13123
1.18235
1.23978
1.24816
1.23158
1.19689
1.17776
1.15218
1.12951
1.11054
1.09814
1.08547
1.07205
1.05434
1.0278
0.992328
0.956575
0.920913
0.884186
0.858743
0.839205
0.823316
0.81125
0.802838
0.796395
0.788538
0.776648
0.760267
0.740687
0.718718
0.694762
0.669229
0.64241
0.61447
0.585516
0.555702
0.525197
0.493871
0.461669
0.429029
0.396171
0.363305
0.330414
0.297581
0.264814
0.232099
0.199151
0.165972
0.132077
0.0972807
0.0598875
0.0223931
-18.3866
-18.549
-19.0065
-19.0837
-18.554
-17.5409
-16.1722
-14.5679
-12.8837
-11.2192
-9.65908
-8.24042
-6.98378
-5.88365
-4.93158
-4.11126
-3.40404
-2.79254
-2.26142
-1.79837
-1.39424
-1.04054
-0.727882
-0.45099
-0.208478
0.00412721
0.187958
0.344328
0.473794
0.579535
0.665871
0.732857
0.785693
0.827577
0.862488
0.894453
0.926613
0.960527
0.994778
1.02729
1.05491
1.07317
1.07923
1.07624
1.07374
1.0685
1.06121
1.07161
1.10246
1.15825
1.22752
1.24489
1.23478
1.20167
1.17952
1.1496
1.12196
1.09938
1.08381
1.06878
1.05146
1.03082
1.00234
0.967432
0.933141
0.898948
0.86391
0.838992
0.821102
0.806091
0.794371
0.786053
0.779375
0.771186
0.758881
0.742339
0.722847
0.701047
0.677241
0.651814
0.625054
0.597117
0.568144
0.538316
0.507801
0.476433
0.444223
0.411603
0.378777
0.34594
0.313258
0.280724
0.248089
0.215522
0.183291
0.150943
0.118511
0.0858682
0.0524198
0.0184324
-18.404
-18.5551
-18.9411
-18.9898
-18.4604
-17.4588
-16.1122
-14.537
-12.8767
-11.2342
-9.69012
-8.28299
-7.03274
-5.93525
-4.98268
-4.16019
-3.44905
-2.8332
-2.29787
-1.83025
-1.42177
-1.06437
-0.748622
-0.469615
-0.225924
-0.0130168
0.169839
0.323553
0.449872
0.552409
0.633984
0.69751
0.747899
0.788579
0.823581
0.857293
0.892536
0.929942
0.966999
1.00079
1.02818
1.0447
1.04769
1.04144
1.03694
1.03018
1.02174
1.03328
1.0725
1.13395
1.21126
1.24107
1.23949
1.20957
1.18223
1.14759
1.11406
1.08714
1.06776
1.04997
1.02977
1.00482
0.973957
0.939676
0.907229
0.874747
0.841856
0.817318
0.80127
0.787462
0.776125
0.767931
0.760967
0.752305
0.739489
0.722716
0.70327
0.681603
0.657918
0.632583
0.605877
0.577931
0.548929
0.519078
0.488554
0.457143
0.424925
0.392331
0.359547
0.326752
0.294215
0.26197
0.229493
0.197297
0.165753
0.134295
0.103483
0.0732334
0.0441478
0.0140768
-18.42
-18.5575
-18.8714
-18.8866
-18.3571
-17.3681
-16.0452
-14.5014
-12.8697
-11.2524
-9.72684
-8.33326
-7.09042
-5.99576
-5.04235
-4.21705
-3.50116
-2.87969
-2.33908
-1.86588
-1.45191
-1.08985
-0.770139
-0.488537
-0.243621
-0.0304962
0.15129
0.302624
0.425312
0.52383
0.599702
0.658309
0.705269
0.744704
0.780501
0.816321
0.85483
0.895965
0.936306
0.971819
0.998866
1.01345
1.01326
1.00409
0.997288
0.988472
0.979402
0.992289
1.0401
1.11074
1.19227
1.2367
1.24517
1.2205
1.18595
1.14597
1.10571
1.07377
1.05012
1.0292
1.00645
0.976087
0.942414
0.909149
0.878644
0.848182
0.817908
0.793955
0.779354
0.767363
0.756473
0.748408
0.741116
0.731847
0.718384
0.701272
0.681804
0.660213
0.636607
0.611339
0.584672
0.556704
0.52766
0.497783
0.467258
0.4358
0.403576
0.371021
0.338291
0.305569
0.273131
0.241148
0.208924
0.177135
0.146305
0.115844
0.0868217
0.0592135
0.0349659
0.00923277
-18.4345
-18.5554
-18.7983
-18.7759
-18.2459
-17.2706
-15.9724
-14.4608
-12.8598
-11.2693
-9.76456
-8.3863
-7.1523
-6.05947
-5.10517
-4.27702
-3.55654
-2.92914
-2.38254
-1.90317
-1.48278
-1.11481
-0.790345
-0.505732
-0.259187
-0.0459605
0.133682
0.280776
0.398007
0.490918
0.56172
0.61537
0.658785
0.696565
0.733265
0.771647
0.813306
0.858102
0.901993
0.939466
0.966441
0.979317
0.976049
0.963965
0.954124
0.942498
0.934563
0.94992
1.00401
1.08636
1.17363
1.23304
1.25148
1.23328
1.1908
1.14445
1.09673
1.05914
1.03112
1.00757
0.97961
0.944214
0.907731
0.876151
0.847206
0.819144
0.791925
0.769165
0.755125
0.74563
0.73536
0.727408
0.719757
0.709755
0.695478
0.677896
0.65829
0.63669
0.613102
0.587869
0.561222
0.533218
0.504113
0.474192
0.443674
0.41217
0.379936
0.347422
0.314748
0.282125
0.249816
0.218003
0.186128
0.15476
0.124722
0.0953649
0.0683133
0.0435927
0.024737
0.0037508
-18.4481
-18.5501
-18.7236
-18.6594
-18.1275
-17.1671
-15.8948
-14.4142
-12.8439
-11.2805
-9.79797
-8.43664
-7.21275
-6.12498
-5.17162
-4.3408
-3.6156
-2.98206
-2.42864
-1.94269
-1.51551
-1.14079
-0.811276
-0.523524
-0.275055
-0.0620859
0.114919
0.256906
0.368218
0.454542
0.519431
0.568269
0.608411
0.645331
0.683523
0.724354
0.768584
0.816739
0.864036
0.903175
0.930387
0.941947
0.936218
0.92119
0.907622
0.891683
0.886889
0.906758
0.965943
1.05976
1.15622
1.22937
1.25823
1.24605
1.19618
1.14272
1.08688
1.04331
1.01186
0.98376
0.948748
0.909456
0.870689
0.840555
0.813009
0.787652
0.763721
0.742848
0.729311
0.721557
0.712533
0.704722
0.696628
0.685797
0.670614
0.652512
0.63262
0.610897
0.587236
0.561966
0.535289
0.507205
0.478053
0.448138
0.417624
0.386076
0.353851
0.321408
0.288806
0.25633
0.224107
0.192334
0.160885
0.129984
0.100784
0.0726542
0.04774
0.0261308
0.0133206
-0.00258662
-18.4611
-18.5424
-18.6489
-18.5391
-18.0028
-17.0574
-15.8113
-14.365
-12.8288
-11.2949
-9.83552
-8.49128
-7.27703
-6.19585
-5.24346
-4.4094
-3.67896
-3.03904
-2.47841
-1.98551
-1.55117
-1.16935
-0.83487
-0.544075
-0.293971
-0.0816648
0.092689
0.230235
0.335755
0.415526
0.474344
0.518266
0.555048
0.591855
0.632123
0.675447
0.722273
0.773585
0.823562
0.863658
0.890719
0.900585
0.892752
0.876008
0.858084
0.839883
0.838342
0.864214
0.929111
1.03174
1.13894
1.22438
1.264
1.25618
1.2013
1.14009
1.07583
1.02697
0.991659
0.955736
0.914964
0.872105
0.832303
0.802181
0.776444
0.753853
0.733061
0.714403
0.702312
0.695163
0.687597
0.680116
0.671568
0.659631
0.643402
0.624749
0.604457
0.582563
0.558804
0.533455
0.506721
0.478516
0.44922
0.419156
0.388654
0.357047
0.324746
0.2924
0.259911
0.227645
0.195474
0.163848
0.132827
0.102433
0.0740648
0.0473748
0.0247773
0.00645983
0.000491963
-0.0101497
-18.4734
-18.5345
-18.5833
-18.4302
-17.8882
-16.9574
-15.7354
-14.3232
-12.8202
-11.3144
-9.8766
-8.54789
-7.34267
-6.2654
-5.31255
-4.47515
-3.73989
-3.09407
-2.527
-2.02773
-1.58653
-1.19829
-0.859512
-0.565961
-0.314648
-0.103336
0.0682422
0.2014
0.30133
0.375321
0.429063
0.469211
0.503712
0.540162
0.581947
0.627577
0.676948
0.730662
0.781997
0.822433
0.849063
0.857316
0.848095
0.830861
0.809315
0.793793
0.796164
0.827256
0.897148
1.00581
1.12245
1.21747
1.26704
1.26148
1.20439
1.13535
1.06361
1.01124
0.968913
0.925193
0.880296
0.834361
0.794196
0.763835
0.740068
0.719653
0.701536
0.685407
0.675392
0.669014
0.662332
0.654785
0.64537
0.631916
0.614728
0.595519
0.575025
0.552876
0.528959
0.503498
0.476716
0.44859
0.419307
0.389187
0.358593
0.327122
0.294992
0.262424
0.230023
0.197755
0.165576
0.134137
0.103435
0.0735149
0.0457794
0.0206264
0.00039318
-0.0147398
-0.0133522
-0.0190001
-18.4857
-18.5301
-18.5354
-18.3471
-17.7996
-16.8811
-15.6795
-14.2928
-12.8151
-11.3313
-9.91122
-8.59558
-7.39835
-6.32469
-5.37218
-4.53268
-3.79365
-3.14291
-2.57066
-2.06603
-1.61898
-1.22571
-0.883531
-0.587752
-0.33563
-0.125385
0.0433909
0.172475
0.267842
0.337508
0.387659
0.425287
0.458729
0.495086
0.537979
0.585469
0.636532
0.691173
0.742837
0.782966
0.809014
0.817074
0.808569
0.790275
0.768678
0.756553
0.762847
0.79806
0.872092
0.985205
1.10844
1.2098
1.26654
1.26254
1.20384
1.12803
1.05128
0.995729
0.94505
0.895686
0.847425
0.79986
0.759383
0.729592
0.707451
0.688574
0.673223
0.659649
0.651218
0.644905
0.638304
0.63017
0.619593
0.605059
0.587316
0.567653
0.546918
0.524471
0.500437
0.474972
0.448112
0.420009
0.390679
0.360545
0.329594
0.297946
0.265694
0.233311
0.200958
0.16875
0.13682
0.105567
0.075196
0.0457808
0.0185498
-0.00523451
-0.0232805
-0.0357512
-0.0274043
-0.0288041
-18.4982
-18.53
-18.5043
-18.2897
-17.7371
-16.8276
-15.6409
-14.2726
-12.8141
-11.3475
-9.9413
-8.63576
-7.44481
-6.37396
-5.42178
-4.5808
-3.83879
-3.18421
-2.60802
-2.09923
-1.64783
-1.25096
-0.906241
-0.608934
-0.356435
-0.147132
0.0194596
0.145392
0.237303
0.303806
0.351276
0.387251
0.420309
0.456951
0.500654
0.549593
0.601787
0.656136
0.707897
0.748294
0.77481
0.78328
0.77519
0.756245
0.736165
0.726366
0.736035
0.775077
0.852935
0.969662
1.09738
1.20292
1.26389
1.26089
1.20021
1.11874
1.04014
0.979128
0.921782
0.86824
0.817286
0.769276
0.729057
0.700378
0.679776
0.663917
0.649147
0.637199
0.629052
0.622474
0.615585
0.606918
0.595599
0.580539
0.562287
0.542254
0.521285
0.498881
0.474943
0.449608
0.422804
0.394822
0.365478
0.335419
0.3046
0.2731
0.24089
0.208292
0.175789