/*--------------------------------*- C++ -*----------------------------------*\
| =========                 |                                                 |
| \\      /  F ield         | OpenFOAM: The Open Source CFD Toolbox           |
|  \\    /   O peration     | Version:  v2012                                 |
|   \\  /    A nd           | Website:  www.openfoam.com                      |
|    \\/     M anipulation  |                                                 |
\*---------------------------------------------------------------------------*/
FoamFile
{
    version     2.0;
    format      ascii;
    class       surfaceScalarField;
    location    "0.207";
    object      phi.air;
}
// * * * * * * * * * * * * * * * * * * * * * * * * * * * * * * * * * * * * * //

dimensions      [0 3 -1 0 0 0 0];
oriented        oriented;


internalField   nonuniform List<scalar> 
10964
(
0.000657103
2.51304e-05
0.000628917
2.7345e-05
0.000601303
2.67705e-05
0.000575026
2.54306e-05
0.000551116
2.30615e-05
0.000530159
2.01078e-05
0.000512512
1.67959e-05
0.000497894
1.3765e-05
0.000485931
1.11091e-05
0.000476261
8.81601e-06
0.000468673
6.73291e-06
0.000462703
5.11481e-06
0.000458072
3.77605e-06
0.000454439
2.77649e-06
0.000451521
2.06241e-06
0.000449206
1.45914e-06
0.000447243
1.10666e-06
0.00044561
7.77167e-07
0.000444193
5.60953e-07
0.000442962
3.7524e-07
0.000441909
1.9746e-07
0.000441017
3.55572e-08
0.000440268
-1.07231e-07
0.000439656
-2.43315e-07
0.000439166
-3.65975e-07
0.000438729
-4.19329e-07
0.000438387
-5.13628e-07
0.000438099
-5.67917e-07
0.000437846
-6.02028e-07
0.000437606
-6.16302e-07
0.000437379
-6.284e-07
0.000437144
-6.20617e-07
0.000436905
-6.16451e-07
0.000436676
-6.26348e-07
0.000436435
-6.14301e-07
0.000436209
-6.30547e-07
0.000435982
-6.27814e-07
0.000435764
-6.38018e-07
0.000435557
-6.48294e-07
0.000435348
-6.46379e-07
0.000435159
-6.66882e-07
0.000434971
-6.67112e-07
0.000434803
-6.8814e-07
0.000434645
-6.97467e-07
0.000434506
-7.16039e-07
0.000434381
-7.31196e-07
0.000434265
-7.38915e-07
0.000434164
-7.54412e-07
0.000434067
-7.58956e-07
0.000433984
-7.72071e-07
0.000433903
-7.74546e-07
0.000433834
-7.8672e-07
0.000433768
-7.89606e-07
0.000433717
-8.03858e-07
0.000433671
-8.09975e-07
0.000433634
-8.18471e-07
0.000433606
-8.27832e-07
0.000433583
-8.31622e-07
0.000433577
-8.50109e-07
0.000433575
-8.53575e-07
0.000433581
-8.61091e-07
0.0004336
-8.74421e-07
0.000433622
-8.77501e-07
0.000433659
-8.92523e-07
0.000433693
-8.89078e-07
0.000433738
-9.00515e-07
0.000433789
-9.06608e-07
0.000433848
-9.14247e-07
0.000433922
-9.28982e-07
0.000433993
-9.26751e-07
0.000434079
-9.40844e-07
0.000434166
-9.42052e-07
0.000434254
-9.43789e-07
0.000434357
-9.5837e-07
0.000434453
-9.51084e-07
0.000434573
-9.74463e-07
0.000434692
-9.74777e-07
0.000434816
-9.78781e-07
0.000434954
-9.92987e-07
0.000435086
-9.87629e-07
0.000435232
-1.00096e-06
0.000435375
-9.98659e-07
0.000435522
-1.00192e-06
0.000435674
-1.00723e-06
0.000435824
-1.00425e-06
0.000435973
-1.00479e-06
0.000436138
-1.01963e-06
0.00043628
-9.97134e-07
0.000436465
-1.0398e-06
0.000436618
-1.00753e-06
0.000436831
-1.06807e-06
0.000436983
-1.00739e-06
0.000437196
-1.06731e-06
0.000437316
-9.75106e-07
0.000437589
-1.12816e-06
0.000437692
-9.57551e-07
0.000438061
-1.22443e-06
0.000438766
-1.55839e-06
0.000437417
4.93137e-07
-1.09686e-05
0.000447533
0.000757087
2.43237e-05
0.00075488
2.95518e-05
0.000751203
3.04471e-05
0.000745926
3.07078e-05
0.000739361
2.96264e-05
0.000731827
2.76417e-05
0.000723579
2.50447e-05
0.000714966
2.23779e-05
0.000706322
1.97533e-05
0.000697764
1.7374e-05
0.000689583
1.49137e-05
0.00068184
1.28576e-05
0.000674605
1.10109e-05
0.000667995
9.38625e-06
0.000661898
8.16033e-06
0.000656474
6.88285e-06
0.000651533
6.04778e-06
0.000647149
5.16043e-06
0.000643285
4.42517e-06
0.000639856
3.80417e-06
0.000636914
3.13966e-06
0.000634298
2.65163e-06
0.000632014
2.17729e-06
0.000629921
1.84925e-06
0.00062807
1.48453e-06
0.000626415
1.23609e-06
0.000624883
1.01865e-06
0.000623471
8.4405e-07
0.000622153
7.15553e-07
0.000620928
6.09274e-07
0.000619779
5.20178e-07
0.000618723
4.35124e-07
0.000617734
3.73337e-07
0.000616826
2.8159e-07
0.000615992
2.19022e-07
0.000615217
1.44906e-07
0.000614501
8.83458e-08
0.000613826
3.68333e-08
0.000613211
-3.31352e-08
0.000612638
-7.37629e-08
0.000612106
-1.34838e-07
0.000611614
-1.75342e-07
0.000611162
-2.3596e-07
0.000610743
-2.78778e-07
0.000610355
-3.27244e-07
0.000609998
-3.74199e-07
0.000609662
-4.03005e-07
0.000609349
-4.41716e-07
0.000609059
-4.68711e-07
0.00060879
-5.03526e-07
0.000608538
-5.22818e-07
0.000608308
-5.56038e-07
0.000608094
-5.76011e-07
0.000607903
-6.12522e-07
0.000607728
-6.35492e-07
0.000607572
-6.62084e-07
0.000607432
-6.87521e-07
0.000607306
-7.05704e-07
0.000607201
-7.45824e-07
0.000607114
-7.65907e-07
0.000607043
-7.90733e-07
0.000606992
-8.22643e-07
0.000606951
-8.37289e-07
0.000606924
-8.65092e-07
0.000606904
-8.68858e-07
0.000606894
-8.91084e-07
0.000606897
-9.09299e-07
0.000606914
-9.30952e-07
0.000606946
-9.61708e-07
0.000606992
-9.71881e-07
0.000607051
-9.99872e-07
0.000607118
-1.00931e-06
0.000607192
-1.01755e-06
0.000607276
-1.04318e-06
0.000607363
-1.03726e-06
0.000607459
-1.07075e-06
0.000607566
-1.08234e-06
0.000607681
-1.09367e-06
0.000607811
-1.12302e-06
0.000607954
-1.1306e-06
0.000608104
-1.15068e-06
0.000608265
-1.16002e-06
0.000608425
-1.16173e-06
0.000608592
-1.17359e-06
0.000608751
-1.16402e-06
0.000608923
-1.17593e-06
0.000609088
-1.18534e-06
0.000609279
-1.18751e-06
0.000609454
-1.21467e-06
0.000609665
-1.21921e-06
0.000609846
-1.24934e-06
0.000610078
-1.2385e-06
0.000610249
-1.23856e-06
0.000610524
-1.25041e-06
0.000610667
-1.27057e-06
0.000611068
-1.35953e-06
0.000611185
-1.34118e-06
0.000611879
-2.25165e-06
0.000612087
2.84649e-07
-1.4839e-05
0.000615957
0.000840345
2.1312e-05
0.000842326
2.7571e-05
0.000844305
2.8468e-05
0.000845638
2.93747e-05
0.000846209
2.90549e-05
0.000845982
2.78695e-05
0.000845039
2.59876e-05
0.000843327
2.40893e-05
0.000840903
2.21774e-05
0.000837777
2.04998e-05
0.000834015
1.86762e-05
0.000829713
1.71592e-05
0.00082493
1.57945e-05
0.00081983
1.44861e-05
0.000814493
1.34966e-05
0.000809094
1.22827e-05
0.000803689
1.14521e-05
0.000798435
1.04143e-05
0.000793423
9.43803e-06
0.000788673
8.55408e-06
0.000784282
7.53059e-06
0.000780155
6.7779e-06
0.000776481
5.85129e-06
0.000773061
5.27002e-06
0.000769945
4.6006e-06
0.000767154
4.02661e-06
0.000764556
3.61659e-06
0.000762174
3.22601e-06
0.000759965
2.92505e-06
0.00075796
2.61349e-06
0.000756085
2.39524e-06
0.000754395
2.12522e-06
0.000752832
1.93705e-06
0.000751387
1.72638e-06
0.000750071
1.53435e-06
0.000748842
1.37471e-06
0.000747723
1.20659e-06
0.000746666
1.09436e-06
0.000745699
9.33362e-07
0.000744814
8.11831e-07
0.000743988
6.90933e-07
0.000743229
5.83182e-07
0.000742523
4.70872e-07
0.000741871
3.72852e-07
0.000741248
2.9551e-07
0.000740667
2.06943e-07
0.000740125
1.39237e-07
0.000739617
6.6633e-08
0.000739144
4.28419e-09
0.000738704
-6.35715e-08
0.000738294
-1.13624e-07
0.000737916
-1.77895e-07
0.000737569
-2.28304e-07
0.000737251
-2.95273e-07
0.000736961
-3.45638e-07
0.000736697
-3.98053e-07
0.000736457
-4.47216e-07
0.00073624
-4.88745e-07
0.000736048
-5.53918e-07
0.000735884
-6.01817e-07
0.000735745
-6.5152e-07
0.000735629
-7.06922e-07
0.00073553
-7.37912e-07
0.000735444
-7.78824e-07
0.000735368
-7.93355e-07
0.000735304
-8.27389e-07
0.000735262
-8.67271e-07
0.000735239
-9.07154e-07
0.000735236
-9.59209e-07
0.000735252
-9.87573e-07
0.000735283
-1.03116e-06
0.000735329
-1.05531e-06
0.000735384
-1.07244e-06
0.00073545
-1.10892e-06
0.000735521
-1.10909e-06
0.000735596
-1.14545e-06
0.000735687
-1.17312e-06
0.000735788
-1.19467e-06
0.000735906
-1.2406e-06
0.000736044
-1.2694e-06
0.000736192
-1.29834e-06
0.000736357
-1.32516e-06
0.000736522
-1.32668e-06
0.000736691
-1.34219e-06
0.000736856
-1.32901e-06
0.000737029
-1.34893e-06
0.000737199
-1.35616e-06
0.000737399
-1.38719e-06
0.000737584
-1.39956e-06
0.000737809
-1.44396e-06
0.000738005
-1.44585e-06
0.000738245
-1.47802e-06
0.000738449
-1.44238e-06
0.000738722
-1.52428e-06
0.000738927
-1.47491e-06
0.000739281
-1.71409e-06
0.000739511
-1.57055e-06
0.000740107
-2.84816e-06
0.000741225
-8.33454e-07
-1.54312e-05
0.000741818
0.000930298
1.80863e-05
0.000933063
2.48064e-05
0.00093624
2.52913e-05
0.00093932
2.62944e-05
0.000942127
2.62477e-05
0.000944668
2.53283e-05
0.000946779
2.38769e-05
0.000948515
2.2353e-05
0.000949815
2.0878e-05
0.000950707
1.96076e-05
0.000951162
1.82209e-05
0.000951131
1.71906e-05
0.000950715
1.62108e-05
0.000949885
1.53159e-05
0.00094863
1.4751e-05
0.000946916
1.39969e-05
0.000944793
1.35756e-05
0.000942214
1.29935e-05
0.000939242
1.24096e-05
0.000935885
1.19111e-05
0.000932209
1.12067e-05
0.000928276
1.07105e-05
0.000924255
9.87314e-06
0.000920189
9.33602e-06
0.000916193
8.59571e-06
0.000912362
7.85772e-06
0.000908716
7.26323e-06
0.000905345
6.59683e-06
0.000902166
6.10391e-06
0.000899285
5.49473e-06
0.000896575
5.10455e-06
0.000894077
4.62394e-06
0.000891766
4.24813e-06
0.00088958
3.91203e-06
0.000887562
3.55232e-06
0.000885645
3.29166e-06
0.000883895
2.95619e-06
0.000882252
2.73818e-06
0.000880722
2.46271e-06
0.000879326
2.20839e-06
0.000878025
1.99213e-06
0.000876826
1.78211e-06
0.000875697
1.59986e-06
0.000874666
1.40358e-06
0.000873692
1.2695e-06
0.000872785
1.11339e-06
0.000871948
9.76762e-07
0.000871167
8.4806e-07
0.000870439
7.31468e-07
0.000869763
6.13127e-07
0.000869135
5.14093e-07
0.000868555
4.02396e-07
0.000868022
3.04164e-07
0.000867531
1.9575e-07
0.000867081
1.04445e-07
0.000866666
1.66622e-08
0.000866286
-6.72034e-08
0.000865937
-1.39061e-07
0.000865622
-2.38962e-07
0.000865344
-3.24311e-07
0.000865102
-4.08855e-07
0.000864888
-4.93613e-07
0.000864695
-5.44968e-07
0.000864517
-6.01065e-07
0.000864353
-6.29076e-07
0.000864202
-6.76425e-07
0.000864085
-7.50203e-07
0.000863989
-8.10944e-07
0.000863922
-8.92717e-07
0.000863886
-9.50938e-07
0.000863866
-1.01132e-06
0.000863867
-1.0566e-06
0.00086388
-1.08491e-06
0.000863905
-1.13459e-06
0.000863939
-1.14279e-06
0.000863973
-1.17879e-06
0.000864021
-1.22172e-06
0.000864084
-1.25805e-06
0.000864167
-1.32357e-06
0.000864275
-1.37679e-06
0.000864401
-1.42462e-06
0.000864547
-1.47064e-06
0.0008647
-1.47985e-06
0.000864852
-1.49405e-06
0.000865007
-1.48394e-06
0.000865161
-1.50358e-06
0.000865327
-1.52174e-06
0.000865508
-1.5688e-06
0.000865699
-1.59034e-06
0.000865902
-1.64725e-06
0.000866118
-1.66161e-06
0.000866341
-1.70048e-06
0.000866583
-1.68501e-06
0.000866824
-1.76525e-06
0.000867101
-1.75147e-06
0.000867374
-1.98758e-06
0.000867737
-1.9333e-06
0.000868182
-3.29286e-06
0.000869466
-2.1172e-06
-1.51835e-05
0.000869218
0.00102963
1.48907e-05
0.00103283
2.15993e-05
0.0010364
2.1725e-05
0.00104005
2.26451e-05
0.00104358
2.27138e-05
0.00104699
2.19254e-05
0.00105011
2.07478e-05
0.00105302
1.94453e-05
0.00105566
1.82417e-05
0.00105806
1.72028e-05
0.00106022
1.60638e-05
0.00106215
1.52598e-05
0.00106388
1.44795e-05
0.00106534
1.38561e-05
0.0010667
1.33938e-05
0.00106778
1.29202e-05
0.00106866
1.26891e-05
0.00106931
1.23487e-05
0.00106964
1.20718e-05
0.00106974
1.18111e-05
0.00106949
1.14576e-05
0.00106894
1.1261e-05
0.001068
1.08189e-05
0.00106671
1.06218e-05
0.00106503
1.02772e-05
0.00106302
9.87255e-06
0.0010607
9.57656e-06
0.00105817
9.12953e-06
0.00105546
8.81341e-06
0.00105264
8.3161e-06
0.00104975
7.99177e-06
0.00104685
7.525e-06
0.00104404
7.05908e-06
0.00104127
6.68009e-06
0.00103865
6.17639e-06
0.00103609
5.85349e-06
0.00103367
5.37039e-06
0.00103141
5.0027e-06
0.00102925
4.62263e-06
0.00102724
4.21113e-06
0.00102534
3.89633e-06
0.00102355
3.57662e-06
0.00102181
3.33176e-06
0.00102021
3.01036e-06
0.00101869
2.78337e-06
0.00101727
2.53803e-06
0.00101595
2.2994e-06
0.00101471
2.07887e-06
0.00101357
1.87736e-06
0.00101249
1.689e-06
0.00101149
1.51508e-06
0.00101056
1.3294e-06
0.00100972
1.15107e-06
0.00100893
9.86572e-07
0.00100819
8.41846e-07
0.00100749
7.13176e-07
0.00100685
5.796e-07
0.00100625
4.55585e-07
0.00100569
3.1842e-07
0.0010052
1.74729e-07
0.00100475
3.56446e-08
0.00100434
-8.52199e-08
0.00100396
-1.64582e-07
0.00100359
-2.33781e-07
0.00100325
-2.8164e-07
0.00100291
-3.42307e-07
0.00100263
-4.69121e-07
0.00100239
-5.7241e-07
0.00100219
-6.88741e-07
0.00100203
-7.93188e-07
0.00100189
-8.70766e-07
0.00100178
-9.47595e-07
0.00100169
-9.94314e-07
0.00100161
-1.05624e-06
0.00100155
-1.08157e-06
0.00100149
-1.11598e-06
0.00100145
-1.18338e-06
0.00100144
-1.2447e-06
0.00100145
-1.33335e-06
0.00100149
-1.41791e-06
0.00100156
-1.49648e-06
0.00100165
-1.56342e-06
0.00100177
-1.59242e-06
0.00100187
-1.60275e-06
0.00100199
-1.60299e-06
0.00100211
-1.61791e-06
0.00100224
-1.65786e-06
0.00100239
-1.71236e-06
0.00100256
-1.76133e-06
0.00100273
-1.81782e-06
0.00100293
-1.8645e-06
0.00100313
-1.90022e-06
0.00100337
-1.92147e-06
0.0010036
-1.99368e-06
0.00100386
-2.01702e-06
0.00100414
-2.26127e-06
0.00100449
-2.28418e-06
0.00100486
-3.66128e-06
0.001006
-3.26242e-06
-1.49104e-05
0.00100573
0.00113955
1.17816e-05
0.00114322
1.79266e-05
0.0011471
1.78384e-05
0.00115114
1.86113e-05
0.00115511
1.87392e-05
0.00115897
1.80726e-05
0.00116259
1.71261e-05
0.001166
1.60361e-05
0.00116919
1.50531e-05
0.00117219
1.42003e-05
0.001175
1.32536e-05
0.00117764
1.26151e-05
0.00118016
1.19665e-05
0.00118251
1.1498e-05
0.00118479
1.11172e-05
0.00118695
1.0764e-05
0.00118903
1.06074e-05
0.001191
1.03799e-05
0.00119287
1.02003e-05
0.00119466
1.0018e-05
0.00119627
9.85017e-06
0.00119787
9.66333e-06
0.00119922
9.46074e-06
0.00120048
9.36748e-06
0.00120154
9.21483e-06
0.00120239
9.02628e-06
0.00120305
8.91223e-06
0.00120341
8.76691e-06
0.00120359
8.6373e-06
0.00120344
8.46401e-06
0.00120308
8.35299e-06
0.00120244
8.16525e-06
0.00120158
7.92569e-06
0.00120048
7.77589e-06
0.00119917
7.48648e-06
0.00119769
7.33349e-06
0.00119604
7.02073e-06
0.00119428
6.7619e-06
0.00119242
6.48402e-06
0.0011905
6.12551e-06
0.00118854
5.85684e-06
0.00118659
5.53035e-06
0.00118465
5.27608e-06
0.00118275
4.90811e-06
0.0011809
4.62987e-06
0.0011791
4.33433e-06
0.00117738
4.02589e-06
0.00117574
3.71332e-06
0.0011742
3.42522e-06
0.0011727
3.18265e-06
0.00117129
2.93056e-06
0.00116995
2.66457e-06
0.00116872
2.38301e-06
0.00116752
2.18598e-06
0.00116636
1.99917e-06
0.00116524
1.8322e-06
0.00116418
1.64778e-06
0.00116319
1.44186e-06
0.00116225
1.25805e-06
0.00116139
1.03196e-06
0.00116062
8.12359e-07
0.00115989
6.40753e-07
0.00115921
5.1968e-07
0.00115852
4.47859e-07
0.00115787
3.7232e-07
0.00115724
2.90667e-07
0.00115667
9.36325e-08
0.00115619
-8.94732e-08
0.00115575
-2.49093e-07
0.00115537
-4.13005e-07
0.00115501
-5.10481e-07
0.00115469
-6.23202e-07
0.00115439
-6.98881e-07
0.00115411
-7.70574e-07
0.00115385
-8.25892e-07
0.0011536
-8.63286e-07
0.00115338
-9.65974e-07
0.0011532
-1.06222e-06
0.00115305
-1.18868e-06
0.00115296
-1.32052e-06
0.0011529
-1.43707e-06
0.00115287
-1.53858e-06
0.00115287
-1.58796e-06
0.00115287
-1.60427e-06
0.00115288
-1.61761e-06
0.0011529
-1.63298e-06
0.00115295
-1.70558e-06
0.00115301
-1.77333e-06
0.0011531
-1.85385e-06
0.0011532
-1.92164e-06
0.00115334
-1.99774e-06
0.00115348
-2.04587e-06
0.00115365
-2.09183e-06
0.00115384
-2.18123e-06
0.00115405
-2.22635e-06
0.00115429
-2.50206e-06
0.00115461
-2.60718e-06
0.00115494
-3.98942e-06
0.00115593
-4.25237e-06
-1.45441e-05
0.00115556
0.00126129
8.71799e-06
0.00126542
1.38014e-05
0.00126966
1.36001e-05
0.00127408
1.4186e-05
0.00127848
1.43407e-05
0.00128274
1.38098e-05
0.00128678
1.30887e-05
0.00129058
1.22371e-05
0.00129417
1.14677e-05
0.00129756
1.0808e-05
0.00130075
1.00644e-05
0.00130379
9.57747e-06
0.00130669
9.06587e-06
0.00130947
8.71096e-06
0.00131217
8.42075e-06
0.00131479
8.14256e-06
0.00131736
8.0346e-06
0.00131987
7.87507e-06
0.00132232
7.75021e-06
0.00132474
7.60081e-06
0.00132707
7.51621e-06
0.00132937
7.35924e-06
0.0013316
7.23151e-06
0.00133379
7.17738e-06
0.00133592
7.08529e-06
0.00133797
6.97913e-06
0.00133998
6.90024e-06
0.00134188
6.86565e-06
0.00134377
6.75125e-06
0.00134551
6.72046e-06
0.00134718
6.68237e-06
0.00134875
6.60203e-06
0.00135016
6.51316e-06
0.00135147
6.46533e-06
0.00135258
6.38131e-06
0.00135361
6.30252e-06
0.00135439
6.23495e-06
0.00135501
6.13943e-06
0.00135547
6.02735e-06
0.00135566
5.9332e-06
0.0013557
5.82335e-06
0.00135555
5.67887e-06
0.00135525
5.57669e-06
0.00135478
5.37714e-06
0.00135416
5.24416e-06
0.00135341
5.08964e-06
0.00135253
4.90681e-06
0.00135155
4.69198e-06
0.00135049
4.48567e-06
0.00134935
4.32276e-06
0.00134815
4.13037e-06
0.00134691
3.90342e-06
0.00134568
3.61411e-06
0.00134445
3.41802e-06
0.0013432
3.24271e-06
0.00134197
3.06366e-06
0.00134075
2.86535e-06
0.0013396
2.60068e-06
0.00133846
2.39268e-06
0.00133739
2.1037e-06
0.00133639
1.80816e-06
0.00133544
1.59679e-06
0.00133452
1.43547e-06
0.00133359
1.38192e-06
0.00133268
1.28102e-06
0.0013318
1.16627e-06
0.00133099
9.10853e-07
0.00133024
6.54813e-07
0.00132953
4.64161e-07
0.00132886
2.52167e-07
0.00132821
1.40054e-07
0.00132759
1.40253e-09
0.001327
-1.07957e-07
0.00132641
-1.83524e-07
0.00132587
-2.86602e-07
0.00132536
-3.5472e-07
0.00132489
-4.93659e-07
0.00132446
-6.31394e-07
0.00132407
-7.98103e-07
0.00132374
-9.8785e-07
0.00132345
-1.14996e-06
0.00132321
-1.29442e-06
0.00132299
-1.37557e-06
0.00132279
-1.40254e-06
0.00132261
-1.43372e-06
0.00132244
-1.46689e-06
0.00132231
-1.57787e-06
0.00132223
-1.69232e-06
0.00132218
-1.80063e-06
0.00132216
-1.90347e-06
0.00132216
-1.99585e-06
0.00132218
-2.06646e-06
0.00132222
-2.13506e-06
0.00132229
-2.24809e-06
0.0013224
-2.33273e-06
0.00132252
-2.62519e-06
0.00132275
-2.83542e-06
0.00132296
-4.20226e-06
0.00132373
-5.01824e-06
-1.40279e-05
0.00132321
0.00139614
5.65589e-06
0.00140075
9.19372e-06
0.00140539
8.957e-06
0.00141024
9.3385e-06
0.00141511
9.4754e-06
0.00141981
9.10064e-06
0.00142429
8.61788e-06
0.00142849
8.03151e-06
0.00143247
7.49087e-06
0.00143623
7.04307e-06
0.00143977
6.52587e-06
0.00144316
6.19257e-06
0.00144639
5.8365e-06
0.0014495
5.59428e-06
0.00145253
5.39699e-06
0.00145547
5.1983e-06
0.00145837
5.13507e-06
0.00146121
5.03189e-06
0.00146401
4.95686e-06
0.00146676
4.84592e-06
0.00146947
4.80365e-06
0.00147213
4.70081e-06
0.00147476
4.60593e-06
0.00147736
4.57977e-06
0.00147992
4.51772e-06
0.00148245
4.45565e-06
0.00148496
4.3917e-06
0.00148743
4.38814e-06
0.00148988
4.30221e-06
0.00149231
4.29255e-06
0.0014947
4.29031e-06
0.00149707
4.23609e-06
0.00149938
4.20209e-06
0.00150168
4.15972e-06
0.00150392
4.14483e-06
0.00150612
4.10382e-06
0.00150827
4.08473e-06
0.00151036
4.05051e-06
0.00151238
4.00165e-06
0.00151433
3.99015e-06
0.00151621
3.94388e-06
0.00151798
3.90996e-06
0.0015197
3.85231e-06
0.00152127
3.81078e-06
0.00152275
3.76521e-06
0.00152412
3.71697e-06
0.00152538
3.64822e-06
0.00152647
3.60097e-06
0.00152741
3.54295e-06
0.00152825
3.48562e-06
0.00152895
3.43032e-06
0.0015295
3.35293e-06
0.00152985
3.26664e-06
0.00153009
3.17387e-06
0.00153021
3.12217e-06
0.00153025
3.02309e-06
0.00153018
2.93235e-06
0.00153002
2.7684e-06
0.00152975
2.65585e-06
0.00152938
2.47235e-06
0.00152892
2.27304e-06
0.00152837
2.1414e-06
0.00152778
2.03275e-06
0.00152715
2.00818e-06
0.00152651
1.92282e-06
0.00152586
1.81318e-06
0.00152521
1.5657e-06
0.00152454
1.32232e-06
0.00152386
1.1413e-06
0.00152319
9.29731e-07
0.0015225
8.20805e-07
0.00152182
6.88593e-07
0.00152114
5.70296e-07
0.00152047
4.88459e-07
0.00151983
3.51018e-07
0.00151925
2.30039e-07
0.0015187
5.45047e-08
0.00151818
-1.12865e-07
0.00151768
-2.95402e-07
0.0015172
-5.13688e-07
0.00151675
-6.98668e-07
0.00151632
-8.6814e-07
0.00151592
-9.6868e-07
0.00151552
-1.00715e-06
0.00151514
-1.05549e-06
0.0015148
-1.12054e-06
0.0015145
-1.27649e-06
0.00151425
-1.44742e-06
0.00151403
-1.58103e-06
0.00151384
-1.71115e-06
0.00151366
-1.81366e-06
0.00151349
-1.89779e-06
0.00151333
-1.97982e-06
0.0015132
-2.11041e-06
0.00151309
-2.22744e-06
0.00151299
-2.52504e-06
0.00151298
-2.82562e-06
0.00151294
-4.16503e-06
0.00151333
-5.40932e-06
-1.32393e-05
0.00151255
0.00154551
2.52586e-06
0.00155064
4.06005e-06
0.00155576
3.84604e-06
0.00156107
4.02555e-06
0.00156645
4.09191e-06
0.00157166
3.89186e-06
0.00157661
3.672e-06
0.00158126
3.37517e-06
0.00158567
3.0874e-06
0.00158983
2.87448e-06
0.00159375
2.60602e-06
0.00159751
2.44215e-06
0.00160108
2.26001e-06
0.00160454
2.13983e-06
0.00160789
2.04475e-06
0.00161115
1.93355e-06
0.00161437
1.91853e-06
0.00161753
1.87621e-06
0.00162063
1.84846e-06
0.00162369
1.78817e-06
0.00162671
1.78089e-06
0.00162968
1.73493e-06
0.00163261
1.6721e-06
0.00163552
1.67048e-06
0.0016384
1.63883e-06
0.00164125
1.61175e-06
0.00164407
1.5668e-06
0.00164689
1.57231e-06
0.00164966
1.52445e-06
0.00165244
1.51945e-06
0.00165519
1.53465e-06
0.00165793
1.49803e-06
0.00166064
1.48959e-06
0.00166334
1.46022e-06
0.00166603
1.46088e-06
0.00166868
1.44978e-06
0.00167132
1.44178e-06
0.00167394
1.43169e-06
0.00167654
1.40486e-06
0.00167911
1.416e-06
0.00168166
1.39452e-06
0.00168418
1.38911e-06
0.00168668
1.35641e-06
0.00168914
1.35052e-06
0.00169157
1.33527e-06
0.00169397
1.32122e-06
0.00169634
1.27928e-06
0.00169865
1.29096e-06
0.00170091
1.28153e-06
0.00170313
1.25803e-06
0.00170532
1.24456e-06
0.00170745
1.22225e-06
0.00170948
1.23774e-06
0.00171145
1.20819e-06
0.00171336
1.21061e-06
0.00171522
1.16208e-06
0.00171702
1.12952e-06
0.00171869
1.09867e-06
0.00172031
1.03673e-06
0.00172179
9.9671e-07
0.0017231
9.62303e-07
0.00172428
9.61247e-07
0.00172533
9.75915e-07
0.00172637
9.71529e-07
0.00172734
9.55959e-07
0.00172829
8.56223e-07
0.00172911
7.50094e-07
0.00172977
6.61199e-07
0.00173034
5.74388e-07
0.00173072
5.42374e-07
0.00173104
5.00389e-07
0.00173128
4.54836e-07
0.00173143
4.23692e-07
0.00173153
3.80704e-07
0.00173157
3.14295e-07
0.0017316
1.97741e-07
0.00173161
4.57433e-08
0.00173158
-7.96882e-08
0.0017315
-2.19061e-07
0.00173135
-3.66803e-07
0.00173113
-4.73189e-07
0.00173083
-5.7224e-07
0.00173048
-6.15723e-07
0.00173011
-6.35683e-07
0.00172974
-6.86795e-07
0.00172939
-7.75453e-07
0.00172907
-9.47845e-07
0.00172874
-1.12378e-06
0.00172841
-1.2487e-06
0.00172806
-1.36323e-06
0.0017277
-1.44903e-06
0.00172731
-1.51365e-06
0.00172691
-1.57547e-06
0.00172648
-1.68383e-06
0.00172604
-1.7895e-06
0.00172558
-2.06291e-06
0.00172516
-2.40363e-06
0.00172468
-3.68844e-06
0.00172454
-5.26513e-06
-1.19921e-05
0.00172329
0.001711
-7.94687e-07
0.00171671
-1.64532e-06
0.00172235
-1.79863e-06
0.0017282
-1.82314e-06
0.00173416
-1.86753e-06
0.00173993
-1.87555e-06
0.0017454
-1.7974e-06
0.00175055
-1.78123e-06
0.00175543
-1.78884e-06
0.00176004
-1.73808e-06
0.00176439
-1.73934e-06
0.00176854
-1.70745e-06
0.0017725
-1.70213e-06
0.00177633
-1.6847e-06
0.00178004
-1.66767e-06
0.00178365
-1.68328e-06
0.00178721
-1.64137e-06
0.00179071
-1.61787e-06
0.00179415
-1.59556e-06
0.00179754
-1.59695e-06
0.00180088
-1.56503e-06
0.00180417
-1.5536e-06
0.00180742
-1.57882e-06
0.00181065
-1.55425e-06
0.00181384
-1.54979e-06
0.00181699
-1.54707e-06
0.00182013
-1.56662e-06
0.00182325
-1.55351e-06
0.00182634
-1.563e-06
0.00182942
-1.56302e-06
0.00183249
-1.53406e-06
0.00183554
-1.54757e-06
0.00183857
-1.53969e-06
0.00184158
-1.55159e-06
0.00184458
-1.53869e-06
0.00184756
-1.5271e-06
0.00185052
-1.52616e-06
0.00185347
-1.51391e-06
0.0018564
-1.52782e-06
0.00185932
-1.50193e-06
0.00186222
-1.50173e-06
0.0018651
-1.49661e-06
0.00186796
-1.50181e-06
0.00187081
-1.4978e-06
0.00187364
-1.49381e-06
0.00187645
-1.49165e-06
0.00187924
-1.51143e-06
0.00188201
-1.48275e-06
0.00188477
-1.47693e-06
0.00188751
-1.48091e-06
0.00189023
-1.47583e-06
0.00189293
-1.47668e-06
0.00189561
-1.44387e-06
0.00189827
-1.44635e-06
0.00190091
-1.42714e-06
0.00190352
-1.45351e-06
0.00190611
-1.45876e-06
0.00190866
-1.45569e-06
0.00191119
-1.49406e-06
0.00191367
-1.47708e-06
0.0019161
-1.46994e-06
0.00191848
-1.42194e-06
0.00192083
-1.36633e-06
0.00192315
-1.35702e-06
0.00192545
-1.34159e-06
0.00192774
-1.42902e-06
0.00192994
-1.44781e-06
0.00193207
-1.46954e-06
0.00193412
-1.48354e-06
0.00193605
-1.38626e-06
0.00193793
-1.38101e-06
0.00193971
-1.32331e-06
0.00194143
-1.29886e-06
0.0019431
-1.2865e-06
0.00194466
-1.24711e-06
0.00194616
-1.29818e-06
0.00194752
-1.31638e-06
0.00194883
-1.3857e-06
0.00195003
-1.4206e-06
0.00195105
-1.39244e-06
0.00195194
-1.35481e-06
0.00195261
-1.24476e-06
0.00195314
-1.14993e-06
0.00195359
-1.0816e-06
0.00195396
-1.05908e-06
0.00195429
-1.10118e-06
0.00195447
-1.13362e-06
0.00195449
-1.14133e-06
0.00195439
-1.15085e-06
0.00195418
-1.14712e-06
0.00195385
-1.12465e-06
0.00195343
-1.0879e-06
0.0019529
-1.04916e-06
0.00195226
-1.04421e-06
0.00195152
-1.04623e-06
0.00195066
-1.20308e-06
0.00194975
-1.49625e-06
0.0019487
-2.63505e-06
0.00194776
-4.32542e-06
-9.98006e-06
0.00194574
0.00171104
-4.14994e-06
0.00171675
-7.36193e-06
0.0017224
-7.44778e-06
0.00172826
-7.67878e-06
0.00173422
-7.82926e-06
0.00173999
-7.64618e-06
0.00174546
-7.26154e-06
0.00175061
-6.93988e-06
0.00175549
-6.6674e-06
0.0017601
-6.34657e-06
0.00176445
-6.09062e-06
0.0017686
-5.85282e-06
0.00177256
-5.66684e-06
0.00177639
-5.50827e-06
0.0017801
-5.38045e-06
0.00178372
-5.30321e-06
0.00178728
-5.19857e-06
0.00179077
-5.11398e-06
0.00179422
-5.0389e-06
0.0017976
-4.98457e-06
0.00180095
-4.90669e-06
0.00180424
-4.84477e-06
0.00180749
-4.83136e-06
0.00181071
-4.77625e-06
0.0018139
-4.7392e-06
0.00181706
-4.7067e-06
0.00182019
-4.70097e-06
0.00182332
-4.67634e-06
0.00182641
-4.65422e-06
0.00182949
-4.64423e-06
0.00183256
-4.60201e-06
0.0018356
-4.59351e-06
0.00183863
-4.56755e-06
0.00184164
-4.56461e-06
0.00184464
-4.53488e-06
0.00184762
-4.50453e-06
0.00185058
-4.49175e-06
0.00185353
-4.45605e-06
0.00185646
-4.45965e-06
0.00185937
-4.41519e-06
0.00186226
-4.3948e-06
0.00186514
-4.37556e-06
0.001868
-4.35513e-06
0.00187084
-4.34043e-06
0.00187366
-4.31386e-06
0.00187646
-4.29587e-06
0.00187924
-4.28681e-06
0.001882
-4.24723e-06
0.00188475
-4.22329e-06
0.00188747
-4.20054e-06
0.00189017
-4.17675e-06
0.00189284
-4.14474e-06
0.0018955
-4.10844e-06
0.00189813
-4.07373e-06
0.00190074
-4.03285e-06
0.00190331
-4.02787e-06
0.00190584
-3.99113e-06
0.00190835
-3.96236e-06
0.0019108
-3.94335e-06
0.00191322
-3.89515e-06
0.00191559
-3.84105e-06
0.0019179
-3.73824e-06
0.00192019
-3.65599e-06
0.00192242
-3.58375e-06
0.00192462
-3.53714e-06
0.00192672
-3.53683e-06
0.00192875
-3.47086e-06
0.0019307
-3.42524e-06
0.00193256
-3.33882e-06
0.00193435
-3.17763e-06
0.00193604
-3.07083e-06
0.00193765
-2.93594e-06
0.00193918
-2.82656e-06
0.0019406
-2.7114e-06
0.00194196
-2.59979e-06
0.00194318
-2.51736e-06
0.00194427
-2.4154e-06
0.00194526
-2.37491e-06
0.00194613
-2.28269e-06
0.00194686
-2.12336e-06
0.00194746
-1.95415e-06
0.00194792
-1.71331e-06
0.00194829
-1.51465e-06
0.00194857
-1.36669e-06
0.00194879
-1.27531e-06
0.0019489
-1.21493e-06
0.00194889
-1.12243e-06
0.00194878
-1.02576e-06
0.00194855
-9.27232e-07
0.00194823
-8.1863e-07
0.0019478
-7.03916e-07
0.0019473
-5.83806e-07
0.00194672
-4.65433e-07
0.00194604
-3.71775e-07
0.00194529
-2.90165e-07
0.00194443
-3.44127e-07
0.0019435
-5.65473e-07
0.0019424
-1.53371e-06
0.00194123
-3.15971e-06
-7.87095e-06
0.00193912
0.0015456
-7.37386e-06
0.00155077
-1.25235e-05
0.00155589
-1.2571e-05
0.00156122
-1.30087e-05
0.00156661
-1.32202e-05
0.00157183
-1.28625e-05
0.00157676
-1.21954e-05
0.00158142
-1.16018e-05
0.00158583
-1.10756e-05
0.00158999
-1.05062e-05
0.00159392
-1.00233e-05
0.00159767
-9.595e-06
0.00160125
-9.24791e-06
0.0016047
-8.96158e-06
0.00160805
-8.73332e-06
0.00161132
-8.57493e-06
0.00161454
-8.41012e-06
0.00161769
-8.27145e-06
0.0016208
-8.14932e-06
0.00162386
-8.04416e-06
0.00162688
-7.92105e-06
0.00162985
-7.81589e-06
0.00163278
-7.76751e-06
0.00163569
-7.68089e-06
0.00163856
-7.61409e-06
0.00164141
-7.55473e-06
0.00164423
-7.52185e-06
0.00164704
-7.48494e-06
0.00164982
-7.43694e-06
0.00165259
-7.40888e-06
0.00165534
-7.35147e-06
0.00165807
-7.323e-06
0.00166078
-7.27679e-06
0.00166346
-7.251e-06
0.00166613
-7.20329e-06
0.00166878
-7.15195e-06
0.0016714
-7.1139e-06
0.001674
-7.0555e-06
0.00167658
-7.03387e-06
0.00167912
-6.96057e-06
0.00168164
-6.91507e-06
0.00168412
-6.85294e-06
0.00168657
-6.80442e-06
0.00168898
-6.75264e-06
0.00169135
-6.67891e-06
0.00169367
-6.62316e-06
0.00169594
-6.55167e-06
0.00169817
-6.47945e-06
0.00170033
-6.38117e-06
0.00170243
-6.30224e-06
0.00170446
-6.21125e-06
0.00170641
-6.09256e-06
0.00170829
-5.99132e-06
0.00171007
-5.85417e-06
0.00171179
-5.75163e-06
0.00171338
-5.61252e-06
0.00171488
-5.48897e-06
0.00171626
-5.34854e-06
0.00171752
-5.19673e-06
0.00171867
-5.04906e-06
0.00171967
-4.84336e-06
0.00172059
-4.65685e-06
0.00172137
-4.43375e-06
0.00172203
-4.2451e-06
0.00172259
-4.09448e-06
0.001723
-3.95084e-06
0.00172334
-3.81134e-06
0.00172355
-3.63131e-06
0.00172367
-3.45884e-06
0.00172372
-3.23467e-06
0.00172369
-3.03204e-06
0.00172359
-2.84351e-06
0.00172343
-2.66488e-06
0.00172322
-2.49489e-06
0.00172295
-2.33285e-06
0.00172263
-2.19631e-06
0.00172227
-2.06017e-06
0.00172186
-1.96654e-06
0.00172142
-1.83836e-06
0.00172095
-1.65435e-06
0.00172046
-1.46579e-06
0.00171998
-1.23585e-06
0.00171952
-1.04544e-06
0.00171905
-9.05032e-07
0.00171859
-8.10885e-07
0.00171812
-7.42502e-07
0.00171764
-6.4599e-07
0.00171716
-5.445e-07
0.00171667
-4.43069e-07
0.00171619
-3.32409e-07
0.0017157
-2.17106e-07
0.00171522
-9.80465e-08
0.00171473
1.91766e-08
0.00171425
1.11159e-07
0.00171377
1.87237e-07
0.00171327
1.53705e-07
0.00171275
-4.29738e-08
0.00171211
-8.90597e-07
0.00171133
-2.3846e-06
-6.33488e-06
0.0017098
0.00139628
-1.05774e-05
0.00140093
-1.71719e-05
0.0014056
-1.72348e-05
0.00141046
-1.78755e-05
0.00141534
-1.80969e-05
0.00142005
-1.75778e-05
0.00142451
-1.66528e-05
0.00142873
-1.58157e-05
0.00143271
-1.50579e-05
0.00143646
-1.42627e-05
0.00144002
-1.35737e-05
0.00144339
-1.29745e-05
0.00144663
-1.24785e-05
0.00144974
-1.20782e-05
0.00145277
-1.17576e-05
0.00145572
-1.15247e-05
0.00145861
-1.13039e-05
0.00146145
-1.11103e-05
0.00146425
-1.0948e-05
0.00146699
-1.07877e-05
0.00146969
-1.06216e-05
0.00147235
-1.04737e-05
0.00147497
-1.03863e-05
0.00147755
-1.02645e-05
0.0014801
-1.01666e-05
0.00148262
-1.00755e-05
0.0014851
-1.00009e-05
0.00148757
-9.95126e-06