/*--------------------------------*- C++ -*----------------------------------*\
| =========                 |                                                 |
| \\      /  F ield         | OpenFOAM: The Open Source CFD Toolbox           |
|  \\    /   O peration     | Version:  v2012                                 |
|   \\  /    A nd           | Website:  www.openfoam.com                      |
|    \\/     M anipulation  |                                                 |
\*---------------------------------------------------------------------------*/
FoamFile
{
    version     2.0;
    format      ascii;
    class       Cloud<basicKinematicParcel>;
    location    "0.005/lagrangian/kinematicCloud";
    object      coordinates;
}
// * * * * * * * * * * * * * * * * * * * * * * * * * * * * * * * * * * * * * //

4
(
(0.0870062 0.456497 0.0904626 0.366034) 18 17 1
(0.0591499 0.393948 0.0764769 0.470425) 35 70 1
(0.148249 0.230387 0.195488 0.425876) 53 106 1
(0.179741 0.0146598 0.395469 0.410129) 21 23 2
)


// ************************************************************************* //
