/*--------------------------------*- C++ -*----------------------------------*\
| =========                 |                                                 |
| \\      /  F ield         | OpenFOAM: The Open Source CFD Toolbox           |
|  \\    /   O peration     | Version:  v2012                                 |
|   \\  /    A nd           | Website:  www.openfoam.com                      |
|    \\/     M anipulation  |                                                 |
\*---------------------------------------------------------------------------*/
FoamFile
{
    version     2.0;
    format      ascii;
    class       volScalarField;
    location    "0.298";
    object      p;
}
// * * * * * * * * * * * * * * * * * * * * * * * * * * * * * * * * * * * * * //

dimensions      [0 2 -2 0 0 0 0];


internalField   nonuniform List<scalar> 
5600
(
-0.597102
-1.05527
-1.43572
-1.75424
-2.06508
-2.37532
-2.67669
-2.95845
-3.22148
-3.47168
-3.70824
-3.9329
-4.14736
-4.35362
-4.55389
-4.74966
-4.942
-5.13173
-5.31888
-5.50387
-5.68661
-5.86698
-6.04471
-6.22101
-6.39588
-6.56937
-6.74167
-6.91293
-7.08368
-7.25396
-7.4237
-7.59266
-7.76087
-7.92861
-8.09592
-8.26252
-8.42859
-8.59399
-8.75886
-8.92304
-9.08668
-9.24974
-9.41216
-9.57388
-9.73513
-9.89584
-10.0561
-10.2158
-10.3751
-10.5338
-10.6921
-10.85
-11.0073
-11.1642
-11.3207
-11.4768
-11.6325
-11.7877
-11.9425
-12.0968
-12.2508
-12.4044
-12.5576
-12.7104
-12.8629
-13.015
-13.1667
-13.318
-13.4691
-13.6199
-13.7703
-13.9204
-14.0703
-14.2199
-14.3691
-14.5181
-14.6668
-14.8153
-14.9635
-15.1115
-15.2592
-15.4069
-15.5542
-15.7014
-15.8483
-15.995
-16.1415
-16.2881
-16.4343
-16.5802
-16.726
-16.8715
-17.0175
-17.1632
-17.3096
-17.4562
-17.6053
-17.758
-17.9135
-18.1486
-0.656136
-1.07545
-1.45233
-1.77205
-2.08307
-2.39365
-2.69495
-2.97696
-3.24035
-3.4906
-3.72738
-3.95235
-4.16714
-4.37378
-4.5744
-4.77049
-4.96312
-5.15309
-5.34042
-5.52548
-5.70844
-5.8889
-6.06669
-6.24311
-6.41811
-6.59172
-6.76413
-6.93547
-7.10632
-7.27669
-7.44652
-7.61554
-7.78378
-7.95155
-8.1189
-8.28552
-8.45163
-8.61706
-8.78196
-8.94617
-9.10985
-9.27293
-9.43539
-9.59713
-9.75842
-9.91913
-10.0794
-10.2391
-10.3984
-10.5571
-10.7155
-10.8733
-11.0306
-11.1875
-11.344
-11.5001
-11.6558
-11.811
-11.9657
-12.12
-12.274
-12.4276
-12.5808
-12.7336
-12.8861
-13.0381
-13.1899
-13.3412
-13.4923
-13.643
-13.7934
-13.9436
-14.0934
-14.243
-14.3922
-14.5412
-14.6899
-14.8384
-14.9866
-15.1346
-15.2823
-15.43
-15.5772
-15.7245
-15.8713
-16.0181
-16.1646
-16.3112
-16.4573
-16.6034
-16.7489
-16.8948
-17.0403
-17.1867
-17.332
-17.4803
-17.6263
-17.7831
-17.9336
-18.1615
-0.694382
-1.08808
-1.46508
-1.78541
-2.09429
-2.40236
-2.70257
-2.98418
-3.24734
-3.49727
-3.73377
-3.95883
-4.17364
-4.38027
-4.5809
-4.77704
-4.96967
-5.15966
-5.34698
-5.53207
-5.71501
-5.89553
-6.07348
-6.24994
-6.42486
-6.59845
-6.77078
-6.94213
-7.11288
-7.28321
-7.45295
-7.62193
-7.79021
-7.95799
-8.12532
-8.29193
-8.45801
-8.62341
-8.78828
-8.95244
-9.11606
-9.27909
-9.44147
-9.60313
-9.76434
-9.92506
-10.0853
-10.245
-10.4043
-10.5631
-10.7214
-10.8793
-11.0366
-11.1935
-11.3501
-11.5062
-11.662
-11.8173
-11.9721
-12.1265
-12.2805
-12.4341
-12.5874
-12.7403
-12.8928
-13.0449
-13.1967
-13.3481
-13.4992
-13.6499
-13.8004
-13.9506
-14.1005
-14.25
-14.3993
-14.5484
-14.6971
-14.8456
-14.9938
-15.1419
-15.2896
-15.4372
-15.5845
-15.7318
-15.8786
-16.0254
-16.1719
-16.3185
-16.4647
-16.6108
-16.7563
-16.9022
-17.0477
-17.1942
-17.3395
-17.4878
-17.6343
-17.7917
-17.9412
-18.1615
-0.743106
-1.10455
-1.48047
-1.80226
-2.10986
-2.41699
-2.71758
-2.99981
-3.26361
-3.51386
-3.75092
-3.97601
-4.19129
-4.39813
-4.5988
-4.79486
-4.98736
-5.17709
-5.36412
-5.54889
-5.73168
-5.91211
-6.09008
-6.26664
-6.44166
-6.61554
-6.78824
-6.95993
-7.13091
-7.30146
-7.47138
-7.6405
-7.80879
-7.97665
-8.14404
-8.31074
-8.47691
-8.64241
-8.80738
-8.97167
-9.13542
-9.29862
-9.46118
-9.62304
-9.78443
-9.94517
-10.1055
-10.2653
-10.4246
-10.5834
-10.7418
-10.8997
-11.0571
-11.2141
-11.3706
-11.5266
-11.6824
-11.8375
-11.9922
-12.1465
-12.3004
-12.454
-12.6072
-12.7599
-12.9124
-13.0644
-13.2162
-13.3675
-13.5186
-13.6693
-13.8197
-13.9698
-14.1197
-14.2692
-14.4184
-14.5675
-14.7162
-14.8647
-15.0128
-15.1608
-15.3086
-15.4562
-15.6035
-15.7507
-15.8976
-16.0443
-16.1908
-16.3373
-16.4835
-16.6295
-16.7752
-16.9209
-17.0667
-17.2127
-17.3584
-17.5059
-17.653
-17.8084
-17.9629
-18.1626
-0.792736
-1.12167
-1.49622
-1.82045
-2.12645
-2.43274
-2.73304
-3.01509
-3.27891
-3.52896
-3.76624
-3.9911
-4.20656
-4.41364
-4.6145
-4.81074
-5.00342
-5.19327
-5.38046
-5.56532
-5.74808
-5.92853
-6.10648
-6.28289
-6.45774
-6.63144
-6.80393
-6.97544
-7.14617
-7.31663
-7.48644
-7.65555
-7.8239
-7.99186
-8.15925
-8.32599
-8.49214
-8.65765
-8.82257
-8.98685
-9.1505
-9.31363
-9.47602
-9.63783
-9.79911
-9.95984
-10.1201
-10.2798
-10.4391
-10.5978
-10.7562
-10.914
-11.0713
-11.2282
-11.3847
-11.5409
-11.6967
-11.8519
-12.0068
-12.1611
-12.3151
-12.4688
-12.6221
-12.775
-12.9276
-13.0797
-13.2315
-13.3829
-13.5341
-13.6848
-13.8353
-13.9855
-14.1354
-14.285
-14.4343
-14.5833
-14.7321
-14.8806
-15.0288
-15.1768
-15.3246
-15.4722
-15.6196
-15.7668
-15.9137
-16.0604
-16.2071
-16.3535
-16.4998
-16.6458
-16.7915
-16.9372
-17.083
-17.229
-17.3747
-17.5222
-17.6691
-17.8242
-17.9757
-18.1687
-0.842775
-1.14099
-1.51351
-1.8407
-2.14508
-2.4504
-2.75033
-3.0324
-3.29645
-3.54669
-3.7842
-4.00942
-4.22515
-4.4325
-4.63356
-4.82992
-5.02271
-5.21255
-5.39979
-5.58468
-5.76725
-5.9477
-6.12571
-6.30217
-6.47708
-6.65082
-6.82335
-6.9949
-7.16568
-7.33599
-7.50583
-7.67487
-7.8432
-8.01104
-8.17832
-8.34497
-8.51104
-8.6765
-8.84136
-9.00562
-9.16927
-9.3326
-9.49506
-9.65696
-9.8183
-9.97912
-10.1394
-10.2993
-10.4586
-10.6174
-10.7759
-10.9338
-11.0912
-11.2481
-11.4047
-11.5608
-11.7166
-11.8718
-12.0267
-12.181
-12.3351
-12.4886
-12.6418
-12.7946
-12.9471
-13.0992
-13.251
-13.4023
-13.5534
-13.7041
-13.8546
-14.0048
-14.1546
-14.3042
-14.4535
-14.6025
-14.7513
-14.8998
-15.048
-15.196
-15.3438
-15.4914
-15.6388
-15.786
-15.9329
-16.0796
-16.2262
-16.3727
-16.5189
-16.665
-16.8107
-16.9564
-17.1021
-17.2481
-17.3938
-17.5411
-17.6878
-17.8416
-17.992
-18.1764
-0.892194
-1.1628
-1.53257
-1.86299
-2.16591
-2.47019
-2.76982
-3.05197
-3.31621
-3.56656
-3.80419
-4.02965
-4.24546
-4.45297
-4.65416
-4.85061
-5.04346
-5.23335
-5.42062
-5.60552
-5.7881
-5.96856
-6.14665
-6.32312
-6.49809
-6.67182
-6.84438
-7.01593
-7.18682
-7.35702
-7.52688
-7.69592
-7.86429
-8.03211
-8.1994
-8.36604
-8.5321
-8.69755
-8.86236
-9.02662
-9.19021
-9.35349
-9.51592
-9.67774
-9.83899
-9.99973
-10.16
-10.3197
-10.479
-10.6378
-10.7961
-10.954
-11.1114
-11.2684
-11.4249
-11.5811
-11.7369
-11.8922
-12.047
-12.2014
-12.3554
-12.509
-12.6622
-12.8151
-12.9677
-13.1198
-13.2715
-13.4229
-13.5741
-13.7248
-13.8753
-14.0255
-14.1754
-14.3249
-14.4742
-14.6233
-14.7721
-14.9206
-15.0688
-15.2169
-15.3647
-15.5123
-15.6597
-15.8068
-15.9538
-16.1006
-16.2471
-16.3936
-16.5399
-16.6859
-16.8316
-16.9773
-17.1231
-17.269
-17.4147
-17.5617
-17.7083
-17.8604
-18.0093
-18.1842
-0.939171
-1.1873
-1.55398
-1.88746
-2.18916
-2.49245
-2.79187
-3.07409
-3.33845
-3.58888
-3.82662
-4.05229
-4.26819
-4.47589
-4.67722
-4.87381
-5.06674
-5.25668
-5.44398
-5.62889
-5.81149
-5.99191
-6.17005
-6.34652
-6.52152
-6.69524
-6.86782
-7.03939
-7.2103
-7.38053
-7.55036
-7.71941
-7.88779
-8.0556
-8.2229
-8.38954
-8.5556
-8.72105
-8.88586
-9.05018
-9.21382
-9.37694
-9.5394
-9.70121
-9.86249
-10.0232
-10.1835
-10.3432
-10.5025
-10.6612
-10.8195
-10.9774
-11.1347
-11.2918
-11.4483
-11.6044
-11.7602
-11.9154
-12.0702
-12.2245
-12.3785
-12.5321
-12.6853
-12.8382
-12.9907
-13.1428
-13.2946
-13.446
-13.5972
-13.7479
-13.8984
-14.0486
-14.1985
-14.3481
-14.4974
-14.6465
-14.7953
-14.9437
-15.092
-15.24
-15.3878
-15.5354
-15.6828
-15.83
-15.9769
-16.1237
-16.2702
-16.4167
-16.563
-16.709
-16.8547
-17.0005
-17.1462
-17.2921
-17.4377
-17.5843
-17.7306
-17.8809
-18.0277
-18.1925
-0.982151
-1.21437
-1.57831
-1.91425
-2.21506
-2.51753
-2.81681
-3.09905
-3.36349
-3.61401
-3.85184
-4.07768
-4.29366
-4.50149
-4.70294
-4.8996
-5.09257
-5.28253
-5.46984
-5.65477
-5.83736
-6.01774
-6.19591
-6.3724
-6.54742
-6.72115
-6.89373
-7.06533
-7.23627
-7.40652
-7.5763
-7.74536
-7.91376
-8.08157
-8.24886
-8.41551
-8.58156
-8.74701
-8.91182
-9.07614
-9.23978
-9.40286
-9.56535
-9.72718
-9.88846
-10.0492
-10.2094
-10.3692
-10.5284
-10.6872
-10.8455
-11.0034
-11.1607
-11.3178
-11.4743
-11.6304
-11.7861
-11.9413
-12.0961
-12.2504
-12.4044
-12.558
-12.7112
-12.864
-13.0165
-13.1685
-13.3203
-13.4718
-13.6229
-13.7737
-13.9241
-14.0743
-14.2241
-14.3737
-14.5229
-14.6719
-14.8207
-14.9693
-15.1175
-15.2655
-15.4133
-15.5609
-15.7083
-15.8555
-16.0024
-16.1492
-16.2957
-16.4422
-16.5885
-16.7345
-16.8803
-17.026
-17.1717
-17.3175
-17.4631
-17.6094
-17.755
-17.9035
-18.0475
-18.2014
-1.01933
-1.24357
-1.60615
-1.94352
-2.2438
-2.54584
-2.84506
-3.12726
-3.39176
-3.64236
-3.88024
-4.10616
-4.32218
-4.53008
-4.73159
-4.9283
-5.1213
-5.31129
-5.49861
-5.68357
-5.86615
-6.04648
-6.22467
-6.40118
-6.57622
-6.74994
-6.92253
-7.09413
-7.2651
-7.43538
-7.60511
-7.77416
-7.94258
-8.11041
-8.27768
-8.44434
-8.61038
-8.77584
-8.94064
-9.10498
-9.26863
-9.43169
-9.59417
-9.75601
-9.91729
-10.078
-10.2383
-10.398
-10.5572
-10.716
-10.8743
-11.0322
-11.1896
-11.3466
-11.5031
-11.6592
-11.8149
-11.9701
-12.1249
-12.2793
-12.4332
-12.5868
-12.74
-12.8928
-13.0453
-13.1974
-13.3492
-13.5006
-13.6517
-13.8025
-13.9529
-14.1031
-14.2529
-14.4025
-14.5517
-14.7007
-14.8495
-14.998
-15.1462
-15.2942
-15.442
-15.5895
-15.7369
-15.884
-16.031
-16.1777
-16.3242
-16.4707
-16.617
-16.763
-16.9087
-17.0545
-17.2001
-17.3459
-17.4913
-17.6371
-17.7821
-17.9284
-18.0693
-18.2121
-1.04669
-1.27286
-1.63657
-1.97387
-2.27403
-2.57623
-2.87552
-3.15759
-3.42209
-3.67274
-3.91061
-4.13652
-4.35253
-4.56041
-4.76193
-4.95866
-5.15166
-5.34166
-5.52896
-5.71395
-5.89651
-6.07678
-6.25498
-6.43149
-6.60654
-6.78025
-6.95282
-7.12442
-7.29543
-7.46572
-7.6354
-7.80446
-7.97289
-8.14073
-8.308
-8.47466
-8.6407
-8.80615
-8.97094
-9.13532
-9.29896
-9.46201
-9.62448
-9.78632
-9.9476
-10.1083
-10.2686
-10.4283
-10.5876
-10.7463
-10.9046
-11.0625
-11.2198
-11.377
-11.5335
-11.6896
-11.8452
-12.0004
-12.1552
-12.3096
-12.4636
-12.6171
-12.7703
-12.9231
-13.0756
-13.2277
-13.3795
-13.531
-13.682
-13.8328
-13.9832
-14.1334
-14.2832
-14.4328
-14.582
-14.731
-14.8798
-15.0283
-15.1765
-15.3245
-15.4722
-15.6198
-15.7672
-15.9143
-16.0613
-16.208
-16.3546
-16.501
-16.6473
-16.7933
-16.9391
-17.0848
-17.2304
-17.3761
-17.5214
-17.6668
-17.8111
-17.9551
-18.0928
-18.226
-1.06148
-1.29951
-1.66662
-2.00234
-2.30281
-2.60576
-2.90523
-3.18709
-3.45155
-3.70224
-3.94003
-4.16583
-4.38177
-4.58955
-4.79103
-4.98772
-5.1807
-5.37068
-5.55796
-5.74298
-5.92551
-6.10572
-6.2839
-6.46042
-6.63547
-6.80917
-6.98173
-7.15331
-7.32438
-7.49466
-7.66432
-7.83337
-8.00181
-8.16965
-8.33692
-8.50358
-8.66961
-8.83507
-8.99983
-9.16425
-9.32788
-9.49091
-9.65337
-9.81522
-9.9765
-10.1372
-10.2975
-10.4572
-10.6165
-10.7752
-10.9336
-11.0915
-11.2488
-11.4059
-11.5624
-11.7185
-11.8741
-12.0293
-12.1841
-12.3385
-12.4924
-12.646
-12.7992
-12.952
-13.1045
-13.2566
-13.4084
-13.5598
-13.7109
-13.8617
-14.0122
-14.1624
-14.3122
-14.4618
-14.611
-14.7601
-14.9089
-15.0574
-15.2056
-15.3536
-15.5014
-15.649
-15.7964
-15.9435
-16.0905
-16.2372
-16.3839
-16.5303
-16.6767
-16.8227
-16.9686
-17.1143
-17.2599
-17.4054
-17.5506
-17.6956
-17.8392
-17.9814
-18.1162
-18.2421
-1.06519
-1.32308
-1.69466
-2.02769
-2.32887
-2.63294
-2.93265
-3.21423
-3.47865
-3.72936
-3.96701
-4.19264
-4.40848
-4.6161
-4.81748
-5.0141
-5.20704
-5.39702
-5.58425
-5.76931
-5.95181
-6.13195
-6.31011
-6.48661
-6.66166
-6.83534
-7.00788
-7.17942
-7.35054
-7.52081
-7.69044
-7.85948
-8.02794
-8.19578
-8.36305
-8.52971
-8.69575
-8.86121
-9.02597
-9.19042
-9.35405
-9.51705
-9.67951
-9.84135
-10.0026
-10.1634
-10.3236
-10.4833
-10.6426
-10.8013
-10.9596
-11.1175
-11.2749
-11.432
-11.5885
-11.7446
-11.9003
-12.0555
-12.2103
-12.3647
-12.5187
-12.6723
-12.8255
-12.9784
-13.1308
-13.283
-13.4348
-13.5862
-13.7374
-13.8881
-14.0387
-14.1889
-14.3388
-14.4884
-14.6376
-14.7867
-14.9355
-15.084
-15.2323
-15.3803
-15.5281
-15.6756
-15.8229
-15.9701
-16.117
-16.2637
-16.4103
-16.5567
-16.7029
-16.8489
-16.9948
-17.1406
-17.2862
-17.4318
-17.5769
-17.7216
-17.8645
-18.0054
-18.1381
-18.2586
-1.06011
-1.3444
-1.72063
-2.05034
-2.35257
-2.65792
-2.95792
-3.23915
-3.5035
-3.75422
-3.9917
-4.21714
-4.43285
-4.6403
-4.84153
-5.03807
-5.23094
-5.4209
-5.60808
-5.79319
-5.97566
-6.15573
-6.33386
-6.51036
-6.6854
-6.85905
-7.03156
-7.20307
-7.37424
-7.54448
-7.7141
-7.88314
-8.0516
-8.21943
-8.38669
-8.55333
-8.71937
-8.88476
-9.04957
-9.21405
-9.37766
-9.54067
-9.70312
-9.86498
-10.0263
-10.187
-10.3473
-10.507
-10.6663
-10.8251
-10.9834
-11.1413
-11.2988
-11.4559
-11.6125
-11.7686
-11.9243
-12.0796
-12.2344
-12.3888
-12.5429
-12.6965
-12.8497
-13.0025
-13.155
-13.307
-13.4588
-13.6103
-13.7614
-13.9122
-14.0627
-14.2129
-14.3628
-14.5124
-14.6616
-14.8107
-14.9595
-15.108
-15.2563
-15.4043
-15.5521
-15.6997
-15.847
-15.9942
-16.1412
-16.288
-16.4347
-16.5813
-16.7276
-16.8736
-17.0192
-17.1649
-17.3105
-17.456
-17.601
-17.7456
-17.8884
-18.0274
-18.1585
-18.2751
-1.04878
-1.36386
-1.74426
-2.07057
-2.37411
-2.68082
-2.98121
-3.26208
-3.52635
-3.77703
-4.01433
-4.23947
-4.45501
-4.66227
-4.86336
-5.05978
-5.25257
-5.44249
-5.62961
-5.81475
-5.99715
-6.17716
-6.35523
-6.53173
-6.70675
-6.88041
-7.05282
-7.22437
-7.39556
-7.56577
-7.73537
-7.90441
-8.0729
-8.24075
-8.40803
-8.57468
-8.74078
-8.90617
-9.07113
-9.23555
-9.39918
-9.56226
-9.72478
-9.8867
-10.048
-10.2089
-10.3692
-10.529
-10.6883
-10.8471
-11.0054
-11.1632
-11.3207
-11.4777
-11.6343
-11.7904
-11.9461
-12.1013
-12.2562
-12.4106
-12.5646
-12.7182
-12.8714
-13.0242
-13.1766
-13.3287
-13.4805
-13.632
-13.7831
-13.9338
-14.0843
-14.2345
-14.3843
-14.5339
-14.6832
-14.8322
-14.9809
-15.1294
-15.2777
-15.4257
-15.5734
-15.7209
-15.8682
-16.0153
-16.1622
-16.3088
-16.4553
-16.6016
-16.7479
-16.8939
-17.0398
-17.1856
-17.3312
-17.4768
-17.6217
-17.7659
-17.908
-18.0474
-18.1774
-18.2912
-1.03325
-1.38184
-1.76549
-2.08874
-2.39366
-2.7016
-3.00246
-3.28299
-3.54726
-3.79788
-4.03506
-4.25995
-4.4752
-4.68225
-4.88325
-5.07956
-5.27232
-5.46215
-5.64935
-5.83451
-6.01688
-6.19681
-6.3748
-6.55126
-6.72621
-6.89985
-7.07222
-7.24387
-7.41504
-7.5853
-7.75492
-7.92399
-8.09259
-8.26056
-8.42794
-8.59469
-8.76086
-8.92634
-9.09132
-9.25565
-9.41923
-9.58229
-9.7448
-9.9067
-10.068
-10.2288
-10.3891
-10.5489
-10.7082
-10.867
-11.0253
-11.1831
-11.3406
-11.4977
-11.6542
-11.8103
-11.966
-12.1213
-12.2761
-12.4305
-12.5845
-12.7381
-12.8914
-13.0442
-13.1966
-13.3487
-13.5005
-13.652
-13.8031
-13.9539
-14.1044
-14.2546
-14.4045
-14.5541
-14.7034
-14.8524
-15.0012
-15.1497
-15.298
-15.4461
-15.5939
-15.7415
-15.8888
-16.036
-16.183
-16.3299
-16.4766
-16.6231
-16.7694
-16.9154
-17.0612
-17.2069
-17.3524
-17.4979
-17.6427
-17.787
-17.9288
-18.0661
-18.195
-18.3069
-1.01451
-1.39853
-1.78455
-2.10559
-2.41184
-2.72069
-3.02177
-3.30179
-3.56604
-3.81645
-4.0533
-4.27844
-4.49323
-4.6999
-4.90068
-5.09678
-5.28942
-5.47908
-5.66634
-5.85136
-6.03375
-6.21374
-6.39186
-6.5685
-6.74361
-6.91735
-7.0899
-7.26169
-7.43292
-7.60325
-7.77282
-7.94178
-8.11031
-8.2782
-8.44551
-8.6122
-8.7783
-8.94373
-9.10864
-9.27294
-9.43651
-9.59952
-9.76195
-9.92379
-10.0851
-10.2458
-10.4061
-10.5658
-10.7251
-10.8839
-11.0421
-11.1999
-11.3573
-11.5144
-11.6709
-11.8269
-11.9826
-12.1378
-12.2926
-12.4469
-12.6009
-12.7544
-12.9076
-13.0604
-13.2128
-13.3648
-13.5166
-13.668
-13.819
-13.9698
-14.1202
-14.2703
-14.4201
-14.5696
-14.7189
-14.8678
-15.0165
-15.165
-15.3132
-15.4612
-15.6089
-15.7564
-15.9037
-16.0507
-16.1976
-16.3443
-16.4908
-16.6371
-16.7833
-16.9294
-17.0751
-17.2208
-17.3664
-17.5119
-17.6567
-17.8009
-17.9431
-18.0815
-18.2103
-18.3214
-0.993653
-1.41287
-1.80013
-2.12054
-2.42871
-2.73917
-3.04058
-3.32013
-3.5844
-3.83468
-4.07127
-4.29669
-4.51114
-4.71767
-4.91846
-5.11468
-5.3075
-5.49752
-5.68509
-5.87036
-6.05294
-6.23299
-6.4112
-6.58782
-6.76285
-6.93637
-7.10871
-7.28039
-7.45155
-7.62185
-7.79143
-7.96043
-8.12897
-8.29689
-8.46422
-8.63094
-8.79706
-8.96253
-9.12746
-9.29178
-9.45538
-9.61839
-9.7808
-9.94264
-10.104
-10.2647
-10.425
-10.5848
-10.7441
-10.9029
-11.0611
-11.2189
-11.3764
-11.5335
-11.69
-11.8461
-12.0018
-12.1571
-12.3119
-12.4663
-12.6203
-12.7739
-12.9271
-13.0799
-13.2324
-13.3845
-13.5363
-13.6877
-13.8389
-13.9896
-14.1401
-14.2903
-14.4402
-14.5897
-14.739
-14.888
-15.0368
-15.1853
-15.3336
-15.4816
-15.6294
-15.777
-15.9243
-16.0715
-16.2184
-16.3652
-16.5118
-16.6583
-16.8046
-16.9506
-17.0964
-17.2421
-17.3877
-17.5331
-17.6779
-17.822
-17.9635
-18.1005
-18.2279
-18.3375
-0.97905
-1.42745
-1.81237
-2.13009
-2.43907
-2.75131
-3.05324
-3.33224
-3.59669
-3.84695
-4.08344
-4.30847
-4.52274
-4.72916
-4.92983
-5.12595
-5.31865
-5.50854
-5.69599
-5.88108
-6.06336
-6.243
-6.421
-6.59742
-6.77233
-6.94572
-7.11787
-7.28944
-7.46051
-7.63073
-7.80024
-7.96915
-8.1376
-8.30544
-8.47269
-8.63933
-8.80539
-8.97079
-9.13564
-9.2999
-9.46344
-9.6264
-9.78877
-9.95057
-10.1118
-10.2726
-10.4328
-10.5925
-10.7517
-10.9105
-11.0687
-11.2265
-11.3839
-11.5409
-11.6974
-11.8535
-12.0091
-12.1643
-12.3191
-12.4735
-12.6274
-12.781
-12.9342
-13.0869
-13.2393
-13.3914
-13.5431
-13.6946
-13.8456
-13.9964
-14.1468
-14.297
-14.4468
-14.5963
-14.7455
-14.8945
-15.0432
-15.1917
-15.3399
-15.4879
-15.6357
-15.7832
-15.9305
-16.0776
-16.2245
-16.3712
-16.5178
-16.6642
-16.8104
-16.9564
-17.1022
-17.2479
-17.3935
-17.5389
-17.6837
-17.8279
-17.9697
-18.1075
-18.2353
-18.3455
-0.948576
-1.44227
-1.83599
-2.15424
-2.46341
-2.77617
-3.07886
-3.35689
-3.62166
-3.87204
-4.10842
-4.33325
-4.54732
-4.75345
-4.95385
-5.14974
-5.34226
-5.532
-5.71935
-5.90437
-6.08668
-6.26638
-6.44435
-6.62075
-6.7956
-6.96899
-7.14113
-7.31267
-7.48369
-7.65387
-7.82335
-7.99225
-8.16069
-8.32852
-8.49577
-8.66241
-8.82846
-8.99387
-9.15873
-9.32299
-9.48653
-9.64949
-9.81186
-9.97367
-10.1349
-10.2957
-10.4559
-10.6156
-10.7749
-10.9336
-11.0919
-11.2496
-11.4071
-11.5641
-11.7206
-11.8767
-12.0323
-12.1875
-12.3423
-12.4967
-12.6506
-12.8042
-12.9574
-13.1102
-13.2626
-13.4147
-13.5664
-13.7178
-13.8689
-14.0196
-14.1701
-14.3203
-14.4701
-14.6196
-14.7689
-14.9179
-15.0666
-15.2151
-15.3633
-15.5113
-15.659
-15.8066
-15.9539
-16.101
-16.2479
-16.3947
-16.5412
-16.6877
-16.8339
-16.9799
-17.1257
-17.2714
-17.4169
-17.5624
-17.7072
-17.8513
-17.993
-18.1304
-18.258
-18.3677
-18.1515
-18.4125
-19.1477
-19.2721
-18.7305
-17.6474
-16.1881
-14.4848
-12.7244
-11.0022
-9.40859
-7.9716
-6.70744
-5.6108
-4.6683
-3.85997
-3.16825
-2.57327
-2.05965
-1.61536
-1.22873
-0.889869
-0.592101
-0.329458
-0.0966382
0.111047
0.296362
0.461752
0.609971
0.743265
0.864004
0.972637
1.06901
1.1549
1.23149
1.29959
1.35989
1.41306
1.45968
1.50016
1.53505
1.56491
1.58981
1.61034
1.62683
1.63946
1.64841
1.65401
1.65627
1.65539
1.65143
1.64444
1.63454
1.62162
1.60599
1.58795
1.56743
1.54463
1.51982
1.49325
1.4652
1.43593
1.40571
1.37491
1.3437
1.31234
1.28094
1.24959
1.21824
1.1869
1.15544
1.12396
1.0923
1.06042
1.02809
0.995337
0.962061
0.928205
0.894163
0.860037
0.82573
0.791267
0.756094
0.719622
0.682021
0.643343
0.604746
0.567447
0.529882
0.492484
0.453392
0.413837
0.374148
0.334665
0.292314
0.250546
0.200864
0.153653
0.0903832
0.0470843
-18.1901
-18.3397
-19.0414
-19.1825
-18.653
-17.5903
-16.1531
-14.4695
-12.7247
-11.0139
-9.42871
-7.9964
-6.73472
-5.6391
-4.69641
-3.88717
-3.19391
-2.59718
-2.08182
-1.63583
-1.24771
-0.907592
-0.608716
-0.344983
-0.111295
0.0970171
0.28279
0.448634
0.597028
0.730363
0.850305
0.958775
1.05525
1.14122
1.21789
1.28607
1.34644
1.39968
1.44639
1.48695
1.52192
1.55179
1.57679
1.59737
1.61389
1.62652
1.63544
1.64102
1.64323
1.64227
1.6382
1.63109
1.62106
1.60801
1.59224
1.57407
1.55344
1.53055
1.50566
1.47903
1.45095
1.42167
1.39147
1.3607
1.32957
1.29831
1.26703
1.2358
1.20458
1.17337
1.14202
1.11067
1.0791
1.04729
1.01502
0.982361
0.949218
0.915453
0.881514
0.847505
0.813349
0.779098
0.744172
0.707914
0.67053
0.632043
0.59315
0.555797
0.517925
0.480278
0.441025
0.401278
0.361318
0.321846
0.279836
0.238494
0.190021
0.144382
0.0845338
0.0435294
-18.184
-18.3469
-18.9665
-19.0909
-18.566
-17.521
-16.1062
-14.4447
-12.7193
-11.0242
-9.44948
-8.0242
-6.76685
-5.6728
-4.72972
-3.91921
-3.22403
-2.62525
-2.10793
-1.66004
-1.27024
-0.928613
-0.628388
-0.363391
-0.128625
0.0805704
0.26704
0.433679
0.582592
0.71651
0.835855
0.943448
1.0399
1.12599
1.20277
1.27106
1.33153
1.38488
1.43169
1.47235
1.50742
1.53728
1.56239
1.58306
1.59965
1.61226
1.62117
1.62672
1.62886
1.6278
1.62361
1.61637
1.60618
1.59297
1.57704
1.55872
1.53795
1.51494
1.48996
1.46326
1.43513
1.40583
1.37566
1.34496
1.31392
1.28277
1.25162
1.22056
1.18949
1.15841
1.1272
1.09597
1.06451
1.03278
1.00059
0.968009
0.935001
0.901344
0.867515
0.833635
0.799643
0.765625
0.730994
0.694961
0.657816
0.619537
0.580401
0.542906
0.504716
0.466772
0.427263
0.387406
0.347151
0.307661
0.266058
0.225167
0.17809
0.134133
0.078272
0.039438
-18.2086
-18.3664
-18.9043
-19.0073
-18.4773
-17.4454
-16.0513
-14.4149
-12.7105
-11.0335
-9.47134
-8.05504
-6.80331
-5.71133
-4.76795
-3.95607
-3.25886
-2.65814
-2.13887
-1.68874
-1.29683
-0.953303
-0.651389
-0.384908
-0.148842
0.061459
0.24882
0.416348
0.565905
0.700504
0.819717
0.926316
1.02275
1.10902
1.18597
1.2544
1.315
1.36849
1.41542
1.45619
1.49137
1.52134
1.54652
1.56728
1.58393
1.59654
1.60553
1.61099
1.61304
1.61188
1.60755
1.60013
1.58976
1.57636
1.56024
1.54173
1.5208
1.49764
1.47254
1.44575
1.41757
1.38827
1.35814
1.32752
1.29659
1.26558
1.23457
1.2037
1.17278
1.14186
1.11079
1.07971
1.04836
1.01673
0.984627
0.95215
0.91926
0.885734
0.852021
0.818315
0.784514
0.750664
0.716381
0.680634
0.643748
0.605681
0.566414
0.528614
0.490106
0.451814
0.411967
0.371995
0.331557
0.29197
0.250832
0.210446
0.164921
0.122847
0.0714941
0.0348394
-18.2273
-18.3766
-18.8418
-18.922
-18.3902
-17.3699
-15.9936
-14.3842
-12.7021
-11.0452
-9.49736
-8.09121
-6.84522
-5.75571
-4.81238
-3.99918
-3.29981
-2.69682
-2.1752
-1.72237
-1.3279
-0.982122
-0.678221
-0.410041
-0.172505
0.0390192
0.227372
0.395736
0.545952
0.681039
0.800548
0.906895
1.00355
1.09008
1.16724
1.23586
1.29664
1.35031
1.39739
1.43832
1.47365
1.50376
1.52904
1.54989
1.56658
1.57923
1.58829
1.59365
1.59563
1.59437
1.5899
1.58226
1.57164
1.55801
1.54166
1.52292
1.50179
1.47845
1.4532
1.42635
1.39811
1.36881
1.33875
1.30821
1.27738
1.24652
1.21569
1.18502
1.15427
1.12354
1.09263
1.06172
1.03049
0.998986
0.966993
0.934635
0.901841
0.868462
0.834881
0.801409
0.767863
0.73417
0.700034
0.664748
0.628177
0.59034
0.551089
0.512762
0.47393
0.435232
0.394984
0.354833
0.3144
0.274639
0.233994
0.194195
0.150369
0.110403
0.0640996
0.0297162
-18.244
-18.3842
-18.7758
-18.8276
-18.2962
-17.2881
-15.9344
-14.3548
-12.6968
-11.0617
-9.52959
-8.13496
-6.89529
-5.8087
-4.86556
-4.05077
-3.34869
-2.74242
-2.21759
-1.7616
-1.36421
-1.0159
-0.709763
-0.439649
-0.20045
0.0124515
0.201955
0.371216
0.522247
0.65781
0.778074
0.884978
0.982014
1.06886
1.14632
1.2152
1.27622
1.3301
1.37739
1.41853
1.45405
1.48433
1.50977
1.53072
1.54748
1.56019
1.56924
1.57456
1.57646
1.57508
1.57044
1.56255
1.55164
1.53772
1.52108
1.50208
1.48073
1.45719
1.43178
1.40487
1.37658
1.34726
1.31723
1.28679
1.25607
1.22541
1.19479
1.16431
1.13378
1.10326
1.07253
1.04182
1.01073
0.979372
0.947512
0.915288
0.882586
0.849341
0.815914
0.782688
0.749447
0.716006
0.681904
0.647146
0.610937
0.573358
0.534228
0.495242
0.456008
0.416833
0.376144
0.335734
0.295414
0.255578
0.215385
0.176235
0.134387
0.0965749
0.0559565
0.0240143
-18.2594
-18.3878
-18.7056
-18.724
-18.1926
-17.1976
-15.8685
-14.321
-12.6918
-11.0818
-9.56802
-8.18689
-6.95473
-5.87122
-4.92817
-4.11143
-3.40599
-2.79575
-2.2669
-1.80717
-1.40635
-1.05509
-0.746337
-0.473967
-0.232809
-0.0183213
0.172582
0.342966
0.495073
0.631339
0.752544
0.860293
0.957787
1.04505
1.12289
1.19213
1.25345
1.30763
1.35517
1.39657
1.43233
1.46284
1.48847
1.50957
1.52643
1.5392
1.54823
1.55353
1.55534
1.55379
1.54893
1.54079
1.52957
1.51528
1.49829
1.47898
1.45745
1.43371
1.40808
1.381
1.35264
1.32335
1.29335
1.26301
1.23248
1.20202
1.17163
1.14136
1.11108
1.08079
1.0503
1.0198
0.988888
0.957686
0.925996
0.893916
0.861292
0.828188
0.794937
0.761918
0.728979
0.695827
0.662033
0.627718
0.591859
0.554554
0.515571
0.475921
0.43618
0.396424
0.355271
0.314532
0.274277
0.234624
0.194893
0.156335
0.116956
0.0810955
0.0468852
0.0176496
-18.2735
-18.387
-18.6322
-18.6128
-18.0811
-17.1005
-15.7969
-14.2825
-12.6842
-11.1011
-9.60783
-8.24195
-7.01891
-5.93785
-4.99493
-4.17674
-3.46842
-2.85455
-2.3217
-1.85805
-1.45346
-1.09886
-0.787095
-0.512162
-0.268767
-0.0527933
0.139569
0.311229
0.464551
0.601697
0.723869
0.832563
0.930628
1.01842
1.09676
1.16642
1.22812
1.28262
1.33048
1.37219
1.40825
1.43904
1.4649
1.48619
1.50318
1.51604
1.52509
1.53035
1.53205
1.53031
1.52518
1.51683
1.50525
1.49055
1.47317
1.45345
1.43156
1.40757
1.38177
1.35451
1.32607
1.2968
1.26689
1.23668
1.20636
1.17611
1.14597
1.11594
1.08594
1.05593
1.02571
0.995438
0.964733
0.933726
0.902232
0.870284
0.837732
0.804821
0.771746
0.738922
0.706265
0.673487
0.640164
0.606229
0.570733
0.533746
0.494845
0.454582
0.414288
0.373811
0.332188
0.291056
0.250814
0.211615
0.172239
0.134262
0.0976197
0.063932
0.0366762
0.0105226
-18.2867
-18.3828
-18.5573
-18.4957
-17.9624
-16.9975
-15.7207
-14.2382
-12.6709
-11.1149
-9.64362
-8.29459
-7.08202
-6.00649
-5.06545
-4.24637
-3.53523
-2.91766
-2.38079
-1.91327
-1.50501
-1.14718
-0.832489
-0.55502
-0.309356
-0.0915046
0.102571
0.275761
0.430459
0.568694
0.691928
0.801672
0.900444
0.988867
1.06775
1.13788
1.19997
1.25486
1.30308
1.34517
1.3816
1.41273
1.43889
1.46042
1.4776
1.49059
1.49968
1.50492
1.50649
1.50451
1.49904
1.49025
1.47815
1.46302
1.44525
1.42515
1.40283
1.37854
1.35255
1.32514
1.29665
1.26741
1.2376
1.20753
1.17743
1.14742
1.11757
1.08781
1.05813
1.02843
0.998516
0.968532
0.938044
0.90726
0.875969
0.844093
0.811736
0.779034
0.746126
0.713514
0.681166
0.648809
0.615974
0.582452
0.547347
0.510732
0.471739
0.43104
0.390137
0.348799
0.306708
0.265151
0.22524
0.186076
0.147003
0.109713
0.0758516
0.0449667
0.0250293
0.00246095
-18.2992
-18.376
-18.4826
-18.3749
-17.8376
-16.8885
-15.6387
-14.1913
-12.6585
-11.1321
-9.68368
-8.35166
-7.14924
-6.08065
-5.14156
-4.32107
-3.60665
-2.985
-2.44379
-1.97211
-1.56001
-1.19877
-0.8811
-0.601068
-0.353238
-0.133198
0.0625331
0.237046
0.392897
0.532119
0.656335
0.767072
0.866562
0.955607
1.03507
1.10571
1.16826
1.22364
1.27232
1.31489
1.35179
1.38334
1.40988
1.43172
1.44912
1.46227
1.47143
1.47668
1.47812
1.47591
1.47009
1.46072
1.44807
1.43243
1.41421
1.39369
1.37101
1.34641
1.32019
1.29264
1.26409
1.23488
1.2052
1.17529
1.14545
1.11572
1.08619
1.05674
1.02743
0.998109
0.9685
0.938846
0.908619
0.877942
0.846882
0.815203
0.783127
0.750592
0.717861
0.685495
0.653493
0.621585
0.589258
0.556201
0.521505
0.485274
0.446105
0.405057
0.363468
0.321155
0.278605
0.237033
0.197174
0.157391
0.118909
0.0823504
0.0513963
0.0237234
0.0114691
-0.00688191
-18.3112
-18.3688
-18.4172
-18.2655
-17.7228
-16.789
-15.5643
-14.1517
-12.6525
-11.1541
-9.72711
-8.41065
-7.21762
-6.1535
-5.21506
-4.39294
-3.67553
-3.05025
-2.50521
-2.02984
-1.6143
-1.24992
-0.929521
-0.647068
-0.397204
-0.175297
0.0220351
0.197841
0.35476
0.494839
0.619859
0.731382
0.831438
0.920912
1.00078
1.07181
1.13475
1.19059
1.23975
1.28282
1.32022
1.35225
1.3792
1.40137
1.41902
1.43236
1.4416
1.44682
1.44813
1.44567
1.43947
1.42962
1.41645
1.40029
1.38155
1.36056
1.33749
1.31258
1.28611
1.25844
1.22986
1.20073
1.17121
1.1415
1.11196
1.08255
1.05338
1.02429
0.995363
0.966464
0.937166
0.90764
0.877766
0.847253
0.816442
0.785112
0.753241
0.720861
0.688347
0.656259
0.62463
0.593192
0.561387
0.528812
0.494554
0.458573
0.419343
0.377812
0.3355
0.292162
0.24951
0.208016
0.167237
0.127004
0.089233
0.0533732
0.0251548
0.00080249
-0.00372215
-0.0175945
-18.3232
-18.3649
-18.3694
-18.1822
-17.6341
-16.7133
-15.5096
-14.1231
-12.6495
-11.1731
-9.76373
-8.46042
-7.27559
-6.2156
-5.27843
-4.4556
-3.73601
-3.10783
-2.55965
-2.08126
-1.66291
-1.29599
-0.973387
-0.689042
-0.437589
-0.214289
-0.0156175
0.161298
0.319149
0.459962
0.585677
0.697821
0.798513
0.888746
0.969199
1.04061
1.10383
1.15998
1.20945
1.25289
1.29068
1.32305
1.3503
1.37272
1.39056
1.40401
1.41326
1.4184
1.41955
1.41681
1.41024
1.39991
1.38621
1.36951
1.35028
1.32886
1.30544
1.28025
1.25363
1.2259
1.19735
1.16834
1.13903
1.10957
1.08034
1.05128
1.0225
0.993758
0.965213
0.936416
0.907577
0.87818
0.848585
0.818381
0.787803
0.756712
0.725028
0.692829
0.660555
0.628762
0.597513
0.566537
0.535233
0.503101
0.469295
0.433337
0.394068
0.351893
0.308837
0.264748
0.222484
0.179924
0.138341
0.0978667
0.060632
0.025563
-0.000383377
-0.0218642
-0.0192048
-0.0290987
-18.3356
-18.365
-18.3385
-18.1245
-17.5716
-16.6601
-15.4718
-14.1044
-12.6501
-11.1909
-9.79537
-8.50223
-7.32383
-6.26712
-5.33097
-4.50756
-3.78632
-3.15586
-2.60523
-2.12452
-1.70401
-1.33513
-1.01079
-0.724992
-0.472242
-0.247887
-0.0483569
0.129275
0.287741
0.429005
0.55516
0.667686
0.7688
0.859652
0.940579
1.01252
1.07628
1.13275
1.18248
1.22623
1.26432
1.29694
1.3244
1.34698
1.36492
1.3784
1.38761
1.39263
1.39358
1.39056
1.38362
1.37285
1.35865
1.34147
1.32183
1.30004
1.27635
1.251
1.2243
1.19659
1.16815
1.13933
1.11024
1.08104
1.05214
1.02344
0.995019
0.966513
0.938154
0.909567
0.881126
0.852039
0.822627
0.792611
0.762213
0.731336
0.699855
0.667844
0.635811
0.604314
0.573446
0.54291
0.512074
0.480326
0.446866
0.41077
0.371248
0.328321
0.284573
0.240645
0.197682
0.153798
0.11192
0.0712311
0.0344192
0.000213306
-0.023849
-0.0432255
-0.0341571
-0.040886
-18.3485
-18.3688
-18.3203
-18.0869
-17.53
-16.6254
-15.4485
-14.095
-12.6551
-11.2089
-9.82375
-8.53808
-7.36451
-6.31026