/*--------------------------------*- C++ -*----------------------------------*\
| =========                 |                                                 |
| \\      /  F ield         | OpenFOAM: The Open Source CFD Toolbox           |
|  \\    /   O peration     | Version:  v2012                                 |
|   \\  /    A nd           | Website:  www.openfoam.com                      |
|    \\/     M anipulation  |                                                 |
\*---------------------------------------------------------------------------*/
FoamFile
{
    version     2.0;
    format      ascii;
    class       volScalarField;
    location    "0.13";
    object      nut.air;
}
// * * * * * * * * * * * * * * * * * * * * * * * * * * * * * * * * * * * * * //

dimensions      [0 2 -1 0 0 0 0];


internalField   nonuniform List<scalar> 
5600
(
2.45134e-05
3.47347e-05
4.04094e-05
4.24626e-05
4.22716e-05
4.09706e-05
3.92087e-05
3.75394e-05
3.61126e-05
3.49475e-05
3.40601e-05
3.34384e-05
3.30356e-05
3.28063e-05
3.26942e-05
3.26613e-05
3.26697e-05
3.26996e-05
3.27356e-05
3.27675e-05
3.28004e-05
3.28209e-05
3.2852e-05
3.28734e-05
3.29149e-05
3.2937e-05
3.29851e-05
3.3005e-05
3.30583e-05
3.30688e-05
3.31241e-05
3.31172e-05
3.31721e-05
3.31472e-05
3.32025e-05
3.31653e-05
3.32152e-05
3.31823e-05
3.32103e-05
3.32056e-05
3.31903e-05
3.32357e-05
3.31666e-05
3.32586e-05
3.3161e-05
3.32532e-05
3.31962e-05
3.32103e-05
3.32697e-05
3.31473e-05
3.33411e-05
3.31122e-05
3.33609e-05
3.31452e-05
3.3309e-05
3.32466e-05
3.32146e-05
3.33665e-05
3.31393e-05
3.34335e-05
3.31471e-05
3.3396e-05
3.32738e-05
3.32567e-05
3.34842e-05
3.30929e-05
3.36588e-05
3.30377e-05
3.36558e-05
3.31783e-05
3.34383e-05
3.3471e-05
3.31359e-05
3.37313e-05
3.29762e-05
3.37474e-05
3.30923e-05
3.34961e-05
3.33896e-05
3.31956e-05
3.35993e-05
3.3113e-05
3.35189e-05
3.33198e-05
3.32174e-05
3.36377e-05
3.29452e-05
3.37954e-05
3.29299e-05
3.36425e-05
3.31889e-05
3.33273e-05
3.34069e-05
3.33077e-05
3.30711e-05
3.40413e-05
3.17738e-05
3.61692e-05
2.72092e-05
4.522e-05
0.000151656
0.000137408
0.000112246
9.86254e-05
9.39035e-05
9.49451e-05
0.000102102
0.000110123
0.000116483
0.000124316
0.000132729
0.000141238
0.000149468
0.000157258
0.000164418
0.000170951
0.000176801
0.000182063
0.000186783
0.000191047
0.000195012
0.00019858
0.000202143
0.000205295
0.000208574
0.000211217
0.000214202
0.000216357
0.000219086
0.000220648
0.00022312
0.000224031
0.00022633
0.000226706
0.000228877
0.000228953
0.000230812
0.000231038
0.000232166
0.000233116
0.000233033
0.000235094
0.000233788
0.000236632
0.000235003
0.000237294
0.000237155
0.000236966
0.00023983
0.000236374
0.000241952
0.000236669
0.000242501
0.000238637
0.000241408
0.00024187
0.000239633
0.000244906
0.000238796
0.000246155
0.000240175
0.000244718
0.000244269
0.000241129
0.000249488
0.000238015
0.000252757
0.000238396
0.000251252
0.000243517
0.00024542
0.00025109
0.000239309
0.000255912
0.000237865
0.000254231
0.00024261
0.000247444
0.000249686
0.000241686
0.000252576
0.000242012
0.000248879
0.000247917
0.000241903
0.000254145
0.00023764
0.000255288
0.000239683
0.00024993
0.000246468
0.000243273
0.000250436
0.000243154
0.000246108
0.000250005
0.000238931
0.000256092
0.0002296
0.000262026
0.000156515
0.000151568
0.000143033
0.000135174
0.000125238
0.000120745
0.000113752
0.000109721
0.000108699
0.000109817
0.000112675
0.000117441
0.000123675
0.000131372
0.000140253
0.000150366
0.000161493
0.000173778
0.000187134
0.000201673
0.000217116
0.000232728
0.000246285
0.000258181
0.0002704
0.000280699
0.000291037
0.000297807
0.000306152
0.000310936
0.000318619
0.000321954
0.000329417
0.000331662
0.00033863
0.000340426
0.000346114
0.000348743
0.000351916
0.000356776
0.000356601
0.000364081
0.000361309
0.000369516
0.00036749
0.000372114
0.000375414
0.000372522
0.000383505
0.000373288
0.000389012
0.000377223
0.000389979
0.00038503
0.000387419
0.000394448
0.000384709
0.000401773
0.00038571
0.000403407
0.000393002
0.000398189
0.000405628
0.000389706
0.000418079
0.000385318
0.000422601
0.000391855
0.000415047
0.000408736
0.000400407
0.000426528
0.000389922
0.000433045
0.00039322
0.000423665
0.000408715
0.000407246
0.000422886
0.00039867
0.000423908
0.00040444
0.000412348
0.000418183
0.000399065
0.000427291
0.000395246
0.000423861
0.000404425
0.000410706
0.000417566
0.000400249
0.000423386
0.000397992
0.000423917
0.000395412
0.000433144
0.000382491
0.000443142
0.000379024
0.000157813
0.000154005
0.00015008
0.000146777
0.00014268
0.000139244
0.000135558
0.000131509
0.000128186
0.000124921
0.000122972
0.000120013
0.000117371
0.00011574
0.000115519
0.000116745
0.000119839
0.000124576
0.000131399
0.000139608
0.000150412
0.000162026
0.000176729
0.000190621
0.000207896
0.000222548
0.000239894
0.000251464
0.000268037
0.000278068
0.000294937
0.000303198
0.000320043
0.000326777
0.000342845
0.000349261
0.000362904
0.000371423
0.000379749
0.00039321
0.000394343
0.000412727
0.000409279
0.000426759
0.000426241
0.000432875
0.000444589
0.000435717
0.000461509
0.000440875
0.00047179
0.000452842
0.000473274
0.000471114
0.000469506
0.000490302
0.000467473
0.000503344
0.000474091
0.000504442
0.00049271
0.000493376
0.000519116
0.000479308
0.000540755
0.000477176
0.000544148
0.000496974
0.000526392
0.000532339
0.000500921
0.000562554
0.000489199
0.000567035
0.000504017
0.000544796
0.000534815
0.000517398
0.000555011
0.000509423
0.000549824
0.000524456
0.000528103
0.000546407
0.00050975
0.00055544
0.000509999
0.000544461
0.000527472
0.000525122
0.000542682
0.000515517
0.000546638
0.000513413
0.000549228
0.00050729
0.000558983
0.000500129
0.000553847
0.000519488
0.000158111
0.000154619
0.000151627
0.000149091
0.000146718
0.000144517
0.000142439
0.000140402
0.000138411
0.000136525
0.000134656
0.000132967
0.000130908
0.000129152
0.000127166
0.000125554
0.00012419
0.000121677
0.000121258
0.000119276
0.000121506
0.000120903
0.000127013
0.00012831
0.000139149
0.00014221
0.000157996
0.000162321
0.000182683
0.000187664
0.000211838
0.000217231
0.000239765
0.000243628
0.000264365
0.000270854
0.000286956
0.000300095
0.000307455
0.00033011
0.000327768
0.000357782
0.000351642
0.0003787
0.000382129
0.000390941
0.000416671
0.000399317
0.000447533
0.000413577
0.000466113
0.000440331
0.000470479
0.000476406
0.000467752
0.000511124
0.000470246
0.000533718
0.000488645
0.000535823
0.00052731
0.000518274
0.000575352
0.000499528
0.000610762
0.000504655
0.000613002
0.00054763
0.000580958
0.000611572
0.000542455
0.000657629
0.000532575
0.000654404
0.000566629
0.000615928
0.000619406
0.00057539
0.000644105
0.000570935
0.000628869
0.000600241
0.000593499
0.000631578
0.000569198
0.000636632
0.000575583
0.000617818
0.000602615
0.000593375
0.000618272
0.000586489
0.000618508
0.000586739
0.000619535
0.000578747
0.00063105
0.000571301
0.000618857
0.000593651
0.00015818
0.000154795
0.000152026
0.000149709
0.000147678
0.000145898
0.000144249
0.000142773
0.000141338
0.000140042
0.000138753
0.00013756
0.000136434
0.000135211
0.00013433
0.000132872
0.000132524
0.000130312
0.000130882
0.000127267
0.000129726
0.000123862
0.000129602
0.000120292
0.000130267
0.000116929
0.000132976
0.000115991
0.000138667
0.0001196
0.000147779
0.000129778
0.000159615
0.000148038
0.000172259
0.000174798
0.000184975
0.000208646
0.000199985
0.000244357
0.000222724
0.000268214
0.000251545
0.000280704
0.000289435
0.000285078
0.000332066
0.000292082
0.000366019
0.000313758
0.000381281
0.000354471
0.000380019
0.000404938
0.000376003
0.000449476
0.000385015
0.000473729
0.000419612
0.000468828
0.000480279
0.000442126
0.000546617
0.000424251
0.000585611
0.000447486
0.000575294
0.000519893
0.000528065
0.000607317
0.000487593
0.000659896
0.000495894
0.000644689
0.000556312
0.000586676
0.000621861
0.000545814
0.000640178
0.000555533
0.000610544
0.000593739
0.000569702
0.000624789
0.000551461
0.000623103
0.000567451
0.000595205
0.000593811
0.000577532
0.000597582
0.000579078
0.000596028
0.000575277
0.000603205
0.000561321
0.000616347
0.000558498
0.000599804
0.000583831
0.0001582
0.000154853
0.000152145
0.000149895
0.000147961
0.000146285
0.00014478
0.000143438
0.000142205
0.000141064
0.000140026
0.000138991
0.000138141
0.000137106
0.000136507
0.000135292
0.000135167
0.000133401
0.000134221
0.000131232
0.000133829
0.000128542
0.000134251
0.000125022
0.000135738
0.000120312
0.000138478
0.000114625
0.000142079
0.000109356
0.000144615
0.000107745
0.000142117
0.000115117
0.000131409
0.00013469
0.000114608
0.000161615
0.000102703
0.000181934
0.000111022
0.000182167
0.000148244
0.000163559
0.00020656
0.000145029
0.000259172
0.000149466
0.000280962
0.000189401
0.000272268
0.00025777
0.000254094
0.000317401
0.000246867
0.000360052
0.000260708
0.000369411
0.000310609
0.000342945
0.000391685
0.000303938
0.000466159
0.000292282
0.000491245
0.000338165
0.000456552
0.000436159
0.000396699
0.000536465
0.000367067
0.000577475
0.000402884
0.00054184
0.000486105
0.000478145
0.000550161
0.000453442
0.000549532
0.000478997
0.000512107
0.000515765
0.000478756
0.00053412
0.000472903
0.000521385
0.0004948
0.00049641
0.000508429
0.000497613
0.000496928
0.000504712
0.000498776
0.000495792
0.000511062
0.000478761
0.000525164
0.000479167
0.000508922
0.000500132
0.000158207
0.000154873
0.000152188
0.000149959
0.000148058
0.000146411
0.000144955
0.000143653
0.000142479
0.000141395
0.000140423
0.000139472
0.000138672
0.000137774
0.000137169
0.000136204
0.000135913
0.000134656
0.000134947
0.000133008
0.000134355
0.000131102
0.000134282
0.000128729
0.000134918
0.000125674
0.000136362
0.00012196
0.000138266
0.000118418
0.000139134
0.000117644
0.000135588
0.000124069
0.000123371
0.000140423
0.000101664
0.000160927
8.124e-05
0.000168965
8.63595e-05
0.000147154
0.000131738
9.42657e-05
0.000192899
4.08788e-05
0.000226424
3.48886e-05
0.000209683
9.25459e-05
0.000156313
0.000178023
0.000101856
0.000246231
7.84666e-05
0.000271425
0.00010949
0.000243067
0.000199656
0.00017971
0.000311856
0.000128626
0.000376413
0.000140416
0.000362593
0.000231463
0.00030366
0.000344301
0.00024892
0.000434232
0.000238476
0.000446734
0.000297995
0.000393441
0.000387645
0.000341976
0.000429462
0.000343322
0.000409963
0.000376233
0.000378248
0.000397747
0.000362521
0.000399016
0.000368343
0.000378876
0.000388809
0.000366045
0.000381589
0.000385985
0.000362081
0.000391807
0.000367069
0.000382715
0.000379669
0.000364691
0.00039557
0.000364719
0.000387325
0.000371561
0.00015821
0.000154882
0.000152205
0.000149985
0.000148096
0.000146461
0.00014502
0.000143734
0.000142577
0.000141519
0.000140559
0.000139651
0.000138846
0.000138031
0.000137369
0.000136583
0.000136095
0.000135239
0.000135015
0.000133937
0.000134142
0.000132607
0.000133515
0.000131161
0.000133195
0.000129516
0.000133204
0.000127698
0.00013336
0.000126092
0.000132985
0.000125784
0.000130683
0.00012839
0.000124923
0.000134489
0.000116024
0.000141176
0.000109297
0.000141862
0.00011448
0.000129777
0.000134384
0.000103351
0.000156343
7.62202e-05
0.000164872
7.88362e-05
0.000153023
0.000116167
0.000118454
0.000159029
6.8341e-05
0.000188452
3.78291e-05
0.000192069
7.33813e-05
0.000154182
0.000156894
7.49851e-05
0.000222337
1.52094e-05
0.000233402
5.88103e-05
0.000196908
0.000159873
0.000142875
0.000228438
0.000110704
0.000252382
0.000145829
0.000238896
0.000223066
0.000217995
0.000261737
0.000229619
0.000251666
0.000266253
0.000233008
0.000277466
0.000236597
0.000263167
0.000247096
0.000246865
0.00026359
0.000222344
0.000275498
0.000225959
0.00024884
0.00025448
0.000227625
0.000262383
0.000220926
0.00026729
0.000227477
0.000245749
0.000246015
0.000241055
0.000247964
0.000226506
0.000158211
0.000154886
0.000152212
0.000149996
0.000148112
0.000146482
0.000145047
0.000143768
0.000142617
0.000141568
0.000140613
0.000139723
0.000138912
0.000138133
0.00013744
0.000136734
0.000136149
0.000135476
0.00013501
0.000134323
0.000134005
0.000133242
0.000133127
0.000132199
0.000132381
0.000131161
0.000131765
0.000130131
0.000131217
0.000129219
0.000130528
0.000128719
0.000129316
0.000129019
0.000127261
0.000130163
0.000124681
0.000131257
0.000123061
0.000130529
0.000124369
0.000126608
0.000128724
0.000120439
0.000133064
0.000116196
0.000133581
0.00011794
0.000129124
0.000124622
0.00012108
0.000132082
0.000112778
0.000136289
0.000111355
0.000132862
0.000123614
0.000118182
0.00014168
9.90457e-05
0.000146168
0.000107111
0.000130064
0.00014673
0.000103205
0.000169371
8.84237e-05
0.000160708
0.000113565
0.00013567
0.000164187
0.000110775
0.000189142
0.000111888
0.000175989
0.000149499
0.000146926
0.000181771
0.000128638
0.000190611
0.000126063
0.000189537
0.000129149
0.000176253
0.000151268
0.00014297
0.000178395
0.000124587
0.000182332
0.000130603
0.000170497
0.000150059
0.000140043
0.000181207
0.000119419
0.000186226
0.00011922
0.000183823
0.000133476
0.000147319
0.000158211
0.000154886
0.000152212
0.000149996
0.000148113
0.000146482
0.000145047
0.000143768
0.000142617
0.000141569
0.000140612
0.000139725
0.000138909
0.000138138
0.000137432
0.000136746
0.00013613
0.000135505
0.000134967
0.000134384
0.000133918
0.00013336
0.000132965
0.000132411
0.0001321
0.000131518
0.000131318
0.000130669
0.000130595
0.000129891
0.000129869
0.000129256
0.000129033
0.000128861
0.000128019
0.000128696
0.000126934
0.000128514
0.000126152
0.000127867
0.000126119
0.000126461
0.000126854
0.000124628
0.000127613
0.000123421
0.000127292
0.000123858
0.000125331
0.000125989
0.000122235
0.000128595
0.000119985
0.00012875
0.000122733
0.000122339
0.000133632
0.00010952
0.000146376
0.000102169
0.000145223
0.000116623
0.000123172
0.000149465
9.58814e-05
0.000174885
8.77211e-05
0.000172029
0.00010984
0.000147432
0.000151705
0.00012541
0.000184812
0.000124444
0.000189612
0.000139969
0.000179151
0.000155598
0.000168465
0.000170984
0.000151732
0.000193618
0.000129525
0.000204516
0.00012275
0.000188266
0.000143955
0.000158828
0.000182745
0.000123564
0.000213176
0.000102643
0.000202233
0.000127644
0.00016536
0.000178663
0.000119327
0.000230253
8.34722e-05
0.000218612
0.00015821
0.000154882
0.000152205
0.000149984
0.000148097
0.000146461
0.000145021
0.000143735
0.000142577
0.000141521
0.000140555
0.000139659
0.000138833
0.000138052
0.000137333
0.000136638
0.000136004
0.000135374
0.000134807
0.000134231
0.000133718
0.000133186
0.000132718
0.000132222
0.000131794
0.00013132
0.000130946
0.000130464
0.000130167
0.000129661
0.000129434
0.000128939
0.000128698
0.000128355
0.000127914
0.000127957
0.000127068
0.000127759
0.000126195
0.000127683
0.000125457
0.000127557
0.000125185
0.000127037
0.000125849
0.000125897
0.000127619
0.000124569
0.000129465
0.000124638
0.000129751
0.000128124
0.000128483
0.000133795
0.000129695
0.000136523
0.000138364
0.000134866
0.000152854
0.000136212
0.000164513
0.000148183
0.000169283
0.000168651
0.000172474
0.000190641
0.000181385
0.000211182
0.000198998
0.000231473
0.000223127
0.000251669
0.00024687
0.000269869
0.000266301
0.000278442
0.000286443
0.000271882
0.000306508
0.000261241
0.00031048
0.000266143
0.000290955
0.000289392
0.000262296
0.000313001
0.000243719
0.00031628
0.000250245
0.000291277
0.000283633
0.000256243
0.000314562
0.000238457
0.000318432
0.000244225
0.00029602
0.000278808
0.000256239
0.000318554
0.000158207
0.000154873
0.000152189
0.000149958
0.000148061
0.00014641
0.000144957
0.000143653
0.000142477
0.000141399
0.00014041
0.00013949
0.000138634
0.000137825
0.000137073
0.000136343
0.000135674
0.000135006
0.000134398
0.000133784
0.000133225
0.000132655
0.000132137
0.000131612
0.000131121
0.000130639
0.000130194
0.000129717
0.000129374
0.000128864
0.00012866
0.000128073
0.000128056
0.000127461
0.000127577
0.000127228
0.000127207
0.00012772
0.000126741
0.000129193
0.000126482
0.000132077
0.000127368
0.00013602
0.000131184
0.000140366
0.000139635
0.000145059
0.000152622
0.000152109
0.000167931
0.000164733
0.000182986
0.000183895
0.000197508
0.000206943
0.000214592
0.000230481
0.000237199
0.000254081
0.000264003
0.000278626
0.000291681
0.000303039
0.000317692
0.000320674
0.000341278
0.000337163
0.000365175
0.000360748
0.000384186
0.000388958
0.000395148
0.000415474
0.000399549
0.00043229
0.00040455
0.000433429
0.000416067
0.000420847
0.000430231
0.000406885
0.000436797
0.000402824
0.000431023
0.00041081
0.000417377
0.00042392
0.000404611
0.000432463
0.000400438
0.000430287
0.000407645
0.000418868
0.000421523
0.000404798
0.000433519
0.000397496
0.000431755
0.000406319
0.000158201
0.000154852
0.000152148
0.000149893
0.000147966
0.000146279
0.000144785
0.000143431
0.000142201
0.000141062
0.000140002
0.000139012
0.00013807
0.000137184
0.000136335
0.000135522
0.000134749
0.000133994
0.000133267
0.000132563
0.000131876
0.000131216
0.000130581
0.000129933
0.000129302
0.00012874
0.000128201
0.000127776
0.000127538
0.000127288
0.000127333
0.000127433
0.000128362
0.000129272
0.000131538
0.000133795
0.000137659
0.000142011
0.000147363
0.000154674
0.000160852
0.000171543
0.000177755
0.000191984
0.000198376
0.000215005
0.000223042
0.000239257
0.000251625
0.000264617
0.000281417
0.000286819
0.000304197
0.000307658
0.000325215
0.000331237
0.00034464
0.000356755
0.000364769
0.000382336
0.000386365
0.000405721
0.000409091
0.000425941
0.000433622
0.000444639
0.000462009
0.000464123
0.000491782
0.000486423
0.000515783
0.000511221
0.000528754
0.000535054
0.000531676
0.000552974
0.000531375
0.000559536
0.000535049
0.000553891
0.000544551
0.000541943
0.000553998
0.00053299
0.000556887
0.00053258
0.000552011
0.000539242
0.00054275
0.00054859
0.000534138
0.000554746
0.000531741
0.000552966
0.000536998
0.000544481
0.000547368
0.000533732
0.000555084
0.000529619
0.00015818
0.000154796
0.000152026
0.000149706
0.00014768
0.000145883
0.000144253
0.000142739
0.000141339
0.000139992
0.000138743
0.000137534
0.000136376
0.000135253
0.000134158
0.000133109
0.000132016
0.00013091
0.000129764
0.000128732
0.000127691
0.000126979
0.000126206
0.000125609
0.000125482
0.000126067
0.000127472
0.000130027
0.00013376
0.000138899
0.000145455
0.000153341
0.00016251
0.00017272
0.000184215
0.000196416
0.000209905
0.000223878
0.0002389
0.000252179
0.000263527
0.000275966
0.000286941
0.000300711
0.000310945
0.000325758
0.000335381
0.000350269
0.000360628
0.000373836
0.000386772
0.000396754
0.000412755
0.000419736
0.000436861
0.000443535
0.000458576
0.000468409
0.000478536
0.000492727
0.00049774
0.000514691
0.000516858
0.000533748
0.000537384
0.000550831
0.000561038
0.000566871
0.000586023
0.000582265
0.000606809
0.000598419
0.000618221
0.000614448
0.000620022
0.000628129
0.000616782
0.000636081
0.000615246
0.000635856
0.000619385
0.000628534
0.000626897
0.000620136
0.000632723
0.000615611
0.000633923
0.000616625
0.000630078
0.000622168
0.000623208
0.00062923
0.000617056
0.000633519
0.00061533
0.00063204
0.000619648
0.00062501
0.00062778
0.000615648
0.000158114
0.000154621
0.000151613
0.000149103
0.000146669
0.000144523
0.000142366
0.00014037
0.000138361
0.000136481
0.000134757
0.000132829
0.000131009
0.000129044
0.000127408
0.000125787
0.0001241
0.00012253
0.000121926
0.000122153
0.000123947
0.000127097
0.000132229
0.000138941
0.000147623
0.00015791
0.000169831
0.000183117
0.000197719
0.000213314
0.000228932
0.000242189
0.00025557
0.000268956
0.000282395
0.00029567
0.000309063
0.000322192
0.000335392
0.00034835
0.000361131
0.00037397
0.000385847
0.000398551
0.000408974
0.00042153
0.000430575
0.000442835
0.000451242
0.000462382
0.000471499
0.00047997
0.000490868
0.000496533
0.000508606
0.000512999
0.000524557
0.000530098
0.000538439
0.00054686
0.000550945
0.000561979
0.000562935
0.000575441
0.000575935
0.000587124
0.000591102
0.00059687
0.000607226
0.000604958
0.000620856
0.000612725
0.000628592
0.000621251
0.000629507
0.000629808
0.000625913
0.000636282
0.000622584
0.00063845
0.000623032
0.000635165
0.000627658
0.000629184
0.000633081
0.000624173
0.000636404
0.000622294
0.000636224
0.000624335
0.000632046
0.000629499
0.000626583
0.000634968
0.000622171
0.000637572
0.000621911
0.00063438
0.000626922
0.000626757
0.000157849
0.000153942
0.0001501
0.000146711
0.00014257
0.000139328
0.000135254
0.000131831
0.000128203
0.000126011
0.000123573
0.000120696
0.00011865
0.000117785
0.000118585
0.00012103
0.000125567
0.000131889
0.000140408
0.000150791
0.000163415
0.000177689
0.000193334
0.000209787
0.000227092
0.000242476
0.000257118
0.000271494
0.000285531
0.000299175
0.000312287
0.000324999
0.000337198
0.000348891
0.000360108
0.000370837
0.000381179
0.000391006
0.000400438
0.000409313
0.00041781
0.000426118
0.000432881
0.000439462
0.000444651
0.000450984
0.000455209
0.000461315
0.000465063
0.000470497
0.000474546
0.000478593
0.000483573
0.000485969
0.000491846
0.000493288
0.000499093
0.000501001
0.000505244
0.000508716
0.000510603
0.000515849
0.000515733
0.000522162
0.000521466
0.000527555
0.000528393
0.00053175
0.000536136
0.000534934
0.000542966
0.00053796
0.000546909
0.000541632
0.000547297
0.000545916
0.000545193
0.000549766
0.000542784
0.000551597
0.000542305
0.000550459
0.000544369
0.000547243
0.000547601
0.000543944
0.000550145
0.000542112
0.000550846
0.000542495
0.000549201
0.000545188
0.000545726
0.000548935
0.000542253
0.000551575
0.000540908
0.000551132
0.000543201
0.000546715
0.000156641
0.000151208
0.000143351
0.000134629
0.000126079
0.000120989
0.00011501
0.000112505
0.000112457
0.000114188
0.000117962
0.000123464
0.000130604
0.000139124
0.000149054
0.00016016
0.000172603
0.000186206
0.000201284
0.000217285
0.000233494
0.000246947
0.000259668
0.000271867
0.000283092
0.000294116
0.000302628
0.000310055
0.000316738
0.00032288
0.000328611
0.000333954
0.000338912
0.000343505
0.000347786
0.000351747
0.00035549
0.000358952
0.00036227
0.00036536
0.00036831
0.000371162
0.000373748
0.000376469
0.000378585
0.000381232
0.000382884
0.000385495
0.000386858
0.000389255
0.000390697
0.000392502
0.000394413
0.000395409
0.000397906
0.000398262
0.000401001
0.000401356
0.000403515
0.000404577
0.000405555
0.00040767
0.000407449
0.000410514
0.000409664
0.000412956
0.000412501
0.000414712
0.000415871
0.000415747
0.000419069
0.000416479
0.000421095
0.00041753
0.000421393
0.000419202
0.000420246
0.000421135
0.000418607
0.000422565
0.000417668
0.000422668
0.000418146
0.000421405
0.000419708
0.000419555
0.000421445
0.000418018
0.000422544
0.000417459
0.000422409
0.000418312
0.000420871
0.000420332
0.00041864
0.000422451
0.000416942
0.000423352
0.000416927
0.000421817
0.000151621
0.000136816
0.000113477
9.95213e-05
9.76014e-05
9.81297e-05
0.000110574
0.000115046
0.000121817
0.000129686
0.000137977
0.000146236
0.000154211
0.000161681
0.000168583
0.000174824
0.000180491
0.000185568
0.000190197
0.000194425
0.000198337
0.000202068
0.000205555
0.00020885
0.000211871
0.000214679
0.000217311
0.000219724
0.000221893
0.000223822
0.000225516
0.000227019
0.000228356
0.000229552
0.000230633
0.0002316
0.000232493
0.00023329
0.000234051
0.000234732
0.000235396
0.000236007
0.000236584
0.000237205
0.000237681
0.000238334
0.000238672
0.000239362
0.000239585
0.000240264
0.000240465
0.000241006
0.000241363
0.000241629
0.00024227
0.000242236
0.000243108
0.000242942
0.000243757
0.000243769
0.000244208
0.000244659
0.000244596
0.000245563
0.000245105
0.000246378
0.000245829
0.000246922
0.000246783
0.000247087
0.000247808
0.00024698
0.000248541
0.000246918
0.00024873
0.000247193
0.000248351
0.000247813
0.000247597
0.000248525
0.000246934
0.000248915
0.000246758
0.000248746
0.000247173
0.000248113
0.000247919
0.000247334
0.000248644
0.000246756
0.000249007
0.000246691
0.000248741
0.000247277
0.000247896
0.000248266
0.000246888
0.000249127
0.000246214
0.00024919
2.45432e-05
3.47523e-05
4.04101e-05
4.23028e-05
4.20136e-05
4.05608e-05
3.87137e-05
3.70559e-05
3.56101e-05
3.44451e-05
3.35764e-05
3.29762e-05
3.25987e-05
3.2385e-05
3.22871e-05
3.22583e-05
3.22698e-05
3.2298e-05
3.23311e-05
3.23649e-05
3.23935e-05
3.24263e-05
3.24614e-05
3.24994e-05
3.2539e-05
3.25762e-05
3.26142e-05
3.26515e-05
3.26861e-05
3.27168e-05
3.27414e-05
3.27608e-05
3.27749e-05
3.27851e-05
3.27919e-05
3.27957e-05
3.27979e-05
3.27976e-05
3.27975e-05
3.27952e-05
3.27945e-05
3.27923e-05
3.27909e-05
3.27914e-05
3.27885e-05
3.27937e-05
3.27876e-05
3.27977e-05
3.27882e-05
3.28015e-05
3.27914e-05
3.28028e-05
3.27997e-05
3.28027e-05
3.28142e-05
3.28044e-05
3.28306e-05
3.28121e-05
3.2842e-05
3.28285e-05
3.28483e-05
3.28541e-05
3.28545e-05
3.28868e-05
3.28659e-05
3.29185e-05
3.28844e-05
3.29371e-05
3.291e-05
3.29336e-05
3.29401e-05
3.29135e-05
3.29642e-05
3.28919e-05
3.29701e-05
3.28869e-05
3.29542e-05
3.29036e-05
3.29209e-05
3.29344e-05
3.28848e-05
3.29608e-05
3.28658e-05
3.29654e-05
3.28742e-05
3.29455e-05
3.29044e-05
3.29112e-05
3.29417e-05
3.28774e-05
3.29699e-05
3.28614e-05
3.29725e-05
3.28756e-05
3.29445e-05
3.29162e-05
3.28991e-05
3.29661e-05
3.28575e-05
3.29986e-05
2.5154e-05
0.000590407
0.00110438
0.00151596
0.00192897
0.0022365
0.00240872
0.0024035
0.00231088
0.00220163
0.00213997
0.0021646
0.00219866
0.00217117
0.00208695
0.00199278
0.00177779
0.00119714
0.000700838
0.000362301
0.000330113
0.00012507
0.000271447
0.000407755
5.56788e-05
0.00040756
0.000859195
0.0011899
0.00138336
0.00147514
0.00150393
0.00146912
0.00135461
0.0011598
0.000960631
0.000773653
0.000642451
0.000542239
0.000451743
0.000382983
0.000329824
0.000288224
0.000255947
0.000231222
0.000212196
0.000197189
0.000184897
0.000174486
0.000165538
0.000157898
0.000151528
0.000146376
0.000142291
0.000138999
0.000136159
0.000133521
0.000130999
0.00012868
0.000126673
0.000125078
0.000123907
0.000123132
0.000122644
0.000122364
0.000122197
0.000122114
0.000122059
0.00012204
0.000122019
0.000122019
0.000122008
0.000122013
0.000122004
0.000122012
0.000122003
0.000122012
0.000122002
0.000122012
0.000122001
0.000122013
0.000122001
0.000122013
0.000122001
0.000122014
0.000122
0.000122014
0.000122
0.000122015
0.000121999
0.000122015
0.000121999
0.000122016
0.000121998
0.000122016
0.000121998
0.000122017
0.000121998
0.000122019
0.000122002
0.000122033
0.000230008
0.000367453
0.000783762
0.00118996
0.00159124
0.00190342
0.0020919
0.00208389
0.00206281
0.00199356
0.00194448
0.00204559
0.00207401
0.00203624
0.00194678
0.00180664
0.00139081
0.000809469
0.000386672
0.000240897
0.000255673
0.000184077
0.000211624
0.000374147
6.31871e-06
0.000230712
0.000685417
0.00104847
0.00127229
0.00138336
0.00142115
0.00138678
0.00126862
0.00109192
0.000901424
0.00072814
0.000585454
0.000474606
0.000392455
0.00033286
0.000288916
0.000255917
0.000231037
0.000212285
0.000198017
0.000186785
0.000177448
0.000169277
0.000161933
0.000155356
0.000149627
0.000144824
0.00014092
0.000137754
0.000135065
0.00013263
0.00013034
0.000128249
0.000126443
0.000125001
0.000123918
0.000123186
0.000122717
0.000122446
0.00012228
0.000122197
0.00012214
0.00012212
0.000122098
0.000122097
0.000122085
0.000122091
0.000122081
0.00012209
0.00012208
0.00012209
0.000122079
0.00012209
0.000122078
0.00012209
0.000122078
0.000122091
0.000122077
0.000122092
0.000122077
0.000122092
0.000122076
0.000122093
0.000122076
0.000122093
0.000122075
0.000122094
0.000122075
0.000122094
0.000122075
0.000122095
0.000122076
0.000122099
0.000122082
0.000122117
0.000449952
0.000370623
0.000493272
0.000791257
0.0011625
0.00147343
0.00168514
0.00167618
0.00166538
0.0016063
0.00153915
0.0016561
0.00167924
0.00164263
0.00163343
0.00137057
0.000889686
0.000439607
0.000140544
0.000208959
0.000244124
0.000222117
0.00024033
0.000340918
0.000167566
4.81489e-05
0.000496087
0.000882522
0.0011354
0.00126678
0.00131452
0.00128062
0.00115858
0.000981153
0.000796215
0.000633007
0.000502436
0.000404898
0.000335982
0.000288345
0.000254747
0.000230286
0.000212044
0.000198294
0.000187756
0.000179327
0.000172115
0.000165529
0.000159308
0.000153462
0.000148157
0.000143563
0.000139751
0.000136648
0.000134064
0.000131803
0.000129732
0.000127863
0.000126246
0.000124943
0.000123946
0.000123257
0.000122803
0.000122534
0.000122366
0.000122279
0.000122219
0.000122196
0.000122172
0.000122171
0.000122158
0.000122164
0.000122153
0.000122162
0.000122151
0.000122162
0.000122151
0.000122163
0.00012215
0.000122163
0.000122149
0.000122164
0.000122149
0.000122164
0.000122148
0.000122165
0.000122148
0.000122166
0.000122147
0.000122166
0.000122146
0.000122167
0.000122146
0.000122168
0.000122146
0.00012217
0.000122148
0.000122176
0.000122158
0.000122202
0.000532616
0.000526011
0.000502824
0.000530277
0.000730668
0.000973764
0.00119806
0.00118434
0.00118471
0.00114234
0.00104869
0.00117908
0.0011941
0.00116282
0.00117567
0.000818426
0.00037366
0.000167607
5.42982e-05
0.000266375
0.000281031
0.000246039
0.000342998
0.00039213
0.000313066
4.4324e-05
0.000310536
0.000695211
0.000970497
0.00112126
0.00117909
0.001145
0.00101952
0.000845265
0.000672126
0.000527161
0.00041747
0.000340026
0.000287987
0.000253307
0.000229437
0.00021211
0.000198985
0.000188824
0.00018081
0.00017422
0.000168402
0.000162874
0.000157413
0.000152058
0.00014702
0.000142535
0.000138748
0.000135663
0.000133147
0.000131032
0.000129167
0.000127512
0.000126069
0.000124892
0.000123981
0.000123339
0.000122902
0.000122634
0.000122459
0.000122366
0.0001223
0.000122274
0.000122246
0.000122245
0.000122229
0.000122236
0.000122224
0.000122234
0.000122222
0.000122234
0.000122221
0.000122234
0.00012222
0.000122235
0.00012222
0.000122235
0.000122219
0.000122236
0.000122218
0.000122237
0.000122218
0.000122238
0.000122217
0.000122238
0.000122216
0.000122239
0.000122216
0.000122241
0.000122217
0.000122244
0.00012222
0.000122253
0.000122234
0.000122287
0.000601995
0.000602534
0.000585519
0.000577644
0.000568401
0.000605177
0.00075485
0.000698213
0.000694048
0.000672837
0.000527085
0.000655812
0.000651075
0.000607369
0.000614663
0.000216025
2.34323e-06
0.000200506
0.0001997
0.00026375
0.000324807
0.000307597
0.000481445
0.000556261
0.000459631
0.000147489
0.000130008
0.000488273
0.000776554
0.000943851
0.00101069
0.000975052
0.000848875
0.000686206
0.000536799
0.000421591
0.00034083
0.000287213
0.000252214
0.000228921
0.000212626
0.000200373
0.000190619
0.000182679
0.000176171
0.000170687
0.000165751
0.000160932
0.000156006
0.000151001
0.000146139
0.0001417
0.00013789
0.000134782
0.000132295