/*--------------------------------*- C++ -*----------------------------------*\
| =========                 |                                                 |
| \\      /  F ield         | OpenFOAM: The Open Source CFD Toolbox           |
|  \\    /   O peration     | Version:  v2012                                 |
|   \\  /    A nd           | Website:  www.openfoam.com                      |
|    \\/     M anipulation  |                                                 |
\*---------------------------------------------------------------------------*/
FoamFile
{
    version     2.0;
    format      ascii;
    class       volVectorField;
    location    "0.13";
    object      U.air;
}
// * * * * * * * * * * * * * * * * * * * * * * * * * * * * * * * * * * * * * //

dimensions      [0 1 -1 0 0 0 0];


internalField   nonuniform List<vector> 
1900
(
(39.9676 0.00859687 0)
(39.9239 0.015103 0)
(39.8679 0.0180588 0)
(39.8035 0.0207993 0)
(39.73 0.0237062 0)
(39.6526 0.0267683 0)
(39.5681 0.0297565 0)
(39.4712 0.034433 0)
(39.3801 0.0347838 0)
(39.2118 0.073503 0)
(40.0053 0.0147927 0)
(40.0212 0.0233975 0)
(40.0401 0.0257182 0)
(40.0561 0.0277458 0)
(40.0726 0.0304775 0)
(40.0898 0.0329399 0)
(40.1095 0.0364838 0)
(40.1257 0.0385578 0)
(40.1466 0.0533817 0)
(40.1568 0.0585715 0)
(40.0029 0.00824745 0)
(40.0161 0.0135856 0)
(40.0335 0.0137912 0)
(40.051 0.0145443 0)
(40.0688 0.0163129 0)
(40.0879 0.0182043 0)
(40.1087 0.0208556 0)
(40.1299 0.0248049 0)
(40.1543 0.0350812 0)
(40.1844 0.0529454 0)
(40.0018 0.00414496 0)
(40.0132 0.00782145 0)
(40.0301 0.00860527 0)
(40.0479 0.00970547 0)
(40.066 0.0114323 0)
(40.0852 0.0132518 0)
(40.1064 0.0158683 0)
(40.1291 0.0197454 0)
(40.1561 0.0288801 0)
(40.1894 0.0416245 0)
(40.0015 0.00111201 0)
(40.012 0.00211928 0)
(40.0285 0.00232728 0)
(40.0464 0.00266241 0)
(40.0645 0.00325309 0)
(40.084 0.00405071 0)
(40.1056 0.00562475 0)
(40.1294 0.00842123 0)
(40.1575 0.0146681 0)
(40.1918 0.0210543 0)
(40.0016 -0.00180292 0)
(40.0122 -0.00371605 0)
(40.0288 -0.00416325 0)
(40.0468 -0.00431399 0)
(40.065 -0.00436079 0)
(40.0846 -0.00401592 0)
(40.1066 -0.00289514 0)
(40.1311 -0.000789755 0)
(40.1597 0.00317605 0)
(40.1936 0.00640814 0)
(40.0019 -0.00486279 0)
(40.0136 -0.00947526 0)
(40.0308 -0.0105123 0)
(40.0489 -0.0114613 0)
(40.0672 -0.0126727 0)
(40.0871 -0.0134371 0)
(40.1094 -0.0134428 0)
(40.1344 -0.0127054 0)
(40.163 -0.0110204 0)
(40.1957 -0.0104532 0)
(40.0032 -0.00926927 0)
(40.0168 -0.0153327 0)
(40.0348 -0.0157393 0)
(40.0527 -0.016477 0)
(40.0709 -0.01804 0)
(40.0911 -0.0194037 0)
(40.1136 -0.0202816 0)
(40.1388 -0.020797 0)
(40.1672 -0.0210301 0)
(40.1987 -0.0225689 0)
(40.0057 -0.0162088 0)
(40.0223 -0.0253699 0)
(40.042 -0.0274341 0)
(40.0582 -0.0288787 0)
(40.0751 -0.0308085 0)
(40.0938 -0.0324197 0)
(40.1145 -0.0335734 0)
(40.1374 -0.0344434 0)
(40.1628 -0.0352272 0)
(40.1893 -0.0366675 0)
(39.9675 -0.0101412 0)
(39.9214 -0.0185951 0)
(39.8645 -0.0229106 0)
(39.797 -0.0265887 0)
(39.7223 -0.0303253 0)
(39.6428 -0.0339089 0)
(39.5582 -0.0373399 0)
(39.4686 -0.0407417 0)
(39.3739 -0.044104 0)
(39.2741 -0.0480425 0)
(39.1724 -0.0392834 0)
(38.0177 -0.354715 0)
(36.4706 -0.795031 0)
(34.9649 -1.35456 0)
(33.8571 -1.8888 0)
(33.1083 -2.33224 0)
(32.5393 -2.60365 0)
(32.0829 -2.66921 0)
(31.6441 -2.56922 0)
(31.2126 -2.34932 0)
(30.7881 -2.07074 0)
(30.3637 -1.77882 0)
(29.9518 -1.50826 0)
(29.5497 -1.27311 0)
(29.158 -1.07621 0)
(28.7767 -0.915315 0)
(28.4106 -0.788046 0)
(28.0656 -0.68891 0)
(27.7421 -0.609779 0)
(27.4412 -0.54546 0)
(27.1672 -0.494341 0)
(26.919 -0.453272 0)
(26.6964 -0.418293 0)
(26.4946 -0.386851 0)
(26.3171 -0.35936 0)
(26.1594 -0.335513 0)
(26.0255 -0.314863 0)
(25.9105 -0.296288 0)
(25.8115 -0.27924 0)
(25.7265 -0.263865 0)
(25.6538 -0.250329 0)
(25.5905 -0.238255 0)
(25.5363 -0.227388 0)
(25.4878 -0.217039 0)
(25.4451 -0.207231 0)
(25.4078 -0.198197 0)
(25.3757 -0.190009 0)
(25.3482 -0.182527 0)
(25.3251 -0.175622 0)
(25.306 -0.169108 0)
(25.2907 -0.163024 0)
(25.2787 -0.157388 0)
(25.2697 -0.152164 0)
(25.263 -0.14727 0)
(25.2584 -0.142652 0)
(25.2557 -0.138196 0)
(25.2546 -0.133955 0)
(25.2551 -0.129939 0)
(25.2571 -0.126159 0)
(25.2604 -0.122636 0)
(25.2652 -0.119297 0)
(25.2712 -0.116084 0)
(25.2783 -0.113025 0)
(25.2865 -0.110134 0)
(25.2956 -0.107394 0)
(25.3057 -0.104795 0)
(25.3167 -0.10233 0)
(25.3284 -0.0999587 0)
(25.3407 -0.0976717 0)
(25.3536 -0.095485 0)
(25.367 -0.0934142 0)
(25.3809 -0.0914338 0)
(25.3952 -0.0895448 0)
(25.41 -0.0877253 0)
(25.4251 -0.0859866 0)
(25.4405 -0.0843176 0)
(25.4562 -0.0827246 0)
(25.4721 -0.08119 0)
(25.4882 -0.0797166 0)
(25.5045 -0.0782857 0)
(25.5209 -0.0769088 0)
(25.5375 -0.0755774 0)
(25.5541 -0.074298 0)
(25.5708 -0.0730539 0)
(25.5875 -0.0718473 0)
(25.6042 -0.0706636 0)
(25.6208 -0.0695167 0)
(25.6375 -0.0683892 0)
(25.6539 -0.0672974 0)
(25.6704 -0.0662138 0)
(25.6866 -0.0651601 0)
(25.7028 -0.0641094 0)
(25.7186 -0.0630904 0)
(25.7345 -0.0620703 0)
(25.75 -0.0610768 0)
(25.7655 -0.0600791 0)
(25.7805 -0.0591107 0)
(25.7956 -0.0581447 0)
(25.8103 -0.0572142 0)
(25.8249 -0.0562916 0)
(25.8391 -0.0554161 0)
(25.8533 -0.0545549 0)
(25.867 -0.0537834 0)
(25.8809 -0.0530287 0)
(25.8941 -0.052531 0)
(25.9078 -0.0519796 0)
(25.9204 -0.0522655 0)
(25.9349 -0.052067 0)
(25.9452 -0.054309 0)
(25.9652 -0.0544225 0)
(40.259 0.205369 0)
(40.4989 0.295871 0)
(40.6487 -0.0460553 0)
(40.4722 -0.668263 0)
(39.9271 -1.3308 0)
(39.098 -1.8941 0)
(38.1063 -2.25381 0)
(37.0581 -2.38373 0)
(36.0562 -2.32219 0)
(35.1528 -2.13306 0)
(34.3685 -1.88027 0)
(33.6977 -1.61171 0)
(33.1345 -1.3606 0)
(32.6576 -1.14127 0)
(32.2434 -0.955523 0)
(31.8694 -0.802169 0)
(31.5217 -0.680424 0)
(31.1911 -0.585072 0)
(30.8678 -0.50829 0)
(30.5457 -0.446008 0)
(30.2259 -0.397331 0)
(29.9182 -0.360464 0)
(29.6252 -0.331068 0)
(29.3434 -0.305963 0)
(29.0763 -0.285398 0)
(28.8275 -0.269717 0)
(28.598 -0.257378 0)
(28.3882 -0.246307 0)
(28.1955 -0.23588 0)
(28.0208 -0.226541 0)
(27.8616 -0.218274 0)
(27.7175 -0.210614 0)
(27.5866 -0.203189 0)
(27.4681 -0.195716 0)
(27.3608 -0.188307 0)
(27.2637 -0.181346 0)
(27.1762 -0.174965 0)
(27.0972 -0.169087 0)
(27.0261 -0.163612 0)
(26.9617 -0.158416 0)
(26.9039 -0.153502 0)
(26.8512 -0.148836 0)
(26.8029 -0.144473 0)
(26.7589 -0.140451 0)
(26.7189 -0.136656 0)
(26.6825 -0.13297 0)
(26.6497 -0.129409 0)
(26.6201 -0.126049 0)
(26.5935 -0.122934 0)
(26.5698 -0.120039 0)
(26.5488 -0.117286 0)
(26.5302 -0.114605 0)
(26.5139 -0.112043 0)
(26.4997 -0.1096 0)
(26.4874 -0.10727 0)
(26.4769 -0.105053 0)
(26.4681 -0.102903 0)
(26.4606 -0.100779 0)
(26.4543 -0.0987252 0)
(26.4492 -0.0967684 0)
(26.4452 -0.094924 0)
(26.4423 -0.0931451 0)
(26.4404 -0.0914619 0)
(26.4395 -0.0898369 0)
(26.4393 -0.0882939 0)
(26.4398 -0.0867553 0)
(26.441 -0.0852838 0)
(26.4428 -0.0838654 0)
(26.4451 -0.082498 0)
(26.448 -0.0811593 0)
(26.4512 -0.0798606 0)
(26.4549 -0.0785955 0)
(26.4588 -0.0773708 0)
(26.463 -0.0761711 0)
(26.4674 -0.0749966 0)
(26.4719 -0.0738349 0)
(26.4766 -0.0726983 0)
(26.4814 -0.0715755 0)
(26.4863 -0.070477 0)
(26.4911 -0.0693836 0)
(26.496 -0.0683088 0)
(26.5009 -0.0672338 0)
(26.5057 -0.0661844 0)
(26.5106 -0.0651311 0)
(26.5153 -0.0641019 0)
(26.52 -0.0630638 0)
(26.5246 -0.0620551 0)
(26.5292 -0.0610442 0)
(26.5336 -0.0600712 0)
(26.538 -0.0591012 0)
(26.5423 -0.058182 0)
(26.5465 -0.0572729 0)
(26.5506 -0.0564597 0)
(26.5547 -0.0556606 0)
(26.5586 -0.0551281 0)
(26.5626 -0.054547 0)
(26.5663 -0.0548249 0)
(26.5703 -0.0545632 0)
(26.5737 -0.0569867 0)
(26.5795 -0.0567951 0)
(40.2699 0.127743 0)
(40.4561 0.0177444 0)
(40.6021 -0.368697 0)
(40.4975 -0.908901 0)
(40.0434 -1.44081 0)
(39.2825 -1.86015 0)
(38.3234 -2.09991 0)
(37.2919 -2.15536 0)
(36.2747 -2.06653 0)
(35.366 -1.88588 0)
(34.5848 -1.65901 0)
(33.9333 -1.42224 0)
(33.4071 -1.2025 0)
(32.9873 -1.01007 0)
(32.6474 -0.844339 0)
(32.3689 -0.705619 0)
(32.1433 -0.595179 0)
(31.9586 -0.507586 0)
(31.7977 -0.434494 0)
(31.6502 -0.373777 0)
(31.5136 -0.32676 0)
(31.3836 -0.291234 0)
(31.252 -0.262333 0)
(31.1148 -0.237647 0)
(30.9689 -0.217402 0)
(30.814 -0.202239 0)
(30.6516 -0.191099 0)
(30.4827 -0.181679 0)
(30.308 -0.173201 0)
(30.1294 -0.166182 0)
(29.9486 -0.160785 0)
(29.7715 -0.156499 0)
(29.5992 -0.152652 0)
(29.435 -0.148911 0)
(29.2793 -0.145565 0)
(29.133 -0.142845 0)
(28.997 -0.140534 0)
(28.8711 -0.138354 0)
(28.7544 -0.136156 0)
(28.6461 -0.133867 0)
(28.5454 -0.131595 0)
(28.4518 -0.129284 0)
(28.3649 -0.126839 0)
(28.2844 -0.124361 0)
(28.2096 -0.12188 0)
(28.14 -0.119367 0)
(28.0756 -0.116882 0)
(28.016 -0.114519 0)
(27.961 -0.112294 0)
(27.91 -0.110148 0)
(27.8622 -0.108061 0)
(27.8177 -0.106045 0)
(27.7765 -0.10416 0)
(27.7382 -0.102376 0)
(27.7028 -0.100688 0)
(27.6699 -0.0991114 0)
(27.6397 -0.0975818 0)
(27.6116 -0.096021 0)
(27.5858 -0.0944684 0)
(27.5619 -0.0929772 0)
(27.5399 -0.091566 0)
(27.5197 -0.0901915 0)
(27.5011 -0.0888197 0)
(27.4835 -0.0874338 0)
(27.4671 -0.0860972 0)
(27.4516 -0.0848036 0)
(27.4373 -0.083577 0)
(27.4236 -0.0823694 0)
(27.4109 -0.0811974 0)
(27.3987 -0.0800182 0)
(27.3873 -0.0788703 0)
(27.3762 -0.077726 0)
(27.3658 -0.076616 0)
(27.3556 -0.075503 0)
(27.3458 -0.0744107 0)
(27.3362 -0.0733061 0)
(27.327 -0.0722267 0)
(27.3179 -0.0711385 0)
(27.3091 -0.0700765 0)
(27.3002 -0.069001 0)
(27.2917 -0.0679492 0)
(27.2832 -0.0668842 0)
(27.2749 -0.0658449 0)
(27.2666 -0.0647959 0)
(27.2585 -0.0637694 0)
(27.2504 -0.0627327 0)
(27.2425 -0.0617225 0)
(27.2346 -0.0607122 0)
(27.2269 -0.0597359 0)
(27.2192 -0.0587659 0)
(27.2117 -0.0578413 0)
(27.2041 -0.0569323 0)
(27.1968 -0.056113 0)
(27.1894 -0.0553144 0)
(27.1823 -0.0547761 0)
(27.1749 -0.0542001 0)
(27.1683 -0.0544655 0)
(27.1605 -0.0542669 0)
(27.1552 -0.0566439 0)
(27.1446 -0.0564515 0)
(40.2634 0.0673389 0)
(40.4034 0.00416986 0)
(40.4966 -0.262168 0)
(40.3657 -0.678572 0)
(39.9156 -1.11199 0)
(39.179 -1.46758 0)
(38.2538 -1.69385 0)
(37.2565 -1.77775 0)
(36.2689 -1.73955 0)
(35.3829 -1.61455 0)
(34.6121 -1.43913 0)
(33.964 -1.24742 0)
(33.4393 -1.06577 0)
(33.0156 -0.902653 0)
(32.6671 -0.759028 0)
(32.3847 -0.638947 0)
(32.164 -0.544395 0)
(31.987 -0.467842 0)
(31.8344 -0.401587 0)
(31.7038 -0.346543 0)
(31.6008 -0.305387 0)
(31.5206 -0.274108 0)
(31.4483 -0.24594 0)
(31.378 -0.219475 0)
(31.3166 -0.197813 0)
(31.2667 -0.181436 0)
(31.2212 -0.167823 0)
(31.1742 -0.155113 0)
(31.1236 -0.143075 0)
(31.069 -0.132489 0)
(31.0112 -0.124174 0)
(30.9497 -0.118 0)
(30.8824 -0.113053 0)
(30.8075 -0.108638 0)
(30.7241 -0.104678 0)
(30.6327 -0.101716 0)
(30.535 -0.0997856 0)
(30.4327 -0.0984149 0)
(30.327 -0.0972989 0)
(30.2189 -0.0963197 0)
(30.1095 -0.0954155 0)
(29.9998 -0.0945995 0)
(29.8932 -0.0940065 0)
(29.7903 -0.0936049 0)
(29.6912 -0.0932526 0)
(29.5961 -0.0929056 0)
(29.5056 -0.0925931 0)
(29.42 -0.0923057 0)
(29.3392 -0.0920158 0)
(29.263 -0.0916589 0)
(29.1909 -0.0911484 0)
(29.1225 -0.0905073 0)
(29.0577 -0.0898274 0)
(28.996 -0.0890949 0)
(28.9378 -0.0883209 0)
(28.8823 -0.0875295 0)
(28.8298 -0.0866823 0)
(28.7799 -0.0857573 0)
(28.733 -0.0848109 0)
(28.6883 -0.0838846 0)
(28.6462 -0.0829897 0)
(28.6059 -0.0821236 0)
(28.5678 -0.0812497 0)
(28.5312 -0.0803059 0)
(28.4963 -0.0793333 0)
(28.4626 -0.0783479 0)
(28.4304 -0.0773826 0)
(28.3989 -0.0764085 0)
(28.3686 -0.0754362 0)
(28.3388 -0.0744285 0)
(28.31 -0.0734293 0)
(28.2814 -0.0724192 0)
(28.2537 -0.0714255 0)
(28.2261 -0.0704176 0)
(28.1994 -0.0694157 0)
(28.1726 -0.0683971 0)
(28.1466 -0.0673954 0)
(28.1206 -0.0663839 0)
(28.0953 -0.0653896 0)
(28.07 -0.0643822 0)
(28.0454 -0.0633971 0)
(28.0208 -0.0624018 0)
(27.9969 -0.0614284 0)
(27.973 -0.0604423 0)
(27.9498 -0.059476 0)
(27.9266 -0.0584967 0)
(27.904 -0.057545 0)
(27.8815 -0.0565908 0)
(27.8596 -0.0556729 0)
(27.8377 -0.0547584 0)
(27.8166 -0.0538905 0)
(27.7954 -0.0530375 0)
(27.775 -0.0522712 0)
(27.7544 -0.0515294 0)
(27.7348 -0.051033 0)
(27.7145 -0.0505162 0)
(27.6962 -0.0507832 0)
(27.6747 -0.0506792 0)
(27.6601 -0.0528906 0)
(27.6311 -0.0531161 0)
(40.2555 0.0314288 0)
(40.3567 -0.0318832 0)
(40.4022 -0.258915 0)
(40.2468 -0.617322 0)
(39.8045 -0.995499 0)
(39.0979 -1.30665 0)
(38.2124 -1.50467 0)
(37.2561 -1.57673 0)
(36.3003 -1.54055 0)
(35.4323 -1.42863 0)
(34.6682 -1.27293 0)
(34.0237 -1.10531 0)
(33.4989 -0.947517 0)
(33.0663 -0.803537 0)
(32.7076 -0.676329 0)
(32.4245 -0.573036 0)
(32.2047 -0.491687 0)
(32.0183 -0.422361 0)
(31.8546 -0.361875 0)
(31.7245 -0.314566 0)
(31.6277 -0.280366 0)
(31.5444 -0.251714 0)
(31.4627 -0.22414 0)
(31.3912 -0.200584 0)
(31.3382 -0.18362 0)
(31.2975 -0.170716 0)
(31.2588 -0.158647 0)
(31.2191 -0.146523 0)
(31.1833 -0.135577 0)
(31.1562 -0.12698 0)
(31.1361 -0.12032 0)
(31.1177 -0.114373 0)
(31.0977 -0.108289 0)
(31.076 -0.101972 0)
(31.0569 -0.0962884 0)
(31.0399 -0.0914215 0)
(31.0227 -0.0873897 0)
(31.004 -0.0838771 0)
(30.9818 -0.0804035 0)
(30.9553 -0.0769798 0)
(30.9249 -0.073962 0)
(30.8908 -0.0717383 0)
(30.853 -0.0703104 0)
(30.811 -0.0692232 0)
(30.7641 -0.0681639 0)
(30.7119 -0.0672236 0)
(30.6546 -0.0666095 0)
(30.5932 -0.0663675 0)
(30.5288 -0.0663393 0)
(30.4622 -0.0663121 0)
(30.3942 -0.0662188 0)
(30.325 -0.0661512 0)
(30.255 -0.0661807 0)
(30.1846 -0.0663216 0)
(30.1153 -0.066526 0)
(30.0465 -0.0667179 0)
(29.9789 -0.0668932 0)
(29.9121 -0.067023 0)
(29.8468 -0.0671104 0)
(29.7825 -0.0671592 0)
(29.72 -0.067158 0)
(29.6583 -0.0670804 0)
(29.5982 -0.0668792 0)
(29.5394 -0.0665533 0)
(29.4822 -0.0661408 0)
(29.426 -0.0656661 0)
(29.3712 -0.0651476 0)
(29.317 -0.0645663 0)
(29.2643 -0.0639321 0)
(29.2119 -0.0632168 0)
(29.161 -0.0624699 0)
(29.1103 -0.06168 0)
(29.0609 -0.0608802 0)
(29.0118 -0.0600471 0)
(28.964 -0.059204 0)
(28.9162 -0.0583316 0)
(28.8699 -0.0574702 0)
(28.8236 -0.0565931 0)
(28.7787 -0.0557294 0)
(28.7339 -0.0548526 0)
(28.6904 -0.0539741 0)
(28.647 -0.053082 0)
(28.6049 -0.0522207 0)
(28.5629 -0.0513581 0)
(28.5223 -0.0505184 0)
(28.4818 -0.0496713 0)
(28.4426 -0.0488534 0)
(28.4035 -0.0480373 0)
(28.3658 -0.0472578 0)
(28.3282 -0.046483 0)
(28.292 -0.0457536 0)
(28.2558 -0.0450417 0)
(28.2211 -0.044409 0)
(28.1862 -0.043809 0)
(28.1531 -0.0434209 0)
(28.119 -0.0430498 0)
(28.0883 -0.0433175 0)
(28.0523 -0.0434268 0)
(28.0279 -0.0452816 0)
(27.9796 -0.0464655 0)
(40.2478 0.00636924 0)
(40.3189 -0.0529352 0)
(40.3277 -0.234956 0)
(40.154 -0.518805 0)
(39.7188 -0.818104 0)
(39.0361 -1.062 0)
(38.1812 -1.21592 0)
(37.255 -1.27218 0)
(36.325 -1.24561 0)
(35.4696 -1.16052 0)
(34.7134 -1.0414 0)
(34.0761 -0.912832 0)
(33.5467 -0.788492 0)
(33.1024 -0.672135 0)
(32.74 -0.570205 0)
(32.4585 -0.488994 0)
(32.2299 -0.42268 0)
(32.0272 -0.363023 0)
(31.8589 -0.313251 0)
(31.7361 -0.278062 0)
(31.6372 -0.250981 0)
(31.5392 -0.224462 0)
(31.4499 -0.200243 0)
(31.3838 -0.182743 0)
(31.3352 -0.170536 0)
(31.2894 -0.159115 0)
(31.241 -0.14667 0)
(31.197 -0.135469 0)
(31.1644 -0.127154 0)
(31.14 -0.120808 0)
(31.1176 -0.114826 0)
(31.0932 -0.108329 0)
(31.0687 -0.101909 0)
(31.0497 -0.0968169 0)
(31.0356 -0.0927573 0)
(31.0235 -0.0891772 0)
(31.011 -0.0858236 0)
(30.9971 -0.0824733 0)
(30.9848 -0.0793203 0)
(30.975 -0.0763479 0)
(30.9665 -0.0736151 0)
(30.958 -0.0713498 0)
(30.9487 -0.069465 0)
(30.9384 -0.06753 0)
(30.9276 -0.0653445 0)
(30.9163 -0.0630917 0)
(30.9041 -0.0610671 0)
(30.8903 -0.0593898 0)
(30.874 -0.0579559 0)
(30.8549 -0.0566094 0)
(30.8326 -0.055275 0)
(30.807 -0.0540057 0)
(30.778 -0.0528798 0)
(30.7455 -0.052001 0)
(30.7089 -0.0513142 0)
(30.6682 -0.0506865 0)
(30.6233 -0.0500453 0)
(30.5743 -0.0494696 0)
(30.5217 -0.048973 0)
(30.4657 -0.0485407 0)
(30.4065 -0.0481411 0)
(30.3444 -0.0477612 0)
(30.2798 -0.0474025 0)
(30.2129 -0.0470535 0)
(30.1445 -0.0466972 0)
(30.0748 -0.0463341 0)
(30.0042 -0.0459555 0)
(29.933 -0.0455548 0)
(29.8617 -0.045117 0)
(29.7901 -0.0446412 0)
(29.7191 -0.0441468 0)
(29.6481 -0.0436337 0)
(29.5783 -0.043115 0)
(29.5085 -0.0425715 0)
(29.4403 -0.0420205 0)
(29.3723 -0.0414399 0)
(29.306 -0.0408693 0)
(29.24 -0.0402815 0)
(29.1758 -0.0397067 0)
(29.112 -0.039115 0)
(29.0501 -0.0385571 0)
(28.9885 -0.0379945 0)
(28.929 -0.0374409 0)
(28.8699 -0.0368822 0)
(28.8129 -0.0363336 0)
(28.7563 -0.0357789 0)
(28.7019 -0.0352465 0)
(28.6477 -0.0347216 0)
(28.5959 -0.0342261 0)
(28.5442 -0.033738 0)
(28.495 -0.0332863 0)
(28.4457 -0.0328512 0)
(28.3989 -0.0324801 0)
(28.3518 -0.0321489 0)
(28.3075 -0.0319732 0)
(28.2617 -0.0318698 0)
(28.2208 -0.0321657 0)
(28.1729 -0.0326454 0)
(28.1404 -0.0339067 0)
(28.076 -0.0366347 0)
(40.2419 -0.0161658 0)
(40.2904 -0.0671903 0)
(40.2717 -0.206836 0)
(40.0832 -0.423797 0)
(39.6529 -0.656246 0)
(38.9885 -0.849203 0)
(38.1576 -0.97569 0)
(37.2544 -1.02814 0)
(36.3434 -1.0156 0)
(35.4963 -0.954492 0)
(34.7446 -0.864247 0)
(34.1051 -0.764998 0)
(33.5597 -0.664637 0)
(33.0997 -0.569638 0)
(32.7376 -0.490672 0)
(32.449 -0.426142 0)
(32.1943 -0.367565 0)
(31.9795 -0.316929 0)
(31.8191 -0.279554 0)
(31.6898 -0.250991 0)
(31.5648 -0.224107 0)
(31.4518 -0.199555 0)
(31.3655 -0.181331 0)
(31.2975 -0.168426 0)
(31.2317 -0.156762 0)
(31.1638 -0.144331 0)
(31.1036 -0.133196 0)
(31.0556 -0.125218 0)
(31.0144 -0.119297 0)
(30.9737 -0.113341 0)
(30.9302 -0.106685 0)
(30.8881 -0.100534 0)
(30.8518 -0.0959198 0)
(30.8191 -0.0923754 0)
(30.7868 -0.0888376 0)
(30.7533 -0.0848696 0)
(30.7183 -0.0809643 0)
(30.6848 -0.0777952 0)
(30.6525 -0.07517 0)
(30.6206 -0.07253 0)
(30.5884 -0.0697264 0)
(30.5552 -0.0670617 0)
(30.521 -0.0647303 0)
(30.4864 -0.0626104 0)
(30.4516 -0.0605204 0)
(30.4166 -0.0584551 0)
(30.381 -0.056516 0)
(30.3447 -0.0547288 0)
(30.3074 -0.0530056 0)
(30.2693 -0.051273 0)
(30.2307 -0.0495164 0)
(30.1918 -0.0477775 0)
(30.1524 -0.046081 0)
(30.1125 -0.0444412 0)
(30.0718 -0.0427863 0)
(30.0303 -0.0410642 0)
(29.988 -0.0393429 0)
(29.9451 -0.0377048 0)
(29.9015 -0.0361423 0)
(29.8569 -0.034616 0)
(29.8112 -0.0331157 0)
(29.7643 -0.0316708 0)
(29.716 -0.0303191 0)
(29.6666 -0.0290586 0)
(29.6158 -0.0278754 0)
(29.5637 -0.0267673 0)
(29.5103 -0.0257399 0)
(29.4555 -0.0248003 0)
(29.3996 -0.0239327 0)
(29.3426 -0.0231521 0)
(29.2847 -0.0224511 0)
(29.2261 -0.0218219 0)
(29.1668 -0.0212561 0)
(29.107 -0.0207471 0)
(29.047 -0.0202964 0)
(28.9868 -0.019888 0)
(28.9267 -0.0195268 0)
(28.8666 -0.0191998 0)
(28.8071 -0.0189116 0)
(28.7476 -0.0186501 0)
(28.6893 -0.0184154 0)
(28.6309 -0.0182013 0)
(28.5741 -0.0180179 0)
(28.5173 -0.0178638 0)
(28.4623 -0.0177301 0)
(28.4074 -0.0176096 0)
(28.3544 -0.0175095 0)
(28.3016 -0.0174318 0)
(28.2508 -0.0173727 0)
(28.2001 -0.0173275 0)
(28.1515 -0.0172985 0)
(28.1029 -0.0172834 0)
(28.0564 -0.0173022 0)
(28.0097 -0.0173638 0)
(27.9654 -0.0175001 0)
(27.9196 -0.0177723 0)
(27.8784 -0.0181384 0)
(27.8297 -0.0191011 0)
(27.7968 -0.0196142 0)
(27.7301 -0.0241586 0)
(40.2386 -0.030009 0)
(40.2709 -0.0704534 0)
(40.2318 -0.171527 0)
(40.0308 -0.327113 0)
(39.6008 -0.494846 0)
(38.9444 -0.634496 0)
(38.1222 -0.726376 0)
(37.2227 -0.765193 0)
(36.308 -0.757542 0)
(35.4483 -0.716801 0)
(34.6865 -0.656634 0)
(34.0147 -0.586181 0)
(33.4347 -0.513439 0)
(32.9614 -0.447917 0)
(32.57 -0.391604 0)
(32.2296 -0.341155 0)
(31.9405 -0.296779 0)
(31.708 -0.261309 0)
(31.5087 -0.233171 0)
(31.3245 -0.208763 0)
(31.1596 -0.187044 0)
(31.0204 -0.169563 0)
(30.8963 -0.156153 0)
(30.776 -0.14485 0)
(30.6607 -0.133985 0)
(30.5559 -0.123792 0)
(30.4604 -0.115352 0)
(30.3678 -0.10883 0)
(30.2753 -0.103114 0)
(30.185 -0.0970175 0)
(30.0992 -0.0907873 0)
(30.017 -0.0855002 0)
(29.9358 -0.0814311 0)
(29.8547 -0.0778805 0)
(29.774 -0.0740608 0)
(29.6952 -0.0699103 0)
(29.6183 -0.0661661 0)
(29.5422 -0.0632294 0)
(29.4663 -0.0606702 0)
(29.3909 -0.057964 0)
(29.3167 -0.0550684 0)
(29.2437 -0.0523459 0)
(29.1717 -0.050053 0)
(29.1004 -0.0480515 0)
(29.0299 -0.0460567 0)
(28.9605 -0.0439912 0)
(28.8922 -0.0419586 0)
(28.8252 -0.0400589 0)
(28.7592 -0.0382921 0)
(28.6945 -0.0366228 0)
(28.631 -0.0350108 0)
(28.5689 -0.0334482 0)
(28.5081 -0.031929 0)
(28.4489 -0.0304791 0)
(28.3909 -0.0290815 0)
(28.3346 -0.0277285 0)
(28.2797 -0.0264359 0)
(28.2266 -0.0252265 0)
(28.1749 -0.0240515 0)
(28.1249 -0.0228792 0)
(28.0763 -0.0217 0)
(28.0296 -0.0205593 0)
(27.9842 -0.0194708 0)
(27.9406 -0.0184274 0)
(27.8982 -0.0173948 0)
(27.8574 -0.0163814 0)
(27.8178 -0.015393 0)
(27.7796 -0.0144551 0)
(27.7423 -0.0135578 0)
(27.7063 -0.0127152 0)
(27.671 -0.0119381 0)
(27.6368 -0.011213 0)
(27.6032 -0.0105265 0)
(27.5703 -0.00989152 0)
(27.5379 -0.00931675 0)
(27.5061 -0.00880818 0)
(27.4747 -0.00835723 0)
(27.4436 -0.00797183 0)
(27.4129 -0.00764128 0)
(27.3824 -0.00736679 0)
(27.3522 -0.00714362 0)
(27.322 -0.00696437 0)
(27.2921 -0.00683028 0)
(27.2621 -0.00674496 0)
(27.2323 -0.00669535 0)
(27.2025 -0.00667221 0)
(27.1727 -0.00668142 0)
(27.1429 -0.00672684 0)
(27.1132 -0.0067984 0)
(27.0834 -0.00689456 0)
(27.0537 -0.00700816 0)
(27.024 -0.00714217 0)
(26.9945 -0.00730319 0)
(26.9647 -0.00750834 0)
(26.9355 -0.0077257 0)
(26.9049 -0.00811297 0)
(26.8769 -0.00835723 0)
(26.8424 -0.00948549 0)
(26.8199 -0.00918207 0)
(26.7695 -0.0145939 0)
(40.2229 -0.0441215 0)
(40.2345 -0.0683462 0)
(40.1702 -0.129278 0)
(39.943 -0.223499 0)
(39.4859 -0.326546 0)
(38.7965 -0.413765 0)
(37.9306 -0.47262 0)
(36.9719 -0.498772 0)
(35.9897 -0.495946 0)
(35.048 -0.472229 0)
(34.1795 -0.434179 0)
(33.4012 -0.38862 0)
(32.7242 -0.342882 0)
(32.1381 -0.301072 0)
(31.6256 -0.263481 0)
(31.1818 -0.230281 0)
(30.7986 -0.202267 0)
(30.4631 -0.179244 0)
(30.1606 -0.159544 0)
(29.8884 -0.1425 0)
(29.6419 -0.128015 0)
(29.4183 -0.116217 0)
(29.2112 -0.106179 0)
(29.0175 -0.09723 0)
(28.837 -0.0893999 0)
(28.6685 -0.082522 0)
(28.5102 -0.0763263 0)
(28.3595 -0.0706876 0)
(28.2153 -0.0655761 0)
(28.0775 -0.060804 0)
(27.9468 -0.0562801 0)
(27.8225 -0.0521334 0)
(27.7031 -0.0484122 0)
(27.5878 -0.0449911 0)
(27.4767 -0.0417042 0)
(27.3706 -0.0385049 0)
(27.2692 -0.0355628 0)
(27.1719 -0.0329781 0)
(27.0777 -0.0305936 0)
(26.9871 -0.0282603 0)
(26.9001 -0.0259797 0)
(26.817 -0.023889 0)
(26.737 -0.0220516 0)
(26.66 -0.0203766 0)
(26.5857 -0.0187429 0)
(26.5145 -0.017158 0)
(26.446 -0.0156912 0)
(26.3805 -0.0143762 0)
(26.3172 -0.013174 0)
(26.2567 -0.0120479 0)
(26.1984 -0.0109762 0)
(26.1426 -0.00996976 0)
(26.0889 -0.00903446 0)
(26.0377 -0.00818112 0)
(25.9883 -0.00738588 0)
(25.9414 -0.00662075 0)
(25.8963 -0.00588518 0)
(25.8535 -0.00520296 0)
(25.8123 -0.00456779 0)
(25.7734 -0.00396207 0)
(25.7361 -0.00337284 0)
(25.701 -0.00281874 0)
(25.6675 -0.00230593 0)
(25.6359 -0.00182772 0)
(25.6058 -0.00136941 0)
(25.5776 -0.000937246 0)
(25.5507 -0.000533146 0)
(25.5256 -0.00015762 0)
(25.5016 0.000195103 0)
(25.4792 0.000523161 0)
(25.4577 0.000837876 0)
(25.4376 0.00107413 0)
(25.4184 0.00127535 0)
(25.4002 0.00145657 0)
(25.3827 0.00162854 0)
(25.3662 0.00177791 0)
(25.35 0.00191841 0)
(25.3347 0.00203472 0)
(25.3196 0.00213645 0)
(25.3052 0.00222372 0)
(25.291 0.00229793 0)
(25.2772 0.00235155 0)
(25.2636 0.00239943 0)
(25.2503 0.00243654 0)
(25.2371 0.00246755 0)
(25.224 0.00250255 0)
(25.211 0.00252798 0)
(25.1981 0.00254082 0)
(25.185 0.00254023 0)
(25.172 0.00253149 0)
(25.1588 0.00251136 0)
(25.1455 0.00248081 0)
(25.1321 0.00243046 0)
(25.1184 0.00232188 0)
(25.1048 0.00222609 0)
(25.0899 0.00194285 0)
(25.0767 0.00194516 0)
(25.0582 0.000987511 0)
(25.0479 0.00151997 0)
(25.0178 -0.00294806 0)
(39.1402 -0.0539802 0)
(38.9464 -0.0675467 0)
(38.6586 -0.0934487 0)
(38.1914 -0.131021 0)
(37.4774 -0.172078 0)
(36.5128 -0.207811 0)
(35.3544 -0.233305 0)
(34.0901 -0.246377 0)
(32.7978 -0.247982 0)
(31.5412 -0.24026 0)
(30.3738 -0.225407 0)
(29.3096 -0.206468 0)
(28.3627 -0.186453 0)
(27.5262 -0.166502 0)
(26.7953 -0.147317 0)
(26.154 -0.129833 0)
(25.594 -0.114571 0)
(25.0993 -0.10083 0)
(24.6658 -0.0883878 0)
(24.2808 -0.077485 0)
(23.9409 -0.0684249 0)
(23.6347 -0.0609114 0)
(23.3583 -0.054338 0)
(23.1083 -0.048852 0)
(22.8795 -0.0444053 0)
(22.6704 -0.0404183 0)
(22.4791 -0.0365999 0)
(22.3046 -0.0332522 0)
(22.1436 -0.0305545 0)
(21.9952 -0.0281862 0)
(21.8587 -0.0258243 0)
(21.734 -0.0235735 0)
(21.6196 -0.021685 0)
(21.5139 -0.020174 0)
(21.416 -0.0188164 0)
(21.3261 -0.0174443 0)
(21.2438 -0.0161417 0)
(21.1684 -0.0150647 0)
(21.0984 -0.014193 0)
(21.0339 -0.0133926 0)
(20.9745 -0.012581 0)
(20.9204 -0.0118144 0)
(20.8706 -0.0111672 0)
(20.8248 -0.0106328 0)
(20.7824 -0.0101415 0)
(20.7436 -0.00966261 0)
(20.708 -0.00920315 0)
(20.6756 -0.00878121 0)
(20.6457 -0.00839859 0)
(20.6185 -0.00805309 0)
(20.5934 -0.00772963 0)
(20.5708 -0.00742105 0)
(20.55 -0.00712006 0)
(20.5313 -0.00683794 0)
(20.5141 -0.00657313 0)
(20.4988 -0.0063252 0)
(20.4848 -0.00609484 0)
(20.4725 -0.00589417 0)
(20.4613 -0.00570985 0)
(20.4515 -0.0055315 0)
(20.4426 -0.00534847 0)
(20.4352 -0.00517989 0)
(20.4285 -0.00502216 0)
(20.423 -0.00487485 0)
(20.4182 -0.00471359 0)
(20.4145 -0.00455121 0)
(20.4115 -0.00436662 0)
(20.4095 -0.00418303 0)
(20.408 -0.00396226 0)
(20.4075 -0.00370518 0)
(20.4077 -0.00353027 0)
(20.4085 -0.00335177 0)
(20.4099 -0.00319592 0)
(20.4119 -0.00304915 0)
(20.4145 -0.00290726 0)
(20.4176 -0.00277433 0)
(20.4212 -0.00264676 0)
(20.4253 -0.00253737 0)
(20.4297 -0.00244067 0)
(20.4344 -0.00235735 0)
(20.4394 -0.00228964 0)
(20.4446 -0.00226232 0)
(20.45 -0.00225114 0)
(20.4555 -0.00225559 0)
(20.4611 -0.00226858 0)
(20.4667 -0.0022802 0)
(20.4724 -0.00229507 0)
(20.478 -0.00231367 0)
(20.4837 -0.0023366 0)
(20.4892 -0.00235773 0)
(20.4947 -0.00238272 0)
(20.4999 -0.00240458 0)
(20.5052 -0.00243291 0)
(20.5097 -0.00249378 0)
(20.5147 -0.0025389 0)
(20.5181 -0.00268045 0)
(20.5227 -0.00262387 0)
(20.524 -0.00322219 0)
(20.5277 -0.00208017 0)
(20.5227 -0.00798306 0)
(1.95437 0.421237 0)
(1.64907 2.05102 0)
(0.910905 2.40128 0)
(0.110914 2.5677 0)
(-0.665574 2.43237 0)
(-1.46651 1.98152 0)
(-2.15367 1.28401 0)
(-2.51272 0.770952 0)
(10.5778 0.318084 0)
(4.36564 1.81697 0)
(1.74411 2.17481 0)
(-0.155017 2.21102 0)
(-2.00006 2.04563 0)
(-3.8773 1.69172 0)
(-5.71493 1.11972 0)
(-6.92409 0.530807 0)
(16.8868 -0.371864 0)
(7.91511 0.751521 0)
(2.86677 1.2142 0)
(-0.3908 1.32793 0)
(-2.9925 1.24932 0)
(-5.40338 1.0588 0)
(-7.85091 0.75371 0)
(-9.97521 0.288393 0)
(20.5479 -1.17077 0)
(11.239 -0.438563 0)
(4.58037 0.0734972 0)
(0.166285 0.312114 0)
(-3.14767 0.393392 0)
(-6.02669 0.379206 0)
(-8.77042 0.303337 0)
(-11.4791 0.0760388 0)
(22.4347 -1.81035 0)
(13.5547 -1.3272 0)
(6.44275 -0.873385 0)
(1.28496 -0.548988 0)
(-2.61862 -0.328246 0)
(-5.86405 -0.179409 0)
(-8.80813 -0.0646682 0)
(-11.7951 -0.0515943 0)
(23.6383 -2.31559 0)
(15.4316 -1.97616 0)
(8.25976 -1.57569 0)
(2.74329 -1.21556 0)
(-1.47204 -0.904718 0)
(-4.91753 -0.630892 0)
(-7.98475 -0.380773 0)
(-11.1055 -0.205933 0)
(24.3329 -2.60593 0)
(16.9013 -2.37075 0)
(10.0266 -2.03616 0)
(4.44229 -1.67068 0)
(0.115662 -1.30548 0)
(-3.37699 -0.946694 0)
(-6.43094 -0.597698 0)
(-9.51232 -0.307159 0)
(24.7684 -2.67809 0)
(17.9673 -2.50951 0)
(11.5151 -2.23417 0)
(6.15524 -1.89323 0)
(1.91906 -1.51318 0)
(-1.51037 -1.11244 0)
(-4.48994 -0.712746 0)
(-7.52813 -0.358466 0)
(25.0645 -2.58794 0)
(18.834 -2.46087 0)
(12.8345 -2.23078 0)
(7.79368 -1.91904 0)
(3.76291 -1.55065 0)
(0.479134 -1.14688 0)
(-2.37458 -0.740269 0)
(-5.3287 -0.369156 0)
(25.2506 -2.38115 0)
(19.53 -2.28709 0)
(13.9916 -2.09712 0)
(9.31678 -1.82111 0)
(5.53741 -1.48031 0)
(2.4256 -1.09675 0)
(-0.297187 -0.708772 0)
(-3.17842 -0.35362 0)
(25.3305 -2.11427 0)
(20.0612 -2.05205 0)
(14.9679 -1.8977 0)
(10.6755 -1.65961 0)
(7.16915 -1.35445 0)
(4.2424 -1.00533 0)
(1.65857 -0.650702 0)
(-1.14554 -0.325806 0)
(25.3133 -1.83538 0)
(20.4571 -1.79923 0)
(15.8048 -1.67527 0)
(11.8635 -1.47239 0)
(8.60677 -1.20362 0)
(5.86509 -0.895405 0)
(3.41689 -0.580522 0)
(0.697331 -0.291723 0)
(25.2211 -1.57313 0)
(20.7373 -1.55727 0)
(16.5019 -1.45848 0)
(12.8898 -1.28581 0)
(9.86448 -1.05183 0)
(7.29282 -0.782381 0)
(4.96276 -0.504617 0)
(2.30887 -0.250258 0)
(25.0835 -1.3449 0)
(20.9384 -1.34138 0)
(17.085 -1.26272 0)
(13.7721 -1.1161 0)
(10.9564 -0.913446 0)
(8.53825 -0.679377 0)
(6.31413 -0.436036 0)
(3.71774 -0.214314 0)
(24.918 -1.15154 0)
(21.0783 -1.15577 0)
(17.5722 -1.09232 0)
(14.5312 -0.96747 0)
(11.9028 -0.79312 0)
(9.62005 -0.59043 0)
(7.48728 -0.377608 0)
(4.93596 -0.184574 0)
(24.7435 -0.990701 0)
(21.1868 -0.997115 0)
(17.9788 -0.945413 0)
(15.1719 -0.838538 0)
(12.7164 -0.689839 0)
(10.5578 -0.514724 0)
(8.50791 -0.327882 0)
(5.99449 -0.161603 0)
(24.5798 -0.860627 0)
(21.281 -0.865942 0)
(18.3234 -0.821575 0)
(15.7146 -0.729411 0)
(13.4159 -0.601933 0)
(11.3715 -0.449942 0)
(9.40001 -0.283886 0)
(6.9159 -0.145613 0)
(24.4339 -0.756082 0)
(21.3679 -0.759707 0)
(18.6238 -0.719665 0)
(16.1849 -0.63904 0)
(14.0233 -0.528137 0)
(12.0818 -0.395041 0)
(10.1861 -0.246865 0)
(7.71746 -0.131316 0)
(24.3069 -0.670198 0)
(21.4508 -0.672157 0)
(18.891 -0.635441 0)
(16.5986 -0.56388 0)
(14.5563 -0.466157 0)
(12.7057 -0.348746 0)
(10.878 -0.217197 0)
(8.42403 -0.116092 0)
(24.198 -0.598075 0)
(21.5305 -0.598773 0)
(19.1311 -0.564806 0)
(16.9662 -0.500698 0)
(15.0281 -0.413751 0)
(13.2576 -0.309402 0)
(11.4895 -0.192496 0)
(9.04835 -0.102268 0)
(24.1076 -0.538224 0)
(21.608 -0.538102 0)
(19.3489 -0.506235 0)
(17.2966 -0.4485 0)
(15.4499 -0.37037 0)
(13.7496 -0.276698 0)
(12.0339 -0.171976 0)
(9.60302 -0.0906635 0)
(24.0334 -0.489262 0)
(21.6839 -0.488425 0)
(19.5459 -0.458521 0)
(17.5961 -0.406059 0)
(15.8312 -0.335129 0)
(14.1933 -0.250145 0)
(12.5235 -0.155316 0)
(10.1008 -0.081276 0)
(23.9718 -0.448375 0)
(21.7576 -0.446687 0)
(19.7274 -0.418601 0)
(17.8699 -0.37042 0)
(16.1789 -0.305524 0)
(14.5971 -0.227868 0)
(12.9684 -0.141324 0)
(10.5522 -0.0734543 0)
(23.9209 -0.41233 0)
(21.8295 -0.409752 0)
(19.8963 -0.383499 0)
(18.1218 -0.33909 0)
(16.4974 -0.279517 0)
(14.9665 -0.208313 0)
(13.3746 -0.129 0)
(10.9635 -0.0666739 0)
(23.8797 -0.380498 0)
(21.8978 -0.377214 0)
(20.0523 -0.352502 0)
(18.3534 -0.311397 0)
(16.7898 -0.256526 0)
(15.3053 -0.19103 0)
(13.7466 -0.118092 0)
(11.3391 -0.0607961 0)
(23.8481 -0.353482 0)
(21.9654 -0.348976 0)
(20.1992 -0.325917 0)
(18.5684 -0.287639 0)
(17.0599 -0.236735 0)
(15.6174 -0.176126 0)