/*--------------------------------*- C++ -*----------------------------------*\
| =========                 |                                                 |
| \\      /  F ield         | OpenFOAM: The Open Source CFD Toolbox           |
|  \\    /   O peration     | Version:  v2012                                 |
|   \\  /    A nd           | Website:  www.openfoam.com                      |
|    \\/     M anipulation  |                                                 |
\*---------------------------------------------------------------------------*/
FoamFile
{
    version     2.0;
    format      ascii;
    class       volScalarField;
    location    "0.278";
    object      nut.air;
}
// * * * * * * * * * * * * * * * * * * * * * * * * * * * * * * * * * * * * * //

dimensions      [0 2 -1 0 0 0 0];


internalField   nonuniform List<scalar> 
1900
(
1.07826e-05
1.25664e-05
1.64255e-05
1.88861e-05
2.41588e-05
2.74149e-05
3.43191e-05
3.84516e-05
4.70968e-05
5.21758e-05
0.000160682
0.000159706
0.000159987
0.000159319
0.000160012
0.000159841
0.000161051
0.000161629
0.000163503
0.000165992
0.000160404
0.000159935
0.00015935
0.000158942
0.000158374
0.000158031
0.000157477
0.000157202
0.000156663
0.000156472
0.000160435
0.000159919
0.000159412
0.000158935
0.000158465
0.000158021
0.000157583
0.000157167
0.000156758
0.000156368
0.000160443
0.000159916
0.000159426
0.000158936
0.000158485
0.000158027
0.000157609
0.000157179
0.000156791
0.000156385
0.000160443
0.000159915
0.000159426
0.000158936
0.000158485
0.000158026
0.00015761
0.000157178
0.000156793
0.000156383
0.000160422
0.000159933
0.000159398
0.000158951
0.000158448
0.000158039
0.000157564
0.000157189
0.000156737
0.000156393
0.000160362
0.000159977
0.000159308
0.000158984
0.000158335
0.00015807
0.000157442
0.000157238
0.000156634
0.000156495
0.000160186
0.000160254
0.000159436
0.000159943
0.000159442
0.000160539
0.000160502
0.000162329
0.000162901
0.000165194
1.04284e-05
1.27952e-05
1.58552e-05
1.92306e-05
2.33349e-05
2.78919e-05
3.32113e-05
3.90711e-05
4.56967e-05
5.28805e-05
0.000196167
0.00064128
0.00141946
0.00211006
0.00247579
0.00267401
0.00269256
0.0025867
0.00247365
0.00238992
0.00233886
0.00234374
0.00237557
0.00247812
0.00261003
0.00278448
0.00300168
0.00323863
0.00348012
0.00372015
0.00392634
0.00405844
0.00417897
0.0043055
0.00442182
0.00453109
0.00463408
0.00472946
0.00482089
0.00490472
0.00498806
0.00506634
0.00513403
0.00517465
0.00520924
0.00523966
0.00526578
0.0052882
0.00530788
0.00532506
0.00534063
0.00535488
0.00536782
0.00537983
0.00539058
0.00540029
0.00540869
0.00541607
0.00542224
0.00542746
0.00543172
0.00543528
0.00543802
0.00544042
0.00544209
0.00544358
0.00544431
0.00544501
0.00544485
0.00544482
0.00544378
0.00544305
0.00544111
0.00543975
0.00543694
0.00543507
0.00543138
0.0054291
0.00542456
0.00542195
0.00541653
0.00541359
0.00540718
0.00540377
0.00539631
0.00539224
0.00538369
0.00537867
0.00536918
0.00536287
0.00535261
0.00534474
0.00533392
0.00532444
0.00531326
0.00530249
0.00529109
0.00527944
0.00526791
0.00525585
0.00524433
0.00523211
0.00522075
0.00520818
0.00519727
0.00518351
0.00517326
0.0051569
0.00514709
0.00512292
0.00017247
0.000182735
0.000219855
0.000325324
0.000480882
0.000625589
0.000699548
0.000748528
0.000767597
0.000767187
0.000765086
0.000776537
0.000806756
0.000838509
0.000891465
0.000968157
0.0010621
0.0011803
0.00131676
0.00147471
0.00164414
0.00182397
0.00200784
0.00219961
0.00240213
0.00260657
0.00280887
0.00300387
0.00318985
0.00336315
0.00352332
0.00366342
0.00379197
0.00388205
0.00396866
0.00405303
0.00413077
0.00420451
0.0042761
0.00434423
0.00441186
0.00447692
0.00453594
0.00458412
0.00462794
0.00466811
0.00470444
0.00473788
0.00476811
0.00479606
0.00482196
0.00484603
0.00486865
0.0048902
0.0049102
0.00492917
0.00494661
0.00496333
0.00497841
0.00499288
0.0050056
0.00501796
0.00502846
0.00503903
0.00504762
0.00505681
0.00506371
0.00507184
0.00507725
0.00508443
0.00508835
0.0050946
0.00509697
0.0051022
0.005103
0.00510704
0.0051063
0.00510888
0.00510675
0.00510758
0.00510422
0.00510306
0.00509858
0.00509552
0.00509008
0.00508548
0.00507925
0.00507355
0.00506673
0.00506039
0.00505318
0.0050464
0.00503894
0.00503152
0.00502407
0.00501514
0.00500764
0.00499567
0.00498789
0.0049684
0.000155878
0.000156049
0.000155666
0.000156124
0.000159359
0.000165001
0.000172683
0.000180635
0.000185995
0.000190948
0.000194862
0.00019935
0.000205349
0.000212526
0.000222194
0.000236194
0.000254814
0.00028106
0.000315705
0.000360349
0.000416362
0.000485001
0.000565634
0.000658049
0.000760707
0.000876263
0.00100079
0.00113676
0.00127809
0.00142855
0.00157802
0.00173687
0.00189717
0.00205575
0.00221446
0.00237097
0.00252268
0.00266875
0.00280789
0.00293988
0.00306318
0.0031589
0.00324088
0.00332106
0.00339903
0.00347449
0.00354641
0.00361563
0.00368118
0.00374646
0.00381059
0.00387294
0.00393588
0.00399681
0.00405509
0.00411218
0.0041593
0.00419851
0.00423438
0.00426818
0.00429896
0.00432825
0.00435489
0.0043811
0.00440491
0.00442871
0.00445001
0.004472
0.00449077
0.00451072
0.004527
0.00454501
0.00455883
0.00457491
0.00458636
0.00460047
0.00460971
0.00462162
0.00462882
0.00463824
0.00464352
0.00465037
0.00465384
0.00465832
0.00466015
0.00466274
0.0046632
0.0046644
0.00466378
0.00466406
0.0046626
0.00466214
0.00465991
0.00465852
0.00465566
0.00465256
0.00464882
0.00464241
0.00463741
0.00462429
0.000155908
0.000155425
0.000154969
0.000154624
0.000154426
0.000154437
0.000154543
0.000154746
0.000154913
0.000155054
0.000155126
0.000155122
0.000155174
0.000155077
0.000155278
0.000155187
0.000155799
0.000155936
0.000157406
0.000158336
0.000161602
0.000165795
0.000171256
0.000180434
0.00019191
0.000210686
0.000234291
0.000266728
0.000305684
0.000355131
0.000412275
0.000479363
0.000554907
0.000639137
0.000730284
0.000829156
0.000933658
0.00104393
0.00115798
0.00127547
0.00139397
0.00151419
0.00163687
0.00175743
0.00187647
0.00199527
0.00211169
0.00222572
0.0023363
0.00242986
0.00250987
0.00258922
0.00266877
0.00274708
0.00282366
0.00289986
0.00297487
0.00304921
0.00312184
0.00319441
0.00326576
0.00333838
0.00339669
0.00344625
0.0034927
0.00353846
0.00358222
0.00362461
0.00366275
0.00370095
0.00373483
0.00376934
0.00379907
0.00383012
0.00385634
0.00388419
0.00390692
0.00393116
0.00395036
0.00397066
0.00398692
0.00400373
0.00401734
0.00403103
0.00404221
0.00405351
0.00406273
0.00407225
0.00407989
0.00408812
0.00409446
0.00410164
0.00410656
0.00411252
0.004116
0.00411991
0.00412122
0.00412156
0.00411995
0.00411426
0.000155951
0.000155428
0.000154992
0.000154564
0.000154294
0.000154109
0.000154095
0.00015419
0.000154293
0.00015442
0.000154398
0.00015443
0.000154247
0.000154215
0.000153926
0.000153902
0.000153554
0.000153581
0.000153198
0.000153313
0.00015291
0.000153154
0.000152783
0.000153205
0.000152954
0.000153681
0.000153772
0.000155138
0.000156045
0.000158768
0.000162234
0.000166741
0.000173194
0.000183363
0.000195849
0.000213798
0.000235758
0.000263918
0.000297523
0.000338107
0.000384606
0.000437857
0.000496832
0.000562336
0.00063253
0.00070817
0.000787214
0.000870593
0.000956109
0.00104472
0.0011329
0.00122202
0.00130875
0.00139627
0.00148544
0.00157379
0.00166172
0.00175008
0.00183708
0.00192378
0.00200846
0.0020929
0.00217494
0.0022565
0.00233497
0.00241301
0.00248592
0.00255606
0.00262025
0.00268194
0.00273785
0.00279191
0.00284042
0.00288782
0.00292958
0.00297132
0.00300723
0.00304471
0.00307593
0.00310917
0.003138
0.00316742
0.00319362
0.00321905
0.00324252
0.0032654
0.00328653
0.00330736
0.00332643
0.00334563
0.00336281
0.00338072
0.00339566
0.00341222
0.00342458
0.00343947
0.00344834
0.00346033
0.00346476
0.00347308
0.000155953
0.000155419
0.00015498
0.000154517
0.000154256
0.00015403
0.000154127
0.000154173
0.000154495
0.000154661
0.000155101
0.000155401
0.000155956
0.000156386
0.000157053
0.000157584
0.00015832
0.000158911
0.000159701
0.000160329
0.000161165
0.00016184
0.000162748
0.000163479
0.000164468
0.000165287
0.000166397
0.000167321
0.000168567
0.000169626
0.000171074
0.000172324
0.000174019
0.00017552
0.00017759
0.000179862
0.000182396
0.000185454
0.000189304
0.000193856
0.000199654
0.000206671
0.000215613
0.00022657
0.00024036
0.000257181
0.000277786
0.000302617
0.000332355
0.000366935
0.00040699
0.000452016
0.000502289
0.000556669
0.000615483
0.000677858
0.000743197
0.000811081
0.000880436
0.000951247
0.00102207
0.00109331
0.00116326
0.00123273
0.00129945
0.00136514
0.00142807
0.00149181
0.00155261
0.00161398
0.00167229
0.00173117
0.00178702
0.0018439
0.0018976
0.0019516
0.00200313
0.00205526
0.00210465
0.00215386
0.00220083
0.00224701
0.00229103
0.0023339
0.00237439
0.00241395
0.0024508
0.00248716
0.00252044
0.00255399
0.00258396
0.00261535
0.00264188
0.00267159
0.00269442
0.00272301
0.00274119
0.0027684
0.00278098
0.00280826
0.000155872
0.000155441
0.000154877
0.000154528
0.000154137
0.000154111
0.000154399
0.00015511
0.000156501
0.000158757
0.000161989
0.000165482
0.000169693
0.000174016
0.000178707
0.000183134
0.000187751
0.000192042
0.000196493
0.000200626
0.000205028
0.000209185
0.000213727
0.000218012
0.00022284
0.00022743
0.00023266
0.000237611
0.000243169
0.000248838
0.000255026
0.000261205
0.000267999
0.000274836
0.000282434
0.000290102
0.000298629
0.000307236
0.00031678
0.000326416
0.000337058
0.000347799
0.000359623
0.000371577
0.000384689
0.000397978
0.000412512
0.000427303
0.000443404
0.00045985
0.000477697
0.000496006
0.000515844
0.00053635
0.000558492
0.000581533
0.00060632
0.000632251
0.000660023
0.000689504
0.000720071
0.000753052
0.00078716
0.000823857
0.000861224
0.000901383
0.000941665
0.000984828
0.00102791
0.00107377
0.00111937
0.00116757
0.00121543
0.00126561
0.00131533
0.00136704
0.00141806
0.00147055
0.00152192
0.0015741
0.00162451
0.00167511
0.00172319
0.00177113
0.00181569
0.00186012
0.00190044
0.00194094
0.00197685
0.00201379
0.00204571
0.00207993
0.00210815
0.00214042
0.00216529
0.00219639
0.00221778
0.0022475
0.00226519
0.00229793
0.000155799
0.000155733
0.000155029
0.000155434
0.000155764
0.000160088
0.000164386
0.000172714
0.000186194
0.000201293
0.000218067
0.000234277
0.000250145
0.000264316
0.000277847
0.000289906
0.000301903
0.000312934
0.000324433
0.000335664
0.000347882
0.000360293
0.000373204
0.000386279
0.000400034
0.000413917
0.000428466
0.000443045
0.000458467
0.000473905
0.000490249
0.000506433
0.000523727
0.000541832
0.000560804
0.000580295
0.000600429
0.000620921
0.00064201
0.00066335
0.000685195
0.000707212
0.000729712
0.000752389
0.000775553
0.000798883
0.000822708
0.000846576
0.00087098
0.000895626
0.000920453
0.000945681
0.000971347
0.00099741
0.00102386
0.00105079
0.00107806
0.00110586
0.0011339
0.00116248
0.00119113
0.00122031
0.00124931
0.00127878
0.00130774
0.00133707
0.00136553
0.00139425
0.00142183
0.00144951
0.00147583
0.00150212
0.00152701
0.00155173
0.00157504
0.00159818
0.0016199
0.0016416
0.00166181
0.0016822
0.00170112
0.00172038
0.00173824
0.00175645
0.00177319
0.00179028
0.00180584
0.00182167
0.00183613
0.00185087
0.00186471
0.00187878
0.00189177
0.00190549
0.00191794
0.00193125
0.0019428
0.00195541
0.00196523
0.0019792
0.000166516
0.000169604
0.000176144
0.000188661
0.000212056
0.000244412
0.00028278
0.000323025
0.000361856
0.000397527
0.000429324
0.000457421
0.000482558
0.000505614
0.000527805
0.000550318
0.000573404
0.000597138
0.000624427
0.000652911
0.000680827
0.000690717
0.000701725
0.000713357
0.000724949
0.000737321
0.00075033
0.00076423
0.000778072
0.000792276
0.000806477
0.000821266
0.000835926
0.000850357
0.000864523
0.000878474
0.000892305
0.000906018
0.000919578
0.000932869
0.000945986
0.000958894
0.000971666
0.000984209
0.000996586
0.00100873
0.00102073
0.00103257
0.00104425
0.00105573
0.00106705
0.00107819
0.00108915
0.00109995
0.00111054
0.00112095
0.00113114
0.00114118
0.00115099
0.00116065
0.00117008
0.00117936
0.00118837
0.00119729
0.00120592
0.0012145
0.0012228
0.00123109
0.00123908
0.00124714
0.00125492
0.00126269
0.00127027
0.00127775
0.00128514
0.00129224
0.00129931
0.00130597
0.00131243
0.00131881
0.00132482
0.00133078
0.00133625
0.00134172
0.00134674
0.00135184
0.0013566
0.00136145
0.00136602
0.0013707
0.00137517
0.00137953
0.00138357
0.00138746
0.00139142
0.00139514
0.00139846
0.00140173
0.00140321
0.00140842
6.23708e-05
7.45212e-05
8.79205e-05
0.000102396
0.000118129
0.000134678
0.000151713
0.000168235
0.0001837
0.000197071
0.000208129
0.000216289
0.000221568
0.000225232
0.000226539
0.000226132
0.000224557
0.000222171
0.000219227
0.000215993
0.000212589
0.000209232
0.000205979
0.000202877
0.000199951
0.000197225
0.000194705
0.000192395
0.00019028
0.000188356
0.000186614
0.000185052
0.000183659
0.000182416
0.000181314
0.000180339
0.000179487
0.000178747
0.000178109
0.000177557
0.000177087
0.00017669
0.000176363
0.000176094
0.000175879
0.000175708
0.000175579
0.000175486
0.000175427
0.000175395
0.000175391
0.000175405
0.000175442
0.000175494
0.000175563
0.000175642
0.000175734
0.000175832
0.000175942
0.000176054
0.000176172
0.000176294
0.000176415
0.000176541
0.000176663
0.000176788
0.00017691
0.000177031
0.000177151
0.000177273
0.000177395
0.000177522
0.00017765
0.000177782
0.000177918
0.000178055
0.000178193
0.000178326
0.000178451
0.00017857
0.000178677
0.000178772
0.000178847
0.000178905
0.000178945
0.000178977
0.000179001
0.000179021
0.000179038
0.000179054
0.000179069
0.000179069
0.000179066
0.000179028
0.000178985
0.000178849
0.000178705
0.000178322
0.000178016
0.000177232
0.000132029
0.00100866
0.00144191
0.00161975
0.00157206
0.00130269
0.000974527
0.000294976
0.00294547
0.00274224
0.00298682
0.0031407
0.00283862
0.00217103
0.00114302
0.000457659
0.00467238
0.00460563
0.00549735
0.00623567
0.0059145
0.00462861
0.00246869
0.000595081
0.00542864
0.00584553
0.0071313
0.00894467
0.00857619
0.00696548
0.00395372
0.000754749
0.00574992
0.00657414
0.00809045
0.00987192
0.00989393
0.00828778
0.00495181
0.00085764
0.00587159
0.00677444
0.00820922
0.0099818
0.0102975
0.00879242
0.00535498
0.000886357
0.00577169
0.00692612
0.00824445
0.0098546
0.0103959
0.00898469
0.00553474
0.000892911
0.00550987
0.00679023
0.00826819
0.00982123
0.0103339
0.00900553
0.00561261
0.000883355
0.00522769
0.00657762
0.00809736
0.00963637
0.0100802
0.0088138
0.0055222
0.000850845
0.00499397
0.00638377
0.0079394
0.00944306
0.00976031
0.00852689
0.00535273
0.000811808
0.00481953
0.00623525
0.0078219
0.00928991
0.00942988
0.00821102
0.00515326
0.000770071
0.00472723
0.00616852
0.00775109
0.00900465
0.00909398
0.00787759
0.00492679
0.000735335
0.00468113
0.00615442
0.007723
0.00874233
0.00876608
0.0075367
0.00467799
0.00071171
0.00469967
0.00619396
0.00773046
0.00850604
0.00845662
0.00721044
0.00443947
0.00068903
0.00473422
0.00626308
0.00777077
0.0082979
0.00817366
0.00690807
0.00422021
0.000668064
0.00478726
0.00633652
0.0076976
0.008105
0.00791028
0.00663616
0.00401828
0.000648916
0.00486005
0.0064023
0.00756035
0.00791896
0.00766224
0.00638426
0.00383732
0.000603387
0.00494973
0.00646286
0.00743439
0.00774039
0.00743086
0.00615466
0.00368573
0.00052099
0.00505113
0.00651657
0.00731828
0.00757224
0.00721636
0.00594358
0.00354767
0.000459829
0.00516075
0.00656486
0.00721365
0.00741653
0.00701878
0.00574927
0.00342018
0.000412832
0.00527724
0.00658842
0.00711905
0.00727293
0.00683729
0.00557068
0.00330267
0.00037565
0.00540272
0.00655395
0.0070336
0.00714091
0.00667069
0.00540681
0.00319484
0.000345622
0.0055195
0.00652057
0.00695396
0.00701846
0.00651716
0.00525598
0.00309572
0.000320946
0.00563107
0.00648964
0.00687965
0.00690444
0.00637508
0.00511665
0.00300436
0.000300364
0.00572868
0.0064595
0.0068095
0.00679766
0.0062431
0.00498739
0.00291984
0.000282956
0.00581919
0.00643009
0.00674289
0.00669722
0.0061194
0.00486702
0.00284142
0.000268053
0.00583386
0.00640094
0.00667902
0.00660184
0.00600477
0.00475424
0.00276849
0.000255191
0.00584207
0.00637074
0.00661688
0.00651076
0.00589712
0.00464836
0.00270043
0.000244006
0.00584695
0.00634029
0.00655664
0.00642375
0.00579525
0.00454867
0.0026367
0.000234202
0.0058488
0.00630943
0.00649783
0.00634029
0.00569825
0.00445437
0.0025768
0.000225542
0.00585016
0.00627936
0.00644068
0.00626006
0.00560583
0.004365
0.00252036
0.000217843
0.00585035
0.0062499
0.00638523
0.00618305
0.00551764
0.00428019
0.0024671
0.000210965
0.00585
0.00622114
0.00633218
0.00610896
0.00543325
0.00419954
0.00241676
0.000204796
0.00584903
0.00619325
0.00628117
0.00603793
0.00535257
0.00412283
0.00236915
0.000199241
0.00584662
0.0061658
0.0062319
0.00596992
0.00527541
0.00404982
0.00232411
0.00019422
0.00584307
0.0061387
0.00618413
0.00590436
0.00520161
0.00398032
0.00228149
0.000189668
0.00583833
0.00611185
0.00613758
0.00584175
0.00513062
0.00391401
0.00224112
0.000185531
0.00583223
0.00608521
0.00609226
0.00578158
0.00506243
0.00385067
0.00220283
0.000181764
0.00582514
0.00605873
0.00604812
0.00572354
0.00499688
0.0037901
0.0021665
0.000178327
0.00581717
0.00603242
0.0060051
0.00566746
0.00493381
0.00373212
0.00213197
0.000175185
0.00580861
0.0060063
0.00596311
0.00561314
0.00487305
0.00367656
0.00209913
0.000172305
0.00579976
0.00598056
0.00592221
0.00556054
0.00481448
0.00362326
0.00206786
0.000169663
0.00579062
0.00595517
0.00588232
0.00550954
0.00475796
0.00357209
0.00203805
0.000167234
0.00578141
0.00593027
0.00584354
0.00546013
0.0047034
0.00352294
0.00200962
0.000164995
0.00577197
0.00590577
0.00580564
0.00541222
0.00465071
0.00347568
0.00198249
0.000162931
0.00576245
0.00588166
0.00576891
0.00536564
0.00459979
0.00343024
0.00195658
0.000161024
0.00575262
0.00585788
0.00573317
0.00532036
0.00455051
0.0033865
0.00193183
0.000159261
0.00574264
0.00583445
0.00569833
0.00527637
0.00450284
0.00334438
0.00190819
0.000157627
0.00573234
0.00581124
0.0056642
0.00523354
0.00445663
0.00330379
0.00188558
0.000156111
0.00572186
0.00578837
0.00563086
0.00519188
0.00441187
0.00326467
0.00186396
0.000154704
0.00571105
0.00576566
0.00559812
0.00515126
0.00436844
0.0032269
0.00184326
0.000153398
0.00570018
0.00574335
0.00556611
0.0051117
0.00432631
0.00319047
0.00182345
0.000152183
0.00568899
0.00572114
0.00553465
0.00507308
0.00428539
0.00315527
0.00180447
0.000151054
0.00567786
0.00569946
0.00550385
0.00503547
0.00424568
0.00312127
0.00178629
0.000150001
0.00566644
0.00567794
0.0054735
0.00499866
0.00420704
0.00308839
0.00176885
0.000149021
0.00565524
0.00565694
0.00544389
0.00496283
0.00416953
0.0030566
0.00175213
0.000148106
0.00564374
0.00563601
0.00541469
0.00492772
0.004133
0.00302584
0.00173609
0.000147254
0.00563258
0.00561567
0.00538626
0.00489359
0.00409754
0.0029961
0.0017207
0.000146457
0.00562102
0.00559527
0.00535814
0.00486011
0.00406297
0.00296729
0.00170592
0.000145715
0.00560991
0.0055755
0.00533083
0.00482759
0.00402944
0.00293945
0.00169175
0.00014502
0.00559826
0.00555556
0.00530374
0.00479564
0.00399671
0.00291244
0.00167812
0.000144372
0.00558719
0.00553641
0.00527752
0.00476466
0.003965
0.00288636
0.00166506
0.000143765
0.00557542
0.00551697
0.00525138
0.00473413
0.003934
0.00286105
0.00165249
0.000143199
0.00556445
0.00549843
0.00522622
0.00470461
0.003904
0.00283663
0.00164047
0.000142669
0.00555255
0.00547938
0.00520099
0.00467541
0.00387462
0.0028129
0.00162888
0.000142173
0.00554171
0.00546144
0.00517686
0.00464727
0.00384623
0.00279
0.0016178
0.00014171
0.0055296
0.0054427
0.00515244
0.0046193
0.00381835
0.00276773
0.00160709
0.000141276
0.0055189
0.00542532
0.00512928
0.00459246
0.00379144
0.00274622
0.00159681
0.000140869
0.0055065
0.00540676
0.00510551
0.00456555
0.00376488
0.00272526
0.00158697
0.000140488
0.00549595
0.00538989
0.00508323
0.00453988
0.00373933
0.00270504
0.0015775
0.000140132
0.00548319
0.0053714
0.00505996
0.00451386
0.00371394
0.00268526
0.00156835
0.000139794
0.00547274
0.00535497
0.00503845
0.00448924
0.0036896
0.00266619
0.00155954
0.000139478
0.00545947
0.00533637
0.00501551
0.00446394
0.00366522
0.00264745
0.00155103
0.000139183
0.00544899
0.00532024
0.00499463
0.00444022
0.00364196
0.00262941
0.00154284
0.000138903
0.0054351
0.00530141
0.00497188
0.0044155
0.00361845
0.00261159
0.0015349
0.000138642
0.0054244
0.0052854
0.00495145
0.00439257
0.00359616
0.00259449
0.00152726
0.000138394
0.00540986
0.00526629
0.00492882
0.0043684
0.00357349
0.00257755
0.00151984
0.000138165
0.00539865
0.00525015
0.00490867
0.00434608
0.00355204
0.00256129
0.00151269
0.000137946
0.00538353
0.00523085
0.00488627
0.00432251
0.00353027
0.00254525
0.00150579
0.000137747
0.00537146
0.00521427
0.00486612
0.00430055
0.00350948
0.00252968
0.00149903
0.000137553
0.00535601
0.00519504
0.00484421
0.00427782
0.00348875
0.00251462
0.00149268
0.000137384
0.00534277
0.00517769
0.00482371
0.00425593
0.00346834
0.00249955
0.00148623
0.000137212
0.00532726
0.00515883
0.00480261
0.00423434
0.00344892
0.00248564
0.00148048
0.000137075
0.00531273
0.00514052
0.00478152
0.00421225
0.00342864
0.00247086
0.00147424
0.000136919
0.00529741
0.00512236
0.00476153
0.0041921
0.00341075
0.00245825
0.00146814
0.000136815
0.00528182
0.00510323
0.00473984
0.00416967
0.00339038
0.00244365
0.00145867
0.00013667
0.00526681
0.00508584
0.00472103
0.004151
0.00337407
0.00243245
0.00145157
0.000136585
0.00525052
0.00506618
0.00469897
0.00412838
0.00335369
0.002418
0.00144182
0.000136442
0.00523583
0.00504948
0.00468116
0.00411097
0.00333872
0.00240794
0.00143495
0.00013637
0.0052193
0.00502973
0.00465913
0.00408852
0.00331865
0.00239384
0.00142537
0.000136242
0.00520496
0.00501365
0.00464219
0.00407216
0.00330481
0.00238474
0.00141866
0.00013618
0.00518849
0.00499413
0.00462057
0.00405029
0.00328538
0.00237116
0.00140947
0.000136082
0.0051746
0.00497871
0.00460448
0.00403497
0.00327267
0.00236308
0.0014029
0.000136033
0.00515807
0.0049594
0.00458337
0.00401387
0.0032541
0.00235008
0.00139408
0.000135977
0.0051449
0.0049449
0.00456835
0.00399969
0.00324249
0.0023429
0.00138762
0.000135937
0.00512757
0.0049252
0.00454733
0.00397916
0.00322471
0.00233057
0.00137898
0.000135934
0.00511551
0.00491211
0.00453391
0.00396661
0.00321465
0.00232421
0.00137265
0.000135896
0.00509617
0.00489101
0.00451217
0.00394601
0.00319715
0.00231252
0.0013636
0.000135923
0.00508513
0.00487937
0.00450051
0.00393526
0.00318834
0.00230678
0.00135865
0.000135907
0.00505806
0.00485095
0.00447218
0.0039092
0.00316706
0.00229291
0.00134801
0.000135908
)
;

boundaryField
{
    frontAndBack
    {
        type            empty;
    }
    inlet
    {
        type            calculated;
        value           nonuniform List<scalar> 10(9.54769e-06 0.000160714 0.000160714 0.000160714 0.000160714 0.000160714 0.000160714 0.000160714 0.000160714 9.54736e-06);
    }
    outlet
    {
        type            calculated;
        value           nonuniform List<scalar> 
18
(
0.00505806
0.00485095
0.00447218
0.0039092
0.00316706
0.00229291
0.00134753
0.000171763
0.00512292
0.0049684
0.00462429
0.00411426
0.00347308
0.00280826
0.00229793
0.0019792
0.00140873
0.000185971
)
;
    }
    walls
    {
        type            nutkWallFunction;
        blending        stepwise;
        Cmu             0.09;
        kappa           0.41;
        E               9.8;
        value           nonuniform List<scalar> 
228
(
2.20337e-05
2.44559e-05
2.91026e-05
3.17398e-05
3.68056e-05
3.96162e-05
4.50184e-05
4.79443e-05
5.35672e-05
5.65374e-05
0.00022826
0.000216672
0.000219077
0.000225623
0.000229851
0.000225514
0.000199531
3.37445e-05
3.37445e-05
5.92132e-05
7.99893e-05
9.57465e-05
0.000104038
0.000107449
0.000108226
0.000107093
0.000103229
9.85678e-05
9.35565e-05
8.93628e-05
8.6498e-05
8.37379e-05
8.11775e-05
7.88313e-05
7.66059e-05
7.44994e-05
7.26043e-05
7.08982e-05
6.93605e-05
6.79798e-05
6.67392e-05
6.56225e-05
6.46151e-05
6.37027e-05
6.28758e-05
6.21248e-05
6.14411e-05
6.08167e-05
6.02445e-05
5.97193e-05
5.92362e-05
5.87918e-05
5.83828e-05
5.80066e-05
5.76607e-05
5.7343e-05
5.70511e-05
5.67834e-05
5.65373e-05
5.6312e-05
5.61055e-05
5.59164e-05
5.57432e-05
5.55847e-05
5.54395e-05
5.53071e-05
5.51862e-05
5.50762e-05
5.49762e-05
5.48855e-05
5.48035e-05
5.47296e-05
5.46632e-05
5.46037e-05
5.45508e-05
5.45038e-05
5.44625e-05
5.44264e-05
5.43952e-05
5.43686e-05
5.43463e-05
5.43282e-05
5.43135e-05
5.43026e-05
5.42948e-05
5.42899e-05
5.42879e-05
5.42887e-05
5.4291e-05
5.42956e-05
5.43027e-05
5.43109e-05
5.43216e-05
5.4333e-05
5.43471e-05
5.43614e-05
5.43788e-05
5.43955e-05
5.44167e-05
5.44353e-05
5.44607e-05
5.44805e-05
5.45107e-05
5.45299e-05
5.4562e-05
5.45791e-05
5.46113e-05
5.46294e-05
5.46613e-05
5.46841e-05
5.47163e-05
5.4747e-05
5.4779e-05
5.48212e-05
5.48502e-05
5.49034e-05
5.49306e-05
5.50037e-05
2.15252e-05
2.47529e-05
2.84569e-05
3.20937e-05
3.60552e-05
4.00124e-05
4.41914e-05
4.83744e-05
5.26946e-05
5.69924e-05
6.21849e-05
6.81865e-05
7.41054e-05
7.97523e-05
8.50883e-05
8.98976e-05
9.41179e-05
9.75735e-05
0.000100287
0.00010217
0.000103363
0.00010385
0.000103735
0.000103363
0.00010259
0.000101559
0.000100379
9.91155e-05
9.78144e-05
9.65191e-05
9.52438e-05
9.40238e-05
9.2866e-05
9.17765e-05
9.07557e-05
8.98049e-05
8.89217e-05
8.81053e-05
8.7352e-05
8.66598e-05
8.60246e-05
8.54439e-05
8.49145e-05
8.44323e-05
8.39946e-05
8.35974e-05
8.32379e-05
8.29131e-05
8.26205e-05
8.23568e-05
8.212e-05
8.19073e-05
8.17171e-05
8.15467e-05
8.13947e-05
8.12588e-05
8.1138e-05
8.10304e-05
8.09352e-05
8.08509e-05
8.07768e-05
8.07115e-05
8.06547e-05
8.06053e-05
8.05629e-05
8.05266e-05
8.04958e-05
8.04701e-05
8.04492e-05
8.04323e-05
8.0419e-05
8.04096e-05
8.04019e-05
8.03983e-05
8.03956e-05
8.03961e-05
8.03978e-05
8.04015e-05
8.04065e-05
8.04143e-05
8.04233e-05
8.04354e-05
8.0449e-05
8.04649e-05
8.04831e-05
8.05024e-05
8.05229e-05
8.05434e-05
8.05625e-05
8.05812e-05
8.05974e-05
8.06116e-05
8.06214e-05
8.06275e-05
8.06301e-05
8.06308e-05
8.06297e-05
8.06276e-05
8.06249e-05
8.06217e-05
8.06183e-05
8.06109e-05
8.06032e-05
8.0586e-05
8.05686e-05
8.05272e-05
8.04866e-05
8.03832e-05
8.03084e-05
8.00976e-05
)
;
    }
}


// ************************************************************************* //
