/*--------------------------------*- C++ -*----------------------------------*\
| =========                 |                                                 |
| \\      /  F ield         | OpenFOAM: The Open Source CFD Toolbox           |
|  \\    /   O peration     | Version:  v2012                                 |
|   \\  /    A nd           | Website:  www.openfoam.com                      |
|    \\/     M anipulation  |                                                 |
\*---------------------------------------------------------------------------*/
FoamFile
{
    version     2.0;
    format      ascii;
    class       volScalarField;
    location    "0.265";
    object      epsilon.air;
}
// * * * * * * * * * * * * * * * * * * * * * * * * * * * * * * * * * * * * * //

dimensions      [0 2 -3 0 0 0 0];


internalField   nonuniform List<scalar> 
1900
(
112.724
141.424
210.098
257.591
369.051
443.457
614.741
724.902
971.333
1128.61
15.4676
16.4471
18.6375
20.4503
23.757
27.7278
32.0002
39.3092
44.9865
56.9721
14.7926
14.6414
14.5755
14.5063
14.515
14.5558
14.6443
14.829
15.0762
15.4172
14.77
14.6304
14.4634
14.3354
14.1726
14.059
13.904
13.8079
13.6653
13.5938
14.7767
14.6215
14.4705
14.3204
14.1749
14.0288
13.889
13.7471
13.6139
13.4769
14.7778
14.6204
14.4715
14.3195
14.1755
14.0283
13.8892
13.7472
13.6133
13.4773
14.7777
14.6206
14.4732
14.3233
14.1842
14.0448
13.9178
13.7912
13.6808
13.5715
14.7763
14.6495
14.564
14.5033
14.5109
14.5502
14.6395
14.8173
15.0463
15.3944
15.2156
16.5934
18.2846
20.6687
23.6024
27.5631
32.2748
38.3986
45.5728
54.8097
105.945
146.517
198.409
265.684
350.08
456
585.731
743.674
931.871
1154.06
4099.72
15199.2
19580.3
22445.9
21108.3
18007.3
15069.6
12774
11281.2
10369.9
9872.81
9700.96
9531.05
9264.24
8855.96
8355.42
7799.73
7212.16
6644.79
6126.04
5649.15
5222.49
4838.17
4487.14
4167.85
3878.47
3615.95
3378.36
3162.61
2966.72
2788.34
2625.46
2476.44
2339.76
2214.26
2098.77
1992.36
1894.1
1803.21
1718.97
1640.73
1567.93
1500.04
1436.63
1377.29
1321.67
1269.47
1220.38
1174.16
1130.59
1089.45
1050.56
1013.75
978.863
945.754
914.275
884.319
855.752
828.497
802.429
777.503
753.598
730.702
708.69
687.586
667.249
647.741
628.893
610.815
593.297
576.51
560.185
544.575
529.335
514.813
500.571
487.074
473.76
461.236
448.785
437.187
425.527
414.805
403.856
393.959
383.632
374.514
364.714
356.343
346.974
339.338
330.306
323.416
314.622
308.513
299.848
294.568
285.911
281.502
271.114
112.924
337.77
518.002
922.874
1125.42
1148.83
1120.5
1055.22
1049.17
1088.58
1193.96
1407.49
1695.87
2029.42
2380.51
2692.73
2971.29
3205.04
3359.7
3435.64
3427.79
3389.19
3303.47
3185.08
3056.48
2925.02
2793.96
2667
2543.41
2425.99
2313.9
2206.94
2105.61
2009.73
1919.42
1834.34
1754.43
1679.17
1608.37
1541.75
1479.01
1419.86
1364.05
1311.37
1261.57
1214.44
1169.8
1127.46
1087.26
1049.04
1012.67
978.024
944.993
913.46
883.34
854.519
826.931
800.471
775.092
750.697
727.261
704.688
682.983
662.041
641.903
622.446
603.746
585.649
568.273
551.423
535.27
519.561
504.538
489.878
475.908
462.218
449.242
436.456
424.425
412.483
401.353
390.187
379.914
369.45
359.986
350.139
341.442
332.121
324.156
315.268
308.021
299.473
292.95
284.646
278.874
270.71
265.73
257.59
253.446
243.695
16.4219
19.8672
22.8828
29.0978
34.7967
38.7269
41.676
43.7126
46.6175
50.6359
58.6562
70.8631
95.413
130.257
189.61
267.618
373.585
509.37
667.149
837.994
1006.62
1165.32
1305.36
1421.66
1511.45
1574.01
1611.42
1627.87
1624.97
1613.96
1590.94
1560.85
1526.64
1489.65
1451.32
1411.76
1372.06
1331.76
1291.91
1252.76
1214.3
1176.72
1140.16
1104.69
1070.37
1037.12
1004.99
973.903
943.838
914.761
886.645
859.436
833.12
807.654
783.031
759.193
736.139
713.813
692.216
671.29
651.046
631.422
612.449
594.049
576.283
559.053
542.451
526.342
510.857
495.811
481.383
467.331
453.898
440.77
428.27
416
404.382
392.911
382.132
371.405
361.429
351.392
342.184
332.773
324.294
315.434
307.647
299.257
292.132
284.13
277.652
269.953
264.124
256.643
251.48
244.126
239.664
232.336
228.612
219.838
13.453
13.4605
13.5461
13.8025
14.3347
15.0069
15.7209
16.3416
16.9313
17.3446
17.8959
18.3582
19.295
20.4975
22.7067
26.2892
31.699
40.7781
54.8146
76.3257
106.692
147.477
199.59
261.654
331.382
406.206
481.543
554.915
621.685
682.803
735.571
779.304
813.843
839.592
858.027
869.451
875.394
874.95
872.377
866.535
857.785
847.071
834.92
821.512
807.204
792.122
776.542
760.368
743.936
727.313
710.53
693.658
676.782
659.969
643.295
626.762
610.476
594.414
578.66
563.181
548.048
533.221
518.769
504.634
490.908
477.514
464.557
451.917
439.732
427.831
416.403
405.208
394.508
383.978
373.965
364.06
354.699
345.366
336.627
327.838
319.708
311.428
303.888
296.074
289.104
281.701
275.275
268.223
262.329
255.569
250.192
243.652
238.791
232.406
228.076
221.779
218.007
211.724
208.538
201.004
13.3298
13.159
13.0623
13.1164
13.3052
13.7167
14.2888
14.9127
15.4585
15.881
16.2117
16.4364
16.6115
16.7583
16.8914
17.093
17.3234
17.7324
18.3233
19.318
20.8535
23.2566
26.8181
32.2049
39.9045
50.7374
65.2098
83.7999
106.579
133.442
163.97
197.061
232.043
267.252
302.285
335.313
366.558
394.72
419.72
441.15
459.107
473.572
484.926
493.358
499.253
502.907
504.683
504.403
503.236
500.673
496.862
492.067
486.536
480.291
473.55
466.368
458.906
451.156
443.293
435.268
427.243
419.145
411.089
403.05
395.137
387.278
379.57
371.911
364.431
356.992
349.776
342.567
335.637
328.649
322.004
315.246
308.89
302.369
296.314
290.024
284.275
278.211
272.779
266.929
261.823
256.169
251.394
245.908
241.456
236.096
231.977
226.716
222.944
217.751
214.343
209.182
206.161
200.997
198.385
192.164
13.325
13.1544
13.0314
13.0861
13.2956
13.7743
14.4986
15.4928
16.5065
17.6077
18.5975
19.5164
20.2485
20.859
21.2882
21.5951
21.7688
21.8535
21.8427
21.8019
21.7091
21.6063
21.5347
21.5605
21.6694
21.9303
22.4768
23.3685
24.8761
27.0226
30.2752
34.6434
40.6473
48.1813
57.553
68.7025
81.7357
96.3592
112.396
129.409
147.024
164.807
182.298
199.175
215.108
229.886
243.434
255.566
266.403
275.91
284.226
291.327
297.425
302.522
306.774
310.246
313.065
315.216
316.86
317.915
318.617
318.697
318.514
318.041
317.096
315.799
314.222
312.347
310.258
307.92
305.417
302.676
299.858
296.722
293.687
290.256
287.031
283.354
280.002
276.157
272.744
268.779
265.365
261.323
257.962
253.874
250.611
246.497
243.369
239.24
236.273
232.129
229.346
225.185
222.605
218.428
216.07
211.877
209.767
204.695
13.4658
13.3601
13.4096
13.6558
14.3032
15.6894
18.0288
21.4486
25.397
29.7319
33.614
37.0422
39.5651
41.5331
42.6049
43.3033
43.3664
43.2471
42.9508
42.4224
41.7893
41.1366
40.511
39.8799
39.3348
38.8403
38.4989
38.2392
38.145
38.2017
38.3754
38.751
39.3423
40.2855
41.5197
43.2611
45.4442
48.3768
52.0079
56.6772
62.3024
69.2171
77.2806
86.7347
97.3689
109.253
122.134
135.882
150.227
164.913
179.718
194.379
208.728
222.573
235.777
248.243
259.893
270.718
280.668
289.779
298.005
305.406
311.945
317.714
322.721
327.015
330.608
333.569
335.842
337.643
338.75
339.548
339.573
339.362
338.835
337.682
336.49
334.536
332.847
330.337
328.247
325.301
322.936
319.659
317.133
313.622
311.033
307.362
304.784
301.008
298.497
294.656
292.252
288.379
286.108
282.231
280.118
276.263
274.352
269.77
15.9096
16.8595
18.547
21.939
28.3835
39.5054
55.4542
75.0504
95.4452
114.366
129.219
139.943
146.441
150.089
150.714
150.295
149.265
147.807
146.326
145.111
144.514
144.657
145.302
146.573
149.04
152.012
156.277
161.201
167.136
174.029
181.771
190.761
200.503
211.617
223.43
236.567
250.394
265.496
281.295
298.151
315.4
333.338
351.259
369.519
387.473
405.399
422.775
439.662
455.896
471.387
486.321
500.467
514.111
526.901
539.041
550.279
560.674
570.156
578.721
586.286
592.836
598.343
602.844
606.32
608.943
610.614
611.666
611.645
611.264
610.36
608.651
606.498
603.907
600.703
597.441
593.346
589.464
584.657
580.356
575.04
570.442
564.777
560.048
554.176
549.467
543.515
538.946
533.007
528.66
522.794
518.722
512.974
509.222
503.634
500.233
494.833
491.821
486.62
484.102
478.244
68.0239
90.4448
126.186
184.861
271.908
385.16
511.558
636.146
744.727
831.719
892.676
932.171
952.73
963.079
964.696
963.505
960.625
958.264
957.024
957.616
960.19
966.293
975.127
985.889
999.887
1016.25
1035.24
1055.59
1077.77
1101.52
1126.57
1152.72
1179.27
1206.33
1233.09
1259.82
1285.8
1311.33
1335.76
1359.04
1380.75
1401.18
1419.92
1437.41
1453.18
1467.61
1480.45
1491.82
1501.9
1510.45
1518.03
1524.02
1529.19
1532.62
1535.2
1536.02
1535.67
1534.44
1531.91
1527.81
1522.86
1516.46
1509.35
1500.96
1492.01
1482.08
1471.68
1460.73
1449.41
1437.59
1425.7
1413.19
1400.99
1387.99
1375.6
1362.28
1349.78
1336.26
1323.83
1310.37
1298.27
1285.02
1273.41
1260.49
1249.51
1237.02
1226.77
1214.78
1205.31
1193.82
1185.17
1174.19
1166.43
1155.98
1149.16
1139.24
1133.43
1124.02
1119.42
1109.2
1464.65
1897.19
2398.91
2961.65
3563.11
4171.65
4746.13
5251.32
5654.59
5950.76
6132.16
6219.08
6206.59
6160.02
6061.75
5928.67
5778.43
5619.78
5459.21
5301.47
5149.04
5003.94
4867.3
4739.62
4620.98
4511.03
4409.86
4316.79
4231.76
4154.04
4083.5
4019.7
3962.37
3911.13
3865.42
3825.05
3789.47
3758.56
3731.68
3708.44
3688.27
3671.06
3656.32
3644.06
3633.66
3625.18
3618.2
3612.63
3608.33
3604.9
3602.59
3600.8
3599.9
3599.27
3599.12
3599.21
3599.49
3599.96
3600.89
3601.75
3603.06
3604.23
3605.68
3606.89
3608.24
3609.12
3609.94
3609.99
3609.72
3608.92
3607.66
3605.15
3602.75
3598.86
3595.3
3589.99
3585.17
3578.4
3572.34
3564.14
3556.85
3547.19
3538.73
3527.66
3518.19
3505.91
3495.75
3482.53
3472.02
3458.09
3447.58
3433.07
3422.86
3407.73
3398.07
3382.13
3373.13
3356.22
3347.57
3325.77
1109.04
1064.45
1122.15
1210.06
1238.81
1121.24
818.543
1979.87
54655.5
16140.2
7354.38
6104.94
6233.47
6484.74
6555.24
8026.55
74264.4
43599.4
24811.9
18452.8
16095.9
14999.8
14627.9
19664.1
76433.2
71021.9
54237.5
41186.8
32683
27157.6
24547.2
34061
69742.6
75714
67751.9
55652
44568
35843.8
30865.4
42706.2
57748.9
71183
67956.5
59052.5
48384.7
38738.2
32786.2
45231.6
47471.4
61835.2
62498.2
56620.7
47171
38179.1
32452.7
44247.9
39064.6
51811.5
53581.3
49833
42388.4
34668.3
29583.6
39754.6
32606.1
42977.3
44909.6
42120.9
36289.3
30030.4
25809.5
34025.9
27593.7
35613.7
37246.6
35102.8
30530.3
25545.5
22213.1
29361
23482.8
29579
30815.3
29112.4
25521.8
21624.8
19150.2
26001.2
20107.1
24693.2
25569.8
24178.9
21335.5
18294.4
16490.9
22967.3
17373.6
20783.7
21368.9
20209.5
17938.9
15555.8
14264.4
20351.9
15142.8
17661.4
18025.9
17045.2
15216.5
13335.8
12430.8
18151.7
13293
15152.9
15359.1
14523
13036.9
11542.6
10931.3
16328.7
11732.1
13112.5
13210.7
12494.9
11278
10084.3
9698.54
14812.6
10408.4
11441
11466.6
10851.1
9846.95
8889.11
8677.75
13543.7
9269.27
10053.3
10035
9503
8669.98
7899.76
7825.13
12472.9
8286.39
8890.57
8847.41
8385.96
7691.86
7072.76
7105.44
11561.1
7442.78
7911.86
7854
7453.01
6872.02
6375.29
6491.37
10778
6715.86
7083.14
7017.05
6667.67
6179.13
5781.78
5964.29
10098.6
6089.54
6378.02
6307.59
6002.05
5589.4
5273.14
5508.85
9504.23
5547.3
5774.5
5702.43
5434.36
5084.51
4834.93
5113.53
8982.75
5073.66
5253.82
5182.36
4946.72
4649.49
4455.36
4768.98
8524.46
4657.77
4801.65
4732.34
4524.93
4272.18
4124.56
4467.05
8120.03
4290.89
4406.63
4340.47
4157.74
3942.86
3834.59
4201.07
7761.43
3965.65
4059.44
3997.07
3836.07
3653.69
3578.97
3965.57
7442.08
3676.5
3752.89
3694.61
3552.78
3398.46
3352.52
3756.08
7156.57
3418.32
3480.9
3426.85
3302
3172.04
3150.9
3568.87
6900.3
3187.07
3238.6
3188.76
3078.97
2970.25
2970.68
3400.79
6669.15
2979.17
3021.86
2976.18
2879.83
2789.75
2808.55
3249.5
6459.73
2791.62
2827.24
2785.62
2701.27
2627.59
2662.39
3112.71
6269.36
2621.91
2651.9
2614.18
2540.64
2481.42
2530.29
2988.67
6095.91
2467.84
2493.37
2459.41
2395.61
2349.24
2410.53
2875.89
5937.45
2327.62
2349.61
2319.26
2264.25
2229.33
2301.67
2773.09
5792.42
2199.63
2218.86
2191.94
2144.89
2120.23
2202.44
2679.2
5659.5
2082.56
2099.62
2075.96
2036.13
2020.7
2111.77
2593.26
5537.54
1975.19
1990.56
1969.99
1936.74
1929.63
2028.69
2514.44
5425.53
1876.48
1890.55
1872.9
1845.64
1846.08
1952.35
2441.97
5322.55
1785.51
1798.59
1783.7
1761.93
1769.13
1882.1
2375.24
5227.76
1701.45
1713.82
1701.52
1684.78
1698.12
1817.24
2313.61
5140.33
1623.61
1635.46
1625.62
1613.5
1632.44
1757.19
2256.58
5059.54
1551.35
1562.87
1555.34
1547.48
1571.55
1701.46
2203.67
4984.68
1484.14
1495.46
1490.12
1486.19
1515
1649.65
2154.48
4915.13
1421.5
1432.75
1429.48
1429.2
1462.34
1601.36
2108.65
4850.31
1363.01
1374.3
1373
1376.05
1413.27
1556.29
2065.88
4789.71
1308.32
1319.72
1320.3
1326.44
1367.43
1514.16
2025.89
4732.92
1257.08
1268.68
1271.04
1280.08
1324.57
1474.73
1988.47
4679.61
1209.02
1220.88
1224.94
1236.7
1284.44
1437.78
1953.42
4629.52
1163.86
1176.04
1181.73
1196.04
1246.81
1403.12
1920.57
4582.45
1121.39
1133.93
1141.19
1157.89
1211.49
1370.57
1889.77
4538.24
1081.37
1094.33
1103.08
1122.04
1178.29
1339.99
1860.89
4496.76
1043.62
1057.03
1067.22
1088.31
1147.06
1311.23
1833.81
4457.94
1007.95
1021.85
1033.42
1056.53
1117.63
1284.16
1808.42
4421.65
974.207
988.616
1001.53
1026.54
1089.87
1258.65
1784.61
4387.82
942.223
957.166
971.37
998.208
1063.66
1234.59
1762.27
4356.3
911.877
927.374
942.827
971.4
1038.87
1211.88
1741.3
4326.96
883.022
899.09
915.757
945.992
1015.39
1190.41
1721.61
4299.64
855.568
872.221
890.065
921.891
993.136
1170.09
1703.09
4274.18
829.382
846.634
865.624
898.98
971.999
1150.85
1685.67
4250.4
804.408
822.268
842.369
877.192
951.906
1132.57
1669.22
4228.12
780.516
798.992
820.177
856.414
932.763
1115.21
1653.71
4207.16
757.685
776.779
799.015
836.607
914.518
1098.67
1639
4187.42
735.78
755.492
778.75
817.651
897.07
1082.89
1625.06
4168.65
714.817
735.142
759.388
799.542
880.401
1067.83
1611.8
4150.9
694.644
715.573
740.775
782.136
864.383
1053.37
1599.15
4133.81
675.319
696.841
722.967
765.484
849.053
1039.55
1587.08
4117.65
656.66
678.757
705.771
749.397
834.238
1026.19
1575.46
4101.86
638.779
661.438
689.308
734
820.057
1013.42
1564.39
4087.01
621.449
644.645
673.332
719.04
806.263
1000.98
1553.62
4072.25
604.853
628.573
658.052
704.741
793.086
989.118
1543.41
4058.58
588.701
612.914
643.141
690.758
780.171
977.466
1533.36
4044.65
573.266
597.963
628.921
677.444
767.898
966.429
1523.92
4032.06
558.177
583.319
614.958
664.327
755.759
955.464
1514.48
4018.81
543.812
569.401
601.716
651.925
744.329
945.206
1505.78
4007.25
529.694
555.684
588.615
639.594
732.892
934.86
1496.89
3994.59
516.336
542.734
576.292
628.055
722.269
925.362
1488.94
3984.05
503.119
529.872
563.985
616.445
711.476
915.585
1480.54
3971.96
490.713
517.84
552.533
605.728
701.632
906.838
1473.34
3962.45
478.329
505.765
540.954
594.778
691.429
897.585
1465.42
3950.92
466.827
494.602
530.327
584.844
682.335
889.576
1458.99
3942.51
455.204
483.242
519.404
574.485
672.658
880.789
1451.47
3931.47
444.554
472.895
509.552
565.287
664.278
873.502
1445.83
3924.22
433.608
462.167
499.204
555.441
655.052
865.109
1438.66
3913.6
423.758
452.583
490.075
546.931
647.342
858.512
1433.79
3907.43
413.4
442.398
480.215
537.512
638.48
850.426
1426.86
3897.12
404.304
433.533
471.762
529.643
631.397
844.477
1422.72
3891.83
394.44
423.798
462.3
520.562
622.81
836.6
1415.95
3881.77
386.066
415.619
454.491
513.297
616.308
831.245
1412.43
3876.92
376.602
406.245
445.339
504.471
607.915
823.498
1405.74
3867.03
368.941
398.743
438.16
497.785
601.951
818.652
1402.61
3862.34
359.784
389.639
429.235
489.14
593.69
810.99
1396.1
3852.48
352.851
382.828
422.696
483.031
588.234
806.579
1393.16
3847.78
343.905
373.905
413.917
474.499
580.06
798.991
1386.84
3837.82
337.736
367.82
408.047
468.982
575.094
794.93
1383.98
3832.96
328.898
358.983
399.335
460.503
566.978
787.436
1377.81
3822.94
323.543
353.674
394.173
455.601
562.496
783.672
1375.01
3817.91
314.701
344.824
385.449
447.127
554.434
776.323
1369.01
3808.15
310.196
340.318
381.015
442.84
550.398
772.744
1366.2
3803.24
299.552
329.628
370.432
432.511
540.519
763.688
1358.46
3792.02
)
;

boundaryField
{
    frontAndBack
    {
        type            empty;
    }
    inlet
    {
        type            fixedValue;
        value           uniform 14.855;
    }
    outlet
    {
        type            zeroGradient;
    }
    walls
    {
        lowReCorrection 0;
        blending        stepwise;
        n               2;
        type            epsilonWallFunction;
        value           nonuniform List<scalar> 
228
(
112.724
141.424
210.098
257.591
369.051
443.457
614.741
724.902
971.333
1128.61
1109.04
1064.45
1122.15
1210.06
1238.81
1121.24
818.543
1979.87
1979.87
8026.55
19664.1
34061
42706.2
45231.6
44247.9
39754.6
34025.9
29361
26001.2
22967.3
20351.9
18151.7
16328.7
14812.6
13543.7
12472.9
11561.1
10778
10098.6
9504.23
8982.75
8524.46
8120.03
7761.43
7442.08
7156.57
6900.3
6669.15
6459.73
6269.36
6095.91
5937.45
5792.42
5659.5
5537.54
5425.53
5322.55
5227.76
5140.33
5059.54
4984.68
4915.13
4850.31
4789.71
4732.92
4679.61
4629.52
4582.45
4538.24
4496.76
4457.94
4421.65
4387.82
4356.3
4326.96
4299.64
4274.18
4250.4
4228.12
4207.16
4187.42
4168.65
4150.9
4133.81
4117.65
4101.86
4087.01
4072.25
4058.58
4044.65
4032.06
4018.81
4007.25
3994.59
3984.05
3971.96
3962.45
3950.92
3942.51
3931.47
3924.22
3913.6
3907.43
3897.12
3891.83
3881.77
3876.92
3867.03
3862.34
3852.48
3847.78
3837.82
3832.96
3822.94
3817.91
3808.15
3803.24
3792.02
105.945
146.517
198.409
265.684
350.08
456
585.731
743.674
931.871
1154.06
1464.65
1897.19
2398.91
2961.65
3563.11
4171.65
4746.13
5251.32
5654.59
5950.76
6132.16
6219.08
6206.59
6160.02
6061.75
5928.67
5778.43
5619.78
5459.21
5301.47
5149.04
5003.94
4867.3
4739.62
4620.98
4511.03
4409.86
4316.79
4231.76
4154.04
4083.5
4019.7
3962.37
3911.13
3865.42
3825.05
3789.47
3758.56
3731.68
3708.44
3688.27
3671.06
3656.32
3644.06
3633.66
3625.18
3618.2
3612.63
3608.33
3604.9
3602.59
3600.8
3599.9
3599.27
3599.12
3599.21
3599.49
3599.96
3600.89
3601.75
3603.06
3604.23
3605.68
3606.89
3608.24
3609.12
3609.94
3609.99
3609.72
3608.92
3607.66
3605.15
3602.75
3598.86
3595.3
3589.99
3585.17
3578.4
3572.34
3564.14
3556.85
3547.19
3538.73
3527.66
3518.19
3505.91
3495.75
3482.53
3472.02
3458.09
3447.58
3433.07
3422.86
3407.73
3398.07
3382.13
3373.13
3356.22
3347.57
3325.77
)
;
    }
}


// ************************************************************************* //
