/*--------------------------------*- C++ -*----------------------------------*\
| =========                 |                                                 |
| \\      /  F ield         | OpenFOAM: The Open Source CFD Toolbox           |
|  \\    /   O peration     | Version:  v2012                                 |
|   \\  /    A nd           | Website:  www.openfoam.com                      |
|    \\/     M anipulation  |                                                 |
\*---------------------------------------------------------------------------*/
FoamFile
{
    version     2.0;
    format      ascii;
    class       volScalarField;
    location    "0.043";
    object      nut.air;
}
// * * * * * * * * * * * * * * * * * * * * * * * * * * * * * * * * * * * * * //

dimensions      [0 2 -1 0 0 0 0];


internalField   nonuniform List<scalar> 
5600
(
2.45135e-05
3.4734e-05
4.04105e-05
4.24633e-05
4.22695e-05
4.09692e-05
3.92157e-05
3.75417e-05
3.61058e-05
3.49442e-05
3.40756e-05
3.34539e-05
3.30284e-05
3.27722e-05
3.26627e-05
3.26595e-05
3.27107e-05
3.27739e-05
3.28273e-05
3.28652e-05
3.28884e-05
3.29018e-05
3.29096e-05
3.29145e-05
3.29189e-05
3.29238e-05
3.29299e-05
3.29363e-05
3.29411e-05
3.29442e-05
3.29464e-05
3.29478e-05
3.29486e-05
3.2949e-05
3.29493e-05
3.29494e-05
3.29495e-05
3.29495e-05
3.29496e-05
3.29496e-05
3.29496e-05
3.29496e-05
3.29496e-05
3.29496e-05
3.29496e-05
3.29496e-05
3.29496e-05
3.29496e-05
3.29496e-05
3.29496e-05
3.29496e-05
3.29496e-05
3.29496e-05
3.29496e-05
3.29496e-05
3.29496e-05
3.29496e-05
3.29496e-05
3.29496e-05
3.29496e-05
3.29496e-05
3.29496e-05
3.29496e-05
3.29496e-05
3.29496e-05
3.29496e-05
3.29497e-05
3.29494e-05
3.295e-05
3.29487e-05
3.29514e-05
3.2946e-05
3.29564e-05
3.29372e-05
3.29711e-05
3.29145e-05
3.3004e-05
3.28714e-05
3.30553e-05
3.28193e-05
3.30996e-05
3.27919e-05
3.31139e-05
3.2767e-05
3.32031e-05
3.255e-05
3.36064e-05
3.20205e-05
3.4154e-05
3.18014e-05
3.37793e-05
3.29514e-05
3.18389e-05
3.52639e-05
3.0179e-05
3.54883e-05
3.27214e-05
2.87257e-05
4.53651e-05
2.0879e-06
0.000151664
0.00013741
0.000112189
9.86538e-05
9.39876e-05
9.48225e-05
0.000102064
0.000110284
0.000116427
0.000124084
0.000132744
0.000141497
0.000149595
0.000156984
0.000164014
0.000170854
0.000177269
0.000182991
0.000187764
0.000191446
0.000194063
0.000195757
0.000196754
0.000197296
0.000197571
0.000197727
0.000197831
0.000197934
0.000198014
0.000198063
0.000198102
0.00019813
0.000198147
0.000198158
0.000198164
0.000198168
0.000198169
0.00019817
0.000198171
0.000198171
0.000198171
0.000198171
0.000198171
0.000198171
0.000198171
0.000198171
0.000198171
0.000198171
0.000198171
0.000198171
0.000198171
0.000198171
0.000198171
0.000198171
0.000198171
0.000198171
0.000198171
0.000198171
0.000198171
0.000198171
0.000198171
0.000198171
0.000198172
0.000198171
0.000198172
0.00019817
0.000198174
0.000198165
0.000198186
0.000198141
0.000198234
0.000198051
0.000198394
0.000197779
0.000198828
0.000197136
0.000199711
0.00019604
0.00020092
0.000194915
0.000201751
0.000194447
0.000202137
0.000193263
0.000205509
0.000186401
0.000216254
0.000174172
0.00022516
0.000175098
0.000206826
0.000210325
0.000159302
0.000257218
0.000134403
0.000235852
0.000208627
0.000102569
0.000339859
2.12381e-06
0.000156519
0.000151566
0.000142999
0.000135194
0.0001253
0.000120685
0.000113721
0.000109813
0.000108799
0.000109587
0.000112456
0.000117628
0.0001242
0.000131507
0.000139595
0.000149245
0.000161243
0.000175507
0.000190715
0.000204934
0.000216593
0.00022496
0.000230212
0.000233077
0.00023414
0.000234542
0.000234743
0.000234849
0.000234921
0.000234989
0.000235064
0.000235126
0.000235171
0.000235202
0.000235221
0.000235233
0.000235239
0.000235243
0.000235244
0.000235245
0.000235246
0.000235246
0.000235246
0.000235246
0.000235246
0.000235246
0.000235246
0.000235246
0.000235246
0.000235246
0.000235246
0.000235246
0.000235246
0.000235246
0.000235246
0.000235246
0.000235246
0.000235246
0.000235246
0.000235246
0.000235246
0.000235246
0.000235247
0.000235245
0.000235249
0.000235241
0.000235259
0.000235218
0.000235307
0.000235122
0.000235488
0.000234794
0.000236054
0.000233873
0.00023745
0.000231897
0.000239981
0.000228947
0.000242897
0.000226487
0.00024443
0.000225482
0.000246262
0.00021912
0.000258675
0.000196094
0.000285763
0.000170387
0.000291586
0.000196753
0.00022067
0.000296207
0.000116583
0.000370098
9.1593e-05
0.000305749
0.000233472
7.33046e-05
0.000356512
3.60603e-05
0.000157814
0.000154005
0.000150069
0.000146779
0.000142718
0.000139207
0.000135565
0.000131521
0.000128235
0.000124889
0.000122864
0.000119878
0.000117586
0.000116123
0.000115482
0.000115846
0.000118821
0.000125089
0.000133916
0.000143593
0.000152271
0.000158735
0.000162691
0.000164546
0.000165022
0.0001648
0.000164362
0.00016396
0.000163675
0.000163516
0.00016345
0.000163437
0.000163446
0.000163462
0.000163476
0.000163487
0.000163494
0.000163498
0.0001635
0.000163501
0.000163502
0.000163502
0.000163502
0.000163502
0.000163503
0.000163503
0.000163503
0.000163503
0.000163503
0.000163503
0.000163503
0.000163503
0.000163503
0.000163503
0.000163503
0.000163503
0.000163503
0.000163503
0.000163503
0.000163503
0.000163503
0.000163502
0.000163503
0.000163501
0.000163507
0.000163494
0.000163523
0.00016346
0.00016359
0.00016333
0.00016383
0.000162909
0.000164527
0.000161823
0.000166097
0.000159717
0.000168627
0.000156981
0.000171071
0.000155145
0.000172152
0.000153942
0.000175391
0.00014565
0.000190879
0.000121828
0.000214909
0.000103395
0.00020707
0.000147428
0.000131009
0.0002448
3.72902e-05
0.000274525
4.92404e-05
0.000274648
0.000153057
3.8163e-05
0.000250252
1.40412e-05
0.000158112
0.000154616
0.000151629
0.00014908
0.000146748
0.000144482
0.000142471
0.000140373
0.00013846
0.000136493
0.000134648
0.000132913
0.000130862
0.000129417
0.000127165
0.000125541
0.000123422
0.000121711
0.000121165
0.000121635
0.00012234
0.000122563
0.000122004
0.000120765
0.000119169
0.000117529
0.000116067
0.000114899
0.000114055
0.000113501
0.000113165
0.000112974
0.000112871
0.000112819
0.000112794
0.000112783
0.000112778
0.000112776
0.000112775
0.000112775
0.000112775
0.000112775
0.000112775
0.000112775
0.000112775
0.000112775
0.000112775
0.000112775
0.000112775
0.000112775
0.000112775
0.000112775
0.000112775
0.000112775
0.000112775
0.000112775
0.000112775
0.000112775
0.000112775
0.000112775
0.000112775
0.000112775
0.000112775
0.000112774
0.000112777
0.00011277
0.000112786
0.000112751
0.000112822
0.000112683
0.000112944
0.000112475
0.000113275
0.000111974
0.000113961
0.000111081
0.000114943
0.000110059
0.000115757
0.000109461
0.000116239
0.000108501
0.000118538
0.0001029
0.00012644
8.80979e-05
0.000137081
7.68081e-05
0.000136629
0.000103615
9.70379e-05
0.000149265
1.39585e-05
0.000176786
1.08577e-05
0.000220991
9.02729e-05
3.1058e-05
0.00017061
3.51857e-05
0.000158182
0.000154791
0.00015203
0.000149699
0.000147693
0.00014588
0.000144268
0.000142756
0.000141354
0.000140033
0.000138744
0.000137584
0.000136361
0.000135351
0.000134189
0.00013312
0.000132001
0.000130891
0.00012988
0.000128969
0.000128075
0.000127116
0.00012607
0.000124988
0.000123881
0.00012288
0.000122055
0.000121422
0.000120963
0.000120648
0.000120443
0.000120317
0.000120242
0.0001202
0.000120176
0.000120164
0.000120157
0.000120154
0.000120152
0.000120152
0.000120151
0.000120151
0.000120151
0.000120151
0.000120151
0.000120151
0.000120151
0.000120151
0.000120151
0.000120151
0.000120151
0.000120151
0.000120151
0.000120151
0.000120151
0.000120151
0.000120151
0.000120151
0.000120151
0.000120151
0.000120151
0.000120151
0.000120151
0.000120151
0.000120151
0.000120149
0.000120154
0.000120144
0.000120166
0.000120122
0.000120204
0.000120058
0.000120302
0.000119919
0.000120476
0.000119723
0.000120646
0.000119618
0.000120636
0.000119725
0.000120534
0.000119528
0.000121369
0.000117166
0.000125116
0.000108811
0.000133094
9.38499e-05
0.000142989
9.59782e-05
0.000135757
0.000126697
5.22929e-05
0.000163276
2.37896e-05
0.000187914
9.59256e-05
7.27258e-05
0.000178669
1.86898e-05
0.000158201
0.000154851
0.000152147
0.000149891
0.000147965
0.00014628
0.000144787
0.000143435
0.0001422
0.000141068
0.000140015
0.000139035
0.000138081
0.000137187
0.000136332
0.000135538
0.000134794
0.00013407
0.000133336
0.000132584
0.000131828
0.00013111
0.000130486
0.000130002
0.000129674
0.000129497
0.000129439
0.000129452
0.000129496
0.000129546
0.000129587
0.000129617
0.000129637
0.000129649
0.000129656
0.000129659
0.000129661
0.000129662
0.000129662
0.000129662
0.000129662
0.000129662
0.000129662
0.000129662
0.000129662
0.000129662
0.000129662
0.000129662
0.000129662
0.000129662
0.000129662
0.000129662
0.000129662
0.000129662
0.000129662
0.000129662
0.000129662
0.000129662
0.000129662
0.000129662
0.000129662
0.000129662
0.000129662
0.000129662
0.000129662
0.000129662
0.000129663
0.000129661
0.000129666
0.000129653
0.000129682
0.000129625
0.000129729
0.000129551
0.000129833
0.000129417
0.000129987
0.000129258
0.000130129
0.000129132
0.000130264
0.000128866
0.000130841
0.000127502
0.000133335
0.000122444
0.00014002
0.000112226
0.000148533
0.000111704
0.000136829
0.000143262
7.06e-05
0.000186059
4.89121e-05
0.000168133
0.000138239
5.69293e-05
0.000220669
8.03989e-05
0.000158207
0.000154873
0.000152189
0.000149958
0.000148059
0.000146411
0.000144958
0.000143653
0.000142471
0.000141398
0.000140419
0.000139508
0.000138637
0.000137808
0.00013704
0.000136351
0.000135723
0.000135111
0.000134464
0.00013377
0.000133062
0.000132407
0.00013188
0.000131531
0.000131371
0.000131372
0.000131482
0.000131642
0.000131806
0.000131946
0.000132052
0.000132125
0.000132171
0.000132199
0.000132215
0.000132224
0.000132228
0.00013223
0.000132231
0.000132232
0.000132232
0.000132232
0.000132232
0.000132232
0.000132232
0.000132232
0.000132232
0.000132232
0.000132232
0.000132232
0.000132232
0.000132232
0.000132232
0.000132232
0.000132232
0.000132232
0.000132232
0.000132232
0.000132232
0.000132232
0.000132232
0.000132232
0.000132232
0.000132232
0.000132232
0.000132232
0.000132233
0.00013223
0.000132237
0.000132223
0.000132251
0.000132201
0.000132282
0.000132163
0.000132315
0.000132157
0.000132263
0.000132296
0.000132036
0.000132547
0.000131919
0.000132285
0.000132822
0.000130569
0.00013531
0.000127468
0.000138568
0.000124212
0.000140821
0.000124729
0.000134899
0.000139149
0.000110773
0.000161359
0.000100911
0.000149253
0.000137865
0.000111249
0.000151107
0.000146358
0.00015821
0.000154882
0.000152205
0.000149984
0.000148096
0.000146461
0.000145022
0.000143734
0.00014257
0.000141518
0.000140562
0.000139676
0.000138833
0.000138031
0.000137293
0.000136639
0.000136051
0.00013548
0.000134871
0.000134208
0.000133529
0.000132906
0.000132415
0.000132109
0.000131996
0.000132043
0.000132193
0.000132387
0.000132577
0.000132735
0.000132853
0.000132933
0.000132984
0.000133014
0.000133031
0.000133041
0.000133045
0.000133048
0.000133049
0.000133049
0.000133049
0.00013305
0.00013305
0.00013305
0.00013305
0.00013305
0.00013305
0.00013305
0.00013305
0.00013305
0.00013305
0.00013305
0.00013305
0.00013305
0.00013305
0.00013305
0.00013305
0.00013305
0.00013305
0.00013305
0.00013305
0.00013305
0.00013305
0.00013305
0.00013305
0.000133049
0.000133051
0.000133046
0.000133057
0.000133034
0.00013308
0.000132994
0.000133145
0.000132897
0.000133276
0.000132742
0.000133422
0.000132664
0.000133348
0.000132976
0.000132753
0.000133798
0.000131928
0.000134241
0.000132358
0.000132555
0.000135284
0.000129077
0.000138017
0.00012887
0.000134615
0.000135466
0.000126962
0.000140554
0.000127453
0.000134348
0.000137203
0.000126313
0.000137518
0.000137849
0.000158211
0.000154886
0.000152213
0.000149995
0.000148112
0.000146482
0.000145049
0.000143768
0.000142611
0.000141566
0.000140619
0.000139741
0.000138908
0.000138116
0.00013739
0.000136747
0.000136172
0.000135615
0.000135021
0.000134372
0.000133705
0.000133095
0.00013262
0.00013233
0.000132234
0.000132298
0.000132462
0.000132665
0.00013286
0.000133021
0.00013314
0.000133221
0.000133271
0.000133301
0.000133318
0.000133327
0.000133332
0.000133334
0.000133335
0.000133336
0.000133336
0.000133336
0.000133336
0.000133336
0.000133336
0.000133336
0.000133336
0.000133336
0.000133336
0.000133336
0.000133336
0.000133336
0.000133336
0.000133336
0.000133336
0.000133336
0.000133336
0.000133336
0.000133336
0.000133336
0.000133336
0.000133336
0.000133336
0.000133336
0.000133336
0.000133336
0.000133338
0.000133333
0.000133342
0.000133325
0.000133356
0.000133302
0.000133389
0.000133258
0.000133442
0.000133203
0.000133489
0.000133172
0.000133507
0.00013315
0.000133558
0.000133075
0.000133572
0.000133311
0.000132866
0.00013454
0.000131514
0.000135152
0.00013261
0.000132194
0.000136071
0.000130676
0.00013402
0.000135268
0.000130381
0.000134824
0.00013428
0.000131736
0.000133475
0.000133868
0.000158211
0.000154886
0.000152213
0.000149995
0.000148112
0.000146483
0.000145049
0.000143768
0.000142611
0.000141566
0.000140619
0.000139742
0.000138908
0.000138116
0.00013739
0.000136747
0.000136172
0.000135615
0.00013502
0.000134371
0.000133705
0.000133094
0.000132619
0.00013233
0.000132233
0.000132297
0.00013246
0.000132663
0.000132858
0.000133019
0.000133138
0.000133219
0.00013327
0.0001333
0.000133317
0.000133326
0.000133331
0.000133333
0.000133334
0.000133334
0.000133335
0.000133335
0.000133335
0.000133335
0.000133335
0.000133335
0.000133335
0.000133335
0.000133335
0.000133335
0.000133335
0.000133335
0.000133335
0.000133335
0.000133335
0.000133335
0.000133335
0.000133335
0.000133335
0.000133335
0.000133335
0.000133335
0.000133335
0.000133335
0.000133335
0.000133334
0.000133336
0.000133332
0.000133341
0.000133324
0.000133354
0.000133303
0.000133382
0.000133268
0.000133418
0.000133243
0.000133416
0.000133291
0.000133318
0.000133419
0.000133215
0.000133414
0.000133403
0.000133034
0.000133862
0.000132729
0.000133739
0.000133444
0.000132544
0.00013468
0.000131961
0.00013403
0.000133893
0.000131643
0.000135198
0.000132685
0.000132209
0.00013524
0.00013248
0.000132592
0.00015821
0.000154882
0.000152206
0.000149984
0.000148096
0.000146462
0.000145023
0.000143735
0.000142571
0.000141518
0.000140562
0.000139676
0.000138832
0.00013803
0.000137292
0.000136637
0.000136049
0.000135478
0.000134869
0.000134207
0.000133527
0.000132903
0.000132412
0.000132106
0.000131991
0.000132038
0.000132188
0.000132382
0.000132571
0.000132729
0.000132847
0.000132927
0.000132978
0.000133008
0.000133025
0.000133034
0.000133039
0.000133041
0.000133042
0.000133043
0.000133043
0.000133043
0.000133043
0.000133043
0.000133043
0.000133043
0.000133043
0.000133043
0.000133043
0.000133043
0.000133043
0.000133043
0.000133043
0.000133043
0.000133043
0.000133043
0.000133043
0.000133043
0.000133043
0.000133043
0.000133043
0.000133043
0.000133043
0.000133043
0.000133043
0.000133042
0.000133045
0.00013304
0.000133049
0.000133033
0.00013306
0.000133016
0.000133083
0.000132988
0.000133111
0.000132971
0.000133105
0.000133012
0.000133025
0.000133117
0.000132929
0.000133158
0.000132976
0.000133028
0.00013314
0.000132884
0.000133263
0.000132718
0.000133512
0.000132538
0.000133249
0.000133542
0.000131796
0.00013445
0.000132445
0.000132508
0.000133865
0.000133287
0.000131837
0.00013292
0.000158207
0.000154873
0.000152189
0.000149959
0.000148059
0.000146412
0.000144958
0.000143654
0.000142471
0.000141397
0.000140417
0.000139505
0.000138635
0.000137804
0.000137035
0.000136344
0.000135715
0.000135101
0.000134456
0.000133764
0.000133058
0.000132405
0.000131878
0.000131526
0.000131363
0.00013136
0.000131466
0.000131624
0.000131785
0.000131923
0.000132028
0.0001321
0.000132147
0.000132174
0.00013219
0.000132199
0.000132203
0.000132205
0.000132206
0.000132207
0.000132207
0.000132207
0.000132207
0.000132207
0.000132207
0.000132207
0.000132207
0.000132207
0.000132207
0.000132207
0.000132207
0.000132207
0.000132207
0.000132207
0.000132207
0.000132207
0.000132207
0.000132207
0.000132207
0.000132207
0.000132207
0.000132207
0.000132207
0.000132207
0.000132207
0.000132206
0.000132208
0.000132204
0.000132211
0.000132199
0.000132221
0.000132186
0.000132238
0.000132166
0.000132256
0.000132158
0.000132244
0.000132196
0.00013218
0.000132271
0.000132126
0.000132271
0.000132196
0.000132155
0.000132295
0.000132126
0.000132266
0.000132115
0.000132424
0.000131845
0.000132562
0.000132129
0.000131817
0.000133064
0.000130956
0.000134184
0.000128984
0.00013652
0.000128094
0.000132823
0.0001582
0.000154853
0.000152147
0.000149894
0.000147964
0.000146281
0.000144784
0.000143433
0.000142196
0.000141059
0.000140007
0.000139017
0.000138074
0.000137171
0.000136315
0.000135519
0.000134767
0.00013404
0.000133316
0.000132581
0.000131843
0.000131136
0.000130506
0.000129994
0.000129635
0.000129426
0.000129337
0.000129324
0.000129349
0.000129383
0.000129415
0.00012944
0.000129456
0.000129466
0.000129472
0.000129475
0.000129477
0.000129477
0.000129478
0.000129478
0.000129478
0.000129478
0.000129478
0.000129478
0.000129478
0.000129478
0.000129478
0.000129478
0.000129478
0.000129478
0.000129478
0.000129478
0.000129478
0.000129478
0.000129478
0.000129478
0.000129478
0.000129478
0.000129478
0.000129478
0.000129478
0.000129478
0.000129478
0.000129478
0.000129478
0.000129477
0.000129479
0.000129476
0.000129481
0.000129472
0.000129488
0.000129462
0.000129501
0.000129448
0.000129512
0.000129445
0.000129499
0.000129478
0.000129449
0.000129533
0.000129412
0.000129528
0.000129465
0.000129449
0.000129533
0.000129403
0.000129617
0.000129168
0.000130066
0.000128654
0.000130274
0.000129108
0.000129162
0.000130508
0.000127771
0.000132924
0.000122864
0.000140818
0.000113874
0.000141832
0.000158179
0.000154799
0.000152022
0.00014971
0.000147679
0.000145886
0.000144244
0.000142748
0.000141334
0.000139995
0.000138733
0.000137513
0.000136391
0.000135292
0.000134185
0.000133085
0.000131902
0.000130782
0.000129841
0.000129058
0.000128295
0.000127428
0.000126357
0.000125092
0.000123816
0.000122665
0.000121712
0.000120977
0.000120445
0.000120082
0.000119849
0.000119706
0.000119623
0.000119576
0.000119551
0.000119538
0.000119531
0.000119528
0.000119526
0.000119526
0.000119525
0.000119525
0.000119525
0.000119525
0.000119525
0.000119525
0.000119525
0.000119525
0.000119525
0.000119525
0.000119525
0.000119525
0.000119525
0.000119525
0.000119525
0.000119525
0.000119525
0.000119525
0.000119525
0.000119525
0.000119525
0.000119525
0.000119525
0.000119525
0.000119525
0.000119525
0.000119526
0.000119524
0.000119527
0.000119521
0.000119532
0.000119514
0.00011954
0.000119506
0.000119546
0.000119506
0.000119536
0.000119528
0.000119505
0.000119558
0.000119488
0.000119553
0.000119506
0.000119551
0.000119467
0.00011961
0.000119499
0.000119306
0.000120212
0.000118282
0.000121197
0.000117751
0.000121022
0.000118496
0.000119403
0.000122745
0.000110815
0.000137627
9.25141e-05
0.00014698
0.000158112
0.000154626
0.000151602
0.000149114
0.000146672
0.000144524
0.000142339
0.000140401
0.000138358
0.000136497
0.000134688
0.000132763
0.000131055
0.000129279
0.00012747
0.000125618
0.000123455
0.000122253
0.000122609
0.000124092
0.000125692
0.000126603
0.000126528
0.000125603
0.000124174
0.000122618
0.000121202
0.000120058
0.000119228
0.000118681
0.00011835
0.000118162
0.000118061
0.00011801
0.000117985
0.000117974
0.00011797
0.000117968
0.000117967
0.000117967
0.000117967
0.000117967
0.000117967
0.000117967
0.000117967
0.000117967
0.000117967
0.000117967
0.000117967
0.000117967
0.000117967
0.000117967
0.000117967
0.000117967
0.000117967
0.000117967
0.000117967
0.000117967
0.000117967
0.000117967
0.000117967
0.000117967
0.000117967
0.000117967
0.000117967
0.000117967
0.000117967
0.000117966
0.000117968
0.000117965
0.000117971
0.000117961
0.000117975
0.000117956
0.000117979
0.000117957
0.000117971
0.000117974
0.000117947
0.000117997
0.000117935
0.00011799
0.000117954
0.000117993
0.000117875
0.000118181
0.000117622
0.000118328
0.000117846
0.000117499
0.000119325
0.000115563
0.000121349
0.000113691
0.000122198
0.000115207
0.000115276
0.000129369
9.37106e-05
0.00014596
0.000157849
0.000153945
0.000150079
0.000146735
0.000142589
0.00013931
0.000135207
0.000131891
0.000128241
0.00012599
0.00012336
0.000120642
0.000118904
0.000118276
0.000118419
0.000120017
0.000124561
0.000132617
0.000143259
0.00015448
0.000164278
0.000171479
0.000175888
0.000178021
0.000178664
0.000178549
0.000178181
0.000177818
0.00017755
0.000177396
0.000177328
0.00017731
0.000177315
0.000177326
0.000177337
0.000177345
0.00017735
0.000177353
0.000177355
0.000177356
0.000177357
0.000177357
0.000177357
0.000177357
0.000177357
0.000177357
0.000177357
0.000177357
0.000177357
0.000177357
0.000177357
0.000177357
0.000177357
0.000177357
0.000177357
0.000177357
0.000177357
0.000177357
0.000177357
0.000177357
0.000177357
0.000177357
0.000177357
0.000177357
0.000177357
0.000177357
0.000177358
0.000177357
0.000177358
0.000177356
0.00017736
0.000177353
0.000177364
0.000177347
0.000177369
0.000177345
0.000177365
0.000177362
0.000177333
0.000177406
0.000177286
0.000177437
0.00017729
0.000177403
0.000177312
0.000177477
0.000177065
0.000177869
0.00017675
0.000177692
0.000177843
0.000175521
0.000180775
0.000172525
0.000182836
0.000172298
0.000178977
0.000181024
0.000162242
0.000195799
0.000156647
0.000151204
0.000143307
0.000134681
0.000126128
0.000120909
0.000114943
0.000112666
0.000112545
0.000113926
0.000117704
0.000123736
0.000131127
0.000139273
0.000148331
0.000159109
0.000172453
0.000188221
0.000204756
0.000219732
0.000231521
0.000238754
0.000242797
0.000244916
0.000245845
0.000246214
0.0002464
0.000246503
0.000246549
0.000246603
0.00024666
0.000246707
0.000246742
0.000246765
0.000246779
0.000246787
0.000246792
0.000246795
0.000246796
0.000246797
0.000246797
0.000246797
0.000246797
0.000246797
0.000246797
0.000246797
0.000246797
0.000246797
0.000246797
0.000246797
0.000246797
0.000246797
0.000246797
0.000246797
0.000246797
0.000246797
0.000246797
0.000246797
0.000246797
0.000246797
0.000246797
0.000246797
0.000246797
0.000246797
0.000246797
0.000246797
0.000246797
0.000246797
0.000246798
0.000246796
0.000246799
0.000246795
0.000246802
0.00024679
0.000246807
0.000246785
0.000246809
0.000246791
0.00024679
0.000246828
0.000246735
0.000246889
0.000246692
0.00024689
0.00024674
0.000246828
0.000246734
0.000246989
0.000246432
0.000247225
0.000246654
0.000246149
0.000248673
0.000243656
0.000250872
0.000242665
0.000249973
0.000246791
0.000242044
0.000256959
0.000151636
0.000136807
0.000113412
9.9583e-05
9.76758e-05
9.79442e-05
0.000110612
0.000115242
0.000121737
0.000129464
0.000138001
0.000146494
0.000154289
0.000161421
0.000168244
0.000174852
0.000181004
0.000186483
0.000191015
0.000194489
0.000196929
0.0001985
0.000199427
0.000199928
0.00020019
0.000200337
0.000200435
0.000200528
0.000200604
0.000200651
0.000200686
0.00020071
0.000200725
0.000200734
0.00020074
0.000200742
0.000200744
0.000200745
0.000200745
0.000200745
0.000200745
0.000200745
0.000200745
0.000200745
0.000200745
0.000200745
0.000200746
0.000200746
0.000200746
0.000200746
0.000200746
0.000200746
0.000200746
0.000200746
0.000200746
0.000200746
0.000200746
0.000200746
0.000200746
0.000200746
0.000200746
0.000200746
0.000200746
0.000200746
0.000200746
0.000200746
0.000200746
0.000200746
0.000200746
0.000200745
0.000200746
0.000200745
0.000200747
0.000200743
0.000200749
0.000200741
0.000200751
0.000200741
0.000200748
0.000200751
0.000200729
0.000200777
0.000200701
0.000200795
0.000200704
0.000200768
0.000200738
0.000200766
0.000200678
0.00020087
0.000200633
0.000200692
0.000201174
0.000199804
0.000202223
0.000199062
0.000202458
0.000200127
0.000200583
0.000204716
2.45433e-05
3.47522e-05
4.041e-05
4.23041e-05
4.20107e-05
4.05611e-05
3.87193e-05
3.70552e-05
3.56003e-05
3.4444e-05
3.35926e-05
3.29915e-05
3.25866e-05
3.23502e-05
3.2258e-05
3.22669e-05
3.2324e-05
3.2389e-05
3.24419e-05
3.24779e-05
3.24992e-05
3.25107e-05
3.25175e-05
3.2522e-05
3.25262e-05
3.25311e-05
3.2537e-05
3.25432e-05
3.25478e-05
3.25508e-05
3.25528e-05
3.25541e-05
3.25549e-05
3.25553e-05
3.25555e-05
3.25556e-05
3.25557e-05
3.25557e-05
3.25557e-05
3.25558e-05
3.25558e-05
3.25558e-05
3.25558e-05
3.25558e-05
3.25558e-05
3.25558e-05
3.25558e-05
3.25558e-05
3.25558e-05
3.25558e-05
3.25558e-05
3.25558e-05
3.25558e-05
3.25558e-05
3.25558e-05
3.25558e-05
3.25558e-05
3.25558e-05
3.25558e-05
3.25558e-05
3.25558e-05
3.25558e-05
3.25558e-05
3.25558e-05
3.25558e-05
3.25558e-05
3.25558e-05
3.25558e-05
3.25558e-05
3.25558e-05
3.25558e-05
3.25558e-05
3.25558e-05
3.25557e-05
3.25559e-05
3.25556e-05
3.2556e-05
3.25555e-05
3.2556e-05
3.25558e-05
3.25554e-05
3.25569e-05
3.2554e-05
3.25582e-05
3.25534e-05
3.25575e-05
3.25551e-05
3.25559e-05
3.25547e-05
3.25595e-05
3.25501e-05
3.25587e-05
3.25646e-05
3.25249e-05
3.26115e-05
3.2474e-05
3.26364e-05
3.246e-05
3.25754e-05
3.26173e-05
0.00036767
0.000401413
0.000791272
0.000769006
0.000427301
0.000285999
0.000209803
0.00017785
0.000169352
0.000169297
0.000171302
0.000172225
0.000170992
0.000167961
0.000163461
0.000157902
0.000152074
0.000146819
0.000142582
0.000139391
0.000137124
0.000135622
0.000134698
0.000134183
0.000133927
0.000133809
0.000133756
0.000133734
0.000133724
0.000133719
0.000133717
0.000133716
0.000133716
0.000133716
0.000133716
0.000133716
0.000133716
0.000133716
0.000133716
0.000133716
0.000133716
0.000133716
0.000133716
0.000133716
0.000133716
0.000133716
0.000133716
0.000133716
0.000133716
0.000133716
0.000133716
0.000133716
0.000133716
0.000133716
0.000133716
0.000133716
0.000133716
0.000133716
0.000133716
0.000133716
0.000133716
0.000133716
0.000133716
0.000133716
0.000133716
0.000133716
0.000133716
0.000133716
0.000133716
0.000133716
0.000133716
0.000133716
0.000133716
0.000133716
0.000133716
0.000133716
0.000133716
0.000133716
0.000133716
0.000133716
0.000133716
0.000133715
0.000133716
0.000133715
0.000133716
0.000133715
0.000133716
0.000133715
0.000133716
0.000133716
0.000133715
0.000133716
0.000133715
0.000133715
0.000133715
0.000133713
0.000133712
0.000133708
0.000133706
0.000133697
0.000490199
0.000357562
0.000711777
0.000583309
0.000374556
0.000250178
0.000195729
0.00018022
0.000174607
0.000171283
0.000169725
0.000169428
0.000168471
0.000166097
0.000162195
0.000157055
0.000151461
0.000146326
0.000142192
0.000139128
0.000136981
0.000135562
0.000134683
0.000134179
0.00013392
0.000133798
0.000133742
0.000133718
0.000133707
0.000133702
0.0001337
0.000133699
0.000133698
0.000133698
0.000133698
0.000133698
0.000133698
0.000133698
0.000133698
0.000133698
0.000133698
0.000133698
0.000133698
0.000133698
0.000133698
0.000133698
0.000133698
0.000133698
0.000133698
0.000133698
0.000133698
0.000133698
0.000133698
0.000133698
0.000133698
0.000133698
0.000133698
0.000133698
0.000133698
0.000133698
0.000133698
0.000133698
0.000133698
0.000133698
0.000133698
0.000133698
0.000133698
0.000133698
0.000133698
0.000133698
0.000133698
0.000133698
0.000133698
0.000133698
0.000133698
0.000133698
0.000133698
0.000133698
0.000133698
0.000133698
0.000133698
0.000133698
0.000133698
0.000133697
0.000133698
0.000133697
0.000133698
0.000133698
0.000133697
0.000133699
0.000133696
0.000133699
0.000133696
0.000133698
0.000133696
0.000133698
0.000133694
0.000133696
0.000133691
0.000133693
0.000591819
0.000446191
0.00068727
0.000483746
0.000321315
0.000226296
0.000195961
0.000183467
0.00017629
0.000172548
0.00016914
0.00016732
0.000166123
0.000164191
0.000160843
0.000156137
0.00015081
0.000145819
0.000141801
0.000138876
0.000136863
0.000135535
0.0001347
0.000134207
0.00013394
0.000133806
0.000133742
0.000133713
0.000133699
0.000133693
0.00013369
0.000133689
0.000133688
0.000133688
0.000133688
0.000133688
0.000133688
0.000133687
0.000133687
0.000133687
0.000133687
0.000133687
0.000133687
0.000133687
0.000133687
0.000133687
0.000133687
0.000133687
0.000133687
0.000133687
0.000133687
0.000133687
0.000133687
0.000133687
0.000133687
0.000133687
0.000133687
0.000133687
0.000133687
0.000133687
0.000133687
0.000133687
0.000133687
0.000133687
0.000133687
0.000133687
0.000133687
0.000133687
0.000133687
0.000133687
0.000133687
0.000133687
0.000133687
0.000133687
0.000133687
0.000133687
0.000133687
0.000133687
0.000133688
0.000133687
0.000133688
0.000133687
0.000133688
0.000133687
0.000133688
0.000133687
0.000133688
0.000133688
0.000133686
0.00013369
0.000133685
0.00013369
0.000133685
0.000133691
0.000133684
0.000133692
0.000133684
0.000133694
0.000133686
0.000133704
0.000590612
0.000533402
0.000574531
0.000385015
0.000268452
0.000198925
0.000183049
0.000180906
0.000176946
0.000173662
0.000168963
0.000165524
0.000163789
0.000162161
0.000159357
0.000155123
0.000150106
0.000145292
0.000141395
0.000138602
0.000136724
0.000135499
0.000134727
0.000134258
0.00013399
0.000133845
0.000133772
0.000133736
0.000133719
0.00013371
0.000133706
0.000133704
0.000133703
0.000133703
0.000133703
0.000133703
0.000133703
0.000133702
0.000133702
0.000133702
0.000133702
0.000133702
0.000133702
0.000133702
0.000133702
0.000133702
0.000133702
0.000133702
0.000133702
0.000133702
0.000133702
0.000133702
0.000133702
0.000133702
0.000133702
0.000133702
0.000133702
0.000133702
0.000133702
0.000133702
0.000133702
0.000133702
0.000133702
0.000133702
0.000133702
0.000133702
0.000133702
0.000133702
0.000133702
0.000133702
0.000133702
0.000133702
0.000133702
0.000133702
0.000133702
0.000133702
0.000133702
0.000133702
0.000133702
0.000133702
0.000133703
0.000133702
0.000133703
0.000133702
0.000133703
0.000133702
0.000133703
0.000133703
0.000133701
0.000133705
0.000133699
0.000133707
0.000133699
0.000133708
0.000133698
0.000133711
0.000133699
0.000133716
0.000133707
0.000133738
0.000422941
0.000549193
0.000443909
0.000321245
0.000228357
0.0001876
0.000186406
0.000183884
0.000179171
0.000176459
0.000171123
0.000165537
0.000162266
0.000160295
0.000157795
0.000154001
0.000149335
0.000144739
0.000140973
0.000138289
0.000136527
0.000135406
0.000134708
0.000134281
0.000134026
0.000133881
0.000133802
0.000133761
0.00013374
0.00013373
0.000133725
0.000133722
0.000133721
0.00013372
0.00013372
0.00013372
0.00013372
0.00013372
0.00013372
0.00013372
0.00013372
0.00013372
0.00013372
0.00013372
0.00013372
0.00013372
0.00013372