/*--------------------------------*- C++ -*----------------------------------*\
| =========                 |                                                 |
| \\      /  F ield         | OpenFOAM: The Open Source CFD Toolbox           |
|  \\    /   O peration     | Version:  v2012                                 |
|   \\  /    A nd           | Website:  www.openfoam.com                      |
|    \\/     M anipulation  |                                                 |
\*---------------------------------------------------------------------------*/
FoamFile
{
    version     2.0;
    format      ascii;
    class       surfaceScalarField;
    location    "0.229";
    object      phi.air;
}
// * * * * * * * * * * * * * * * * * * * * * * * * * * * * * * * * * * * * * //

dimensions      [0 3 -1 0 0 0 0];
oriented        oriented;


internalField   nonuniform List<scalar> 
10964
(
0.000657105
2.51282e-05
0.000628908
2.73557e-05
0.000601302
2.67627e-05
0.000575038
2.54182e-05
0.000551116
2.3074e-05
0.000530172
2.00936e-05
0.000512507
1.68143e-05
0.000497903
1.37513e-05
0.000485925
1.11243e-05
0.000476252
8.81905e-06
0.000468667
6.7297e-06
0.000462686
5.12573e-06
0.000458081
3.74945e-06
0.000454419
2.80619e-06
0.000451536
2.02767e-06
0.000449213
1.46695e-06
0.000447243
1.11417e-06
0.00044561
7.76988e-07
0.000444194
5.59435e-07
0.000442977
3.60951e-07
0.000441911
2.0988e-07
0.000441022
3.3579e-08
0.000440273
-1.06744e-07
0.00043966
-2.42797e-07
0.000439158
-3.54025e-07
0.000438738
-4.36295e-07
0.000438399
-5.16414e-07
0.000438109
-5.65567e-07
0.000437852
-5.99025e-07
0.000437614
-6.17421e-07
0.000437384
-6.26158e-07
0.000437142
-6.12966e-07
0.00043691
-6.23605e-07
0.000436673
-6.1899e-07
0.000436438
-6.20516e-07
0.00043621
-6.27439e-07
0.000435982
-6.27917e-07
0.000435765
-6.38142e-07
0.00043555
-6.4122e-07
0.000435348
-6.53228e-07
0.000435153
-6.60596e-07
0.000434971
-6.73659e-07
0.000434801
-6.84991e-07
0.000434643
-6.98277e-07
0.000434505
-7.16898e-07
0.000434379
-7.29317e-07
0.000434261
-7.38325e-07
0.000434157
-7.51146e-07
0.000434063
-7.60928e-07
0.000433979
-7.72059e-07
0.000433899
-7.75712e-07
0.000433831
-7.87021e-07
0.000433765
-7.90022e-07
0.000433712
-8.01649e-07
0.000433665
-8.09439e-07
0.000433628
-8.18107e-07
0.000433602
-8.29781e-07
0.000433578
-8.30926e-07
0.00043357
-8.47115e-07
0.000433569
-8.5496e-07
0.000433573
-8.59777e-07
0.000433593
-8.74556e-07
0.000433612
-8.74319e-07
0.000433644
-8.87985e-07
0.000433681
-8.92302e-07
0.000433725
-8.99487e-07
0.000433778
-9.08108e-07
0.000433836
-9.13385e-07
0.000433905
-9.23984e-07
0.000433983
-9.33466e-07
0.000434064
-9.36731e-07
0.000434159
-9.4993e-07
0.000434255
-9.51494e-07
0.00043436
-9.60437e-07
0.000434469
-9.63656e-07
0.000434582
-9.68003e-07
0.000434701
-9.74325e-07
0.000434825
-9.80001e-07
0.000434955
-9.84577e-07
0.00043509
-9.90646e-07
0.000435232
-9.96389e-07
0.000435376
-9.99499e-07
0.000435527
-1.00581e-06
0.000435676
-1.00386e-06
0.000435832
-1.01121e-06
0.000435981
-1.00443e-06
0.000436147
-1.02112e-06
0.000436298
-1.0052e-06
0.000436487
-1.04405e-06
0.000436644
-1.01254e-06
0.000436862
-1.07283e-06
0.000437018
-1.01025e-06
0.000437239
-1.07605e-06
0.000437364
-9.80175e-07
0.000437646
-1.13709e-06
0.00043775
-9.58258e-07
0.000438144
-1.24969e-06
0.000438853
-1.56237e-06
0.00043748
5.16905e-07
-1.10672e-05
0.000447694
0.000757086
2.43224e-05
0.000754878
2.95634e-05
0.000751199
3.04416e-05
0.000745925
3.06922e-05
0.000739358
2.96414e-05
0.000731829
2.76222e-05
0.000723576
2.50673e-05
0.000714968
2.236e-05
0.000706303
1.97893e-05
0.000697756
1.73654e-05
0.000689601
1.48848e-05
0.000681825
1.29021e-05
0.000674628
1.09466e-05
0.000667978
9.45563e-06
0.000661921
8.08503e-06
0.000656472
6.91567e-06
0.000651531
6.05491e-06
0.000647172
5.13595e-06
0.000643267
4.46518e-06
0.000639871
3.75647e-06
0.0006369
3.18096e-06
0.000634309
2.62445e-06
0.00063201
2.1926e-06
0.000629925
1.84162e-06
0.000628083
1.48888e-06
0.000626413
1.23289e-06
0.000624891
1.0059e-06
0.00062348
8.4519e-07
0.00062216
7.21695e-07
0.000620931
6.1095e-07
0.000619781
5.23897e-07
0.000618719
4.4882e-07
0.000617734
3.6184e-07
0.00061683
2.84469e-07
0.000615993
2.16635e-07
0.000615216
1.49854e-07
0.000614496
9.16852e-08
0.00061383
2.85769e-08
0.00061321
-2.11521e-08
0.000612635
-7.8271e-08
0.000612102
-1.28247e-07
0.00061161
-1.81195e-07
0.000611157
-2.32113e-07
0.000610739
-2.80741e-07
0.000610354
-3.31313e-07
0.000609994
-3.69293e-07
0.000609658
-4.02619e-07
0.000609346
-4.39008e-07
0.000609053
-4.68351e-07
0.000608784
-5.02508e-07
0.000608533
-5.24623e-07
0.000608302
-5.56693e-07
0.000608089
-5.76446e-07
0.000607896
-6.0859e-07
0.000607721
-6.34349e-07
0.000607564
-6.61738e-07
0.000607428
-6.93035e-07
0.000607303
-7.06703e-07
0.000607198
-7.42082e-07
0.000607111
-7.68066e-07
0.000607037
-7.85719e-07
0.00060698
-8.17173e-07
0.000606933
-8.27556e-07
0.000606903
-8.57418e-07
0.000606888
-8.77217e-07
0.000606883
-8.95047e-07
0.00060689
-9.1483e-07
0.000606906
-9.29187e-07
0.000606933
-9.51742e-07
0.000606974
-9.74235e-07
0.000607025
-9.87851e-07
0.000607094
-1.01835e-06
0.000607173
-1.03118e-06
0.000607266
-1.05341e-06
0.000607368
-1.06485e-06
0.000607475
-1.0758e-06
0.000607588
-1.08706e-06
0.000607708
-1.10018e-06
0.000607833
-1.10898e-06
0.000607967
-1.1245e-06
0.000608108
-1.13743e-06
0.000608259
-1.15095e-06
0.000608416
-1.16306e-06
0.000608585
-1.17237e-06
0.000608751
-1.1776e-06
0.000608933
-1.18606e-06
0.000609106
-1.19428e-06
0.000609302
-1.20107e-06
0.000609479
-1.22127e-06
0.000609692
-1.22591e-06
0.000609877
-1.25771e-06
0.000610114
-1.24675e-06
0.000610291
-1.25309e-06
0.000610575
-1.26451e-06
0.000610725
-1.2865e-06
0.000611139
-1.37303e-06
0.000611265
-1.37539e-06
0.000611968
-2.26525e-06
0.00061219
2.94911e-07
-1.49982e-05
0.000616121
0.000840344
2.13119e-05
0.000842327
2.75796e-05
0.000844307
2.84625e-05
0.000845634
2.93642e-05
0.000846203
2.90725e-05
0.000845982
2.78432e-05
0.000845038
2.60114e-05
0.000843325
2.40731e-05
0.000840906
2.22086e-05
0.000837771
2.05004e-05
0.000834018
1.86378e-05
0.000829716
1.72039e-05
0.000824935
1.57281e-05
0.000819836
1.4554e-05
0.000814513
1.34082e-05
0.000809088
1.23404e-05
0.000803703
1.14407e-05
0.000798462
1.03764e-05
0.000793409
9.51867e-06
0.000788678
8.48769e-06
0.000784262
7.59674e-06
0.00078017
6.71643e-06
0.000776469
5.8937e-06
0.000773051
5.25888e-06
0.000769973
4.56739e-06
0.00076715
4.05552e-06
0.000764558
3.59826e-06
0.000762176
3.22717e-06
0.000759968
2.92977e-06
0.000757955
2.62371e-06
0.000756086
2.39256e-06
0.000754393
2.1426e-06
0.000752825
1.929e-06
0.000751391
1.71861e-06
0.00075007
1.53842e-06
0.000748844
1.37526e-06
0.000747714
1.22213e-06
0.000746669
1.07373e-06
0.000745703
9.44363e-07
0.000744808
8.16542e-07
0.000743983
6.9656e-07
0.00074322
5.82404e-07
0.000742519
4.68943e-07
0.000741863
3.75165e-07
0.000741246
2.85521e-07
0.000740666
2.10978e-07
0.000740121
1.41931e-07
0.000739613
6.94205e-08
0.000739137
7.02878e-09
0.000738696
-6.16046e-08
0.000738288
-1.15909e-07
0.00073791
-1.78457e-07
0.000737562
-2.2867e-07
0.000737243
-2.89355e-07
0.000736953
-3.44659e-07
0.000736689
-3.97792e-07
0.000736452
-4.558e-07
0.00073624
-4.9518e-07
0.000736048
-5.5045e-07
0.000735883
-6.02921e-07
0.000735738
-6.40682e-07
0.000735613
-6.91496e-07
0.000735505
-7.19794e-07
0.000735416
-7.68383e-07
0.000735348
-8.08892e-07
0.000735295
-8.42857e-07
0.000735258
-8.77666e-07
0.000735234
-9.04994e-07
0.000735225
-9.42691e-07
0.000735229
-9.78759e-07
0.00073525
-1.00867e-06
0.000735292
-1.05987e-06
0.000735352
-1.09138e-06
0.00073543
-1.13114e-06
0.00073552
-1.1549e-06
0.000735618
-1.17424e-06
0.00073572
-1.18891e-06
0.000735828
-1.20855e-06
0.000735942
-1.22219e-06
0.000736065
-1.24799e-06
0.000736199
-1.27114e-06
0.000736346
-1.29807e-06
0.000736503
-1.32001e-06
0.000736675
-1.34444e-06
0.000736848
-1.35011e-06
0.000737037
-1.37591e-06
0.00073722
-1.37697e-06
0.000737425
-1.40581e-06
0.000737612
-1.40817e-06
0.000737836
-1.44977e-06
0.000738034
-1.45575e-06
0.000738278
-1.4909e-06
0.000738487
-1.46202e-06
0.000738771
-1.54891e-06
0.000738984
-1.49947e-06
0.000739353
-1.74206e-06
0.000739592
-1.61435e-06
0.00074021
-2.88324e-06
0.000741354
-8.49368e-07
-1.56292e-05
0.000741985
0.000930297
1.80874e-05
0.000933067
2.48094e-05
0.000936247
2.52829e-05
0.000939312
2.62994e-05
0.000942131
2.62536e-05
0.000944663
2.53112e-05
0.000946777
2.38972e-05
0.000948515
2.2335e-05
0.000949808
2.0916e-05
0.000950713
1.95956e-05
0.00095116
1.81901e-05
0.000951132
1.72317e-05
0.000950711
1.61498e-05
0.000949892
1.53725e-05
0.000948629
1.4671e-05
0.000946927
1.40425e-05
0.000944795
1.35731e-05
0.000942215
1.29559e-05
0.000939242
1.24918e-05
0.000935881
1.18487e-05
0.000932208
1.127e-05
0.000928284
1.06405e-05
0.000924259
9.91888e-06
0.00092019
9.32709e-06
0.000916212
8.54537e-06
0.000912367
7.90054e-06
0.000908723
7.24292e-06
0.000905335
6.61496e-06
0.00090217
6.09521e-06
0.000899271
5.52217e-06
0.000896568
5.09594e-06
0.00089409
4.62016e-06
0.00089176
4.25867e-06
0.00088958
3.8986e-06
0.00088755
3.56878e-06
0.000885654
3.27189e-06
0.00088389
2.98595e-06
0.000882249
2.71429e-06
0.00088073
2.4634e-06
0.00087932
2.22689e-06
0.000878021
1.9954e-06
0.000876814
1.78933e-06
0.000875697
1.58625e-06
0.000874657
1.41497e-06
0.000873689
1.2537e-06
0.000872787
1.11248e-06
0.000871946
9.83109e-07
0.000871162
8.53086e-07
0.000870433
7.36218e-07
0.000869756
6.15268e-07
0.00086913
5.10503e-07
0.000868548
4.02988e-07
0.000868016
3.03979e-07
0.000867521
2.05085e-07
0.000867073
1.03966e-07
0.00086666
1.44761e-08
0.000866282
-7.73275e-08
0.000865941
-1.54424e-07
0.000865628
-2.36949e-07
0.000865347
-3.21796e-07
0.000865093
-3.87326e-07
0.000864865
-4.6319e-07
0.00086466
-5.14815e-07
0.00086448
-5.88193e-07
0.000864327
-6.55922e-07
0.000864195
-7.11279e-07
0.000864084
-7.66345e-07
0.000863992
-8.12802e-07
0.000863914
-8.6531e-07
0.000863857
-9.21577e-07
0.000863826
-9.77968e-07
0.000863818
-1.05154e-06
0.000863836
-1.1095e-06
0.000863876
-1.17105e-06
0.000863934
-1.21291e-06
0.000864
-1.24062e-06
0.000864068
-1.25602e-06
0.000864139
-1.28009e-06
0.000864218
-1.30113e-06
0.000864308
-1.33742e-06
0.000864413
-1.37656e-06
0.000864533
-1.41822e-06
0.000864672
-1.45861e-06
0.000864825
-1.49795e-06
0.000864989
-1.51412e-06
0.000865165
-1.55133e-06
0.000865347
-1.55898e-06
0.000865535
-1.59386e-06
0.000865728
-1.60111e-06
0.000865928
-1.64986e-06
0.000866143
-1.67085e-06
0.000866368
-1.71613e-06
0.000866615
-1.7092e-06
0.000866866
-1.79974e-06
0.000867155
-1.78811e-06
0.000867443
-2.03019e-06
0.00086782
-1.99112e-06
0.000868285
-3.34879e-06
0.0008696
-2.16401e-06
-1.54031e-05
0.000869374
0.00102963
1.48919e-05
0.00103283
2.16004e-05
0.0010364
2.17134e-05
0.00104005
2.26524e-05
0.00104359
2.27142e-05
0.00104697
2.19293e-05
0.00105011
2.07599e-05
0.00105302
1.94289e-05
0.00105564
1.82879e-05
0.00105808
1.71632e-05
0.00106022
1.60419e-05
0.00106216
1.52929e-05
0.00106387
1.44478e-05
0.00106538
1.38594e-05
0.00106668
1.33681e-05
0.00106776
1.29597e-05
0.00106867
1.26687e-05
0.00106929
1.23348e-05
0.00106968
1.21001e-05
0.00106975
1.17818e-05
0.00106951
1.1508e-05
0.00106894
1.12152e-05
0.001068
1.08543e-05
0.0010667
1.06254e-05
0.00106502
1.02242e-05
0.00106302
9.90785e-06
0.00106071
9.55112e-06
0.00105817
9.14765e-06
0.00105547
8.7997e-06
0.00105265
8.34223e-06
0.00104976
7.98745e-06
0.00104688
7.50225e-06
0.00104404
7.09464e-06
0.00104129
6.65273e-06
0.00103863
6.22443e-06
0.0010361
5.80724e-06
0.00103369
5.39192e-06
0.00103141
4.99524e-06
0.00102926
4.60983e-06
0.00102724
4.24864e-06
0.00102535
3.88599e-06
0.00102355
3.59222e-06
0.00102183
3.30262e-06
0.00102021
3.03326e-06
0.0010187
2.77051e-06
0.00101728
2.52664e-06
0.00101596
2.30764e-06
0.00101472
2.09175e-06
0.00101357
1.88671e-06
0.0010125
1.68732e-06
0.0010115
1.50448e-06
0.00101057
1.33571e-06
0.00100972
1.1543e-06
0.00100892
1.00044e-06
0.00100819
8.40334e-07
0.0010075
6.96745e-07
0.00100686
5.69005e-07
0.00100627
4.33285e-07
0.00100572
3.13144e-07
0.00100521
1.88913e-07
0.00100474
8.27405e-08
0.0010043
-2.67282e-08
0.0010039
-1.14844e-07
0.00100353
-2.18161e-07
0.00100321
-3.28146e-07
0.00100291
-4.15013e-07
0.00100264
-4.98845e-07
0.00100241
-5.79883e-07
0.00100219
-6.48562e-07
0.001002
-7.3129e-07
0.00100184
-8.20308e-07
0.00100172
-9.25002e-07
0.00100163
-1.02696e-06
0.00100158
-1.11492e-06
0.00100155
-1.18143e-06
0.00100153
-1.22034e-06
0.00100151
-1.24102e-06
0.00100151
-1.27521e-06
0.00100151
-1.30871e-06
0.00100153
-1.35762e-06
0.00100158
-1.41989e-06
0.00100164
-1.47976e-06
0.00100173
-1.54935e-06
0.00100184
-1.60329e-06
0.00100197
-1.644e-06
0.0010021
-1.68679e-06
0.00100226
-1.71585e-06
0.00100241
-1.74701e-06
0.00100258
-1.77466e-06
0.00100275
-1.81723e-06
0.00100295
-1.87068e-06
0.00100315
-1.916e-06
0.00100339
-1.94816e-06
0.00100363
-2.03702e-06
0.00100391
-2.06724e-06
0.0010042
-2.31895e-06
0.00100456
-2.35887e-06
0.00100495
-3.73724e-06
0.00100613
-3.33944e-06
-1.51414e-05
0.00100587
0.00113955
1.17822e-05
0.00114322
1.79278e-05
0.00114711
1.78256e-05
0.00115114
1.86169e-05
0.00115512
1.8736e-05
0.00115896
1.809e-05
0.00116258
1.71387e-05
0.00116599
1.60208e-05
0.00116918
1.50957e-05
0.00117219
1.4149e-05
0.001175
1.32394e-05
0.00117765
1.26384e-05
0.00118014
1.19549e-05
0.00118252
1.14822e-05
0.00118479
1.11031e-05
0.00118693
1.08127e-05
0.00118903
1.05761e-05
0.00119099
1.03733e-05
0.00119287
1.02138e-05
0.00119465
1.00072e-05
0.0011963
9.85772e-06
0.00119784
9.67373e-06
0.00119919
9.49995e-06
0.00120046
9.3574e-06
0.00120151
9.17222e-06
0.00120237
9.04975e-06
0.00120303
8.89441e-06
0.00120343
8.74464e-06
0.0012036
8.63107e-06
0.00120347
8.4747e-06
0.0012031
8.35598e-06
0.00120247
8.13737e-06
0.00120159
7.96504e-06
0.0012005
7.75257e-06
0.00119919
7.53043e-06
0.0011977
7.29294e-06
0.00119606
7.03124e-06
0.0011943
6.75807e-06
0.00119245
6.46575e-06
0.00119053
6.16621e-06
0.00118858
5.83644e-06
0.00118663
5.54262e-06
0.00118468
5.24937e-06
0.00118278
4.9336e-06
0.00118092
4.62898e-06
0.00117914
4.31261e-06
0.00117741
4.02827e-06
0.00117577
3.74017e-06
0.00117421
3.44586e-06
0.00117272
3.16966e-06
0.00117133
2.90097e-06
0.00116999
2.67718e-06
0.00116874
2.40364e-06
0.00116754
2.20211e-06
0.00116638
1.99826e-06
0.00116529
1.78738e-06
0.00116423
1.63074e-06
0.00116324
1.42149e-06
0.00116231
1.23926e-06
0.00116143
1.06762e-06
0.00116061
9.06696e-07
0.00115983
7.55816e-07
0.00115911
6.04467e-07
0.00115843
4.63235e-07
0.0011578
2.94725e-07
0.00115724
1.52046e-07
0.00115671
3.12882e-08
0.00115623
-1.01981e-07
0.00115577
-1.93692e-07
0.00115534
-3.03501e-07
0.00115496
-4.3385e-07
0.00115461
-5.75439e-07
0.00115432
-7.3682e-07
0.00115407
-8.65208e-07
0.00115385
-9.60272e-07
0.00115365
-1.01994e-06
0.00115346
-1.0556e-06
0.00115329
-1.10315e-06
0.00115314
-1.15862e-06
0.00115301
-1.22769e-06
0.00115291
-1.32424e-06
0.00115285
-1.41575e-06
0.00115282
-1.51778e-06
0.00115282
-1.60009e-06
0.00115284
-1.67114e-06
0.00115288
-1.72356e-06
0.00115295
-1.78323e-06
0.00115302
-1.82013e-06
0.00115312
-1.87036e-06
0.00115322
-1.9172e-06
0.00115334
-1.9977e-06
0.00115349
-2.05888e-06
0.00115366
-2.11869e-06
0.00115385
-2.2306e-06
0.00115407
-2.28923e-06
0.00115433
-2.57444e-06
0.00115467
-2.69923e-06
0.00115502
-4.08724e-06
0.00115604
-4.35765e-06
-1.47828e-05
0.00115568
0.0012613
8.71831e-06
0.00126542
1.38028e-05
0.00126966
1.35879e-05
0.00127409
1.4189e-05
0.00127849
1.43364e-05
0.00128274
1.38315e-05
0.00128678
1.31038e-05
0.00129058
1.22221e-05
0.00129417
1.15032e-05
0.00129756
1.07598e-05
0.00130074
1.00544e-05
0.00130379
9.59143e-06
0.00130668
9.06148e-06
0.00130947
8.69722e-06
0.00131217
8.40149e-06
0.00131479
8.19439e-06
0.00131736
8.00544e-06
0.00131987
7.86292e-06
0.00132233
7.7578e-06
0.00132473
7.60705e-06
0.00132707
7.51633e-06
0.00132937
7.37594e-06
0.00133159
7.27125e-06
0.00133378
7.17323e-06
0.0013359
7.05e-06
0.00133797
6.98465e-06
0.00133996
6.89911e-06
0.00134188
6.82244e-06
0.00134375
6.76324e-06
0.00134549
6.7338e-06
0.00134718
6.66953e-06
0.00134873
6.58658e-06
0.00135016
6.53145e-06
0.00135145
6.46369e-06
0.0013526
6.37833e-06
0.00135359
6.30773e-06
0.00135439
6.22608e-06
0.00135502
6.12842e-06
0.00135545
6.03894e-06
0.0013557
5.91809e-06
0.0013557
5.83508e-06
0.00135556
5.68691e-06
0.00135525
5.55628e-06
0.00135479
5.39727e-06
0.00135417
5.24474e-06
0.00135342
5.06467e-06
0.00135255
4.89917e-06
0.00135157
4.71924e-06
0.0013505
4.50964e-06
0.00134937
4.3033e-06
0.00134819
4.08451e-06
0.00134696
3.9085e-06
0.00134571
3.6485e-06
0.00134448
3.43723e-06
0.00134324
3.23358e-06
0.00134203
2.9939e-06
0.00134082
2.8444e-06
0.00133965
2.59165e-06
0.00133853
2.35608e-06
0.00133744
2.15723e-06
0.0013364
1.95032e-06
0.00133538
1.78028e-06
0.00133442
1.56339e-06
0.0013335
1.37907e-06
0.00133262
1.17167e-06
0.00133181
9.65931e-07
0.00133103
8.09931e-07
0.00133029
6.4371e-07
0.00132956
5.32312e-07
0.00132884
4.11774e-07
0.00132817
2.44965e-07
0.00132752
6.74215e-08
0.00132693
-1.4714e-07
0.0013264
-3.27724e-07
0.00132589
-4.58152e-07
0.00132542
-5.46428e-07
0.00132497
-6.04568e-07
0.00132454
-6.74719e-07
0.00132414
-7.59299e-07
0.00132377
-8.58621e-07
0.00132345
-9.99242e-07
0.00132316
-1.13383e-06
0.00132292
-1.27794e-06
0.00132272
-1.39809e-06
0.00132255
-1.50062e-06
0.00132241
-1.58222e-06
0.0013223
-1.67613e-06
0.00132223
-1.74321e-06
0.00132217
-1.81491e-06
0.00132215
-1.89131e-06
0.00132214
-1.98727e-06
0.00132215
-2.07655e-06
0.0013222
-2.16227e-06
0.00132227
-2.30016e-06
0.00132238
-2.4039e-06
0.00132252
-2.70909e-06
0.00132276
-2.94096e-06
0.00132299
-4.31892e-06
0.00132378
-5.1491e-06
-1.42724e-05
0.00132327
0.00139614
5.65598e-06
0.00140075
9.19499e-06
0.00140539
8.94647e-06
0.00141024
9.33989e-06
0.0014151
9.47267e-06
0.00141982
9.12016e-06
0.00142429
8.6329e-06
0.00142849
8.01799e-06
0.00143248
7.51848e-06
0.00143623
7.00651e-06
0.00143977
6.51452e-06
0.00144316
6.20063e-06
0.00144638
5.83609e-06
0.0014495
5.5843e-06
0.00145252
5.37469e-06
0.00145548
5.24373e-06
0.00145837
5.11439e-06
0.00146121
5.01745e-06
0.00146401
4.95937e-06
0.00146676
4.85755e-06
0.00146947
4.80932e-06
0.00147213
4.70998e-06
0.00147476
4.64144e-06
0.00147736
4.58041e-06
0.00147991
4.49048e-06
0.00148245
4.4504e-06
0.00148495
4.39724e-06
0.00148742
4.35042e-06
0.00148988
4.30882e-06
0.0014923
4.31088e-06
0.0014947
4.27429e-06
0.00149705
4.22772e-06
0.00149938
4.2011e-06
0.00150167
4.17897e-06
0.00150392
4.13147e-06
0.00150611
4.10938e-06
0.00150826
4.08201e-06
0.00151035
4.04131e-06
0.00151237
4.01563e-06
0.00151432
3.96668e-06
0.00151619
3.9608e-06
0.00151797
3.9085e-06
0.00151967
3.86007e-06
0.00152125
3.81294e-06
0.00152274
3.76087e-06
0.00152409
3.71215e-06
0.00152533
3.65662e-06
0.00152645
3.6061e-06
0.00152741
3.54446e-06
0.00152824
3.47723e-06
0.00152891
3.41409e-06
0.00152946
3.35777e-06
0.00152984
3.26999e-06
0.0015301
3.17118e-06
0.00153024
3.09932e-06
0.00153025
2.9773e-06
0.00153017
2.9268e-06
0.00152999
2.77617e-06
0.00152971
2.63089e-06
0.00152935
2.52309e-06
0.00152891
2.39052e-06
0.0015284
2.28502e-06
0.00152784
2.12401e-06
0.00152724
1.97858e-06
0.0015266
1.81623e-06
0.00152592
1.63908e-06
0.00152523
1.50406e-06
0.00152453
1.34403e-06
0.00152384
1.2206e-06
0.00152316
1.09421e-06
0.00152249
9.13865e-07
0.00152183
7.29386e-07
0.00152117
5.06251e-07
0.00152053
3.1334e-07
0.0015199
1.71036e-07
0.00151929
6.41483e-08
0.00151871
-1.83783e-08
0.00151815
-1.21929e-07
0.00151763
-2.34653e-07
0.00151713
-3.63562e-07
0.00151667
-5.38119e-07
0.00151625
-7.08059e-07
0.00151585
-8.80374e-07
0.00151548
-1.0277e-06
0.00151512
-1.14597e-06
0.00151479
-1.24908e-06
0.00151449
-1.37412e-06
0.00151422
-1.47833e-06
0.00151399
-1.57797e-06
0.00151378
-1.68759e-06
0.00151359
-1.79803e-06
0.00151343
-1.91273e-06
0.00151329
-2.01775e-06
0.00151316
-2.16873e-06
0.00151305
-2.30327e-06
0.00151296
-2.61271e-06
0.00151295
-2.92956e-06
0.00151291
-4.28342e-06
0.00151331
-5.55001e-06
-1.34788e-05
0.00151252
0.00154551
2.52585e-06
0.00155065
4.06092e-06
0.00155575
3.83858e-06
0.00156107
4.02526e-06
0.00156645
4.08905e-06
0.00157166
3.90754e-06
0.00157661
3.68708e-06
0.00158126
3.3649e-06
0.00158567
3.10675e-06
0.00158983
2.85062e-06
0.00159375
2.59177e-06
0.00159751
2.44704e-06
0.00160108
2.26165e-06
0.00160453
2.13322e-06
0.00160788
2.02304e-06
0.00161116
1.96848e-06
0.00161436
1.90943e-06
0.00161752
1.85977e-06
0.00162063
1.84649e-06
0.00162369
1.80163e-06
0.00162671
1.78988e-06
0.00162968
1.73686e-06
0.00163262
1.70292e-06
0.00163553
1.67399e-06
0.0016384
1.61832e-06
0.00164125
1.60024e-06
0.00164407
1.57317e-06
0.00164688
1.54665e-06
0.00164966
1.52251e-06
0.00165244
1.53589e-06
0.00165519
1.52272e-06
0.00165792
1.49433e-06
0.00166064
1.48299e-06
0.00166334
1.47912e-06
0.00166602
1.4535e-06
0.00166868
1.44909e-06
0.00167132
1.44221e-06
0.00167394
1.42308e-06
0.00167654
1.41729e-06
0.00167911
1.39564e-06
0.00168166
1.4089e-06
0.00168418
1.38956e-06
0.00168667
1.36539e-06
0.00168913
1.35275e-06
0.00169157
1.32908e-06
0.00169396
1.32197e-06
0.00169631
1.298e-06
0.00169863
1.28774e-06
0.0017009
1.27498e-06
0.00170313
1.25358e-06
0.00170528
1.25523e-06
0.00170742
1.22329e-06
0.00170947
1.21866e-06
0.00171145
1.19368e-06
0.00171337
1.17569e-06
0.00171518
1.16466e-06
0.00171698
1.13094e-06
0.00171866
1.09901e-06
0.00172022
1.06685e-06
0.00172169
1.04985e-06
0.00172307
1.0186e-06
0.00172436
9.95205e-07
0.00172553
9.50661e-07
0.0017266
9.06354e-07
0.00172755
8.64746e-07
0.00172838
8.16749e-07
0.00172908
7.95121e-07
0.00172969
7.40127e-07
0.00173022
6.91438e-07
0.0017307
6.16926e-07
0.00173111
4.97648e-07
0.00173145
3.93958e-07
0.00173165
3.0067e-07
0.00173174
2.24755e-07
0.00173172
1.90012e-07
0.00173164
1.42907e-07
0.00173153
9.69807e-08
0.0017314
2.60116e-09
0.00173127
-1.00742e-07
0.00173113
-2.20503e-07
0.00173096
-3.67244e-07
0.00173075
-5.01029e-07
0.0017305
-6.30234e-07
0.00173021
-7.34844e-07
0.00172987
-8.10542e-07
0.0017295
-8.80025e-07
0.00172912
-9.89514e-07
0.00172873
-1.09167e-06
0.00172835
-1.20244e-06
0.001728
-1.32878e-06
0.00172764
-1.44374e-06
0.00172728
-1.55215e-06
0.00172691
-1.64379e-06
0.0017265
-1.76198e-06
0.00172607
-1.87087e-06
0.00172559
-2.13848e-06
0.00172514
-2.47667e-06
0.00172463
-3.77522e-06
0.00172446
-5.38097e-06
-1.21967e-05
0.00172318
0.001711
-7.94807e-07
0.00171671
-1.64458e-06
0.00172235
-1.80374e-06
0.0017282
-1.82492e-06
0.00173416
-1.87086e-06
0.00173993
-1.86272e-06
0.0017454
-1.78245e-06
0.00175055
-1.78893e-06
0.00175544
-1.77604e-06
0.00176004
-1.75232e-06
0.00176439
-1.75438e-06
0.00176854
-1.70491e-06
0.0017725
-1.69992e-06
0.00177632
-1.68793e-06
0.00178003
-1.68714e-06
0.00178366
-1.65892e-06
0.00178721
-1.64116e-06
0.0017907
-1.63432e-06
0.00179415
-1.60097e-06
0.00179754
-1.58434e-06
0.00180088
-1.55295e-06
0.00180417
-1.55773e-06
0.00180743
-1.55299e-06
0.00181065
-1.54817e-06
0.00181384
-1.56735e-06
0.001817
-1.55977e-06
0.00182013
-1.561e-06
0.00182325
-1.56909e-06
0.00182634
-1.57183e-06
0.00182943
-1.54885e-06
0.00183249
-1.53978e-06
0.00183553
-1.55021e-06
0.00183857
-1.54822e-06
0.00184158
-1.53477e-06
0.00184457
-1.54174e-06
0.00184756
-1.53133e-06
0.00185052
-1.52376e-06
0.00185347
-1.52383e-06
0.0018564
-1.51637e-06
0.00185932
-1.51846e-06
0.00186222
-1.49163e-06
0.0018651
-1.49255e-06
0.00186796
-1.49788e-06
0.00187081
-1.49326e-06
0.00187364
-1.49943e-06
0.00187645
-1.48807e-06
0.00187924
-1.4962e-06
0.00188202
-1.4873e-06
0.00188477
-1.48141e-06
0.00188751
-1.48508e-06
0.00189023
-1.46216e-06
0.00189293
-1.47874e-06
0.00189561
-1.46267e-06
0.00189827
-1.46089e-06
0.0019009
-1.46084e-06
0.0019035
-1.43738e-06
0.0019061
-1.46146e-06
0.00190865
-1.45476e-06
0.00191117
-1.44882e-06
0.00191365
-1.43744e-06
0.0019161
-1.42828e-06
0.00191852
-1.4294e-06
0.00192089
-1.41771e-06
0.00192323
-1.43062e-06
0.00192552
-1.42229e-06
0.00192773
-1.39646e-06
0.00192992
-1.39009e-06
0.00193202
-1.36303e-06
0.00193407
-1.35935e-06
0.00193608
-1.38915e-06
0.00193801
-1.43613e-06
0.00193987
-1.46867e-06
0.00194161
-1.44048e-06
0.00194324
-1.40279e-06
0.00194474
-1.31247e-06
0.00194613
-1.24182e-06
0.00194744
-1.21706e-06
0.00194866
-1.21818e-06
0.00194982
-1.26184e-06
0.00195091
-1.31123e-06
0.00195187
-1.32142e-06
0.00195269
-1.32249e-06
0.00195335
-1.28757e-06
0.00195384
-1.229e-06
0.00195421
-1.18309e-06
0.00195445
-1.11971e-06
0.00195454
-1.08025e-06
0.00195451
-1.0595e-06
0.0019544
-1.08516e-06
0.00195419
-1.12288e-06
0.0019539
-1.15296e-06
0.00195352
-1.1696e-06
0.00195303
-1.15713e-06
0.00195241
-1.1437e-06
0.00195167
-1.12533e-06
0.00195078
-1.25042e-06
0.00194982
-1.52137e-06
0.00194871
-2.66398e-06
0.00194771
-4.38125e-06
-1.01128e-05
0.00194563
0.00171104
-4.15019e-06
0.00171675
-7.36087e-06
0.0017224
-7.45237e-06
0.00172826
-7.68099e-06
0.00173422
-7.83234e-06
0.00173999
-7.63543e-06
0.00174546
-7.24739e-06
0.00175062
-6.94713e-06
0.0017555
-6.65718e-06
0.0017601
-6.35602e-06
0.00176445
-6.10312e-06
0.0017686
-5.8521e-06
0.00177256
-5.66581e-06
0.00177638
-5.50783e-06
0.00178009
-5.39864e-06
0.00178372
-5.28607e-06
0.00178727
-5.19402e-06
0.00179077
-5.12766e-06
0.00179421
-5.04694e-06
0.0017976
-4.97335e-06
0.00180094
-4.89291e-06
0.00180424
-4.85353e-06
0.00180749
-4.80875e-06
0.00181072
-4.76993e-06
0.0018139
-4.75505e-06
0.00181706
-4.71849e-06
0.0018202
-4.69524e-06
0.00182331
-4.68655e-06
0.00182641
-4.66644e-06
0.00182949
-4.63171e-06
0.00183255
-4.60265e-06
0.0018356
-4.59605e-06
0.00183863
-4.57736e-06
0.00184164
-4.54812e-06
0.00184464
-4.53614e-06
0.00184762
-4.51015e-06
0.00185058
-4.48894e-06
0.00185352
-4.46573e-06
0.00185646
-4.44962e-06
0.00185937
-4.42886e-06
0.00186226
-4.3869e-06
0.00186514
-4.37161e-06
0.001868
-4.35373e-06
0.00187084
-4.33421e-06
0.00187366
-4.31816e-06
0.00187646
-4.29125e-06
0.00187924
-4.27894e-06
0.001882
-4.24796e-06
0.00188475
-4.22586e-06
0.00188747
-4.20388e-06
0.00189017
-4.16744e-06
0.00189284
-4.15063e-06
0.0018955
-4.11884e-06
0.00189813
-4.09023e-06
0.00190072
-4.05571e-06
0.0019033
-4.01375e-06
0.00190584
-3.99757e-06
0.00190833
-3.9492e-06
0.0019108
-3.91476e-06
0.00191322
-3.85884e-06
0.00191559
-3.80335e-06
0.00191793
-3.76946e-06
0.00192021
-3.69205e-06
0.00192243
-3.65245e-06
0.00192459
-3.58352e-06
0.00192669
-3.49202e-06
0.00192872
-3.42671e-06
0.00193068
-3.31919e-06
0.00193258
-3.2589e-06
0.00193439
-3.20024e-06
0.0019361
-3.14616e-06
0.00193771
-3.08187e-06
0.00193921
-2.94141e-06
0.00194061
-2.79677e-06
0.00194191
-2.61528e-06
0.00194312
-2.44633e-06
0.00194422
-2.32021e-06
0.00194521
-2.20843e-06
0.00194609
-2.14566e-06
0.00194686
-2.0751e-06
0.0019475
-1.96465e-06
0.001948
-1.82771e-06
0.00194839
-1.66898e-06
0.00194866
-1.50231e-06
0.00194883
-1.35596e-06
0.00194891
-1.19958e-06
0.00194889
-1.05406e-06
0.00194877
-9.42363e-07
0.00194856
-8.7129e-07
0.00194824
-8.12491e-07
0.00194784
-7.53039e-07
0.00194736
-6.81228e-07
0.00194678
-5.801e-07
0.0019461
-4.68575e-07
0.00194534
-3.58867e-07
0.00194446
-3.73753e-07
0.00194351
-5.68738e-07
0.00194238
-1.53749e-06
0.00194119
-3.18783e-06
-7.96122e-06
0.00193904
0.0015456
-7.37424e-06
0.00155077
-1.25221e-05
0.00155589
-1.25754e-05
0.00156122
-1.30112e-05
0.00156661
-1.32229e-05
0.00157183
-1.28535e-05
0.00157676
-1.21825e-05
0.00158142
-1.16091e-05
0.00158583
-1.1066e-05
0.00158999
-1.05139e-05
0.00159392
-1.00322e-05
0.00159766
-9.5954e-06
0.00160125
-9.24885e-06
0.0016047
-8.95763e-06
0.00160805
-8.75112e-06
0.00161132
-8.56164e-06
0.00161454
-8.40425e-06
0.00161769
-8.2818e-06
0.0016208
-8.15881e-06
0.00162386
-8.03392e-06
0.00162688
-7.90716e-06
0.00162985
-7.8279e-06
0.00163279
-7.74675e-06
0.00163569
-7.67548e-06
0.00163857
-7.62911e-06
0.00164141
-7.56482e-06
0.00164424
-7.51629e-06
0.00164704
-7.49222e-06
0.00164982
-7.44921e-06
0.00165259
-7.39809e-06
0.00165534
-7.35023e-06
0.00165807
-7.32491e-06
0.00166077
-7.28393e-06
0.00166346
-7.23971e-06
0.00166613
-7.20133e-06
0.00166878
-7.15621e-06
0.0016714
-7.11464e-06
0.001674
-7.06095e-06
0.00167658
-7.02857e-06
0.00167912
-6.96954e-06
0.00168164
-6.90737e-06
0.00168412
-6.85468e-06
0.00168657
-6.7998e-06
0.00168898
-6.74605e-06
0.00169134
-6.68344e-06
0.00169367
-6.61969e-06
0.00169594
-6.54652e-06
0.00169817
-6.47474e-06
0.00170033
-6.39e-06
0.00170243
-6.30044e-06
0.00170446
-6.20372e-06
0.00170641
-6.09726e-06
0.0017083
-6.00788e-06
0.00171008
-5.86719e-06
0.00171178
-5.75667e-06
0.00171338
-5.61673e-06
0.00171486
-5.48072e-06
0.00171626
-5.34248e-06
0.00171751
-5.17201e-06
0.00171867
-5.014e-06
0.0017197
-4.83485e-06
0.00172059
-4.66369e-06
0.00172138
-4.47895e-06
0.00172202
-4.29306e-06
0.00172255
-4.11335e-06
0.00172299
-3.92606e-06
0.00172331
-3.75105e-06
0.00172356
-3.56559e-06
0.00172371
-3.41149e-06
0.00172376
-3.24891e-06
0.00172372
-3.10405e-06
0.0017236
-2.96461e-06
0.00172342
-2.76143e-06
0.00172318
-2.55665e-06
0.0017229
-2.33348e-06
0.00172258
-2.12894e-06
0.00172223
-1.9692e-06
0.00172185
-1.82811e-06
0.00172143
-1.72991e-06
0.00172098
-1.62531e-06
0.00172051
-1.48975e-06
0.00172001
-1.33543e-06
0.00171952
-1.17434e-06
0.00171903
-1.01313e-06
0.00171854
-8.685e-07
0.00171807
-7.23941e-07
0.0017176
-5.8357e-07
0.00171713
-4.74396e-07
0.00171666
-4.00894e-07
0.00171618
-3.35082e-07
0.0017157
-2.67422e-07
0.0017152
-1.86703e-07
0.0017147
-7.99142e-08
0.0017142
3.08873e-08
0.00171371
1.31246e-07
0.00171321
1.31527e-07
0.00171268
-4.29856e-08
0.00171203
-8.9157e-07
0.00171125
-2.40795e-06
-6.4092e-06
0.0017097
0.00139628
-1.05779e-05
0.00140093
-1.71704e-05
0.00140559
-1.72383e-05
0.00141046
-1.78777e-05
0.00141534
-1.80984e-05
0.00142006
-1.75718e-05
0.00142451
-1.66419e-05
0.00142873
-1.5822e-05
0.00143271
-1.50498e-05
0.00143647
-1.42686e-05
0.00144001
-1.35803e-05
0.00144339
-1.29754e-05
0.00144663
-1.24809e-05
0.00144974
-1.20721e-05
0.00145276
-1.17739e-05
0.00145572
-1.15145e-05
0.00145861
-1.12965e-05
0.00146145
-1.11187e-05
0.00146424
-1.09568e-05
0.00146699
-1.07793e-05
0.00146969
-1.06088e-05
0.00147235
-1.04851e-05
0.00147497
-1.03697e-05
0.00147756
-1.02616e-05
0.00148011
-1.01789e-05
0.00148262
-1.00811e-05
0.00148511
-1.00022e-05
0.00148757
-9.95303e-06
0.00148999
-9.87212e-06
0.00149239
-9.79149e-06