/*--------------------------------*- C++ -*----------------------------------*\
| =========                 |                                                 |
| \\      /  F ield         | OpenFOAM: The Open Source CFD Toolbox           |
|  \\    /   O peration     | Version:  v2012                                 |
|   \\  /    A nd           | Website:  www.openfoam.com                      |
|    \\/     M anipulation  |                                                 |
\*---------------------------------------------------------------------------*/
FoamFile
{
    version     2.0;
    format      ascii;
    class       scalarField;
    location    "0.042/lagrangian/kinematicCloud";
    object      age;
}
// * * * * * * * * * * * * * * * * * * * * * * * * * * * * * * * * * * * * * //


45
(
0.0412
0.0402
0.0391
0.038
0.037
0.036
0.035
0.034
0.0329
0.0318
0.031725
0.0307
0.0296
0.0285
0.0274
0.0263
0.0252
0.0241
0.023
0.022925
0.0219
0.0208
0.0197
0.0186
0.018525
0.0175
0.0164
0.016325
0.0153
0.015225
0.0142
0.0131
0.012
0.0109
0.010825
0.0099
0.0089
0.0079
0.0069
0.0059
0.0049
0.0039
0.0029
0.0019
0.0009
)


// ************************************************************************* //
