/*--------------------------------*- C++ -*----------------------------------*\
| =========                 |                                                 |
| \\      /  F ield         | OpenFOAM: The Open Source CFD Toolbox           |
|  \\    /   O peration     | Version:  v2012                                 |
|   \\  /    A nd           | Website:  www.openfoam.com                      |
|    \\/     M anipulation  |                                                 |
\*---------------------------------------------------------------------------*/
FoamFile
{
    version     2.0;
    format      ascii;
    class       Cloud<basicKinematicParcel>;
    location    "0.042/lagrangian/kinematicCloud";
    object      coordinates;
}
// * * * * * * * * * * * * * * * * * * * * * * * * * * * * * * * * * * * * * //

45
(
(0.0376705 0.481165 0.374721 0.106444) 1723 7595 2
(0.0270102 0.405323 0.486495 0.0811723) 1725 3353 2
(0.679161 0.16042 0.00752392 0.152896) 377 840 2
(0.0999562 0.450022 0.347666 0.102355) 1696 3296 2
(0.228804 0.177606 0.207992 0.385598) 771 1428 2
(0.0395563 0.480222 0.023038 0.457184) 471 1030 1
(0.076193 0.306573 0.461903 0.15533) 1542 3007 1
(0.138959 0.349916 0.0806048 0.430521) 865 1615 2
(0.164719 0.41764 0.242551 0.17509) 862 1808 1
(0.911174 0.0381446 0.0444131 0.00626851) 361 811 2
(0.0518225 0.474089 0.285256 0.188833) 360 808 2
(0.119495 0.214166 0.440253 0.226087) 156 359 2
(0.150523 0.424738 0.253918 0.17082) 1021 7649 1
(0.663771 0.168115 0.0403593 0.127755) 1343 2622 1
(0.741363 0.129319 0.0447649 0.0845536) 1035 1953 1
(0.227987 0.386007 0.191652 0.194355) 447 979 2
(0.0951584 0.452421 0.15519 0.29723) 1437 2798 1
(0.383625 0.294209 0.308187 0.0139782) 939 1961 2
(0.665108 0.162735 0.0047104 0.167446) 138 306 1
(0.438129 0.190601 0.280935 0.0903348) 838 1760 2
(0.493256 0.253372 0.128787 0.124585) 736 1557 1
(0.257002 0.275789 0.371499 0.0957094) 1021 2101 1
(0.215096 0.392452 0.264442 0.12801) 831 1743 2
(0.00751376 0.496243 0.315077 0.181166) 127 271 2
(0.713664 0.143168 0.101955 0.0412132) 328 742 2
(0.146931 0.426535 0.234316 0.192219) 825 1733 2
(0.403746 0.0765472 0.298127 0.22158) 123 256 1
(0.236377 0.381812 0.250985 0.130826) 823 1730 1
(0.504065 0.247968 0.0396362 0.208331) 1228 2406 1
(0.775943 0.112029 0.1101 0.0019289) 920 1922 2
(0.631386 0.06657 0.184307 0.117737) 1172 219 1
(0.0349557 0.482522 0.147109 0.335413) 115 232 2
(0.0735451 0.264395 0.198832 0.463227) 1007 2088 1
(0.652922 0.173539 0.0100021 0.163537) 611 1305 2
(0.015412 0.492294 0.160799 0.331495) 311 512 1
(0.317814 0.341093 0.205719 0.135374) 709 1503 1
(0.413291 0.0085157 0.293354 0.284839) 407 899 1
(0.368727 0.315637 0.179382 0.136255) 405 898 1
(0.0703731 0.464813 0.128658 0.336155) 703 1491 1
(0.468114 0.265943 0.00454831 0.261395) 9 19 2
(0.183837 0.240001 0.168081 0.408082) 29 59 1
(0.908558 0.000859683 0.0448614 0.0457211) 67 134 1
(0.624224 0.187888 0.0688475 0.119041) 15 11 1
(0.0206104 0.461617 0.489695 0.0280779) 13 27 2
(0.0457416 0.301105 0.477129 0.176024) 21 43 2
)


// ************************************************************************* //
