/*--------------------------------*- C++ -*----------------------------------*\
| =========                 |                                                 |
| \\      /  F ield         | OpenFOAM: The Open Source CFD Toolbox           |
|  \\    /   O peration     | Version:  v2012                                 |
|   \\  /    A nd           | Website:  www.openfoam.com                      |
|    \\/     M anipulation  |                                                 |
\*---------------------------------------------------------------------------*/
FoamFile
{
    version     2.0;
    format      ascii;
    class       Cloud<basicKinematicParcel>;
    location    "0.044/lagrangian/kinematicCloud";
    object      coordinates;
}
// * * * * * * * * * * * * * * * * * * * * * * * * * * * * * * * * * * * * * //

47
(
(0.076478 0.461761 0.162092 0.299669) 338 674 2
(0.749094 0.0993923 0.125453 0.0260607) 837 1675 2
(0.489391 0.17661 0.0786948 0.255305) 1136 2073 2
(0.148697 0.425652 0.371977 0.0536743) 635 1071 1
(0.0522528 0.473874 0.339162 0.134711) 1434 2669 1
(0.727583 0.136208 0.075032 0.0611763) 1133 2264 2
(0.0428873 0.368411 0.478556 0.110145) 27 52 1
(0.264041 0.367979 0.0706938 0.297286) 1631 3063 1
(0.0759744 0.462013 0.368334 0.0936785) 1530 3061 1
(0.352338 0.323831 0.00718576 0.316645) 729 1456 2
(0.0316692 0.113208 0.370958 0.484165) 828 1656 1
(0.0172338 0.491383 0.400107 0.091276) 528 1054 2
(0.50736 0.24632 0.163922 0.0823984) 1825 3651 1
(0.381985 0.309008 0.141693 0.167315) 124 49 1
(0.0169276 0.491536 0.360422 0.131114) 1823 3646 2
(0.422164 0.174381 0.114537 0.288918) 923 1846 1
(0.276271 0.0657047 0.29616 0.361865) 322 445 2
(0.108622 0.445689 0.0164885 0.429201) 1721 3443 1
(0.40931 0.295345 0.166864 0.128482) 520 1040 2
(0.180496 0.164915 0.244837 0.409752) 1620 3041 2
(0.495993 0.00682593 0.245177 0.252003) 1319 2439 2
(0.623379 0.16276 0.0255501 0.188311) 1718 3436 1
(0.503327 0.149145 0.0991915 0.248336) 1317 2634 1
(0.594638 0.202681 0.0901825 0.112498) 416 832 2
(0.467455 0.217114 0.049159 0.266273) 816 1433 2
(0.631576 0.0313745 0.152838 0.184212) 1315 2431 2
(0.601577 0.176729 0.0224821 0.199211) 314 628 1
(0.368686 0.118831 0.315657 0.196826) 1414 2829 2
(0.603218 0.176954 0.0214373 0.198391) 113 226 1
(0.547267 0.00497 0.221396 0.226366) 1513 2827 2
(0.146253 0.426873 0.167167 0.259707) 10 22230 2
(0.307033 0.346483 0.149098 0.197385) 211 422 2
(0.46127 0.269365 0.243224 0.0261404) 1910 3621 1
(0.0161163 0.39837 0.0935717 0.491942) 1009 2018 1
(0.177157 0.0451078 0.366314 0.411422) 509 1018 1
(0.235675 0.382163 0.250773 0.13139) 1209 2419 1
(0.388544 0.305728 0.153468 0.15226) 708 1217 1
(0.364158 0.156792 0.161129 0.317921) 807 1415 2
(0.073254 0.174947 0.463373 0.288426) 1206 2413 2
(0.259546 0.0924822 0.277745 0.370227) 5 10 1
(0.659689 0.170155 0.15771 0.0124454) 605 1211 1
(0.913287 0.0433567 0.0226274 0.0207294) 1204 2409 1
(0.616639 0.0137806 0.191681 0.1779) 503 1007 2
(0.0174353 0.491282 0.452546 0.0387363) 403 807 1
(0.0448581 0.477571 0.231129 0.246442) 602 1205 1
(0.1458 0.387584 0.4271 0.0395161) 1101 2203 2
(0.444739 0.27763 0.0995629 0.178068) 1500 3000 2
)


// ************************************************************************* //
