/*--------------------------------*- C++ -*----------------------------------*\
| =========                 |                                                 |
| \\      /  F ield         | OpenFOAM: The Open Source CFD Toolbox           |
|  \\    /   O peration     | Version:  v2012                                 |
|   \\  /    A nd           | Website:  www.openfoam.com                      |
|    \\/     M anipulation  |                                                 |
\*---------------------------------------------------------------------------*/
FoamFile
{
    version     2.0;
    format      ascii;
    class       Cloud<basicKinematicParcel>;
    location    "0.044/lagrangian/kinematicCloud";
    object      positions;
}
// * * * * * * * * * * * * * * * * * * * * * * * * * * * * * * * * * * * * * //

47
(
(0.0953365 0.00317836 0.03) 203
(0.0922294 0.00992233 0.03) 402
(0.0889834 0.0154307 0.03) 602
(0.0839917 0.00582036 0.03) 301
(0.0799525 0.0208561 0.03) 801
(0.0761333 0.0174803 0.03) 701
(0.0476177 0.0013102 0.03) 7
(0.0683021 0.0224296 0.03) 900
(0.0641709 0.023487 0.03) 89
(0.0607364 0.00916966 0.03) 39
(0.0597215 0.0084505 0.03) 38
(0.0564576 0.00521889 0.03) 18
(0.00945195 0.0265751 0.03) 91
(0.00854835 5.95162e-05 0.03) 1
(0.0275612 0.0255644 0.03) 94
(0.0429388 0.0123188 0.03) 46
(0.0404967 0.00259839 0.03) 6
(0.03673 0.0243748 0.03) 95
(0.0344855 0.00459451 0.03) 15
(0.0344848 0.0219941 0.03) 85
(0.0314883 0.0195181 0.03) 74
(0.0150944 0.0258417 0.03) 92
(0.0263078 0.0204417 0.03) 73
(0.0235038 0.00348712 0.03) 13
(0.0227975 0.00858678 0.03) 33
(0.0207355 0.020398 0.03) 73
(0.0186681 0.00384883 0.03) 12
(0.0189252 0.0216967 0.03) 82
(0.0120346 0.00114516 0.03) 1
(0.0167502 0.0231343 0.03) 82
(0.00430439 0.0001719 0.03) 0
(0.0121505 0.0020439 0.03) 1
(0.00577363 0.0259314 0.03) 90
(0.00950186 0.014944 0.03) 51
(0.00927257 0.00575721 0.03) 21
(0.00872998 0.0184105 0.03) 61
(0.00695211 0.0101857 0.03) 31
(0.00664201 0.010206 0.03) 30
(0.00513912 0.0186108 0.03) 60
(0.00213719 0.000634367 0.03) 0
(0.00424787 0.0071175 0.03) 20
(0.00291782 0.0174775 0.03) 60
(0.00206397 0.00350035 0.03) 10
(0.00237373 0.00531153 0.03) 10
(0.00173335 0.00794887 0.03) 20
(0.00145696 0.0162144 0.03) 60
(0.000998145 0.0222197 0.03) 80
)


// ************************************************************************* //
