/*--------------------------------*- C++ -*----------------------------------*\
| =========                 |                                                 |
| \\      /  F ield         | OpenFOAM: The Open Source CFD Toolbox           |
|  \\    /   O peration     | Version:  v2012                                 |
|   \\  /    A nd           | Website:  www.openfoam.com                      |
|    \\/     M anipulation  |                                                 |
\*---------------------------------------------------------------------------*/
FoamFile
{
    version     2.0;
    format      ascii;
    class       volScalarField;
    location    "0.161";
    object      omega.air;
}
// * * * * * * * * * * * * * * * * * * * * * * * * * * * * * * * * * * * * * //

dimensions      [0 0 -1 0 0 0 0];


internalField   nonuniform List<scalar> 
5600
(
6586.28
7485.51
7886.81
7965.15
7866.45
7687.36
7481.11
7289.82
7125.66
6987.34
6879.5
6795.55
6737.19
6692.34
6664.8
6641.17
6628.05
6614.07
6605.79
6596.33
6589.22
6583.5
6576.47
6574.77
6568.75
6569.14
6565.18
6565.09
6564.4
6561.46
6564.22
6557.73
6562.68
6554.54
6558.82
6552.84
6552.96
6552.22
6546.75
6551.12
6542.14
6548.01
6540.82
6542.45
6542.56
6535.72
6545.19
6530.75
6545.54
6529.87
6541.84
6533.88
6534.82
6540.12
6528.35
6544.27
6526.61
6543.47
6530.61
6538.72
6537.42
6534.32
6542.29
6534.34
6542.83
6538.94
6540.64
6545.14
6539.31
6549.47
6541.38
6550.75
6546.55
6550.2
6552.88
6550.25
6558.48
6551.6
6563.12
6553.93
6567.01
6557.38
6570.06
6562.24
6572.11
6567.96
6574.03
6572.35
6577.19
6574.17
6579.54
6578.71
6571.22
6600.25
6532.91
6664.08
6422.96
6838.96
6041.58
7426.14
2450.49
2296.69
2571.57
2795.25
2927.98
2998.33
3009.8
2968.71
2968.44
3017.92
3072.66
3119.93
3146.16
3159.52
3154
3141.19
3117.76
3091.42
3061.83
3033.14
3002.52
2974.73
2944.58
2916.69
2889.07
2863.4
2839.74
2817.15
2797.95
2778.35
2762.02
2745.91
2732.08
2718.77
2706.97
2696.43
2685.82
2677.45
2668.49
2661.29
2654.07
2647.72
2642.05
2635.94
2631.48
2625.85
2622.19
2616.68
2614.06
2608.97
2606.14
2602.7
2599.09
2596.91
2592.96
2592.01
2587.97
2587.47
2584.32
2582.93
2581.12
2579.26
2578.18
2576.18
2575.4
2573.84
2572.86
2571.75
2570.55
2570.14
2568.67
2568.47
2567.39
2567
2566.26
2565.83
2565.53
2564.72
2565.05
2563.9
2564.36
2563.32
2563.74
2563.15
2563.42
2563.67
2563.49
2564.94
2563.58
2567.14
2562.58
2571.12
2557.6
2581.36
2540.95
2611.18
2487.98
2703.76
2302.44
3029.01
2358.53
1859.97
1592.05
1428.01
1345.73
1274.41
1279.36
1309.79
1351.14
1413.45
1481.08
1551.18
1609.39
1665.72
1703.22
1734.79
1748.17
1752.75
1744.54
1725.69
1703.44
1675.72
1654.39
1634.43
1619.58
1605.76
1593.31
1581.52
1571.47
1560.76
1551.28
1540.75
1531.52
1521.49
1512.83
1504.35
1496.05
1489.04
1481.35
1475.69
1468.68
1463.8
1457.88
1452.9
1448.52
1442.95
1440.53
1434.2
1433.24
1427.13
1425.8
1421.72
1418.83
1417.34
1412.52
1413.24
1407.77
1408.67
1404.54
1403.84
1402.05
1399.52
1399.43
1396.41
1396.24
1394.3
1392.88
1392.57
1390.01
1390.69
1388.01
1388.49
1386.71
1386.15
1385.73
1384.18
1384.7
1382.6
1383.65
1381.3
1382.48
1380.28
1381.28
1379.71
1380.09
1380.05
1379.11
1381.04
1378.44
1382.93
1376.75
1387.58
1370.18
1399.4
1352.8
1425.16
1316.5
1472.3
1251.79
1537.81
2345.16
1822.39
1493.18
1267.75
1110.99
992.89
906.439
847.6
801.653
778.123
758.664
770.605
790.193
825.312
859.779
903.011
941.145
977.841
1013.04
1036.92
1064.7
1075.68
1094.73
1098.58
1106.95
1107.19
1102.16
1099.52
1084.59
1080.52
1066.59
1061.52
1053.63
1047.75
1043.06
1036.63
1032.95
1027.68
1023.31
1019.63
1014.6
1011.14
1005.5
1001.77
996.77
992.002
988.991
983.013
981.566
975.654
974.024
969.744
966.802
965.057
960.307
960.538
955.11
955.222
951.09
949.701
947.738
944.64
944.121
940.823
939.966
937.917
935.779
935.391
932.265
932.566
929.633
929.437
927.638
926.328
925.967
923.664
924.176
921.55
922.324
919.693
920.527
918.104
918.699
916.975
916.802
916.558
915.215
916.623
914.238
917.382
912.765
920.477
908.163
927.754
899.197
938.29
889.519
943.648
890.79
923.978
2341.97
1815.98
1479.8
1247.95
1079.67
952.655
853.061
774.807
710.385
659.216
615.756
582.201
555.96
536.185
523.917
513.77
515.661
518.351
535.511
545.266
572.767
587.864
619.331
640.7
666.053
696.11
707.268
741.616
739.425
768.471
763.826
780.488
781.4
784.004
791.174
782.233
791.321
778.482
782.355
774.671
770.097
769.599
760.997
764.121
755.715
756.919
752.675
749.381
749.368
743.718
744.494
740.183
738.849
737.233
733.55
733.766
728.575
728.58
724.53
722.753
721.008
717.497
716.856
713.559
712.107
710.366
707.603
707.388
703.999
703.958
701.099
700.177
698.693
696.621
696.39
693.615
693.866
690.984
691.283
688.535
688.809
686.365
686.371
684.567
683.973
683.159
682.055
681.933
680.95
681.394
679.688
682.777
676.903
686.264
673.537
688.468
674.741
682.821
684.72
668.966
2341.13
1814.12
1476.77
1243.87
1074.2
945.286
844.394
763.041
696.737
640.799
594.521
553.533
520.372
488.886
465.459
440.224
424.638
404.674
395.892
381.23
376.83
370.054
365.669
373.264
366.988
389.643
381.803
415.829
410.623
445.765
450.997
473.702
497.315
499.653
537.809
526.85
564.641
555.414
576.66
581.403
580.039
599.563
582.435
608.454
588.172
607.896
596.385
600.625
603.772
592.093
603.953
588.892
597.182
589.416
588.618
588.912
583.299
585.953
581.47
581.221
580.512
577.337
577.89
575.296
574.099
573.835
570.913
571.814
568.782
569.046
566.959
565.574
564.99
562.355
562.64
559.724
559.912
557.104
557.173
554.527
554.461
552.262
551.819
550.164
549.427
547.99
547.616
545.728
546.432
544.437
544.799
545.142
542.376
547.102
540.824
546.89
543.821
541.96
549.049
538.982
2340.87
1813.42
1475.78
1242.55
1072.7
943.31
842.319
760.288
693.939
637.038
590.663
548.474
514.758
481.911
456.601
430.458
410.4
390.207
372.51
358.786
340.866
334.184
314.94
314.266
295.999
297.239
284.884
282.5
281.719
270.753
285.954
266.674
293.746
274.221
305.773
293.305
319.506
323.413
331.906
360.448
345.145
394.715
368.194
415.276
396.792
429.608
429.253
434.578
461.717
434.813
474.885
453.03
476.485
466.966
468.709
476.893
468.616
481.022
474.579
479.49
479.999
477.169
480.754
476.698
478.032
476.94
474.658
475.363
472.226
472.277
471.267
469.283
470.48
467.173
468.533
465.851
466.363
464.247
464.626
462.712
462.732
461.532
460.928
460.122
459.628
458.052
458.856
455.677
457.881
454.659
455.609
455.555
452.858
456.98
451.758
455.857
454.693
452.474
456.762
453.08
2340.76
1813.11
1475.36
1242
1072.1
942.577
841.566
759.372
693.015
635.955
589.482
547.286
513.12
480.754
454.167
429.433
406.842
389.071
367.837
356.393
335.827
328.245
310.841
301.894
292.838
276.332
279.946
253.365
267.908
237.103
252.367
230.388
232.977
230.5
214.607
231.509
202.672
229.313
201.035
223.303
210.935
216.673
226.867
214.548
244.546
220.328
258.84
235.421
274.182
256.464
285.792
285.831
294.584
311.984
304.667
334.347
323.067
341.407
345.827
349.961
363.325
359.022
369.832
370.085
374.937
381.247
379.673
385.643
383.449
386.653
389.251
387.996
393.341
389.623
393.197
391.102
392.594
391.509
392.685
391.812
392.045
391.847
391.207
390.939
390.633
388.721
390.51
385.654
389.13
384.427
385.317
384.996
381.197
385.515
379.803
383.05
382.465
380.014
383.274
380.544
2340.71
1812.95
1475.14
1241.77
1071.78
942.293
841.154
759.082
692.484
635.696
588.789
547.1
512.225
480.652
453.091
429.298
405.779
388.546
367.238
354.885
336.215
325.282
312.235
297.803
294.036
272.747
278.455
252.743
261.282
240.512
240.278
235.378
217.587
232.385
198.961
224.698
190.701
207.403
195.212
181.229
207.604
154.278
214.821
141.373
205.952
148.634
180.878
172.804
147.157
199.435
131.053
199.279
136.282
188.826
167.115
176.099
191.399
172.871
203.067
184.292
207.107
205.053
212.285
224.466
222.528
240.142
237.009
252.176
252.531
261.425
269.028
271.269
282.671
281.638
291.725
290.313
299.838
297.986
306.099
306.576
309.787
313.597
312.973
317.615
316.813
318.086
321.601
316.925
323.301
318.029
320.919
320.312
317.294
321.994
316.005
319.913
318.355
317.39
318.965
317.087
2340.69
1812.89
1475.03
1241.68
1071.6
942.213
840.904
759.041
692.143
635.711
588.361
547.141
511.78
480.596
452.808
428.914
405.916
387.598
367.925
353.435
337.096
324.027
312.253
298.031
291.875
275.495
273.725
257.443
255.636
244.391
237.002
234.983
219.488
226.135
206.06
214.563
198.928
198.702
197.692
180.314
198.278
165.309
193.728
160.111
180.041
164.642
160.004
173.244
140.782
176.73
134.033
166.782
139.667
150.455
149.321
135.672
152.004
133.653
144.515
138.283
136.047
141.981
135.254
142.419
138.143
140.106
141.471
142.257
146.245
148.369
147.901
154.008
151.774
158.026
162.405
162.311
172.863
169.609
180.004
178.512
185.985
188.095
191.733
196.648
198.794
203.581
206.51
210.191
214.166
216.471
220.854
222.643
225.519
227.443
229.466
230.19
232.073
232.507
232.93
234.018
2340.69
1812.9
1475.03
1241.71
1071.59
942.27
840.864
759.131
692.067
635.831
588.267
547.252
511.735
480.599
452.937
428.676
406.332
387.073
368.554
352.866
337.493
324.041
311.688
299.322
289.888
278.082
270.889
260.087
253.717
245.043
237.939
232.284
223.73
220.827
211.604
209.677
201.944
198.308
194.493
187.186
188.044
177.697
181.006
170.842
172.862
166.109
164.574
162.294
157.357
158.667
151.575
155.212
146.88
151.783
144.142
147.714
144.158
142.769
146.572
138.857
148.42
139.672
147.716
145.18
146.491
152.78
148.202
158.865
154.48
162.778
165.153
167.308
176.103
174.707
184.492
184.353
192.15
194.954
199.882
206.125
207.494
216.007
215.526
223.496
224.277
228.566
233.427
233.103
240.425
239.035
244.326
245.398
245.992
250.674
247.545
252.457
250.814
251.79
253.833
251.46
2340.71
1813
1475.15
1241.86
1071.74
942.462
841.034
759.356
692.245
636.082
588.462
547.51
511.976
480.826
453.268
428.831
406.781
387.166
369.063
353.031
337.866
324.539
311.665
300.376
289.393
279.594
270.303
261.478
253.847
245.538
239.524
231.585
226.755
219.684
215.016
209.839
204.182
201.658
194.776
194.382
187.663
187.286
183.424
180.387
181.753
174.912
181.354
172.933
181.198
175.64
181.47
182.493
183.793
191.44
190.254
201.091
200.877
211.53
214.463
223.156
229.74
235.435
246.241
247.926
262.003
262.079
274.415
277.638
284.153
292.161
293.574
303.894
303.317
312.203
313.157
317.454
322.248
321.507
328.444
325.966
331.192
330.54
331.661
334.539
331.809
336.095
333.616
334.977
335.447
333.447
335.781
332.569
334.349
333.095
332.11
333.568
331.308
333.299
332.036
332.806
2340.76
1813.17
1475.39
1242.15
1072.07
942.821
841.416
759.774
692.678
636.555
588.948
548.035
512.53
481.4
453.916
429.454
407.553
387.86
369.985
353.869
338.949
325.667
312.914
302.011
290.885
282.005
272.279
264.938
256.839
250.336
244.518
238.272
235.046
229.229
228.07
223.983
223.524
223.111
222.614
226.63
226.726
233.697
236.453
244.162
251.013
258.352
268.538
276.039
287.451
295.619
307.133
315.098
326.511
333.209
344.324
350.104
359.236
365.706
371.115
378.926
380.858
388.329
389.582
393.662
396.83
396.779
401.483
399.789
403.587
403.076
404.071
405.746
404.148
406.996
404.592
406.474
405.354
404.782
405.505
402.936
404.5
401.763
402.38
401.309
399.761
400.484
397.897
398.424
396.786
395.963
395.877
394.068
394.839
393.451
393.622
393.613
393.047
393.889
393.402
394.402
2340.87
1813.49
1475.85
1242.71
1072.73
943.558
842.249
760.682
693.692
637.656
590.181
549.373
514.048
483.067
455.856
431.619
410.152
390.818
373.683
358.121
344.407
331.961
321.121
311.754
303.582
297.312
291.664
288.814
285.811
287.007
288.018
293.309
298.476
307.183
316.588
327.629
340.447
352.672
367.174
379.826
394.252
406.577
419.577
430.984
441.677
451.774
459.347
467.932
472.501
478.902
481.828
485.449
488.36
489.531
492.846
492.298
494.998
494.24
495.067
495.125
493.767
494.517
492.068
492.211
490.492
489.01
488.75
486.338
486.649
484.597
484.171
483.267
481.729
481.755
479.671
479.691
478.08
477.257
476.628
474.993
475.021
473.273
473.147
471.924
471.08
470.428
468.976
468.572
467.176
466.667
465.934
465.292
465.245
464.722
464.873
464.738
464.864
465.042
465.282
465.849
2341.15
1814.19
1476.91
1243.99
1074.37
945.465
844.556
763.345
696.861
641.373
594.587
554.623
520.501
490.96
465.766
443.823
425.837
410.6
398.987
389.504
383.895
379.87
381.175
385.114
393.75
404.367
419.085
435.096
453.41
472.643
491.432
511.912
528.73
547.472
561.098
575.539
585.717
594.892
602.222
607.212
612.59
615.301
618.787
619.949
621.226
621.295
620.421
619.723
617.212
615.933
612.999
611.121
609.096
607.054
605.839
603.524
602.513
600.488
599.003
597.628
595.629
594.741
592.686
591.782
590.225
588.833
587.729
585.821
584.84
582.736
581.558
579.762
578.145
576.772
574.84
573.666
571.756
570.533
568.992
567.575
566.423
564.894
563.949
562.442
561.524
560.276
559.293
558.422
557.515
557.027
556.398
556.227
555.919
555.941
555.881
555.945
556.126
556.168
556.653
556.966
2342.03
1815.98
1480.11
1247.96
1080.28
952.708
854.158
775.207
712.344
660.62
619.071
586.937
562.592
545.514
534.577
530.083
534.449
545.055
561.055
581.022
604.662
630.467
657.878
684.504
711.392
734.354
755.319
771.04
784.383
794.083
801.791
807.481
810.477
812.585
811.483
810.257
806.403
802.754
798.223
794.075
790.744
787.349
784.538
781.422
778.537
775.69
772.887
770.259
767.655
765.302
762.898
760.481
757.994
755.198
752.672
749.804
747.341
744.612
742.084
739.735
737.11
735.072
732.558
730.702
728.438
726.567
724.71
722.733
721.196
719.193
717.762
715.869
714.353
712.718
711.089
709.702
708.072
706.894
705.362
704.269
702.934
701.812
700.711
699.515
698.75
697.644
697.128
696.316
695.974
695.574
695.322
695.369
695.1
695.41
695.21
695.481
695.537
695.648
696.152
696.443
2345.25
1822.39
1493.86
1268.16
1113.23
994.179
912.591
852.017
814.51
787.871
783.656
800.122
829.076
866.048
907.624
950.242
990.275
1026.99
1058.27
1083.6
1103.47
1118.4
1129.17
1135.62
1137.61
1134.57
1128.17
1118.52
1108.78
1099.37
1091.85
1085.08
1079.08
1073.24
1067.83
1062.62
1057.76
1052.99
1048.37
1043.56
1038.42
1033.39
1028.17
1023.3
1018.39
1013.94
1009.55
1005.43
1001.62
997.93
994.582
991.263
988.357
985.258
982.62
979.78
977.271
974.7
972.29
970.058
967.645
965.728
963.456
961.696
959.646
957.957
956.228
954.544
953.138
951.484
950.233
948.653
947.476
946.085
944.919
943.793
942.624
941.739
940.525
939.813
938.68
937.983
937.069
936.345
935.85
935.173
935.066
934.572
934.711
934.483
934.602
934.753
934.634
935.06
934.805
935.223
935.139
935.402
935.871
936.349
2358.73
1860.91
1594.77
1434.01
1353.99
1288.99
1305.25
1337.29
1392.12
1465.15
1539.73
1610.28
1672.38
1723.07
1760.08
1783.38
1792.54
1788.86
1773.31
1750.19
1724.15
1700.72
1682.16
1666.54
1652.48
1639.52
1627.34
1616
1604.87
1593.88
1582.71
1571.89
1561.65
1551.61
1542.59
1533.59
1525.66
1517.84
1510.85
1504.18
1497.87
1492.13
1486.38
1481.38
1476.34
1471.93
1467.49
1463.52
1459.75
1456.11
1452.93
1449.66
1446.94
1444.01
1441.69
1439.1
1436.94
1434.77
1432.7
1430.87
1428.84
1427.35
1425.42
1424.07
1422.43
1421.06
1419.72
1418.4
1417.34
1416.05
1415.15
1413.97
1413.17
1412.14
1411.4
1410.56
1409.82
1409.17
1408.34
1407.86
1407.04
1406.66
1406.01
1405.72
1405.47
1405.26
1405.42
1405.32
1405.74
1405.75
1406.13
1406.33
1406.41
1406.83
1406.62
1407.12
1406.96
1407.43
1407.91
1408.9
2454.74
2305.68
2580.44
2808.67
2934.23
3010.01
2994.58
2967.45
3014.83
3085.64
3150.03
3196.61
3222.41
3229.88
3222.23
3203.95
3178.36
3148.8
3117.79
3086.35
3054.8
3023.08
2991.93
2961.74
2933.52
2907.31
2882.77
2860.65
2839.7
2821.18
2803.52
2787.9
2773.41
2760.13
2748.36
2737.03
2727.31
2717.82
2709.57
2701.73
2694.57
2688.18
2681.86
2676.39
2670.86
2665.86
2660.96
2656.46
2652.23
2648.07
2644.53
2640.81
2637.67
2634.54
2631.78
2629.1
2626.58
2624.4
2622.05
2620.16
2618.11
2616.45
2614.6
2613.13
2611.66
2610.17
2608.99
2607.79
2606.7
2605.68
2604.73
2603.9
2603.1
2602.35
2601.8
2601.18
2600.76
2600.2
2599.8
2599.34
2598.97
2598.66
2598.41
2598.37
2598.36
2598.58
2598.78
2599.17
2599.55
2599.97
2600.38
2600.64
2600.92
2601.15
2601.21
2601.55
2601.48
2602.06
2602.54
2604.16
6588.08
7481.92
7876.77
7936
7826.38
7629.93
7415.08
7222.09
7053.55
6914.35
6805.38
6723.41
6664.03
6621.62
6591.85
6570.23
6554.29
6541.57
6531.22
6522.46
6514.94
6508.9
6503.99
6500.38
6497.32
6495.25
6493.1
6492.08
6490.22
6489.26
6487.14
6485.63
6483.35
6481.2
6479.09
6476.36
6474.58
6471.58
6470
6467.23
6465.62
6463.47
6461.65
6460.36
6458.3
6457.7
6455.66
6455.33
6453.64
6453.09
6452.19
6451.04
6451.23
6449.46
6450.52
6448.63
6449.85
6448.76
6449.19
6449.61
6448.94
6450.68
6449.47
6451.69
6450.83
6452.61
6452.91
6453.73
6455.26
6455.37
6457.67
6457.71
6460.16
6460.7
6462.76
6464.12
6465.53
6467.76
6468.55
6471.36
6472.02
6474.87
6476.07
6478.28
6480.43
6481.58
6484.47
6484.74
6487.47
6487.59
6489.13
6489.85
6489.77
6491.18
6489.93
6491.27
6489.94
6489.83
6488.61
6485.16
5446.24
3361.58
2411.74
1944.45
1662.74
1478.52
1346.69
1246.35
1165.53
1098.18
1040.75
989.475
943.546
900.267
860.012
820.815
783.629
748.716
716.885
685.298
663.311
638.869
614.415
595.008
561.3
538.998
525.989
483.806
445.142
418.851
392.137
384.912
405.478
425.64
431.99
426.705
414.149
395.609
375.27
357.978
344.863
335.444
328.261
320.502
311.842
302.938
292.644
279.123
261.45
240.39
217.864
195.798
175.217
156.617
140.175
125.861
113.572
103.288
95.0095
88.6491
83.9312
80.5542
78.2362
76.74
75.8636
75.4346
75.2808
75.2382
75.169
75.0056
74.7432
74.4252
74.1032
73.828
73.6206
73.4835
73.3973
73.3485
73.3197
73.3055
73.2963
73.2929
73.2895
73.2893
73.2875
73.2883
73.2869
73.2879
73.2866
73.2878
73.2865
73.2877
73.2863
73.2874
73.2859
73.2867
73.2848
73.2853
73.2837
73.2875
1618.57
2573.78
2358.8
1984.4
1701.3
1501.34
1356.49
1246.15
1158
1085.95
1025.92
972.987
926.439
882.728
842.501
802.714
765.218
729.661
698.797
666.17
644.687
620.825
594.146
577.322
545.292
518.843
503.475
450.841
397.882
370.915
362.338
359.576
375.383
404.318
419.068
418.991
409.004
391.7
371.867
354.609
341.306
331.282
322.823
313.712
304.393
295.385
285.186
271.686
254.069
233.22
210.914
188.857
168.202
149.559
133.13
119.049
107.391
98.1129
91.0547
85.856
82.0873
79.4025
77.5355
76.3041
75.5614
75.1877
75.0491
75.0175
74.9679
74.8361
74.6078
74.3284
74.0379
73.7832
73.5815
73.4474
73.3596
73.3119
73.2806
73.2674
73.2556
73.2539
73.248
73.2499
73.2457
73.2488
73.2449
73.2485
73.2445
73.2485
73.2443
73.2486
73.2441
73.2486
73.2438
73.2486
73.2436
73.2489
73.2449
73.2556
1168.84
1408.27
1791.86
1796.52
1642.63
1476.71
1340.44
1230
1140.16
1066.06
1004.82
950.864
904.255
860.504
820.81
780.614
743.314
707.098
677.47
644.005
621.208
596.791
565.144
549.447
520.634
484.603
449.858
379.106
340.536
340.291
358.786
375.848
366.913
381.529
401.78
408.155
402.018
386.705
367.651
350.474
336.982
326.291
316.431
306.11
296.276
287.217
277.066
263.558
245.939
225.135
202.823
180.699
159.973
141.255
125.006
111.597
101.083
93.2472
87.6072
83.5801
80.6773
78.5727
77.0561
76.014
75.3539
75.0025
74.8568
74.8191
74.7783
74.6761
74.4852
74.2467
73.9901
73.7598
73.5664
73.4352
73.3445
73.296
73.2608
73.2474
73.2325
73.2317
73.2233
73.2269
73.2203
73.2255
73.2192
73.2253
73.2187
73.2254
73.2184
73.2256
73.2182
73.226
73.2182
73.2267
73.2188
73.2288
73.2227
73.2405
914.064
854.445
1020.01
1241.01
1338.71
1314.96
1243.85
1163.03
1089.03
1023.63
968.066
917.62
873.41
831.362
793.1
752.635
715.807
678.485
648.597
613.279
583.319
553.123
511.69
491.59
462.567
405.09
321.618
283.762
326.728
378.172
394.779
415.011
404.981
378.365
384.568
394.064
392.418
380.019
362.209
345.276
331.622
320.197
309.04
297.763
287.534
278.449
268.325
254.762
236.985
215.961
193.453
171.162
150.269
131.709
116.237
104.183
95.3642
89.1942
84.9206
81.9067
79.6956
78.028
76.7602
75.8405
75.2208
74.8654
74.6961
74.6408
74.6011
74.5265
74.3761
74.179
73.9527
73.7469
73.5674
73.4435
73.3514
73.3017
73.2617
73.2473
73.2286
73.2282
73.217
73.2219
73.2129
73.2201
73.2114
73.2198
73.2107
73.22
73.2103
73.2204
73.2101
73.2211
73.2103
73.2226
73.212
73.2267
73.2187
73.2436
689.141
667.723
672.668
735.591
837.739
923.531
964.137
964.464
945.297
916.331
884.751
851.061
816.384
781.793
747.255
707.004
670.38
631.983
594.038
551.553
495.325
438.222
386.58
318.184
270.186
247.161
271.117
318.65
376.189
429.653
439.971
447.761
451.077
409.084
379.947
379.733
380.046
370.948
354.997
338.615
324.861
312.645
300.364
288.491
278.27
269.486
259.705
246.222
228.064
206.37
183.224
160.482
139.617
121.899
108.026
97.9393
90.9846
86.3014
83.1029
80.8253
79.0944
77.722
76.6158
75.7661
75.1551
74.7756
74.5693
74.4857
74.4377
74.3827
74.2689
74.1127
73.9191
73.7424
73.5827
73.4707
73.3797
73.3291
73.2845
73.2681
73.2455
73.2446
73.2307
73.2364
73.2252
73.2339
73.2231
73.2333
73.2222
73.2336
73.2217
73.2341
73.2215
73.2351
73.222
73.2373
73.2245
73.2433
73.2338
73.2653
543.924
544.123
537.269
539.877
550.713
575.937
605.453
632.728
657.122
678
688.311
694.278
683.845
671.268
644.892
607.518
567.939
533.541
444.199
351.074
260.892
216.696
187.508
199.51
250.025
290.829
340.186
384.652
429.402
472.481
480.863
477.275
483.029
454.667
399.889
374.073
367.468
359.427
345.428
329.939
316.165
303.177
290.263
278.767
269.801
262.566
254.332
241.699
223.118
199.95
175.102
151.349
130.717
114.345
102.331
94.0179
88.436
84.705
82.1388
80.2795
78.8234
77.6242
76.611
75.793
75.1676
74.7476
74.4907
74.3651
74.2938
74.2428
74.156
74.0416
73.8896
73.749
73.6127
73.5142
73.4265
73.3763
73.3282
73.3101
73.284
73.2824
73.266
73.272
73.259
73.2686
73.2563
73.2678
73.2552
73.268
73.2546
73.2686
73.2544
73.2699
73.2551
73.2726
73.2583
73.2799
73.2695
73.3055
451.897
454.714
451.951
449.003
442.512
437.51
432.986
428.306
426.003
431.846
435.017
446.316
449.83
447.151
426.719
393.887
347.817
266.294
165.242
154.879
201.055
243.538
288.608
334.526
351.672
361.084
394.102
438.208
478.932
512.149
518.533
508.543
508.751
494.015
440.094
388.738
363.17
348.813
334.163
319.156
305.371
292.224
280.704
272.603
268.046
265.239
260.784
250.505
231.915
206.344
178.057
151.559
129.649
113.119
101.416
93.454
88.1214
84.5438
82.0764
80.2952
78.9072
77.7618
76.7749
75.95
75.2848
74.8038
74.4773
74.2899
74.1754
74.1103
74.0379
73.9617
73.8533
73.75
73.6373
73.5538
73.4722
73.4258
73.3773
73.36
73.3319
73.3309
73.3124
73.3194
73.3045
73.3155
73.3014
73.3145
73.3
73.3146
73.2994
73.3153
73.2992
73.3166
73.3
73.3196
73.3036
73.3275
73.316
73.355
380.612
383.762
383.885
382.155
376.031
368.085
358.814
345.891
334.678
322.7
311.232
294.932
290.289
260.187
240.618
223.029
176.316
188.599
254.917
303.965
328.041
346.025
362.47
374.71
382.779
401.223
444.043
493.56
530.733
552.35
554.245
541.041
534.374
526.746
485.528
425.501
379.315
349.833
328.462
311.546
297.812
287.294
282.287
282.838
286.418
289.468
288.468
279.649
260.27
231.448
198.411
167.15
141.244
121.562
107.441
97.6881
91.0827
86.6341
83.5818
81.4177
79.7815
78.4753
77.3678
76.4342
75.653
75.054
74.6113
74.3267
74.138
74.0346
73.9525
73.8968
73.817
73.7473
73.6565
73.5948
73.5232
73.4898
73.4436
73.4344
73.4045
73.4096
73.3872
73.3999
73.3798
73.3967
73.3766
73.3961
73.375
73.3966
73.3741
73.3977
73.3737
73.3995
73.3744
73.4032
73.3786
73.4126
73.3936
73.4436
317.706
318.135
317.892
316.215
309.616
302.588
292.288
279.162
268.833
256.098
242.914
238.056
223.931
222.107
227.096
235.823
269.876
311.525
340.442
359.519
377.526
394.408
407.377
417.077
431.566
463.282
512.985
559.75
584.237
588.674
582.249
568.03
557.954
554.501
529.204
474.851
418.982
375.105
344.161
324.065
312.889
309.964
314.962
323.383
330.511
333.24
329.349
316.689
293.685
261.734
225.707
191.366
162.325
139.531
122.3
109.659
100.592
94.1771
89.5778
86.195
83.5645
81.4482
79.6686
78.1969
76.9647
76.0037
75.2605
74.7591
74.4033
74.2043
74.0557
73.9904
73.9074
73.8732
73.7993
73.782
73.7221
73.7275
73.6801
73.7022
73.6598
73.6926
73.6501
73.6902
73.6448
73.6909
73.6412
73.6929
73.6383
73.6956
73.6358
73.6991
73.634
73.7042
73.6345
73.7132
73.6423
73.7335
73.6735
73.7908
233.183
233.722
233.464
231.93
230.069
226.396
224.083
221.802
223.069
225.265
231.95
242.742
255.908
276.014
301.291
329.031
359.345
386.456
407.493
424.899
440.187
451.364
459.448
472.364
501.067
546.725
595.953
625.051
622.74
606.82
592.324
579.999
572.812
574.275
566.29
527.727
474.706
426.176
391.3
372.913
367.623
370.61
376.526
380.497
380.794
376.422
365.627
346.976
320.308
287.46
252.057
218.229
188.929
165.512
147.483
133.683
123.005
114.699
108.02
102.478
97.5405
93.0878
88.9918
85.4809
82.4912
80.1663
78.3319
77.094
76.1707
75.6611
75.2554
75.1322
74.9762
75.041
74.9803
75.1193
75.0663
75.2215
75.1378
75.2934
75.1739
75.3347
75.185
75.3583
75.1828
75.3749
75.174
75.3895
75.1632
75.4039
75.1523
75.4211
75.1431
75.4454
75.1434
75.4881
75.1737
75.5805
75.3034
75.8114
255.216
253.844
255.915
259.011
261.625
270.311
277.429
289.376
303.074
315.436
331.468
345.679
360.435
378.638
395.515
413.975
433.994
451.653
468.696
485.882
499.902
509.881
523.088
550.533
593.697
640.754
668.475
658.976
625.942
595.694
578.002
570.404
570.939
580.499
588.5
572.009
532.433
490.713
461.498
446.683
439.913
436.689
432.309
425.56
416.864
404.889
387.677
364.825
337.471
307.487
276.536
246.552
219.568
197.433
180.341
167.561
157.512
149.422
142.357
136.131
129.875
123.561
116.665
109.87
103.157
97.5471
92.6958
89.3215
86.5838
85.1213
83.8683
83.6856
83.3604
83.9345
83.978
84.7894
84.7622
85.5339
85.276
85.9804
85.514
86.2129
85.5924
86.3354
85.5929
86.4164
85.5545
86.4873
85.5033
86.5544
85.4554
86.6281
85.4214
86.7287
85.4331
86.9118
85.5772
87.3207
86.1523
88.328
334.076
334.121
337.113
339.406
345.533
352.466
360.841
371.377
380.758
391.154
401.54
411.814
423.823
437.213
452.473
470.651
490.37
512.451
536.653
556.993
571.246
585.918
612.103
651.954
693.089
714.291
695.954
645.778
595.778
564.987
552.33
551.373
558.464
573.435
591.076
593.633
572.646
545.581
523.704
505.562
489.585
474.082
458.626
444.071
429.685
412.939
392.753
370.116
346.276
321.759
296.624
272.044
249.623
230.796
215.349
203.332
193.536
185.714
178.954
173.644
168.736
164.466
159.378
154.176
147.923
142.308
136.522
132.452
128.618
126.899
125.278
125.8
125.906
127.762
128.356
130.384
130.563
132.301
131.849
133.362
132.403
133.89
132.574
134.165
132.567
134.35
132.468
134.52
132.335
134.686
132.218
134.852
132.151
135.062
132.205
135.454
132.559
136.392
133.857
138.751
394.919
396.068
398.164
401.376
407.003
413.582
422.305
431.814
441.755
452.51
462.876
474.412
486.884
502.066
520.69
541.801
567.977
599.691
628.699
648.542
665.523
689.715
723.779
756.748
767.815
737.69
671.979
605.201
561.45
541.052
535.297
538.087
547.066
562.206
580.733
591.731
586.002
568.841
545.836
520.492
497.73
478.045
460.898
445.53
429.405
410.648
390.28
370.046
350.355
330.616
310.754
291.935
275.31
261.485
249.695
239.568
230.388
222.703
216.296
211.807
208.679
207.306
206.456
206.269
205.584
205.215
204.356
204.207
203.807
204.457
204.972
206.657
207.933
210.031
211.177
212.918
213.437
214.693
214.601
215.584
215.063
216.009
215.183
216.24
215.148
216.413
215.032
216.591
214.873
216.801
214.697
217.053
214.546
217.394
214.514
217.966
214.85
219.194
216.313
222.179
466.456
467.769
469.605
473.353
478.941
486.214
495.73
505.995
517.45
529.218
541.505
555.293
570.369
590.442
613.782
641.673
679.517
718.476
746.03
765.238
787.1
813.672
834.698
831.703
786.632
707.02
627.547
572.356
543.786
533.427
531.994
535.225
542.389
553.754
567.777
578.334
577.77
563.059
538.723
513.228
492.779
477.51
465.196
452.485
435.941
415.741
394.992
375.605
357.516
340.336
324.601
311.266
300.622
292.163
285.151
279.264
274.114
269.627
265.574
262.418
260.559
260.551
262.176
264.915
268.064
271.19
274
276.389
278.432
280.203
281.926
283.581
285.209
286.571
287.755
288.613
289.304
289.733
290.045
290.246
290.329
290.476
290.391
290.606
290.35
290.721
290.258
290.861
290.12
291.065
289.924
291.368
289.689
291.832
289.509
292.577
289.686
293.986
291.059
297.202
557.875
559.207
561.46
565.985
572.682
582.037
593.929
607.378
622.339
637.778
654.031
671.563
691.518
717.176
746.067
783.972
831.032
866.818
887.681
905.358
923.077
929.194
907.33
846.232
755.852
665.622
599.579
562.981
548.516
545.531
545.933
547.192
549.872
554.786
561.789
567.354
565.046
551.012
530.477
512.289
500.832
494.865
490.076
480.556
463.187
441.03
418.816
398.589
380.385
364.659
352.493
344.302
339.398
336.458
334.702
333.644
333.135
333.059
333.507
334.458
335.877
337.555
339.538
341.775
344.3
346.738
349.064
350.962
352.726
354.194
355.843
357.359
358.972
360.22
361.395
362.18
362.885
363.266
363.605
363.766
363.885
363.987
363.948
364.111
363.908
364.227
363.812
364.379
363.662
364.609
363.442
364.972
363.159
365.545
362.91
366.524
363.029
368.376
364.606
372.469
697.714
699.284
702.397
708.32
717.488
730.53
746.934
765.742
786.088
806.584
826.978
848.412
872.111
901.039
935.17
979.297
1022.72
1043.08
1052.82
1058.64
1047.39
1005.52
929.411
829.722
729.562
651.262
604.623
585.395
582.51
584.761
585.417
583.254
579.727
576.509
574.954
573.388
567.467
555.879
544.756
540.525
543.414
550.285
553.987
546.338
526.533
501.474
476.87
454.904
436.117
422.027
413.85
411.149
412.18
415.047
418.776
422.714
426.736
430.7
434.687
438.555
442.279
445.678
448.748
451.385
453.602
455.36
456.791
457.99
459.182
460.462
461.949
463.463
464.891
466.086
467.054
467.796
468.322
468.698
468.91
469.09
469.127
469.251
469.174
469.339
469.146
469.428
469.071
469.554
468.945
469.76
468.746
470.13
468.457
470.807
468.124
472.124
468.06
474.779
469.731
480.361
938.129
940.309
944.811
953.276
966.842
985.891
1009.28
1035.13
1061.28
1085.23
1106.63
1127.53
1148.17
1175.16
1208.76
1243.75
1266.18
1262.44
1249.82
1219.89
1156.93
1065.08
955.016
843.893
751.453
690.48
662.035
657.603
664.425
670.865
671.226
665.119
654.549
642.178
630.887
621.103
612.216
607.659
613.783
631.733
655.589
679.533
691.41
682.114
657.098
627.863
600.388
576.594
557.72
546.585
543.935
547.981
555.733
564.891
574.143
582.686
590.312
596.939
602.684
607.509
611.471
614.549
616.89
618.604
619.894
620.908
621.803
622.696
623.698
624.889
626.168
627.472
628.6
629.59
630.324
630.934
631.316
631.619
631.76
631.889
631.911
631.984
631.948
632.034
631.941
632.087
631.902
632.171
631.825
632.327
631.694
632.673