/*--------------------------------*- C++ -*----------------------------------*\
| =========                 |                                                 |
| \\      /  F ield         | OpenFOAM: The Open Source CFD Toolbox           |
|  \\    /   O peration     | Version:  v2012                                 |
|   \\  /    A nd           | Website:  www.openfoam.com                      |
|    \\/     M anipulation  |                                                 |
\*---------------------------------------------------------------------------*/
FoamFile
{
    version     2.0;
    format      ascii;
    class       volScalarField;
    location    "0.293";
    object      epsilon.air;
}
// * * * * * * * * * * * * * * * * * * * * * * * * * * * * * * * * * * * * * //

dimensions      [0 2 -3 0 0 0 0];


internalField   nonuniform List<scalar> 
1900
(
112.724
141.424
210.097
257.591
369.051
443.457
614.74
724.904
971.331
1128.61
15.4676
16.4471
18.6375
20.4504
23.7571
27.7274
32.0033
39.2882
45.1236
56.7644
14.7926
14.6414
14.5755
14.5063
14.5148
14.5574
14.6409
14.8309
15.0773
15.4134
14.77
14.6304
14.4634
14.3354
14.1726
14.059
13.9039
13.8079
13.6653
13.5937
14.7766
14.6216
14.4704
14.3205
14.1747
14.029
13.8889
13.7473
13.6138
13.477
14.7777
14.6206
14.4713
14.3197
14.1753
14.0285
13.8891
13.7473
13.6132
13.4774
14.7776
14.6208
14.473
14.3236
14.184
14.0451
13.9175
13.7915
13.6807
13.5716
14.7756
14.6502
14.5638
14.5035
14.5108
14.5519
14.6366
14.8204
15.0457
15.395
15.2066
16.6083
18.2731
20.6825
23.5944
27.5707
32.2706
38.3988
45.5743
54.8049
105.872
146.668
198.315
265.854
349.996
456.115
585.669
743.691
931.832
1154.02
4102.38
15198.3
19564.3
22431.3
21103
18023
15095.4
12807.9
11308.8
10388
9882.83
9703.17
9525.2
9254.86
8848.84
8351.27
7797.21
7210.54
6644.53
6126.64
5649.67
5222.48
4837.9
4486.96
4167.62
3878.04
3615.45
3378.02
3162.39
2966.72
2788.57
2625.95
2477.15
2340.61
2215.16
2099.64
1993.11
1894.66
1803.53
1718.99
1640.48
1567.44
1499.38
1435.88
1376.53
1320.96
1268.87
1219.94
1173.91
1130.52
1089.54
1050.79
1014.08
979.243
946.15
914.657
884.666
856.049
828.736
802.606
777.619
753.654
730.703
708.635
687.479
667.088
647.534
628.645
610.545
593.02
576.248
559.963
544.411
529.251
514.814
500.667
487.249
474.007
461.524
449.094
437.481
425.785
415.001
403.972
393.993
383.573
374.385
364.511
356.106
346.704
339.077
330.058
323.213
314.469
308.42
299.826
294.6
286.017
281.638
271.305
113.207
337.676
517.708
921.962
1124.87
1150.64
1123.18
1059.87
1053.62
1092.74
1197.41
1410.18
1697.2
2027.85
2377.75
2691.34
2970.75
3202.61
3356.84
3433.7
3426.06
3387.33
3301.46
3183.95
3056.13
2924.93
2794.17
2667.64
2544.15
2426.78
2314.62
2207.56
2106.14
2010.18
1919.78
1834.66
1754.71
1679.43
1608.57
1541.83
1478.96
1419.66
1363.74
1310.94
1261.07
1213.91
1169.29
1127.02
1086.93
1048.85
1012.62
978.109
945.186
913.731
883.648
854.835
827.225
800.725
775.295
750.843
727.353
704.731
682.986
662.01
641.842
622.354
603.625
585.499
568.102
551.237
535.083
519.389
504.396
489.785
475.873
462.253
449.341
436.619
424.629
412.715
401.586
390.4
380.086
369.562
360.035
350.113
341.356
331.972
323.974
315.056
307.813
299.274
292.784
284.521
278.796
270.69
265.754
257.671
253.55
243.842
16.4288
19.8673
22.8819
29.084
34.7827
38.7456
41.7207
43.8062
46.7472
50.7627
58.7945
71.0257
95.6916
130.286
189.617
267.125
373.964
508.941
665.571
835.753
1004.34
1161.87
1301.16
1417.96
1509.24
1572.92
1611.36
1629.08
1626.52
1615.8
1592.82
1562.27
1527.64
1490.17
1451.47
1411.61
1371.74
1331.46
1291.68
1252.57
1214.16
1176.6
1140.05
1104.56
1070.18
1036.86
1004.69
973.591
943.553
914.544
886.52
859.424
833.213
807.835
783.266
759.453
736.392
714.031
692.385
671.398
651.098
631.423
612.414
593.989
576.209
558.969
542.359
526.24
510.745
495.69
481.257
467.209
453.789
440.69
428.227
416.007
404.44
393.022
382.284
371.589
361.624
351.58
342.347
332.892
324.364
315.441
307.601
299.154
291.994
283.96
277.476
269.779
263.97
256.52
251.393
244.087
239.661
232.384
228.682
219.949
13.4532
13.4607
13.5466
13.8027
14.3336
15.005
15.7149
16.3377
16.9221
17.3435
17.9003
18.3655
19.3152
20.4901
22.7674
26.2117
31.7727
40.7902
54.7365
75.998
106.26
146.757
198.257
259.804
329.436
404.562
480.316
554.563
622.364
684.443
737.688
781.475
815.829
841.064
858.9
869.661
875.029
874.464
871.802
865.933
857.289
846.693
834.694
821.366
807.112
792.014
776.408
760.211
743.767
727.167
710.435
693.641
676.862
660.131
643.524
627.028
610.743
594.649
578.846
563.295
548.094
533.202
518.699
504.533
490.792
477.393
464.435
451.795
439.61
427.707
416.279
405.089
394.397
383.89
373.906
364.041
354.726
345.443
336.748
327.996
319.889
311.614
304.067
296.223
289.217
281.761
275.288
268.181
262.247
255.448
250.05
243.5
238.641
232.274
227.963
221.703
217.958
211.721
208.556
201.067
13.3297
13.1591
13.0627
13.1168
13.305
13.7156
14.2828
14.9074
15.444
15.8807
16.2092
16.443
16.6223
16.7675
16.9148
17.0843
17.3442
17.7199
18.3305
19.2867
20.8304
23.2181
26.7393
32.0506
39.6209
50.4385
64.8236
83.4793
106.342
133.592
164.463
197.993
233.282
268.73
303.714
336.535
367.343
395.134
419.787
440.959
458.721
473.046
484.414
492.871
498.865
502.55
504.394
504.13
502.993
500.496
496.742
492.053
486.609
480.49
473.837
466.712
459.276
451.515
443.621
435.524
427.434
419.246
411.117
403.022
395.062
387.172
379.433
371.749
364.251
356.796
349.572
342.359
335.433
328.468
321.852
315.137
308.831
302.37
296.374
290.139
284.436
278.4
272.986
267.13
262.01
256.32
251.507
245.97
241.471
236.064
231.904
226.617
222.819
217.623
214.208
209.065
206.053
200.921
198.327
192.152
13.325
13.1544
13.0318
13.0865
13.2956
13.7718
14.4966
15.4821
16.5009
17.6007
18.5962
19.5244
20.2689
20.8787
21.2991
21.6024
21.7724
21.8457
21.8315
21.7873
21.6942
21.6022
21.5333
21.5588
21.6645
21.9221
22.4548
23.3658
24.8149
27.0216
30.2509
34.7338
40.7844
48.4803
57.9785
69.287
82.3937
97.0259
113.028
129.912
147.397
164.914
182.213
198.848
214.646
229.27
242.741
254.828
265.666
275.251
283.64
290.909
297.14
302.443
306.869
310.499
313.436
315.675
317.375
318.43
319.131
319.128
318.911
318.368
317.331
315.947
314.268
312.302
310.13
307.703
305.142
302.34
299.492
296.356
293.329
289.927
286.761
283.157
279.892
276.13
272.803
268.907
265.557
261.553
258.22
254.134
250.859
246.717
243.547
239.374
236.348
232.159
229.315
225.12
222.493
218.297
215.917
211.722
209.617
204.572
13.4657
13.3602
13.4098
13.6561
14.3038
15.6863
18.0259
21.4278
25.3981
29.7058
33.6085
37.0818
39.6338
41.5529
42.6042
43.3213
43.363
43.2337
42.8946
42.3839
41.7806
41.1659
40.5068
39.901
39.353
38.8841
38.5132
38.2238
38.1046
38.1576
38.3326
38.7336
39.3237
40.2846
41.5647
43.2935
45.5911
48.494
52.2521
56.8394
62.5619
69.3614
77.4533
86.7439
97.2986
108.995
121.698
135.273
149.435
164.062
178.803
193.542
207.941
221.946
235.289
247.985
259.835
270.891
281.019
290.28
298.613
306.089
312.671
318.474
323.461
327.697
331.19
333.987
336.114
337.714
338.689
339.25
339.187
338.878
338.249
336.992
335.843
333.946
332.358
329.96
328.008
325.192
322.964
319.808
317.387
313.956
311.414
307.771
305.179
301.385
298.813
294.923
292.432
288.492
286.135
282.184
280.008
276.087
274.152
269.534
15.9096
16.8589
18.5484
21.9348
28.4072
39.4875
55.4334
74.9734
95.4441
114.262
129.226
140.181
146.607
150.076
150.712
150.316
149.307
147.644
146.118
145.141
144.517
144.694
145.305
146.741
148.969
152.29
156.205
161.166
166.904
173.876
181.618
190.659
200.456
211.517
223.499
236.548
250.73
265.717
281.752
298.254
315.568
333.18
351.283
369.399
387.478
405.291
422.628
439.557
455.833
471.568
486.564
500.854
514.3
527.015
538.848
550.007
560.239
569.749
578.274
585.926
592.573
598.306
603.082
606.904
609.828
611.76
612.887
612.847
612.381
611.247
609.305
606.786
603.85
600.318
596.724
592.403
588.428
583.565
579.33
574.125
569.703
564.232
559.718
554.062
549.543
543.773
539.321
533.494
529.184
523.366
519.275
513.524
509.714
504.067
500.584
495.07
491.975
486.624
484.033
478.011
68.0346
90.4403
126.222
184.915
271.959
385.044
511.472
635.593
744.834
831.863
892.645
932.521
953.561
963.35
964.491
963.351
960.962
957.237
956.239
957.424
960.689
966.444
974.745
986.512
1000.56
1016.8
1034.87
1055.08
1077.37
1101.3
1126.36
1152.39
1178.92
1206.01
1233.21
1260.12
1286.67
1311.99
1336.45
1359.29
1381.1
1401.19
1420.04
1437.18
1452.89
1467.02
1479.73
1491.14
1501.24
1510.1
1517.7
1523.91
1528.85
1532.38
1534.71
1535.58
1535.2
1533.96
1531.35
1527.33
1522.43
1516.27
1509.58
1501.54
1493.21
1483.63
1473.36
1462.44
1451.1
1439.01
1426.82
1413.87
1401.19
1387.7
1374.87
1361.16
1348.46
1334.87
1322.49
1309.13
1297.19
1284.13
1272.71
1260.01
1249.21
1236.94
1226.83
1215.02
1205.65
1194.32
1185.77
1174.92
1167.24
1156.82
1150.02
1140
1134.12
1124.49
1119.76
1109.19
1464.66
1897.21
2398.96
2961.94
3563.09
4171.89
4746.12
5251.14
5655.27
5950.84
6132.37
6219.37
6206.8
6159.93
6061.03
5927.88
5777.74
5619.36
5459.38
5301.69
5149.49
5004.5
4867.72
4739.71
4620.57
4510.54
4409.12
4316.2
4231.2
4153.93
4083.8
4020.49
3963.28
3912.01
3866.19
3825.62
3789.84
3758.39
3731.07
3707.38
3687.38
3670.3
3656.1
3643.98
3634.05
3625.64
3618.85
3613.14
3608.63
3604.94
3602.2
3600.1
3598.71
3597.95
3597.99
3598.3
3599.08
3600.27
3601.67
3602.96
3604.54
3605.72
3607.19
3608.13
3609.23
3609.78
3610.14
3610.07
3609.72
3608.85
3607.68
3605.33
3602.99
3599
3595.23
3589.59
3584.44
3577.29
3570.9
3562.41
3554.98
3545.34
3537.08
3526.43
3517.48
3505.86
3496.28
3483.65
3473.54
3459.91
3449.47
3434.89
3424.42
3408.92
3398.83
3382.41
3373.04
3355.75
3346.98
3325.01
1109.54
1064.82
1122.22
1210.05
1238.76
1121.07
818.392
1979.72
54660.7
16149.3
7362.1
6109.69
6234.61
6484.75
6555.39
8028.95
74291.5
43690.4
24867.4
18479.2
16106.5
15003.3
14630.2
19674.4
76417.6
71048.9
54277.8
41213.4
32695.9
27161.5
24546.1
34064.9
69730.4
75705.7
67748
55648.4
44563.5
35838.3
30858.8
42694.2
57763.8
71171.8
67937.1
59031.1
48367.9
38726.4
32776.8
45212.4
47499.2
61832
62484
56605.1
47159.9
38173.1
32449.3
44234.7
39103.5
51824.7
53586.4
49837.5
42395.4
34678.1
29595.8
39769.5
32637.3
42994.5
44924.4
42136.4
36306.4
30048.4
25829.5
34058.3
27611.5
35628.2
37263
35121.1
30550
25565
22233.9
29395
23490.1
29589.4
30830
29129.3
25539.5
21641.8
19168.4
26036.2
20106.9
24698
25579
24190
21346.9
18305.1
16502.8
22994.7
17368
20783
21371.7
20213.6
17942.9
15559.5
14269.2
20369.3
15135.5
17657.5
18023.8
17043.6
15214.6
13333.4
12428.8
18157.2
13286.9
15147.9
15354.3
14517.8
13031
11535.6
10923.5
16320.8
11727.5
13107.5
13204.9
12488
11270
10075.1
9687.24
14793.8
10405.4
11437
11461.3
10844.5
9839.18
8880.05
8666.07
13519.8
9267.59
10050.7
10031.2
9497.97
8664.03
7892.66
7815.32
12449.5
8286.27
8889.68
8845.63
8383.3
7688.47
7068.34
7098.61
11541.4
7443.58
7912.19
7853.77
7452.24
6870.77
6373.31
6487.51
10763.4
6716.78
7083.91
7017.58
6668.04
6179.39
5781.79
5963.26
10090.2
6090.05
6378.65
6308.28
6002.95
5590.56
5274.56
5510.19
9502.63
5547.51
5774.89
5703.05
5435.41
5086.07
4837.1
5116.4
8986.9
5073.61
5253.88
5182.72
4947.58
4650.96
4457.59
4772.36
8531.94
4657.38
4801.31
4732.28
4525.34
4273.2
4126.41
4470.23
8128.61
4290.17
4405.92
4340
4157.71
3943.4
3835.9
4203.72
7769.74
3964.79
4058.57
3996.41
3835.79
3653.89
3579.8
3967.56
7449.26
3675.76
3752.13
3694.02
3552.47
3398.49
3352.97
3757.38
7161.9
3417.8
3480.41
3426.51
3301.85
3172.06
3151.14
3569.58
6903.45
3186.93
3238.53
3188.81
3079.12
2970.44
2970.89
3401.16
6670.41
2979.43
3022.26
2976.68
2880.34
2790.21
2808.9
3249.78
6459.83
2792.3
2828.08
2786.53
2702.15
2628.34
2662.98
3113.11
6269.09
2622.91
2653.07
2615.39
2541.77
2482.4
2531.09
2989.29
6095.86
2469.03
2494.71
2460.75
2396.84
2350.32
2411.47
2876.73
5938.08
2328.83
2350.94
2320.54
2265.41
2230.36
2302.62
2774.08
5793.91
2200.74
2220.01
2193.01
2145.83
2121.07
2203.26
2680.19
5661.74
2083.44
2100.45
2076.68
2036.73
2021.22
2112.3
2594.07
5540.17
1975.75
1991
1970.29
1936.91
1929.74
2028.83
2514.89
5428.03
1876.68
1890.57
1872.76
1845.38
1845.77
1952.06
2441.93
5324.35
1785.33
1798.22
1783.16
1761.28
1768.41
1881.37
2374.61
5228.33
1700.95
1713.11
1700.66
1683.82
1697.08
1816.12
2312.41
5139.33
1622.85
1634.52
1624.55
1612.34
1631.19
1755.79
2254.87
5056.81
1550.45
1561.82
1554.2
1546.26
1570.22
1699.92
2201.59
4980.35
1483.2
1494.42
1489.02
1485.02
1513.71
1648.09
2152.21
4909.52
1420.61
1431.81
1428.52
1428.19
1461.21
1599.92
2106.38
4843.93
1362.25
1373.54
1372.25
1375.28
1412.38
1555.1
2063.82
4783.22
1307.74
1319.19
1319.81
1325.95
1366.85
1513.31
2024.24
4727.01
1256.72
1268.4
1270.82
1279.89
1324.33
1474.28
1987.37
4674.9
1208.87
1220.83
1224.98
1236.78
1284.52
1437.74
1952.95
4626.5
1163.92
1176.21
1182
1196.38
1247.19
1403.49
1920.77
4581.43
1121.62
1134.27
1141.63
1158.43
1212.12
1371.3
1890.62
4539.31
1081.72
1094.79
1103.65
1122.72
1179.12
1341.03
1862.32
4499.85
1044.05
1057.57
1067.86
1089.08
1148.01
1312.48
1835.7
4462.7
1008.42
1022.41
1034.09
1057.33
1118.64
1285.54
1810.62
4427.64
974.678
989.161
1002.17
1027.33
1090.88
1260.06
1786.95
4394.47
942.666
957.672
971.962
998.932
1064.61
1235.95
1764.6
4363.04
912.271
927.818
943.343
972.031
1039.7
1213.11
1743.45
4333.25
883.355
899.46
916.179
946.504
1016.07
1191.44
1723.45
4304.99
855.832
872.507
890.38
922.263
993.631
1170.86
1704.51
4278.26
829.571
846.827
865.819
899.194
972.277
1151.3
1686.57
4252.91
804.521
822.364
842.439
877.241
951.96
1132.7
1669.59
4229.06
780.55
798.985
820.114
856.287
932.577
1114.99
1653.49
4206.46
757.642
776.673
798.825
836.317
914.114
1098.14
1638.26
4185.32
735.659
755.285
778.433
817.199
896.449
1082.05
1623.8
4165.27
714.624
734.847
758.966
798.961
879.612
1066.74
1610.13
4146.62
694.38
715.196
740.26
781.445
863.456
1052.08
1597.15
4128.85
675.001
696.408
722.396
764.736
848.056
1038.15
1584.89
4112.41
656.301
678.289
705.173
748.631
833.224
1024.76
1573.21
4096.62
638.407
660.972
688.73
733.273
819.098
1012.05
1562.21
4082.08
621.088
644.212
672.814
718.401
805.424
999.772
1551.66
4067.91
604.534
628.208
657.633
704.236
792.42
988.127
1541.74
4054.96
588.452
612.65
642.859
690.433
779.74
976.791
1532.14
4042.1
573.108
597.82
628.794
677.315
767.715
966.076
1523.16
4030.47
558.13
583.319
615.01
664.424
755.868
955.511
1514.32
4018.56
543.877
569.535
601.93
652.22
744.69
945.592
1506.12
4008.02
529.876
555.956
588.995
640.095
733.526
935.635
1497.84
3996.71
516.607
543.107
576.786
628.694
723.084
926.401
1490.31
3987.05
503.47
530.332
564.58
617.211
712.471
916.905
1482.41
3976.02
491.099
518.331
553.158
606.53
702.687
908.279
1475.46
3967.08
478.729
506.264
541.583
595.591
692.52
899.122
1467.76
3956.01
467.196
495.054
530.895
585.585
683.354
891.069
1461.37
3947.71
455.517
483.621
519.881
575.117
673.555
882.155
1453.74
3936.37
444.784
473.169
509.9
565.766
664.998
874.681
1447.92
3928.7
433.735
462.313
499.393
555.72
655.516
865.953
1440.28
3917.02
423.782
452.606
490.113
547.026
647.581
859.08
1435.07
3910
413.309
442.278
480.072
537.367
638.392
850.521
1427.4
3898.09
404.128
433.31
471.492
529.335
631.089
844.271
1422.83
3891.74
394.173
423.462
461.877
520.042
622.192
835.914
1415.23
3879.9
385.758
415.231
453.998
512.672
615.523
830.28
1411.26
3874.17
376.252
405.799
444.763
503.719
606.926
822.188
1403.91
3862.81
368.603
398.307
437.586
497.012
600.886
817.154
1400.46
3857.56
359.46
389.215
428.664
488.353
592.577
809.367
1393.54
3846.98
352.58
382.466
422.192
482.307
587.153
804.906
1390.5
3842.22
343.697
373.617
413.504
473.884
579.109
797.46
1384.2
3832.53
337.601
367.622
407.74
468.489
574.271
793.512
1381.51
3828.18
328.857
358.905
399.187
460.225
566.447
786.411
1375.8
3819.38
323.57
353.683
394.137
455.464
562.143
782.865
1373.34
3815.21
314.829
344.97
385.603
447.259
554.468
776.083
1368.15
3807.3
310.367
340.523
381.254
443.097
550.618
772.786
1365.8
3803.33
299.803
329.951
370.849
433.04
541.166
764.42
1359.23
3794.31
)
;

boundaryField
{
    frontAndBack
    {
        type            empty;
    }
    inlet
    {
        type            fixedValue;
        value           uniform 14.855;
    }
    outlet
    {
        type            zeroGradient;
    }
    walls
    {
        lowReCorrection 0;
        blending        stepwise;
        n               2;
        type            epsilonWallFunction;
        value           nonuniform List<scalar> 
228
(
112.724
141.424
210.097
257.591
369.051
443.457
614.74
724.904
971.331
1128.61
1109.54
1064.82
1122.22
1210.05
1238.76
1121.07
818.392
1979.72
1979.72
8028.95
19674.4
34064.9
42694.2
45212.4
44234.7
39769.5
34058.3
29395
26036.2
22994.7
20369.3
18157.2
16320.8
14793.8
13519.8
12449.5
11541.4
10763.4
10090.2
9502.63
8986.9
8531.94
8128.61
7769.74
7449.26
7161.9
6903.45
6670.41
6459.83
6269.09
6095.86
5938.08
5793.91
5661.74
5540.17
5428.03
5324.35
5228.33
5139.33
5056.81
4980.35
4909.52
4843.93
4783.22
4727.01
4674.9
4626.5
4581.43
4539.31
4499.85
4462.7
4427.64
4394.47
4363.04
4333.25
4304.99
4278.26
4252.91
4229.06
4206.46
4185.32
4165.27
4146.62
4128.85
4112.41
4096.62
4082.08
4067.91
4054.96
4042.1
4030.47
4018.56
4008.02
3996.71
3987.05
3976.02
3967.08
3956.01
3947.71
3936.37
3928.7
3917.02
3910
3898.09
3891.74
3879.9
3874.17
3862.81
3857.56
3846.98
3842.22
3832.53
3828.18
3819.38
3815.21
3807.3
3803.33
3794.31
105.872
146.668
198.315
265.854
349.996
456.115
585.669
743.691
931.832
1154.02
1464.66
1897.21
2398.96
2961.94
3563.09
4171.89
4746.12
5251.14
5655.27
5950.84
6132.37
6219.37
6206.8
6159.93
6061.03
5927.88
5777.74
5619.36
5459.38
5301.69
5149.49
5004.5
4867.72
4739.71
4620.57
4510.54
4409.12
4316.2
4231.2
4153.93
4083.8
4020.49
3963.28
3912.01
3866.19
3825.62
3789.84
3758.39
3731.07
3707.38
3687.38
3670.3
3656.1
3643.98
3634.05
3625.64
3618.85
3613.14
3608.63
3604.94
3602.2
3600.1
3598.71
3597.95
3597.99
3598.3
3599.08
3600.27
3601.67
3602.96
3604.54
3605.72
3607.19
3608.13
3609.23
3609.78
3610.14
3610.07
3609.72
3608.85
3607.68
3605.33
3602.99
3599
3595.23
3589.59
3584.44
3577.29
3570.9
3562.41
3554.98
3545.34
3537.08
3526.43
3517.48
3505.86
3496.28
3483.65
3473.54
3459.91
3449.47
3434.89
3424.42
3408.92
3398.83
3382.41
3373.04
3355.75
3346.98
3325.01
)
;
    }
}


// ************************************************************************* //
