/*--------------------------------*- C++ -*----------------------------------*\
| =========                 |                                                 |
| \\      /  F ield         | OpenFOAM: The Open Source CFD Toolbox           |
|  \\    /   O peration     | Version:  v2012                                 |
|   \\  /    A nd           | Website:  www.openfoam.com                      |
|    \\/     M anipulation  |                                                 |
\*---------------------------------------------------------------------------*/
FoamFile
{
    version     2.0;
    format      ascii;
    class       volScalarField;
    location    "0.293";
    object      omega.air;
}
// * * * * * * * * * * * * * * * * * * * * * * * * * * * * * * * * * * * * * //

dimensions      [0 0 -1 0 0 0 0];


internalField   nonuniform List<scalar> 
5600
(
6586.36
7485.43
7886.89
7965.11
7866.49
7687.35
7481.04
7289.94
7125.41
6987.69
6879.01
6796.23
6736.36
6693.34
6663.73
6642.24
6627.09
6614.81
6605.32
6596.52
6589.57
6582.7
6577.85
6573.11
6570.54
6567.55
6566.41
6564.6
6564.08
6562.73
6562.14
6560.57
6559.62
6557.66
6556.48
6554.32
6553.05
6550.83
6549.58
6547.42
6546.3
6544.32
6543.43
6541.66
6541.07
6539.56
6539.28
6537.95
6537.93
6536.74
6536.9
6535.88
6536.23
6535.3
6535.87
6535.08
6535.9
6535.26
6536.32
6535.87
6537.2
6536.84
6538.46
6538.18
6540.06
6539.84
6542.01
6541.82
6544.27
6544.08
6546.85
6546.63
6549.75
6549.46
6552.94
6552.56
6556.42
6555.93
6560.12
6559.55
6563.99
6563.44
6567.91
6567.65
6571.69
6572.38
6575.01
6578.09
6577.17
6585.98
6576.68
6598.52
6569.12
6622.88
6540.62
6683.44
6440.69
6868.01
6039.02
7488.45
2450.52
2296.58
2571.68
2795.12
2928.24
2998.04
3010.28
2968.31
2968.81
3017.36
3073.34
3119.07
3147.08
3158.53
3154.85
3140.56
3118.22
3091.33
3062.11
3032.57
3003.24
2973.96
2945.06
2916.48
2889.24
2863.27
2839.67
2817.44
2797.55
2778.59
2761.93
2745.94
2732.07
2718.68
2707.18
2696
2686.39
2677.03
2668.96
2661.1
2654.29
2647.66
2641.88
2636.28
2631.27
2626.33
2621.86
2617.47
2613.45
2609.55
2606.06
2602.56
2599.53
2596.5
2593.88
2591.25
2589
2586.71
2584.81
2582.73
2581.11
2579.33
2577.93
2576.38
2575.18
2573.82
2572.79
2571.63
2570.71
2569.77
2568.98
2568.19
2567.52
2566.9
2566.35
2565.87
2565.43
2565.07
2564.68
2564.46
2564.07
2564.03
2563.57
2563.84
2563.15
2563.98
2562.67
2564.67
2561.82
2566.35
2559.42
2570.75
2552.89
2582.34
2534.84
2614.52
2478.65
2715.12
2279.8
3066.21
2358.53
1859.96
1592.1
1427.88
1346.03
1273.89
1279.91
1309.24
1351.81
1412.54
1482.18
1549.6
1611.08
1663.96
1704.87
1733.4
1749.13
1752.44
1744.34
1726.46
1702.4
1676.76
1653.61
1634.9
1619.46
1605.79
1593.23
1581.76
1571.21
1560.98
1551.12
1540.94
1531.31
1521.67
1512.9
1504.19
1496.41
1488.7
1481.89
1475.16
1469.22
1463.35
1458.13
1452.87
1448.27
1443.65
1439.6
1435.5
1431.93
1428.3
1425.18
1421.96
1419.25
1416.42
1414.07
1411.58
1409.55
1407.33
1405.55
1403.54
1401.98
1400.15
1398.78
1397.1
1395.91
1394.35
1393.32
1391.9
1391
1389.72
1388.94
1387.81
1387.13
1386.12
1385.53
1384.64
1384.09
1383.34
1382.77
1382.21
1381.5
1381.29
1380.25
1380.67
1378.9
1380.51
1377.23
1381.13
1374.75
1383.21
1370.39
1388.3
1361.84
1399.97
1343.79
1425.68
1305.09
1478.36
1229.55
1555.85
2345.16
1822.39
1493.2
1267.68
1111.12
992.659
906.799
847.016
802.558
776.824
760.329
769.473
791.624
824.069
860.973
902.209
941.332
978.584
1011.24
1039.62
1061.36
1079.2
1091.57
1101.02
1105.67
1107.18
1103.56
1097.08
1087.59
1077.98
1068.42
1060.68
1053.92
1048.04
1042.52
1037.35
1032.51
1027.86
1023.57
1019.24
1015.12
1010.64
1006.17
1001.43
996.994
992.45
988.336
984.174
980.473
976.73
973.448
970.118
967.222
964.268
961.706
959.007
956.662
954.151
951.989
949.636
947.642
945.443
943.618
941.563
939.907
937.996
936.504
934.737
933.405
931.778
930.584
929.106
928.017
926.669
925.645
924.425
923.432
922.413
921.382
920.637
919.42
919.114
917.479
917.92
915.458
917.186
913.177
917.123
910.319
918.111
906.365
920.8
900.525
926.147
891.867
934.486
880.905
941.993
875.484
926.534
2341.97
1815.97
1479.81
1247.93
1079.7
952.59
853.163
774.647
710.612
658.92
616.095
581.929
556.261
536.1
523.668
514.707
513.832
520.916
532.211
549.286
568.425
592.008
616.009
642.279
667.059
692.182
713.871
733.32
748.228
760.878
769.701
777.438
782.105
786.07
787.246
787.764
785.863
783.567
779.537
775.804
771.226
767.622
764.176
761.326
758.404
755.726
753.019
750.451
747.961
745.57
743.34
741.142
739.067
736.96
734.809
732.429
730.123
727.676
725.39
722.99
720.796
718.499
716.435
714.265
712.354
710.333
708.584
706.718
705.118
703.39
701.912
700.278
698.858
697.312
695.914
694.486
693.069
691.82
690.343
689.368
687.733
687.161
685.208
685.254
682.707
683.717
680.15
682.596
677.435
681.974
674.478
681.882
671.337
682.054
668.548
681.385
667.731
677.132
671.834
664.95
2341.13
1814.12
1476.76
1243.88
1074.17
945.334
844.32
763.147
696.59
641.006
594.227
553.961
519.757
489.784
464.215
441.886
422.587
407.016
393.417
383.555
375.14
370.427
367.325
368.894
373.202
381.267
391.502
405.41
419.986
437.885
454.559
473.868
490.891
509.3
524.579
540.233
552.273
564.124
572.367
580.473
585.541
590.757
593.882
597.334
598.931
600.773
600.92
601.3
600.169
599.328
597.295
595.626
593.223
591.225
589.088
587.478
585.727
584.28
582.703
581.295
579.825
578.431
577.066
575.706
574.463
573.169
572.032
570.805
569.7
568.495
567.298
565.919
564.585
563.176
561.765
560.414
558.934
557.698
556.124
555.086
553.381
552.633
550.724
550.377
548.155
548.336
545.669
546.502
543.263
544.831
540.976
543.222
538.941
541.408
537.402
539.033
536.592
535.864
535.985
532.431
2340.87
1813.43
1475.76
1242.59
1072.62
943.434
842.136
760.544
693.595
637.485
590.098
549.17
513.931
482.852
455.61
431.395
409.692
390.467
372.949
357.41
343.363
330.579
319.543
309.202
300.893
293.209
287.184
282.437
278.756
277.003
276.472
278.478
281.746
287.292
294.017
302.993
312.447
324.202
335.385
348.603
360.469
374.052
385.567
398.42
408.866
420.336
429.153
438.734
445.574
452.924
457.766
462.946
466.083
469.466
471.431
473.838
475.085
476.684
477.305
478.184
478.249
478.475
478.029
477.696
476.853
476.074
474.97
473.872
472.743
471.567
470.537
469.564
468.665
467.792
466.919
466.115
465.197
464.466
463.458
462.835
461.708
461.241
459.962
459.69
458.241
458.167
456.539
456.652
454.83
455.082
453.095
453.375
451.327
451.455
449.447
449.385
447.347
447.312
444.534
445.253
2340.76
1813.12
1475.33
1242.06
1072
942.72
841.359
759.656
692.643
636.42
588.931
547.897
512.507
481.277
453.87
429.338
407.507
387.688
370.006
353.536
339.104
325.092
313.194
301.189
291.158
280.975
272.347
263.735
256.424
248.971
243.135
236.646
232.305
226.931
223.853
219.939
218.067
215.793
215.378
215.073
216.679
218.374
221.942
225.774
231.149
237.069
244.001
251.649
259.808
268.537
277.384
286.646
295.662
304.88
313.389
322.048
329.85
337.639
344.538
351.27
357.161
362.738
367.488
371.841
375.509
378.681
381.374
383.445
385.365
386.688
388.08
388.995
390.038
390.609
391.338
391.626
392.009
392.05
392.086
391.931
391.633
391.332
390.694
390.3
389.348
388.903
387.686
387.234
385.78
385.34
383.678
383.234
381.418
381.034
379.055
378.771
376.457
376.316
373.407
373.312
2340.71
1812.97
1475.12
1241.81
1071.71
942.392
841.011
759.276
692.232
636
588.451
547.431
511.97
480.734
453.299
428.679
406.9
386.906
369.3
352.656
338.193
324.106
311.996
299.977
289.635
279.293
270.398
261.306
253.744
245.527
239.176
231.674
226.28
219.523
214.839
208.792
204.788
199.271
196.043
190.935
188.528
183.879
182.208
178.142
177.186
173.799
173.645
170.977
171.739
170.092
171.899
171.396
174.255
175.062
179.004
181.076
186.093
189.379
195.372
199.703
206.436
211.64
218.868
224.579
232.028
237.968
245.402
251.273
258.309
263.83
270.288
275.318
281.097
285.571
290.623
294.545
298.821
302.122
305.586
308.275
310.941
313.054
314.903
316.472
317.564
318.64
319.064
319.75
319.588
319.973
319.338
319.473
318.49
318.53
317.235
317.12
315.463
315.122
313.109
312.277
2340.69
1812.89
1475.02
1241.69
1071.58
942.253
840.844
759.124
692.035
635.838
588.227
547.251
511.734
480.523
453.056
428.441
406.633
386.666
368.975
352.438
337.793
323.903
311.541
299.737
289.165
278.971
269.905
260.915
253.146
245.106
238.385
231.195
225.267
218.849
213.58
207.77
203.148
197.774
193.761
188.762
185.249
180.628
177.531
173.245
170.55
166.54
164.252
160.485
158.563
155.087
153.507
150.33
149.087
146.23
145.377
142.845
142.373
140.252
140.193
138.55
138.918
137.776
138.669
138.212
139.619
139.858
141.755
142.786
145.199
146.917
149.781
152.143
155.42
158.372
161.927
165.335
169.09
172.856
176.718
180.713
184.544
188.632
192.351
196.405
199.944
203.844
207.104
210.756
213.662
216.971
219.493
222.341
224.421
226.698
228.402
230.324
231.764
233.233
234.396
235.272
2340.68
1812.9
1475.03
1241.71
1071.58
942.28
840.847
759.157
692.032
635.872
588.226
547.28
511.736
480.551
453.05
428.487
406.597
386.745
368.908
352.54
337.717
323.996
311.483
299.814
289.113
279.062
269.818
261.058
253.009
245.291
238.232
231.381
225.132
219.032
213.445
207.995
202.976
198.07
193.563
189.119
185.067
181.04
177.381
173.756
170.437
167.202
164.203
161.344
158.678
156.188
153.875
151.766
149.824
148.138
146.603
145.384
144.311
143.609
143.075
143.003
143.122
143.758
144.566
145.947
147.513
149.644
151.997
154.822
157.893
161.36
165.054
169.05
173.22
177.597
182.101
186.716
191.386
196.048
200.711
205.273
209.784
214.112
218.32
222.254
226.011
229.475
232.745
235.747
238.533
241.073
243.388
245.473
247.341
249.006
250.44
251.685
252.684
253.535
254.162
254.735
2340.71
1813
1475.15
1241.86
1071.75
942.463
841.031
759.363
692.234
636.097
588.445
547.523
511.971
480.816
453.297
428.78
406.854
387.071
369.179
352.895
338.018
324.375
311.829
300.226
289.506
279.543
270.259
261.642
253.534
246.004
238.919
232.27
226.078
220.215
214.764
209.66
204.857
200.465
196.348
192.627
189.243
186.205
183.587
181.335
179.529
178.189
177.31
177.095
177.416
178.432
180.032
182.371
185.315
188.983
193.226
198.131
203.561
209.497
215.89
222.569
229.583
236.715
244.006
251.242
258.469
265.449
272.241
278.662
284.858
290.642
296.173
301.244
306.034
310.347
314.356
317.907
321.13
323.904
326.354
328.39
330.128
331.504
332.599
333.434
334.046
334.466
334.767
334.907
334.926
334.81
334.556
334.175
333.657
333.023
332.26
331.403
330.421
329.385
328.282
327.238
2340.76
1813.17
1475.39
1242.15
1072.07
942.819
841.418
759.773
692.675
636.561
588.939
548.047
512.518
481.41
453.91
429.455
407.557
387.849
370.009
353.823
339.031
325.533
313.114
301.74
291.224
281.618
272.675
264.597
257.046
250.349
244.222
238.871
234.178
230.261
227.052
224.772
223.187
222.833
223.48
225.324
228.243
232.317
237.482
243.711
250.894
258.952
267.704
276.959
286.618
296.429
306.335
316.033
325.442
334.48
343.064
351.157
358.684
365.614
371.914
377.548
382.532
386.84
390.525
393.588
396.117
398.168
399.863
401.301
402.536
403.549
404.385
405.008
405.476
405.746
405.876
405.828
405.653
405.323
404.884
404.322
403.676
402.941
402.143
401.332
400.469
399.631
398.807
397.987
397.144
396.291
395.394
394.474
393.498
392.493
391.43
390.343
389.203
388.068
386.941
385.921
2340.87
1813.49
1475.85
1242.7
1072.73
943.555
842.253
760.678
693.695
637.655
590.178
549.38
514.037
483.081
455.841
431.637
410.13
390.847
373.646
358.163
344.364
331.996
321.11
311.733
303.657
297.158
291.917
288.445
286.294
286.466
288.568
292.776
298.897
306.924
316.622
327.797
340.092
353.16
366.64
380.343
393.801
406.905
419.344
431.061
441.759
451.455
459.901
467.214
473.257
478.261
482.208
485.39
488.036
490.206
491.937
493.259
494.184
494.74
494.942
494.822
494.405
493.727
492.832
491.759
490.572
489.344
488.136
487.05
486.032
485.058
484.102
483.155
482.209
481.266
480.318
479.371
478.424
477.488
476.561
475.653
474.762
473.88
473.021
472.147
471.289
470.376
469.403
468.4
467.36
466.315
465.246
464.183
463.095
462.023
460.927
459.86
458.778
457.747
456.781
455.977
2341.15
1814.19
1476.91
1243.99
1074.37
945.463
844.56
763.338
696.869
641.366
594.592
554.622
520.497
490.968
465.755
443.838
425.814
410.637
398.926
389.601
383.753
380.07
380.957
385.389
393.444
404.667
418.824
435.249
453.405
472.418
491.917
511.217
529.57
546.644
561.818
575.039
585.95
594.933
601.973
607.589
612.148
615.74
618.421
620.21
621.133
621.257
620.631
619.393
617.627
615.555
613.244
611.017
609.052
607.251
605.536
603.874
602.234
600.62
599.017
597.451
595.911
594.431
592.988
591.613
590.258
588.948
587.589
586.136
584.599
583.037
581.443
579.856
578.267
576.7
575.135
573.6
572.089
570.619
569.184
567.794
566.446
565.145
563.891
562.68
561.509
560.377
559.262
558.178
557.1
556.055
555.009
554.003
552.987
552.022
551.038
550.121
549.202
548.374
547.654
547.156
2342.03
1815.98
1480.11
1247.96
1080.28
952.706
854.162
775.2
712.353
660.61
619.082
586.927
562.6
545.506
534.58
530.083
534.44
545.072
561.022
581.084
604.57
630.61
657.656
684.785
711.045
734.708
754.969
771.332
784.177
794.176
801.842
807.317
810.769
812.235
811.878
809.914
806.641
802.648
798.211
794.139
790.646
787.469
784.451
781.474
778.555
775.68
772.908
770.237
767.706
765.261
762.9
760.507
757.929
755.274
752.583
749.904
747.251
744.653
742.109
739.643
737.244
734.941
732.709
730.586
728.531
726.586
724.698
722.889
721.105
719.382
717.675
716.024
714.392
712.813
711.262
709.771
708.324
706.939
705.597
704.312
703.073
701.888
700.748
699.662
698.614
697.622
696.662
695.749
694.857
694.015
693.181
692.4
691.613
690.888
690.147
689.482
688.823
688.274
687.88
687.79
2345.25
1822.39
1493.86
1268.16
1113.23
994.179
912.593
852.014
814.516
787.862
783.669
800.109
829.088
866.03
907.637
950.226
990.287
1026.99
1058.26
1083.62
1103.43
1118.45
1129.08
1135.73
1137.46
1134.74
1127.99
1118.69
1108.65
1099.46
1091.81
1085.14
1079.05
1073.28
1067.82
1062.62
1057.74
1052.99
1048.38
1043.52
1038.47
1033.33
1028.23
1023.25
1018.47
1013.89
1009.56
1005.45
1001.59
997.956
994.539
991.334
988.272
985.351
982.536
979.833
977.226
974.721
972.306
969.989
967.757
965.624
963.57
961.619
959.741
957.965
956.258
954.648
953.094
951.62
950.19
948.827
947.502
946.244
945.038
943.893
942.787
941.739
940.724
939.763
938.841
937.963
937.122
936.326
935.566
934.85
934.169
933.532
932.918
932.354
931.801
931.306
930.8
930.367
929.907
929.549
929.189
928.985
928.986
929.42
2358.73
1860.91
1594.77
1434.01
1353.99
1289
1305.24
1337.3
1392.12
1465.15
1539.74
1610.27
1672.39
1723.05
1760.09
1783.37
1792.55
1788.85
1773.31
1750.18
1724.15
1700.71
1682.16
1666.51
1652.5
1639.48
1627.39
1615.95
1604.94
1593.83
1582.74
1571.92
1561.58
1551.73
1542.45
1533.71
1525.55
1517.91
1510.81
1504.16
1497.94
1492.03
1486.48
1481.29
1476.43
1471.85
1467.55
1463.51
1459.72
1456.17
1452.85
1449.75
1446.84
1444.12
1441.57
1439.17
1436.9
1434.76
1432.72
1430.8
1428.97
1427.23
1425.57
1424
1422.51
1421.09
1419.75
1418.5
1417.3
1416.18
1415.12
1414.12
1413.18
1412.29
1411.44
1410.63
1409.85
1409.11
1408.41
1407.74
1407.11
1406.52
1405.97
1405.45
1404.97
1404.53
1404.13
1403.76
1403.42
1403.14
1402.86
1402.65
1402.41
1402.28
1402.08
1402.06
1401.95
1402.23
1402.69
1403.86
2454.74
2305.68
2580.44
2808.67
2934.22
3010.01
2994.57
2967.45
3014.82
3085.65
3150.02
3196.61
3222.41
3229.88
3222.23
3203.96
3178.36
3148.8
3117.8
3086.33
3054.82
3023.04
2991.97
2961.67
2933.61
2907.21
2882.91
2860.49
2839.91
2820.99
2803.65
2787.83
2773.39
2760.22
2748.2
2737.21
2727.14
2717.94
2709.48
2701.76
2694.62
2688.07
2682
2676.3
2670.91
2665.81
2660.99
2656.44
2652.17
2648.16
2644.41
2640.9
2637.62
2634.57
2631.73
2629.08
2626.6
2624.29
2622.13
2620.1
2618.19
2616.4
2614.72
2613.13
2611.66
2610.28
2609
2607.8
2606.7
2605.67
2604.74
2603.89
2603.1
2602.38
2601.71
2601.1
2600.53
2600.01
2599.53
2599.09
2598.7
2598.35
2598.06
2597.81
2597.6
2597.45
2597.33
2597.27
2597.24
2597.27
2597.33
2597.44
2597.56
2597.77
2597.93
2598.33
2598.52
2599.47
2600.43
2602.43
6588.07
7481.93
7876.76
7936
7826.38
7629.93
7415.07
7222.08
7053.55
6914.35
6805.39
6723.41
6664.03
6621.63
6591.84
6570.25
6554.27
6541.59
6531.2
6522.48
6514.92
6508.91
6504.02
6500.33
6497.43
6495.1
6493.31
6491.85
6490.47
6489.04
6487.34
6485.47
6483.4
6481.22
6478.93
6476.61
6474.25
6471.93
6469.66
6467.49
6465.43
6463.5
6461.71
6460.09
6458.62
6457.28
6456.06
6454.93
6453.9
6452.95
6452.09
6451.33
6450.67
6450.13
6449.7
6449.38
6449.18
6449.09
6449.12
6449.25
6449.5
6449.82
6450.27
6450.79
6451.41
6452.11
6452.89
6453.76
6454.72
6455.76
6456.89
6458.1
6459.38
6460.75
6462.18
6463.68
6465.25
6466.86
6468.53
6470.23
6471.98
6473.75
6475.57
6477.42
6479.31
6481.23
6483.2
6485.2
6487.26
6489.34
6491.47
6493.63
6495.87
6498.07
6500.44
6502.6
6504.94
6506.76
6508
6507.91
5490.46
3367.65
2415.48
1948.49
1665.44
1480.87
1346.93
1246.06
1163.98
1095.66
1037.25
985.938
940.083
898.651
860.833
825.775
793.049
762.099
732.458
704.05
676.667
650.275
624.875
600.487
577.028
554.577
533.081
512.59
493.044
474.446
456.765
440.057
424.276
409.37
395.273
381.914
369.23
357.162
345.661
334.677
324.158
314.073
304.388
295.071
286.097
277.429
269.051
260.937
253.071
245.434
238.03
230.844
223.877
217.118
210.615
204.378
198.443
192.792
187.493
182.539
177.973
173.71
169.827
166.252
163.059
160.031
157.272
154.602
152.268
149.925
147.798
145.507
143.615
141.76
140.408
138.8
137.545
136.193
136.135
136.53
138.6
139.795
141.74
141.034
141.305
138.46
137.941
133.861
133.49
128.809
128.953
124.523
124.853
121.39
121.571
118.982
119.164
117.277
117.479
116.035
1539.87
2573.42
2358.52
1985.89
1702.13
1502
1354.94
1243.8
1154.16
1081.17
1019.89
966.874
920.579
879.643
842.901
809.279
778.151
748.877
720.971
694.297
668.615
643.821
619.841
596.69
574.223
552.559
531.621
511.58
492.24
473.771
455.99
439.209
423.396
408.468
394.343
380.942
368.204
356.069
344.486
333.404
322.778
312.576
302.765
293.317
284.206
275.403
266.888
258.643
250.653
242.905
235.407
228.149
221.133
214.356
207.862
201.672
195.814
190.277
185.119
180.338
175.961
171.905
168.22
164.846
161.829
158.971
156.336
153.779
151.521
149.261
147.173
144.91
142.979
141.084
139.651
137.945
136.495
134.805
134.253
134.007
135.467
136.111
137.787
136.959
137.372
134.669
134.39
130.509
130.354
125.914
126.256
122.04
122.502
119.132
119.307
116.741
116.815
114.902
115.006
113.504
1130.28
1419.96
1804.65
1801.58
1642.63
1475.78
1336.94
1225.33
1133.71
1058.36
995.365
941.454
895.095
854.718
818.968
786.663
757.059
729.401
703.297
678.489
654.667
631.68
609.383
587.752
566.621
546.129
526.144
506.943
488.227
470.292
452.804
436.212
420.551
405.746
391.714
378.374
365.675
353.557
341.968
330.856
320.187
309.925
300.041
290.513
281.316
272.425
263.822
255.495
247.432
239.629
232.095
224.831
217.837
211.121
204.723
198.674
192.994
187.679
182.771
178.276
174.197
170.453
167.062
163.974
161.205
158.575
156.107
153.697
151.534
149.376
147.335
145.111
143.143
141.209
139.689
137.891
136.253
134.24
133.196
132.295
133.078
133.083
134.355
133.292
133.718
131.099
130.988
127.3
127.329
123.162
123.709
119.758
120.385
117.158
117.362
114.864
114.854
112.952
112.972
111.439
895.514
846.848
1029.28
1250.48
1340.46
1313.72
1239.13
1156.6
1080.09
1012.66
954.528
904.305
860.671
822.476
788.696
758.303
730.552
704.722
680.467
657.504
635.493
614.296
593.734
573.683
554.018
534.896
516.145
498.087
480.38
463.321
446.642
430.609
415.334
400.824
387.017
373.85
361.289
349.279
337.763
326.699
316.057
305.805
295.918
286.38
277.166
268.259
259.644
251.315
243.261
235.491
228.017
220.85
213.991
207.458
201.287
195.518
190.164
185.222
180.717
176.659
173.021
169.723
166.739
164.034
161.584
159.235
156.968
154.726
152.663
150.607
148.603
146.413
144.394
142.411
140.784
138.88
137.046
134.722
133.187
131.627
131.679
130.973
131.705
130.295
130.584
127.977
127.933
124.425
124.59
120.729
121.483
117.86
118.684
115.662
115.928
113.556
113.486
111.644
111.593
110.07
675.217
656.03
666.768
732.595
836.296
921.834
960.612
959.8
936.443
903.243
867.592
833.309
801.27
771.68
744.44
719.195
695.498
673.1
651.649
631.086
611.191
591.925
573.138
554.77
536.692
519.078
501.774
485.077
468.607
452.614
437.057
421.902
407.299
393.312
379.901
367.047
354.753
342.954
331.602
320.671
310.141
299.986
290.186
280.729
271.594
262.775
254.256
246.039
238.12
230.519
223.249
216.335
209.779
203.61
197.856
192.566
187.739
183.376
179.476
176.046
173.02
170.313
167.854
165.616
163.536
161.495
159.429
157.346
155.354
153.368
151.36
149.172
147.064
145.001
143.221
141.181
139.12
136.483
134.452
132.238
131.516
130.052
130.121
128.272
128.264
125.597
125.498
122.158
122.398
118.885
119.847
116.629
117.68
114.941
115.296
113.122
113.008
111.29
111.177
109.72
530.574
531.115
526.803
527.712
540.626
566.635
598.729
629.809
653.26
668.153
674.746
675.805
672.794
666.667
657.987
647.39
635.131
621.741
607.296
592.236
576.684
560.935
544.961
529.089
513.195
497.486
481.89
466.62
451.603
436.904
422.659
408.743
395.233
382.122
369.375
357.077
345.262
333.841
322.797
312.141
301.864
291.955
282.397
273.183
264.299
255.745
247.511
239.606
232.034
224.826
217.998
211.587
205.599
200.068
195.015
190.493
186.48
182.976
179.938
177.365
175.138
173.162
171.313
169.582
167.864
166.092
164.165
162.168
160.162
158.16
156.059
153.796
151.525
149.315
147.308
145.067
142.72
139.751
137.205
134.349
132.817
130.578
129.882
127.538
127.082
124.306
124.025
120.862
121.118
118.025
119.199
116.494
117.796
115.443
115.901
114.011
113.851
112.328
112.149
110.829
439.311
441.213
439.571
434.544
427.963
422.589
418.238
416.34
416.711
420.687
427.716
437.899
450.515
464.715
478.915
492.088
502.76
510.354
514.097
514.199
510.782
504.812
496.501
486.65
475.628
463.868
451.552
438.81
426.149
413.475
400.984
388.629
376.406
364.507
352.92
341.696
330.816
320.116
309.718
299.685
290.021
280.725
271.781
263.184
254.923
247.009
239.433
232.219
225.374
218.945
212.95
207.443
202.426
197.94
193.992
190.633
187.807
185.498
183.609
182.113
180.824
179.639
178.382
177.077
175.591
173.929
171.965
169.882
167.69
165.513
163.16
160.69
158.13
155.667
153.318
150.779
148.053
144.71
141.618
138.141
135.774
132.78
131.247
128.406
127.391
124.511
123.949
121.02
121.262
118.717
120.131
118.098
119.673
117.842
118.386
116.874
116.628
115.378
115.097
113.997
369.17
371.235
371.074
367.604
360.912
352.165
341.806
330.745
319.452
308.873
299.391
291.885
287.126
285.935
288.931
296.365
307.959
322.876
339.635
356.75
372.116
385.383
394.037
399.108
400.987
400.011
396.743
391.455
384.836
377.126
368.67
359.659
350.139
340.407
330.396
320.395
310.424
300.925
291.841
283.141
274.794
266.789
259.103
251.739
244.686
237.969
231.592
225.595
219.996
214.857
210.207
206.11
202.557
199.595
197.207
195.425
194.139
193.296
192.724
192.353
191.925
191.346
190.416
189.225
187.632
185.742
183.421
180.966
178.324
175.732
172.909
170.046
167.031
164.175
161.337
158.382
155.169
151.413
147.745
143.692
140.498
136.823
134.441
131.182
129.577
126.687
125.826
123.282
123.562
121.79
123.529
122.4
124.264
123.114
123.669
122.616
122.182
121.276
120.806
120.014
309.696
309.593
308.544
305.231
299.44
291.514
282.192
272.078
262.271
253.031
245.42
239.544
235.695
233.687
233.499
234.499
236.928
240.085
244.861
250.172
257.606
265.033
275.356
286.312
296.831
305.986
313.404
318.602
321.567
322.342
321.048
317.969
313.096
306.877
300.305
293.506
286.392
279.542
272.942
266.571
260.404
254.444
248.688
243.16
237.875
232.881
228.209
223.925
220.063
216.703
213.875
211.647
209.994
208.946
208.44
208.46
208.803
209.357
209.859
210.208
210.106
209.521
208.287
206.596
204.327
201.703
198.595
195.404
192.001
188.722
185.192
181.736
178.093
174.694
171.223
167.746
163.957
159.78
155.539
151.007
147.047
142.845
139.692
136.211
134.118
131.455
130.438
128.585
129.114
128.487
130.737
130.831
132.97
132.638
133.014
132.439
131.626
131.113
130.296
129.915
235.954
236.739
237.139
236.713
235.508
233.962
232.752
232.52
233.863
236.75
241.371
246.942
253.354
259.984
266.069
271.326
275.527
278.807
281.324
283.005
284.116
285.04
285.732
286.587
287.605
288.82
290.054
291.213
292.075
292.542
292.37
291.492
289.725
287.019
283.809
280.255
276.351
272.231
267.992
263.714
259.449
255.255
251.177
247.281
243.614
240.254
237.256
234.706
232.646
231.156
230.247
229.96
230.214
230.989
232.128
233.523
234.861
235.972
236.542
236.502
235.607
233.959
231.481
228.485
224.886
221.011
216.726
212.493
208.09
203.91
199.509
195.317
190.93
186.883
182.7
178.665
174.293
169.756
165.021
160.18
155.614
151.152
147.466
144.13
141.873
139.882
139.118
138.503
139.758
140.845
143.921
145.558
147.836
148.296
148.11
147.917
146.419
146.326
144.922
145.132
255.225
255.7
256.424
258.121
261.065
265.617
271.557
278.927
286.984
295.611
304.108
312.186
319.133
324.786
329.297
332.784
335.399
337.408
338.932
340.053
340.887
341.221
341.126
340.651
339.843
338.739
337.327
335.655
333.702
331.465
328.913
326.025
322.807
319.195
315.17
310.862
306.325
301.642
296.892
292.17
287.553
283.128
278.961
275.139
271.727
268.808
266.434
264.691
263.601
263.205
263.44
264.265
265.506
267.04
268.58
269.899
270.622
270.602
269.597
267.662
264.699
260.974
256.513
251.696
246.467
241.181
235.673
230.378
225.006
219.943
214.712
209.806
204.728
200.084
195.295
190.819
186.017
181.295
176.278
171.4
166.562
162.264
158.566
155.969
154.216
153.603
153.882
155.301
158.054
161.477
165.637
168.755
170.697
171.485
170.171
170.116
167.584
167.955
165.731
166.876
326.392
325.725
325.699
327.006
329.867
334.206
339.774
346.309
353.341
360.723
368.096
375.087
381.479
387.117
391.997
396.047
399.419
401.992
403.874
405.151
405.925
406.199
406.052
405.444
404.429
402.911
400.975
398.579
395.761
392.471
388.725
384.516
379.846
374.756
369.315
363.647
357.743
351.706
345.638
339.656
333.863
328.372
323.272
318.682
314.691
311.392
308.834
307.1
306.183
306.044
306.506
307.404
308.448
309.384
309.801
309.436
308.008
305.505
301.857
297.278
291.846
285.915
279.572
273.176
266.664
260.328
253.972
247.921
241.863
236.16
230.358
224.947
219.425
214.399
209.273
204.592
199.637
194.96
189.969
185.359
180.735
177.129
174.191
173.061
172.75
174.339
176.654
180.886
185.842
191.717
196.647
200.359
201.126
201.405
198.57
198.417
194.722
195.736
192.626
195.224
385.159
384.668
384.947
386.678
390.15
395.279
401.944
409.781
418.517
427.476
436.212
444.402
451.819
458.354
463.929
468.58
472.322
475.237
477.309
478.619
479.139
478.93
478.01
476.415
474.144
471.216
467.702
463.57
458.922
453.753
448.112
442.061
435.62
428.893
421.993
414.924
407.785
400.694
393.734
386.997
380.572
374.557
369.045
364.173
360.043
356.732
354.282
352.75
352.071
352.085
352.478
352.941
353.063
352.47
350.77
347.841
343.613
338.252
331.89
324.865
317.365
309.747
302.104
294.708
287.471
280.561
273.733
267.236
260.791
254.709
248.611
242.932
237.214
232.017
226.813
222.144
217.303
212.873
208.216
204.186
200.336
198.03
196.757
197.9
200.064
204.671
209.941
217.473
224.766
232.347
236.987
239.908
238.705
237.84
233.513
233.238
228.576
230.566
226.668
231.34
455.499
455.36
456.07
458.397
462.703
468.943
476.909
486.301
496.625
507.469
518.217
528.46
537.87
546.128
553.069
558.608
562.695
565.372
566.597
566.486
564.981
562.29
558.428
553.572
547.787
541.28
534.19
526.688
518.878
510.875
502.768
494.649
486.565
478.555
470.626
462.726
455.014
447.556
440.394
433.599
427.253
421.444
416.275
411.89
408.375
405.761
404.042
403.201
403.06
403.294
403.44
403.038
401.589
398.734
394.324
388.475
381.356
373.298
364.595
355.641
346.661
337.951
329.572
321.689
314.134
306.935
299.868
293.138
286.527
280.26
274.053
268.271
262.524
257.297
252.205
247.737
243.25
239.285
235.323
232.309
229.983
229.845
231.378
235.824
241.615
250.052
259.022
269.788
278.671
286.353
289.181
290
286.422
284.239
278.778
278.594
273.389
276.785
272.297
279.764
547.076
547.438
548.858
552.296
558.284
566.784
577.615
590.332
604.375
619.006
633.394
646.842
658.744
668.462
675.786
680.487
682.591
682.146
679.334
674.385
667.527
659.181
649.551
639.053
627.925
616.52
604.989
593.626
582.441
571.674
561.354
551.522
542.166
533.295
524.889
516.891
509.286
502.081
495.308
489.041
483.375
478.404
474.241
471.02
468.775
467.437
466.896
466.993
467.395
467.603
467.011
465.048
461.254
455.548
448.113
439.287
429.455
419.067
408.492
398.12
388.174
378.847
370.158
362.087
354.394
347.054
339.914
333.106
326.469
320.142
313.939
308.161
302.487
297.324
292.511
288.462
284.633
281.473
278.757
277.535
277.908
281.295
287.148
296.183
306.733
319.612
332.421
345.234
353.882
359.438
359.019
356.983
351.173
347.954
341.957
342.298
337.097
342.358
337.599
348.65
688.256
689.315
691.757
696.939
705.673
717.961
733.505
751.512
771.086
790.676
809.191
825.11
837.533
845.595
849.218
848.257
843.211
834.469
822.812
808.809
793.241
776.662
759.625
742.627
725.981
709.922
694.573
680.122
666.495
653.854
642.127
631.286
621.242
611.986
603.526
595.757
588.572
581.969
575.984
570.698
566.223
562.65
560.077
558.583
558.086
558.339
559.05
559.879
560.336
559.781
557.527
553.025
546.141
537.171
526.573
514.865
502.576
490.223
478.193
466.792
456.232
446.633
437.836
429.663
421.935
414.613
407.555
400.808
394.277
388.013
381.921
376.263
370.768
365.795
361.502
358.263
355.632
353.963
353.52
355.584
360.643
369.628
381.688
396.586
412.585
429.813
445.088
457.268
463.004
464.213
459.854
454.918
447.549
443.894
438.165
439.601
435.007
442.671
437.977
453.552
930.651
932.688
936.613
944.584
957.807
976.17
998.641
1023.68
1049.15
1072.48
1092.01
1105.14
1111.16
1109.54
1101
1086.18
1066.7
1043.64
1018.57
992.477
966.467
941.064
916.781
893.873
872.635
852.968
834.998
818.684
803.841
790.414
778.241
767.218
757.212
748.225
740.27
733.175
726.801
721.19
716.432
712.636
709.92
708.347
707.938
708.621
710.1
711.858
713.35
714.071
713.451
710.808
705.513
697.399
686.816
674.309
660.517
646.065
631.557
617.495
604.312
592.233
581.409
571.674
562.791
554.641
547.121
540.1
533.411
527.023
520.887
514.976
509.258
504.01
498.974
494.54
491.322
489.76
489.508
490.852
494.743
502.909
515.812
533.09
552.943
574.034
594.971
614.392
628.458
636.11
636.161
631.683
623.688
616.385
608.593
605.26
600.813