/*--------------------------------*- C++ -*----------------------------------*\
| =========                 |                                                 |
| \\      /  F ield         | OpenFOAM: The Open Source CFD Toolbox           |
|  \\    /   O peration     | Version:  v2012                                 |
|   \\  /    A nd           | Website:  www.openfoam.com                      |
|    \\/     M anipulation  |                                                 |
\*---------------------------------------------------------------------------*/
FoamFile
{
    version     2.0;
    format      ascii;
    class       Cloud<basicKinematicParcel>;
    location    "0.1/lagrangian/kinematicCloud";
    object      coordinates;
}
// * * * * * * * * * * * * * * * * * * * * * * * * * * * * * * * * * * * * * //

103
(
(0.260259 0.369871 0.133248 0.236623) 137 301 2
(0.0121751 0.292553 0.493912 0.201359) 442 972 2
(0.0537598 0.47312 0.415543 0.0575771) 642 1370 1
(0.760134 0.0761222 0.0438106 0.119933) 339 766 1
(0.0947901 0.452605 0.225578 0.227027) 840 1764 1
(0.406925 0.170707 0.296538 0.125831) 739 1563 2
(0.225449 0.16352 0.223755 0.387275) 120 250 1
(0.211243 0.353736 0.0406425 0.394379) 937 1956 1
(0.0949731 0.0610294 0.391484 0.452513) 936 1954 1
(0.357336 0.321332 0.027922 0.29341) 536 960 1
(0.100093 0.0165651 0.433388 0.449953) 435 957 1
(0.760611 0.0419717 0.0777229 0.119695) 333 754 1
(0.0940607 0.140822 0.45297 0.312147) 94 7622 2
(0.0447131 0.477643 0.377287 0.100357) 4 7504 2
(0.000554489 0.342497 0.499723 0.157226) 1014 2094 1
(0.248627 0.375686 0.192823 0.182863) 632 1347 2
(0.104923 0.447539 0.246079 0.201459) 226 269 1
(5.88837e-05 0.499971 0.222265 0.277705) 1028 2109 2
(0.759921 0.12004 0.00470529 0.115334) 327 740 2
(0.943604 0.00938729 0.0188109 0.0281982) 929 1742 2
(0.565517 0.048968 0.168274 0.217242) 828 1739 1
(0.571736 0.197436 0.214132 0.0166959) 1005 7633 2
(0.0257472 0.487126 0.469435 0.0176914) 827 1738 1
(0.0527858 0.0233416 0.450265 0.473607) 222 533 1
(0.453657 0.273172 0.0354148 0.237757) 525 1136 2
(0.0416871 0.479156 0.242574 0.236583) 825 1734 1
(0.372306 0.313847 0.0477647 0.266083) 321 730 2
(0.802584 0.098708 0.0292996 0.0694083) 924 1732 1
(0.554981 0.222509 0.0914709 0.131039) 208 503 2
(0.285364 0.323698 0.357318 0.03362) 923 1929 2
(0.129201 0.435399 0.0447478 0.390652) 4 7504 2
(0.181181 0.409409 0.0638 0.345609) 216 519 2
(0.294959 0.134343 0.218178 0.352521) 1001 2082 1
(0.560386 0.219807 0.206506 0.013301) 720 1522 2
(0.365611 0.317195 0.190787 0.126407) 419 923 2
(0.766364 0.0268126 0.0900055 0.116818) 819 1523 2
(0.375354 0.119162 0.312323 0.193161) 518 1123 2
(0.0981252 0.120586 0.450937 0.330352) 518 1120 1
(0.656523 0.171738 0.0465575 0.125181) 817 1715 2
(0.342211 0.328894 0.0687284 0.260166) 8 16 2
(0.291576 0.354212 0.000797659 0.353415) 415 918 1
(0.203972 0.398014 0.0105296 0.387484) 815 1515 1
(0.664011 0.108076 0.0599184 0.167995) 312 514 2
(0.248331 0.375834 0.0329151 0.342919) 412 911 2
(0.175757 0.181696 0.230426 0.412122) 512 912 2
(0.519476 0.0651463 0.240262 0.175116) 712 1506 1
(0.862049 0.0461086 0.0689753 0.0228668) 911 1905 2
(0.351437 0.324282 0.133673 0.190608) 610 1305 2
(0.103241 0.171575 0.44838 0.276805) 510 1104 1
(0.332266 0.333867 0.310915 0.0229522) 909 1702 1
(0.693718 0.012502 0.153141 0.140639) 207 504 2
(0.0775314 0.0655864 0.461234 0.395648) 408 901 1
(0.148258 0.35387 0.425871 0.0720007) 907 1897 2
(0.52251 0.238745 0.170267 0.0684777) 6 7506 2
(0.00991454 0.495043 0.22285 0.272193) 706 1497 1
(0.0833602 0.16302 0.2953 0.45832) 805 1495 2
(0.191089 0.404456 0.13258 0.271876) 1005 1893 1
(0.567165 0.0583512 0.158066 0.216418) 604 1095 2
(0.109511 0.445244 0.285752 0.159492) 504 1092 2
(0.539646 0.0591982 0.170979 0.230177) 603 1093 2
(0.452864 0.103511 0.273568 0.170057) 903 1886 1
(0.677168 0.112653 0.0487636 0.161416) 602 1289 1
(0.414312 0.13872 0.292844 0.154124) 602 1287 1
(0.414705 0.292648 0.0214228 0.271225) 901 1884 2
(0.75386 0.12307 0.0801723 0.0428977) 99 178 1
(0.076482 0.0721074 0.389652 0.461759) 700 1286 2
(0.841306 0.0793472 0.0116521 0.0676951) 300 689 1
(0.16657 0.290557 0.416715 0.126158) 8 14 1
(0.851503 0.0389151 0.0353332 0.0742484) 39 79 1
(0.0959088 0.452046 0.32545 0.126595) 49 98 1
(0.304072 0.139049 0.208915 0.347964) 78 137 2
(0.367935 0.316032 0.26097 0.0550623) 68 134 2
(0.252707 0.214481 0.159165 0.373646) 17 15 2
(0.0675106 0.466245 0.319605 0.14664) 77 155 1
(0.200619 0.186272 0.213419 0.399691) 96 173 2
(0.506187 0.225615 0.246907 0.0212914) 92 7620 2
(0.171555 0.414222 0.248482 0.16574) 94 184 2
(0.72241 0.0268624 0.138795 0.111933) 35 68 1
(0.0146773 0.492661 0.0542905 0.438371) 94 183 2
(0.354642 0.167319 0.322679 0.15536) 84 169 2
(0.190604 0.404698 0.203116 0.201582) 64 109 1
(0.0451161 0.381057 0.477442 0.0963848) 64 126 1
(0.644502 0.042113 0.177749 0.135636) 53 107 2
(0.614239 0.192881 0.00577272 0.187108) 63 107 1
(0.315879 0.298246 0.34206 0.0438141) 92 181 1
(0.231044 0.194297 0.384478 0.190182) 32 65 2
(0.659403 0.170299 0.0889074 0.0813911) 52 105 1
(0.318217 0.340892 0.284803 0.0560889) 42 85 1
(0.301101 0.349449 0.214909 0.13454) 61 122 2
(0.48618 0.0889704 0.16794 0.25691) 21 23 2
(0.753687 0.12301 0.123156 0.000146542) 31 63 2
(0.0597295 0.470135 0.32671 0.143425) 91 163 1
(0.20496 0.39752 0.367345 0.030175) 0 7500 2
(0.0165205 0.49174 0.414764 0.0769754) 40 80 2
(0.0767251 0.160448 0.461637 0.301189) 80 161 2
(0.298208 0.232159 0.118737 0.350896) 20 21 2
(0.78246 0.10877 0.0822234 0.0265465) 70 140 2
(0.39986 0.30007 0.185246 0.114823) 20 21 1
(0.139349 0.430325 0.179463 0.250862) 0 7500 2
(0.363252 0.318374 0.00736782 0.311006) 50 81 1
(0.524493 0.237754 0.193779 0.0439748) 60 121 1
(0.351314 0.324343 0.0200001 0.304343) 10 7473 1
(0.151045 0.424477 0.331654 0.0928234) 40 7476 1
)


// ************************************************************************* //
