/*--------------------------------*- C++ -*----------------------------------*\
| =========                 |                                                 |
| \\      /  F ield         | OpenFOAM: The Open Source CFD Toolbox           |
|  \\    /   O peration     | Version:  v2012                                 |
|   \\  /    A nd           | Website:  www.openfoam.com                      |
|    \\/     M anipulation  |                                                 |
\*---------------------------------------------------------------------------*/
FoamFile
{
    version     2.0;
    format      ascii;
    class       vectorField;
    location    "0.1/lagrangian/kinematicCloud";
    object      U;
}
// * * * * * * * * * * * * * * * * * * * * * * * * * * * * * * * * * * * * * //


103
(
(6.94022 -0.105551 0)
(7.80488 -0.0244306 0)
(7.78334 -0.0169212 0)
(7.51912 -0.0370194 0)
(7.70394 -0.00792081 0)
(7.72051 -0.0122614 0)
(5.39252 -0.142138 0)
(7.62418 -0.00420483 0)
(7.57589 -0.00458728 0)
(7.62538 -0.0122713 0)
(7.60949 -0.0134045 0)
(7.28829 -0.0361544 0)
(0.440585 -1.61161e-05 0)
(0.381188 4.55231e-06 0)
(4.38923 0.00143583 0)
(7.54833 -0.00660985 0)
(6.38707 -0.0993476 0)
(7.08493 -0.00364939 0)
(6.94882 -0.039011 0)
(7.41069 -0.00130787 0)
(7.41384 -0.00350486 0)
(2.81423 0.00761596 0)
(7.35737 -0.00115849 0)
(6.50119 -0.0658018 0)
(7.30217 0.00278264 0)
(7.31341 -0.000722465 0)
(6.54969 -0.0538194 0)
(7.27238 0.000301222 0)
(3.7664 0.137887 0)
(7.22677 -0.000516947 0)
(0.473803 1.73327e-05 0)
(5.57277 -0.0939268 0)
(2.11338 0.00297141 0)
(7.16952 0.00531145 0)
(6.81924 -0.00432114 0)
(7.12416 0.00278697 0)
(7.09757 0.0114272 0)
(7.06322 0.0138205 0)
(7.03847 0.00613623 0)
(1.50912 0.000793232 0)
(6.79033 0.0260737 0)
(6.92664 0.0156549 0)
(5.85495 0.0155476 0)
(6.34946 0.0472262 0)
(6.65493 0.0652155 0)
(6.70463 0.0408578 0)
(6.59631 0.0211981 0)
(6.52444 0.0863663 0)
(6.38458 0.112794 0)
(6.25775 0.0420083 0)
(4.75486 0.144562 0)
(5.84343 0.177698 0)
(5.79462 0.0304401 0)
(1.39779 0.000195744 0)
(5.44564 0.0895017 0)
(5.2866 0.0869619 0)
(5.09017 0.0247325 0)
(4.93374 0.126862 0)
(4.73472 0.14141 0)
(4.60997 0.106258 0)
(4.48545 0.0260975 0)
(4.30972 0.0735887 0)
(4.17934 0.0595267 0)
(4.0871 0.0200778 0)
(3.05766 0.00123164 0)
(3.8408 0.0264956 0)
(3.69548 0.0278839 0)
(2.82116 0.00118774 0)
(3.51981 0.0121293 0)
(3.43849 0.00953988 0)
(3.34997 0.00473214 0)
(3.24976 0.00403092 0)
(3.14628 0.00170335 0)
(3.06553 0.0011552 0)
(2.92103 6.76494e-07 0)
(0.909899 -0.000145216 0)
(2.30844 -0.000326567 0)
(2.67602 0.000610123 0)
(1.86606 -0.000329394 0)
(2.48344 -0.000307702 0)
(2.38513 0.000127217 0)
(2.28566 0.000107461 0)
(2.18805 -6.75766e-05 0)
(2.08778 5.36859e-05 0)
(1.21275 -0.000164214 0)
(1.88885 1.26528e-05 0)
(1.78802 -4.43291e-05 0)
(1.68683 -1.65662e-05 0)
(1.5849 2.79385e-05 0)
(1.48223 -5.08439e-05 0)
(1.37926 -1.52321e-06 0)
(1.27478 -0.000110941 0)
(0.311931 4.47408e-06 0)
(1.06704 1.4081e-05 0)
(0.962105 -5.3523e-05 0)
(0.856185 -1.13701e-05 0)
(0.749891 -1.41124e-05 0)
(0.642674 -4.08526e-06 0)
(0.133365 1.34984e-06 0)
(0.427403 2.11967e-06 0)
(0.318656 1.40047e-06 0)
(0.209355 -8.21253e-07 0)
(0.0994262 3.51013e-07 0)
)


// ************************************************************************* //
