/*--------------------------------*- C++ -*----------------------------------*\
| =========                 |                                                 |
| \\      /  F ield         | OpenFOAM: The Open Source CFD Toolbox           |
|  \\    /   O peration     | Version:  v2012                                 |
|   \\  /    A nd           | Website:  www.openfoam.com                      |
|    \\/     M anipulation  |                                                 |
\*---------------------------------------------------------------------------*/
FoamFile
{
    version     2.0;
    format      ascii;
    class       volScalarField;
    location    "0.354";
    object      nut.air;
}
// * * * * * * * * * * * * * * * * * * * * * * * * * * * * * * * * * * * * * //

dimensions      [0 2 -1 0 0 0 0];


internalField   nonuniform List<scalar> 
5600
(
2.45137e-05
3.47343e-05
4.04099e-05
4.24622e-05
4.22723e-05
4.09699e-05
3.92094e-05
3.75386e-05
3.61135e-05
3.49465e-05
3.40612e-05
3.34371e-05
3.30371e-05
3.28048e-05
3.26958e-05
3.26597e-05
3.26714e-05
3.2698e-05
3.27371e-05
3.27663e-05
3.28012e-05
3.28209e-05
3.28513e-05
3.28751e-05
3.29122e-05
3.29409e-05
3.298e-05
3.30113e-05
3.30505e-05
3.30788e-05
3.31119e-05
3.31318e-05
3.31556e-05
3.3166e-05
3.31822e-05
3.31859e-05
3.3197e-05
3.31964e-05
3.32045e-05
3.32013e-05
3.3208e-05
3.32039e-05
3.32107e-05
3.32064e-05
3.32142e-05
3.32106e-05
3.32199e-05
3.32168e-05
3.32272e-05
3.3224e-05
3.32355e-05
3.32323e-05
3.32444e-05
3.32414e-05
3.3255e-05
3.3252e-05
3.32672e-05
3.32646e-05
3.32816e-05
3.32796e-05
3.32988e-05
3.32966e-05
3.33181e-05
3.33158e-05
3.33395e-05
3.33365e-05
3.33628e-05
3.33592e-05
3.33881e-05
3.33833e-05
3.34153e-05
3.3409e-05
3.34444e-05
3.34363e-05
3.34754e-05
3.34653e-05
3.35082e-05
3.3496e-05
3.35422e-05
3.35284e-05
3.35768e-05
3.35628e-05
3.36106e-05
3.36003e-05
3.36415e-05
3.36436e-05
3.36648e-05
3.3699e-05
3.3671e-05
3.37817e-05
3.364e-05
3.39263e-05
3.35128e-05
3.42325e-05
3.31012e-05
3.50347e-05
3.17314e-05
3.75746e-05
2.64754e-05
4.71722e-05
0.000151655
0.00013741
0.000112244
9.86284e-05
9.3899e-05
9.49507e-05
0.0001021
0.000110118
0.000116486
0.000124313
0.000132733
0.000141231
0.000149476
0.000157248
0.000164432
0.000170934
0.000176813
0.000182054
0.000186793
0.000191042
0.00019501
0.000198592
0.000202118
0.000205339
0.000208509
0.00021131
0.000214078
0.000216511
0.000218891
0.00022089
0.000222823
0.000224386
0.000225926
0.00022715
0.000228416
0.000229394
0.000230458
0.000231251
0.000232167
0.000232822
0.000233634
0.000234191
0.000234932
0.000235413
0.000236126
0.000236567
0.000237249
0.000237636
0.000238277
0.000238606
0.000239217
0.000239487
0.000240079
0.000240311
0.000240888
0.000241081
0.000241664
0.000241824
0.000242417
0.000242554
0.000243154
0.000243255
0.000243875
0.000243936
0.00024458
0.000244599
0.00024527
0.000245246
0.00024595
0.000245871
0.000246625
0.000246488
0.000247296
0.000247094
0.000247966
0.000247693
0.000248634
0.000248288
0.000249296
0.000248879
0.00024994
0.00024947
0.000250546
0.000250076
0.000251083
0.00025074
0.000251491
0.000251555
0.00025165
0.00025275
0.000251289
0.000254692
0.00024981
0.000258251
0.000245746
0.000265729
0.000235373
0.000282693
0.000209819
0.000288144
0.000156518
0.000151561
0.000143043
0.000135159
0.000125255
0.000120723
0.000113773
0.000109698
0.000108718
0.000109798
0.000112693
0.000117421
0.000123689
0.00013136
0.000140262
0.000150357
0.000161497
0.000173777
0.000187124
0.000201699
0.000217069
0.000232803
0.000246169
0.000258351
0.000270147
0.000281003
0.000290615
0.000298316
0.000305526
0.000311689
0.000317727
0.000322969
0.000328301
0.000332833
0.000337504
0.000341389
0.000345493
0.000348844
0.000352499
0.000355427
0.000358735
0.000361327
0.000364364
0.000366683
0.000369497
0.000371535
0.000374113
0.000375891
0.000378273
0.000379832
0.000382066
0.00038344
0.000385566
0.000386787
0.000388838
0.00038992
0.00039192
0.000392871
0.000394837
0.000395662
0.000397607
0.000398304
0.000400246
0.00040081
0.000402766
0.000403195
0.000405183
0.000405472
0.000407514
0.00040766
0.000409777
0.000409766
0.000411987
0.000411793
0.000414146
0.00041374
0.000416256
0.000415601
0.00041831
0.000417365
0.000420306
0.000419028
0.000422252
0.000420595
0.000424165
0.000422067
0.000426072
0.000423435
0.000428019
0.000424655
0.000430105
0.000425586
0.000432584
0.000425889
0.00043612
0.00042482
0.000442234
0.000421306
0.000431759
0.000409201
0.00015782
0.000153991
0.0001501
0.000146745
0.000142722
0.000139186
0.00013563
0.00013142
0.000128288
0.000124804
0.000123098
0.000119897
0.000117483
0.000115641
0.000115608
0.000116673
0.000119883
0.000124563
0.000131364
0.000139701
0.000150247
0.000162276
0.000176366
0.000191121
0.000207229
0.000223405
0.000238991
0.000252579
0.000266719
0.000279634
0.000293134
0.000305202
0.000317791
0.000329047
0.00034071
0.000351048
0.000361826
0.000371315
0.000381297
0.000389949
0.00039911
0.000406849
0.000415357
0.000422013
0.000428658
0.000433756
0.000439809
0.000444314
0.000449912
0.000453928
0.000459173
0.000462773
0.000467741
0.000470979
0.000475727
0.000478636
0.000483214
0.000485822
0.00049027
0.000492593
0.000496943
0.000498984
0.000503269
0.000505031
0.000509283
0.000510767
0.000515024
0.000516223
0.000520528
0.000521431
0.000525824
0.000526412
0.000530936
0.000531169
0.000535878
0.000535706
0.000540672
0.000540001
0.000545293
0.000544029
0.000549767
0.000547793
0.000554139
0.000551293
0.000558467
0.000554506
0.000562835
0.000557378
0.000567349
0.000559824
0.000572157
0.000561724
0.000577417
0.000563064
0.00058311
0.000564223
0.000588512
0.000566595
0.000591913
0.00057179
0.00015812
0.000154599
0.000151655
0.000149046
0.000146778
0.000144434
0.000142543
0.000140272
0.000138566
0.00013634
0.000134866
0.000132734
0.000131158
0.000128895
0.000127413
0.000125345
0.000124321
0.000121669
0.000121106
0.000119631
0.000120912
0.000121774
0.000125818
0.000129862
0.000137193
0.000144574
0.000155146
0.000165619
0.000178872
0.00019187
0.000207205
0.000222008
0.000235664
0.000247558
0.000261114
0.000273005
0.000286524
0.000298281
0.000311711
0.000323293
0.000336536
0.000347855
0.000360887
0.000371804
0.000384287
0.000394469
0.000406252
0.000415671
0.000426838
0.000435562
0.000446215
0.000454287
0.000464464
0.000471904
0.000481782
0.000488656
0.000498181
0.000504498
0.000513728
0.000519478
0.000528465
0.000533642
0.00054243
0.000547025
0.00055565
0.000559679
0.000568213
0.000571682
0.000580191
0.000583124
0.000591694
0.000594111
0.000602744
0.00060464
0.000613387
0.000614656
0.000622777
0.000622869
0.000631334
0.000630609
0.000639583
0.000637913
0.000647586
0.000644803
0.000655398
0.000651298
0.00066307
0.000657406
0.000670618
0.000663197
0.00067797
0.000668868
0.000684848
0.000674883
0.000690515
0.000682035
0.000694419
0.000691067
0.000696396
0.000700604
0.000158191
0.00015477
0.00015206
0.000149654
0.00014775
0.000145799
0.000144371
0.000142618
0.000141522
0.00013982
0.000139006
0.000137273
0.000136744
0.000134885
0.000134647
0.000132597
0.000132696
0.000130312
0.000130609
0.000127926
0.000128535
0.000125736
0.000126863
0.000123995
0.000125376
0.000123044
0.000125516
0.000124618
0.00012885
0.000130129
0.000136651
0.000140584
0.000149636
0.000156047
0.000167244
0.000175811
0.000188911
0.000199301
0.000214057
0.000225954
0.000242105
0.000251827
0.000264419
0.000274131
0.00028713
0.000297097
0.000310326
0.000320338
0.000333661
0.000343601
0.000356971
0.000366772
0.000380142
0.000389772
0.00040323
0.000412607
0.00042588
0.000434781
0.000447833
0.000456139
0.000468967
0.000476686
0.000489339
0.00049647
0.000508984
0.000515567
0.000527973
0.000534024
0.000546494
0.000552185
0.000564713
0.000569828
0.000582324
0.000586853
0.000599335
0.000603252
0.000615726
0.00061896
0.00063142
0.000633925
0.000646325
0.000648226
0.000660495
0.000661985
0.000673944
0.000675296
0.000686669
0.00068829
0.000698582
0.000701106
0.000709573
0.000713784
0.000719936
0.000726168
0.000729998
0.000737465
0.000740979
0.000746748
0.00075529
0.000761698
0.000158212
0.000154826
0.000152182
0.000149837
0.000148036
0.000146181
0.000144908
0.000143276
0.000142397
0.000140831
0.000140293
0.000138687
0.000138471
0.000136754
0.000136858
0.000134968
0.000135411
0.000133297
0.000134094
0.000131699
0.000132878
0.000130159
0.000131762
0.000128675
0.000130683
0.000127192
0.000129671
0.000125833
0.000128853
0.00012484
0.000128409
0.000124214
0.000128376
0.000124614
0.000129678
0.000126912
0.000133159
0.000131935
0.000139629
0.000140382
0.000149732
0.000152659
0.00016358
0.00016837
0.000180757
0.000187242
0.000200988
0.000208946
0.000223898
0.000233075
0.000249072
0.00025922
0.000275433
0.00028242
0.000295168
0.000302526
0.000315672
0.000323206
0.00033664
0.00034428
0.000357959
0.000365633
0.000379496
0.000387152
0.000401188
0.00040878
0.000422966
0.000430421
0.000444854
0.000452246
0.000466805
0.000473944
0.000488463
0.000495253
0.00050965
0.000516071
0.000530309
0.000536457
0.000550475
0.000556389
0.000570062
0.000575864
0.000589095
0.000594934
0.000607591
0.000613719
0.000625394
0.000632151
0.000642562
0.000650197
0.000659175
0.000667836
0.000675473
0.000684738
0.000691697
0.000700711
0.000708306
0.000716688
0.000726374
0.000738966
0.000158218
0.000154849
0.000152221
0.000149907
0.000148126
0.00014632
0.000145068
0.000143509
0.000142652
0.000141185
0.000140664
0.000139195
0.000138976
0.000137443
0.000137514
0.000135858
0.000136231
0.000134397
0.000135092
0.000133034
0.000134072
0.000131747
0.000133155
0.00013052
0.000132332
0.000129341
0.00013159
0.000128216
0.000130923
0.000127154
0.000130347
0.000126141
0.000129851
0.000125191
0.000129478
0.00012439
0.00012927
0.000123869
0.000129349
0.000123675
0.000129658
0.000124018
0.000130635
0.000125396
0.000132735
0.000128301
0.000136473
0.000133239
0.000142369
0.000140651
0.000150857
0.000150853
0.000162208
0.000163971
0.000176316
0.000179584
0.000192891
0.000197561
0.000211776
0.000217731
0.000232776
0.000239874
0.000255643
0.000263713
0.000280102
0.000288966
0.00030587
0.00031246
0.000325207
0.000330788
0.000343566
0.000349568
0.0003625
0.000368976
0.000381905
0.000388922
0.000401769
0.000409186
0.000421905
0.000429815
0.000442306
0.000450749
0.0004629
0.000471939
0.00048365
0.000493363
0.000504555
0.000514953
0.000525637
0.000536676
0.000547021
0.000558555
0.000568604
0.000580622
0.000590504
0.000603164
0.000612908
0.000627056
0.000637432
0.000655475
0.000158218
0.000154864
0.00015223
0.000149946
0.000148145
0.000146395
0.0001451
0.00014363
0.000142703
0.000141365
0.000140734
0.00013945
0.000139068
0.000137787
0.000137632
0.000136303
0.000136379
0.000134959
0.000135267
0.00013373
0.000134271
0.000132589
0.000133375
0.000131516
0.000132566
0.000130503
0.000131826
0.000129549
0.000131138
0.000128646
0.000130511
0.000127776
0.000129954
0.000126933
0.000129455
0.000126148
0.000128996
0.000125431
0.000128601
0.000124773
0.000128274
0.000124179
0.000128032
0.00012368
0.000127904
0.000123322
0.000127928
0.000123175
0.000128177
0.000123282
0.000128598
0.000123751
0.000129418
0.000124843
0.000130886
0.000126846
0.000133323
0.000130079
0.000137041
0.000134856
0.000142377
0.000141477
0.000149628
0.000150162
0.000159022
0.000161079
0.000170703
0.000174307
0.000184565
0.000189499
0.000200291
0.000206512
0.000217782
0.000225259
0.000236982
0.000245642
0.000257774
0.000267512
0.000279996
0.000290723
0.000303479
0.000315086
0.000328019
0.000340393
0.000353443
0.000366473
0.000379579
0.00039315
0.000406266
0.000420256
0.000432796
0.000447368
0.000460014
0.000475048
0.000488175
0.000502597
0.000515523
0.000529991
0.000542442
0.000556692
0.000158216
0.000154875
0.000152227
0.000149974
0.000148139
0.000146447
0.00014509
0.000143711
0.000142686
0.000141484
0.000140708
0.000139614
0.00013903
0.000138003
0.000137581
0.00013658
0.000136312
0.000135307
0.000135178
0.000134159
0.000134156
0.000133108
0.000133232
0.000132133
0.00013239
0.000131226
0.000131609
0.000130388
0.000130875
0.000129605
0.000130194
0.000128856
0.000129568
0.00012814
0.000128977
0.000127477
0.000128403
0.000126859
0.00012786
0.000126273
0.000127352
0.000125722
0.000126877
0.000125207
0.000126438
0.000124736
0.000126041
0.000124317
0.000125688
0.000123977
0.000125372
0.000123712
0.000125129
0.000123555
0.00012497
0.000123525
0.000124954
0.000123669
0.00012513
0.000124052
0.000125568
0.000124789
0.000126392
0.00012595
0.000127688
0.000127712
0.000129736
0.000130365
0.000132752
0.000134182
0.000137042
0.000139465
0.000142881
0.000146401
0.000150551
0.000155269
0.000160298
0.000166257
0.000172251
0.000179527
0.000186587
0.000195191
0.000203348
0.000213236
0.000222513
0.000233645
0.000244013
0.000256278
0.000267677
0.000280987
0.000293401
0.000307644
0.000321015
0.000336125
0.000350332
0.00036605
0.000380879
0.000396989
0.00041225
0.000428429
0.000158214
0.000154881
0.000152219
0.000149987
0.000148123
0.000146468
0.000145065
0.000143744
0.000142647
0.000141532
0.000140652
0.00013968
0.000138956
0.000138087
0.000137488
0.000136685
0.000136194
0.000135437
0.000135034
0.000134317
0.000133982
0.000133296
0.000133027
0.000132352
0.000132151
0.00013148
0.000131336
0.000130674
0.00013057
0.000129923
0.000129855
0.000129211
0.00012919
0.000128536
0.000128561
0.00012791
0.000127956
0.000127327
0.000127389
0.000126777
0.000126857
0.000126268
0.000126365
0.000125799
0.000125919
0.000125381
0.00012553
0.000125022
0.000125197
0.000124747
0.000124934
0.000124562
0.000124773
0.000124515
0.000124739
0.000124637
0.000124906
0.000124983
0.000125354
0.000125622
0.000126105
0.00012666
0.00012733
0.00012829
0.000129261
0.000130732
0.000132186
0.000134287
0.000136335
0.000139226
0.000142008
0.000145841
0.000149474
0.000154331
0.000158963
0.000164925
0.000170659
0.000177767
0.000184655
0.000192948
0.000201043
0.000210524
0.000219822
0.000230339
0.00024064
0.000252116
0.000263374
0.000275749
0.000287914
0.000301123
0.000314171
0.000328135
0.000341981
0.000356595
0.000371172
0.00038639
0.000401671
0.000417449
0.000433479
0.00044993
0.000158211
0.00015488
0.000152208
0.000149981
0.000148101
0.000146456
0.000145027
0.000143726
0.000142588
0.000141507
0.00014057
0.000139643
0.000138849
0.000138036
0.000137351
0.000136618
0.000136024
0.000135353
0.000134827
0.000134213
0.000133735
0.000133169
0.000132735
0.000132203
0.000131812
0.000131306
0.000130951
0.000130472
0.000130146
0.000129695
0.000129395
0.000128969
0.0001287
0.000128296
0.00012806
0.000127692
0.000127483
0.000127165
0.000126983
0.000126715
0.000126575
0.000126379
0.000126298
0.000126198
0.000126208
0.000126248
0.000126397
0.000126578
0.000126869
0.000127294
0.000127854
0.000128672
0.000129671
0.000131048
0.000132651
0.000134775
0.000137173
0.000140212
0.000143591
0.000147695
0.000152207
0.000157491
0.000163224
0.000169764
0.000176769
0.000184505
0.000192563
0.000201313
0.000210373
0.000220109
0.000230123
0.000240796
0.000251692
0.000263216
0.000274911
0.000287192
0.000299581
0.000312505
0.000325468
0.000338923
0.00035235
0.000366227
0.000377432
0.000387775
0.000398226
0.000408897
0.000419948
0.000431316
0.000442909
0.00045494
0.000467244
0.000479982
0.000493015
0.000506518
0.00052032
0.000534592
0.000549014
0.000563783
0.000578116
0.000592448
0.000158208
0.000154872
0.00015219
0.000149958
0.000148061
0.00014641
0.000144958
0.000143651
0.00014248
0.000141395
0.000140415
0.000139485
0.000138639
0.000137821
0.000137077
0.00013634
0.000135677
0.000135002
0.000134402
0.000133781
0.000133226
0.000132654
0.000132139
0.000131607
0.000131129
0.000130632
0.000130192
0.000129733
0.00012934
0.000128923
0.00012857
0.000128194
0.000127913
0.000127612
0.000127447
0.000127283
0.000127308
0.000127349
0.000127524
0.000127863
0.000128475
0.000129372
0.000130681
0.000132411
0.000134708
0.000137559
0.000141113
0.000145349
0.000150384
0.000156173
0.000162809
0.000170191
0.000178221
0.000186972
0.000196332
0.00020637
0.000216962
0.000228175
0.000239876
0.000252122
0.000264781
0.000277901
0.000291356
0.00030519
0.000317297
0.000326974
0.000336685
0.000346555
0.000356604
0.000366786
0.000377153
0.000387627
0.000398158
0.000408817
0.000419531
0.000430353
0.000441221
0.000452176
0.000463166
0.000474213
0.000485295
0.000496399
0.00050754
0.000518774
0.000530034
0.000541314
0.000552565
0.000563775
0.000574919
0.000586009
0.000597037
0.000608051
0.000619005
0.000629958
0.000640816
0.000651677
0.000662318
0.000672845
0.000682858
0.000692631
0.000158201
0.000154852
0.000152147
0.000149893
0.000147964
0.00014628
0.000144783
0.000143433
0.0001422
0.000141062
0.000140002
0.000139011
0.00013807
0.000137186
0.000136332
0.000135526
0.000134745
0.000133997
0.000133265
0.000132564
0.000131873
0.000131222
0.000130574
0.000129933
0.00012931
0.00012873
0.000128204
0.000127786
0.000127513
0.000127334
0.000127252
0.000127556
0.000128205
0.000129464
0.000131318
0.000134006
0.000137508
0.000142039
0.000147549
0.000154179
0.000161719
0.000170213
0.000179567
0.000189788
0.0002008
0.000212558
0.000225019
0.000238083
0.000251764
0.000265897
0.000279407
0.000289754
0.000300461
0.000311289
0.000322242
0.000333343
0.000344536
0.000355834
0.000367182
0.000378604
0.00039005
0.00040155
0.000413057
0.000424597
0.000436119
0.000447744
0.000459391
0.000470994
0.000482533
0.00049394
0.000505234
0.000516374
0.000527378
0.000538222
0.000548973
0.000559557
0.000570042
0.000580354
0.000590576
0.00060062
0.000610599
0.000620378
0.000630099
0.000639756
0.000649383
0.000658916
0.000668279
0.000677507
0.000686598
0.000695548
0.000704327
0.000712989
0.000721462
0.0007298
0.000737938
0.000745883
0.000753677
0.000761093
0.000767905
0.000774304
0.00015818
0.000154796
0.000152025
0.000149708
0.000147678
0.000145885
0.00014425
0.000142742
0.000141336
0.000139995
0.000138742
0.000137534
0.000136375
0.000135255
0.000134154
0.000133115
0.000132009
0.000130916
0.00012976
0.000128734
0.000127689
0.000126987
0.000126194
0.000125615
0.000125486
0.000126055
0.000127483
0.000130024
0.000133756
0.000138907
0.000145434
0.000153382
0.000162456
0.000172788
0.000184122
0.000196524
0.000209805
0.000223958
0.000238876
0.000252113
0.000263733
0.000275574
0.000287596
0.000299794
0.00031207
0.000324413
0.000336755
0.000349116
0.000361436
0.000373757
0.000385975
0.000398237
0.000410421
0.000422466
0.00043432
0.000445962
0.000457376
0.000468562
0.000479523
0.000490272
0.000500817
0.000511175
0.000521351
0.000531348
0.000541166
0.00055092
0.0005606
0.000570087
0.000579437
0.000588593
0.000597613
0.00060643
0.000615121
0.000623601
0.00063191
0.000639989
0.000647891
0.000655581
0.000663103
0.000670453
0.000677648
0.000684642
0.000691523
0.00069823
0.000704851
0.000711333
0.000717714
0.000723962
0.000730114
0.000736159
0.000742098
0.000747905
0.00075359
0.000759154
0.000764647
0.00076989
0.000775091
0.000779889
0.000784281
0.000788345
0.000158113
0.000154621
0.000151612
0.000149104
0.000146667
0.000144526
0.000142363
0.000140373
0.000138357
0.000136484
0.000134756
0.00013283
0.000131009
0.000129045
0.000127406
0.000125791
0.000124096
0.000122534
0.000121923
0.000122153
0.000123948
0.000127098
0.000132223
0.000138945
0.000147624
0.000157904
0.000169838
0.000183112
0.00019772
0.000213314
0.000228932
0.000242197
0.000255552
0.00026898
0.000282357
0.000295724
0.000309003
0.00032225
0.000335342
0.000348353
0.000361186
0.000373824
0.000386137
0.000398074
0.000409589
0.000420739
0.000431498
0.000441957
0.000452057
0.000461894
0.000471348
0.000480614
0.00048959
0.000498319
0.000506802
0.000515048
0.000523056
0.000530835
0.000538389
0.000545725
0.000552852
0.000559778
0.000566515
0.00057307
0.00057946
0.000585679
0.000591779
0.000597724
0.000603566
0.000609253
0.000614856
0.000620299
0.000625694
0.000630429
0.000634843
0.000639137
0.000643332
0.000647421
0.000651428
0.000655337
0.000659179
0.000662928
0.000666623
0.000670227
0.00067379
0.000677262
0.000680704
0.000684052
0.000687377
0.000690605
0.000693819
0.000696936
0.000700043
0.000703057
0.000706061
0.000708966
0.000711861
0.000714637
0.000717336
0.000719897
0.000157849
0.000153942
0.0001501
0.000146712
0.000142569
0.000139331
0.000135252
0.000131833
0.0001282
0.000126014
0.000123572
0.000120696
0.00011865
0.000117785
0.000118585
0.00012103
0.000125566
0.000131889
0.000140407
0.000150791
0.000163414
0.000177688
0.000193333
0.000209789
0.000227092
0.000242474
0.000257121
0.00027149
0.000285534
0.000299174
0.000312288
0.000324999
0.000337192
0.0003489
0.000360094
0.00037086
0.000381149
0.000391039
0.000400402
0.000409337
0.000417818
0.000426067
0.000433041
0.000439198
0.000445007
0.000450518
0.000455759
0.000460767
0.000465557
0.00047016
0.000474581
0.000478845
0.000482955
0.000486931
0.000490774
0.000494501
0.000498109
0.000501614
0.000505012
0.000508318
0.000511528
0.000514656
0.000517701
0.000520674
0.000523574
0.000526409
0.000529183
0.000531896
0.000534553
0.000537148
0.000539696
0.00054218
0.000544621
0.000547009
0.000549339
0.000551605
0.000553819
0.000555973
0.000558084
0.00056014
0.000562165
0.000564135
0.000566082
0.000567978
0.00056986
0.00057169
0.000573516
0.000575288
0.000577062
0.000578777
0.0005805
0.000582161
0.000583837
0.000585446
0.000587076
0.000588622
0.000590195
0.000591648
0.00059304
0.000594294
0.000156641
0.000151208
0.000143351
0.000134629
0.000126078
0.000120991
0.000115009
0.000112504
0.000112457
0.00011419
0.000117962
0.000123463
0.000130604
0.000139124
0.000149054
0.000160159
0.000172603
0.000186205
0.000201284
0.000217285
0.000233493
0.000246946
0.000259667
0.000271867
0.000283091
0.000294115
0.00030263
0.000310053
0.000316739
0.000322879
0.000328611
0.000333955
0.000338909
0.000343511
0.000347778
0.00035176
0.000355474
0.00035897
0.000362254
0.00036537
0.000368317
0.000371131
0.000373814
0.000376352
0.000378747
0.000381013
0.000383158
0.000385201
0.000387146
0.000389013
0.000390803
0.000392533
0.000394202
0.000395821
0.000397386
0.000398908
0.000400382
0.000401818
0.000403211
0.00040457
0.000405891
0.00040718
0.000408438
0.000409668
0.00041087
0.000412049
0.000413206
0.000414343
0.000415462
0.00041656
0.000417644
0.000418705
0.000419752
0.000420779
0.000421789
0.000422774
0.000423741
0.000424682
0.000425607
0.000426508
0.000427399
0.000428266
0.000429127
0.000429965
0.000430802
0.000431615
0.000432434
0.000433229
0.000434033
0.00043481
0.000435599
0.000436359
0.000437137
0.000437878
0.000438644
0.000439353
0.000440096
0.000440743
0.000441343
0.000441815
0.000151621
0.000136816
0.000113478
9.95201e-05
9.76017e-05
9.81308e-05
0.000110573
0.000115045
0.000121818
0.000129687
0.000137977
0.000146235
0.000154211
0.000161681
0.000168583
0.000174824
0.000180491
0.000185568
0.000190197
0.000194424
0.000198337
0.000202068
0.000205555
0.00020885
0.00021187
0.000214679
0.000217312
0.000219723
0.000221894
0.000223822
0.000225516
0.000227019
0.000228355
0.000229554
0.00023063
0.000231604
0.000232487
0.000233297
0.000234044
0.000234739
0.000235393
0.000236004
0.000236596
0.000237174
0.000237731
0.000238264
0.000238769
0.00023925
0.000239705
0.000240141
0.000240557
0.00024096
0.00024135
0.000241732
0.000242104
0.000242472
0.000242833
0.000243191
0.000243543
0.000243891
0.000244234
0.000244573
0.00024491
0.00024524
0.000245566
0.000245888
0.000246207
0.000246524
0.00024684
0.000247153
0.000247465
0.000247776
0.000248087
0.000248397
0.000248706
0.000249014
0.00024932
0.000249621
0.00024992
0.000250212
0.000250502
0.000250785
0.000251068
0.000251343
0.000251621
0.000251891
0.000252165
0.000252433
0.000252705
0.000252972
0.000253244
0.00025351
0.000253781
0.000254049
0.000254319
0.000254582
0.000254848
0.000255066
0.000255286
0.000255444
2.45432e-05
3.47523e-05
4.04101e-05
4.23028e-05
4.20136e-05
4.05608e-05
3.87137e-05
3.70559e-05
3.56101e-05
3.44451e-05
3.35764e-05
3.29762e-05
3.25986e-05
3.2385e-05
3.2287e-05
3.22583e-05
3.22697e-05
3.2298e-05
3.23311e-05
3.23649e-05
3.23935e-05
3.24264e-05
3.24614e-05
3.24994e-05
3.2539e-05
3.25762e-05
3.26142e-05
3.26515e-05
3.26862e-05
3.27167e-05
3.27414e-05
3.27608e-05
3.27749e-05
3.27852e-05
3.27918e-05
3.27959e-05
3.27976e-05
3.2798e-05
3.27971e-05
3.27957e-05
3.27941e-05
3.27925e-05
3.27911e-05
3.27904e-05
3.27903e-05
3.27907e-05
3.27914e-05
3.27924e-05
3.27936e-05
3.2795e-05
3.27966e-05
3.27986e-05
3.28009e-05
3.28039e-05
3.28074e-05
3.28116e-05
3.28164e-05
3.28219e-05
3.28281e-05
3.28348e-05
3.28422e-05
3.28501e-05
3.28587e-05
3.28678e-05
3.28773e-05
3.28873e-05
3.28977e-05
3.29087e-05
3.29202e-05
3.29321e-05
3.29447e-05
3.29577e-05
3.29712e-05
3.29852e-05
3.29996e-05
3.30144e-05
3.30297e-05
3.30451e-05
3.30609e-05
3.30767e-05
3.30929e-05
3.3109e-05
3.31255e-05
3.3142e-05
3.31588e-05
3.31756e-05
3.31928e-05
3.321e-05
3.32277e-05
3.32454e-05
3.32637e-05
3.32817e-05
3.33007e-05
3.3319e-05
3.33391e-05
3.33578e-05
3.33784e-05
3.33985e-05
3.34187e-05
3.34393e-05
2.79857e-05
0.000681954
0.00119367
0.00158373
0.00194062
0.00222096
0.00242703
0.00246846
0.0024604
0.00244547
0.00242913
0.00241995
0.00242315
0.00243663
0.00245632
0.00248159
0.00251178
0.00254744
0.00259033
0.00263911
0.00269444
0.00275509
0.00281908
0.00288757
0.00296162
0.00303818
0.0031142
0.00319181
0.00326502
0.00333941
0.00335839
0.00336308
0.00336532
0.00336513
0.00336272
0.00335826
0.00335202
0.00334413
0.00333473
0.0033239
0.00331174
0.00329836
0.00328379
0.00326818
0.00325154
0.00323403
0.00321558
0.0031964
0.00317632
0.00315566
0.0031341
0.00311209
0.00308911
0.00306585
0.00304143
0.00301694
0.00299098
0.00296532
0.00293773
0.00291088
0.00288149
0.00285345
0.00282213
0.00279286
0.00275951
0.00272869
0.00269356
0.00266058
0.00262408
0.00258798
0.00255047
0.00251133
0.00247242
0.00243116
0.00239052
0.00234902
0.00230809
0.00226704
0.00222742
0.00218794
0.00215167
0.00211623
0.00208366
0.00205331
0.00202354
0.002001
0.00197224
0.00195936
0.00192782
0.0019227
0.00188961
0.00188791
0.00185895
0.00185034
0.00182833
0.00180625
0.00179367
0.00176265
0.00175953
0.00172284
0.000169393
0.000440614
0.000877882
0.00126729
0.00161521
0.00189623
0.00211022
0.0022597
0.00236357
0.0023603
0.00234108
0.00233159
0.00232914
0.00233279
0.00234253
0.00235891
0.00238183
0.00241116
0.00244822
0.00249025
0.00253613
0.00258609
0.00263997
0.00269813
0.00276253
0.00283172
0.00290394
0.00297995
0.00306369
0.00315078
0.00323832
0.00325493
0.00326321
0.00326852
0.00327124
0.00327161
0.00326996
0.00326647
0.00326125
0.00325444
0.00324611
0.00323639
0.00322534
0.00321308
0.00319965
0.0031852
0.00316966
0.00315326
0.00313583
0.00311767
0.00309849
0.00307872
0.00305786
0.00303659
0.00301403
0.00299128
0.00296692
0.00294273
0.00291647
0.00289084
0.00286251
0.0028354
0.0028049
0.00277628
0.00274351
0.00271306
0.00267832
0.00264544
0.00260919
0.00257298
0.00253565
0.0024963
0.00245759
0.00241619
0.00237588
0.00233456
0.00229425
0.00225391
0.0022153
0.00217715
0.0021425
0.002109
0.00207889
0.00205078
0.00202442
0.00200408
0.00197978
0.00196872
0.00194225
0.00193823
0.00191021
0.00190896
0.00188478
0.00187623
0.00185806
0.00183603
0.0018256
0.00179559
0.00179325
0.00175911
0.000472743
0.000385118
0.000567283
0.000877132
0.00120377
0.00148384
0.00170602
0.00187013
0.00199058
0.00207689
0.00214187
0.00219847
0.00221559
0.00222047
0.00223161
0.0022504
0.00227646
0.00230823
0.00234315
0.00238001
0.00241909
0.00246099
0.00250698
0.0025562
0.00261046
0.00266957
0.00273421
0.00280296
0.0028833
0.00296519
0.00306987
0.00311736
0.00313325
0.00314544
0.00315453
0.00316085
0.00316483
0.00316666
0.00316649
0.00316446
0.00316069
0.0031553
0.00314837
0.00314004
0.00313034
0.00311944
0.00310728
0.00309408
0.0030797
0.00306442
0.00304796
0.00303077
0.00301233
0.00299334
0.00297291
0.00295215
0.00292963
0.00290715
0.00288243
0.00285819
0.00283112
0.00280509
0.00277556
0.0027477
0.00271565
0.00268562
0.0026514
0.00261864
0.00258275
0.00254642
0.00250935
0.00246977
0.00243135
0.00238984
0.00235
0.00230896
0.00226948
0.00223009
0.0021928
0.00215631
0.00212375
0.00209258
0.00206554
0.00204007
0.00201786
0.002
0.00198101
0.00197191
0.00195141
0.0019485
0.00192634
0.00192553
0.00190665
0.00189832
0.00188419
0.00186264
0.00185422
0.00182588
0.00182403
0.00179319
0.000592864
0.000584723
0.00054461
0.00061414
0.000798893
0.00102206
0.00122981
0.0013996
0.00153368
0.00163841
0.00172148
0.00179466
0.00186
0.00192206
0.0019842
0.0020484
0.00211436
0.00217407
0.00221365
0.00225343
0.00229496
0.00233874
0.00238608
0.00243518
0.00248749
0.00254301
0.00260367
0.00266737
0.00273974
0.00281103
0.00290147
0.00294117
0.00296677
0.0029878
0.00300506
0.003019
0.00303016
0.00303872
0.00304487
0.00304879
0.00305063
0.00305052
0.00304858
0.00304495
0.0030397
0.00303298
0.0030248
0.00301534
0.0030045
0.00299254
0.00297924
0.002965
0.00294936
0.00293297
0.00291498
0.0028965
0.00287609
0.00285553
0.0028326
0.00280995
0.00278434
0.00275953
0.00273116
0.00270414
0.00267297
0.00264341
0.00260983
0.0025772
0.00254176
0.0025053
0.00246859
0.00242878
0.00239076
0.00234918
0.00231002
0.00226943
0.00223111
0.00219298
0.0021575
0.00212314
0.0020933
0.00206501
0.0020418
0.00201948
0.00200229
0.00198728
0.00197452
0.00196751
0.00195392
0.0019521
0.0019366
0.00193619
0.00192306
0.0019151
0.0019051
0.0018845
0.00187792
0.00185187
0.0018502
0.00182331
0.000700063
0.000706238
0.000689867
0.000664596
0.000666049
0.00072343
0.000821003
0.000935157
0.00104664
0.00114849
0.00123744
0.00131948
0.00139648
0.00147122
0.00154567
0.00162188
0.00169963
0.00177964
0.00185931
0.00193879
0.00201777
0.00209553
0.00217151
0.00224503
0.00231615
0.00238394
0.00244893
0.00250992
0.0025678
0.00262035
0.00267145
0.00271561
0.00275342
0.00278577
0.00281357
0.00283736
0.00285779
0.00287501
0.00288925
0.00290072
0.00290962
0.00291611
0.00292035
0.00292249
0.00292265
0.002921
0.00291757
0.00291255
0.00290589
0.00289784
0.00288821
0.0028774
0.00286498
0.0028516
0.00283642
0.00282054
0.00280255
0.00278419
0.00276331
0.00274245
0.00271853
0.00269509
0.00266808
0.00264199
0.00261187
0.00258281
0.00255
0.0025175
0.00248265
0.00244604
0.00240981
0.00236978
0.00233236
0.00229083
0.00225268
0.00221285
0.00217619
0.00213984
0.00210686
0.00207534
0.00204907
0.00202443
0.00200598
0.0019875
0.00197628
0.00196456
0.00195899
0.00195415
0.0019484
0.00194755
0.00193946
0.00193932