/*--------------------------------*- C++ -*----------------------------------*\
| =========                 |                                                 |
| \\      /  F ield         | OpenFOAM: The Open Source CFD Toolbox           |
|  \\    /   O peration     | Version:  v2012                                 |
|   \\  /    A nd           | Website:  www.openfoam.com                      |
|    \\/     M anipulation  |                                                 |
\*---------------------------------------------------------------------------*/
FoamFile
{
    version     2.0;
    format      ascii;
    class       volScalarField;
    location    "0.354";
    object      p;
}
// * * * * * * * * * * * * * * * * * * * * * * * * * * * * * * * * * * * * * //

dimensions      [0 2 -2 0 0 0 0];


internalField   nonuniform List<scalar> 
1900
(
-299.623
-300.722
-301.622
-302.283
-302.96
-303.727
-304.532
-305.361
-305.973
-306.577
-300.077
-300.876
-301.704
-302.379
-303.06
-303.821
-304.632
-305.469
-306.23
-307.05
-300.363
-300.928
-301.695
-302.409
-303.106
-303.867
-304.693
-305.577
-306.47
-307.715
-300.547
-300.991
-301.726
-302.468
-303.178
-303.94
-304.784
-305.709
-306.721
-308.095
-300.645
-301.039
-301.753
-302.505
-303.221
-303.986
-304.847
-305.807
-306.888
-308.277
-300.662
-301.061
-301.78
-302.535
-303.254
-304.027
-304.904
-305.889
-307.003
-308.371
-300.596
-301.056
-301.807
-302.557
-303.277
-304.06
-304.951
-305.951
-307.078
-308.402
-300.445
-301.036
-301.83
-302.557
-303.269
-304.065
-304.969
-305.979
-307.109
-308.391
-300.188
-301.03
-301.891
-302.579
-303.276
-304.077
-304.985
-305.995
-307.118
-308.36
-299.754
-300.929
-301.881
-302.562
-303.259
-304.073
-304.992
-306.009
-307.135
-308.357
-305.919
-318.28
-337.562
-339.208
-320.079
-286.053
-243.019
-198.242
-157.323
-122.529
-94.1721
-71.7638
-54.3136
-40.7492
-30.1629
-21.8426
-15.2329
-9.88472
-5.49364
-1.87694
1.11209
3.62682
5.78796
7.64568
9.22739
10.5769
11.7447
12.7753
13.6751
14.4525
15.123
15.7004
16.2005
16.6323
16.9971
17.3019
17.5537
17.7586
17.9235
18.052
18.1473
18.2113
18.2431
18.2456
18.2241
18.1817
18.1188
18.0349
17.9312
17.8101
17.6733
17.5216
17.3561
17.1771
16.9847
16.7799
16.564
16.3378
16.1015
15.8556
15.6
15.335
15.0615
14.7796
14.4895
14.1911
13.8851
13.5715
13.2503
12.9218
12.5863
12.244
11.8948
11.5389
11.1763
10.8072
10.4316
10.0499
9.66192
9.26799
8.86791
8.46211
8.05038
7.63312
7.21011
6.78159
6.3475
5.90803
5.46329
5.01342
4.55855
4.09884
3.63416
3.165
2.69016
2.21245
1.72485
1.24265
0.733543
0.27921
-309.337
-321.605
-333.412
-332.126
-313.079
-280.334
-239.751
-197.436
-158.325
-124.591
-96.6617
-74.2489
-56.5778
-42.6898
-31.767
-23.1337
-16.2441
-10.6634
-6.09489
-2.34677
0.739598
3.33128
5.55349
7.457
9.07269
10.4525
11.6445
12.6895
13.5976
14.3811
15.0559
15.6352
16.1326
16.5618
16.9295
17.2382
17.4934
17.7022
17.8709
18.0031
18.102
18.169
18.2018
18.2052
18.1848
18.1433
18.0807
17.9974
17.8945
17.7744
17.6387
17.4876
17.3223
17.1436
16.9516
16.7471
16.5318
16.3062
16.0704
15.8247
15.5692
15.3045
15.0314
14.7497
14.4596
14.1615
13.8557
13.5423
13.2213
12.8929
12.5576
12.2153
11.8663
11.5104
11.1478
10.7787
10.4032
10.0214
9.63349
9.23948
8.83939
8.43352
8.02177
7.60444
7.18139
6.75283
6.31872
5.87927
5.43458
4.98481
4.5301
4.0706
3.60639
3.1377
2.66452
2.18743
1.70546
1.22186
0.729556
0.251893
-310.271
-317.92
-326.263
-324.072
-306.102
-275.372
-237.27
-197.127
-159.473
-126.59
-98.9974
-76.5719
-58.6951
-44.5245
-33.3141
-24.42
-17.2991
-11.527
-6.81252
-2.95084
0.239723
2.93181
5.23396
7.18938
8.84865
10.2753
11.511
12.5829
13.508
14.3058
14.992
15.5794
16.0798
16.5105
16.882
17.1937
17.4502
17.6599
17.8296
17.9623
18.0609
18.1258
18.1569
18.1602
18.1415
18.1017
18.0406
17.9582
17.8564
17.7383
17.6046
17.4551
17.2911
17.1129
16.9212
16.7168
16.5012
16.2755
16.0398
15.7942
15.5387
15.2741
15.0015
14.7202
14.4304
14.1326
13.8271
13.5138
13.1931
12.8648
12.5296
12.1874
11.8384
11.4826
11.12
10.7509
10.3754
9.99361
9.60564
9.21156
8.81141
8.40545
7.99364
7.57622
7.15311
6.72448
6.29036
5.8509
5.40626
4.95656
4.50201
4.04272
3.579
3.11077
2.63928
2.16291
1.68654
1.20186
0.727122
0.223768
-310.492
-316.294
-321.939
-318.557
-301.089
-271.666
-235.202
-196.609
-160.11
-127.978
-100.746
-78.3799
-60.3756
-45.9985
-34.5664
-25.4609
-18.1468
-12.2143
-7.3783
-3.41901
-0.142141
2.61699
4.96304
6.94772
8.62926
10.075
11.3306
12.4167
13.3506
14.1588
14.8602
15.4652
15.9825
16.4277
16.8104
17.1333
17.4011
17.6197
17.7954
17.9318
18.031
18.0951
18.1259
18.13
18.1124
18.0734
18.0121
17.929
17.8261
17.7064
17.5717
17.4225
17.2592
17.0816
16.8903
16.6859
16.4702
16.2448
16.0097
15.7645
15.5095
15.2451
14.972
14.6904
14.4008
14.1033
13.7981
13.485
13.1644
12.8363
12.5013
12.1592
11.8102
11.4544
11.0918
10.7227
10.3471
9.96528
9.57718
9.18301
8.78274
8.37667
7.96477
7.54722
7.12405
6.69534
6.26123
5.82176
5.3772
4.92757
4.47321
4.01412
3.55091
3.08317
2.61338
2.13776
1.6671
1.18109
0.723999
0.196002
-310.518
-314.805
-318.111
-313.455
-296.275
-267.995
-233.032
-195.923
-160.561
-129.156
-102.282
-79.9853
-61.8755
-47.3249
-35.7018
-26.4098
-18.9251
-12.849
-7.90304
-3.8555
-0.497829
2.32733
4.71604
6.73167
8.44235
9.91529
11.1934
12.2964
13.2421
14.0568
14.7636
15.3758
15.9003
16.348
16.7301
17.0515
17.3209
17.5425
17.7208
17.8599
17.9631
18.033
18.0709
18.0819
18.07
18.0353
17.9777
17.8983
17.7984
17.6802
17.5461
17.3976
17.2348
17.0578
16.8669
16.6624
16.4469
16.2215
15.9863
15.7408
15.4854
15.2203
14.9458
14.6632
14.3732
14.0754
13.7697
13.456
13.135
12.8064
12.4712
12.1288
11.7795
11.4234
11.0607
10.6915
10.3159
9.93392
9.54574
9.15154
8.75141
8.34545
7.93362
7.51608
7.09296
6.66427
6.23027
5.79087
5.34648
4.89698
4.44288
3.98407
3.52139
3.05421
2.58604
2.11133
1.64592
1.15933
0.718411
0.171101
-310.4
-313.509
-315.041
-309.398
-292.508
-265.228
-231.493
-195.548
-161.048
-130.173
-103.562
-81.3056
-63.1006
-48.4107
-36.635
-27.1838
-19.5555
-13.3679
-8.33618
-4.21473
-0.789615
2.08809
4.50898
6.54868
8.28501
9.78149
11.0738
12.1852
13.1385
13.9611
14.6759
15.2945
15.8257
16.2776
16.6617
16.9867
17.261
17.4881
17.6705
17.8105
17.9123
17.9821
18.0216
18.0337
18.0213
17.9851
17.9257
17.8454
17.7459
17.629
17.4967
17.3498
17.1884
17.0129
16.8238
16.6217
16.4083
16.1846
15.9506
15.7062
15.4517
15.1873
14.9136
14.6317
14.342
14.0441
13.7381
13.4239
13.1025
12.7735
12.438
12.0952
11.7457
11.3893
11.0263
10.657
10.2815
9.8995
9.51141
9.11725
8.71726
8.31135
7.89965
7.48219
7.05921
6.63064
6.19681
5.75757
5.3134
4.86411
4.41032
3.95186
3.48973
3.0232
2.55649
2.08291
1.62174
1.13607
0.70782
0.15231
-310.21
-312.445
-312.667
-306.232
-289.501
-262.955
-230.134
-195.078
-161.263
-130.838
-104.475
-82.2849
-64.0404
-49.2646
-37.3811
-27.8101
-20.07
-13.8007
-8.70565
-4.51754
-1.03242
1.88042
4.32074
6.38442
8.14934
9.66535
10.9644
12.0802
13.0444
13.8787
14.6003
15.2232
15.7564
16.2128
16.6027
16.9312
17.2072
17.4362
17.6195
17.7615
17.8654
17.9364
17.978
17.9925
17.9814
17.9457
17.8871
17.8081
17.7102
17.5945
17.4623
17.3146
17.152
16.9754
16.7855
16.5827
16.3684
16.1435
15.9083
15.6631
15.4078
15.1428
14.8689
14.5869
14.2972
13.9994
13.6935
13.3797
13.0587
12.7304
12.3956
12.0534
11.7045
11.3487
10.9863
10.6175
10.2425
9.86092
9.47338
9.07957
8.6799
8.27427
7.86294
7.44588
7.02324
6.59504
6.16155
5.72268
5.27883
4.8299
4.37647
3.91843
3.45684
2.99101
2.52545
2.05318
1.59471
1.11178
0.690374
0.143279
-310.014
-311.622
-310.914
-303.872
-287.218
-261.199
-229.052
-194.666
-161.382
-131.317
-105.17
-83.0466
-64.7906
-49.9638
-37.9895
-28.3202
-20.5073
-14.1796
-9.01668
-4.76387
-1.24091
1.69192
4.15901
6.25435
8.03946
9.56029
10.8644
11.9928
12.9712
13.8126
14.5339
15.1568
15.6955
16.1589
16.5525
16.8813
17.156
17.3859
17.5727
17.7176
17.8223
17.8928
17.9346
17.9501
17.9398
17.9045
17.8458
17.7667
17.6687
17.5529
17.4203
17.2722
17.1096
16.9332
16.7434
16.5408
16.3262
16.101
15.8657
15.6204
15.365
15.0998
14.8254
14.5429
14.2526
13.9543
13.648
13.3339
13.0124
12.6838
12.3486
12.0061
11.6569
11.3009
10.9386
10.5697
10.1948
9.81338
9.42603
9.03254
8.63322
8.2281
7.81735
7.40094
6.9789
6.55139
6.11855
5.68036
5.23714
4.78884
4.33597
3.8785
3.41755
2.95244
2.48777
2.01698
1.55965
1.08119
0.660177
0.138642
-309.856
-311.036
-309.717
-302.257
-285.628
-259.948
-228.241
-194.297
-161.364
-131.534
-105.532
-83.4745
-65.2229
-50.3552
-38.3265
-28.6143
-20.7636
-14.3947
-9.19423
-4.91669
-1.37476
1.57848
4.0624
6.16795
7.95768
9.48285
10.7929
11.9273
12.9092
13.752
14.4747
15.1002
15.6426
16.1085
16.503
16.8325
17.1084
17.3403
17.529
17.6749
17.7801
17.8513
17.8941
17.911
17.9017
17.8669
17.8086
17.7301
17.633
17.5181
17.3863
17.2389
17.0767
16.9006
16.7113
16.5091
16.2948
16.0697
15.8347
15.5897
15.3346
15.0696
14.7956
14.5136
14.2238
13.9262
13.6205
13.307
12.9862
12.6583
12.3243
11.9824
11.6336
11.2782
10.9163
10.548
10.1736
9.79261
9.40553
9.01228
8.61307
8.20789
7.79709
7.3806
6.95855
6.53096
6.09809
5.65987
5.21663
4.7683
4.31545
3.85808
3.39727
2.93228
2.4676
1.99759
1.53982
1.06574
0.639705
0.148965
-309.799
-310.776
-309.167
-301.515
-284.923
-259.448
-228.001
-194.311
-161.572
-131.867
-105.94
-83.9008
-65.6278
-50.7254
-38.6607
-28.9103
-21.0208
-14.6202
-9.3979
-5.10154
-1.53639
1.44238
3.93872
6.05159
7.85017
9.38339
10.6976
11.8341
12.819
13.6658
14.3913
15.0182
15.562
16.0298
16.4265
16.7578
17.0349
17.2676
17.4574
17.6045
17.711
17.7831
17.8267
17.8444
17.836
17.8018
17.7443
17.6664
17.5699
17.4556
17.3243
17.1772
17.0155
16.84
16.6512
16.4494
16.2357
16.0111
15.7765
15.5319
15.2772
15.0126
14.739
14.4572
14.1678
13.8702
13.5647
13.2512
12.9305
12.6026
12.2683
11.9274
11.579
11.2236
10.8619
10.4938
10.1195
9.73881
9.35193
8.95894
8.56007
8.15549
7.74497
7.3287
6.90683
6.47938
6.04659
5.60841
5.16524
4.7169
4.26413
3.80678
3.34619
2.8816
2.41695
1.94793
1.48894
1.02011
0.591365
0.112925
-314.073
-315.342
-316.519
-316.763
-316.246
-314.976
-313.67
-313.762
-333.208
-334.724
-335.67
-336.006
-335.684
-334.97
-334.106
-333.757
-348.321
-351.157
-352.673
-353.239
-353.129
-352.819
-352.512
-352.172
-346.898
-350.263
-352.116
-352.862
-352.689
-352.174
-351.695
-351.058
-325.752
-328.651
-330.387
-330.946
-330.605
-329.868
-329.084
-328.157
-289.994
-292.05
-293.342
-293.795
-293.469
-292.521
-291.109
-289.508
-244.964
-246.037
-246.887
-247.288
-247.03
-246.002
-244.217
-242.158
-198.424
-198.456
-198.71
-198.925
-198.647
-197.566
-195.615
-193.372
-156.294
-155.598
-155.335
-155.24
-154.837
-153.721
-151.766
-149.56
-120.789
-119.667
-119.121
-118.848
-118.358
-117.255
-115.406
-113.363
-92.213
-90.9878
-90.3415
-89.948
-89.3873
-88.3436
-86.6697
-84.8438
-69.8842
-68.7305
-68.093
-67.6285
-67.028
-66.0689
-64.5954
-63.0121
-52.656
-51.6447
-51.0545
-50.5874
-50.0058
-49.1408
-47.8619
-46.4999
-39.3733
-38.5366
-38.0333
-37.6032
-37.0681
-36.3073
-35.2177
-34.0631
-29.0644
-28.3858
-27.9445
-27.5483
-27.0747
-26.4204
-25.4999
-24.5236
-20.9973
-20.4585
-20.0555
-19.676
-19.2598
-18.7015
-17.9237
-17.0823
-14.5963
-14.1694
-13.8154
-13.4704
-13.1045
-12.6243
-11.9631
-11.206
-9.41052
-9.07494
-8.77877
-8.48206
-8.16317
-7.74922
-7.1859
-6.50683
-5.13878
-4.87655
-4.63277
-4.38112
-4.10501
-3.74701
-3.26428
-2.67548
-1.60409
-1.39527
-1.19063
-0.975601
-0.735651
-0.423656
-0.00504853
0.505091
1.33537
1.5102
1.68886
1.87236
2.08098
2.35482
2.7215
3.16734
3.81634
3.96449
4.12084
4.27843
4.46117
4.7035
5.02774
5.42148
5.94637
6.06831
6.20117
6.33844
6.50138
6.71838
7.00787
7.35897
7.78023
7.88387
7.99892
8.12076
8.26752
8.46304
8.7229
9.03795
9.3464
9.43938
9.5438
9.65507
9.78939
9.96737
10.2022
10.4867
10.6892
10.7779
10.8704
10.9712
11.0949
11.2583
11.4724
11.7312
11.8532
11.9403
12.0234
12.1141
12.2272
12.3771
12.5729
12.8098
12.8724
12.9515
13.027
13.1111
13.2163
13.3552
13.5355
13.7536
13.762
13.8342
13.9042
13.983
14.0816
14.2109
14.3774
14.579
14.5305
14.5971
14.663
14.7376
14.8307
14.9517
15.1062
15.2931
15.1933
15.2547
15.3162
15.3866
15.4745
15.5882
15.732
15.9061
15.764
15.8205
15.8783
15.9451
16.0285
16.1357
16.27
16.4329
16.2597
16.3107
16.3647
16.428
16.5073
16.6085
16.7343
16.8871
16.688
16.7348
16.7853
16.8452
16.9205
17.0162
17.1343
17.278
17.05
17.0946
17.143
17.2005
17.2724
17.3633
17.4745
17.6101
17.3527
17.3957
17.4425
17.4979
17.567
17.6536
17.7586
17.8868
17.6024
17.6438
17.6891
17.7425
17.809
17.8917
17.9911
18.1128
17.8051
17.845
17.8888
17.9406
18.0046
18.0839
18.1783
18.294
17.9678
18.0062
18.0486
18.0986
18.1605
18.2365
18.3262
18.4366
18.0944
18.1317
18.1728
18.2213
18.2811
18.3541
18.4395
18.545
18.1881
18.2242
18.2641
18.3112
18.369
18.4392
18.5206
18.6216
18.2503
18.2851
18.3239
18.3696
18.4255
18.4931
18.5709
18.6677
18.2809
18.3149
18.3527
18.3972
18.4516
18.5169
18.5913
18.6844
18.2824
18.3157
18.3528
18.3965
18.4495
18.5127
18.5842
18.6738
18.2599
18.2924
18.3287
18.3714
18.423
18.4843
18.553
18.6394
18.2167
18.2483
18.2837
18.3254
18.3757
18.4351
18.5011
18.5846
18.1532
18.1842
18.2189
18.2597
18.3087
18.3663
18.4298
18.5106
18.0687
18.0993
18.1336
18.1737
18.2217
18.2776
18.3389
18.4172
17.9644
17.9947
18.0285
18.0679
18.115
18.1694
18.2286
18.3045
17.8426
17.8723
17.9056
17.9443
17.9903
18.0434
18.1006
18.1744
17.705
17.7342
17.7669
17.8049
17.85
17.9018
17.957
18.0289
17.5531
17.5819
17.6141
17.6515
17.6957
17.7462
17.7997
17.8697
17.3872
17.4157
17.4476
17.4845
17.5279
17.5772
17.6292
17.6974
17.208
17.2362
17.2677
17.3041
17.3468
17.395
17.4454
17.512
17.0153
17.0433
17.0744
17.1104
17.1523
17.1995
17.2484
17.3136
16.8102
16.8379
16.8687
16.9042
16.9455
16.9917
17.0392
17.1029
16.5938
16.6211
16.6516
16.6866
16.7272
16.7725
16.8188
16.8812
16.3671
16.3941
16.4243
16.4588
16.4988
16.5432
16.5883
16.6494
16.1305
16.1573
16.1872
16.2213
16.2607
16.3043
16.3482
16.4082
15.8845
15.9111
15.9407
15.9744
16.0132
16.056
16.0988
16.1577
15.6287
15.6551
15.6844
15.7178
15.7561
15.7981
15.8399
15.8978
15.3636
15.3898
15.4189
15.4519
15.4896
15.5309
15.5717
15.6286
15.0897
15.1156
15.1444
15.177
15.2142
15.2548
15.2947
15.3507
14.8075
14.8332
14.8616
14.8939
14.9306
14.9705
15.0095
15.0646
14.5171
14.5426
14.5708
14.6027
14.639
14.6783
14.7165
14.7708
14.2187
14.2441
14.2722
14.3038
14.3396
14.3783
14.4157
14.4693
13.9126
13.9378
13.9657
13.997
14.0324
14.0706
14.1073
14.1601
13.5988
13.6239
13.6516
13.6827
13.7177
13.7553
13.7912
13.8433
13.2775
13.3024
13.3299
13.3607
13.3953
13.4325
13.4677
13.5192
12.9488
12.9737
13.0009
13.0315
13.0658
13.1024
13.137
13.1879
12.6132
12.6379
12.665
12.6953
12.7293
12.7655
12.7994
12.8498
12.2708
12.2954
12.3223
12.3524
12.386
12.4218
12.4551
12.505
11.9215
11.946
11.9728
12.0027
12.036
12.0714
12.1042
12.1536
11.5656
11.59
11.6167
11.6464
11.6793
11.7143
11.7466
11.7955
11.2029
11.2272
11.2538
11.2833
11.316
11.3506
11.3824
11.4309
10.8337
10.8579
10.8844
10.9138
10.9462
10.9804
11.0117
11.0597
10.4581
10.4823
10.5087
10.5379
10.5701
10.604
10.6348
10.6824
10.0763
10.1005
10.1268
10.1557
10.1877
10.2212
10.2516
10.2988
9.68839
9.71251
9.73872
9.76757
9.79927
9.83253
9.86251
9.90939
9.29446
9.31852
9.34464
9.37332
9.40475
9.43768
9.46722
9.51372
8.8944
8.91845
8.94451
8.97308
9.00432
9.03698
9.06615
9.11234
8.48859
8.51261
8.53858
8.56698
8.59798
8.63032
8.65909
8.70493
8.07688
8.10089
8.12681
8.1551
8.18592
8.21804
8.24649
8.29206
7.65964
7.68362
7.70948
7.73764
7.76825
7.8001
7.82826
7.87361
7.23665
7.26063
7.28645
7.31452
7.34496
7.37662
7.40486
7.45066
6.80813
6.83208
6.85782
6.88576
6.91599
6.94733
6.97539
7.02129
6.37402
6.39792
6.42358
6.4514
6.48145
6.51255
6.54032
6.58598
5.93451
5.95835
5.98392
6.01159
6.04145
6.07232
6.09982
6.14523
5.48969
5.51345
5.53889
5.56639
5.59603
5.62664
5.65381
5.6989
5.03973
5.0634
5.08872
5.11607
5.14552
5.17594
5.20286
5.24773
4.5847
4.60819
4.63332
4.66042
4.68956
4.71965
4.74618
4.79063
4.1248
4.14814
4.17309
4.20001
4.22894
4.25883
4.28517
4.32953
3.65968
3.68265
3.70723
3.73376
3.7623
3.79181
3.81773
3.86168
3.19015
3.2128
3.23705
3.26322
3.29138
3.32054
3.34613
3.38984
2.71392
2.73549
2.75879
2.78415
2.81165
2.84033
2.86562
2.90921
2.23574
2.25687
2.27967
2.30444
2.33126
2.35926
2.38392
2.42683
1.74349
1.76113
1.78104
1.80361
1.82892
1.85615
1.88073
1.92465
1.2628
1.28124
1.30122
1.32311
1.34704
1.37228
1.39485
1.43517
0.739333
0.746903
0.757994
0.773189
0.792885
0.815966
0.834912
0.883331
0.302166
0.320222
0.336609
0.351742
0.366663
0.383734
0.400926
0.376907
)
;

boundaryField
{
    frontAndBack
    {
        type            empty;
    }
    inlet
    {
        type            zeroGradient;
    }
    outlet
    {
        type            fixedValue;
        value           uniform 0;
    }
    walls
    {
        type            zeroGradient;
    }
}


// ************************************************************************* //
