/*--------------------------------*- C++ -*----------------------------------*\
| =========                 |                                                 |
| \\      /  F ield         | OpenFOAM: The Open Source CFD Toolbox           |
|  \\    /   O peration     | Version:  v2012                                 |
|   \\  /    A nd           | Website:  www.openfoam.com                      |
|    \\/     M anipulation  |                                                 |
\*---------------------------------------------------------------------------*/
FoamFile
{
    version     2.0;
    format      ascii;
    class       surfaceScalarField;
    location    "0.354";
    object      phi.air;
}
// * * * * * * * * * * * * * * * * * * * * * * * * * * * * * * * * * * * * * //

dimensions      [0 3 -1 0 0 0 0];
oriented        oriented;


internalField   nonuniform List<scalar> 
3672
(
0.0064006
7.14517e-06
0.00639136
8.99623e-06
0.00638142
9.68684e-06
0.00637056
1.06126e-05
0.0063586
1.17119e-05
0.00634559
1.27593e-05
0.00633129
1.40467e-05
0.00631578
1.52582e-05
0.00629637
1.91627e-05
2.80585e-05
0.00626806
0.00641089
4.26003e-06
0.00641309
6.79313e-06
0.00641555
7.2261e-06
0.00641823
7.93236e-06
0.00642104
8.90607e-06
0.00642399
9.8076e-06
0.00642694
1.10891e-05
0.00642967
1.25285e-05
0.00643129
1.75454e-05
2.48537e-05
0.0064345
0.00640988
2.38202e-06
0.00641223
4.44505e-06
0.00641473
4.71802e-06
0.00641752
5.14462e-06
0.00642056
5.87155e-06
0.00642375
6.60995e-06
0.00642716
7.68595e-06
0.00643042
9.26281e-06
0.0064346
1.33659e-05
1.8425e-05
0.00644103
0.00640936
1.0263e-06
0.00641175
2.05189e-06
0.00641429
2.17918e-06
0.00641704
2.39546e-06
0.00642008
2.82902e-06
0.00642335
3.34014e-06
0.00642686
4.1794e-06
0.00643058
5.54008e-06
0.00643542
8.52207e-06
1.19254e-05
0.00644192
0.00640916
-1.33129e-07
0.00641153
-3.17988e-07
0.00641408
-3.68049e-07
0.0064168
-3.30659e-07
0.00641985
-2.20073e-07
0.00642318
1.20077e-08
0.0064268
5.59744e-07
0.0064308
1.54157e-06
0.00643581
3.50706e-06
5.35649e-06
0.00644238
0.00640918
-1.30997e-06
0.00641156
-2.70308e-06
0.00641412
-2.92489e-06
0.00641686
-3.07022e-06
0.00641993
-3.29409e-06
0.00642331
-3.36794e-06
0.00642702
-3.15054e-06
0.00643117
-2.6108e-06
0.00643623
-1.55006e-06
-9.18199e-07
0.00644251
0.00640941
-2.72028e-06
0.00641185
-5.1427e-06
0.00641442
-5.49271e-06
0.00641721
-5.85951e-06
0.00642032
-6.40729e-06
0.00642374
-6.78915e-06
0.00642751
-6.92237e-06
0.00643175
-6.8458e-06
0.00643674
-6.54489e-06
-6.7483e-06
0.00644257
0.00640999
-4.70719e-06
0.0064124
-7.5559e-06
0.00641495
-8.04444e-06
0.00641781
-8.71403e-06
0.00642095
-9.55364e-06
0.0064244
-1.02353e-05
0.00642821
-1.0735e-05
0.00643249
-1.11202e-05
0.00643739
-1.14533e-05
-1.21458e-05
0.00644279
0.00641105
-7.76188e-06
0.00641334
-9.83865e-06
0.00641585
-1.05521e-05
0.00641858
-1.14513e-05
0.00642152
-1.24901e-05
0.00642469
-1.34058e-05
0.00642817
-1.42168e-05
0.00643204
-1.49858e-05
0.00643631
-1.57293e-05
-1.68101e-05
0.00644098
0.00640049
0.0063909
0.0063806
0.0063694
0.00635716
0.006344
0.00633004
0.0063153
0.00629982
0.00628326
0.00618912
0.000122524
-4.35876e-05
0.00598884
8.26138e-05
0.000117663
0.00572442
-0.000168606
0.000433027
0.00550756
-0.000541278
0.00075814
0.00535911
-0.00090801
0.00105646
0.00525264
-0.00120372
0.00131019
0.00517181
-0.00137932
0.00146015
0.00510268
-0.0014273
0.00149643
0.00503451
-0.00137459
0.00144276
0.00496662
-0.0012552
0.0013231
0.00489909
-0.00110326
0.00117078
0.00483221
-0.000945032
0.00101191
0.00476687
-0.000798375
0.000863719
0.00470314
-0.000671212
0.000734939
0.00464115
-0.000564869
0.000626857
0.00458117
-0.000477732
0.000537713
0.00452397
-0.000408616
0.000465819
0.00447031
-0.000355
0.000408654
0.0044204
-0.000312623
0.000362534
0.00437437
-0.000278113
0.000324145
0.00433238
-0.00025014
0.000292131
0.00429455
-0.000228047
0.000265872
0.00426064
-0.000210365
0.00024428
0.00423034
-0.000195146
0.00022544
0.00420345
-0.000181672
0.000208565
0.00418001
-0.000170221
0.00019366
0.00416003
-0.000160836
0.000180818
0.00414294
-0.000152631
0.000169725
0.00412823
-0.000145012
0.00015972
0.00411559
-0.000137916
0.000150557
0.00410468
-0.000131499
0.000142406
0.00409525
-0.000125702
0.000135132
0.00408702
-0.000120396
0.000128625
0.00407973
-0.000115386
0.00012268
0.00407333
-0.000110663
0.000117064
0.00406777
-0.000106198
0.000111753
0.00406299
-0.000102051
0.000106831
0.00405894
-9.82808e-05
0.000102338
0.00405555
-9.48786e-05
9.82619e-05
0.00405279
-9.1719e-05
9.44838e-05
0.00405061
-8.87618e-05
9.09419e-05
0.00404894
-8.5956e-05
8.76215e-05
0.00404768
-8.32336e-05
8.4493e-05
0.00404676
-8.06525e-05
8.15703e-05
0.00404617
-7.8298e-05
7.88934e-05
0.00404587
-7.6107e-05
7.64072e-05
0.00404583
-7.39771e-05
7.40122e-05
0.00404604
-7.1867e-05
7.16626e-05
0.00404646
-6.98363e-05
6.94116e-05
0.0040471
-6.79705e-05
6.73311e-05
0.00404795
-6.62877e-05
6.54362e-05
0.004049
-6.4706e-05
6.36554e-05
0.00405024
-6.31613e-05
6.19274e-05
0.00405164
-6.16434e-05
6.02434e-05
0.00405318
-6.01704e-05
5.8625e-05
0.00405486
-5.87742e-05
5.70961e-05
0.00405667
-5.74844e-05
5.56801e-05
0.00405859
-5.62782e-05
5.43567e-05
0.00406061
-5.51182e-05
5.30924e-05
0.00406273
-5.39691e-05
5.18537e-05
0.00406492
-5.28363e-05
5.06467e-05
0.00406717
-5.17422e-05
4.94862e-05
0.0040695
-5.07303e-05
4.84071e-05
0.00407188
-4.97844e-05
4.73971e-05
0.00407433
-4.8886e-05
4.64404e-05
0.00407682
-4.79952e-05
4.55022e-05
0.00407936
-4.71265e-05
4.45934e-05
0.00408192
-4.62812e-05
4.37143e-05
0.00408452
-4.54752e-05
4.28797e-05
0.00408714
-4.4701e-05
4.20807e-05
0.00408978
-4.39626e-05
4.13208e-05
0.00409244
-4.3243e-05
4.05841e-05
0.00409511
-4.25417e-05
3.98717e-05
0.00409778
-4.18483e-05
3.91741e-05
0.00410046
-4.11752e-05
3.85009e-05
0.00410313
-4.05164e-05
3.78468e-05
0.00410579
-3.98817e-05
3.72187e-05
0.00410844
-3.92542e-05
3.66031e-05
0.00411108
-3.86417e-05
3.60055e-05
0.00411369
-3.80282e-05
3.54121e-05
0.00411629
-3.74296e-05
3.4836e-05
0.00411886
-3.68329e-05
3.42648e-05
0.0041214
-3.62541e-05
3.37131e-05
0.00412391
-3.56736e-05
3.31621e-05
0.00412639
-3.51068e-05
3.26259e-05
0.00412884
-3.4536e-05
3.20879e-05
0.00413125
-3.39812e-05
3.15664e-05
0.00413363
-3.3427e-05
3.10471e-05
0.00413598
-3.28933e-05
3.05481e-05
0.00413829
-3.23634e-05
3.00538e-05
0.00414056
-3.18601e-05
2.95856e-05
0.0041428
-3.13642e-05
2.9125e-05
0.00414501
-3.09194e-05
2.87131e-05
0.00414718
-3.04838e-05
2.83103e-05
0.00414933
-3.01952e-05
2.80472e-05
0.00415145
-2.98775e-05
2.77544e-05
0.00415358
-3.00398e-05
2.79138e-05
0.00415568
-2.99109e-05
2.78112e-05
0.00415787
-3.1214e-05
2.90191e-05
-3.11761e-05
2.92143e-05
0.00647836
7.8656e-05
0.00651174
4.92392e-05
0.00650174
-0.000158607
0.0064363
-0.000475833
0.00632498
-0.000796694
0.00617908
-0.00105782
0.00601662
-0.00121687
0.00585461
-0.00126528
0.00570342
-0.00122341
0.00556884
-0.00112062
0.00545277
-0.000987185
0.00535417
-0.000846432
0.00527071
-0.000714923
0.00519921
-0.000599708
0.00513604
-0.000501701
0.00507815
-0.000419838
0.00502355
-0.00035402
0.00497102
-0.00030247
0.00491944
-0.000261036
0.00486811
-0.000226782
0.00481766
-0.000199695
0.00476934
-0.000179724
0.00472337
-0.0001644
0.00467958
-0.000151358
0.00463824
-0.000140324
0.0045998
-0.000131781
0.00456452
-0.000125561
0.00453233
-0.000120441
0.00450298
-0.000115656
0.00447624
-0.000111183
0.00445191
-0.000107165
0.00442984
-0.000103629
0.00440986
-0.000100418
0.00439181
-9.73334e-05
0.00437545
-9.43086e-05
0.00436065
-9.13956e-05
0.00434729
-8.86912e-05
0.00433526
-8.62514e-05
0.00432442
-8.40374e-05
0.00431464
-8.19421e-05
0.00430579
-7.99114e-05
0.00429771
-7.78726e-05
0.00429031
-7.58327e-05
0.00428356
-7.39062e-05
0.00427744
-7.21769e-05
0.0042719
-7.05717e-05
0.00426691
-6.89832e-05
0.00426241
-6.73692e-05
0.00425838
-6.58031e-05
0.00425479
-6.43849e-05
0.00425162
-6.3114e-05
0.00424882
-6.19078e-05
0.00424638
-6.0721e-05
0.00424427
-5.95308e-05
0.00424245
-5.83545e-05
0.0042409
-5.72245e-05
0.00423959
-5.61659e-05
0.00423848
-5.51706e-05
0.00423757
-5.42098e-05
0.00423685
-5.32463e-05
0.0042363
-5.22851e-05
0.00423591
-5.13557e-05
0.00423568
-5.05016e-05
0.00423559
-4.96912e-05
0.00423561
-4.89132e-05
0.00423575
-4.81335e-05
0.00423599
-4.73684e-05
0.00423633
-4.6614e-05
0.00423674
-4.58895e-05
0.00423723
-4.51862e-05
0.00423778
-4.45129e-05
0.00423838
-4.38485e-05
0.00423903
-4.31937e-05
0.00423972
-4.25364e-05
0.00424044
-4.18925e-05
0.00424118
-4.12566e-05
0.00424194
-4.06405e-05
0.00424271
-4.00261e-05
0.00424349
-3.94216e-05
0.00424427
-3.88111e-05
0.00424506
-3.82122e-05
0.00424583
-3.76113e-05
0.00424661
-3.7027e-05
0.00424737
-3.64387e-05
0.00424813
-3.58628e-05
0.00424887
-3.5281e-05
0.00424961
-3.47147e-05
0.00425033
-3.41478e-05
0.00425104
-3.36013e-05
0.00425173
-3.30577e-05
0.00425241
-3.25409e-05
0.00425308
-3.20311e-05
0.00425373
-3.15733e-05
0.00425437
-3.1125e-05
0.004255
-3.08247e-05
0.00425563
-3.05007e-05
0.00425624
-3.06513e-05
0.00425686
-3.0529e-05
0.00425752
-3.18828e-05
-3.17338e-05
0.00647001
4.96756e-05
0.00650349
1.5756e-05
0.00650081
-0.000155926
0.00644848
-0.000423503
0.00634924
-0.000697455
0.00621162
-0.000920195
0.00605284
-0.00105809
0.00589064
-0.00110308
0.00573788
-0.00107065
0.00560308
-0.000985815
0.00548887
-0.000872977
0.00539482
-0.000752379
0.00531889
-0.000638994
0.00525799
-0.000538807
0.00520851
-0.00045222
0.00516795
-0.000379276
0.00513473
-0.000320804
0.005107
-0.00027474
0.00508252
-0.000236552
0.00505978
-0.000204045
0.00503818
-0.000178091
0.00501702
-0.000158563
0.00499551
-0.000142888
0.00497299
-0.000128843
0.004949
-0.000116328
0.00492353
-0.000106314
0.00489685
-9.88816e-05
0.00486926
-9.28541e-05
0.004841
-8.73975e-05
0.00481232
-8.24954e-05
0.00478365
-7.84945e-05
0.00475556
-7.55438e-05
0.00472858
-7.34428e-05
0.00470302
-7.17725e-05
0.00467889
-7.01789e-05
0.00465626
-6.87639e-05
0.00463522
-6.76486e-05
0.00461575
-6.67844e-05
0.00459775
-6.60316e-05
0.00458105
-6.52468e-05
0.00456552
-6.43766e-05
0.00455105
-6.3401e-05
0.00453759
-6.2382e-05
0.00452514
-6.14485e-05
0.0045136
-6.06396e-05
0.0045029
-5.98713e-05
0.00449296
-5.90469e-05
0.00448376
-5.81644e-05
0.00447525
-5.72928e-05
0.00446734
-5.64814e-05
0.00445997
-5.57417e-05
0.0044531
-5.50395e-05
0.00444673
-5.43443e-05
0.00444082
-5.36247e-05
0.00443536
-5.28891e-05
0.0044303
-5.21674e-05
0.00442563
-5.14929e-05
0.00442131
-5.08566e-05
0.00441733
-5.02297e-05
0.00441366
-4.95756e-05
0.00441028
-4.89055e-05
0.00440717
-4.82423e-05
0.00440426
-4.75978e-05
0.00440154
-4.69683e-05
0.00439899
-4.63604e-05
0.0043966
-4.57436e-05
0.00439436
-4.51283e-05
0.00439225
-4.45035e-05
0.00439025
-4.3895e-05
0.00438836
-4.32932e-05
0.00438656
-4.27121e-05
0.00438484
-4.21258e-05
0.00438318
-4.15381e-05
0.00438158
-4.09371e-05
0.00438003
-4.03426e-05
0.00437852
-3.97492e-05
0.00437705
-3.91707e-05
0.00437562
-3.85873e-05
0.0043742
-3.801e-05
0.00437282
-3.74224e-05
0.00437145
-3.68449e-05
0.0043701
-3.62634e-05
0.00436877
-3.56974e-05
0.00436746
-3.5126e-05
0.00436616
-3.45663e-05
0.00436488
-3.40001e-05
0.00436362
-3.34493e-05
0.00436236
-3.28974e-05
0.00436113
-3.2366e-05
0.00435991
-3.18372e-05
0.0043587
-3.13348e-05
0.00435751
-3.08403e-05
0.00435633
-3.03957e-05
0.00435517
-2.99629e-05
0.00435402
-2.96734e-05
0.00435289
-2.93654e-05
0.00435176
-2.95211e-05
0.00435065
-2.94241e-05
0.0043495
-3.07293e-05
-3.06854e-05
0.0064645
2.71008e-05
0.00648861
-8.35561e-06
0.00648172
-0.000149035
0.00642849
-0.000370271
0.00633104
-0.000600005
0.00619799
-0.000787146
0.00604459
-0.000904685
0.00588729
-0.000945786
0.00573873
-0.000922098
0.00560656
-0.000853646
0.00549348
-0.000759898
0.00539973
-0.000658625
0.00532361
-0.000562878
0.0052619
-0.000477092
0.00521145
-0.000401768
0.00517073
-0.000338556
0.00513849
-0.000288572
0.00511238
-0.00024862
0.00509007
-0.000214244
0.00507103
-0.000185008
0.00505571
-0.000162776
0.00504354
-0.000146386
0.00503275
-0.000132099
0.00502238
-0.000118477
0.00501299
-0.000106933
0.00500495
-9.8278e-05
0.00499758
-9.1515e-05
0.00499007
-8.53356e-05
0.00498191
-7.92409e-05
0.00497292
-7.35086e-05
0.00496315
-6.87243e-05
0.00495262
-6.501e-05
0.00494117
-6.19904e-05
0.00492858
-5.91868e-05
0.00491473
-5.63312e-05
0.00489966
-5.36957e-05
0.0048836
-5.15835e-05
0.00486684
-5.00291e-05
0.00484967
-4.88549e-05
0.00483227
-4.78496e-05
0.0048148
-4.69111e-05
0.00479749
-4.60822e-05
0.00478061
-4.55066e-05
0.0047644
-4.52377e-05
0.00474891
-4.51513e-05
0.00473412
-4.50756e-05
0.00472
-4.49361e-05
0.00470662
-4.4778e-05
0.00469399
-4.4668e-05
0.00468211
-4.45985e-05
0.00467089
-4.45216e-05
0.00466025
-4.44029e-05
0.00465013
-4.42232e-05
0.00464051
-4.40021e-05
0.00463138
-4.3758e-05
0.00462272
-4.35094e-05
0.00461453
-4.3304e-05
0.00460679
-4.31121e-05
0.00459945
-4.28914e-05
0.00459249
-4.26181e-05
0.00458589
-4.2302e-05
0.00457961
-4.19657e-05
0.00457362
-4.16106e-05
0.0045679
-4.12418e-05
0.0045624
-4.08667e-05
0.00455712
-4.04622e-05
0.00455202
-4.0027e-05
0.00454707
-3.95565e-05
0.00454226
-3.90808e-05
0.00453756
-3.85938e-05
0.00453296
-3.8116e-05
0.00452846
-3.76194e-05
0.00452403
-3.71124e-05
0.00451968
-3.65828e-05
0.00451539
-3.60555e-05
0.00451117
-3.55239e-05
0.004507
-3.50058e-05
0.00450289
-3.44801e-05
0.00449884
-3.39582e-05
0.00449485
-3.34271e-05
0.00449091
-3.29048e-05
0.00448702
-3.2379e-05
0.00448319
-3.18669e-05
0.00447942
-3.13497e-05
0.00447569
-3.08443e-05
0.00447203
-3.03329e-05
0.00446841
-2.98374e-05
0.00446486
-2.93408e-05
0.00446136
-2.88653e-05
0.00445791
-2.8392e-05
0.00445452
-2.7945e-05
0.00445119
-2.75067e-05
0.00444791
-2.71148e-05
0.00444468
-2.6738e-05
0.0044415
-2.64909e-05
0.00443838
-2.62402e-05
0.00443525
-2.6397e-05
0.00443222
-2.63885e-05
0.00442904
-2.75546e-05
-2.7875e-05
0.00645963
9.85233e-06
0.00647551
-2.42333e-05
0.00646423
-0.000137754
0.00641073
-0.000316773
0.00631603
-0.000505309
0.00618843
-0.000659541
0.00604146
-0.000757714
0.00588977
-0.0007941
0.00574514
-0.000777471
0.005615
-0.000723506
0.00550268
-0.000647571
0.00540907
-0.000565015
0.00533241
-0.000486216
0.00526938
-0.000414069
0.00521781
-0.000350196
0.00517684
-0.000297588
0.00514433
-0.000256064
0.00511699
-0.000221275
0.00509336
-0.000190614
0.00507425
-0.000165903
0.00505959
-0.000148111
0.00504716
-0.000133962
0.00503537
-0.000120305
0.00502483
-0.000107939
0.00501659
-9.86929e-05
0.0050103
-9.19811e-05
0.00500472
-8.59371e-05
0.00499907
-7.969e-05
0.00499368
-7.38458e-05
0.0049893
-6.91304e-05
0.00498603
-6.54509e-05
0.00498328
-6.22656e-05
0.00498045
-5.91574e-05
0.00497729
-5.60231e-05
0.00497408
-5.31245e-05
0.00497106
-5.06801e-05
0.00496807
-4.85924e-05
0.00496487
-4.68236e-05
0.00496119
-4.51763e-05
0.00495681
-4.34734e-05
0.00495166
-4.17594e-05
0.00494578
-4.0199e-05
0.00493922
-3.89498e-05
0.00493201
-3.80287e-05
0.00492411
-3.72514e-05
0.00491546
-3.64272e-05
0.00490606
-3.55348e-05
0.00489599
-3.47094e-05
0.00488542
-3.40984e-05
0.00487455
-3.3728e-05
0.00486353
-3.34954e-05
0.00485242
-3.32919e-05
0.00484125
-3.30591e-05
0.00483007
-3.28209e-05
0.00481896
-3.26433e-05
0.00480801
-3.25687e-05
0.00479726
-3.25514e-05
0.00478669
-3.25417e-05
0.00477631
-3.2508e-05
0.00476613
-3.24451e-05
0.00475618
-3.23468e-05
0.00474644
-3.22232e-05
0.00473692
-3.20937e-05
0.00472763
-3.19514e-05
0.00471854
-3.17801e-05
0.00470965
-3.15656e-05
0.00470092
-3.12999e-05
0.00469236
-3.09932e-05
0.00468394
-3.06664e-05
0.00467567
-3.03188e-05
0.00466752
-2.99736e-05
0.00465951
-2.96043e-05
0.00465162
-2.92217e-05
0.00464385
-2.88145e-05
0.0046362
-2.84052e-05
0.00462867
-2.79893e-05
0.00462125
-2.75872e-05
0.00461394
-2.71762e-05
0.00460675
-2.67702e-05
0.00459968
-2.63534e-05
0.00459272
-2.59453e-05
0.00458587
-2.55325e-05
0.00457914
-2.51336e-05
0.00457252
-2.47324e-05
0.00456602
-2.43418e-05
0.00455964
-2.39482e-05
0.00455337
-2.35691e-05
0.00454722
-2.31912e-05
0.00454119
-2.28327e-05
0.00453527
-2.24779e-05
0.00452947
-2.21474e-05
0.00452379
-2.18269e-05
0.00451823
-2.1546e-05
0.00451277
-2.12854e-05
0.00450741
-2.11282e-05
0.00450217
-2.0995e-05
0.00449693
-2.116e-05
0.00449186
-2.13207e-05
0.00448653
-2.22255e-05
-2.3247e-05
0.00645566
-3.30162e-06
0.00646519
-3.37649e-05
0.00645042
-0.000122979
0.00639697
-0.000263324
0.00630461
-0.000412947
0.00618117
-0.0005361
0.00603901
-0.00061556
0.0058916
-0.000646691
0.00575007
-0.000635941
0.00562165
-0.000595088
0.0055103
-0.000536213
0.00541692
-0.000471638
0.00533932
-0.000408622
0.00527495
-0.000349699
0.00522276
-0.000298
0.00518145
-0.000256276
0.00514761
-0.000222223
0.00511832
-0.000191989
0.00509399
-0.000166283
0.00507548
-0.000147388
0.00506052
-0.000133157
0.0050464
-0.00011984
0.00503345
-0.000107353
0.00502325
-9.77409e-05
0.00501559
-9.10318e-05
0.00500887
-8.5264e-05
0.00500203
-7.9097e-05
0.00499549
-7.31528e-05
0.00499023
-6.85805e-05
0.00498628
-6.51874e-05
0.00498298
-6.21487e-05
0.00497964
-5.89207e-05
0.00497612
-5.5644e-05
0.00497297
-5.28714e-05
0.00497056
-5.07137e-05
0.00496868
-4.87999e-05
0.00496697
-4.6884e-05
0.00496514
-4.49858e-05
0.00496318
-4.32177e-05
0.00496139
-4.1691e-05
0.00495991
-4.02793e-05
0.00495858
-3.88687e-05
0.00495722
-3.75808e-05
0.00495567
-3.64837e-05
0.00495388
-3.54591e-05
0.00495185
-3.44028e-05
0.00494963
-3.33128e-05
0.00494719
-3.22656e-05
0.00494442
-3.13325e-05
0.0049412
-3.05102e-05
0.00493743
-2.97204e-05
0.00493304
-2.89056e-05
0.00492804
-2.8057e-05
0.00492244
-2.72169e-05
0.00491623
-2.64385e-05
0.00490941
-2.57446e-05
0.00490194
-2.50858e-05
0.00489383
-2.44342e-05
0.00488512
-2.37905e-05
0.00487585
-2.31799e-05
0.00486611
-2.26078e-05
0.00485596
-2.20747e-05
0.00484545
-2.15839e-05
0.00483464
-2.11332e-05
0.00482357
-2.07133e-05
0.00481232
-2.03175e-05
0.00480096
-1.99366e-05
0.00478954
-1.95733e-05
0.0047781
-1.9224e-05
0.00476668
-1.8905e-05
0.00475531
-1.86031e-05
0.00474403
-1.832e-05
0.00473285
-1.80413e-05
0.0047218
-1.7764e-05
0.00471089
-1.74971e-05
0.00470013
-1.72328e-05
0.00468954
-1.69904e-05
0.0046791
-1.67455e-05
0.00466885
-1.65164e-05
0.00465878
-1.62802e-05
0.00464889
-1.60579e-05
0.0046392
-1.58386e-05
0.0046297
-1.56329e-05
0.0046204
-1.54327e-05
0.00461129
-1.52405e-05
0.0046024
-1.50524e-05
0.0045937
-1.48741e-05
0.00458522
-1.47027e-05
0.00457693
-1.45436e-05
0.00456884
-1.43923e-05
0.00456095
-1.42562e-05
0.00455325
-1.41297e-05
0.00454574
-1.40306e-05
0.00453841
-1.39548e-05
0.00453122
-1.39424e-05
0.00452421
-1.39885e-05
0.00451723
-1.41741e-05
0.00451049
-1.45795e-05
0.00450335
-1.50869e-05
-1.71157e-05
0.00645273
-1.34586e-05
0.00645752
-3.85542e-05
0.00643989
-0.000105347
0.00638638
-0.000209819
0.00629583
-0.000322396
0.00617559
-0.000415857
0.00603717
-0.000477139
0.00589303
-0.000502553
0.00575369
-0.000496604
0.00562624
-0.000467637
0.00551487
-0.000424843
0.00542034
-0.0003771
0.00534047
-0.000328758
0.00527423
-0.000283458
0.00522133
-0.000245095
0.00517843
-0.000213377
0.00514152
-0.000185314
0.00511051
-0.000160981
0.00508636
-0.000142134
0.00506676
-0.00012779
0.00504866
-0.000115054
0.00503214
-0.00010332
0.00501872
-9.39379e-05
0.00500802
-8.7034e-05
0.00499821
-8.12223e-05
0.00498837
-7.54286e-05
0.00497917
-6.98898e-05
0.0049714
-6.53841e-05
0.00496479
-6.19692e-05
0.00495855
-5.89474e-05
0.00495213
-5.57289e-05
0.00494567
-5.24648e-05
0.00493971
-4.96823e-05
0.00493433
-4.74886e-05
0.0049292
-4.55893e-05
0.00492403
-4.36319e-05
0.00491867
-4.15183e-05
0.00491322
-3.9534e-05
0.00490789
-3.78929e-05
0.00490269
-3.64868e-05
0.0048975
-3.50937e-05
0.00489225
-3.36198e-05
0.00488685
-3.21802e-05
0.00488127
-3.09019e-05
0.00487556
-2.97531e-05
0.0048698
-2.86436e-05
0.00486402
-2.75255e-05
0.00485818
-2.64284e-05
0.00485224
-2.53925e-05
0.00484615
-2.44235e-05
0.00483992
-2.34831e-05
0.00483356
-2.25547e-05
0.00482714
-2.16373e-05
0.00482068
-2.07507e-05
0.00481415
-1.99058e-05
0.0048075
-1.90992e-05
0.0048007
-1.82881e-05
0.00479374
-1.74727e-05
0.00478662
-1.66732e-05
0.00477936
-1.59183e-05
0.00477195
-1.51956e-05
0.00476436
-1.44867e-05
0.00475656
-1.37858e-05
0.00474854
-1.31055e-05
0.00474028
-1.24553e-05
0.0047318
-1.18429e-05
0.00472313
-1.12642e-05
0.00471427
-1.07168e-05
0.00470525
-1.01953e-05
0.00469605
-9.71095e-06
0.00468672
-9.26812e-06
0.00467726
-8.86584e-06
0.00466772
-8.50183e-06
0.00465813
-8.1692e-06
0.0046485
-7.86901e-06
0.00463887
-7.60058e-06
0.00462924
-7.36356e-06
0.00461966
-7.16215e-06
0.00461013
-6.98783e-06
0.00460069
-6.84042e-06
0.00459135
-6.71486e-06
0.00458212
-6.61406e-06
0.00457302
-6.53478e-06
0.00456407
-6.47756e-06
0.00455526
-6.43627e-06
0.00454662
-6.41116e-06
0.00453815
-6.39876e-06
0.00452985
-6.4009e-06
0.00452172
-6.41373e-06
0.00451376
-6.43798e-06
0.00450598
-6.47102e-06
0.00449836
-6.51277e-06
0.0044909
-6.5707e-06
0.0044836
-6.65239e-06
0.00447641
-6.75742e-06
0.00446938
-6.951e-06
0.00446232
-7.12142e-06
0.00445547
-7.72748e-06
0.00444816
-7.77497e-06
-1.07115e-05
0.0064508
-2.14627e-05
0.00645216
-3.99198e-05
0.00643219
-8.53722e-05
0.00637824
-0.000155876
0.00628837
-0.000232521
0.00616929
-0.000296782
0.00603184
-0.00033969
0.00588773
-0.000358444
0.00574702
-0.00035589
0.00561745
-0.000338064
0.005503
-0.000310398
0.00540352
-0.00027762
0.00531896
-0.000244198
0.0052492
-0.000213694
0.00519107
-0.000186962
0.00514103
-0.000163343
0.00509849
-0.000142774
0.00506333
-0.000125821
0.00503321
-0.000112015
0.00500575
-0.000100329
0.00498084
-9.01409e-05
0.00495912
-8.16007e-05
0.0049398
-7.46236e-05
0.00492152
-6.87504e-05
0.00490387
-6.35676e-05
0.00488729
-5.8853e-05
0.00487199
-5.45885e-05
0.00485747
-5.08657e-05
0.00484317
-4.76661e-05
0.004829
-4.47787e-05
0.00481524
-4.19657e-05
0.00480201
-3.92435e-05
0.00478915
-3.6817e-05
0.00477639
-3.47299e-05
0.00476365
-3.28455e-05
0.00475102
-3.10014e-05
0.00473864
-2.91416e-05
0.00472651
-2.74022e-05
0.00471451
-2.58905e-05
0.00470256
-2.45466e-05
0.00469072
-2.32496e-05
0.00467905
-2.19461e-05
0.00466756
-2.06944e-05
0.00465623
-1.95721e-05
0.00464504
-1.85643e-05
0.00463401
-1.76131e-05
0.00462316
-1.66779e-05
0.00461251
-1.5774e-05
0.00460205
-1.49283e-05
0.00459177
-1.41496e-05
0.0045817
-1.3414e-05
0.00457185
-1.27066e-05
0.00456224
-1.20245e-05
0.00455287
-1.13754e-05
0.00454372
-1.07633e-05
0.00453481
-1.01858e-05
0.00452614
-9.6213e-06
0.00451774
-9.06675e-06
0.0045096
-8.53471e-06
0.00450172
-8.03784e-06
0.00449409
-7.56514e-06
0.00448671
-7.10465e-06
0.00447957
-6.65036e-06
0.00447268
-6.21279e-06
0.00446602
-5.79558e-06
0.00445958
-5.40438e-06
0.00445335
-5.03009e-06
0.0044473
-4.67326e-06
0.00444143
-4.32605e-06
0.00443572
-3.99925e-06
0.00443016
-3.7017e-06
0.00442472
-3.42723e-06
0.00441939
-3.17484e-06
0.00441416
-2.94366e-06
0.00440902
-2.72827e-06
0.00440396
-2.53602e-06
0.00439896
-2.3614e-06
0.00439401
-2.21369e-06
0.00438911
-2.08503e-06
0.00438424
-1.97443e-06
0.0043794
-1.879e-06
0.00437459
-1.79829e-06
0.00436979
-1.73668e-06
0.004365
-1.68964e-06
0.00436022
-1.65759e-06
0.00435545
-1.63688e-06
0.00435068
-1.62912e-06
0.00434591
-1.63303e-06
0.00434115
-1.64949e-06
0.00433639
-1.67644e-06
0.00433163
-1.71374e-06
0.00432688
-1.76284e-06
0.00432213
-1.82426e-06
0.00431739
-1.91304e-06
0.00431264
-1.99972e-06
0.00430788
-2.19234e-06
0.00430301
-2.25836e-06
0.00429815
-2.86586e-06
0.00429293
-2.55765e-06
-5.6363e-06
0.00644653
-2.70128e-05
0.00644397
-3.73618e-05
0.00642001
-6.141e-05
0.00636214
-9.80094e-05
0.00626748
-0.000137856
0.00614212
-0.000171423
0.00599644
-0.000194016
0.00584205
-0.00020405
0.00568926
-0.000203099
0.00554503
-0.00019384
0.0054135
-0.000178861
0.005297
-0.000161123
0.00519587
-0.000143064
0.00510816
-0.000125984
0.00503164
-0.000110444
0.00496503
-9.67343e-05
0.00490721
-8.49511e-05
0.00485627
-7.48841e-05
0.00481039
-6.61307e-05
0.00476861
-5.85563e-05
0.00473068
-5.2206e-05
0.00469623
-4.71496e-05
0.00466432
-4.27166e-05
0.00463436
-3.87897e-05
0.00460624
-3.54524e-05
0.00457995
-3.25552e-05
0.00455522
-2.98625e-05
0.0045317
-2.73478e-05
0.00450918
-2.51399e-05
0.00448762
-2.32223e-05
0.00446709
-2.1435e-05
0.00444753
-1.96874e-05
0.0044288
-1.80801e-05
0.00441075
-1.66792e-05
0.00439335
-1.54479e-05
0.00437664
-1.4296e-05
0.00436066
-1.31639e-05
0.00434536
-1.20993e-05
0.00433063
-1.11621e-05
0.00431643
-1.03391e-05
0.00430275
-9.57454e-06
0.00428963
-8.83057e-06
0.00427706
-8.12276e-06
0.00426498
-7.48995e-06
0.00425335
-6.93074e-06
0.00424215
-6.41664e-06
0.0042314
-5.92267e-06
0.00422107
-5.45209e-06
0.00421117
-5.02073e-06
0.00420165
-4.63261e-06
0.00419251
-4.27403e-06
0.00418374
-3.93715e-06
0.00417534
-3.62001e-06
0.00416728
-3.32465e-06
0.00415957
-3.05271e-06
0.00415219
-2.80461e-06
0.00414514
-2.57003e-06
0.00413842
-2.3452e-06
0.00413202
-2.13357e-06
0.00412592
-1.94182e-06
0.00412012
-1.76408e-06
0.00411461
-1.59554e-06
0.00410939
-1.43105e-06
0.00410446
-1.27571e-06
0.00409979
-1.12842e-06
0.00409538
-9.92676e-07
0.00409121
-8.60837e-07
0.00408727
-7.35309e-07
0.00408355
-6.08694e-07
0.00408004
-4.83006e-07
0.00407672
-3.80894e-07
0.00407357
-2.76675e-07
0.00407057
-1.79468e-07
0.00406771
-8.80129e-08
0.00406499
1.07709e-09
0.00406237
8.26568e-08
0.00405985
1.59143e-07
0.00405741
2.21392e-07
0.00405505
2.75795e-07
0.00405275
3.21672e-07
0.00405051
3.61393e-07
0.00404832
3.96033e-07
0.00404616
4.19506e-07
0.00404404
4.35427e-07
0.00404194
4.45202e-07
0.00403985
4.50153e-07
0.00403777
4.51524e-07
0.00403569
4.48969e-07
0.0040336
4.38864e-07
0.00403149
4.26125e-07
0.00402938
4.04417e-07
0.00402723
3.78797e-07
0.00402507
3.38837e-07
0.00402287
2.88366e-07
0.00402062
2.49391e-07
0.0040183
1.26003e-07
0.00401589
1.51011e-07
0.00401334
-3.11494e-07
0.00401062
1.60028e-07
-2.32772e-06
0.00625665
0.00621968
0.00615866
0.00606105
0.00592359
0.00575257
0.00555895
0.00535531
0.00515262
0.0049592
0.00478075
0.00462005
0.00447742
0.00435186
0.00424185
0.00414555
0.00406103
0.00398658
0.00392089
0.00386278
0.00381101
0.00376431
0.00372204
0.00368369
0.00364869
0.00361658
0.00358716
0.00356026
0.00353557
0.0035128
0.00349182
0.00347258
0.00345495
0.00343872
0.00342373
0.00340988
0.00339717
0.00338553
0.00337482
0.00336493
0.00335581
0.00334743
0.00333976
0.00333273
0.00332625
0.00332029
0.00331482
0.00330982
0.00330526
0.00330108
0.00329726
0.00329378
0.00329061
0.00328774
0.00328515
0.0032828
0.00328068
0.00327879
0.00327711
0.00327563
0.00327432
0.00327318
0.0032722
0.00327138
0.00327071
0.00327017
0.00326977
0.00326949
0.00326933
0.0032693
0.00326938
0.00326956
0.00326983
0.0032702
0.00327066
0.00327119
0.00327181
0.00327248
0.00327322
0.00327399
0.00327481
0.00327566
0.00327653
0.00327742
0.00327832
0.00327923
0.00328013
0.00328104
0.00328193
0.00328281
0.00328367
0.0032845
0.0032853
0.00328604
0.00328674
0.00328733
0.00328793
0.00328807
0.00328869
-0.000831931
0.000788343
-0.00121946
0.000387527
-0.00139906
0.000179604
-0.00140205
2.98394e-06
-0.00126096
-0.00014109
-0.000964944
-0.000296012
-0.000524487
-0.000440457
-0.000525013
-0.000754951
0.00166096
-0.00111808
0.000750658
-0.00122824
0.000289766
-0.00120009
-2.51742e-05
-0.00105429
-0.000286883
-0.00080876
-0.000541545
-0.000456447
-0.000792769
-0.000981964
-0.000156197
0.00225018
-0.000557935
0.0011524
-0.000717709
0.000449539
-0.000731038
-1.18447e-05
-0.000650845
-0.000367076
-0.000507296
-0.000685094
-0.000303369
-0.000996696
-0.00128582
0.000429658
0.00257866
9.69574e-05
0.0014851
-0.000111094
0.000657591
-0.000205853
8.29143e-05
-0.000222048
-0.000350881
-0.000187708
-0.000719434
-0.000121698
-0.00106271
-0.00140799
0.0008703
0.00276483
0.000617315
0.00173808
0.000395234
0.000879672
0.000239666
0.000238482
0.000137926
-0.00024914
7.01144e-05
-0.000651623
2.21305e-05
-0.00101472
-0.00138632
0.00119707
0.00287795
0.000996732
0.00193842
0.000781882
0.00109452
0.000592635
0.00042773
0.000428773
-8.52788e-05
0.000279854
-0.000502704
0.000137294
-0.000872162
-0.00124949
0.00139125
0.00294685
0.00123795
0.00209171
0.00104154
0.00129093
0.000835837
0.000633433
0.000631636
0.000118922
0.00042646
-0.000297527
0.000215943
-0.000661645
-0.00103401
0.00145069
0.00299259
0.00133262
0.00220978
0.00116187
0.00146168
0.000958573
0.000836734
0.000737558
0.000339938
0.000503684
-6.36542e-05
0.000257037
-0.000414998
-0.000777451
0.00141286
0.00302249
0.0013181
0.00230454
0.00116834
0.00161144
0.000977257
0.00102781
0.000758569
0.000558625
0.000520533
0.000174382
0.000266323
-0.000160788
-0.000511612
0.00130661
0.00303898
0.00123233
0.00237882
0.0011036
0.00174016
0.000929952
0.00120146
0.000724776
0.000763801
0.000497991
0.000401167
0.000254471
8.27317e-05
-0.000257637
0.00116675
0.00304302
0.00111083
0.00243475
0.00100169
0.0018493
0.000848505
0.00135465
0.000663914
0.000948392
0.000457049
0.000608032
0.00023346
0.00030632
-2.46845e-05
0.00101846
0.00303647
0.000977851
0.00247535
0.000885744
0.00194141
0.000752748
0.00148765
0.00059083
0.00111031
0.0004076
0.000791262
0.00020921
0.000504711
0.000184014
0.000877615
0.00302257
0.000848781
0.00250419
0.000771922
0.00201827
0.000657303
0.00160226
0.000516206
0.00125141
0.00035568
0.000951788
0.000181736
0.000678654
0.000365243
0.000753263
0.00300425
0.00073292
0.00252453
0.000668797
0.00208239
0.000570371
0.00170069
0.00044811
0.00137367
0.000308531
0.00109137
0.00015725
0.000829935
0.000521991
0.000647331
0.00298377
0.000632466
0.00253939
0.000578848
0.00213601
0.000494853
0.00178468
0.000389233
0.00147929
0.000268052
0.00121255
0.000136512
0.000961475
0.000658006
0.000558113
0.00296337
0.000546005
0.0025515
0.000500915
0.0021811
0.000429841
0.00185576
0.000338969
0.00157016
0.000233796
0.00131772
0.00011899
0.00107628
0.000776502
0.000484558
0.00294463
0.00047378
0.00256228
0.000435116
0.00221976
0.000374342
0.00191653
0.000295908
0.0016486
0.000204447
0.00140918
0.000103761
0.00117697
0.000879771
0.000425111
0.00292818
0.000414988
0.0025724
0.000380979
0.00225377
0.000327973
0.00196954
0.000259561
0.00171701
0.000179522
0.00148922
9.08859e-05
0.0012656
0.000970167
0.000376665
0.00291405
0.000366895
0.00258217
0.000336423
0.00228425
0.000289495
0.00201647
0.000229149
0.00177735
0.000158538
0.00155983
8.02795e-05
0.00134386
0.00104996
0.000336113
0.00290208
0.000326647
0.00259164
0.000299114