/*--------------------------------*- C++ -*----------------------------------*\
| =========                 |                                                 |
| \\      /  F ield         | OpenFOAM: The Open Source CFD Toolbox           |
|  \\    /   O peration     | Version:  v2012                                 |
|   \\  /    A nd           | Website:  www.openfoam.com                      |
|    \\/     M anipulation  |                                                 |
\*---------------------------------------------------------------------------*/
FoamFile
{
    version     2.0;
    format      ascii;
    class       volScalarField;
    location    "0.005";
    object      nut.air;
}
// * * * * * * * * * * * * * * * * * * * * * * * * * * * * * * * * * * * * * //

dimensions      [0 2 -1 0 0 0 0];


internalField   nonuniform List<scalar> 
1900
(
1.07867e-05
1.25587e-05
1.63768e-05
1.87902e-05
2.39399e-05
2.71525e-05
3.39129e-05
3.82868e-05
4.68663e-05
5.14651e-05
0.000160307
0.000160193
0.000159445
0.000160026
0.000159113
0.000160942
0.00016011
0.000163543
0.000167284
0.000182496
0.000160652
0.000159809
0.000159421
0.000158868
0.00015839
0.000157893
0.000157561
0.00015703
0.000156853
0.000157045
0.000160382
0.000160201
0.000159115
0.000159328
0.000158069
0.000158325
0.000157332
0.000157195
0.000156859
0.000156072
0.000160111
0.000160425
0.000159013
0.000159404
0.000158168
0.000158244
0.000157546
0.000157056
0.000157058
0.000155972
0.000160086
0.000160353
0.000159147
0.000159191
0.000158485
0.000157869
0.000158026
0.000156538
0.000157643
0.000155382
0.0001601
0.00016034
0.000159143
0.000159185
0.000158464
0.000157865
0.000157994
0.000156543
0.000157563
0.000155454
0.000160336
0.000160283
0.000158929
0.000159563
0.000157632
0.000158849
0.000156563
0.000158023
0.000155928
0.000156876
0.000160611
0.00015964
0.00015998
0.000159389
0.000159712
0.000160356
0.000160107
0.000162099
0.000161413
0.000162942
1.01966e-05
1.30584e-05
1.59407e-05
1.90594e-05
2.36622e-05
2.75003e-05
3.32536e-05
3.90116e-05
4.51511e-05
5.31465e-05
0.000174242
0.000926964
0.00071974
0.000459921
0.000311326
0.000239524
0.000214322
0.000203965
0.000198168
0.000194439
0.00019184
0.00018873
0.000183986
0.000177805
0.000171216
0.000165255
0.000160533
0.000157188
0.000155036
0.000153763
0.000153063
0.000152702
0.000152526
0.000152444
0.000152408
0.000152393
0.000152387
0.000152385
0.000152385
0.000152385
0.000152386
0.000152387
0.000152388
0.00015239
0.00015239
0.000152392
0.000152393
0.000152393
0.000152395
0.000152395
0.000152396
0.000152396
0.000152397
0.000152398
0.000152398
0.000152399
0.000152399
0.000152399
0.000152399
0.000152399
0.0001524
0.000152401
0.000152401
0.000152401
0.000152401
0.000152401
0.000152402
0.000152402
0.000152402
0.000152402
0.000152402
0.000152402
0.000152402
0.000152402
0.000152402
0.000152402
0.000152402
0.000152402
0.000152402
0.000152402
0.000152402
0.000152402
0.000152402
0.000152402
0.000152402
0.000152402
0.000152402
0.000152402
0.000152398
0.000152399
0.000152399
0.000152399
0.000152399
0.0001524
0.0001524
0.0001524
0.0001524
0.0001524
0.0001524
0.0001524
0.000152401
0.000152401
0.000152401
0.000152401
0.000152401
0.000152401
0.000152402
0.000152402
0.000152402
0.000152402
0.000293198
0.000316555
0.000281689
0.000224229
0.000201369
0.000194672
0.000193345
0.000192002
0.000190601
0.000189314
0.000187656
0.000185135
0.000181331
0.000176245
0.000170507
0.000165034
0.000160528
0.000157252
0.000155104
0.000153813
0.000153094
0.000152717
0.000152531
0.000152443
0.000152404
0.000152388
0.000152381
0.00015238
0.00015238
0.000152381
0.000152382
0.000152384
0.000152384
0.000152385
0.000152386
0.000152386
0.000152388
0.000152389
0.00015239
0.00015239
0.00015239
0.000152391
0.000152391
0.000152391
0.000152392
0.000152392
0.000152393
0.000152393
0.000152393
0.000152393
0.000152395
0.000152395
0.000152395
0.000152396
0.000152396
0.000152396
0.000152396
0.000152396
0.000152396
0.000152397
0.000152397
0.000152397
0.000152397
0.000152397
0.000152397
0.000152397
0.000152397
0.000152397
0.000152397
0.000152397
0.000152397
0.000152397
0.000152397
0.000152396
0.000152394
0.000152395
0.000152395
0.000152395
0.000152396
0.000152396
0.000152395
0.000152396
0.000152396
0.000152395
0.000152396
0.000152396
0.000152396
0.000152396
0.000152396
0.000152396
0.000152396
0.000152396
0.000152396
0.000152396
0.000152396
0.000152396
0.000152397
0.000152396
0.000152397
0.000152396
0.000173799
0.000175883
0.000175348
0.000175364
0.000179991
0.000183046
0.000186177
0.000187106
0.000187139
0.000186908
0.000185675
0.000182681
0.00017809
0.000172701
0.000167342
0.000162638
0.000158931
0.000156287
0.000154565
0.000153531
0.000152955
0.000152651
0.000152501
0.00015243
0.000152399
0.000152384
0.00015238
0.000152378
0.000152379
0.00015238
0.000152381
0.000152383
0.000152383
0.000152384
0.000152385
0.000152387
0.000152387
0.000152388
0.000152389
0.000152389
0.00015239
0.00015239
0.000152391
0.000152391
0.000152392
0.000152392
0.000152393
0.000152393
0.000152393
0.000152393
0.000152393
0.000152393
0.000152393
0.000152394
0.000152395
0.000152395
0.000152395
0.000152395
0.000152395
0.000152395
0.000152395
0.000152396
0.000152395
0.000152395
0.000152395
0.000152395
0.000152395
0.000152395
0.000152395
0.000152395
0.000152395
0.000152394
0.000152395
0.000152395
0.000152395
0.000152395
0.000152394
0.000152394
0.000152394
0.000152395
0.000152394
0.000152395
0.000152395
0.000152395
0.000152395
0.000152395
0.000152395
0.000152395
0.000152396
0.000152396
0.000152396
0.000152396
0.000152396
0.000152396
0.000152395
0.000152396
0.000152396
0.000152395
0.000152396
0.000152396
0.000156804
0.000157729
0.000161523
0.000165821
0.000174135
0.000177632
0.000181764
0.000185094
0.000185932
0.000186206
0.000185316
0.000182417
0.000177651
0.000171952
0.000166399
0.000161723
0.000158198
0.000155777
0.000154247
0.000153348
0.000152855
0.000152598
0.000152473
0.000152414
0.000152388
0.000152377
0.000152373
0.000152373
0.000152373
0.000152374
0.000152376
0.000152377
0.000152378
0.00015238
0.00015238
0.000152381
0.000152382
0.000152382
0.000152383
0.000152384
0.000152384
0.000152385
0.000152385
0.000152386
0.000152387
0.000152387
0.000152388
0.000152388
0.000152388
0.000152388
0.000152389
0.000152388
0.000152389
0.000152389
0.000152389
0.000152389
0.000152389
0.000152389
0.00015239
0.00015239
0.00015239
0.000152389
0.00015239
0.00015239
0.00015239
0.00015239
0.00015239
0.00015239
0.00015239
0.00015239
0.000152389
0.00015239
0.00015239
0.00015239
0.00015239
0.00015239
0.000152389
0.000152389
0.00015239
0.00015239
0.00015239
0.000152389
0.00015239
0.00015239
0.00015239
0.00015239
0.00015239
0.00015239
0.00015239
0.000152389
0.00015239
0.000152389
0.000152389
0.000152389
0.00015239
0.00015239
0.000152389
0.00015239
0.00015239
0.000152389
0.000156817
0.000154997
0.000158724
0.000162837
0.000169011
0.000175575
0.000180072
0.000184908
0.000187043
0.000188201
0.000187543
0.000184151
0.000178583
0.0001722
0.000166242
0.000161411
0.000157897
0.000155554
0.0001541
0.000153258
0.000152799
0.000152564
0.000152449
0.000152395
0.000152372
0.000152362
0.000152359
0.000152358
0.000152358
0.00015236
0.000152361
0.000152362
0.000152364
0.000152365
0.000152367
0.000152367
0.000152368
0.000152368
0.000152369
0.000152369
0.00015237
0.00015237
0.00015237
0.00015237
0.000152371
0.000152372
0.000152372
0.000152372
0.000152373
0.000152373
0.000152374
0.000152374
0.000152374
0.000152374
0.000152374
0.000152375
0.000152375
0.000152375
0.000152375
0.000152374
0.000152376
0.000152376
0.000152375
0.000152376
0.000152376
0.000152376
0.000152376
0.000152376
0.000152375
0.000152375
0.000152375
0.000152375
0.000152375
0.000152375
0.000152375
0.000152375
0.000152375
0.000152375
0.000152375
0.000152375
0.000152375
0.000152375
0.000152375
0.000152375
0.000152375
0.000152375
0.000152375
0.000152375
0.000152375
0.000152375
0.000152375
0.000152375
0.000152375
0.000152375
0.000152375
0.000152375
0.000152375
0.000152375
0.000152375
0.000152375
0.00015756
0.000154135
0.000157462
0.000161509
0.000167649
0.000174342
0.000186162
0.000192822
0.000198232
0.000200781
0.000199167
0.000193014
0.000184208
0.000175198
0.000167579
0.000161887
0.000157998
0.000155519
0.000154034
0.000153193
0.000152745
0.000152518
0.000152408
0.000152357
0.000152336
0.000152327
0.000152324
0.000152324
0.000152325
0.000152326
0.000152327
0.000152328
0.000152329
0.000152331
0.000152331
0.000152332
0.000152333
0.000152333
0.000152334
0.000152335
0.000152335
0.000152336
0.000152335
0.000152336
0.000152336
0.000152336
0.000152337
0.000152337
0.000152338
0.000152338
0.000152339
0.000152339
0.00015234
0.00015234
0.00015234
0.00015234
0.00015234
0.000152341
0.000152341
0.000152341
0.000152341
0.000152341
0.000152341
0.000152342
0.000152341
0.000152341
0.000152341
0.000152337
0.000152337
0.000152336
0.000152336
0.000152336
0.000152337
0.000152336
0.000152336
0.000152337
0.000152337
0.000152337
0.000152338
0.000152338
0.000152339
0.000152339
0.000152339
0.000152339
0.00015234
0.00015234
0.000152339
0.00015234
0.00015234
0.000152339
0.00015234
0.00015234
0.00015234
0.00015234
0.00015234
0.00015234
0.00015234
0.00015234
0.00015234
0.000152341
0.00015734
0.000153865
0.000157064
0.00016133
0.000169373
0.000184044
0.000219327
0.000235163
0.000240037
0.000243406
0.000240268
0.00022464
0.00020533
0.000187723
0.000174297
0.000165195
0.000159507
0.000156152
0.000154263
0.000153242
0.000152713
0.00015245
0.000152325
0.000152267
0.000152242
0.000152232
0.00015223
0.000152228
0.000152229
0.00015223
0.000152232
0.000152233
0.000152234
0.000152235
0.000152236
0.000152237
0.000152238
0.000152238
0.000152239
0.00015224
0.00015224
0.00015224
0.00015224
0.000152241
0.000152241
0.000152242
0.000152242
0.000152242
0.000152243
0.000152243
0.000152244
0.000152244
0.000152244
0.000152245
0.000152245
0.000152245
0.000152245
0.000152245
0.000152245
0.000152245
0.000152246
0.000152246
0.000152245
0.000152246
0.000152246
0.000152246
0.000152246
0.000152246
0.000152246
0.000152246
0.000152245
0.000152245
0.000152245
0.000152245
0.000152245
0.000152245
0.000152245
0.000152244
0.000152245
0.000152245
0.000152245
0.000152245
0.000152245
0.000152246
0.000152245
0.000152245
0.000152246
0.000152246
0.000152246
0.000152246
0.000152246
0.000152245
0.000152245
0.000152245
0.000152245
0.000152245
0.000152246
0.000152246
0.000152246
0.000152246
0.000155517
0.000155221
0.000159605
0.000172136
0.000203758
0.000261768
0.000327534
0.000350341
0.000353115
0.000353986
0.000340686
0.000304927
0.000263845
0.00022648
0.000197658
0.000178167
0.000166248
0.000159472
0.000155807
0.000153893
0.000152921
0.000152438
0.000152203
0.000152091
0.00015204
0.000152018
0.000152015
0.000152016
0.000152019
0.000152021
0.000152024
0.000152025
0.000152026
0.000152027
0.000152027
0.000152027
0.000152028
0.000152028
0.000152028
0.000152028
0.000152028
0.000152028
0.000152029
0.000152029
0.00015203
0.00015203
0.00015203
0.000152031
0.000152031
0.000152032
0.000152032
0.000152032
0.000152032
0.000152033
0.000152032
0.000152033
0.000152033
0.000152034
0.000152034
0.000152034
0.000152034
0.000152034
0.000152034
0.000152034
0.000152034
0.000152035
0.000152035
0.000152035
0.000152035
0.000152035
0.000152035
0.000152034
0.000152035
0.000152035
0.000152034
0.000152035
0.000152035
0.000152035
0.000152035
0.000152034
0.000152035
0.000152035
0.000152034
0.000152035
0.000152035
0.000152034
0.000152034
0.000152034
0.000152034
0.000152034
0.000152034
0.000152034
0.000152034
0.000152034
0.000152035
0.000152035
0.000152034
0.000152035
0.000152036
0.000152041
0.000164617
0.000176602
0.000216645
0.000288512
0.000388538
0.000482799
0.00053959
0.000546435
0.000549396
0.000548353
0.000508397
0.000440288
0.000365675
0.000298675
0.000245392
0.000207206
0.000182399
0.00016764
0.000159108
0.000154517
0.000152126
0.000150793
0.000150099
0.000149766
0.000149627
0.000149571
0.000149653
0.000149806
0.000149912
0.000149976
0.000150012
0.000150031
0.000150041
0.000150047
0.000150048
0.000150049
0.000150049
0.00015005
0.000150049
0.000150049
0.000150051
0.000150052
0.000150052
0.000150052
0.000150053
0.000150053
0.000150053
0.000150053
0.000150051
0.000150051
0.000150051
0.00015005
0.00015005
0.00015005
0.000150049
0.000150049
0.000150049
0.000150049
0.000150049
0.00015005
0.000150049
0.000150049
0.000150049
0.000150049
0.000150049
0.000150049
0.000150049
0.000150049
0.000150049
0.000150049
0.000150049
0.000150048
0.000150049
0.000150048
0.000150048
0.000150048
0.000150049
0.000150048
0.000150049
0.000150049
0.000150049
0.00015005
0.000150049
0.000150049
0.000150049
0.000150049
0.000150049
0.000150049
0.000150049
0.000150049
0.00015005
0.000150051
0.000150052
0.000150055
0.000150061
0.00015007
0.000150089
0.000150137
0.000150184
0.000150574
6.11655e-05
7.49643e-05
8.99035e-05
0.000107336
0.00013373
0.000159077
0.000173231
0.000181689
0.000182902
0.000174061
0.000161133
0.000148516
0.000137688
0.000129085
0.000123026
0.000119757
0.000118557
0.000117996
0.000118272
0.000119022
0.000119677
0.000120174
0.000120516
0.000120733
0.000120861
0.000120928
0.000120955
0.000120964
0.000120967
0.000120968
0.000120968
0.000120968
0.000120968
0.000120968
0.000120968
0.000120968
0.000120968
0.000120968
0.000120968
0.000120968
0.000120968
0.000120968
0.000120968
0.000120968
0.000120968
0.000120968
0.000120968
0.000120968
0.000120968
0.000120968
0.000120968
0.000120968
0.000120968
0.000120968
0.000120968
0.000120968
0.000120968
0.000120968
0.000120968
0.000120968
0.000120968
0.000120968
0.000120968
0.000120968
0.000120968
0.000120968
0.000120968
0.000120968
0.000120968
0.000120968
0.000120968
0.000120968
0.000120968
0.000120968
0.000120968
0.000120968
0.000120968
0.000120968
0.000120968
0.000120968
0.000120968
0.000120968
0.000120968
0.000120968
0.000120968
0.000120968
0.000120968
0.000120968
0.000120968
0.000120968
0.000120968
0.000120968
0.000120968
0.000120968
0.000120969
0.000120969
0.00012097
0.000120973
0.000120971
0.000120985
0.000119261
0.000416186
0.000425187
0.000601683
0.000587526
0.000529543
0.0004687
0.00019171
0.0014596
0.00118632
0.00145603
0.00154092
0.00142612
0.00126268
0.000976591
0.000170018
0.00231215
0.00218523
0.00207461
0.00197041
0.00175876
0.00156941
0.001388
0.000169027
0.00109954
0.00198757
0.00195302
0.00172236
0.00157443
0.00143089
0.00129274
0.000224579
0.000581021
0.000881143
0.00140707
0.00133521
0.00124357
0.00112365
0.000923468
0.000266891
0.000357016
0.000515302
0.000834063
0.000846206
0.000878953
0.000839715
0.000758683
0.000423951
0.000266557
0.000355836
0.000512933
0.000673632
0.000727382
0.000744243
0.000675749
0.000203686
0.000230529
0.0002801
0.000374822
0.000567863
0.000679311
0.000715728
0.00065428
0.000119933
0.000213215
0.000241995
0.000302121
0.000442723
0.000656648
0.00069874
0.000632114
9.4789e-05
0.000204007
0.000221489
0.000261148
0.00036665
0.000555892
0.000680652
0.000592025
8.4986e-05
0.000198225
0.000208949
0.000237751
0.000321817
0.000489082
0.00063376
0.000541982
8.04478e-05
0.000192681
0.000199902
0.000223072
0.000293961
0.000447165
0.000568354
0.000490276
7.93461e-05
0.00018625
0.00019213
0.000212438
0.000274968
0.000410644
0.000496731
0.000430657
8.28909e-05
0.000179258
0.000184748
0.000203279
0.000258237
0.000368309
0.000417551
0.000358029
9.01587e-05
0.000172415
0.000177558
0.000194038
0.000239712
0.000319548
0.000340744
0.000270149
9.78917e-05
0.000166342
0.000170783
0.00018438
0.000218998
0.000270455
0.00027517
0.00020873
0.00010474
0.000161447
0.000164905
0.000175078
0.00019863
0.000228184
0.000225016
0.000169938
0.000110095
0.000157869
0.000160303
0.000167181
0.000181589
0.000196704
0.000190894
0.000148279
0.000113911
0.000155489
0.000157052
0.000161281
0.000169266
0.000176142
0.000170025
0.000136922
0.000116443
0.000154036
0.000154957
0.00015734
0.000161383
0.000164111
0.000158351
0.000131254
0.000118031
0.000153214
0.000153712
0.000154951
0.000156823
0.000157669
0.000152265
0.000128556
0.000118984
0.000152777
0.000153024
0.000153615
0.000154393
0.000154447
0.000149265
0.000127327
0.000119537
0.000152559
0.000152664
0.000152918
0.000153182
0.000152922
0.000147848
0.000126763
0.000119851
0.000152454
0.000152487
0.000152574
0.000152613
0.000152234
0.000147199
0.000126528
0.000120025
0.000152407
0.000152403
0.000152414
0.000152358
0.000151935
0.000146908
0.000126464
0.000120121
0.000152387
0.000152367
0.000152343
0.000152248
0.00015181
0.000146786
0.000126445
0.000120174
0.000152379
0.000152351
0.000152313
0.000152203
0.00015176
0.000146733
0.000126443
0.000120202
0.000152377
0.000152346
0.000152301
0.000152186
0.00015174
0.000146709
0.000126445
0.000120218
0.000152376
0.000152345
0.000152298
0.000152179
0.000151733
0.000146699
0.000126449
0.000120226
0.000152377
0.000152345
0.000152297
0.000152178
0.000151731
0.000146696
0.000126451
0.000120231
0.000152379
0.000152346
0.000152298
0.000152179
0.000151732
0.000146695
0.000126453
0.000120233
0.000152379
0.000152348
0.000152298
0.00015218
0.000151733
0.000146695
0.000126454
0.000120235
0.000152382
0.000152349
0.0001523
0.000152181
0.000151734
0.000146695
0.000126455
0.000120235
0.000152382
0.00015235
0.000152302
0.000152182
0.000151735
0.000146695
0.000126454
0.000120236
0.000152384
0.00015235
0.000152302
0.000152182
0.000151736
0.000146695
0.000126454
0.000120236
0.000152385
0.000152351
0.000152304
0.000152183
0.000151737
0.000146695
0.000126454
0.000120236
0.000152386
0.000152351
0.000152305
0.000152185
0.000151737
0.000146696
0.000126453
0.000120236
0.000152387
0.000152353
0.000152305
0.000152185
0.000151739
0.000146696
0.000126453
0.000120236
0.000152387
0.000152354
0.000152306
0.000152186
0.00015174
0.000146696
0.000126452
0.000120236
0.000152387
0.000152355
0.000152307
0.000152187
0.00015174
0.000146696
0.000126451
0.000120236
0.000152388
0.000152356
0.000152308
0.000152187
0.000151741
0.000146696
0.00012645
0.000120236
0.000152389
0.000152355
0.000152308
0.000152188
0.000151741
0.000146696
0.00012645
0.000120236
0.000152389
0.000152356
0.000152308
0.000152189
0.000151741
0.000146697
0.000126449
0.000120236
0.000152389
0.000152356
0.000152309
0.00015219
0.000151742
0.000146697
0.000126449
0.000120236
0.00015239
0.000152356
0.00015231
0.00015219
0.000151742
0.000146697
0.000126449
0.000120236
0.000152389
0.000152357
0.000152309
0.000152191
0.000151742
0.000146697
0.000126448
0.000120236
0.000152391
0.000152357
0.00015231
0.000152191
0.000151743
0.000146697
0.000126448
0.000120236
0.000152391
0.000152357
0.000152311
0.000152191
0.000151743
0.000146697
0.000126448
0.000120236
0.000152391
0.000152358
0.000152311
0.000152192
0.000151743
0.000146697
0.000126448
0.000120236
0.000152392
0.000152358
0.000152311
0.000152192
0.000151743
0.000146698
0.000126448
0.000120236
0.000152392
0.000152358
0.000152311
0.000152193
0.000151743
0.000146698
0.000126448
0.000120236
0.000152392
0.000152358
0.000152312
0.000152193
0.000151743
0.000146698
0.000126448
0.000120236
0.000152392
0.000152359
0.000152312
0.000152193
0.000151743
0.000146698
0.000126448
0.000120236
0.000152392
0.000152358
0.000152312
0.000152194
0.000151744
0.000146698
0.000126448
0.000120236
0.000152392
0.000152359
0.000152313
0.000152194
0.000151745
0.000146698
0.000126447
0.000120236
0.000152393
0.000152359
0.000152313
0.000152194
0.000151745
0.000146698
0.000126448
0.000120236
0.000152393
0.000152359
0.000152313
0.000152194
0.000151745
0.000146698
0.000126448
0.000120236
0.000152393
0.000152359
0.000152313
0.000152194
0.000151745
0.000146698
0.000126447
0.000120236
0.000152393
0.00015236
0.000152313
0.000152194
0.000151745
0.000146698
0.000126447
0.000120236
0.000152393
0.00015236
0.000152314
0.000152194
0.000151745
0.000146698
0.000126448
0.000120236
0.000152393
0.00015236
0.000152313
0.000152195
0.000151746
0.000146698
0.000126447
0.000120236
0.000152394
0.00015236
0.000152314
0.000152195
0.000151746
0.000146698
0.000126447
0.000120236
0.000152394
0.00015236
0.000152314
0.000152195
0.000151746
0.000146698
0.000126447
0.000120236
0.000152394
0.00015236
0.000152314
0.000152195
0.000151746
0.000146698
0.000126447
0.000120236
0.000152394
0.00015236
0.000152314
0.000152195
0.000151746
0.000146699
0.000126447
0.000120236
0.000152394
0.00015236
0.000152314
0.000152195
0.000151746
0.000146699
0.000126447
0.000120236
0.000152394
0.00015236
0.000152313
0.000152195
0.000151746
0.000146699
0.000126447
0.000120236
0.000152394
0.00015236
0.000152313
0.000152195
0.000151746
0.000146699
0.000126447
0.000120236
0.000152394
0.00015236
0.000152313
0.000152195
0.000151746
0.000146698
0.000126447
0.000120236
0.000152394
0.000152361
0.000152314
0.000152194
0.000151746
0.000146699
0.000126447
0.000120236
0.000152394
0.000152361
0.000152313
0.000152195
0.000151747
0.000146699
0.000126447
0.000120236
0.000152394
0.00015236
0.000152313
0.000152195
0.000151746
0.000146699
0.000126447
0.000120236
0.000152395
0.00015236
0.000152314
0.000152195
0.000151747
0.000146699
0.000126447
0.000120236
0.000152394
0.000152361
0.000152313
0.000152195
0.000151747
0.000146699
0.000126447
0.000120236
0.000152394
0.000152361
0.000152313
0.000152194
0.000151746
0.000146699
0.000126447
0.000120236
0.000152394
0.000152361
0.000152314
0.000152195
0.000151746
0.000146699
0.000126447
0.000120236
0.000152394
0.000152361
0.000152313
0.000152195
0.000151746
0.000146698
0.000126447
0.000120236
0.000152394
0.000152361
0.000152313
0.000152195
0.000151746
0.000146698
0.000126447
0.000120236
0.000152394
0.000152361
0.000152314
0.000152194
0.000151746
0.000146698
0.000126447
0.000120236
0.000152394
0.000152362
0.000152314
0.000152195
0.000151746
0.000146698
0.000126447
0.000120236
0.000152394
0.000152362
0.000152314
0.000152195
0.000151746
0.000146699
0.000126448
0.000120236
0.000152394
0.000152362
0.000152313
0.000152194
0.000151746
0.000146699
0.000126447
0.000120236
0.000152394
0.000152362
0.000152314
0.000152195
0.000151746
0.000146699
0.000126447
0.000120236
0.000152394
0.000152362
0.000152314
0.000152195
0.000151746
0.000146699
0.000126448
0.000120236
0.000152394
0.000152362
0.000152314
0.000152194
0.000151746
0.000146698
0.000126447
0.000120236
0.000152394
0.000152362
0.000152314
0.000152195
0.000151747
0.000146699
0.000126447
0.000120236
0.000152394
0.000152361
0.000152313
0.000152195
0.000151746
0.000146699
0.000126448
0.000120236
0.000152394
0.000152361
0.000152313
0.000152195
0.000151747
0.000146698
0.000126447
0.000120236
0.000152394
0.000152361
0.000152313
0.000152194
0.000151746
0.000146699
0.000126447
0.000120236
0.000152394
0.000152361
0.000152313
0.000152194
0.000151747
0.000146699
0.000126447
0.000120236
0.000152394
0.000152361
0.000152313
0.000152194
0.000151747
0.000146698
0.000126447
0.000120236
0.000152394
0.000152361
0.000152313
0.000152194
0.000151747
0.000146699
0.000126447
0.000120236
0.000152394
0.000152361
0.000152312
0.000152191
0.000151747
0.000146699
0.000126447
0.000120236
0.000152394
0.000152361
0.000152313
0.000152189
0.000151747
0.000146699
0.000126447
0.000120235
0.000152394
0.000152361
0.000152312
0.00015219
0.000151747
0.000146699
0.000126448
0.000120235
0.000152394
0.000152361
0.000152313
0.00015219
0.000151746
0.000146699
0.000126448
0.000120233
0.000152394
0.000152361
0.000152313
0.00015219
0.000151747
0.000146699
0.000126449
0.000120231
0.000152392
0.000152361
0.000152313
0.00015219
0.000151747
0.000146699
0.000126449
0.000120226
0.00015239
0.000152361
0.000152313
0.00015219
0.000151746
0.000146699
0.000126447
0.000120208
0.000152391
0.000152361
0.000152313
0.000152191
0.000151747
0.000146703
0.000126433
0.000120182
)
;

boundaryField
{
    frontAndBack
    {
        type            empty;
    }
    inlet
    {
        type            calculated;
        value           nonuniform List<scalar> 10(9.54771e-06 0.000160714 0.000160714 0.000160714 0.000160714 0.000160714 0.000160714 0.000160714 0.000160714 9.54729e-06);
    }
    outlet
    {
        type            calculated;
        value           nonuniform List<scalar> 
18
(
0.000152391
0.000152361
0.000152313
0.000152191
0.000151747
0.000146703
0.000126433
0.000150962
0.000152402
0.000152396
0.000152396
0.000152389
0.000152375
0.000152341
0.000152246
0.000152041
0.000150574
0.00012663
)
;
    }
    walls
    {
        type            nutkWallFunction;
        blending        stepwise;
        Cmu             0.09;
        kappa           0.41;
        E               9.8;
        value           nonuniform List<scalar> 
228
(
2.20395e-05
2.44459e-05
2.90471e-05
3.16396e-05
3.66022e-05
3.93905e-05
4.46816e-05
4.7798e-05
5.3216e-05
5.63494e-05
0.000199594
0.000219467
0.000234577
0.000251933
0.000262402
0.000265318
0.00025172
5.1439e-05
5.1439e-05
6.53e-05
6.86111e-05
6.97803e-05
5.75027e-05
4.92578e-05
4.45062e-05
4.22755e-05
4.14879e-05
4.14866e-05
4.18267e-05
4.2654e-05
4.45996e-05
4.74382e-05
5.01883e-05
5.2499e-05
5.42547e-05
5.54882e-05
5.63027e-05
5.6815e-05
5.71253e-05
5.73078e-05
5.74129e-05
5.74725e-05
5.75059e-05
5.75244e-05
5.75347e-05
5.75404e-05
5.75435e-05
5.75451e-05
5.75461e-05
5.75465e-05
5.75468e-05
5.75469e-05
5.7547e-05
5.7547e-05
5.75471e-05
5.75471e-05
5.75471e-05
5.75471e-05
5.75471e-05
5.75471e-05
5.75471e-05
5.75471e-05
5.75471e-05
5.75471e-05
5.75471e-05
5.75471e-05
5.75471e-05
5.75471e-05
5.75471e-05
5.75471e-05
5.75471e-05
5.75471e-05
5.75471e-05
5.75471e-05
5.75471e-05
5.75471e-05
5.75471e-05
5.75471e-05
5.75471e-05
5.75471e-05
5.75471e-05
5.75471e-05
5.7547e-05
5.7547e-05
5.7547e-05
5.7547e-05
5.7547e-05
5.7547e-05
5.7547e-05
5.7547e-05
5.7547e-05
5.7547e-05
5.7547e-05
5.7547e-05
5.7547e-05
5.7547e-05
5.7547e-05
5.7547e-05
5.7547e-05
5.7547e-05
5.7547e-05
5.7547e-05
5.7547e-05
5.7547e-05
5.7547e-05
5.7547e-05
5.7547e-05
5.7547e-05
5.7547e-05
5.7547e-05
5.7547e-05
5.7547e-05
5.7547e-05
5.75469e-05
5.75468e-05
5.75467e-05
5.75445e-05
5.75455e-05
2.11869e-05
2.50909e-05
2.85551e-05
3.19195e-05
3.63586e-05
3.96957e-05
4.42433e-05
4.83755e-05
5.24327e-05
5.72894e-05
6.17623e-05
6.85564e-05
7.44112e-05
7.90718e-05
8.43672e-05
8.70559e-05
8.70684e-05
8.64102e-05
8.47504e-05
8.14073e-05
7.75441e-05
7.40284e-05
7.10723e-05
6.87584e-05
6.71798e-05
6.64423e-05
6.63372e-05
6.64122e-05
6.66948e-05
6.7067e-05
6.73648e-05
6.75799e-05
6.77235e-05
6.78134e-05
6.78663e-05
6.78945e-05
6.79073e-05
6.79127e-05
6.7915e-05
6.7916e-05
6.79165e-05
6.79167e-05
6.79167e-05
6.79168e-05
6.79168e-05
6.79168e-05
6.79168e-05
6.79168e-05
6.79168e-05
6.79168e-05
6.79168e-05
6.79167e-05
6.79167e-05
6.79167e-05
6.79167e-05
6.79167e-05
6.79167e-05
6.79167e-05
6.79167e-05
6.79167e-05
6.79167e-05
6.79167e-05
6.79167e-05
6.79167e-05
6.79167e-05
6.79167e-05
6.79167e-05
6.79167e-05
6.79167e-05
6.79167e-05
6.79167e-05
6.79167e-05
6.79167e-05
6.79167e-05
6.79167e-05
6.79167e-05
6.79167e-05
6.79167e-05
6.79167e-05
6.79167e-05
6.79167e-05
6.79167e-05
6.79167e-05
6.79167e-05
6.79167e-05
6.79167e-05
6.79167e-05
6.79167e-05
6.79167e-05
6.79167e-05
6.79167e-05
6.79167e-05
6.79166e-05
6.79166e-05
6.79166e-05
6.79166e-05
6.79166e-05
6.79166e-05
6.79166e-05
6.79166e-05
6.79166e-05
6.79166e-05
6.79166e-05
6.79166e-05
6.79165e-05
6.79163e-05
6.79161e-05
6.79153e-05
6.79147e-05
6.79105e-05
)
;
    }
}


// ************************************************************************* //
