/*--------------------------------*- C++ -*----------------------------------*\
| =========                 |                                                 |
| \\      /  F ield         | OpenFOAM: The Open Source CFD Toolbox           |
|  \\    /   O peration     | Version:  v2012                                 |
|   \\  /    A nd           | Website:  www.openfoam.com                      |
|    \\/     M anipulation  |                                                 |
\*---------------------------------------------------------------------------*/
FoamFile
{
    version     2.0;
    format      ascii;
    class       volScalarField;
    location    "0.241";
    object      k.air;
}
// * * * * * * * * * * * * * * * * * * * * * * * * * * * * * * * * * * * * * //

dimensions      [0 2 -2 0 0 0 0];


internalField   nonuniform List<scalar> 
5600
(
0.6064
0.840688
0.955273
0.978085
0.949171
0.897644
0.839382
0.787503
0.742988
0.707607
0.679029
0.658665
0.643194
0.632749
0.625319
0.619993
0.616299
0.613296
0.610898
0.608898
0.606948
0.60561
0.604052
0.60325
0.602345
0.60181
0.601454
0.600992
0.600959
0.600492
0.6005
0.599958
0.599893
0.599264
0.599111
0.598473
0.598246
0.597654
0.597384
0.596843
0.596596
0.596088
0.595918
0.595434
0.595349
0.594928
0.594901
0.594562
0.594527
0.594309
0.594258
0.594097
0.594108
0.593927
0.594061
0.593836
0.59409
0.593878
0.594182
0.594049
0.594364
0.594304
0.594655
0.594623
0.595062
0.595005
0.595548
0.595472
0.596088
0.596029
0.596704
0.596659
0.597403
0.597331
0.59817
0.598062
0.599022
0.598891
0.599952
0.599805
0.600938
0.600766
0.601919
0.601776
0.602839
0.6029
0.603636
0.604271
0.60418
0.606169
0.604102
0.609208
0.602304
0.615128
0.595435
0.629927
0.571608
0.676003
0.479046
0.841847
0.371682
0.315707
0.288296
0.27614
0.274236
0.285357
0.306674
0.345341
0.386745
0.4303
0.471503
0.508833
0.542035
0.56923
0.592165
0.609667
0.623517
0.634058
0.64147
0.648082
0.65219
0.656707
0.659761
0.663171
0.665893
0.66801
0.670485
0.671508
0.673576
0.673639
0.675185
0.674693
0.675853
0.675176
0.676053
0.675454
0.676076
0.675631
0.676118
0.675757
0.676311
0.675948
0.676677
0.676301
0.67714
0.676826
0.677528
0.677401
0.677874
0.677929
0.678331
0.678346
0.678957
0.678773
0.67971
0.67934
0.680499
0.680129
0.681323
0.681116
0.682209
0.682108
0.683279
0.683082
0.684479
0.684111
0.6857
0.685236
0.6869
0.686439
0.688193
0.6877
0.689629
0.688957
0.691092
0.690197
0.69257
0.691516
0.694151
0.69296
0.695837
0.694443
0.697453
0.695937
0.698838
0.697553
0.699945
0.699556
0.700606
0.702471
0.700045
0.707414
0.69652
0.716682
0.686406
0.735807
0.659779
0.779701
0.586895
0.882568
0.369168
0.282103
0.227274
0.193666
0.167649
0.154735
0.144667
0.144352
0.146449
0.155267
0.167128
0.181638
0.199673
0.218271
0.23939
0.260637
0.282388
0.304805
0.326047
0.348614
0.369117
0.390647
0.409016
0.425668
0.439957
0.451917
0.463294
0.47156
0.480454
0.486159
0.493257
0.497325
0.503068
0.506182
0.510805
0.513369
0.517059
0.519282
0.522401
0.524248
0.52716
0.528616
0.53146
0.532592
0.535263
0.536327
0.538542
0.539728
0.541457
0.542724
0.544344
0.545321
0.547202
0.547758
0.549982
0.550232
0.552544
0.552802
0.554945
0.555393
0.557336
0.557746
0.559798
0.55993
0.562262
0.562099
0.564595
0.564312
0.566821
0.5665
0.569083
0.568661
0.571474
0.570771
0.573816
0.572773
0.576055
0.574745
0.578341
0.57676
0.580723
0.578762
0.583029
0.580712
0.585085
0.582631
0.586934
0.584676
0.58857
0.587179
0.589637
0.590694
0.589395
0.596091
0.58648
0.605231
0.577796
0.622144
0.558402
0.636268
0.370037
0.28102
0.223455
0.186963
0.157406
0.139329
0.121879
0.11211
0.10249
0.0970027
0.0938478
0.0918176
0.0934739
0.0949714
0.0996437
0.10545
0.112464
0.122445
0.132201
0.14588
0.158893
0.175488
0.192277
0.210468
0.229229
0.247132
0.265904
0.281554
0.298305
0.311253
0.325753
0.336207
0.348335
0.357044
0.367086
0.374552
0.382905
0.389423
0.396676
0.402144
0.408695
0.413041
0.418958
0.422435
0.427495
0.430493
0.434572
0.437522
0.440837
0.443615
0.446817
0.448992
0.452459
0.453967
0.457718
0.458807
0.462386
0.463489
0.466639
0.467906
0.470791
0.471816
0.47486
0.475421
0.478747
0.478972
0.482364
0.482489
0.485803
0.485837
0.489223
0.489054
0.492717
0.492187
0.496068
0.495124
0.499188
0.497922
0.502314
0.500691
0.505512
0.503425
0.50862
0.506079
0.511457
0.508594
0.514104
0.51107
0.516602
0.513808
0.518724
0.517158
0.520159
0.521429
0.520407
0.526982
0.518863
0.533377
0.518391
0.529696
0.370101
0.281379
0.223525
0.187146
0.157203
0.138729
0.120679
0.10915
0.0983542
0.0895526
0.08357
0.0767169
0.0733374
0.0690184
0.066457
0.0651415
0.0630035
0.0644031
0.0634051
0.066646
0.0680123
0.0724909
0.0773831
0.0832659
0.0918644
0.0995708
0.11141
0.120755
0.134628
0.145279
0.16023
0.172029
0.187079
0.198908
0.212732
0.224113
0.236499
0.246977
0.258255
0.267406
0.277873
0.285622
0.295388
0.302141
0.310695
0.316899
0.324032
0.329923
0.335995
0.341328
0.347191
0.351486
0.3575
0.360727
0.366742
0.369335
0.374722
0.377271
0.381907
0.384483
0.388789
0.390847
0.395315
0.396702
0.401378
0.402404
0.406974
0.407919
0.41228
0.413059
0.417433
0.417865
0.422476
0.422488
0.427224
0.426813
0.431566
0.430748
0.43572
0.434524
0.439887
0.438263
0.443926
0.441914
0.447649
0.445354
0.451137
0.448657
0.454426
0.452144
0.457359
0.456053
0.459885
0.460288
0.462038
0.464565
0.464
0.467819
0.467858
0.465855
0.369987
0.281623
0.223524
0.187373
0.157533
0.138723
0.121356
0.108865
0.0988969
0.0890359
0.0831716
0.075647
0.0711182
0.0664359
0.0617498
0.05967
0.0548456
0.0542942
0.0502726
0.0499188
0.0477061
0.0466992
0.0468303
0.0451673
0.0476426
0.0458415
0.0503505
0.049246
0.0553797
0.0558295
0.0631049
0.065888
0.0739835
0.0791752
0.0878855
0.0949603
0.104363
0.112357
0.12274
0.130885
0.142154
0.150344
0.16168
0.169858
0.180418
0.188836
0.198252
0.206602
0.215116
0.222717
0.231149
0.237402
0.246028
0.251049
0.25962
0.264249
0.271882
0.276516
0.283186
0.287659
0.294005
0.297665
0.304151
0.306977
0.313513
0.315987
0.322178
0.324562
0.330379
0.332471
0.338156
0.339696
0.345462
0.346545
0.352268
0.352942
0.3585
0.358792
0.364362
0.364312
0.370068
0.369747
0.375521
0.375051
0.380576
0.380018
0.385288
0.38473
0.389684
0.38951
0.393719
0.394422
0.39758
0.399125
0.401472
0.403327
0.40537
0.40669
0.409538
0.408804
0.36989
0.281715
0.223575
0.187285
0.157908
0.138411
0.121959
0.10857
0.0993742
0.089094
0.0832139
0.0760997
0.0707504
0.0668656
0.0612227
0.059516
0.0542198
0.0531548
0.0491929
0.0475462
0.0455257
0.0427447
0.0427358
0.038805
0.0405694
0.035827
0.0388011
0.0339409
0.0374201
0.0332707
0.0364736
0.0339741
0.0364619
0.0357063
0.0380986
0.0384774
0.0417099
0.0424469
0.0473496
0.048327
0.0546076
0.0565307
0.0634387
0.067039
0.0736852
0.0791231
0.0857613
0.0922377
0.0994188
0.105679
0.114181
0.119726
0.129189
0.134204
0.143619
0.149019
0.157572
0.163431
0.171261
0.177039
0.18492
0.189809
0.197914
0.202027
0.209998
0.213912
0.22133
0.225217
0.232288
0.235886
0.242875
0.245956
0.252956
0.255694
0.262483
0.264918
0.27132
0.273418
0.279614
0.281432
0.287571
0.289312
0.29519
0.296991
0.302358
0.304155
0.309051
0.310853
0.315259
0.317371
0.321052
0.323648
0.326706
0.329405
0.332239
0.334666
0.337262
0.339497
0.341517
0.343791
0.369886
0.281613
0.223782
0.186984
0.158316
0.138045
0.122325
0.108431
0.099429
0.0893478
0.0829473
0.0765814
0.0704666
0.067193
0.0612523
0.0594507
0.0545865
0.0527866
0.0496175
0.0471012
0.045697
0.0423058
0.0425081
0.0382154
0.0398443
0.0348592
0.037356
0.0323265
0.034886
0.0306216
0.0323133
0.0296187
0.030106
0.0285625
0.0288566
0.0273112
0.0284935
0.0261071
0.0286689
0.0257332
0.0288383
0.0265508
0.0290801
0.0286698
0.0299655
0.0312281
0.0324552
0.0341603
0.0368086
0.0374357
0.042398
0.0425617
0.0487145
0.0494251
0.055357
0.0580054
0.0633405
0.0671049
0.0725743
0.0765413
0.0832762
0.0868301
0.0942544
0.0978184
0.105264
0.109424
0.116558
0.121051
0.128007
0.132216
0.139197
0.143111
0.150165
0.154119
0.16101
0.164968
0.171434
0.175155
0.181334
0.184892
0.190929
0.194603
0.200324
0.204169
0.209354
0.213133
0.217832
0.221477
0.225706
0.229482
0.233174
0.237138
0.240494
0.244373
0.247533
0.251296
0.253854
0.257732
0.259317
0.263333
0.369989
0.28135
0.224084
0.186624
0.158633
0.137848
0.122379
0.108585
0.0991631
0.0897309
0.0826247
0.0768485
0.0704204
0.0671086
0.0615691
0.0590942
0.0550548
0.0524448
0.0499423
0.047006
0.0457294
0.0424949
0.0422661
0.0386054
0.0393976
0.035337
0.0367686
0.0327825
0.0341803
0.0309424
0.0315142
0.0296146
0.0292154
0.0280656
0.0277225
0.0262434
0.0267412
0.024447
0.0258847
0.0231552
0.0247082
0.0225696
0.023191
0.0225691
0.0218578
0.0222832
0.0214834
0.0214156
0.0222063
0.0202877
0.0229525
0.0203501
0.0232527
0.0215904
0.0231131
0.0235039
0.0242668
0.0251259
0.0265168
0.0266929
0.0297672
0.0295893
0.0331035
0.0335216
0.0367987
0.0384539
0.0417165
0.0439076
0.0476673
0.049976
0.0542117
0.0566609
0.0611407
0.0642066
0.0689167
0.0725402
0.0772216
0.0808631
0.0855226
0.089272
0.0940835
0.0982899
0.103211
0.107846
0.112593
0.117164
0.121605
0.12597
0.13009
0.134551
0.138416
0.142999
0.146769
0.151378
0.155086
0.159647
0.162951
0.167278
0.170039
0.173849
0.370138
0.281061
0.224347
0.186365
0.158765
0.137866
0.122204
0.108898
0.0988282
0.0900355
0.0824811
0.0768355
0.0706293
0.066797
0.0619545
0.0587488
0.0553496
0.052283
0.050013
0.0470898
0.0455641
0.0428237
0.041854
0.0391907
0.0387588
0.0360836
0.0360611
0.0334957
0.0335908
0.0314301
0.0312086
0.0297764
0.0291221
0.0281161
0.0275239
0.0264572
0.0261878
0.0249097
0.0250369
0.0235374
0.023876
0.022539
0.0225011
0.0219541
0.0211329
0.0212716
0.0202942
0.0201219
0.0201086
0.0187791
0.0198091
0.0180744
0.019011
0.018073
0.0178229
0.0181215
0.0173817
0.0176365
0.017519
0.0169224
0.0178023
0.0169077
0.0177498
0.0173833
0.0176602
0.0180586
0.0182659
0.0186709
0.0193198
0.0196603
0.0206501
0.0211186
0.022189
0.0231287
0.0243451
0.0258124
0.0272356
0.028821
0.0304622
0.0322773
0.0342436
0.036542
0.0389712
0.0419422
0.0447805
0.0480258
0.0510415
0.054328
0.0574538
0.061091
0.0644829
0.0684549
0.0720637
0.0762668
0.0801572
0.0845925
0.0886598
0.0929799
0.0969798
0.10095
0.37025
0.280881
0.224482
0.186268
0.158756
0.137978
0.122014
0.10913
0.0986461
0.0901345
0.0825299
0.0766757
0.0708784
0.0665416
0.0621692
0.0586149
0.0553996
0.0522992
0.0499503
0.0471817
0.0454408
0.043
0.0415994
0.0395524
0.0382994
0.0366207
0.0355021
0.0340311
0.0331431
0.0317435
0.0310642
0.0297765
0.0292033
0.0280466
0.0275187
0.0265921
0.0259206
0.0253095
0.0245915
0.0239832
0.0235436
0.0227623
0.0224931
0.0218561
0.0213829
0.02111
0.0204662
0.0202539
0.0199109
0.0193345
0.0194414
0.0186949
0.0188317
0.0184774
0.0181135
0.0183547
0.0178361
0.0180736
0.0179439
0.0178452
0.0182199
0.0180719
0.0185099
0.0187354
0.0189791
0.019678
0.0200404
0.0208125
0.0215565
0.0224471
0.023502
0.0246224
0.0259177
0.027393
0.0289253
0.030838
0.0326902
0.0349174
0.0370962
0.0396639
0.0421808
0.0450274
0.0479236
0.0511663
0.0544329
0.0579687
0.0614889
0.0651282
0.0688067
0.0726531
0.0765644
0.080616
0.0846046
0.0888124
0.0929258
0.097311
0.101609
0.10603
0.110398
0.11477
0.370306
0.280815
0.224525
0.186267
0.158713
0.138071
0.121907
0.109234
0.0985962
0.0901208
0.0826225
0.0765273
0.0710421
0.0663913
0.0622515
0.0585811
0.0553503
0.0523622
0.0498407
0.047256
0.0453448
0.0430509
0.0415077
0.0396323
0.0381448
0.0367878
0.0352663
0.0342657
0.0328992
0.0319447
0.0309468
0.0298531
0.0292578
0.0280653
0.0276693
0.02668
0.0261064
0.0255957
0.0247807
0.0245597
0.0238446
0.0235885
0.0231788
0.0228626
0.0226954
0.0224586
0.0224484
0.0223775
0.0225567
0.0226648
0.0230641
0.0234341
0.0240368
0.0248133
0.0255528
0.0267873
0.0278682
0.0294078
0.0310049
0.0328431
0.0349806
0.0372538
0.0398517
0.0426608
0.0456741
0.049006
0.0524148
0.0561091
0.0599309
0.0639816
0.0681674
0.0725379
0.0770356
0.0816643
0.0864016
0.0912789
0.0962158
0.101274
0.106279
0.111406
0.116365
0.121423
0.126333
0.131274
0.136101
0.140958
0.145739
0.150445
0.155089
0.159627
0.164131
0.168493
0.172762
0.176978
0.181047
0.185185
0.18916
0.193204
0.197139
0.201113
0.370333
0.280796
0.224546
0.18628
0.158692
0.138117
0.121859
0.109274
0.0985658
0.0901062
0.082643
0.0764467
0.071094
0.0662878
0.0622799
0.0585096
0.0553168
0.0523508
0.0497455
0.0472959
0.0452338
0.0430997
0.0414522
0.0396646
0.0381821
0.0368531
0.0353846
0.0344705
0.0331037
0.0323876
0.0313432
0.0306077
0.030041
0.0292436
0.0290978
0.0284728
0.0284924
0.0283754
0.0284335
0.0289231
0.0291941
0.0301807
0.0309331
0.0323342
0.0337775
0.0355979
0.0378292
0.040184
0.0431724
0.0462394
0.0499063
0.0537769
0.0579951
0.0625706
0.0673181
0.0725082
0.0777936
0.0834434
0.0892073
0.0951779
0.101293
0.107494
0.113792
0.120124
0.12648
0.132762
0.138949
0.145123
0.151231
0.157307
0.163279
0.169193
0.174995
0.180692
0.186318
0.191821
0.197276
0.202589
0.207787
0.212875
0.217773
0.222604
0.227286
0.231973
0.236561
0.241119
0.245547
0.249838
0.254017
0.258026
0.261964
0.265699
0.269356
0.272882
0.276288
0.279687
0.28292
0.286198
0.289342
0.292576
0.370346
0.280792
0.224565
0.186271
0.158692
0.138099
0.12183
0.109246
0.0985035
0.0900662
0.0825565
0.0763848
0.0710113
0.0661972
0.0622343
0.0584161
0.0553231
0.0523352
0.0498128
0.0474658
0.0454291
0.0435403
0.0419569
0.040482
0.0392703
0.0382762
0.0373705
0.0369406
0.036408
0.0365755
0.03664
0.0373903
0.0383213
0.0396897
0.0416596
0.0438318
0.0468568
0.0501014
0.0541251
0.0586585
0.0636365
0.0693355
0.0752164
0.0818863
0.088647
0.0959824
0.103491
0.111198
0.119199
0.127116
0.135343
0.143337
0.151369
0.159312
0.167099
0.174856
0.182346
0.189773
0.196939
0.203964
0.210789
0.217424
0.223892
0.230162
0.236273
0.242265
0.248123
0.253844
0.259388
0.264792
0.270001
0.275073
0.27997
0.284725
0.289369
0.293863
0.298287
0.302544
0.306706
0.31074
0.314629
0.318463
0.322166
0.325839
0.329417
0.332916
0.336278
0.339516
0.342664
0.345668
0.348637
0.351436
0.354223
0.356891
0.359516
0.362125
0.364612
0.367152
0.369582
0.372144
0.370347
0.28079
0.224559
0.186215
0.15865
0.137978
0.121739
0.109083
0.0983562
0.0899189
0.0823944
0.0763362
0.0709778
0.0663646
0.0625571
0.0589912
0.0562978
0.0536881
0.0518123
0.0501283
0.0490093
0.0482664
0.0480685
0.0484174
0.0493663
0.0510184
0.0533776
0.0566174
0.0606052
0.0656699
0.0714882
0.0784585
0.086001
0.0944631
0.103462
0.11297
0.122996
0.133185
0.14385
0.154553
0.16529
0.175947
0.186283
0.196591
0.20634
0.215986
0.225108
0.233938
0.242448
0.250502
0.258358
0.26582
0.2731
0.280037
0.286647
0.293049
0.299073
0.304949
0.310507
0.315915
0.321106
0.326138
0.331016
0.335732
0.340319
0.344747
0.349023
0.353122
0.35704
0.360836
0.36447
0.367999
0.371398
0.374693
0.377903
0.380993
0.384031
0.386926
0.389774
0.392511
0.395173
0.397813
0.400377
0.402948
0.405447
0.407917
0.410313
0.412644
0.414935
0.417129
0.419323
0.421391
0.423499
0.425505
0.427524
0.429524
0.431449
0.433436
0.435343
0.437412
0.370327
0.28075
0.22444
0.186043
0.158453
0.13771
0.121546
0.10891
0.0984431
0.0902901
0.0833085
0.0780518
0.0736551
0.0703986
0.0681466
0.0666094
0.0664063
0.066706
0.0684707
0.0709352
0.0749574
0.0801518
0.0869437
0.0951696
0.104948
0.116025
0.128213
0.141242
0.155032
0.169427
0.184238
0.198973
0.213177
0.22702
0.240172
0.25273
0.26469
0.275902
0.286619
0.296582
0.306079
0.31501
0.323294
0.331186
0.338352
0.345292
0.351678
0.357816
0.363675
0.369155
0.374524
0.379457
0.384209
0.388637
0.392834
0.396885
0.40066
0.404369
0.407839
0.411243
0.414486
0.417645
0.420703
0.423668
0.426575
0.429388
0.432146
0.43483
0.437423
0.439961
0.442405
0.444794
0.447114
0.449364
0.451552
0.453658
0.455736
0.457713
0.459678
0.461562
0.463429
0.465284
0.4671
0.468936
0.47072
0.472501
0.474241
0.475952
0.477653
0.479291
0.480952
0.48252
0.484152
0.485695
0.487291
0.488845
0.490381
0.491951
0.493484
0.495204
0.370213
0.280506
0.224265
0.186015
0.158736
0.138518
0.123402
0.112386
0.104331
0.0993919
0.0967273
0.0966696
0.098298
0.102039
0.107638
0.114962
0.124411
0.135377
0.148655
0.163352
0.180349
0.19873
0.218281
0.238283
0.258285
0.277683
0.29582
0.312661
0.328124
0.342265
0.354951
0.3666
0.377061
0.386706
0.395443
0.403535
0.411061
0.417935
0.424443
0.430266
0.4357
0.440707
0.445232
0.449454
0.453166
0.456817
0.460084
0.463281
0.466317
0.469164
0.472034
0.474663
0.477318
0.479792
0.482198
0.484546
0.486744
0.488953
0.491008
0.493073
0.49503
0.496968
0.498848
0.500685
0.502505
0.504276
0.506039
0.507774
0.509477
0.511162
0.512805
0.514432
0.51602
0.517605
0.519165
0.520678
0.522172
0.523597
0.525019
0.526383
0.527764
0.52912
0.530466
0.53182
0.533144
0.534472
0.535777
0.537071
0.538364
0.53962
0.54091
0.542134
0.543431
0.54465
0.545946
0.547182
0.548451
0.549703
0.550954
0.552393
0.369489
0.281352
0.228647
0.19302
0.17074
0.155944
0.150106
0.15049
0.156491
0.167388
0.181541
0.198893
0.218356
0.239754
0.262342
0.285596
0.309449
0.333034
0.356998
0.380246
0.403342
0.423839
0.441749
0.457312
0.470479
0.482414
0.492487
0.50103
0.508339
0.514626
0.520085
0.52498
0.5292
0.533065
0.536413
0.539498
0.542315
0.544853
0.54734
0.54954
0.551739
0.553734
0.555647
0.55752
0.559143
0.560834
0.562268
0.563757
0.56513
0.566448
0.567813
0.569043
0.570376
0.571602
0.572862
0.574106
0.575293
0.576528
0.577674
0.578871
0.579996
0.581145
0.58226
0.583363
0.584472
0.585556
0.586654
0.587743
0.588834
0.589919
0.591009
0.592099
0.593181
0.594274
0.595352
0.596401
0.597438
0.598432
0.599433
0.600388
0.601379
0.602345
0.603326
0.604305
0.605272
0.606247
0.607208
0.608168
0.609136
0.610088
0.611077
0.612028
0.613047
0.614012
0.615041
0.616035
0.61705
0.618074
0.619082
0.620267
0.372203
0.315427
0.292852
0.279485
0.286414
0.295359
0.331467
0.373629
0.418593
0.463113
0.504506
0.541653
0.573428
0.599962
0.621194
0.637819
0.650567
0.660037
0.667465
0.673003
0.677682
0.681619
0.685144
0.688106
0.690595
0.692639
0.694326
0.695597
0.696475
0.697009
0.697249
0.697389
0.697315
0.697293
0.697096
0.696979
0.696803
0.696637
0.696564
0.696434
0.696457
0.696442
0.696513
0.696631
0.696664
0.696822
0.696835
0.696971
0.697034
0.697135
0.697292
0.697401
0.697637
0.697823
0.698106
0.6984
0.698713
0.699096
0.699449
0.699884
0.700284
0.700744
0.701195
0.701663
0.70216
0.70266
0.703191
0.70373
0.704298
0.704873
0.705479
0.706101
0.706738
0.707399
0.708065
0.708729
0.709393
0.710043
0.710709
0.71135
0.712033
0.712701
0.7134
0.714094
0.714793
0.7155
0.716203
0.716915
0.717638
0.718368
0.71913
0.719886
0.72069
0.721478
0.722299
0.723123
0.723917
0.724757
0.725536
0.72638
0.60674
0.839816
0.952198
0.969549
0.937549
0.881247
0.821372
0.768993
0.724431
0.688379
0.660681
0.640136
0.62538
0.614978
0.607639
0.602416
0.598487
0.595447
0.592906
0.590801
0.588986
0.587513
0.58636
0.585444
0.584768
0.584195
0.583768
0.583416
0.583085
0.582741
0.582331
0.58189
0.581377
0.580873
0.580299
0.579762
0.579181
0.578633
0.57809
0.57756
0.57708
0.5766
0.576186
0.575794
0.575437
0.575133
0.574818
0.574573
0.574305
0.574092
0.573881
0.573695
0.573546
0.573404
0.573314
0.573228
0.573186
0.573165
0.573168
0.573207
0.573256
0.573342
0.573445
0.573571
0.573718
0.573884
0.574074
0.574282
0.574513
0.574761
0.575032
0.575322
0.57563
0.575958
0.5763
0.576655
0.577023
0.577402
0.577799
0.578203
0.57863
0.57906
0.579509
0.579959
0.580415
0.580877
0.581342
0.58182
0.582308
0.58281
0.583326
0.583848
0.584396
0.584929
0.585507
0.586022
0.586588
0.587017
0.587311
0.587293
0.0225505
2.29285
2.88163
3.08462
3.23169
3.28903
3.26928
3.20043
3.10058
2.99376
2.88631
2.78362
2.68912
2.60365
2.52562
2.45294
2.38428
2.31768
2.25163
2.18599
2.11997
2.05385
1.98725
1.92098
1.85448
1.78775
1.72082
1.65432
1.58799
1.52117
1.45461
1.38927
1.3246
1.26034
1.19718
1.13577
1.07583
1.01715
0.960455
0.906332
0.854688
0.805539
0.759618
0.717592
0.678954
0.643132
0.61023
0.580381
0.552773
0.526326
0.500944
0.477878
0.457682
0.439324
0.421673
0.405972
0.394331
0.386769
0.380364
0.373117
0.366155
0.362627
0.363642
0.367703
0.372263
0.376787
0.38167
0.386506
0.389389
0.388712
0.383389
0.374241
0.362621
0.35024
0.337781
0.32562
0.313389
0.301052
0.288142
0.27431
0.258969
0.241865
0.222721
0.20165
0.179134
0.156113
0.133754
0.112945
0.0943772
0.0779969
0.0639806
0.0517675
0.041719
0.0329784
0.0261685
0.0203242
0.0163883
0.0129685
0.0113009
0.00920683
0.358485
1.12931
2.06798
2.51496
2.74864
2.84813
2.85942
2.81131
2.72928
2.63517
2.54039
2.45223
2.37439
2.3068
2.24716
2.19321
2.14329
2.09517
2.04756
1.99978
1.95087
1.90091
1.84933
1.79665
1.74249
1.68668
1.62925
1.57065
1.5111
1.45004
1.38829
1.32638
1.26441
1.20232
1.14087
1.08096
1.02245
0.965126
0.909784
0.85721
0.807392
0.760337
0.716822
0.677551
0.641923
0.609278
0.579686
0.553152
0.52876
0.50537
0.482893
0.462542
0.444885
0.428918
0.413511
0.399805
0.389903
0.383885
0.378816
0.372359
0.365221
0.360377
0.359359
0.361387
0.364495
0.368057
0.372167
0.376307
0.378626
0.377541
0.372021
0.362823
0.351374
0.33937
0.327498
0.316064
0.304656
0.293109
0.280908
0.267656
0.252775
0.236024
0.217167
0.196354
0.17405
0.151181
0.128872
0.108067
0.0894728
0.0731493
0.0592476
0.0473179
0.0376117
0.0293691
0.0230526
0.0178515
0.0143853
0.0115291
0.0101153
0.00847148
0.552096
0.546146
1.02226
1.57799
1.97605
2.18951
2.28088
2.29212
2.25812
2.19984
2.13438
2.07268
2.0166
1.96827
1.9271
1.89148
1.85985
1.82995
1.80079
1.77114
1.73983
1.70684
1.67156
1.63411
1.59415
1.55146
1.5059
1.45766
1.40738
1.35452
1.30022
1.24362
1.18587
1.12726
1.06869
1.01139
0.955386
0.900431
0.847461
0.797473
0.75055
0.706668
0.66664
0.631196
0.599623
0.571179
0.545905
0.523635
0.503329
0.483817
0.465046
0.448149
0.43364
0.420564
0.407872
0.396604
0.388767
0.384408
0.380603
0.37477
0.367257
0.360819
0.357358
0.356789
0.357805
0.359838
0.362718
0.36578
0.367219
0.365468
0.359597
0.350288
0.339016
0.327442
0.316266
0.305694
0.295264
0.284647
0.273267
0.260665
0.24629
0.22991
0.21134
0.190764
0.168667
0.145952
0.123722
0.102948
0.0843696
0.0681352
0.054418
0.0428425
0.0335813
0.0259358
0.0202217
0.0156942
0.0127384
0.0103994
0.00924132
0.00795605
0.531235
0.495029
0.560919
0.766811
1.06947
1.34216
1.52367
1.61913
1.6578
1.66078
1.64551
1.62576
1.60355
1.58326
1.56641
1.55282
1.54151
1.53113
1.5198
1.50737
1.49292
1.47642
1.45743
1.4356
1.41053
1.3821
1.34995
1.31398
1.27509
1.2325
1.18692
1.13756
1.08588
1.03247
0.978388
0.925232
0.873218
0.82207
0.772916
0.726984
0.684437
0.645209
0.610126
0.579921
0.553747
0.530788
0.511063
0.494168
0.478922
0.464172
0.449959
0.437278
0.426513
0.416768
0.407187
0.398742
0.393239
0.390558
0.387788
0.382209
0.373943
0.365518
0.359135
0.355353
0.353543
0.353323
0.354363
0.355818
0.355929
0.353141
0.346661
0.337126
0.326014
0.314923
0.304557
0.294996
0.285701
0.276155
0.2657
0.253802
0.239952
0.223929
0.205613
0.185232
0.163306
0.14073
0.11859
0.0978684
0.0793356
0.0632217
0.0497427
0.0385801
0.0298282
0.0228474
0.0177953
0.0139378
0.0114814
0.00958058
0.00864617
0.00761561
0.4729
0.463138
0.460411
0.486827
0.55644
0.666884
0.78849
0.897615
0.981173
1.03866
1.07557
1.10217
1.12136
1.13744
1.1519
1.16573
1.17873
1.19105
1.20027
1.20701
1.21077
1.21158
1.20928
1.20339
1.19377
1.18022
1.16221
1.1394
1.11281
1.08157
1.04575
1.00553
0.962083
0.916066
0.868655
0.821807
0.775876
0.730553
0.687272
0.647455
0.611313
0.578724
0.55051
0.527355
0.508229
0.492269
0.479463
0.469075
0.459806
0.450591
0.441638
0.43375
0.427094
0.420864
0.414536
0.40907
0.405975
0.404817
0.402681
0.396807
0.38723
0.37631
0.366467
0.358827
0.353416
0.350093
0.348519
0.347678
0.345871
0.341559
0.334121
0.324192
0.31322
0.302683
0.29326
0.284865
0.276856
0.268503
0.259047
0.247877
0.23453
0.218808
0.200675
0.180415
0.158598
0.136122
0.11406
0.0933932
0.0749138
0.0589363
0.0457135
0.0349777
0.0267495
0.0204199
0.0159908
0.0127109
0.0106632
0.00907745
0.00830852
0.00742796
0.411105
0.411237
0.40649
0.402382
0.403332
0.414506
0.431658
0.455627
0.483903
0.515253
0.548272
0.583707
0.619509
0.656955
0.694416
0.731421
0.76743
0.802259
0.833818
0.862139
0.886454
0.906602
0.922701
0.934167
0.941255
0.943653
0.940742
0.931923
0.918337
0.899306
0.874905
0.845811
0.812948
0.777037
0.739273
0.701745
0.664812
0.628141
0.593626
0.562775
0.535766
0.512415
0.493545
0.479663
0.46949
0.462151
0.457577
0.45461
0.45192
0.448637
0.445219
0.442216
0.439522
0.436501
0.433131
0.430429
0.429526
0.429525
0.427483
0.420681
0.409152
0.395155
0.381296
0.369158
0.359361
0.352011
0.346897
0.342914
0.338454
0.332024
0.323215
0.312686
0.301864
0.292005
0.2837
0.276635
0.270037
0.262949
0.254515
0.244033
0.231097
0.215557
0.19748
0.177225
0.155424
0.132993
0.110974
0.0903514
0.0719221
0.0560836
0.0430948
0.0327322
0.0249389
0.0191076
0.0151094
0.0121938
0.010387
0.00895236
0.00826655
0.00741782
0.343608
0.34589
0.344423
0.339072
0.330671
0.322113
0.312711
0.303388
0.294954
0.287574
0.282604
0.282308
0.286327
0.297858
0.316793
0.342367
0.374675
0.412059
0.451752
0.492666
0.532277
0.569056
0.602802
0.631963
0.656159
0.675334
0.688739
0.695456
0.696707
0.691928
0.68113
0.665491
0.645994
0.623411
0.598653
0.573134
0.547843
0.523315
0.501197
0.482759
0.468031
0.456814
0.449897
0.447466
0.447919
0.450387
0.45467
0.459166
0.462754
0.464896
0.466358
0.467368
0.467571
0.466667
0.465329
0.464693
0.465415
0.466
0.463457
0.455172
0.441177
0.423591
0.405265
0.388102
0.373207
0.360929
0.351296
0.343229
0.335282
0.326075
0.315477
0.304191
0.293613
0.284672
0.277728
0.27215
0.267024
0.261182
0.253693
0.243762
0.231052
0.215494
0.197283
0.176885
0.154989
0.132547
0.110537
0.0899547
0.0715672
0.0558637
0.0430412
0.0329138
0.0252972
0.0196308
0.0157007
0.0128023
0.010966
0.00943891
0.00870783
0.00772177
0.263174
0.267066
0.268037
0.265024
0.258023
0.248459
0.236905
0.224096
0.211349
0.199062
0.187953
0.179265
0.17247
0.168865
0.168995
0.172271
0.180384
0.193405
0.210637
0.233398
0.260275
0.289833
0.322079
0.35446
0.385409
0.414429
0.439916
0.460127
0.475845
0.486063
0.490368
0.489966
0.485989
0.478239
0.46815
0.457532
0.447119
0.437899
0.431023
0.427367
0.426903
0.429537
0.435932
0.445677
0.456747
0.468332
0.480105
0.490251
0.498167
0.503752
0.508004
0.510781
0.511627
0.510866
0.510034
0.51037
0.5119
0.512437
0.508978
0.499048
0.482575
0.461375
0.4385
0.416108
0.395663
0.377795
0.362849
0.34988
0.337692
0.325137
0.312465
0.300475
0.29047
0.282871
0.277594
0.273593
0.269859
0.265086
0.258301
0.248648
0.23586
0.220008
0.201419
0.180722
0.15861
0.13613
0.114112
0.0936121
0.0752443
0.0597046
0.0469484
0.0368779
0.029085
0.0231737
0.0188239
0.0154725
0.0131966
0.0111937
0.0101976
0.00878276
0.175686
0.179232
0.181284
0.180615
0.176934
0.171106
0.164019
0.156566
0.150099
0.145041
0.141978
0.141195
0.142212
0.145013
0.149388
0.154541
0.1608
0.168051
0.175809
0.185072
0.19565
0.207524
0.221676
0.237816
0.255364
0.274451
0.294014
0.312503
0.329621
0.3451
0.35778
0.367888
0.376376
0.381996
0.386255
0.391025
0.396237
0.402107
0.409703
0.419639
0.431978
0.446851
0.464572
0.48389
0.502489
0.519715
0.535264
0.547425
0.556249
0.562089
0.565864
0.567099
0.565601
0.562702
0.560855
0.561168
0.562794
0.562906
0.558633
0.54759
0.529417
0.505458
0.478678
0.451356
0.425341
0.401692
0.38108
0.362785
0.345943
0.329825
0.315184
0.302994
0.294242
0.288581
0.285201
0.282683
0.280029
0.275942
0.269402
0.259616
0.246323
0.229862
0.210604
0.18949
0.167026
0.14455
0.122523
0.102294
0.0839124
0.0686228
0.0557812
0.0458057
0.0376305
0.0313648
0.0262012
0.0220238
0.018824
0.0158492
0.0142434
0.0119248
0.104603
0.108306
0.11175
0.114572
0.116694
0.118769
0.121413
0.125265
0.13089
0.138239
0.147272
0.15755
0.168508
0.179699
0.190735
0.201254
0.211214
0.220662
0.229449
0.237886
0.245996
0.253753
0.261648
0.269661
0.277914
0.28695
0.29681
0.307225
0.318279
0.329981
0.341705
0.353517
0.365866
0.377953
0.390334
0.40363
0.417594
0.432176
0.448093
0.465739
0.485396
0.507222
0.530737
0.553932
0.574587
0.592311
0.606842
0.616805
0.622806
0.625512
0.625371
0.621811
0.615548
0.609229
0.6059
0.605978
0.607554
0.607578
0.603381
0.592566
0.574312
0.549353
0.520115
0.488858
0.457934
0.429029
0.403086
0.379717
0.358457
0.339276
0.323528
0.312274
0.305734
0.302505
0.300849
0.299393
0.29721
0.293207
0.286248
0.275829
0.261524
0.244201
0.224001
0.20247
0.179568
0.157322
0.135371
0.115953
0.0977484
0.0831224
0.070157
0.0608151
0.0522453
0.0460734
0.0399461
0.0351693
0.0307654
0.0267091
0.0241847
0.0206426
0.119177
0.123516
0.128324
0.13421
0.141519
0.150605
0.161431
0.174021
0.187993
0.202931
0.218356
0.233637
0.248158
0.261663
0.274086
0.285435
0.295747
0.305161
0.313824
0.321921
0.329702
0.336954
0.343941
0.350775
0.357535
0.364529
0.37194
0.379794
0.388312
0.397669
0.407597
0.418264
0.429853
0.441956
0.454986
0.469228
0.48436
0.500331
0.517795
0.537005
0.558075
0.580353
0.602534
0.622711
0.639522
0.653035
0.66269
0.667507
0.668472
0.666095
0.660605
0.651685
0.641154
0.632848
0.629371
0.630017
0.632345
0.633424
0.630733
0.621843
0.605467
0.581625
0.551928
0.518568
0.484486
0.451972
0.422166
0.395087
0.370774
0.350247
0.335269
0.326548
0.322862
0.321689
0.320806
0.319553
0.316944
0.312281
0.304203
0.292727
0.277073
0.258874
0.237743
0.216078
0.192991
0.171549
0.15008
0.132335
0.115371
0.102848
0.090507
0.0823736
0.0733556
0.06782
0.0608101
0.0564032
0.0509968
0.0469648
0.0436549
0.0399871
0.205188
0.20925
0.213984
0.220269
0.228624
0.239103
0.251432
0.265276
0.280004
0.294985
0.309674
0.323549
0.336437
0.348212
0.358995
0.368874
0.378061
0.386657
0.394771
0.402492
0.40999
0.417135
0.424084
0.430857
0.437428
0.443994
0.450614
0.457294
0.464314
0.471801
0.479628
0.488117
0.497262
0.506842
0.517496
0.529457
0.542458
0.556794
0.573013
0.590776
0.609311
0.627334
0.64353
0.656733
0.666649
0.673715
0.677396
0.677139
0.673916
0.667633
0.658324
0.646327
0.634712
0.627186
0.625354
0.627744
0.63186
0.634962
0.63468
0.628647
0.615209
0.593767
0.565185
0.531741
0.496837
0.463076
0.431664
0.40302
0.377934
0.358604
0.346504
0.341215
0.339727
0.339103
0.337719
0.335722
0.331965
0.326096
0.316585
0.303941
0.287149
0.268399
0.24687
0.225376
0.202686
0.182868
0.163524
0.148677
0.134249
0.124573
0.114004
0.107668
0.0990993
0.0945445
0.0872135
0.083613
0.0776767
0.0747152
0.0710287
0.068796
0.29588
0.299286
0.30346
0.309216
0.316962
0.326615
0.337814
0.35018
0.363034
0.375853