/*--------------------------------*- C++ -*----------------------------------*\
| =========                 |                                                 |
| \\      /  F ield         | OpenFOAM: The Open Source CFD Toolbox           |
|  \\    /   O peration     | Version:  v2012                                 |
|   \\  /    A nd           | Website:  www.openfoam.com                      |
|    \\/     M anipulation  |                                                 |
\*---------------------------------------------------------------------------*/
FoamFile
{
    version     2.0;
    format      ascii;
    class       Cloud<basicKinematicParcel>;
    location    "0.134/lagrangian/kinematicCloud";
    object      positions;
}
// * * * * * * * * * * * * * * * * * * * * * * * * * * * * * * * * * * * * * //

54
(
(1.99494 0.00284543 0.03) 2235
(2.15399 0.0138896 0.03) 2746
(2.13227 0.0214963 0.03) 3045
(2.07177 0.00819876 0.03) 2540
(2.04024 0.0286158 0.03) 3338
(2.07524 0.0222544 0.03) 3041
(1.40694 0.000814898 0.03) 93
(1.9093 0.0330872 0.03) 3529
(1.90062 0.032767 0.03) 3528
(1.99324 0.0120668 0.03) 2735
(2.00349 0.0154523 0.03) 2835
(1.91594 0.00721459 0.03) 2429
(1.59702 0.0378711 0.03) 3806
(1.57711 0.00192399 0.03) 2105
(1.63252 0.0372718 0.03) 3709
(1.9069 0.0179158 0.03) 2929
(1.73929 0.00461698 0.03) 2317
(1.63644 0.0365112 0.03) 3709
(1.79447 0.00855434 0.03) 2521
(1.73896 0.0331387 0.03) 3517
(1.80101 0.0274176 0.03) 3221
(1.62462 0.035696 0.03) 3608
(1.75601 0.0282562 0.03) 3318
(1.68785 0.0072058 0.03) 2413
(1.75551 0.0149232 0.03) 2818
(1.71954 0.0277356 0.03) 3215
(1.6173 0.00590543 0.03) 2408
(1.67002 0.030829 0.03) 3412
(1.46118 0.00267088 0.03) 297
(1.63885 0.0317016 0.03) 3409
(0.629516 9.70458e-05 0.03) 41
(1.49826 0.00390486 0.03) 299
(1.27031 0.0384535 0.03) 1884
(1.61737 0.0214524 0.03) 3008
(1.58824 0.0102296 0.03) 2606
(1.58854 0.0269865 0.03) 3206
(1.57026 0.0129845 0.03) 2705
(1.56011 0.0152269 0.03) 2804
(1.53265 0.0271965 0.03) 3202
(1.20227 0.00134887 0.03) 180
(1.49589 0.011881 0.03) 799
(1.48184 0.0262662 0.03) 1298
(1.44644 0.00990986 0.03) 696
(1.41899 0.00855622 0.03) 594
(1.42527 0.0124801 0.03) 795
(1.41221 0.0249094 0.03) 1194
(1.35921 0.0318739 0.03) 1490
(1.37763 0.0185881 0.03) 991
(1.35667 0.0148955 0.03) 890
(1.32579 0.0296368 0.03) 1388
(1.24804 0.0050188 0.03) 383
(1.30308 0.0144927 0.03) 886
(1.23992 0.0334918 0.03) 1582
(1.14304 0.00303364 0.03) 276
)


// ************************************************************************* //
