/*--------------------------------*- C++ -*----------------------------------*\
| =========                 |                                                 |
| \\      /  F ield         | OpenFOAM: The Open Source CFD Toolbox           |
|  \\    /   O peration     | Version:  v2012                                 |
|   \\  /    A nd           | Website:  www.openfoam.com                      |
|    \\/     M anipulation  |                                                 |
\*---------------------------------------------------------------------------*/
FoamFile
{
    version     2.0;
    format      ascii;
    class       volScalarField;
    location    "0.301";
    object      k.air;
}
// * * * * * * * * * * * * * * * * * * * * * * * * * * * * * * * * * * * * * //

dimensions      [0 2 -2 0 0 0 0];


internalField   nonuniform List<scalar> 
5600
(
0.606315
0.840797
0.955139
0.978144
0.949188
0.897577
0.839564
0.787266
0.743294
0.707286
0.679334
0.658381
0.643336
0.63267
0.625301
0.620045
0.616288
0.61329
0.610964
0.608789
0.607127
0.605407
0.604258
0.603085
0.602461
0.601748
0.601447
0.601027
0.600894
0.600563
0.600431
0.600035
0.599813
0.599333
0.599046
0.598522
0.59821
0.597673
0.597368
0.596845
0.596575
0.596092
0.59588
0.595448
0.595307
0.594939
0.594872
0.594549
0.594546
0.594257
0.594293
0.594046
0.59413
0.593907
0.594044
0.593853
0.594051
0.593898
0.594153
0.594046
0.594367
0.594281
0.594672
0.594604
0.59506
0.595007
0.595531
0.595487
0.596079
0.596036
0.596706
0.596653
0.597409
0.59734
0.598184
0.598093
0.599028
0.598914
0.59993
0.599796
0.600871
0.600743
0.601824
0.601768
0.602747
0.602917
0.603556
0.604309
0.604078
0.606235
0.60396
0.609297
0.602123
0.615266
0.595189
0.630218
0.571127
0.676586
0.478248
0.841506
0.371629
0.315586
0.288639
0.275692
0.274942
0.284673
0.30734
0.344959
0.387087
0.430231
0.471431
0.509023
0.54175
0.569451
0.591925
0.609774
0.62352
0.633869
0.641799
0.647708
0.652622
0.656341
0.66005
0.662977
0.665946
0.668045
0.670325
0.671701
0.673319
0.673898
0.674922
0.674948
0.675601
0.675399
0.675884
0.675588
0.676004
0.675678
0.676092
0.675789
0.676257
0.676018
0.676567
0.676402
0.677028
0.676875
0.677521
0.677339
0.677992
0.677781
0.678479
0.678247
0.679008
0.67879
0.679642
0.679445
0.680406
0.680217
0.681297
0.681092
0.682275
0.682053
0.683342
0.683078
0.684476
0.684161
0.685665
0.68529
0.686909
0.686471
0.688234
0.687694
0.689631
0.688968
0.691102
0.690291
0.692635
0.691655
0.694194
0.693042
0.695743
0.694457
0.697244
0.695945
0.69864
0.697622
0.699797
0.699719
0.700418
0.702693
0.699731
0.707632
0.696111
0.716965
0.685828
0.736461
0.658775
0.780902
0.585162
0.884171
0.369154
0.281895
0.227744
0.192982
0.16861
0.15377
0.145629
0.143608
0.146964
0.155097
0.16701
0.181975
0.199241
0.218599
0.23911
0.260634
0.282487
0.304524
0.326432
0.348208
0.369553
0.390348
0.409293
0.425535
0.439934
0.45205
0.463001
0.471863
0.480056
0.486541
0.492855
0.497681
0.502741
0.50647
0.510609
0.513519
0.516997
0.519321
0.522367
0.524303
0.527065
0.528737
0.531295
0.532735
0.535142
0.536358
0.538586
0.539584
0.541679
0.542506
0.544526
0.545231
0.547225
0.547842
0.549852
0.550392
0.552436
0.552888
0.55497
0.55532
0.557449
0.557679
0.559869
0.559966
0.562237
0.56219
0.564555
0.56437
0.566857
0.56653
0.569162
0.568672
0.57148
0.570793
0.573809
0.572881
0.576135
0.574918
0.578419
0.576891
0.580646
0.578809
0.582805
0.580711
0.584873
0.582679
0.586786
0.584835
0.588404
0.587396
0.589405
0.590845
0.589096
0.596254
0.58601
0.605714
0.577066
0.622951
0.557551
0.636893
0.370118
0.280621
0.224144
0.186007
0.158604
0.13814
0.123007
0.111302
0.102953
0.0969654
0.093559
0.0922994
0.0929536
0.0953295
0.0995128
0.105265
0.112865
0.121875
0.132878
0.145211
0.159492
0.175118
0.192514
0.210432
0.229107
0.247351
0.265528
0.281931
0.297799
0.311713
0.32523
0.336665
0.347928
0.357374
0.36687
0.374695
0.382854
0.389453
0.39662
0.402228
0.408535
0.413222
0.418724
0.422604
0.427384
0.430469
0.4347
0.437272
0.441149
0.443356
0.446998
0.448935
0.452424
0.454137
0.457519
0.459002
0.462282
0.463537
0.466741
0.467773
0.470938
0.471751
0.474908
0.475509
0.47869
0.479092
0.482328
0.482528
0.485869
0.485854
0.48933
0.489092
0.492722
0.49222
0.496034
0.495224
0.499273
0.498109
0.502417
0.500865
0.505456
0.503499
0.508402
0.506057
0.511241
0.508604
0.513951
0.51121
0.516455
0.513998
0.518572
0.517251
0.519953
0.521516
0.520007
0.527315
0.518357
0.533793
0.518125
0.529863
0.370321
0.280733
0.224441
0.185974
0.158503
0.137565
0.12162
0.108668
0.098437
0.0898806
0.0830296
0.0772995
0.0729043
0.0691279
0.0667164
0.0644921
0.0639221
0.0633264
0.0645075
0.0656767
0.0687508
0.0720971
0.0774891
0.0834317
0.0914883
0.100082
0.110737
0.12144
0.133841
0.145977
0.159504
0.172607
0.186599
0.199268
0.212525
0.224231
0.236469
0.247005
0.258162
0.267535
0.277621
0.285874
0.295076
0.302314
0.310596
0.316793
0.324228
0.329571
0.336357
0.341042
0.347335
0.351481
0.357358
0.36099
0.366464
0.369534
0.374638
0.377247
0.382083
0.38429
0.388939
0.390789
0.395306
0.396838
0.401278
0.402531
0.406944
0.407922
0.412358
0.413052
0.417542
0.417923
0.422473
0.422524
0.427165
0.426879
0.43163
0.430925
0.435831
0.434738
0.439853
0.438368
0.443724
0.441872
0.447433
0.445326
0.450969
0.44877
0.454291
0.452303
0.45727
0.456108
0.459741
0.460341
0.46168
0.464765
0.463658
0.467969
0.467829
0.465899
0.370357
0.280753
0.224581
0.186124
0.158732
0.137817
0.121886
0.10887
0.0985271
0.089691
0.0825295
0.0760961
0.0710433
0.0660535
0.0625455
0.0585244
0.0561492
0.0529726
0.0514283
0.0490535
0.0482053
0.0466167
0.0465542
0.0457864
0.0467666
0.0469151
0.0491512
0.0504904
0.0541348
0.0569564
0.0621235
0.0666207
0.0734609
0.0794966
0.0877459
0.0949988
0.104357
0.112431
0.122542
0.13114
0.141776
0.150686
0.161301
0.170001
0.180373
0.188614
0.198526
0.206146
0.215489
0.222436
0.231202
0.237488
0.245725
0.251403
0.259275
0.264401
0.271836
0.276387
0.283413
0.287414
0.29411
0.297622
0.304052
0.30714
0.313367
0.316084
0.322159
0.324508
0.330452
0.332427
0.338236
0.339766
0.34544
0.34658
0.352175
0.352956
0.35851
0.358933
0.364443
0.364549
0.370041
0.369878
0.375344
0.374993
0.380356
0.37996
0.385094
0.384825
0.389549
0.389642
0.393667
0.394459
0.397461
0.399167
0.401149
0.403425
0.40513
0.406696
0.409566
0.408866
0.370364
0.280744
0.22461
0.186161
0.158803
0.137916
0.122002
0.109023
0.0986915
0.0898519
0.0827242
0.0761875
0.071178
0.0659707
0.0624379
0.0581313
0.0555469
0.0520117
0.0500034
0.0471129
0.0455639
0.0430931
0.0420594
0.0398049
0.0393365
0.03726
0.0372823
0.0355006
0.0359397
0.0345734
0.0354873
0.0346054
0.0361589
0.0358096
0.0381383
0.0384474
0.0416423
0.0427561
0.0468686
0.0489125
0.0540082
0.0570654
0.0630985
0.067032
0.0739391
0.0786571
0.0862893
0.0916323
0.099802
0.105545
0.114054
0.119985
0.128723
0.134662
0.143288
0.149076
0.157619
0.163175
0.171554
0.176784
0.184949
0.189812
0.197718
0.202204
0.209841
0.213957
0.22135
0.2251
0.232348
0.235814
0.242901
0.246048
0.252913
0.255724
0.262357
0.26486
0.271258
0.273502
0.279645
0.281683
0.287565
0.289467
0.295056
0.296918
0.302131
0.304061
0.308819
0.310908
0.315123
0.317458
0.321032
0.32367
0.326611
0.329425
0.331959
0.334654
0.337078
0.339428
0.341522
0.343878
0.370361
0.280738
0.224601
0.186173
0.158798
0.137957
0.122009
0.109085
0.0987286
0.0899183
0.0828038
0.0762525
0.0712822
0.0660508
0.0625162
0.0582429
0.0555504
0.052122
0.0499189
0.0471193
0.0453851
0.042878
0.0417027
0.0392732
0.0385936
0.0362819
0.0358795
0.0338035
0.0335562
0.0316868
0.0316602
0.0298646
0.030168
0.0283916
0.0290121
0.0273299
0.0282266
0.026704
0.0278964
0.0265699
0.0281384
0.0270398
0.0290434
0.0282542
0.030732
0.0303644
0.0333401
0.0334816
0.0370235
0.0377397
0.0418836
0.043208
0.0479944
0.0499718
0.0552879
0.0578041
0.0636454
0.0666732
0.0729916
0.0764458
0.0831557
0.0869799
0.0939674
0.0980484
0.105194
0.109411
0.116661
0.120917
0.12806
0.132168
0.139182
0.143265
0.150161
0.15418
0.160891
0.16484
0.171304
0.175195
0.181356
0.18519
0.191017
0.194818
0.200267
0.204079
0.209094
0.212953
0.217519
0.221428
0.225548
0.229503
0.233176
0.237156
0.24043
0.244363
0.247293
0.251161
0.253651
0.257598
0.25925
0.26341
0.370351
0.280745
0.224574
0.186192
0.158767
0.137985
0.121986
0.109116
0.0987201
0.0899528
0.0828039
0.0763036
0.0712722
0.0661389
0.0624773
0.0583764
0.0554851
0.0522776
0.0498574
0.0472545
0.045349
0.0429802
0.0416596
0.039374
0.0384776
0.0363981
0.0356549
0.0338821
0.0332259
0.0316307
0.031192
0.029592
0.0294378
0.0278237
0.0278476
0.0263157
0.026434
0.0249864
0.0252306
0.0238007
0.024224
0.0227925
0.023378
0.0219867
0.0227035
0.0213987
0.0222424
0.0210293
0.0220365
0.0209411
0.0221374
0.021179
0.0225745
0.021841
0.0234521
0.0229464
0.0248336
0.0246035
0.02681
0.0268993
0.0294074
0.0299177
0.0327596
0.0337212
0.0369056
0.0383134
0.0418985
0.0437977
0.0476874
0.0499846
0.0541256
0.0568473
0.0612221
0.0643302
0.068872
0.0723501
0.0770191
0.080835
0.0855643
0.0896357
0.094361
0.0986444
0.103297
0.107742
0.112246
0.11679
0.121118
0.125722
0.129849
0.134485
0.138402
0.143017
0.146752
0.151331
0.154878
0.159385
0.162629
0.167024
0.169847
0.173848
0.370338
0.280763
0.224545
0.186217
0.158738
0.138007
0.121968
0.109133
0.0987061
0.0899839
0.0827698
0.0763704
0.0712046
0.0662427
0.0623873
0.0584954
0.0553995
0.0523861
0.0497922
0.0473509
0.0452885
0.0430919
0.0415701
0.0395279
0.0383463
0.0365847
0.0355045
0.0340681
0.0330788
0.0318
0.0310341
0.0297624
0.0292292
0.0280046
0.0275689
0.0264817
0.0260799
0.0250969
0.0247797
0.0238211
0.023622
0.0226787
0.0225575
0.0216667
0.0215848
0.0207577
0.0207171
0.0199349
0.0199434
0.0192085
0.0192643
0.0185827
0.0186591
0.0180685
0.0181719
0.0176381
0.0178026
0.0173266
0.0175649
0.0171731
0.0174496
0.0171891
0.0175227
0.0174147
0.0178284
0.0178538
0.01839
0.0186176
0.019282
0.019709
0.0205213
0.0212121
0.0222105
0.0231925
0.0243725
0.0256717
0.0270911
0.028748
0.0304429
0.0324481
0.0344241
0.036818
0.0391128
0.04189
0.0444994
0.0476297
0.0505382
0.0540153
0.0571917
0.0609806
0.0644055
0.0684183
0.0720583
0.0762021
0.0800192
0.0843078
0.0882721
0.0926042
0.0966412
0.100804
0.370329
0.280783
0.224527
0.186241
0.158723
0.138021
0.121966
0.109139
0.0987019
0.0900046
0.0827388
0.0764253
0.0711397
0.0663221
0.0623134
0.0585651
0.0553491
0.0524276
0.0497615
0.0473892
0.04524
0.0431627
0.0414826
0.0396302
0.0382427
0.0366841
0.035417
0.0341492
0.0330033
0.0318836
0.0309436
0.0298712
0.0291148
0.0281308
0.027449
0.0266084
0.0259636
0.025227
0.0246592
0.0239683
0.0234929
0.0228452
0.0224295
0.0218485
0.021472
0.0209526
0.020626
0.0201573
0.019879
0.0194692
0.0192373
0.0188965
0.0186935
0.0184487
0.0182866
0.01812
0.0180284
0.0179441
0.0179408
0.017963
0.0180498
0.0182057
0.0184058
0.0187254
0.0190703
0.0195605
0.0200833
0.0207973
0.0215272
0.0224674
0.0234356
0.0246503
0.0258928
0.0274157
0.0289478
0.0307948
0.0326539
0.0348553
0.0370663
0.0396165
0.0421682
0.0450766
0.0479876
0.0511946
0.0543925
0.057852
0.0612997
0.0650097
0.0686721
0.0725972
0.0764653
0.0805587
0.0846
0.0888042
0.0929585
0.0972437
0.10149
0.105842
0.110184
0.114625
0.370325
0.2808
0.224525
0.186261
0.158721
0.138034
0.121968
0.109143
0.0987033
0.0900107
0.0827234
0.0764473
0.0711012
0.0663551
0.0622684
0.0585842
0.0553217
0.0524211
0.0497449
0.0473819
0.045203
0.0431805
0.0414176
0.0396628
0.038179
0.0367024
0.0353801
0.034155
0.0329816
0.0319105
0.0309217
0.0299412
0.0291115
0.0282423
0.0275062
0.0267733
0.026113
0.0254937
0.0249346
0.0244056
0.0239583
0.0235299
0.023188
0.022885
0.0226598
0.0224911
0.0224192
0.0224079
0.0225164
0.0227036
0.0230271
0.02346
0.0240314
0.0247665
0.0256325
0.0267053
0.0279209
0.0293788
0.0309952
0.03288
0.0349386
0.0372829
0.0398216
0.042654
0.0456882
0.0489761
0.0524159
0.0561029
0.0599244
0.0639792
0.068152
0.0725411
0.0770234
0.081695
0.0864228
0.0913038
0.0962025
0.101224
0.106219
0.111305
0.116314
0.121406
0.126383
0.13134
0.136164
0.140973
0.145702
0.150408
0.155011
0.159591
0.164052
0.168482
0.172783
0.177034
0.181158
0.185235
0.189203
0.193146
0.197052
0.201012
0.370326
0.280813
0.224534
0.186276
0.158725
0.138043
0.121967
0.109143
0.0986948
0.0900017
0.0827036
0.0764347
0.0710655
0.0663399
0.0622235
0.0585572
0.0552819
0.05238
0.0497103
0.0473477
0.0451646
0.0431764
0.0413876
0.0396963
0.0381989
0.0367839
0.0354981
0.0343324
0.0332417
0.0322769
0.031403
0.0306163
0.0299603
0.0293802
0.028939
0.0286084
0.0284155
0.0283751
0.0285021
0.0288086
0.0293257
0.030056
0.0310331
0.0322736
0.0337948
0.0356213
0.0377772
0.0402529
0.043104
0.0462898
0.0498792
0.0537826
0.0580046
0.0625375
0.0673587
0.0724696
0.0778216
0.0834278
0.0892099
0.0951934
0.101281
0.107505
0.113775
0.120121
0.126472
0.132754
0.138944
0.145121
0.151231
0.157302
0.16328
0.169196
0.175003
0.18073
0.186339
0.191852
0.197246
0.20254
0.207716
0.212789
0.217744
0.2226
0.227346
0.232039
0.236626
0.241133
0.245519
0.249799
0.253947
0.257995
0.261904
0.265715
0.269382
0.272951
0.276384
0.279729
0.282964
0.286143
0.289288
0.292488
0.370327
0.280824
0.224543
0.186278
0.158719
0.13803
0.121938
0.109109
0.0986438
0.0899456
0.0826333
0.0763605
0.070984
0.0662623
0.062151
0.0584994
0.0552547
0.0523854
0.0497793
0.0474918
0.0454048
0.0435667
0.0419321
0.0404979
0.0392726
0.0382477
0.0374284
0.0368576
0.0365077
0.0364757
0.0367227
0.0373431
0.0383212
0.0397341
0.0415788
0.0439252
0.0467679
0.0501603
0.0541013
0.0586398
0.0636886
0.0692611
0.0753011
0.0818115
0.0887025
0.0959601
0.103484
0.111234
0.119148
0.127167
0.135304
0.143357
0.151366
0.159295
0.167126
0.174826
0.182372
0.189757
0.196949
0.20397
0.210784
0.217431
0.223876
0.230161
0.23626
0.24226
0.248118
0.253843
0.25939
0.264788
0.270006
0.275079
0.279985
0.28476
0.289381
0.293879
0.298244
0.302498
0.306639
0.31068
0.31462
0.31847
0.322223
0.325881
0.329453
0.332906
0.336244
0.339474
0.342607
0.345649
0.348597
0.351468
0.354243
0.356949
0.359565
0.362127
0.364614
0.367072
0.369528
0.372054
0.370325
0.280829
0.224527
0.186238
0.158656
0.137935
0.121821
0.108966
0.0984888
0.0897883
0.0824986
0.0762719
0.0709935
0.066395
0.0624916
0.0590772
0.05621
0.0537653
0.0517548
0.0501653
0.0489907
0.0482707
0.0480713
0.0484103
0.0493749
0.0510072
0.0533977
0.0565898
0.0606493
0.0656191
0.0715426
0.0784086
0.0860306
0.0944515
0.103443
0.113008
0.122938
0.13324
0.143801
0.154575
0.165296
0.175912
0.186339
0.196529
0.206399
0.21595
0.225122
0.233956
0.242412
0.250547
0.258317
0.265847
0.27309
0.280028
0.28667
0.293022
0.299099
0.304931
0.310519
0.315915
0.321102
0.326141
0.331001
0.335735
0.340303
0.344747
0.349019
0.353121
0.357044
0.360834
0.364476
0.368007
0.371412
0.374721
0.377902
0.380991
0.383981
0.386889
0.389722
0.392483
0.395184
0.397829
0.400421
0.402961
0.405455
0.407892
0.410284
0.412612
0.414897
0.417122
0.419302
0.421432
0.423509
0.425552
0.427539
0.429505
0.431428
0.433349
0.435293
0.437328
0.370307
0.280788
0.224403
0.186077
0.158439
0.137695
0.121595
0.108825
0.0985529
0.090167
0.0834245
0.0779578
0.0737133
0.0703847
0.0681193
0.0666715
0.0663263
0.0667892
0.0683972
0.0709872
0.0749262
0.0801568
0.0869522
0.0951515
0.104968
0.116015
0.128226
0.141237
0.15505
0.169404
0.184266
0.198935
0.213205
0.226995
0.240174
0.252747
0.264652
0.275949
0.286571
0.296611
0.306074
0.314987
0.323338
0.33113
0.33841
0.345252
0.3517
0.357825
0.363647
0.369198
0.374481
0.379488
0.384192
0.388635
0.392851
0.396861
0.400685
0.40435
0.407853
0.411238
0.414484
0.417645
0.42069
0.423672
0.42656
0.429393
0.432142
0.43483
0.437427
0.439961
0.442412
0.444803
0.447126
0.449382
0.451539
0.453643
0.455687
0.457687
0.459644
0.46156
0.463446
0.465301
0.467129
0.468932
0.470715
0.472473
0.47422
0.475929
0.477631
0.479293
0.480944
0.482561
0.484158
0.485734
0.487284
0.488819
0.490346
0.491868
0.493443
0.495137
0.370196
0.28054
0.22423
0.186052
0.158711
0.138522
0.123426
0.11233
0.104414
0.0992874
0.0968364
0.09657
0.098376
0.101999
0.107641
0.114998
0.124352
0.135445
0.148587
0.163401
0.180311
0.198742
0.218285
0.238269
0.258309
0.277675
0.295835
0.312658
0.328135
0.342247
0.354974
0.366564
0.377089
0.38668
0.395454
0.403545
0.411033
0.417977
0.424396
0.4303
0.435685
0.440695
0.445265
0.449406
0.453221
0.456775
0.460113
0.46328
0.466299
0.469199
0.471994
0.474695
0.477296
0.479798
0.482207
0.484528
0.486766
0.488934
0.491023
0.493063
0.49503
0.496965
0.498838
0.50069
0.502494
0.504283
0.506036
0.507776
0.50948
0.511164
0.512813
0.514439
0.51603
0.517607
0.519145
0.520658
0.522132
0.523581
0.525
0.526397
0.527779
0.529137
0.530484
0.531813
0.533138
0.534446
0.53576
0.537052
0.538353
0.539628
0.540913
0.542172
0.543435
0.54468
0.545924
0.547153
0.548403
0.549634
0.550927
0.552349
0.369476
0.281381
0.228614
0.193056
0.17071
0.155957
0.150113
0.150456
0.156548
0.167309
0.181627
0.19881
0.218424
0.239715
0.262355
0.285617
0.309403
0.333088
0.35694
0.380289
0.403303
0.423862
0.441743
0.457311
0.470496
0.482406
0.492497
0.501025
0.508346
0.514611
0.520104
0.524948
0.529231
0.533036
0.536433
0.539499
0.542297
0.544886
0.547298
0.549575
0.551716
0.553735
0.555666
0.557485
0.55919
0.560794
0.562302
0.563746
0.565124
0.566471
0.56778
0.569073
0.570351
0.571614
0.572863
0.574095
0.57531
0.576511
0.577688
0.578858
0.579999
0.581139
0.582253
0.583367
0.584464
0.585562
0.586651
0.587746
0.588836
0.589923
0.591015
0.592102
0.593186
0.594265
0.59533
0.596381
0.597411
0.598425
0.599425
0.600411
0.601395
0.602365
0.603336
0.604296
0.605264
0.606221
0.607193
0.608153
0.609134
0.6101
0.611088
0.612059
0.613047
0.614026
0.61501
0.616001
0.616994
0.618023
0.619068
0.620246
0.372192
0.315453
0.292826
0.279516
0.286387
0.295374
0.331463
0.373614
0.418617
0.463068
0.504553
0.541602
0.573478
0.599922
0.621224
0.637804
0.650551
0.660067
0.667423
0.673049
0.677643
0.681652
0.685129
0.688115
0.690601
0.692636
0.694331
0.695594
0.696477
0.696998
0.697263
0.697363
0.697346
0.697262
0.697122
0.696968
0.696798
0.696657
0.696534
0.696465
0.696433
0.696452
0.696522
0.69661
0.696699
0.696788
0.696866
0.696953
0.697037
0.697145
0.697269
0.697424
0.697613
0.697838
0.6981
0.698395
0.698723
0.699081
0.69946
0.699869
0.700288
0.700737
0.701191
0.701667
0.702156
0.702664
0.70319
0.703732
0.704298
0.704876
0.705479
0.706099
0.706735
0.707384
0.708043
0.70871
0.709379
0.710045
0.710714
0.711379
0.712052
0.712722
0.713403
0.714084
0.714779
0.715475
0.71619
0.716905
0.717644
0.718382
0.719144
0.719905
0.720685
0.721474
0.722262
0.723086
0.723862
0.724726
0.725531
0.726377
0.606742
0.839813
0.952198
0.969554
0.937537
0.881261
0.821358
0.769007
0.724418
0.688387
0.660679
0.640131
0.625395
0.614957
0.607662
0.602392
0.598511
0.595428
0.592917
0.590803
0.588979
0.587527
0.586344
0.58546
0.584756
0.584202
0.583767
0.583416
0.583086
0.582738
0.582334
0.581884
0.581386
0.580864
0.580311
0.579754
0.579188
0.578632
0.578087
0.577567
0.577072
0.576609
0.576181
0.575794
0.575442
0.575123
0.574828
0.574561
0.574311
0.574087
0.57388
0.573697
0.573539
0.57341
0.573307
0.57323
0.573183
0.573161
0.573169
0.5732
0.573259
0.573338
0.573444
0.573571
0.573717
0.573884
0.574072
0.57428
0.574509
0.574758
0.575027
0.575317
0.575624
0.57595
0.576293
0.576653
0.577028
0.577415
0.577815
0.578223
0.578642
0.579068
0.579505
0.579948
0.580403
0.580864
0.581337
0.581818
0.582312
0.582812
0.583326
0.583843
0.584383
0.584914
0.585485
0.586005
0.586569
0.587009
0.587307
0.587286
0.0306948
2.29835
2.8827
3.08547
3.23179
3.28883
3.269
3.19976
3.09935
2.9921
2.88389
2.78071
2.68609
2.60085
2.52381
2.45307
2.3869
2.32359
2.26127
2.19972
2.13803
2.07595
2.01367
1.95156
1.88918
1.82725
1.766
1.70623
1.64719
1.58935
1.53294
1.47851
1.42588
1.375
1.32584
1.2783
1.23238
1.18801
1.14505
1.10343
1.06306
1.02385
0.985723
0.948669
0.912613
0.877501
0.843274
0.809872
0.777203
0.745252
0.713983
0.683431
0.653554
0.624422
0.596048
0.568579
0.542055
0.516683
0.49252
0.469785
0.448418
0.428636
0.410357
0.393782
0.378603
0.364955
0.352505
0.341462
0.331349
0.322174
0.313483
0.305372
0.297684
0.29024
0.283007
0.2756
0.268776
0.26194
0.256502
0.250569
0.246664
0.241396
0.239676
0.235796
0.23699
0.234337
0.237902
0.235632
0.241419
0.238809
0.245424
0.240549
0.244749
0.236899
0.237609
0.228229
0.22703
0.217371
0.216038
0.206126
0.354194
1.13249
2.06954
2.51617
2.74903
2.848
2.85915
2.81062
2.72796
2.63347
2.53796
2.44934
2.37142
2.30408
2.24546
2.19356
2.14629
2.10178
2.05836
2.0152
1.9713
1.92611
1.87952
1.83174
1.78244
1.7322
1.68122
1.63054
1.57948
1.52867
1.47795
1.42816
1.37967
1.33248
1.28659
1.24196
1.19863
1.15656
1.11565
1.07583
1.03705
0.999239
0.96234
0.926352
0.891223
0.856912
0.823382
0.790583
0.758444
0.726959
0.696117
0.665968
0.6365
0.607785
0.579866
0.552899
0.526951
0.50222
0.478791
0.456866
0.436406
0.417593
0.400369
0.384893
0.370874
0.358373
0.347074
0.337118
0.328061
0.319838
0.312011
0.304622
0.297541
0.290595
0.283757
0.276666
0.270038
0.263354
0.25797
0.252078
0.248083
0.242595
0.240426
0.23587
0.236307
0.232783
0.23569
0.232713
0.238028
0.234892
0.24117
0.236023
0.240087
0.232221
0.23296
0.223771
0.222669
0.213385
0.212134
0.202774
0.550986
0.546621
1.02322
1.57972
1.97704
2.18967
2.28078
2.29153
2.25678
2.19814
2.132
2.06982
2.01376
1.96569
1.92553
1.89196
1.86305
1.83692
1.81223
1.78757
1.76179
1.73426
1.70463
1.67276
1.63848
1.60222
1.56402
1.52494
1.48451
1.44321
1.4012
1.35838
1.31569
1.27359
1.23221
1.19157
1.15181
1.11293
1.07488
1.0376
1.00109
0.965283
0.930186
0.895791
0.862078
0.829029
0.796624
0.76483
0.733605
0.702949
0.672885
0.643477
0.61475
0.58678
0.559645
0.533511
0.508475
0.484726
0.462379
0.441613
0.422414
0.40492
0.3891
0.375059
0.362526
0.351473
0.341601
0.332973
0.325184
0.31809
0.311274
0.304716
0.298325
0.291934
0.285537
0.278798
0.272403
0.265894
0.260591
0.254755
0.250692
0.244993
0.242379
0.237111
0.236712
0.232171
0.234236
0.230336
0.234978
0.231121
0.236892
0.231334
0.235156
0.227218
0.227961
0.218999
0.218019
0.209233
0.208095
0.19947
0.53083
0.495153
0.560505
0.767756
1.07069
1.34258
1.52384
1.61878
1.65655
1.65919
1.64326
1.62297
1.60088
1.58087
1.56501
1.55346
1.54489
1.53814
1.53135
1.52402
1.51535
1.50477
1.49192
1.47612
1.45748
1.43624
1.41243
1.38676
1.35901
1.32918
1.29847
1.26498
1.23013
1.19483
1.15944
1.12411
1.08914
1.05453
1.0203
0.986465
0.953037
0.920011
0.887423
0.855281
0.823605
0.7924
0.761665
0.731398
0.701588
0.672238
0.643413
0.615195
0.587651
0.560862
0.534949
0.510085
0.486409
0.464089
0.443278
0.424125
0.406641
0.390909
0.376928
0.364731
0.354071
0.344811
0.336673
0.329626
0.323319
0.317516
0.311839
0.306194
0.300548
0.294736
0.288798
0.282419
0.276275
0.269949
0.264741
0.25896
0.254841
0.248931
0.24588
0.239868
0.238572
0.232882
0.233922
0.22887
0.232609
0.227807
0.232864
0.226714
0.230163
0.222067
0.22278
0.214077
0.21325
0.205104
0.204119
0.196443
0.472659
0.463308
0.459993
0.486819
0.557008
0.666865
0.788648
0.89756
0.98015
1.0374
1.07366
1.09959
1.11899
1.13531
1.1507
1.16654
1.18228
1.19811
1.2119
1.22376
1.23336
1.24033
1.24436
1.24513
1.2427
1.23706
1.22842
1.21701
1.20267
1.18514
1.16646
1.14413
1.11931
1.09282
1.06518
1.03676
1.00802
0.978985
0.949743
0.920398
0.891032
0.861696
0.832465
0.803375
0.774493
0.745841
0.717451
0.689359
0.661587
0.634147
0.607148
0.580697
0.554905
0.529859
0.505732
0.482706
0.460961
0.440644
0.421945
0.404971
0.389763
0.376331
0.364703
0.35482
0.346455
0.339343
0.333236
0.327996
0.323342
0.31894
0.314468
0.309758
0.304853
0.299587
0.294075
0.28802
0.282113
0.275946
0.270829
0.265075
0.260897
0.254754
0.251264
0.24448
0.24224
0.235292
0.235142
0.228713
0.231306
0.225311
0.229424
0.222476
0.225402
0.217048
0.217701
0.209294
0.208667
0.20132
0.200537
0.194046
0.410929
0.411368
0.406315
0.40215
0.403523
0.414241
0.43151
0.455666
0.483146
0.514572
0.547169
0.581727
0.617819
0.655309
0.693416
0.732282
0.770872
0.809096
0.845281
0.878704
0.90886
0.935327
0.957717
0.97638
0.991214
1.00189
1.00881
1.01162
1.01125
1.00697
1.00085
0.991345
0.978775
0.963277
0.945413
0.925833
0.905125
0.883233
0.860406
0.836872
0.8128
0.788312
0.763526
0.738516
0.713404
0.688228
0.663068
0.637989
0.613062
0.588316
0.563907
0.539968
0.516661
0.494084
0.472476
0.452013
0.432926
0.415333
0.399463
0.385363
0.373099
0.362588
0.35388
0.346799
0.341136
0.336479
0.332629
0.329329
0.326395
0.32339
0.320082
0.316222
0.311955
0.307114
0.301926
0.296092
0.290362
0.284287
0.279225
0.273435
0.269172
0.262749
0.258808
0.251219
0.247999
0.239712
0.238238
0.230246
0.231463
0.224032
0.226974
0.219013
0.221278
0.212568
0.213155
0.2051
0.204751
0.198372
0.197859
0.192784
0.343509
0.345945
0.344399
0.338868
0.330709
0.321937
0.312468
0.303371
0.294479
0.2872
0.282239
0.281208
0.2857
0.297157
0.316142
0.342982
0.376949
0.416827
0.460766
0.506356
0.551632
0.594951
0.635047
0.671121
0.703265
0.730631
0.753701
0.77138
0.785887
0.796025
0.803159
0.806794
0.806827
0.803639
0.797507
0.788872
0.778197
0.765152
0.750364
0.734198
0.716917
0.698701
0.679713
0.660072
0.639949
0.619412
0.598591
0.57758
0.556514
0.535441
0.514576
0.494071
0.474158
0.45495
0.436758
0.419743
0.404192
0.390186
0.37798
0.367536
0.358936
0.351977
0.34672
0.342844
0.340153
0.33809
0.336528
0.335107
0.333761
0.331962
0.329597
0.326342
0.322481
0.317827
0.312766
0.306975
0.301303
0.295199
0.290119
0.284195
0.279797
0.273024
0.26861
0.26018
0.255959
0.246294
0.243413
0.233738
0.233409
0.224346
0.225937
0.216785
0.218302
0.20918
0.209755
0.202148
0.20221
0.196963
0.196811
0.193345
0.26316
0.267086
0.268082
0.264899
0.257994
0.248347
0.23667
0.223969
0.211008
0.198692
0.187688
0.178643
0.172186
0.16867
0.168677
0.172498
0.181036
0.194474
0.213789
0.238586
0.268907
0.303401
0.340796
0.379269
0.418034
0.45497
0.489803
0.520677
0.548212
0.571566
0.591175
0.607024
0.618815
0.627494
0.632641
0.634559
0.633652
0.630186
0.624515
0.616912
0.607651
0.596923
0.584926
0.571808
0.557795
0.54298
0.527553
0.51163
0.495423
0.479006
0.462655
0.446538
0.430971
0.416086
0.402255
0.389618
0.378514
0.368963
0.361229
0.355151
0.350797
0.347821
0.346275
0.345677
0.345863
0.346163
0.346564
0.346629
0.346439
0.345391
0.343523
0.340442
0.3366
0.331779
0.32656
0.320563
0.314775
0.308474
0.303275
0.297098
0.292506
0.285309
0.2804
0.271118
0.265901
0.25488
0.25058
0.23922
0.237289
0.226511
0.226682
0.216259
0.217066
0.207581
0.208324
0.201335
0.202004
0.198022
0.198336
0.196559
0.175718
0.17927
0.181361
0.180553
0.176874
0.170978
0.163775
0.156347
0.149765
0.144679
0.141669
0.140784
0.141978
0.1449
0.149204
0.154461
0.160654
0.1675
0.175472
0.184439
0.195353
0.208021
0.223948
0.242345
0.263486
0.286577
0.311521
0.33706
0.362676
0.38737
0.410493
0.43156
0.44979
0.465046
0.47747
0.486918
0.493435
0.497938
0.500373
0.500735
0.499194
0.495866
0.490934
0.484537
0.476934
0.468225
0.458647
0.44833
0.437554
0.426415
0.415246
0.404216
0.393717
0.38389
0.375163
0.367637
0.361665
0.357169
0.354367
0.35293
0.352876
0.353713
0.35549
0.357597
0.359944
0.36182
0.363376
0.364135
0.364339
0.363332
0.361312
0.357826
0.353513
0.348105
0.342403
0.335923
0.329823
0.323149
0.317736
0.311206
0.306385
0.298724
0.293338
0.283243
0.27709
0.264833
0.259224
0.246349
0.242928
0.230545
0.229426
0.217846
0.2182
0.208596
0.20989
0.203781
0.205295
0.20261
0.203483
0.203271
0.104564
0.10832
0.111793
0.114511
0.116616
0.11862
0.121224
0.1251
0.130683
0.138059
0.147116
0.157403
0.168458
0.179703
0.190661
0.201078
0.210802
0.219762
0.228106
0.235789
0.243083
0.250167
0.257192
0.264476
0.272298
0.280876
0.29036
0.300728
0.312025
0.324071
0.336632
0.34937
0.361787
0.373229
0.383922
0.393558
0.401757
0.408535
0.413898
0.417754
0.420165
0.421102
0.420658
0.418887
0.41601
0.412072
0.407301
0.401808
0.395903
0.389671
0.383464
0.377421
0.371973
0.367248
0.363687
0.361292
0.360355
0.360639
0.362251
0.364678
0.367896
0.371329
0.375063
0.378456
0.381546
0.383669
0.385166
0.385553
0.385212
0.383431
0.380567
0.376093
0.370853
0.364503
0.358051
0.350866
0.344317
0.337171
0.331523
0.324627
0.319623
0.311548
0.305785
0.295018
0.288104
0.274895
0.268277
0.254294
0.249733
0.23614
0.234148
0.221837
0.222342
0.213149
0.215609
0.210652
0.213201
0.211629
0.213088
0.214027
0.119075
0.12347
0.128295
0.134158
0.141504
0.150581
0.161465
0.17409
0.188068
0.203047
0.218465
0.233772
0.248311
0.261791
0.274097
0.285261
0.295278
0.30421
0.312273
0.319621
0.326439
0.332718
0.338556
0.344066
0.349263
0.354395
0.359251
0.363867
0.368363
0.372742
0.377094
0.381373
0.385627
0.389592
0.393092
0.39622
0.39884
0.400865
0.402312
0.403118
0.403348
0.402919
0.40187
0.400179
0.397995
0.395271
0.392183
0.388784
0.385351
0.381919
0.378798
0.376058
0.374101
0.372998
0.373112
0.374294
0.376679
0.379826
0.383701
0.387708
0.391861
0.395622
0.399166
0.401908
0.404053
0.405027
0.40533
0.404464
0.402888
0.399796
0.395686
0.389964
0.383619
0.376236
0.369017
0.361151
0.354231
0.346724
0.340984
0.333885
0.32888
0.320601
0.314706
0.303592
0.296309
0.282713
0.275699
0.261348
0.256342
0.242332
0.240265
0.228111
0.229764
0.221716
0.225934
0.222075
0.22555
0.22457
0.226456
0.227827
0.205096
0.209199
0.213954
0.220272
0.228689
0.23919
0.251599
0.265445
0.280193
0.295175
0.309842
0.323739
0.336607
0.348349
0.359022
0.368677
0.377548
0.385642
0.393138
0.400116
0.406704
0.412881
0.418684
0.424017
0.428903
0.433221
0.437063
0.440374
0.443159
0.445357
0.447004
0.44808
0.448694
0.448582
0.447625
0.446155
0.444052
0.441382
0.438284
0.434825
0.43116
0.427264
0.42324
0.4191
0.414982
0.410827
0.406806
0.40296
0.399538
0.396529
0.394187
0.392518
0.391856
0.392175
0.393694
0.396084
0.399278
0.40268
0.406236
0.409424
0.412365
0.414617
0.416466
0.41741
0.417789
0.417098
0.415919
0.413699
0.410889
0.406601
0.401377
0.394618
0.387437
0.379342
0.371679
0.363478
0.356492
0.348937
0.343378
0.336374
0.331633
0.323463
0.317763
0.306753
0.29966
0.286434
0.279813
0.265983
0.261372
0.247919
0.246737
0.235867
0.239524
0.232984
0.238898
0.235448
0.239408
0.238368
0.240377
0.241542
0.295814
0.299246
0.303446
0.309244
0.317044
0.326718
0.337985
0.350322
0.363207
0.375992
0.388253
0.399756
0.410426
0.420326
0.429526
0.438152
0.446293
0.454024
0.461362
0.468314
0.474836
0.480848
0.4863
0.491073
0.495111
0.498351
0.500787
0.502377
0.503173
0.50315
0.502317
0.500803
0.498535