/*--------------------------------*- C++ -*----------------------------------*\
| =========                 |                                                 |
| \\      /  F ield         | OpenFOAM: The Open Source CFD Toolbox           |
|  \\    /   O peration     | Version:  v2012                                 |
|   \\  /    A nd           | Website:  www.openfoam.com                      |
|    \\/     M anipulation  |                                                 |
\*---------------------------------------------------------------------------*/
FoamFile
{
    version     2.0;
    format      ascii;
    class       vectorField;
    location    "0.057/lagrangian/kinematicCloud";
    object      U;
}
// * * * * * * * * * * * * * * * * * * * * * * * * * * * * * * * * * * * * * //


60
(
(5.13993 0.0474295 0)
(6.14308 0.0582991 0)
(6.0594 0.0462871 0)
(5.60349 0.116498 0)
(5.79054 0.034912 0)
(5.67274 0.062914 0)
(2.92854 0.0445149 0)
(5.36708 0.0329369 0)
(5.19194 0.0251644 0)
(4.99404 0.148065 0)
(4.95066 0.152514 0)
(4.61075 0.154146 0)
(0.385457 -1.09642e-05 0)
(0.366734 2.52419e-06 0)
(2.23285 0.000148772 0)
(4.21736 0.0717453 0)
(3.85534 0.0603884 0)
(3.87145 0.00671432 0)
(3.77701 0.0440225 0)
(3.85945 0.0119887 0)
(3.74484 0.0133864 0)
(1.3865 -0.000107054 0)
(3.52531 0.00597338 0)
(3.38721 0.00461372 0)
(3.39179 0.00737205 0)
(3.31206 0.00269084 0)
(3.19202 0.00226865 0)
(3.20119 0.00157833 0)
(1.70157 0.00015605 0)
(3.0933 0.000610334 0)
(0.380294 6.66788e-06 0)
(2.64834 0.000456254 0)
(1.03194 -6.53171e-05 0)
(2.67821 0.000605503 0)
(2.6686 0.000655889 0)
(2.58035 0.000495119 0)
(2.48297 0.000652215 0)
(2.38428 0.000602699 0)
(2.28721 0.000270347 0)
(0.74986 1.6781e-05 0)
(2.08855 0.000295664 0)
(1.9882 0.000123254 0)
(1.88892 0.000140973 0)
(1.78802 0.000173416 0)
(1.68665 0.000176604 0)
(1.58472 2.24802e-05 0)
(1.4825 -6.14246e-05 0)
(1.37962 0.000142338 0)
(1.27615 8.58999e-05 0)
(1.17204 -8.75981e-06 0)
(1.06774 4.62926e-05 0)
(0.96185 4.43027e-05 0)
(0.856079 -4.0563e-05 0)
(0.395131 2.20803e-05 0)
(0.643028 -2.00004e-06 0)
(0.535235 -2.43763e-06 0)
(0.427353 -1.07054e-05 0)
(0.318734 2.35423e-06 0)
(0.209325 1.28338e-06 0)
(0.099419 -6.59941e-07 0)
)


// ************************************************************************* //
