/*--------------------------------*- C++ -*----------------------------------*\
| =========                 |                                                 |
| \\      /  F ield         | OpenFOAM: The Open Source CFD Toolbox           |
|  \\    /   O peration     | Version:  v2012                                 |
|   \\  /    A nd           | Website:  www.openfoam.com                      |
|    \\/     M anipulation  |                                                 |
\*---------------------------------------------------------------------------*/
FoamFile
{
    version     2.0;
    format      ascii;
    class       vectorField;
    location    "0.057/lagrangian/kinematicCloud";
    object      U;
}
// * * * * * * * * * * * * * * * * * * * * * * * * * * * * * * * * * * * * * //


54
(
(9.94575 2.17245e-05 0)
(10.1949 -0.000502127 0)
(10.2042 -0.0006536 0)
(10.2094 0.000534628 0)
(10.2124 -0.00165774 0)
(10.2236 -0.00110971 0)
(7.68463 -0.000554152 0)
(10.08 -0.00361763 0)
(10.1129 -0.0041611 0)
(10.2417 0.00183037 0)
(10.2409 0.000591056 0)
(10.2196 0.00385753 0)
(9.15897 -0.0036059 0)
(9.204 0.00250314 0)
(9.5027 -0.00345345 0)
(10.2553 3.50309e-05 0)
(10.0749 0.00504662 0)
(9.79759 -0.00457914 0)
(10.2572 0.00499351 0)
(10.1884 -0.00657185 0)
(10.2673 -0.00465667 0)
(9.99361 -0.00617633 0)
(10.273 -0.0048509 0)
(10.2549 0.00536405 0)
(10.2745 0.00174178 0)
(10.279 -0.00441384 0)
(10.2284 0.00569612 0)
(10.2794 -0.00565622 0)
(9.8439 0.00508468 0)
(10.2791 -0.00593576 0)
(6.26714 -0.000100617 0)
(10.1294 0.00496963 0)
(9.32373 -0.00505518 0)
(10.3019 -0.0011188 0)
(10.3033 0.00371129 0)
(10.3081 -0.00340676 0)
(10.3116 0.00243991 0)
(10.3166 0.00148853 0)
(10.322 -0.00320406 0)
(9.68731 0.00199579 0)
(10.333 0.00263129 0)
(10.3379 -0.00262116 0)
(10.344 0.00312413 0)
(10.3507 0.00339443 0)
(10.3561 0.00205623 0)
(10.3624 -0.00177359 0)
(10.3702 -0.00368813 0)
(10.3759 0.000123778 0)
(10.3833 0.00103974 0)
(10.392 -0.00248192 0)
(10.3976 0.00283355 0)
(10.4077 0.000891827 0)
(10.4175 -0.00252982 0)
(10.4145 0.00246431 0)
)


// ************************************************************************* //
