/*--------------------------------*- C++ -*----------------------------------*\
| =========                 |                                                 |
| \\      /  F ield         | OpenFOAM: The Open Source CFD Toolbox           |
|  \\    /   O peration     | Version:  v2012                                 |
|   \\  /    A nd           | Website:  www.openfoam.com                      |
|    \\/     M anipulation  |                                                 |
\*---------------------------------------------------------------------------*/
FoamFile
{
    version     2.0;
    format      ascii;
    class       Cloud<basicKinematicParcel>;
    location    "0.065/lagrangian/kinematicCloud";
    object      coordinates;
}
// * * * * * * * * * * * * * * * * * * * * * * * * * * * * * * * * * * * * * //

68
(
(0.202352 0.27379 0.398824 0.125034) 214 515 1
(0.603308 0.148175 0.0501704 0.198346) 515 918 2
(0.0182481 0.490876 0.316173 0.174703) 715 1512 2
(0.0185585 0.368359 0.490721 0.122362) 313 715 2
(0.0865583 0.456721 0.430278 0.0264427) 913 1710 1
(0.138888 0.115411 0.430556 0.315145) 712 1509 2
(0.414423 0.292789 0.221765 0.0710233) 104 203 1
(0.800282 0.0200818 0.0998592 0.0797774) 911 1902 1
(0.142676 0.298436 0.428662 0.130226) 910 1903 2
(0.229959 0.385021 0.0726005 0.31242) 509 1104 2
(0.123167 0.233353 0.438416 0.205063) 409 906 2
(0.503237 0.01935 0.248382 0.229032) 308 705 2
(0.0936892 0.333679 0.453155 0.119476) 92 7620 2
(0.0446207 0.47769 0.409335 0.0683549) 2 7502 2
(0.847014 0.0242546 0.0764929 0.0522383) 1000 7628 2
(0.0815983 0.459201 0.438916 0.0202845) 606 1099 1
(0.705113 0.147443 0.0398385 0.107605) 205 206 1
(0.0527561 0.473622 0.3227 0.150922) 1005 2085 2
(0.164148 0.367318 0.0506082 0.417926) 304 498 2
(0.515185 0.242408 0.0724763 0.169931) 904 1890 2
(0.318 0.341 0.0720161 0.268984) 804 1689 2
(0.644429 0.177786 0.129496 0.0482896) 96 7624 1
(0.172134 0.191284 0.413933 0.222649) 803 1687 1
(0.847457 0.0762714 0.000106229 0.0761652) 202 197 1
(0.684052 0.157974 0.0510162 0.106958) 402 693 1
(0.0263401 0.310373 0.176457 0.48683) 801 1685 1
(0.928851 0.0355747 0.00119353 0.0343812) 201 489 2
(0.297183 0.315334 0.0360749 0.351409) 901 1686 2
(0.454786 0.272607 0.202723 0.0698844) 6 12 2
(0.107901 0.271141 0.44605 0.174909) 901 1882 1
(0.128871 0.114867 0.320698 0.435565) 1 7501 1
(0.4579 0.27105 0.0861029 0.184947) 9 18 1
(0.201597 0.187507 0.211695 0.399202) 93 183 1
(0.104652 0.341824 0.447674 0.10585) 59 116 1
(0.0305111 0.484744 0.149398 0.335347) 28 56 2
(0.196812 0.27489 0.401594 0.126704) 68 137 2
(0.0941868 0.130999 0.452907 0.321907) 38 74 1
(0.342822 0.142351 0.328589 0.186238) 37 75 2
(0.0534486 0.473276 0.347621 0.125654) 67 135 1
(0.475441 0.256241 0.00603894 0.26228) 2 7502 1
(0.663211 0.168394 0.116181 0.0522137) 26 53 1
(0.269321 0.318118 0.0472219 0.36534) 65 130 1
(0.624214 0.187893 0.107721 0.0801725) 15 11 1
(0.0186076 0.490696 0.35553 0.135166) 15 31 1
(0.0430655 0.253272 0.478467 0.225196) 24 49 2
(0.146347 0.426826 0.285289 0.141537) 64 109 1
(0.0727184 0.463641 0.285327 0.178313) 83 166 2
(0.653886 0.163951 0.00910647 0.173057) 43 86 1
(0.125671 0.437165 0.207591 0.229573) 33 67 1
(0.0184657 0.0988406 0.490767 0.391927) 73 144 1
(0.0208968 0.293906 0.489552 0.195646) 2 5 2
(0.203411 0.398294 0.377009 0.0212851) 32 45 1
(0.397737 0.301132 0.267337 0.0337944) 82 165 1
(0.0141686 0.492916 0.239855 0.253061) 1 0 2
(0.568938 0.0554123 0.215531 0.160119) 61 123 2
(0.412391 0.236235 0.293804 0.057569) 61 123 2
(0.0682352 0.465882 0.330103 0.135779) 91 163 1
(0.00862155 0.495689 0.135989 0.359701) 51 83 1
(0.108979 0.0570691 0.445511 0.388442) 30 61 2
(0.155203 0.0554469 0.366952 0.422399) 50 81 2
(0.501211 0.121954 0.127441 0.249395) 80 160 1
(0.879692 0.0236677 0.0364862 0.060154) 50 81 2
(0.855511 0.0722447 0.0672162 0.00502847) 50 101 1
(0.405282 0.297359 0.147014 0.150345) 80 141 1
(0.425756 0.287122 0.12287 0.164251) 90 7481 1
(0.0123431 0.493828 0.154888 0.33894) 60 101 1
(0.292461 0.300076 0.35377 0.0536941) 20 7474 2
(0.203883 0.274235 0.398059 0.123824) 0 7472 2
)


// ************************************************************************* //
