/*--------------------------------*- C++ -*----------------------------------*\
| =========                 |                                                 |
| \\      /  F ield         | OpenFOAM: The Open Source CFD Toolbox           |
|  \\    /   O peration     | Version:  v2012                                 |
|   \\  /    A nd           | Website:  www.openfoam.com                      |
|    \\/     M anipulation  |                                                 |
\*---------------------------------------------------------------------------*/
FoamFile
{
    version     2.0;
    format      ascii;
    class       volScalarField;
    location    "0.028";
    object      nut.air;
}
// * * * * * * * * * * * * * * * * * * * * * * * * * * * * * * * * * * * * * //

dimensions      [0 2 -1 0 0 0 0];


internalField   nonuniform List<scalar> 
1900
(
1.07826e-05
1.25664e-05
1.64255e-05
1.88861e-05
2.41588e-05
2.7415e-05
3.43191e-05
3.84514e-05
4.70967e-05
5.21751e-05
0.00016068
0.000159709
0.000159984
0.000159324
0.000160007
0.000159845
0.000161047
0.000161631
0.000163496
0.000165984
0.000160401
0.000159938
0.000159347
0.000158945
0.000158373
0.000158033
0.000157476
0.000157204
0.000156661
0.000156476
0.000160434
0.000159919
0.000159414
0.000158933
0.000158469
0.000158017
0.000157587
0.000157163
0.000156763
0.000156361
0.000160437
0.000159921
0.00015942
0.000158944
0.000158476
0.000158039
0.000157597
0.000157193
0.000156778
0.000156398
0.000160432
0.00015993
0.000159409
0.000158957
0.000158461
0.000158054
0.000157581
0.000157209
0.000156763
0.000156416
0.000160406
0.000159958
0.000159368
0.000158987
0.000158409
0.000158081
0.000157524
0.000157228
0.000156702
0.000156431
0.000160341
0.000160006
0.00015928
0.000159018
0.000158303
0.000158106
0.000157411
0.000157269
0.000156607
0.000156518
0.00016017
0.000160258
0.000159436
0.000159944
0.000159448
0.000160555
0.000160496
0.000162346
0.000162853
0.000165169
1.02345e-05
1.29601e-05
1.57434e-05
1.93485e-05
2.33137e-05
2.79865e-05
3.32192e-05
3.90978e-05
4.56163e-05
5.2801e-05
0.000196263
0.000641577
0.00142292
0.00211013
0.00247726
0.00267764
0.00270688
0.00261576
0.00252339
0.00244883
0.00238945
0.00236211
0.00236494
0.00236584
0.002445
0.00257239
0.00274214
0.00298948
0.00338306
0.00388564
0.00429777
0.00480986
0.00550046
0.00625701
0.00688421
0.00735536
0.0076124
0.00772325
0.00759088
0.0069289
0.00586222
0.00490014
0.0040848
0.00345268
0.0030042
0.00269104
0.00239556
0.0021334
0.00192513
0.00175606
0.00161475
0.00149318
0.00138616
0.00129035
0.00120362
0.00112458
0.00105217
0.000985465
0.000923701
0.000866176
0.00081232
0.000761523
0.000713241
0.000667226
0.00062317
0.00058081
0.000540072
0.000501037
0.000463887
0.000428827
0.000395976
0.000365312
0.00033673
0.000310195
0.000285724
0.000263424
0.000243516
0.000226259
0.000211815
0.000200151
0.000191002
0.000183934
0.000178446
0.000174071
0.000170413
0.00016717
0.000164132
0.000161175
0.000158255
0.000155386
0.000152622
0.000150033
0.000147682
0.000145614
0.000143853
0.000142397
0.000141228
0.000140314
0.000139615
0.000139095
0.000138714
0.000138441
0.000138249
0.000138117
0.000138027
0.000137967
0.000137927
0.000137901
0.000137886
0.000137873
0.00017247
0.000182699
0.000219892
0.000324471
0.000482569
0.000624024
0.000706526
0.0007574
0.000784345
0.000789716
0.000786461
0.000793546
0.000795564
0.000824004
0.000847725
0.000886468
0.000963608
0.00105916
0.00125985
0.0015259
0.00190377
0.00256368
0.00339399
0.00425261
0.00510513
0.00576507
0.00608309
0.00619188
0.00608667
0.00545997
0.00457478
0.00372104
0.00291128
0.00227359
0.00181471
0.00149455
0.00126655
0.00109837
0.000967411
0.000861298
0.00077279
0.00069746
0.000632512
0.000576073
0.000526808
0.000483683
0.000445838
0.000412522
0.000383101
0.000357082
0.000333997
0.000313409
0.000294968
0.000278408
0.00026352
0.000250145
0.000238166
0.0002275
0.000218075
0.000209813
0.000202618
0.000196387
0.000191021
0.000186441
0.000182581
0.000179381
0.000176776
0.000174676
0.000172968
0.000171514
0.000170176
0.000168832
0.000167382
0.000165761
0.000163934
0.000161894
0.000159664
0.00015729
0.00015484
0.000152396
0.00015004
0.000147848
0.000145874
0.000144155
0.000142703
0.000141513
0.000140564
0.000139826
0.000139265
0.000138849
0.000138546
0.00013833
0.000138179
0.000138075
0.000138004
0.000137957
0.000137927
0.000137906
0.000137895
0.000137884
0.000155869
0.000156066
0.00015564
0.000156155
0.000159316
0.000164759
0.000173129
0.000180979
0.000187677
0.000192707
0.000197181
0.000201771
0.000204835
0.000210783
0.000217171
0.000226519
0.000238502
0.000258337
0.000295065
0.000361131
0.000473713
0.000676135
0.00103151
0.00168577
0.0026137
0.00348108
0.00388534
0.0039594
0.00385756
0.00331245
0.00251255
0.0018762
0.00142235
0.00109668
0.000855689
0.000682179
0.000560003
0.000471384
0.000405122
0.000354485
0.000315301
0.000284823
0.00026111
0.000242693
0.000228408
0.000217331
0.000208715
0.000201977
0.000196658
0.000192382
0.000188861
0.000185934
0.000183504
0.000181479
0.000179785
0.000178363
0.000177162
0.000176131
0.000175222
0.000174389
0.0001736
0.000172844
0.000172133
0.000171493
0.00017096
0.000170557
0.00017028
0.000170087
0.000169893
0.000169589
0.000169066
0.000168239
0.000167058
0.00016551
0.000163615
0.000161426
0.000159019
0.000156487
0.000153926
0.000151431
0.000149085
0.000146951
0.000145071
0.000143464
0.000142128
0.000141048
0.000140196
0.00013954
0.000139046
0.000138682
0.00013842
0.000138233
0.000138104
0.000138016
0.000137957
0.000137917
0.000137892
0.000137875
0.000137866
0.000137857
0.000155919
0.000155404
0.000155003
0.000154568
0.000154503
0.000154333
0.000154634
0.000154607
0.000154909
0.000154985
0.000154883
0.000155452
0.000154657
0.000155503
0.000155406
0.000154412
0.000156786
0.00015552
0.000155636
0.000160975
0.000166556
0.000188277
0.00025221
0.000409248
0.00068243
0.00128333
0.00160974
0.00163402
0.00157392
0.00131851
0.00101308
0.00074285
0.000547676
0.000431357
0.000367798
0.000325658
0.000290699
0.000263004
0.000241628
0.000225493
0.000213548
0.000204857
0.000198628
0.000194243
0.000191218
0.000189205
0.000187911
0.000187151
0.000186779
0.000186686
0.000186831
0.000187142
0.00018756
0.000188073
0.000188678
0.000189361
0.000190074
0.000190733
0.000191243
0.00019153
0.000191544
0.000191255
0.000190663
0.000189802
0.000188736
0.000187554
0.000186336
0.000185096
0.000183772
0.000182246
0.000180393
0.000178136
0.000175467
0.000172432
0.000169116
0.00016563
0.000162095
0.00015863
0.000155337
0.000152297
0.000149564
0.000147171
0.000145126
0.000143419
0.000142028
0.00014092
0.000140059
0.000139404
0.000138917
0.000138562
0.000138307
0.000138128
0.000138005
0.000137921
0.000137865
0.000137828
0.000137805
0.000137788
0.00013778
0.000137772
0.000155935
0.000155437
0.000154987
0.000154569
0.0001543
0.000154084
0.000154128
0.000154068
0.000154242
0.000154348
0.000154167
0.00015459
0.000153959
0.000154415
0.000154309
0.000153464
0.000154827
0.000153358
0.000152936
0.000154842
0.000151585
0.000151964
0.000157071
0.000165078
0.000190695
0.000274893
0.000375585
0.00039779
0.000389248
0.000341394
0.000293959
0.000275892
0.000274061
0.000280577
0.000286458
0.000286032
0.00028493
0.000283278
0.000278382
0.000272582
0.000267031
0.000262376
0.000258785
0.000256396
0.000255157
0.000255073
0.000255582
0.000256809
0.000258547
0.00026064
0.000263579
0.000266491
0.000269561
0.000273094
0.000276923
0.000280962
0.000284954
0.000288476
0.000291131
0.000293046
0.000294696
0.000295329
0.000293762
0.000290332
0.000284944
0.000277823
0.000269497
0.00026049
0.000251008
0.000241185
0.000231136
0.000220984
0.000210882
0.000201023
0.000191634
0.000182929
0.000175064
0.000168126
0.000162134
0.000157058
0.000152827
0.00014935
0.00014653
0.000144278
0.000142507
0.000141139
0.000140101
0.000139325
0.000138756
0.000138345
0.000138054
0.000137849
0.000137709
0.000137614
0.00013755
0.000137507
0.000137479
0.000137462
0.000137452
0.000137441
0.000155909
0.00015547
0.000154913
0.000154602
0.000154154
0.000154122
0.00015401
0.000154216
0.000154384
0.000154608
0.000155015
0.000155327
0.000155926
0.000156669
0.000157398
0.000158193
0.000159232
0.00015951
0.000159329
0.000159485
0.000158504
0.000156529
0.000156411
0.000156419
0.00015448
0.000156713
0.000160759
0.000163848
0.000169875
0.000182704
0.000211449
0.000265106
0.000351851
0.000418682
0.000454469
0.000461943
0.000467079
0.000471452
0.0004664
0.000460887
0.000456421
0.000453614
0.000452386
0.00045317
0.000456608
0.000462334
0.000468202
0.000474009
0.000481111
0.000489547
0.00049848
0.00050778
0.000517346
0.000527246
0.000537493
0.00054774
0.000557376
0.000565735
0.00057203
0.000575886
0.000578745
0.00058053
0.000578762
0.000567933
0.000549948
0.000526041
0.000497191
0.000464927
0.000430906
0.000396518
0.000362802
0.000330515
0.000300286
0.000272593
0.00024777
0.000226012
0.000207366
0.000191729
0.000178875
0.000168486
0.000160207
0.000153694
0.000148647
0.00014479
0.000141868
0.000139679
0.000138057
0.000136853
0.00013596
0.000135333
0.000134903
0.000134581
0.000134361
0.000134203
0.000134113
0.000134042
0.000134004
0.000133971
0.000133968
0.00013398
0.000155818
0.000155518
0.000154752
0.000154695
0.000153942
0.000154296
0.000154277
0.000155034
0.000156533
0.000158601
0.000161728
0.000165365
0.00016973
0.000174816
0.000180254
0.00018582
0.000189933
0.000192744
0.000194557
0.000195012
0.000192635
0.000190172
0.000186584
0.000181685
0.000178695
0.000179605
0.000182528
0.000193581
0.000220526
0.000269704
0.000372181
0.000508271
0.00062626
0.000711494
0.000748931
0.000769393
0.000799213
0.000813745
0.000819305
0.000822868
0.000826318
0.000829027
0.000832347
0.000838644
0.000846792
0.000856067
0.000865752
0.00087533
0.000884992
0.000896314
0.000907773
0.000919214
0.000930596
0.000942025
0.000953514
0.000964283
0.000973169
0.000979734
0.000985584
0.000991126
0.00099473
0.000992585
0.000981316
0.000960124
0.00092859
0.000886597
0.000828579
0.000762858
0.000693951
0.000624995
0.000558479
0.000496215
0.000439112
0.00038761
0.000342121
0.000302871
0.00026976
0.000242447
0.000220458
0.000203208
0.000189995
0.000180019
0.000172665
0.000167671
0.000164366
0.000162021
0.000160599
0.000159753
0.000159125
0.000158776
0.000158681
0.00015869
0.000158742
0.000158862
0.000158976
0.000159121
0.000159217
0.000159363
0.000159461
0.000159812
0.000155767
0.000155757
0.000154984
0.000155485
0.000155704
0.000160054
0.000164335
0.00017217
0.00018702
0.000199645
0.000216866
0.000234835
0.000249774
0.000266667
0.000283396
0.000294043
0.000306544
0.000317726
0.000319813
0.000321029
0.00031977
0.000315877
0.000307936
0.00029819
0.000294769
0.000296911
0.000308442
0.00033983
0.000396331
0.000535364
0.000721803
0.00087999
0.00100488
0.0010592
0.00110736
0.00114955
0.00117388
0.00118911
0.00119862
0.00120771
0.00121748
0.00122695
0.00123596
0.00124456
0.00125258
0.00126032
0.00126826
0.00127676
0.00128537
0.00129389
0.00130263
0.00131149
0.0013202
0.00132866
0.00133641
0.00134296
0.00134799
0.00135101
0.0013522
0.00135089
0.00134489
0.00133056
0.0013067
0.00127332
0.00122831
0.0011705
0.00109779
0.00101506
0.000930035
0.000847361
0.000769567
0.000698493
0.000635144
0.000579651
0.000532749
0.000494485
0.000463888
0.00044001
0.000422084
0.000409634
0.000401971
0.000397862
0.000395541
0.0003941
0.000394515
0.000395885
0.00039745
0.000399025
0.000400489
0.000401809
0.000402963
0.000403973
0.000404776
0.000405437
0.000405916
0.000406339
0.000406606
0.000406936
0.000407143
0.000407899
0.000166475
0.000169551
0.000176069
0.000189038
0.000211172
0.000244712
0.000282141
0.000321647
0.000361273
0.000394821
0.000429081
0.000457025
0.000484204
0.000509866
0.00053546
0.000558302
0.000579275
0.000602063
0.000618187
0.000629625
0.000640437
0.000630687
0.00061143
0.000601398
0.000593485
0.00059165
0.000602628
0.000640618
0.000746449
0.000734434
0.000715464
0.000759102
0.000837003
0.000917658
0.00099019
0.00106277
0.0011113
0.00113533
0.00114757
0.00115128
0.00114967
0.00114527
0.00113961
0.00113367
0.00112806
0.00112304
0.00111869
0.00111514
0.00111256
0.00111095
0.00111017
0.0011098
0.00110934
0.00110865
0.00110779
0.00110644
0.00110378
0.0010991
0.00109237
0.00108361
0.00107219
0.00105725
0.00103874
0.00101695
0.000991756
0.000963661
0.000933195
0.000901055
0.000868245
0.000835942
0.000805573
0.000778332
0.000754993
0.00073619
0.000722225
0.000712654
0.000706725
0.00070313
0.000700651
0.000700189
0.000702652
0.000705759
0.000709028
0.000712182
0.000715058
0.000717564
0.000719656
0.000721352
0.000722669
0.00072367
0.000724385
0.000724899
0.000725242
0.000725502
0.000725646
0.00072579
0.000725836
0.000725814
0.000725884
0.000725611
6.21763e-05
7.4329e-05
8.7715e-05
0.000102241
0.000118095
0.000134659
0.000151863
0.000168302
0.000183839
0.000197058
0.000208203
0.000216341
0.000221766
0.000225597
0.000226951
0.000226353
0.000224597
0.000221997
0.000218707
0.000215419
0.000212246
0.00020918
0.000207043
0.00020587
0.000205294
0.000204961
0.000204996
0.000204848
0.000202868
0.000191177
0.000177199
0.000166683
0.000161618
0.000161727
0.000163854
0.000165588
0.000166479
0.00016624
0.00016563
0.000164922
0.000164264
0.000163703
0.000163224
0.000162835
0.000162553
0.000162306
0.000162061
0.000161861
0.00016171
0.000161609
0.00016154
0.000161484
0.00016143
0.000161369
0.000161292
0.00016118
0.000161008
0.000160756
0.000160413
0.000159967
0.000159402
0.00015871
0.000157897
0.000156984
0.000156011
0.000155018
0.000154038
0.000153101
0.000152232
0.000151455
0.000150786
0.000150235
0.000149806
0.0001495
0.000149272
0.000149131
0.0001491
0.0001491
0.000149132
0.000149197
0.000149281
0.00014937
0.000149456
0.000149533
0.000149599
0.000149653
0.000149697
0.000149731
0.000149756
0.000149775
0.000149788
0.000149797
0.000149803
0.000149807
0.000149811
0.000149814
0.000149815
0.000149826
0.00014982
0.000149851
0.000135362
0.00103561
0.00146693
0.00163135
0.00157972
0.00130279
0.000974032
0.000294884
0.00294721
0.00275679
0.0030048
0.00315975
0.00285364
0.00217693
0.00114407
0.000456287
0.00467452
0.00461622
0.00551061
0.00624658
0.00592111
0.00463243
0.00246906
0.000593068
0.00542959
0.00584782
0.00712851
0.00893562
0.00856751
0.00695805
0.00394837
0.000752367
0.00575218
0.00657247
0.00808199
0.00985735
0.00988343
0.00828045
0.00494749
0.000856116
0.00586965
0.0067767
0.00821073
0.00998219
0.0102927
0.00878516
0.0053476
0.000884552
0.00577821
0.00693556
0.00825925
0.00987364
0.0103971
0.00897627
0.0055248
0.000890906
0.00553355
0.00682227
0.0083064
0.00986217
0.0103472
0.00900041
0.00559913
0.000881652
0.00528166
0.00664625
0.00817321
0.00971256
0.0101203
0.0088248
0.00551578
0.000850344
0.00506801
0.00646958
0.00802023
0.00950997
0.00979548
0.0085359
0.0053476
0.000811967
0.00488507
0.0063037
0.00787468
0.00933201
0.00944942
0.00821762
0.00515424
0.000771436
0.0047547
0.00618731
0.00774669
0.00900702
0.00908938
0.00787829
0.00493435
0.000735522
0.00466724
0.00610497
0.00763618
0.00868674
0.00872205
0.00751916
0.00468278
0.000711769
0.00458854
0.00603741
0.00753821
0.00837644
0.00836532
0.00716965
0.00443737
0.000688953
0.00455937
0.0060204
0.00749772
0.00811971
0.00805749
0.00685954
0.00421652
0.000668464
0.00457695
0.00606547
0.00749753
0.00792055
0.00779615
0.00658466
0.00401101
0.000649202
0.00464055
0.00614709
0.00736139
0.00774944
0.00756068
0.00633852
0.00382955
0.000582966
0.00476378
0.00627904
0.00726603
0.00760936
0.00735316
0.00611437
0.00366646
0.0004979
0.00498689
0.00648594
0.00723568
0.00751811
0.0071849
0.0059164
0.00351695
0.000437914
0.00533624
0.00668297
0.00727764
0.00748716
0.00706528
0.00575095
0.00338622
0.000395738
0.00581795
0.00686911
0.00740702
0.007528
0.00700098
0.00562199
0.00327832
0.000366701
0.0063726
0.00716491
0.00762783
0.00763705
0.00699048
0.00553136
0.00319723
0.000347954
0.00684104
0.00756004
0.00791575
0.00779634
0.00702917
0.00548417
0.00314825
0.000337411
0.00735311
0.00796906
0.00822609
0.00797889
0.00710038
0.00547942
0.00312935
0.000332654
0.00785295
0.00837148
0.00850514
0.00815037
0.00718352
0.00550384
0.00312959
0.000331153
0.00822357
0.00866216
0.0087163
0.00828683
0.00726371
0.00554722
0.00314412
0.000330782
0.00844783
0.0088418
0.00884556
0.00837498
0.00733102
0.00560197
0.00317152
0.000329522
0.0085245
0.00887101
0.00884011
0.00835992
0.00733088
0.00562103
0.00318386
0.000324463
0.00834091
0.00863489
0.00858217
0.00812957
0.00716895
0.00554963
0.00316469
0.000313118
0.00774481
0.00806145
0.00805354
0.00770895
0.0068725
0.00539188
0.003107
0.000294835
0.00676982
0.00732663
0.00739504
0.00716503
0.00646889
0.00514579
0.00300083
0.000271168
0.00578864
0.00647412
0.00669866
0.00656083
0.0060018
0.00483103
0.00284875
0.000245517
0.00496663
0.00568239
0.00603095
0.00596207
0.005518
0.0044781
0.00266433
0.000221194
0.00431939
0.00504935
0.00543271
0.00541369
0.00505189
0.00411613
0.00246511
0.00020037
0.00383927
0.00456914
0.00491929
0.00493371
0.00462039
0.00376671
0.00226798
0.000183639
0.00349041
0.00418645
0.00448523
0.0045196
0.00423193
0.00344477
0.00208619
0.000170812
0.00322945
0.00382331
0.004119
0.00416251
0.0038908
0.00315985
0.00192793
0.000161239
0.00300757
0.00352095
0.00380913
0.00385609
0.00359707
0.00291612
0.0017965
0.000154188
0.00277178
0.00326719
0.00354619
0.00359442
0.00334768
0.00271225
0.00169006
0.000148995
0.00257375
0.003052
0.00332238
0.00337188
0.00313818
0.00254463
0.00160579
0.000145151
0.00240473
0.00286767
0.00313107
0.00318277
0.00296311
0.00240725
0.00153828
0.000142275
0.00225808
0.00270821
0.00296664
0.00302159
0.00281681
0.00229432
0.00148433
0.000140097
0.002129
0.00256884
0.0028242
0.0028833
0.00269319
0.00220056
0.00144092
0.000138371
0.00201387
0.0024457
0.00269948
0.00276331
0.00258718
0.0021216
0.0014013
0.000136901
0.00190994
0.00233556
0.00258896
0.00265789
0.00249494
0.00205409
0.00135275
0.000135622
0.00181516
0.00223595
0.00248983
0.00256411
0.00241366
0.00199533
0.00130941
0.000134519
0.00172786
0.0021449
0.00239998
0.00247981
0.00234127
0.00194352
0.00127105
0.000133574
0.00164658
0.00206076
0.00231768
0.00240329
0.00227618
0.00189735
0.0012372
0.000132768
0.0015702
0.00198229
0.00224165
0.0023332
0.00221705
0.00185569
0.00120726
0.00013208
0.00149784
0.00190857
0.00217082
0.00226847
0.0021629
0.00181779
0.0011806
0.000131487
0.00142861
0.00183875
0.00210446
0.00220854
0.00211333
0.00178338
0.0011565
0.000130963
0.00136149
0.00177165
0.00204172
0.00215235
0.00206712
0.00175127
0.00113403
0.000130481
0.00129591
0.00169793
0.0019817
0.00209878
0.00202293
0.00172019
0.00111247
0.000130023
0.0012315
0.00162632
0.00192361
0.00204715
0.00198047
0.00169037
0.00109166
0.000129584
0.00116792
0.00155659
0.00186667
0.00199682
0.00193941
0.00166181
0.00107158
0.000129163
0.0011048
0.00148772
0.00180989
0.00194704
0.00189867
0.00163281
0.00105211
0.000128756
0.00104182
0.00141876
0.00174841
0.00189689
0.00185772
0.0016037
0.00103308
0.000128357
0.000978986
0.00134959
0.00167786
0.00184637
0.00181658
0.00157498
0.00101444
0.000127954
0.000916659
0.00128063
0.00160606
0.00179509
0.00177517
0.00154634
0.000996068
0.000127541
0.000855403
0.00121254
0.00153385
0.00174381
0.0017339
0.00151704
0.000977965
0.000127111
0.000795791
0.00114607
0.00146174
0.0016932
0.00169379
0.00148831
0.000960471
0.000126663
0.000737944
0.00108149
0.00139004
0.00163258
0.00165533
0.00146051
0.000943755
0.000126198
0.000681296
0.00101831
0.00131846
0.00156879
0.00161765
0.00143293
0.000927394
0.000125717
0.000625167
0.000956037
0.00124548
0.00150123
0.00157752
0.00140407
0.000911405
0.000125231
0.000569125
0.000894563
0.00116969
0.00142603
0.00152995
0.00137213
0.000895738
0.00012475
0.000513299
0.000833588
0.00109099
0.00134031
0.00147175
0.00133555
0.000880233
0.000124283
0.000458757
0.000752235
0.00101042
0.00124467
0.00138696
0.00129309
0.000864104
0.000123842
0.000406929
0.000667127
0.000928836
0.0011425
0.00128919
0.00124408
0.000848029
0.000123443
0.000359345
0.000584254
0.000846778
0.00103792
0.00118451
0.00118868
0.000832364
0.000123097
0.000317391
0.000507671
0.000741832
0.000934409
0.00107912
0.00112857
0.000817528
0.000122812
0.000282034
0.000440287
0.000641455
0.00083462
0.000978341
0.0010639
0.000804038
0.00012259
0.000253395
0.000383212
0.000553331
0.000727378
0.000885969
0.00100409
0.000792265
0.000122426
0.000230885
0.000335987
0.0004787
0.000634598
0.00080383
0.000951202
0.00078234
0.000122313
0.00021352
0.000297626
0.000416954
0.000555513
0.000729081
0.000905669
0.000774322
0.00012223
0.000200186
0.000266911
0.000366118
0.000490264
0.000666138
0.000867039
0.000768031
0.000122188
0.000189837
0.000242424
0.000324071
0.000434936
0.000613173
0.000834093
0.000763223
0.000122184
0.000181585
0.000222805
0.000289149
0.00038775
0.000568559
0.000807404
0.000759699
0.000122196
0.000174757
0.000206891
0.000260002
0.000347274
0.000530972
0.000786145
0.000757244
0.000122221
0.0001689
0.000193782
0.000235549
0.000312455
0.000499386
0.000769491
0.00075563
0.000122254
0.000163744
0.000182838
0.000214971
0.000282547
0.000473015
0.00075666
0.000754695
0.000122291
0.000159158
0.000173632
0.000197678
0.000257018
0.000451217
0.000746932
0.000754316
0.000122327
0.000155095
0.000165904
0.000183242
0.000235484
0.000433451
0.000739664
0.000754203
0.000122359
0.00015155
0.000159472
0.000171333
0.000217614
0.000419203
0.00073433
0.000754259
0.000122387
0.000148519
0.000154193
0.000161662
0.000203067
0.000407976
0.00073049
0.000754413
0.00012241
0.00014599
0.000149934
0.000153952
0.000191469
0.000399284
0.000727783
0.000754613
0.000122429
0.000143932
0.000146562
0.000147924
0.000182406
0.000392668
0.000725914
0.000754824
0.000122443
0.000142297
0.000143945
0.000143303
0.000175465
0.000387719
0.000724647
0.000755022
0.000122455
0.000141029
0.000141955
0.000139825
0.000170244
0.00038408
0.000723806
0.000755197
0.000122464
0.000140069
0.000140469
0.000137254
0.000166389
0.000381453
0.000723262
0.000755345
0.00012247
0.000139355
0.000139381
0.000135384
0.000163584
0.000379591
0.000722916
0.000755469
0.000122475
0.000138837
0.000138597
0.000134047
0.000161581
0.000378297
0.000722737
0.000755569
0.000122479
0.000138466
0.000138042
0.000133103
0.00016016
0.000377406
0.000722644
0.000755648
0.000122482
0.000138206
0.000137656
0.000132447
0.000159176
0.00037681
0.00072261
0.000755713
0.000122483
0.000138027
0.000137389
0.000131994
0.000158488
0.000376402
0.000722593
0.00075576
0.000122484
0.000137906
0.000137211
0.00013169
0.000158029
0.000376138
0.000722602
0.000755796
0.000122484
0.000137824
0.00013709
0.000131479
0.000157702
0.000375947
0.0007226
0.000755832
0.000122484
0.000137771
0.000137014
0.000131351
0.000157506
0.000375841
0.000722597
0.000755861
0.000122483
0.000137735
0.000136959
0.000131249
0.000157336
0.000375693
0.000722568
0.000755851
0.00012248
0.000137715
0.000136933
0.000131214
0.000157264
0.000375572
0.00072251
0.000756107
0.000122472
0.000137697
0.000136906
0.000131161
0.000157108
0.000375161
0.000722233
0.000756155
0.000122457
)
;

boundaryField
{
    frontAndBack
    {
        type            empty;
    }
    inlet
    {
        type            calculated;
        value           nonuniform List<scalar> 10(9.54768e-06 0.000160714 0.000160714 0.000160714 0.000160714 0.000160714 0.000160714 0.000160714 0.000160714 9.5473e-06);
    }
    outlet
    {
        type            calculated;
        value           nonuniform List<scalar> 
18
(
0.000137697
0.000136906
0.000131161
0.000157108
0.000375161
0.000722233
0.000760483
0.00015486
0.000137873
0.000137884
0.000137857
0.000137772
0.000137441
0.00013398
0.000159812
0.000407899
0.000730688
0.000157315
)
;
    }
    walls
    {
        type            nutkWallFunction;
        blending        stepwise;
        Cmu             0.09;
        kappa           0.41;
        E               9.8;
        value           nonuniform List<scalar> 
228
(
2.20337e-05
2.44559e-05
2.91026e-05
3.17398e-05
3.68056e-05
3.96161e-05
4.50183e-05
4.79443e-05
5.3567e-05
5.65375e-05
0.000230976
0.000219114
0.000220418
0.00022651
0.000230503
0.00022566
0.000199582
3.37344e-05
3.37344e-05
5.90971e-05
7.98244e-05
9.5546e-05
0.000103846
0.000107226
0.000107981
0.000106894
0.000103178
9.85974e-05
9.37267e-05
8.9383e-05
8.64963e-05
8.37248e-05
8.1225e-05
7.88541e-05
7.64687e-05
7.42032e-05
7.22374e-05
7.06451e-05
6.94388e-05
6.86071e-05
6.81219e-05
6.78951e-05
6.78179e-05
6.78019e-05
6.77603e-05
6.75666e-05
6.71362e-05
6.64301e-05
6.54089e-05
6.41191e-05
6.26693e-05
6.11945e-05
5.98154e-05
5.86078e-05
5.75956e-05
5.67739e-05
5.61198e-05
5.56099e-05
5.52193e-05
5.49253e-05
5.46937e-05
5.44922e-05
5.4314e-05
5.41615e-05
5.40348e-05
5.39322e-05
5.3851e-05
5.37873e-05
5.3736e-05
5.3691e-05
5.36483e-05
5.36067e-05
5.35657e-05
5.35243e-05
5.34813e-05
5.3434e-05
5.33794e-05
5.33142e-05
5.32373e-05
5.31484e-05
5.30487e-05
5.2942e-05
5.28331e-05
5.27264e-05
5.26267e-05
5.25393e-05
5.24681e-05
5.2415e-05
5.23797e-05
5.23603e-05
5.23538e-05
5.23547e-05
5.23639e-05
5.23804e-05
5.23987e-05
5.2418e-05
5.24375e-05
5.24563e-05
5.24736e-05
5.24889e-05
5.2502e-05
5.2513e-05
5.25221e-05
5.25294e-05
5.25353e-05
5.25399e-05
5.25434e-05
5.25462e-05
5.25483e-05
5.25499e-05
5.25511e-05
5.25521e-05
5.25529e-05
5.25538e-05
5.25546e-05
5.25562e-05
5.25582e-05
5.25663e-05
2.12425e-05
2.49651e-05
2.83288e-05
3.22142e-05
3.60356e-05
4.00907e-05
4.41971e-05
4.83926e-05
5.26442e-05
5.69466e-05
6.20828e-05
6.80954e-05
7.40167e-05
7.9691e-05
8.50771e-05
8.98966e-05
9.41806e-05
9.76279e-05
0.000100384
0.000102249
0.000103464
0.00010392
0.000103787
0.000103372
0.000102517
0.000101372
0.000100139
9.88766e-05
9.76327e-05
9.66054e-05
9.58054e-05
9.51532e-05
9.4846e-05
9.48372e-05
9.49001e-05
9.48843e-05
9.46703e-05
9.38948e-05
9.18461e-05
8.65653e-05
8.02836e-05
7.52527e-05
7.23208e-05
7.1361e-05
7.13835e-05
7.17255e-05
7.21165e-05
7.23462e-05
7.24894e-05
7.25877e-05
7.26583e-05
7.27044e-05
7.27244e-05
7.27257e-05
7.27197e-05
7.26979e-05
7.26604e-05
7.26216e-05
7.25861e-05
7.25568e-05
7.2532e-05
7.2507e-05
7.24792e-05
7.24475e-05
7.24096e-05
7.236e-05
7.22916e-05
7.2199e-05
7.20786e-05
7.19267e-05
7.17394e-05
7.1515e-05
7.1257e-05
7.09732e-05
7.06755e-05
7.03782e-05
7.00949e-05
6.98375e-05
6.96157e-05
6.94353e-05
6.92985e-05
6.92045e-05
6.91492e-05
6.91289e-05
6.91301e-05
6.91526e-05
6.91995e-05
6.92505e-05
6.9305e-05
6.93625e-05
6.94198e-05
6.94728e-05
6.95195e-05
6.95593e-05
6.95922e-05
6.96187e-05
6.96395e-05
6.96555e-05
6.96674e-05
6.96763e-05
6.96826e-05
6.96872e-05
6.96903e-05
6.96924e-05
6.96939e-05
6.96945e-05
6.96946e-05
6.96936e-05
6.96927e-05
6.96859e-05
)
;
    }
}


// ************************************************************************* //
