/*--------------------------------*- C++ -*----------------------------------*\
| =========                 |                                                 |
| \\      /  F ield         | OpenFOAM: The Open Source CFD Toolbox           |
|  \\    /   O peration     | Version:  v2012                                 |
|   \\  /    A nd           | Website:  www.openfoam.com                      |
|    \\/     M anipulation  |                                                 |
\*---------------------------------------------------------------------------*/
FoamFile
{
    version     2.0;
    format      ascii;
    class       surfaceScalarField;
    location    "0.009";
    object      phi.air;
}
// * * * * * * * * * * * * * * * * * * * * * * * * * * * * * * * * * * * * * //

dimensions      [0 3 -1 0 0 0 0];
oriented        oriented;


internalField   nonuniform List<scalar> 
3672
(
0.00640057
7.17922e-06
0.00639116
9.16433e-06
0.00638089
1.00151e-05
0.00636901
1.16337e-05
0.00635556
1.31938e-05
0.0063377
1.76072e-05
0.00631647
2.0985e-05
0.00627716
3.90604e-05
0.00621149
6.54122e-05
0.000247573
0.00596367
0.00641085
4.32677e-06
0.00641291
7.10414e-06
0.00641507
7.85784e-06
0.00641714
9.5655e-06
0.00641829
1.20389e-05
0.00641851
1.73938e-05
0.00641381
2.56804e-05
0.00640255
5.03243e-05
0.00636351
0.00010445
0.000245969
0.00636511
0.00640984
2.48741e-06
0.0064121
4.84798e-06
0.00641435
5.60775e-06
0.00641665
7.26329e-06
0.00641844
1.02423e-05
0.00641955
1.62922e-05
0.00641739
2.78382e-05
0.00641271
5.50021e-05
0.00640238
0.000114781
0.000227344
0.00642101
0.00640933
1.15443e-06
0.00641167
2.51025e-06
0.00641403
3.24728e-06
0.00641647
4.82124e-06
0.00641878
7.93058e-06
0.0064208
1.42731e-05
0.00642155
2.70879e-05
0.00642256
5.39915e-05
0.00642729
0.000110056
0.000200487
0.00645415
0.00640915
2.47015e-09
0.00641151
1.51257e-07
0.006414
7.53864e-07
0.00641664
2.18453e-06
0.00641948
5.08736e-06
0.0064226
1.11621e-05
0.00642603
2.36511e-05
0.00643172
4.83046e-05
0.00644519
9.65884e-05
0.000167817
0.00647786
0.00640918
-1.17669e-06
0.00641161
-2.27867e-06
0.00641423
-1.86756e-06
0.00641711
-6.96679e-07
0.0064205
1.69429e-06
0.0064247
6.96408e-06
0.0064304
1.79543e-05
0.00643981
3.88968e-05
0.00645866
7.77327e-05
0.000131732
0.00649475
0.00640942
-2.60031e-06
0.00641196
-4.81826e-06
0.00641471
-4.61406e-06
0.00641786
-3.84771e-06
0.00642175
-2.19186e-06
0.00642687
1.83618e-06
0.00643437
1.04576e-05
0.00644659
2.66786e-05
0.00646876
5.55647e-05
9.40585e-05
0.00650643
0.00641001
-4.61062e-06
0.00641258
-7.39061e-06
0.0064154
-7.43182e-06
0.00641879
-7.23447e-06
0.00642311
-6.51722e-06
0.00642904
-4.08829e-06
0.00643789
1.60588e-06
0.00645204
1.2528e-05
0.00647617
3.14296e-05
5.5693e-05
0.00651454
0.00641109
-7.70495e-06
0.0064135
-9.79946e-06
0.00641632
-1.02468e-05
0.00641976
-1.06742e-05
0.00642418
-1.09395e-05
0.00643037
-1.02775e-05
0.00643988
-7.90734e-06
0.00645497
-2.56346e-06
0.00647997
6.43698e-06
1.77016e-05
0.00651796
0.00640055
0.006391
0.006381
0.00637058
0.00635989
0.00634986
0.0063422
0.00633989
0.00634658
0.00636453
0.00565744
0.00125344
-0.000947209
0.00544393
0.00119258
-0.000979071
0.00551879
0.000386868
-0.00046173
0.00575386
-0.0013485
0.00111343
0.00571776
-0.0036095
0.0036456
0.0054577
-0.00460231
0.00486237
0.00506372
-0.00432645
0.00472043
0.00470854
-0.00338601
0.00374119
0.00450359
-0.00235534
0.00256029
0.00440034
-0.0015532
0.00165645
0.00434953
-0.00101357
0.00106437
0.00432276
-0.000669094
0.000695864
0.00430584
-0.000450342
0.000467262
0.00429234
-0.000312098
0.000325601
0.00427895
-0.000227568
0.000240955
0.00426424
-0.000176424
0.000191138
0.00424849
-0.000147192
0.000162939
0.00423269
-0.000135007
0.000150807
0.00421851
-0.000133436
0.000147622
0.00420702
-0.000134421
0.000145912
0.00419801
-0.000130643
0.000139654
0.00419063
-0.000117105
0.000124482
0.0041837
-9.35034e-05
0.000100433
0.00417598
-6.31052e-05
7.08214e-05
0.00416734
-3.07541e-05
3.93945e-05
0.00415815
-1.96756e-06
1.11647e-05
0.00414849
1.91197e-05
-9.46208e-06
0.00413854
3.07032e-05
-2.07528e-05
0.00412887
3.35155e-05
-2.38435e-05
0.00412026
3.03245e-05
-2.17183e-05
0.0041132
2.44298e-05
-1.73672e-05
0.00410773
1.81479e-05
-1.26775e-05
0.00410367
1.26411e-05
-8.58958e-06
0.00410079
8.30676e-06
-5.41854e-06
0.0040988
5.14087e-06
-3.15013e-06
0.00409746
2.96125e-06
-1.63012e-06
0.0040966
1.54109e-06
-6.7949e-07
0.00409606
6.59479e-07
-1.19141e-07
0.00409573
1.17433e-07
2.13472e-07
0.00409553
-1.63567e-07
3.67275e-07
0.00409541
-3.27352e-07
4.45955e-07
0.00409534
-4.0701e-07
4.76124e-07
0.0040953
-4.44664e-07
4.83965e-07
0.00409528
-4.59812e-07
4.81798e-07
0.00409527
-4.64311e-07
4.76439e-07
0.00409526
-4.64259e-07
4.70871e-07
0.00409526
-4.62703e-07
4.66281e-07
0.00409526
-4.60972e-07
4.62922e-07
0.00409525
-4.595e-07
4.60615e-07
0.00409525
-4.58403e-07
4.591e-07
0.00409525
-4.57632e-07
4.58117e-07
0.00409525
-4.57124e-07
4.57501e-07
0.00409525
-4.56754e-07
4.57079e-07
0.00409525
-4.56485e-07
4.56783e-07
0.00409525
-4.56287e-07
4.56568e-07
0.00409525
-4.56142e-07
4.5641e-07
0.00409525
-4.5604e-07
4.56308e-07
0.00409525
-4.55999e-07
4.56284e-07
0.00409525
-4.56006e-07
4.56304e-07
0.00409525
-4.56041e-07
4.56343e-07
0.00409525
-4.56079e-07
4.5638e-07
0.00409525
-4.56108e-07
4.56413e-07
0.00409525
-4.56128e-07
4.56437e-07
0.00409525
-4.56147e-07
4.56458e-07
0.00409525
-4.56157e-07
4.56467e-07
0.00409525
-4.56147e-07
4.56456e-07
0.00409525
-4.56114e-07
4.56424e-07
0.00409525
-4.56088e-07
4.56395e-07
0.00409525
-4.56078e-07
4.56373e-07
0.00409525
-4.56084e-07
4.56362e-07
0.00409525
-4.56096e-07
4.56363e-07
0.00409525
-4.56107e-07
4.56373e-07
0.00409525
-4.56106e-07
4.56381e-07
0.00409525
-4.56095e-07
4.56376e-07
0.00409525
-4.56075e-07
4.56357e-07
0.00409525
-4.5605e-07
4.56327e-07
0.00409525
-4.5603e-07
4.56303e-07
0.00409524
-4.56025e-07
4.56298e-07
0.00409524
-4.56031e-07
4.56309e-07
0.00409524
-4.56046e-07
4.56329e-07
0.00409524
-4.56072e-07
4.56357e-07
0.00409524
-4.56112e-07
4.56399e-07
0.00409524
-4.56173e-07
4.56463e-07
0.00409524
-4.56267e-07
4.56563e-07
0.00409524
-4.56409e-07
4.56705e-07
0.00409524
-4.56646e-07
4.56928e-07
0.00409524
-4.57067e-07
4.57316e-07
0.00409524
-4.57849e-07
4.58039e-07
0.00409524
-4.59318e-07
4.59415e-07
0.00409524
-4.62085e-07
4.62021e-07
0.00409524
-4.67299e-07
4.66942e-07
0.00409524
-4.77042e-07
4.76138e-07
0.00409525
-4.95392e-07
4.93486e-07
0.00409525
-5.29527e-07
5.25746e-07
0.00409526
-5.93868e-07
5.86857e-07
0.00409527
-7.13927e-07
7.00724e-07
0.00409529
-9.31403e-07
9.08862e-07
0.00409533
-1.37282e-06
1.32983e-06
0.0040954
-1.92704e-06
1.86671e-06
-4.07432e-06
3.93292e-06
0.00660044
0.00101811
0.00675541
0.00103762
0.00688165
0.000260624
0.00682553
-0.00129238
0.00636685
-0.00315082
0.00576457
-0.00400003
0.00519458
-0.00375646
0.00479199
-0.00298342
0.00456287
-0.00212622
0.0044407
-0.00143102
0.00437592
-0.000948793
0.00433966
-0.000632834
0.0043168
-0.000427486
0.00429975
-0.000295048
0.00428443
-0.000212244
0.00426937
-0.000161367
0.00425438
-0.000132197
0.00423912
-0.000119751
0.00422415
-0.000118461
0.00421033
-0.00012061
0.0041978
-0.000118113
0.00418615
-0.00010545
0.00417487
-8.222e-05
0.00416391
-5.21448e-05
0.00415382
-2.06701e-05
0.0041448
7.05578e-06
0.00413646
2.74562e-05
0.00412841
3.87544e-05
0.0041207
4.12275e-05
0.00411388
3.71446e-05
0.00410832
2.9989e-05
0.00410402
2.24427e-05
0.00410083
1.58318e-05
0.00409854
1.05986e-05
0.00409695
6.73806e-06
0.00409586
4.04499e-06
0.00409514
2.25911e-06
0.00409468
1.12483e-06
0.00409437
4.2135e-07
0.00409419
2.07263e-08
0.00409408
-2.18642e-07
0.00409402
-3.42376e-07
0.00409398
-4.07425e-07
0.00409396
-4.38618e-07
0.00409395
-4.52287e-07
0.00409394
-4.57504e-07
0.00409394
-4.58899e-07
0.00409393
-4.58759e-07
0.00409393
-4.58167e-07
0.00409393
-4.57556e-07
0.00409393
-4.57043e-07
0.00409393
-4.56649e-07
0.00409393
-4.56368e-07
0.00409393
-4.56159e-07
0.00409393
-4.55988e-07
0.00409393
-4.55842e-07
0.00409393
-4.55744e-07
0.00409393
-4.55711e-07
0.00409393
-4.55726e-07
0.00409393
-4.55752e-07
0.00409393
-4.55773e-07
0.00409393
-4.55796e-07
0.00409393
-4.55819e-07
0.00409393
-4.55826e-07
0.00409393
-4.55807e-07
0.00409393
-4.55778e-07
0.00409393
-4.55769e-07
0.00409392
-4.55785e-07
0.00409392
-4.55806e-07
0.00409392
-4.55811e-07
0.00409392
-4.55809e-07
0.00409392
-4.5582e-07
0.00409392
-4.55843e-07
0.00409392
-4.55856e-07
0.00409392
-4.55835e-07
0.00409392
-4.55792e-07
0.00409392
-4.55759e-07
0.00409392
-4.55756e-07
0.00409392
-4.55776e-07
0.00409392
-4.55799e-07
0.00409392
-4.5581e-07
0.00409392
-4.55817e-07
0.00409392
-4.55846e-07
0.00409392
-4.55924e-07
0.00409392
-4.56069e-07
0.00409392
-4.5632e-07
0.00409392
-4.56757e-07
0.00409392
-4.57554e-07
0.00409392
-4.59054e-07
0.00409392
-4.61876e-07
0.00409392
-4.67172e-07
0.00409392
-4.77035e-07
0.00409392
-4.95588e-07
0.00409392
-5.30142e-07
0.00409392
-5.95324e-07
0.00409392
-7.17323e-07
0.00409393
-9.37464e-07
0.00409394
-1.38702e-06
0.00409396
-1.94444e-06
-4.11687e-06
0.00665641
0.0007827
0.00687957
0.000814463
0.00700734
0.000132849
0.0068719
-0.00115693
0.00637524
-0.00265416
0.00576171
-0.00338651
0.00522146
-0.0032162
0.00484046
-0.00260242
0.00460982
-0.00189558
0.00447808
-0.00129927
0.00440353
-0.000874248
0.00435994
-0.00058924
0.00433226
-0.000399806
0.00431226
-0.000275054
0.00429533
-0.000195316
0.00427958
-0.000145617
0.00426405
-0.000116667
0.0042478
-0.000103494
0.00423068
-0.000101344
0.00421324
-0.000103167
0.00419597
-0.000100849
0.00417925
-8.87274e-05
0.00416372
-6.66888e-05
0.00415025
-3.86728e-05
0.00413937
-9.79573e-06
0.004131
1.5428e-05
0.00412441
3.40489e-05
0.00411862
4.45399e-05
0.00411311
4.67334e-05
0.00410823
4.20329e-05
0.00410428
3.39365e-05
0.00410124
2.54823e-05
0.00409896
1.81078e-05
0.0040973
1.22615e-05
0.00409611
7.92421e-06
0.00409529
4.87166e-06
0.00409473
2.81962e-06
0.00409436
1.49114e-06
0.00409413
6.5361e-07
0.00409399
1.58855e-07
0.00409389
-1.23209e-07
0.00409384
-2.83397e-07
0.0040938
-3.71388e-07
0.00409378
-4.16818e-07
0.00409377
-4.39297e-07
0.00409376
-4.49839e-07
0.00409375
-4.54411e-07
0.00409375
-4.56124e-07
0.00409375
-4.5657e-07
0.00409375
-4.56529e-07
0.00409375
-4.5634e-07
0.00409375
-4.5613e-07
0.00409375
-4.55951e-07
0.00409375
-4.55803e-07
0.00409375
-4.55673e-07
0.00409375
-4.55558e-07
0.00409374
-4.55474e-07
0.00409374
-4.55438e-07
0.00409374
-4.55442e-07
0.00409374
-4.55458e-07
0.00409374
-4.5547e-07
0.00409374
-4.55481e-07
0.00409374
-4.55489e-07
0.00409374
-4.5548e-07
0.00409374
-4.55454e-07
0.00409374
-4.55433e-07
0.00409374
-4.55439e-07
0.00409374
-4.55473e-07
0.00409374
-4.55512e-07
0.00409374
-4.55537e-07
0.00409374
-4.55551e-07
0.00409374
-4.55566e-07
0.00409374
-4.55585e-07
0.00409374
-4.55585e-07
0.00409374
-4.55557e-07
0.00409374
-4.5552e-07
0.00409374
-4.55504e-07
0.00409374
-4.55512e-07
0.00409374
-4.55532e-07
0.00409374
-4.55543e-07
0.00409374
-4.55536e-07
0.00409374
-4.55522e-07
0.00409374
-4.55529e-07
0.00409374
-4.55587e-07
0.00409374
-4.55721e-07
0.00409374
-4.55973e-07
0.00409374
-4.56422e-07
0.00409374
-4.57236e-07
0.00409374
-4.58746e-07
0.00409374
-4.61558e-07
0.00409373
-4.6681e-07
0.00409373
-4.76569e-07
0.00409373
-4.94901e-07
0.00409373
-5.28978e-07
0.00409373
-5.93157e-07
0.00409373
-7.12906e-07
0.00409372
-9.29198e-07
0.0040937
-1.37094e-06
0.00409368
-1.91968e-06
-4.0957e-06
0.00664144
0.000595402
0.00684103
0.000614876
0.0069303
4.35843e-05
0.00677883
-0.00100546
0.00632604
-0.00220137
0.00576509
-0.00282556
0.00526728
-0.00271839
0.00489985
-0.002235
0.00466392
-0.00165965
0.00452152
-0.00115688
0.00443664
-0.00078936
0.00438494
-0.000537539
0.00435161
-0.000366482
0.00432807
-0.000251509
0.00430922
-0.000176467
0.0042922
-0.000128602
0.00427519
-9.96574e-05
0.00425696
-8.52556e-05
0.0042369
-8.12855e-05
0.0042152
-8.14678e-05
0.00419267
-7.83165e-05
0.00417073
-6.67894e-05
0.00415101
-4.69724e-05
0.00413479
-2.24544e-05
0.00412274
2.2563e-06
0.00411469
2.34836e-05
0.0041097
3.9031e-05
0.0041064
4.78399e-05
0.00410358
4.95549e-05
0.00410108
4.4534e-05
0.00409912
3.5893e-05
0.00409768
2.69278e-05
0.0040966
1.91879e-05
0.00409579
1.30737e-05
0.00409518
8.53039e-06
0.00409474
5.31639e-06
0.00409442
3.13858e-06
0.00409419
1.71641e-06
0.00409403
8.16454e-07
0.00409391
2.78536e-07
0.00409383
-4.9073e-08
0.00409379
-2.42247e-07
0.00409377
-3.4633e-07
0.00409375
-4.01836e-07
0.00409374
-4.30277e-07
0.00409374
-4.44401e-07
0.00409374
-4.51119e-07
0.00409373
-4.54105e-07
0.00409373
-4.55278e-07
0.00409373
-4.55641e-07
0.00409373
-4.5569e-07
0.00409373
-4.55626e-07
0.00409373
-4.55534e-07
0.00409373
-4.55443e-07
0.00409373
-4.55354e-07
0.00409373
-4.55267e-07
0.00409373
-4.55199e-07
0.00409373
-4.55164e-07
0.00409373
-4.5516e-07
0.00409373
-4.55168e-07
0.00409373
-4.55172e-07
0.00409373
-4.55171e-07
0.00409373
-4.55164e-07
0.00409373
-4.5514e-07
0.00409373
-4.55106e-07
0.00409373
-4.55089e-07
0.00409373
-4.55111e-07
0.00409373
-4.55164e-07
0.00409373
-4.55222e-07
0.00409372
-4.55265e-07
0.00409372
-4.55292e-07
0.00409372
-4.55312e-07
0.00409372
-4.55326e-07
0.00409372
-4.55313e-07
0.00409372
-4.55271e-07
0.00409372
-4.55238e-07
0.00409372
-4.5524e-07
0.00409372
-4.55262e-07
0.00409372
-4.55284e-07
0.00409372
-4.55286e-07
0.00409372
-4.55261e-07
0.00409372
-4.55225e-07
0.00409372
-4.55209e-07
0.00409372
-4.55246e-07
0.00409372
-4.55365e-07
0.00409372
-4.55607e-07
0.00409372
-4.56043e-07
0.00409372
-4.56825e-07
0.00409372
-4.5826e-07
0.00409372
-4.60907e-07
0.00409372
-4.6583e-07
0.00409372
-4.74958e-07
0.00409371
-4.92152e-07
0.00409371
-5.24111e-07
0.0040937
-5.84717e-07
0.00409368
-6.97819e-07
0.00409366
-9.0328e-07
0.00409361
-1.3257e-06
0.00409354
-1.84781e-06
-3.97168e-06
0.00662656
0.000446699
0.00679146
0.000449972
0.00684702
-1.19712e-05
0.00669269
-0.000851135
0.00628531
-0.00179399
0.00577171
-0.00231197
0.00530526
-0.00225194
0.00494845
-0.00187819
0.00470867
-0.00141987
0.00455724
-0.00100544
0.00446306
-0.000695186
0.00440375
-0.000478226
0.00436498
-0.000327716
0.00433803
-0.000224556
0.00431714
-0.000155576
0.0042986
-0.000110062
0.00428022
-8.12747e-05
0.00426039
-6.54308e-05
0.004238
-5.88978e-05
0.00421291
-5.63742e-05
0.00418616
-5.15641e-05
0.00416008
-4.07136e-05
0.00413712
-2.40077e-05
0.00411884
-4.17911e-06
0.00410597
1.51317e-05
0.0040982
3.12547e-05
0.00409443
4.28e-05
0.00409313
4.91415e-05
0.00409286
4.98213e-05
0.00409301
4.43839e-05
0.00409336
3.55402e-05
0.00409369
2.65989e-05
0.0040939
1.8976e-05
0.004094
1.29752e-05
0.00409402
8.51417e-06
0.00409399
5.34903e-06
0.00409393
3.19193e-06
0.00409388
1.77038e-06
0.00409384
8.57959e-07
0.00409382
2.95987e-07
0.0040938
-3.35129e-08
0.00409378
-2.22253e-07
0.00409377
-3.29001e-07
0.00409375
-3.88805e-07
0.00409374
-4.215e-07
0.00409374
-4.38742e-07
0.00409374
-4.47534e-07
0.00409373
-4.51845e-07
0.00409373
-4.53815e-07
0.00409373
-4.54637e-07
0.00409373
-4.54969e-07
0.00409373
-4.55085e-07
0.00409373
-4.55101e-07
0.00409373
-4.55079e-07
0.00409373
-4.55038e-07
0.00409373
-4.54983e-07
0.00409373
-4.54931e-07
0.00409373
-4.54897e-07
0.00409373
-4.54886e-07
0.00409373
-4.54885e-07
0.00409373
-4.54879e-07
0.00409373
-4.54867e-07
0.00409373
-4.54847e-07
0.00409373
-4.54815e-07
0.00409372
-4.54779e-07
0.00409372
-4.54768e-07
0.00409372
-4.548e-07
0.00409372
-4.54866e-07
0.00409372
-4.54935e-07
0.00409372
-4.54987e-07
0.00409372
-4.55022e-07
0.00409372
-4.55047e-07
0.00409372
-4.55056e-07
0.00409372
-4.55031e-07
0.00409372
-4.54978e-07
0.00409372
-4.54945e-07
0.00409372
-4.54959e-07
0.00409372
-4.54994e-07
0.00409372
-4.55018e-07
0.00409372
-4.55014e-07
0.00409372
-4.5498e-07
0.00409372
-4.54934e-07
0.00409372
-4.54908e-07
0.00409372
-4.54934e-07
0.00409372
-4.55039e-07
0.00409372
-4.55262e-07
0.00409372
-4.55673e-07
0.00409372
-4.56411e-07
0.00409372
-4.57755e-07
0.00409372
-4.60215e-07
0.00409372
-4.64771e-07
0.00409371
-4.73194e-07
0.00409371
-4.89041e-07
0.00409371
-5.18357e-07
0.00409369
-5.74011e-07
0.00409367
-6.76775e-07
0.00409364
-8.65782e-07
0.00409356
-1.25106e-06
0.00409345
-1.73454e-06
-3.79258e-06
0.0066163
0.000325145
0.00674979
0.000316481
0.00678201
-4.41898e-05
0.00662688
-0.000696003
0.00625393
-0.00142104
0.00577759
-0.00183563
0.00533558
-0.00180993
0.00498809
-0.00153071
0.00474396
-0.00117574
0.00458262
-0.000844098
0.00447809
-0.000590653
0.00441051
-0.000410652
0.0043663
-0.000283505
0.00433596
-0.000194217
0.0043127
-0.00013231
0.00429229
-8.96547e-05
0.00427244
-6.14281e-05
0.00425119
-4.41816e-05
0.00422693
-3.46319e-05
0.0041993
-2.87472e-05
0.00416977
-2.20288e-05
0.00414145
-1.23988e-05
0.00411721
2.37736e-07
0.0040987
1.4325e-05
0.00408651
2.73278e-05
0.00407994
3.78249e-05
0.0040775
4.52343e-05
0.00407776
4.88808e-05
0.00408005
4.75312e-05
0.00408335
4.10895e-05
0.00408646
3.24223e-05
0.0040889
2.41623e-05
0.00409067
1.72113e-05
0.00409188
1.17647e-05
0.00409267
7.7228e-06
0.00409316
4.85503e-06
0.00409345
2.89813e-06
0.00409362
1.60818e-06
0.00409369
7.80976e-07
0.00409371
2.77226e-07
0.00409372
-3.71878e-08
0.00409372
-2.23821e-07
0.00409372
-3.31858e-07
0.00409372
-3.90893e-07
0.00409372
-4.22378e-07
0.00409372
-4.38769e-07
0.00409372
-4.47135e-07
0.00409372
-4.51276e-07
0.00409372
-4.53212e-07
0.00409372
-4.54068e-07
0.00409372
-4.54469e-07
0.00409372
-4.54657e-07
0.00409372
-4.54728e-07
0.00409372
-4.54746e-07
0.00409372
-4.54737e-07
0.00409372
-4.54706e-07
0.00409372
-4.54665e-07
0.00409372
-4.54632e-07
0.00409372
-4.54615e-07
0.00409372
-4.54607e-07
0.00409372
-4.54592e-07
0.00409372
-4.54572e-07
0.00409372
-4.54545e-07
0.00409372
-4.54506e-07
0.00409372
-4.54466e-07
0.00409372
-4.54455e-07
0.00409372
-4.54497e-07
0.00409372
-4.54575e-07
0.00409372
-4.54655e-07
0.00409372
-4.54714e-07
0.00409372
-4.54754e-07
0.00409371
-4.5478e-07
0.00409371
-4.54783e-07
0.00409371
-4.54739e-07
0.00409371
-4.54664e-07
0.00409371
-4.54629e-07
0.00409371
-4.54662e-07
0.00409371
-4.54713e-07
0.00409371
-4.54743e-07
0.00409371
-4.54735e-07
0.00409371
-4.54693e-07
0.00409371
-4.54639e-07
0.00409371
-4.54606e-07
0.00409371
-4.54624e-07
0.00409371
-4.54712e-07
0.00409371
-4.54904e-07
0.00409371
-4.5526e-07
0.00409371
-4.55897e-07
0.00409371
-4.57048e-07
0.00409371
-4.59138e-07
0.00409371
-4.62996e-07
0.0040937
-4.70099e-07
0.0040937
-4.83567e-07
0.00409369
-5.08338e-07
0.00409367
-5.56454e-07
0.00409364
-6.44097e-07
0.00409358
-8.10572e-07
0.00409348
-1.14874e-06
0.00409332
-1.56973e-06
-3.48231e-06
0.00660855
0.000223022
0.0067173
0.000207736
0.00673266
-5.95475e-05
0.00657703
-0.000540376
0.0062289
-0.00107291
0.00578117
-0.0013879
0.00535541
-0.00138417
0.00500981
-0.0011851
0.00475607
-0.000922001
0.00458255
-0.00067058
0.00446763
-0.000475733
0.00439175
-0.000334778
0.0043412
-0.000232952
0.00430622
-0.000159239
0.00427941
-0.000105493
0.00425633
-6.6576e-05
0.00423472
-3.9816e-05
0.00421237
-2.18348e-05
0.00418749
-9.74992e-06
0.00415997
-1.22664e-06
0.00413166
6.28e-06
0.00410565
1.36087e-05
0.00408429
2.16005e-05
0.00406897
2.96376e-05
0.00406
3.63032e-05
0.00405622
4.16008e-05
0.00405631
4.51467e-05
0.00405983
4.53637e-05
0.004066
4.13577e-05
0.00407279
3.4304e-05
0.00407868
2.65302e-05
0.0040833
1.95386e-05
0.00408673
1.3788e-05
0.00408914
9.34971e-06
0.00409078
6.08869e-06
0.00409184
3.78871e-06
0.00409252
2.22049e-06
0.00409294
1.18356e-06
0.00409321
5.10264e-07
0.00409338
1.12409e-07
0.00409347
-1.29196e-07
0.00409352
-2.70776e-07
0.00409354
-3.52597e-07
0.00409355
-3.99639e-07
0.00409355
-4.25531e-07
0.00409355
-4.39518e-07
0.00409355
-4.46893e-07
0.00409355
-4.50685e-07
0.00409355
-4.52566e-07
0.00409355
-4.5347e-07
0.00409355
-4.53956e-07
0.00409355
-4.54225e-07
0.00409355
-4.54356e-07
0.00409355
-4.54418e-07
0.00409355
-4.54441e-07
0.00409355
-4.54433e-07
0.00409355
-4.54405e-07
0.00409355
-4.54373e-07
0.00409355
-4.54352e-07
0.00409355
-4.54334e-07
0.00409355
-4.54312e-07
0.00409355
-4.5429e-07
0.00409355
-4.54263e-07
0.00409355
-4.54224e-07
0.00409355
-4.54187e-07
0.00409354
-4.54178e-07
0.00409354
-4.54218e-07
0.00409354
-4.54296e-07
0.00409354
-4.54376e-07
0.00409354
-4.54435e-07
0.00409354
-4.54473e-07
0.00409354
-4.54496e-07
0.00409354
-4.54492e-07
0.00409354
-4.54432e-07
0.00409354
-4.54341e-07
0.00409354
-4.54297e-07
0.00409354
-4.54334e-07
0.00409354
-4.54398e-07
0.00409354
-4.54437e-07
0.00409354
-4.54435e-07
0.00409354
-4.54402e-07
0.00409354
-4.54361e-07
0.00409354
-4.54337e-07
0.00409354
-4.54354e-07
0.00409354
-4.54428e-07
0.00409354
-4.54589e-07
0.00409354
-4.54886e-07
0.00409354
-4.5542e-07
0.00409354
-4.56382e-07
0.00409354
-4.58123e-07
0.00409353
-4.6133e-07
0.00409353
-4.67216e-07
0.00409353
-4.78389e-07
0.00409352
-4.9876e-07
0.0040935
-5.38702e-07
0.00409346
-6.09414e-07
0.0040934
-7.49117e-07
0.00409328
-1.02191e-06
0.00409307
-1.36799e-06
-3.11925e-06
0.00660297
0.000134597
0.0066935
0.000117205
0.00669669
-6.27436e-05
0.00653959
-0.000383271
0.00620517
-0.00073849
0.00577108
-0.000953812
0.00534567
-0.000958759
0.00499003
-0.000829451
0.00472184
-0.000653819
0.0045332
-0.000481935
0.00440332
-0.000345856
0.00431425
-0.000245706
0.00425329
-0.000171992
0.00421013
-0.000116075
0.00417673
-7.20953e-05
0.00414942
-3.92696e-05
0.00412678
-1.71691e-05
0.00410605
-1.11302e-06
0.00408546
1.08472e-05
0.00406582
1.84114e-05
0.00404839
2.37056e-05
0.00403412
2.78827e-05
0.0040239
3.18249e-05
0.00401809
3.54409e-05
0.00401628
3.81147e-05
0.00401848
3.94037e-05
0.00402509
3.85353e-05
0.00403541
3.50469e-05
0.00404722
2.9541e-05
0.0040582
2.3327e-05
0.00406728
1.74451e-05
0.00407436
1.24583e-05
0.00407962
8.53489e-06
0.00408335
5.61435e-06
0.00408591
3.53175e-06
0.0040876
2.09997e-06
0.00408868
1.14304e-06
0.00408934
5.24697e-07
0.00408972
1.22905e-07
0.00408995
-1.17031e-07
0.00409008
-2.60378e-07
0.00409016
-3.48886e-07
0.00409021
-3.98054e-07
0.00409023
-4.25011e-07
0.00409025
-4.39254e-07
0.00409025
-4.46668e-07
0.00409026
-4.50445e-07
0.00409026
-4.52325e-07
0.00409026
-4.53218e-07
0.00409026
-4.53613e-07
0.00409026
-4.53819e-07
0.00409026
-4.53951e-07
0.00409026
-4.54047e-07
0.00409026
-4.54118e-07
0.00409026
-4.54162e-07
0.00409026
-4.54169e-07
0.00409026
-4.5415e-07
0.00409026
-4.54119e-07
0.00409026
-4.54093e-07
0.00409026
-4.54072e-07
0.00409026
-4.54049e-07
0.00409026
-4.54031e-07
0.00409026
-4.54006e-07
0.00409026
-4.53966e-07
0.00409026
-4.53927e-07
0.00409025
-4.53913e-07
0.00409025
-4.53949e-07
0.00409025
-4.54026e-07
0.00409025
-4.54106e-07
0.00409025
-4.5416e-07
0.00409025
-4.54191e-07
0.00409025
-4.5421e-07
0.00409025
-4.54199e-07
0.00409025
-4.54116e-07
0.00409025
-4.53993e-07
0.00409025
-4.53935e-07
0.00409025
-4.53984e-07
0.00409025
-4.54069e-07
0.00409025
-4.54123e-07
0.00409025
-4.54133e-07
0.00409025
-4.54113e-07
0.00409025
-4.5409e-07
0.00409025
-4.54077e-07
0.00409025
-4.54091e-07
0.00409025
-4.54146e-07
0.00409025
-4.54262e-07
0.00409025
-4.54471e-07
0.00409025
-4.54844e-07
0.00409025
-4.55518e-07
0.00409025
-4.56729e-07
0.00409024
-4.58958e-07
0.00409024
-4.63023e-07
0.00409023
-4.70879e-07
0.00409022
-4.8486e-07
0.00409019
-5.14154e-07
0.00409015
-5.62393e-07
0.00409007
-6.69351e-07
0.00408991
-8.61696e-07
0.00408965
-1.11313e-06
-2.53951e-06
0.0066003
5.22555e-05
0.00667868
3.88271e-05
0.00666871
-5.278e-05
0.00650038
-0.000214939
0.00615644
-0.000394545
0.00570778
-0.000505155
0.00525967
-0.000510646
0.00487626
-0.000446047
0.00457716
-0.000354716
0.00435905
-0.000263827
0.00420362
-0.000190429
0.00409359
-0.000135668
0.00401766
-9.60636e-05
0.0039658
-6.42202e-05
0.00392864
-3.49336e-05
0.00390151
-1.21367e-05
0.0038834
9.33659e-07
0.00387322
9.07049e-06
0.00386913
1.49407e-05
0.00386908
1.84566e-05
0.00387219
2.06001e-05
0.00387809
2.19835e-05
0.00388649
2.34212e-05
0.00389753
2.44055e-05
0.00391165
2.39904e-05
0.00392899
2.2067e-05
0.00394845
1.90721e-05
0.00396788
1.56123e-05
0.00398534
1.20907e-05
0.00399988
8.7771e-06
0.00401134
5.99493e-06
0.00401993
3.86378e-06
0.00402613
2.33847e-06
0.00403043
1.30679e-06
0.00403333
6.39021e-07
0.0040352
2.30167e-07
0.00403636
-2.5081e-08
0.00403708
-1.91983e-07
0.00403751
-3.01497e-07
0.00403775
-3.65464e-07
0.00403789
-4.0158e-07
0.00403797
-4.24407e-07
0.00403801
-4.37674e-07
0.00403803
-4.45182e-07
0.00403804
-4.49266e-07
0.00403805
-4.51463e-07
0.00403805
-4.52613e-07
0.00403805
-4.53208e-07
0.00403805
-4.53492e-07
0.00403805
-4.53565e-07
0.00403805
-4.53576e-07
0.00403805
-4.53618e-07
0.00403805
-4.53686e-07
0.00403805
-4.53768e-07
0.00403805
-4.53839e-07
0.00403805
-4.53872e-07
0.00403805
-4.53872e-07
0.00403805
-4.53851e-07
0.00403805
-4.53833e-07
0.00403805
-4.53823e-07
0.00403805
-4.53807e-07
0.00403804
-4.53794e-07
0.00403804
-4.5378e-07
0.00403804
-4.5375e-07
0.00403804
-4.53712e-07
0.00403804
-4.53693e-07
0.00403804
-4.53712e-07
0.00403804
-4.53766e-07
0.00403804
-4.5383e-07
0.00403804
-4.53867e-07
0.00403804
-4.53887e-07
0.00403804
-4.53903e-07
0.00403804
-4.53893e-07
0.00403804
-4.53814e-07
0.00403804
-4.53706e-07
0.00403804
-4.53641e-07
0.00403804
-4.53658e-07
0.00403804
-4.53735e-07
0.00403804
-4.53817e-07
0.00403804
-4.53864e-07
0.00403804
-4.53862e-07
0.00403804
-4.53845e-07
0.00403804
-4.53841e-07
0.00403804
-4.53847e-07
0.00403804
-4.53876e-07
0.00403804
-4.53938e-07
0.00403804
-4.54043e-07
0.00403804
-4.54241e-07
0.00403804
-4.54607e-07
0.00403804
-4.55274e-07
0.00403803
-4.5651e-07
0.00403803
-4.58734e-07
0.00403802
-4.63144e-07
0.00403801
-4.70646e-07
0.00403798
-4.8758e-07
0.00403793
-5.12616e-07
0.00403784
-5.78066e-07
0.00403766
-6.82226e-07
0.00403728
-7.32081e-07
-1.9102e-06
0.00641718
0.00645639
0.00640401
0.00618946
0.00579531
0.00529056
0.00478032
0.0043347
0.00398041
0.00371703
0.00352704
0.00339183
0.00329622
0.00323245
0.00319798
0.0031863
0.00318769
0.00319722
0.00321262
0.00323153
0.00325259
0.00327503
0.00329891
0.00332377
0.00334821
0.00337074
0.00339026
0.00340633
0.00341888
0.00342811
0.00343456
0.00343887
0.00344166
0.00344343
0.00344452
0.0034452
0.00344563
0.00344589
0.00344604
0.00344613
0.00344618
0.00344621
0.00344623
0.00344624
0.00344624
0.00344624
0.00344624
0.00344624
0.00344624
0.00344624
0.00344624
0.00344624
0.00344624
0.00344624
0.00344624
0.00344624
0.00344624
0.00344624
0.00344624
0.00344624
0.00344624
0.00344624
0.00344624
0.00344624
0.00344624
0.00344624
0.00344624
0.00344624
0.00344624
0.00344624
0.00344624
0.00344624
0.00344624
0.00344624
0.00344624
0.00344624
0.00344624
0.00344624
0.00344624
0.00344624
0.00344624
0.00344624
0.00344624
0.00344624
0.00344624
0.00344624
0.00344624
0.00344623
0.00344623
0.00344623
0.00344623
0.00344622
0.00344621
0.0034462
0.00344616
0.0034461
0.00344598
0.00344575
0.00344547
-0.00202363
0.00107642
-0.00291977
0.000896147
-0.00340755
0.000487772
-0.00344126
3.3716e-05
-0.00308729
-0.00035397
-0.00233341
-0.000753882
-0.00124742
-0.00108599
-0.00124791
-0.00178512
0.00188247
-0.00224538
0.00135641
-0.00252298
0.000765368
-0.00257818
8.8919e-05
-0.00230979
-0.000622365
-0.00177792
-0.00128575
-0.00100097
-0.00186295
-0.00224934
-0.00104781
0.00246855
-0.0013424
0.00165099
-0.00144633
0.000869303
-0.00133096
-2.64546e-05
-0.00114264
-0.000810685
-0.000871889
-0.0015565
-0.000515089
-0.00221975
-0.00276486
0.000500581
0.0030814
6.2853e-05
0.00208872
-0.000188349
0.00112051
-0.000378926
0.000164122
-0.000449947
-0.000739664
-0.000406443
-0.0016
-0.000266456
-0.00235973
-0.00303174
0.00323473
0.00349227
0.00269517
0.00262829
0.00212707
0.00168861
0.00155767
0.000733516
0.00102333
-0.000205326
0.000616816
-0.00119348
0.000289039
-0.00203196
-0.00274312
0.00475621
0.00359843
0.00442097
0.00296352
0.00390052
0.00220906
0.00326085
0.00137319
0.00256204
0.000493476
0.00176257
-0.000394009
0.000923916
-0.0011933
-0.00181964
0.00477615
0.00354271
0.00460712
0.00313256
0.00423357
0.0025826
0.00367245
0.00193431
0.00294216
0.00122377
0.00206327
0.000484871
0.00106994
-0.000199965
-0.000750165
0.00387101
0.00341289
0.00381083
0.00319274
0.00355386
0.00283957
0.00311409
0.00237409
0.00251619
0.00182167
0.0017781
0.00122297
0.000910591
0.000667539
0.000159926
0.00265941
0.00331378
0.00265226
0.00319988
0.00250561
0.00298622
0.0022189
0.0026608
0.00180893
0.00223164
0.00129141
0.00174049
0.000679719
0.00127923
0.000839142
0.00170682
0.0032634
0.00170574
0.00320097
0.00162404
0.00306792
0.00145145
0.00283339
0.0011918
0.00249129
0.000849672
0.00208262
0.000436031
0.00169287
0.00127468
0.00108711
0.00324067
0.00108359
0.00320448
0.00103589
0.00311562
0.000934546
0.00293474
0.000775952
0.00264988
0.00055564
0.00230293
0.000284481
0.00196403
0.00155869
0.000706663
0.00322987
0.00070297
0.00320817
0.000674483
0.00314411
0.000614491
0.00299473
0.000515903
0.00274847
0.000370969
0.00244786
0.00018935
0.00214564
0.00174756
0.000474328
0.0032228
0.000473104
0.0032094
0.000457235
0.00315998
0.000420906
0.00303106
0.000356316
0.00281306
0.000256848
0.00254733
0.000130044
0.00227245
0.00187713
0.000332504
0.0032159
0.000334771
0.00320713
0.000327959
0.00316679
0.000305709
0.00305331
0.00026083
0.00285794
0.000188187
0.00261997
9.39411e-05
0.00236669
0.00197061
0.000249196
0.00320766
0.000254675
0.00320165
0.000253836
0.00316763
0.000240148
0.003067
0.000206198
0.00289189
0.000148528
0.00267764
7.31364e-05
0.00244208
0.00204328
0.000201686
0.00319711
0.000210642
0.00319269
0.000213786
0.00316448
0.000204768
0.00307601
0.000176082
0.00292058
0.000126427
0.0027273
6.19042e-05
0.00250661
0.00210472
0.000175266
0.00318478
0.000186846
0.00318111
0.000192633
0.0031587
0.000185249
0.0030834
0.000158549
0.00294728
0.000113348
0.0027725
5.56135e-05
0.00256434
0.00215987
0.000163117
0.00317247
0.000174667
0.00316956
0.000180663
0.0031527
0.000172753
0.00309131
0.000146261
0.00297377
0.000103872
0.00281489
5.10571e-05
0.00261716
0.00221046
0.00015795
0.00316214
0.00016696
0.00316055
0.00017083
0.00314883
0.000161134
0.003101
0.000134469
0.00300043
9.46479e-05
0.00285471
4.61889e-05
0.00266562
0.00225619
0.000153271
0.00315478
0.000158726
0.0031551
0.00015908
0.00314848
0.000146811
0.00311327
0.000120842
0.0030264
8.42043e-05
0.00289135
4.00668e-05
0.00270975
0.0022958
0.000144207
0.00315023
0.000146056
0.00315325
0.000142238
0.0031523
0.000128585
0.00312693
0.000105228