/*--------------------------------*- C++ -*----------------------------------*\
| =========                 |                                                 |
| \\      /  F ield         | OpenFOAM: The Open Source CFD Toolbox           |
|  \\    /   O peration     | Version:  v2012                                 |
|   \\  /    A nd           | Website:  www.openfoam.com                      |
|    \\/     M anipulation  |                                                 |
\*---------------------------------------------------------------------------*/
FoamFile
{
    version     2.0;
    format      ascii;
    class       Cloud<basicKinematicParcel>;
    location    "0.073/lagrangian/kinematicCloud";
    object      coordinates;
}
// * * * * * * * * * * * * * * * * * * * * * * * * * * * * * * * * * * * * * //

54
(
(0.106907 0.0260317 0.420515 0.446546) 348 497 2
(0.320325 0.27067 0.0691671 0.339837) 848 1696 1
(0.580123 0.209938 0.000954954 0.208983) 1148 2097 1
(0.127636 0.388733 0.436182 0.0474494) 547 1095 2
(0.312147 0.033686 0.31024 0.343926) 1446 2693 2
(0.342854 0.328573 0.0432969 0.285276) 1146 2290 2
(0.0126418 0.47264 0.493679 0.0210388) 38 74 1
(0.513789 0.243106 0.157635 0.0854711) 1644 3089 1
(0.115033 0.223951 0.218533 0.442484) 1643 3087 2
(0.670206 0.164897 0.0348263 0.130071) 743 1484 2
(0.284292 0.357854 0.331587 0.0262671) 843 1687 1
(0.107775 0.446113 0.381785 0.0643274) 542 885 1
(0.0183193 0.196296 0.49084 0.294544) 1839 3676 1
(0.266163 0.366918 0.199071 0.167847) 138 77 1
(0.855761 0.0721193 0.0453481 0.0267712) 1838 3477 1
(0.77687 0.0847349 0.111565 0.0268301) 939 1879 2
(0.229002 0.385499 0.354438 0.0310615) 338 477 1
(0.0609132 0.469543 0.449179 0.0203647) 1737 3475 1
(0.703956 0.148022 0.117607 0.0304146) 537 1072 2
(0.146998 0.426501 0.0898574 0.336644) 1637 3075 1
(0.45612 0.180975 0.0909649 0.27194) 1336 2473 2
(0.536027 0.225132 0.231987 0.00685475) 1735 3468 1
(0.191336 0.33125 0.404332 0.0730818) 1335 2668 1
(0.454591 0.272705 0.0831324 0.189572) 434 866 2
(0.301822 0.349089 0.260327 0.0887624) 834 1666 2
(0.572004 0.213998 0.181689 0.0323092) 1333 2467 1
(0.816141 0.0257369 0.0661929 0.0919297) 332 664 1
(0.45705 0.0427975 0.271475 0.228678) 1432 2865 2
(0.268014 0.295503 0.365993 0.0704899) 131 260 1
(0.102886 0.448557 0.167497 0.28106) 1531 3062 2
(0.0968865 0.451557 0.0161902 0.435367) 21 42 2
(0.220303 0.389848 0.149661 0.240188) 230 458 2
(0.28364 0.268417 0.0897626 0.35818) 1927 3655 2
(0.0659611 0.382176 0.0848438 0.467019) 1028 2056 1
(0.189783 0.0073636 0.405108 0.397745) 528 1057 2
(0.299516 0.350242 0.13004 0.220202) 1228 2457 1
(0.434145 0.182196 0.100732 0.282927) 727 1255 2
(0.0779265 0.461037 0.305053 0.155984) 827 1652 2
(0.140196 0.429902 0.218016 0.211887) 1226 2453 1
(0.373199 0.00195314 0.313401 0.311448) 24 46 1
(0.0736646 0.261844 0.463168 0.201324) 625 1248 1
(0.511657 0.230079 0.244171 0.0140926) 1224 2446 1
(0.531014 0.203887 0.234493 0.0306062) 523 1047 2
(0.0725911 0.463704 0.00264078 0.461064) 522 1044 2
(0.00617447 0.496913 0.235636 0.261276) 722 1245 1
(0.18294 0.357806 0.40853 0.0507236) 1121 2243 2
(0.363594 0.318203 0.0824514 0.235752) 1520 3040 2
(0.353032 0.314385 0.323484 0.00909852) 920 1838 1
(0.148334 0.425833 0.355628 0.070205) 819 1439 1
(0.144399 0.160539 0.267262 0.4278) 1418 2637 2
(0.0668226 0.466589 0.461017 0.00557201) 318 634 2
(0.18126 0.40937 0.0718623 0.337508) 717 1435 1
(0.301134 0.0970645 0.252369 0.349433) 1616 3033 2
(0.167013 0.118743 0.297751 0.416494) 115 230 1
)


// ************************************************************************* //
