/*--------------------------------*- C++ -*----------------------------------*\
| =========                 |                                                 |
| \\      /  F ield         | OpenFOAM: The Open Source CFD Toolbox           |
|  \\    /   O peration     | Version:  v2012                                 |
|   \\  /    A nd           | Website:  www.openfoam.com                      |
|    \\/     M anipulation  |                                                 |
\*---------------------------------------------------------------------------*/
FoamFile
{
    version     2.0;
    format      ascii;
    class       Cloud<basicKinematicParcel>;
    location    "0.073/lagrangian/kinematicCloud";
    object      positions;
}
// * * * * * * * * * * * * * * * * * * * * * * * * * * * * * * * * * * * * * //

76
(
(0.245437 0.00358008 0.03) 219
(0.266518 0.0113224 0.03) 521
(0.261291 0.016404 0.03) 720
(0.24584 0.00778706 0.03) 319
(0.246317 0.0214427 0.03) 919
(0.240061 0.0184714 0.03) 718
(0.134926 0.00316394 0.03) 207
(0.226062 0.0229191 0.03) 917
(0.218364 0.0238572 0.03) 916
(0.21101 0.0114432 0.03) 515
(0.209086 0.0108111 0.03) 515
(0.196475 0.00775559 0.03) 313
(0.0206941 0.0265748 0.03) 93
(0.0191977 5.95922e-05 0.03) 2
(0.0943142 0.0256008 0.03) 1002
(0.175496 0.0141656 0.03) 611
(0.15474 0.00455097 0.03) 209
(0.157567 0.0246392 0.03) 1009
(0.149555 0.00684447 0.03) 308
(0.155489 0.0225347 0.03) 909
(0.148749 0.0203029 0.03) 808
(0.0563906 0.0258401 0.03) 98
(0.135999 0.0210284 0.03) 807
(0.124355 0.00488886 0.03) 206
(0.127399 0.0100869 0.03) 406
(0.122956 0.02086 0.03) 806
(0.114248 0.00494394 0.03) 205
(0.117483 0.0220203 0.03) 905
(0.063082 0.00115647 0.03) 9
(0.111709 0.0233264 0.03) 904
(0.0154085 0.00017212 0.03) 2
(0.0912171 0.0023312 0.03) 102
(0.0366384 0.0259296 0.03) 95
(0.0911824 0.0152123 0.03) 602
(0.0902364 0.00614208 0.03) 302
(0.0875899 0.0185753 0.03) 702
(0.0826919 0.0103936 0.03) 401
(0.0795065 0.0103716 0.03) 401
(0.0753197 0.0186837 0.03) 700
(0.0244772 0.000635069 0.03) 3
(0.0685146 0.00717501 0.03) 300
(0.0643807 0.0175096 0.03) 69
(0.0605823 0.00351691 0.03) 19
(0.0580074 0.00533125 0.03) 18
(0.0544569 0.00796728 0.03) 28
(0.0512578 0.016225 0.03) 67
(0.0478633 0.0222209 0.03) 87
(0.045144 0.0120467 0.03) 46
(0.0418207 0.0105177 0.03) 36
(0.03916 0.0210723 0.03) 75
(0.0362662 0.00264439 0.03) 5
(0.0340277 0.00828363 0.03) 35
(0.0315895 0.023498 0.03) 84
(0.0126957 0.000694971 0.03) 1
(0.0261732 0.017931 0.03) 63
(0.0246768 0.01814 0.03) 63
(0.0225558 0.0241201 0.03) 93
(0.0202719 0.0133613 0.03) 53
(0.0177692 0.0105345 0.03) 32
(0.0167983 0.0135568 0.03) 52
(0.0151847 0.023034 0.03) 82
(0.0129241 0.0145239 0.03) 51
(0.0113928 0.0148775 0.03) 51
(0.0100047 0.0219004 0.03) 81
(0.00722917 0.0250367 0.03) 91
(0.00705058 0.0160365 0.03) 61
(0.00609548 0.00681832 0.03) 20
(0.00414608 0.00166571 0.03) 0
(0.00397481 0.00940364 0.03) 30
(0.00392375 0.0131922 0.03) 40
(0.00350818 0.0190823 0.03) 70
(0.00274698 0.0166479 0.03) 60
(0.00197377 0.00299933 0.03) 10
(0.00145526 0.0212685 0.03) 70
(0.00164568 0.0243024 0.03) 90
(0.00107651 0.0260266 0.03) 90
)


// ************************************************************************* //
