/*--------------------------------*- C++ -*----------------------------------*\
| =========                 |                                                 |
| \\      /  F ield         | OpenFOAM: The Open Source CFD Toolbox           |
|  \\    /   O peration     | Version:  v2012                                 |
|   \\  /    A nd           | Website:  www.openfoam.com                      |
|    \\/     M anipulation  |                                                 |
\*---------------------------------------------------------------------------*/
FoamFile
{
    version     2.0;
    format      ascii;
    class       vectorField;
    location    "0.073/lagrangian/kinematicCloud";
    object      U;
}
// * * * * * * * * * * * * * * * * * * * * * * * * * * * * * * * * * * * * * //


54
(
(15.709 0.0100292 0)
(17.3901 0.00507691 0)
(17.3369 -0.00673867 0)
(16.9409 0.0119296 0)
(16.8512 -0.0140817 0)
(17.1573 -0.00741187 0)
(11.0345 0.00132781 0)
(15.8593 -0.0137377 0)
(15.9278 -0.0142137 0)
(16.8824 0.0092183 0)
(16.9023 0.00387867 0)
(16.373 0.0134148 0)
(13.2954 -0.00732593 0)
(13.2503 0.00617874 0)
(13.9096 -0.0083302 0)
(16.5602 0.000614469 0)
(15.2708 0.0121447 0)
(14.3612 -0.0105663 0)
(16.1376 0.0142123 0)
(15.6011 -0.0156604 0)
(16.2437 -0.0134872 0)
(14.6742 -0.0131761 0)
(16.0814 -0.0143173 0)
(15.6625 0.0148848 0)
(16.0258 0.00608307 0)
(15.9427 -0.0133331 0)
(15.2347 0.0145973 0)
(15.7339 -0.0165569 0)
(13.6916 0.00986315 0)
(15.5814 -0.017032 0)
(5.77543 0.000200827 0)
(14.4113 0.012095 0)
(12.1155 -0.00772603 0)
(15.4484 -0.00327715 0)
(15.4298 0.013157 0)
(15.3724 -0.011288 0)
(15.2881 0.00911712 0)
(15.2073 0.00583575 0)
(15.1237 -0.0112046 0)
(12.1657 0.00548399 0)
(14.9538 0.0103825 0)
(14.8637 -0.00964655 0)
(14.7708 0.0127649 0)
(14.6703 0.014182 0)
(14.5914 0.00904587 0)
(14.4965 -0.00728971 0)
(14.3868 -0.0159679 0)
(14.3017 0.000933054 0)
(14.2024 0.0055208 0)
(14.1057 -0.0126344 0)
(13.842 0.0153406 0)
(13.8958 0.00576909 0)
(13.7641 -0.0160437 0)
(13.1451 0.0137757 0)
)


// ************************************************************************* //
