/*--------------------------------*- C++ -*----------------------------------*\
| =========                 |                                                 |
| \\      /  F ield         | OpenFOAM: The Open Source CFD Toolbox           |
|  \\    /   O peration     | Version:  v2012                                 |
|   \\  /    A nd           | Website:  www.openfoam.com                      |
|    \\/     M anipulation  |                                                 |
\*---------------------------------------------------------------------------*/
FoamFile
{
    version     2.0;
    format      ascii;
    class       vectorField;
    location    "0.073/lagrangian/kinematicCloud";
    object      U;
}
// * * * * * * * * * * * * * * * * * * * * * * * * * * * * * * * * * * * * * //


54
(
(9.7521 -0.000188271 0)
(10.1871 -0.000613595 0)
(10.1953 -0.000669183 0)
(10.1801 0.000294584 0)
(10.1755 -0.00148403 0)
(10.2126 -0.00107109 0)
(7.12861 -0.000998641 0)
(9.91658 -0.00311974 0)
(9.96284 -0.00365018 0)
(10.2269 0.00157428 0)
(10.2277 0.000403163 0)
(10.1498 0.00335913 0)
(8.76601 -0.00305201 0)
(8.80556 0.00197604 0)
(9.14645 -0.00276919 0)
(10.2382 -1.08071e-05 0)
(9.86672 0.00444987 0)
(9.47928 -0.00405277 0)
(10.203 0.00539077 0)
(10.0335 -0.00641927 0)
(10.2392 -0.00540278 0)
(9.7133 -0.00590928 0)
(10.2386 -0.00577317 0)
(10.1564 0.00576227 0)
(10.2437 0.00206658 0)
(10.2436 -0.00533586 0)
(10.0683 0.0058568 0)
(10.2168 -0.00666568 0)
(9.45573 0.00460116 0)
(10.1981 -0.00691378 0)
(4.96047 -0.000295918 0)
(9.84795 0.00438507 0)
(8.73409 -0.00483061 0)
(10.2544 -0.00147622 0)
(10.2515 0.00465932 0)
(10.2582 -0.00444039 0)
(10.259 0.00312985 0)
(10.2618 0.00191071 0)
(10.2645 -0.00435424 0)
(9.03242 0.00113639 0)
(10.2699 0.00354981 0)
(10.2722 -0.00374111 0)
(10.2732 0.00440632 0)
(10.2727 0.00483303 0)
(10.2812 0.00302665 0)
(10.2843 -0.00282126 0)
(10.2809 -0.00590369 0)
(10.2906 0.000133185 0)
(10.2944 0.00175639 0)
(10.2999 -0.00463049 0)
(10.2487 0.00501248 0)
(10.3074 0.00182668 0)
(10.2994 -0.00565196 0)
(10.1327 0.00535217 0)
)


// ************************************************************************* //
