/*--------------------------------*- C++ -*----------------------------------*\
| =========                 |                                                 |
| \\      /  F ield         | OpenFOAM: The Open Source CFD Toolbox           |
|  \\    /   O peration     | Version:  v2012                                 |
|   \\  /    A nd           | Website:  www.openfoam.com                      |
|    \\/     M anipulation  |                                                 |
\*---------------------------------------------------------------------------*/
FoamFile
{
    version     2.0;
    format      ascii;
    class       vectorField;
    location    "0.073/lagrangian/kinematicCloud";
    object      UCorrect;
}
// * * * * * * * * * * * * * * * * * * * * * * * * * * * * * * * * * * * * * //


54
(
(0 0 0)
(-1.69811e-29 6.64782e-31 0)
(0 0 0)
(9.33948e-34 6.60566e-36 0)
(0 0 0)
(0 0 0)
(0 0 0)
(0 0 0)
(1.84745e-27 -5.88316e-30 0)
(0 0 0)
(1.487e-29 1.24078e-30 0)
(0 0 0)
(0 0 0)
(0 0 0)
(-1.05872e-10 -8.12311e-14 0)
(0 0 0)
(2.45132e-27 7.89249e-30 0)
(0 0 0)
(0 0 0)
(1.94295e-27 -5.58339e-30 0)
(1.59697e-28 4.3893e-30 0)
(3.5593e-27 -5.23368e-30 0)
(2.49797e-28 5.7807e-30 0)
(0 0 0)
(0 0 0)
(1.97876e-28 6.90689e-30 0)
(2.05763e-27 2.0785e-30 0)
(3.12644e-31 3.08134e-33 0)
(5.46044e-27 1.15139e-29 0)
(4.891e-31 2.46689e-33 0)
(8.93651e-27 1.09342e-30 0)
(0 0 0)
(3.73777e-30 -2.63922e-33 0)
(1.92246e-28 1.93247e-30 0)
(0 0 0)
(0 0 0)
(0 0 0)
(0 0 0)
(3.07304e-28 7.39688e-30 0)
(0 0 0)
(0 0 0)
(0 0 0)
(0 0 0)
(0 0 0)
(0 0 0)
(0 0 0)
(0 0 0)
(3.91385e-28 8.56148e-32 0)
(0 0 0)
(0 0 0)
(0 0 0)
(0 0 0)
(0 0 0)
(0 0 0)
)


// ************************************************************************* //
