/*--------------------------------*- C++ -*----------------------------------*\
| =========                 |                                                 |
| \\      /  F ield         | OpenFOAM: The Open Source CFD Toolbox           |
|  \\    /   O peration     | Version:  v2012                                 |
|   \\  /    A nd           | Website:  www.openfoam.com                      |
|    \\/     M anipulation  |                                                 |
\*---------------------------------------------------------------------------*/
FoamFile
{
    version     2.0;
    format      ascii;
    class       scalarField;
    location    "0.021/lagrangian/kinematicCloud";
    object      age;
}
// * * * * * * * * * * * * * * * * * * * * * * * * * * * * * * * * * * * * * //


21
(
0.0202
0.0192
0.0181
0.017
0.016
0.015
0.014
0.013
0.0119
0.0108
0.010725
0.0097
0.0086
0.0075
0.0064
0.0053
0.0042
0.0031
0.002
0.001925
0.0009
)


// ************************************************************************* //
