/*--------------------------------*- C++ -*----------------------------------*\
| =========                 |                                                 |
| \\      /  F ield         | OpenFOAM: The Open Source CFD Toolbox           |
|  \\    /   O peration     | Version:  v2012                                 |
|   \\  /    A nd           | Website:  www.openfoam.com                      |
|    \\/     M anipulation  |                                                 |
\*---------------------------------------------------------------------------*/
FoamFile
{
    version     2.0;
    format      ascii;
    class       vectorField;
    location    "0.021/lagrangian/kinematicCloud";
    object      U;
}
// * * * * * * * * * * * * * * * * * * * * * * * * * * * * * * * * * * * * * //


21
(
(2.11801 0.000143367 0)
(2.0186 0.00021886 0)
(1.90953 7.6411e-05 0)
(1.79853 0.000140296 0)
(1.69711 -6.19904e-05 0)
(1.5954 -1.6149e-05 0)
(0.999421 3.91176e-05 0)
(1.38965 -0.000102236 0)
(1.27524 -8.96171e-05 0)
(1.16119 7.30586e-05 0)
(1.15321 4.74515e-05 0)
(1.04649 4.91391e-05 0)
(0.219887 -3.51272e-06 0)
(0.196942 1.02072e-06 0)
(0.465635 -2.52454e-05 0)
(0.578554 2.73824e-05 0)
(0.459943 1.42264e-05 0)
(0.340375 -1.53853e-05 0)
(0.220201 1.9377e-05 0)
(0.212098 -2.08865e-05 0)
(0.0994384 -6.19825e-06 0)
)


// ************************************************************************* //
