/*--------------------------------*- C++ -*----------------------------------*\
| =========                 |                                                 |
| \\      /  F ield         | OpenFOAM: The Open Source CFD Toolbox           |
|  \\    /   O peration     | Version:  v2012                                 |
|   \\  /    A nd           | Website:  www.openfoam.com                      |
|    \\/     M anipulation  |                                                 |
\*---------------------------------------------------------------------------*/
FoamFile
{
    version     2.0;
    format      ascii;
    class       volScalarField;
    location    "0.351";
    object      nut.air;
}
// * * * * * * * * * * * * * * * * * * * * * * * * * * * * * * * * * * * * * //

dimensions      [0 2 -1 0 0 0 0];


internalField   nonuniform List<scalar> 
5600
(
2.45137e-05
3.47343e-05
4.04099e-05
4.24622e-05
4.22723e-05
4.09699e-05
3.92094e-05
3.75386e-05
3.61135e-05
3.49465e-05
3.40611e-05
3.34371e-05
3.30371e-05
3.28048e-05
3.26958e-05
3.26597e-05
3.26714e-05
3.2698e-05
3.27371e-05
3.27663e-05
3.28012e-05
3.28209e-05
3.28513e-05
3.28751e-05
3.29122e-05
3.29409e-05
3.298e-05
3.30113e-05
3.30505e-05
3.30788e-05
3.31119e-05
3.31318e-05
3.31556e-05
3.3166e-05
3.31822e-05
3.31859e-05
3.3197e-05
3.31964e-05
3.32045e-05
3.32013e-05
3.3208e-05
3.32039e-05
3.32107e-05
3.32064e-05
3.32142e-05
3.32106e-05
3.32198e-05
3.32168e-05
3.32272e-05
3.3224e-05
3.32355e-05
3.32323e-05
3.32444e-05
3.32414e-05
3.3255e-05
3.3252e-05
3.32672e-05
3.32646e-05
3.32816e-05
3.32796e-05
3.32988e-05
3.32967e-05
3.33182e-05
3.33158e-05
3.33395e-05
3.33365e-05
3.33628e-05
3.33591e-05
3.33881e-05
3.33833e-05
3.34153e-05
3.3409e-05
3.34444e-05
3.34363e-05
3.34754e-05
3.34653e-05
3.35082e-05
3.3496e-05
3.35422e-05
3.35284e-05
3.35768e-05
3.35628e-05
3.36106e-05
3.36003e-05
3.36414e-05
3.36436e-05
3.36648e-05
3.3699e-05
3.3671e-05
3.37817e-05
3.364e-05
3.39263e-05
3.35128e-05
3.42325e-05
3.31012e-05
3.5035e-05
3.17309e-05
3.75753e-05
2.64763e-05
4.70006e-05
0.000151655
0.00013741
0.000112244
9.86282e-05
9.38992e-05
9.49508e-05
0.000102099
0.000110118
0.000116485
0.000124313
0.000132732
0.000141231
0.000149477
0.000157248
0.000164432
0.000170934
0.000176813
0.000182054
0.000186793
0.000191042
0.00019501
0.000198592
0.000202118
0.000205339
0.000208509
0.00021131
0.000214078
0.000216511
0.000218891
0.00022089
0.000222823
0.000224385
0.000225926
0.00022715
0.000228416
0.000229394
0.000230458
0.000231251
0.000232167
0.000232822
0.000233635
0.000234191
0.000234933
0.000235413
0.000236126
0.000236567
0.000237248
0.000237636
0.000238277
0.000238605
0.000239217
0.000239487
0.000240079
0.000240311
0.000240887
0.000241081
0.000241664
0.000241824
0.000242417
0.000242555
0.000243155
0.000243255
0.000243876
0.000243936
0.00024458
0.000244599
0.00024527
0.000245246
0.000245949
0.000245871
0.000246624
0.000246488
0.000247296
0.000247094
0.000247966
0.000247693
0.000248634
0.000248288
0.000249296
0.000248879
0.00024994
0.00024947
0.000250546
0.000250076
0.000251083
0.00025074
0.000251491
0.000251554
0.00025165
0.00025275
0.000251289
0.000254692
0.000249811
0.000258251
0.000245744
0.000265736
0.00023536
0.000282712
0.000209799
0.00028822
0.000156518
0.00015156
0.000143044
0.000135159
0.000125255
0.000120724
0.000113773
0.000109699
0.000108718
0.000109798
0.000112693
0.00011742
0.000123689
0.00013136
0.000140262
0.000150357
0.000161498
0.000173777
0.000187125
0.000201698
0.000217069
0.000232803
0.00024617
0.000258351
0.000270147
0.000281002
0.000290615
0.000298315
0.000305527
0.000311689
0.000317727
0.000322969
0.000328302
0.000332833
0.000337504
0.000341388
0.000345493
0.000348843
0.000352499
0.000355427
0.000358736
0.000361327
0.000364365
0.000366683
0.000369498
0.000371535
0.000374113
0.00037589
0.000378274
0.000379832
0.000382065
0.00038344
0.000385566
0.000386787
0.000388837
0.00038992
0.00039192
0.000392871
0.000394837
0.000395663
0.000397608
0.000398305
0.000400247
0.000400811
0.000402767
0.000403195
0.000405182
0.000405472
0.000407513
0.00040766
0.000409776
0.000409766
0.000411985
0.000411794
0.000414145
0.000413741
0.000416257
0.000415601
0.00041831
0.000417365
0.000420306
0.000419028
0.000422251
0.000420595
0.000424164
0.000422067
0.000426072
0.000423434
0.000428018
0.000424654
0.000430106
0.000425585
0.000432586
0.00042589
0.000436115
0.000424833
0.000442209
0.000421336
0.000431741
0.000409229
0.00015782
0.00015399
0.000150101
0.000146746
0.000142721
0.000139187
0.000135629
0.000131421
0.000128287
0.000124805
0.000123098
0.000119896
0.000117484
0.00011564
0.000115608
0.000116673
0.000119884
0.000124563
0.000131366
0.0001397
0.000150248
0.000162275
0.000176366
0.000191121
0.000207229
0.000223405
0.000238992
0.000252579
0.000266719
0.000279634
0.000293135
0.000305201
0.000317792
0.000329045
0.00034071
0.000351047
0.000361825
0.000371313
0.000381296
0.000389948
0.000399111
0.000406848
0.000415359
0.000422013
0.00042866
0.000433757
0.00043981
0.000444314
0.000449913
0.000453928
0.000459172
0.000462772
0.00046774
0.000470978
0.000475725
0.000478635
0.000483214
0.000485823
0.000490272
0.000492595
0.000496945
0.000498986
0.000503271
0.000505032
0.000509284
0.000510767
0.000515022
0.000516223
0.000520525
0.000521431
0.000525821
0.000526412
0.000530934
0.00053117
0.000535877
0.000535706
0.000540674
0.000540001
0.000545294
0.00054403
0.000549766
0.000547795
0.000554138
0.000551293
0.000558466
0.000554506
0.000562834
0.000557378
0.000567349
0.000559822
0.000572159
0.000561722
0.000577419
0.000563066
0.000583106
0.000564235
0.000588493
0.000566615
0.000591898
0.000571791
0.00015812
0.000154599
0.000151655
0.000149047
0.000146777
0.000144435
0.000142542
0.000140272
0.000138565
0.00013634
0.000134866
0.000132733
0.000131158
0.000128894
0.000127414
0.000125343
0.000124323
0.000121666
0.000121109
0.000119629
0.000120914
0.000121773
0.000125819
0.000129861
0.000137194
0.000144573
0.000155146
0.000165618
0.000178873
0.00019187
0.000207207
0.000222008
0.000235666
0.000247556
0.000261115
0.000273004
0.000286524
0.00029828
0.00031171
0.000323291
0.000336536
0.000347854
0.00036089
0.000371804
0.00038429
0.00039447
0.000406254
0.000415672
0.000426839
0.000435562
0.000446214
0.000454286
0.000464462
0.000471901
0.000481779
0.000488654
0.000498181
0.000504499
0.00051373
0.000519482
0.00052847
0.000533647
0.000542435
0.000547028
0.000555652
0.00055968
0.000568211
0.000571681
0.000580185
0.000583122
0.000591687
0.00059411
0.00060274
0.00060464
0.000613387
0.000614656
0.00062278
0.00062287
0.000631336
0.000630611
0.000639582
0.000637915
0.000647585
0.000644803
0.000655397
0.000651297
0.000663067
0.000657404
0.000670617
0.000663194
0.000677974
0.000668865
0.000684851
0.000674885
0.000690515
0.000682042
0.000694412
0.000691075
0.000696394
0.000700599
0.000158191
0.000154771
0.00015206
0.000149654
0.00014775
0.0001458
0.000144371
0.000142618
0.000141522
0.00013982
0.000139006
0.000137272
0.000136745
0.000134883
0.000134649
0.000132593
0.0001327
0.000130307
0.000130613
0.000127923
0.000128538
0.000125735
0.000126865
0.000123993
0.000125378
0.000123042
0.000125517
0.000124616
0.000128852
0.000130126
0.000136655
0.000140581
0.000149641
0.000156044
0.000167245
0.00017581
0.000188911
0.000199299
0.000214056
0.00022595
0.000242106
0.000251824
0.000264421
0.00027413
0.000287134
0.000297098
0.000310329
0.000320339
0.000333663
0.000343601
0.00035697
0.000366771
0.00038014
0.000389769
0.000403226
0.000412603
0.000425879
0.000434782
0.000447836
0.000456144
0.000468974
0.000476693
0.000489348
0.000496476
0.000508988
0.000515571
0.000527969
0.000534024
0.000546485
0.000552181
0.000564702
0.000569824
0.000582317
0.00058685
0.000599335
0.000603251
0.000615731
0.000618963
0.000631424
0.00063393
0.000646326
0.000648229
0.000660494
0.000661983
0.00067394
0.000675292
0.000686664
0.000688286
0.000698581
0.000701101
0.000709578
0.000713781
0.000719942
0.000726171
0.000730002
0.000737469
0.000740981
0.000746742
0.000755273
0.000761718
0.000158212
0.000154827
0.000152181
0.000149838
0.000148036
0.000146181
0.000144908
0.000143277
0.000142396
0.000140833
0.000140292
0.000138686
0.000138474
0.000136749
0.000136862
0.000134964
0.000135414
0.000133293
0.000134097
0.000131696
0.000132881
0.000130158
0.000131765
0.000128673
0.000130685
0.00012719
0.000129674
0.000125828
0.00012886
0.00012483
0.000128419
0.000124205
0.000128383
0.000124612
0.000129678
0.000126911
0.000133162
0.000131931
0.000139633
0.000140373
0.000149737
0.000152651
0.000163584
0.000168365
0.000180761
0.000187243
0.000200992
0.000208947
0.000223899
0.000233077
0.000249072
0.00025922
0.000275431
0.000282418
0.000295165
0.000302522
0.000315669
0.000323206
0.000336643
0.000344285
0.000357966
0.000365639
0.000379505
0.000387161
0.000401193
0.000408788
0.000422964
0.000430423
0.000444844
0.000452242
0.000466791
0.000473938
0.000488454
0.000495246
0.000509648
0.000516068
0.000530314
0.000536462
0.00055048
0.000556398
0.000570064
0.00057587
0.000589096
0.000594933
0.000607587
0.000613714
0.000625387
0.000632144
0.000642561
0.000650188
0.000659179
0.000667834
0.000675479
0.000684744
0.000691704
0.000700715
0.000708312
0.000716685
0.000726359
0.000738988
0.000158217
0.00015485
0.000152221
0.000149907
0.000148127
0.000146318
0.000145068
0.00014351
0.000142649
0.000141188
0.000140663
0.000139193
0.000138981
0.000137437
0.000137519
0.000135854
0.000136233
0.000134395
0.000135095
0.000133031
0.000134075
0.000131744
0.000133157
0.000130519
0.000132332
0.000129341
0.000131593
0.000128207
0.000130935
0.00012714
0.000130358
0.000126133
0.000129852
0.000125195
0.000129474
0.000124388
0.000129278
0.000123856
0.000129365
0.000123659
0.00012967
0.000124006
0.000130642
0.000125389
0.000132737
0.000128299
0.000136476
0.000133241
0.000142365
0.000140654
0.00015086
0.000150853
0.000162208
0.000163969
0.000176318
0.000179581
0.000192885
0.000197558
0.000211776
0.000217734
0.000232782
0.000239879
0.000255652
0.000263727
0.000280109
0.00028898
0.000305866
0.000312466
0.0003252
0.000330788
0.000343554
0.00034956
0.000362492
0.000368967
0.000381903
0.000388915
0.000401769
0.000409191
0.000421908
0.000429826
0.00044231
0.000450754
0.000462903
0.00047194
0.000483648
0.000493359
0.000504548
0.000514942
0.000525636
0.000536666
0.000547022
0.000558552
0.000568607
0.000580628
0.000590514
0.000603172
0.000612916
0.000627058
0.000637423
0.000655496
0.000158218
0.000154865
0.00015223
0.000149946
0.000148147
0.000146393
0.0001451
0.000143633
0.000142698
0.000141369
0.000140735
0.000139447
0.000139074
0.00013778
0.000137636
0.000136301
0.000136379
0.000134958
0.00013527
0.000133726
0.000134275
0.000132586
0.000133377
0.000131517
0.000132565
0.000130503
0.000131829
0.000129539
0.000131151
0.000128633
0.000130519
0.000127774
0.000129948
0.000126943
0.000129451
0.000126144
0.00012901
0.000125414
0.000128617
0.00012476
0.000128283
0.00012417
0.000128037
0.000123677
0.000127903
0.000123322
0.000127924
0.000123183
0.00012817
0.000123279
0.000128606
0.00012375
0.000129422
0.000124836
0.000130895
0.000126848
0.000133321
0.000130076
0.000137038
0.000134858
0.000142381
0.000141476
0.000149623
0.000150173
0.000159024
0.0001611
0.000170689
0.00017432
0.000184561
0.000189508
0.000200283
0.000206495
0.00021778
0.000225247
0.000236981
0.000245632
0.000257763
0.000267516
0.000279998
0.000290734
0.000303483
0.000315089
0.000328023
0.000340401
0.000353445
0.000366469
0.000379574
0.000393135
0.000406266
0.000420247
0.000432796
0.000447361
0.00046001
0.000475052
0.000488187
0.000502606
0.000515531
0.000529998
0.000542446
0.000556695
0.000158216
0.000154876
0.000152227
0.000149973
0.000148141
0.000146445
0.000145089
0.000143714
0.000142682
0.000141487
0.000140709
0.00013961
0.000139036
0.000137998
0.000137583
0.00013658
0.000136311
0.000135306
0.000135181
0.000134154
0.00013416
0.000133106
0.000133231
0.000132136
0.000132387
0.000131228
0.000131612
0.00013038
0.000130886
0.000129595
0.000130198
0.000128859
0.000129559
0.00012815
0.000128974
0.000127471
0.000128415
0.000126846
0.00012787
0.000126265
0.000127357
0.000125717
0.000126878
0.000125208
0.000126435
0.00012474
0.000126033
0.000124325
0.000125685
0.00012397
0.000125378
0.00012371
0.000125135
0.000123544
0.000124982
0.000123523
0.000124956
0.000123674
0.00012512
0.00012406
0.000125566
0.000124791
0.000126385
0.000125949
0.000127679
0.000127745
0.000129708
0.000130377
0.000132747
0.000134194
0.000137061
0.000139438
0.000142887
0.000146397
0.000150557
0.000155273
0.000160275
0.000166251
0.000172249
0.000179539
0.00018659
0.000195187
0.000203339
0.000213244
0.000222528
0.000233647
0.000244011
0.000256258
0.000267679
0.000280986
0.000293402
0.000307633
0.000321006
0.00033612
0.000350342
0.000366061
0.000380887
0.000396996
0.000412254
0.000428435
0.000158213
0.000154881
0.00015222
0.000149985
0.000148125
0.000146467
0.000145064
0.000143747
0.000142643
0.000141535
0.000140653
0.000139677
0.000138961
0.000138084
0.000137488
0.000136686
0.000136194
0.000135436
0.000135038
0.000134312
0.000133987
0.000133294
0.000133026
0.000132356
0.000132148
0.000131482
0.000131337
0.000130669
0.000130576
0.000129917
0.000129857
0.000129214
0.000129183
0.000128543
0.000128559
0.000127906
0.000127964
0.00012732
0.000127393
0.000126774
0.00012686
0.000126265
0.000126365
0.000125801
0.000125916
0.000125385
0.000125523
0.000125028
0.000125196
0.000124742
0.000124936
0.000124563
0.000124778
0.000124504
0.000124752
0.000124631
0.000124909
0.00012499
0.000125343
0.000125631
0.0001261
0.000126662
0.00012733
0.000128284
0.000129254
0.000130755
0.000132167
0.000134294
0.000136332
0.000139233
0.000142022
0.000145827
0.000149476
0.000154331
0.000158967
0.000164929
0.000170647
0.000177759
0.000184653
0.000192956
0.000201045
0.000210521
0.000219813
0.000230344
0.000240653
0.000252119
0.000263373
0.000275737
0.000287917
0.000301125
0.000314174
0.000328125
0.000341972
0.000356588
0.000371176
0.000386393
0.000401675
0.000417453
0.000433481
0.000449937
0.000158211
0.00015488
0.000152208
0.00014998
0.000148102
0.000146456
0.000145026
0.000143728
0.000142586
0.000141508
0.000140571
0.000139642
0.000138851
0.000138035
0.000137351
0.00013662
0.000136024
0.000135352
0.00013483
0.000134208
0.000133739
0.000133166
0.000132735
0.000132204
0.00013181
0.000131307
0.000130951
0.000130471
0.000130147
0.000129694
0.000129394
0.000128971
0.000128696
0.0001283
0.000128059
0.00012769
0.000127486
0.000127163
0.000126983
0.000126715
0.000126576
0.000126378
0.000126297
0.0001262
0.000126207
0.000126249
0.000126393
0.000126582
0.000126867
0.000127293
0.000127853
0.000128675
0.00012967
0.000131044
0.000132658
0.00013477
0.000137176
0.000140212
0.000143587
0.000147698
0.000152205
0.000157493
0.000163224
0.000169763
0.00017677
0.000184511
0.000192559
0.000201316
0.000210374
0.000220113
0.000230126
0.000240792
0.00025169
0.000263215
0.00027491
0.000287191
0.000299576
0.000312501
0.000325468
0.000338926
0.000352352
0.000366229
0.000377429
0.000387779
0.000398232
0.000408899
0.000419947
0.000431311
0.000442909
0.000454939
0.000467245
0.000479976
0.000493011
0.000506512
0.000520322
0.000534594
0.000549021
0.000563791
0.000578125
0.000592445
0.000158208
0.000154872
0.00015219
0.000149957
0.000148062
0.000146409
0.000144957
0.000143652
0.000142479
0.000141396
0.000140415
0.000139484
0.00013864
0.000137821
0.000137076
0.000136341
0.000135677
0.000135001
0.000134404
0.000133777
0.00013323
0.000132651
0.000132141
0.000131606
0.00013113
0.000130631
0.000130192
0.000129733
0.000129339
0.000128924
0.000128568
0.000128196
0.000127911
0.000127614
0.000127446
0.000127282
0.000127309
0.000127348
0.000127523
0.000127865
0.000128475
0.000129372
0.00013068
0.000132412
0.000134707
0.000137559
0.000141112
0.00014535
0.000150383
0.000156173
0.000162809
0.000170194
0.000178221
0.000186973
0.000196333
0.000206368
0.000216963
0.000228173
0.000239874
0.000252121
0.00026478
0.000277901
0.000291357
0.000305191
0.000317298
0.000326976
0.000336685
0.000346557
0.000356604
0.000366788
0.000377153
0.000387625
0.000398157
0.000408816
0.00041953
0.000430352
0.00044122
0.000452175
0.000463167
0.000474215
0.000485296
0.0004964
0.00050754
0.000518777
0.000530036
0.000541314
0.000552564
0.000563773
0.000574918
0.000586007
0.000597036
0.000608047
0.000619003
0.000629955
0.000640817
0.000651678
0.000662323
0.00067285
0.000682864
0.000692628
0.0001582
0.000154852
0.000152148
0.000149893
0.000147965
0.00014628
0.000144783
0.000143433
0.0001422
0.000141062
0.000140003
0.000139011
0.00013807
0.000137186
0.000136331
0.000135528
0.000134743
0.000133998
0.000133265
0.000132562
0.000131875
0.00013122
0.000130577
0.000129931
0.000129312
0.000128728
0.000128205
0.000127785
0.000127513
0.000127335
0.00012725
0.000127557
0.000128203
0.000129466
0.000131317
0.000134006
0.000137509
0.000142039
0.000147549
0.000154179
0.000161719
0.000170214
0.000179566
0.000189788
0.000200799
0.000212557
0.000225018
0.000238083
0.000251764
0.000265898
0.000279407
0.000289755
0.000300461
0.00031129
0.000322242
0.000333343
0.000344536
0.000355832
0.000367181
0.000378604
0.00039005
0.000401551
0.000413058
0.000424598
0.00043612
0.000447745
0.000459391
0.000470996
0.000482533
0.00049394
0.000505232
0.000516373
0.000527376
0.000538221
0.000548972
0.000559557
0.000570041
0.000580354
0.000590577
0.000600622
0.0006106
0.00062038
0.000630099
0.000639757
0.000649383
0.000658917
0.000668278
0.000677505
0.000686597
0.000695546
0.000704326
0.000712986
0.000721461
0.000729798
0.000737939
0.000745883
0.00075368
0.000761096
0.000767909
0.000774301
0.00015818
0.000154796
0.000152025
0.000149708
0.000147678
0.000145885
0.00014425
0.000142742
0.000141336
0.000139995
0.000138742
0.000137534
0.000136376
0.000135255
0.000134153
0.000133117
0.000132007
0.000130917
0.000129759
0.000128733
0.00012769
0.000126985
0.000126196
0.000125613
0.000125488
0.000126053
0.000127485
0.000130023
0.000133756
0.000138908
0.000145434
0.000153383
0.000162455
0.000172789
0.000184122
0.000196524
0.000209805
0.000223958
0.000238876
0.000252113
0.000263733
0.000275574
0.000287595
0.000299794
0.00031207
0.000324413
0.000336755
0.000349116
0.000361436
0.000373757
0.000385975
0.000398238
0.000410421
0.000422466
0.000434319
0.000445962
0.000457375
0.000468561
0.000479523
0.000490271
0.000500818
0.000511175
0.000521351
0.000531349
0.000541167
0.000550921
0.000560601
0.000570088
0.000579437
0.000588592
0.000597612
0.000606429
0.000615119
0.0006236
0.000631909
0.000639989
0.000647891
0.000655582
0.000663103
0.000670454
0.000677649
0.000684644
0.000691523
0.000698231
0.000704851
0.000711333
0.000717713
0.000723961
0.000730112
0.000736157
0.000742097
0.000747903
0.00075359
0.000759154
0.000764648
0.00076989
0.000775094
0.000779891
0.000784284
0.000788343
0.000158113
0.000154621
0.000151612
0.000149104
0.000146667
0.000144525
0.000142363
0.000140373
0.000138357
0.000136484
0.000134756
0.000132829
0.000131009
0.000129045
0.000127406
0.000125792
0.000124095
0.000122535
0.000121922
0.000122154
0.000123948
0.000127098
0.000132224
0.000138944
0.000147625
0.000157904
0.000169838
0.000183111
0.000197721
0.000213314
0.000228932
0.000242198
0.000255552
0.000268981
0.000282357
0.000295724
0.000309003
0.00032225
0.000335342
0.000348353
0.000361186
0.000373824
0.000386136
0.000398074
0.000409589
0.000420739
0.000431498
0.000441957
0.000452057
0.000461895
0.000471349
0.000480614
0.00048959
0.00049832
0.000506802
0.000515047
0.000523056
0.000530835
0.000538389
0.000545725
0.000552852
0.000559778
0.000566516
0.000573071
0.000579461
0.000585679
0.000591779
0.000597725
0.000603565
0.000609252
0.000614855
0.000620298
0.000625693
0.000630428
0.000634842
0.000639136
0.000643332
0.000647421
0.000651429
0.000655337
0.00065918
0.000662928
0.000666623
0.000670228
0.000673789
0.000677262
0.000680704
0.000684051
0.000687377
0.000690604
0.000693818
0.000696934
0.000700044
0.000703056
0.000706062
0.000708966
0.000711862
0.000714637
0.000717338
0.000719897
0.000157849
0.000153942
0.0001501
0.000146711
0.000142569
0.000139331
0.000135252
0.000131833
0.0001282
0.000126014
0.000123573
0.000120696
0.00011865
0.000117785
0.000118585
0.00012103
0.000125566
0.00013189
0.000140407
0.000150791
0.000163414
0.000177688
0.000193333
0.000209789
0.000227092
0.000242473
0.000257122
0.000271489
0.000285535
0.000299174
0.000312289
0.000324999
0.000337192
0.0003489
0.000360094
0.00037086
0.000381149
0.000391039
0.000400402
0.000409337
0.000417818
0.000426066
0.00043304
0.000439198
0.000445006
0.000450518
0.000455759
0.000460768
0.000465558
0.00047016
0.000474582
0.000478846
0.000482955
0.000486932
0.000490774
0.0004945
0.000498109
0.000501613
0.000505012
0.000508317
0.000511528
0.000514657
0.000517702
0.000520675
0.000523575
0.00052641
0.000529183
0.000531896
0.000534553
0.000537148
0.000539695
0.00054218
0.000544621
0.000547009
0.000549339
0.000551605
0.000553819
0.000555973
0.000558084
0.000560141
0.000562165
0.000564135
0.000566082
0.000567978
0.000569859
0.00057169
0.000573516
0.000575288
0.000577062
0.000578776
0.0005805
0.00058216
0.000583837
0.000585445
0.000587076
0.000588622
0.000590196
0.000591648
0.000593041
0.000594294
0.000156641
0.000151208
0.000143351
0.000134629
0.000126078
0.000120991
0.000115009
0.000112504
0.000112457
0.00011419
0.000117962
0.000123463
0.000130605
0.000139124
0.000149054
0.000160159
0.000172603
0.000186205
0.000201284
0.000217285
0.000233493
0.000246947
0.000259667
0.000271867
0.000283091
0.000294115
0.00030263
0.000310053
0.00031674
0.000322879
0.000328611
0.000333955
0.000338908
0.000343511
0.000347777
0.00035176
0.000355474
0.00035897
0.000362253
0.00036537
0.000368316
0.000371131
0.000373813
0.000376352
0.000378747
0.000381013
0.000383158
0.000385201
0.000387146
0.000389013
0.000390803
0.000392533
0.000394202
0.000395821
0.000397386
0.000398908
0.000400382
0.000401818
0.000403211
0.00040457
0.000405891
0.000407181
0.000408438
0.000409668
0.00041087
0.000412049
0.000413206
0.000414343
0.000415462
0.000416559
0.000417643
0.000418705
0.000419752
0.000420779
0.000421789
0.000422774
0.000423741
0.000424682
0.000425607
0.000426508
0.000427399
0.000428266
0.000429127
0.000429965
0.000430802
0.000431615
0.000432434
0.000433229
0.000434033
0.000434809
0.000435599
0.000436359
0.000437137
0.000437878
0.000438644
0.000439353
0.000440096
0.000440743
0.000441343
0.000441815
0.000151621
0.000136816
0.000113478
9.95201e-05
9.76017e-05
9.81308e-05
0.000110573
0.000115045
0.000121818
0.000129687
0.000137977
0.000146235
0.000154211
0.000161681
0.000168583
0.000174823
0.000180491
0.000185568
0.000190197
0.000194425
0.000198337
0.000202068
0.000205555
0.00020885
0.00021187
0.000214679
0.000217312
0.000219723
0.000221894
0.000223822
0.000225516
0.000227019
0.000228355
0.000229554
0.00023063
0.000231605
0.000232487
0.000233297
0.000234044
0.000234739
0.000235393
0.000236004
0.000236596
0.000237174
0.000237731
0.000238264
0.000238769
0.00023925
0.000239705
0.000240141
0.000240557
0.00024096
0.000241349
0.000241732
0.000242104
0.000242472
0.000242833
0.000243191
0.000243543
0.000243891
0.000244235
0.000244573
0.00024491
0.00024524
0.000245566
0.000245888
0.000246207
0.000246524
0.000246839
0.000247153
0.000247465
0.000247775
0.000248087
0.000248397
0.000248706
0.000249014
0.00024932
0.000249621
0.00024992
0.000250212
0.000250502
0.000250785
0.000251068
0.000251343
0.000251621
0.000251891
0.000252165
0.000252433
0.000252705
0.000252972
0.000253244
0.00025351
0.000253782
0.000254049
0.000254319
0.000254582
0.000254848
0.000255066
0.000255286
0.000255444
2.45432e-05
3.47523e-05
4.04101e-05
4.23028e-05
4.20137e-05
4.05608e-05
3.87137e-05
3.70559e-05
3.56101e-05
3.44451e-05
3.35764e-05
3.29762e-05
3.25986e-05
3.2385e-05
3.2287e-05
3.22583e-05
3.22697e-05
3.2298e-05
3.23311e-05
3.23649e-05
3.23935e-05
3.24264e-05
3.24614e-05
3.24994e-05
3.2539e-05
3.25762e-05
3.26142e-05
3.26515e-05
3.26862e-05
3.27167e-05
3.27414e-05
3.27608e-05
3.27749e-05
3.27852e-05
3.27918e-05
3.27959e-05
3.27976e-05
3.2798e-05
3.27971e-05
3.27957e-05
3.27941e-05
3.27925e-05
3.27911e-05
3.27904e-05
3.27903e-05
3.27907e-05
3.27914e-05
3.27924e-05
3.27936e-05
3.2795e-05
3.27966e-05
3.27986e-05
3.28009e-05
3.28039e-05
3.28074e-05
3.28116e-05
3.28164e-05
3.28219e-05
3.28281e-05
3.28348e-05
3.28422e-05
3.28501e-05
3.28587e-05
3.28677e-05
3.28773e-05
3.28872e-05
3.28977e-05
3.29087e-05
3.29202e-05
3.29321e-05
3.29447e-05
3.29577e-05
3.29712e-05
3.29852e-05
3.29996e-05
3.30144e-05
3.30297e-05
3.30451e-05
3.30609e-05
3.30767e-05
3.30929e-05
3.3109e-05
3.31255e-05
3.31419e-05
3.31588e-05
3.31756e-05
3.31928e-05
3.321e-05
3.32277e-05
3.32454e-05
3.32637e-05
3.32817e-05
3.33007e-05
3.3319e-05
3.33391e-05
3.33578e-05
3.33784e-05
3.33985e-05
3.34186e-05
3.34392e-05
1.50875e-05
0.000682742
0.00119357
0.00158366
0.00194059
0.00222094
0.00242703
0.00246846
0.0024604
0.00244548
0.00242913
0.00241996
0.00242315
0.00243663
0.00245632
0.0024816
0.00251179
0.00254745
0.00259035
0.00263914
0.00269446
0.00275511
0.0028191
0.00288757
0.00296161
0.00303816
0.00311418
0.00319179
0.00326499
0.0033394
0.00335839
0.00336308
0.00336532
0.00336511
0.00336268
0.0033582
0.00335193
0.00334401
0.00333457
0.0033237
0.00331148
0.00329802
0.00328339
0.00326772
0.003251
0.00323339
0.00321481
0.00319547
0.0031752
0.0031543
0.00313245
0.00311008
0.00308669
0.00306291
0.00303792
0.00301273
0.00298606
0.00295952
0.00293103
0.00290312
0.00287267
0.00284342
0.00281089
0.00278024
0.00274543
0.00271325
0.00267633
0.00264203
0.00260333
0.00256603
0.00252646
0.0024858
0.00244555
0.00240269
0.00236203
0.00231966
0.00227915
0.00223839
0.00219996
0.00216221
0.00212832
0.00209473
0.00206509
0.0020364
0.00201094
0.00198907
0.00196515
0.00195076
0.00192315
0.0019172
0.0018856
0.0018855
0.0018521
0.00184671
0.00181743
0.0018
0.00178336
0.00175569
0.00175007
0.00171281
0.000170636
0.000440409
0.000877744
0.00126722
0.00161518
0.00189621
0.00211021
0.0022597
0.00236357
0.0023603
0.00234109
0.00233159
0.00232915
0.0023328
0.00234253
0.00235891
0.00238184
0.00241118
0.00244824
0.00249028
0.00253615
0.00258611
0.00263999
0.00269814
0.00276253
0.00283171
0.00290393
0.00297993
0.00306367
0.00315077
0.00323833
0.00325494
0.0032632
0.0032685
0.0032712
0.00327154
0.00326987
0.00326634
0.00326109
0.00325422
0.00324583
0.00323603
0.0032249
0.00321257
0.00319905
0.00318448
0.00316882
0.00315224
0.00313459
0.00311617
0.00309667
0.00307652
0.00305522
0.00303339
0.00301022
0.00298672
0.0029616
0.00293647
0.00290925
0.00288249
0.00285303
0.00282465
0.00279285
0.00276278
0.00272848
0.00269662
0.00266002
0.0026258
0.00258732
0.00254992
0.00251057
0.00246976
0.00242985
0.00238699
0.00234694
0.00230497
0.00226545
0.00222568
0.00218865
0.00215261
0.00212072
0.00208951
0.00206252
0.00203654
0.00201449
0.0019953
0.00197562
0.00196327
0.00194034
0.00193539
0.00190857
0.00190864
0.00187985
0.00187389
0.0018485
0.0018302
0.00181635
0.00178898
0.00178507
0.00174985
0.000472313
0.000385056
0.000567187
0.000877059
0.00120373
0.00148382
0.00170601
0.00187012
0.00199057
0.00207689
0.00214187
0.00219848
0.00221559
0.00222048
0.00223161
0.0022504
0.00227647
0.00230824
0.00234317
0.00238003
0.00241911
0.00246101
0.00250699
0.00255621
0.00261045
0.00266956
0.0027342
0.00280294
0.00288328
0.00296517
0.00306988
0.00311736
0.00313324
0.00314542
0.00315448
0.00316077
0.00316472
0.00316652
0.00316631
0.00316422
0.00316039
0.00315491
0.0031479
0.00313948
0.00312969
0.00311865
0.00310635
0.00309295
0.00307833
0.00306276
0.00304597
0.00302835
0.00300945
0.00298986
0.00296879
0.00294723
0.00292389
0.00290041
0.00287467
0.00284924
0.00282095
0.00279358
0.00276268
0.0027333
0.00269964
0.00266815
0.002632
0.00259788
0.00255973
0.00252223
0.00248321
0.00244227
0.00240284
0.00236005
0.00232081
0.00227941
0.00224117
0.00220267
0.00216744
0.00213352
0.00210412
0.00207577
0.002052
0.00202918
0.00201121
0.00199503
0.00198035
0.00197017
0.00195275
0.00194874
0.00192747
0.00192756
0.00190399
0.00189745
0.00187629
0.00185738
0.00184631
0.0018198
0.00181738
0.00178512
0.000592858
0.000584723
0.000544588
0.000614093
0.000798856
0.00102204
0.00122979
0.0013996
0.00153368
0.00163841
0.00172148
0.00179466
0.00186
0.00192207
0.00198421
0.00204841
0.00211437
0.00217408
0.00221367
0.00225345
0.00229498
0.00233876
0.0023861
0.00243518
0.00248748
0.002543
0.00260367
0.00266736
0.00273972
0.00281102
0.00290148
0.00294116
0.00296676
0.00298778
0.00300501
0.00301891
0.00303004
0.00303856
0.00304468
0.00304854
0.0030503
0.0030501
0.00304807
0.00304434
0.00303898
0.00303212
0.00302378
0.00301409
0.003003
0.00299072
0.00297706
0.00296237
0.00294622
0.0029292
0.00291053
0.0028912
0.00286991
0.0028483
0.00282428
0.00280037
0.00277346
0.00274724
0.00271741
0.00268881
0.00265595
0.00262488
0.00258932
0.00255531
0.00251762
0.00248002
0.00244146
0.00240041
0.00236166
0.00231905
0.00228093
0.00224034
0.00220381
0.002167
0.00213412
0.00210287
0.0020766
0.00205169
0.00203189
0.00201276
0.00199964
0.00198682
0.00197796
0.00197005
0.001959
0.00195581
0.00194088
0.00194078
0.001923
0.00191584
0.0018992
0.00187998
0.00187161
0.00184652
0.00184533
0.00181684
0.000700065
0.000706242
0.000689869
0.000664581
0.000666033
0.000723415
0.00082099
0.00093515
0.00104663
0.00114849
0.00123744
0.00131948
0.00139649
0.00147123
0.00154568
0.00162189
0.00169964
0.00177966
0.00185934
0.00193882
0.0020178
0.00209556
0.00217153
0.00224505
0.00231615
0.00238393
0.00244892
0.0025099
0.00256777
0.00262032
0.00267143
0.0027156
0.00275341
0.00278575
0.00281351
0.00283726
0.00285766
0.00287484
0.00288904
0.00290045
0.00290927
0.00291566
0.0029198
0.00292182
0.00292187
0.00292006
0.00291645
0.00291119
0.00290425
0.00289585
0.00288583
0.00287454
0.00286159
0.00284752
0.00283162
0.00281484
0.00279591
0.00277645
0.00275441
0.00273222
0.00270693
0.00268201
0.00265345
0.00262573
0.00259384
0.00256324
0.00252843
0.00249454
0.00245747
0.00241979
0.00238187
0.00234081
0.00230302
0.00226083
0.00222427
0.0021849
0.00215071
0.00211618
0.00208644
0.00205861
0.00203634
0.00201564
0.00200066
0.00198588
0.00197843
0.00196935
0.00196708
0.0019615
0.00195765
0.00195506
0.00194721
0.00194659
0.00193508