/*--------------------------------*- C++ -*----------------------------------*\
| =========                 |                                                 |
| \\      /  F ield         | OpenFOAM: The Open Source CFD Toolbox           |
|  \\    /   O peration     | Version:  v2012                                 |
|   \\  /    A nd           | Website:  www.openfoam.com                      |
|    \\/     M anipulation  |                                                 |
\*---------------------------------------------------------------------------*/
FoamFile
{
    version     2.0;
    format      ascii;
    class       volScalarField;
    location    "0.351";
    object      omega.air;
}
// * * * * * * * * * * * * * * * * * * * * * * * * * * * * * * * * * * * * * //

dimensions      [0 0 -1 0 0 0 0];


internalField   nonuniform List<scalar> 
5600
(
6586.28
7485.5
7886.8
7965.17
7866.41
7687.44
7480.98
7290.04
7125.34
6987.77
6878.92
6796.29
6736.28
6693.39
6663.68
6642.28
6627.09
6614.79
6605.37
6596.45
6589.64
6582.62
6577.88
6573.09
6570.52
6567.57
6566.37
6564.61
6564.08
6562.72
6562.16
6560.55
6559.63
6557.66
6556.49
6554.33
6553.05
6550.83
6549.58
6547.42
6546.3
6544.32
6543.44
6541.66
6541.07
6539.57
6539.26
6537.98
6537.91
6536.75
6536.91
6535.86
6536.19
6535.31
6535.85
6535.09
6535.89
6535.27
6536.31
6535.88
6537.19
6536.85
6538.44
6538.18
6540.04
6539.85
6541.99
6541.82
6544.25
6544.08
6546.83
6546.63
6549.73
6549.46
6552.92
6552.56
6556.4
6555.93
6560.11
6559.56
6563.98
6563.45
6567.9
6567.66
6571.69
6572.39
6575.02
6578.11
6577.16
6586.01
6576.67
6598.57
6569.1
6622.96
6540.54
6683.63
6440.45
6868.35
6038.46
7488.46
2450.53
2296.56
2571.65
2795.1
2928.2
2998.04
3010.26
2968.22
2968.91
3017.27
3073.44
3118.99
3147.16
3158.48
3154.9
3140.53
3118.26
3091.29
3062.13
3032.56
3003.22
2973.99
2945.02
2916.51
2889.21
2863.29
2839.67
2817.46
2797.58
2778.6
2761.96
2745.94
2732.07
2718.69
2707.18
2696
2686.39
2677.03
2668.96
2661.1
2654.29
2647.66
2641.88
2636.28
2631.28
2626.33
2621.88
2617.45
2613.47
2609.56
2606.02
2602.6
2599.55
2596.5
2593.87
2591.24
2588.99
2586.7
2584.8
2582.73
2581.11
2579.33
2577.93
2576.38
2575.18
2573.83
2572.79
2571.63
2570.71
2569.77
2568.97
2568.19
2567.52
2566.89
2566.35
2565.86
2565.42
2565.06
2564.68
2564.45
2564.07
2564.03
2563.57
2563.84
2563.14
2563.98
2562.67
2564.68
2561.81
2566.36
2559.4
2570.77
2552.86
2582.37
2534.78
2614.61
2478.5
2715.42
2279.06
3067.99
2358.54
1859.93
1592.13
1427.82
1346.08
1273.82
1279.96
1309.15
1351.9
1412.45
1482.27
1549.53
1611.13
1663.94
1704.86
1733.43
1749.09
1752.48
1744.29
1726.49
1702.37
1676.78
1653.59
1634.9
1619.45
1605.79
1593.23
1581.77
1571.23
1561
1551.15
1540.95
1531.32
1521.67
1512.9
1504.19
1496.4
1488.69
1481.88
1475.16
1469.22
1463.35
1458.13
1452.87
1448.27
1443.65
1439.6
1435.5
1431.93
1428.31
1425.17
1421.97
1419.25
1416.42
1414.07
1411.58
1409.54
1407.33
1405.55
1403.55
1401.98
1400.16
1398.78
1397.11
1395.91
1394.36
1393.32
1391.9
1391
1389.73
1388.94
1387.81
1387.13
1386.12
1385.53
1384.64
1384.09
1383.34
1382.76
1382.21
1381.5
1381.3
1380.25
1380.68
1378.9
1380.52
1377.22
1381.14
1374.73
1383.23
1370.37
1388.33
1361.8
1400.02
1343.71
1425.79
1304.92
1478.59
1229.19
1556.34
2345.16
1822.38
1493.22
1267.66
1111.15
992.611
906.861
846.934
802.649
776.732
760.404
769.456
791.623
824.102
860.91
902.28
941.247
978.665
1011.2
1039.65
1061.38
1079.17
1091.62
1100.98
1105.7
1107.17
1103.57
1097.11
1087.59
1078.02
1068.45
1060.71
1053.94
1048.04
1042.52
1037.34
1032.5
1027.85
1023.56
1019.24
1015.12
1010.64
1006.17
1001.44
996.998
992.455
988.34
984.18
980.475
976.735
973.445
970.121
967.221
964.27
961.703
959.011
956.662
954.156
951.989
949.642
947.643
945.448
943.618
941.569
939.908
938.003
936.505
934.747
933.409
931.789
930.59
929.118
928.023
926.68
925.651
924.436
923.436
922.423
921.385
920.648
919.422
919.127
917.48
917.933
915.457
917.2
913.173
917.141
910.309
918.134
906.347
920.827
900.497
926.19
891.81
934.565
880.812
942.091
875.375
926.624
2341.97
1815.97
1479.81
1247.93
1079.72
952.57
853.193
774.613
710.644
658.901
616.092
581.964
556.197
536.19
523.568
514.787
513.79
520.901
532.264
549.214
568.531
591.936
616.093
642.247
667.06
692.206
713.802
733.36
748.183
760.894
769.719
777.43
782.147
786.061
787.262
787.764
785.849
783.566
779.519
775.793
771.222
767.611
764.176
761.322
758.407
755.729
753.024
750.454
747.965
745.572
743.338
741.143
739.063
736.961
734.805
732.432
730.123
727.684
725.392
722.999
720.799
718.505
716.435
714.27
712.353
710.338
708.582
706.725
705.122
703.402
701.92
700.293
698.868
697.328
695.924
694.503
693.079
691.836
690.351
689.383
687.74
687.178
685.214
685.27
682.711
683.731
680.15
682.614
677.432
681.994
674.471
681.9
671.324
682.081
668.518
681.424
667.7
677.153
671.824
664.949
2341.13
1814.12
1476.76
1243.88
1074.17
945.327
844.33
763.138
696.59
641.021
594.191
554.016
519.689
489.847
464.178
441.876
422.65
406.903
393.56
383.412
375.254
370.387
367.302
368.998
373.098
381.377
391.416
405.414
419.969
437.803
454.604
473.785
490.924
509.294
524.578
540.271
552.267
564.147
572.369
580.457
585.551
590.731
593.885
597.314
598.936
600.765
600.932
601.291
600.186
599.321
597.303
595.617
593.222
591.221
589.085
587.474
585.727
584.283
582.707
581.301
579.83
578.437
577.067
575.708
574.46
573.168
572.028
570.808
569.7
568.504
567.304
565.933
564.596
563.193
561.778
560.433
558.948
557.717
556.135
555.103
553.391
552.65
550.733
550.392
548.163
548.35
545.673
546.515
543.265
544.845
540.979
543.231
538.938
541.422
537.389
539.045
536.59
535.857
535.994
532.425
2340.86
1813.43
1475.76
1242.6
1072.62
943.434
842.136
760.548
693.582
637.511
590.061
549.213
513.893
482.868
455.627
431.337
409.784
390.356
373.053
357.344
343.367
330.649
319.418
309.353
300.767
293.281
287.195
282.345
278.875
276.86
276.533
278.448
281.703
287.355
293.957
303.049
312.455
324.202
335.442
348.567
360.507
374.023
385.572
398.386
408.866
420.302
429.174
438.694
445.604
452.907
457.793
462.932
466.092
469.46
471.44
473.822
475.086
476.673
477.313
478.183
478.252
478.471
478.038
477.692
476.855
476.062
474.964
473.872
472.74
471.571
470.538
469.572
468.673
467.807
466.929
466.13
465.209
464.484
463.471
462.852
461.717
461.253
459.97
459.699
458.249
458.177
456.544
456.659
454.833
455.083
453.1
453.38
451.328
451.463
449.442
449.379
447.352
447.297
444.538
445.253
2340.76
1813.12
1475.33
1242.06
1072
942.724
841.353
759.667
692.627
636.44
588.911
547.91
512.508
481.257
453.911
429.281
407.569
387.636
370.03
353.552
339.044
325.185
313.093
301.269
291.127
280.946
272.43
263.624
256.52
248.918
243.118
236.712
232.209
227.011
223.811
219.934
218.119
215.729
215.444
215.053
216.678
218.392
221.922
225.777
231.147
237.031
244.026
251.608
259.826
268.521
277.407
286.648
295.675
304.875
313.423
322.029
329.855
337.616
344.539
351.264
357.153
362.713
367.498
371.833
375.521
378.666
381.361
383.448
385.365
386.69
388.073
388.992
390.04
390.619
391.343
391.63
392.014
392.059
392.097
391.947
391.638
391.34
390.698
390.303
389.356
388.913
387.692
387.238
385.782
385.331
383.681
383.237
381.422
381.043
379.056
378.752
376.455
376.296
373.404
373.317
2340.71
1812.97
1475.12
1241.81
1071.71
942.4
841.001
759.287
692.223
636.005
588.454
547.418
511.994
480.702
453.333
428.652
406.911
386.917
369.267
352.707
338.134
324.158
311.966
299.975
289.671
279.235
270.46
261.262
253.754
245.554
239.12
231.736
226.234
219.536
214.859
208.752
204.831
199.245
196.042
190.964
188.486
183.924
182.17
178.17
177.169
173.811
173.618
171.014
171.701
170.127
171.862
171.433
174.248
175.072
178.999
181.094
186.087
189.396
195.342
199.714
206.424
211.634
218.86
224.579
232.035
237.982
245.391
251.288
258.312
263.84
270.276
275.314
281.085
285.574
290.625
294.532
298.811
302.115
305.583
308.285
310.937
313.049
314.9
316.463
317.561
318.645
319.067
319.75
319.591
319.953
319.333
319.472
318.492
318.541
317.242
317.1
315.455
315.1
313.1
312.281
2340.68
1812.9
1475.02
1241.7
1071.57
942.26
840.837
759.129
692.034
635.833
588.241
547.232
511.757
480.503
453.068
428.443
406.615
386.696
368.938
352.473
337.768
323.909
311.554
299.707
289.203
278.939
269.921
260.922
253.119
245.144
238.349
231.215
225.268
218.83
213.606
207.75
203.152
197.787
193.736
188.792
185.224
180.648
177.514
173.264
170.528
166.573
164.209
160.53
158.522
155.122
153.474
150.356
149.067
146.259
145.34
142.878
142.348
140.282
140.169
138.562
138.896
137.818
138.631
138.241
139.581
139.891
141.761
142.794
145.186
146.923
149.779
152.163
155.412
158.367
161.913
165.336
169.083
172.857
176.703
180.695
184.535
188.616
192.35
196.396
199.933
203.83
207.094
210.738
213.661
216.961
219.485
222.335
224.411
226.688
228.401
230.312
231.758
233.223
234.385
235.267
2340.68
1812.91
1475.03
1241.71
1071.58
942.284
840.845
759.157
692.036
635.865
588.236
547.27
511.744
480.549
453.046
428.496
406.585
386.758
368.897
352.546
337.715
323.994
311.488
299.807
289.122
279.054
269.824
261.056
253.006
245.298
238.221
231.391
225.125
219.033
213.449
207.987
202.983
198.066
193.563
189.123
185.059
181.048
177.376
173.757
170.442
167.193
164.213
161.333
158.687
156.181
153.878
151.762
149.828
148.133
146.608
145.379
144.315
143.609
143.076
143.001
143.13
143.743
144.584
145.927
147.529
149.63
151.999
154.818
157.897
161.358
165.052
169.042
173.223
177.595
182.112
186.709
191.39
196.048
200.72
205.283
209.79
214.116
218.323
222.255
226.014
229.48
232.752
235.748
238.535
241.069
243.39
245.478
247.349
249.015
250.444
251.683
252.681
253.532
254.166
254.743
2340.71
1813
1475.15
1241.86
1071.74
942.466
841.029
759.363
692.237
636.091
588.452
547.517
511.974
480.817
453.291
428.788
406.846
387.076
369.178
352.893
338.02
324.376
311.825
300.232
289.503
279.54
270.269
261.627
253.548
245.997
238.915
232.285
226.059
220.23
214.759
209.652
204.873
200.447
196.36
192.624
189.236
186.216
183.577
181.339
179.534
178.178
177.323
177.082
177.426
178.419
180.041
182.36
185.324
188.97
193.241
198.122
203.568
209.499
215.889
222.577
229.581
236.715
244.003
251.238
258.475
265.442
272.238
278.66
284.86
290.645
296.167
301.246
306.029
310.351
314.362
317.906
321.133
323.905
326.36
328.397
330.131
331.507
332.602
333.436
334.046
334.47
334.771
334.91
334.931
334.806
334.558
334.176
333.663
333.031
332.266
331.405
330.42
329.383
328.284
327.243
2340.76
1813.17
1475.39
1242.15
1072.07
942.822
841.415
759.775
692.676
636.557
588.944
548.04
512.524
481.407
453.909
429.459
407.551
387.854
370.005
353.826
339.027
325.539
313.106
301.746
291.223
281.612
272.688
264.58
257.062
250.341
244.218
238.886
234.158
230.276
227.045
224.765
223.202
222.818
223.49
225.321
228.241
232.325
237.479
243.715
250.895
258.949
267.702
276.957
286.611
296.425
306.335
316.028
325.445
334.475
343.073
351.155
358.69
365.614
371.916
377.55
382.53
386.841
390.519
393.59
396.114
398.169
399.862
401.302
402.537
403.551
404.385
405.01
405.475
405.748
405.878
405.83
405.655
405.325
404.887
404.324
403.678
402.942
402.145
401.333
400.47
399.632
398.809
397.987
397.146
396.29
395.396
394.474
393.501
392.495
391.433
390.343
389.204
388.067
386.942
385.924
2340.87
1813.49
1475.85
1242.71
1072.73
943.558
842.249
760.682
693.692
637.656
590.18
549.374
514.045
483.073
455.847
431.634
410.129
390.852
373.639
358.173
344.352
332.009
321.098
311.74
303.658
297.151
291.931
288.429
286.31
286.459
288.568
292.782
298.884
306.93
316.616
327.793
340.095
353.153
366.646
380.344
393.806
406.907
419.348
431.06
441.76
451.452
459.897
467.211
473.251
478.26
482.206
485.39
488.037
490.206
491.941
493.259
494.186
494.739
494.943
494.821
494.404
493.726
492.83
491.76
490.57
489.345
488.136
487.051
486.033
485.059
484.102
483.156
482.21
481.268
480.32
479.373
478.427
477.49
476.564
475.655
474.763
473.882
473.023
472.147
471.291
470.376
469.403
468.399
467.362
466.315
465.247
464.182
463.095
462.022
460.928
459.859
458.779
457.746
456.782
455.976
2341.15
1814.19
1476.91
1243.99
1074.37
945.465
844.556
763.344
696.863
641.371
594.59
554.62
520.504
490.958
465.765
443.829
425.819
410.636
398.923
389.608
383.739
380.085
380.942
385.4
393.44
404.669
418.831
435.246
453.414
472.411
491.919
511.212
529.564
546.641
561.814
575.036
585.951
594.933
601.976
607.591
612.152
615.741
618.423
620.209
621.133
621.253
620.629
619.39
617.625
615.554
613.244
611.018
609.053
607.253
605.537
603.876
602.235
600.62
599.017
597.45
595.91
594.429
592.987
591.611
590.258
588.948
587.59
586.137
584.6
583.038
581.444
579.857
578.269
576.701
575.138
573.602
572.092
570.62
569.186
567.795
566.447
565.145
563.892
562.68
561.51
560.375
559.262
558.176
557.101
556.055
555.01
554.001
552.986
552.02
551.039
550.12
549.203
548.373
547.655
547.153
2342.03
1815.98
1480.11
1247.96
1080.28
952.708
854.159
775.206
712.346
660.618
619.075
586.932
562.599
545.504
534.588
530.074
534.45
545.064
561.027
581.078
604.568
630.611
657.649
684.797
711.04
734.72
754.969
771.335
784.177
794.173
801.84
807.312
810.766
812.231
811.876
809.914
806.643
802.65
798.214
794.141
790.648
787.47
784.452
781.473
778.553
775.676
772.905
770.233
767.705
765.259
762.901
760.508
757.93
755.276
752.583
749.906
747.25
744.654
742.107
739.643
737.243
734.94
732.709
730.584
728.532
726.585
724.699
722.89
721.107
719.383
717.677
716.026
714.395
712.814
711.265
709.773
708.327
706.939
705.598
704.312
703.073
701.888
700.748
699.661
698.614
697.62
696.662
695.748
694.859
694.015
693.182
692.398
691.612
690.886
690.147
689.48
688.823
688.273
687.88
687.786
2345.25
1822.39
1493.86
1268.16
1113.23
994.179
912.591
852.017
814.511
787.87
783.659
800.118
829.082
866.039
907.634
950.23
990.289
1026.98
1058.27
1083.61
1103.44
1118.45
1129.08
1135.73
1137.46
1134.74
1127.99
1118.69
1108.64
1099.46
1091.81
1085.13
1079.05
1073.28
1067.82
1062.62
1057.75
1052.99
1048.38
1043.52
1038.47
1033.33
1028.23
1023.24
1018.46
1013.89
1009.56
1005.45
1001.59
997.955
994.541
991.334
988.274
985.352
982.537
979.836
977.226
974.723
972.304
969.989
967.755
965.623
963.569
961.617
959.742
957.965
956.26
954.649
953.097
951.621
950.193
948.829
947.506
946.246
945.041
943.895
942.789
941.739
940.725
939.762
938.841
937.962
937.122
936.325
935.565
934.849
934.168
933.531
932.919
932.354
931.802
931.304
930.799
930.365
929.907
929.546
929.188
928.983
928.984
929.415
2358.73
1860.91
1594.77
1434.01
1353.99
1288.99
1305.25
1337.29
1392.12
1465.15
1539.73
1610.28
1672.38
1723.06
1760.08
1783.38
1792.55
1788.85
1773.31
1750.18
1724.15
1700.71
1682.17
1666.51
1652.51
1639.48
1627.39
1615.94
1604.93
1593.83
1582.73
1571.92
1561.57
1551.73
1542.45
1533.71
1525.55
1517.91
1510.81
1504.16
1497.94
1492.03
1486.48
1481.29
1476.43
1471.85
1467.55
1463.51
1459.72
1456.17
1452.85
1449.75
1446.84
1444.13
1441.57
1439.17
1436.9
1434.76
1432.72
1430.8
1428.96
1427.23
1425.57
1424
1422.51
1421.1
1419.76
1418.5
1417.31
1416.18
1415.12
1414.12
1413.19
1412.29
1411.45
1410.63
1409.85
1409.11
1408.41
1407.74
1407.11
1406.52
1405.97
1405.45
1404.97
1404.53
1404.13
1403.76
1403.42
1403.14
1402.86
1402.64
1402.41
1402.27
1402.07
1402.06
1401.95
1402.22
1402.69
1403.85
2454.74
2305.68
2580.44
2808.67
2934.22
3010.01
2994.58
2967.45
3014.83
3085.64
3150.03
3196.61
3222.41
3229.88
3222.22
3203.95
3178.36
3148.8
3117.79
3086.34
3054.82
3023.05
2991.97
2961.67
2933.61
2907.2
2882.91
2860.48
2839.91
2820.98
2803.65
2787.82
2773.39
2760.22
2748.2
2737.21
2727.14
2717.94
2709.48
2701.76
2694.61
2688.06
2682
2676.3
2670.91
2665.81
2660.99
2656.44
2652.17
2648.16
2644.41
2640.9
2637.62
2634.57
2631.73
2629.08
2626.6
2624.29
2622.12
2620.1
2618.18
2616.4
2614.72
2613.13
2611.67
2610.28
2609
2607.8
2606.71
2605.68
2604.74
2603.89
2603.1
2602.38
2601.71
2601.1
2600.53
2600.01
2599.52
2599.09
2598.69
2598.35
2598.05
2597.8
2597.6
2597.44
2597.33
2597.27
2597.24
2597.27
2597.33
2597.44
2597.55
2597.76
2597.92
2598.33
2598.52
2599.46
2600.42
2602.42
6588.08
7481.93
7876.77
7936
7826.39
7629.93
7415.07
7222.09
7053.54
6914.35
6805.38
6723.41
6664.03
6621.62
6591.85
6570.23
6554.28
6541.58
6531.21
6522.48
6514.92
6508.91
6504.01
6500.33
6497.42
6495.1
6493.31
6491.84
6490.47
6489.03
6487.34
6485.47
6483.4
6481.23
6478.93
6476.61
6474.25
6471.93
6469.66
6467.49
6465.43
6463.5
6461.71
6460.09
6458.62
6457.29
6456.06
6454.94
6453.9
6452.96
6452.1
6451.33
6450.67
6450.13
6449.7
6449.38
6449.18
6449.09
6449.12
6449.25
6449.5
6449.83
6450.27
6450.8
6451.42
6452.11
6452.9
6453.77
6454.73
6455.76
6456.89
6458.1
6459.38
6460.74
6462.18
6463.67
6465.24
6466.85
6468.52
6470.22
6471.97
6473.74
6475.56
6477.41
6479.3
6481.22
6483.19
6485.19
6487.25
6489.32
6491.46
6493.61
6495.85
6498.05
6500.43
6502.58
6504.92
6506.74
6507.98
6507.89
5490.88
3367.79
2415.38
1948.4
1665.37
1480.81
1346.88
1246.01
1163.94
1095.61
1037.2
985.888
940.036
898.604
860.798
825.752
793.043
762.104
732.469
704.056
676.675
650.284
624.902
600.53
577.097
554.66
533.186
512.698
493.16
474.548
456.863
440.142
424.352
409.44
395.346
382.002
369.358
357.363
345.97
335.136
324.821
314.993
305.621
296.679
288.145
279.992
272.206
264.76
257.642
250.824
244.303
238.042
232.051
226.28
220.754
215.404
210.288
205.295
200.541
195.849
191.414
186.967
182.817
178.571
174.677
170.596
166.931
163.016
159.557
155.832
152.545
149.04
145.924
142.663
139.752
136.734
134.08
131.343
128.991
126.539
124.512
122.317
120.676
118.698
117.437
115.596
114.713
112.96
112.495
110.73
110.563
108.758
108.779
107.19
107.261
106.075
105.899
105.186
104.823
104.667
1537.96
2572.48
2358.19
1985.74
1702.02
1501.93
1354.87
1243.74
1154.11
1081.11
1019.83
966.816
920.524
879.589
842.859
809.25
778.144
748.884
720.99
694.312
668.633
643.839
619.877
596.74
574.303
552.659
531.752
511.726
492.411
473.947
456.187
439.411
423.615
408.711
394.622
381.272
368.612
356.592
345.162
334.28
323.91
314.021
304.584
295.576
286.973
278.754
270.902
263.392
256.214
249.338
242.762
236.45
230.411
224.593
219.026
213.636
208.486
203.459
198.677
193.958
189.501
185.035
180.871
176.613
172.712
168.63
164.967
161.063
157.618
153.92
150.66
147.199
144.126
140.93
138.078
135.144
132.566
129.924
127.661
125.311
123.371
121.275
119.702
117.816
116.582
114.816
113.906
112.214
111.67
109.954
109.668
107.885
107.756
106.154
106.07
104.817
104.517
103.628
103.197
102.733
1129.48
1419.72
1804.53
1801.48
1642.52
1475.7
1336.87
1225.27
1133.66
1058.3
995.299
941.388
895.032
854.655
818.918
786.626
757.048
729.408
703.32
678.513
654.695
631.708
609.426
587.809
566.71
546.242
526.298
507.125
488.452
470.543
453.104
436.538
420.926
406.18
392.221
378.977
366.404
354.452
343.07
332.221
321.87
311.988
302.551
293.537
284.925
276.693
268.827
261.304
254.11
247.221
240.631
234.306
228.254
222.426
216.85
211.451
206.295
201.263
196.479
191.758
187.304
182.842
178.687
174.442
170.558
166.5
162.865
159
155.596
151.955
148.753
145.372
142.377
139.287
136.534
133.727
131.267
128.767
126.634
124.428
122.613
120.656
119.178
117.415
116.224
114.561
113.626
112.017
111.386
109.733
109.321
107.564
107.29
105.665
105.442
104.101
103.706
102.613
102.142
101.345
895.353
846.747
1029.28
1250.55
1340.43
1313.68
1239.08
1156.54
1080.03
1012.59
954.456
904.23
860.597
822.402
788.638
758.258
730.536
704.729
680.495
657.537
635.531
614.332
593.782
573.745
554.111
535.017
516.314
498.296
480.645
463.636
447.032
431.058
415.873
401.46
387.77
374.748
362.371
350.584
339.34
328.606
318.353
308.558
299.198
290.253
281.705
273.533
265.722
258.251
251.106
244.263
237.718
231.436
225.424
219.634
214.096
208.734
203.613
198.616
193.869
189.184
184.77
180.348
176.237
172.04
168.208
164.211
160.64
156.853
153.53
149.99
146.891
143.64
140.773
137.843
135.244
132.623
130.337
128.037
126.086
124.08
122.431
120.658
119.303
117.698
116.559
115.023
114.057
112.548
111.816
110.235
109.683
107.953
107.53
105.869
105.52
104.068
103.602
102.277
101.795
100.642
675.178
655.999
666.723
732.607
836.352
921.865
960.609
959.758
936.402
903.186
867.524
833.227
801.181
771.587
744.365
719.136
695.473
673.106
651.683
631.129
611.24
591.97
573.193
554.836
536.788
519.207
501.957
485.309
468.907
452.991
437.529
422.483
408.021
394.168
380.92
368.269
356.218
344.704
333.691
323.158
313.087
303.462
294.261
285.47
277.069
269.039
261.365
254.027
247.01
240.29
233.862
227.694
221.79
216.104
210.666
205.4
200.372
195.465
190.806
186.209
181.884
177.553
173.533
169.435
165.704
161.822
158.365
154.714
151.528
148.152
145.219
142.167
139.499
136.803
134.432
132.073
130.033
128.005
126.299
124.553
123.115
121.57
120.359
118.939
117.851
116.457
115.44
114.04
113.175
111.67
110.948
109.241
108.656
106.943
106.47
104.88
104.362
102.779
102.306
100.782
530.55
531.1
526.786
527.664
540.645
566.647
598.741
629.799
653.243
668.128
674.714
675.742
672.696
666.545
657.881
647.303
635.086
621.742
607.339
592.299
576.756
560.998
545.03
529.168
513.303
497.632
482.093
466.892
451.959
437.371
423.25
409.499
396.185
383.237
370.716
358.687
347.181
336.106
325.464
315.266
305.507
296.181
287.269
278.76
270.633
262.871
255.456
248.37
241.595
235.108
228.902
222.947
217.247
211.756
206.503
201.415
196.559
191.819
187.32
182.882
178.713
174.542
170.681
166.752
163.19
159.495
156.227
152.79
149.82
146.695
144.017
141.259
138.886
136.523
134.477
132.476
130.77
129.097
127.704
126.277
125.089
123.804
122.742
121.514
120.453
119.194
118.083
116.783
115.731
114.295
113.351
111.66
110.877
109.097
108.485
106.733
106.163
104.303
103.848
101.943
439.296
441.194
439.568
434.497
427.954
422.57
418.225
416.338
416.703
420.686
427.73
437.891
450.456
464.602
478.786
491.964
502.67
510.327
514.14
514.293
510.901
504.918
496.607
486.761
475.769
464.056
451.8
439.152
426.593
414.057
401.708
389.547
377.517
365.905
354.641
343.758
333.241
322.931
312.976
303.431
294.301
285.585
277.264
269.325
261.744
254.505
247.586
240.97
234.637
228.568
222.754
217.168
211.813
206.649
201.704
196.909
192.331
187.86
183.619
179.436
175.514
171.595
167.982
164.316
161.015
157.607
154.627
151.513
148.871
146.116
143.815
141.477
139.526
137.623
136.021
134.491
133.216
131.981
130.956
129.889
128.96
127.933
126.986
125.917
124.819
123.652
122.365
121.132
119.803
118.418
117.167
115.486
114.44
112.584
111.788
109.86
109.213
107.068
106.624
104.338
369.17
371.218
371.072
367.564
360.888
352.132
341.78
330.736
319.453
308.882
299.411
291.894
287.11
285.897
288.858
296.291
307.884
322.824
339.628
356.819
372.242
385.528
394.18
399.26
401.176
400.271
397.091
391.921
385.431
377.88
369.583
360.762
351.366
341.991
332.353
322.71
313.123
304.024
295.345
287.06
279.145
271.581
264.343
257.415
250.772
244.399
238.279
232.399
226.743
221.297
216.058
211.004
206.143
201.441
196.927
192.542
188.353
184.257
180.377
176.553
172.98
169.422
166.162
162.874
159.949
156.955
154.392
151.742
149.573
147.344
145.578
143.821
142.447
141.151
140.121
139.17
138.401
137.653
137.003
136.275
135.544
134.7
133.765
132.75
131.492
130.319
128.732
127.498
125.765
124.404
122.72
121.056
119.634
117.715
116.648
114.557
113.768
111.359
110.892
108.247
309.706
309.589
308.544
305.204
299.412
291.477
282.164
272.059
262.274
253.041
245.436
239.548
235.683
233.663
233.468
234.482
236.933
240.111
244.901
250.222
257.667
265.102
275.439
286.409
296.962
306.187
313.703
319.026
322.151
323.11
322.058
319.219
314.694
308.64
302.15
295.463
288.483
281.793
275.346
269.11
263.057
257.174
251.444
245.866
240.432
235.142
229.994
224.99
220.124
215.399
210.816
206.367
202.066
197.889
193.869
189.958
186.223
182.575
179.13
175.75
172.616
169.518
166.721
163.934
161.518
159.087
157.097
155.084
153.565
152.05
151.003
150.008
149.369
148.812
148.444
148.116
147.841
147.515
147.123
146.58
145.861
145
143.868
142.707
141.095
139.752
137.699
136.36
134.068
132.701
130.42
128.805
126.837
124.92
123.433
121.251
120.198
117.605
117.039
114.109
235.953
236.737
237.138
236.705
235.498
233.946
232.743
232.513
233.87
236.757
241.382
246.939
253.334
259.944
266.038
271.313
275.551
278.864
281.403
283.084
284.191
285.085
285.778
286.601
287.63
288.814
290.058
291.164
292.029
292.427
292.281
291.349
289.645
286.878
283.506
279.745
275.587
271.173
266.595
261.918
257.18
252.415
247.647
242.9
238.191
233.541
228.962
224.47
220.073
215.783
211.606
207.545
203.617
199.811
196.158
192.622
189.266
186.02
182.987
180.054
177.383
174.801
172.54
170.358
168.572
166.853
165.6
164.409
163.726
163.113
162.952
162.852
163.028
163.215
163.435
163.572
163.554
163.351
162.868
162.145
161.068
159.834
158.179
156.575
154.365
152.636
149.946
148.376
145.377
143.98
140.914
139.431
136.684
134.932
132.789
130.703
129.177
126.604
125.794
122.767
255.236
255.711
256.43
258.121
261.057
265.606
271.549
278.93
287.001
295.636
304.132
312.189
319.116
324.757
329.274
332.78
335.43
337.464
339
340.118
340.942
341.256
341.156
340.648
339.823
338.662
337.182
335.384
333.274
330.795
327.982
324.725
321.127
317.015
312.405
307.417
302.093
296.508
290.74
284.871
278.964
273.075
267.248
261.522
255.917
250.463
245.171
240.053
235.118
230.373
225.82
221.459
217.303
213.344
209.606
206.06
202.757
199.642
196.802
194.15
191.822
189.681
187.922
186.352
185.232
184.292
183.85
183.562
183.774
184.083
184.764
185.416
186.163
186.721
187.063
187.096
186.734
186.023
184.855
183.386
181.466
179.427
176.918
174.581
171.595
169.302
165.908
164.012
160.265
158.82
154.861
153.646
149.901
148.612
145.506
143.896
141.591
139.464
138.156
135.473
326.402
325.738
325.709
327.011
329.862
334.196
339.761
346.307
353.346
360.739
368.106
375.09
381.469
387.111
391.998
396.076
399.466
402.046
403.918
405.187
405.941
406.218
406.052
405.433
404.367
402.804
400.746
398.236
395.173
391.631
387.483
382.832
377.582
371.807
365.611
359.036
352.071
344.813
337.35
329.779
322.168
314.592
307.113
299.787
292.645
285.737
279.087
272.711
266.621
260.837
255.354
250.177
245.316
240.766
236.543
232.624
229.05
225.784
222.892
220.314
218.159
216.325
214.961
213.914
213.38
213.129
213.394
213.851
214.741
215.644
216.733
217.56
218.206
218.351
218.035
217.163
215.763
213.894
211.546
208.906
205.865
202.804
199.348
196.207
192.49
189.627
185.658
183.407
179.054
177.545
172.806
171.967
167.185
166.679
162.373
161.758
158.341
157.3
155.165
153.574
385.165
384.674
384.951
386.678
390.146
395.275
401.939
409.786
418.517
427.48
436.202
444.399
451.817
458.378
463.967
468.641
472.377
475.279
477.323
478.617
479.122
478.921
477.99
476.387
474.062
471.084
467.445
463.171
458.276
452.815
446.746
440.206
433.135
425.693
417.979
409.941
401.718
393.39
385.005
376.616
368.254
359.961
351.784
343.766
335.924
328.32
320.984
313.929
307.179
300.769
294.702
288.991
283.65
278.685
274.11
269.921
266.157
262.799
259.907
257.442
255.496
253.988
253.03
252.48
252.475
252.787
253.57
254.475
255.644
256.604
257.463
257.713
257.499
256.471
254.867
252.525
249.703
246.359
242.692
238.782
234.659
230.622
226.365
222.541
218.289
214.958
210.604
208.017
203.301
201.712
196.469
196.009
190.371
190.845
185.278
186.166
181.359
182.163
178.851
179.402
455.499
455.359
456.069
458.394
462.701
468.941
476.909
486.303
496.619
507.464
518.201
528.462
537.885
546.18
553.137
558.689
562.752
565.399
566.587
566.451
564.95
562.252
558.412
553.519
547.71
541.114
533.922
526.216
518.179
509.809
501.284
492.612
483.918
475.187
466.376
457.516
448.737
440.05
431.464
422.995
414.642
406.421
398.364
390.484
382.782
375.32
368.126
361.188
354.539
348.224
342.252
336.633
331.386
326.522
322.068
318.035
314.472
311.379
308.813
306.751
305.271
304.299
303.906
303.934
304.461
305.23
306.317
307.314
308.291
308.701
308.664
307.639
305.965
303.253
300.02
295.946
291.613
286.743
281.852
276.765
271.761
266.906
262.084
257.752
253.172
249.469
244.915
242.052
237.248
235.565
230.172
230.026
223.901
225.406
218.756
221.584
215.224
218.793
213.952
218.141
547.075
547.434
548.856
552.292
558.283
566.784
577.617
590.332
604.369
619
633.385
646.859
658.782
668.538
675.874
680.573
682.639
682.154
679.297
674.331
667.482
659.133
649.542
638.988
627.852
616.306
604.661
593.014
581.554
570.346
559.532
549.094
539.082
529.461
520.162
511.203
502.499
494.01
485.726
477.647
469.751
462.048
454.567
447.296
440.219
433.412
426.893
420.601
414.599
408.95
403.639
398.656
394.031
389.78
385.947
382.556
379.67
377.295
375.486
374.218
373.552
373.392
373.758
374.446
375.472
376.524
377.61
378.252
378.478
377.7
376.145
373.315
369.81
365.161
360.19
354.356
348.606
342.325
336.417
330.32
324.705
319.244
314.121
309.43
304.693
300.724
296.195
293.171
288.586
286.837
281.736
281.817
275.805
278.253
271.086
276.102
268.362
275.755
269.16
279.056
688.254
689.311
691.755
696.935
705.673
717.961
733.508
751.511
771.084
790.675
809.196
825.148
837.594
845.69
849.311
848.332
843.233
834.449
822.74
808.751
793.174
776.632
759.603
742.567
725.866
709.608
694.097
679.247
665.221
652.041
639.695
628.173
617.402
607.335
597.915
589.083
580.707
572.701
565.019
557.628
550.491
543.61
537.012
530.666
524.533
518.71
513.238
507.961
502.945
498.356
494.142
490.218
486.636
483.431
480.668
478.38
476.634
475.428
474.796
474.695
475.144
475.999
477.201
478.486
479.794
480.771
481.352
481.031
479.818
477.2
473.604
468.627
463.091
456.44
449.771
442.294
435.309
427.83
421.176
414.315
408.363
402.523
397.339
392.425
387.757
383.737
379.541
376.582
372.608
370.957
366.729
367.048
362.027
365.258
358.688
365.831
357.635
369.847
361.643
379.892
930.649
932.685
936.613
944.582
957.809
976.17
998.646
1023.68
1049.15
1072.49
1092.03
1105.2
1111.24
1109.64
1101.08
1086.22
1066.68
1043.58
1018.46
992.422
966.378
941.066
916.704
893.821
872.362
852.452
834.23
817.389
802.011
787.936
775.029
763.21
752.367
742.459
733.377
725.044
717.335
710.15
703.409
697.051
691.04
685.353
680.007
674.957
670.144
665.677
661.641
657.798
654.207
651.098
648.386
645.933
643.825
642.121
640.901
640.193
640.046
640.431
641.329
642.648
644.33
646.169
647.992
649.489
650.508
650.724
649.972
647.838
644.359
639.293
633.241
625.919
618.269
609.702
601.468
592.595
584.626
576.263
569.197
561.986
556.095
550.166
545.18
540.355
536.176
532.543
529.177
526.776
524.018
522.945
520.409
521.272
518.411
522.38
518.137
526.96
520.525
537.985