/*--------------------------------*- C++ -*----------------------------------*\
| =========                 |                                                 |
| \\      /  F ield         | OpenFOAM: The Open Source CFD Toolbox           |
|  \\    /   O peration     | Version:  v2012                                 |
|   \\  /    A nd           | Website:  www.openfoam.com                      |
|    \\/     M anipulation  |                                                 |
\*---------------------------------------------------------------------------*/
FoamFile
{
    version     2.0;
    format      ascii;
    class       volScalarField;
    location    "0.029";
    object      omega.air;
}
// * * * * * * * * * * * * * * * * * * * * * * * * * * * * * * * * * * * * * //

dimensions      [0 0 -1 0 0 0 0];


internalField   nonuniform List<scalar> 
1900
(
2499.97
2684.38
3045.55
3254.35
3662.2
3891.94
4339.69
4585.3
5062.81
5317.8
2750.35
2642.94
2561.75
2470.17
2405.63
2330.54
2282.36
2226.38
2195.25
2175.91
2745.51
2646.78
2552.52
2467.47
2385.03
2311.2
2238.43
2173.98
2109.21
2052.86
2745.95
2645.84
2552.74
2466.05
2385.04
2309.26
2238.14
2171.35
2108.43
2049.13
2745.98
2645.72
2552.69
2465.85
2384.91
2309.01
2237.93
2171.07
2108.13
2048.83
2745.99
2645.7
2552.71
2465.83
2384.93
2308.99
2237.94
2171.07
2108.14
2048.85
2746.15
2645.6
2552.98
2465.79
2385.29
2309.02
2238.37
2171.17
2108.63
2049.03
2746.99
2645.03
2554.3
2465.44
2387.12
2308.9
2240.84
2171.39
2111.96
2049.9
2748.37
2644.77
2559.81
2471.76
2404.19
2331.56
2281.99
2225.91
2196.13
2168.35
2446.83
2710.7
2986.65
3283.51
3596.86
3926.15
4269.64
4624.28
4991
5360.09
9254.78
12426.2
12412.3
11857.4
10678.3
9521.18
8528.29
7673.16
6952.94
6365.81
5903.52
5526.61
5222.49
4959.69
4724.46
4514.8
4324.9
4153.98
4004.15
3852.38
3704.83
3569.76
3430.41
3284.29
3144.86
3017.4
2907.34
2814.6
2735.76
2673.81
2631.36
2595.01
2538.36
2449.92
2337.09
2212.15
2084.17
1960.44
1846.26
1743.74
1652.67
1571.92
1500.08
1435.8
1377.86
1325.22
1276.99
1232.44
1190.97
1152.03
1115.2
1080.08
1046.34
1013.61
981.72
950.441
919.298
887.905
856.043
823.662
790.871
757.887
724.92
692.094
659.45
627.084
595.216
564.111
534.27
506.46
481.481
459.896
441.873
427.196
415.423
406.054
398.627
392.731
388.012
384.161
380.935
378.154
375.705
373.528
371.602
369.916
368.471
367.257
366.263
365.466
364.843
364.365
364.008
363.742
363.553
363.413
363.321
363.249
363.213
363.169
2280.81
2619.25
3299.07
4104.38
4309.52
4214.64
3963.46
3627.89
3336.82
3109.94
2949.24
2827.02
2742.49
2690.44
2648.43
2646.69
2656.36
2683.42
2742.55
2824.97
2920.65
3043.35
3092.02
3080.58
3037.32
2947.95
2850.79
2764.93
2688.46
2623.06
2571.96
2517.33
2432.66
2311.31
2165.55
2010.12
1857.54
1716.04
1589.15
1478.38
1382.46
1298.64
1224.38
1157.65
1096.95
1041.27
989.972
942.639
898.935
858.563
821.247
786.725
754.727
724.961
697.104
670.91
646.209
622.892
600.903
580.234
560.906
542.933
526.293
510.923
496.74
483.66
471.605
460.492
450.247
440.795
432.06
423.973
416.491
409.611
403.354
397.745
392.78
388.425
384.62
381.292
378.374
375.806
373.546
371.566
369.848
368.379
367.146
366.133
365.318
364.676
364.181
363.807
363.531
363.329
363.186
363.083
363.015
362.962
362.936
362.904
1983.65
1920.84
1858.33
1815.3
1794.24
1782.06
1759.69
1722.78
1677.07
1628.14
1582.84
1538.57
1500.94
1467.06
1438.57
1414.54
1400.22
1402.09
1414.73
1450.33
1526.11
1660.93
1867.45
2159.08
2447.79
2608.24
2628.42
2613.15
2571.24
2514.55
2458.01
2378.9
2249.02
2062.04
1832.38
1605.69
1414.72
1269.4
1157.74
1067.92
992.918
929.001
873.954
826.329
785.065
749.286
718.208
691.118
667.359
646.358
627.614
610.697
595.266
581.108
568.036
555.89
544.537
533.87
523.799
514.247
505.143
496.421
488.026
479.912
472.045
464.396
456.941
449.659
442.534
435.554
428.715
422.032
415.544
409.323
403.458
398.028
393.085
388.645
384.696
381.205
378.131
375.436
373.088
371.063
369.341
367.897
366.711
365.754
364.998
364.411
363.966
363.634
363.393
363.219
363.099
363.012
362.957
362.915
362.894
362.869
1981.94
1909.72
1842.87
1781.2
1724.45
1671.64
1621.98
1574.07
1527.89
1482.36
1438.56
1396.15
1353.85
1316.76
1276.88
1241.12
1210.52
1172.65
1145.13
1122.05
1087.62
1076.7
1086.23
1131.45
1244.45
1499.79
1815.56
2057.05
2151.49
2148.94
2101.11
1960.39
1684.63
1441.5
1275.28
1166.16
1083.42
1008.63
943.862
888.702
842.119
802.907
769.814
741.678
717.479
696.398
677.796
661.159
646.117
632.372
619.721
608.019
597.148
586.995
577.482
568.554
560.174
552.297
544.848
537.711
530.741
523.801
516.794
509.63
502.199
494.374
486.08
477.321
468.191
458.845
449.449
440.153
431.097
422.443
414.336
406.888
400.175
394.22
389.001
384.469
380.568
377.235
374.414
372.048
370.087
368.48
367.183
366.149
365.342
364.725
364.262
363.923
363.679
363.508
363.388
363.307
363.253
363.217
363.196
363.179
1981.55
1909.27
1842.19
1779.99
1722.28
1668.18
1617.84
1569.83
1523.87
1479.12
1435.46
1393.71
1351.79
1314.21
1275.25
1239.29
1207
1170.87
1141.12
1112.96
1078.62
1054.65
1030.63
997.668
987.046
994.922
1032.14
1158.03
1268.92
1276.22
1253.49
1173.53
1105.17
1066.77
1061.05
1063.37
1062.42
1057.76
1047.4
1023.61
991.227
956.525
922.65
891.366
863.429
839.072
818.202
800.423
785.246
772.301
761.368
752.231
744.66
738.438
733.408
729.46
726.484
724.279
722.547
720.889
718.853
716.078
712.38
707.482
700.776
691.445
678.908
662.805
643.113
620.234
594.88
568.002
540.717
514.139
489.258
466.808
447.223
430.642
416.923
405.779
396.864
389.821
384.309
380.021
376.698
374.133
372.172
370.692
369.597
368.803
368.239
367.847
367.578
367.402
367.289
367.219
367.175
367.165
367.167
367.2
1981.54
1909.25
1841.97
1779.53
1721.72
1667.73
1617.73
1570.3
1525
1481.75
1439.79
1399.63
1361.62
1325.3
1290.95
1258.39
1227.74
1197.54
1168.36
1140.31
1110.04
1080.07
1052.01
1022.4
994.184
972.83
953.547
931.684
920.767
921.33
930.771
964.91
1045.98
1236.22
1431.89
1558.61
1598.39
1596.06
1575.74
1521.41
1459.93
1401.47
1349.51
1305.31
1268.81
1239.2
1215.42
1196.4
1181.2
1169.14
1159.59
1152.11
1146.32
1141.84
1138.33
1135.59
1133.38
1131.37
1129.21
1126.65
1123.52
1119.55
1114.31
1107.4
1098.53
1087.24
1072.67
1053.66
1028.86
997.141
958.136
912.373
861.289
807.109
752.443
699.634
650.506
606.407
568.107
535.855
509.468
488.48
472.249
460.045
451.099
444.727
440.381
437.611
435.979
435.156
434.887
434.885
434.968
435.247
435.531
435.894
436.132
436.547
436.783
437.468
1982.14
1909.42
1842.5
1779.54
1722.44
1668.75
1621.55
1578.73
1541.03
1508.94
1479.76
1456.21
1435.82
1417.71
1403.8
1390.43
1378.03
1365.59
1349.53
1329.3
1305.14
1272.81
1234.5
1197.45
1161.97
1120.8
1085.26
1079.24
1089.6
1133
1246.63
1518.52
1923.52
2260.47
2445.19
2481.22
2465
2403.06
2289.4
2176.06
2072.63
1982.44
1906.28
1843.29
1791.76
1749.67
1715.03
1686.21
1662.05
1641.55
1623.79
1608.06
1593.93
1581.1
1569.16
1557.81
1546.85
1536.25
1525.99
1515.93
1505.87
1495.82
1486.06
1476.96
1468.6
1460.85
1453.53
1446.29
1437.99
1426.57
1409.79
1385.94
1354.31
1315.68
1272.11
1226.41
1181.43
1139.51
1102.18
1070.38
1044.67
1025.29
1012.22
1005.1
1002.78
1002.84
1004.1
1008.07
1013.28
1018.56
1023.46
1027.95
1031.75
1035.1
1037.68
1040.04
1041.61
1043.29
1044.09
1046.17
1987.62
1911.61
1852.75
1790.61
1752.86
1718
1719.2
1731.42
1760.04
1810.98
1867.66
1933.49
1996.78
2054.92
2112.02
2156.18
2191.87
2216.2
2218.98
2214.21
2198.99
2165.02
2125.29
2074.07
2010.45
1969.9
1967.98
1985.76
2048.71
2204.26
2580.66
3074.6
3534.37
3780.4
3796.06
3740.39
3561.38
3332.56
3114.34
2923.32
2763.24
2631.15
2523.48
2436.8
2367.48
2311.98
2267.15
2230.27
2199.19
2172.52
2149.23
2128.45
2109.58
2092.25
2076
2060.57
2045.87
2031.93
2018.89
2006.92
1996.02
1986.46
1979.21
1975.33
1974.42
1974.83
1977.22
1984.61
2001.24
2023.4
2048.07
2071.39
2089.98
2103.04
2112.11
2118.73
2124.48
2130.6
2137.6
2145.4
2154.13
2164.32
2175.97
2188.41
2200.9
2212.87
2223.84
2233.53
2241.83
2248.83
2254.54
2259.16
2262.73
2265.56
2267.58
2269.29
2270.39
2271.55
2272.17
2274.03
2171.07
2194.12
2252.47
2371.42
2558.72
2803.98
3088.24
3388.65
3674.87
3931.29
4141.45
4305.22
4415.86
4489.64
4529.16
4526.55
4509.91
4471.12
4410.75
4344.84
4270.64
4186.55
4102.79
4028.7
3985.29
3982.71
3998.51
4056.2
4197.64
4515.9
5103.26
5720.18
6091.18
6151.83
6081.39
5823.04
5408.28
4999.05
4641.97
4354.29
4132.45
3966.2
3843
3752.03
3684.92
3634.98
3596.93
3566.81
3541.82
3519.85
3499.43
3479.55
3459.93
3440.91
3422.34
3404.4
3387.42
3371.75
3358.6
3350.47
3348.59
3349.73
3354.81
3368.44
3389.1
3413.53
3440.68
3469.12
3497.6
3525.41
3552.68
3580.13
3608.15
3636.77
3665.61
3693.62
3719.82
3744.12
3766.66
3787.5
3806.65
3824.16
3840.11
3854.57
3867.53
3878.92
3888.67
3896.86
3903.62
3909.14
3913.59
3917.14
3919.86
3922.01
3923.54
3924.93
3925.62
3926.8
3927.36
3929.88
5810.3
6331.92
6856.82
7357.28
7841.7
8278.33
8668.82
8988.73
9243.9
9421.18
9535.77
9582.29
9571.36
9535.05
9459.01
9355.04
9233.59
9108.58
8984.71
8863.97
8761.91
8684.7
8619.34
8578.61
8571.52
8577.25
8587.45
8585.06
8559.85
8470.54
8202.86
7638.91
7105.98
6757.82
6613.18
6599.59
6627.39
6680.66
6710.12
6725.38
6733.91
6739.43
6743.15
6744.89
6744.97
6744.51
6743.06
6739.9
6736.26
6732.66
6729.47
6726.71
6724.09
6721.35
6718.38
6715.06
6711.07
6705.85
6698.86
6689.74
6678.22
6663.96
6646.62
6626.17
6602.91
6577.56
6551.14
6524.82
6499.73
6476.87
6457.02
6440.79
6428.36
6419.71
6414.61
6412.63
6412.66
6414.5
6418.7
6423.32
6428.3
6433.61
6438.95
6443.96
6448.41
6452.25
6455.45
6458.06
6460.12
6461.73
6462.95
6463.85
6464.51
6464.98
6465.3
6465.5
6465.62
6465.58
6465.55
6465
1794.02
1694.97
1707.95
1760.26
1794.32
1755.51
1540.22
6067.83
12047
6377.83
3905.93
3604.2
4023.6
4741.2
6288.53
9853.47
12660.6
8944.7
6068.52
4843.01
4624.57
5105.94
6830.1
13116.7
12088.4
9955.44
7552.25
5991.34
5407.59
5531.76
7031.86
15666.5
11032.4
9986.34
8392.46
6929.05
6083.69
5936.57
7147.86
17030.1
10135.7
9751.75
8727.04
7426.63
6480.25
6189.83
7285.52
17589.8
9309.23
9220.78
8649.77
7557.86
6625.04
6271.04
7298.18
17713.7
8580.7
8650.51
8332.12
7459.13
6581.7
6230.77
7217.38
17521.8
7926.65
8099.81
7874.47
7171.9
6387.99
6060.19
7004.95
16896.4
7346.74
7572.87
7398.9
6794.41
6103.84
5829.9
6752.99
16136.9
6838.32
7079.34
6930.74
6398.12
5795.86
5577.16
6482.69
15336.6
6389.67
6620.32
6486.36
6013.51
5487.68
5320.28
6217.18
14641.2
5990.4
6196.51
6070.27
5648.68
5193.09
5078.59
5989.9
14185.2
5632.53
5807.35
5684.55
5307.19
4914.05
4846.93
5769.96
13738.3
5309.06
5451.26
5329.16
4989.71
4652.05
4628.89
5564.72
13329.1
5015.3
5124.1
4999.04
4692.53
4406.99
4423.99
5375.63
12957.6
4745.59
4823.73
4695.83
4414.81
4173.92
4223.76
5189.85
12599.3
4498.8
4547.76
4416.06
4155.6
3952.46
4030.72
5005.52
12247.6
4272.25
4290.49
4154.23
3915.39
3746.01
3851.83
4838.98
11923.2
4056.12
4049.24
3908.21
3692.49
3556.52
3691.85
4697.55
11637.9
3851.83
3825.16
3678.46
3486.95
3386.57
3555.57
4587.04
11400.6
3658.1
3612.82
3464.91
3301.36
3240.44
3447.96
4511.46
11213.2
3471.08
3409.76
3269.31
3139.55
3121.64
3371.81
4470.9
11076.7
3293.36
3221.18
3098.71
3006.61
3030.6
3325.09
4458.23
10990.5
3132.78
3058.14
2959.96
2904.44
2966.2
3298.37
4458.54
10947.2
2995.49
2927.79
2854.65
2829.99
2921.71
3280.73
4459.18
10934.5
2884.21
2828.47
2777.09
2775.43
2887.34
3262.21
4452.86
10936.9
2795.2
2752.29
2718.09
2731.72
2853.96
3233.49
4428.53
10949.8
2724.31
2694.31
2672.63
2693.61
2815.36
3186.81
4371.1
10955.9
2672.85
2654.43
2639.71
2659.72
2770.15
3121.03
4281.89
10937.6
2641.56
2631.2
2618.02
2630.42
2721.35
3042.43
4168.58
10875
2619.7
2614.91
2600.84
2602.17
2671.2
2959.21
4044.6
10768.7
2585.87
2589.71
2575.36
2566.12
2616.81
2875.01
3921.07
10618.1
2524.28
2542.16
2530.16
2514.87
2553.43
2790.62
3806.75
10432.2
2435.68
2469.09
2461.59
2446.32
2479.6
2707.39
3708.51
10228.2
2328.32
2375.24
2374.49
2363.4
2397.8
2627.75
3629.41
10024.8
2211.16
2268.3
2276.12
2271.26
2312.76
2554.86
3571.17
9836.64
2091.96
2156.06
2172.33
2175.96
2229.95
2491.28
3533.22
9673.74
1977.12
2045.15
2069.38
2083.35
2153.22
2438.09
3512.48
9538.23
1871.09
1940.82
1972.33
1997.62
2084.86
2395
3504.98
9428.85
1775.65
1846.05
1884.2
1920.92
2025.44
2360.3
3505.17
9342.46
1690.98
1761.82
1806.1
1853.73
1974.37
2331.82
3507.63
9275.52
1616.29
1687.78
1737.84
1795.62
1930.88
2308.31
3512.09
9224.91
1550.41
1622.93
1678.53
1745.68
1894.12
2289.41
3517.76
9186.1
1492.11
1566.09
1626.96
1702.61
1862.73
2273.77
3524.52
9153.45
1440.23
1516.02
1581.85
1665.14
1835.38
2259.68
3530.74
9124.51
1393.7
1471.56
1542.02
1632.17
1811.2
2247.08
3537.74
9099.63
1351.64
1431.71
1506.5
1602.84
1789.67
2236.11
3546.32
9078.85
1313.32
1395.67
1474.46
1576.43
1770.35
2226.73
3556.52
9061.92
1278.14
1362.78
1445.3
1552.44
1752.93
2218.85
3568.13
9048.4
1245.6
1332.5
1418.52
1530.47
1737.14
2212.3
3580.84
9037.83
1215.28
1304.4
1393.68
1510.12
1722.64
2206.75
3594.43
9029.53
1186.83
1278.11
1370.43
1491.08
1709.15
2202.05
3608.99
9022.64
1159.89
1253.27
1348.44
1473.01
1696.56
2198.43
3624.9
9016.45
1134.19
1229.6
1327.49
1455.75
1684.66
2195.6
3642.33
9010.62
1109.48
1206.76
1307.25
1438.96
1673.18
2193.22
3661.65
9004.98
1085.49
1184.63
1287.57
1422.6
1662.24
2192.41
3683.45
8999.42
1061.79
1163
1268.27
1406.54
1651.77
2192.61
3707.57
8993.73
1037.95
1141.56
1249.2
1390.7
1641.68
2193.51
3733.87
8987.68
1013.65
1120.09
1230.32
1375.23
1632.11
2195.62
3763.57
8980.91
988.646
1098.4
1211.45
1359.98
1623.33
2200.11
3798.61
8972.94
962.785
1076.32
1192.42
1345.02
1615.59
2207.33
3838.92
8963.56
935.932
1053.66
1172.93
1330.22
1608.93
2216.97
3883.89
8952.7
907.909
1030.26
1152.49
1315.4
1603.19
2228.68
3932.49
8940.19
878.334
1005.89
1130.52
1300.3
1598.05
2242.18
3983.4
8926.36
846.342
980.003
1106.86
1284.61
1594.04
2257.57
4035.28
8911.71
811.355
952.515
1081.99
1268.07
1592.43
2275.07
4087.08
8896.78
773.208
924.145
1057.97
1251.04
1592.58
2294.9
4138.26
8882.08
731.731
895.136
1037.51
1236.52
1594.08
2317.67
4188.78
8868.13
687.129
863.938
1020.91
1229.92
1598.55
2344.17
4238.97
8855.7
640.755
828.454
1006.2
1230.36
1608.86
2375.48
4289.21
8845.42
594.975
787.504
990.794
1238.17
1634.34
2412.54
4339.54
8837.63
552.468
741.76
971.401
1255.98
1676.03
2455.47
4389.45
8832.35
515.052
693.861
946.042
1271.36
1725.13
2503.78
4437.63
8829.35
483.543
646.911
915.086
1282.02
1775.8
2555.99
4482.24
8828.17
457.977
603.4
880.005
1286.96
1823.73
2609.59
4521.98
8828.18
437.812
564.648
842.583
1287.3
1867.07
2661.81
4556.35
8829.22
422.211
530.861
804.518
1283.31
1905.4
2710.38
4585.26
8831.42
410.221
501.845
767.032
1273.84
1938.95
2753.9
4608.91
8833.86
400.959
477.178
730.809
1262.27
1968.18
2791.74
4627.76
8836.46
393.706
456.369
696.142
1249.22
1993.51
2823.83
4642.44
8839.1
387.92
438.957
663.385
1235.34
2015.28
2850.49
4653.63
8841.65
383.216
424.541
632.958
1221.22
2033.78
2872.24
4662.04
8844.04
379.341
412.757
605.27
1207.32
2049.25
2889.67
4668.29
8846.18
376.133
403.269
580.676
1194.15
2061.97
2903.42
4672.92
8848.05
373.486
395.727
559.401
1182.1
2072.22
2914.09
4676.35
8849.63
371.316
389.805
541.506
1171.46
2080.29
2922.25
4678.88
8850.96
369.558
385.218
526.834
1162.37
2086.49
2928.4
4680.75
8852.04
368.158
381.72
515.115
1154.8
2091.15
2932.98
4682.14
8852.91
367.061
379.085
505.948
1148.66
2094.56
2936.35
4683.19
8853.61
366.218
377.131
498.957
1143.82
2097.01
2938.8
4683.98
8854.16
365.58
375.691
493.696
1140.05
2098.74
2940.56
4684.58
8854.6
365.108
374.654
489.85
1137.23
2099.95
2941.82
4685.04
8854.93
364.76
373.905
487.019
1135.09
2100.79
2942.7
4685.37
8855.21
364.515
373.391
485.05
1133.57
2101.31
2943.28
4685.6
8855.41
364.334
373.015
483.569
1132.35
2101.7
2943.67
4685.76
8855.63
364.217
372.782
482.642
1131.55
2101.85
2943.9
4685.75
8855.81
364.124
372.58
481.803
1130.71
2101.83
2943.87
4685.68
8856.09
364.079
372.502
481.447
1130.16
2101.69
2943.75
4685.19
8856.42
364.022
372.357
480.656
1128.5
2100.82
2942.96
4683.66
8857.68
)
;

boundaryField
{
    frontAndBack
    {
        type            empty;
    }
    inlet
    {
        type            fixedValue;
        value           uniform 2800;
    }
    outlet
    {
        type            zeroGradient;
    }
    walls
    {
        blending        binomial2;
        n               2;
        beta1           0.075;
        type            omegaWallFunction;
        value           nonuniform List<scalar> 
228
(
2499.97
2684.38
3045.55
3254.35
3662.2
3891.94
4339.69
4585.3
5062.81
5317.8
1794.02
1694.97
1707.95
1760.26
1794.32
1755.51
1540.22
6067.83
6067.83
9853.47
13116.7
15666.5
17030.1
17589.8
17713.7
17521.8
16896.4
16136.9
15336.6
14641.2
14185.2
13738.3
13329.1
12957.6
12599.3
12247.6
11923.2
11637.9
11400.6
11213.2
11076.7
10990.5
10947.2
10934.5
10936.9
10949.8
10955.9
10937.6
10875
10768.7
10618.1
10432.2
10228.2
10024.8
9836.64
9673.74
9538.23
9428.85
9342.46
9275.52
9224.91
9186.1
9153.45
9124.51
9099.63
9078.85
9061.92
9048.4
9037.83
9029.53
9022.64
9016.45
9010.62
9004.98
8999.42
8993.73
8987.68
8980.91
8972.94
8963.56
8952.7
8940.19
8926.36
8911.71
8896.78
8882.08
8868.13
8855.7
8845.42
8837.63
8832.35
8829.35
8828.17
8828.18
8829.22
8831.42
8833.86
8836.46
8839.1
8841.65
8844.04
8846.18
8848.05
8849.63
8850.96
8852.04
8852.91
8853.61
8854.16
8854.6
8854.93
8855.21
8855.41
8855.63
8855.81
8856.09
8856.42
8857.68
2446.83
2710.7
2986.65
3283.51
3596.86
3926.15
4269.64
4624.28
4991
5360.09
5810.3
6331.92
6856.82
7357.28
7841.7
8278.33
8668.82
8988.73
9243.9
9421.18
9535.77
9582.29
9571.36
9535.05
9459.01
9355.04
9233.59
9108.58
8984.71
8863.97
8761.91
8684.7
8619.34
8578.61
8571.52
8577.25
8587.45
8585.06
8559.85
8470.54
8202.86
7638.91
7105.98
6757.82
6613.18
6599.59
6627.39
6680.66
6710.12
6725.38
6733.91
6739.43
6743.15
6744.89
6744.97
6744.51
6743.06
6739.9
6736.26
6732.66
6729.47
6726.71
6724.09
6721.35
6718.38
6715.06
6711.07
6705.85
6698.86
6689.74
6678.22
6663.96
6646.62
6626.17
6602.91
6577.56
6551.14
6524.82
6499.73
6476.87
6457.02
6440.79
6428.36
6419.71
6414.61
6412.63
6412.66
6414.5
6418.7
6423.32
6428.3
6433.61
6438.95
6443.96
6448.41
6452.25
6455.45
6458.06
6460.12
6461.73
6462.95
6463.85
6464.51
6464.98
6465.3
6465.5
6465.62
6465.58
6465.55
6465
)
;
    }
}


// ************************************************************************* //
