/*--------------------------------*- C++ -*----------------------------------*\
| =========                 |                                                 |
| \\      /  F ield         | OpenFOAM: The Open Source CFD Toolbox           |
|  \\    /   O peration     | Version:  v2012                                 |
|   \\  /    A nd           | Website:  www.openfoam.com                      |
|    \\/     M anipulation  |                                                 |
\*---------------------------------------------------------------------------*/
FoamFile
{
    version     2.0;
    format      ascii;
    class       surfaceScalarField;
    location    "0.23";
    object      phi.air;
}
// * * * * * * * * * * * * * * * * * * * * * * * * * * * * * * * * * * * * * //

dimensions      [0 3 -1 0 0 0 0];
oriented        oriented;


internalField   nonuniform List<scalar> 
10964
(
0.000657104
2.5129e-05
0.000628912
2.7351e-05
0.000601301
2.67679e-05
0.000575034
2.54208e-05
0.000551116
2.30694e-05
0.000530169
2.00972e-05
0.00051251
1.68084e-05
0.0004979
1.37571e-05
0.000485929
1.11177e-05
0.000476253
8.82162e-06
0.000468669
6.72887e-06
0.000462688
5.12619e-06
0.000458079
3.75346e-06
0.000454422
2.8008e-06
0.00045153
2.03606e-06
0.000449213
1.46116e-06
0.000447245
1.11192e-06
0.000445609
7.79913e-07
0.000444193
5.60384e-07
0.000442979
3.57949e-07
0.000441912
2.11045e-07
0.00044102
3.56546e-08
0.000440274
-1.09581e-07
0.00043966
-2.41549e-07
0.000439158
-3.54625e-07
0.000438738
-4.3519e-07
0.000438397
-5.15421e-07
0.000438109
-5.66961e-07
0.000437853
-5.99746e-07
0.000437613
-6.16239e-07
0.000437385
-6.27178e-07
0.000437142
-6.13062e-07
0.000436908
-6.21728e-07
0.000436673
-6.2008e-07
0.000436437
-6.19955e-07
0.000436209
-6.27627e-07
0.000435982
-6.28241e-07
0.000435765
-6.38375e-07
0.000435551
-6.41538e-07
0.000435348
-6.53231e-07
0.000435154
-6.60964e-07
0.000434971
-6.73053e-07
0.000434801
-6.85198e-07
0.000434644
-6.98196e-07
0.000434505
-7.16657e-07
0.000434379
-7.29601e-07
0.000434261
-7.37394e-07
0.000434157
-7.51315e-07
0.000434062
-7.608e-07
0.000433978
-7.72037e-07
0.000433899
-7.75869e-07
0.000433831
-7.87279e-07
0.000433766
-7.9077e-07
0.000433711
-8.01014e-07
0.000433666
-8.09929e-07
0.000433627
-8.16912e-07
0.000433602
-8.30389e-07
0.000433579
-8.32082e-07
0.000433569
-8.45217e-07
0.000433569
-8.5548e-07
0.000433573
-8.59438e-07
0.000433592
-8.75118e-07
0.000433612
-8.7495e-07
0.000433643
-8.86722e-07
0.000433681
-8.93162e-07
0.000433725
-8.99215e-07
0.000433778
-9.08461e-07
0.000433836
-9.13386e-07
0.000433903
-9.22415e-07
0.000433982
-9.34015e-07
0.000434063
-9.36266e-07
0.000434157
-9.49592e-07
0.000434254
-9.5165e-07
0.000434359
-9.60349e-07
0.000434468
-9.64874e-07
0.000434581
-9.68285e-07
0.000434701
-9.74601e-07
0.000434826
-9.80705e-07
0.000434956
-9.84502e-07
0.000435091
-9.90431e-07
0.000435232
-9.95771e-07
0.000435376
-9.99165e-07
0.000435527
-1.00598e-06
0.000435676
-1.00406e-06
0.000435833
-1.01211e-06
0.000435983
-1.00506e-06
0.000436149
-1.02113e-06
0.000436299
-1.00506e-06
0.000436487
-1.04344e-06
0.000436644
-1.01127e-06
0.000436861
-1.07241e-06
0.000437017
-1.01032e-06
0.000437238
-1.0762e-06
0.000437364
-9.80726e-07
0.000437647
-1.13772e-06
0.00043775
-9.57682e-07
0.000438146
-1.25157e-06
0.000438855
-1.56258e-06
0.000437485
5.13659e-07
-1.12037e-05
0.000447836
0.000757086
2.43228e-05
0.000754879
2.95584e-05
0.000751201
3.04463e-05
0.000745925
3.0696e-05
0.000739359
2.96361e-05
0.000731828
2.76276e-05
0.000723577
2.50595e-05
0.000714967
2.23673e-05
0.000706309
1.97753e-05
0.000697754
1.73765e-05
0.000689596
1.4887e-05
0.000681827
1.28954e-05
0.000674623
1.09578e-05
0.00066798
9.44325e-06
0.000661917
8.09919e-06
0.000656473
6.90509e-06
0.000651532
6.05338e-06
0.000647171
5.14027e-06
0.000643271
4.4607e-06
0.000639869
3.75988e-06
0.000636902
3.17843e-06
0.000634307
2.63007e-06
0.000632011
2.18687e-06
0.000629928
1.8419e-06
0.000628081
1.49141e-06
0.000626415
1.23175e-06
0.00062489
1.00953e-06
0.00062348
8.43026e-07
0.000622159
7.20395e-07
0.000620932
6.11505e-07
0.000619781
5.23554e-07
0.00061872
4.4836e-07
0.000617734
3.63521e-07
0.000616829
2.85688e-07
0.000615992
2.16159e-07
0.000615216
1.48716e-07
0.000614496
9.18658e-08
0.000613829
2.84979e-08
0.00061321
-2.21082e-08
0.000612635
-7.87097e-08
0.000612103
-1.28854e-07
0.00061161
-1.80361e-07
0.000611157
-2.32079e-07
0.000610739
-2.80348e-07
0.000610354
-3.30934e-07
0.000609994
-3.69689e-07
0.000609658
-4.01217e-07
0.000609345
-4.39238e-07
0.000609053
-4.68366e-07
0.000608783
-5.02386e-07
0.000608532
-5.24799e-07
0.000608302
-5.57217e-07
0.000608089
-5.77531e-07
0.000607896
-6.07728e-07
0.000607721
-6.35197e-07
0.000607564
-6.59722e-07
0.000607427
-6.93712e-07
0.000607304
-7.08829e-07
0.000607197
-7.38761e-07
0.00060711
-7.68303e-07
0.000607037
-7.85747e-07
0.00060698
-8.18512e-07
0.000606934
-8.28727e-07
0.000606902
-8.55379e-07
0.000606887
-8.77737e-07
0.000606882
-8.94435e-07
0.00060689
-9.15923e-07
0.000606906
-9.30167e-07
0.000606934
-9.50232e-07
0.000606975
-9.74931e-07
0.000607025
-9.8636e-07
0.000607092
-1.01589e-06
0.000607169
-1.02952e-06
0.000607262
-1.0526e-06
0.000607364
-1.06697e-06
0.000607474
-1.07804e-06
0.000607588
-1.08945e-06
0.00060771
-1.10267e-06
0.000607836
-1.10983e-06
0.000607969
-1.12378e-06
0.000608109
-1.13556e-06
0.000608259
-1.1492e-06
0.000608415
-1.16201e-06
0.000608583
-1.1721e-06
0.00060875
-1.17911e-06
0.000608933
-1.1877e-06
0.000609107
-1.19551e-06
0.000609304
-1.20234e-06
0.000609482
-1.22117e-06
0.000609694
-1.22368e-06
0.000609878
-1.25615e-06
0.000610114
-1.24603e-06
0.00061029
-1.25249e-06
0.000610574
-1.26497e-06
0.000610724
-1.28699e-06
0.000611138
-1.37241e-06
0.000611265
-1.3778e-06
0.000611969
-2.2671e-06
0.000612197
2.86155e-07
-1.5152e-05
0.000616145
0.000840344
2.13117e-05
0.000842326
2.75762e-05
0.000844306
2.84662e-05
0.000845636
2.93664e-05
0.000846204
2.90677e-05
0.000845982
2.78504e-05
0.000845038
2.60028e-05
0.000843325
2.40804e-05
0.000840905
2.21955e-05
0.000837772
2.05091e-05
0.000834016
1.86438e-05
0.000829715
1.71963e-05
0.000824934
1.57389e-05
0.000819834
1.45429e-05
0.000814513
1.34207e-05
0.000809091
1.23267e-05
0.000803702
1.14424e-05
0.000798463
1.03791e-05
0.000793415
9.50901e-06
0.000788673
8.50143e-06
0.000784264
7.58792e-06
0.000780169
6.72481e-06
0.000776468
5.88739e-06
0.000773054
5.25604e-06
0.00076997
4.5759e-06
0.000767151
4.05017e-06
0.000764556
3.60458e-06
0.000762176
3.22352e-06
0.000759967
2.92965e-06
0.000757955
2.62288e-06
0.000756087
2.39152e-06
0.000754392
2.14339e-06
0.000752827
1.92907e-06
0.000751389
1.72325e-06
0.000750068
1.53719e-06
0.000748844
1.37283e-06
0.000747713
1.22259e-06
0.000746668
1.07402e-06
0.000745703
9.42732e-07
0.000744809
8.155e-07
0.000743984
6.95611e-07
0.000743221
5.83238e-07
0.000742519
4.69519e-07
0.000741863
3.75934e-07
0.000741246
2.86198e-07
0.000740665
2.10509e-07
0.000740121
1.43421e-07
0.000739612
6.92278e-08
0.000739137
6.77017e-09
0.000738696
-6.13289e-08
0.000738288
-1.16234e-07
0.000737909
-1.79106e-07
0.000737562
-2.29897e-07
0.000737242
-2.8813e-07
0.000736953
-3.45684e-07
0.000736689
-3.96341e-07
0.000736451
-4.55548e-07
0.00073624
-4.97521e-07
0.000736048
-5.46952e-07
0.000735882
-6.02277e-07
0.000735738
-6.4135e-07
0.000735613
-6.93712e-07
0.000735506
-7.21528e-07
0.000735416
-7.65632e-07
0.000735346
-8.08218e-07
0.000735294
-8.42096e-07
0.000735258
-8.79476e-07
0.000735235
-9.07645e-07
0.000735228
-9.42672e-07
0.000735232
-9.79287e-07
0.000735251
-1.00559e-06
0.00073529
-1.05436e-06
0.000735346
-1.0864e-06
0.000735422
-1.12856e-06
0.000735513
-1.15768e-06
0.000735615
-1.1796e-06
0.00073572
-1.195e-06
0.000735832
-1.214e-06
0.000735947
-1.22482e-06
0.00073607
-1.24676e-06
0.000736202
-1.26757e-06
0.000736346
-1.29402e-06
0.000736501
-1.31662e-06
0.000736672
-1.34293e-06
0.000736845
-1.35188e-06
0.000737036
-1.37878e-06
0.00073722
-1.38022e-06
0.000737428
-1.40974e-06
0.000737616
-1.40966e-06
0.00073784
-1.44733e-06
0.000738036
-1.45269e-06
0.000738279
-1.48828e-06
0.000738486
-1.45988e-06
0.000738769
-1.54823e-06
0.000738982
-1.49926e-06
0.000739351
-1.7415e-06
0.00073959
-1.61687e-06
0.000740211
-2.88835e-06
0.000741361
-8.63411e-07
-1.57638e-05
0.000741972
0.000930298
1.80867e-05
0.000933065
2.48092e-05
0.000936246
2.52853e-05
0.000939315
2.62972e-05
0.00094213
2.62531e-05
0.000944665
2.53147e-05
0.000946777
2.38913e-05
0.000948516
2.23413e-05
0.000949809
2.09025e-05
0.00095071
1.96075e-05
0.000951161
1.81929e-05
0.000951132
1.72252e-05
0.000950712
1.61594e-05
0.00094989
1.53643e-05
0.00094863
1.46809e-05
0.000946926
1.40308e-05
0.000944795
1.35732e-05
0.000942216
1.29583e-05
0.000939243
1.2482e-05
0.000935882
1.18624e-05
0.000932208
1.1262e-05
0.000928286
1.0647e-05
0.000924259
9.91462e-06
0.000920191
9.32328e-06
0.00091621
8.55756e-06
0.000912367
7.89254e-06
0.000908722
7.24955e-06
0.000905336
6.61033e-06
0.000902169
6.09642e-06
0.00089927
5.52129e-06
0.00089657
5.09196e-06
0.000894088
4.62523e-06
0.000891761
4.25595e-06
0.000889581
3.90393e-06
0.000887549
3.56854e-06
0.000885653
3.26917e-06
0.000883889
2.98607e-06
0.000882249
2.71453e-06
0.00088073
2.46134e-06
0.00087932
2.22544e-06
0.000878022
1.99438e-06
0.000876815
1.78999e-06
0.000875697
1.58722e-06
0.000874657
1.41591e-06
0.000873688
1.25509e-06
0.000872787
1.11225e-06
0.000871946
9.84146e-07
0.000871162
8.52855e-07
0.000870433
7.35867e-07
0.000869756
6.15761e-07
0.00086913
5.09522e-07
0.000868548
4.02857e-07
0.000868016
3.02742e-07
0.000867521
2.06131e-07
0.000867072
1.03442e-07
0.000866662
1.4333e-08
0.000866282
-7.59123e-08
0.00086594
-1.55845e-07
0.000865627
-2.339e-07
0.000865346
-3.20641e-07
0.000865093
-3.88402e-07
0.000864865
-4.66569e-07
0.000864661
-5.17395e-07
0.00086448
-5.84431e-07
0.000864325
-6.53382e-07
0.000864194
-7.10345e-07
0.000864083
-7.68733e-07
0.000863993
-8.17392e-07
0.000863918
-8.6848e-07
0.000863862
-9.22772e-07
0.000863828
-9.72077e-07
0.000863816
-1.04173e-06
0.000863829
-1.10016e-06
0.000863866
-1.16531e-06
0.000863924
-1.21571e-06
0.000863994
-1.24967e-06
0.000864067
-1.26781e-06
0.000864143
-1.2901e-06
0.000864225
-1.30646e-06
0.000864314
-1.33602e-06
0.000864417
-1.37088e-06
0.000864534
-1.41102e-06
0.00086467
-1.45175e-06
0.000864821
-1.49413e-06
0.000864985
-1.51575e-06
0.000865161
-1.55532e-06
0.000865346
-1.56474e-06
0.000865538
-1.60156e-06
0.000865733
-1.60536e-06
0.000865934
-1.64819e-06
0.000866148
-1.66637e-06
0.000866371
-1.71114e-06
0.000866615
-1.70456e-06
0.000866864
-1.79642e-06
0.000867151
-1.78627e-06
0.000867438
-2.02938e-06
0.000867815
-1.99391e-06
0.000868284
-3.35712e-06
0.000869605
-2.18423e-06
-1.55192e-05
0.00086936
0.00102963
1.4891e-05
0.00103283
2.16013e-05
0.0010364
2.17166e-05
0.00104005
2.26484e-05
0.00104359
2.27143e-05
0.00104698
2.19278e-05
0.00105011
2.07583e-05
0.00105302
1.94325e-05
0.00105564
1.8277e-05
0.00105807
1.71819e-05
0.00106023
1.60367e-05
0.00106216
1.52864e-05
0.00106386
1.44594e-05
0.00106537
1.38552e-05
0.00106668
1.33722e-05
0.00106776
1.29536e-05
0.00106867
1.26651e-05
0.00106929
1.23322e-05
0.00106968
1.20981e-05
0.00106975
1.17922e-05
0.00106951
1.15002e-05
0.00106894
1.1219e-05
0.001068
1.0852e-05
0.0010667
1.06209e-05
0.00106502
1.02368e-05
0.00106301
9.90171e-06
0.00106071
9.55666e-06
0.00105817
9.14427e-06
0.00105547
8.79961e-06
0.00105265
8.34155e-06
0.00104976
7.98232e-06
0.00104688
7.5083e-06
0.00104404
7.09301e-06
0.00104129
6.65625e-06
0.00103863
6.22336e-06
0.0010361
5.80567e-06
0.00103369
5.39219e-06
0.00103141
4.99493e-06
0.00102926
4.60752e-06
0.00102724
4.24708e-06
0.00102535
3.88632e-06
0.00102355
3.59219e-06
0.00102183
3.30354e-06
0.00102021
3.0337e-06
0.0010187
2.77328e-06
0.00101728
2.52808e-06
0.00101596
2.30643e-06
0.00101472
2.09093e-06
0.00101357
1.88726e-06
0.00101249
1.68849e-06
0.0010115
1.50081e-06
0.00101057
1.33652e-06
0.00100972
1.15529e-06
0.00100892
9.99727e-07
0.00100819
8.41236e-07
0.00100751
6.93721e-07
0.00100686
5.7045e-07
0.00100627
4.36249e-07
0.00100572
3.15224e-07
0.00100521
1.89362e-07
0.00100474
8.06241e-08
0.0010043
-3.11214e-08
0.00100391
-1.18501e-07
0.00100353
-2.13133e-07
0.0010032
-3.22234e-07
0.00100291
-4.14829e-07
0.00100264
-5.00821e-07
0.00100241
-5.86082e-07
0.0010022
-6.58189e-07
0.00100201
-7.344e-07
0.00100185
-8.12362e-07
0.00100172
-9.07846e-07
0.00100162
-1.00865e-06
0.00100156
-1.1048e-06
0.00100153
-1.1842e-06
0.00100152
-1.23471e-06
0.00100151
-1.26099e-06
0.00100151
-1.29115e-06
0.00100152
-1.31769e-06
0.00100154
-1.35692e-06
0.00100158
-1.41171e-06
0.00100164
-1.46881e-06
0.00100173
-1.53777e-06
0.00100183
-1.59621e-06
0.00100196
-1.6451e-06
0.0010021
-1.69144e-06
0.00100226
-1.72433e-06
0.00100241
-1.75874e-06
0.00100259
-1.78287e-06
0.00100276
-1.81756e-06
0.00100296
-1.86508e-06
0.00100316
-1.90865e-06
0.00100339
-1.94029e-06
0.00100363
-2.02995e-06
0.0010039
-2.06266e-06
0.00100419
-2.31734e-06
0.00100456
-2.36189e-06
0.00100495
-3.74856e-06
0.00100613
-3.36589e-06
-1.52411e-05
0.00100585
0.00113955
1.17815e-05
0.00114322
1.79287e-05
0.00114711
1.78292e-05
0.00115114
1.8613e-05
0.00115512
1.87361e-05
0.00115896
1.80846e-05
0.00116258
1.71381e-05
0.00116599
1.60243e-05
0.00116918
1.50875e-05
0.00117219
1.41699e-05
0.001175
1.32314e-05
0.00117765
1.26306e-05
0.00118014
1.19679e-05
0.00118252
1.14817e-05
0.00118479
1.11006e-05
0.00118693
1.08113e-05
0.00118902
1.05749e-05
0.00119099
1.03627e-05
0.00119287
1.02173e-05
0.00119465
1.00168e-05
0.00119629
9.85333e-06
0.00119785
9.6685e-06
0.0011992
9.49605e-06
0.00120046
9.36531e-06
0.00120152
9.17736e-06
0.00120237
9.04447e-06
0.00120303
8.90019e-06
0.00120343
8.74096e-06
0.0012036
8.6318e-06
0.00120347
8.47395e-06
0.0012031
8.35025e-06
0.00120247
8.14312e-06
0.00120159
7.96506e-06
0.00120049
7.75534e-06
0.00119919
7.52912e-06
0.0011977
7.29108e-06
0.00119606
7.03096e-06
0.0011943
6.75703e-06
0.00119245
6.46338e-06
0.00119053
6.1644e-06
0.00118858
5.83853e-06
0.00118663
5.54167e-06
0.00118468
5.2498e-06
0.00118278
4.93463e-06
0.00118092
4.63274e-06
0.00117913
4.31582e-06
0.00117742
4.02332e-06
0.00117577
3.73878e-06
0.00117421
3.44881e-06
0.00117272
3.17298e-06
0.00117133
2.89196e-06
0.00116999
2.67569e-06
0.00116874
2.41152e-06
0.00116754
2.19958e-06
0.00116638
2.00039e-06
0.00116529
1.78105e-06
0.00116423
1.62912e-06
0.00116323
1.43243e-06
0.00116231
1.24234e-06
0.00116143
1.0659e-06
0.00116061
9.01001e-07
0.00115983
7.51478e-07
0.00115911
6.00802e-07
0.00115843
4.66577e-07
0.0011578
3.05782e-07
0.00115723
1.53068e-07
0.0011567
3.00187e-08
0.00115623
-1.10151e-07
0.00115578
-2.1217e-07
0.00115536
-3.09825e-07
0.00115497
-4.24992e-07
0.00115461
-5.49051e-07
0.00115431
-7.05091e-07
0.00115405
-8.4818e-07
0.00115383
-9.62214e-07
0.00115363
-1.04057e-06
0.00115346
-1.08532e-06
0.00115329
-1.12804e-06
0.00115315
-1.17362e-06
0.00115302
-1.22777e-06
0.00115292
-1.31309e-06
0.00115285
-1.39957e-06
0.00115282
-1.50123e-06
0.00115281
-1.59009e-06
0.00115284
-1.67135e-06
0.00115287
-1.72809e-06
0.00115294
-1.79296e-06
0.00115302
-1.83526e-06
0.00115312
-1.88289e-06
0.00115322
-1.92084e-06
0.00115335
-1.99246e-06
0.00115349
-2.05001e-06
0.00115366
-2.10768e-06
0.00115385
-2.21913e-06
0.00115407
-2.28042e-06
0.00115432
-2.57105e-06
0.00115466
-2.7027e-06
0.00115501
-4.10111e-06
0.00115604
-4.38935e-06
-1.48689e-05
0.00115566
0.0012613
8.71784e-06
0.00126542
1.38034e-05
0.00126966
1.35916e-05
0.00127409
1.41859e-05
0.00127848
1.43363e-05
0.00128274
1.38248e-05
0.00128678
1.3103e-05
0.00129058
1.22262e-05
0.00129417
1.14968e-05
0.00129756
1.07783e-05
0.00130074
1.00478e-05
0.00130379
9.58446e-06
0.00130669
9.072e-06
0.00130947
8.69875e-06
0.00131217
8.39771e-06
0.00131479
8.19233e-06
0.00131736
8.00785e-06
0.00131987
7.85238e-06
0.00132233
7.75957e-06
0.00132473
7.61348e-06
0.00132707
7.5146e-06
0.00132936
7.37169e-06
0.0013316
7.26335e-06
0.00133378
7.18327e-06
0.0013359
7.05695e-06
0.00133796
6.97975e-06
0.00133996
6.90162e-06
0.00134188
6.82473e-06
0.00134375
6.75835e-06
0.0013455
6.72773e-06
0.00134718
6.67356e-06
0.00134873
6.59099e-06
0.00135016
6.52848e-06
0.00135145
6.46683e-06
0.0013526
6.38039e-06
0.00135359
6.30391e-06
0.00135439
6.22468e-06
0.00135502
6.12758e-06
0.00135545
6.03762e-06
0.0013557
5.91615e-06
0.0013557
5.83513e-06
0.00135556
5.68647e-06
0.00135525
5.55695e-06
0.00135479
5.39907e-06
0.00135417
5.2479e-06
0.00135342
5.06857e-06
0.00135255
4.89415e-06
0.00135157
4.71746e-06
0.0013505
4.51328e-06
0.00134937
4.30705e-06
0.00134819
4.07426e-06
0.00134696
3.90294e-06
0.00134571
3.65887e-06
0.00134448
3.43608e-06
0.00134324
3.23764e-06
0.00134203
2.98655e-06
0.00134083
2.83597e-06
0.00133965
2.60874e-06
0.00133853
2.3634e-06
0.00133744
2.15465e-06
0.0013364
1.93802e-06
0.00133538
1.7741e-06
0.00133442
1.56632e-06
0.0013335
1.37852e-06
0.00133263
1.18301e-06
0.00133181
9.69806e-07
0.00133103
8.08812e-07
0.00133028
6.36064e-07
0.00132956
5.07799e-07
0.00132885
4.00639e-07
0.00132817
2.54344e-07
0.00132753
1.00341e-07
0.00132692
-1.04056e-07
0.00132638
-3.0281e-07
0.00132587
-4.58384e-07
0.00132541
-5.71768e-07
0.00132496
-6.42891e-07
0.00132454
-7.08236e-07
0.00132415
-7.81108e-07
0.00132378
-8.60067e-07
0.00132346
-9.84994e-07
0.00132317
-1.11252e-06
0.00132292
-1.25645e-06
0.00132272
-1.38593e-06
0.00132255
-1.5016e-06
0.00132241
-1.58646e-06
0.0013223
-1.68525e-06
0.00132222
-1.75931e-06
0.00132217
-1.82944e-06
0.00132215
-1.89829e-06
0.00132214
-1.98408e-06
0.00132216
-2.06763e-06
0.0013222
-2.14965e-06
0.00132227
-2.28523e-06
0.00132238
-2.39084e-06
0.00132251
-2.70352e-06
0.00132275
-2.94487e-06
0.00132298
-4.33506e-06
0.00132378
-5.18457e-06
-1.43462e-05
0.00132326
0.00139614
5.65566e-06
0.00140075
9.19541e-06
0.00140539
8.94968e-06
0.00141024
9.33743e-06
0.0014151
9.47206e-06
0.00141982
9.11436e-06
0.00142429
8.63205e-06
0.00142849
8.02195e-06
0.00143247
7.51323e-06
0.00143623
7.02079e-06
0.00143977
6.51126e-06
0.00144316
6.19457e-06
0.00144639
5.84304e-06
0.0014495
5.58751e-06
0.00145252
5.37204e-06
0.00145548
5.23976e-06
0.00145837
5.11792e-06
0.00146121
5.00937e-06
0.00146401
4.95931e-06
0.00146676
4.86202e-06
0.00146947
4.80818e-06
0.00147213
4.70784e-06
0.00147476
4.63329e-06
0.00147736
4.58812e-06
0.00147991
4.49851e-06
0.00148245
4.44707e-06
0.00148495
4.39697e-06
0.00148742
4.35358e-06
0.00148988
4.30567e-06
0.0014923
4.3033e-06
0.0014947
4.27831e-06
0.00149705
4.23283e-06
0.00149938
4.19819e-06
0.00150167
4.18078e-06
0.00150392
4.13514e-06
0.00150611
4.10529e-06
0.00150826
4.08058e-06
0.00151035
4.04069e-06
0.00151237
4.01491e-06
0.00151432
3.9657e-06
0.0015162
3.95795e-06
0.00151797
3.90928e-06
0.00151967
3.86099e-06
0.00152125
3.81479e-06
0.00152274
3.76184e-06
0.00152409
3.71427e-06
0.00152533
3.65778e-06
0.00152644
3.60464e-06
0.00152741
3.54506e-06
0.00152824
3.47798e-06
0.00152891
3.40868e-06
0.00152945
3.35349e-06
0.00152984
3.27511e-06
0.0015301
3.16996e-06
0.00153024
3.10374e-06
0.00153025
2.97422e-06
0.00153017
2.91798e-06
0.00152999
2.79214e-06
0.00152971
2.63753e-06
0.00152935
2.51877e-06
0.00152891
2.37864e-06
0.0015284
2.27863e-06
0.00152784
2.12975e-06
0.00152724
1.97852e-06
0.0015266
1.82467e-06
0.00152593
1.63935e-06
0.00152524
1.5004e-06
0.00152453
1.34088e-06
0.00152384
1.19978e-06
0.00152315
1.08668e-06
0.00152248
9.25323e-07
0.00152182
7.59978e-07
0.00152117
5.47424e-07
0.00152053
3.33722e-07
0.00151991
1.67017e-07
0.0015193
3.77505e-08
0.00151871
-5.65478e-08
0.00151816
-1.52641e-07
0.00151763
-2.5544e-07
0.00151714
-3.63282e-07
0.00151667
-5.20713e-07
0.00151624
-6.84165e-07
0.00151584
-8.58065e-07
0.00151548
-1.01926e-06
0.00151513
-1.15315e-06
0.0015148
-1.25639e-06
0.0015145
-1.3818e-06
0.00151423
-1.48966e-06
0.00151398
-1.58753e-06
0.00151378
-1.69238e-06
0.00151359
-1.79525e-06
0.00151343
-1.90466e-06
0.00151328
-2.00596e-06
0.00151315
-2.15473e-06
0.00151305
-2.29114e-06
0.00151296
-2.60957e-06
0.00151295
-2.93724e-06
0.00151292
-4.30143e-06
0.00151332
-5.58484e-06
-1.35384e-05
0.00151251
0.00154551
2.52564e-06
0.00155064
4.06127e-06
0.00155575
3.84077e-06
0.00156107
4.02394e-06
0.00156645
4.08854e-06
0.00157166
3.90252e-06
0.00157661
3.68581e-06
0.00158126
3.36837e-06
0.00158567
3.10291e-06
0.00158983
2.86069e-06
0.00159375
2.5917e-06
0.00159751
2.44183e-06
0.00160108
2.26543e-06
0.00160453
2.13727e-06
0.00160788
2.02186e-06
0.00161116
1.9631e-06
0.00161437
1.91242e-06
0.00161752
1.85563e-06
0.00162063
1.84454e-06
0.00162369
1.8043e-06
0.00162671
1.7901e-06
0.00162968
1.73543e-06
0.00163262
1.69562e-06
0.00163553
1.67959e-06
0.0016384
1.62602e-06
0.00164125
1.59815e-06
0.00164408
1.5716e-06
0.00164688
1.54909e-06
0.00164966
1.52162e-06
0.00165244
1.52926e-06
0.00165519
1.52465e-06
0.00165793
1.49908e-06
0.00166064
1.48113e-06
0.00166334
1.48043e-06
0.00166602
1.45667e-06
0.00166868
1.44536e-06
0.00167132
1.44122e-06
0.00167394
1.42271e-06
0.00167654
1.41667e-06
0.00167911
1.39512e-06
0.00168166
1.40558e-06
0.00168418
1.39062e-06
0.00168667
1.36627e-06
0.00168913
1.35441e-06
0.00169157
1.3294e-06
0.00169396
1.32294e-06
0.00169631
1.30168e-06
0.00169863
1.28623e-06
0.0017009
1.2751e-06
0.00170313
1.25088e-06
0.00170528
1.25479e-06
0.00170741
1.22295e-06
0.00170947
1.21406e-06
0.00171145
1.19688e-06
0.00171338
1.17437e-06
0.00171519
1.16433e-06
0.00171697
1.13717e-06
0.00171865
1.10496e-06
0.00172023
1.06491e-06
0.0017217
1.04414e-06
0.00172307
1.01473e-06
0.00172435
9.95255e-07
0.00172552
9.55416e-07
0.0017266
9.06601e-07
0.00172756
8.6458e-07
0.00172838
8.11167e-07
0.0017291
7.87063e-07
0.0017297
7.3542e-07
0.00173021
6.87241e-07
0.00173067
6.29977e-07
0.00173107
5.23007e-07
0.00173141
4.18889e-07
0.00173165
3.10298e-07
0.00173177
2.14603e-07
0.00173177
1.69434e-07
0.0017317
1.10147e-07
0.00173157
7.14002e-08
0.00173142
-1.81139e-09
0.00173126
-9.64673e-08
0.0017311
-2.04104e-07
0.00173092
-3.44462e-07
0.00173072
-4.81988e-07
0.00173048
-6.19101e-07
0.0017302
-7.41047e-07
0.00172988
-8.32162e-07
0.00172952
-8.98295e-07
0.00172914
-9.99611e-07
0.00172875
-1.09349e-06
0.00172835
-1.19527e-06
0.00172798
-1.31808e-06
0.00172762
-1.43174e-06
0.00172725
-1.54073e-06
0.00172688
-1.63601e-06
0.00172649
-1.75898e-06
0.00172607
-1.87494e-06
0.00172561
-2.15008e-06
0.00172517
-2.49322e-06
0.00172466
-3.79296e-06
0.00172448
-5.40678e-06
-1.22362e-05
0.00172318
0.001711
-7.94927e-07
0.00171671
-1.64432e-06
0.00172235
-1.80234e-06
0.0017282
-1.82525e-06
0.00173416
-1.87128e-06
0.00173993
-1.8671e-06
0.0017454
-1.78403e-06
0.00175055
-1.78597e-06
0.00175544
-1.7786e-06
0.00176004
-1.7456e-06
0.00176439
-1.75257e-06
0.00176854
-1.70895e-06
0.0017725
-1.69849e-06
0.00177632
-1.68408e-06
0.00178003
-1.68684e-06
0.00178366
-1.66469e-06
0.00178721
-1.63942e-06
0.0017907
-1.63514e-06
0.00179415
-1.60364e-06
0.00179754
-1.58354e-06
0.00180088
-1.55159e-06
0.00180417
-1.55856e-06
0.00180743
-1.55937e-06
0.00181065
-1.54413e-06
0.00181384
-1.56065e-06
0.001817
-1.56108e-06
0.00182013
-1.56287e-06
0.00182325
-1.56753e-06
0.00182634
-1.57121e-06
0.00182943
-1.55419e-06
0.00183249
-1.53988e-06
0.00183553
-1.5455e-06
0.00183857
-1.54939e-06
0.00184158
-1.53444e-06
0.00184458
-1.53902e-06
0.00184756
-1.53398e-06
0.00185052
-1.52424e-06
0.00185347
-1.52475e-06
0.0018564
-1.5167e-06
0.00185932
-1.51868e-06
0.00186222
-1.49456e-06
0.0018651
-1.49118e-06
0.00186796
-1.4975e-06
0.00187081
-1.49182e-06
0.00187364
-1.49946e-06
0.00187645
-1.48722e-06
0.00187924
-1.49253e-06
0.00188202
-1.48934e-06
0.00188477
-1.48095e-06
0.00188751
-1.48857e-06
0.00189023
-1.46166e-06
0.00189293
-1.47744e-06
0.00189561
-1.46894e-06
0.00189826
-1.4566e-06
0.0019009
-1.46317e-06
0.0019035
-1.43719e-06
0.00190609
-1.45186e-06
0.00190865
-1.45328e-06
0.00191117
-1.45238e-06
0.00191366
-1.4426e-06
0.0019161
-1.42874e-06
0.00191852
-1.4297e-06
0.00192089
-1.41596e-06
0.00192323
-1.42508e-06
0.00192552
-1.42853e-06
0.00192773
-1.40251e-06
0.00192992
-1.39609e-06
0.00193203
-1.374e-06
0.00193406
-1.35097e-06
0.00193606
-1.36345e-06
0.00193799
-1.40658e-06
0.00193986
-1.4524e-06
0.00194162
-1.45028e-06
0.00194327
-1.43178e-06
0.00194479
-1.35436e-06
0.00194617
-1.27418e-06
0.00194747
-1.2277e-06
0.00194867
-1.20169e-06
0.0019498
-1.22228e-06
0.00195087
-1.27707e-06
0.00195183
-1.30252e-06
0.00195267
-1.31762e-06
0.00195335
-1.30192e-06
0.00195386
-1.2514e-06
0.00195423
-1.20581e-06
0.00195448
-1.14541e-06
0.00195458
-1.09629e-06
0.00195453
-1.05211e-06
0.0019544
-1.06178e-06
0.00195418
-1.09282e-06
0.00195387
-1.12269e-06
0.00195347
-1.14782e-06
0.00195299
-1.15335e-06
0.00195239
-1.16038e-06
0.00195168
-1.15836e-06
0.00195081
-1.288e-06
0.00194987
-1.5505e-06
0.00194876
-2.67791e-06
0.00194774
-4.39017e-06
-1.01257e-05
0.00194563
0.00171104
-4.15026e-06
0.00171675
-7.36072e-06
0.0017224
-7.45116e-06
0.00172826
-7.68119e-06
0.00173422
-7.83273e-06
0.00173999
-7.63894e-06
0.00174546
-7.24902e-06
0.00175062
-6.9445e-06
0.0017555
-6.65927e-06
0.0017601
-6.35122e-06
0.00176445
-6.10104e-06
0.0017686
-5.85464e-06
0.00177256
-5.66559e-06
0.00177638
-5.50502e-06
0.00178009
-5.39686e-06
0.00178372
-5.29183e-06
0.00178728
-5.19334e-06
0.00179077
-5.12674e-06
0.00179421
-5.04936e-06
0.0017976
-4.97396e-06
0.00180094
-4.8911e-06
0.00180424
-4.85344e-06
0.00180749
-4.81471e-06
0.00181072
-4.76662e-06
0.0018139
-4.74942e-06
0.00181706
-4.71972e-06
0.0018202
-4.69678e-06
0.00182331
-4.68568e-06
0.00182641
-4.66503e-06
0.00182949
-4.63594e-06
0.00183255
-4.60375e-06
0.0018356
-4.59181e-06
0.00183863
-4.57843e-06
0.00184164
-4.54826e-06
0.00184464
-4.53395e-06
0.00184762
-4.51142e-06
0.00185058
-4.48948e-06
0.00185352
-4.46718e-06
0.00185646
-4.44907e-06
0.00185937
-4.42953e-06
0.00186226
-4.38878e-06
0.00186514
-4.37014e-06
0.001868
-4.35389e-06
0.00187084
-4.33299e-06
0.00187366
-4.31853e-06
0.00187646
-4.28982e-06
0.00187924
-4.27669e-06
0.001882
-4.24998e-06
0.00188475
-4.22551e-06
0.00188747
-4.20663e-06
0.00189017
-4.16659e-06
0.00189284
-4.15065e-06
0.0018955
-4.12272e-06
0.00189813
-4.0869e-06
0.00190072
-4.05736e-06
0.0019033
-4.01106e-06
0.00190584
-3.99264e-06
0.00190833
-3.94857e-06
0.0019108
-3.91581e-06
0.00191322
-3.86622e-06
0.00191559
-3.80079e-06
0.00191793
-3.76936e-06
0.00192021
-3.69458e-06
0.00192243
-3.64633e-06
0.00192459
-3.58993e-06
0.00192669
-3.49572e-06
0.00192872
-3.43239e-06
0.00193067
-3.32637e-06
0.00193257
-3.24372e-06
0.00193438
-3.17967e-06
0.0019361
-3.12213e-06
0.00193772
-3.07242e-06
0.00193923
-2.9593e-06
0.00194062
-2.82632e-06
0.00194192
-2.65178e-06
0.00194312
-2.47037e-06
0.00194421
-2.32509e-06
0.0019452
-2.18757e-06
0.00194608
-2.10225e-06
0.00194684
-2.04042e-06
0.00194749
-1.95086e-06
0.00194801
-1.83406e-06
0.0019484
-1.69137e-06
0.00194867
-1.5267e-06
0.00194884
-1.37443e-06
0.00194891
-1.21812e-06
0.00194888
-1.06691e-06
0.00194877
-9.34451e-07
0.00194855
-8.46985e-07
0.00194824
-7.80314e-07
0.00194784
-7.1932e-07
0.00194735
-6.5786e-07
0.00194677
-5.7881e-07
0.0019461
-4.92035e-07
0.00194535
-4.02098e-07
0.00194448
-4.20013e-07
0.00194353
-6.00688e-07
0.0019424
-1.54696e-06
0.00194119
-3.18618e-06
-7.95876e-06
0.00193903
0.0015456
-7.37428e-06
0.00155077
-1.2522e-05
0.00155589
-1.25742e-05
0.00156122
-1.30114e-05
0.00156661
-1.32231e-05
0.00157183
-1.28564e-05
0.00157676
-1.21841e-05
0.00158142
-1.16067e-05
0.00158583
-1.10679e-05
0.00158999
-1.05101e-05
0.00159392
-1.00305e-05
0.00159766
-9.59663e-06
0.00160125
-9.24902e-06
0.0016047
-8.95606e-06
0.00160805
-8.74826e-06
0.00161132
-8.56713e-06
0.00161454
-8.40434e-06
0.00161769
-8.28007e-06
0.0016208
-8.16072e-06
0.00162386
-8.0354e-06
0.00162688
-7.90522e-06
0.00162985
-7.82703e-06
0.00163279
-7.75238e-06
0.00163569
-7.67267e-06
0.00163857
-7.62426e-06
0.00164141
-7.56605e-06
0.00164424
-7.51781e-06
0.00164704
-7.49147e-06
0.00164982
-7.44739e-06
0.00165259
-7.40185e-06
0.00165534
-7.35128e-06
0.00165807
-7.32172e-06
0.00166077
-7.28478e-06
0.00166346
-7.23985e-06
0.00166613
-7.20052e-06
0.00166878
-7.15591e-06
0.0016714
-7.11479e-06
0.001674
-7.06252e-06
0.00167658
-7.02867e-06
0.00167912
-6.96969e-06
0.00168164
-6.90759e-06
0.00168412
-6.85516e-06
0.00168657
-6.79915e-06
0.00168898
-6.74487e-06
0.00169134
-6.68326e-06
0.00169367
-6.61971e-06
0.00169594
-6.546e-06
0.00169816
-6.47364e-06
0.00170033
-6.39132e-06
0.00170243
-6.30245e-06
0.00170446
-6.20441e-06
0.00170641
-6.095e-06
0.0017083
-6.01104e-06
0.00171008
-5.8678e-06
0.00171177
-5.75243e-06
0.00171338
-5.61732e-06
0.00171486
-5.47609e-06
0.00171626
-5.34215e-06
0.00171752
-5.17553e-06
0.00171867
-5.01612e-06
0.0017197
-4.83592e-06
0.00172059
-4.66241e-06
0.00172138
-4.48035e-06
0.00172203
-4.29176e-06
0.00172255
-4.11593e-06
0.00172299
-3.93001e-06
0.00172331
-3.75488e-06
0.00172355
-3.56621e-06
0.0017237
-3.39996e-06
0.00172376
-3.23398e-06
0.00172372
-3.08472e-06
0.00172361
-2.95884e-06
0.00172343
-2.77887e-06
0.00172318
-2.58301e-06
0.0017229
-2.36324e-06
0.00172257
-2.14626e-06
0.00172222
-1.96914e-06
0.00172183
-1.80708e-06
0.00172143
-1.69264e-06
0.00172098
-1.59833e-06
0.00172051
-1.48215e-06
0.00172002
-1.34474e-06
0.00171953
-1.19471e-06
0.00171903
-1.03339e-06
0.00171854
-8.82864e-07
0.00171806
-7.37302e-07
0.00171759
-5.92659e-07
0.00171712
-4.66054e-07
0.00171665
-3.78567e-07
0.00171618
-3.07295e-07
0.0017157
-2.39639e-07
0.00171521
-1.69945e-07
0.00171471
-8.22595e-08
0.00171421
1.09972e-08
0.00171371
9.43334e-08
0.0017132
9.10768e-08
0.00171267
-7.12536e-08
0.00171203
-8.98982e-07
0.00171124
-2.40441e-06
-6.40283e-06
0.00170969
0.00139628
-1.05779e-05
0.00140093
-1.71704e-05
0.0014056
-1.72373e-05
0.00141046
-1.78779e-05
0.00141534
-1.80987e-05
0.00142005
-1.75739e-05
0.00142451
-1.66435e-05
0.00142873
-1.58199e-05
0.00143271
-1.50515e-05
0.00143647
-1.42657e-05
0.00144001
-1.3579e-05
0.00144339
-1.29759e-05
0.00144663
-1.2481e-05
0.00144974
-1.20715e-05
0.00145276
-1.17707e-05
0.00145572
-1.15193e-05
0.00145861
-1.12974e-05
0.00146145
-1.11164e-05
0.00146424
-1.09583e-05
0.00146699
-1.07811e-05
0.00146969
-1.06071e-05
0.00147235
-1.04838e-05
0.00147497
-1.03742e-05
0.00147756
-1.02595e-05
0.00148011
-1.01753e-05
0.00148262
-1.00821e-05
0.00148511
-1.00029e-05
0.00148757
-9.95286e-06
0.00148999