/*--------------------------------*- C++ -*----------------------------------*\
| =========                 |                                                 |
| \\      /  F ield         | OpenFOAM: The Open Source CFD Toolbox           |
|  \\    /   O peration     | Version:  v2012                                 |
|   \\  /    A nd           | Website:  www.openfoam.com                      |
|    \\/     M anipulation  |                                                 |
\*---------------------------------------------------------------------------*/
FoamFile
{
    version     2.0;
    format      ascii;
    class       volScalarField;
    location    "0.155";
    object      omega.air;
}
// * * * * * * * * * * * * * * * * * * * * * * * * * * * * * * * * * * * * * //

dimensions      [0 0 -1 0 0 0 0];


internalField   nonuniform List<scalar> 
5600
(
6586.26
7485.53
7886.77
7965.19
7866.38
7687.46
7480.98
7290
7125.42
6987.63
6879.15
6795.94
6736.77
6692.74
6664.49
6641.33
6628.12
6613.79
6606.29
6595.5
6590.43
6581.97
6578.15
6573.24
6569.84
6568.77
6564.76
6566.39
6562.21
6564.3
6560.99
6560.83
6560.33
6555.78
6559.28
6550.64
6556.8
6547.16
6552.19
6546.1
6545.75
6546.66
6539.58
6546.44
6536.07
6543.75
6536.62
6538.16
6540.6
6531.26
6544.77
6526.63
6545.52
6527.44
6540.88
6533.97
6532.74
6542.56
6526.15
6547.53
6526.02
6545.91
6532.8
6539.92
6541.85
6535.43
6547.18
6537.06
6546.66
6544.07
6543.25
6551.95
6542.07
6556.35
6545.61
6556.34
6552.82
6554.62
6560.51
6554.4
6566.61
6556.13
6571.05
6558.69
6574.01
6561.44
6574.58
6565.02
6571.92
6569.7
6567.17
6574.11
6561.03
6583.46
6538.33
6629.5
6439.5
6811.38
6029.28
7442.28
2450.51
2296.62
2571.61
2795.16
2928.1
2998.17
3010.08
2968.39
2968.78
3017.51
3073.12
3119.44
3146.61
3159.12
3154.27
3141.04
3117.79
3091.31
3062.24
3032.4
3003.38
2974.17
2944.64
2917.21
2888.5
2863.8
2839.31
2817.8
2797.17
2778.9
2761.94
2745.73
2732.27
2718.49
2707.19
2695.89
2686.42
2677.06
2668.71
2661.52
2653.8
2647.92
2641.55
2636.46
2631.02
2626.47
2621.98
2617.03
2613.71
2608.82
2606.68
2601.46
2600.28
2595.83
2594.1
2591.25
2588.54
2587.13
2583.81
2583.9
2579.96
2580.28
2577.43
2576.73
2575.16
2573.73
2573.17
2571.36
2571.06
2569.61
2569.02
2568.42
2567.1
2567.45
2565.89
2566.11
2565.17
2565
2564.47
2563.91
2564.43
2563.38
2564.72
2563.76
2565.13
2564.55
2565.45
2565.79
2564.94
2567.73
2562.83
2571.08
2557.24
2579.91
2541.4
2606.79
2490.49
2697.18
2312.05
3007.77
2358.54
1859.93
1592.13
1427.86
1345.99
1274
1279.73
1309.4
1351.57
1412.92
1481.64
1550.53
1609.91
1665.4
1703.22
1735.21
1747.23
1754.18
1742.79
1727.49
1701.87
1676.86
1653.71
1634.79
1619.57
1605.69
1593.08
1582.04
1570.98
1561.07
1551.27
1540.82
1531.33
1521.45
1513.15
1503.73
1496.78
1488.44
1481.89
1475.27
1468.97
1463.73
1457.46
1453.64
1447.48
1444.26
1439.25
1435.34
1432.39
1427.22
1426.56
1420.21
1420.86
1415.07
1414.76
1411.44
1408.67
1408.7
1403.39
1405.69
1399.86
1401.66
1397.84
1397.2
1396.34
1393.42
1394.3
1391.15
1391.39
1389.85
1388.26
1388.91
1385.78
1387.51
1384.45
1385.39
1383.9
1383.06
1383.39
1381.27
1382.75
1380.32
1382.31
1380.22
1382.16
1380.77
1381.86
1382.23
1380.5
1384.88
1377.52
1388.92
1371.81
1397.55
1357.75
1419.18
1323.65
1467.07
1255.44
1537.17
2345.16
1822.37
1493.22
1267.67
1111.11
992.699
906.697
847.232
802.138
777.538
759.249
770.449
790.287
825.618
859.096
904.325
939.096
980.79
1009.61
1040.58
1061.31
1078.31
1093.31
1098.57
1108.58
1104.14
1106.15
1095.29
1088.15
1078.42
1067.32
1062.05
1052.54
1049.04
1042.02
1037.22
1032.96
1027.31
1023.99
1018.8
1015.32
1010.5
1005.72
1001.97
996.251
993.039
987.769
984.191
980.722
975.765
974.66
968.572
968.632
963.027
962.271
958.879
955.677
955.482
949.863
951.455
945.742
946.514
942.869
941.248
940.431
936.907
937.257
934.016
933.35
932.09
929.49
930.264
926.546
927.858
924.715
924.827
923.596
921.773
922.407
919.528
920.876
918.06
919.524
917.233
918.657
917.176
917.801
918.155
916.32
920.044
914.351
922.177
911.708
926.009
905.859
934
895.341
944.247
887.832
934.372
2341.97
1815.97
1479.81
1247.93
1079.7
952.601
853.131
774.724
710.463
659.174
615.706
582.443
555.503
537.066
522.515
515.871
512.946
521.102
532.376
548.252
570.357
588.885
620.376
636.708
673.053
686.809
717.817
731.813
747.032
764.646
763.854
784.285
774.835
792.313
782.328
790.021
785.712
781.092
783.033
771.395
774.407
765.198
765.078
761.394
756.94
757.534
750.729
751.876
747.185
745.105
744.444
739.415
740.656
735.241
735.699
731.783
729.279
728.751
723.318
724.552
719.032
719.132
715.993
713.48
713.095
709.123
709.095
706.132
704.584
703.925
700.5
701.445
697.503
698.143
695.389
694.372
693.638
690.917
691.582
688.278
689.189
686.198
687.032
684.559
685.413
683.715
684.047
683.862
682.835
684.398
682.322
684.515
682.239
685.174
680.941
687.377
678.322
689.04
679.445
680.334
2341.13
1814.12
1476.76
1243.88
1074.18
945.31
844.355
763.104
696.639
640.951
594.292
553.87
519.898
489.535
464.64
441.184
423.661
405.462
395.452
380.845
378.479
366.442
371.628
365.398
375.943
380.041
390.582
409.16
413.103
447.827
442.347
488.042
478.714
519.273
520.174
540.162
558.137
554.826
583.892
568.938
594.841
584.172
596.341
598.711
593.216
608.994
590.262
610.967
591.112
604.181
595.246
593.138
597.222
585.699
593.501
584.1
587.11
584.799
581.061
583.528
577.9
579.304
577.206
574.602
575.856
571.983
572.477
570.874
568.782
569.551
565.793
567.31
563.658
563.793
561.99
559.876
560.164
556.686
557.705
554.204
554.997
551.913
552.501
549.896
550.28
548.582
548.581
547.927
547.798
547.209
548.363
546.292
549.094
546.607
548.182
549.063
545.378
551.87
544.823
548.11
2340.86
1813.43
1475.77
1242.58
1072.65
943.376
842.227
760.41
693.784
637.224
590.456
548.682
514.584
481.992
456.701
430.059
411.238
388.778
374.629
355.925
344.363
330.351
318.68
311.403
297.317
298.047
281.092
289.191
271.526
283.694
271.635
279.926
282.593
282.7
302.12
291.747
326.774
308.935
351.954
335.886
372.105
371.878
383.488
410.692
393.301
441.268
411.542
455.463
435.701
462.341
459.414
452.043
478.022
455.265
484.258
465.721
480.739
477.333
475.29
483.757
474.168
482.483
477.401
477.652
479.109
474.463
476.649
474.234
472.375
473.884
469.469
471.594
468.415
468.313
468.335
465.145
467.585
463.439
465.659
462.328
463.823
460.882
461.915
459.761
459.708
458.926
458.225
457.95
458.162
456.419
459.487
455.335
459.925
456.581
458.229
460.159
455.056
463.113
455.344
459.633
2340.76
1813.12
1475.34
1242.04
1072.04
942.654
841.464
759.499
692.874
636.093
589.38
547.298
513.272
480.345
454.939
428.203
408.58
386.859
370.352
353.935
337.713
327.626
309.512
305.731
286.237
285.372
269.383
264.085
259.475
241.788
253.979
222.22
247.039
211.64
234.614
212.072
219.015
218.792
206.085
225.852
200.83
230.97
207.271
234.795
223.108
239.466
245.637
245.722
269.689
257.167
291.626
269.966
314.077
293.735
322.095
320.705
330.15
347.122
335.746
359.623
352.212
365.452
371.258
368.927
379.804
375.023
382.652
385.368
384.468
391.253
385.807
391.613
388.805
390.155
393.18
389.143
395.218
390.247
394.423
391.288
393.738
391.096
392.393
390.892
390.081
389.999
388.151
388.193
387.714
385.009
389.087
382.839
388.662
384.293
386.076
388.185
382.758
390.57
384.498
386.838
2340.71
1812.97
1475.12
1241.79
1071.74
942.352
841.079
759.168
692.396
635.763
588.778
547.005
512.492
480.14
453.912
428.136
407.249
386.91
368.775
353.857
336.231
326.79
308.809
303.226
286.972
280.585
271.297
257.601
260.507
235.974
250.431
220.151
235.897
213.673
215.155
214.873
192.115
216.984
174.508
211.47
170.264
193.127
181.822
164.298
201.135
136.354
211.768
126.907
202.11
140.089
176.123
178.425
148.143
202.03
137.028
208.087
151.245
197.928
182.868
189.884
210.168
193.045
225.711
210.286
232.26
232.769
238.656
252.81
249.99
267.081
262.81
276.323
276.571
283.1
290.393
290.247
300.534
298.199
307.837
304.142
313.916
309.808
316.538
316.154
317.008
320.589
317.188
321.841
319.331
318.882
323.068
316.561
323.687
317.794
321.554
321.787
317.961
324.404
318.998
322.17
2340.68
1812.89
1475.02
1241.69
1071.58
942.241
840.868
759.08
692.106
635.732
588.375
547.064
511.951
480.296
453.259
428.312
406.627
386.877
368.495
353.235
336.681
325.263
310.093
301.03
288.366
278.942
271.085
258.442
256.869
240.521
243.269
226.97
228.118
218.415
211.369
213.018
195.583
207.088
184.5
196.978
180.596
181.197
183.181
162.241
186.977
147.979
183.407
145.748
168.741
154.304
146.784
167.31
127.33
170.855
124.014
160.239
133.319
142.265
146.175
130.245
148.897
131.528
140.796
139.179
136.59
145.044
138.755
144.389
142.988
145.077
150.208
150.739
156.255
159.841
159.625
168.668
166.545
173.184
177.667
177.503
186.896
184.639
194.449
193.586
200.983
203.646
207.576
211.962
214.405
218.424
219.508
222.873
223.374
225.212
225.533
226.294
227.411
225.53
228.597
224.895
2340.68
1812.91
1475.03
1241.71
1071.58
942.279
840.853
759.144
692.056
635.837
588.274
547.223
511.797
480.495
453.091
428.474
406.565
386.842
368.73
352.811
337.354
324.429
311.029
300.217
288.857
279.082
270.114
260.418
253.97
244.118
239.479
230.29
225.908
218.798
213.081
209.046
201.396
200.093
191.539
190.966
184.011
181.229
178.516
171.615
173.672
163.773
167.929
158.497
161.175
155.015
154.562
152.365
149.079
150.367
144.426
149.274
140.789
148.109
139.927
145.77
143.182
142.014
149.193
140.561
153.582
144.708
155.104
154.365
156.424
165.251
160.259
173.622
169.06
179.069
181.919
184.503
194.174
192.442
203.625
201.802
211.218
212.126
217.255
223.082
222.895
232.505
229.292
238.388
237.119
239.972
244.667
240.632
248.524
242.975
248.271
247.393
245.112
251.28
244.278
250.974
2340.71
1813
1475.15
1241.86
1071.74
942.465
841.031
759.36
692.242
636.085
588.462
547.505
511.988
480.802
453.306
428.778
406.849
387.086
369.149
352.947
337.936
324.494
311.671
300.421
289.282
279.786
270.009
261.883
253.328
246.142
238.904
232.104
226.492
219.53
215.705
208.566
205.943
199.62
196.728
192.914
188.206
187.969
181.31
183.81
177.36
179.617
177.195
175.725
180.278
174.313
184.818
177.556
189.454
186.164
194.4
198.667
201.634
212.301
212.618
225.769
226.67
239.036
242.156
252.193
258.301
264.005
274.782
274.823
288.886
286.813
298.539
299.948
305.296
311.937
311.338
320.915
317.627
325.946
324.715
327.608
331.415
328.573
335.427
330.437
335.985
333.581
333.71
336.75
331.972
337.056
333.067
335.13
335.338
333.163
337.209
333.086
336.755
335.407
335.524
337.962
2340.76
1813.17
1475.39
1242.15
1072.07
942.822
841.415
759.774
692.677
636.556
588.947
548.037
512.528
481.402
453.916
429.45
407.563
387.841
370.02
353.811
339.038
325.538
313.085
301.804
291.109
281.805
272.395
264.983
256.552
250.928
243.626
239.392
233.855
230.276
227.418
224.009
224.27
221.579
224.595
224.515
228.469
232.721
236.467
245.131
249.315
260.363
266.675
277.41
286.757
295.876
307.079
315.207
326.233
333.617
343.978
350.053
359.934
364.247
373.131
376.68
382.77
387.298
389.263
395.312
394.203
399.661
399.099
400.963
403.593
401.658
406.285
403.094
406.635
405.136
405.319
406.694
403.672
406.811
403.04
405.12
403.307
402.331
403.242
399.574
401.918
398.129
399.225
398.289
396.694
398.5
395.87
397.931
396.568
397.017
397.951
396.612
398.671
397.438
398.738
398.994
2340.87
1813.49
1475.85
1242.71
1072.73
943.558
842.249
760.682
693.693
637.656
590.18
549.375
514.045
483.073
455.847
431.633
410.133
390.843
373.654
358.147
344.392
331.953
321.172
311.649
303.764
297.037
292.038
288.353
286.316
286.598
288.321
293.19
298.344
307.61
315.852
328.56
339.428
353.626
366.468
380.255
394.177
406.392
419.952
430.501
442.221
451.153
460.053
467.249
473.027
478.686
481.645
486.008
487.469
490.624
491.806
493.08
494.736
493.899
495.902
493.899
495.055
493.447
492.637
492.36
489.661
490.236
487.402
487.246
486.153
484.391
484.893
482.147
482.863
480.641
480.189
479.452
477.55
478.059
475.618
476.078
474.339
473.643
473.176
471.379
471.805
469.721
470.288
469.009
468.885
469.007
468.215
469.063
468.329
469.014
468.91
469.006
469.469
469.3
469.952
469.98
2341.15
1814.19
1476.91
1243.99
1074.37
945.465
844.556
763.344
696.863
641.371
594.589
554.621
520.501
490.962
465.76
443.835
425.813
410.642
398.92
389.604
383.759
380.039
381.024
385.273
393.631
404.403
419.183
434.814
453.898
471.91
492.336
510.951
529.599
546.876
561.315
575.714
585.193
595.633
601.435
607.918
612.049
615.618
618.687
619.828
621.542
620.874
620.907
619.255
617.627
615.69
613.012
611.296
608.792
607.44
605.483
603.818
602.444
600.292
599.358
597.15
596.046
594.46
592.766
591.922
589.807
589.325
587.166
586.328
584.512
582.838
581.667
579.352
578.512
576.183
575.154
573.371
571.818
570.712
568.751
567.987
566.021
565.2
563.732
562.686
561.951
560.757
560.709
559.717
559.912
559.484
559.526
559.585
559.453
559.806
559.554
560
559.78
560.158
560.248
560.58
2342.03
1815.98
1480.11
1247.96
1080.28
952.708
854.158
775.206
712.345
660.619
619.074
586.933
562.598
545.508
534.581
530.084
534.439
545.077
561.012
581.093
604.558
630.612
657.674
684.739
711.145
734.559
755.186
771.066
784.476
793.859
802.139
807.048
810.937
812.167
811.809
810.101
806.371
802.948
797.964
794.304
790.558
787.474
784.448
781.433
778.611
775.625
772.906
770.283
767.656
765.296
762.867
760.558
757.877
755.297
752.625
749.823
747.373
744.509
742.251
739.492
737.327
734.903
732.601
730.693
728.289
726.776
724.43
723.034
720.942
719.296
717.665
715.705
714.454
712.412
711.314
709.479
708.271
706.819
705.4
704.344
702.796
702.121
700.739
700.289
699.393
698.943
698.679
698.172
698.413
697.922
698.306
697.971
698.221
698.214
698.064
698.465
698.029
698.623
698.404
699.13
2345.25
1822.39
1493.86
1268.16
1113.23
994.179
912.59
852.017
814.511
787.87
783.658
800.118
829.083
866.04
907.632
950.234
990.28
1026.99
1058.25
1083.63
1103.42
1118.46
1129.08
1135.73
1137.48
1134.7
1128.06
1118.6
1108.73
1099.38
1091.86
1085.07
1079.07
1073.25
1067.86
1062.59
1057.8
1052.95
1048.41
1043.51
1038.5
1033.29
1028.22
1023.3
1018.41
1013.94
1009.5
1005.52
1001.52
997.998
994.522
991.338
988.281
985.336
982.591
979.743
977.349
974.588
972.426
969.872
967.82
965.56
963.49
961.673
959.55
958.113
956.055
954.737
952.898
951.546
950.077
948.597
947.52
945.947
945.133
943.621
942.835
941.539
940.666
939.782
938.795
938.439
937.511
937.534
936.879
936.984
936.743
936.653
936.873
936.494
936.968
936.489
936.914
936.644
936.641
936.87
936.435
937.106
936.807
937.94
2358.73
1860.91
1594.77
1434.01
1353.99
1288.99
1305.25
1337.3
1392.12
1465.15
1539.73
1610.28
1672.38
1723.06
1760.08
1783.38
1792.54
1788.85
1773.31
1750.19
1724.15
1700.72
1682.17
1666.52
1652.49
1639.51
1627.36
1615.99
1604.86
1593.91
1582.63
1572.01
1561.48
1551.79
1542.44
1533.67
1525.65
1517.8
1510.93
1504.06
1498.01
1491.95
1486.52
1481.31
1476.36
1471.94
1467.46
1463.59
1459.63
1456.25
1452.79
1449.77
1446.87
1444.08
1441.64
1439.08
1437.03
1434.6
1432.88
1430.66
1429.02
1427.17
1425.48
1424.05
1422.32
1421.26
1419.55
1418.54
1417.1
1416.11
1415
1413.99
1413.21
1412.16
1411.59
1410.49
1409.98
1408.99
1408.51
1407.86
1407.4
1407.27
1406.9
1407.17
1406.87
1407.3
1407.18
1407.38
1407.54
1407.37
1407.76
1407.32
1407.75
1407.36
1407.49
1407.51
1407.23
1407.89
1407.75
1409.37
2454.74
2305.68
2580.44
2808.67
2934.22
3010.01
2994.58
2967.45
3014.83
3085.64
3150.03
3196.61
3222.41
3229.88
3222.23
3203.95
3178.36
3148.8
3117.8
3086.34
3054.82
3023.05
2991.98
2961.67
2933.59
2907.23
2882.85
2860.56
2839.78
2821.15
2803.46
2788.04
2773.21
2760.38
2748.11
2737.23
2727.21
2717.82
2709.64
2701.61
2694.69
2688.02
2682.03
2676.31
2670.84
2665.94
2660.88
2656.52
2652.13
2648.21
2644.39
2640.91
2637.71
2634.47
2631.82
2629.02
2626.65
2624.25
2622.19
2620.03
2618.16
2616.41
2614.58
2613.16
2611.58
2610.32
2608.96
2607.72
2606.68
2605.65
2604.72
2603.99
2603.21
2602.62
2601.91
2601.37
2600.76
2600.24
2599.86
2599.51
2599.44
2599.35
2599.55
2599.7
2599.92
2600.28
2600.44
2600.69
2600.73
2600.82
2600.89
2600.77
2600.88
2600.65
2600.73
2600.53
2600.58
2600.98
2601.25
2603.07
6588.08
7481.92
7876.77
7936
7826.38
7629.93
7415.08
7222.09
7053.55
6914.35
6805.38
6723.41
6664.03
6621.63
6591.85
6570.24
6554.28
6541.58
6531.21
6522.47
6514.93
6508.89
6504.03
6500.31
6497.43
6495.1
6493.27
6491.92
6490.36
6489.19
6487.14
6485.72
6483.14
6481.48
6478.71
6476.76
6474.2
6471.88
6469.86
6467.21
6465.82
6463.12
6462.11
6459.81
6458.81
6457.29
6455.92
6455.27
6453.47
6453.48
6451.58
6451.82
6450.37
6450.28
6449.91
6448.96
6449.96
6448.17
6450.18
6448.36
6450.26
6449.56
6450.34
6451.41
6450.73
6453.36
6451.88
6455.07
6454.1
6456.58
6457.16
6458.26
6460.44
6460.41
6463.59
6463.29
6466.59
6466.95
6469.53
6471.15
6472.5
6475.35
6475.43
6478.7
6478.16
6480.63
6480.49
6481.22
6482.22
6481.02
6483
6480.8
6482.63
6480.98
6481.36
6481.43
6479.73
6480.99
6477.55
6476.98
5448.67
3355.05
2409.21
1945.36
1664.76
1481.58
1349.01
1247.96
1167.82
1100.1
1042.03
989.628
941.62
896.033
852.938
813.293
775.476
742.334
714.164
691.895
664.172
635.499
607.39
576.572
569.059
533.73
464.841
427.302
393.481
368.742
399.751
441.379
458.343
454.925
440.163
418.935
395.677
375.645
360.443
349.373
341.202
332.98
323.282
312.086
298.029
279.668
257.303
233.094
209.305
187.237
167.263
149.436
133.811
120.399
109.212
100.208
93.2835
88.1336
84.4013
81.7808
80.0206
78.9262
78.3299
78.077
78.0005
77.9499
77.8208
77.5883
77.2788
76.9494
76.6497
76.4176
76.2566
76.1576
76.098
76.0665
76.0477
76.0394
76.0332
76.0318
76.0291
76.0297
76.0279
76.0291
76.0275
76.0289
76.0273
76.0288
76.0272
76.0288
76.0271
76.0288
76.027
76.0285
76.0265
76.0278
76.0256
76.0265
76.0245
76.0288
1655.51
2574.06
2355.35
1987.51
1704.29
1505.16
1359.5
1248.38
1161.35
1088.84
1028.12
973.833
924.796
878.23
834.526
794.079
756.187
723.108
694.477
672.995
645.649
614.306
589.974
559.773
542.233
494.865
405.43
346.71
344.133
346.872
352.216
406.131
439.197
445.004
434.556
415.142
392.569
372.564
357.095
345.403
336.046
326.553
316.218
304.925
290.761
272.086
249.507
225.271
201.461
179.355
159.333
141.508
126.139
113.427
103.348
95.7063
90.1001
86.0316
83.0919
80.996
79.5477
78.6176
78.0905
77.8569
77.7835
77.7457
77.6418
77.4439
77.1713
76.8799
76.6048
76.3844
76.2244
76.1262
76.0644
76.033
76.0117
76.0041
75.9957
75.9956
75.9909
75.9931
75.9894
75.9925
75.9888
75.9924
75.9886
75.9925
75.9884
75.9926
75.9882
75.9927
75.988
75.9927
75.9878
75.9927
75.9876
75.993
75.9887
75.9996
1167.74
1420.43
1791.34
1802.36
1645.9
1480.72
1343.99
1233.01
1144.9
1070.29
1008.21
952.697
903.304
856.023
812.408
770.553
733.735
700.398
670.61
647.205
619.961
583.572
562.822
532.731
481.443
383.066
315.668
325.785
342.519
381.743
367.902
373.756
413.345
430.238
426.315
409.916
388.515
368.664
352.947
340.602
329.859
319.112
308.31
296.947
282.566
263.544
240.703
216.197
192.226
169.989
149.853
132.273
117.709
106.311
97.8503
91.8072
87.516
84.4229
82.1427
80.4548
79.2324
78.4091
77.9147
77.6772
77.5899
77.5529
77.47
77.3097
77.0774
76.8248
76.5772
76.3718
76.2142
76.1158
76.0502
76.0174
75.9925
75.9846
75.9736
75.9743
75.9676
75.9713
75.9655
75.9705
75.9647
75.9704
75.9643
75.9706
75.9641
75.9708
75.9638
75.9711
75.9636
75.9715
75.9636
75.9722
75.9642
75.9744
75.9681
75.986
907.562
864.148
1031.49
1246.17
1337.57
1315.97
1246.46
1166.93
1095.83
1029.92
973.064
920.014
872.809
825.6
783.195
738.042
703.788
666.989
633.404
600.505
570.396
526.717
505
449.43
327.011
242.447
283.396
372.759
397.804
421.144
433.446
385.529
390.044
410.607
414.199
402.39
382.947
363.54
347.647
334.635
322.533
310.678
299.512
288.043
273.379
253.899
230.51
205.55
181.244
158.763
138.879
122.295
109.36
99.9156
93.3337
88.8131
85.6372
83.3083
81.5173
80.1187
79.0456
78.2816
77.7909
77.5317
77.4189
77.3743
77.3086
77.1881
76.9984
76.7817
76.5588
76.3724
76.2227
76.1267
76.0574
76.0223
75.9929
75.984
75.9699
75.971
75.9619
75.9669
75.9591
75.9658
75.958
75.9657
75.9574
75.966
75.957
75.9663
75.9567
75.9668
75.9565
75.9676
75.9567
75.9691
75.9583
75.9733
75.9651
75.9904
687.945
668.11
687.972
737.115
833.111
918.159
960.606
968.158
954.236
925.463
892.075
852.737
814.667
770.051
730.825
679.984
648.724
595.966
546.842
489.326
423.629
376.386
290.909
214.412
223.964
297.265
354.434
427.682
455.446
457.261
476.907
440.429
390.724
391.593
397.919
391.419
375.027
356.577
340.663
326.955
313.612
300.847
289.429
277.952
263.187
243.269
219.148
193.482
168.686
146.382
127.644
113.033
102.418
95.1042
90.1786
86.8262
84.4374
82.6245
81.1577
79.9478
78.9656
78.2262
77.7179
77.4229
77.2744
77.2126
77.1554
77.0684
76.9196
76.7402
76.5469
76.3853
76.2489
76.1582
76.0864
76.0487
76.0146
76.0038
75.9862
75.9872
75.9758
75.9816
75.9719
75.98
75.9704
75.9798
75.9696
75.9801
75.9691
75.9805
75.9687
75.9812
75.9685
75.9823
75.969
75.9845
75.9716
75.9906
75.981
76.0129
548.279
542.239
549.519
542.18
551.903
574.594
599.168
635.229
663.837
686.221
696.053
691.823
676.523
642.631
603.156
560.575
492.73
389.927
280.272
222.648
160.133
112.098
166.253
243.951
306.813
368.755
419.714
476.186
502.683
494.235
503.032
491.867
426.101
386.923
381.432
376.675
363.663
346.799
331.115
316.699
302.398
289.382
278.594
268.197
254.616
235.079
210.184
183.259
157.79
136.071
119.075
106.693
98.1286
92.3588
88.4681
85.7811
83.8229
82.2956
81.0164
79.9192
78.9871
78.2493
77.7084
77.365
77.1684
77.0747
77.01
76.9432
76.8325
76.6976
76.5428
76.4106
76.2899
76.2061
76.1339
76.0945
76.0565
76.0438
76.0232
76.0235
76.0101
76.0163
76.0052
76.0141
76.0032
76.0137
76.0023
76.0139
76.0017
76.0144
76.0012
76.0152
76.0011
76.0165
76.0018
76.0192
76.005
76.0266
76.0163
76.0525
458.601
454.711
460.867
452.665
445.979
440.822
432.726
431.266
430.937
433.176
436.668
440.241
426.795
406.214
352.698
317.231
184.275
121.666
158.42
186.171
222.719
294.909
343.596
354.056
378.27
429.184
479.295
522.945
543.471
532.268
527.907
525.763
476.945
410.877
376.936
362.75
349.254
333.47
318.122
303.397
289.832
279.566
272.911
267.463
258.557
241.654
216.26
186.575
158.241
134.99
117.717
105.648
97.4715
91.9784
88.2491
85.6579
83.7716
82.3128
81.0966
80.0446
79.1266
78.3691
77.7796
77.3723
77.1104
76.9659
76.8748
76.8128
76.7332
76.6436
76.5294
76.4265
76.3225
76.2482
76.1791
76.1414
76.1024
76.0896
76.0674
76.0678
76.0529
76.0595
76.0472
76.0569
76.0449
76.0564
76.0439
76.0567
76.0432
76.0572
76.0428
76.058
76.0426
76.0593
76.0434
76.0623
76.047
76.0702
76.0591
76.0975
387.482
386.926
390.81
385.853
380.367
371.27
361.003
348.339
339.282
321.491
310.072
294.486
262.91
242.437
216.627
163.732
198.549
260.949
286.697
304
333.901
356.257
367.221
383.306
425.131
487.265
538.691
570.253
581.673
570.061
556.709
553.136
523.189
458.291
399.869
364.232
340.798
322.215
306.626
294.087
287.199
287.175
290.779
293.345
289.609
274.518
247.006
212.119
177.627
148.849
127.279
112.117
101.806
94.8827
90.2087
87.0045
84.7294
83.0346
81.6797
80.5417
79.5501
78.711
78.0252
77.5165
77.1576
76.936
76.7941
76.7151
76.6455
76.5862
76.5032
76.4287
76.3434
76.2856
76.2248
76.196
76.1592
76.1516
76.1285
76.1326
76.1154
76.1255
76.11
76.1234
76.1076
76.1231
76.1064
76.1236
76.1055
76.1244
76.1049
76.1254
76.1046
76.1271
76.1053
76.1304
76.1092
76.1391
76.1229
76.1684
320.324
321.451
321.618
317.444
311.625
303.109
289.328
280.659
264.036
250.784
241.192
222.262
215.667
215.101
217.921
253.142
296.189
320.794
341.731
367.157
389.434
403.937
416.445
445.594
499.926
561.74
603.126
616.423
614.463
601.558
585.725
579.104
562.634
511.662
448.778
396.495
359.218
335.296
321.303
317.47
323.206
333.765
341.831
343.366
335.279
315.021
283.083
244.503
206.235
173.272
147.371
128.041
114.069
104.202
97.2903
92.4377
88.9416
86.325
84.2501
82.5492
81.106
79.8961
78.8908
78.1216
77.5499
77.1758
76.9227
76.7845
76.6825
76.6301
76.5596
76.5186
76.4535
76.4296
76.3811
76.3789
76.3434
76.3559
76.3258
76.3472
76.3176
76.3448
76.3134
76.3452
76.3107
76.3467
76.3084
76.3486
76.3063
76.3509
76.3045
76.3536
76.3032
76.3575
76.3036
76.3646
76.3098
76.3807
76.3345
76.4279
227.852
225.605
225.052
224.226
219.448
217.484
212.385
209.902
210.662
212.541
221.507
232.747
253.719
281.872
313.671
350.408
381.612
402.37
420.588
438.546
449.928
458.88
482.061
529.959
592.58
643.356
658.211
645.872
630.161
617.015
605.642
600.898
594.775
562.63
509.141
455.362
414.172
391.791
385.191
388.554
394.74
398.265
397.055
389.149
371.989
345.158
310.821
272.767
235.446
202.512
175.683
154.82
138.761
126.462
117.022
109.76
103.96
99.1244
94.8554
91.0826
87.7523
84.9465
82.6211
80.8591
79.5355
78.6679
78.0564
77.7259
77.4802
77.4108
77.324
77.3667
77.3314
77.4146
77.3801
77.4722
77.4177
77.5118
77.435
77.5349
77.4383
77.549
77.4346
77.5595
77.4279
77.5689
77.4197
77.5788
77.4106
77.5897
77.402
77.6022
77.3954
77.6204
77.395
77.6524
77.417
77.7226
77.5116
77.8994
247.563
248.797
252.551
250.328
260.053
263.642
274.892
289.005
299.729
318.59
333.62
350.692
373.558
392.326
413.216
435.8
451.587
466.114
483.715
497.874
507.102
527.253
572.943
635.686
690.056
704.622
677.374
641.747
618.66
608.542
606.415
610.538
615.884
603.305
565.719
521.661
488.851
471.976
465.066
461.012
455.584
446.469
434.094
416.775
392.729
363.021
330.294
296.957
264.651
234.995
209.618
189.483
173.983
162.039
152.389
144.435
137.417
130.982
124.431
117.758
110.794
104.242
98.2817
93.5458
89.7647
87.2415
85.3715
84.4059
83.6771
83.6439
83.5517
83.9926
84.0893
84.6306
84.6366
85.1245
84.9637
85.4039
85.1036
85.5486
85.1398
85.6295
85.1284
85.6843
85.0991
85.7294
85.0622
85.7765
85.0184
85.8306
84.9761
85.8911
84.9469
85.9748
84.9521
86.1237
85.0652
86.4617
85.5097
87.2957
335.809
339.758
339.425
344.116
349.812
356.157
366.99
374.796
385.725
396.286
406.158
420.189
434.222
449.936
469.935
489.758
510.059
533.151
552.745
565.391
584.119
626.83
688.052
741.155
753.505
713.245
652.887
609.025
589.177
585.887
592.363
604.968
620.002
623.824
604.413
575.616
552.735
534.661
517.989
500.694
482.334
463.949
444.944
422.983
397.651
370.614
343.416
316.632
290.487
265.837
243.962
225.783
211.215
199.785
190.3
182.493
175.7
170.073
164.64
159.364
153.127
146.655
139.583
133.442
127.727
123.747
120.39
118.937
117.877
118.581
119.001
120.698
121.336
123.003
123.191
124.528
124.188
125.324
124.587
125.718
124.683
125.939
124.644
126.091
124.557
126.216
124.452
126.348
124.323
126.505
124.192
126.679
124.106
126.893
124.139
127.25
124.484
128.096
125.693
130.275
399.359
401.083
402.139
406.45
411.048
418.356
426.645
435.168
445.877
455.817
467.956
482.084
497.408
517.594
539.891
565.695
596.237
622.446
639.762
658.562
696.548
753.193
802.647
809.994
757.539
675.455
610.459
577.278
566.632
568.432
578.044
592.97
610.512
621.817
617.138
600.32
577.535
550.422
524.335
501.018
479.728
460.121
439.976
417.725
394.679
372.47
351.137
330.093
309.551
290.533
273.973
259.991
247.877
237.281
227.892
220.084
213.667
209.132
205.978
204.306
202.812
201.659
199.881
198.484
196.803
196.064
195.347
195.924
196.563
198.438
199.833
201.994
203.085
204.783
205.201
206.378
206.234
207.136
206.628
207.493
206.718
207.693
206.673
207.844
206.568
207.99
206.432
208.158
206.266
208.368
206.077
208.631
205.916
208.977
205.887
209.541
206.245
210.768
207.748
213.791
471.019
471.769
473.821
477.565
482.772
490.781
499.237
509.588
521.045
532.611
547.29
563.182
583.816
609.173
637.839
676.298
713.428
736.259
755.69
788.555
837.241
879.348
878.935
813.23
712.521
629.23
582.039
563.192
559.325
562.437
570.572
582.502
596.452
607.128
607.669
594.333
568.952
539.239
513.632
493.617
476.682
460.023
440.69
418.901
397.443
377.691
359.249
341.887
326.178
312.891
302.077
293.151
285.553
278.982
273.072
267.678
262.882
259.377
257.695
258.13
260.093
263.005
266.12
269.147
271.746
274.051
276.02
277.911
279.711
281.507
283.082
284.434
285.469
286.29
286.828
287.229
287.446
287.627
287.681
287.789
287.743
287.87
287.727
287.945
287.661
288.049
287.551
288.195
287.404
288.393
287.217
288.682
287.003
289.13
286.835
289.895
286.982
291.369
288.36
294.705
561.616
562.4
565.159
569.194
576.173
585.766
596.86
610.459
624.951
640.897
659.506
680.731
708.458
740.601
781.016
829.344
861.488
879.092
905.712
944.616
975.551
962.028
883.247
767.85
667.258
605.422
578.161
570.706
570.449
571.979
575.436
580.93
587.945
593.381
591.917
578.394
555.113
531.314
513.873
502.54
493.204
480.75
462.316
440.354
418.847
399.288
381.669
366.698
355.186
347.257
342.051
338.511
336.037
334.275
333.095
332.42
332.343
332.778
333.699
335.074
337.148
339.831
342.979
346.017
348.814
351.077
353.127
354.861
356.691
358.253
359.772
360.85
361.857
362.457
363.028
363.266
363.562
363.606
363.77
363.737
363.83
363.796
363.824
363.854
363.772
363.947
363.672
364.092
363.52
364.313
363.313
364.659
363.044
365.229
362.788
366.223
362.845
368.112
364.371
372.274
700.131
701.472
704.97
710.409
720.278
733.197
749.134
767.739
787.49
808.82
832.465
859.984
893.584
934.325
983.446
1025.6
1042.51
1056.05
1082.96
1098.85
1069.06
978.27
851.168
733.6
654.246
615.969
605.528
606.458
607.628
605.855
602.707
599.648
597.679
595.667
589.783
576.725
560.765
549.869
546.499
547.784
547.896
539.333
520.631
497.429
474.65
454.132
436.739
424.152
417.046
414.662
415.272
417.479
420.499
423.846
427.396
431.035
434.788
438.49
442.126
445.54
448.72
451.486
453.784
455.623
457.145
458.506
459.919
461.482
463.204
464.878
466.365
467.594
468.546
469.27
469.743
470.09
470.266
470.422
470.457
470.546
470.505
470.607
470.493
470.665
470.441
470.752
470.347
470.888
470.2
471.111
469.984
471.49
469.679
472.174
469.339
473.489
469.269
476.121
470.996
481.717
939.16
941.414
946.095
954.352
968.824
987.622
1010.59
1035.81
1061.19
1086.6
1113.29
1142.43
1178.26
1223.17
1261.26
1277.07
1276.04
1279.6
1277.44
1230
1126.06
988.089
852.683
751.812
696.108
678.251
681.718
689.301
691.009
685.366
674.766
661.946
649.578
638.796
628.247
619.018
617.61
627.902
645.432
664.199
675.299
668.584
647.088
621.201
596.462
574.702
557.988
548.973
547.663
551.958
559.207
567.694
576.313
584.384
591.699
598.179
603.891
608.756
612.798
615.97
618.43
620.277
621.718
622.867
623.92
624.994
626.22
627.607
629.033
630.394
631.53
632.494
633.194
633.759
634.087
634.353
634.458
634.571
634.586
634.642
634.622
634.674
634.623
634.704
634.602
634.75
634.556
634.836