/*--------------------------------*- C++ -*----------------------------------*\
| =========                 |                                                 |
| \\      /  F ield         | OpenFOAM: The Open Source CFD Toolbox           |
|  \\    /   O peration     | Version:  v2012                                 |
|   \\  /    A nd           | Website:  www.openfoam.com                      |
|    \\/     M anipulation  |                                                 |
\*---------------------------------------------------------------------------*/
FoamFile
{
    version     2.0;
    format      ascii;
    class       scalarField;
    location    "0.076/lagrangian/kinematicCloud";
    object      age;
}
// * * * * * * * * * * * * * * * * * * * * * * * * * * * * * * * * * * * * * //


54
(
0.0752
0.0742
0.0731
0.072
0.071
0.07
0.069
0.068
0.0669
0.0658
0.065725
0.0647
0.0636
0.0625
0.0614
0.0603
0.0592
0.0581
0.057
0.056925
0.0559
0.0548
0.0537
0.0526
0.052525
0.0515
0.0504
0.050325
0.0493
0.049225
0.0482
0.0471
0.046
0.0449
0.044825
0.0439
0.0429
0.0419
0.0409
0.0399
0.0389
0.0379
0.0369
0.0359
0.0349
0.0339
0.0329
0.0319
0.0309
0.0299
0.0289
0.0279
0.0269
0.0259
)


// ************************************************************************* //
