/*--------------------------------*- C++ -*----------------------------------*\
| =========                 |                                                 |
| \\      /  F ield         | OpenFOAM: The Open Source CFD Toolbox           |
|  \\    /   O peration     | Version:  v2012                                 |
|   \\  /    A nd           | Website:  www.openfoam.com                      |
|    \\/     M anipulation  |                                                 |
\*---------------------------------------------------------------------------*/
FoamFile
{
    version     2.0;
    format      ascii;
    class       volScalarField;
    location    "0.227";
    object      epsilon.air;
}
// * * * * * * * * * * * * * * * * * * * * * * * * * * * * * * * * * * * * * //

dimensions      [0 2 -3 0 0 0 0];


internalField   nonuniform List<scalar> 
1900
(
112.724
141.424
210.098
257.591
369.051
443.457
614.739
724.906
971.317
1128.62
15.4676
16.4471
18.6377
20.4502
23.7571
27.7274
32.0036
39.2876
45.1223
56.7619
14.7926
14.6414
14.5755
14.5063
14.5148
14.5573
14.6409
14.8309
15.0774
15.4133
14.77
14.6304
14.4634
14.3354
14.1726
14.059
13.9039
13.808
13.6653
13.5937
14.7766
14.6216
14.4704
14.3205
14.1747
14.029
13.8889
13.7473
13.6138
13.477
14.7777
14.6205
14.4714
14.3197
14.1753
14.0285
13.8891
13.7473
13.6132
13.4774
14.7777
14.6207
14.473
14.3236
14.184
14.0451
13.9174
13.7915
13.6807
13.5716
14.7758
14.6503
14.5638
14.5035
14.5108
14.5519
14.6364
14.821
15.045
15.3953
15.2094
16.6072
18.2732
20.6837
23.5911
27.5745
32.2652
38.4045
45.5672
54.8115
105.896
146.639
198.348
265.825
350.034
456.094
585.697
743.681
931.831
1154.01
4102.39
15195.9
19567.4
22442.8
21114.3
18030.8
15096.5
12805.2
11302.2
10381
9875.18
9697.04
9521.96
9253.88
8849.3
8352.23
7798.21
7211.34
6644.98
6126.89
5649.79
5222.51
4837.93
4486.98
4167.68
3878.15
3615.64
3378.23
3162.64
2966.97
2788.77
2626.09
2477.21
2340.58
2215.04
2099.44
1992.85
1894.37
1803.23
1718.73
1640.27
1567.3
1499.32
1435.9
1376.62
1321.1
1269.05
1220.14
1174.1
1130.68
1089.68
1050.88
1014.13
979.257
946.129
914.61
884.598
855.969
828.649
802.518
777.534
753.574
730.63
708.573
687.43
667.054
647.519
628.651
610.573
593.067
576.315
560.043
544.499
529.337
514.892
500.727
487.287
474.018
461.506
449.05
437.414
425.703
414.909
403.882
393.909
383.506
374.336
364.488
356.106
346.728
339.123
330.118
323.287
314.544
308.498
299.893
294.661
286.058
281.667
271.306
113.174
337.586
517.778
922.598
1125.96
1151.42
1123.62
1059.73
1052.74
1091.65
1195.93
1408.12
1695.3
2026.34
2376.85
2690.79
2970.3
3202.31
3356.53
3433.7
3426.23
3387.72
3302.04
3184.48
3056.63
2925.33
2794.52
2667.81
2544.24
2426.81
2314.57
2207.46
2106.03
2010.06
1919.66
1834.53
1754.57
1679.28
1608.41
1541.68
1478.81
1419.54
1363.66
1310.9
1261.08
1213.97
1169.4
1127.15
1087.08
1048.99
1012.75
978.211
945.256
913.767
883.651
854.81
827.179
800.666
775.229
750.777
727.29
704.675
682.936
661.968
641.808
622.329
603.61
585.496
568.112
551.261
535.12
519.438
504.454
489.847
475.933
462.304
449.378
436.636
424.626
412.69
401.54
390.34
380.015
369.491
359.966
350.056
341.312
331.949
323.97
315.072
307.846
299.32
292.841
284.58
278.858
270.742
265.802
257.703
253.573
243.843
16.428
19.8644
22.8806
29.0887
34.7971
38.7614
41.7304
43.808
46.7313
50.7362
58.7398
70.9374
95.5254
130.129
189.365
266.939
373.63
508.659
665.208
835.406
1004.19
1162.09
1301.85
1418.96
1510.39
1573.97
1612.3
1629.5
1626.78
1615.83
1592.53
1561.89
1527.23
1489.81
1451.19
1411.4
1371.64
1331.41
1291.65
1252.56
1214.15
1176.59
1140.03
1104.53
1070.16
1036.86
1004.73
973.652
943.639
914.642
886.62
859.512
833.282
807.877
783.279
759.438
736.354
713.979
692.327
671.34
651.046
631.381
612.381
593.966
576.195
558.961
542.356
526.243
510.754
495.706
481.282
467.242
453.83
440.735
428.273
416.05
404.474
393.043
382.289
371.576
361.594
351.536
342.292
332.832
324.303
315.388
307.558
299.126
291.982
283.965
277.497
269.812
264.014
256.568
251.445
244.133
239.705
232.416
228.707
219.955
13.4531
13.4606
13.5463
13.8023
14.3332
15.0043
15.7156
16.3392
16.9247
17.3466
17.9015
18.3657
19.3049
20.4948
22.7474
26.2099
31.7457
40.7624
54.7035
75.9255
106.196
146.706
198.368
260.11
329.992
405.308
481.194
555.376
623.02
684.845
737.76
781.271
815.407
840.537
858.406
869.214
874.795
874.293
871.718
865.979
857.363
846.777
834.755
821.414
807.143
792.04
776.439
760.252
743.823
727.235
710.509
693.712
676.919
660.167
643.532
627.009
610.697
594.587
578.775
563.223
548.03
533.15
518.662
504.51
490.781
477.392
464.44
451.805
439.625
427.727
416.305
405.121
394.436
383.934
373.952
364.086
354.766
345.473
336.764
327.997
319.873
311.584
304.023
296.172
289.16
281.707
275.239
268.142
262.221
255.435
250.053
243.514
238.669
232.307
228.004
221.744
217.999
211.756
208.586
201.084
13.3297
13.1591
13.0625
13.1165
13.3045
13.7146
14.2833
14.9085
15.4472
15.8846
16.2114
16.4478
16.6195
16.7699
16.9078
17.0839
17.3375
17.7171
18.3285
19.2805
20.832
23.2063
26.748
32.0581
39.681
50.526
64.9991
83.6986
106.627
133.878
164.715
198.145
233.303
268.588
303.448
336.169
366.956
394.777
419.484
440.76
458.601
473.016
484.42
492.922
498.93
502.632
504.485
504.226
503.097
500.606
496.857
492.155
486.698
480.554
473.867
466.709
459.238
451.451
443.535
435.428
427.335
419.155
411.037
402.954
395.01
387.133
379.405
371.734
364.247
356.804
349.593
342.392
335.479
328.523
321.914
315.203
308.895
302.428
296.421
290.172
284.451
278.398
272.965
267.095
261.963
256.266
251.451
245.916
241.425
236.026
231.879
226.602
222.818
217.631
214.228
209.091
206.085
200.956
198.362
192.182
13.3249
13.1544
13.0316
13.0862
13.2952
13.772
14.4961
15.4837
16.5035
17.6048
18.6
19.5274
20.2689
20.8755
21.2938
21.5967
21.7665
21.844
21.8312
21.7885
21.698
21.6052
21.5356
21.5608
21.6664
21.9247
22.4663
23.3688
24.8404
27.0477
30.2966
34.7827
40.8325
48.5139
57.9685
69.2332
82.2657
96.8515
112.787
129.657
147.119
164.665
181.989
198.673
214.531
229.212
242.76
254.896
265.801
275.417
283.846
291.121
297.354
302.639
307.031
310.621
313.513
315.705
317.361
318.376
319.039
319.024
318.791
318.231
317.193
315.816
314.145
312.196
310.041
307.64
305.105
302.332
299.513
296.402
293.395
290.016
286.859
283.263
279.993
276.222
272.877
268.962
265.588
261.561
258.206
254.101
250.813
246.658
243.484
239.307
236.287
232.101
229.269
225.084
222.47
218.288
215.919
211.741
209.642
204.609
13.4657
13.3602
13.4097
13.656
14.3034
15.6865
18.0246
21.4302
25.4027
29.7154
33.616
37.0855
39.6308
41.5415
42.5938
43.3035
43.3577
43.2315
42.9048
42.3857
41.7926
41.1705
40.5145
39.9004
39.3445
38.8739
38.5021
38.2138
38.1048
38.1607
38.3398
38.7519
39.3333
40.3181
41.563
43.3229
45.565
48.492
52.1924
56.7849
62.4654
69.2469
77.3257
86.586
97.1645
108.848
121.612
135.214
149.458
164.139
178.951
193.741
208.187
222.217
235.576
248.258
260.087
271.099
281.182
290.385
298.66
306.087
312.606
318.369
323.3
327.509
330.965
333.76
335.886
337.504
338.496
339.12
339.082
338.814
338.238
337.066
335.95
334.093
332.524
330.135
328.179
325.348
323.097
319.908
317.454
313.986
311.413
307.736
305.122
301.305
298.722
294.823
292.33
288.395
286.042
282.111
279.945
276.053
274.133
269.55
15.9089
16.859
18.5483
21.9381
28.4006
39.4825
55.4314
74.9834
95.469
114.296
129.246
140.179
146.594
150.039
150.672
150.278
149.3
147.626
146.166
145.144
144.54
144.721
145.325
146.744
148.921
152.276
156.144
161.157
166.891
173.889
181.652
190.718
200.501
211.635
223.511
236.655
250.675
265.748
281.66
298.222
315.495
333.113
351.25
369.333
387.52
405.292
422.731
439.607
455.906
471.579
486.548
500.784
514.236
526.93
538.813
549.991
560.286
569.846
578.43
586.137
592.806
598.563
603.286
607.071
609.887
611.732
612.707
612.619
612.091
610.864
608.914
606.396
603.513
600.057
596.541
592.334
588.45
583.695
579.528
574.369
569.975
564.504
559.976
554.285
549.728
543.906
539.411
533.534
529.187
523.329
519.208
513.43
509.591
503.932
500.424
494.916
491.812
486.486
483.912
477.943
68.0248
90.4491
126.213
184.9
271.922
385.013
511.492
635.676
744.909
831.998
892.697
932.49
953.434
963.196
964.374
963.204
960.954
957.275
956.358
957.513
960.827
966.53
974.774
986.434
1000.42
1016.74
1034.74
1055.04
1077.3
1101.33
1126.45
1152.53
1179.11
1206.24
1233.32
1260.24
1286.58
1311.96
1336.28
1359.14
1380.91
1401.01
1419.9
1437.02
1452.86
1466.95
1479.81
1491.17
1501.35
1510.17
1517.79
1523.96
1528.95
1532.44
1534.82
1535.7
1535.34
1534.14
1531.58
1527.64
1522.73
1516.67
1509.87
1501.84
1493.37
1483.61
1473.21
1462.19
1450.73
1438.51
1426.28
1413.33
1400.69
1387.28
1374.55
1360.98
1348.42
1334.95
1322.68
1309.39
1297.49
1284.44
1273.02
1260.29
1249.47
1237.17
1227.03
1215.18
1205.79
1194.42
1185.83
1174.94
1167.19
1156.72
1149.84
1139.78
1133.85
1124.21
1119.49
1108.97
1464.61
1897.21
2398.87
2961.92
3563.07
4171.88
4746.21
5251.17
5655.23
5950.92
6132.21
6219.15
6206.61
6159.82
6061.02
5927.98
5777.89
5619.51
5459.53
5301.8
5149.5
5004.36
4867.6
4739.58
4620.5
4510.52
4409.2
4316.38
4231.42
4154.15
4083.94
4020.57
3963.28
3911.93
3865.97
3825.35
3789.53
3758.22
3730.96
3707.41
3687.43
3670.43
3656.26
3644.14
3634.19
3625.65
3618.82
3612.97
3608.46
3604.72
3602.08
3600.07
3598.82
3598.21
3598.29
3598.64
3599.46
3600.62
3601.91
3603.11
3604.5
3605.6
3606.95
3607.84
3608.93
3609.49
3609.94
3609.88
3609.57
3608.73
3607.55
3605.17
3602.79
3598.78
3594.98
3589.35
3584.24
3577.18
3570.91
3562.54
3555.25
3545.71
3537.53
3526.92
3517.97
3506.3
3496.64
3483.9
3473.66
3459.89
3449.32
3434.64
3424.09
3408.56
3398.44
3382.07
3372.73
3355.55
3346.83
3324.98
1109.7
1064.92
1122.21
1209.97
1238.63
1120.92
818.274
1979.48
54691.5
16170.4
7366
6109.4
6233.17
6483.09
6553.52
8026.62
74299.2
43687.8
24861.6
18473
16101.3
14998.8
14625.6
19667.6
76426.3
71040.6
54262.3
41200.5
32686.7
27155.2
24541.2
34056.4
69741.2
75704.8
67742
55642.2
44559.5
35836.6
30858.4
42692.6
57771.1
71174.6
67940.5
59035.1
48371.7
38729.5
32779.7
45215.9
47500.4
61837.7
62491.6
56612.8
47166.7
38178.8
32454.4
44242.7
39099.9
51827.3
53592.8
49844.9
42401.6
34682.4
29599.3
39776.6
32629.3
42992.9
44925.9
42138.5
36307.8
30048.6
25829.1
34059.6
27603.4
35624.6
37261.4
35119.7
30548.2
25562.6
22231.1
29393.1
23484.3
29585.5
30826.7
29125.9
25535.7
21637.6
19163.9
26031.7
20103
24694.5
25575.1
24185.7
21342.2
18300.2
16497.4
22987.8
17365.9
20780.3
21368.3
20209.6
17938.6
15555
14264.1
20361
15134.9
17655.9
18021.4
17040.7
15211.5
13330.1
12424.8
18149.4
13287.3
15147.5
15353.3
14516.4
13029.5
11534.1
10921.3
16315.2
11728.5
13108
13205.1
12488.1
11270
10075.1
9686.94
14791
10406.5
11438
11462.2
10845.4
9840.29
8881.31
8667.3
13519.6
9268.59
10051.8
10032.3
9499.37
8665.67
7894.57
7817.57
12451.6
8286.93
8890.51
8846.66
8384.65
7690.13
7070.37
7101.24
11545.3
7443.9
7912.67
7854.49
7453.28
6872.14
6375.09
6490.01
10768.2
6716.84
7084.09
7017.97
6668.7
6180.32
5783.08
5965.26
10094.7
6089.95
6378.61
6308.39
6003.24
5591.04
5275.31
5511.52
9506.19
5547.37
5774.76
5703
5435.44
5086.2
4837.39
5117.08
8989.31
5073.49
5253.75
5182.61
4947.48
4650.87
4457.55
4772.51
8533.29
4657.34
4801.26
4732.22
4525.24
4273.04
4126.18
4470.01
8128.95
4290.24
4405.99
4340.05
4157.68
3943.26
3835.62
4203.28
7769.21
3965
4058.78
3996.59
3835.86
3653.82
3579.55
3967.06
7448.18
3676.06
3752.45
3694.29
3552.64
3398.51
3352.81
3756.93
7160.67
3418.16
3480.79
3426.84
3302.08
3172.17
3151.07
3569.26
6902.36
3187.29
3238.91
3189.14
3079.36
2970.57
2970.89
3400.96
6669.6
2979.74
3022.57
2976.94
2880.53
2790.32
2808.93
3249.67
6459.34
2792.5
2828.27
2786.67
2702.23
2628.38
2662.98
3113.05
6268.89
2622.98
2653.1
2615.38
2541.72
2482.33
2531.01
2989.21
6095.86
2468.96
2494.58
2460.59
2396.65
2350.13
2411.29
2876.58
5938.12
2328.63
2350.67
2320.25
2265.1
2230.06
2302.34
2773.82
5793.84
2200.44
2219.65
2192.63
2145.45
2120.7
2202.9
2679.83
5661.46
2083.08
2100.04
2076.26
2036.31
2020.82
2111.9
2593.61
5539.62
1975.37
1990.59
1969.88
1936.52
1929.36
2028.44
2514.39
5427.21
1876.32
1890.21
1872.41
1845.05
1845.45
1951.72
2441.44
5323.35
1785.04
1797.94
1782.91
1761.05
1768.2
1881.12
2374.21
5227.28
1700.74
1712.94
1700.53
1683.72
1696.98
1816
2312.14
5138.37
1622.75
1634.47
1624.54
1612.37
1631.23
1755.81
2254.77
5056.09
1550.45
1561.87
1554.3
1546.39
1570.38
1700.08
2201.69
4980
1483.29
1494.56
1489.21
1485.26
1513.97
1648.38
2152.51
4909.62
1420.77
1432.03
1428.78
1428.49
1461.55
1600.31
2106.87
4844.52
1362.46
1373.79
1372.55
1375.61
1412.76
1555.56
2064.45
4784.26
1307.97
1319.46
1320.11
1326.28
1367.24
1513.79
2024.95
4728.4
1256.95
1268.65
1271.1
1280.19
1324.69
1474.75
1988.1
4676.53
1209.09
1221.05
1225.21
1237.04
1284.83
1438.16
1953.65
4628.2
1164.1
1176.38
1182.17
1196.57
1247.43
1403.83
1921.38
4583.04
1121.74
1134.39
1141.74
1158.55
1212.28
1371.54
1891.09
4540.69
1081.8
1094.85
1103.7
1122.77
1179.19
1341.15
1862.63
4500.86
1044.08
1057.58
1067.85
1089.06
1147.99
1312.49
1835.81
4463.27
1008.41
1022.37
1034.03
1057.25
1118.55
1285.44
1810.55
4427.74
974.631
989.089
1002.07
1027.19
1090.72
1259.85
1786.69
4394.09
942.593
957.572
971.83
998.761
1064.39
1235.66
1764.18
4362.24
912.178
927.697
943.187
971.83
1039.44
1212.74
1742.9
4332.1
883.249
899.326
916.009
946.285
1015.78
1191.03
1722.81
4303.6
855.72
872.366
890.203
922.035
993.328
1170.43
1703.82
4276.74
829.458
846.686
865.644
898.971
971.981
1150.88
1685.88
4251.39
804.411
822.229
842.274
877.032
951.683
1132.31
1668.93
4227.63
780.448
798.863
819.967
856.106
932.339
1114.64
1652.91
4205.23
757.552
776.568
798.704
836.172
913.925
1097.86
1637.78
4184.35
735.585
755.205
778.346
817.101
896.326
1081.86
1623.47
4164.61
714.57
734.795
758.919
798.917
879.562
1066.66
1609.97
4146.29
694.351
715.178
740.258
781.46
863.483
1052.11
1597.15
4128.86
675
696.427
722.44
764.811
848.163
1038.29
1585.07
4112.76
656.329
678.344
705.262
748.761
833.401
1025
1573.54
4097.23
638.464
661.062
688.861
733.453
819.341
1012.38
1562.68
4082.96
621.17
644.329
672.975
718.616
805.71
1000.16
1552.24
4068.95
604.636
628.347
657.816
704.476
792.738
988.568
1542.4
4056.15
588.566
612.798
643.047
690.675
780.06
977.237
1532.83
4043.3
573.226
597.967
628.977
677.547
768.023
966.513
1523.84
4031.68
558.239
583.45
615.169
664.622
756.134
955.897
1514.94
4019.65
543.97
569.642
602.056
652.377
744.903
945.913
1506.66
4008.97
529.942
556.027
589.074
640.192
733.663
935.86
1498.25
3997.45
516.643
543.138
576.815
628.729
723.143
926.522
1490.58
3987.53
503.469
530.319
564.554
617.178
712.443
916.912
1482.51
3976.23
491.064
518.276
553.082
606.433
702.575
908.167
1475.38
3966.97
478.662
506.173
541.463
595.44
692.335
898.909
1467.53
3955.64
467.102
494.931
530.737
585.383
683.098
890.746
1460.95
3947
455.408
483.481
519.703
574.891
673.263
881.776
1453.23
3935.49
444.664
473.018
509.708
565.516
664.665
874.222
1447.26
3927.55
433.621
462.17
499.211
555.482
655.193
865.496
1439.59
3915.83
423.676
452.473
489.942
546.795
647.255
858.597
1434.3
3908.68
413.226
442.175
479.936
537.18
638.116
850.095
1426.69
3896.88
404.068
433.234
471.389
529.186
630.857
843.887
1422.16
3890.59
394.145
423.425
461.823
519.952
622.033
835.62
1414.68
3879
385.759
415.231
453.99
512.643
615.445
830.096
1410.85
3873.49
376.283
405.836
444.801
503.749
606.928
822.115
1403.68
3862.5
368.661
398.378
437.67
497.107
600.981
817.212
1400.38
3857.5
359.537
389.31
428.782
488.495
592.742
809.543
1393.73
3847.38
352.675
382.586
422.347
482.505
587.404
805.209
1390.82
3842.84
343.794
373.742
413.667
474.099
579.396
797.846
1384.76
3833.55
337.705
367.758
407.923
468.74
574.619
793.995
1382.17
3829.33
328.946
359.025
399.352
460.458
566.784
786.91
1376.59
3820.68
323.654
353.798
394.3
455.701
562.496
783.402
1374.16
3816.58
314.887
345.053
385.727
447.45
554.769
776.573
1368.98
3808.55
310.41
340.588
381.355
443.258
550.883
773.235
1366.58
3804.48
299.809
329.966
370.883
433.113
541.314
764.719
1359.8
3795.08
)
;

boundaryField
{
    frontAndBack
    {
        type            empty;
    }
    inlet
    {
        type            fixedValue;
        value           uniform 14.855;
    }
    outlet
    {
        type            zeroGradient;
    }
    walls
    {
        lowReCorrection 0;
        blending        stepwise;
        n               2;
        type            epsilonWallFunction;
        value           nonuniform List<scalar> 
228
(
112.724
141.424
210.098
257.591
369.051
443.457
614.739
724.906
971.317
1128.62
1109.7
1064.92
1122.21
1209.97
1238.63
1120.92
818.274
1979.48
1979.48
8026.62
19667.6
34056.4
42692.6
45215.9
44242.7
39776.6
34059.6
29393.1
26031.7
22987.8
20361
18149.4
16315.2
14791
13519.6
12451.6
11545.3
10768.2
10094.7
9506.19
8989.31
8533.29
8128.95
7769.21
7448.18
7160.67
6902.36
6669.6
6459.34
6268.89
6095.86
5938.12
5793.84
5661.46
5539.62
5427.21
5323.35
5227.28
5138.37
5056.09
4980
4909.62
4844.52
4784.26
4728.4
4676.53
4628.2
4583.04
4540.69
4500.86
4463.27
4427.74
4394.09
4362.24
4332.1
4303.6
4276.74
4251.39
4227.63
4205.23
4184.35
4164.61
4146.29
4128.86
4112.76
4097.23
4082.96
4068.95
4056.15
4043.3
4031.68
4019.65
4008.97
3997.45
3987.53
3976.23
3966.97
3955.64
3947
3935.49
3927.55
3915.83
3908.68
3896.88
3890.59
3879
3873.49
3862.5
3857.5
3847.38
3842.84
3833.55
3829.33
3820.68
3816.58
3808.55
3804.48
3795.08
105.896
146.639
198.348
265.825
350.034
456.094
585.697
743.681
931.831
1154.01
1464.61
1897.21
2398.87
2961.92
3563.07
4171.88
4746.21
5251.17
5655.23
5950.92
6132.21
6219.15
6206.61
6159.82
6061.02
5927.98
5777.89
5619.51
5459.53
5301.8
5149.5
5004.36
4867.6
4739.58
4620.5
4510.52
4409.2
4316.38
4231.42
4154.15
4083.94
4020.57
3963.28
3911.93
3865.97
3825.35
3789.53
3758.22
3730.96
3707.41
3687.43
3670.43
3656.26
3644.14
3634.19
3625.65
3618.82
3612.97
3608.46
3604.72
3602.08
3600.07
3598.82
3598.21
3598.29
3598.64
3599.46
3600.62
3601.91
3603.11
3604.5
3605.6
3606.95
3607.84
3608.93
3609.49
3609.94
3609.88
3609.57
3608.73
3607.55
3605.17
3602.79
3598.78
3594.98
3589.35
3584.24
3577.18
3570.91
3562.54
3555.25
3545.71
3537.53
3526.92
3517.97
3506.3
3496.64
3483.9
3473.66
3459.89
3449.32
3434.64
3424.09
3408.56
3398.44
3382.07
3372.73
3355.55
3346.83
3324.98
)
;
    }
}


// ************************************************************************* //
