/*--------------------------------*- C++ -*----------------------------------*\
| =========                 |                                                 |
| \\      /  F ield         | OpenFOAM: The Open Source CFD Toolbox           |
|  \\    /   O peration     | Version:  v2012                                 |
|   \\  /    A nd           | Website:  www.openfoam.com                      |
|    \\/     M anipulation  |                                                 |
\*---------------------------------------------------------------------------*/
FoamFile
{
    version     2.0;
    format      ascii;
    class       volScalarField;
    location    "0.166";
    object      epsilon.air;
}
// * * * * * * * * * * * * * * * * * * * * * * * * * * * * * * * * * * * * * //

dimensions      [0 2 -3 0 0 0 0];


internalField   nonuniform List<scalar> 
1900
(
112.724
141.424
210.097
257.591
369.051
443.456
614.741
724.902
971.334
1128.61
15.4676
16.4471
18.6375
20.4503
23.7569
27.728
32.0001
39.3097
44.9861
56.9755
14.7926
14.6414
14.5755
14.5063
14.515
14.5558
14.6443
14.8291
15.0762
15.4173
14.77
14.6304
14.4634
14.3354
14.1726
14.059
13.904
13.8079
13.6653
13.5938
14.7766
14.6215
14.4705
14.3204
14.1749
14.0288
13.8891
13.7471
13.614
13.4769
14.7777
14.6205
14.4714
14.3195
14.1755
14.0283
13.8892
13.7471
13.6134
13.4773
14.7777
14.6207
14.4731
14.3234
14.1841
14.0448
13.9177
13.7911
13.681
13.5713
14.7761
14.6498
14.564
14.5032
14.5109
14.5502
14.6394
14.8163
15.0485
15.3914
15.2125
16.5992
18.2816
20.6705
23.6052
27.5566
32.2825
38.3824
45.5856
54.7877
105.891
146.623
198.35
265.788
350.037
456.034
585.698
743.597
931.831
1153.91
4099.34
15201.5
19580.3
22437.3
21098.5
17996.6
15065
12773.4
11285.3
10374.9
9879.54
9709.48
9535.66
9265.17
8856.23
8355.57
7798.93
7210.74
6644.09
6126.13
5649.3
5222.43
4837.98
4487.16
4167.88
3878.39
3615.75
3378.18
3162.41
2966.48
2788.1
2625.27
2476.32
2339.72
2214.3
2098.89
1992.58
1894.37
1803.53
1719.27
1641
1568.13
1500.17
1436.68
1377.26
1321.57
1269.3
1220.18
1173.95
1130.38
1089.27
1050.41
1013.65
978.798
945.731
914.286
884.36
855.815
828.576
802.517
777.595
753.69
730.791
708.772
687.659
667.309
647.784
628.916
610.815
593.272
576.46
560.115
544.487
529.238
514.715
500.482
487.002
473.712
461.218
448.796
437.229
425.592
414.891
403.95
394.056
383.72
374.588
364.766
356.371
346.977
339.314
330.263
323.352
314.549
308.428
299.768
294.488
285.847
281.447
271.087
112.939
337.855
517.997
922.419
1124.59
1147.76
1119.68
1054.92
1049.65
1089.28
1194.84
1409.69
1698.32
2030.82
2381.08
2694.15
2973.22
3205.06
3359.33
3436.07
3428.33
3389.32
3302.61
3184.54
3056.1
2924.59
2793.42
2666.7
2543.27
2425.92
2313.9
2206.99
2105.71
2009.84
1919.51
1834.43
1754.54
1679.31
1608.54
1541.92
1479.17
1420
1364.17
1311.45
1261.6
1214.42
1169.73
1127.34
1087.11
1048.87
1012.51
977.881
944.88
913.384
883.299
854.512
826.952
800.515
775.151
750.764
727.33
704.755
683.045
662.098
641.954
622.489
603.779
585.672
568.282
551.417
535.246
519.522
504.483
489.813
475.837
462.149
449.181
436.411
424.4
412.48
401.375
390.23
379.975
369.521
360.062
350.211
341.504
332.167
324.183
315.274
308.005
299.441
292.9
284.589
278.808
270.647
265.668
257.539
253.403
243.675
16.4223
19.8693
22.8847
29.094
34.7924
38.7049
41.6613
43.7011
46.6279
50.6494
58.6611
70.9259
95.6094
130.441
189.819
267.695
374.485
510.169
667.14
838.284
1007.37
1165.6
1304.7
1420.77
1510.63
1573.11
1610.22
1627.15
1624.47
1613.75
1591.08
1561.11
1527.02
1490.06
1451.64
1411.99
1372.19
1331.84
1291.98
1252.8
1214.32
1176.73
1140.18
1104.73
1070.4
1037.13
1004.98
973.858
943.76
914.657
886.526
859.318
833.019
807.58
782.988
759.18
736.156
713.851
692.271
671.352
651.107
631.478
612.496
594.087
576.312
559.075
542.466
526.352
510.859
495.806
481.368
467.306
453.861
440.724
428.217
415.945
404.331
392.869
382.104
371.395
361.439
351.42
342.229
332.829
324.357
315.497
307.705
299.303
292.163
284.145
277.648
269.935
264.088
256.599
251.427
244.073
239.61
232.291
228.573
219.816
13.4531
13.4606
13.5463
13.8029
14.3358
15.0069
15.7226
16.3413
16.9284
17.3405
17.8934
18.3563
19.3014
20.4933
22.7373
26.2646
31.7377
40.906
54.8244
76.3375
106.785
147.683
199.607
261.391
330.974
405.659
480.658
553.925
620.852
682.212
735.238
779.23
814.069
840.062
858.539
869.936
875.681
875.182
872.542
866.596
857.766
846.993
834.849
821.461
807.173
792.099
776.516
760.334
743.888
727.244
710.441
693.56
676.694
659.902
643.257
626.753
610.499
594.461
578.728
563.256
548.123
533.29
518.825
504.676
490.937
477.532
464.566
451.919
439.728
427.82
416.384
405.181
394.472
383.934
373.914
364.005
354.646
345.318
336.59
327.814
319.702
311.439
303.918
296.117
289.157
281.76
275.333
268.277
262.372
255.6
250.206
243.653
238.776
232.381
228.039
221.737
217.961
211.68
208.497
200.974
13.3299
13.1589
13.0624
13.1167
13.3058
13.7172
14.291
14.9123
15.4548
15.8773
16.2103
16.4285
16.6116
16.7564
16.8988
17.0902
17.3299
17.7433
18.3237
19.3221
20.8472
23.2786
26.8281
32.2044
39.8455
50.6847
65.0798
83.577
106.255
133.096
163.619
196.767
231.865
267.257
302.455
335.585
366.874
395.045
420.073
441.458
459.337
473.671
484.953
493.341
499.215
502.849
504.605
504.318
503.141
500.569
496.737
491.936
486.408
480.186
473.479
466.331
458.909
451.189
443.359
435.353
427.338
419.246
411.182
403.132
395.21
387.339
379.618
371.946
364.455
357.001
349.772
342.548
335.603
328.6
321.944
315.177
308.816
302.296
296.247
289.968
284.236
278.189
272.777
266.946
261.856
256.216
251.448
245.968
241.513
236.149
232.019
226.749
222.962
217.757
214.335
209.164
206.134
200.963
198.349
192.127
13.3251
13.1543
13.0315
13.0864
13.2961
13.7742
14.5005
15.4912
16.5062
17.6044
18.5888
19.5119
20.2502
20.8608
21.2883
21.5988
21.7794
21.8591
21.8454
21.8003
21.7028
21.6057
21.5328
21.5581
21.6657
21.9261
22.4684
23.3665
24.8507
26.9904
30.23
34.5774
40.5791
48.1023
57.5151
68.699
81.7984
96.4648
112.588
129.664
147.341
165.116
182.58
199.42
215.301
230.024
243.49
255.565
266.329
275.798
284.052
291.122
297.193
302.292
306.566
310.069
312.935
315.124
316.823
317.915
318.655
318.779
318.61
318.154
317.234
315.943
314.365
312.476
310.378
308.013
305.492
302.719
299.868
296.704
293.643
290.182
286.938
283.248
279.893
276.049
272.645
268.696
265.301
261.282
257.944
253.881
250.637
246.543
243.427
239.309
236.345
232.201
229.411
225.24
222.648
218.453
216.083
211.871
209.752
204.664
13.466
13.36
13.4095
13.6558
14.3037
15.6897
18.0292
21.4473
25.4051
29.7153
33.5832
37.0537
39.585
41.5251
42.5864
43.3301
43.3932
43.2669
42.9292
42.4042
41.7888
41.1507
40.4914
39.8643
39.3327
38.8645
38.5202
38.2437
38.1443
38.1981
38.3709
38.725
39.3575
40.2536
41.5089
43.2251
45.4405
48.3835
52.0439
56.7252
62.3836
69.3296
77.4257
86.9122
97.5569
109.463
122.298
136.025
150.275
164.923
179.638
194.252
208.526
222.315
235.484
247.931
259.611
270.454
280.455
289.593
297.865
305.319
311.913
317.752
322.824
327.168
330.811
333.794
336.094
337.872
338.995
339.74
339.73
339.487
338.907
337.665
336.428
334.431
332.711
330.178
328.072
325.125
322.765
319.512
317.01
313.535
310.979
307.348
304.804
301.061
298.577
294.756
292.364
288.49
286.219
282.324
280.201
276.319
274.395
269.778
15.9144
16.854
18.5475
21.9313
28.3972
39.5131
55.4544
75.0552
95.4566
114.276
129.121
140.064
146.488
149.991
150.724
150.355
149.402
147.765
146.232
145.158
144.518
144.649
145.252
146.532
149.045
152.107
156.383
161.125
167.185
173.92
181.861
190.689
200.533
211.486
223.32
236.444
250.381
265.582
281.402
298.208
315.401
333.3
351.277
369.604
387.564
405.464
422.676
439.561
455.712
471.357
486.315
500.575
514.193
526.956
539.078
550.271
560.679
570.109
578.63
586.081
592.566
598.008
602.518
606.043
608.768
610.539
611.707
611.839
611.513
610.697
609.077
606.947
604.314
601.076
597.721
593.517
589.544
584.644
580.264
574.875
570.216
564.517
559.766
553.905
549.209
543.296
538.763
532.872
528.576
522.76
518.745
513.039
509.332
503.765
500.39
494.989
491.987
486.772
484.244
478.352
68.0477
90.4175
126.2
184.878
271.932
385.217
511.631
635.936
744.759
831.847
892.146
932.151
953.074
963.191
964.656
963.584
961.413
957.778
956.527
957.547
960.686
966.136
974.468
985.999
1000.41
1016.6
1035.12
1055.29
1077.89
1101.63
1126.77
1152.59
1179.09
1205.94
1232.84
1259.7
1285.93
1311.51
1335.77
1359.02
1380.82
1401.38
1420.22
1437.75
1453.42
1467.74
1480.35
1491.75
1501.71
1510.43
1517.96
1524.02
1529.09
1532.49
1535.1
1535.91
1535.58
1534.35
1531.77
1527.5
1522.49
1515.97
1508.91
1500.51
1491.71
1481.92
1471.66
1460.87
1449.72
1438.03
1426.27
1413.82
1401.61
1388.52
1376.04
1362.58
1349.96
1336.33
1323.8
1310.25
1298.07
1284.77
1273.11
1260.19
1249.18
1236.71
1226.46
1214.49
1205.05
1193.6
1185.03
1174.11
1166.43
1156.04
1149.29
1139.41
1133.65
1124.27
1119.69
1109.46
1464.64
1897.07
2398.9
2961.81
3563.11
4171.86
4746.2
5251.07
5654.95
5950.64
6131.93
6219.4
6207
6160.37
6061.76
5928.66
5778.19
5619.55
5459.11
5301.28
5148.91
5004.05
4867.52
4739.83
4621.06
4511.15
4409.85
4316.65
4231.49
4153.68
4083.28
4019.54
3962.34
3911.06
3865.54
3825.33
3789.97
3759.01
3731.88
3708.39
3688.13
3670.89
3656.18
3643.86
3633.48
3625.09
3618.16
3612.75
3608.47
3605.21
3602.86
3601.06
3599.92
3599.09
3598.71
3598.74
3598.99
3599.48
3600.49
3601.37
3602.87
3604.15
3605.82
3607.21
3608.62
3609.58
3610.31
3610.29
3609.98
3609.09
3607.83
3605.36
3603
3599.13
3595.59
3590.3
3585.5
3578.7
3572.55
3564.21
3556.73
3546.88
3538.21
3527
3517.43
3505.14
3495.03
3481.93
3471.62
3457.9
3447.64
3433.32
3423.29
3408.24
3398.62
3382.64
3373.59
3356.55
3347.83
3325.88
1108.74
1064.26
1122.15
1210.17
1238.98
1121.47
818.727
1980.21
54618.2
16116.8
7349.53
6104.8
6234.94
6486.58
6557.31
8029.59
74256.7
43593.4
24812.5
18456.8
16100.5
15004.3
14632.7
19672.4
76426.8
71027.4
54249.1
41197.6
32691.5
27164
24552.7
34072.3
69732.8
75715.7
67759
55659.4
44573.1
35846.3
30866.5
42709.7
57737.3
71180.7
67955.1
59051.1
48382.8
38736.2
32784
45229.1
47466.4
61829.5
62492.2
56614.6
47164.9
38173.4
32447.1
44237.6
39064.3
51807.4
53573.6
49823.9
42380
34661.4
29577.1
39739.4
32610.7
42976.6
44905.5
42115.9
36284.8
30027.4
25807.3
34018.5
27600.1
35615.9
37246.1
35101.8
30529.9
25546.2
22214.6
29360.7
23489.6
29583
30818
29115
25524.8
21628.3
19154.1
26005.8
20112.8
24697.5
25573.7
24183
21339.9
18299
16495.9
22974.6
17376.3
20786.5
21372.4
20213.5
17943.3
15560.6
14270.1
20362.4
15143.7
17663.3
18028.7
17048.7
15220.4
13340
12436
18163.9
13293.3
15154
15361
14525.4
13039.6
11545.3
10934.7
16338.7
11731.8
13112.7
13211.4
12495.8
11278.8
10085.1
9699.74
14818.2
10407.4
11440.4
11466.2
10850.6
9846.37
8888.47
8677.33
13545.5
9268.08
10052.3
10033.9
9501.83
8668.69
7898.38
7823.76
12472.4
8285.67
8889.77
8846.48
8384.82
7690.48
7071.1
7103.46
11558.4
7442.63
7911.48
7853.39
7452.05
6870.7
6373.54
6488.97
10773.1
6715.83
7082.93
7016.59
6666.87
6177.99
5780.2
5961.94
10092.3
6089.49
6377.9
6307.28
6001.51
5588.61
5272.03
5507.06
9498.5
5547.35
5774.54
5702.37
5434.16
5084.16
4834.36
5112.44
8978.57
5073.84
5254
5182.49
4946.78
4649.46
4455.18
4768.43
8521.73
4657.92
4801.8
4732.48
4525.03
4272.25
4124.58
4466.86
8118.37
4290.9
4406.64
4340.48
4157.78
3942.94
3834.73
4201.19
7760.88
3965.52
4059.3
3996.95
3836.02
3653.75
3579.16
3965.9
7442.63
3676.28
3752.64
3694.39
3552.64
3398.46
3352.68
3756.48
7157.81
3418.01
3480.55
3426.54
3301.79
3171.96
3150.99
3569.2
6901.66
3186.71
3238.21
3188.42
3078.72
2970.12
2970.69
3401.02
6670.27
2978.82
3021.49
2975.87
2879.6
2789.62
2808.52
3249.64
6460.52
2791.34
2826.96
2785.4
2701.13
2627.52
2662.4
3112.82
6269.85
2621.75
2651.76
2614.1
2540.61
2481.45
2530.35
2988.78
6096.13
2467.8
2493.38
2459.48
2395.72
2349.38
2410.69
2876.05
5937.53
2327.71
2349.78
2319.48
2264.5
2229.59
2301.93
2773.35
5792.54
2199.85
2219.16
2192.29
2145.25
2120.6
2202.81
2679.57
5659.82
2082.88
2100.01
2076.39
2036.57
2021.13
2112.2
2593.73
5538.19
1975.57
1990.99
1970.44
1937.19
1930.07
2029.15
2514.99
5426.54
1876.88
1890.98
1873.33
1846.05
1846.5
1952.8
2442.55
5323.91
1785.87
1798.97
1784.06
1762.27
1769.47
1882.48
2375.79
5229.35
1701.75
1714.1
1701.77
1685.01
1698.34
1817.51
2314.07
5141.98
1623.81
1635.63
1625.75
1613.61
1632.54
1757.33
2256.89
5061.04
1551.45
1562.91
1555.34
1547.45
1571.52
1701.46
2203.8
4985.82
1484.13
1495.4
1490.01
1486.05
1514.83
1649.49
2154.4
4915.73
1421.4
1432.59
1429.28
1428.96
1462.07
1601.06
2108.36
4850.25
1362.84
1374.07
1372.73
1375.75
1412.92
1555.89
2065.39
4788.96
1308.09
1319.45
1319.99
1326.1
1367.04
1513.69
2025.25
4731.53
1256.83
1268.4
1270.73
1279.73
1324.17
1474.22
1987.73
4677.69
1208.77
1220.61
1224.65
1236.37
1284.05
1437.27
1952.63
4627.24
1163.64
1175.8
1181.48
1195.76
1246.47
1402.66
1919.8
4580
1121.19
1133.74
1140.99
1157.66
1211.21
1370.18
1889.08
4535.87
1081.22
1094.19
1102.94
1121.89
1178.1
1339.7
1860.34
4494.7
1043.52
1056.95
1067.15
1088.23
1146.95
1311.05
1833.43
4456.37
1007.9
1021.82
1033.41
1056.52
1117.62
1284.1
1808.24
4420.69
974.205
988.635
1001.57
1026.6
1089.95
1258.72
1784.63
4387.55
942.259
957.225
971.456
998.324
1063.81
1234.78
1762.5
4356.71
911.943
927.466
942.952
971.565
1039.09
1212.17
1741.71
4328
883.11
899.207
915.911
946.194
1015.66
1190.78
1722.17
4301.19
855.674
872.357
890.241
922.12
993.441
1170.52
1703.76
4276.1
829.498
846.781
865.81
899.221
972.321
1151.3
1686.41
4252.51
804.528
822.419
842.559
877.434
952.228
1133.03
1669.98
4230.27
780.636
799.139
820.359
856.643
933.066
1115.64
1654.43
4209.19
757.799
776.916
799.179
836.81
914.784
1099.05
1639.64
4189.18
735.883
755.612
778.888
817.815
897.282
1083.2
1625.59
4170.06
714.904
735.237
759.49
799.656
880.544
1068.04
1612.17
4151.86
694.71
715.637
740.834
782.192
864.449
1053.48
1599.35
4134.31
675.357
696.868
722.976
765.475
849.033
1039.53
1587.09
4117.64
656.668
678.745
705.73
749.326
834.136
1026.06
1575.3
4101.42
638.754
661.384
689.216
733.865
819.872
1013.17
1564.05
4086.15
621.393
644.553
673.197
718.853
806.012
1000.64
1553.14
4071.08
604.766
628.447
657.878
704.508
792.777
988.698
1542.8
4057.1
588.592
612.765
642.944
690.501
779.831
977.001
1532.67
4043.02
573.141
597.8
628.712
677.175
767.542
965.936
1523.18
4030.3
558.047
583.158
614.756
664.071
755.419
954.984
1513.73
4017.06
543.688
569.251
601.533
651.695
744.022
944.762
1505.08
4005.59
529.588
555.56
588.469
639.411
732.643
934.485
1496.26
3993.1
516.256
542.646
576.192
627.931
722.095
925.083
1488.44
3982.87
503.072
529.827
563.94
616.389
711.386
915.412
1480.18
3971.07
490.705
517.843
552.548
605.748
701.641
906.8
1473.18
3962.05
478.358
505.813
541.022
594.864
691.522
897.659
1465.41
3950.87
466.894
494.694
530.45
585
682.526
889.794
1459.22
3943.01
455.297
483.364
519.563
574.687
672.91
881.097
1451.85
3932.33
444.67
473.044
509.745
565.536
664.601
873.926
1446.41
3925.54
433.731
462.323
499.405
555.702
655.397
865.577
1439.33
3915.16
423.883
452.742
490.28
547.203
647.714
859.04
1434.58
3909.29
413.512
442.54
480.399
537.761
638.831
850.942
1427.67
3899.01
404.398
433.653
471.922
529.865
631.722
844.979
1423.55
3893.77
394.506
423.885
462.419
520.736
623.079
837.04
1416.7
3883.48
386.102
415.668
454.563
513.412
616.504
831.596
1413.09
3878.42
376.607
406.256
445.364
504.527
608.036
823.75
1406.24
3868.09
368.912
398.71
438.128
497.764
601.967
818.763
1402.96
3863.06
359.731
389.576
429.164
489.067
593.633
810.99
1396.2
3852.57
352.768
382.726
422.57
482.879
588.061
806.413
1393.1
3847.5
343.812
373.788
413.77
474.314
579.832
798.718
1386.47
3836.86
337.626
367.678
407.861
468.737
574.774
794.526
1383.51
3831.75
328.793
358.845
399.149
460.251
566.633
786.956
1377.1
3821.3
323.435
353.529
393.975
455.325
562.105
783.114
1374.21
3816.01
314.611
344.7
385.272
446.87
554.052
775.742
1368.08
3806.16
310.118
340.208
380.856
442.602
550.036
772.175
1365.27
3801.3
299.51
329.564
370.33
432.345
540.24
763.21
1357.63
3790.39
)
;

boundaryField
{
    frontAndBack
    {
        type            empty;
    }
    inlet
    {
        type            fixedValue;
        value           uniform 14.855;
    }
    outlet
    {
        type            zeroGradient;
    }
    walls
    {
        lowReCorrection 0;
        blending        stepwise;
        n               2;
        type            epsilonWallFunction;
        value           nonuniform List<scalar> 
228
(
112.724
141.424
210.097
257.591
369.051
443.456
614.741
724.902
971.334
1128.61
1108.74
1064.26
1122.15
1210.17
1238.98
1121.47
818.727
1980.21
1980.21
8029.59
19672.4
34072.3
42709.7
45229.1
44237.6
39739.4
34018.5
29360.7
26005.8
22974.6
20362.4
18163.9
16338.7
14818.2
13545.5
12472.4
11558.4
10773.1
10092.3
9498.5
8978.57
8521.73
8118.37
7760.88
7442.63
7157.81
6901.66
6670.27
6460.52
6269.85
6096.13
5937.53
5792.54
5659.82
5538.19
5426.54
5323.91
5229.35
5141.98
5061.04
4985.82
4915.73
4850.25
4788.96
4731.53
4677.69
4627.24
4580
4535.87
4494.7
4456.37
4420.69
4387.55
4356.71
4328
4301.19
4276.1
4252.51
4230.27
4209.19
4189.18
4170.06
4151.86
4134.31
4117.64
4101.42
4086.15
4071.08
4057.1
4043.02
4030.3
4017.06
4005.59
3993.1
3982.87
3971.07
3962.05
3950.87
3943.01
3932.33
3925.54
3915.16
3909.29
3899.01
3893.77
3883.48
3878.42
3868.09
3863.06
3852.57
3847.5
3836.86
3831.75
3821.3
3816.01
3806.16
3801.3
3790.39
105.891
146.623
198.35
265.788
350.037
456.034
585.698
743.597
931.831
1153.91
1464.64
1897.07
2398.9
2961.81
3563.11
4171.86
4746.2
5251.07
5654.95
5950.64
6131.93
6219.4
6207
6160.37
6061.76
5928.66
5778.19
5619.55
5459.11
5301.28
5148.91
5004.05
4867.52
4739.83
4621.06
4511.15
4409.85
4316.65
4231.49
4153.68
4083.28
4019.54
3962.34
3911.06
3865.54
3825.33
3789.97
3759.01
3731.88
3708.39
3688.13
3670.89
3656.18
3643.86
3633.48
3625.09
3618.16
3612.75
3608.47
3605.21
3602.86
3601.06
3599.92
3599.09
3598.71
3598.74
3598.99
3599.48
3600.49
3601.37
3602.87
3604.15
3605.82
3607.21
3608.62
3609.58
3610.31
3610.29
3609.98
3609.09
3607.83
3605.36
3603
3599.13
3595.59
3590.3
3585.5
3578.7
3572.55
3564.21
3556.73
3546.88
3538.21
3527
3517.43
3505.14
3495.03
3481.93
3471.62
3457.9
3447.64
3433.32
3423.29
3408.24
3398.62
3382.64
3373.59
3356.55
3347.83
3325.88
)
;
    }
}


// ************************************************************************* //
