/*--------------------------------*- C++ -*----------------------------------*\
| =========                 |                                                 |
| \\      /  F ield         | OpenFOAM: The Open Source CFD Toolbox           |
|  \\    /   O peration     | Version:  v2012                                 |
|   \\  /    A nd           | Website:  www.openfoam.com                      |
|    \\/     M anipulation  |                                                 |
\*---------------------------------------------------------------------------*/
FoamFile
{
    version     2.0;
    format      ascii;
    class       volScalarField;
    location    "0.166";
    object      k.air;
}
// * * * * * * * * * * * * * * * * * * * * * * * * * * * * * * * * * * * * * //

dimensions      [0 2 -2 0 0 0 0];


internalField   nonuniform List<scalar> 
5600
(
0.60631
0.840797
0.955151
0.978125
0.949217
0.897523
0.839638
0.787162
0.743438
0.707114
0.679552
0.658137
0.643606
0.632407
0.625525
0.619895
0.616328
0.613364
0.610773
0.609086
0.606731
0.605811
0.603878
0.603339
0.602348
0.601656
0.601739
0.600551
0.601464
0.599917
0.601022
0.599548
0.600037
0.599372
0.59869
0.59912
0.59741
0.598484
0.596603
0.597316
0.596472
0.595709
0.596744
0.594196
0.596818
0.593392
0.596218
0.593611
0.594873
0.594647
0.593249
0.595633
0.592269
0.595823
0.592425
0.595011
0.593503
0.593876
0.594678
0.593329
0.595124
0.593783
0.594844
0.594876
0.594413
0.595939
0.594484
0.596495
0.595231
0.596593
0.596419
0.59658
0.597656
0.59679
0.598739
0.597224
0.599747
0.597908
0.600595
0.598862
0.601232
0.600022
0.601758
0.601149
0.602584
0.601876
0.603955
0.60241
0.60515
0.603815
0.604598
0.607551
0.600831
0.614451
0.592967
0.626873
0.572304
0.666156
0.484486
0.829557
0.371675
0.315497
0.288728
0.275555
0.275107
0.284471
0.307559
0.344752
0.387329
0.429988
0.471689
0.508771
0.541995
0.569248
0.592053
0.609794
0.623262
0.634409
0.640984
0.648639
0.651607
0.657311
0.659333
0.663283
0.666288
0.667082
0.671776
0.669809
0.675434
0.671802
0.676658
0.673962
0.675682
0.676383
0.674051
0.678041
0.673245
0.67821
0.674288
0.676402
0.67715
0.673581
0.680403
0.671527
0.682331
0.671991
0.681142
0.675671
0.677367
0.680711
0.673603
0.684385
0.672499
0.684665
0.675287
0.681856
0.680116
0.678902
0.683714
0.678542
0.684369
0.68116
0.682891
0.684849
0.681725
0.687418
0.682363
0.688069
0.684861
0.687514
0.688005
0.687084
0.690754
0.687154
0.693099
0.687661
0.695097
0.6889
0.696365
0.690975
0.696846
0.693445
0.697279
0.695162
0.699083
0.695265
0.702431
0.695189
0.704847
0.698636
0.70234
0.708276
0.694027
0.721458
0.684337
0.733346
0.670098
0.761689
0.61077
0.858185
0.369206
0.281786
0.227889
0.192766
0.16889
0.153408
0.146071
0.143076
0.147583
0.154443
0.16771
0.181316
0.199791
0.21822
0.239228
0.260822
0.281957
0.305383
0.32529
0.349519
0.368252
0.391486
0.408589
0.42557
0.440811
0.450244
0.46564
0.468791
0.483259
0.483764
0.494816
0.497055
0.501979
0.508608
0.507414
0.51735
0.51317
0.522396
0.520838
0.523896
0.52973
0.524011
0.537765
0.525466
0.542338
0.530639
0.542003
0.539349
0.538746
0.548388
0.536634
0.554145
0.538881
0.554621
0.545696
0.551788
0.553659
0.550123
0.558646
0.552259
0.559388
0.5576
0.558151
0.563126
0.558055
0.56648
0.56055
0.567296
0.564875
0.56715
0.56936
0.567477
0.573122
0.568261
0.576458
0.569405
0.579235
0.571576
0.58087
0.57483
0.581515
0.578273
0.582517
0.58011
0.585652
0.57967
0.590368
0.579554
0.593252
0.584064
0.590825
0.594274
0.585235
0.603317
0.585031
0.603534
0.589113
0.607896
0.57487
0.626397
0.37018
0.280483
0.224339
0.185713
0.159005
0.137601
0.123698
0.110452
0.103949
0.0958811
0.0946623
0.0913074
0.0937169
0.0949782
0.0993607
0.10602
0.111544
0.123703
0.130723
0.147506
0.157457
0.176592
0.192013
0.209775
0.231065
0.244314
0.269431
0.277612
0.302018
0.30841
0.327177
0.336658
0.345956
0.361117
0.361962
0.380099
0.378089
0.392704
0.395923
0.400086
0.41377
0.405526
0.428233
0.412923
0.436013
0.424736
0.436802
0.439586
0.434966
0.452801
0.435893
0.460336
0.442947
0.460854
0.454375
0.458649
0.465396
0.459361
0.471375
0.464789
0.472183
0.472905
0.471713
0.479977
0.473406
0.483929
0.47811
0.485138
0.484209
0.485866
0.48997
0.487354
0.494803
0.489008
0.499236
0.490962
0.502806
0.494401
0.504847
0.499095
0.505827
0.503571
0.507742
0.505555
0.512355
0.504998
0.51812
0.505623
0.520952
0.511688
0.518461
0.522579
0.515117
0.529201
0.520193
0.525383
0.52986
0.523949
0.528193
0.527946
0.370396
0.280566
0.224679
0.185611
0.159003
0.136893
0.122474
0.10764
0.0996023
0.0886648
0.0841788
0.0763972
0.0733651
0.0693304
0.0656996
0.0664168
0.0611625
0.0667248
0.0608699
0.069038
0.0663044
0.0730586
0.0784899
0.0804167
0.0964732
0.0938412
0.117845
0.11474
0.139603
0.142418
0.160728
0.17419
0.1827
0.205379
0.205643
0.23113
0.23125
0.249681
0.259258
0.262615
0.286595
0.274484
0.308111
0.29028
0.320183
0.311896
0.323929
0.335679
0.325899
0.354818
0.332808
0.365073
0.34746
0.366753
0.365115
0.366873
0.379844
0.371834
0.387229
0.381937
0.389034
0.393516
0.390545
0.402503
0.395227
0.407607
0.402882
0.410036
0.411183
0.412512
0.418602
0.415796
0.425008
0.418701
0.430947
0.421933
0.435443
0.427083
0.438017
0.433494
0.439621
0.439077
0.442798
0.441397
0.448914
0.441318
0.455391
0.443296
0.458077
0.450987
0.455906
0.462252
0.454878
0.467478
0.462991
0.463376
0.47357
0.46276
0.47382
0.467036
0.370437
0.280575
0.224837
0.185732
0.159272
0.137098
0.122784
0.10782
0.099663
0.0885935
0.083427
0.07562
0.0708766
0.0670819
0.0605331
0.0615273
0.0523544
0.0571546
0.0474818
0.051967
0.0471293
0.0451239
0.051006
0.0384287
0.0564409
0.036108
0.0596986
0.041832
0.0595737
0.0556712
0.0591287
0.0736217
0.0638795
0.0908015
0.0773172
0.103618
0.0998584
0.112445
0.128118
0.121172
0.156136
0.134526
0.177952
0.1565
0.189624
0.1865
0.194151
0.217535
0.200268
0.240445
0.214218
0.251957
0.237089
0.254868
0.261009
0.258968
0.279117
0.27034
0.288243
0.286574
0.292498
0.302303
0.297879
0.31371
0.307154
0.320938
0.318804
0.325968
0.329911
0.331529
0.339586
0.33748
0.34845
0.342252
0.356627
0.34753
0.362594
0.355193
0.366307
0.363947
0.369275
0.371123
0.374388
0.374411
0.382267
0.375716
0.389528
0.379671
0.39257
0.38902
0.391583
0.400452
0.393252
0.405106
0.403189
0.402742
0.412973
0.404479
0.413585
0.409853
0.370433
0.280588
0.224836
0.18581
0.159287
0.137272
0.122791
0.108131
0.0995989
0.0890738
0.0831969
0.076242
0.0703997
0.0676388
0.0598472
0.0615274
0.0516868
0.0557741
0.0470743
0.048356
0.0467651
0.0388973
0.0493193
0.0299015
0.0507073
0.0258269
0.0466589
0.0296089
0.0366007
0.0393515
0.0252213
0.0487229
0.0198198
0.0512679
0.0255783
0.0449674
0.0419859
0.0342763
0.0622175
0.0282266
0.0773441
0.0335458
0.0832479
0.0531226
0.0780626
0.0844978
0.0720749
0.113066
0.0777985
0.127719
0.0956697
0.133374
0.123744
0.133912
0.148618
0.140555
0.166085
0.15784
0.17506
0.178508
0.181479
0.196281
0.190902
0.208748
0.204343
0.217829
0.219113
0.225794
0.23224
0.234824
0.24425
0.243738
0.256354
0.250944
0.267389
0.259238
0.275297
0.270174
0.280925
0.281798
0.286251
0.291093
0.294161
0.296275
0.30416
0.300106
0.312652
0.306498
0.317262
0.317101
0.31893
0.328479
0.323592
0.333997
0.333806
0.335205
0.342353
0.339019
0.344574
0.343536
0.370405
0.280637
0.224752
0.185931
0.159138
0.137502
0.122557
0.108489
0.0992862
0.089529
0.0828784
0.0766649
0.0702548
0.0677762
0.060146
0.0610709
0.0526407
0.0545899
0.0485282
0.0467977
0.0479199
0.0379154
0.0488536
0.0306018
0.0475215
0.0284753
0.0408723
0.0327938
0.0297041
0.0402744
0.0190133
0.0446262
0.0151256
0.040476
0.0216504
0.0272217
0.0357947
0.0114776
0.0473554
0.00479103
0.0476436
0.00821793
0.0445888
0.0188674
0.0225545
0.0500602
0.0083872
0.0679863
0.00976122
0.0591713
0.0240625
0.0499671
0.0502911
0.0399808
0.0624991
0.0457498
0.0702892
0.0646827
0.073743
0.0822194
0.0781675
0.0938813
0.0872584
0.10231
0.101015
0.111271
0.115367
0.120662
0.127461
0.131181
0.139911
0.140904
0.15372
0.148964
0.165826
0.159289
0.174557
0.172376
0.181806
0.185741
0.189375
0.196445
0.199458
0.203619
0.210565
0.210075
0.220039
0.218057
0.226907
0.228736
0.231911
0.239818
0.23892
0.247708
0.248136
0.253126
0.256397
0.257935
0.261527
0.26138
0.370368
0.280704
0.224643
0.186074
0.158941
0.137749
0.12227
0.108822
0.098966
0.0898424
0.0826896
0.0767404
0.0704582
0.0673473
0.0609553
0.0600537
0.0539225
0.0534035
0.0495359
0.0464642
0.0474554
0.0395736
0.0460921
0.0344749
0.0430701
0.0330293
0.0370118
0.0352004
0.0291062
0.0383401
0.0227548
0.0385849
0.0214882
0.0332832
0.0263846
0.0231632
0.0344627
0.0131177
0.0392562
0.00991566
0.0358006
0.014854
0.0268032
0.0244124
0.0132188
0.0370044
0.00356974
0.040822
0.00643323
0.0327832
0.0163467
0.0187773
0.0302463
0.0137627
0.0318518
0.0205684
0.0269064
0.0269442
0.0231243
0.0335212
0.0260014
0.0345524
0.0295515
0.0349172
0.0370052
0.0403664
0.0434971
0.0458279
0.0466947
0.0516126
0.0546991
0.0566305
0.0655163
0.0605699
0.0730948
0.0679466
0.0793862
0.0785942
0.0864075
0.0902595
0.0938845
0.100238
0.102871
0.108637
0.112187
0.116438
0.121857
0.123685
0.130975
0.132649
0.138863
0.142785
0.146856
0.153687
0.154557
0.162699
0.163481
0.168128
0.171381
0.170935
0.37034
0.280756
0.224563
0.186181
0.158798
0.137921
0.122072
0.109031
0.0987785
0.0899835
0.0826592
0.0766325
0.070778
0.0668264
0.0617039
0.0591927
0.054816
0.0527279
0.0498251
0.0468568
0.0462838
0.041652
0.0433101
0.0377445
0.039874
0.0356701
0.035551
0.0350981
0.0310151
0.0347377
0.0276845
0.033044
0.0267564
0.0292151
0.0282099
0.0240307
0.0302755
0.0199984
0.0300596
0.0197012
0.0261449
0.0226861
0.0205359
0.0261059
0.0156985
0.0279492
0.0140767
0.0255301
0.017378
0.0201061
0.0208099
0.0163939
0.0220353
0.016115
0.0192912
0.019706
0.015869
0.0207827
0.0148134
0.0204807
0.0162449
0.0187949
0.0178221
0.0167585
0.0199864
0.0175185
0.0205176
0.0196587
0.0187381
0.0216044
0.0203223
0.0228305
0.023617
0.0237279
0.0252004
0.0251402
0.0282936
0.0274241
0.0328026
0.03157
0.036799
0.0368469
0.0398752
0.0440247
0.0428164
0.0503977
0.0492799
0.0542771
0.0577383
0.0588791
0.0664827
0.0657803
0.0738532
0.077074
0.0799086
0.0878548
0.088056
0.0952404
0.0964397
0.0987743
0.370328
0.280782
0.224531
0.186232
0.158739
0.137998
0.121993
0.109114
0.0987146
0.0900194
0.0826829
0.0765367
0.0709702
0.0665434
0.0620667
0.0588033
0.0551634
0.0525258
0.0497819
0.0472383
0.0455231
0.0427701
0.041945
0.0391644
0.0386356
0.0364539
0.035414
0.0344361
0.0324459
0.0326471
0.0301286
0.0305599
0.028792
0.0279328
0.028292
0.0252071
0.0277359
0.0234976
0.0259478
0.0235893
0.0228113
0.0246482
0.0198775
0.0247995
0.0187027
0.0232158
0.0193368
0.020475
0.0206502
0.0182047
0.0207275
0.0177957
0.0194686
0.0183457
0.0180132
0.0189463
0.0172797
0.0189502
0.0169078
0.0195905
0.0162483
0.0204516
0.0167132
0.0198298
0.0192657
0.0186973
0.0222321
0.0187449
0.0238955
0.020646
0.0249173
0.0246561
0.0252947
0.0297525
0.0263691
0.0335864
0.030731
0.0358715
0.0374957
0.0383964
0.0446608
0.0428372
0.0501272
0.0508421
0.0539041
0.0595622
0.0593109
0.066474
0.0668653
0.0724459
0.0766147
0.0786695
0.0865016
0.0880328
0.0946214
0.0984265
0.10183
0.107474
0.108349
0.112849
0.370325
0.280798
0.224529
0.186255
0.158729
0.138026
0.121976
0.109139
0.0987026
0.0900207
0.0826994
0.0764909
0.0710351
0.0664433
0.0621647
0.0586954
0.0552127
0.0525231
0.0496542
0.0474592
0.0451471
0.0432047
0.0414408
0.03958
0.0383284
0.0364935
0.035627
0.0339053
0.0331962
0.0317586
0.0310113
0.0298839
0.0292016
0.0280515
0.0278543
0.0262741
0.0266949
0.0249809
0.0252144
0.0245158
0.0234255
0.0244111
0.0221832
0.02378
0.0221116
0.0226497
0.0226338
0.0220774
0.0227526
0.0228997
0.0223205
0.024703
0.0225884
0.0261194
0.0248465
0.0267356
0.0288003
0.0279415
0.0326123
0.0317424
0.035306
0.0379623
0.0384542
0.0444895
0.044025
0.0502668
0.0520452
0.0557518
0.061147
0.0623065
0.0699648
0.0710884
0.0778567
0.0818194
0.0856371
0.0927511
0.094548
0.102736
0.104926
0.111749
0.116434
0.120491
0.127605
0.130075
0.136922
0.140308
0.145025
0.150448
0.153193
0.160059
0.162719
0.168655
0.173341
0.177053
0.18297
0.185382
0.190333
0.193053
0.195533
0.198713
0.370326
0.280811
0.224538
0.18627
0.158733
0.138036
0.121972
0.10914
0.0986951
0.0900051
0.0826944
0.0764522
0.071036
0.0663847
0.0621603
0.0586433
0.0551674
0.0525305
0.049519
0.0475791
0.044906
0.0434355
0.04117
0.0398223
0.038216
0.0365855
0.0358918
0.0337636
0.0339282
0.0315557
0.0320605
0.0301062
0.0302618
0.0293071
0.028798
0.0289195
0.0279834
0.0288813
0.0279605
0.029337
0.0288888
0.0302832
0.031144
0.0317267
0.0347921
0.034277
0.0392657
0.0389229
0.0439772
0.046137
0.0492209
0.0551949
0.0560698
0.064652
0.0654629
0.0737647
0.0773364
0.0830724
0.0902332
0.0938201
0.102643
0.106526
0.11423
0.120255
0.125923
0.133633
0.138125
0.145756
0.150988
0.15707
0.163794
0.168452
0.175677
0.180288
0.186428
0.192074
0.196559
0.203178
0.206736
0.213271
0.217373
0.222288
0.227864
0.231089
0.237032
0.240223
0.245007
0.249381
0.252629
0.258303
0.260874
0.266368
0.269851
0.273655
0.278127
0.280352
0.284457
0.286279
0.288792
0.290826
0.370327
0.280823
0.224546
0.186273
0.158726
0.138022
0.121946
0.109103
0.0986484
0.089943
0.0826328
0.0763658
0.0709709
0.0662866
0.0621097
0.058566
0.0551515
0.0525379
0.0495665
0.04777
0.045068
0.0439402
0.0415622
0.0408074
0.0390898
0.0382398
0.0376739
0.0363598
0.0372295
0.0355979
0.0376476
0.0364922
0.0389724
0.0393782
0.0415898
0.0442434
0.0461761
0.0509371
0.0532391
0.0594681
0.063
0.0696848
0.0752114
0.0815002
0.0894234
0.0948658
0.104846
0.109824
0.1204
0.126316
0.135608
0.143695
0.15039
0.160748
0.165433
0.176417
0.181158
0.190379
0.196972
0.203366
0.211769
0.216369
0.224766
0.229661
0.236341
0.242518
0.247669
0.254331
0.258988
0.264907
0.270044
0.274809
0.28028
0.284478
0.289463
0.293854
0.297895
0.3027
0.306063
0.310892
0.314322
0.318278
0.322402
0.325207
0.329555
0.33216
0.33574
0.339083
0.341673
0.345949
0.348073
0.352348
0.355039
0.358186
0.361583
0.363494
0.366645
0.368099
0.370146
0.371577
0.370324
0.28083
0.224528
0.186235
0.158661
0.137929
0.121828
0.108958
0.0984964
0.0897817
0.082503
0.0762707
0.0709893
0.0664065
0.0624685
0.0591184
0.0561402
0.0538758
0.0515916
0.0503903
0.048703
0.0486124
0.0476988
0.0487737
0.0490721
0.0511923
0.053379
0.0564148
0.061019
0.0650854
0.0721932
0.0777184
0.0866678
0.0939729
0.103701
0.112996
0.122709
0.133679
0.143205
0.15523
0.164648
0.176434
0.186006
0.196585
0.206666
0.215348
0.226034
0.232849
0.243567
0.249559
0.258952
0.26569
0.272703
0.280922
0.285404
0.294417
0.297824
0.305856
0.310075
0.315836
0.321632
0.325349
0.331856
0.335039
0.340746
0.344595
0.34893
0.35334
0.356725
0.361024
0.364312
0.368009
0.371418
0.37464
0.377846
0.380953
0.383746
0.386898
0.389424
0.392464
0.395068
0.397585
0.400542
0.402431
0.405432
0.40733
0.409813
0.412399
0.414247
0.41758
0.419216
0.422572
0.424685
0.42716
0.42987
0.431341
0.433848
0.434959
0.436534
0.437662
0.370306
0.28079
0.224403
0.186077
0.158442
0.137691
0.121601
0.108817
0.0985614
0.0901587
0.0834312
0.0779536
0.0737134
0.0703892
0.0681081
0.0666924
0.0662895
0.0668504
0.0683041
0.0711201
0.0747523
0.0803707
0.0867093
0.0954072
0.10472
0.116218
0.128101
0.141259
0.155152
0.169182
0.184602
0.198514
0.213653
0.226588
0.240471
0.252596
0.264613
0.276169
0.286182
0.297107
0.305537
0.315476
0.322966
0.331301
0.338495
0.344896
0.352324
0.356982
0.364611
0.368269
0.375211
0.379091
0.384173
0.389083
0.392017
0.397932
0.399558
0.405326
0.407191
0.411505
0.414621
0.417196
0.421331
0.423013
0.427114
0.429029
0.432295
0.43482
0.437261
0.440102
0.442204
0.444917
0.446986
0.449425
0.451368
0.453656
0.455464
0.457655
0.459477
0.461451
0.463464
0.465008
0.467278
0.468458
0.470689
0.47204
0.473848
0.475911
0.477236
0.47998
0.481194
0.483977
0.4856
0.487594
0.489783
0.490837
0.492908
0.49364
0.49489
0.495797
0.370195
0.280542
0.224228
0.186054
0.158711
0.13852
0.12343
0.112323
0.104422
0.0992794
0.0968431
0.0965651
0.0983772
0.102001
0.107635
0.115009
0.124335
0.135474
0.148544
0.163465
0.180227
0.198852
0.218148
0.238426
0.25814
0.277834
0.295713
0.312724
0.328158
0.342122
0.355216
0.366239
0.377451
0.386321
0.395745
0.40336
0.41106
0.418107
0.42412
0.430681
0.435248
0.441127
0.444903
0.449628
0.453202
0.456586
0.46051
0.462694
0.467026
0.468423
0.472692
0.474207
0.477484
0.479947
0.481725
0.485266
0.485876
0.489819
0.490309
0.493508
0.494914
0.496794
0.499238
0.500171
0.503015
0.503845
0.506314
0.50761
0.50946
0.511209
0.512649
0.514572
0.515835
0.517734
0.518889
0.520763
0.521882
0.523591
0.524898
0.526289
0.527889
0.528831
0.530689
0.531364
0.53318
0.534095
0.535558
0.5372
0.538223
0.540541
0.541411
0.543808
0.544966
0.546636
0.548329
0.549038
0.550753
0.55109
0.552134
0.552769
0.369474
0.281384
0.228611
0.193059
0.170708
0.155957
0.150114
0.150452
0.156554
0.167303
0.181631
0.198807
0.218424
0.239717
0.26235
0.285625
0.309394
0.333106
0.356917
0.380323
0.403253
0.423936
0.441634
0.457453
0.47034
0.482564
0.492362
0.501118
0.508327
0.514534
0.520286
0.524683
0.529537
0.532718
0.536709
0.539301
0.542368
0.544948
0.547112
0.549859
0.551383
0.554083
0.555346
0.557736
0.559084
0.560736
0.56253
0.563365
0.565634
0.565873
0.568386
0.568567
0.570667
0.57156
0.572651
0.574542
0.574686
0.577226
0.577017
0.579388
0.579714
0.581185
0.582429
0.583031
0.584872
0.585132
0.58699
0.587476
0.58894
0.589865
0.59096
0.592191
0.593011
0.594419
0.595048
0.59657
0.597142
0.598536
0.599333
0.600386
0.601536
0.602126
0.603592
0.603911
0.605427
0.605955
0.607214
0.60842
0.60927
0.611148
0.611739
0.613749
0.614482
0.615895
0.617067
0.617554
0.618909
0.618917
0.619833
0.620164
0.37219
0.315456
0.292823
0.279519
0.286385
0.295375
0.331462
0.373613
0.418619
0.463064
0.504556
0.541599
0.57348
0.599922
0.621224
0.637807
0.650546
0.660075
0.667407
0.673075
0.6776
0.681717
0.685033
0.688241
0.690456
0.692799
0.69417
0.69573
0.696404
0.696986
0.69737
0.697179
0.697587
0.697
0.697369
0.696771
0.696913
0.696645
0.696441
0.696649
0.696203
0.696701
0.696281
0.696834
0.696555
0.696825
0.696964
0.696741
0.697353
0.696749
0.697717
0.696998
0.697958
0.697666
0.698089
0.698609
0.69836
0.699568
0.69894
0.700367
0.699929
0.700928
0.701188
0.701511
0.702405
0.702337
0.703493
0.703445
0.704487
0.704743
0.70555
0.706114
0.706649
0.707525
0.707833
0.708933
0.709156
0.710261
0.71065
0.71149
0.712203
0.712633
0.713695
0.71385
0.71507
0.715343
0.716444
0.717254
0.717996
0.719393
0.719786
0.721369
0.721725
0.72289
0.72354
0.723905
0.724815
0.7246
0.725321
0.725209
0.606742
0.839813
0.952198
0.969555
0.937536
0.881261
0.821357
0.769007
0.724418
0.688387
0.660681
0.640129
0.625398
0.614954
0.607666
0.602389
0.598514
0.595426
0.592917
0.590808
0.588966
0.587549
0.586311
0.585505
0.584697
0.584267
0.583701
0.583467
0.583052
0.582749
0.582347
0.581848
0.581447
0.580789
0.58039
0.579683
0.579244
0.578602
0.578092
0.577598
0.577022
0.57669
0.576105
0.575886
0.575378
0.575175
0.574821
0.574536
0.574386
0.573979
0.574022
0.573549
0.573688
0.573304
0.573374
0.573245
0.573117
0.5733
0.57301
0.573384
0.573118
0.573459
0.573402
0.573585
0.573777
0.573813
0.574189
0.57419
0.574625
0.574708
0.57511
0.575327
0.575656
0.576028
0.576284
0.576796
0.577017
0.577595
0.577858
0.578385
0.578769
0.579166
0.579717
0.579996
0.580672
0.580938
0.581603
0.581995
0.582488
0.583055
0.583299
0.583937
0.584039
0.584518
0.584636
0.58478
0.584974
0.584755
0.584707
0.583962
0.122064
2.23027
2.84366
3.05149
3.20074
3.25806
3.23954
3.1657
3.06083
2.9517
2.84829
2.75552
2.66174
2.56533
2.44734
2.30825
2.13376
1.94832
1.74014
1.54188
1.35931
1.18639
1.07821
0.99003
0.882862
0.817322
0.760297
0.664585
0.576507
0.483817
0.390354
0.3664
0.371885
0.389228
0.471598
0.583381
0.662742
0.698724
0.699903
0.679451
0.659467
0.650714
0.645698
0.633833
0.609744
0.572607
0.527122
0.476531
0.421414
0.362626
0.302683
0.245158
0.193399
0.149511
0.113908
0.0860676
0.0650003
0.0494588
0.0381594
0.0299692
0.0240204
0.0197131
0.0166115
0.0144047
0.0128561
0.0117923
0.0110742
0.0105989
0.0102746
0.0100321
0.00981355
0.00959627
0.00937277
0.00915913
0.00896614
0.00881119
0.00869391
0.00861588
0.00856347
0.00853351
0.00851344
0.00850414
0.00849648
0.0084946
0.00849109
0.00849167
0.00848941
0.00849081
0.00848888
0.00849058
0.00848869
0.00849053
0.0084886
0.00849053
0.00848854
0.00849055
0.00848852
0.00849073
0.00848902
0.00849267
0.399303
1.09289
2.02561
2.47881
2.71725
2.82056
2.83505
2.78356
2.69641
2.60007
2.50753
2.42723
2.34699
2.26643
2.16314
2.03964
1.87768
1.70612
1.51008
1.32228
1.15385
0.986951
0.884173
0.80983
0.703038
0.640827
0.598573
0.498429
0.414717
0.352445
0.276783
0.276337
0.316274
0.330051
0.3936
0.508326
0.605865
0.660261
0.674176
0.659769
0.640588
0.63024
0.623098
0.608558
0.581328
0.542775
0.497845
0.448981
0.396277
0.340132
0.282932
0.22799
0.178392
0.136232
0.102193
0.0759607
0.0565274
0.0425455
0.0326849
0.0257904
0.0209687
0.017587
0.0151903
0.013483
0.0122634
0.0114021
0.0108004
0.0103892
0.0101014
0.00988589
0.0096935
0.00950342
0.00930572
0.00911586
0.00894215
0.00880059
0.0086904
0.00861632
0.00856556
0.00853677
0.00851675
0.00850779
0.00849975
0.0084981
0.00849418
0.00849505
0.00849239
0.00849414
0.00849181
0.00849391
0.00849159
0.00849389
0.0084915
0.00849394
0.00849148
0.00849408
0.00849162
0.00849457
0.00849257
0.00849738
0.557571
0.548041
0.992967
1.54055
1.94301
2.16431
2.26125
2.27057
2.23083
2.16998
2.10492
2.04866
1.98946
1.92653
1.83963
1.73429
1.58804
1.43425
1.25452
1.07755
0.92503
0.762967
0.66477
0.608493
0.500191
0.438174
0.417972
0.319808
0.246032
0.24127
0.210128
0.23322
0.314681
0.330682
0.344758
0.434442
0.539444
0.611194
0.639742
0.633227
0.61568
0.603853
0.5943
0.576826
0.546843
0.507407
0.463442
0.416683
0.366747
0.313721
0.259797
0.208004
0.161182
0.121382
0.089539
0.0654564
0.04804
0.0359099
0.0276785
0.022159
0.0184477
0.0159054
0.0141077
0.0128024
0.0118348
0.0111207
0.0105982
0.0102267
0.00995878
0.00975814
0.00958328
0.00941573
0.00924215
0.00907541
0.00892098
0.00879358
0.00869107
0.0086209
0.00857134
0.00854316
0.00852274
0.00851375
0.00850511
0.00850351
0.00849908
0.00850017
0.00849707
0.00849915
0.0084964
0.00849889
0.00849615
0.00849889
0.00849606
0.008499
0.00849608
0.00849929
0.0084964
0.00850014
0.00849787
0.00850396
0.529646
0.49912
0.553469
0.747345
1.0414
1.31947
1.50769
1.60247
1.63435
1.63327
1.61618
1.59935
1.57236
1.53535
1.47032
1.38681
1.25938
1.12524
0.963821
0.798174
0.662383
0.506877
0.414726
0.384324
0.283553
0.223142
0.238673
0.17315
0.131778
0.197591
0.229945
0.267424
0.375308
0.413034
0.36624
0.386467
0.471921
0.552571
0.595255
0.598189
0.58337
0.570415
0.558236
0.537576
0.505443
0.465934
0.423733
0.379877
0.333348
0.28401
0.23384
0.18566
0.142184
0.105458
0.0764949
0.0550684
0.0400628
0.0300113
0.0234726
0.0192686
0.016527
0.0146692
0.0133351
0.0123282
0.0115405
0.0109262
0.0104524
0.0101011
0.00984041
0.00964569
0.00948178
0.00933283
0.009182
0.00903758
0.00890092
0.00878704
0.00869325
0.00862804
0.00858005
0.0085523
0.0085312
0.00852186
0.00851242
0.00851068
0.00850566
0.00850685
0.00850331
0.00850564
0.0085025
0.00850533
0.0085022
0.00850534
0.0085021
0.00850551
0.00850218
0.00850594
0.0085027
0.00850718
0.00850472
0.00851209
0.471544
0.464824
0.456835
0.482736
0.54323
0.652051
0.776385
0.883881
0.959253
1.01064
1.04274
1.06972
1.07997
1.07735
1.04009
0.982347
0.879141
0.766416
0.627802
0.479855
0.364557
0.235245
0.166412
0.17406
0.113835
0.085943
0.146198
0.144596
0.144115
0.241289
0.316502
0.363521
0.478855
0.550733
0.476419
0.399323
0.423431
0.491386
0.541677
0.55376
0.542641
0.529097
0.514273
0.490526
0.457108
0.419196
0.380483
0.34097
0.298878
0.253784
0.207523
0.163009
0.123089
0.0898481
0.0641872
0.0457637
0.0333353
0.0253366
0.0203265
0.0172016
0.0151957
0.0138311
0.0128206
0.012018
0.0113503
0.0107987
0.0103509
0.0100054
0.00974223
0.00954626
0.00938754
0.00925247
0.00912149
0.00899797
0.00887871
0.00877879
0.00869496
0.00863581
0.00859009
0.00856284
0.00854104
0.0085311
0.00852077
0.00851865
0.00851305
0.00851416
0.00851025
0.00851268
0.00850926
0.00851228
0.0085089
0.00851227
0.00850879
0.00851248
0.00850892
0.00851304
0.00850962
0.00851461
0.00851213
0.00852047
0.410787
0.411373
0.402564
0.400577
0.396537
0.406138
0.422938
0.443298
0.465587
0.488762
0.513117
0.543835
0.56625
0.58459
0.571126
0.534799
0.464464
0.378487
0.273551
0.168396
0.0951055
0.0538104
0.0631693
0.102128
0.110548
0.131936
0.191104
0.205211
0.22169
0.32937
0.431595
0.493501
0.609746
0.711409
0.648856
0.494736
0.423543
0.44529
0.48607
0.501738
0.493855
0.480065
0.462847
0.43696
0.404369
0.370982
0.338771
0.306073
0.269993
0.229551
0.186671
0.144905
0.107716
0.0773907
0.0546748
0.0389257
0.028668
0.0222666
0.0183451
0.01593
0.0143836
0.0133202
0.0125082
0.0118328
0.0112398
0.0107244
0.0102866
0.00993625
0.00966288
0.00945882
0.00929883
0.00917125
0.00905539
0.00895101
0.00885047
0.00876602
0.00869307
0.00864028
0.00859738
0.0085709
0.00854883
0.0085383
0.00852731
0.00852467
0.00851864
0.00851949
0.00851537
0.0085177
0.00851419
0.00851718
0.00851377
0.00851714
0.00851366
0.00851735
0.00851382
0.00851796
0.00851463
0.00851971
0.00851741
0.00852611
0.34364
0.344809
0.339641
0.336071
0.323753
0.314566
0.30398
0.289845
0.279601
0.265409
0.254032
0.245382
0.236166
0.227557
0.21297
0.176409
0.14253
0.0967731
0.0442931
0.0395089
0.0767884
0.112346
0.14282
0.172589
0.182862
0.208681
0.259697
0.279128
0.316953
0.439621
0.563278
0.645037
0.764834
0.88628
0.850922
0.660674
0.496439
0.441669
0.446746
0.451972
0.442586
0.42767
0.408714
0.38343
0.35619
0.332031
0.310567
0.287667
0.258867
0.222653
0.181333
0.139658
0.102408
0.0725645
0.0508243
0.036171
0.0268352
0.0210865
0.0175847
0.0154312
0.0140536
0.0131074
0.0123809
0.0117656
0.0112086
0.0107067
0.0102647
0.00989906
0.00960684
0.00938647
0.00921741
0.00908995
0.00898355
0.00889524
0.00881281
0.0087436
0.00868136
0.00863503
0.00859571
0.00857085
0.00854944
0.00853895
0.00852788
0.00852498
0.00851879
0.00851943
0.00851524
0.00851744
0.00851393
0.00851683
0.00851346
0.00851675
0.00851334
0.00851694
0.00851351
0.00851754
0.00851434
0.00851928
0.00851714
0.00852572
0.262601
0.264187
0.261984
0.259626
0.248284
0.238856
0.224069
0.207251
0.191655
0.174358
0.156588
0.143325
0.127314
0.112422
0.0985644
0.087882
0.0761169
0.0788369
0.104742
0.136561
0.162359
0.184247
0.211639
0.242711
0.263669
0.295794
0.338815
0.367441
0.432887
0.572808
0.711226
0.813216
0.943628
1.07484
1.06593
0.87149
0.642341
0.504521
0.451044
0.427162
0.406702
0.387495
0.368064
0.348483
0.332791
0.322823
0.314818
0.301948
0.278764
0.24383
0.200201
0.154106
0.112244
0.0788811
0.0548743
0.0388213
0.0285861
0.0222391
0.0183405
0.0159309
0.0143947
0.0133539
0.0125727
0.0119236
0.0113394
0.0108077
0.0103304
0.00992646
0.00959755
0.00934689
0.00915707
0.00902015
0.00891462
0.00883544
0.00876566
0.00870914
0.00865652
0.00861764
0.00858293
0.0085617
0.00854194
0.00853316
0.00852236
0.00852043
0.00851392
0.00851532
0.00851053
0.00851347
0.00850922
0.00851293
0.00850871
0.00851289
0.00850856
0.00851313
0.00850872
0.00851377
0.00850958
0.00851558
0.00851258
0.00852219
0.17482
0.174255
0.174363
0.171724
0.163446
0.157269
0.144227
0.133074
0.123026
0.109752
0.104587
0.0972494
0.0910051
0.0930994
0.0937139
0.0977169
0.116764
0.139141
0.162557
0.197437
0.235192
0.268239
0.302176
0.332617
0.354309
0.38497
0.426894
0.475735
0.572828
0.727264
0.870909
0.988956
1.12704
1.25785
1.27129
1.10385
0.842066
0.63848
0.521269
0.456466
0.416576
0.390127
0.372153
0.362439
0.36065
0.363188
0.363211
0.353183
0.32822
0.28821
0.237503
0.183528
0.134289
0.0950031
0.0666119
0.0474034
0.0348651
0.026822
0.0217129
0.0184573
0.0163275
0.014856
0.0137439
0.01283
0.0120274
0.0113153
0.0106873
0.010161
0.00973404
0.00941184
0.00917093
0.00900424
0.00888176
0.00880005
0.00873242
0.0086856
0.00863993
0.00861177
0.00858173
0.00856887
0.00855035
0.00854768
0.00853546
0.00853853
0.0085289
0.00853511
0.00852605
0.00853411
0.00852475
0.00853408
0.00852406
0.00853448
0.00852371
0.00853523
0.00852382
0.00853667
0.00852523
0.00854006
0.0085307
0.00855055
0.10257
0.101684
0.104346
0.101622
0.101041
0.0996891
0.0959334
0.0976999
0.0965292
0.100567
0.107423
0.112229
0.123881
0.135816
0.149408
0.172473
0.198355
0.227059
0.264009
0.303423
0.336247
0.364958
0.396193
0.422538
0.445268
0.482773
0.538502
0.616657
0.736725
0.880683
1.00978
1.13187
1.27243
1.39874
1.42755
1.30694
1.06981
0.827425
0.657107
0.55655
0.498365
0.465603
0.449124
0.444355
0.445028
0.444651
0.437602
0.418247
0.383082
0.333154
0.274048
0.213648
0.159487
0.11607
0.0841895
0.0621016
0.0471978
0.0371907
0.0304895
0.0259334
0.0226887
0.0202222
0.018177
0.0163876
0.0147778
0.0133704
0.0121692
0.0112067
0.0104499
0.00990306
0.00950131
0.00924023
0.00904992
0.00894335
0.00885647
0.00882223
0.00877827
0.00877569
0.00874769
0.00875972
0.00873626
0.00875542
0.00873159
0.00875533
0.00872872
0.00875682
0.00872633
0.00875878
0.00872424
0.00876101
0.00872232
0.0087637
0.00872086
0.00876753
0.0087208
0.00877426
0.00872567
0.00878871
0.0087461
0.00882626
0.114416
0.116523
0.118931
0.120463
0.125782
0.130292
0.138291
0.148079
0.158492
0.173112
0.186415
0.200753
0.217327
0.233258
0.252578
0.27664
0.302685
0.332385
0.365698
0.397464
0.425993
0.456169
0.486293
0.510413
0.540604
0.594771
0.670896
0.762014
0.864659
0.970927
1.07942
1.201
1.33966
1.45964
1.49854
1.4236
1.24538
1.02206
0.833458
0.708703
0.638267
0.597984
0.572484
0.553626
0.536263
0.51717
0.492572
0.457761
0.411203
0.35492
0.294003
0.2347
0.182134
0.139308
0.106797
0.0834123
0.0671119
0.0559658
0.0482263
0.0426007
0.0381174
0.034244
0.030548
0.0269442
0.0234239
0.0202275
0.0174259
0.0152021
0.0134541
0.0122331
0.0113278
0.0107788
0.0103644
0.0101889
0.0100357
0.0100582
0.0100154
0.0101123
0.0100829
0.0101915
0.0101397
0.0102448
0.0101679
0.0102755
0.0101754
0.0102948
0.0101723
0.0103085
0.0101657
0.01032
0.0101584
0.0103325
0.0101526
0.0103505
0.0101522
0.0103836
0.0101736
0.0104546
0.0102649
0.0106299
0.199941
0.202984
0.204662
0.208897
0.215139
0.222546
0.233672
0.245013
0.25849
0.27337
0.286415
0.301257
0.316054
0.330735
0.349247
0.36999
0.392741
0.419205
0.447219
0.47538
0.504879
0.535914
0.563046
0.590476
0.636575
0.705005
0.776672