/*--------------------------------*- C++ -*----------------------------------*\
| =========                 |                                                 |
| \\      /  F ield         | OpenFOAM: The Open Source CFD Toolbox           |
|  \\    /   O peration     | Version:  v2012                                 |
|   \\  /    A nd           | Website:  www.openfoam.com                      |
|    \\/     M anipulation  |                                                 |
\*---------------------------------------------------------------------------*/
FoamFile
{
    version     2.0;
    format      ascii;
    class       surfaceScalarField;
    location    "0.093";
    object      phi.air;
}
// * * * * * * * * * * * * * * * * * * * * * * * * * * * * * * * * * * * * * //

dimensions      [0 3 -1 0 0 0 0];
oriented        oriented;


internalField   nonuniform List<scalar> 
10964
(
0.000657106
2.51273e-05
0.000628901
2.73637e-05
0.000601317
2.674e-05
0.000575026
2.54452e-05
0.000551121
2.30574e-05
0.000530161
2.01105e-05
0.000512501
1.68081e-05
0.000497901
1.3748e-05
0.000485911
1.11365e-05
0.000476266
8.79013e-06
0.000468659
6.75251e-06
0.000462713
5.0908e-06
0.000458073
3.78366e-06
0.000454433
2.7849e-06
0.00045154
2.0366e-06
0.000449196
1.48799e-06
0.000447253
1.08704e-06
0.00044561
7.87562e-07
0.000444195
5.58797e-07
0.000442977
3.61814e-07
0.00044192
2.0145e-07
0.00044102
4.3446e-08
0.000440273
-1.08744e-07
0.000439659
-2.41259e-07
0.000439161
-3.58213e-07
0.000438753
-4.47923e-07
0.000438414
-5.17237e-07
0.000438125
-5.66087e-07
0.000437865
-5.96196e-07
0.00043762
-6.10887e-07
0.000437379
-6.14368e-07
0.000437138
-6.1419e-07
0.000436902
-6.19684e-07
0.00043667
-6.23301e-07
0.00043644
-6.2604e-07
0.000436213
-6.28415e-07
0.000435983
-6.25232e-07
0.000435752
-6.25205e-07
0.000435529
-6.32628e-07
0.000435317
-6.42827e-07
0.00043512
-6.58817e-07
0.000434932
-6.67369e-07
0.000434754
-6.77646e-07
0.000434584
-6.85429e-07
0.000434412
-6.83562e-07
0.000434233
-6.76335e-07
0.000434038
-6.61024e-07
0.000433846
-6.63717e-07
0.000433658
-6.66855e-07
0.000433493
-6.91062e-07
0.000433351
-7.14028e-07
0.000433243
-7.47411e-07
0.000433166
-7.78031e-07
0.000433111
-8.00884e-07
0.000433068
-8.1244e-07
0.000433056
-8.43325e-07
0.000433041
-8.40603e-07
0.000433055
-8.70226e-07
0.000433059
-8.58864e-07
0.000433085
-8.82225e-07
0.000433098
-8.68497e-07
0.000433102
-8.5965e-07
0.000433141
-8.93849e-07
0.000433111
-8.26106e-07
0.000433151
-8.95909e-07
0.00043313
-8.3423e-07
0.000433154
-8.79824e-07
0.000433148
-8.49362e-07
0.00043312
-8.27594e-07
0.000433203
-9.38683e-07
0.000433105
-7.56776e-07
0.00043317
-9.20821e-07
0.000433142
-8.27808e-07
0.000433156
-8.70038e-07
0.000433154
-8.53185e-07
0.000433123
-8.25065e-07
0.000433181
-9.12741e-07
0.00043307
-7.44703e-07
0.000433176
-9.62027e-07
0.000433102
-7.80779e-07
0.000433124
-8.78102e-07
0.000433082
-8.13392e-07
0.000433069
-8.43077e-07
0.000433145
-9.3139e-07
0.000432876
-5.86411e-07
0.000433169
-1.14885e-06
0.000432936
-6.22476e-07
0.00043298
-9.00508e-07
0.000432952
-8.25959e-07
0.000432776
-6.8078e-07
0.000432917
-9.96107e-07
0.000432408
-3.46709e-07
0.000432841
-1.28935e-06
0.000432327
-3.40003e-07
0.000432316
-8.46286e-07
0.000432115
-6.53096e-07
0.000431725
-4.66446e-07
0.000431055
-1.86119e-07
0.000431566
-1.36639e-06
5.49384e-06
0.000425215
0.000757085
2.43227e-05
0.000754876
2.95726e-05
0.000751202
3.04143e-05
0.000745928
3.07185e-05
0.000739361
2.96242e-05
0.000731831
2.76405e-05
0.000723577
2.50629e-05
0.000714968
2.23568e-05
0.000706312
1.97929e-05
0.000697782
1.73194e-05
0.000689588
1.49467e-05
0.000681839
1.28395e-05
0.000674621
1.10023e-05
0.000667975
9.43025e-06
0.000661924
8.08815e-06
0.000656454
6.9582e-06
0.000651544
5.99623e-06
0.00064716
5.17214e-06
0.000643278
4.44098e-06
0.000639872
3.76783e-06
0.000636902
3.17121e-06
0.000634313
2.63254e-06
0.000632003
2.20054e-06
0.000629934
1.82822e-06
0.000628083
1.49305e-06
0.000626423
1.21167e-06
0.000624903
1.00269e-06
0.000623489
8.48573e-07
0.000622171
7.2171e-07
0.000620941
6.18343e-07
0.000619792
5.35227e-07
0.000618719
4.58416e-07
0.000617727
3.72027e-07
0.000616814
2.90212e-07
0.000615976
2.11765e-07
0.000615208
1.39726e-07
0.000614492
9.12264e-08
0.000613822
4.4781e-08
0.000613196
-6.59256e-09
0.000612613
-5.98081e-08
0.000612071
-1.17553e-07
0.000611574
-1.70079e-07
0.00061112
-2.23266e-07
0.0006107
-2.65762e-07
0.000610302
-2.85269e-07
0.000609915
-2.90152e-07
0.000609533
-2.78349e-07
0.000609169
-2.9997e-07
0.00060883
-3.27436e-07
0.000608533
-3.9443e-07
0.000608283
-4.63763e-07
0.000608083
-5.47401e-07
0.000607934
-6.2931e-07
0.000607829
-6.95896e-07
0.000607763
-7.4684e-07
0.000607724
-8.04273e-07
0.000607701
-8.1761e-07
0.0006077
-8.68715e-07
0.000607707
-8.65571e-07
0.000607723
-8.99065e-07
0.00060775
-8.95279e-07
0.000607767
-8.76818e-07
0.000607786
-9.12504e-07
0.0006078
-8.39831e-07
0.000607812
-9.08259e-07
0.00060782
-8.42459e-07
0.000607822
-8.8187e-07
0.000607841
-8.67702e-07
0.00060782
-8.07014e-07
0.000607825
-9.43149e-07
0.000607837
-7.68848e-07
0.000607824
-9.07933e-07
0.00060783
-8.34201e-07
0.000607818
-8.57601e-07
0.000607822
-8.57921e-07
0.000607791
-7.93196e-07
0.000607799
-9.214e-07
0.000607803
-7.4855e-07
0.00060777
-9.28516e-07
0.000607768
-7.79048e-07
0.000607743
-8.53343e-07
0.000607726
-7.96411e-07
0.000607672
-7.8866e-07
0.000607723
-9.82492e-07
0.000607665
-5.28186e-07
0.000607598
-1.08277e-06
0.000607597
-6.20683e-07
0.000607475
-7.78897e-07
0.000607448
-7.98822e-07
0.000607261
-4.93721e-07
0.000607344
-1.07888e-06
0.00060719
-1.92665e-07
0.000607062
-1.16149e-06
0.000606955
-2.33149e-07
0.000606706
-5.97341e-07
0.000606561
-5.0861e-07
0.000605997
9.84014e-08
0.000605513
2.97263e-07
0.000604584
-4.37475e-07
1.0847e-05
0.000599231
0.000840343
2.13133e-05
0.000842331
2.75839e-05
0.000844302
2.84431e-05
0.000845633
2.9388e-05
0.000846213
2.90438e-05
0.000845985
2.78692e-05
0.000845036
2.60112e-05
0.000843329
2.40636e-05
0.000840904
2.22186e-05
0.000837776
2.04469e-05
0.000834026
1.86973e-05
0.000829712
1.71527e-05
0.00082494
1.57749e-05
0.000819828
1.45421e-05
0.000814507
1.34091e-05
0.000809092
1.23738e-05
0.000803705
1.13825e-05
0.00079845
1.04275e-05
0.000793419
9.47219e-06
0.000788679
8.5074e-06
0.000784256
7.59467e-06
0.000780181
6.70759e-06
0.00077646
5.92112e-06
0.000773067
5.22175e-06
0.000769975
4.58422e-06
0.000767158
4.02896e-06
0.000764567
3.59328e-06
0.000762175
3.24056e-06
0.000759977
2.91979e-06
0.000757961
2.63491e-06
0.000756105
2.39066e-06
0.000754398
2.16597e-06
0.000752824
1.94583e-06
0.000751375
1.73955e-06
0.000750045
1.54146e-06
0.000748829
1.35581e-06
0.000747704
1.21637e-06
0.00074666
1.08817e-06
0.00074569
9.63506e-07
0.000744789
8.41144e-07
0.00074395
7.22256e-07
0.000743181
5.98736e-07
0.000742477
4.80323e-07
0.000741823
3.88067e-07
0.000741202
3.36308e-07
0.00074061
3.01598e-07
0.000740036
2.95995e-07
0.0007395
2.358e-07
0.000739009
1.63736e-07
0.000738584
3.03964e-08
0.000738227
-1.06888e-07
0.000737944
-2.64815e-07
0.000737728
-4.1257e-07
0.000737575
-5.42912e-07
0.000737479
-6.51429e-07
0.000737416
-7.41292e-07
0.000737383
-7.84555e-07
0.000737368
-8.53341e-07
0.000737379
-8.76726e-07
0.000737384
-9.03536e-07
0.000737423
-9.34324e-07
0.000737445
-8.99161e-07
0.000737468
-9.3598e-07
0.000737495
-8.66826e-07
0.000737497
-9.10057e-07
0.000737526
-8.71195e-07
0.000737498
-8.54095e-07
0.000737547
-9.16549e-07
0.000737533
-7.92676e-07
0.000737513
-9.23622e-07
0.000737545
-8.00932e-07
0.00073751
-8.72925e-07
0.000737538
-8.61626e-07
0.000737496
-8.15751e-07
0.000737533
-8.94821e-07
0.000737487
-7.47516e-07
0.000737468
-9.0264e-07
0.000737492
-7.72613e-07
0.000737443
-8.78901e-07
0.000737458
-7.94583e-07
0.000737401
-7.96397e-07
0.000737437
-8.32335e-07
0.000737316
-6.6777e-07
0.000737366
-1.03218e-06
0.000737372
-5.33899e-07
0.000737224
-9.3486e-07
0.000737224
-6.20888e-07
0.000737027
-5.82317e-07
0.000737061
-8.32594e-07
0.000736822
-2.54169e-07
0.000736866
-1.12362e-06
0.000736849
-1.75317e-07
0.000736594
-9.06117e-07
0.000736549
-1.88254e-07
0.000736091
-1.3945e-07
0.000736219
-6.37234e-07
0.000735538
7.79737e-07
0.000735107
7.28248e-07
0.000733715
9.54707e-07
1.23006e-05
0.000732261
0.000930295
1.80908e-05
0.000933079
2.48005e-05
0.000936234
2.5288e-05
0.000939314
2.6308e-05
0.000942131
2.62272e-05
0.000944656
2.53434e-05
0.000946785
2.38821e-05
0.000948509
2.23405e-05
0.000949818
2.09093e-05
0.000950711
1.95539e-05
0.000951157
1.82514e-05
0.000951127
1.71826e-05
0.000950719
1.61831e-05
0.00094989
1.53703e-05
0.000948628
1.46711e-05
0.000946927
1.4075e-05
0.000944788
1.35212e-05
0.000942218
1.29974e-05
0.000939238
1.24522e-05
0.000935887
1.18583e-05
0.000932207
1.12751e-05
0.000928292
1.06224e-05
0.000924265
9.94858e-06
0.000920212
9.27438e-06
0.000916224
8.57244e-06
0.000912377
7.87623e-06
0.000908735
7.2349e-06
0.000905331
6.64451e-06
0.00090218
6.07099e-06
0.00089927
5.54452e-06
0.000896588
5.07307e-06
0.000894105
4.64895e-06
0.000891771
4.27944e-06
0.000889581
3.92973e-06
0.000887534
3.58889e-06
0.000885635
3.25497e-06
0.000883868
2.98255e-06
0.000882232
2.72457e-06
0.000880716
2.4793e-06
0.000879309
2.2483e-06
0.000877996
2.03545e-06
0.000876781
1.8134e-06
0.00087565
1.61164e-06
0.000874603
1.43487e-06
0.000873623
1.31621e-06
0.000872707
1.21789e-06
0.000871838
1.16473e-06
0.000871045
1.02903e-06
0.000870333
8.75497e-07
0.000869725
6.38595e-07
0.00086922
3.9781e-07
0.00086882
1.34998e-07
0.00086852
-1.12558e-07
0.000868304
-3.26859e-07
0.000868173
-5.20045e-07
0.000868085
-6.52926e-07
0.00086804
-7.4045e-07
0.000868014
-8.26714e-07
0.000868029
-8.91927e-07
0.000868028
-9.02067e-07
0.000868077
-9.83345e-07
0.000868102
-9.24894e-07
0.000868138
-9.71272e-07
0.000868172
-9.01162e-07
0.000868172
-9.09869e-07
0.000868219
-9.18208e-07
0.00086817
-8.05068e-07
0.000868231
-9.77465e-07
0.000868221
-7.82962e-07
0.000868206
-9.08174e-07
0.00086823
-8.25551e-07
0.000868194
-8.36719e-07
0.000868234
-9.01597e-07
0.00086817
-7.51638e-07
0.000868229
-9.53628e-07
0.000868179
-6.98049e-07
0.000868165
-8.88533e-07
0.000868171
-7.78548e-07
0.000868132
-8.40307e-07
0.000868156
-8.17986e-07
0.000868084
-7.25044e-07
0.000868169
-9.16439e-07
0.000868002
-5.00767e-07
0.000868058
-1.0887e-06
0.000868066
-5.41728e-07
0.000867948
-8.16504e-07
0.000868005
-6.78778e-07
0.000867836
-4.12537e-07
0.000867946
-9.42889e-07
0.000867714
-2.21943e-08
0.000867714
-1.12378e-06
0.000867693
-1.5424e-07
0.000867437
-6.5033e-07
0.000867541
-2.92413e-07
0.000867074
3.28152e-07
0.000867238
-8.01683e-07
0.000866933
1.0851e-06
0.000866335
1.32581e-06
0.000865184
2.106e-06
1.343e-05
0.000864055
0.00102962
1.48965e-05
0.00103284
2.15818e-05
0.0010364
2.17324e-05
0.00104004
2.26627e-05
0.00104357
2.26975e-05
0.00104697
2.19479e-05
0.00105012
2.07299e-05
0.00105301
1.9448e-05
0.00105566
1.82599e-05
0.00105807
1.71515e-05
0.00106022
1.60946e-05
0.00106216
1.52486e-05
0.00106386
1.44767e-05
0.00106537
1.38641e-05
0.00106667
1.3368e-05
0.00106777
1.29777e-05
0.00106865
1.26414e-05
0.0010693
1.23495e-05
0.00106968
1.20678e-05
0.00106975
1.17937e-05
0.00106951
1.15159e-05
0.00106894
1.11924e-05
0.00106801
1.08768e-05
0.00106671
1.05754e-05
0.00106504
1.02423e-05
0.00106302
9.89022e-06
0.00106072
9.53924e-06
0.00105818
9.18043e-06
0.00105548
8.77626e-06
0.00105266
8.3662e-06
0.00104977
7.95409e-06
0.0010469
7.52775e-06
0.00104407
7.10981e-06
0.00104131
6.68451e-06
0.00103864
6.25854e-06
0.00103608
5.81081e-06
0.00103366
5.41237e-06
0.00103137
5.0067e-06
0.00102924
4.61459e-06
0.00102724
4.2467e-06
0.00102535
3.92481e-06
0.00102354
3.62316e-06
0.0010218
3.35229e-06
0.00102015
3.08186e-06
0.00101859
2.88017e-06
0.00101712
2.68758e-06
0.00101574
2.54597e-06
0.0010145
2.26635e-06
0.00101342
1.95638e-06
0.00101251
1.54326e-06
0.00101179
1.11962e-06
0.00101124
6.92725e-07
0.00101083
2.92279e-07
0.00101054
-3.4957e-08
0.00101036
-3.43165e-07
0.00101025
-5.36753e-07
0.0010102
-6.93523e-07
0.00101016
-7.85966e-07
0.00101018
-9.13414e-07
0.00101018
-9.07261e-07
0.00101023
-1.03383e-06
0.00101027
-9.64032e-07
0.0010103
-1.00051e-06
0.00101036
-9.53517e-07
0.00101034
-8.93981e-07
0.00101041
-9.83584e-07
0.00101036
-7.59298e-07
0.00101039
-1.00915e-06
0.00101041
-8.05553e-07
0.00101038
-8.72736e-07
0.00101041
-8.60564e-07
0.00101036
-7.81953e-07
0.00101041
-9.50188e-07
0.00101034
-6.87388e-07
0.00101036
-9.69246e-07
0.00101036
-7.00094e-07
0.00101035
-8.74405e-07
0.00101037
-7.99361e-07
0.00101032
-7.9229e-07
0.00101036
-8.63467e-07
0.00101027
-6.35264e-07
0.00101038
-1.01797e-06
0.0010103
-4.25996e-07
0.00101026
-1.04708e-06
0.00101035
-6.35613e-07
0.00101021
-6.75676e-07
0.00101038
-8.41056e-07
0.00101027
-3.03e-07
0.00101028
-9.59608e-07
0.00101036
-1.04473e-07
0.00101023
-9.9144e-07
0.00101038
-2.98636e-07
0.00101007
-3.38774e-07
0.0010104
-6.25976e-07
0.00101036
3.6307e-07
0.0010102
-6.38635e-07
0.00101053
7.55891e-07
0.0010098
2.06025e-06
0.00100895
2.94723e-06
1.39689e-05
0.00100842
0.00113955
1.17866e-05
0.00114322
1.7907e-05
0.00114711
1.78473e-05
0.00115114
1.86313e-05
0.0011551
1.87305e-05
0.00115895
1.80969e-05
0.00116259
1.70971e-05
0.00116599
1.60442e-05
0.00116919
1.50609e-05
0.00117219
1.41509e-05
0.001175
1.32866e-05
0.00117765
1.25978e-05
0.00118015
1.1981e-05
0.00118252
1.149e-05
0.00118478
1.11088e-05
0.00118694
1.08139e-05
0.00118901
1.05749e-05
0.00119098
1.03758e-05
0.00119287
1.0185e-05
0.00119464
1.00208e-05
0.00119629
9.85969e-06
0.00119783
9.66224e-06
0.00119921
9.49269e-06
0.00120045
9.33694e-06
0.00120151
9.17908e-06
0.00120237
9.02884e-06
0.00120302
8.89197e-06
0.00120344
8.75758e-06
0.0012036
8.61621e-06
0.00120347
8.49415e-06
0.0012031
8.32702e-06
0.00120247
8.15854e-06
0.0012016
7.97917e-06
0.00120051
7.77643e-06
0.00119921
7.56207e-06
0.00119771
7.30802e-06
0.00119605
7.07553e-06
0.00119426
6.78962e-06
0.0011924
6.4764e-06
0.00119049
6.15404e-06
0.00118858
5.84256e-06
0.00118664
5.55394e-06
0.00118471
5.28988e-06
0.00118276
5.03095e-06
0.00118081
4.83217e-06
0.00117886
4.62915e-06
0.00117702
4.39099e-06
0.00117533
3.9532e-06
0.00117388
3.4118e-06
0.00117267
2.74938e-06
0.00117173
2.05725e-06
0.00117103
1.39869e-06
0.00117053
7.85952e-07
0.00117019
3.10815e-07
0.00116999
-1.48856e-07
0.00116989
-4.284e-07
0.00116984
-6.52074e-07
0.00116982
-7.6511e-07
0.00116985
-9.41136e-07
0.00116989
-9.43831e-07
0.00116993
-1.07452e-06
0.00117
-1.03526e-06
0.00116999
-9.90599e-07
0.00117007
-1.03417e-06
0.00117005
-8.77724e-07
0.00117008
-1.01046e-06
0.00117011
-7.85198e-07
0.00117008
-9.82059e-07
0.00117016
-8.81108e-07
0.00117004
-7.55426e-07
0.00117009
-9.15565e-07
0.00117006
-7.49703e-07
0.00117003
-9.19331e-07
0.00117006
-7.21585e-07
0.00117003
-9.36058e-07
0.00117011
-7.76779e-07
0.00117005
-8.1953e-07
0.00117011
-8.57435e-07
0.00117006
-7.38941e-07
0.00117009
-8.94425e-07
0.00117007
-6.1936e-07
0.00117008
-1.0211e-06
0.0011702
-5.50944e-07
0.00116998
-8.28974e-07
0.0011702
-8.48484e-07
0.00117002
-4.95603e-07
0.00116999
-8.1517e-07
0.00117008
-3.89334e-07
0.00116999
-8.72959e-07
0.00117039
-5.0213e-07
0.00117013
-7.30001e-07
0.00117052
-6.88722e-07
0.00117041
-2.36222e-07
0.00117057
-7.85639e-07
0.00117094
-5.23065e-09
0.00117063
-3.28206e-07
0.00117146
-7.59613e-08
0.001171
2.52303e-06
0.00117015
3.79814e-06
1.36961e-05
0.00117042
0.0012613
8.72197e-06
0.00126542
1.37846e-05
0.00126966
1.36066e-05
0.00127408
1.42055e-05
0.00127848
1.43376e-05
0.00128274
1.38322e-05
0.00128678
1.30598e-05
0.00129058
1.22439e-05
0.00129417
1.14717e-05
0.00129756
1.0763e-05
0.00130075
1.00934e-05
0.00130379
9.55916e-06
0.00130668
9.08515e-06
0.00130947
8.70211e-06
0.00131217
8.41264e-06
0.0013148
8.18712e-06
0.00131736
8.01376e-06
0.00131986
7.86946e-06
0.00132232
7.72932e-06
0.00132472
7.61867e-06
0.00132707
7.51091e-06
0.00132936
7.37463e-06
0.00133159
7.26085e-06
0.00133377
7.15545e-06
0.0013359
7.05295e-06
0.00133796
6.9686e-06
0.00133995
6.89745e-06
0.00134188
6.83111e-06
0.00134373
6.76455e-06
0.0013455
6.72414e-06
0.00134716
6.66231e-06
0.00134872
6.60315e-06
0.00135015
6.55045e-06
0.00135144
6.48783e-06
0.0013526
6.40216e-06
0.00135357
6.33603e-06
0.00135438
6.26099e-06
0.00135501
6.16754e-06
0.00135541
6.07461e-06
0.00135562
5.93664e-06
0.00135565
5.81514e-06
0.00135552
5.68338e-06
0.00135523
5.57784e-06
0.00135475
5.51145e-06
0.00135408
5.50861e-06
0.00135319
5.51634e-06
0.00135215
5.43032e-06
0.00135099
5.11498e-06
0.00134989
4.50896e-06
0.0013489
3.73824e-06
0.0013481
2.85785e-06
0.00134751
1.9965e-06
0.00134709
1.1987e-06
0.00134688
5.2093e-07
0.00134675
-1.59587e-08
0.00134672
-3.94181e-07
0.00134672
-6.54616e-07
0.00134678
-8.25021e-07
0.0013468
-9.63751e-07
0.00134693
-1.07444e-06
0.00134694
-1.0831e-06
0.00134705
-1.14622e-06
0.00134708
-1.02174e-06
0.00134714
-1.08786e-06
0.00134722
-9.58135e-07
0.00134717
-9.63883e-07
0.00134733
-9.44708e-07
0.00134717
-8.19327e-07
0.00134728
-9.94423e-07
0.00134727
-7.47187e-07
0.00134728
-9.20501e-07
0.00134735
-8.228e-07
0.00134727
-8.36998e-07
0.00134743
-8.8484e-07
0.00134727
-7.73335e-07
0.00134746
-9.67848e-07
0.00134738
-7.45404e-07
0.00134741
-8.85663e-07
0.0013474
-7.31561e-07
0.00134738
-8.6886e-07
0.00134754
-7.79022e-07
0.00134733
-8.0948e-07
0.00134775
-9.72094e-07
0.00134746
-5.36437e-07
0.0013476
-9.92215e-07
0.00134766
-5.51665e-07
0.00134765
-8.07187e-07
0.00134795
-6.88485e-07
0.00134773
-6.59538e-07
0.00134831
-1.08053e-06
0.00134795
-3.68663e-07
0.0013483
-1.04007e-06
0.0013485
-4.30631e-07
0.0013485
-7.91327e-07
0.00134899
-4.94173e-07
0.00134862
4.43844e-08
0.00134895
-4.11441e-07
0.00134891
2.56357e-06
0.00134813
4.58474e-06
1.34294e-05
0.00134839
0.00139614
5.65859e-06
0.00140075
9.18112e-06
0.00140539
8.96084e-06
0.00141024
9.35555e-06
0.0014151
9.47554e-06
0.00141982
9.11838e-06
0.00142428
8.59474e-06
0.00142849
8.03497e-06
0.00143247
7.49448e-06
0.00143623
7.00529e-06
0.00143977
6.5466e-06
0.00144315
6.17852e-06
0.00144639
5.85375e-06
0.0014495
5.58762e-06
0.00145253
5.38825e-06
0.00145548
5.23507e-06
0.00145837
5.12127e-06
0.00146121
5.02778e-06
0.00146401
4.93507e-06
0.00146676
4.86548e-06
0.00146947
4.80027e-06
0.00147213
4.71257e-06
0.00147476
4.63432e-06
0.00147735
4.56128e-06
0.00147991
4.49109e-06
0.00148245
4.43714e-06
0.00148495
4.39596e-06
0.00148742
4.3572e-06
0.00148987
4.32025e-06
0.00149229
4.30015e-06
0.00149468
4.26649e-06
0.00149705
4.23769e-06
0.00149938
4.2243e-06
0.00150166
4.20774e-06
0.0015039
4.16276e-06
0.00150609
4.13998e-06
0.00150824
4.11109e-06
0.00151033
4.07727e-06
0.00151235
4.05248e-06
0.00151428
4.01269e-06
0.00151612
3.97699e-06
0.00151786
3.94415e-06
0.00151952
3.91127e-06
0.0015211
3.93098e-06
0.00152262
3.99426e-06
0.00152399
4.14579e-06
0.00152519
4.22641e-06
0.00152619
4.11274e-06
0.00152698
3.72199e-06
0.00152759
3.12519e-06
0.00152804
2.4105e-06
0.00152838
1.65465e-06
0.00152863
9.56534e-07
0.00152882
3.23655e-07
0.00152896
-1.51265e-07
0.00152909
-5.23634e-07
0.00152916
-7.28932e-07
0.00152926
-9.21629e-07
0.00152927
-9.77836e-07
0.00152936
-1.15992e-06
0.00152938
-1.10983e-06
0.00152944
-1.19933e-06
0.00152949
-1.07119e-06
0.00152949
-1.08737e-06
0.00152957
-1.03813e-06
0.00152951
-9.03453e-07
0.00152961
-1.05231e-06
0.00152958
-7.86624e-07
0.00152958
-9.95758e-07
0.00152965
-8.13324e-07
0.00152963
-9.01618e-07
0.0015297
-8.95425e-07
0.00152966
-7.96082e-07
0.00152972
-9.43143e-07
0.00152965
-7.04783e-07
0.0015297
-1.01436e-06
0.00152968
-7.24304e-07
0.00152972
-9.26562e-07
0.00152976
-7.79197e-07
0.00152974
-8.44216e-07
0.00152986
-8.95859e-07
0.00152971
-6.61411e-07
0.00152987
-1.13674e-06
0.00152984
-4.98279e-07
0.00152986
-1.0215e-06
0.00153004
-7.28651e-07
0.00153007
-8.32774e-07
0.00153024
-8.59673e-07
0.00153015
-5.73553e-07
0.00153023
-1.15911e-06
0.00153015
-2.8644e-07
0.00153019
-1.07633e-06
0.00153039
-6.34881e-07
0.00153023
-6.33794e-07
0.00153043
-6.9275e-07
0.00153031
1.60907e-07
0.0015299
1.11924e-09
0.00153009
2.3732e-06
0.00152974
4.94158e-06
1.30137e-05
0.00153015
0.00154551
2.52755e-06
0.00155064
4.05103e-06
0.00155576
3.84777e-06
0.00156107
4.03943e-06
0.00156645
4.09431e-06
0.00157167
3.90448e-06
0.0015766
3.65652e-06
0.00158126
3.37503e-06
0.00158567
3.09082e-06
0.00158983
2.84562e-06
0.00159376
2.61749e-06
0.0015975
2.43422e-06
0.00160108
2.27195e-06
0.00160453
2.13667e-06
0.00160789
2.0362e-06
0.00161116
1.96272e-06
0.00161437
1.91025e-06
0.00161753
1.87075e-06
0.00162063
1.82994e-06
0.00162369
1.8045e-06
0.00162671
1.78232e-06
0.00162968
1.73974e-06
0.00163262
1.6963e-06
0.00163553
1.65662e-06
0.0016384
1.61898e-06
0.00164125
1.59013e-06
0.00164407
1.5699e-06
0.00164688
1.54925e-06
0.00164966
1.53516e-06
0.00165243
1.53172e-06
0.00165518
1.51815e-06
0.00165792
1.50342e-06
0.00166064
1.50155e-06
0.00166334
1.50462e-06
0.00166602
1.48742e-06
0.00166867
1.48176e-06
0.00167131
1.47277e-06
0.00167393
1.4619e-06
0.00167652
1.45892e-06
0.00167908
1.45741e-06
0.00168159
1.46076e-06
0.00168407
1.47015e-06
0.00168651
1.47352e-06
0.00168894
1.50036e-06
0.00169138
1.54837e-06
0.00169386
1.66589e-06
0.00169633
1.75816e-06
0.00169868
1.7592e-06
0.00170081
1.59175e-06
0.00170264
1.30101e-06
0.00170413
9.22355e-07
0.00170527
5.09809e-07
0.00170611
1.15248e-07
0.00170667
-2.36721e-07
0.00170702
-4.94104e-07
0.0017072
-7.10131e-07
0.00170728
-8.04472e-07
0.00170728
-9.28031e-07
0.00170724
-9.35784e-07
0.00170715
-1.06621e-06
0.00170705
-1.01657e-06
0.00170694
-1.08728e-06
0.00170689
-1.02139e-06
0.00170682
-1.01631e-06
0.00170679
-1.00861e-06
0.00170677
-8.79414e-07
0.00170672
-1.00797e-06
0.00170675
-8.13269e-07
0.0017067
-9.47298e-07
0.00170673
-8.44652e-07
0.00170671
-8.77682e-07
0.00170671
-8.9732e-07
0.00170672
-8.07363e-07
0.00170669
-9.1467e-07
0.00170673
-7.45436e-07
0.00170669
-9.66531e-07
0.00170673
-7.62925e-07
0.0017067
-9.0403e-07
0.00170674
-8.17811e-07
0.00170673
-8.333e-07
0.00170674
-9.01977e-07
0.00170676
-6.86468e-07
0.00170669
-1.06104e-06
0.0017068
-6.11799e-07
0.00170673
-9.48007e-07
0.0017068
-8.03304e-07
0.00170677
-8.04024e-07
0.00170679
-8.75111e-07
0.00170684
-6.26775e-07
0.00170673
-1.04908e-06
0.00170688
-4.35151e-07
0.00170676
-9.60312e-07
0.00170686
-7.34295e-07
0.00170679
-5.58753e-07
0.00170678
-6.86838e-07
0.00170689
5.62062e-08
0.00170664
2.42965e-07
0.00170678
2.23685e-06
0.00170665
5.07269e-06
1.20721e-05
0.00170759
0.001711
-7.93733e-07
0.00171671
-1.65157e-06
0.00172235
-1.79849e-06
0.0017282
-1.81238e-06
0.00173416
-1.8639e-06
0.00173993
-1.86633e-06
0.0017454
-1.80646e-06
0.00175056
-1.78454e-06
0.00175543
-1.78576e-06
0.00176004
-1.75846e-06
0.00176439
-1.73441e-06
0.00176853
-1.71152e-06
0.0017725
-1.69518e-06
0.00177632
-1.68518e-06
0.00178003
-1.67435e-06
0.00178366
-1.6607e-06
0.00178721
-1.64643e-06
0.00179071
-1.62587e-06
0.00179415
-1.61006e-06
0.00179754
-1.58333e-06
0.00180088
-1.55803e-06
0.00180417
-1.55592e-06
0.00180743
-1.56167e-06
0.00181065
-1.56278e-06
0.00181383
-1.56301e-06
0.00181699
-1.56541e-06
0.00182013
-1.56749e-06
0.00182325
-1.57324e-06
0.00182635
-1.56269e-06
0.00182942
-1.54425e-06
0.00183248
-1.53642e-06
0.00183552
-1.54039e-06
0.00183856
-1.53438e-06
0.00184158
-1.5182e-06
0.00184458
-1.51135e-06
0.00184756
-1.49691e-06
0.00185052
-1.4869e-06
0.00185346
-1.47818e-06
0.00185638
-1.46754e-06
0.00185928
-1.44058e-06
0.00186215
-1.40603e-06
0.00186498
-1.36606e-06
0.0018678
-1.33796e-06
0.00187061
-1.31144e-06
0.00187344
-1.28589e-06
0.00187633
-1.22659e-06
0.00187927
-1.17239e-06
0.00188214
-1.11067e-06
0.00188479
-1.05864e-06
0.0018871
-1.01154e-06
0.001889
-9.76697e-07
0.00189046
-9.53154e-07
0.00189151
-9.34239e-07
0.0018922
-9.24179e-07
0.0018926
-9.00136e-07
0.0018928
-9.0208e-07
0.00189287
-8.74534e-07
0.00189283
-8.9669e-07
0.00189274
-8.44286e-07
0.00189255
-8.77525e-07
0.00189236
-8.24313e-07
0.00189215
-8.75256e-07
0.001892
-8.68891e-07
0.00189187
-8.84773e-07
0.00189176
-9.07566e-07
0.00189172
-8.31519e-07
0.00189164
-9.28089e-07
0.00189164
-8.12665e-07
0.00189158
-8.95861e-07
0.00189159
-8.47602e-07
0.00189157
-8.58534e-07
0.00189156
-8.88721e-07
0.00189157
-8.16992e-07
0.00189155
-8.91775e-07
0.00189158
-7.81047e-07
0.00189154
-9.22686e-07
0.00189158
-8.02216e-07
0.00189155
-8.73031e-07
0.00189157
-8.40597e-07
0.00189157
-8.30222e-07
0.00189155
-8.88014e-07
0.0018916
-7.34317e-07
0.00189153
-9.87072e-07
0.00189161
-6.98927e-07
0.00189156
-8.91661e-07
0.00189159
-8.40374e-07
0.00189158
-7.92148e-07
0.00189157
-8.65998e-07
0.00189163
-6.87414e-07
0.00189155
-9.68542e-07
0.00189168
-5.59094e-07
0.00189159
-8.7575e-07
0.00189164
-7.81784e-07
0.00189165
-5.70811e-07
0.00189162
-6.5469e-07
0.00189169
-1.12045e-08
0.0018916
3.29777e-07
0.00189173
2.11073e-06
0.00189187
4.92892e-06
1.08374e-05
0.00189311
0.00171104
-4.14938e-06
0.00171675
-7.36643e-06
0.0017224
-7.44853e-06
0.00172826
-7.67001e-06
0.00173422
-7.82605e-06
0.00174
-7.63836e-06
0.00174546
-7.26719e-06
0.00175062
-6.94483e-06
0.00175549
-6.6642e-06
0.0017601
-6.36161e-06
0.00176445
-6.08737e-06
0.0017686
-5.85679e-06
0.00177256
-5.6622e-06
0.00177639
-5.50794e-06
0.0017801
-5.38482e-06
0.00178372
-5.28507e-06
0.00178728
-5.20381e-06
0.00179077
-5.12142e-06
0.00179422
-5.05166e-06
0.0017976
-4.97158e-06
0.00180094
-4.89746e-06
0.00180424
-4.85208e-06
0.0018075
-4.81957e-06
0.00181072
-4.78176e-06
0.0018139
-4.74536e-06
0.00181705
-4.72128e-06
0.00182019
-4.70472e-06
0.00182331
-4.69626e-06
0.00182641
-4.66015e-06
0.00182949
-4.61895e-06
0.00183254
-4.59095e-06
0.00183559
-4.58768e-06
0.00183862
-4.57033e-06
0.00184164
-4.5373e-06
0.00184464
-4.50863e-06
0.00184762
-4.47397e-06
0.00185058
-4.44668e-06
0.00185352
-4.41767e-06
0.00185644
-4.39251e-06
0.00185934
-4.33455e-06
0.0018622
-4.26627e-06
0.00186503
-4.19592e-06
0.00186783
-4.14598e-06
0.00187064
-4.11869e-06
0.00187347
-4.11467e-06
0.00187635
-4.10988e-06
0.00187928
-4.09458e-06
0.00188213
-3.96964e-06
0.00188477
-3.69606e-06
0.00188707
-3.30839e-06
0.00188895
-2.86066e-06
0.0018904
-2.40437e-06
0.00189144
-1.97526e-06
0.00189213
-1.60804e-06
0.00189253
-1.30404e-06
0.00189273
-1.09563e-06
0.00189279
-9.42918e-07
0.00189277
-8.67463e-07
0.00189267
-7.47702e-07
0.00189248
-6.91925e-07
0.00189228
-6.24042e-07
0.00189207
-6.66887e-07
0.00189191
-7.09157e-07
0.00189178
-7.5329e-07
0.00189168
-8.05245e-07
0.00189162
-7.7489e-07
0.00189155
-8.57685e-07
0.00189154
-7.98148e-07
0.0018915
-8.56033e-07
0.00189149
-8.40614e-07
0.00189148
-8.4297e-07
0.00189147
-8.80298e-07
0.00189147
-8.20399e-07
0.00189146
-8.79094e-07
0.00189148
-8.01836e-07
0.00189145
-8.95222e-07
0.00189148
-8.27138e-07
0.00189146
-8.5236e-07
0.00189147
-8.57349e-07
0.00189147
-8.28381e-07
0.00189146
-8.78275e-07
0.00189149
-7.65229e-07
0.00189145
-9.40596e-07
0.0018915
-7.53753e-07
0.00189147
-8.60165e-07
0.00189149
-8.60931e-07
0.00189148
-7.84134e-07
0.00189148
-8.66998e-07
0.00189152
-7.24689e-07
0.00189147
-9.21482e-07
0.00189155
-6.34611e-07
0.0018915
-8.28222e-07
0.00189152
-8.02733e-07
0.00189155
-5.94466e-07
0.00189153
-6.36115e-07
0.00189159
-7.64078e-08
0.00189158
3.38061e-07
0.00189173
1.96577e-06
0.00189209
4.5642e-06
9.55106e-06
0.00189338
0.0015456
-7.37347e-06
0.00155077
-1.2527e-05
0.00155589
-1.25722e-05
0.00156122
-1.30012e-05
0.00156661
-1.32177e-05
0.00157183
-1.28555e-05
0.00157676
-1.21992e-05
0.00158142
-1.16071e-05
0.00158583
-1.10726e-05
0.00158999
-1.05188e-05
0.00159392
-1.00191e-05
0.00159766
-9.59977e-06
0.00160125
-9.2439e-06
0.0016047
-8.961e-06
0.00160805
-8.73679e-06
0.00161133
-8.5596e-06
0.00161454
-8.41654e-06
0.00161769
-8.27572e-06
0.0016208
-8.16112e-06
0.00162386
-8.03295e-06
0.00162688
-7.91253e-06
0.00162985
-7.82591e-06
0.00163279
-7.75692e-06
0.00163569
-7.68428e-06
0.00163856
-7.61674e-06
0.00164141
-7.5674e-06
0.00164423
-7.52799e-06
0.00164704
-7.50316e-06
0.00164982
-7.44207e-06
0.00165258
-7.38175e-06
0.00165533
-7.33547e-06
0.00165806
-7.32122e-06
0.00166077
-7.28182e-06
0.00166346
-7.22492e-06
0.00166613
-7.17468e-06
0.00166877
-7.11878e-06
0.0016714
-7.07172e-06
0.001674
-7.01601e-06
0.00167657
-6.96696e-06
0.0016791
-6.86458e-06
0.00168158
-6.74902e-06
0.00168402
-6.63026e-06
0.00168641
-6.54116e-06
0.00168879
-6.50117e-06
0.00169119
-6.50992e-06
0.00169361
-6.52889e-06
0.001696
-6.48143e-06
0.00169826
-6.23067e-06
0.0017003
-5.73517e-06
0.00170204
-5.05337e-06
0.00170346
-4.27714e-06
0.00170455
-3.49311e-06
0.00170533
-2.76381e-06
0.00170587
-2.14072e-06
0.0017062
-1.63824e-06
0.00170638
-1.27871e-06
0.00170647
-1.02575e-06
0.00170647
-8.74052e-07
0.00170644
-7.10621e-07
0.00170635
-6.01795e-07
0.00170625
-5.23512e-07
0.00170615
-5.66817e-07
0.00170607
-6.29348e-07
0.001706
-6.89859e-07
0.00170595
-7.55436e-07
0.00170593
-7.47463e-07
0.00170589
-8.25491e-07
0.00170588
-7.89412e-07
0.00170587
-8.41836e-07
0.00170586
-8.34846e-07
0.00170586
-8.36881e-07
0.00170585
-8.75573e-07
0.00170585
-8.20379e-07
0.00170585
-8.79872e-07
0.00170586
-8.03869e-07
0.00170585
-8.89685e-07
0.00170586
-8.34258e-07
0.00170585
-8.43437e-07
0.00170586
-8.71113e-07
0.00170586
-8.20655e-07
0.00170586
-8.8716e-07
0.00170586
-7.64883e-07
0.00170585
-9.27254e-07
0.00170587
-7.71508e-07
0.00170587
-8.57741e-07
0.00170587
-8.61715e-07
0.00170586
-7.77761e-07
0.00170588
-8.82894e-07
0.00170588
-7.26978e-07
0.00170589
-9.30549e-07
0.0017059
-6.42205e-07
0.00170589
-8.25237e-07
0.00170588
-7.87682e-07
0.00170591
-6.31676e-07
0.00170591
-6.29761e-07
0.00170596
-1.26836e-07
0.00170602
2.71854e-07
0.00170618
1.8151e-06
0.00170671
4.0331e-06
8.40828e-06
0.00170785
0.00139628
-1.05772e-05
0.00140093
-1.71744e-05
0.00140559
-1.72359e-05
0.00141046
-1.78692e-05
0.00141534
-1.80951e-05
0.00142006
-1.75734e-05
0.00142451
-1.66543e-05
0.00142873
-1.58204e-05
0.00143271
-1.50555e-05
0.00143646
-1.4274e-05
0.00144001
-1.35687e-05
0.00144339
-1.29788e-05
0.00144662
-1.24754e-05
0.00144974
-1.20766e-05
0.00145277
-1.1762e-05
0.00145572
-1.15118e-05
0.00145861
-1.13095e-05
0.00146145
-1.11118e-05
0.00146424
-1.09576e-05
0.00146699
-1.07815e-05
0.00146969
-1.06141e-05
0.00147235
-1.04831e-05
0.00147497
-1.0376e-05
0.00147755
-1.02677e-05
0.0014801
-1.01676e-05
0.00148262
-1.00863e-05
0.00148511
-1.00115e-05
0.00148756
-9.96132e-06