/*--------------------------------*- C++ -*----------------------------------*\
| =========                 |                                                 |
| \\      /  F ield         | OpenFOAM: The Open Source CFD Toolbox           |
|  \\    /   O peration     | Version:  v2012                                 |
|   \\  /    A nd           | Website:  www.openfoam.com                      |
|    \\/     M anipulation  |                                                 |
\*---------------------------------------------------------------------------*/
FoamFile
{
    version     2.0;
    format      ascii;
    class       volScalarField;
    location    "0.131";
    object      k.air;
}
// * * * * * * * * * * * * * * * * * * * * * * * * * * * * * * * * * * * * * //

dimensions      [0 2 -2 0 0 0 0];


internalField   nonuniform List<scalar> 
5600
(
0.652335
1.46996
2.41639
3.07865
3.379
3.41872
3.31522
3.14792
2.97063
2.8123
2.67465
2.56213
2.47522
2.41437
2.37415
2.35315
2.34337
2.34346
2.34725
2.35323
2.35964
2.36449
2.36921
2.3717
2.37492
2.37644
2.37928
2.38061
2.38327
2.38451
2.38693
2.38783
2.38955
2.38981
2.39063
2.3901
2.39037
2.38922
2.3892
2.38768
2.3875
2.38578
2.38554
2.38383
2.38367
2.38203
2.38213
2.38058
2.38093
2.37944
2.37999
2.37857
2.37929
2.37787
2.37881
2.37736
2.37855
2.37711
2.3785
2.3772
2.3788
2.37758
2.37947
2.37819
2.3805
2.37911
2.38184
2.38035
2.38343
2.38188
2.38524
2.38365
2.38732
2.38564
2.38969
2.38779
2.39232
2.39007
2.3952
2.39258
2.39837
2.39538
2.40172
2.39845
2.40507
2.40183
2.40806
2.40587
2.41001
2.41154
2.40937
2.42126
2.40252
2.4422
2.37591
2.49905
2.27949
2.68597
1.89445
3.36789
0.403034
0.378217
0.397925
0.450934
0.512796
0.589841
0.67442
0.793527
0.938877
1.10256
1.28317
1.47632
1.6677
1.85355
2.02232
2.17131
2.29602
2.3953
2.47143
2.52529
2.56405
2.58757
2.60647
2.61606
2.62784
2.63271
2.64247
2.64475
2.65181
2.65255
2.65655
2.65508
2.65653
2.65326
2.65363
2.64944
2.65005
2.64559
2.64664
2.64231
2.64362
2.6398
2.64144
2.63818
2.64049
2.63752
2.64051
2.63749
2.6409
2.6378
2.64147
2.63827
2.64231
2.63884
2.64345
2.6397
2.645
2.64114
2.647
2.64314
2.6496
2.6456
2.65286
2.6484
2.6566
2.65156
2.66059
2.6551
2.66471
2.65884
2.66891
2.66271
2.67344
2.66665
2.67839
2.67051
2.68348
2.67403
2.68857
2.67745
2.6939
2.68127
2.69971
2.68555
2.70571
2.69029
2.71121
2.69617
2.71494
2.70486
2.71436
2.72036
2.70299
2.75156
2.66639
2.82218
2.56428
2.99269
2.2781
3.39945
0.405649
0.344727
0.30149
0.271244
0.251879
0.24004
0.234362
0.236871
0.246853
0.267623
0.294162
0.336807
0.386787
0.452208
0.52625
0.611585
0.705746
0.805533
0.911491
1.01714
1.1248
1.22757
1.33065
1.42688
1.52213
1.60035
1.67233
1.72618
1.77755
1.81418
1.84915
1.87481
1.90077
1.91871
1.93883
1.95139
1.9682
1.97658
1.99066
1.99633
2.00837
2.01265
2.02365
2.02707
2.0378
2.0404
2.05101
2.0526
2.06285
2.06359
2.07344
2.07338
2.08322
2.08224
2.09244
2.09073
2.10136
2.09931
2.11015
2.10783
2.11908
2.11613
2.12821
2.12419
2.13722
2.13214
2.14593
2.14005
2.15426
2.14782
2.16236
2.15533
2.17056
2.16261
2.17898
2.16947
2.18744
2.17578
2.19564
2.1816
2.20383
2.18754
2.21251
2.19357
2.22149
2.19957
2.23023
2.20591
2.23803
2.21333
2.24385
2.22379
2.2448
2.2413
2.23464
2.27528
2.2006
2.34094
2.12666
2.39087
0.406552
0.343972
0.298446
0.262386
0.234605
0.213159
0.193455
0.181627
0.166335
0.161639
0.151012
0.151705
0.147882
0.153167
0.15866
0.16968
0.186623
0.206729
0.236871
0.269823
0.315017
0.362491
0.423131
0.485057
0.561198
0.637222
0.725043
0.808319
0.897557
0.976555
1.05419
1.12127
1.1862
1.24026
1.29271
1.3333
1.37639
1.40726
1.44322
1.4677
1.49866
1.51923
1.54699
1.56382
1.5883
1.60034
1.62162
1.63025
1.64937
1.65571
1.6733
1.67773
1.69475
1.69745
1.71444
1.71594
1.73289
1.73371
1.75033
1.75034
1.76701
1.76567
1.78301
1.77998
1.798
1.79357
1.81191
1.80666
1.82503
1.81914
1.83765
1.83094
1.85012
1.84229
1.86271
1.85307
1.87521
1.86311
1.88711
1.87243
1.89868
1.88149
1.91051
1.89033
1.92248
1.89893
1.93407
1.9076
1.94477
1.91685
1.95395
1.92785
1.96
1.94299
1.96001
1.9651
1.95267
1.99022
1.95162
1.97467
0.406838
0.343967
0.298259
0.262874
0.233085
0.21317
0.189856
0.179532
0.159959
0.15456
0.139057
0.135039
0.12444
0.119855
0.114388
0.108964
0.108061
0.102947
0.106014
0.102587
0.110049
0.109576
0.122734
0.127422
0.147865
0.161176
0.191104
0.216906
0.257791
0.296877
0.347034
0.395197
0.45262
0.506992
0.571284
0.628155
0.692738
0.745738
0.806177
0.853864
0.90825
0.949927
0.998588
1.03378
1.07729
1.1053
1.14417
1.16675
1.20137
1.21963
1.25107
1.26565
1.2955
1.30703
1.33593
1.34529
1.37269
1.3798
1.40536
1.41033
1.4351
1.43754
1.46241
1.46236
1.48722
1.48546
1.50984
1.50719
1.53098
1.52766
1.55106
1.54691
1.57041
1.56474
1.589
1.58119
1.60678
1.59651
1.62334
1.61072
1.63895
1.62411
1.65433
1.63706
1.66948
1.64973
1.68384
1.66244
1.69705
1.67564
1.70874
1.69001
1.71815
1.7064
1.72479
1.72413
1.73121
1.73728
1.74677
1.73115
0.406932
0.344311
0.297523
0.264057
0.231635
0.214755
0.188447
0.180542
0.159333
0.154345
0.139095
0.133525
0.124123
0.116937
0.112381
0.103738
0.102809
0.0932781
0.0951021
0.0847892
0.089334
0.0781616
0.0849585
0.0741712
0.0818377
0.0732951
0.0810377
0.0762643
0.0845491
0.084137
0.0956191
0.0988317
0.116574
0.123818
0.149552
0.162746
0.196087
0.216454
0.255485
0.282766
0.326238
0.357949
0.405103
0.438995
0.490274
0.525749
0.577021
0.610778
0.660146
0.691201
0.738094
0.765063
0.809849
0.832415
0.87488
0.893837
0.933543
0.949421
0.986573
0.999678
1.0356
1.0452
1.0806
1.0871
1.12152
1.12606
1.15897
1.16249
1.19403
1.19679
1.22725
1.22889
1.25846
1.25794
1.28731
1.28451
1.31413
1.30914
1.33864
1.33182
1.36114
1.35289
1.38259
1.37313
1.40312
1.39299
1.42227
1.41259
1.43998
1.43209
1.45644
1.45167
1.47152
1.47095
1.48567
1.48862
1.50083
1.50254
1.51818
1.51314
0.406731
0.345092
0.296494
0.265363
0.230292
0.215848
0.187757
0.18065
0.159803
0.153481
0.140301
0.132384
0.125307
0.11599
0.113279
0.102767
0.103606
0.0917768
0.0958049
0.0824752
0.0892739
0.0751587
0.0827653
0.0702772
0.076192
0.0666757
0.070756
0.0631518
0.0672648
0.0590369
0.0662077
0.0549818
0.0663996
0.0531454
0.0671704
0.0546063
0.0693847
0.0598824
0.0752731
0.0687179
0.0869914
0.0826255
0.10537
0.103482
0.130928
0.133744
0.164565
0.172327
0.206607
0.218516
0.256754
0.270893
0.312785
0.328785
0.372269
0.390063
0.433747
0.453803
0.498082
0.516594
0.56101
0.576871
0.621282
0.634939
0.677978
0.690235
0.730874
0.742235
0.780524
0.791011
0.827263
0.836412
0.871071
0.878384
0.912537
0.918386
0.951905
0.956423
0.988408
0.991837
1.02199
1.02469
1.05361
1.05616
1.08376
1.08692
1.11224
1.11673
1.13925
1.1454
1.16507
1.17262
1.1891
1.19779
1.21169
1.2207
1.23343
1.24168
1.25307
1.26185
0.406322
0.345852
0.295888
0.265938
0.230105
0.215625
0.188402
0.179589
0.160994
0.152224
0.141339
0.131579
0.125866
0.115633
0.113671
0.102391
0.104232
0.091166
0.0964902
0.0821179
0.0892032
0.0758308
0.0813546
0.0719371
0.0740011
0.0680511
0.0691102
0.0627062
0.0667826
0.0563777
0.0656406
0.0509769
0.0633019
0.0481705
0.0595677
0.0466669
0.0564297
0.0446077
0.0553872
0.0415068
0.0557982
0.0393282
0.0560392
0.039334
0.0561945
0.0413756
0.058211
0.0441452
0.063449
0.0488779
0.0715922
0.057307
0.0819972
0.0712065
0.0961174
0.0897464
0.115594
0.11275
0.141934
0.140541
0.173236
0.173626
0.20865
0.212311
0.247896
0.255255
0.290538
0.301044
0.336013
0.348793
0.383488
0.397279
0.431914
0.446329
0.480393
0.494614
0.52787
0.542204
0.573483
0.587654
0.61653
0.63042
0.657576
0.671807
0.697302
0.712354
0.735523
0.751288
0.772081
0.78827
0.807024
0.823408
0.840031
0.85664
0.871286
0.88793
0.900496
0.917467
0.926771
0.944877
0.406057
0.34596
0.296237
0.26528
0.231314
0.2142
0.189995
0.17813
0.162107
0.15149
0.141546
0.131661
0.125456
0.116101
0.113141
0.102902
0.103722
0.0918654
0.0955618
0.083598
0.0872944
0.0782918
0.0787463
0.0746057
0.0716966
0.0699114
0.0678996
0.0633708
0.0664165
0.0568135
0.0645942
0.0526737
0.0605823
0.0511831
0.0558118
0.0495676
0.0530677
0.0459504
0.0525766
0.0416732
0.0517874
0.0393439
0.0491753
0.0387253
0.0464075
0.0374536
0.0457116
0.0344306
0.0463634
0.0319941
0.0458893
0.031891
0.04393
0.0332367
0.0429938
0.0336644
0.0444927
0.0336107
0.0475472
0.0352435
0.0505761
0.0396885
0.0542665
0.0466299
0.0600284
0.0555753
0.0685286
0.0670502
0.0801903
0.081603
0.0955904
0.0993358
0.114753
0.120499
0.137264
0.145336
0.163045
0.173989
0.192049
0.205033
0.223175
0.237521
0.256166
0.272577
0.291915
0.310567
0.329965
0.349834
0.368773
0.38921
0.407557
0.428587
0.446341
0.467044
0.483457
0.503394
0.518531
0.537735
0.551499
0.569636
0.40616
0.345374
0.29723
0.263942
0.232986
0.212589
0.191492
0.177076
0.16271
0.151344
0.141271
0.132149
0.124693
0.116972
0.112006
0.104221
0.102141
0.0936737
0.0935954
0.0857169
0.0852439
0.0802539
0.0771186
0.0759886
0.0705955
0.0709582
0.0668155
0.0646866
0.0647745
0.0588931
0.0621163
0.0554575
0.0577408
0.0539608
0.0532655
0.0519397
0.0508395
0.0482435
0.0500184
0.044581
0.0484169
0.0428666
0.0453241
0.0422361
0.0426372
0.0405017
0.0418441
0.0374833
0.0415945
0.035398
0.0398617
0.0351328
0.037154
0.0350079
0.0356104
0.0334261
0.0354983
0.0314249
0.035186
0.0305403
0.0338829
0.0305848
0.0325405
0.0306014
0.0318506
0.0304974
0.0315421
0.0307738
0.0315405
0.0314527
0.0322319
0.0324339
0.0337003
0.0341296
0.0358264
0.0370255
0.0389259
0.0412275
0.0435156
0.0467281
0.0496534
0.0536611
0.0573542
0.0627217
0.0676221
0.0747658
0.0811599
0.0898138
0.0976223
0.107746
0.117048
0.128764
0.139717
0.15264
0.164913
0.178542
0.191869
0.206118
0.220359
0.235185
0.406398
0.344766
0.297997
0.263004
0.233987
0.211717
0.192231
0.176615
0.162989
0.151248
0.141254
0.132252
0.124417
0.117441
0.111193
0.105329
0.100741
0.0951842
0.0921489
0.0869119
0.0844731
0.0805739
0.0772362
0.0756503
0.0709293
0.0709163
0.0663928
0.0656177
0.0634133
0.0604563
0.0605678
0.056736
0.056814
0.0545377
0.0528429
0.0524241
0.0500665
0.0494061
0.0484952
0.0462865
0.0467581
0.0442726
0.0442249
0.0430761
0.0418413
0.0414535
0.040519
0.0391768
0.0396422
0.0373505
0.0381242
0.0365045
0.0361746
0.0358011
0.034841
0.0345014
0.0342229
0.0331388
0.0335527
0.0323758
0.0326161
0.0320523
0.0318891
0.0318131
0.0316351
0.0317584
0.0317648
0.0321655
0.0323264
0.0331335
0.0335753
0.0347624
0.0357093
0.0373549
0.0388845
0.0411595
0.0433824
0.046425
0.0495341
0.0535304
0.057683
0.0627904
0.0679989
0.0743412
0.0807688
0.0884816
0.0963985
0.105528
0.114979
0.125586
0.136532
0.148435
0.160709
0.173868
0.187493
0.201764
0.21647
0.231626
0.247312
0.263598
0.406556
0.344436
0.298346
0.262622
0.23432
0.211501
0.192357
0.176619
0.162971
0.151274
0.14131
0.132134
0.124558
0.117351
0.111117
0.105606
0.100218
0.0958586
0.0914135
0.0875273
0.0841131
0.0805582
0.0776363
0.0749421
0.0717501
0.0701916
0.0667897
0.0656318
0.0629581
0.0611693
0.0597666
0.0573459
0.0565106
0.054468
0.0531609
0.052065
0.0502881
0.0495484
0.0481126
0.047008
0.0462112
0.0449026
0.0442384
0.0432967
0.0423929
0.0418629
0.0410135
0.0404887
0.0400761
0.0394647
0.0394053
0.0390485
0.0391293
0.0392506
0.0396147
0.0401667
0.0411033
0.0422009
0.043823
0.0457519
0.0481905
0.051148
0.0546988
0.0588481
0.0637796
0.0693896
0.0759022
0.0832448
0.0915341
0.100786
0.111033
0.122368
0.134581
0.1477
0.161597
0.176385
0.191923
0.208299
0.225436
0.243271
0.261722
0.280638
0.29987
0.319396
0.339028
0.358923
0.378802
0.398854
0.41878
0.439113
0.458978
0.478767
0.498077
0.517363
0.536134
0.55481
0.572928
0.590925
0.608595
0.626417
0.406574
0.344343
0.298485
0.262464
0.234494
0.211396
0.192413
0.176678
0.16285
0.151453
0.141138
0.132248
0.124521
0.11727
0.111248
0.105419
0.100336
0.0957964
0.091323
0.0876866
0.083875
0.0807213
0.0775728
0.074793
0.0720565
0.0697579
0.0672207
0.0653376
0.0630989
0.0613354
0.0595995
0.0577967
0.0565034
0.0548416
0.053721
0.0524472
0.0513863
0.0505371
0.0496868
0.0491894
0.0487686
0.0486595
0.0488605
0.0493141
0.0503391
0.0516784
0.0537639
0.0563894
0.0598329
0.0641583
0.0694199
0.0757674
0.0833836
0.0920611
0.102444
0.11387
0.127249
0.14175
0.157778
0.175067
0.193682
0.213489
0.234501
0.256433
0.279445
0.303029
0.32747
0.352131
0.377402
0.402623
0.42845
0.454468
0.480261
0.505624
0.530592
0.555165
0.579278
0.603005
0.626265
0.649031
0.671253
0.69283
0.713804
0.734157
0.753942
0.773269
0.792083
0.810524
0.828465
0.845947
0.863059
0.880023
0.896521
0.912885
0.928698
0.944318
0.959351
0.974236
0.98879
1.00352
0.406497
0.344431
0.298462
0.262467
0.234568
0.211295
0.192524
0.176583
0.162859
0.151488
0.14098
0.132397
0.124305
0.117369
0.111156
0.105339
0.100423
0.0956049
0.0914553
0.0875925
0.0839151
0.0808442
0.0775994
0.0750757
0.0723346
0.0701804
0.0679872
0.0661787
0.064534
0.0631845
0.0621456
0.061447
0.0612142
0.0614577
0.0624098
0.0640573
0.0667229
0.0704418
0.0754294
0.0820024
0.0900503
0.100196
0.112133
0.126516
0.143235
0.162128
0.183327
0.206587
0.231921
0.259098
0.287824
0.317939
0.348998
0.380861
0.413358
0.446531
0.480527
0.513973
0.547012
0.57935
0.61099
0.641844
0.671805
0.700883
0.72905
0.756263
0.782632
0.808072
0.832719
0.856544
0.879611
0.901814
0.92351
0.94451
0.964852
0.984573
1.00366
1.02221
1.04019
1.0576
1.07445
1.09069
1.10645
1.12171
1.13658
1.15115
1.16534
1.17934
1.19284
1.2059
1.21856
1.23091
1.24291
1.2547
1.26609
1.27733
1.28815
1.29893
1.30951
1.32036
0.406411
0.344579
0.298337
0.262573
0.234486
0.211267
0.192529
0.176443
0.162882
0.151371
0.140906
0.132427
0.124126
0.117563
0.11104
0.105656
0.100636
0.0961312
0.0922753
0.0887015
0.0856833
0.0832268
0.0809906
0.0798072
0.0787376
0.0790896
0.0799841
0.0825171
0.0865059
0.0925004
0.100864
0.11182
0.125939
0.143499
0.165018
0.190261
0.219193
0.251557
0.287052
0.325153
0.365305
0.407221
0.450589
0.496084
0.541931
0.587225
0.631612
0.674714
0.716376
0.756341
0.794536
0.830984
0.865618
0.898625
0.930015
0.959742
0.987901
1.01474
1.0405
1.06499
1.0884
1.11077
1.13214
1.15265
1.17238
1.19138
1.20981
1.22766
1.24501
1.26191
1.2781
1.29352
1.30825
1.32231
1.3358
1.3488
1.36132
1.3735
1.38527
1.39662
1.40761
1.41817
1.42844
1.43833
1.44806
1.45754
1.4669
1.47606
1.48512
1.49398
1.50276
1.51131
1.51979
1.52809
1.53623
1.54428
1.55208
1.55992
1.56768
1.57579
0.406338
0.344702
0.298154
0.262671
0.234262
0.211304
0.19243
0.176482
0.16303
0.151645
0.141481
0.133455
0.125604
0.120177
0.114406
0.11115
0.107743
0.106748
0.106317
0.108344
0.11178
0.118431
0.127288
0.140837
0.15777
0.181352
0.20981
0.246009
0.287821
0.335528
0.387421
0.443234
0.502712
0.565299
0.629535
0.692823
0.754198
0.813119
0.868991
0.921725
0.971115
1.01742
1.0605
1.10022
1.13677
1.17055
1.20172
1.2305
1.25728
1.28223
1.30573
1.32802
1.34926
1.36967
1.38919
1.40746
1.4247
1.44091
1.45638
1.47098
1.48493
1.49822
1.5109
1.52309
1.5348
1.54607
1.55703
1.56761
1.57799
1.58807
1.59803
1.60759
1.61679
1.62565
1.63427
1.64265
1.65082
1.65881
1.66659
1.6741
1.68146
1.68851
1.69545
1.70213
1.70879
1.71522
1.72169
1.728
1.73437
1.74058
1.74689
1.75299
1.75922
1.76523
1.77133
1.77724
1.78318
1.78906
1.79501
1.80141
0.406162
0.344805
0.297849
0.262989
0.234598
0.212864
0.19475
0.18044
0.169041
0.160696
0.15484
0.152741
0.152836
0.157958
0.16554
0.17976
0.197519
0.22347
0.254716
0.295276
0.342361
0.398941
0.46188
0.534595
0.613741
0.700457
0.789425
0.880961
0.968322
1.05014
1.1251
1.19357
1.25508
1.30943
1.35722
1.39974
1.43753
1.47145
1.50213
1.53042
1.5566
1.58129
1.60374
1.62435
1.64258
1.65902
1.67398
1.68768
1.7004
1.71219
1.7233
1.73383
1.74389
1.75364
1.7631
1.77232
1.78128
1.78993
1.7984
1.80652
1.81446
1.82211
1.82952
1.83671
1.84369
1.85046
1.85711
1.86353
1.86992
1.87614
1.88233
1.88843
1.89444
1.90033
1.90616
1.91187
1.91755
1.92308
1.92852
1.9338
1.93906
1.94408
1.94909
1.95391
1.95877
1.96344
1.96823
1.97285
1.97762
1.98221
1.987
1.99156
1.99637
2.00087
2.00568
2.01009
2.01486
2.01937
2.02405
2.02921
0.40511
0.345832
0.300523
0.273111
0.251891
0.243136
0.2373
0.242373
0.256084
0.278154
0.311185
0.356714
0.413955
0.484046
0.564578
0.656298
0.755537
0.862471
0.97202
1.08417
1.19389
1.30279
1.40668
1.50929
1.59996
1.67794
1.74297
1.79714
1.8426
1.87979
1.91077
1.93718
1.95936
1.97838
1.99498
2.00953
2.02211
2.03317
2.04284
2.05159
2.05955
2.06712
2.07427
2.08117
2.08786
2.09427
2.10031
2.10601
2.1114
2.11646
2.1213
2.12592
2.13037
2.13476
2.13905
2.14338
2.14768
2.15196
2.1563
2.16056
2.16489
2.16915
2.1734
2.17759
2.18176
2.18583
2.18992
2.19386
2.19788
2.20174
2.20568
2.20955
2.21339
2.21718
2.22097
2.22468
2.22843
2.23206
2.2357
2.23922
2.24279
2.24624
2.2497
2.25304
2.2565
2.25981
2.26331
2.26666
2.2702
2.27357
2.27718
2.28057
2.28424
2.28761
2.29132
2.29465
2.29834
2.30184
2.30547
2.30962
0.401977
0.380686
0.398951
0.460122
0.520819
0.609964
0.694925
0.833743
0.986108
1.15942
1.35064
1.5493
1.74681
1.93377
2.10334
2.25035
2.3716
2.46738
2.5384
2.58944
2.62338
2.64671
2.66217
2.67344
2.68253
2.69026
2.69625
2.70107
2.70442
2.7067
2.70742
2.70701
2.70554
2.7035
2.70105
2.69867
2.69625
2.69405
2.69187
2.68996
2.68817
2.68671
2.68553
2.68472
2.68418
2.68384
2.6836
2.68346
2.68339
2.68336
2.6834
2.68348
2.68363
2.6839
2.68423
2.68475
2.68539
2.68618
2.68715
2.68822
2.68949
2.69084
2.69235
2.69391
2.69559
2.69729
2.69911
2.70091
2.70283
2.70472
2.70671
2.7087
2.71077
2.71286
2.715
2.71711
2.71929
2.7214
2.72357
2.72569
2.72788
2.73002
2.73224
2.73442
2.73676
2.73903
2.7415
2.74388
2.74646
2.74891
2.75159
2.75411
2.75685
2.75941
2.76215
2.76479
2.76746
2.77026
2.77294
2.77587
0.651873
1.46964
2.41429
3.07068
3.36107
3.39277
3.28084
3.10741
2.92909
2.77003
2.63151
2.51963
2.43482
2.37614
2.33915
2.31997
2.31268
2.31367
2.3182
2.32462
2.33039
2.33553
2.33938
2.34238
2.34496
2.34726
2.34949
2.35159
2.35351
2.35536
2.35687
2.35817
2.35896
2.35935
2.35931
2.35895
2.3583
2.35747
2.35645
2.35534
2.35414
2.35291
2.3517
2.35051
2.34942
2.34842
2.34751
2.34669
2.34595
2.34527
2.34465
2.34408
2.34357
2.34312
2.3427
2.34237
2.34208
2.34188
2.34177
2.34175
2.34183
2.34198
2.34222
2.34256
2.34298
2.34346
2.34403
2.34466
2.34536
2.34611
2.34694
2.3478
2.34874
2.34973
2.35078
2.35186
2.35299
2.35414
2.35533
2.35654
2.35781
2.35912
2.36049
2.3619
2.36339
2.3649
2.36649
2.36806
2.36971
2.37133
2.37302
2.37467
2.37638
2.37806
2.37978
2.38147
2.38312
2.38467
2.38576
2.38605
0.0524351
9.05154
11.5229
12.3017
12.8513
13.0434
12.9445
12.6615
12.2637
11.8458
11.4331
11.0452
10.6957
10.3845
10.1048
9.84736
9.60343
9.36672
9.12977
8.89261
8.65248
8.40944
8.163
7.91726
7.67022
7.42329
7.17874
6.93713
6.70036
6.46613
6.23563
6.00943
5.78873
5.57229
5.35975
5.15162
4.94703
4.74572
4.54815
4.35356
4.15976
3.96574
3.77257
3.58109
3.39047
3.20063
3.01545
2.83874
2.671
2.51372
2.36969
2.23933
2.11956
2.00722
1.90147
1.80413
1.71711
1.64008
1.56971
1.5042
1.44762
1.40727
1.38309
1.36431
1.33809
1.30225
1.26568
1.23966
1.22806
1.22802
1.23517
1.24895
1.26806
1.28797
1.30193
1.30467
1.29297
1.26868
1.23539
1.19807
1.15899
1.12008
1.08063
1.04113
1.00073
0.958507
0.913534
0.863995
0.810813
0.751507
0.689102
0.620594
0.552883
0.480301
0.41694
0.345866
0.296986
0.228049
0.201471
0.132467
1.36397
4.21579
8.10157
9.9351
10.8659
11.2476
11.2865
11.099
10.7818
10.4238
10.0668
9.74051
9.46036
9.2223
9.01756
8.83596
8.66694
8.50598
8.3443
8.17941
8.00815
7.82975
7.64291
7.45102
7.25313
7.0504
6.84472
6.63702
6.42974
6.22134
6.01348
5.80576
5.59968
5.39589
5.19404
4.99488
4.79761
4.602
4.40861
4.21692
4.02488
3.8316
3.63855
3.44713
3.25685
3.06791
2.8849
2.71207
2.54979
2.39937
2.26357
2.14248
2.0324
1.9298
1.83391
1.74649
1.66895
1.60065
1.53866
1.4818
1.4341
1.402
1.38468
1.37114
1.34836
1.31344
1.27432
1.24227
1.22284
1.21547
1.21715
1.22675
1.24235
1.25922
1.27066
1.27147
1.25856
1.23362
1.20042
1.16388
1.12625
1.08925
1.05208
1.01486
0.976548
0.936146
0.892569
0.844292
0.791881
0.733477
0.671503
0.603833
0.536198
0.464425
0.400503
0.330566
0.280533
0.213703
0.186022
0.119869
2.1196
2.00006
3.82908
6.07321
7.70041
8.5677
8.94618
9.00909
8.89419
8.68937
8.45595
8.23987
8.04979
7.8895
7.75915
7.65029
7.55376
7.46729
7.38007
7.28793
7.18742
7.07695
6.95492
6.82358
6.68253
6.53332
6.37635
6.21263
6.04428
5.87154
5.69573
5.51736
5.33521
5.15048
4.96456
4.77879
4.59276
4.40643
4.22038
4.03444
3.84684
3.65682
3.46632
3.27738
3.08998
2.90467
2.72668
2.56071
2.40699
2.26656
2.14216
2.03349
1.9362
1.84634
1.76332
1.68874
1.6234
1.56616
1.51459
1.46834
1.43138
1.40896
1.39918
1.39077
1.37084
1.33599
1.2934
1.25415
1.22534
1.20868
1.20276
1.20625
1.21668
1.22913
1.23698
1.23507
1.22051
1.19475
1.16165
1.12601
1.09015
1.05547
1.02107
0.98664
0.950879
0.912645
0.870767
0.823904
0.772414
0.714919
0.653433
0.586519
0.519014
0.447943
0.383559
0.314682
0.26367
0.19908
0.170435
0.107752
2.00408
1.84837
2.0723
2.83715
4.02541
5.12521
5.88002
6.29284
6.47928
6.5294
6.50469
6.46239
6.41244
6.366
6.33342
6.31223
6.29962
6.28572
6.26795
6.24379
6.21037
6.16521
6.10742
6.03817
5.95709
5.86643
5.76428
5.6518
5.5299
5.40143
5.26607
5.12706
4.9784
4.82061
4.65722
4.49044
4.32068
4.14815
3.97357
3.79717
3.61759
3.43433
3.24981
3.06683
2.88594
2.70814
2.53924
2.38431
2.24339
2.11721
2.00846
1.9163
1.83563
1.76215
1.69553
1.63719
1.58705
1.54331
1.50422
1.47047
1.44603
1.43461
1.43288
1.42915
1.41091
1.37474
1.32742
1.27973
1.24001
1.21204
1.19613
1.19118
1.19435
1.20055
1.20329
1.19744
1.18034
1.15331
1.12015
1.08552
1.05173
1.01982
0.98874
0.957629
0.924912
0.889193
0.849268
0.803905
0.753389
0.696723
0.635692
0.569385
0.502013
0.431489
0.366721
0.298764
0.246959
0.184662
0.155255
0.0965218
1.76612
1.72904
1.71197
1.79882
2.04876
2.45795
2.93738
3.38766
3.75074
4.02264
4.21319
4.36161
4.48355
4.58626
4.68143
4.77088
4.86024
4.93476
4.99695
5.04721
5.08438
5.10817
5.11772
5.11363
5.09529
5.06446
5.01877
4.9604
4.88942
4.80966
4.71869
4.62246
4.51365
4.39127
4.25818
4.1175
3.97046
3.81764
3.65988
3.49801
3.33133
3.15969
2.98605
2.814
2.64485
2.48014
2.32604
2.18785
2.06539
1.95909
1.87138
1.80067
1.74105
1.68795
1.6414
1.60252
1.57016
1.54185
1.51668
1.49663
1.48569
1.48584
1.49208
1.49219
1.47422
1.43507
1.38141
1.32388
1.2717
1.23046
1.20205
1.18596
1.17933
1.177
1.17268
1.16129
1.14048
1.11153
1.0781
1.04459
1.01324
0.984653
0.957481
0.930258
0.901085
0.868225
0.830462
0.786631
0.737061
0.68108
0.620397
0.554493
0.487187
0.416974
0.351824
0.284495
0.232024
0.171784
0.14184
0.0870571
1.52509
1.5278
1.50992
1.49268
1.49389
1.52745
1.58919
1.68045
1.79427
1.9342
2.08983
2.26036
2.44477
2.63269
2.82376
3.00943
3.19308
3.3639
3.51816
3.65482
3.77286
3.87481
3.9592
4.02616
4.07511
4.1065
4.12015
4.11947
4.10362
4.07668
4.03502
3.98482
3.92199
3.84359
3.74956
3.64365
3.52781
3.4027
3.26895
3.12848
2.98154
2.8285
2.67297
2.51927
2.36962
2.22599
2.09468
1.98112
1.88476
1.80568
1.7457
1.70205
1.66809
1.63923
1.61588
1.59871
1.58542
1.57305
1.56186
1.55532
1.55751
1.56866
1.58201
1.58479
1.56572
1.52203
1.46043
1.39162
1.32555
1.26921
1.22586
1.19571
1.17636
1.16281
1.14908
1.13022
1.1043
1.07262
1.03876
1.00661
0.978252
0.953625
0.931012
0.908223
0.883039
0.85332
0.817821
0.775453
0.726675
0.671138
0.610601
0.544834
0.477468
0.407262
0.341675
0.274518
0.221458
0.162607
0.132355
0.0806517
1.26484
1.2757
1.27229
1.25377
1.22502
1.19239
1.15812
1.12471
1.09284
1.06797
1.05245
1.05235
1.07772
1.13196
1.22346
1.34941
1.50838
1.69228
1.88835
2.08544
2.27457
2.45053
2.60973
2.75071
2.87178
2.97212
3.05255
3.11676
3.16239
3.19392
3.20789
3.20845
3.19479
3.16528
3.11906
3.058
2.9839
2.89665
2.79631
2.6866
2.5689
2.44445
2.31743
2.1928
2.07358
1.96189
1.86407
1.7854
1.72458
1.68121
1.65596
1.64447
1.6396
1.63714
1.63796
1.64205
1.64619
1.6475
1.64783
1.65231
1.66542
1.68567
1.70444
1.70849
1.68733
1.63829
1.56781
1.48655
1.40563
1.33282
1.27238
1.22538
1.1903
1.16261
1.1369
1.10849
1.07602
1.04089
1.00666
0.976449
0.951915
0.932054
0.91465
0.896722
0.875801
0.849329
0.816019
0.774894
0.726609
0.671182
0.610529
0.544612
0.477087
0.406575
0.340558
0.27297
0.219409
0.160719
0.130278
0.0795227
0.946807
0.965308
0.972803
0.964153
0.941078
0.906416
0.863262
0.815082
0.763805
0.713543
0.665605
0.623372
0.58984
0.5663
0.556428
0.563521
0.58994
0.641838
0.720431
0.826447
0.95785
1.10824
1.27056
1.43874
1.60339
1.75948
1.90062
2.02685
2.13398
2.22497
2.29712
2.35166
2.38951
2.41147
2.41674
2.40402
2.37508
2.33048
2.27232
2.20367
2.12641
2.0424
1.95638
1.87362
1.79733
1.72943
1.67624
1.64247
1.62576
1.62461
1.63774
1.65903
1.68188
1.70311
1.724
1.74384
1.759
1.7675
1.77332
1.78373
1.80375
1.83005
1.85209
1.85639
1.83329
1.77979
1.70108
1.60769
1.51196
1.42212
1.34325
1.27738
1.22417
1.17988
1.13988
1.10011
1.06005
1.02132
0.987408
0.960383
0.940949
0.926749
0.91503
0.902069
0.885289
0.861804
0.830313
0.789996
0.741754
0.686018
0.625016
0.558654
0.491054
0.419939
0.353836
0.285066
0.231484
0.171205
0.14079
0.0876874
0.57992
0.597734
0.609485
0.608837
0.595736
0.571836
0.540674
0.506515
0.473174
0.444897
0.423632
0.410942
0.407228
0.411433
0.422391
0.439439
0.46028
0.486123
0.516289
0.55223
0.595293
0.648972
0.712927
0.790346
0.878826
0.978235
1.08433
1.19466
1.30301
1.40777
1.50481
1.59057
1.66404
1.72252
1.76529
1.79308
1.80558
1.80324
1.7901
1.76786
1.73823
1.70309
1.66705
1.63512
1.60999
1.59329
1.59097
1.60624
1.635
1.6738
1.71929
1.76517
1.80664
1.84196
1.87262
1.89713
1.9122
1.91767
1.92059
1.93086
1.95349
1.98283
2.00651
2.01127
1.98818
1.93321
1.84952
1.74687
1.63807
1.53186
1.43448
1.34913
1.27673
1.21454
1.15901
1.10706
1.05945
1.01827
0.986696
0.965008
0.952219
0.944323
0.938229
0.929756
0.916317
0.894996
0.864503
0.824269
0.775508
0.718931
0.657501
0.590295
0.523098
0.450915
0.385856
0.314997
0.262722
0.198995
0.169635
0.111795
0.24917
0.263463
0.276649
0.286081
0.291944
0.295972
0.301438
0.311457
0.32862
0.354313
0.388224
0.429122
0.474652
0.52233
0.569721
0.616
0.659071
0.700152
0.738614
0.774471
0.808654
0.840723
0.871603
0.903535
0.936297
0.971789
1.01065
1.05416
1.10129
1.15244
1.20622
1.25977
1.31286
1.36176
1.40468
1.44269
1.47473
1.49927
1.51718
1.53
1.53915
1.54601
1.55428
1.56754
1.58722
1.61455
1.6543
1.70729
1.76732
1.82931
1.88963
1.9435
1.98818
2.02322
2.04951
2.06484
2.06701
2.05914
2.05254
2.05912
2.08235
2.11342
2.13876
2.14614
2.1269
2.0754
1.99249
1.88604
1.76804
1.64804
1.53407
1.43066
1.3401
1.26079
1.19042
1.1275
1.07456
1.03426
1.0085
0.994824
0.989603
0.987747
0.986169
0.980834
0.969003
0.948388
0.917521
0.876439
0.826576
0.768638
0.706981
0.638471
0.572848
0.499054
0.437356
0.364008
0.315433
0.248021
0.221822
0.161458
0.280399
0.297244
0.316162
0.339217
0.368586
0.405174
0.450145
0.502858
0.562273
0.626417
0.69332
0.759348
0.822096
0.880202
0.933117
0.980773
1.0234
1.06215
1.09704
1.12913
1.15854
1.18662
1.21238
1.23698
1.26016
1.28275
1.30501
1.3277
1.3504
1.37366
1.39641
1.41835
1.44066
1.46301
1.48458
1.50584
1.52685
1.54687
1.56607
1.58531
1.60553
1.62727
1.6528
1.68429
1.72239
1.76832
1.82495
1.88935
1.95376
2.0143
2.06827
2.11224
2.14528
2.1672
2.17753
2.17374
2.15598
2.13209
2.11709
2.12249
2.14803
2.18176
2.21074
2.22404
2.21293
2.17022
2.09447
1.9909
1.86974
1.74147
1.61607
1.49956
1.39551
1.30338
1.22229
1.15321
1.10054
1.06663
1.05037
1.0457
1.04641
1.04839
1.04855
1.04391
1.03107
1.00931
0.976417
0.933849
0.882515
0.823375
0.761993
0.692659
0.630115
0.555889
0.49994
0.427219
0.385648
0.320182
0.298104
0.240957
0.644358
0.662225
0.682751
0.709698
0.745166
0.78928
0.841067
0.898612
0.959574
1.02122
1.08106
1.13763
1.18964
1.23677
1.27935
1.31782
1.35321
1.38591
1.41613
1.44469
1.47169
1.49732
1.52167
1.54496
1.56692
1.58746
1.60669
1.62451
1.64033
1.65475
1.66818
1.67993
1.69064
1.70062
1.70988
1.7188
1.72786
1.73654
1.74571
1.75659
1.77018
1.78685
1.80869
1.83749
1.87384
1.91851
1.97059
2.02361
2.07257
2.11628
2.15251
2.17911
2.19602
2.20227
2.19569
2.17425
2.14148
2.10947
2.0943
2.1043
2.1346
2.17256
2.20701
2.22805
2.22685
2.1953
2.13007
2.03384
1.91518
1.78548
1.65593
1.53393
1.42375
1.32566
1.24073
1.17313
1.12781
1.10482
1.09835
1.09946
1.10192
1.10408
1.10269
1.09623
1.08025
1.05606
1.02029
0.97656
0.924
0.865165
0.804149
0.735882
0.676278
0.607258
0.558947
0.495134
0.462658
0.40642
0.390041
0.340334
1.01834
1.03343
1.05139
1.07549
1.10706
1.14581
1.19031
1.23883
1.28925
1.3391
1.38663
1.43097
1.4717
1.5092
1.54385
1.57631
1.60703
1.63663
1.66486
1.69219
1.71816
1.74271
1.7658
1.78714
1.80647
1.82359
1.83845
1.85098
1.86079
1.86839
1.87375
1.87658
1.87761
1.87734
1.87608
1.87428
1.87235
1.87112
1.87103
1.87318
1.8783
1.88687
1.90127
1.92303
1.95174
1.98628
2.02321
2.05714
2.08648
2.11131
2.13004
2.14121
2.14447
2.13793
2.11925
2.08737
2.04888
2.01808
2.00953
2.02675
2.06234
2.10499
2.14498
2.17325
2.18112
2.16008
2.10543
2.01799
1.90538
1.77966
1.65254
1.53215
1.42253
1.32485
1.24318
1.18436
1.15134
1.13971
1.13921
1.14091
1.14137
1.14078
1.13586
1.12609
1.10638
1.07937
1.0411
0.996969
0.943911
0.885883
0.825581
0.762244
0.707599
0.647833
0.606879
0.554948
0.52997
0.486073
0.474747
0.436291
1.33139
1.34289
1.357
1.3763
1.40157
1.43249
1.46759
1.50568
1.54479
1.58404
1.62168
1.65775
1.69209
1.72506
1.75664
1.78706
1.81627
1.84432
1.87066
1.8954
1.91765
1.93749
1.95456
1.96848
1.97925
1.98693
1.99157
1.99339
1.99255
1.98935
1.98395
1.97673
1.96832
1.95902
1.94917
1.9391
1.92927
1.92041
1.91318
1.90852
1.90681
1.90888
1.91724
1.93235
1.95166
1.97167
1.98985
2.00412
2.01553
2.02433
2.02934
2.02976
2.02437
2.01012
1.98467
1.94874
1.91164
1.8876
1.88765
1.91167
1.95185
1.99834
2.0426
2.07649
2.09165
2.07944
2.03414
1.95559
1.85124
1.73367
1.61442
1.50129
1.39738
1.30559
1.234
1.1895
1.17016
1.16639
1.16622
1.16454
1.16088
1.1561
1.14707
1.13354
1.11052
1.08104
1.04132
0.997083
0.94396
0.888283
0.83145
0.775439
0.727438
0.678474
0.645305
0.605435
0.586834
0.554185
0.546446
0.517771
1.58413
1.59308
1.60446
1.62037
1.64122
1.66661
1.69539
1.72668
1.75916
1.79218
1.82426
1.85623
1.88777
1.91858
1.94797
1.97562
2.00105
2.02385
2.04339
2.05958
2.07167
2.08009
2.0845
2.08496
2.082
2.07597
2.06726
2.0562
2.04349
2.02864
2.0123
1.99545
1.97845
1.96133
1.94434
1.92779
1.91211
1.89808
1.88632
1.87749
1.87157
1.86935
1.87286
1.88079
1.88827
1.89151
1.89196
1.89103
1.88969
1.88748
1.88355
1.87734
1.86683
1.84836
1.82007
1.78461
1.75253
1.73675
1.74449
1.77372
1.81687
1.86539