/*--------------------------------*- C++ -*----------------------------------*\
| =========                 |                                                 |
| \\      /  F ield         | OpenFOAM: The Open Source CFD Toolbox           |
|  \\    /   O peration     | Version:  v2012                                 |
|   \\  /    A nd           | Website:  www.openfoam.com                      |
|    \\/     M anipulation  |                                                 |
\*---------------------------------------------------------------------------*/
FoamFile
{
    version     2.0;
    format      ascii;
    class       volScalarField;
    location    "0.131";
    object      nut.air;
}
// * * * * * * * * * * * * * * * * * * * * * * * * * * * * * * * * * * * * * //

dimensions      [0 2 -1 0 0 0 0];


internalField   nonuniform List<scalar> 
5600
(
2.45135e-05
3.47347e-05
4.04094e-05
4.24627e-05
4.22717e-05
4.09706e-05
3.92087e-05
3.75394e-05
3.61126e-05
3.49475e-05
3.40601e-05
3.34384e-05
3.30357e-05
3.28063e-05
3.26942e-05
3.26613e-05
3.26698e-05
3.26995e-05
3.27357e-05
3.27673e-05
3.28008e-05
3.28205e-05
3.28525e-05
3.28729e-05
3.29155e-05
3.29364e-05
3.29858e-05
3.30041e-05
3.30593e-05
3.30677e-05
3.31251e-05
3.31162e-05
3.31729e-05
3.31467e-05
3.32021e-05
3.31669e-05
3.3212e-05
3.31872e-05
3.3204e-05
3.32134e-05
3.31826e-05
3.32423e-05
3.31626e-05
3.32578e-05
3.31672e-05
3.32408e-05
3.32139e-05
3.319e-05
3.32895e-05
3.31325e-05
3.33477e-05
3.31162e-05
3.33455e-05
3.31703e-05
3.32778e-05
3.32797e-05
3.31851e-05
3.33874e-05
3.31326e-05
3.34254e-05
3.31735e-05
3.33551e-05
3.33263e-05
3.32013e-05
3.35323e-05
3.30627e-05
3.3663e-05
3.30673e-05
3.36003e-05
3.3263e-05
3.33538e-05
3.35629e-05
3.30863e-05
3.37621e-05
3.30096e-05
3.36946e-05
3.31906e-05
3.34125e-05
3.34772e-05
3.31629e-05
3.36069e-05
3.31659e-05
3.34543e-05
3.34126e-05
3.31528e-05
3.36904e-05
3.29534e-05
3.37577e-05
3.30238e-05
3.3543e-05
3.33004e-05
3.32675e-05
3.34351e-05
3.33488e-05
3.30329e-05
3.40718e-05
3.18261e-05
3.61108e-05
2.72519e-05
4.53063e-05
0.000151656
0.000137408
0.000112246
9.86249e-05
9.39041e-05
9.49452e-05
0.000102101
0.000110123
0.000116483
0.000124315
0.000132728
0.000141238
0.000149468
0.000157258
0.000164419
0.000170949
0.000176803
0.000182061
0.000186787
0.000191042
0.000195018
0.000198572
0.000202153
0.000205284
0.000208587
0.000211202
0.000214219
0.000216338
0.000219109
0.000220623
0.000223144
0.000224012
0.000226341
0.000226709
0.000228851
0.00022901
0.00023072
0.00023117
0.000232007
0.000233293
0.000232867
0.000235204
0.000233757
0.000236533
0.000235246
0.000236933
0.000237628
0.000236489
0.000240215
0.000236139
0.000241946
0.000236929
0.000241993
0.000239339
0.000240644
0.0002426
0.000239065
0.000245185
0.000238854
0.000245693
0.000241055
0.00024356
0.000245584
0.000239918
0.000250356
0.000237667
0.000252344
0.000239491
0.000249509
0.000245628
0.000243433
0.000252793
0.000238639
0.000255868
0.000239148
0.000252517
0.00024501
0.000245678
0.000251201
0.000241593
0.000252115
0.000243651
0.000247257
0.0002499
0.000240886
0.000254736
0.000238414
0.00025398
0.000242009
0.000247951
0.000248412
0.000242722
0.000250436
0.000244215
0.000245699
0.000249999
0.000240438
0.000255375
0.000229152
0.000264744
0.000156515
0.000151568
0.000143033
0.000135174
0.000125239
0.000120746
0.000113752
0.00010972
0.0001087
0.000109816
0.000112675
0.000117439
0.000123677
0.00013137
0.000140254
0.000150362
0.0001615
0.000173769
0.000187147
0.000201657
0.000217136
0.000232703
0.000246319
0.000258144
0.000270444
0.000280653
0.000291089
0.00029775
0.000306216
0.000310874
0.000318674
0.000321918
0.000329422
0.000331711
0.000338508
0.000340644
0.000345795
0.000349143
0.000351476
0.000357198
0.000356277
0.000364203
0.000361486
0.000368987
0.000368357
0.000371008
0.000376585
0.000371494
0.000384169
0.000373175
0.000388469
0.000378403
0.000388336
0.000386919
0.00038559
0.000395932
0.000383828
0.000401773
0.000386681
0.00040146
0.000395784
0.000395048
0.000408735
0.000387329
0.000419178
0.000385829
0.000420124
0.000395763
0.000410122
0.00041374
0.000396367
0.000429076
0.000390056
0.000431091
0.000397839
0.000419067
0.000414127
0.000404443
0.000424857
0.000400246
0.000421837
0.000408967
0.000409164
0.000421866
0.000398314
0.000427456
0.000398301
0.000420911
0.000409128
0.000408213
0.000420059
0.000400611
0.000423515
0.00039949
0.000424671
0.000395055
0.00043525
0.000383779
0.000440135
0.000384311
0.000157813
0.000154005
0.00015008
0.000146777
0.00014268
0.000139244
0.000135559
0.000131508
0.000128187
0.00012492
0.000122975
0.000120007
0.000117378
0.000115733
0.00011553
0.000116728
0.000119862
0.000124545
0.000131439
0.000139561
0.000150468
0.000161957
0.000176813
0.000190523
0.000208012
0.000222421
0.000240002
0.000251343
0.00026816
0.000277951
0.000295038
0.000303139
0.000320024
0.000326906
0.000342573
0.000349708
0.000362256
0.000372322
0.000378812
0.000393992
0.00039381
0.000412751
0.000409868
0.00042533
0.000428218
0.000430609
0.000446761
0.0004341
0.000462198
0.000441372
0.000470044
0.000455639
0.000469844
0.000474706
0.000466368
0.000492499
0.000466673
0.000502321
0.000476941
0.000499867
0.000498502
0.000487413
0.000524398
0.000476086
0.000541099
0.000480055
0.000537841
0.000505321
0.000516961
0.000540836
0.000495032
0.000564859
0.000491959
0.000561462
0.000513712
0.000536717
0.00054357
0.000514631
0.00055654
0.000514397
0.000545599
0.000532693
0.000523858
0.000551648
0.00051056
0.000554728
0.000516306
0.000540381
0.00053415
0.000523625
0.000545337
0.000517292
0.000547861
0.000514974
0.000552047
0.000507266
0.000560999
0.000504551
0.000550501
0.000525021
0.000158111
0.000154619
0.000151627
0.000149091
0.000146719
0.000144516
0.00014244
0.000140401
0.000138413
0.000136522
0.000134662
0.000132958
0.000130922
0.000129131
0.0001272
0.000125501
0.000124266
0.000121578
0.000121384
0.000119123
0.00012169
0.000120687
0.000127263
0.00012803
0.00013946
0.000141884
0.000158336
0.000161993
0.000182994
0.000187414
0.000211994
0.000217239
0.000239607
0.000244033
0.000263668
0.000271886
0.000285624
0.000301558
0.000306041
0.000331203
0.000327291
0.000357315
0.000353281
0.000376043
0.000385655
0.000387109
0.000420027
0.000397087
0.000447974
0.000415156
0.000462593
0.000445614
0.0004645
0.00048222
0.000463043
0.000513962
0.000469893
0.000530877
0.000494607
0.000527302
0.000537435
0.00050853
0.000583328
0.000495635
0.000609358
0.000511519
0.00060075
0.000562593
0.000565172
0.000624518
0.000534863
0.000657673
0.000540046
0.000643695
0.000584145
0.000604318
0.000632727
0.000573885
0.000644177
0.000581618
0.00062297
0.000614133
0.000588596
0.000637867
0.000573055
0.000635197
0.000586853
0.000614312
0.000612414
0.000593845
0.000621308
0.000590737
0.000621664
0.000589628
0.00062533
0.000579719
0.000634407
0.00057997
0.000616344
0.000601332
0.00015818
0.000154795
0.000152026
0.000149708
0.000147679
0.000145898
0.00014425
0.000142772
0.00014134
0.000140038
0.00013876
0.000137549
0.000136451
0.000135183
0.000134376
0.000132799
0.000132631
0.00013016
0.00013109
0.000126993
0.00013008
0.000123418
0.000130149
0.000119654
0.000131004
0.000116137
0.0001338
0.000115214
0.000139341
0.000119152
0.000147863
0.000130185
0.000158523
0.000149801
0.00016973
0.00017792
0.000181617
0.000211976
0.000197515
0.000245564
0.000223375
0.000266217
0.000255397
0.000275336
0.000295386
0.000279587
0.000336302
0.000290383
0.000364909
0.000317952
0.000374543
0.000362612
0.000371538
0.000412426
0.000370865
0.000451549
0.000387037
0.000467417
0.000429948
0.000455322
0.000494495
0.000429932
0.000554985
0.000422993
0.000579706
0.000460991
0.000555539
0.000540522
0.000508214
0.000620928
0.0004822
0.000656225
0.000510474
0.000627779
0.00057935
0.000573731
0.000635449
0.000549711
0.000638562
0.00057186
0.00060369
0.000610223
0.000567875
0.00063255
0.00056002
0.000621523
0.00058151
0.000593731
0.00060252
0.000583156
0.000602082
0.000584327
0.000603106
0.000578105
0.000612572
0.000564001
0.000620588
0.000570437
0.000598868
0.000593219
0.0001582
0.000154853
0.000152145
0.000149895
0.000147961
0.000146284
0.000144781
0.000143437
0.000142207
0.00014106
0.000140033
0.000138981
0.000138156
0.00013708
0.000136549
0.000135227
0.000135263
0.000133265
0.000134409
0.000130979
0.00013416
0.000128111
0.000134791
0.000124346
0.000136536
0.000119381
0.000139452
0.000113649
0.000142828
0.000109014
0.000144136
0.000109352
0.000139056
0.000119861
0.000125332
0.000141932
0.000107648
0.000167512
9.9438e-05
0.00018116
0.00011561
0.000172985
0.000160495
0.000150649
0.000219442
0.000136372
0.000263145
0.0001509
0.000273
0.000200876
0.000257931
0.000271183
0.000241472
0.000326559
0.000242305
0.000359559
0.00026679
0.000357089
0.000327036
0.000323963
0.000409869
0.000291371
0.000472081
0.000296202
0.000477998
0.000358906
0.000430652
0.000460756
0.000376385
0.000546821
0.000366933
0.000566136
0.000423861
0.000520734
0.000510509
0.000468499
0.000559322
0.000464068
0.000545609
0.000497775
0.000508175
0.00053115
0.000481985
0.000540643
0.000485024
0.000521306
0.000508084
0.000501148
0.000513234
0.000507694
0.000503225
0.00050927
0.000509297
0.000498055
0.000523189
0.000482135
0.000530351
0.000491881
0.000510537
0.000510674
0.000158207
0.000154873
0.000152188
0.000149959
0.000148058
0.000146411
0.000144955
0.000143652
0.00014248
0.000141393
0.000140427
0.000139466
0.000138682
0.000137758
0.000137195
0.000136164
0.000135972
0.000134573
0.000135062
0.000132853
0.00013456
0.000130833
0.000134622
0.000128299
0.000135425
0.000125077
0.000136974
0.000121362
0.000138661
0.000118396
0.000138505
0.00011934
0.000132745
0.000128496
0.000117689
0.000146627
9.51496e-05
0.000164655
8.02813e-05
0.000164576
9.75879e-05
0.000132132
0.00015134
7.42223e-05
0.000207339
2.99817e-05
0.00022535
4.41749e-05
0.000193151
0.00011614
0.000133543
0.000200239
8.43827e-05
0.000256189
7.57503e-05
0.000263152
0.000126619
0.000218465
0.000229703
0.000151798
0.000333602
0.00011621
0.000373496
0.000154427
0.000339554
0.000261346
0.000275187
0.000369737
0.000231035
0.000438261
0.000243965
0.00042827
0.000321619
0.000372366
0.000406744
0.000338843
0.000431466
0.000357346
0.000406045
0.00039167
0.000379344
0.000408153
0.000369571
0.000403318
0.000381312
0.000380681
0.000396969
0.000377038
0.000381677
0.000397085
0.000369145
0.000395229
0.000377649
0.000383967
0.000392782
0.000366745
0.000401283
0.000374145
0.000392385
0.000379854
0.00015821
0.000154882
0.000152205
0.000149985
0.000148096
0.000146461
0.00014502
0.000143734
0.000142578
0.000141517
0.000140561
0.000139649
0.000138851
0.000138024
0.00013738
0.000136566
0.000136119
0.000135205
0.000135061
0.000133875
0.000134225
0.000132499
0.000133654
0.000130985
0.000133405
0.000129271
0.000133457
0.000127461
0.000133509
0.000126118
0.000132676
0.000126534
0.000129438
0.000130197
0.000122599
0.000136829
0.000113721
0.000142275
0.000109819
0.000139496
0.000119882
0.000122748
0.00014198
9.3976e-05
0.000160852
7.3232e-05
0.000163221
8.85157e-05
0.000144151
0.000130641
0.000102585
0.000170498
5.27296e-05
0.000192908
3.95067e-05
0.000184442
9.72767e-05
0.000130036
0.000182562
4.35872e-05
0.000232826
7.91411e-06
0.000225995
8.41087e-05
0.00017815
0.000183677
0.000121941
0.000238524
0.000101833
0.000248336
0.000157419
0.000227212
0.000234108
0.000213292
0.000261372
0.000239083
0.000248965
0.000276338
0.000238473
0.000280462
0.000247997
0.000266914
0.000259081
0.000248976
0.000277364
0.000227928
0.000278184
0.000243127
0.000246743
0.000266922
0.000232873
0.000271299
0.000227985
0.000270006
0.000242252
0.000247303
0.000253627
0.000246653
0.000259922
0.000230252
0.000158211
0.000154886
0.000152212
0.000149996
0.000148112
0.000146482
0.000145047
0.000143768
0.000142617
0.000141568
0.000140613
0.000139722
0.000138913
0.000138131
0.000137443
0.000136729
0.000136156
0.000135467
0.000135023
0.000134307
0.000134027
0.000133214
0.000133164
0.000132152
0.000132438
0.000131094
0.000131836
0.000130068
0.000131255
0.000129233
0.00013043
0.000128936
0.000128959
0.000129514
0.000126655
0.000130768
0.00012417
0.000131473
0.000123295
0.000129791
0.000125703
0.000124868
0.000130525
0.000118681
0.000134042
0.000116005
0.00013295
0.000119705
0.000126975
0.000127306
0.00011805
0.000134373
0.000110727
0.000136694
0.000113302
0.00012979
0.000129367
0.000111588
0.000145479
9.59451e-05
0.000143679
0.000116488
0.000122855
0.000155775
9.63573e-05
0.00016899
9.03502e-05
0.000153781
0.000125931
0.000126543
0.000172613
0.000105634
0.000185691
0.000119741
0.000166474
0.000162432
0.000140935
0.000188618
0.000130959
0.000193567
0.000132171
0.000190443
0.000139757
0.000171056
0.000165793
0.000138641
0.000185423
0.00013049
0.000182072
0.000139998
0.000165934
0.000163638
0.000134777
0.000187864
0.000124248
0.000187386
0.000125035
0.00018024
0.000152052
0.000136018
0.000158211
0.000154886
0.000152212
0.000149996
0.000148113
0.000146482
0.000145047
0.000143768
0.000142617
0.000141569
0.000140612
0.000139724
0.00013891
0.000138137
0.000137433
0.000136744
0.000136131
0.000135503
0.000134969
0.000134381
0.000133922
0.000133355
0.000132972
0.000132402
0.000132113
0.000131502
0.000131334
0.000130654
0.000130603
0.000129897
0.00012984
0.000129317
0.000128937
0.00012899
0.000127867
0.000128846
0.000126818
0.000128555
0.000126222
0.000127666
0.00012645
0.00012604
0.000127294
0.000124255
0.000127813
0.000123455
0.000126982
0.00012444
0.000124556
0.000126879
0.000121414
0.000129065
0.000120158
0.000127535
0.000125245
0.000118786
0.00013773
0.000106019
0.000147613
0.000104046
0.000139572
0.000125511
0.000113455
0.000158792
9.01355e-05
0.000176128
9.10178e-05
0.000163824
0.00012022
0.00013623
0.000161344
0.000119721
0.000185935
0.000127306
0.000184951
0.000147061
0.000176486
0.000163722
0.00016765
0.000181836
0.000150355
0.000203111
0.000131846
0.000205256
0.000133957
0.000183471
0.00016089
0.000152928
0.000197673
0.000120011
0.000216068
0.000112611
0.000194012
0.000148341
0.0001555
0.000199457
0.000110088
0.000235617
9.39649e-05
0.000203748
0.00015821
0.000154882
0.000152205
0.000149984
0.000148097
0.000146461
0.000145021
0.000143735
0.000142577
0.000141521
0.000140555
0.000139659
0.000138833
0.000138052
0.000137334
0.000136637
0.000136004
0.000135374
0.000134807
0.000134231
0.000133718
0.000133185
0.000132718
0.00013222
0.000131797
0.000131314
0.000130954
0.000130456
0.000130174
0.000129658
0.000129429
0.000128957
0.000128664
0.000128407
0.000127842
0.000128048
0.000126961
0.000127873
0.000126087
0.000127765
0.00012542
0.00012751
0.000125346
0.000126751
0.000126271
0.000125393
0.00012811
0.000124211
0.000129507
0.000125019
0.000128982
0.000129145
0.00012763
0.000133988
0.00013046
0.000134727
0.000141006
0.000132442
0.000154573
0.000135907
0.0001629
0.000150729
0.000165997
0.000172197
0.000170431
0.000192614
0.000181124
0.000210393
0.000199455
0.000229008
0.000223631
0.000250331
0.000247964
0.000270635
0.000270894
0.000279665
0.000295888
0.00027443
0.000315937
0.000269886
0.000314489
0.000282318
0.000291573
0.000307162
0.000265182
0.000324668
0.000253548
0.000318407
0.000268832
0.000288076
0.000303733
0.000257526
0.000325511
0.000247966
0.000320413
0.000262114
0.000291415
0.000301468
0.000255133
0.000330385
0.000158207
0.000154873
0.000152189
0.000149958
0.000148061
0.00014641
0.000144957
0.000143653
0.000142477
0.0001414
0.00014041
0.00013949
0.000138635
0.000137824
0.000137074
0.000136343
0.000135674
0.000135006
0.000134398
0.000133785
0.000133224
0.000132656
0.000132136
0.000131614
0.000131121
0.000130634
0.000130202
0.000129706
0.000129387
0.000128847
0.000128676
0.000128064
0.000128055
0.00012748
0.000127526
0.000127329
0.000127038
0.00012797
0.000126408
0.000129596
0.000126045
0.000132457
0.000127146
0.000135982
0.000131569
0.000139582
0.000140736
0.00014382
0.000153811
0.000151281
0.000168215
0.000165003
0.000182105
0.000185038
0.000196447
0.00020786
0.0002143
0.000230395
0.000237442
0.000253486
0.000264261
0.000278321
0.000292373
0.000302964
0.000319322
0.000319741
0.000342002
0.000336517
0.000363666
0.0003615
0.000381451
0.000391791
0.000393467
0.000419809
0.000401663
0.000436141
0.000412016
0.000435631
0.000427403
0.000423548
0.000440887
0.000413081
0.000443707
0.000413115
0.00043458
0.00042294
0.000420471
0.000434496
0.000410175
0.000439335
0.000409709
0.000433761
0.000419241
0.000421395
0.000432664
0.000409252
0.000440921
0.000406912
0.000433963
0.000419402
0.000158201
0.000154852
0.000152148
0.000149892
0.000147966
0.000146279
0.000144784
0.000143431
0.000142201
0.000141063
0.000140001
0.000139012
0.00013807
0.000137183
0.000136336
0.000135522
0.000134748
0.000133995
0.000133266
0.000132563
0.000131876
0.000131217
0.000130577
0.000129938
0.0001293
0.000128737
0.000128208
0.000127766
0.000127552
0.000127267
0.000127358
0.00012741
0.000128383
0.000129257
0.000131534
0.000133833
0.000137579
0.000142149
0.000147162
0.000154927
0.000160551
0.000171866
0.000177484
0.000192153
0.000198359
0.000214766
0.000223535
0.000238591
0.00025245
0.000263819
0.000281975
0.000286419
0.000304206
0.000308085
0.000324572
0.000332215
0.000343741
0.000357443
0.000364099
0.00038249
0.000386419
0.000405496
0.000410091
0.000425343
0.000435144
0.00044327
0.000463
0.000462647
0.000491264
0.000486574
0.000514099
0.00051415
0.000527557
0.000540477
0.000532993
0.000558907
0.000536777
0.000563985
0.000544376
0.000556997
0.000555176
0.000546084
0.000562949
0.000539876
0.000562789
0.000541834
0.000555988
0.000549376
0.000546711
0.000557706
0.000539902
0.000561154
0.000540145
0.000557143
0.000547067
0.000547962
0.000556967
0.000539027
0.000561437
0.000538483
0.00015818
0.000154796
0.000152026
0.000149706
0.00014768
0.000145883
0.000144252
0.000142739
0.000141338
0.000139993
0.000138742
0.000137534
0.000136377
0.000135252
0.000134159
0.000133108
0.000132015
0.000130912
0.000129762
0.000128732
0.000127693
0.000126978
0.000126203
0.000125616
0.000125476
0.000126068
0.000127476
0.000130022
0.000133764
0.000138891
0.000145467
0.00015333
0.000162521
0.000172707
0.000184225
0.000196419
0.000209889
0.000223914
0.00023883
0.000252267
0.000263413
0.000276112
0.000286788
0.000300833
0.000310848
0.000325772
0.000335516
0.000350018
0.000361035
0.000373318
0.000387224
0.000396342
0.000412987
0.00041985
0.000436623
0.000444116
0.0004578
0.000469037
0.000477815
0.00049317
0.000497616
0.000514857
0.000517464
0.000533334
0.00053845
0.000549435
0.000561993
0.000565156
0.000586464
0.000581967
0.000606469
0.000600713
0.000617885
0.000619151
0.000620778
0.000633848
0.00061994
0.000641013
0.000621327
0.000639048
0.000627404
0.000631215
0.00063466
0.000623996
0.000638777
0.000621266
0.000638066
0.000623783
0.00063308
0.000629787
0.000626392
0.000635954
0.000621696
0.000638399
0.000621928
0.000635154
0.000627493
0.000627517
0.000635082
0.000619963
0.000158114
0.000154621
0.000151613
0.000149102
0.000146669
0.000144523
0.000142366
0.00014037
0.00013836
0.000136482
0.000134756
0.00013283
0.000131009
0.000129043
0.000127409
0.000125787
0.0001241
0.000122531
0.000121925
0.000122153
0.000123948
0.000127095
0.000132229
0.000138944
0.000147619
0.000157911
0.000169831
0.000183115
0.00019772
0.000213312
0.000228936
0.000242183
0.000255575
0.00026895
0.000282403
0.000295666
0.000309061
0.000322201
0.000335366
0.000348397
0.000361073
0.000374057
0.000385743
0.000398636
0.000408895
0.000421582
0.000430597
0.000442755
0.000451425
0.000462052
0.000471856
0.000479642
0.000491118
0.00049648
0.000508569
0.000513258
0.000524065
0.000530599
0.000537843
0.00054732
0.000550721
0.000562316
0.000563123
0.000575261
0.00057652
0.000586111
0.000591887
0.00059552
0.000607968
0.000604449
0.000621271
0.000614117
0.000628621
0.000624515
0.000629614
0.000633986
0.000627279
0.000640087
0.000625647
0.00064078
0.000627892
0.000636281
0.000632961
0.00063083
0.000637626
0.000626852
0.00063969
0.000626227
0.000637729
0.000629275
0.000633228
0.000634533
0.000628425
0.000639087
0.000625316
0.000639731
0.000626767
0.000635031
0.000632565
0.000627869
0.000157849
0.000153942
0.0001501
0.00014671
0.000142571
0.000139329
0.000135254
0.000131831
0.000128203
0.000126012
0.000123572
0.000120697
0.00011865
0.000117785
0.000118585
0.00012103
0.000125567
0.000131889
0.000140408
0.000150791
0.000163415
0.000177688
0.000193335
0.000209788
0.000227091
0.000242477
0.000257118
0.000271493
0.000285532
0.000299174
0.000312288
0.000324997
0.000337201
0.000348888
0.000360112
0.000370833
0.00038118
0.000391007
0.000400431
0.000409331
0.000417783
0.000426158
0.000432824
0.000439517
0.000444599
0.000451023
0.000455214
0.000461265
0.000465167
0.000470325
0.000474737
0.000478397
0.000483752
0.000485892
0.000491851
0.000493405
0.000498841
0.000501271
0.000504915
0.00050903
0.000510412
0.000516074
0.000515773
0.000522089
0.000521731
0.000527043
0.000528866
0.000530996
0.000536662
0.000534531
0.000543294
0.000538489
0.000546953
0.00054319
0.000547259
0.00054807
0.00054554
0.000551786
0.000544005
0.000552877
0.000544517
0.000551027
0.000547062
0.000547697
0.000550057
0.000544867
0.000551919
0.000543768
0.00055183
0.000544874
0.000549598
0.000547892
0.000546136
0.000551263
0.000543357
0.000552936
0.000543126
0.000551361
0.00054633
0.000546526
0.000156641
0.000151208
0.000143351
0.000134629
0.000126079
0.000120989
0.000115009
0.000112505
0.000112457
0.000114188
0.000117961
0.000123464
0.000130604
0.000139124
0.000149054
0.00016016
0.000172603
0.000186206
0.000201284
0.000217285
0.000233494
0.000246947
0.000259668
0.000271867
0.000283091
0.000294116
0.000302628
0.000310055
0.000316738
0.00032288
0.000328612
0.000333953
0.000338914
0.000343503
0.000347788
0.000351745
0.00035549
0.000358953
0.000362266
0.00036537
0.000368296
0.000371182
0.00037372
0.000376497
0.000378557
0.000381258
0.000382875
0.000385483
0.000386896
0.000389179
0.000390793
0.0003924
0.000394519
0.000395338
0.000397944
0.00039828
0.000400901
0.000401485
0.000403346
0.000404766
0.000405422
0.000407833
0.000407404
0.000410519
0.000409736
0.000412726
0.00041273
0.000414321
0.000416216
0.000415465
0.000419385
0.000416623
0.000421248
0.000418219
0.000421383
0.000420271
0.000420266
0.000422244
0.000418929
0.000423345
0.000418489
0.000422986
0.000419357
0.000421475
0.000420978
0.000419708
0.000422478
0.000418499
0.000423161
0.000418388
0.000422577
0.000419613
0.000420816
0.000421661
0.000418766
0.000423388
0.000417627
0.000423611
0.000418313
0.000421482
0.000151621
0.000136817
0.000113477
9.95209e-05
9.7602e-05
9.81295e-05
0.000110573
0.000115046
0.000121818
0.000129686
0.000137977
0.000146236
0.000154211
0.000161681
0.000168583
0.000174824
0.000180491
0.000185568
0.000190197
0.000194424
0.000198337
0.000202068
0.000205555
0.00020885
0.000211871
0.00021468
0.000217311
0.000219724
0.000221893
0.000223822
0.000225516
0.000227019
0.000228356
0.000229552
0.000230633
0.000231599
0.000232494
0.00023329
0.000234051
0.000234734
0.000235392
0.000236013
0.000236574
0.000237218
0.000237669
0.000238346
0.000238663
0.000239364
0.000239589
0.000240246
0.000240497
0.00024097
0.000241413
0.000241586
0.000242299
0.000242218
0.000243091
0.000242978
0.000243705
0.000243855
0.000244143
0.00024474
0.000244542
0.000245587
0.000245086
0.000246319
0.00024589
0.00024679
0.000246944
0.000246959
0.000248002
0.000246981
0.00024869
0.000247109
0.000248779
0.000247568
0.000248324
0.000248263
0.000247592
0.000248889
0.00024708
0.000249092
0.000247092
0.000248748
0.000247626
0.000248054
0.000248361
0.000247341
0.000248961
0.000246933
0.000249126
0.000247077
0.000248667
0.000247797
0.000247769
0.000248751
0.000246884
0.000249392
0.000246517
0.000249111
2.45432e-05
3.47523e-05
4.04101e-05
4.23028e-05
4.20136e-05
4.05608e-05
3.87137e-05
3.70559e-05
3.56101e-05
3.4445e-05
3.35764e-05
3.29762e-05
3.25986e-05
3.2385e-05
3.22871e-05
3.22583e-05
3.22698e-05
3.2298e-05
3.23311e-05
3.23649e-05
3.23935e-05
3.24263e-05
3.24614e-05
3.24994e-05
3.2539e-05
3.25762e-05
3.26142e-05
3.26515e-05
3.26861e-05
3.27168e-05
3.27414e-05
3.27608e-05
3.2775e-05
3.27851e-05
3.2792e-05
3.27956e-05
3.2798e-05
3.27975e-05
3.27975e-05
3.27952e-05
3.27943e-05
3.27926e-05
3.27905e-05
3.2792e-05
3.2788e-05
3.27942e-05
3.2787e-05
3.27979e-05
3.27881e-05
3.2801e-05
3.27926e-05
3.28013e-05
3.28017e-05
3.28005e-05
3.28159e-05
3.28027e-05
3.28306e-05
3.28127e-05
3.28402e-05
3.28317e-05
3.2845e-05
3.28576e-05
3.28504e-05
3.2888e-05
3.28634e-05
3.29169e-05
3.28867e-05
3.29336e-05
3.29191e-05
3.29306e-05
3.29537e-05
3.29147e-05
3.29769e-05
3.29005e-05
3.29771e-05
3.29031e-05
3.29554e-05
3.29242e-05
3.29197e-05
3.29534e-05
3.28875e-05
3.29721e-05
3.28766e-05
3.29675e-05
3.28921e-05
3.2942e-05
3.29248e-05
3.2908e-05
3.2959e-05
3.28801e-05
3.2979e-05
3.2874e-05
3.29715e-05
3.2897e-05
3.29372e-05
3.29403e-05
3.28931e-05
3.29842e-05
3.28625e-05
3.30014e-05
2.50198e-05
0.000594991
0.00110682
0.00151187
0.00192097
0.00223249
0.00243134
0.00242912
0.0023324
0.00221541
0.00212833
0.00213046
0.0021652
0.00215616
0.00208401
0.00199545
0.00183025
0.00134676
0.000807052
0.000427973
0.000324483
0.000194433
0.000208
0.000444456
1.82071e-05
0.0003156
0.0007809
0.00114362
0.00136599
0.00147752
0.00152251
0.00151244
0.00142572
0.00124351
0.00104236
0.000849104
0.000690813
0.000595713
0.00049383
0.000415827
0.000355646
0.000308412
0.000271448
0.00024297
0.000221146
0.00020415
0.00019048
0.000179081
0.000169363
0.000161063
0.000154095
0.000148409
0.000143888
0.000140301
0.000137309
0.000134609
0.000132031
0.000129609
0.000127444
0.000125661
0.000124298
0.000123358
0.00012275
0.000122392
0.000122176
0.000122065
0.000121994
0.000121966
0.000121941
0.000121938
0.000121925
0.000121931
0.000121921
0.000121929
0.000121919
0.000121929
0.000121918
0.000121929
0.000121918
0.000121929
0.000121917
0.00012193
0.000121917
0.00012193
0.000121916
0.000121931
0.000121916
0.000121931
0.000121915
0.000121932
0.000121915
0.000121932
0.000121914
0.000121932
0.000121914
0.000121933
0.000121914
0.000121935
0.000121919
0.000121949
0.000228717
0.000370876
0.000785662
0.00118613
0.00158388
0.00189775
0.00211412
0.00212569
0.00209057
0.00202312
0.00192787
0.0019987
0.00204098
0.00200813
0.00194229
0.0018474
0.00149326
0.000950074
0.000462361
0.000257457
0.000243951
0.000224048
0.000172828
0.000368369
6.44895e-05
0.000129469
0.000599499
0.000994604
0.00125049
0.00138423
0.0014405
0.0014329
0.00134327
0.00118149
0.00099019
0.000806625
0.000650108
0.000525669
0.000431048
0.000361589
0.000310436
0.000272043
0.000243037
0.000221187
0.000204687
0.000191954
0.000181657
0.000172862
0.000165058
0.000158071
0.000151929
0.000146712
0.000142437
0.000138991
0.000136135
0.000133619
0.000131266
0.000129079
0.000127131
0.000125525
0.000124277
0.000123398
0.000122818
0.000122472
0.00012226
0.000122149
0.000122077
0.000122048
0.000122021
0.000122018
0.000122004
0.00012201
0.000121999
0.000122008
0.000121997
0.000122007
0.000121997
0.000122008
0.000121996
0.000122008
0.000121996
0.000122009
0.000121995
0.000122009
0.000121994
0.00012201
0.000121994
0.00012201
0.000121993
0.000122011
0.000121993
0.000122011
0.000121993
0.000122012
0.000121992
0.000122013
0.000121993
0.000122017
0.000122
0.000122036
0.000448574
0.000371244
0.000496079
0.000788541
0.0011568
0.00146594
0.00170567
0.00172216
0.00169357
0.0016428
0.00152853
0.00160455
0.00165385
0.00160912
0.00161867
0.00143581
0.00100201
0.000535114
0.000191841
0.000157587
0.000257474
0.000232073
0.000225445
0.00033994
0.000265756
4.12335e-05
0.000409503
0.00082198
0.001109
0.00126591
0.0013347
0.00132987
0.0012368
0.00107243
0.000883945
0.000708624
0.000562913
0.000450509
0.000368741
0.000311531
0.000271315
0.000242291
0.000220829
0.00020476
0.000192612
0.000183147
0.000175327
0.000168397
0.000161945
0.000155872
0.000150286
0.000145367
0.000141226
0.000137848
0.000135074
0.000132703
0.000130557
0.000128597
0.000126855
0.000125412
0.000124274
0.000123455
0.0001229
0.000122561
0.000122348
0.000122235
0.000122158
0.000122127
0.000122097
0.000122093
0.000122078
0.000122084
0.000122072
0.000122082
0.00012207
0.000122081
0.000122069
0.000122082
0.000122069
0.000122082
0.000122068
0.000122083
0.000122067
0.000122083
0.000122067
0.000122084
0.000122066
0.000122084
0.000122066
0.000122085
0.000122065
0.000122086
0.000122065
0.000122087
0.000122065
0.000122089
0.000122067
0.000122095
0.000122077
0.000122121
0.000534476
0.000526884
0.000504592
0.000531341
0.000730593
0.000964532
0.00121461
0.00123292
0.00121092
0.00118526
0.00104673
0.0011273
0.0011749
0.00112433
0.00116692
0.000907718
0.000468477
0.000199954
8.04707e-05
0.000197827
0.000308676
0.000249957
0.000324807
0.000411515
0.000369065
5.21762e-05
0.00022808
0.000631053
0.00093983
0.00111857
0.00120023
0.0011978
0.00110081
0.000936035
0.000755692
0.000595544
0.000469181
0.000376825
0.000313103
0.000270363
0.000241267
0.000220595
0.000205235
0.000193512
0.000184417
0.000177141
0.000170952
0.000165261
0.000159722
0.000154266
0.000149045
0.000144297
0.00014021
0.000136845
0.000134113
0.000131855
0.000129894
0.000128152
0.000126606
0.000125311
0.000124276
0.000123522
0.000122994
0.000122662
0.000122445
0.000122325
0.000122242
0.000122207
0.000122173
0.000122169
0.000122151
0.000122157
0.000122144
0.000122154
0.000122142
0.000122154
0.00012214
0.000122154
0.00012214
0.000122154
0.000122139
0.000122155
0.000122138
0.000122156
0.000122138
0.000122156
0.000122137
0.000122157
0.000122136
0.000122158
0.000122136
0.000122159
0.000122136
0.000122161
0.000122136
0.000122164
0.00012214
0.000122173
0.000122154
0.000122207
0.000603886
0.000608118
0.000587992
0.000576088
0.00057948
0.000597266
0.000764331
0.00074213
0.000710509
0.0007131
0.00053922
0.000608406
0.000640368
0.000585622
0.000627955
0.000280867
0.000138435
0.000174299
0.000236684
0.000225592
0.000335906
0.000313044
0.000443379
0.000587599
0.000521667
0.000254354
8.31194e-05
0.000422119
0.00074208
0.000939039
0.00103291
0.00103146
0.000931151
0.000771979
0.000609981
0.000476904
0.000379679
0.0003133
0.000269511
0.000240534
0.000220719
0.000206322
0.00019518
0.000186253
0.00017902
0.000173058
0.000167879
0.000162999
0.000158089
0.000153072
0.000148101
0.000143449
0.00013936
0.000135965
0.000133234
0.000131051
0.000129241
0.000127693
0.000126331