/*--------------------------------*- C++ -*----------------------------------*\
| =========                 |                                                 |
| \\      /  F ield         | OpenFOAM: The Open Source CFD Toolbox           |
|  \\    /   O peration     | Version:  v2012                                 |
|   \\  /    A nd           | Website:  www.openfoam.com                      |
|    \\/     M anipulation  |                                                 |
\*---------------------------------------------------------------------------*/
FoamFile
{
    version     2.0;
    format      ascii;
    class       volVectorField;
    location    "0.131";
    object      U.air;
}
// * * * * * * * * * * * * * * * * * * * * * * * * * * * * * * * * * * * * * //

dimensions      [0 1 -1 0 0 0 0];


internalField   nonuniform List<vector> 
1900
(
(39.9676 0.00859687 0)
(39.9239 0.0151031 0)
(39.8679 0.0180588 0)
(39.8035 0.0207993 0)
(39.73 0.0237062 0)
(39.6526 0.0267683 0)
(39.5681 0.0297565 0)
(39.4712 0.034433 0)
(39.3801 0.0347839 0)
(39.2118 0.0735029 0)
(40.0053 0.0147927 0)
(40.0212 0.0233975 0)
(40.0401 0.0257182 0)
(40.0561 0.0277458 0)
(40.0726 0.0304775 0)
(40.0898 0.0329399 0)
(40.1095 0.0364838 0)
(40.1257 0.0385578 0)
(40.1466 0.0533818 0)
(40.1568 0.0585716 0)
(40.0029 0.00824746 0)
(40.0161 0.0135856 0)
(40.0335 0.0137912 0)
(40.051 0.0145443 0)
(40.0688 0.0163129 0)
(40.0879 0.0182043 0)
(40.1087 0.0208556 0)
(40.1299 0.024805 0)
(40.1543 0.0350813 0)
(40.1844 0.0529454 0)
(40.0018 0.00414496 0)
(40.0132 0.00782145 0)
(40.0301 0.00860527 0)
(40.0479 0.00970547 0)
(40.066 0.0114323 0)
(40.0852 0.0132518 0)
(40.1064 0.0158683 0)
(40.1291 0.0197454 0)
(40.1561 0.0288802 0)
(40.1894 0.0416247 0)
(40.0015 0.00111201 0)
(40.012 0.00211927 0)
(40.0285 0.00232727 0)
(40.0464 0.00266241 0)
(40.0645 0.0032531 0)
(40.084 0.00405072 0)
(40.1056 0.00562476 0)
(40.1294 0.00842125 0)
(40.1575 0.0146682 0)
(40.1918 0.0210544 0)
(40.0016 -0.00180292 0)
(40.0122 -0.00371605 0)
(40.0288 -0.00416326 0)
(40.0468 -0.00431399 0)
(40.065 -0.00436079 0)
(40.0846 -0.00401592 0)
(40.1066 -0.00289513 0)
(40.1311 -0.000789738 0)
(40.1597 0.00317611 0)
(40.1936 0.00640823 0)
(40.0019 -0.00486279 0)
(40.0136 -0.00947527 0)
(40.0308 -0.0105123 0)
(40.0489 -0.0114613 0)
(40.0672 -0.0126727 0)
(40.0871 -0.0134371 0)
(40.1094 -0.0134428 0)
(40.1344 -0.0127054 0)
(40.163 -0.0110203 0)
(40.1957 -0.0104531 0)
(40.0032 -0.00926928 0)
(40.0168 -0.0153327 0)
(40.0348 -0.0157394 0)
(40.0527 -0.016477 0)
(40.0709 -0.01804 0)
(40.0911 -0.0194037 0)
(40.1136 -0.0202816 0)
(40.1388 -0.020797 0)
(40.1672 -0.0210301 0)
(40.1987 -0.0225688 0)
(40.0057 -0.0162088 0)
(40.0223 -0.0253699 0)
(40.042 -0.0274341 0)
(40.0582 -0.0288787 0)
(40.0751 -0.0308084 0)
(40.0938 -0.0324197 0)
(40.1145 -0.0335734 0)
(40.1374 -0.0344434 0)
(40.1628 -0.0352272 0)
(40.1893 -0.0366674 0)
(39.9675 -0.0101412 0)
(39.9214 -0.0185951 0)
(39.8645 -0.0229106 0)
(39.797 -0.0265887 0)
(39.7223 -0.0303253 0)
(39.6428 -0.0339089 0)
(39.5582 -0.0373399 0)
(39.4686 -0.0407417 0)
(39.3739 -0.044104 0)
(39.2741 -0.0480425 0)
(39.1724 -0.0392828 0)
(38.0177 -0.354716 0)
(36.4706 -0.795028 0)
(34.9649 -1.35455 0)
(33.857 -1.88883 0)
(33.1085 -2.33218 0)
(32.5392 -2.60362 0)
(32.0827 -2.66923 0)
(31.6447 -2.56955 0)
(31.2127 -2.3491 0)
(30.787 -2.07011 0)
(30.3642 -1.77967 0)
(29.9532 -1.50884 0)
(29.5484 -1.27167 0)
(29.1565 -1.07571 0)
(28.7781 -0.916963 0)
(28.4122 -0.788752 0)
(28.0642 -0.687314 0)
(27.7404 -0.608669 0)
(27.4423 -0.546689 0)
(27.169 -0.495797 0)
(26.9186 -0.452715 0)
(26.6948 -0.416836 0)
(26.4945 -0.386706 0)
(26.3183 -0.36045 0)
(26.1601 -0.336112 0)
(26.0251 -0.314327 0)
(25.9099 -0.295555 0)
(25.8114 -0.279201 0)
(25.7267 -0.26435 0)
(25.654 -0.250713 0)
(25.5905 -0.238222 0)
(25.5362 -0.227032 0)
(25.4878 -0.216746 0)
(25.445 -0.207295 0)
(25.4078 -0.198496 0)
(25.3758 -0.190207 0)
(25.3482 -0.18247 0)
(25.3252 -0.175434 0)
(25.306 -0.168975 0)
(25.2906 -0.163028 0)
(25.2787 -0.157519 0)
(25.2698 -0.152294 0)
(25.2631 -0.147248 0)
(25.2584 -0.142519 0)
(25.2556 -0.138138 0)
(25.2546 -0.134032 0)
(25.2551 -0.130028 0)
(25.2571 -0.126174 0)
(25.2605 -0.122567 0)
(25.2652 -0.11923 0)
(25.2711 -0.116087 0)
(25.2783 -0.113073 0)
(25.2865 -0.110179 0)
(25.2957 -0.107409 0)
(25.3058 -0.104764 0)
(25.3167 -0.102275 0)
(25.3283 -0.0999333 0)
(25.3407 -0.0976999 0)
(25.3536 -0.0955308 0)
(25.367 -0.093428 0)
(25.3809 -0.0914083 0)
(25.3952 -0.0895114 0)
(25.4099 -0.0877142 0)
(25.425 -0.0859995 0)
(25.4405 -0.0843356 0)
(25.4562 -0.0827308 0)
(25.4721 -0.081182 0)
(25.4882 -0.0797043 0)
(25.5045 -0.0782807 0)
(25.5209 -0.0769142 0)
(25.5375 -0.0755857 0)
(25.5541 -0.0743005 0)
(25.5708 -0.0730498 0)
(25.5875 -0.0718426 0)
(25.6042 -0.0706634 0)
(25.6208 -0.0695198 0)
(25.6375 -0.0683911 0)
(25.6539 -0.0672964 0)
(25.6704 -0.066212 0)
(25.6866 -0.06516 0)
(25.7028 -0.0641111 0)
(25.7186 -0.0630915 0)
(25.7345 -0.0620696 0)
(25.75 -0.0610757 0)
(25.7655 -0.0600795 0)
(25.7805 -0.0591124 0)
(25.7956 -0.0581465 0)
(25.8103 -0.0572153 0)
(25.8249 -0.0562915 0)
(25.8391 -0.0554155 0)
(25.8533 -0.0545549 0)
(25.867 -0.053784 0)
(25.8809 -0.0530291 0)
(25.8941 -0.0525308 0)
(25.9078 -0.0519787 0)
(25.9204 -0.0522644 0)
(25.9349 -0.0520663 0)
(25.9452 -0.0543086 0)
(25.9652 -0.0544225 0)
(40.259 0.20537 0)
(40.4989 0.295871 0)
(40.6487 -0.0460572 0)
(40.4722 -0.668255 0)
(39.9271 -1.3308 0)
(39.098 -1.89411 0)
(38.1063 -2.2537 0)
(37.0578 -2.38383 0)
(36.0575 -2.32266 0)
(35.1518 -2.13245 0)
(34.3665 -1.87956 0)
(33.6994 -1.61314 0)
(33.1367 -1.36115 0)
(32.6561 -1.13931 0)
(32.2411 -0.955018 0)
(31.8706 -0.804372 0)
(31.5243 -0.681181 0)
(31.1903 -0.582928 0)
(30.865 -0.507099 0)
(30.546 -0.447799 0)
(30.2287 -0.398956 0)
(29.9186 -0.359284 0)
(29.6227 -0.329237 0)
(29.3422 -0.30635 0)
(29.0777 -0.287068 0)
(28.8291 -0.270128 0)
(28.5979 -0.256327 0)
(28.3871 -0.245453 0)
(28.1949 -0.236079 0)
(28.021 -0.2272 0)
(27.8622 -0.218619 0)
(27.7177 -0.2105 0)
(27.5862 -0.202827 0)
(27.4678 -0.195457 0)
(27.3608 -0.188379 0)
(27.264 -0.18162 0)
(27.1763 -0.175143 0)
(27.0971 -0.169034 0)
(27.0259 -0.163439 0)
(26.9616 -0.158294 0)
(26.9039 -0.153503 0)
(26.8512 -0.148961 0)
(26.803 -0.144608 0)
(26.7589 -0.140434 0)
(26.7188 -0.136521 0)
(26.6825 -0.132897 0)
(26.6496 -0.129475 0)
(26.6201 -0.126163 0)
(26.5935 -0.122962 0)
(26.5698 -0.119963 0)
(26.5488 -0.117205 0)
(26.5302 -0.114599 0)
(26.5138 -0.112094 0)
(26.4997 -0.109661 0)
(26.4874 -0.107297 0)
(26.477 -0.105013 0)
(26.4681 -0.102831 0)
(26.4606 -0.100749 0)
(26.4543 -0.0987618 0)
(26.4492 -0.0968219 0)
(26.4452 -0.0949379 0)
(26.4423 -0.0931145 0)
(26.4404 -0.091424 0)
(26.4394 -0.0898266 0)
(26.4393 -0.0883075 0)
(26.4398 -0.0867756 0)
(26.441 -0.0852921 0)
(26.4428 -0.0838568 0)
(26.4451 -0.082483 0)
(26.448 -0.0811524 0)
(26.4512 -0.0798668 0)
(26.4549 -0.078606 0)
(26.4588 -0.0773744 0)
(26.463 -0.0761662 0)
(26.4674 -0.0749908 0)
(26.4719 -0.0738345 0)
(26.4766 -0.0727021 0)
(26.4814 -0.0715779 0)
(26.4863 -0.0704758 0)
(26.4911 -0.0693814 0)
(26.496 -0.0683087 0)
(26.5009 -0.0672357 0)
(26.5057 -0.0661856 0)
(26.5106 -0.0651301 0)
(26.5153 -0.0641005 0)
(26.52 -0.0630643 0)
(26.5246 -0.0620573 0)
(26.5292 -0.0610463 0)
(26.5336 -0.0600723 0)
(26.538 -0.059101 0)
(26.5423 -0.0581814 0)
(26.5465 -0.0572731 0)
(26.5506 -0.0564605 0)
(26.5547 -0.0556612 0)
(26.5586 -0.0551278 0)
(26.5626 -0.0545459 0)
(26.5663 -0.0548236 0)
(26.5703 -0.0545624 0)
(26.5736 -0.0569862 0)
(26.5795 -0.056795 0)
(40.2699 0.127743 0)
(40.4561 0.017744 0)
(40.6021 -0.368697 0)
(40.4975 -0.908894 0)
(40.0434 -1.44082 0)
(39.2826 -1.86015 0)
(38.3232 -2.09979 0)
(37.2922 -2.1556 0)
(36.2757 -2.06685 0)
(35.3636 -1.88479 0)
(34.5838 -1.65883 0)
(33.9371 -1.42441 0)
(33.4083 -1.20238 0)
(32.9828 -1.00702 0)
(32.6457 -0.844457 0)
(32.3735 -0.709072 0)
(32.146 -0.595477 0)
(31.9547 -0.504163 0)
(31.7941 -0.433516 0)
(31.6525 -0.376559 0)
(31.5172 -0.328433 0)
(31.3843 -0.289791 0)
(31.2499 -0.26026 0)
(31.1121 -0.237705 0)
(30.9684 -0.219153 0)
(30.8158 -0.203073 0)
(30.6533 -0.190146 0)
(30.4827 -0.180635 0)
(30.3068 -0.173364 0)
(30.1286 -0.166981 0)
(29.9495 -0.161106 0)
(29.7722 -0.156096 0)
(29.5986 -0.152141 0)
(29.4341 -0.148875 0)
(29.2792 -0.145943 0)
(29.1336 -0.143164 0)
(28.9976 -0.140527 0)
(28.8711 -0.138127 0)
(28.754 -0.135945 0)
(28.6457 -0.133818 0)
(28.5454 -0.13169 0)
(28.4521 -0.129451 0)
(28.3651 -0.126956 0)
(28.2843 -0.124301 0)
(28.2094 -0.121719 0)
(28.14 -0.119296 0)
(28.0758 -0.116964 0)
(28.0161 -0.114637 0)
(27.961 -0.112322 0)
(27.9099 -0.110081 0)
(27.8622 -0.107986 0)
(27.8178 -0.106029 0)
(27.7765 -0.104195 0)
(27.7382 -0.102441 0)
(27.7028 -0.100731 0)
(27.6699 -0.0990709 0)
(27.6396 -0.0974993 0)
(27.6116 -0.0959887 0)
(27.5858 -0.0945097 0)
(27.5619 -0.0930348 0)
(27.5399 -0.0915808 0)
(27.5197 -0.0901598 0)
(27.5011 -0.0887794 0)
(27.4835 -0.0874187 0)
(27.4671 -0.0861117 0)
(27.4516 -0.0848275 0)
(27.4373 -0.0835873 0)
(27.4236 -0.0823595 0)
(27.4109 -0.0811798 0)
(27.3987 -0.0800108 0)
(27.3873 -0.0788781 0)
(27.3762 -0.077738 0)
(27.3658 -0.0766195 0)
(27.3556 -0.0754971 0)
(27.3458 -0.0744044 0)
(27.3362 -0.0733059 0)
(27.327 -0.0722308 0)
(27.3179 -0.071141 0)
(27.3091 -0.0700752 0)
(27.3002 -0.0689986 0)
(27.2917 -0.0679492 0)
(27.2832 -0.0668863 0)
(27.2749 -0.0658458 0)
(27.2666 -0.0647944 0)
(27.2585 -0.0637679 0)
(27.2504 -0.0627337 0)
(27.2425 -0.0617251 0)
(27.2346 -0.0607144 0)
(27.2269 -0.0597367 0)
(27.2192 -0.0587654 0)
(27.2117 -0.0578408 0)
(27.2041 -0.0569329 0)
(27.1968 -0.0561143 0)
(27.1894 -0.0553152 0)
(27.1823 -0.0547756 0)
(27.1749 -0.0541986 0)
(27.1683 -0.0544639 0)
(27.1605 -0.0542659 0)
(27.1552 -0.0566434 0)
(27.1446 -0.0564514 0)
(40.2634 0.0673392 0)
(40.4034 0.00417 0)
(40.4966 -0.262168 0)
(40.3657 -0.678567 0)
(39.9156 -1.112 0)
(39.179 -1.46757 0)
(38.2536 -1.69379 0)
(37.2574 -1.77807 0)
(36.2689 -1.73944 0)
(35.3797 -1.61336 0)
(34.6139 -1.44004 0)
(33.9689 -1.24957 0)
(33.4361 -1.064 0)
(33.009 -0.899634 0)
(32.6704 -0.761179 0)
(32.393 -0.642818 0)
(32.162 -0.54253 0)
(31.9774 -0.463302 0)
(31.8336 -0.402414 0)
(31.7132 -0.351296 0)
(31.6053 -0.306321 0)
(31.5129 -0.27009 0)
(31.4409 -0.243351 0)
(31.3818 -0.22163 0)
(31.3246 -0.200877 0)
(31.268 -0.181597 0)
(31.2169 -0.165891 0)
(31.1695 -0.153459 0)
(31.122 -0.143145 0)
(31.0715 -0.133958 0)
(31.0151 -0.125311 0)
(30.9516 -0.117671 0)
(30.8814 -0.111922 0)
(30.805 -0.108035 0)
(30.7223 -0.105077 0)
(30.6327 -0.102437 0)
(30.5363 -0.100055 0)
(30.4338 -0.0982006 0)
(30.3272 -0.0969677 0)
(30.2183 -0.0961411 0)
(30.1089 -0.0954646 0)
(30.0003 -0.0947675 0)
(29.8935 -0.0940937 0)
(29.79 -0.0935578 0)
(29.6907 -0.0931953 0)
(29.5961 -0.0929338 0)
(29.506 -0.0926593 0)
(29.4204 -0.0923145 0)
(29.3393 -0.0919575 0)
(29.2627 -0.0915992 0)
(29.1906 -0.0911442 0)
(29.1224 -0.0905516 0)
(29.0578 -0.0898645 0)
(28.9962 -0.089122 0)
(28.9378 -0.0883366 0)
(28.8822 -0.0874865 0)
(28.8297 -0.0866094 0)
(28.7799 -0.0857339 0)
(28.733 -0.0848553 0)
(28.6883 -0.0839423 0)
(28.6462 -0.0830043 0)
(28.6059 -0.0820895 0)
(28.5678 -0.0812049 0)
(28.5311 -0.0802894 0)
(28.4963 -0.0793509 0)
(28.4626 -0.078376 0)
(28.4304 -0.0773937 0)
(28.3989 -0.0763962 0)
(28.3686 -0.0754163 0)
(28.3388 -0.0744214 0)
(28.31 -0.0734391 0)
(28.2814 -0.0724319 0)
(28.2537 -0.0714282 0)
(28.2261 -0.0704112 0)
(28.1994 -0.0694098 0)
(28.1726 -0.0683975 0)
(28.1466 -0.0673992 0)
(28.1206 -0.0663859 0)
(28.0953 -0.0653883 0)
(28.07 -0.0643803 0)
(28.0454 -0.0633975 0)
(28.0208 -0.0624038 0)
(27.9969 -0.0614286 0)
(27.973 -0.0604401 0)
(27.9498 -0.0594748 0)
(27.9266 -0.0584985 0)
(27.904 -0.057548 0)
(27.8815 -0.0565929 0)
(27.8596 -0.0556733 0)
(27.8377 -0.0547575 0)
(27.8166 -0.0538901 0)
(27.7954 -0.0530386 0)
(27.775 -0.052273 0)
(27.7544 -0.0515303 0)
(27.7348 -0.0510323 0)
(27.7145 -0.0505141 0)
(27.6962 -0.0507811 0)
(27.6747 -0.0506781 0)
(27.6601 -0.0528902 0)
(27.6311 -0.053116 0)
(40.2555 0.031429 0)
(40.3567 -0.0318832 0)
(40.4022 -0.258916 0)
(40.2468 -0.617318 0)
(39.8045 -0.995508 0)
(39.098 -1.30662 0)
(38.2121 -1.5047 0)
(37.2571 -1.57702 0)
(36.2989 -1.53997 0)
(35.4304 -1.4278 0)
(34.6732 -1.27491 0)
(34.0261 -1.10643 0)
(33.4903 -0.943986 0)
(33.0632 -0.802303 0)
(32.7186 -0.68087 0)
(32.4289 -0.574682 0)
(32.1926 -0.486844 0)
(32.0114 -0.419705 0)
(31.8657 -0.366102 0)
(31.7345 -0.318385 0)
(31.6199 -0.277442 0)
(31.5321 -0.247272 0)
(31.4651 -0.225036 0)
(31.4028 -0.2046 0)
(31.3419 -0.184785 0)
(31.2899 -0.168317 0)
(31.2508 -0.156221 0)
(31.2202 -0.146655 0)
(31.1913 -0.137717 0)
(31.161 -0.12858 0)
(31.133 -0.119951 0)
(31.1113 -0.112783 0)
(31.0945 -0.107097 0)
(31.0788 -0.102217 0)
(31.0616 -0.0973831 0)
(31.0421 -0.0922656 0)
(31.0219 -0.0873556 0)
(31.0012 -0.083118 0)
(30.9792 -0.0797644 0)
(30.9547 -0.0770431 0)
(30.9264 -0.0745374 0)
(30.893 -0.072148 0)
(30.8543 -0.070141 0)
(30.8106 -0.0687568 0)
(30.7626 -0.0679468 0)
(30.7106 -0.0674319 0)
(30.6544 -0.0669582 0)
(30.594 -0.0665052 0)
(30.5297 -0.0661946 0)
(30.4626 -0.0660779 0)
(30.3938 -0.0661097 0)
(30.3243 -0.0662239 0)
(30.2547 -0.0663335 0)
(30.185 -0.0664127 0)
(30.1155 -0.0665003 0)
(30.0465 -0.0666265 0)
(29.9788 -0.0668215 0)
(29.9121 -0.0670157 0)
(29.8468 -0.0671537 0)
(29.7825 -0.0672099 0)
(29.7199 -0.0671761 0)
(29.6583 -0.0670549 0)
(29.5982 -0.0668363 0)
(29.5394 -0.0665323 0)
(29.4823 -0.0661552 0)
(29.426 -0.0656946 0)
(29.3712 -0.0651603 0)
(29.317 -0.0645549 0)
(29.2643 -0.0639125 0)
(29.2119 -0.0632102 0)
(29.161 -0.0624802 0)
(29.1103 -0.0616924 0)
(29.0609 -0.0608819 0)
(29.0118 -0.0600401 0)
(28.964 -0.0591986 0)
(28.9162 -0.0583331 0)
(28.8699 -0.0574742 0)
(28.8236 -0.056594 0)
(28.7787 -0.0557275 0)
(28.7339 -0.0548513 0)
(28.6904 -0.0539752 0)
(28.647 -0.053084 0)
(28.6049 -0.0522199 0)
(28.5629 -0.0513548 0)
(28.5223 -0.0505173 0)
(28.4818 -0.0496743 0)
(28.4426 -0.048857 0)
(28.4035 -0.048039 0)
(28.3658 -0.0472574 0)
(28.3282 -0.0464816 0)
(28.292 -0.0457534 0)
(28.2558 -0.0450435 0)
(28.2211 -0.0444115 0)
(28.1862 -0.0438102 0)
(28.1531 -0.0434198 0)
(28.119 -0.0430472 0)
(28.0883 -0.0433149 0)
(28.0523 -0.0434256 0)
(28.0279 -0.0452814 0)
(27.9796 -0.0464655 0)
(40.2478 0.00636942 0)
(40.3189 -0.0529352 0)
(40.3277 -0.234956 0)
(40.154 -0.518802 0)
(39.7188 -0.818112 0)
(39.0361 -1.06197 0)
(38.1811 -1.21602 0)
(37.2554 -1.27221 0)
(36.3224 -1.24492 0)
(35.4715 -1.1609 0)
(34.7192 -1.04313 0)
(34.0712 -0.91169 0)
(33.5385 -0.785539 0)
(33.1088 -0.673802 0)
(32.751 -0.574479 0)
(32.451 -0.487026 0)
(32.2158 -0.417461 0)
(32.0344 -0.364743 0)
(31.8756 -0.319083 0)
(31.7317 -0.277384 0)
(31.6197 -0.245464 0)
(31.5381 -0.223528 0)
(31.465 -0.204589 0)
(31.3908 -0.185125 0)
(31.3263 -0.168116 0)
(31.2787 -0.155943 0)
(31.2418 -0.146947 0)
(31.2068 -0.138146 0)
(31.1697 -0.128462 0)
(31.1359 -0.119751 0)
(31.1103 -0.113064 0)
(31.091 -0.10777 0)
(31.0735 -0.102907 0)
(31.0547 -0.0979232 0)
(31.0355 -0.0929532 0)
(31.0198 -0.0887075 0)
(31.008 -0.0851628 0)
(30.9979 -0.0821037 0)
(30.9877 -0.0793928 0)
(30.9765 -0.076773 0)
(30.9658 -0.0741913 0)
(30.9564 -0.0715943 0)
(30.9476 -0.0690613 0)
(30.9386 -0.0668982 0)
(30.9287 -0.0651053 0)
(30.9173 -0.0633922 0)
(30.9043 -0.0615441 0)
(30.8897 -0.0596062 0)
(30.8732 -0.057796 0)
(30.8545 -0.0562939 0)
(30.8327 -0.0550944 0)
(30.8075 -0.0540749 0)
(30.7784 -0.053097 0)
(30.7454 -0.0521324 0)
(30.7086 -0.0512512 0)
(30.6678 -0.0505611 0)
(30.6232 -0.0499919 0)
(30.5745 -0.049493 0)
(30.5219 -0.0490197 0)
(30.4658 -0.0485736 0)
(30.4064 -0.0481445 0)
(30.3443 -0.0477347 0)
(30.2797 -0.0473679 0)
(30.213 -0.0470415 0)
(30.1446 -0.0467157 0)
(30.0748 -0.0463607 0)
(30.0042 -0.0459639 0)
(29.933 -0.045541 0)
(29.8617 -0.0450987 0)
(29.7901 -0.0446367 0)
(29.7191 -0.0441572 0)
(29.6481 -0.0436458 0)
(29.5783 -0.0431179 0)
(29.5085 -0.0425652 0)
(29.4403 -0.0420137 0)
(29.3723 -0.04144 0)
(29.306 -0.0408735 0)
(29.24 -0.0402832 0)
(29.1758 -0.0397051 0)
(29.112 -0.0391136 0)
(29.0501 -0.0385579 0)
(28.9886 -0.0379964 0)
(28.929 -0.0374399 0)
(28.8699 -0.0368777 0)
(28.8129 -0.0363322 0)
(28.7563 -0.0357832 0)
(28.7019 -0.0352509 0)
(28.6477 -0.0347229 0)
(28.5959 -0.0342247 0)
(28.5442 -0.0337359 0)
(28.495 -0.0332862 0)
(28.4457 -0.0328538 0)
(28.3989 -0.0324834 0)
(28.3518 -0.0321505 0)
(28.3075 -0.0319718 0)
(28.2617 -0.0318666 0)
(28.2208 -0.0321627 0)
(28.1729 -0.0326441 0)
(28.1404 -0.0339068 0)
(28.076 -0.0366349 0)
(40.2419 -0.0161657 0)
(40.2904 -0.0671903 0)
(40.2717 -0.206836 0)
(40.0832 -0.423796 0)
(39.6529 -0.656252 0)
(38.9885 -0.849182 0)
(38.1576 -0.975789 0)
(37.2544 -1.02795 0)
(36.3417 -1.01506 0)
(35.5001 -0.955753 0)
(34.7465 -0.865259 0)
(34.0951 -0.761924 0)
(33.5595 -0.663904 0)
(33.115 -0.574064 0)
(32.7351 -0.490729 0)
(32.4314 -0.421193 0)
(32.1981 -0.36769 0)
(31.9975 -0.321893 0)
(31.8164 -0.279866 0)
(31.6724 -0.246494 0)
(31.5642 -0.222841 0)
(31.4668 -0.20309 0)
(31.3707 -0.183563 0)
(31.2871 -0.166393 0)
(31.2223 -0.15392 0)
(31.1677 -0.144677 0)
(31.1139 -0.135828 0)
(31.0582 -0.126247 0)
(31.0084 -0.117807 0)
(30.967 -0.111668 0)
(30.9302 -0.106871 0)
(30.8939 -0.101971 0)
(30.8555 -0.0966185 0)
(30.8177 -0.091697 0)
(30.7832 -0.087884 0)
(30.7511 -0.0847883 0)
(30.7195 -0.0816507 0)
(30.6872 -0.0782515 0)
(30.6536 -0.0749334 0)
(30.6201 -0.0721069 0)
(30.5871 -0.0696835 0)
(30.5542 -0.0672825 0)
(30.5211 -0.0648203 0)
(30.4873 -0.0625194 0)
(30.4524 -0.0604568 0)
(30.4168 -0.0585201 0)
(30.3805 -0.0565991 0)
(30.344 -0.0546995 0)
(30.307 -0.0528903 0)
(30.2695 -0.0512033 0)
(30.2312 -0.0495649 0)
(30.1921 -0.0478923 0)
(30.1523 -0.0461534 0)
(30.1121 -0.0443907 0)
(30.0714 -0.0426708 0)
(30.0303 -0.0410277 0)
(29.9883 -0.0394045 0)
(29.9454 -0.0377667 0)
(29.9015 -0.0361443 0)
(29.8568 -0.0345841 0)
(29.811 -0.0330939 0)
(29.7642 -0.0316692 0)
(29.7161 -0.0303256 0)
(29.6667 -0.0290648 0)
(29.6159 -0.02788 0)
(29.5637 -0.0267696 0)
(29.5102 -0.0257388 0)
(29.4555 -0.0247968 0)
(29.3996 -0.0239299 0)
(29.3427 -0.0231525 0)
(29.2848 -0.0224538 0)
(29.2261 -0.0218248 0)
(29.1668 -0.0212581 0)
(29.107 -0.0207464 0)
(29.047 -0.0202938 0)
(28.9868 -0.0198874 0)
(28.9267 -0.0195277 0)
(28.8665 -0.0191998 0)
(28.8071 -0.0189113 0)
(28.7476 -0.0186501 0)
(28.6893 -0.0184161 0)
(28.6309 -0.0182026 0)
(28.5741 -0.0180165 0)
(28.5173 -0.0178582 0)
(28.4623 -0.0177283 0)
(28.4074 -0.0176149 0)
(28.3544 -0.0175147 0)
(28.3016 -0.017433 0)
(28.2508 -0.0173705 0)
(28.2001 -0.0173245 0)
(28.1515 -0.0172981 0)
(28.1029 -0.0172865 0)
(28.0564 -0.0173063 0)
(28.0097 -0.0173658 0)
(27.9654 -0.0174985 0)
(27.9196 -0.0177687 0)
(27.8784 -0.0181351 0)
(27.8297 -0.0190999 0)
(27.7968 -0.0196145 0)
(27.7301 -0.0241588 0)
(40.2386 -0.030009 0)
(40.2709 -0.0704534 0)
(40.2318 -0.171527 0)
(40.0309 -0.327113 0)
(39.6008 -0.494846 0)
(38.9443 -0.634496 0)
(38.1223 -0.726408 0)
(37.222 -0.764982 0)
(36.3104 -0.757944 0)
(35.4511 -0.717439 0)
(34.6767 -0.65498 0)
(34.0142 -0.585438 0)
(33.4471 -0.51592 0)
(32.9596 -0.448677 0)
(32.5579 -0.389097 0)
(32.2329 -0.34034 0)
(31.9518 -0.298928 0)
(31.7046 -0.262256 0)
(31.4983 -0.231525 0)
(31.3265 -0.207582 0)
(31.1687 -0.188136 0)
(31.0205 -0.170962 0)
(30.889 -0.155758 0)
(30.7737 -0.143332 0)
(30.6658 -0.133535 0)
(30.5598 -0.124999 0)
(30.4581 -0.116529 0)
(30.3637 -0.108451 0)
(30.275 -0.101722 0)
(30.1879 -0.0964497 0)
(30.1011 -0.0917103 0)
(30.016 -0.0865963 0)
(29.9338 -0.0813651 0)
(29.854 -0.0769204 0)
(29.7752 -0.0734368 0)
(29.6964 -0.0703146 0)
(29.6181 -0.066968 0)
(29.5413 -0.0633991 0)
(29.4659 -0.0601325 0)
(29.3913 -0.0574841 0)
(29.3172 -0.0551715 0)
(29.2438 -0.0527871 0)
(29.1714 -0.050277 0)
(29.1002 -0.0478949 0)
(29.0299 -0.0457887 0)
(28.9606 -0.0438878 0)
(28.8923 -0.0420395 0)
(28.8251 -0.0401824 0)
(28.7592 -0.0383525 0)
(28.6945 -0.0366123 0)
(28.631 -0.0349681 0)
(28.5689 -0.0334098 0)
(28.5081 -0.0319118 0)
(28.4488 -0.0304713 0)
(28.3909 -0.0290877 0)
(28.3347 -0.0277715 0)
(28.2797 -0.0264817 0)
(28.2266 -0.0252177 0)
(28.1748 -0.0239961 0)
(28.1249 -0.0228412 0)
(28.0763 -0.021715 0)
(28.0296 -0.0205996 0)
(27.9842 -0.0194917 0)
(27.9406 -0.0184168 0)
(27.8982 -0.017373 0)
(27.8575 -0.016371 0)
(27.8178 -0.0153993 0)
(27.7796 -0.0144675 0)
(27.7423 -0.013564 0)
(27.7063 -0.0127123 0)
(27.671 -0.0119317 0)
(27.6368 -0.01121 0)
(27.6032 -0.010529 0)
(27.5703 -0.00989547 0)
(27.5379 -0.00931806 0)
(27.5061 -0.00880735 0)
(27.4747 -0.00835548 0)
(27.4436 -0.00797031 0)
(27.413 -0.00764147 0)
(27.3824 -0.00736759 0)
(27.3522 -0.0071442 0)
(27.322 -0.00696611 0)
(27.2921 -0.00682945 0)
(27.2621 -0.00673831 0)
(27.2323 -0.00669281 0)
(27.2025 -0.00667766 0)
(27.1727 -0.00668643 0)
(27.1429 -0.00672823 0)
(27.1132 -0.00679629 0)
(27.0834 -0.00689112 0)
(27.0537 -0.00700744 0)
(27.024 -0.00714545 0)
(26.9945 -0.00730751 0)
(26.9647 -0.00751043 0)
(26.9355 -0.00772432 0)
(26.9049 -0.00810959 0)
(26.8769 -0.00835436 0)
(26.8424 -0.00948467 0)
(26.8199 -0.0091826 0)
(26.7695 -0.0145941 0)
(40.2229 -0.0441215 0)
(40.2345 -0.0683461 0)
(40.1702 -0.129278 0)
(39.943 -0.223499 0)
(39.4859 -0.326545 0)
(38.7965 -0.413774 0)
(37.9305 -0.472593 0)
(36.9722 -0.49881 0)
(35.9896 -0.496211 0)
(35.0449 -0.47187 0)
(34.1818 -0.433688 0)
(33.4061 -0.389231 0)
(32.7217 -0.343467 0)
(32.1328 -0.300502 0)
(31.627 -0.262936 0)
(31.1864 -0.230724 0)
(30.7982 -0.202688 0)
(30.4596 -0.178883 0)
(30.1602 -0.159211 0)
(29.8911 -0.142794 0)
(29.6429 -0.128302 0)
(29.4163 -0.116035 0)
(29.2097 -0.105955 0)
(29.0183 -0.097294 0)
(28.8388 -0.0895183 0)
(28.669 -0.082531 0)
(28.509 -0.0763314 0)
(28.3582 -0.0706807 0)
(28.2155 -0.0654855 0)
(28.0789 -0.0607423 0)
(27.9476 -0.056404 0)
(27.8218 -0.0522837 0)
(27.7019 -0.0483578 0)
(27.5876 -0.0448025 0)
(27.4776 -0.0416124 0)
(27.3714 -0.0386386 0)
(27.269 -0.0357581 0)
(27.1711 -0.0329714 0)
(27.0774 -0.030411 0)
(26.9875 -0.0281509 0)
(26.9006 -0.0260697 0)
(26.817 -0.0240402 0)
(26.7366 -0.0220658 0)
(26.6598 -0.0202628 0)
(26.5858 -0.0186592 0)
(26.5147 -0.0171871 0)
(26.4461 -0.0157704 0)
(26.3804 -0.0144092 0)
(26.3172 -0.013141 0)
(26.2567 -0.0119995 0)
(26.1984 -0.0109615 0)
(26.1426 -0.00999409 0)
(26.0889 -0.00906889 0)
(26.0377 -0.00818645 0)
(25.9883 -0.00736 0)
(25.9414 -0.00660548 0)
(25.8962 -0.005897 0)
(25.8534 -0.0052153 0)
(25.8123 -0.00456279 0)
(25.7735 -0.00395428 0)
(25.7362 -0.00337715 0)
(25.701 -0.0028265 0)
(25.6674 -0.0023046 0)
(25.6359 -0.00182112 0)
(25.6058 -0.00136754 0)
(25.5776 -0.000940858 0)
(25.5507 -0.000536948 0)
(25.5255 -0.000158822 0)
(25.5016 0.000196176 0)
(25.4791 0.000525153 0)
(25.4577 0.000838957 0)
(25.4376 0.00107312 0)
(25.4184 0.00127354 0)
(25.4002 0.00145566 0)
(25.3827 0.00162948 0)
(25.3662 0.00177921 0)
(25.35 0.00191794 0)
(25.3347 0.00203389 0)
(25.3197 0.00213696 0)
(25.3052 0.00222475 0)
(25.291 0.00229865 0)
(25.2772 0.00234992 0)
(25.2636 0.00239798 0)
(25.2503 0.00244216 0)
(25.2371 0.00247067 0)
(25.224 0.00249808 0)
(25.211 0.00252465 0)
(25.198 0.00253955 0)
(25.185 0.0025413 0)
(25.172 0.00253418 0)
(25.1588 0.0025122 0)
(25.1455 0.00247852 0)
(25.1321 0.00242666 0)
(25.1184 0.00232012 0)
(25.1048 0.00222736 0)
(25.0899 0.00194568 0)
(25.0767 0.00194721 0)
(25.0582 0.000987529 0)
(25.0479 0.00151929 0)
(25.0178 -0.00294808 0)
(39.1402 -0.0539802 0)
(38.9464 -0.0675466 0)
(38.6586 -0.0934486 0)
(38.1914 -0.131021 0)
(37.4774 -0.172079 0)
(36.5128 -0.207807 0)
(35.3544 -0.233313 0)
(34.0901 -0.246414 0)
(32.7977 -0.2479 0)
(31.5413 -0.240171 0)
(30.3739 -0.225619 0)
(29.3094 -0.206619 0)
(28.3626 -0.186137 0)
(27.5265 -0.166272 0)
(26.7955 -0.147635 0)
(26.1536 -0.130115 0)
(25.5937 -0.114312 0)
(25.0997 -0.100564 0)
(24.6661 -0.0886203 0)
(24.2803 -0.0777109 0)
(23.9407 -0.0681644 0)
(23.6353 -0.0606815 0)
(23.3585 -0.0546083 0)
(23.1076 -0.0491079 0)
(22.8794 -0.0441703 0)
(22.6712 -0.0401374 0)
(22.4795 -0.0367719 0)
(22.3038 -0.03357 0)
(22.1429 -0.030497 0)
(21.9956 -0.0278662 0)
(21.8595 -0.0257413 0)
(21.7341 -0.0238096 0)
(21.6188 -0.0218783 0)
(21.5134 -0.0200871 0)
(21.4164 -0.0185998 0)
(21.3268 -0.0173957 0)
(21.2439 -0.0162961 0)
(21.1678 -0.0151859 0)
(21.0981 -0.0141367 0)
(21.0342 -0.0132659 0)
(20.975 -0.0125518 0)
(20.9205 -0.0118938 0)
(20.8703 -0.0112361 0)
(20.8246 -0.0106207 0)
(20.7824 -0.0100858 0)
(20.7438 -0.00962806 0)
(20.7081 -0.00920999 0)
(20.6756 -0.00880828 0)
(20.6456 -0.00841986 0)
(20.6185 -0.00805688 0)
(20.5935 -0.00771881 0)
(20.5709 -0.00740763 0)
(20.55 -0.00711425 0)
(20.5313 -0.00683728 0)
(20.5141 -0.00657548 0)
(20.4989 -0.00633644 0)
(20.4848 -0.00610845 0)
(20.4725 -0.00589299 0)
(20.4612 -0.00569311 0)
(20.4515 -0.00551954 0)
(20.4426 -0.00535446 0)
(20.4352 -0.00519315 0)
(20.4284 -0.00502742 0)
(20.423 -0.00487141 0)
(20.4182 -0.00470853 0)
(20.4145 -0.00454812 0)
(20.4115 -0.00436666 0)
(20.4095 -0.00418628 0)
(20.408 -0.00396584 0)
(20.4075 -0.00370565 0)
(20.4077 -0.00352739 0)
(20.4085 -0.0033496 0)
(20.4099 -0.00319599 0)
(20.4119 -0.00305075 0)
(20.4145 -0.00290836 0)
(20.4176 -0.0027742 0)
(20.4212 -0.00264707 0)
(20.4253 -0.00253739 0)
(20.4297 -0.00243911 0)
(20.4344 -0.00235639 0)
(20.4394 -0.00228945 0)
(20.4446 -0.0022633 0)
(20.45 -0.00225303 0)
(20.4556 -0.00225252 0)
(20.4611 -0.00226605 0)
(20.4667 -0.00228243 0)
(20.4724 -0.00229661 0)
(20.478 -0.0023145 0)
(20.4837 -0.00233631 0)
(20.4892 -0.00235651 0)
(20.4947 -0.00238234 0)
(20.4999 -0.00240545 0)
(20.5052 -0.00243482 0)
(20.5097 -0.00249423 0)
(20.5146 -0.00253742 0)
(20.518 -0.00267849 0)
(20.5227 -0.00262337 0)
(20.524 -0.00322283 0)
(20.5277 -0.00208075 0)
(20.5227 -0.00798252 0)
(1.95437 0.421237 0)
(1.64907 2.05102 0)
(0.910905 2.40128 0)
(0.110915 2.5677 0)
(-0.665574 2.43237 0)
(-1.46651 1.98152 0)
(-2.15367 1.28401 0)
(-2.51272 0.770952 0)
(10.5778 0.318085 0)
(4.36564 1.81698 0)
(1.74411 2.17482 0)
(-0.155019 2.21102 0)
(-2.00006 2.04563 0)
(-3.87731 1.69172 0)
(-5.71493 1.11972 0)
(-6.92409 0.530807 0)
(16.8868 -0.371863 0)
(7.91512 0.751521 0)
(2.86677 1.2142 0)
(-0.390799 1.32792 0)
(-2.9925 1.24932 0)
(-5.40338 1.0588 0)
(-7.85091 0.75371 0)
(-9.97521 0.288393 0)
(20.5479 -1.17077 0)
(11.239 -0.438566 0)
(4.58036 0.0734948 0)
(0.166283 0.312113 0)
(-3.14767 0.393392 0)
(-6.02669 0.379207 0)
(-8.77042 0.303337 0)
(-11.4791 0.0760392 0)
(22.4346 -1.81034 0)
(13.5547 -1.3272 0)
(6.44275 -0.873374 0)
(1.28495 -0.548979 0)
(-2.61863 -0.328239 0)
(-5.86405 -0.179404 0)
(-8.80813 -0.0646649 0)
(-11.7951 -0.051593 0)
(23.6384 -2.31559 0)
(15.4317 -1.97617 0)
(8.2598 -1.5757 0)
(2.74331 -1.21557 0)
(-1.47202 -0.904734 0)
(-4.91751 -0.630905 0)
(-7.98474 -0.380783 0)
(-11.1055 -0.205937 0)
(24.3327 -2.60587 0)
(16.9011 -2.37071 0)
(10.0265 -2.03612 0)
(4.44225 -1.67065 0)
(0.115624 -1.30545 0)
(-3.37703 -0.946666 0)
(-6.43098 -0.597677 0)
(-9.51236 -0.307149 0)
(24.7683 -2.67809 0)
(17.9672 -2.50948 0)
(11.5151 -2.23413 0)
(6.15518 -1.89319 0)
(1.91899 -1.51315 0)
(-1.51045 -1.11241 0)
(-4.49001 -0.71273 0)
(-7.52819 -0.358465 0)
(25.0649 -2.58822 0)
(18.8343 -2.46111 0)
(12.8347 -2.23099 0)
(7.79381 -1.91923 0)
(3.76301 -1.55082 0)
(0.479226 -1.14701 0)
(-2.37449 -0.740365 0)
(-5.32863 -0.369195 0)
(25.2509 -2.38101 0)
(19.5302 -2.28698 0)
(13.9916 -2.09706 0)
(9.31683 -1.82108 0)
(5.5375 -1.48028 0)
(2.42571 -1.09672 0)
(-0.297066 -0.708741 0)
(-3.17829 -0.353589 0)
(25.3298 -2.11367 0)
(20.0606 -2.0516 0)
(14.9675 -1.89731 0)
(10.6752 -1.65927 0)
(7.16892 -1.35416 0)
(4.24218 -1.0051 0)
(1.65834 -0.65055 0)
(-1.14577 -0.325756 0)
(25.3133 -1.8361 0)
(20.457 -1.79971 0)
(15.8048 -1.67566 0)
(11.8635 -1.47272 0)
(8.60673 -1.20389 0)
(5.86503 -0.895619 0)
(3.41681 -0.580679 0)
(0.69721 -0.291818 0)
(25.2221 -1.57378 0)
(20.7381 -1.55782 0)
(16.5025 -1.45897 0)
(12.8903 -1.28621 0)
(9.86491 -1.05216 0)
(7.29324 -0.782636 0)
(4.9632 -0.504789 0)
(2.30935 -0.250302 0)
(25.0828 -1.34365 0)
(20.9384 -1.3405 0)
(17.0851 -1.26197 0)
(13.7722 -1.11547 0)
(10.9564 -0.912938 0)
(8.53833 -0.678986 0)
(6.31424 -0.435754 0)
(3.71789 -0.214162 0)
(24.917 -1.15088 0)
(21.0775 -1.1551 0)
(17.5714 -1.09172 0)
(14.5305 -0.966987 0)
(11.9022 -0.792728 0)
(9.61944 -0.590128 0)
(7.48666 -0.377406 0)
(4.93529 -0.184524 0)
(24.7445 -0.992121 0)
(21.1867 -0.998224 0)
(17.9786 -0.946328 0)
(15.1717 -0.839303 0)
(12.7162 -0.690445 0)
(10.5576 -0.515182 0)
(8.50766 -0.328201 0)
(5.99418 -0.161776 0)
(24.5808 -0.861536 0)
(21.2818 -0.866845 0)
(18.3243 -0.822387 0)
(15.7155 -0.730072 0)
(13.4166 -0.602465 0)
(11.3722 -0.450351 0)
(9.40072 -0.284161 0)
(6.91666 -0.145698 0)
(24.4329 -0.754736 0)
(21.3682 -0.758637 0)
(18.6243 -0.718799 0)
(16.1853 -0.638321 0)
(14.0237 -0.527579 0)
(12.0822 -0.394625 0)
(10.1866 -0.246579 0)
(7.71803 -0.131149 0)
(24.3058 -0.668903 0)
(21.45 -0.670923 0)
(18.8902 -0.634343 0)
(16.5977 -0.562979 0)
(14.5556 -0.465434 0)
(12.7051 -0.348194 0)
(10.8773 -0.216824 0)
(8.42336 -0.115956 0)
(24.1985 -0.599038 0)
(21.5299 -0.599486 0)
(19.1304 -0.565371 0)
(16.9655 -0.501159 0)
(15.0274 -0.4141 0)
(13.2569 -0.309656 0)
(11.4887 -0.192671 0)
(9.04749 -0.102391 0)
(24.1086 -0.5398 0)
(21.6086 -0.539563 0)
(19.3495 -0.507514 0)
(17.2971 -0.449559 0)
(15.4503 -0.371219 0)
(13.75 -0.277342 0)
(12.0342 -0.172408 0)
(9.60338 -0.090841 0)
(24.0334 -0.488975 0)
(21.6847 -0.48831 0)
(19.5467 -0.458456 0)
(17.5969 -0.40602 0)
(15.832 -0.33512 0)
(14.1941 -0.250146 0)
(12.5245 -0.155312 0)
(10.1018 -0.0812281 0)
(23.9711 -0.446847 0)
(21.7574 -0.445315 0)
(19.7272 -0.41741 0)
(17.8698 -0.369434 0)
(16.1788 -0.304736 0)
(14.5972 -0.227274 0)
(12.9685 -0.140926 0)
(10.5523 -0.0732757 0)
(23.9207 -0.411954 0)
(21.8288 -0.409292 0)
(19.8955 -0.383081 0)
(18.121 -0.338724 0)
(16.4967 -0.279204 0)
(14.9658 -0.208072 0)
(13.3738 -0.128844 0)
(10.9626 -0.0666434 0)
(23.8802 -0.381608 0)
(21.8977 -0.37817 0)
(20.0522 -0.353335 0)
(18.3531 -0.312083 0)
(16.7895 -0.25707 0)
(15.3049 -0.191438 0)
(13.7461 -0.118365 0)
(11.3386 -0.060933 0)
(23.8484 -0.35425 0)
(21.9658 -0.34976 0)
(20.1997 -0.326616 0)
(18.5689 -0.288236 0)
(17.0603 -0.237227 0)