/*--------------------------------*- C++ -*----------------------------------*\
| =========                 |                                                 |
| \\      /  F ield         | OpenFOAM: The Open Source CFD Toolbox           |
|  \\    /   O peration     | Version:  v2012                                 |
|   \\  /    A nd           | Website:  www.openfoam.com                      |
|    \\/     M anipulation  |                                                 |
\*---------------------------------------------------------------------------*/
FoamFile
{
    version     2.0;
    format      ascii;
    class       volScalarField;
    location    "0.31";
    object      epsilon.air;
}
// * * * * * * * * * * * * * * * * * * * * * * * * * * * * * * * * * * * * * //

dimensions      [0 2 -3 0 0 0 0];


internalField   nonuniform List<scalar> 
1900
(
112.724
141.424
210.097
257.591
369.051
443.457
614.739
724.909
971.318
1128.62
15.4676
16.4471
18.6374
20.4507
23.7568
27.7275
32.0036
39.288
45.124
56.7662
14.7926
14.6415
14.5755
14.5063
14.5148
14.5573
14.6409
14.8309
15.0773
15.4134
14.77
14.6304
14.4634
14.3354
14.1726
14.059
13.904
13.8079
13.6654
13.5937
14.7766
14.6216
14.4704
14.3205
14.1747
14.029
13.8889
13.7472
13.6139
13.477
14.7777
14.6206
14.4713
14.3197
14.1754
14.0284
13.8891
13.7473
13.6133
13.4774
14.7776
14.6207
14.473
14.3235
14.184
14.0451
13.9175
13.7915
13.6807
13.5717
14.7757
14.6499
14.5638
14.5034
14.5108
14.552
14.6365
14.8209
15.0453
15.3954
15.2071
16.6035
18.2756
20.6792
23.5942
27.5733
32.2684
38.4065
45.5709
54.8122
105.877
146.584
198.346
265.755
350.032
456.079
585.705
743.767
931.873
1154.17
4101.99
15201.2
19565.4
22424.1
21094.5
18014.3
15090.9
12805.8
11311
10392
9887.49
9705.29
9528.07
9257.71
8849.12
8350.26
7796.68
7210.75
6644.38
6126.01
5649.29
5222.53
4838.08
4486.94
4167.52
3878.02
3615.42
3377.91
3162.23
2966.55
2788.41
2625.8
2477.02
2340.54
2215.16
2099.71
1993.24
1894.83
1803.72
1719.2
1640.68
1567.6
1499.5
1435.94
1376.53
1320.91
1268.78
1219.82
1173.77
1130.37
1089.41
1050.67
1013.99
979.182
946.118
914.65
884.68
856.078
828.777
802.656
777.675
753.713
730.761
708.691
687.531
667.135
647.574
628.674
610.558
593.016
576.227
559.926
544.359
529.19
514.749
500.604
487.194
473.966
461.502
449.092
437.501
425.822
415.055
404.035
394.061
383.638
374.443
364.557
356.135
346.717
339.071
330.038
323.175
314.424
308.363
299.77
294.542
285.967
281.593
271.278
113.221
337.773
517.739
921.639
1124.02
1149.73
1122.44
1059.4
1053.82
1093.18
1198.35
1410.69
1697.83
2029.66
2379.53
2691.39
2970.1
3203.69
3358.09
3433.59
3425.65
3387.03
3301.66
3183.71
3055.65
2924.63
2793.97
2667.46
2543.99
2426.65
2314.61
2207.59
2106.17
2010.21
1919.84
1834.74
1754.8
1679.51
1608.66
1541.93
1479.08
1419.78
1363.83
1311
1261.11
1213.91
1169.26
1126.96
1086.84
1048.74
1012.51
978.006
945.098
913.665
883.607
854.817
827.227
800.742
775.324
750.881
727.396
704.774
683.028
662.048
641.877
622.386
603.654
585.523
568.118
551.243
535.076
519.371
504.365
489.746
475.827
462.206
449.297
436.583
424.606
412.706
401.594
390.423
380.123
369.609
360.087
350.165
341.403
332.011
324.001
315.07
307.81
299.26
292.756
284.486
278.752
270.645
265.708
257.631
253.515
243.821
16.4292
19.8695
22.8836
29.0849
34.7691
38.7318
41.7051
43.7935
46.7432
50.7691
58.844
71.0602
95.7238
130.355
189.928
267.549
373.712
508.928
666.526
836.367
1004.28
1162
1301.48
1417.76
1508.37
1572.09
1610.75
1628.67
1626.15
1615.53
1592.84
1562.45
1527.85
1490.37
1451.66
1411.81
1371.89
1331.54
1291.72
1252.58
1214.18
1176.63
1140.08
1104.59
1070.2
1036.88
1004.7
973.574
943.509
914.48
886.443
859.342
833.137
807.773
783.225
759.432
736.391
714.046
692.412
671.434
651.138
631.462
612.447
594.016
576.23
558.987
542.375
526.254
510.754
495.694
481.254
467.199
453.77
440.663
428.194
415.971
404.404
392.99
382.26
371.575
361.625
351.593
342.374
332.927
324.406
315.485
307.644
299.191
292.022
283.978
277.481
269.773
263.951
256.494
251.359
244.051
239.623
232.35
228.651
219.928
13.4533
13.4608
13.5468
13.8031
14.3337
15.0069
15.7138
16.3367
16.9228
17.341
17.8981
18.3639
19.3228
20.4833
22.7683
26.2585
31.7656
40.733
54.8157
76.1659
106.327
146.777
198.325
259.915
329.232
404.079
479.799
554.039
621.744
683.862
737.391
781.451
815.968
841.284
859.153
870.011
875.29
874.682
871.939
865.935
857.282
846.679
834.674
821.332
807.083
792.003
776.404
760.199
743.741
727.122
710.377
693.575
676.796
660.073
643.483
627.009
610.745
594.669
578.88
563.338
548.144
533.251
518.742
504.567
490.816
477.41
464.449
451.805
439.615
427.709
416.275
405.078
394.38
383.865
373.875
364.006
354.69
345.408
336.718
327.973
319.878
311.615
304.08
296.247
289.249
281.799
275.328
268.22
262.28
255.475
250.066
243.507
238.636
232.262
227.942
221.677
217.928
211.69
208.526
201.043
13.3298
13.159
13.0628
13.1171
13.3054
13.7171
14.2818
14.9074
15.4453
15.8765
16.2064
16.4397
16.6246
16.7627
16.9164
17.0895
17.3458
17.7183
18.3322
19.3009
20.8344
23.2248
26.7268
32.0763
39.6314
50.3943
64.7063
83.354
106.164
133.346
164.207
197.782
233.136
268.653
303.72
336.677
367.607
395.423
420.03
441.112
458.843
473.144
484.485
492.889
498.841
502.52
504.36
504.092
502.945
500.427
496.658
491.965
486.519
480.403
473.768
466.667
459.258
451.52
443.647
435.566
427.491
419.31
411.18
403.082
395.116
387.217
379.474
371.784
364.279
356.816
349.582
342.36
335.423
328.446
321.821
315.097
308.785
302.32
296.326
290.096
284.403
278.378
272.977
267.133
262.025
256.345
251.539
246.007
241.508
236.101
231.935
226.642
222.836
217.632
214.208
209.057
206.039
200.901
198.305
192.127
13.325
13.1543
13.0318
13.0867
13.296
13.772
14.4974
15.4831
16.4984
17.5971
18.596
19.5216
20.2626
20.8783
21.3062
21.6077
21.7733
21.8458
21.8326
21.79
21.696
21.5979
21.5305
21.5576
21.6651
21.9226
22.4449
23.3634
24.8045
27.0029
30.2164
34.6829
40.7367
48.4231
57.9312
69.247
82.4199
97.1071
113.166
130.06
147.563
165.1
182.41
199.034
214.788
229.381
242.81
254.867
265.653
275.197
283.542
290.786
296.998
302.29
306.719
310.364
313.324
315.589
317.32
318.401
319.143
319.161
318.958
318.438
317.411
316.033
314.361
312.394
310.22
307.785
305.211
302.389
299.52
296.365
293.321
289.897
286.714
283.095
279.822
276.057
272.734
268.846
265.507
261.517
258.197
254.127
250.865
246.738
243.578
239.414
236.392
232.204
229.359
225.159
222.527
218.32
215.933
211.726
209.614
204.557
13.4657
13.3602
13.4098
13.6563
14.3046
15.6846
18.0318
21.4281
25.3843
29.709
33.6201
37.057
39.6058
41.5766
42.6393
43.3225
43.3511
43.2258
42.9131
42.3981
41.76
41.1408
40.512
39.9156
39.3567
38.8737
38.5076
38.2425
38.1168
38.1664
38.3349
38.7115
39.3185
40.2489
41.5706
43.2766
45.5937
48.4798
52.2558
56.8698
62.6095
69.4424
77.5336
86.8682
97.416
109.134
121.826
135.395
149.527
164.106
178.777
193.464
207.817
221.806
235.133
247.812
259.644
270.689
280.83
290.12
298.507
306.017
312.642
318.463
323.482
327.75
331.289
334.119
336.272
337.882
338.861
339.388
339.313
338.985
338.328
337.023
335.839
333.904
332.284
329.863
327.897
325.08
322.854
319.709
317.297
313.886
311.363
307.745
305.177
301.406
298.852
294.975
292.496
288.559
286.206
282.249
280.071
276.134
274.19
269.55
15.9095
16.8583
18.5491
21.9336
28.4159
39.4819
55.4524
74.961
95.3977
114.308
129.256
140.03
146.563
150.237
150.759
150.312
149.212
147.741
146.17
145.063
144.463
144.661
145.326
146.792
148.978
152.214
156.19
161.275
166.986
173.91
181.586
190.532
200.444
211.427
223.561
236.537
250.714
265.613
281.656
298.281
315.676
333.344
351.311
369.389
387.367
405.248
422.65
439.616
455.883
471.54
486.447
500.758
514.244
527.085
538.973
550.115
560.279
569.684
578.154
585.777
592.439
598.14
602.921
606.695
609.628
611.599
612.867
612.878
612.491
611.475
609.565
607.051
604.118
600.568
596.954
592.58
588.549
583.61
579.296
574.034
569.573
564.086
559.558
553.903
549.381
543.623
539.189
533.392
529.116
523.33
519.271
513.54
509.758
504.127
500.668
495.163
492.081
486.726
484.131
478.093
68.0312
90.4326
126.243
184.876
272.038
385.035
511.457
635.75
744.587
831.58
892.982
932.535
953.228
963.552
964.763
963.478
960.305
957.885
956.582
957.261
959.984
966.455
975.263
986.387
1000.16
1016.61
1035.24
1055.57
1077.46
1101.08
1126.05
1152.24
1179.06
1206.06
1233.26
1259.92
1286.4
1311.81
1336.51
1359.53
1381.34
1401.39
1420.07
1437.22
1452.89
1467.15
1479.88
1491.26
1501.27
1510
1517.49
1523.78
1528.77
1532.44
1534.8
1535.58
1535.16
1533.83
1531.15
1527.14
1522.29
1516.04
1509.37
1501.22
1492.83
1483.39
1473.25
1462.44
1451.24
1439.28
1427.14
1414.22
1401.54
1388.05
1375.22
1361.46
1348.68
1334.98
1322.5
1309.07
1297.09
1284.01
1272.57
1259.87
1249.04
1236.76
1226.63
1214.84
1205.49
1194.18
1185.67
1174.83
1167.19
1156.8
1150.05
1140.07
1134.24
1124.63
1119.92
1109.36
1464.67
1897.32
2398.98
2961.77
3563.18
4171.63
4746.15
5251.27
5654.88
5951.05
6132.78
6219.37
6206.74
6159.94
6061.3
5927.9
5777.78
5619.22
5459.07
5301.64
5149.48
5004.51
4867.73
4739.88
4620.78
4510.63
4409.09
4316.1
4231.07
4153.76
4083.51
4020.19
3963.19
3912.11
3866.46
3825.79
3789.99
3758.51
3731.33
3707.63
3687.46
3670.14
3655.8
3643.74
3633.88
3625.61
3618.9
3613.29
3608.82
3605.12
3602.3
3600.19
3598.83
3597.91
3597.87
3598.09
3598.65
3599.69
3601.22
3602.64
3604.42
3605.71
3607.31
3608.27
3609.37
3610.03
3610.37
3610.29
3609.94
3609.04
3607.86
3605.45
3603.12
3599.2
3595.52
3589.93
3584.78
3577.57
3571.09
3562.5
3554.96
3545.2
3536.8
3526.04
3516.97
3505.3
3495.72
3483.17
3473.17
3459.68
3449.4
3434.94
3424.62
3409.2
3399.18
3382.77
3373.39
3356.04
3347.22
3325.14
1109.31
1064.66
1122.21
1210.13
1238.88
1121.25
818.533
1979.97
54640.6
16133.2
7358.32
6109.31
6235.53
6485.99
6556.77
8031.11
74284.1
43680.6
24864.4
18480.3
16108.9
15006.1
14633.3
19680.3
76412.2
71051.4
54284.2
41219.7
32701.2
27165.7
24550
34073.7
69722.7
75707.2
67753.1
55653.6
44567.1
35840.3
30859.9
42697.6
57755.8
71171
67936.9
59030.7
48367.2
38725.4
32775.7
45211.3
47494.6
61827.9
62479.9
56601.1
47156
38169.5
32445.8
44227.6
39101.7
51821.3
53581.3
49831.7
42390.3
34673.9
29591.9
39760.2
32640.6
42994.6
44922.2
42133.5
36303.6
30046.2
25827.4
34052.5
27616.2
35629.7
37262.5
35120
30548.9
25564.4
22233.2
29391.4
23493
29590.6
30830.3
29129.5
25540
21642.8
19169.8
26036.7
20109
24699.6
25580.5
24191.8
21349.2
18307.8
16505.8
23000
17370.5
20785.3
21374.3
20216.5
17945.9
15562.5
14272.5
20375.8
15137.1
17659.2
18026
17046
15217
13335.8
12431.5
18163.3
13287.1
15148.6
15355.5
14519.2
13032.5
11537.4
10925.8
16327.3
11727
13107.6
13205.3
12488.7
11270.8
10076.1
9688.98
14800.1
10404.9
11436.8
11461.3
10844.6
9839.41
8880.32
8666.67
13523.8
9267.37
10050.4
10030.9
9497.64
8663.56
7892.04
7814.66
12450
8285.84
8889.18
8845.02
8382.5
7687.49
7067.19
7097.26
11539.2
7442.99
7911.59
7853.07
7451.38
6869.78
6372.16
6486.09
10760.3
6716.51
7083.61
7017.19
6667.5
6178.69
5780.86
5961.96
10086.8
6090.15
6378.68
6308.19
6002.69
5590.1
5273.82
5508.97
9498.81
5547.67
5774.99
5703.04
5435.25
5085.74
4836.54
5115.38
8983.07
5073.68
5253.93
5182.7
4947.47
4650.77
4457.28
4771.75
8529.08
4657.41
4801.34
4732.28
4525.33
4273.18
4126.35
4470.04
8127.16
4290.21
4405.95
4340.03
4157.76
3943.47
3835.99
4203.76
7769.36
3964.77
4058.53
3996.39
3835.79
3653.93
3579.9
3967.68
7449.41
3675.63
3751.98
3693.89
3552.39
3398.47
3353.04
3757.54
7162.41
3417.59
3480.18
3426.3
3301.7
3172
3151.19
3569.77
6904.25
3186.69
3238.27
3188.58
3078.94
2970.35
2970.9
3401.33
6671.31
2979.19
3022
2976.45
2880.17
2790.11
2808.89
3249.89
6460.54
2792.08
2827.86
2786.34
2702.02
2628.26
2662.96
3113.17
6269.49
2622.75
2652.92
2615.28
2541.7
2482.37
2531.09
2989.33
6095.99
2468.96
2494.66
2460.75
2396.87
2350.36
2411.53
2876.79
5938.06
2328.86
2351
2320.64
2265.53
2230.49
2302.74
2774.19
5793.86
2200.86
2220.17
2193.2
2146.04
2121.28
2203.45
2680.37
5661.8
2083.63
2100.69
2076.94
2036.99
2021.48
2112.56
2594.34
5540.48
1975.98
1991.28
1970.59
1937.21
1930.04
2029.14
2515.23
5428.64
1876.93
1890.86
1873.06
1845.67
1846.06
1952.38
2442.32
5325.28
1785.58
1798.48
1783.42
1761.53
1768.68
1881.67
2375.01
5229.52
1701.17
1713.33
1700.87
1684.02
1697.28
1816.36
2312.78
5140.65
1623.02
1634.68
1624.69
1612.46
1631.31
1755.95
2255.16
5058.11
1550.55
1561.89
1554.24
1546.29
1570.25
1699.98
2201.77
4981.44
1483.22
1494.41
1488.98
1484.97
1513.65
1648.05
2152.25
4910.26
1420.57
1431.73
1428.41
1428.06
1461.07
1599.78
2106.28
4844.21
1362.16
1373.41
1372.09
1375.1
1412.18
1554.88
2063.59
4782.98
1307.6
1319.02
1319.61
1325.73
1366.6
1513.02
2023.87
4726.22
1256.56
1268.21
1270.61
1279.65
1324.06
1473.94
1986.9
4673.64
1208.7
1220.64
1224.77
1236.55
1284.25
1437.39
1952.42
4624.86
1163.76
1176.04
1181.81
1196.17
1246.94
1403.15
1920.23
4579.59
1121.47
1134.12
1141.47
1158.25
1211.9
1371
1890.1
4537.44
1081.61
1094.68
1103.53
1122.59
1178.95
1340.78
1861.87
4498.11
1043.97
1057.49
1067.78
1088.99
1147.9
1312.3
1835.34
4461.26
1008.37
1022.36
1034.05
1057.29
1118.59
1285.44
1810.4
4426.63
974.659
989.153
1002.17
1027.33
1090.89
1260.05
1786.86
4393.96
942.673
957.693
971.998
998.982
1064.67
1236.02
1764.65
4363.04
912.301
927.863
943.408
972.117
1039.81
1213.24
1743.63
4333.74
883.401
899.523
916.266
946.618
1016.22
1191.63
1723.74
4305.88
855.891
872.585
890.484
922.4
993.812
1171.11
1704.89
4279.48
829.64
846.916
865.935
899.345
972.479
1151.58
1687.02
4254.35
804.596
822.46
842.563
877.401
952.173
1133
1670.07
4230.6
780.628
799.084
820.238
856.446
932.788
1115.29
1653.97
4207.98
757.72
776.77
798.944
836.467
914.311
1098.42
1638.72
4186.72
735.732
755.374
778.54
817.331
896.622
1082.29
1624.21
4166.48
714.69
734.924
759.055
799.066
879.749
1066.94
1610.47
4147.56
694.437
715.257
740.325
781.518
863.549
1052.22
1597.39
4129.51
675.043
696.448
722.431
764.768
848.094
1038.21
1585.02
4112.72
656.325
678.304
705.176
748.622
833.208
1024.76
1573.23
4096.61
638.408
660.957
688.697
733.217
819.021
1011.96
1562.1
4081.72
621.067
644.17
672.747
718.306
805.297
999.61
1551.45
4067.3
604.49
628.139
657.535
704.103
792.244
987.897
1541.42
4054.08
588.39
612.562
642.739
690.275
779.532
976.513
1531.75
4041.03
573.03
597.716
628.658
677.139
767.483
965.762
1522.7
4029.25
558.045
583.21
614.871
664.246
755.633
955.185
1513.83
4017.27
543.79
569.428
601.797
652.051
744.465
945.274
1505.63
4006.73
529.797
555.862
588.88
639.95
733.329
935.347
1497.38
3995.49
516.543
543.033
576.698
628.583
722.93
926.164
1489.91
3986
503.426
530.285
564.526
617.141
712.367
916.73
1482.08
3975.15
491.081
518.316
553.143
606.511
702.648
908.188
1475.25
3966.54
478.736
506.279
541.606
595.617
692.537
899.104
1467.65
3955.71
467.23
495.102
530.958
585.663
683.441
891.151
1461.42
3947.83
455.571
483.692
519.972
575.23
673.688
882.301
1453.88
3936.75
444.857
473.263
510.021
565.919
665.189
874.917
1448.22
3929.47
433.817
462.417
499.524
555.887
655.731
866.229
1440.64
3918
423.87
452.716
490.254
547.209
647.824
859.41
1435.54
3911.25
413.392
442.382
480.205
537.545
638.634
850.866
1427.92
3899.45
404.201
433.403
471.613
529.499
631.321
844.614
1423.37
3893.15
394.231
423.535
461.977
520.183
622.402
836.241
1415.77
3881.26
385.796
415.281
454.068
512.776
615.687
830.555
1411.75
3875.4
376.269
405.824
444.802
503.786
607.048
822.411
1404.33
3863.78
368.595
398.301
437.586
497.028
600.94
817.295
1400.8
3858.31
359.435
389.186
428.636
488.332
592.58
809.429
1393.72
3847.29
352.532
382.408
422.124
482.231
587.08
804.868
1390.57
3842.26
343.639
373.546
413.417
473.78
578.991
797.339
1384.08
3832.08
337.528
367.53
407.622
468.339
574.084
793.293
1381.29
3827.49
328.783
358.811
399.063
460.062
566.233
786.129
1375.41
3818.31
323.493
353.58
394.001
455.279
561.89
782.521
1372.88
3813.92
314.76
344.877
385.474
447.078
554.207
775.702
1367.58
3805.88
310.305
340.438
381.134
442.924
550.363
772.402
1365.2
3801.91
299.764
329.894
370.763
432.907
540.952
764.069
1358.64
3793.01
)
;

boundaryField
{
    frontAndBack
    {
        type            empty;
    }
    inlet
    {
        type            fixedValue;
        value           uniform 14.855;
    }
    outlet
    {
        type            zeroGradient;
    }
    walls
    {
        lowReCorrection 0;
        blending        stepwise;
        n               2;
        type            epsilonWallFunction;
        value           nonuniform List<scalar> 
228
(
112.724
141.424
210.097
257.591
369.051
443.457
614.739
724.909
971.318
1128.62
1109.31
1064.66
1122.21
1210.13
1238.88
1121.25
818.533
1979.97
1979.97
8031.11
19680.3
34073.7
42697.6
45211.3
44227.6
39760.2
34052.5
29391.4
26036.7
23000
20375.8
18163.3
16327.3
14800.1
13523.8
12450
11539.2
10760.3
10086.8
9498.81
8983.07
8529.08
8127.16
7769.36
7449.41
7162.41
6904.25
6671.31
6460.54
6269.49
6095.99
5938.06
5793.86
5661.8
5540.48
5428.64
5325.28
5229.52
5140.65
5058.11
4981.44
4910.26
4844.21
4782.98
4726.22
4673.64
4624.86
4579.59
4537.44
4498.11
4461.26
4426.63
4393.96
4363.04
4333.74
4305.88
4279.48
4254.35
4230.6
4207.98
4186.72
4166.48
4147.56
4129.51
4112.72
4096.61
4081.72
4067.3
4054.08
4041.03
4029.25
4017.27
4006.73
3995.49
3986
3975.15
3966.54
3955.71
3947.83
3936.75
3929.47
3918
3911.25
3899.45
3893.15
3881.26
3875.4
3863.78
3858.31
3847.29
3842.26
3832.08
3827.49
3818.31
3813.92
3805.88
3801.91
3793.01
105.877
146.584
198.346
265.755
350.032
456.079
585.705
743.767
931.873
1154.17
1464.67
1897.32
2398.98
2961.77
3563.18
4171.63
4746.15
5251.27
5654.88
5951.05
6132.78
6219.37
6206.74
6159.94
6061.3
5927.9
5777.78
5619.22
5459.07
5301.64
5149.48
5004.51
4867.73
4739.88
4620.78
4510.63
4409.09
4316.1
4231.07
4153.76
4083.51
4020.19
3963.19
3912.11
3866.46
3825.79
3789.99
3758.51
3731.33
3707.63
3687.46
3670.14
3655.8
3643.74
3633.88
3625.61
3618.9
3613.29
3608.82
3605.12
3602.3
3600.19
3598.83
3597.91
3597.87
3598.09
3598.65
3599.69
3601.22
3602.64
3604.42
3605.71
3607.31
3608.27
3609.37
3610.03
3610.37
3610.29
3609.94
3609.04
3607.86
3605.45
3603.12
3599.2
3595.52
3589.93
3584.78
3577.57
3571.09
3562.5
3554.96
3545.2
3536.8
3526.04
3516.97
3505.3
3495.72
3483.17
3473.17
3459.68
3449.4
3434.94
3424.62
3409.2
3399.18
3382.77
3373.39
3356.04
3347.22
3325.14
)
;
    }
}


// ************************************************************************* //
