/*--------------------------------*- C++ -*----------------------------------*\
| =========                 |                                                 |
| \\      /  F ield         | OpenFOAM: The Open Source CFD Toolbox           |
|  \\    /   O peration     | Version:  v2012                                 |
|   \\  /    A nd           | Website:  www.openfoam.com                      |
|    \\/     M anipulation  |                                                 |
\*---------------------------------------------------------------------------*/
FoamFile
{
    version     2.0;
    format      ascii;
    class       volScalarField;
    location    "0.31";
    object      p;
}
// * * * * * * * * * * * * * * * * * * * * * * * * * * * * * * * * * * * * * //

dimensions      [0 2 -2 0 0 0 0];


internalField   nonuniform List<scalar> 
5600
(
-0.634974
-1.09313
-1.47357
-1.7921
-2.10294
-2.4132
-2.71454
-2.99627
-3.25937
-3.50949
-3.74609
-3.97076
-4.18519
-4.39151
-4.59169
-4.78754
-4.9798
-5.16954
-5.35672
-5.54165
-5.72445
-5.90475
-6.0825
-6.25882
-6.43363
-6.60717
-6.77943
-6.95067
-7.12145
-7.29168
-7.46142
-7.63036
-7.79855
-7.9663
-8.13359
-8.30018
-8.46626
-8.63165
-8.79652
-8.96069
-9.12432
-9.28737
-9.44978
-9.61149
-9.77273
-9.93343
-10.0937
-10.2534
-10.4126
-10.5713
-10.7296
-10.8875
-11.0449
-11.2018
-11.3583
-11.5144
-11.6701
-11.8253
-11.9801
-12.1343
-12.2883
-12.4419
-12.5952
-12.748
-12.9005
-13.0525
-13.2043
-13.3556
-13.5067
-13.6574
-13.8079
-13.958
-14.1079
-14.2575
-14.4067
-14.5557
-14.7044
-14.853
-15.0011
-15.1492
-15.2969
-15.4445
-15.5918
-15.739
-15.8859
-16.0326
-16.1792
-16.3257
-16.4719
-16.6178
-16.7636
-16.9091
-17.0552
-17.2009
-17.3473
-17.4939
-17.6431
-17.7961
-17.9526
-18.1932
-0.694009
-1.11331
-1.49019
-1.80992
-2.12093
-2.43153
-2.7328
-3.01479
-3.27824
-3.52842
-3.76524
-3.9902
-4.20498
-4.41166
-4.6122
-4.80837
-5.00092
-5.1909
-5.37826
-5.56325
-5.74627
-5.92668
-6.10449
-6.28091
-6.45587
-6.62953
-6.80189
-6.97321
-7.14409
-7.31441
-7.48423
-7.65325
-7.82145
-7.98923
-8.15656
-8.32318
-8.4893
-8.65472
-8.81962
-8.98382
-9.14749
-9.31057
-9.47302
-9.63474
-9.79602
-9.95672
-10.117
-10.2767
-10.4359
-10.5947
-10.753
-10.9108
-11.0682
-11.2251
-11.3816
-11.5376
-11.6934
-11.8486
-12.0033
-12.1576
-12.3116
-12.4651
-12.6184
-12.7712
-12.9237
-13.0757
-13.2274
-13.3788
-13.5299
-13.6806
-13.831
-13.9811
-14.131
-14.2806
-14.4298
-14.5788
-14.7275
-14.8761
-15.0242
-15.1723
-15.32
-15.4676
-15.6149
-15.7621
-15.909
-16.0557
-16.2022
-16.3488
-16.4949
-16.641
-16.7866
-16.9324
-17.078
-17.2244
-17.3697
-17.518
-17.6641
-17.8212
-17.9726
-18.2053
-0.732255
-1.12594
-1.50294
-1.82328
-2.13214
-2.44024
-2.74042
-3.02201
-3.28523
-3.53508
-3.77163
-3.99667
-4.21149
-4.41814
-4.61871
-4.81491
-5.00746
-5.19747
-5.38481
-5.56985
-5.75284
-5.93331
-6.11127
-6.28775
-6.46262
-6.63625
-6.80854
-6.97987
-7.15064
-7.32092
-7.49067
-7.65963
-7.82788
-7.99568
-8.16299
-8.32959
-8.49568
-8.66107
-8.82594
-8.99009
-9.1537
-9.31673
-9.47909
-9.64074
-9.80194
-9.96265
-10.1229
-10.2826
-10.4419
-10.6006
-10.7589
-10.9168
-11.0742
-11.2311
-11.3877
-11.5438
-11.6996
-11.8548
-12.0097
-12.164
-12.318
-12.4717
-12.625
-12.7778
-12.9304
-13.0825
-13.2342
-13.3856
-13.5368
-13.6875
-13.838
-13.9881
-14.138
-14.2876
-14.4369
-14.586
-14.7347
-14.8832
-15.0314
-15.1795
-15.3272
-15.4749
-15.6221
-15.7694
-15.9163
-16.0631
-16.2096
-16.3562
-16.5023
-16.6484
-16.794
-16.9398
-17.0854
-17.2318
-17.3771
-17.5255
-17.6721
-17.8297
-17.9802
-18.2041
-0.780979
-1.14242
-1.51832
-1.84013
-2.14771
-2.45487
-2.75543
-3.03765
-3.30149
-3.55167
-3.78879
-4.01385
-4.22914
-4.43599
-4.63661
-4.83274
-5.02515
-5.21491
-5.40195
-5.58667
-5.76951
-5.94989
-6.12788
-6.30444
-6.47942
-6.65334
-6.826
-6.99767
-7.16867
-7.33918
-7.50909
-7.67821
-7.84646
-8.01433
-8.18171
-8.3484
-8.51458
-8.68007
-8.84504
-9.00932
-9.17307
-9.33625
-9.4988
-9.66065
-9.82203
-9.98275
-10.1431
-10.3028
-10.4622
-10.6209
-10.7793
-10.9373
-11.0947
-11.2517
-11.4082
-11.5642
-11.7199
-11.8751
-12.0298
-12.184
-12.338
-12.4916
-12.6448
-12.7975
-12.95
-13.102
-13.2537
-13.405
-13.5561
-13.7068
-13.8573
-14.0074
-14.1572
-14.3068
-14.456
-14.6051
-14.7538
-14.9023
-15.0504
-15.1985
-15.3462
-15.4938
-15.6411
-15.7883
-15.9352
-16.0819
-16.2285
-16.375
-16.5212
-16.6672
-16.8128
-16.9586
-17.1043
-17.2504
-17.3961
-17.5436
-17.6908
-17.8465
-18.0018
-18.204
-0.830607
-1.15954
-1.53407
-1.85832
-2.16431
-2.47063
-2.77089
-3.05292
-3.31679
-3.56677
-3.80412
-4.02893
-4.24442
-4.4515
-4.65231
-4.84862
-5.04121
-5.2311
-5.41828
-5.60311
-5.78591
-5.96631
-6.14428
-6.32069
-6.49551
-6.66923
-6.84168
-7.01318
-7.18393
-7.35435
-7.52416
-7.69326
-7.86158
-8.02954
-8.19691
-8.36365
-8.5298
-8.69531
-8.86023
-9.0245
-9.18815
-9.35126
-9.51365
-9.67545
-9.83672
-9.99743
-10.1577
-10.3174
-10.4767
-10.6354
-10.7937
-10.9515
-11.1089
-11.2658
-11.4223
-11.5784
-11.7342
-11.8895
-12.0444
-12.1987
-12.3527
-12.5063
-12.6597
-12.8126
-12.9652
-13.1173
-13.2691
-13.4205
-13.5716
-13.7224
-13.8729
-14.0231
-14.173
-14.3226
-14.4719
-14.6209
-14.7697
-14.9182
-15.0664
-15.2145
-15.3622
-15.5099
-15.6572
-15.8044
-15.9513
-16.0981
-16.2447
-16.3911
-16.5374
-16.6834
-16.8292
-16.9748
-17.1206
-17.2666
-17.4124
-17.5599
-17.7069
-17.8622
-18.0145
-18.2091
-0.880643
-1.17886
-1.55136
-1.87857
-2.18294
-2.48829
-2.78817
-3.07023
-3.33433
-3.58449
-3.82208
-4.04724
-4.26301
-4.47036
-4.67137
-4.86779
-5.06049
-5.25038
-5.43761
-5.62247
-5.80508
-5.98548
-6.16352
-6.33996
-6.51485
-6.68862
-6.86111
-7.03265
-7.20344
-7.37372
-7.54355
-7.71258
-7.88088
-8.04872
-8.21599
-8.38263
-8.5487
-8.71416
-8.87902
-9.04327
-9.20691
-9.37024
-9.53269
-9.69458
-9.8559
-10.0167
-10.177
-10.3368
-10.4962
-10.655
-10.8134
-10.9713
-11.1288
-11.2857
-11.4422
-11.5984
-11.7542
-11.9094
-12.0642
-12.2186
-12.3726
-12.5262
-12.6794
-12.8322
-12.9847
-13.1368
-13.2886
-13.4399
-13.591
-13.7417
-13.8922
-14.0423
-14.1922
-14.3418
-14.4911
-14.6401
-14.7889
-14.9374
-15.0856
-15.2337
-15.3814
-15.5291
-15.6764
-15.8236
-15.9705
-16.1173
-16.2638
-16.4103
-16.5566
-16.7026
-16.8483
-16.994
-17.1398
-17.2858
-17.4315
-17.5788
-17.7256
-17.8795
-18.0306
-18.2159
-0.930062
-1.20067
-1.57042
-1.90086
-2.20376
-2.50807
-2.80767
-3.08981
-3.35409
-3.60437
-3.84206
-4.06748
-4.28332
-4.49083
-4.69197
-4.88848
-5.08126
-5.27118
-5.45844
-5.64331
-5.82592
-6.00634
-6.18446
-6.36092
-6.53586
-6.70961
-6.88214
-7.05368
-7.22457
-7.39475
-7.56459
-7.73363
-7.90198
-8.06979
-8.23707
-8.4037
-8.56976
-8.73521
-8.90001
-9.06427
-9.22786
-9.39113
-9.55355
-9.71535
-9.87659
-10.0373
-10.1975
-10.3573
-10.5165
-10.6753
-10.8336
-10.9915
-11.149
-11.306
-11.4625
-11.6186
-11.7745
-11.9297
-12.0846
-12.2389
-12.393
-12.5465
-12.6998
-12.8527
-13.0052
-13.1573
-13.3091
-13.4605
-13.6116
-13.7624
-13.9129
-14.063
-14.2129
-14.3625
-14.5118
-14.6609
-14.8097
-14.9582
-15.1065
-15.2545
-15.4023
-15.5499
-15.6973
-15.8445
-15.9914
-16.1382
-16.2847
-16.4312
-16.5775
-16.7235
-16.8692
-17.015
-17.1607
-17.3067
-17.4524
-17.5994
-17.746
-17.8983
-18.0477
-18.2228
-0.977039
-1.22517
-1.59183
-1.92533
-2.22703
-2.53033
-2.82972
-3.11193
-3.37632
-3.62671
-3.86448
-4.09013
-4.30605
-4.51374
-4.71505
-4.91167
-5.10454
-5.2945
-5.48179
-5.66669
-5.8493
-6.0297
-6.20785
-6.38432
-6.55929
-6.73303
-6.90558
-7.07714
-7.24806
-7.41825
-7.58807
-7.75711
-7.92548
-8.09328
-8.26057
-8.4272
-8.59326
-8.75871
-8.92352
-9.08782
-9.25146
-9.41457
-9.57702
-9.73882
-9.90009
-10.0608
-10.221
-10.3808
-10.54
-10.6988
-10.8571
-11.0149
-11.1723
-11.3294
-11.4859
-11.642
-11.7978
-11.953
-12.1078
-12.2621
-12.4161
-12.5697
-12.7229
-12.8757
-13.0282
-13.1803
-13.3321
-13.4836
-13.6347
-13.7855
-13.936
-14.0862
-14.2361
-14.3856
-14.5349
-14.6841
-14.8329
-14.9813
-15.1296
-15.2776
-15.4254
-15.573
-15.7204
-15.8676
-16.0145
-16.1613
-16.3078
-16.4544
-16.6006
-16.7467
-16.8924
-17.0381
-17.1838
-17.3298
-17.4754
-17.622
-17.7683
-17.9188
-18.0658
-18.2303
-1.02002
-1.25224
-1.61617
-1.95211
-2.25292
-2.5554
-2.85466
-3.13689
-3.40135
-3.65185
-3.8897
-4.11552
-4.33151
-4.53934
-4.74077
-4.93745
-5.13038
-5.32035
-5.50766
-5.69257
-5.87517
-6.05553
-6.2337
-6.41019
-6.58519
-6.75893
-6.93149
-7.10308
-7.27402
-7.44425
-7.61402
-7.78306
-7.95144
-8.11925
-8.28653
-8.45317
-8.61922
-8.78467
-8.94948
-9.11379
-9.27743
-9.44049
-9.60297
-9.76479
-9.92607
-10.0868
-10.247
-10.4067
-10.566
-10.7247
-10.883
-11.0409
-11.1983
-11.3554
-11.5119
-11.668
-11.8236
-11.9789
-12.1337
-12.288
-12.442
-12.5955
-12.7487
-12.9015
-13.054
-13.2061
-13.3579
-13.5094
-13.6605
-13.8112
-13.9617
-14.1118
-14.2617
-14.4113
-14.5605
-14.7095
-14.8583
-15.0069
-15.1551
-15.3031
-15.4509
-15.5985
-15.7459
-15.8931
-16.04
-16.1868
-16.3333
-16.4798
-16.6262
-16.7722
-16.9179
-17.0637
-17.2094
-17.3552
-17.5008
-17.6471
-17.7928
-17.9413
-18.0854
-18.2386
-1.0572
-1.28143
-1.64401
-1.98139
-2.28167
-2.5837
-2.88292
-3.1651
-3.42962
-3.6802
-3.91809
-4.14401
-4.36003
-4.56793
-4.76942
-4.96615
-5.15912
-5.34911
-5.53643
-5.72137
-5.90396
-6.08427
-6.26247
-6.43897
-6.61399
-6.78772
-6.96029
-7.13188
-7.30285
-7.47311
-7.64282
-7.81187
-7.98027
-8.14809
-8.31535
-8.482
-8.64804
-8.81349
-8.9783
-9.14263
-9.30627
-9.46932
-9.6318
-9.79362
-9.95489
-10.1156
-10.2758
-10.4356
-10.5948
-10.7536
-10.9119
-11.0698
-11.2271
-11.3842
-11.5407
-11.6968
-11.8525
-12.0077
-12.1625
-12.3168
-12.4708
-12.6244
-12.7776
-12.9304
-13.0829
-13.235
-13.3867
-13.5382
-13.6893
-13.8401
-13.9904
-14.1407
-14.2905
-14.4401
-14.5893
-14.7383
-14.8871
-15.0356
-15.1838
-15.3318
-15.4796
-15.6272
-15.7745
-15.9217
-16.0686
-16.2153
-16.3618
-16.5083
-16.6546
-16.8006
-16.9464
-17.0921
-17.2378
-17.3835
-17.529
-17.6748
-17.8198
-17.9662
-18.1069
-18.2487
-1.08455
-1.31073
-1.67443
-2.01173
-2.31189
-2.61409
-2.91339
-3.19543
-3.45995
-3.71059
-3.94846
-4.17437
-4.39037
-4.59826
-4.79977
-4.9965
-5.18948
-5.37947
-5.56678
-5.75175
-5.93432
-6.11458
-6.29277
-6.46928
-6.64431
-6.81803
-6.99058
-7.16217
-7.33318
-7.50345
-7.67312
-7.84217
-8.01058
-8.17841
-8.34567
-8.51232
-8.67836
-8.84381
-9.0086
-9.17296
-9.33661
-9.49964
-9.66211
-9.82394
-9.9852
-10.1459
-10.3062
-10.4659
-10.6251
-10.7839
-10.9422
-11.1001
-11.2574
-11.4145
-11.571
-11.7271
-11.8828
-12.038
-12.1928
-12.3472
-12.5011
-12.6547
-12.8079
-12.9607
-13.1132
-13.2653
-13.4171
-13.5685
-13.7196
-13.8704
-14.0207
-14.171
-14.3208
-14.4704
-14.6196
-14.7686
-14.9174
-15.0659
-15.2141
-15.3621
-15.5099
-15.6574
-15.8048
-15.952
-16.0989
-16.2456
-16.3922
-16.5387
-16.685
-16.831
-16.9767
-17.1224
-17.2681
-17.4137
-17.5591
-17.7045
-17.8488
-17.9928
-18.1302
-18.2622
-1.09934
-1.33738
-1.70448
-2.0402
-2.34068
-2.64363
-2.9431
-3.22493
-3.48941
-3.74009
-3.97787
-4.20368
-4.41961
-4.62741
-4.82886
-5.02556
-5.21852
-5.4085
-5.59578
-5.78078
-5.96332
-6.14352
-6.32169
-6.49821
-6.67325
-6.84695
-7.0195
-7.19106
-7.36212
-7.53239
-7.70203
-7.87107
-8.0395
-8.20733
-8.37459
-8.54124
-8.70727
-8.87272
-9.03748
-9.20189
-9.36553
-9.52853
-9.691
-9.85283
-10.0141
-10.1748
-10.3351
-10.4948
-10.654
-10.8128
-10.9711
-11.129
-11.2863
-11.4435
-11.6
-11.756
-11.9117
-12.0669
-12.2217
-12.3761
-12.53
-12.6836
-12.8368
-12.9896
-13.1421
-13.2942
-13.446
-13.5974
-13.7485
-13.8993
-14.0497
-14.2
-14.3498
-14.4994
-14.6486
-14.7977
-14.9465
-15.095
-15.2432
-15.3913
-15.5391
-15.6866
-15.834
-15.9811
-16.1281
-16.2748
-16.4215
-16.568
-16.7143
-16.8604
-17.0062
-17.1519
-17.2975
-17.4431
-17.5883
-17.7333
-17.8769
-18.019
-18.1534
-18.278
-1.10306
-1.36094
-1.73252
-2.06555
-2.36673
-2.6708
-2.97052
-3.25206
-3.51651
-3.7672
-4.00485
-4.2305
-4.44631
-4.65396
-4.85531
-5.05194
-5.24487
-5.43483
-5.62208
-5.80711
-5.98962
-6.16975
-6.3479
-6.52441
-6.69944
-6.87312
-7.04564
-7.21717
-7.38829
-7.55854
-7.72816
-7.89719
-8.06563
-8.23346
-8.40072
-8.56737
-8.7334
-8.89887
-9.06362
-9.22807
-9.39169
-9.55468
-9.71713
-9.87897
-10.0402
-10.201
-10.3612
-10.5209
-10.6801
-10.8389
-10.9972
-11.155
-11.3125
-11.4696
-11.6261
-11.7822
-11.9378
-12.0931
-12.2479
-12.4023
-12.5563
-12.7099
-12.8631
-13.0159
-13.1684
-13.3205
-13.4723
-13.6238
-13.7749
-13.9257
-14.0763
-14.2265
-14.3764
-14.526
-14.6752
-14.8243
-14.9731
-15.1216
-15.2699
-15.4179
-15.5657
-15.7133
-15.8606
-16.0077
-16.1546
-16.3013
-16.4479
-16.5943
-16.7405
-16.8865
-17.0325
-17.1782
-17.3239
-17.4695
-17.6146
-17.7593
-17.9021
-18.0429
-18.1752
-18.2944
-1.09798
-1.38227
-1.75849
-2.0882
-2.39044
-2.69579
-2.99579
-3.27699
-3.54136
-3.79206
-4.02954
-4.255
-4.47068
-4.67815
-4.87936
-5.07591
-5.26877
-5.45871
-5.64591
-5.83099
-6.01346
-6.19353
-6.37165
-6.54816
-6.72318
-6.89683
-7.06932
-7.24082
-7.41199
-7.58221
-7.75182
-7.92084
-8.08929
-8.25711
-8.42436
-8.59099
-8.75703
-8.92241
-9.08722
-9.25169
-9.4153
-9.5783
-9.74075
-9.90259
-10.0639
-10.2246
-10.3849
-10.5446
-10.7039
-10.8627
-11.021
-11.1788
-11.3364
-11.4935
-11.6501
-11.8062
-11.9619
-12.1171
-12.272
-12.4264
-12.5804
-12.734
-12.8873
-13.0401
-13.1925
-13.3446
-13.4964
-13.6478
-13.799
-13.9497
-14.1003
-14.2505
-14.4003
-14.5499
-14.6992
-14.8483
-14.9971
-15.1456
-15.2939
-15.4419
-15.5897
-15.7373
-15.8846
-16.0318
-16.1788
-16.3256
-16.4723
-16.6189
-16.7652
-16.9112
-17.0569
-17.2026
-17.3482
-17.4936
-17.6386
-17.7832
-17.926
-18.0649
-18.1955
-18.3107
-1.08665
-1.40173
-1.78212
-2.10843
-2.41198
-2.71868
-3.01908
-3.29991
-3.56421
-3.81487
-4.05217
-4.27733
-4.49284
-4.70013
-4.90119
-5.09762
-5.2904
-5.4803
-5.66744
-5.85255
-6.03495
-6.21495
-6.39301
-6.56953
-6.74452
-6.91818
-7.09058
-7.26212
-7.43331
-7.6035
-7.77308
-7.94211
-8.11059
-8.27843
-8.4457
-8.61235
-8.77843
-8.94382
-9.10878
-9.2732
-9.43682
-9.59989
-9.76241
-9.92432
-10.0857
-10.2465
-10.4068
-10.5666
-10.7259
-10.8846
-11.0429
-11.2007
-11.3582
-11.5153
-11.6719
-11.828
-11.9836
-12.1389
-12.2937
-12.4481
-12.6021
-12.7557
-12.909
-13.0618
-13.2142
-13.3663
-13.5181
-13.6695
-13.8206
-13.9714
-14.1219
-14.2721
-14.4219
-14.5715
-14.7208
-14.8698
-15.0186
-15.1671
-15.3153
-15.4633
-15.611
-15.7586
-15.9058
-16.0529
-16.1998
-16.3465
-16.4929
-16.6393
-16.7855
-16.9316
-17.0775
-17.2232
-17.3689
-17.5144
-17.6593
-17.8035
-17.9456
-18.0849
-18.2143
-18.3268
-1.07112
-1.41971
-1.80335
-2.1266
-2.43152
-2.73947
-3.04033
-3.32083
-3.58512
-3.83573
-4.0729
-4.29781
-4.51304
-4.7201
-4.92109
-5.11739
-5.31016
-5.49996
-5.68718
-5.87231
-6.05469
-6.23461
-6.41259
-6.58905
-6.76399
-6.93762
-7.10998
-7.28162
-7.45279
-7.62303
-7.79263
-7.9617
-8.13028
-8.29824
-8.46561
-8.63235
-8.79851
-8.96399
-9.12896
-9.2933
-9.45688
-9.61992
-9.78242
-9.94432
-10.1056
-10.2664
-10.4267
-10.5865
-10.7458
-10.9045
-11.0628
-11.2206
-11.3782
-11.5352
-11.6918
-11.8479
-12.0036
-12.1588
-12.3137
-12.4681
-12.6221
-12.7757
-12.9289
-13.0817
-13.2342
-13.3863
-13.5381
-13.6896
-13.8407
-13.9915
-14.142
-14.2922
-14.4421
-14.5917
-14.741
-14.89
-15.0388
-15.1874
-15.3356
-15.4837
-15.6315
-15.7791
-15.9265
-16.0737
-16.2207
-16.3675
-16.5142
-16.6608
-16.8071
-16.9531
-17.0989
-17.2445
-17.3901
-17.5355
-17.6804
-17.8247
-17.9664
-18.1035
-18.2319
-18.3424
-1.05238
-1.4364
-1.8224
-2.14345
-2.4497
-2.75855
-3.05963
-3.33963
-3.6039
-3.8543
-4.09114
-4.3163
-4.53106
-4.73775
-4.93851
-5.13461
-5.32725
-5.51689
-5.70416
-5.88917
-6.07155
-6.25154
-6.42965
-6.60629
-6.78139
-6.95512
-7.12766
-7.29944
-7.47067
-7.64098
-7.81054
-7.97949
-8.14799
-8.31588
-8.48318
-8.64986
-8.81596
-8.98138
-9.14629
-9.31059
-9.47416
-9.63715
-9.79958
-9.96141
-10.1227
-10.2834
-10.4437
-10.6034
-10.7627
-10.9214
-11.0797
-11.2374
-11.3949
-11.5519
-11.7084
-11.8645
-12.0201
-12.1753
-12.3301
-12.4845
-12.6384
-12.792
-12.9452
-13.0979
-13.2503
-13.4024
-13.5541
-13.7055
-13.8566
-14.0073
-14.1578
-14.3079
-14.4577
-14.6072
-14.7565
-14.9054
-15.0541
-15.2026
-15.3508
-15.4988
-15.6465
-15.794
-15.9413
-16.0884
-16.2352
-16.3819
-16.5284
-16.6747
-16.821
-16.967
-17.1128
-17.2585
-17.4041
-17.5496
-17.6944
-17.8386
-17.9806
-18.1189
-18.2471
-18.3569
-1.03152
-1.45074
-1.83799
-2.1584
-2.46658
-2.77703
-3.07845
-3.35797
-3.62226
-3.87253
-4.10911
-4.33454
-4.54897
-4.75552
-4.95629
-5.15251
-5.34534
-5.53533
-5.72291
-5.90816
-6.09074
-6.27079
-6.44898
-6.62561
-6.80063
-6.97414
-7.14647
-7.31814
-7.4893
-7.65958
-7.82915
-7.99814
-8.16666
-8.33457
-8.50189
-8.6686
-8.83472
-9.00018
-9.16511
-9.32942
-9.49302
-9.65602
-9.81842
-9.98026
-10.1416
-10.3023
-10.4626
-10.6224
-10.7816
-10.9404
-11.0987
-11.2565
-11.414
-11.5711
-11.7276
-11.8837
-12.0394
-12.1946
-12.3495
-12.5039
-12.6579
-12.8115
-12.9647
-13.1175
-13.2699
-13.422
-13.5738
-13.7253
-13.8764
-14.0272
-14.1777
-14.3279
-14.4778
-14.6273
-14.7766
-14.9256
-15.0744
-15.2229
-15.3712
-15.5192
-15.667
-15.8146
-15.9619
-16.1091
-16.2561
-16.4028
-16.5495
-16.6959
-16.8422
-16.9883
-17.1341
-17.2798
-17.4253
-17.5708
-17.7156
-17.8597
-18.0011
-18.1379
-18.2647
-18.373
-1.01692
-1.46531
-1.85023
-2.16795
-2.47694
-2.78917
-3.09111
-3.37008
-3.63454
-3.88481
-4.12128
-4.34632
-4.56057
-4.76701
-4.96767
-5.16378
-5.35649
-5.54635
-5.73381
-5.91889
-6.10116
-6.2808
-6.45878
-6.63521
-6.8101
-6.9835
-7.15563
-7.32719
-7.49826
-7.66846
-7.83796
-8.00685
-8.17529
-8.34312
-8.51036
-8.677
-8.84304
-9.00844
-9.17329
-9.33755
-9.50108
-9.66403
-9.82639
-9.98818
-10.1494
-10.3101
-10.4704
-10.6301
-10.7893
-10.948
-11.1063
-11.264
-11.4215
-11.5785
-11.735
-11.8911
-12.0467
-12.2019
-12.3567
-12.511
-12.665
-12.8186
-12.9717
-13.1245
-13.2769
-13.4289
-13.5807
-13.7321
-13.8832
-14.0339
-14.1844
-14.3346
-14.4844
-14.6339
-14.7831
-14.9321
-15.0808
-15.2293
-15.3775
-15.5255
-15.6733
-15.8208
-15.9681
-16.1152
-16.2621
-16.4089
-16.5554
-16.7018
-16.848
-16.9941
-17.1399
-17.2856
-17.4311
-17.5766
-17.7214
-17.8655
-18.0073
-18.1449
-18.2721
-18.3809
-0.986444
-1.48014
-1.87384
-2.1921
-2.50128
-2.81403
-3.11672
-3.39474
-3.65951
-3.90989
-4.14625
-4.37111
-4.58515
-4.7913
-4.99169
-5.18757
-5.3801
-5.56981
-5.75718
-5.94218
-6.12448
-6.30418
-6.48213
-6.65854
-6.83338
-7.00676
-7.1789
-7.35042
-7.52143
-7.6916
-7.86107
-8.02996
-8.19838
-8.3662
-8.53344
-8.70007
-8.86612
-9.03152
-9.19638
-9.36063
-9.52418
-9.68712
-9.84949
-10.0113
-10.1725
-10.3333
-10.4935
-10.6532
-10.8124
-10.9712
-11.1294
-11.2872
-11.4446
-11.6017
-11.7582
-11.9142
-12.0699
-12.2251
-12.3799
-12.5343
-12.6882
-12.8418
-12.995
-13.1477
-13.3001
-13.4522
-13.604
-13.7554
-13.9065
-14.0572
-14.2077
-14.3579
-14.5077
-14.6572
-14.8065
-14.9555
-15.1042
-15.2527
-15.4009
-15.5489
-15.6967
-15.8442
-15.9915
-16.1386
-16.2856
-16.4323
-16.5789
-16.7253
-16.8715
-17.0176
-17.1634
-17.309
-17.4546
-17.6
-17.7448
-17.8889
-18.0305
-18.1678
-18.2948
-18.4031
-18.175
-18.4405
-19.178
-19.3028
-18.7612
-17.6781
-16.2186
-14.5152
-12.7548
-11.0327
-9.43918
-8.00232
-6.73825
-5.64163
-4.69904
-3.89057
-3.19875
-2.60382
-2.09033
-1.64624
-1.25981
-0.92118
-0.623614
-0.361099
-0.12826
0.0795566
0.265071
0.430583
0.578826
0.712006
0.83242
0.940643
1.03645
1.12159
1.19729
1.26434
1.32349
1.37548
1.42084
1.46013
1.49385
1.52244
1.54623
1.5657
1.58125
1.59293
1.60122
1.60636
1.60849
1.60773
1.60434
1.59836
1.58994
1.57914
1.56609
1.5508
1.53335
1.51371
1.49215
1.46887
1.4438
1.41703
1.38867
1.35896
1.32811
1.29643
1.2641
1.23132
1.19826
1.16511
1.13192
1.09873
1.06552
1.0323
0.998933
0.965553
0.932121
0.898567
0.864627
0.830395
0.795741
0.760711
0.725628
0.690623
0.655429
0.620247
0.58468
0.54824
0.511036
0.472941
0.433865
0.395849
0.357696
0.319127
0.278632
0.235885
0.190221
0.146574
0.0828952
0.0519802
-18.2165
-18.3676
-19.0716
-19.2132
-18.6837
-17.621
-16.1836
-14.4999
-12.7551
-11.0444
-9.4593
-8.02713
-6.76553
-5.66993
-4.72715
-3.91778
-3.22442
-2.62774
-2.1125
-1.66671
-1.27879
-0.938908
-0.640243
-0.376645
-0.142946
0.0654925
0.251453
0.417417
0.565831
0.699058
0.818671
0.92673
1.02265
1.10787
1.18365
1.25077
1.31
1.36206
1.40748
1.44683
1.48061
1.50925
1.5331
1.55262
1.56817
1.57992
1.58825
1.59341
1.59554
1.59477
1.59137
1.58535
1.57687
1.56601
1.55288
1.53749
1.51993
1.50018
1.47853
1.45514
1.42999
1.40315
1.37475
1.345
1.31415
1.28247
1.25016
1.21741
1.1844
1.15132
1.11822
1.08513
1.05202
1.01891
0.985641
0.95238
0.919043
0.885569
0.851685
0.817522
0.782957
0.748009
0.713002
0.678087
0.642987
0.607943
0.572545
0.536261
0.499222
0.461292
0.42221
0.384149
0.345949
0.307403
0.26712
0.22465
0.180075
0.13751
0.0775291
0.0472702
-18.2112
-18.3749
-18.9966
-19.1215
-18.5968
-17.5516
-16.1368
-14.4751
-12.7497
-11.0546
-9.48008
-8.05492
-6.79766
-5.70362
-4.76046
-3.94983
-3.25455
-2.65582
-2.13862
-1.69093
-1.30133
-0.959936
-0.65993
-0.395076
-0.160308
0.0490057
0.235648
0.402402
0.551327
0.685131
0.804164
0.911352
1.00724
1.09257
1.16847
1.2357
1.29502
1.34718
1.39268
1.4321
1.46595
1.49467
1.51858
1.53816
1.55371
1.56554
1.57393
1.57915
1.58126
1.58049
1.57707
1.57101
1.56247
1.55153
1.5383
1.52279
1.50511
1.48524
1.46346
1.43996
1.4147
1.38777
1.35932
1.32953
1.29866
1.26697
1.23468
1.20199
1.16905
1.13607
1.10306
1.07009
1.0371
1.0041
0.970942
0.937816
0.904573
0.871192
0.837373
0.803287
0.768805
0.733954
0.699029
0.664211
0.629217
0.594318
0.559124
0.523005
0.486145
0.448391
0.409407
0.371176
0.332968
0.294443
0.254347
0.212242
0.168919
0.127499
0.0718816
0.0417929
-18.2368
-18.3948
-18.9345
-19.0379
-18.508
-17.4761
-16.0818
-14.4453
-12.7409
-11.064
-9.50193
-8.08577
-6.83411
-5.74215
-4.79869
-3.98669
-3.28939
-2.68872
-2.16957
-1.71964
-1.32793
-0.984637
-0.682949
-0.416617
-0.180562
0.0298471
0.217363
0.384995
0.534552
0.669027
0.787954
0.89416
0.990005
1.07552
1.15157
1.21894
1.27839
1.33067
1.37628
1.4158
1.44974
1.47853
1.50253
1.52218
1.5378
1.54968
1.55813
1.56341
1.56551
1.56479
1.56134
1.55521
1.5466
1.53557
1.52222
1.50658
1.48875
1.46873
1.44681
1.42316
1.39778
1.37074
1.34221
1.31238
1.28148
1.2498
1.21754
1.18493
1.15207
1.11919
1.08628
1.05346
1.02059
0.98772
0.954677
0.921706
0.888562
0.855291
0.82155
0.787551
0.753142
0.718399
0.683565
0.648862
0.614013
0.579224
0.544239
0.50833
0.471675
0.43411
0.395302
0.356828
0.318606
0.280102
0.240176
0.19853
0.156628
0.116481
0.0658271
0.0356231
-18.2564
-18.4055
-18.872
-18.9526
-18.421
-17.4005
-16.0241
-14.4146
-12.7325
-11.0757
-9.52795
-8.12193
-6.87602
-5.78652
-4.84312
-4.0298
-3.33036
-2.72741
-2.20592
-1.75328
-1.35901
-1.01347
-0.709801
-0.441777
-0.204268
0.00735043
0.195836
0.364288
0.514489
0.649438
0.768676
0.874637
0.970683
1.05645
1.13271
1.20028
1.2599
1.31233
1.35807
1.39772
1.43177
1.46066
1.48477
1.50453
1.52024
1.5322
1.54071
1.54602
1.54814
1.54748
1.54399
1.5378
1.52913
1.51802
1.5045
1.48868
1.47068
1.45049
1.42838
1.40456
1.37903
1.35187
1.32324
1.29337
1.26246
1.2308
1.19859
1.16603
1.13325
1.10048
1.0677
1.03504
1.0023
0.969585
0.936676
0.903878
0.870846
0.837704
0.804058
0.770154
0.735824
0.701178
0.666454
0.631886
0.597241
0.562597
0.527643
0.492068
0.455658
0.418305
0.379698
0.341048
0.302698
0.264214
0.224448
0.183369
0.143069
0.104366
0.0592664
0.0287557
-18.274
-18.4134
-18.806
-18.8582
-18.3269
-17.3188
-15.9649
-14.3852
-12.7272
-11.0922
-9.56019
-8.16567
-6.92608
-5.8395
-4.8963
-4.08141
-3.37925
-2.77304
-2.24832
-1.79252
-1.39533
-1.04727
-0.741365
-0.471418
-0.232265
-0.0192915
0.170315
0.339639
0.490637
0.626047
0.746034
0.852556
0.948977
1.03506
1.11161
1.17943
1.23929
1.29192
1.33784
1.37765
1.41184
1.44087
1.46511
1.485
1.50084
1.5129
1.52149
1.52684
1.52901
1.52834
1.52483
1.5186
1.50987
1.49866
1.48496
1.46894
1.45073
1.43031
1.40798
1.38397
1.35827
1.33096
1.30223
1.27234
1.2414
1.20974
1.17756
1.14508
1.11239
1.07977
1.04714
1.01463
0.982044
0.949505
0.916754
0.884146
0.851246
0.81825
0.784726
0.750921
0.716672
0.682119
0.647523
0.613094
0.578656
0.544244
0.509279
0.474077
0.437925
0.400814
0.362414
0.323697
0.285085
0.246591
0.206989
0.166612
0.128033
0.0910713
0.0520951
0.0211781
-18.2901
-18.4175
-18.7359
-18.7546
-18.2233
-17.2283
-15.899
-14.3515
-12.7223
-11.1123
-9.59862
-8.21759
-6.98551
-5.90201
-4.95891
-4.14209
-3.43658
-2.82638
-2.29765
-1.8381
-1.43749
-1.08648
-0.777967
-0.505775
-0.26469
-0.0501625
0.140803
0.311214
0.463264
0.599358
0.720276
0.827649
0.92453
1.01101
1.08795
1.15612
1.21627
1.26917
1.31532
1.35534
1.38971
1.4189
1.44332
1.46337
1.47937
1.49157
1.50026
1.50567
1.5079
1.50723
1.5037
1.49743
1.48859
1.47724
1.46337
1.44716
1.42869
1.40798
1.38539
1.36118
1.33532
1.30786
1.27898
1.249
1.21803
1.1864
1.15424
1.12185
1.0893
1.05684
1.02437
0.992017
0.959609
0.927269
0.894708
0.862304
0.829566
0.796734
0.763367
0.72965
0.695471
0.661047
0.626582
0.592283
0.558035
0.523849
0.489092
0.454201
0.41831
0.381456
0.343272
0.30453
0.265613
0.227052
0.18763
0.14812
0.111298
0.0764753
0.0441624
0.0128698
-18.3048
-18.417
-18.6626
-18.6434
-18.1118
-17.1312
-15.8274
-14.313
-12.7147
-11.1316
-9.63843
-8.27265
-7.04968
-5.96864
-5.02567
-4.20741
-3.49903
-2.8852
-2.35248
-1.88902
-1.48464
-1.13029
-0.818768
-0.544021
-0.30073
-0.0847588
0.107611
0.27925
0.432481
0.569429
0.691301
0.799626
0.897076
0.984079
1.06151
1.1301
1.19061
1.24381
1.29023
1.3305
1.36508
1.39448
1.41911
1.43938
1.45557
1.46794
1.47677
1.48228
1.48458
1.48394
1.4804
1.47407
1.46512
1.45359
1.43952
1.42313
1.40437
1.38335
1.36046
1.33593
1.30982
1.28218
1.25319
1.2231
1.19209
1.1605
1.12841
1.09611
1.06373
1.03143
0.999129
0.96696
0.934768
0.902649
0.870317
0.838131
0.805597
0.772946
0.739759
0.706095
0.67202
0.637767
0.603423
0.569259
0.535202
0.501246
0.466822
0.432215
0.396603
0.360042
0.322084
0.283241
0.24412
0.205402
0.166195
0.127722
0.0927428
0.060346
0.0352354
0.00379634
-18.3185
-18.4133
-18.5879
-18.5263
-17.9932
-17.0282
-15.7513
-14.2687
-12.7013
-11.1455
-9.67422
-8.32528
-7.11278
-6.03727
-5.09619
-4.27705
-3.56587
-2.94834
-2.41159
-1.94426
-1.53624
-1.17866
-0.864222
-0.586946
-0.341416
-0.12362
0.0703925
0.243492
0.398053
0.536055
0.658971
0.768351
0.866502
0.954115
1.03208
1.10113
1.16203
1.21557
1.2623
1.30286
1.3377
1.36735
1.39225
1.4128
1.42925
1.44184
1.45084
1.45649
1.45889
1.45829
1.45477
1.44839
1.43929
1.42757
1.41322
1.39647
1.3773
1.35597
1.33278
1.30793
1.28151
1.25368
1.22456
1.19439
1.16337
1.1318
1.0998
1.06761
1.03539
1.00328
0.971184
0.939217
0.907282
0.87541
0.843348
0.81141
0.779106
0.746658
0.713596
0.680028
0.646147
0.612045
0.577822
0.54381
0.50996
0.476265
0.442194
0.407896
0.372593
0.336367
0.298603
0.259609
0.220378
0.181418
0.142484
0.105208
0.0723182
0.0422682
0.0249337
-0.00610545
-18.3315
-18.4068
-18.5133
-18.4055
-17.8683
-16.9191
-15.6692
-14.2218
-12.689
-11.1627
-9.71428
-8.38235
-7.17999
-6.11143
-5.17232
-4.35177
-3.63732
-3.0157
-2.47462
-2.00313
-1.59128
-1.2303
-0.912891
-0.633072
-0.385406
-0.165476
0.0301142
0.204453
0.360114
0.49905
0.622925
0.733311
0.832163
0.920369
0.9989
1.06845
1.12981
1.18379
1.23092
1.27185
1.30703
1.337
1.36224
1.38314
1.39991
1.41278
1.42201
1.42782
1.43035
1.42981
1.4263
1.41987
1.41065
1.39872
1.38408
1.36685
1.34727
1.32555
1.30201
1.27683
1.25015
1.2221
1.19282
1.16258
1.13154
1.10001
1.06811
1.03604
1.00404
0.972137
0.940285
0.90855
0.87692
0.845338
0.81356
0.781918
0.749849
0.717477
0.684658
0.651305
0.617623
0.583635
0.549549
0.515712
0.482098
0.448698
0.414995
0.38105
0.346079
0.310247
0.27256
0.233488
0.194108
0.154842
0.116255
0.0803865
0.0496862
0.0217851
0.012757
-0.0170146
-18.3437
-18.3999
-18.4479
-18.2962
-17.7535
-16.8197
-15.5948
-14.1822
-12.683
-11.1846
-9.75771
-8.44132
-7.24836
-6.18427
-5.24582
-4.42366
-3.70623
-3.08098
-2.53606
-2.06087
-1.64559
-1.28149
-0.961356
-0.679154
-0.429486
-0.207737
-0.0106062
0.164949
0.321635
0.461372
0.586026
0.697211
0.796605
0.885192
0.964096
1.034
1.09574
1.15016
1.19769
1.23902
1.27456
1.30487
1.33049
1.35178
1.36891
1.38209
1.39157
1.39758
1.40025
1.39979
1.39629
1.38978
1.38041
1.36824
1.35329
1.33568
1.31569
1.29355
1.26961
1.24407
1.2171
1.18882
1.15939
1.12907
1.09805
1.06659
1.03482
1.00291
0.971142
0.939507
0.907924
0.876463
0.84517
0.813918
0.782404
0.750861
0.719169
0.686923
0.654447
0.621324
0.587765
0.553898
0.519972
0.486338
0.452986
0.419905
0.386589
0.353023
0.318391
0.282957
0.245307
0.206131
0.166489
0.12687
0.088828
0.054277
0.0254923
-0.000502542
-0.00127216
-0.028762
-18.3561
-18.3962
-18.4003
-18.2129
-17.6648
-16.7439
-15.5402
-14.1537
-12.68
-11.2036
-9.79432
-8.49107
-7.30631
-6.24637
-5.30921
-4.48634
-3.76675
-3.13859
-2.59051
-2.11231
-1.69422
-1.32758
-1.00525
-0.721196
-0.469971
-0.246865
-0.0484447
0.128167
0.285758
0.426176
0.551511
0.663332
0.763351
0.852711
0.932154
1.00238
1.06438
1.11905
1.16684
1.20846
1.24423
1.27477
1.30067
1.32227
1.33969
1.3531
1.36277
1.36892
1.3717
1.37127
1.36774
1.36114
1.35159
1.33917
1.32391
1.3059
1.28548
1.26292
1.23859
1.21272
1.18548
1.157
1.12748
1.09714
1.06617
1.03482
1.00322
0.97151
0.940012
0.908518
0.877377
0.8462
0.815245
0.784037
0.752927
0.721489
0.690157
0.658217
0.625946
0.592968
0.559528
0.5258
0.492046
0.45863
0.425555
0.392799
0.359865
0.326654
0.292383
0.257158
0.219595
0.180098
0.140106
0.100207
0.0631451
0.0288095
0.00177763
-0.0228621
-0.0162585
-0.0406159
-18.3686
-18.3965
-18.3694
-18.1553
-17.6023
-16.6908
-15.5024
-14.1349
-12.6806
-11.2214
-9.82596
-8.53287
-7.35453
-6.29788
-5.36175
-4.53833
-3.81707
-3.18665
-2.63611
-2.15559
-1.73533
-1.36674
-1.04268
-0.757195
-0.504704
-0.280556
-0.0813288
0.0959709
0.254148
0.394978
0.52074
0.632978
0.733399
0.8234
0.903337
0.974068
1.03657
1.09152
1.13952
1.18138
1.21733
1.24805
1.27414
1.29597
1.31357
1.32713
1.33691
1.34314
1.34596
1.34552
1.34191
1.33517
1.32543
1.31276
1.29718
1.2788
1.25798
1.23504
1.21037
1.18421
1.15678
1.12819
1.09864
1.06834
1.03748
1.00629
0.974873
0.943379
0.912165
0.880983
0.85013
0.819164
0.788314
0.757274
0.726548
0.695414
0.66428
0.632545
0.600435
0.567585
0.534274
0.500679
0.467101
0.433903
0.401112
0.368673
0.336109
0.303193
0.269275
0.234013
0.196468
0.156438
0.116039
0.0765201
0.0396185
0.00491015
-0.0204866
-0.0442846
-0.031464
-0.0521884
-18.3816
-18.4004
-18.3513
-18.1177
-17.5607
-16.6561
-15.4791
-14.1255
-12.6857
-11.2395
-9.85433
-8.56871
-7.39521
-6.34102
-5.40561