/*--------------------------------*- C++ -*----------------------------------*\
| =========                 |                                                 |
| \\      /  F ield         | OpenFOAM: The Open Source CFD Toolbox           |
|  \\    /   O peration     | Version:  v2012                                 |
|   \\  /    A nd           | Website:  www.openfoam.com                      |
|    \\/     M anipulation  |                                                 |
\*---------------------------------------------------------------------------*/
FoamFile
{
    version     2.0;
    format      ascii;
    class       surfaceScalarField;
    location    "0.261";
    object      phi.air;
}
// * * * * * * * * * * * * * * * * * * * * * * * * * * * * * * * * * * * * * //

dimensions      [0 3 -1 0 0 0 0];
oriented        oriented;


internalField   nonuniform List<scalar> 
10964
(
0.000657106
2.51272e-05
0.000628903
2.73618e-05
0.000601315
2.67441e-05
0.00057502
2.54493e-05
0.000551123
2.30495e-05
0.000530162
2.01108e-05
0.00051251
1.68007e-05
0.000497905
1.37521e-05
0.000485916
1.1136e-05
0.000476273
8.78826e-06
0.000468664
6.75399e-06
0.000462715
5.0941e-06
0.000458066
3.79372e-06
0.000454431
2.77899e-06
0.000451531
2.04368e-06
0.000449191
1.48481e-06
0.00044725
1.08488e-06
0.000445614
7.80198e-07
0.000444195
5.62982e-07
0.000442977
3.61448e-07
0.000441921
2.00244e-07
0.000441019
4.62646e-08
0.000440277
-1.14703e-07
0.000439661
-2.39196e-07
0.000439158
-3.52971e-07
0.000438739
-4.36694e-07
0.000438397
-5.14061e-07
0.000438103
-5.62208e-07
0.00043785
-6.02226e-07
0.000437611
-6.16878e-07
0.000437377
-6.21509e-07
0.000437143
-6.2121e-07
0.000436906
-6.19216e-07
0.000436673
-6.22293e-07
0.000436437
-6.1976e-07
0.000436208
-6.25943e-07
0.000435981
-6.29083e-07
0.000435761
-6.35399e-07
0.000435549
-6.43284e-07
0.000435345
-6.51491e-07
0.000435152
-6.62708e-07
0.00043497
-6.73915e-07
0.000434797
-6.82244e-07
0.000434641
-6.9982e-07
0.000434499
-7.12984e-07
0.000434371
-7.27495e-07
0.000434257
-7.42099e-07
0.000434155
-7.53647e-07
0.000434058
-7.58564e-07
0.000433972
-7.68984e-07
0.000433896
-7.79176e-07
0.000433827
-7.86838e-07
0.000433763
-7.91713e-07
0.000433709
-8.01457e-07
0.000433661
-8.07713e-07
0.000433625
-8.1889e-07
0.000433595
-8.25671e-07
0.000433574
-8.34549e-07
0.000433565
-8.46606e-07
0.000433564
-8.54405e-07
0.000433569
-8.60505e-07
0.000433586
-8.71702e-07
0.000433607
-8.76945e-07
0.000433638
-8.86391e-07
0.000433675
-8.92671e-07
0.000433723
-9.02588e-07
0.000433775
-9.07963e-07
0.000433838
-9.1769e-07
0.000433904
-9.21277e-07
0.000433979
-9.31196e-07
0.00043406
-9.35567e-07
0.00043415
-9.45075e-07
0.000434243
-9.48994e-07
0.000434345
-9.56643e-07
0.000434452
-9.62296e-07
0.000434566
-9.69023e-07
0.000434685
-9.74276e-07
0.00043481
-9.8021e-07
0.00043494
-9.85959e-07
0.000435076
-9.91098e-07
0.000435218
-9.9684e-07
0.000435361
-9.98498e-07
0.000435512
-1.0055e-06
0.00043566
-1.00344e-06
0.000435818
-1.01249e-06
0.00043597
-1.00736e-06
0.00043614
-1.02474e-06
0.000436294
-1.00877e-06
0.00043649
-1.05148e-06
0.00043665
-1.01447e-06
0.000436865
-1.07012e-06
0.000437019
-1.0094e-06
0.00043724
-1.07543e-06
0.000437363
-9.77927e-07
0.000437649
-1.14064e-06
0.000437749
-9.54638e-07
0.000438161
-1.26745e-06
0.000438875
-1.56732e-06
0.000437472
5.46161e-07
-1.1102e-05
0.000447722
0.000757086
2.43218e-05
0.000754878
2.95696e-05
0.000751203
3.04193e-05
0.000745927
3.07251e-05
0.000739362
2.96147e-05
0.00073183
2.76423e-05
0.000723578
2.50531e-05
0.000714964
2.23658e-05
0.000706313
1.97875e-05
0.000697785
1.73161e-05
0.000689583
1.49552e-05
0.000681838
1.28395e-05
0.000674611
1.10206e-05
0.000667975
9.41552e-06
0.000661917
8.10116e-06
0.000656454
6.94749e-06
0.000651543
5.9966e-06
0.000647164
5.15933e-06
0.000643279
4.44769e-06
0.000639872
3.76811e-06
0.000636905
3.16789e-06
0.000634312
2.63924e-06
0.000632008
2.18907e-06
0.000629933
1.83553e-06
0.00062808
1.49989e-06
0.000626415
1.22862e-06
0.000624893
1.00816e-06
0.000623476
8.54394e-07
0.000622156
7.17966e-07
0.000620925
6.13978e-07
0.000619779
5.24561e-07
0.000618715
4.42506e-07
0.000617736
3.60413e-07
0.00061683
2.83658e-07
0.000615992
2.17921e-07
0.000615215
1.5134e-07
0.000614495
9.10074e-08
0.000613825
3.38336e-08
0.000613205
-2.25907e-08
0.000612629
-7.6166e-08
0.000612099
-1.31894e-07
0.000611607
-1.81954e-07
0.000611153
-2.2885e-07
0.000610736
-2.82207e-07
0.000610349
-3.2619e-07
0.000609989
-3.676e-07
0.000609654
-4.06783e-07
0.000609341
-4.41138e-07
0.00060905
-4.67095e-07
0.000608779
-4.98809e-07
0.000608528
-5.28164e-07
0.000608298
-5.56329e-07
0.000608085
-5.79172e-07
0.000607892
-6.0824e-07
0.000607717
-6.32603e-07
0.000607562
-6.63329e-07
0.000607422
-6.86422e-07
0.0006073
-7.12339e-07
0.000607195
-7.41419e-07
0.000607106
-7.65428e-07
0.000607032
-7.86416e-07
0.000606974
-8.14167e-07
0.000606929
-8.32109e-07
0.000606898
-8.55413e-07
0.000606882
-8.76285e-07
0.000606877
-8.97958e-07
0.000606884
-9.14359e-07
0.000606903
-9.36382e-07
0.000606932
-9.50447e-07
0.000606975
-9.74052e-07
0.000607027
-9.87901e-07
0.000607092
-1.01014e-06
0.000607166
-1.02278e-06
0.000607251
-1.04142e-06
0.000607345
-1.05654e-06
0.00060745
-1.074e-06
0.000607563
-1.08725e-06
0.000607685
-1.1021e-06
0.000607813
-1.11473e-06
0.000607951
-1.1284e-06
0.000608093
-1.13951e-06
0.000608245
-1.15016e-06
0.0006084
-1.16086e-06
0.000608567
-1.16978e-06
0.000608732
-1.1777e-06
0.000608914
-1.18963e-06
0.000609089
-1.19993e-06
0.00060929
-1.20901e-06
0.000609472
-1.23392e-06
0.000609691
-1.23382e-06
0.00060988
-1.25845e-06
0.000610118
-1.24789e-06
0.000610296
-1.2528e-06
0.000610581
-1.26343e-06
0.000610731
-1.29036e-06
0.000611149
-1.37259e-06
0.000611274
-1.39253e-06
0.00061198
-2.27385e-06
0.000612207
3.19162e-07
-1.51018e-05
0.000616207
0.000840343
2.13121e-05
0.000842331
2.75813e-05
0.000844302
2.84484e-05
0.000845633
2.93938e-05
0.000846215
2.90332e-05
0.000845983
2.7874e-05
0.000845036
2.60005e-05
0.000843327
2.40743e-05
0.0008409
2.22148e-05
0.000837775
2.04413e-05
0.00083402
1.87096e-05
0.000829708
1.71518e-05
0.000824934
1.5795e-05
0.000819824
1.4525e-05
0.000814504
1.34216e-05
0.000809101
1.23502e-05
0.000803702
1.13952e-05
0.000798453
1.0409e-05
0.000793423
9.47788e-06
0.00078868
8.51065e-06
0.00078426
7.58831e-06
0.000780181
6.7183e-06
0.000776461
5.90818e-06
0.000773063
5.23436e-06
0.00076997
4.59245e-06
0.00076715
4.04881e-06
0.000764559
3.59934e-06
0.000762169
3.24453e-06
0.000759967
2.91941e-06
0.000757946
2.63558e-06
0.00075609
2.37995e-06
0.000754387
2.14547e-06
0.00075283
1.91761e-06
0.000751392
1.72129e-06
0.00075007
1.54064e-06
0.000748843
1.37752e-06
0.000747712
1.2223e-06
0.000746666
1.08036e-06
0.000745697
9.46378e-07
0.000744803
8.1731e-07
0.000743979
6.92704e-07
0.000743216
5.80802e-07
0.000742515
4.71785e-07
0.000741859
3.7389e-07
0.000741242
2.90719e-07
0.000740662
2.12685e-07
0.000740117
1.3769e-07
0.000739609
6.75698e-08
0.000739135
7.01221e-09
0.000738694
-5.80395e-08
0.000738284
-1.18243e-07
0.000737906
-1.78413e-07
0.000737558
-2.31101e-07
0.00073724
-2.89882e-07
0.00073695
-3.42687e-07
0.000736687
-4.01041e-07
0.00073645
-4.48889e-07
0.000736237
-4.99633e-07
0.000736047
-5.51345e-07
0.00073588
-5.98052e-07
0.000735733
-6.40055e-07
0.000735608
-6.89132e-07
0.000735502
-7.25588e-07
0.000735413
-7.67101e-07
0.000735342
-8.05191e-07
0.000735289
-8.44326e-07
0.000735251
-8.76758e-07
0.000735229
-9.14614e-07
0.000735226
-9.467e-07
0.000735235
-9.83041e-07
0.000735258
-1.01116e-06
0.000735297
-1.04923e-06
0.000735349
-1.07493e-06
0.000735415
-1.10721e-06
0.000735493
-1.13497e-06
0.000735585
-1.16561e-06
0.000735686
-1.18873e-06
0.000735798
-1.21383e-06
0.000735918
-1.23491e-06
0.000736048
-1.2582e-06
0.000736185
-1.27644e-06
0.000736333
-1.29833e-06
0.000736487
-1.31498e-06
0.000736655
-1.33777e-06
0.000736825
-1.34695e-06
0.000737013
-1.37778e-06
0.000737196
-1.38317e-06
0.000737405
-1.41828e-06
0.000737598
-1.42629e-06
0.00073783
-1.46615e-06
0.000738034
-1.46294e-06
0.000738282
-1.49556e-06
0.000738494
-1.46418e-06
0.000738779
-1.54909e-06
0.000738991
-1.50259e-06
0.000739363
-1.74446e-06
0.000739598
-1.62748e-06
0.000740225
-2.90073e-06
0.000741388
-8.43306e-07
-1.57576e-05
0.000742043
0.000930296
1.8089e-05
0.000933076
2.48007e-05
0.000936233
2.52922e-05
0.000939318
2.63087e-05
0.000942131
2.62203e-05
0.000944658
2.53465e-05
0.000946787
2.38716e-05
0.000948507
2.23544e-05
0.000949818
2.09035e-05
0.000950709
1.9551e-05
0.000951153
1.82648e-05
0.000951124
1.71809e-05
0.000950715
1.62045e-05
0.000949888
1.53515e-05
0.000948629
1.46811e-05
0.000946927
1.40519e-05
0.000944793
1.35292e-05
0.00094222
1.29819e-05
0.000939243
1.2455e-05
0.000935891
1.18623e-05
0.00093221
1.12697e-05
0.000928297
1.06317e-05
0.000924254
9.95062e-06
0.00092021
9.27821e-06
0.000916217
8.58588e-06
0.000912367
7.89833e-06
0.000908724
7.24312e-06
0.000905325
6.64322e-06
0.000902173
6.07079e-06
0.000899261
5.5476e-06
0.000896577
5.06445e-06
0.00089409
4.63193e-06
0.000891768
4.23996e-06
0.000889588
3.90115e-06
0.000887557
3.57173e-06
0.000885658
3.27663e-06
0.00088389
2.99016e-06
0.000882251
2.71914e-06
0.000880726
2.47175e-06
0.000879317
2.2262e-06
0.000878018
1.99227e-06
0.000876811
1.78707e-06
0.000875695
1.58785e-06
0.000874655
1.41383e-06
0.000873688
1.25799e-06
0.000872786
1.11501e-06
0.000871945
9.78492e-07
0.000871161
8.51046e-07
0.000870433
7.35753e-07
0.000869756
6.18685e-07
0.000869128
5.09564e-07
0.000868548
4.0182e-07
0.000868013
3.03373e-07
0.000867521
2.02541e-07
0.000867072
1.06719e-07
0.000866661
9.58461e-09
0.000866285
-7.26647e-08
0.000865941
-1.55866e-07
0.000865629
-2.39558e-07
0.000865346
-3.15095e-07
0.000865091
-3.84629e-07
0.000864863
-4.61333e-07
0.00086466
-5.22263e-07
0.000864481
-5.88121e-07
0.000864324
-6.48666e-07
0.000864191
-7.10782e-07
0.000864078
-7.64539e-07
0.000863988
-8.23921e-07
0.000863918
-8.77211e-07
0.000863869
-9.33823e-07
0.000863842
-9.84227e-07
0.000863832
-1.03889e-06
0.000863841
-1.08368e-06
0.000863864
-1.13088e-06
0.000863905
-1.17561e-06
0.000863959
-1.21942e-06
0.000864025
-1.25459e-06
0.000864101
-1.29077e-06
0.00086419
-1.32377e-06
0.000864289
-1.35737e-06
0.0008644
-1.38734e-06
0.000864523
-1.42056e-06
0.000864658
-1.45018e-06
0.000864805
-1.48516e-06
0.000864964
-1.5058e-06
0.000865136
-1.54923e-06
0.000865316
-1.56394e-06
0.000865508
-1.60996e-06
0.000865707
-1.62515e-06
0.000865917
-1.67597e-06
0.000866141
-1.68691e-06
0.000866372
-1.72687e-06
0.000866624
-1.71598e-06
0.000866876
-1.8011e-06
0.000867163
-1.79005e-06
0.000867452
-2.03314e-06
0.000867826
-2.00126e-06
0.000868294
-3.3691e-06
0.000869627
-2.17651e-06
-1.55392e-05
0.000869409
0.00102962
1.48941e-05
0.00103284
2.15866e-05
0.0010364
2.17335e-05
0.00104005
2.26556e-05
0.00104357
2.26997e-05
0.00104697
2.19445e-05
0.00105012
2.07225e-05
0.00105301
1.94625e-05
0.00105567
1.82512e-05
0.00105806
1.71561e-05
0.00106022
1.61019e-05
0.00106215
1.52562e-05
0.00106387
1.44885e-05
0.00106537
1.385e-05
0.00106667
1.33748e-05
0.00106777
1.29541e-05
0.00106865
1.26507e-05
0.0010693
1.2332e-05
0.00106968
1.20761e-05
0.00106975
1.17914e-05
0.00106951
1.15107e-05
0.00106894
1.11997e-05
0.00106801
1.08826e-05
0.00106671
1.05808e-05
0.00106503
1.02576e-05
0.00106302
9.91413e-06
0.00106071
9.55013e-06
0.00105817
9.17977e-06
0.00105547
8.77415e-06
0.00105265
8.36446e-06
0.00104977
7.9494e-06
0.00104689
7.50898e-06
0.00104405
7.07738e-06
0.0010413
6.65604e-06
0.00103865
6.22413e-06
0.00103611
5.81221e-06
0.00103369
5.40743e-06
0.00103142
4.99412e-06
0.00102927
4.62608e-06
0.00102724
4.24811e-06
0.00102535
3.8824e-06
0.00102355
3.59143e-06
0.00102183
3.30216e-06
0.00102022
3.03069e-06
0.0010187
2.77144e-06
0.00101729
2.53233e-06
0.00101596
2.30242e-06
0.00101473
2.08654e-06
0.00101357
1.88914e-06
0.0010125
1.69208e-06
0.0010115
1.50561e-06
0.00101058
1.3274e-06
0.00100972
1.15912e-06
0.00100893
9.9741e-07
0.00100819
8.41534e-07
0.00100751
6.93621e-07
0.00100687
5.64463e-07
0.00100628
4.36855e-07
0.00100573
3.12685e-07
0.00100522
1.96634e-07
0.00100474
8.74519e-08
0.00100431
-2.6294e-08
0.00100391
-1.22132e-07
0.00100354
-2.22602e-07
0.00100321
-3.17219e-07
0.00100291
-4.11597e-07
0.00100264
-4.96733e-07
0.00100241
-5.86709e-07
0.0010022
-6.71117e-07
0.00100202
-7.55317e-07
0.00100188
-8.36999e-07
0.00100175
-9.13836e-07
0.00100165
-9.84256e-07
0.00100157
-1.05054e-06
0.00100151
-1.1188e-06
0.00100148
-1.18147e-06
0.00100146
-1.23882e-06
0.00100146
-1.29317e-06
0.00100148
-1.34342e-06
0.00100152
-1.3907e-06
0.00100157
-1.43923e-06
0.00100163
-1.48556e-06
0.00100172
-1.53716e-06
0.00100182
-1.58352e-06
0.00100194
-1.62883e-06
0.00100207
-1.67912e-06
0.00100222
-1.71785e-06
0.00100238
-1.76474e-06
0.00100256
-1.8041e-06
0.00100273
-1.85228e-06
0.00100295
-1.8975e-06
0.00100315
-1.93461e-06
0.0010034
-1.96161e-06
0.00100364
-2.04117e-06
0.00100392
-2.06675e-06
0.0010042
-2.32105e-06
0.00100457
-2.36544e-06
0.00100495
-3.75546e-06
0.00100614
-3.36586e-06
-1.52782e-05
0.00100588
0.00113955
1.17843e-05
0.00114322
1.79141e-05
0.0011471
1.7847e-05
0.00115114
1.86193e-05
0.0011551
1.8738e-05
0.00115896
1.80878e-05
0.00116259
1.70933e-05
0.00116599
1.60587e-05
0.00116919
1.505e-05
0.00117219
1.41615e-05
0.001175
1.32902e-05
0.00117764
1.26119e-05
0.00118015
1.19826e-05
0.00118252
1.14819e-05
0.00118478
1.11129e-05
0.00118694
1.07936e-05
0.00118901
1.05772e-05
0.00119098
1.03634e-05
0.00119287
1.01929e-05
0.00119464
1.00186e-05
0.0011963
9.85195e-06
0.00119783
9.66575e-06
0.00119921
9.50373e-06
0.00120045
9.33996e-06
0.00120151
9.2005e-06
0.00120238
9.04616e-06
0.00120302
8.90539e-06
0.00120344
8.7568e-06
0.0012036
8.61869e-06
0.00120347
8.49066e-06
0.0012031
8.32004e-06
0.00120247
8.13713e-06
0.0012016
7.95119e-06
0.0012005
7.75315e-06
0.0011992
7.53097e-06
0.00119771
7.29582e-06
0.00119607
7.04711e-06
0.00119431
6.7556e-06
0.00119246
6.48027e-06
0.00119054
6.16532e-06
0.00118859
5.83356e-06
0.00118663
5.54638e-06
0.0011847
5.23997e-06
0.0011828
4.93037e-06
0.00118094
4.62533e-06
0.00117916
4.32009e-06
0.00117743
4.02458e-06
0.00117579
3.7285e-06
0.00117422
3.45611e-06
0.00117274
3.17819e-06
0.00117134
2.90679e-06
0.00117001
2.65343e-06
0.00116876
2.41212e-06
0.00116755
2.20411e-06
0.0011664
1.9943e-06
0.0011653
1.79146e-06
0.00116426
1.60955e-06
0.00116326
1.42744e-06
0.00116233
1.25049e-06
0.00116145
1.07743e-06
0.00116062
9.12433e-07
0.00115984
7.51575e-07
0.00115912
6.01022e-07
0.00115845
4.51694e-07
0.00115783
3.03448e-07
0.00115725
1.63057e-07
0.00115672
3.28812e-08
0.00115623
-9.85225e-08
0.00115579
-2.25616e-07
0.00115538
-3.44848e-07
0.00115501
-4.65566e-07
0.00115466
-5.72439e-07
0.00115435
-6.7341e-07
0.00115407
-7.6709e-07
0.00115382
-8.65432e-07
0.00115359
-9.56357e-07
0.0011534
-1.047e-06
0.00115324
-1.12979e-06
0.0011531
-1.2103e-06
0.00115299
-1.28001e-06
0.00115291
-1.35533e-06
0.00115285
-1.42392e-06
0.00115281
-1.50139e-06
0.0011528
-1.57365e-06
0.00115282
-1.64849e-06
0.00115285
-1.71049e-06
0.00115292
-1.78229e-06
0.00115299
-1.83734e-06
0.00115309
-1.90223e-06
0.00115319
-1.95833e-06
0.00115333
-2.03379e-06
0.00115348
-2.08512e-06
0.00115366
-2.13847e-06
0.00115385
-2.2384e-06
0.00115407
-2.2867e-06
0.00115433
-2.57492e-06
0.00115467
-2.70417e-06
0.00115502
-4.10392e-06
0.00115604
-4.39184e-06
-1.49161e-05
0.00115568
0.0012613
8.72007e-06
0.00126542
1.3791e-05
0.00126966
1.36071e-05
0.00127408
1.41931e-05
0.00127848
1.43442e-05
0.00128275
1.38212e-05
0.00128678
1.30584e-05
0.00129058
1.22569e-05
0.00129417
1.14615e-05
0.00129756
1.07761e-05
0.00130075
1.0096e-05
0.00130379
9.57406e-06
0.00130669
9.08267e-06
0.00130947
8.69698e-06
0.00131217
8.416e-06
0.00131479
8.17067e-06
0.00131736
8.01103e-06
0.00131986
7.85943e-06
0.00132232
7.7367e-06
0.00132472
7.61673e-06
0.00132707
7.50297e-06
0.00132936
7.37558e-06
0.0013316
7.26768e-06
0.00133377
7.16191e-06
0.0013359
7.0744e-06
0.00133796
6.98687e-06
0.00133996
6.90549e-06
0.00134188
6.83105e-06
0.00134374
6.76476e-06
0.0013455
6.72582e-06
0.00134717
6.65529e-06
0.00134872
6.58478e-06
0.00135015
6.52115e-06
0.00135145
6.45727e-06
0.00135259
6.38955e-06
0.00135358
6.30677e-06
0.00135439
6.23154e-06
0.00135502
6.1318e-06
0.00135546
6.03948e-06
0.0013557
5.92419e-06
0.00135571
5.82171e-06
0.00135557
5.69164e-06
0.00135526
5.54577e-06
0.0013548
5.39317e-06
0.00135418
5.24022e-06
0.00135343
5.06836e-06
0.00135256
4.89802e-06
0.00135158
4.70495e-06
0.00135052
4.52054e-06
0.00134938
4.31369e-06
0.0013482
4.09298e-06
0.00134698
3.87435e-06
0.00134574
3.64957e-06
0.0013445
3.44717e-06
0.00134326
3.22875e-06
0.00134205
3.0044e-06
0.00134085
2.80727e-06
0.00133968
2.59374e-06
0.00133855
2.38546e-06
0.00133746
2.17154e-06
0.00133641
1.95816e-06
0.0013354
1.76183e-06
0.00133444
1.56444e-06
0.00133352
1.36932e-06
0.00133265
1.17057e-06
0.00133183
9.82113e-07
0.00133105
8.10785e-07
0.0013303
6.53493e-07
0.00132958
5.00639e-07
0.00132888
3.54751e-07
0.00132821
2.01024e-07
0.00132757
6.25912e-08
0.00132697
-7.20274e-08
0.0013264
-1.98069e-07
0.00132587
-3.33785e-07
0.00132538
-4.58607e-07
0.00132492
-5.87401e-07
0.00132449
-7.06741e-07
0.00132411
-8.26972e-07
0.00132376
-9.32684e-07
0.00132345
-1.04317e-06
0.00132317
-1.14377e-06
0.00132292
-1.25511e-06
0.00132271
-1.36128e-06
0.00132254
-1.47317e-06
0.00132239
-1.56969e-06
0.00132229
-1.67553e-06
0.00132221
-1.76049e-06
0.00132215
-1.84566e-06
0.00132213
-1.93255e-06
0.00132212
-2.02576e-06
0.00132214
-2.10493e-06
0.00132218
-2.18296e-06
0.00132226
-2.30872e-06
0.00132237
-2.39999e-06
0.0013225
-2.70796e-06
0.00132274
-2.94703e-06
0.00132298
-4.33844e-06
0.00132378
-5.19239e-06
-1.44027e-05
0.00132327
0.00139614
5.65725e-06
0.00140075
9.18595e-06
0.00140539
8.9621e-06
0.00141024
9.34502e-06
0.00141511
9.47939e-06
0.00141982
9.10893e-06
0.00142428
8.59457e-06
0.00142849
8.04435e-06
0.00143247
7.48682e-06
0.00143623
7.01841e-06
0.00143977
6.54816e-06
0.00144316
6.19164e-06
0.00144639
5.85146e-06
0.0014495
5.58379e-06
0.00145253
5.39084e-06
0.00145547
5.22262e-06
0.00145837
5.11647e-06
0.00146121
5.01925e-06
0.00146401
4.93976e-06
0.00146676
4.86466e-06
0.00146947
4.79536e-06
0.00147213
4.71028e-06
0.00147476
4.63856e-06
0.00147735
4.56822e-06
0.00147992
4.51154e-06
0.00148245
4.45637e-06
0.00148495
4.40306e-06
0.00148743
4.35506e-06
0.00148987
4.31594e-06
0.0014923
4.30127e-06
0.00149469
4.26424e-06
0.00149705
4.22567e-06
0.00149937
4.1965e-06
0.00150166
4.17114e-06
0.00150391
4.14316e-06
0.0015061
4.11161e-06
0.00150825
4.08035e-06
0.00151034
4.04766e-06
0.00151237
4.01084e-06
0.00151432
3.97435e-06
0.00151619
3.94726e-06
0.00151797
3.90831e-06
0.00151966
3.8582e-06
0.00152125
3.80692e-06
0.00152273
3.76092e-06
0.00152409
3.70815e-06
0.00152533
3.65927e-06
0.00152643
3.60171e-06
0.0015274
3.54786e-06
0.00152823
3.4851e-06
0.00152891
3.414e-06
0.00152944
3.33853e-06
0.00152983
3.26597e-06
0.00153011
3.1686e-06
0.00153024
3.09804e-06
0.00153025
2.98756e-06
0.00153017
2.89497e-06
0.00152998
2.77774e-06
0.00152971
2.66303e-06
0.00152934
2.5347e-06
0.0015289
2.39692e-06
0.0015284
2.26473e-06
0.00152784
2.12511e-06
0.00152723
1.97446e-06
0.00152659
1.81198e-06
0.00152592
1.65043e-06
0.00152524
1.49318e-06
0.00152455
1.34623e-06
0.00152386
1.19271e-06
0.00152317
1.04376e-06
0.00152249
8.81697e-07
0.00152182
7.33466e-07
0.00152116
5.86387e-07
0.00152052
4.43631e-07
0.0015199
2.86185e-07
0.0015193
1.41528e-07
0.00151872
-1.0137e-08
0.00151817
-1.55401e-07
0.00151765
-3.04926e-07
0.00151716
-4.42285e-07
0.00151669
-5.80448e-07
0.00151626
-7.08545e-07
0.00151585
-8.44999e-07
0.00151547
-9.80684e-07
0.00151511
-1.11984e-06
0.00151479
-1.25081e-06
0.00151451
-1.38652e-06
0.00151425
-1.50343e-06
0.00151401
-1.60833e-06
0.0015138
-1.72121e-06
0.0015136
-1.82807e-06
0.00151343
-1.93081e-06
0.00151327
-2.02362e-06
0.00151313
-2.1662e-06
0.00151302
-2.29343e-06
0.00151292
-2.60904e-06
0.00151292
-2.94263e-06
0.00151289
-4.31659e-06
0.00151331
-5.61098e-06
-1.36136e-05
0.00151252
0.00154551
2.52665e-06
0.00155064
4.05458e-06
0.00155576
3.84925e-06
0.00156107
4.03118e-06
0.00156645
4.0952e-06
0.00157166
3.89783e-06
0.0015766
3.65739e-06
0.00158127
3.38043e-06
0.00158567
3.08598e-06
0.00158983
2.85681e-06
0.00159376
2.61879e-06
0.0015975
2.44501e-06
0.00160108
2.27171e-06
0.00160453
2.13345e-06
0.00160789
2.03685e-06
0.00161116
1.95331e-06
0.00161437
1.90505e-06
0.00161752
1.86436e-06
0.00162063
1.83244e-06
0.00162369
1.80405e-06
0.00162671
1.77977e-06
0.00162968
1.73678e-06
0.00163262
1.69993e-06
0.00163552
1.66306e-06
0.0016384
1.63515e-06
0.00164125
1.60769e-06
0.00164407
1.5782e-06
0.00164688
1.54887e-06
0.00164967
1.52961e-06
0.00165244
1.5297e-06
0.00165519
1.5133e-06
0.00165792
1.492e-06
0.00166064
1.48126e-06
0.00166334
1.47206e-06
0.00166602
1.46318e-06
0.00166868
1.45222e-06
0.00167132
1.43881e-06
0.00167394
1.42927e-06
0.00167654
1.41252e-06
0.00167911
1.40253e-06
0.00168166
1.39807e-06
0.00168418
1.38747e-06
0.00168667
1.36701e-06
0.00168913
1.34691e-06
0.00169156
1.33151e-06
0.00169395
1.31591e-06
0.00169631
1.30162e-06
0.00169862
1.28815e-06
0.0017009
1.27414e-06
0.00170312
1.26114e-06
0.00170529
1.24214e-06
0.0017074
1.22656e-06
0.00170946
1.21032e-06
0.00171144
1.18525e-06
0.00171336
1.17824e-06
0.00171519
1.15441e-06
0.00171695
1.13867e-06
0.00171862
1.10931e-06
0.0017202
1.08146e-06
0.00172168
1.05182e-06
0.00172306
1.01767e-06
0.00172434
9.87996e-07
0.00172551
9.5203e-07
0.00172658
9.10007e-07
0.00172753
8.63123e-07
0.00172836
8.15835e-07
0.00172908
7.72614e-07
0.00172971
7.18837e-07
0.00173024
6.58237e-07
0.00173069
5.95521e-07
0.00173105
5.24076e-07
0.00173133
4.54776e-07
0.00173152
3.92631e-07
0.00173166
3.07804e-07
0.00173172
2.28381e-07
0.00173172
1.39357e-07
0.00173167
3.91208e-08
0.00173157
-5.22457e-08
0.00173142
-1.55479e-07
0.00173123
-2.54417e-07
0.00173101
-3.60958e-07
0.00173076
-4.63721e-07
0.00173049
-5.73927e-07
0.0017302
-6.87039e-07
0.00172988
-7.99402e-07
0.00172954
-9.10085e-07
0.00172918
-1.03222e-06
0.00172882
-1.14112e-06
0.00172846
-1.2429e-06
0.00172809
-1.35441e-06
0.00172772
-1.45512e-06
0.00172733
-1.54433e-06
0.00172692
-1.61739e-06
0.00172649
-1.72896e-06
0.00172603
-1.83905e-06
0.00172555
-2.12799e-06
0.00172511
-2.50353e-06
0.00172463
-3.83263e-06
0.00172448
-5.46708e-06
-1.23438e-05
0.00172321
0.001711
-7.9433e-07
0.00171671
-1.64891e-06
0.00172235
-1.79707e-06
0.0017282
-1.81871e-06
0.00173416
-1.8651e-06
0.00173993
-1.871e-06
0.00174539
-1.80463e-06
0.00175056
-1.78155e-06
0.00175543
-1.78874e-06
0.00176004
-1.75018e-06
0.00176439
-1.73297e-06
0.00176854
-1.70265e-06
0.0017725
-1.69309e-06
0.00177632
-1.68757e-06
0.00178004
-1.6768e-06
0.00178366
-1.66794e-06
0.00178721
-1.65061e-06
0.00179071
-1.62897e-06
0.00179415
-1.609e-06
0.00179754
-1.58542e-06
0.00180088
-1.55971e-06
0.00180417
-1.55761e-06
0.00180743
-1.55561e-06
0.00181065
-1.55774e-06
0.00181384
-1.55421e-06
0.001817
-1.55241e-06
0.00182013
-1.55746e-06
0.00182325
-1.56738e-06
0.00182635
-1.56703e-06
0.00182943
-1.55114e-06
0.00183249
-1.54862e-06
0.00183554
-1.55398e-06
0.00183856
-1.54616e-06
0.00184158
-1.54299e-06
0.00184457
-1.53378e-06
0.00184755
-1.52798e-06
0.00185052
-1.527e-06
0.00185347
-1.51765e-06
0.0018564
-1.5216e-06
0.00185932
-1.51216e-06
0.00186222
-1.50157e-06
0.0018651
-1.49361e-06
0.00186796
-1.49644e-06
0.00187081
-1.49862e-06
0.00187363
-1.49563e-06
0.00187644
-1.49487e-06
0.00187924
-1.4919e-06
0.00188201
-1.48787e-06
0.00188477
-1.48277e-06
0.00188751
-1.47829e-06
0.00189023
-1.47783e-06
0.00189293
-1.4701e-06
0.00189561
-1.47127e-06
0.00189826
-1.46788e-06
0.0019009
-1.45633e-06
0.0019035
-1.45094e-06
0.00190608
-1.44265e-06
0.00190863
-1.44301e-06
0.00191116
-1.44088e-06
0.00191365
-1.43772e-06
0.0019161
-1.43541e-06
0.00191851
-1.4268e-06
0.00192089
-1.42499e-06
0.00192322
-1.42214e-06
0.00192551
-1.42152e-06
0.00192774
-1.41261e-06
0.00192991
-1.40197e-06
0.00193203
-1.39498e-06
0.00193408
-1.39339e-06
0.00193606
-1.38591e-06
0.00193796
-1.37925e-06
0.00193979
-1.37169e-06
0.00194153
-1.35272e-06
0.00194319
-1.34846e-06
0.00194476
-1.33838e-06
0.00194623
-1.33129e-06
0.00194759
-1.32267e-06
0.00194885
-1.3103e-06
0.00194998
-1.28477e-06
0.00195099
-1.27084e-06
0.00195189
-1.25874e-06
0.00195268
-1.25373e-06
0.00195335
-1.24301e-06
0.00195388
-1.22074e-06
0.00195428
-1.19936e-06
0.00195453
-1.16164e-06
0.00195465
-1.14557e-06
0.00195464
-1.13365e-06
0.00195454
-1.14199e-06
0.00195434
-1.15291e-06
0.00195404
-1.15274e-06
0.00195363
-1.13559e-06
0.00195311
-1.09603e-06
0.00195245
-1.0779e-06
0.00195169
-1.07393e-06
0.0019508
-1.23611e-06
0.00194985
-1.55733e-06
0.00194876
-2.7375e-06
0.00194777
-4.48414e-06
-1.02634e-05
0.00194569
0.00171104
-4.14982e-06
0.00171675
-7.36428e-06
0.0017224
-7.44721e-06
0.00172826
-7.67509e-06
0.00173422
-7.82817e-06
0.00173999
-7.64207e-06
0.00174545
-7.26512e-06
0.00175062
-6.94255e-06
0.00175549
-6.66633e-06
0.0017601
-6.3558e-06
0.00176445
-6.08588e-06
0.0017686
-5.84951e-06
0.00177256
-5.65831e-06
0.00177639
-5.5093e-06
0.0017801
-5.38979e-06
0.00178372
-5.29086e-06
0.00178728
-5.20591e-06
0.00179077
-5.12251e-06
0.00179421
-5.05201e-06
0.0017976
-4.97488e-06
0.00180094
-4.89893e-06
0.00180424
-4.85218e-06
0.00180749
-4.81063e-06
0.00181071
-4.77894e-06
0.0018139
-4.74339e-06
0.00181706
-4.71319e-06
0.0018202
-4.69237e-06
0.00182332
-4.68518e-06
0.00182641
-4.66368e-06
0.00182949
-4.63083e-06
0.00183255
-4.61161e-06
0.0018356
-4.59864e-06
0.00183863
-4.57486e-06
0.00184164
-4.55615e-06
0.00184464
-4.52986e-06
0.00184762
-4.50778e-06
0.00185058
-4.48952e-06
0.00185352
-4.46224e-06
0.00185646
-4.45413e-06
0.00185937
-4.42332e-06
0.00186226
-4.39573e-06
0.00186514
-4.37177e-06
0.001868
-4.35265e-06
0.00187084
-4.33824e-06
0.00187366
-4.31579e-06
0.00187646
-4.29551e-06
0.00187924
-4.27634e-06
0.001882
-4.2495e-06
0.00188475
-4.22718e-06
0.00188747
-4.20069e-06
0.00189017
-4.17726e-06
0.00189285
-4.14651e-06
0.0018955
-4.1247e-06
0.00189813
-4.09445e-06
0.00190072
-4.05389e-06
0.00190329
-4.01642e-06
0.00190583
-3.9823e-06
0.00190833
-3.9418e-06
0.00191079
-3.90504e-06
0.00191322
-3.86216e-06
0.00191559
-3.81221e-06
0.00191793
-3.7604e-06
0.00192021
-3.70539e-06
0.00192243
-3.64939e-06
0.0019246
-3.58399e-06
0.00192669
-3.511e-06
0.00192873
-3.43315e-06
0.00193068
-3.35406e-06
0.00193257
-3.27385e-06
0.00193436
-3.17937e-06
0.00193607
-3.09157e-06
0.00193769
-2.98654e-06
0.00193921
-2.87848e-06
0.00194063
-2.7714e-06
0.00194195
-2.65786e-06
0.00194316
-2.54025e-06
0.00194426
-2.41905e-06
0.00194524
-2.29398e-06
0.00194611
-2.151e-06
0.00194686
-2.01655e-06
0.00194748
-1.88857e-06
0.00194799
-1.76331e-06
0.0019484
-1.64541e-06
0.00194869
-1.51443e-06
0.00194888
-1.38766e-06
0.00194896
-1.24307e-06
0.00194893
-1.11422e-06
0.00194881
-1.01206e-06
0.00194859
-9.25605e-07
0.00194828
-8.41265e-07
0.00194788
-7.49809e-07
0.00194738
-6.425e-07
0.0019468
-5.14794e-07
0.00194613
-4.01653e-07
0.00194536
-3.10057e-07
0.00194449
-3.64929e-07
0.00194354
-6.10317e-07
0.00194242
-1.61323e-06
0.00194122
-3.28855e-06
-8.09798e-06
0.00193906
0.0015456
-7.37387e-06
0.00155077
-1.25251e-05
0.00155589
-1.2571e-05
0.00156122
-1.30055e-05
0.00156661
-1.32205e-05
0.00157183
-1.28578e-05
0.00157676
-1.2198e-05
0.00158142
-1.16051e-05
0.00158583
-1.10738e-05
0.00158999
-1.05145e-05
0.00159392
-1.00178e-05
0.00159767
-9.59429e-06
0.00160125
-9.23932e-06
0.0016047
-8.96145e-06
0.00160805
-8.74262e-06
0.00161133
-8.5642e-06
0.00161454
-8.41643e-06
0.00161769
-8.27767e-06
0.0016208
-8.16232e-06
0.00162386
-8.03497e-06
0.00162688
-7.91343e-06
0.00162985
-7.82481e-06
0.00163279
-7.74827e-06
0.00163569
-7.68385e-06
0.00163857
-7.61818e-06
0.00164141
-7.5615e-06
0.00164424
-7.51384e-06
0.00164704
-7.49206e-06
0.00164983
-7.44602e-06
0.00165259
-7.39698e-06
0.00165534
-7.35816e-06
0.00165806
-7.32504e-06
0.00166077
-7.28478e-06
0.00166346
-7.2436e-06
0.00166613
-7.19877e-06
0.00166878
-7.15481e-06
0.0016714
-7.11256e-06
0.001674
-7.05904e-06
0.00167658
-7.03194e-06
0.00167912
-6.96901e-06
0.00168163
-6.90818e-06
0.00168412
-6.858e-06
0.00168657
-6.79924e-06
0.00168897
-6.74579e-06
0.00169134
-6.68679e-06
0.00169367
-6.61656e-06
0.00169594
-6.55218e-06
0.00169816
-6.47237e-06
0.00170033
-6.38973e-06
0.00170243
-6.30313e-06
0.00170446
-6.20856e-06
0.00170641
-6.09936e-06
0.00170829
-6.00349e-06
0.00171008
-5.87902e-06
0.00171177
-5.74893e-06
0.00171337
-5.61393e-06
0.00171486
-5.47445e-06
0.00171625
-5.32669e-06
0.00171752
-5.17475e-06
0.00171867
-5.01143e-06
0.0017197
-4.84208e-06
0.0017206
-4.6635e-06
0.00172138
-4.48273e-06
0.00172203
-4.29907e-06
0.00172256
-4.11589e-06
0.00172299
-3.93978e-06
0.00172331
-3.7619e-06
0.00172355
-3.58645e-06
0.00172369
-3.41326e-06
0.00172374
-3.22918e-06
0.0017237
-3.05712e-06
0.0017236
-2.88536e-06
0.00172344
-2.71344e-06
0.00172321
-2.54459e-06
0.00172293
-2.37748e-06
0.0017226
-2.21227e-06
0.00172223
-2.05017e-06
0.00172183
-1.89118e-06
0.0017214
-1.72312e-06
0.00172095
-1.56818e-06
0.00172049
-1.42431e-06
0.00172001
-1.28767e-06
0.00171953
-1.16219e-06
0.00171904
-1.02914e-06
0.00171856
-9.00239e-07
0.00171808
-7.62133e-07
0.0017176
-6.35338e-07
0.00171712
-5.32159e-07
0.00171664
-4.43858e-07
0.00171615
-3.55713e-07
0.00171566
-2.60498e-07
0.00171517
-1.50217e-07
0.00171468
-2.37509e-08
0.00171419
8.51165e-08
0.00171371
1.71845e-07
0.00171321
1.37119e-07
0.00171268
-8.37352e-08
0.00171203
-9.61954e-07
0.00171124
-2.49937e-06
-6.52782e-06
0.00170967
0.00139628
-1.05775e-05
0.00140093
-1.71729e-05
0.0014056
-1.72348e-05
0.00141046
-1.78728e-05
0.00141534
-1.80981e-05
0.00142006
-1.75734e-05
0.00142451
-1.6655e-05
0.00142873
-1.58186e-05
0.00143271
-1.50557e-05
0.00143646
-1.42703e-05
0.00144001
-1.3568e-05
0.0014434
-1.29754e-05
0.00144663
-1.24712e-05
0.00144974
-1.20766e-05
0.00145277
-1.17669e-05
0.00145572
-1.15154e-05
0.00145861
-1.13084e-05
0.00146145
-1.1116e-05
0.00146424
-1.09585e-05
0.00146699
-1.07806e-05
0.00146969
-1.06144e-05
0.00147235
-1.04811e-05
0.00147497
-1.03705e-05
0.00147755
-1.02684e-05
0.0014801
-1.01689e-05
0.00148262
-1.00803e-05
0.00148511
-9.99969e-06
0.00148757
-9.95303e-06
0.00148999
-9.86911e-06
0.00149239
-9.79259e-06