/*--------------------------------*- C++ -*----------------------------------*\
| =========                 |                                                 |
| \\      /  F ield         | OpenFOAM: The Open Source CFD Toolbox           |
|  \\    /   O peration     | Version:  v2012                                 |
|   \\  /    A nd           | Website:  www.openfoam.com                      |
|    \\/     M anipulation  |                                                 |
\*---------------------------------------------------------------------------*/
FoamFile
{
    version     2.0;
    format      ascii;
    class       volScalarField;
    location    "0.026";
    object      k.air;
}
// * * * * * * * * * * * * * * * * * * * * * * * * * * * * * * * * * * * * * //

dimensions      [0 2 -2 0 0 0 0];


internalField   nonuniform List<scalar> 
5600
(
0.638813
1.44355
2.41274
3.0856
3.3826
3.41739
3.3138
3.14892
2.9735
2.8144
2.6747
2.56079
2.47593
2.41642
2.37596
2.35081
2.3395
2.33978
2.34758
2.3574
2.36546
2.37039
2.37245
2.3726
2.37186
2.37094
2.37024
2.3699
2.36991
2.3702
2.37074
2.37144
2.37219
2.37288
2.37344
2.37387
2.37417
2.37437
2.3745
2.37459
2.37464
2.37467
2.37469
2.3747
2.3747
2.3747
2.37471
2.37471
2.37471
2.37471
2.37471
2.37471
2.37471
2.37471
2.37471
2.37471
2.37471
2.37471
2.37471
2.37471
2.37471
2.3747
2.37473
2.37467
2.37478
2.37457
2.37497
2.37425
2.37549
2.37342
2.37676
2.37159
2.37928
2.36832
2.38332
2.36368
2.38853
2.35812
2.39485
2.35068
2.40479
2.33798
2.421
2.32213
2.43251
2.32432
2.40781
2.37392
2.33258
2.45758
2.27172
2.46726
2.34467
2.28866
2.60245
2.02208
2.86245
1.71063
3.28179
0.207983
0.402621
0.376835
0.396281
0.452403
0.515274
0.591626
0.675393
0.792838
0.932497
1.09567
1.28378
1.47885
1.67068
1.85608
2.02706
2.17436
2.29492
2.39171
2.46773
2.52454
2.56235
2.58522
2.5986
2.606
2.60961
2.61123
2.61164
2.61151
2.61137
2.61159
2.61218
2.61307
2.61425
2.61572
2.61717
2.61836
2.61926
2.6199
2.62035
2.62064
2.62083
2.62095
2.62102
2.62106
2.62108
2.6211
2.6211
2.62111
2.62111
2.62111
2.62111
2.62111
2.62111
2.62111
2.62111
2.62111
2.62111
2.62111
2.62112
2.6211
2.62114
2.62106
2.62122
2.62089
2.62153
2.62034
2.62249
2.61872
2.62511
2.61468
2.63108
2.60628
2.64229
2.59216
2.65911
2.57307
2.68002
2.54997
2.70668
2.51639
2.75026
2.46095
2.8114
2.40781
2.82563
2.45804
2.67535
2.70046
2.3729
2.98541
2.21735
2.88798
2.63202
2.14761
3.50553
1.32858
3.92656
0.790477
4.11087
0.163551
0.405654
0.345034
0.300858
0.271789
0.252024
0.240216
0.234523
0.23662
0.246346
0.264468
0.295055
0.337006
0.388807
0.45248
0.529836
0.615965
0.706212
0.800251
0.900792
1.00935
1.12375
1.23821
1.34427
1.43379
1.50363
1.55233
1.58448
1.60454
1.61645
1.62339
1.62767
1.63065
1.63301
1.63512
1.63698
1.6385
1.63967
1.64053
1.64113
1.64154
1.64181
1.64198
1.64208
1.64214
1.64218
1.6422
1.64221
1.64222
1.64222
1.64222
1.64222
1.64222
1.64222
1.64222
1.64222
1.64222
1.64222
1.64222
1.64223
1.6422
1.64228
1.64211
1.64244
1.6418
1.64301
1.64079
1.64473
1.63798
1.64914
1.63135
1.65864
1.61841
1.67528
1.59806
1.69871
1.57176
1.72723
1.53878
1.76632
1.48727
1.83039
1.40957
1.90028
1.36449
1.86383
1.49936
1.59769
1.86281
1.21419
2.14812
1.1319
1.87693
1.7396
0.99539
2.57474
0.401246
2.67634
0.212692
2.72139
0.351314
0.406436
0.344471
0.298077
0.262663
0.234817
0.212509
0.194505
0.179993
0.168209
0.158995
0.152956
0.150021
0.149608
0.1523
0.159323
0.170966
0.186934
0.207034
0.232062
0.265167
0.310541
0.368482
0.434295
0.501156
0.562595
0.613144
0.650977
0.676805
0.692947
0.702268
0.707342
0.710106
0.711778
0.712982
0.714009
0.71493
0.715719
0.716358
0.716846
0.7172
0.717444
0.717606
0.717708
0.717772
0.717809
0.717831
0.717843
0.71785
0.717853
0.717855
0.717856
0.717857
0.717857
0.717857
0.717858
0.717856
0.717861
0.717849
0.717875
0.717821
0.717933
0.717708
0.718147
0.717316
0.718841
0.716128
0.720797
0.713036
0.725478
0.706262
0.734794
0.694051
0.74991
0.676102
0.770189
0.653212
0.795945
0.621863
0.834661
0.571764
0.892206
0.51199
0.929323
0.518902
0.841456
0.698763
0.578204
0.997762
0.312202
1.13246
0.352674
0.858753
0.827523
0.279796
1.26429
0.131898
1.3139
0.057125
1.41786
0.466468
0.406516
0.344512
0.298247
0.262566
0.234269
0.211296
0.192342
0.176469
0.163004
0.151397
0.141486
0.13299
0.125662
0.119336
0.114077
0.109934
0.106883
0.104854
0.103676
0.103822
0.106463
0.112625
0.122477
0.135004
0.148208
0.16005
0.16917
0.175127
0.178265
0.179339
0.179152
0.178375
0.177475
0.176736
0.176265
0.176025
0.175938
0.175937
0.175975
0.176024
0.176069
0.176104
0.17613
0.176147
0.176159
0.176165
0.176169
0.176172
0.176173
0.176174
0.176174
0.176174
0.176174
0.176174
0.176175
0.176174
0.176176
0.176171
0.176182
0.176157
0.176209
0.176106
0.176306
0.175929
0.176616
0.175408
0.17746
0.174096
0.179405
0.171343
0.18311
0.166595
0.188899
0.159796
0.196691
0.150789
0.207458
0.137273
0.224571
0.116245
0.247052
0.0973059
0.2528
0.11595
0.202067
0.201695
0.0938421
0.307747
0.0157934
0.330723
0.0559852
0.236774
0.211631
0.0497977
0.353823
0.000216741
0.36572
8.85762e-05
0.544883
0.158964
0.406522
0.344522
0.298299
0.26263
0.234338
0.211377
0.192399
0.17646
0.162903
0.151219
0.141074
0.132181
0.124331
0.117344
0.111107
0.105534
0.100548
0.0960682
0.0919994
0.0883292
0.0851535
0.0825946
0.0806858
0.079277
0.0781133
0.0769228
0.0755456
0.073962
0.0722603
0.0705727
0.0690201
0.0676873
0.0666212
0.0658315
0.0652869
0.0649322
0.0647128
0.0645838
0.064512
0.0644741
0.0644554
0.0644469
0.0644434
0.0644422
0.0644419
0.064442
0.0644422
0.0644423
0.0644424
0.0644424
0.0644425
0.0644425
0.0644425
0.0644424
0.0644427
0.0644422
0.0644433
0.0644408
0.064446
0.0644355
0.0644562
0.064417
0.0644886
0.0643622
0.0645771
0.0642258
0.0647772
0.0639478
0.065142
0.0634967
0.0656715
0.0629
0.0663539
0.062065
0.0675407
0.0602191
0.0705476
0.055579
0.0772354
0.047009
0.0867885
0.038574
0.0908831
0.042722
0.0751338
0.0711464
0.0374818
0.109259
0.0100237
0.116014
0.027749
0.0775084
0.0822404
0.0192188
0.122644
0.00824236
0.122174
0.000703943
0.193677
0.0181796
0.406522
0.344521
0.298306
0.262644
0.234359
0.211412
0.192443
0.176514
0.16296
0.151291
0.141147
0.132244
0.124371
0.117363
0.111089
0.105441
0.100325
0.0956635
0.0913981
0.0874934
0.0839312
0.0806919
0.0777363
0.0750004
0.0724171
0.0699379
0.0675537
0.0652956
0.0632203
0.0613875
0.0598408
0.0585972
0.0576464
0.0569556
0.0564779
0.0561626
0.0559635
0.0558431
0.0557732
0.0557342
0.0557133
0.0557025
0.0556971
0.0556946
0.0556934
0.0556929
0.0556927
0.0556926
0.0556926
0.0556926
0.0556926
0.0556926
0.0556926
0.0556926
0.0556926
0.0556927
0.0556924
0.055693
0.0556919
0.0556939
0.0556906
0.0556959
0.0556877
0.0556998
0.0556827
0.0557058
0.0556754
0.055715
0.0556625
0.0557359
0.0556274
0.0557914
0.0555525
0.0558609
0.0555621
0.0556139
0.0563196
0.0539516
0.0593456
0.0492092
0.0657949
0.0418448
0.0722284
0.0392887
0.0673801
0.0540344
0.0430361
0.0829041
0.0186499
0.0915354
0.0319096
0.0573669
0.0755733
0.0209284
0.0880969
0.0382311
0.0530378
0.0583697
0.0821719
0.0105427
0.406522
0.344518
0.298303
0.262643
0.23436
0.211416
0.192451
0.176526
0.162976
0.151313
0.141173
0.132274
0.124404
0.117399
0.11113
0.105484
0.100365
0.0956972
0.0914258
0.0875163
0.0839421
0.0806695
0.0776509
0.0748289
0.0721514
0.0695881
0.0671417
0.064846
0.0627542
0.0609205
0.0593829
0.0581535
0.0572172
0.0565379
0.0560676
0.0557564
0.0555592
0.0554392
0.0553692
0.0553298
0.0553084
0.0552973
0.0552916
0.0552889
0.0552876
0.0552871
0.0552868
0.0552867
0.0552867
0.0552866
0.0552866
0.0552866
0.0552866
0.0552866
0.0552867
0.0552865
0.0552869
0.0552862
0.0552877
0.0552846
0.0552906
0.0552793
0.0552997
0.0552645
0.0553224
0.0552319
0.0553657
0.0551793
0.0554225
0.0551273
0.0554591
0.0551124
0.0554605
0.0550906
0.0555708
0.0547924
0.0561707
0.053791
0.0576331
0.0518578
0.060003
0.049176
0.0627205
0.0472011
0.0626999
0.0510618
0.0536219
0.0649746
0.0382926
0.0758216
0.0382534
0.0631043
0.0584094
0.0475863
0.056602
0.0719497
0.021547
0.0904204
0.046796
0.0167567
0.406521
0.344514
0.298299
0.262639
0.234356
0.211414
0.192449
0.176526
0.162977
0.151317
0.141177
0.13228
0.124412
0.117409
0.111141
0.105497
0.100381
0.0957146
0.0914446
0.0875366
0.0839636
0.0806917
0.0776726
0.0748485
0.0721678
0.0696011
0.0671516
0.0648538
0.0627612
0.0609276
0.0593905
0.0581616
0.0572251
0.0565446
0.0560725
0.0557592
0.0555599
0.0554382
0.0553665
0.0553259
0.0553037
0.0552919
0.0552859
0.0552829
0.0552814
0.0552807
0.0552804
0.0552803
0.0552802
0.0552802
0.0552802
0.0552802
0.0552802
0.0552802
0.0552802
0.0552801
0.0552804
0.0552798
0.0552811
0.0552784
0.0552838
0.0552733
0.0552932
0.0552569
0.0553206
0.0552133
0.0553859
0.0551214
0.055506
0.0549788
0.0556548
0.0548527
0.0557196
0.0548857
0.0555744
0.0551084
0.0553769
0.055115
0.0557428
0.0542751
0.0569725
0.0530081
0.0577292
0.0533493
0.0560391
0.0561602
0.0529644
0.058426
0.0524101
0.0570535
0.0554463
0.053437
0.0585621
0.0526432
0.0549847
0.0617102
0.0433564
0.0676058
0.053529
0.0427684
0.406521
0.344513
0.298298
0.262637
0.234354
0.211412
0.192448
0.176525
0.162976
0.151316
0.141178
0.132282
0.124414
0.117412
0.111145
0.105502
0.100386
0.0957206
0.0914515
0.0875439
0.0839712
0.0807
0.0776818
0.074859
0.0721791
0.0696126
0.0671627
0.0648643
0.0627711
0.0609371
0.0593998
0.0581701
0.0572324
0.0565503
0.0560763
0.0557609
0.0555597
0.0554364
0.0553634
0.0553219
0.055299
0.0552867
0.0552804
0.0552772
0.0552757
0.0552749
0.0552746
0.0552744
0.0552744
0.0552743
0.0552743
0.0552743
0.0552743
0.0552743
0.0552743
0.0552742
0.0552744
0.055274
0.0552748
0.0552733
0.0552761
0.0552711
0.0552797
0.0552658
0.0552872
0.0552561
0.0552981
0.0552459
0.0553044
0.0552475
0.0552917
0.0552713
0.0552622
0.0552962
0.0552522
0.0552926
0.0552449
0.0553604
0.055065
0.0556533
0.0547685
0.0557233
0.0551766
0.0547924
0.0562499
0.0544002
0.0551053
0.0572598
0.0515766
0.0594456
0.0524838
0.0554032
0.0575512
0.0522313
0.0573705
0.0545686
0.0557115
0.0531996
0.0612863
0.0440539
0.406521
0.344513
0.298298
0.262639
0.234356
0.211413
0.192449
0.176526
0.162978
0.151318
0.14118
0.132283
0.124416
0.117414
0.111147
0.105503
0.100387
0.0957219
0.0914527
0.087545
0.0839723
0.080701
0.0776829
0.0748601
0.0721802
0.0696137
0.0671638
0.0648654
0.0627722
0.0609381
0.0594005
0.0581708
0.0572329
0.0565507
0.0560766
0.0557612
0.05556
0.0554365
0.0553636
0.055322
0.0552991
0.0552869
0.0552805
0.0552773
0.0552758
0.055275
0.0552747
0.0552745
0.0552745
0.0552744
0.0552744
0.0552744
0.0552744
0.0552744
0.0552744
0.0552743
0.0552746
0.0552741
0.0552751
0.0552731
0.0552768
0.0552702
0.0552816
0.0552625
0.055293
0.0552468
0.0553131
0.0552239
0.0553351
0.0552092
0.0553341
0.0552338
0.0552825
0.0553059
0.0552102
0.0553456
0.0552376
0.0552353
0.0554047
0.0550909
0.0554126
0.0553096
0.0549833
0.0557687
0.0548117
0.055354
0.0558539
0.0540872
0.0565543
0.0547423
0.0543601
0.0576456
0.0524064
0.0571385
0.055477
0.0532608
0.0578198
0.0530612
0.0575849
0.0531864
0.406521
0.344516
0.298302
0.262643
0.23436
0.211418
0.192454
0.17653
0.162982
0.151321
0.141182
0.132285
0.124416
0.117414
0.111146
0.105502
0.100385
0.0957183
0.091448
0.0875398
0.0839667
0.0806949
0.0776758
0.0748519
0.0721712
0.0696046
0.067155
0.0648571
0.0627643
0.0609304
0.0593931
0.0581639
0.0572271
0.0565464
0.0560741
0.0557606
0.0555611
0.0554391
0.0553673
0.0553265
0.0553042
0.0552924
0.0552863
0.0552833
0.0552818
0.0552811
0.0552808
0.0552807
0.0552806
0.0552806
0.0552806
0.0552806
0.0552806
0.0552806
0.0552806
0.0552805
0.0552807
0.0552803
0.0552812
0.0552795
0.0552826
0.055277
0.0552865
0.055271
0.0552953
0.0552591
0.0553101
0.0552427
0.0553251
0.0552335
0.0553233
0.055251
0.0552888
0.0552978
0.0552414
0.0553296
0.0552397
0.0552953
0.055303
0.0552183
0.0553818
0.0551382
0.0554649
0.055078
0.0554253
0.0553155
0.0549769
0.0557857
0.0548562
0.0552683
0.0558362
0.0545811
0.0554056
0.0560885
0.0542973
0.0545841
0.0595345
0.04724
0.0651444
0.0464234
0.406522
0.34452
0.298308
0.262649
0.234366
0.211423
0.192458
0.176533
0.162983
0.15132
0.14118
0.132281
0.124411
0.117406
0.111137
0.105491
0.100372
0.0957037
0.0914319
0.0875221
0.0839479
0.0806759
0.0776583
0.0748375
0.0721611
0.0695987
0.0671527
0.0648571
0.0627651
0.0609308
0.0593924
0.0581622
0.0572252
0.0565453
0.0560745
0.0557629
0.0555654
0.0554452
0.0553749
0.0553354
0.0553139
0.0553027
0.055297
0.0552943
0.055293
0.0552924
0.0552921
0.055292
0.055292
0.055292
0.055292
0.055292
0.055292
0.0552919
0.055292
0.0552919
0.0552921
0.0552917
0.0552925
0.055291
0.0552936
0.055289
0.0552968
0.0552843
0.0553035
0.0552755
0.0553138
0.0552652
0.0553214
0.055264
0.0553124
0.0552856
0.0552799
0.0553215
0.0552534
0.0553242
0.0552828
0.0552693
0.0553392
0.055243
0.0553179
0.0552912
0.0553061
0.0551932
0.055535
0.0549181
0.0556718
0.0551217
0.0550172
0.056194
0.0536739
0.0575813
0.052612
0.0576841
0.0543504
0.0533632
0.061553
0.0435332
0.0734305
0.0312831
0.406522
0.344525
0.298312
0.262652
0.234367
0.211421
0.192452
0.176524
0.162969
0.151301
0.141156
0.132254
0.124381
0.117373
0.111099
0.105452
0.100338
0.0956788
0.0914155
0.087513
0.0839559
0.0807274
0.0777886
0.0750734
0.0725102
0.0700475
0.0676748
0.0654232
0.0633502
0.0615167
0.0599676
0.0587207
0.0577667
0.0570733
0.0565936
0.056277
0.0560771
0.0559561
0.0558857
0.0558464
0.0558253
0.0558144
0.0558089
0.0558063
0.0558052
0.0558046
0.0558044
0.0558043
0.0558043
0.0558043
0.0558043
0.0558043
0.0558043
0.0558043
0.0558043
0.0558042
0.0558044
0.0558041
0.0558047
0.0558035
0.0558057
0.0558018
0.0558084
0.0557979
0.0558138
0.0557911
0.0558214
0.0557842
0.0558251
0.055787
0.0558127
0.0558102
0.0557813
0.0558419
0.0557616
0.0558368
0.0557971
0.0557794
0.0558528
0.0557532
0.05584
0.0557747
0.0558816
0.0555894
0.0562435
0.0551104
0.0566926
0.054881
0.0564896
0.0558204
0.0543453
0.0596622
0.0488312
0.0655237
0.0455912
0.0624022
0.0578396
0.0414802
0.0831776
0.0172454
0.40652
0.344529
0.298305
0.262643
0.234349
0.21139
0.192409
0.176476
0.162915
0.151235
0.141089
0.132206
0.124363
0.117384
0.11116
0.105608
0.100658
0.0962166
0.092188
0.088573
0.0854926
0.0830946
0.0814172
0.0802842
0.079395
0.0784447
0.077254
0.0757968
0.0741671
0.0725094
0.0709588
0.0696134
0.0685308
0.0677274
0.0671734
0.0668123
0.0665888
0.0664575
0.0663843
0.0663455
0.0663263
0.0663173
0.0663135
0.0663121
0.0663117
0.0663117
0.0663118
0.0663119
0.066312
0.066312
0.0663121
0.0663121
0.0663121
0.0663121
0.0663121
0.066312
0.0663122
0.0663119
0.0663125
0.0663113
0.0663136
0.0663096
0.0663162
0.0663056
0.0663218
0.0662986
0.0663297
0.0662913
0.0663339
0.0662935
0.0663222
0.0663159
0.0662914
0.0663474
0.0662714
0.0663444
0.0663005
0.0663018
0.0663286
0.066316
0.0662751
0.0663395
0.0664288
0.0658156
0.0674796
0.0642165
0.0694396
0.0623134
0.0706131
0.0628554
0.0670799
0.0707135
0.0543477
0.0867959
0.0391661
0.09385
0.0465555
0.0682666
0.0842638
0.0227283
0.406493
0.344543
0.298239
0.262599
0.234278
0.21132
0.192363
0.176524
0.163058
0.151489
0.141634
0.133236
0.126008
0.119812
0.114769
0.110899
0.108236
0.106639
0.105977
0.10688
0.110683
0.118502
0.130471
0.145356
0.160793
0.174522
0.185093
0.192077
0.195881
0.197347
0.197371
0.196697
0.195841
0.195114
0.194643
0.194399
0.194307
0.194299
0.194331
0.194374
0.194414
0.194446
0.194469
0.194484
0.194494
0.1945
0.194504
0.194506
0.194507
0.194507
0.194507
0.194508
0.194508
0.194508
0.194508
0.194508
0.194508
0.194508
0.194508
0.194507
0.19451
0.194504
0.194515
0.194497
0.194525
0.194482
0.194545
0.194457
0.194571
0.194435
0.194584
0.194439
0.194558
0.194484
0.194506
0.194522
0.194502
0.194487
0.194554
0.194469
0.194491
0.194576
0.194555
0.193873
0.196582
0.189816
0.203016
0.181434
0.211593
0.17563
0.210251
0.188345
0.183108
0.229003
0.135224
0.268725
0.116036
0.246024
0.162681
0.156624
0.406309
0.344623
0.297969
0.262833
0.234831
0.212721
0.194777
0.180536
0.168977
0.160208
0.154895
0.152876
0.153455
0.157609
0.166541
0.180451
0.198978
0.222043
0.250615
0.288326
0.339357
0.403366
0.47499
0.54746
0.61262
0.665653
0.704973
0.731678
0.748375
0.758077
0.763425
0.766389
0.768195
0.769454
0.770469
0.771345
0.772084
0.772673
0.773117
0.773435
0.773652
0.773794
0.773884
0.773939
0.773971
0.773989
0.774
0.774005
0.774008
0.77401
0.774011
0.774011
0.774011
0.774011
0.774011
0.774011
0.774012
0.774011
0.774012
0.77401
0.774014
0.774007
0.77402
0.773996
0.774038
0.773969
0.774078
0.773913
0.774151
0.773828
0.774238
0.773759
0.774265
0.773796
0.774155
0.773958
0.774001
0.774013
0.774127
0.77369
0.774544
0.773373
0.774627
0.773301
0.775568
0.769882
0.783303
0.756819
0.800494
0.739654
0.81052
0.744365
0.784375
0.793523
0.715511
0.866938
0.653102
0.880494
0.668676
0.771129
0.405149
0.345692
0.300413
0.273072
0.252711
0.242858
0.23772
0.242631
0.254529
0.275997
0.311131
0.358228
0.414928
0.485102
0.568683
0.66059
0.756169
0.855613
0.961514
1.07502
1.19363
1.31159
1.41951
1.50994
1.5763
1.62219
1.65216
1.67071
1.68172
1.68819
1.69221
1.695
1.69722
1.69919
1.70091
1.70231
1.70337
1.70415
1.70468
1.70504
1.70528
1.70542
1.70551
1.70556
1.70559
1.70561
1.70562
1.70562
1.70562
1.70562
1.70562
1.70563
1.70563
1.70563
1.70563
1.70563
1.70563
1.70563
1.70563
1.70563
1.70563
1.70562
1.70563
1.70562
1.70564
1.70559
1.70568
1.70554
1.70575
1.70544
1.70587
1.70533
1.70596
1.70529
1.7059
1.70547
1.70564
1.70571
1.70556
1.70549
1.70615
1.70464
1.70695
1.7042
1.7071
1.70345
1.7102
1.69603
1.72279
1.68005
1.73707
1.67466
1.72635
1.70485
1.67592
1.76773
1.60706
1.81
1.57976
1.74246
0.401363
0.379136
0.397709
0.461328
0.524267
0.610826
0.697155
0.832658
0.978458
1.15315
1.3509
1.55231
1.74876
1.937
2.10821
2.25341
2.37064
2.46351
2.53536
2.58767
2.62138
2.64171
2.65376
2.66042
2.66404
2.66555
2.66587
2.66567
2.66549
2.66567
2.66622
2.66703
2.66811
2.66948
2.67084
2.67195
2.67278
2.67338
2.67378
2.67405
2.67422
2.67432
2.67439
2.67442
2.67444
2.67445
2.67446
2.67446
2.67446
2.67446
2.67446
2.67446
2.67447
2.67447
2.67447
2.67447
2.67447
2.67447
2.67447
2.67447
2.67447
2.67446
2.67447
2.67446
2.67448
2.67445
2.6745
2.67442
2.67454
2.67435
2.67463
2.67426
2.67472
2.67419
2.67473
2.67427
2.67455
2.67451
2.67436
2.67452
2.67463
2.67393
2.67541
2.67324
2.67579
2.673
2.67672
2.67
2.68305
2.66033
2.69385
2.6529
2.69252
2.66702
2.66413
2.70682
2.61498
2.74847
2.58109
2.7322
0.637406
1.44375
2.41143
3.0784
3.36456
3.39137
3.27949
3.10855
2.932
2.77189
2.6312
2.51846
2.43585
2.37852
2.34024
2.31747
2.30849
2.31061
2.31937
2.32933
2.33708
2.34166
2.34347
2.34352
2.34282
2.34199
2.34135
2.34104
2.34106
2.34136
2.34189
2.34258
2.34332
2.34399
2.34453
2.34494
2.34523
2.34542
2.34554
2.34562
2.34567
2.3457
2.34571
2.34572
2.34573
2.34573
2.34573
2.34573
2.34573
2.34573
2.34573
2.34573
2.34573
2.34573
2.34573
2.34573
2.34573
2.34573
2.34573
2.34573
2.34573
2.34573
2.34573
2.34573
2.34573
2.34573
2.34574
2.34572
2.34575
2.34571
2.34577
2.34568
2.34579
2.34566
2.34581
2.34567
2.34577
2.34573
2.34571
2.34577
2.34573
2.34566
2.34594
2.34542
2.34611
2.34536
2.34618
2.34503
2.34721
2.3431
2.34993
2.34065
2.35117
2.34248
2.34663
2.35301
2.33837
2.37442
2.34667
2.42787
4.06684
7.78514
5.6516
9.77394
9.01985
3.95441
1.33712
0.450346
0.210907
0.148612
0.129505
0.110642
0.0946541
0.0872632
0.0852812
0.0840324
0.0815049
0.0777271
0.0734641
0.0695022
0.066265
0.0636987
0.0615406
0.059684
0.0581854
0.0570851
0.0563702
0.0559622
0.0557452
0.0556329
0.0555745
0.0555431
0.0555257
0.0555157
0.05551
0.0555067
0.0555049
0.0555038
0.0555032
0.0555029
0.0555027
0.0555026
0.0555026
0.0555026
0.0555025
0.0555025
0.0555025
0.0555025
0.0555025
0.0555025
0.0555025
0.0555025
0.0555025
0.0555025
0.0555025
0.0555025
0.0555025
0.0555025
0.0555025
0.0555025
0.0555025
0.0555025
0.0555025
0.0555025
0.0555025
0.0555025
0.0555025
0.0555025
0.0555025
0.0555025
0.0555025
0.0555025
0.0555025
0.0555025
0.0555025
0.0555025
0.0555025
0.0555025
0.0555025
0.0555025
0.0555026
0.0555024
0.0555028
0.0555022
0.0555031
0.0555018
0.0555035
0.0555015
0.0555036
0.0555015
0.0555035
0.0555014
0.0555034
0.0555011
0.0555032
0.0555005
0.0555023
0.055498
0.0554996
0.0554911
4.24146
8.87113
6.6066
9.937
7.72367
2.99404
0.917882
0.304504
0.15694
0.11616
0.110107
0.104635
0.0938282
0.0859768
0.0829505
0.0817291
0.079873
0.0767666
0.0728858
0.0690405
0.0658242
0.0633249
0.0612931
0.059559
0.058151
0.0571013
0.0563806
0.055941
0.0556973
0.055567
0.0554978
0.0554611
0.0554415
0.0554311
0.0554255
0.0554225
0.0554209
0.05542
0.0554196
0.0554193
0.0554192
0.0554191
0.0554191
0.0554191
0.0554191
0.0554191
0.0554191
0.0554191
0.0554191
0.0554191
0.0554191
0.0554191
0.0554191
0.0554191
0.0554191
0.0554191
0.0554191
0.0554191
0.0554191
0.0554191
0.0554191
0.0554191
0.0554191
0.0554191
0.0554191
0.0554191
0.0554191
0.0554191
0.0554191
0.0554191
0.0554191
0.0554191
0.0554191
0.0554191
0.0554191
0.0554191
0.0554191
0.055419
0.0554191
0.055419
0.0554192
0.0554189
0.0554193
0.0554187
0.0554196
0.0554184
0.0554199
0.0554182
0.05542
0.0554183
0.0554197
0.0554184
0.0554196
0.0554184
0.0554192
0.0554184
0.0554185
0.0554172
0.0554171
0.0554135
1.61655
7.56303
6.90042
9.35168
5.93452
1.99652
0.550104
0.188472
0.121894
0.10675
0.104954
0.103463
0.0950572
0.0863228
0.0817015
0.0799009
0.0783752
0.0758524
0.0723723
0.0686442
0.0653989
0.0629235
0.061043
0.0595029
0.0582362
0.057252
0.0565256
0.0560348
0.0557386
0.0555722
0.055482
0.0554341
0.055409
0.055396
0.0553892
0.0553858
0.055384
0.0553831
0.0553826
0.0553824
0.0553822
0.0553822
0.0553822
0.0553821
0.0553821
0.0553821
0.0553821
0.0553821
0.0553821
0.0553821
0.0553821
0.0553821
0.0553821
0.0553821
0.0553821
0.0553821
0.0553821
0.0553821
0.0553821
0.0553821
0.0553821
0.0553821
0.0553821
0.0553821
0.0553821
0.0553821
0.0553821
0.0553821
0.0553821
0.0553821
0.0553821
0.0553821
0.0553821
0.0553821
0.0553821
0.0553821
0.0553821
0.0553821
0.0553821
0.0553821
0.0553822
0.055382
0.0553823
0.0553818
0.0553825
0.0553816
0.0553827
0.0553816
0.0553826
0.0553819
0.0553822
0.0553823
0.0553818
0.0553827
0.0553814
0.0553835
0.0553812
0.0553842
0.0553821
0.0553859
0.100248
4.41637
5.4104
7.13139
3.7191
1.05794
0.273595
0.11434
0.0937011
0.0863201
0.0893284
0.0965512
0.0944913
0.0868157
0.080865
0.0781445
0.0766894
0.0747195
0.0717476
0.0682497
0.0649992
0.0624879
0.0607099
0.0593863
0.0583148
0.0574369
0.0567379
0.0562192
0.0558742
0.0556664
0.0555481
0.055483
0.055448
0.0554294
0.0554196
0.0554145
0.0554118
0.0554104
0.0554097
0.0554094
0.0554092
0.0554091
0.055409
0.055409
0.055409
0.055409
0.055409
0.055409
0.055409
0.055409
0.055409
0.055409
0.055409
0.055409
0.055409
0.055409
0.055409
0.055409
0.055409
0.055409
0.055409
0.055409
0.055409
0.055409
0.055409
0.055409
0.055409
0.055409
0.055409
0.055409
0.055409
0.055409
0.055409
0.055409
0.055409
0.055409
0.055409
0.055409
0.055409
0.055409
0.0554091
0.0554089
0.0554091
0.0554088
0.0554092
0.0554087
0.0554093
0.0554088
0.0554091
0.0554092
0.0554086
0.0554097
0.0554082
0.0554103
0.0554079
0.0554114
0.0554081
0.0554132
0.0554105
0.0554184
0.0320177
1.64259
3.04152
3.86348
1.66452
0.417841
0.122884
0.0805711
0.093852
0.0936094
0.0860964
0.0909569
0.0938513
0.0889202
0.0820965
0.0776888
0.0754268
0.0735381
0.0709815
0.0678041
0.0646392
0.0620772
0.0602941
0.0590881
0.05818
0.0574269
0.0567959
0.0562966
0.0559413
0.0557145
0.0555802
0.0555044
0.0554628
0.0554404
0.0554285
0.0554222
0.055419
0.0554173
0.0554164
0.0554159
0.0554157
0.0554156
0.0554155
0.0554155
0.0554155
0.0554155
0.0554154
0.0554154
0.0554154
0.0554154
0.0554154
0.0554154
0.0554154
0.0554154
0.0554154
0.0554154
0.0554154
0.0554154
0.0554154
0.0554154
0.0554154
0.0554154
0.0554154
0.0554154
0.0554154
0.0554154
0.0554154
0.0554154
0.0554154
0.0554154
0.0554154
0.0554154
0.0554154
0.0554154
0.0554154
0.0554154
0.0554154
0.0554154
0.0554155
0.0554154
0.0554155
0.0554154
0.0554155
0.0554153
0.0554156
0.0554152
0.0554156
0.0554153
0.0554154
0.0554157
0.055415
0.0554161
0.0554147
0.0554167
0.0554145
0.0554177
0.0554149
0.0554195
0.0554175
0.055425
0.251838
0.31202
1.1961
1.36214
0.516407
0.139683
0.0679116
0.0745566
0.0882102
0.0959041
0.0834856
0.0806206
0.085863
0.0863239
0.0817754
0.0770054
0.0739913
0.0719693
0.0697803
0.0670546
0.0641608
0.0616628
0.0598567
0.0586638
0.0578258
0.0571608
0.0566123
0.0561777
0.055863
0.0556569
0.0555325
0.0554616
0.0554227
0.0554018
0.0553907
0.0553849
0.0553819
0.0553803
0.0553795
0.055379
0.0553788
0.0553787
0.0553787
0.0553786
0.0553786
0.0553786
0.0553786
0.0553786
0.0553786
0.0553786
0.0553786
0.0553786
0.0553786
0.0553786
0.0553786
0.0553786
0.0553786
0.0553786
0.0553786
0.0553786
0.0553786
0.0553786
0.0553786
0.0553786
0.0553786
0.0553786
0.0553786
0.0553786
0.0553786
0.0553786
0.0553786
0.0553786
0.0553786
0.0553786
0.0553786
0.0553786
0.0553786
0.0553786
0.0553786
0.0553786
0.0553786
0.0553785
0.0553787
0.0553785
0.0553787
0.0553784
0.0553787
0.0553785
0.0553786
0.0553788
0.0553783
0.0553791
0.055378
0.0553795
0.0553779
0.0553803
0.0553783
0.0553817
0.0553804
0.0553863
0.193369
0.00754818
0.336247
0.347137
0.148022
0.0634533
0.0629645
0.0862385
0.0994041
0.114904
0.106268
0.0895538
0.084364
0.083997
0.081348
0.0771128
0.0735325
0.0709713
0.0686935
0.0661892
0.0635504
0.0611793
0.0593777
0.0581607
0.0573424
0.0567474
0.0562958
0.0559555
0.0557124
0.0555524
0.0554549
0.055399
0.0553683
0.0553519
0.0553433
0.0553389
0.0553365
0.0553353
0.0553347
0.0553343
0.0553341
0.0553341
0.055334
0.055334
0.055334
0.055334
0.055334
0.055334
0.055334
0.055334
0.055334
0.055334
0.055334
0.055334
0.055334
0.055334
0.055334
0.055334
0.055334
0.055334
0.055334
0.055334
0.055334
0.055334
0.055334
0.055334
0.055334
0.055334
0.055334
0.055334
0.055334
0.055334
0.055334
0.055334
0.055334
0.055334
0.055334
0.055334
0.055334
0.055334
0.055334
0.0553339
0.055334
0.0553339
0.0553341
0.0553339
0.0553341
0.0553339
0.055334
0.0553341
0.0553337
0.0553344
0.0553335
0.0553347
0.0553334
0.0553353
0.0553337
0.0553364
0.0553353
0.0553399
0.122635
0.033635
0.0686893
0.0852363
0.0442552
0.049587
0.0733556
0.0852939
0.0810028
0.0895864
0.103215
0.0995394
0.0920664
0.0890319
0.0870395
0.0835024
0.0789674
0.0744666
0.070372
0.0667221
0.0635807
0.0610589
0.0592058
0.0579443
0.0571027
0.056518
0.0561005
0.0558039
0.0556012
0.0554717
0.0553946
0.0553511
0.0553276
0.0553151
0.0553086
0.0553052
0.0553035
0.0553026
0.0553022
0.055302
0.0553019
0.0553018
0.0553018
0.0553018
0.0553018
0.0553018
0.0553018
0.0553018
0.0553018
0.0553018
0.0553018
0.0553018
0.0553018
0.0553018
0.0553018
0.0553018
0.0553018
0.0553018
0.0553018
0.0553018
0.0553018
0.0553018
0.0553018
0.0553018
0.0553018
0.0553018
0.0553018
0.0553018
0.0553018
0.0553018
0.0553018
0.0553018
0.0553018
0.0553018
0.0553018
0.0553018
0.0553018
0.0553018
0.0553018
0.0553017
0.0553018
0.0553017
0.0553018
0.0553017
0.0553018
0.0553017
0.0553018
0.0553017
0.0553017
0.0553019
0.0553015
0.0553021
0.0553014
0.0553024
0.0553013
0.0553028
0.0553014
0.0553036
0.0553027
0.0553063
0.0693822
0.0710229
0.036819
0.0699609
0.0470084
0.0742703
0.0867432
0.0822346
0.0859725
0.0745841
0.0757635
0.0788405
0.0749301
0.0716131
0.072438
0.0748019
0.0758751
0.0747075
0.0716534
0.0676601
0.0637571
0.0606377
0.0585067
0.0572174
0.0564877
0.056062
0.0557878
0.0555994
0.0554712
0.055389
0.0553397
0.0553118
0.0552967
0.0552888
0.0552848
0.0552827
0.0552816
0.0552811
0.0552808
0.0552806
0.0552806
0.0552805
0.0552805
0.0552805
0.0552805
0.0552805
0.0552805
0.0552805
0.0552805
0.0552805
0.0552805
0.0552805
0.0552805
0.0552805
0.0552805
0.0552805
0.0552805
0.0552805
0.0552805
0.0552805
0.0552805
0.0552805
0.0552805
0.0552805
0.0552805
0.0552805
0.0552805
0.0552805
0.0552805
0.0552805
0.0552805
0.0552805
0.0552805
0.0552805
0.0552805
0.0552805
0.0552805
0.0552805
0.0552805
0.0552805
0.0552805
0.0552805
0.0552805
0.0552804
0.0552806
0.0552804
0.0552806
0.0552804
0.0552805
0.0552806
0.0552803
0.0552807
0.0552802
0.0552809
0.0552801
0.0552813
0.0552802
0.0552818
0.055281
0.0552836
0.0680893
0.0510744
0.0581316
0.0625277
0.0455135
0.0837567
0.0758959
0.0456496
0.0566365
0.0672498
0.0677957
0.07406
0.0779531
0.0741252
0.0680289
0.065234
0.0661652
0.0682251
0.0690863
0.068005
0.0655201
0.0626225
0.0600847
0.0582291
0.0570275
0.0562981
0.0558609
0.0555984
0.0554441
0.0553572
0.0553108
0.0552872
0.0552756
0.05527
0.0552674
0.0552662
0.0552657
0.0552654
0.0552653
0.0552652
0.0552652
0.0552652
0.0552652
0.0552652
0.0552652
0.0552652
0.0552652
0.0552652
0.0552652
0.0552652
0.0552652
0.0552652
0.0552652
0.0552652
0.0552652
0.0552652
0.0552652
0.0552652
0.0552652
0.0552652
0.0552652
0.0552652
0.0552652
0.0552652
0.0552652
0.0552652
0.0552652
0.0552652
0.0552652
0.0552652
0.0552652
0.0552652
0.0552652
0.0552652
0.0552652
0.0552652
0.0552652
0.0552652
0.0552652
0.0552652
0.0552652
0.0552652
0.0552652
0.0552651
0.0552653
0.0552651
0.0552653
0.0552651
0.0552653
0.0552652
0.0552652
0.0552653
0.0552651
0.0552654
0.0552649
0.0552656
0.0552649
0.0552658
0.0552652
0.0552666
0.0541362
0.0626276
0.0502636
0.0623725
0.0496796
0.0759656
0.0524741
0.0660527
0.0972289
0.109117
0.101601
0.0880618
0.0809258
0.0802462
0.0809271
0.0797377
0.0763735
0.0719442
0.0675903
0.0639342
0.0611275
0.0590911
0.0576837
0.0567595
0.0561792
0.0558199
0.0555925
0.0554468
0.055357
0.0553058
0.0552788
0.0552658
0.05526
0.0552576
0.0552566
0.0552563
0.0552563
0.0552563
0.0552563
0.0552563
0.0552563
0.0552563
0.0552563
0.0552563
0.0552563
0.0552563
0.0552563
0.0552563
0.0552563
0.0552563
0.0552563
0.0552563
0.0552563
0.0552563
0.0552563
0.0552563
0.0552563
0.0552563
0.0552563
0.0552563
0.0552563
0.0552563
0.0552563
0.0552563
0.0552563
0.0552563
0.0552563
0.0552563
0.0552563
0.0552563
0.0552563
0.0552563
0.0552563
0.0552563
0.0552563
0.0552563
0.0552563
0.0552563
0.0552563
0.0552563
0.0552563
0.0552563
0.0552564
0.0552562
0.0552565
0.0552561
0.0552565
0.0552561
0.0552565
0.0552561
0.0552564
0.0552562
0.0552564
0.0552563
0.0552562
0.0552563
0.0552561
0.0552562
0.0552559
0.0552559
0.0619374
0.0512137
0.0533572
0.077335
0.0224921
0.10318
0.0428954
0.0604195
0.13221
0.129804
0.107784
0.0946779
0.0870078
0.0805056
0.0749595
0.0714193
0.0698463
0.0690155
0.0676865
0.06549
0.0628543
0.0603955
0.058481
0.0571736
0.0563604
0.0558801
0.0555983
0.0554323
0.0553375