/*--------------------------------*- C++ -*----------------------------------*\
| =========                 |                                                 |
| \\      /  F ield         | OpenFOAM: The Open Source CFD Toolbox           |
|  \\    /   O peration     | Version:  v2012                                 |
|   \\  /    A nd           | Website:  www.openfoam.com                      |
|    \\/     M anipulation  |                                                 |
\*---------------------------------------------------------------------------*/
FoamFile
{
    version     2.0;
    format      ascii;
    class       surfaceScalarField;
    location    "0.121";
    object      phi.air;
}
// * * * * * * * * * * * * * * * * * * * * * * * * * * * * * * * * * * * * * //

dimensions      [0 3 -1 0 0 0 0];
oriented        oriented;


internalField   nonuniform List<scalar> 
10964
(
0.000657106
2.51272e-05
0.0006289
2.73644e-05
0.000601318
2.67389e-05
0.000575027
2.54452e-05
0.00055112
2.30591e-05
0.000530161
2.01091e-05
0.000512503
1.68067e-05
0.0004979
1.37501e-05
0.000485909
1.11375e-05
0.000476266
8.78872e-06
0.00046866
6.75102e-06
0.000462712
5.09244e-06
0.000458073
3.78402e-06
0.000454433
2.78375e-06
0.00045154
2.03726e-06
0.000449196
1.48799e-06
0.000447253
1.08713e-06
0.00044561
7.8695e-07
0.000444194
5.59791e-07
0.000442977
3.61648e-07
0.000441919
2.02147e-07
0.00044102
4.31087e-08
0.000440274
-1.10182e-07
0.000439661
-2.42844e-07
0.000439158
-3.52599e-07
0.00043874
-4.37872e-07
0.000438398
-5.14535e-07
0.000438104
-5.61485e-07
0.000437853
-6.0457e-07
0.000437613
-6.15379e-07
0.000437375
-6.17965e-07
0.000437144
-6.24208e-07
0.000436909
-6.21481e-07
0.000436674
-6.20077e-07
0.000436436
-6.17998e-07
0.000436209
-6.28321e-07
0.000435977
-6.2302e-07
0.000435758
-6.3671e-07
0.000435539
-6.36997e-07
0.000435341
-6.56946e-07
0.000435141
-6.55574e-07
0.000434968
-6.82481e-07
0.000434789
-6.76931e-07
0.00043464
-7.06143e-07
0.000434507
-7.22535e-07
0.000434358
-7.06808e-07
0.000434255
-7.52742e-07
0.000434134
-7.34626e-07
0.000434055
-7.76673e-07
0.000433942
-7.42198e-07
0.000433881
-7.94886e-07
0.000433808
-7.81733e-07
0.000433725
-7.7284e-07
0.00043369
-8.20285e-07
0.000433596
-7.61956e-07
0.000433581
-8.39962e-07
0.000433505
-7.79841e-07
0.0004335
-8.50507e-07
0.000433466
-8.21611e-07
0.000433448
-8.37355e-07
0.000433463
-8.69885e-07
0.000433393
-7.8539e-07
0.000433398
-8.60853e-07
0.00043331
-7.66954e-07
0.000433276
-8.21902e-07
0.000433165
-7.44605e-07
0.000433095
-7.85055e-07
0.000433055
-8.15487e-07
0.000432918
-7.18669e-07
0.000432926
-8.63576e-07
0.000432809
-7.37876e-07
0.000432814
-8.60688e-07
0.00043274
-7.81448e-07
0.00043273
-8.45812e-07
0.000432744
-8.68436e-07
0.00043264
-7.52119e-07
0.000432779
-9.94664e-07
0.000432666
-7.41849e-07
0.000432711
-9.01042e-07
0.000432699
-8.42306e-07
0.000432682
-8.38972e-07
0.000432736
-9.09095e-07
0.000432595
-7.15368e-07
0.000432748
-1.0076e-06
0.000432646
-7.53418e-07
0.000432605
-8.15424e-07
0.000432649
-8.98482e-07
0.000432507
-7.1421e-07
0.000432675
-1.02336e-06
0.000432439
-6.19325e-07
0.000432526
-9.42419e-07
0.000432427
-7.56328e-07
0.000432314
-7.43107e-07
0.000432373
-9.14024e-07
0.000432049
-5.31497e-07
0.000432251
-1.05778e-06
0.000431948
-5.52032e-07
0.000431939
-8.47057e-07
0.000431009
7.38649e-08
-8.38941e-06
0.000438545
0.000757085
2.43227e-05
0.000754876
2.95733e-05
0.000751202
3.04128e-05
0.000745928
3.07189e-05
0.000739362
2.96257e-05
0.000731832
2.76386e-05
0.000723577
2.50619e-05
0.000714967
2.23596e-05
0.000706312
1.97927e-05
0.000697782
1.73186e-05
0.000689587
1.49459e-05
0.000681839
1.28407e-05
0.00067462
1.10028e-05
0.000667975
9.4287e-06
0.000661924
8.0888e-06
0.000656454
6.95837e-06
0.000651543
5.99721e-06
0.00064716
5.17033e-06
0.000643277
4.44285e-06
0.000639871
3.76741e-06
0.000636901
3.17265e-06
0.000634313
2.63059e-06
0.000632002
2.2012e-06
0.000629934
1.82484e-06
0.000628079
1.50288e-06
0.000626417
1.22367e-06
0.000624894
1.00915e-06
0.000623477
8.55171e-07
0.000622158
7.13959e-07
0.000620926
6.16765e-07
0.000619778
5.29803e-07
0.000618716
4.38543e-07
0.000617734
3.60268e-07
0.000616826
2.87381e-07
0.000615987
2.21033e-07
0.000615211
1.48364e-07
0.000614489
9.84048e-08
0.000613821
3.14521e-08
0.0006132
-1.62114e-08
0.000612627
-8.35246e-08
0.000612095
-1.23557e-07
0.000611606
-1.93952e-07
0.000611156
-2.26057e-07
0.000610734
-2.84256e-07
0.000610349
-3.37487e-07
0.000609978
-3.35868e-07
0.000609641
-4.16514e-07
0.000609317
-4.10373e-07
0.000609025
-4.84811e-07
0.000608755
-4.7233e-07
0.0006085
-5.39671e-07
0.000608271
-5.52114e-07
0.000608039
-5.40863e-07
0.000607839
-6.20771e-07
0.000607646
-5.6868e-07
0.000607485
-6.78624e-07
0.000607321
-6.16217e-07
0.000607191
-7.2097e-07
0.000607095
-7.24769e-07
0.000606988
-7.30722e-07
0.000606897
-7.79353e-07
0.00060681
-6.97823e-07
0.000606729
-7.80227e-07
0.000606615
-6.53005e-07
0.000606511
-7.18045e-07
0.000606402
-6.35643e-07
0.00060627
-6.52229e-07
0.000606153
-6.98503e-07
0.000606042
-6.08187e-07
0.00060594
-7.61274e-07
0.000605841
-6.39201e-07
0.00060577
-7.89243e-07
0.000605707
-7.19028e-07
0.000605661
-7.99922e-07
0.000605655
-8.62418e-07
0.000605629
-7.25707e-07
0.000605597
-9.6274e-07
0.000605597
-7.4229e-07
0.000605593
-8.97032e-07
0.000605592
-8.40903e-07
0.000605565
-8.1205e-07
0.000605593
-9.36913e-07
0.000605578
-7.00532e-07
0.000605537
-9.66372e-07
0.000605542
-7.59035e-07
0.000605505
-7.78402e-07
0.000605514
-9.06567e-07
0.000605462
-6.62618e-07
0.000605419
-9.80027e-07
0.000605407
-6.08125e-07
0.00060532
-8.55091e-07
0.000605349
-7.85254e-07
0.00060518
-5.74271e-07
0.000605204
-9.38062e-07
0.000605121
-4.48068e-07
0.000605076
-1.01266e-06
0.000604925
-4.0142e-07
0.000605212
-1.13393e-06
0.000604806
4.7989e-07
-1.01975e-05
0.000606614
0.000840342
2.13133e-05
0.000842331
2.75846e-05
0.000844302
2.84416e-05
0.000845632
2.93889e-05
0.000846213
2.90448e-05
0.000845985
2.78668e-05
0.000845037
2.60105e-05
0.000843329
2.40673e-05
0.000840903
2.22181e-05
0.000837776
2.04457e-05
0.000834026
1.86966e-05
0.000829712
1.71546e-05
0.000824939
1.57752e-05
0.000819828
1.45397e-05
0.000814507
1.341e-05
0.000809092
1.23739e-05
0.000803704
1.13848e-05
0.00079845
1.04244e-05
0.000793418
9.47454e-06
0.000788679
8.50641e-06
0.000784254
7.59741e-06
0.000780182
6.70316e-06
0.000776457
5.92603e-06
0.000773067
5.21521e-06
0.00076997
4.59954e-06
0.000767155
4.03888e-06
0.00076456
3.60423e-06
0.000762172
3.24257e-06
0.00075997
2.91666e-06
0.000757945
2.64185e-06
0.00075609
2.38455e-06
0.000754387
2.14187e-06
0.000752825
1.9219e-06
0.000751387
1.72524e-06
0.000750061
1.54698e-06
0.000748836
1.37297e-06
0.000747705
1.23001e-06
0.000746659
1.07747e-06
0.000745694
9.48239e-07
0.0007448
8.10759e-07
0.00074398
6.96079e-07
0.000743213
5.73049e-07
0.000742525
4.62405e-07
0.000741855
3.85764e-07
0.000741238
2.79703e-07
0.00074065
2.52232e-07
0.000740101
1.31715e-07
0.00073959
1.00837e-07
0.000739101
4.03451e-09
0.00073868
-5.10316e-08
0.00073824
-9.9747e-08
0.000737869
-1.81359e-07
0.000737502
-1.73562e-07
0.000737174
-2.92214e-07
0.000736879
-2.74561e-07
0.00073659
-3.89534e-07
0.000736363
-3.89077e-07
0.000736109
-4.66877e-07
0.000735935
-5.50449e-07
0.000735754
-5.49659e-07
0.00073559
-6.15235e-07
0.000735457
-5.64685e-07
0.000735315
-6.39172e-07
0.000735179
-5.16928e-07
0.000735012
-5.5077e-07
0.000734904
-5.28002e-07
0.000734717
-4.65112e-07
0.000734555
-5.36475e-07
0.000734422
-4.7448e-07
0.000734272
-6.11294e-07
0.000734173
-5.40143e-07
0.000734046
-6.62898e-07
0.000734009
-6.81517e-07
0.00073391
-7.01669e-07
0.000733881
-8.32534e-07
0.000733877
-7.21791e-07
0.000733807
-8.93518e-07
0.000733827
-7.61541e-07
0.000733787
-8.57158e-07
0.000733822
-8.76343e-07
0.000733767
-7.57026e-07
0.000733769
-9.38677e-07
0.000733808
-7.3925e-07
0.00073373
-8.8873e-07
0.000733758
-7.87262e-07
0.000733699
-7.18736e-07
0.000733704
-9.1242e-07
0.000733694
-6.51782e-07
0.00073359
-8.76858e-07
0.000733634
-6.51459e-07
0.000733495
-7.15892e-07
0.000733528
-8.18186e-07
0.000733438
-4.84965e-07
0.000733355
-8.54619e-07
0.000733393
-4.86027e-07
0.000733213
-8.33247e-07
0.000733229
-4.17096e-07
0.000733384
-1.28905e-06
0.000733525
3.38754e-07
-9.21018e-06
0.000732538
0.000930295
1.80908e-05
0.000933079
2.48011e-05
0.000936234
2.52864e-05
0.000939314
2.63092e-05
0.000942131
2.62274e-05
0.000944657
2.53409e-05
0.000946786
2.38816e-05
0.000948508
2.23451e-05
0.000949818
2.09084e-05
0.000950711
1.95519e-05
0.000951158
1.82503e-05
0.000951126
1.71858e-05
0.000950718
1.61838e-05
0.000949891
1.53671e-05
0.000948628
1.46724e-05
0.000946927
1.40747e-05
0.000944788
1.35243e-05
0.000942218
1.29944e-05
0.000939238
1.24544e-05
0.000935887
1.1857e-05
0.000932207
1.1278e-05
0.000928292
1.06174e-05
0.000924258
9.9604e-06
0.000920215
9.25854e-06
0.00091622
8.59462e-06
0.000912374
7.88412e-06
0.000908727
7.25215e-06
0.000905331
6.63789e-06
0.000902174
6.07354e-06
0.000899262
5.55403e-06
0.000896577
5.06964e-06
0.000894083
4.63632e-06
0.000891755
4.24923e-06
0.00088958
3.90061e-06
0.000887545
3.58228e-06
0.000885648
3.26992e-06
0.000883883
2.99484e-06
0.000882241
2.71915e-06
0.000880727
2.4621e-06
0.000879315
2.22274e-06
0.00087803
1.98154e-06
0.000876807
1.79593e-06
0.000875706
1.56349e-06
0.000874648
1.44336e-06
0.000873678
1.2503e-06
0.000872772
1.15798e-06
0.000871926
9.77948e-07
0.000871151
8.75113e-07
0.000870398
7.57333e-07
0.00086975
5.96652e-07
0.000869075
5.75783e-07
0.000868501
3.92685e-07
0.000867952
3.75395e-07
0.00086745
2.09471e-07
0.000867004
1.71501e-07
0.000866558
5.70589e-08
0.00086621
-4.11251e-08
0.000865803
-6.05145e-08
0.000865502
-2.49308e-07
0.000865202
-2.49074e-07
0.000864936
-3.49532e-07
0.000864707
-3.36119e-07
0.000864484
-4.16333e-07
0.00086429
-3.22519e-07
0.000864035
-2.95695e-07
0.000863881
-3.73598e-07
0.00086363
-2.14816e-07
0.00086342
-3.25794e-07
0.000863234
-2.89358e-07
0.00086305
-4.27116e-07
0.000862926
-4.16159e-07
0.000862763
-5.00081e-07
0.000862728
-6.45734e-07
0.000862597
-5.71152e-07
0.000862548
-7.8318e-07
0.000862526
-7.00134e-07
0.000862459
-8.26099e-07
0.00086247
-7.72799e-07
0.000862411
-7.98579e-07
0.000862462
-9.26472e-07
0.000862404
-6.99392e-07
0.000862398
-9.32948e-07
0.000862434
-7.75033e-07
0.00086237
-8.24749e-07
0.0008624
-8.16905e-07
0.000862335
-6.54225e-07
0.000862339
-9.16771e-07
0.000862326
-6.38461e-07
0.000862241
-7.91397e-07
0.000862267
-6.77515e-07
0.000862152
-6.01656e-07
0.000862144
-8.09964e-07
0.000862121
-4.61894e-07
0.00086203
-7.63914e-07
0.000862096
-5.51625e-07
0.000861926
-6.63151e-07
0.000861948
-4.38909e-07
0.000862014
-1.35512e-06
0.000862304
4.86428e-08
-7.86673e-06
0.000860961
0.00102962
1.48965e-05
0.00103284
2.15822e-05
0.0010364
2.17311e-05
0.00104004
2.26636e-05
0.00104357
2.26976e-05
0.00104697
2.19459e-05
0.00105012
2.07296e-05
0.00105301
1.94528e-05
0.00105566
1.82585e-05
0.00105807
1.7149e-05
0.00106022
1.60935e-05
0.00106216
1.52529e-05
0.00106386
1.44762e-05
0.00106537
1.38614e-05
0.00106667
1.33699e-05
0.00106777
1.29764e-05
0.00106865
1.26447e-05
0.0010693
1.23471e-05
0.00106968
1.20705e-05
0.00106975
1.17916e-05
0.00106951
1.15186e-05
0.00106894
1.11878e-05
0.00106801
1.0889e-05
0.0010667
1.05612e-05
0.00106504
1.02625e-05
0.00106302
9.89989e-06
0.00106072
9.55676e-06
0.00105818
9.17468e-06
0.00105547
8.77938e-06
0.00105266
8.3688e-06
0.00104976
7.96888e-06
0.00104688
7.51097e-06
0.00104404
7.09559e-06
0.00104129
6.64822e-06
0.00103863
6.24034e-06
0.0010361
5.80319e-06
0.00103369
5.40253e-06
0.00103141
5.00339e-06
0.00102928
4.59394e-06
0.00102724
4.25447e-06
0.00102538
3.84326e-06
0.00102354
3.63725e-06
0.00102184
3.2683e-06
0.0010202
3.07606e-06
0.00101868
2.77086e-06
0.00101727
2.56776e-06
0.00101593
2.31656e-06
0.00101474
2.0711e-06
0.00101353
1.96049e-06
0.0010125
1.63522e-06
0.00101144
1.62825e-06
0.00101051
1.32842e-06
0.00100965
1.22876e-06
0.00100884
1.02456e-06
0.00100814
8.66417e-07
0.00100742
7.84453e-07
0.00100682
5.55484e-07
0.00100614
6.19588e-07
0.00100558
3.14404e-07
0.00100504
2.9123e-07
0.00100454
1.47381e-07
0.00100413
7.25342e-08
0.00100369
2.20574e-08
0.00100339
-2.16183e-08
0.00100294
1.58274e-07
0.00100263
-6.78242e-08
0.00100232
1.01635e-07
0.00100201
-1.79633e-08
0.00100178
-6.14405e-08
0.00100152
-1.66465e-07
0.00100139
-2.89338e-07
0.00100118
-2.92155e-07
0.00100112
-5.85779e-07
0.001001
-4.46076e-07
0.00100089
-6.78665e-07
0.00100087
-6.7879e-07
0.00100078
-7.37232e-07
0.00100081
-8.01567e-07
0.00100074
-7.21178e-07
0.00100078
-9.74714e-07
0.00100078
-6.97105e-07
0.00100073
-8.77082e-07
0.00100078
-8.26816e-07
0.00100071
-7.54747e-07
0.00100075
-8.60264e-07
0.00100073
-6.35213e-07
0.00100069
-8.695e-07
0.00100071
-6.67904e-07
0.00100064
-7.17513e-07
0.0010007
-7.31883e-07
0.00100065
-5.53968e-07
0.00100061
-7.71757e-07
0.00100067
-5.22805e-07
0.00100054
-6.36731e-07
0.00100064
-6.52366e-07
0.0010006
-6.19913e-07
0.00100062
-4.60899e-07
0.00100063
-1.36762e-06
0.001001
-3.14222e-07
-6.80173e-06
0.000999933
0.00113955
1.17867e-05
0.00114322
1.79068e-05
0.00114711
1.7847e-05
0.00115114
1.86317e-05
0.0011551
1.87304e-05
0.00115895
1.80958e-05
0.00116259
1.70975e-05
0.00116599
1.60472e-05
0.00116919
1.50595e-05
0.00117219
1.4148e-05
0.001175
1.32869e-05
0.00117765
1.26014e-05
0.00118015
1.1979e-05
0.00118252
1.149e-05
0.00118478
1.11089e-05
0.00118694
1.08149e-05
0.00118901
1.05756e-05
0.00119098
1.03731e-05
0.00119286
1.01903e-05
0.00119464
1.00186e-05
0.0011963
9.85942e-06
0.00119782
9.66272e-06
0.00119921
9.49646e-06
0.00120044
9.33137e-06
0.00120151
9.19754e-06
0.00120237
9.03611e-06
0.00120302
8.90696e-06
0.00120345
8.74925e-06
0.0012036
8.62576e-06
0.00120347
8.49635e-06
0.0012031
8.34021e-06
0.00120247
8.13995e-06
0.0012016
7.97078e-06
0.0012005
7.74664e-06
0.00119919
7.54769e-06
0.00119771
7.28682e-06
0.00119607
7.04058e-06
0.00119431
6.76537e-06
0.00119246
6.44095e-06
0.00119053
6.18708e-06
0.0011886
5.76941e-06
0.00118661
5.62753e-06
0.00118468
5.19673e-06
0.00118277
4.99039e-06
0.0011809
4.63669e-06
0.00117915
4.32423e-06
0.00117738
4.08002e-06
0.00117582
3.63426e-06
0.00117416
3.61763e-06
0.0011727
3.09521e-06
0.00117128
3.05055e-06
0.0011699
2.71134e-06
0.00116868
2.44396e-06
0.00116743
2.28052e-06
0.00116636
1.93283e-06
0.00116521
1.93913e-06
0.00116419
1.57632e-06
0.00116314
1.66943e-06
0.00116216
1.28913e-06
0.00116127
1.18542e-06
0.00116038
1.03731e-06
0.00115964
8.08491e-07
0.00115883
8.30879e-07
0.00115822
5.86774e-07
0.00115748
9.01234e-07
0.00115693
4.81742e-07
0.0011565
5.37215e-07
0.00115605
4.27101e-07
0.00115577
2.16916e-07
0.00115542
1.90897e-07
0.00115529
-1.69126e-07
0.00115505
-4.38673e-08
0.0011549
-4.41684e-07
0.0011548
-3.44211e-07
0.00115466
-5.4007e-07
0.00115467
-6.82926e-07
0.00115454
-6.15989e-07
0.0011546
-8.59407e-07
0.00115455
-6.64057e-07
0.00115453
-9.56202e-07
0.00115458
-7.54675e-07
0.00115452
-8.07559e-07
0.00115462
-9.32699e-07
0.00115456
-6.90586e-07
0.00115456
-8.6417e-07
0.00115463
-7.0553e-07
0.00115458
-8.19955e-07
0.00115468
-7.66044e-07
0.00115462
-6.62632e-07
0.00115469
-7.92613e-07
0.00115474
-6.06047e-07
0.00115473
-7.65902e-07
0.00115488
-6.69572e-07
0.00115476
-5.20585e-07
0.00115486
-7.51344e-07
0.00115496
-7.23282e-07
0.00115504
-5.31207e-07
0.00115507
-1.39804e-06
0.00115543
-6.78874e-07
-6.06092e-06
0.00115469
0.0012613
8.72219e-06
0.00126542
1.37833e-05
0.00126966
1.36078e-05
0.00127409
1.42052e-05
0.00127848
1.43365e-05
0.00128274
1.38327e-05
0.00128678
1.30612e-05
0.00129058
1.22445e-05
0.00129417
1.14706e-05
0.00129756
1.07607e-05
0.00130075
1.00947e-05
0.00130379
9.56176e-06
0.00130669
9.0821e-06
0.00130947
8.70374e-06
0.00131217
8.41194e-06
0.00131479
8.19054e-06
0.00131736
8.01143e-06
0.00131986
7.86722e-06
0.00132232
7.73395e-06
0.00132472
7.62008e-06
0.00132707
7.50883e-06
0.00132936
7.37647e-06
0.00133159
7.25968e-06
0.00133377
7.15281e-06
0.0013359
7.07051e-06
0.00133796
6.97849e-06
0.00133996
6.90296e-06
0.00134188
6.82572e-06
0.00134374
6.76445e-06
0.0013455
6.73642e-06
0.00134718
6.66334e-06
0.00134873
6.59574e-06
0.00135017
6.52401e-06
0.00135146
6.46232e-06
0.00135262
6.38691e-06
0.0013536
6.30908e-06
0.00135441
6.22749e-06
0.00135504
6.12995e-06
0.00135545
6.03616e-06
0.0013557
5.93384e-06
0.00135568
5.79024e-06
0.00135556
5.74794e-06
0.00135524
5.52176e-06
0.00135479
5.43568e-06
0.00135414
5.28507e-06
0.0013534
5.06275e-06
0.0013525
4.9826e-06
0.00135152
4.61335e-06
0.00135048
4.65829e-06
0.00134932
4.25527e-06
0.00134818
4.18859e-06
0.0013469
3.99322e-06
0.00134569
3.65252e-06
0.00134435
3.62546e-06
0.00134312
3.16447e-06
0.00134189
3.16924e-06
0.00134068
2.78194e-06
0.00133957
2.78077e-06
0.00133839
2.46525e-06
0.00133732
2.25406e-06
0.00133616
2.19797e-06
0.00133514
1.8278e-06
0.00133401
1.96475e-06
0.00133308
1.51725e-06
0.0013322
1.78254e-06
0.00133141
1.27408e-06
0.00133088
1.06222e-06
0.00133025
1.06166e-06
0.00132995
5.17528e-07
0.00132955
5.818e-07
0.00132927
1.13559e-07
0.0013291
1.26052e-07
0.0013289
-2.36441e-07
0.00132887
-3.14962e-07
0.00132871
-3.84591e-07
0.00132878
-7.53324e-07
0.0013287
-5.30182e-07
0.00132865
-8.13304e-07
0.0013287
-7.10508e-07
0.00132866
-9.1433e-07
0.0013288
-8.98862e-07
0.0013287
-7.0392e-07
0.0013288
-1.03501e-06
0.00132888
-7.7615e-07
0.00132885
-8.31671e-07
0.00132897
-8.27372e-07
0.00132893
-7.74589e-07
0.00132906
-8.96704e-07
0.00132909
-6.953e-07
0.00132916
-8.5738e-07
0.00132928
-7.31664e-07
0.00132927
-7.55825e-07
0.00132946
-8.55849e-07
0.00132948
-5.42816e-07
0.00132954
-8.07398e-07
0.00132968
-8.63936e-07
0.00132984
-6.98561e-07
0.00132988
-1.43448e-06
0.00133026
-1.05368e-06
-5.54379e-06
0.00132974
0.00139614
5.65875e-06
0.00140075
9.18012e-06
0.00140539
8.96197e-06
0.00141024
9.35492e-06
0.0014151
9.47468e-06
0.00141982
9.11921e-06
0.00142428
8.59628e-06
0.00142849
8.03402e-06
0.00143247
7.49357e-06
0.00143623
7.00439e-06
0.00143977
6.54786e-06
0.00144316
6.18013e-06
0.00144639
5.85093e-06
0.0014495
5.5891e-06
0.00145252
5.38826e-06
0.00145548
5.23889e-06
0.00145837
5.11813e-06
0.00146121
5.02599e-06
0.00146401
4.93735e-06
0.00146676
4.86957e-06
0.00146947
4.7994e-06
0.00147213
4.71234e-06
0.00147476
4.63218e-06
0.00147735
4.55955e-06
0.00147992
4.50777e-06
0.00148244
4.44882e-06
0.00148495
4.3995e-06
0.00148742
4.35057e-06
0.00148987
4.31382e-06
0.0014923
4.31143e-06
0.00149469
4.26897e-06
0.00149705
4.23709e-06
0.00149938
4.19411e-06
0.00150167
4.17715e-06
0.00150392
4.13541e-06
0.00150611
4.11442e-06
0.00150826
4.07744e-06
0.00151035
4.04247e-06
0.00151237
4.0197e-06
0.00151434
3.96483e-06
0.00151616
3.96744e-06
0.00151802
3.88763e-06
0.00151967
3.87375e-06
0.00152131
3.79635e-06
0.00152278
3.81153e-06
0.00152413
3.71082e-06
0.00152542
3.69213e-06
0.00152639
3.64394e-06
0.0015275
3.55188e-06
0.00152819
3.55905e-06
0.00152895
3.42892e-06
0.00152952
3.43228e-06
0.00152984
3.3279e-06
0.00153012
3.34817e-06
0.00153013
3.15401e-06
0.00153019
3.11133e-06
0.00153
2.96822e-06
0.00152994
2.84436e-06
0.00152956
2.83748e-06
0.0015292
2.62058e-06
0.0015287
2.69638e-06
0.00152811
2.41599e-06
0.00152752
2.55068e-06
0.00152677
2.27353e-06
0.00152631
2.23712e-06
0.00152551
2.08144e-06
0.00152502
1.54603e-06
0.00152456
1.52476e-06
0.00152421
8.68169e-07
0.00152399
7.97106e-07
0.00152372
3.88012e-07
0.00152376
8.30895e-08
0.00152355
-2.54341e-08
0.00152373
-4.92885e-07
0.00152365
-3.06744e-07
0.00152367
-7.69663e-07
0.00152377
-6.34906e-07
0.00152378
-8.16805e-07
0.001524
-9.35363e-07
0.00152386
-7.77846e-07
0.00152409
-1.12637e-06
0.00152411
-7.26573e-07
0.00152409
-1.00767e-06
0.00152423
-9.22814e-07
0.0015242
-8.00719e-07
0.00152433
-9.54706e-07
0.0015243
-7.43831e-07
0.00152435
-9.51688e-07
0.00152442
-7.58126e-07
0.00152442
-8.60415e-07
0.00152452
-8.3234e-07
0.00152448
-7.17305e-07
0.00152454
-9.1165e-07
0.00152469
-6.91002e-07
0.00152467
-7.90383e-07
0.00152472
-9.16313e-07
0.00152488
-8.62024e-07
0.0015249
-1.45451e-06
0.00152527
-1.42288e-06
-5.09435e-06
0.00152482
0.00154551
2.52763e-06
0.00155064
4.05041e-06
0.00155576
3.84846e-06
0.00156107
4.03887e-06
0.00156645
4.09341e-06
0.00157167
3.90528e-06
0.0015766
3.6581e-06
0.00158126
3.37384e-06
0.00158567
3.08993e-06
0.00158983
2.84543e-06
0.00159376
2.61846e-06
0.0015975
2.43527e-06
0.00160108
2.27037e-06
0.00160453
2.13741e-06
0.00160789
2.03646e-06
0.00161116
1.96512e-06
0.00161437
1.90843e-06
0.00161752
1.87033e-06
0.00162063
1.83037e-06
0.00162369
1.80786e-06
0.00162671
1.78248e-06
0.00162968
1.73921e-06
0.00163262
1.695e-06
0.00163552
1.65636e-06
0.0016384
1.63126e-06
0.00164125
1.60073e-06
0.00164407
1.57485e-06
0.00164688
1.54501e-06
0.00164966
1.52806e-06
0.00165244
1.53785e-06
0.00165519
1.51799e-06
0.00165793
1.50092e-06
0.00166064
1.47889e-06
0.00166334
1.47615e-06
0.00166602
1.45719e-06
0.00166868
1.45274e-06
0.00167132
1.43809e-06
0.00167394
1.42486e-06
0.00167654
1.42101e-06
0.00167911
1.39102e-06
0.00168166
1.42291e-06
0.00168418
1.36076e-06
0.00168668
1.38057e-06
0.00168914
1.33626e-06
0.00169158
1.37159e-06
0.00169396
1.32784e-06
0.00169634
1.3155e-06
0.00169862
1.36155e-06
0.00170093
1.23753e-06
0.00170314
1.35509e-06
0.00170533
1.23148e-06
0.00170746
1.30288e-06
0.00170952
1.27475e-06
0.00171155
1.31373e-06
0.00171338
1.32139e-06
0.00171527
1.22413e-06
0.00171691
1.32829e-06
0.00171865
1.10151e-06
0.00172019
1.30308e-06
0.00172168
1.12508e-06
0.00172311
1.27261e-06
0.00172432
1.20712e-06
0.00172561
1.25855e-06
0.00172647
1.40784e-06
0.00172759
1.11836e-06
0.00172835
1.32749e-06
0.00172902
8.69769e-07
0.00172969
8.57469e-07
0.0017301
4.53056e-07
0.00173057
3.31341e-07
0.00173078
1.73526e-07
0.00173114
-2.70122e-07
0.00173123
-1.17039e-07
0.00173145
-7.11087e-07
0.00173164
-5.01736e-07
0.0017317
-8.25364e-07
0.00173189
-8.22056e-07
0.00173188
-8.08972e-07
0.001732
-1.05408e-06
0.00173197
-7.5551e-07
0.00173197
-1.11743e-06
0.00173208
-8.41454e-07
0.00173201
-9.33526e-07
0.00173205
-9.67868e-07
0.00173206
-8.07624e-07
0.00173204
-9.37458e-07
0.00173209
-7.91687e-07
0.00173206
-9.18952e-07
0.00173211
-8.13761e-07
0.00173204
-7.92961e-07
0.00173207
-8.57671e-07
0.0017321
-7.47686e-07
0.00173202
-8.28327e-07
0.00173211
-7.88257e-07
0.00173209
-7.69758e-07
0.00173208
-9.05311e-07
0.00173212
-8.95414e-07
0.0017321
-1.44362e-06
0.0017324
-1.71539e-06
-4.67342e-06
0.00173198
0.001711
-7.93717e-07
0.00171671
-1.65181e-06
0.00172235
-1.79827e-06
0.0017282
-1.81287e-06
0.00173416
-1.86519e-06
0.00173993
-1.8654e-06
0.0017454
-1.80465e-06
0.00175056
-1.78542e-06
0.00175543
-1.7865e-06
0.00176004
-1.75915e-06
0.00176439
-1.73378e-06
0.00176853
-1.71043e-06
0.0017725
-1.69488e-06
0.00177632
-1.68507e-06
0.00178003
-1.67505e-06
0.00178366
-1.66052e-06
0.00178721
-1.64573e-06
0.00179071
-1.624e-06
0.00179415
-1.61033e-06
0.00179754
-1.58309e-06
0.00180088
-1.55871e-06
0.00180418
-1.55505e-06
0.00180743
-1.55939e-06
0.00181065
-1.56171e-06
0.00181384
-1.5579e-06
0.001817
-1.55925e-06
0.00182013
-1.56045e-06
0.00182325
-1.57037e-06
0.00182634
-1.56663e-06
0.00182943
-1.54483e-06
0.00183249
-1.5457e-06
0.00183554
-1.54669e-06
0.00183856
-1.54941e-06
0.00184158
-1.53878e-06
0.00184457
-1.53814e-06
0.00184756
-1.5305e-06
0.00185052
-1.52657e-06
0.00185347
-1.5223e-06
0.0018564
-1.51332e-06
0.00185932
-1.52048e-06
0.00186222
-1.48217e-06
0.00186509
-1.511e-06
0.00186796
-1.48836e-06
0.0018708
-1.50031e-06
0.00187364
-1.4679e-06
0.00187644
-1.4751e-06
0.00187924
-1.48356e-06
0.00188202
-1.42333e-06
0.00188476
-1.50291e-06
0.00188752
-1.40432e-06
0.00189021
-1.45788e-06
0.00189293
-1.41224e-06
0.0018956
-1.39885e-06
0.00189828
-1.36651e-06
0.00190092
-1.31518e-06
0.00190352
-1.37542e-06
0.0019061
-1.24906e-06
0.00190858
-1.37832e-06
0.00191109
-1.20765e-06
0.0019135
-1.28554e-06
0.00191597
-1.2016e-06
0.0019184
-1.21848e-06
0.00192089
-1.23613e-06
0.00192338
-1.08077e-06
0.00192585
-1.35104e-06
0.00192824
-1.06633e-06
0.00193031
-1.19692e-06
0.00193225
-1.07834e-06
0.00193374
-1.0454e-06
0.00193507
-9.90754e-07
0.00193602
-7.76646e-07
0.00193666
-9.16996e-07
0.00193724
-6.95441e-07
0.00193746
-9.24022e-07
0.00193772
-7.62969e-07
0.00193772
-8.257e-07
0.00193778
-8.82806e-07
0.00193776
-7.87947e-07
0.00193764
-9.39746e-07
0.00193763
-7.42882e-07
0.00193745
-9.36654e-07
0.00193746
-8.49579e-07
0.00193734
-8.17508e-07
0.00193727
-8.97391e-07
0.00193724
-7.82016e-07
0.00193719
-8.80131e-07
0.00193719
-7.9711e-07
0.00193714
-8.64548e-07
0.00193716
-8.34919e-07
0.00193712
-7.52448e-07
0.00193714
-8.77951e-07
0.00193715
-7.5398e-07
0.00193713
-8.10346e-07
0.00193714
-8.0002e-07
0.00193715
-7.79251e-07
0.00193717
-9.22402e-07
0.00193716
-8.91951e-07
0.00193716
-1.43885e-06
0.00193727
-1.82992e-06
-4.32652e-06
0.00193693
0.00171104
-4.14942e-06
0.00171675
-7.36633e-06
0.0017224
-7.44871e-06
0.00172826
-7.67046e-06
0.00173422
-7.82795e-06
0.00174
-7.63692e-06
0.00174546
-7.26516e-06
0.00175062
-6.94575e-06
0.00175549
-6.66423e-06
0.0017601
-6.36324e-06
0.00176445
-6.08705e-06
0.0017686
-5.85574e-06
0.00177256
-5.66022e-06
0.00177638
-5.50803e-06
0.0017801
-5.38689e-06
0.00178372
-5.28655e-06
0.00178728
-5.20042e-06
0.00179077
-5.11839e-06
0.00179421
-5.05231e-06
0.0017976
-4.97349e-06
0.00180094
-4.89962e-06
0.00180424
-4.84934e-06
0.00180749
-4.81379e-06
0.00181071
-4.78104e-06
0.0018139
-4.7464e-06
0.00181706
-4.71956e-06
0.0018202
-4.69544e-06
0.00182331
-4.68681e-06
0.00182641
-4.66164e-06
0.00182949
-4.62668e-06
0.00183255
-4.60952e-06
0.0018356
-4.59377e-06
0.00183863
-4.57759e-06
0.00184164
-4.5525e-06
0.00184464
-4.53347e-06
0.00184762
-4.51191e-06
0.00185058
-4.4898e-06
0.00185353
-4.46637e-06
0.00185646
-4.44598e-06
0.00185937
-4.42801e-06
0.00186227
-4.38229e-06
0.00186514
-4.38034e-06
0.001868
-4.34896e-06
0.00187083
-4.33196e-06
0.00187366
-4.29574e-06
0.00187645
-4.27231e-06
0.00187924
-4.26928e-06
0.00188202
-4.2e-06
0.00188474
-4.22723e-06
0.00188748
-4.1411e-06
0.00189015
-4.13522e-06
0.00189284
-4.09349e-06
0.00189549
-4.05462e-06
0.00189814
-4.01487e-06
0.00190075
-3.92657e-06
0.00190331
-3.93115e-06
0.00190584
-3.78482e-06
0.00190828
-3.8138e-06
0.00191072
-3.64965e-06
0.00191307
-3.63273e-06
0.00191546
-3.59171e-06
0.00191781
-3.5685e-06
0.00192023
-3.66204e-06
0.00192265
-3.49801e-06
0.00192497
-3.66595e-06
0.00192724
-3.33852e-06
0.00192921
-3.16958e-06
0.00193101
-2.88243e-06
0.00193243
-2.45784e-06
0.00193367
-2.23292e-06
0.00193461
-1.71807e-06
0.00193524
-1.54755e-06
0.00193577
-1.22278e-06
0.001936
-1.15404e-06
0.00193622
-9.87204e-07
0.00193627
-8.71327e-07
0.00193632
-9.31192e-07
0.00193629
-7.64695e-07
0.00193622
-8.64523e-07
0.00193617
-6.90581e-07
0.00193606
-8.25811e-07
0.00193598
-7.75799e-07
0.00193592
-7.56506e-07
0.00193586
-8.33551e-07
0.00193581
-7.34541e-07
0.00193579
-8.58349e-07
0.00193574
-7.51518e-07
0.00193575
-8.70616e-07
0.0019357
-7.90915e-07
0.00193571
-7.62338e-07
0.0019357
-8.59893e-07
0.0019357
-7.6029e-07
0.00193573
-8.34697e-07
0.00193569
-7.61226e-07
0.00193576
-8.47974e-07
0.00193568
-8.4721e-07
0.00193573
-9.38593e-07
0.00193569
-1.40339e-06
0.00193571
-1.84939e-06
-4.05036e-06
0.00193544
0.0015456
-7.37357e-06
0.00155077
-1.25266e-05
0.00155589
-1.25726e-05
0.00156122
-1.30017e-05
0.00156661
-1.322e-05
0.00157183
-1.28533e-05
0.00157676
-1.21975e-05
0.00158142
-1.16087e-05
0.00158583
-1.10712e-05
0.00158999
-1.05209e-05
0.00159392
-1.00191e-05
0.00159766
-9.59941e-06
0.00160125
-9.24123e-06
0.0016047
-8.96061e-06
0.00160805
-8.73986e-06
0.00161133
-8.56093e-06
0.00161454
-8.41174e-06
0.00161769
-8.27397e-06
0.0016208
-8.16209e-06
0.00162386
-8.0342e-06
0.00162688
-7.91468e-06
0.00162985
-7.82242e-06
0.00163279
-7.75061e-06
0.00163569
-7.68573e-06
0.00163857
-7.62037e-06
0.00164141
-7.56647e-06
0.00164423
-7.51682e-06
0.00164704
-7.49222e-06
0.00164982
-7.44426e-06
0.00165259
-7.39389e-06
0.00165534
-7.35639e-06
0.00165807
-7.32195e-06
0.00166077
-7.28559e-06
0.00166346
-7.2428e-06
0.00166613
-7.20228e-06
0.00166878
-7.15873e-06
0.0016714
-7.11344e-06
0.001674
-7.06197e-06
0.00167658
-7.02469e-06
0.00167912
-6.97093e-06
0.00168164
-6.9024e-06
0.00168412
-6.85887e-06
0.00168656
-6.79437e-06
0.00168897
-6.73927e-06
0.00169134
-6.66209e-06
0.00169367
-6.60291e-06
0.00169594
-6.54191e-06
0.00169817
-6.43347e-06
0.00170033
-6.38211e-06
0.00170244
-6.24961e-06
0.00170446
-6.15799e-06
0.00170641
-6.04533e-06
0.00170831
-5.94868e-06
0.00171008
-5.78513e-06
0.0017118
-5.64658e-06
0.00171339
-5.52396e-06
0.00171488
-5.27789e-06
0.00171625
-5.17857e-06
0.0017175
-4.90508e-06
0.00171868
-4.80937e-06
0.00171971
-4.62227e-06
0.00172065
-4.50726e-06
0.00172148
-4.48843e-06
0.0017222
-4.21857e-06
0.00172276
-4.23028e-06
0.00172326
-3.83811e-06
0.0017237
-3.60649e-06
0.00172403
-3.22012e-06
0.00172438
-2.80582e-06
0.00172462
-2.46977e-06
0.0017249
-1.99489e-06
0.00172508
-1.73538e-06
0.00172525
-1.39253e-06
0.0017254
-1.29665e-06
0.00172548
-1.07163e-06
0.00172561
-9.99096e-07
0.00172564
-9.6071e-07
0.00172572
-8.45439e-07
0.00172573
-8.76355e-07
0.00172577
-7.29397e-07
0.00172577
-8.29109e-07
0.00172575
-7.49354e-07
0.00172578
-7.89901e-07
0.00172572
-7.69778e-07
0.00172578
-7.97787e-07
0.00172574
-8.21013e-07
0.00172576
-7.69642e-07
0.00172577
-8.80504e-07
0.00172575
-7.71287e-07
0.0017258
-8.15797e-07
0.00172573
-7.91186e-07
0.00172581
-8.34802e-07
0.00172576
-7.83457e-07
0.00172579
-7.91921e-07
0.00172582
-8.7733e-07
0.0017258
-8.293e-07
0.00172586
-9.94742e-07
0.00172573
-1.2813e-06
0.00172576
-1.87447e-06
-3.69005e-06
0.0017254
0.00139628
-1.05773e-05
0.00140093
-1.71741e-05
0.00140559
-1.72362e-05
0.00141046
-1.78698e-05
0.00141534
-1.80967e-05
0.00142006
-1.75711e-05
0.00142451
-1.66536e-05
0.00142873
-1.58227e-05
0.00143271
-1.50528e-05
0.00143646
-1.42753e-05
0.00144001
-1.35695e-05
0.00144339
-1.29793e-05
0.00144663
-1.24732e-05
0.00144974
-1.20753e-05
0.00145277
-1.17653e-05
0.00145572
-1.15115e-05
0.00145861
-1.13059e-05
0.00146145
-1.1112e-05
0.00146425
-1.09587e-05
0.00146699
-1.07804e-05
0.00146969
-1.06149e-05
0.00147235
-1.04806e-05
0.00147497
-1.03717e-05
0.00147756
-1.02704e-05
0.00148011
-1.0171e-05
0.00148262
-1.00835e-05
0.00148511
-1.00006e-05
0.00148757
-9.95331e-06
0.00148999
-9.86901e-06
0.00149239