/*--------------------------------*- C++ -*----------------------------------*\
| =========                 |                                                 |
| \\      /  F ield         | OpenFOAM: The Open Source CFD Toolbox           |
|  \\    /   O peration     | Version:  v2012                                 |
|   \\  /    A nd           | Website:  www.openfoam.com                      |
|    \\/     M anipulation  |                                                 |
\*---------------------------------------------------------------------------*/
FoamFile
{
    version     2.0;
    format      ascii;
    class       surfaceScalarField;
    location    "0.121";
    object      phi.air;
}
// * * * * * * * * * * * * * * * * * * * * * * * * * * * * * * * * * * * * * //

dimensions      [0 3 -1 0 0 0 0];
oriented        oriented;


internalField   nonuniform List<scalar> 
10964
(
0.00133692
2.84288e-05
0.00129801
3.81194e-05
0.001253
4.4218e-05
0.00120457
4.76234e-05
0.00115604
4.77325e-05
0.00110995
4.52805e-05
0.00106813
4.10163e-05
0.00103158
3.57385e-05
0.00100021
3.05598e-05
0.000973637
2.57582e-05
0.000951938
2.08828e-05
0.000934818
1.63027e-05
0.000921853
1.21472e-05
0.000912432
8.60266e-06
0.000905857
5.75716e-06
0.000901535
3.50347e-06
0.000898717
1.99992e-06
0.000897019
8.79621e-07
0.000896013
1.88972e-07
0.000895381
-1.85496e-07
0.000894997
-4.32865e-07
0.000894695
-5.15392e-07
0.000894445
-5.659e-07
0.000894278
-6.49873e-07
0.000894163
-7.00894e-07
0.00089415
-8.02817e-07
0.000894204
-8.70468e-07
0.000894289
-9.00523e-07
0.000894437
-9.62941e-07
0.000894597
-9.75613e-07
0.00089477
-9.88329e-07
0.000894905
-9.50346e-07
0.000895003
-9.12702e-07
0.000895023
-8.35071e-07
0.000894989
-7.80027e-07
0.000894901
-7.27404e-07
0.000894764
-6.76923e-07
0.000894597
-6.47979e-07
0.000894387
-6.04759e-07
0.000894168
-5.95551e-07
0.000893933
-5.79739e-07
0.000893692
-5.72734e-07
0.000893445
-5.68163e-07
0.000893202
-5.71033e-07
0.000892975
-5.8764e-07
0.000892763
-6.02691e-07
0.000892563
-6.13889e-07
0.000892384
-6.36413e-07
0.000892216
-6.45503e-07
0.000892068
-6.66535e-07
0.000891927
-6.73492e-07
0.0008918
-6.8737e-07
0.000891682
-6.97102e-07
0.000891575
-7.07116e-07
0.000891478
-7.17205e-07
0.000891393
-7.29415e-07
0.000891315
-7.36115e-07
0.000891255
-7.54293e-07
0.000891213
-7.72141e-07
0.000891184
-7.8516e-07
0.000891169
-8.00131e-07
0.000891169
-8.13911e-07
0.000891182
-8.26687e-07
0.000891217
-8.50024e-07
0.000891262
-8.59178e-07
0.000891333
-8.8493e-07
0.000891407
-8.88453e-07
0.00089152
-9.26562e-07
0.000891642
-9.3589e-07
0.000891794
-9.66124e-07
0.00089196
-9.8052e-07
0.000892142
-9.9598e-07
0.000892329
-1.00102e-06
0.00089253
-1.01486e-06
0.000892724
-1.0078e-06
0.000892934
-1.02415e-06
0.000893137
-1.01669e-06
0.000893352
-1.02907e-06
0.000893562
-1.02346e-06
0.000893782
-1.03431e-06
0.000894007
-1.03848e-06
0.000894243
-1.04965e-06
0.000894488
-1.05836e-06
0.00089474
-1.06604e-06
0.000895013
-1.08716e-06
0.000895282
-1.08191e-06
0.000895581
-1.11345e-06
0.000895859
-1.09158e-06
0.000896193
-1.14727e-06
0.000896464
-1.08463e-06
0.000896853
-1.20221e-06
0.000897149
-1.10928e-06
0.000897594
-1.25846e-06
0.000897838
-1.05741e-06
0.000898369
-1.34389e-06
0.000898551
-9.95203e-07
0.000899229
-1.49226e-06
0.000900548
-2.13006e-06
0.000897542
2.19025e-06
-1.84236e-05
0.000915156
0.00151471
2.6277e-05
0.00151419
3.86388e-05
0.00151229
4.61193e-05
0.00150787
5.20477e-05
0.00150065
5.49469e-05
0.00149083
5.51005e-05
0.00147871
5.31418e-05
0.00146469
4.97516e-05
0.0014494
4.58526e-05
0.00143337
4.17862e-05
0.00141697
3.72856e-05
0.00140047
3.28067e-05
0.0013843
2.83164e-05
0.00136878
2.41243e-05
0.00135411
2.04258e-05
0.00134056
1.70474e-05
0.00132816
1.44e-05
0.001317
1.20444e-05
0.00130707
1.01221e-05
0.00129822
8.66252e-06
0.00129049
7.29299e-06
0.00128371
6.27004e-06
0.00127788
5.25705e-06
0.00127292
4.31242e-06
0.00126864
3.57836e-06
0.00126494
2.89783e-06
0.00126166
2.40574e-06
0.00125883
1.93648e-06
0.00125628
1.58014e-06
0.00125394
1.37009e-06
0.00125173
1.22248e-06
0.00124966
1.11927e-06
0.00124772
1.02775e-06
0.00124591
9.73204e-07
0.00124423
8.94778e-07
0.00124268
8.23019e-07
0.00124126
7.52324e-07
0.00123993
6.72638e-07
0.00123871
6.17445e-07
0.00123758
5.37309e-07
0.00123653
4.70615e-07
0.00123555
4.01685e-07
0.00123465
3.31674e-07
0.00123382
2.62082e-07
0.00123306
1.77954e-07
0.00123234
1.12824e-07
0.00123167
5.96685e-08
0.00123104
-7.07527e-09
0.00123045
-5.38003e-08
0.00122989
-1.13894e-07
0.00122938
-1.55348e-07
0.00122889
-2.04126e-07
0.00122844
-2.46438e-07
0.00122802
-2.88752e-07
0.00122763
-3.27615e-07
0.00122728
-3.73647e-07
0.00122695
-4.09477e-07
0.00122666
-4.64725e-07
0.0012264
-5.14867e-07
0.00122618
-5.58058e-07
0.00122598
-5.99778e-07
0.00122581
-6.43753e-07
0.00122567
-6.89277e-07
0.00122556
-7.45338e-07
0.00122548
-7.77892e-07
0.00122543
-8.28352e-07
0.0012254
-8.58163e-07
0.00122539
-9.21513e-07
0.00122541
-9.55666e-07
0.00122547
-1.02943e-06
0.00122557
-1.07483e-06
0.00122569
-1.12026e-06
0.00122583
-1.14138e-06
0.00122599
-1.17476e-06
0.00122616
-1.16999e-06
0.00122633
-1.19764e-06
0.00122651
-1.19529e-06
0.0012267
-1.21708e-06
0.00122689
-1.21424e-06
0.00122709
-1.23331e-06
0.00122729
-1.2427e-06
0.00122751
-1.26838e-06
0.00122773
-1.2847e-06
0.00122799
-1.32064e-06
0.00122825
-1.34621e-06
0.00122855
-1.37981e-06
0.00122884
-1.40333e-06
0.00122918
-1.43539e-06
0.00122949
-1.46128e-06
0.00122987
-1.4628e-06
0.00123019
-1.52451e-06
0.00123063
-1.54686e-06
0.00123094
-1.56696e-06
0.00123148
-1.59705e-06
0.00123173
-1.5933e-06
0.00123251
-1.77233e-06
0.00123267
-1.65237e-06
0.00123395
-3.41823e-06
0.00123411
2.03189e-06
-2.52956e-05
0.00124099
0.00167797
2.29714e-05
0.00168094
3.56658e-05
0.00168479
4.22744e-05
0.00168871
4.81253e-05
0.00169221
5.14523e-05
0.00169502
5.22837e-05
0.00169689
5.12776e-05
0.0016974
4.92347e-05
0.0016966
4.66614e-05
0.00169456
4.38239e-05
0.0016911
4.07478e-05
0.00168616
3.7744e-05
0.0016797
3.4777e-05
0.00167181
3.20163e-05
0.00166262
2.96123e-05
0.00165229
2.73805e-05
0.00164113
2.55538e-05
0.00162941
2.3763e-05
0.0016175
2.20363e-05
0.00160563
2.05337e-05
0.00159423
1.86934e-05
0.00158341
1.70874e-05
0.00157339
1.52741e-05
0.00156425
1.3452e-05
0.00155598
1.18485e-05
0.00154862
1.02661e-05
0.00154197
9.04829e-06
0.00153606
7.85276e-06
0.00153066
6.97866e-06
0.00152575
6.27658e-06
0.00152123
5.74047e-06
0.00151712
5.23154e-06
0.00151337
4.78372e-06
0.00150996
4.37512e-06
0.00150688
3.97946e-06
0.00150407
3.63448e-06
0.00150151
3.30507e-06
0.00149917
3.01546e-06
0.00149703
2.76266e-06
0.00149505
2.51623e-06
0.00149323
2.2884e-06
0.00149155
2.07978e-06
0.00149002
1.86551e-06
0.0014886
1.68391e-06
0.00148727
1.50494e-06
0.00148602
1.36439e-06
0.00148484
1.2395e-06
0.00148373
1.09686e-06
0.0014827
9.78725e-07
0.00148174
8.52323e-07
0.00148083
7.45571e-07
0.00147999
6.36123e-07
0.00147921
5.35318e-07
0.00147849
4.36668e-07
0.00147781
3.48191e-07
0.00147719
2.45543e-07
0.00147662
1.58965e-07
0.00147611
4.84515e-08
0.00147565
-5.24688e-08
0.00147523
-1.40025e-07
0.00147485
-2.23073e-07
0.00147452
-3.10175e-07
0.00147423
-4.0244e-07
0.00147399
-5.05561e-07
0.00147379
-5.72937e-07
0.00147361
-6.53108e-07
0.00147346
-7.05651e-07
0.00147334
-8.03367e-07
0.00147327
-8.88091e-07
0.00147325
-1.0048e-06
0.00147327
-1.09497e-06
0.00147333
-1.18065e-06
0.00147342
-1.22723e-06
0.00147353
-1.28477e-06
0.00147364
-1.28712e-06
0.00147377
-1.32598e-06
0.00147391
-1.33423e-06
0.00147406
-1.36639e-06
0.00147422
-1.37289e-06
0.00147439
-1.40028e-06
0.00147456
-1.41746e-06
0.00147475
-1.45793e-06
0.00147495
-1.48766e-06
0.00147519
-1.55277e-06
0.00147543
-1.58977e-06
0.00147571
-1.66572e-06
0.001476
-1.69202e-06
0.00147634
-1.77534e-06
0.00147667
-1.78514e-06
0.00147707
-1.8609e-06
0.00147742
-1.87453e-06
0.00147785
-1.98222e-06
0.00147822
-1.93655e-06
0.00147873
-2.107e-06
0.0014791
-1.96547e-06
0.00147974
-2.41378e-06
0.00148012
-2.03251e-06
0.00148115
-4.44492e-06
0.001483
1.78146e-07
-2.62609e-05
0.00148397
0.00185751
1.96085e-05
0.00186113
3.20408e-05
0.0018658
3.76069e-05
0.00187104
4.28913e-05
0.00187643
4.60548e-05
0.00188188
4.68336e-05
0.00188704
4.61198e-05
0.00189183
4.44415e-05
0.00189616
4.23389e-05
0.00189994
4.00441e-05
0.00190316
3.75231e-05
0.00190572
3.51847e-05
0.00190765
3.28468e-05
0.00190885
3.08117e-05
0.00190926
2.92038e-05
0.00190878
2.78601e-05
0.00190752
2.68217e-05
0.00190528
2.60018e-05
0.00190203
2.5287e-05
0.00189769
2.48664e-05
0.00189225
2.41412e-05
0.00188574
2.35898e-05
0.0018782
2.28135e-05
0.00186981
2.18473e-05
0.00186077
2.08881e-05
0.00185136
1.96719e-05
0.00184191
1.84973e-05
0.00183263
1.71414e-05
0.00182371
1.58903e-05
0.00181546
1.45304e-05
0.00180785
1.3349e-05
0.00180093
1.21563e-05
0.00179462
1.10859e-05
0.00178893
1.00721e-05
0.00178374
9.1692e-06
0.00177894
8.43646e-06
0.00177449
7.74952e-06
0.00177036
7.14866e-06
0.00176653
6.58843e-06
0.00176298
6.06916e-06
0.0017597
5.56821e-06
0.00175666
5.12049e-06
0.00175387
4.65531e-06
0.0017513
4.25108e-06
0.00174895
3.86033e-06
0.00174678
3.53309e-06
0.00174478
3.24135e-06
0.00174292
2.9563e-06
0.00174119
2.70298e-06
0.00173958
2.46172e-06
0.00173809
2.24145e-06
0.00173669
2.02978e-06
0.0017354
1.83012e-06
0.0017342
1.63791e-06
0.00173308
1.46583e-06
0.00173205
1.27503e-06
0.0017311
1.10728e-06
0.00173024
9.14308e-07
0.00172945
7.34237e-07
0.00172873
5.82935e-07
0.00172806
4.38414e-07
0.00172747
2.88527e-07
0.00172693
1.29932e-07
0.00172646
-3.51932e-08
0.00172604
-1.49724e-07
0.00172566
-2.70844e-07
0.0017253
-3.5252e-07
0.001725
-4.942e-07
0.00172474
-6.3385e-07
0.00172455
-8.14315e-07
0.00172443
-9.73032e-07
0.00172435
-1.10416e-06
0.00172432
-1.19188e-06
0.0017243
-1.26516e-06
0.0017243
-1.28708e-06
0.00172431
-1.34063e-06
0.00172434
-1.36501e-06
0.00172439
-1.41357e-06
0.00172446
-1.44179e-06
0.00172454
-1.48078e-06
0.00172464
-1.5137e-06
0.00172475
-1.56841e-06
0.00172488
-1.62507e-06
0.00172505
-1.71423e-06
0.00172524
-1.78334e-06
0.00172546
-1.88652e-06
0.00172572
-1.9496e-06
0.00172599
-2.05222e-06
0.00172631
-2.10058e-06
0.00172664
-2.19563e-06
0.00172702
-2.2523e-06
0.0017274
-2.36146e-06
0.00172784
-2.3785e-06
0.00172826
-2.52113e-06
0.00172877
-2.47478e-06
0.00172922
-2.86751e-06
0.00172982
-2.62802e-06
0.00173052
-5.14429e-06
0.00173275
-2.05435e-06
-2.53025e-05
0.00173179
0.00205619
1.62747e-05
0.00206033
2.79042e-05
0.00206546
3.24814e-05
0.00207129
3.70623e-05
0.00207741
3.99311e-05
0.00208365
4.05901e-05
0.00208974
4.00355e-05
0.00209558
3.86011e-05
0.00210114
3.67792e-05
0.00210635
3.48328e-05
0.00211119
3.26773e-05
0.00211566
3.0714e-05
0.00211982
2.86962e-05
0.00212359
2.70394e-05
0.00212712
2.5671e-05
0.00213036
2.46186e-05
0.00213332
2.38642e-05
0.0021361
2.3226e-05
0.00213849
2.28878e-05
0.00214069
2.2669e-05
0.00214247
2.23662e-05
0.00214381
2.22466e-05
0.00214465
2.19778e-05
0.00214472
2.17725e-05
0.00214413
2.14815e-05
0.00214272
2.10816e-05
0.00214043
2.07822e-05
0.0021372
2.03762e-05
0.00213307
2.00157e-05
0.00212813
1.94719e-05
0.00212251
1.89689e-05
0.00211633
1.83363e-05
0.00210976
1.76523e-05
0.00210297
1.68677e-05
0.00209603
1.61088e-05
0.00208921
1.52562e-05
0.00208257
1.43933e-05
0.0020762
1.35146e-05
0.00207016
1.26277e-05
0.00206447
1.17611e-05
0.00205915
1.08863e-05
0.00205417
1.00976e-05
0.00204955
9.28086e-06
0.00204527
8.52641e-06
0.00204133
7.80731e-06
0.00203764
7.22082e-06
0.00203419
6.68815e-06
0.00203096
6.18827e-06
0.00202794
5.7206e-06
0.00202511
5.29234e-06
0.00202247
4.88344e-06
0.00202
4.49474e-06
0.00201771
4.12445e-06
0.00201558
3.77062e-06
0.00201359
3.45138e-06
0.00201175
3.11459e-06
0.00201006
2.79766e-06
0.0020085
2.47259e-06
0.00200707
2.16503e-06
0.00200574
1.91918e-06
0.00200449
1.68452e-06
0.00200333
1.44517e-06
0.00200227
1.19438e-06
0.00200129
9.44635e-07
0.00200038
7.59717e-07
0.00199953
5.78227e-07
0.00199873
4.44891e-07
0.001998
2.39229e-07
0.00199735
2.00111e-08
0.00199678
-2.46282e-07
0.0019963
-4.98293e-07
0.0019959
-7.05659e-07
0.00199557
-8.59417e-07
0.00199528
-9.75135e-07
0.00199503
-1.03854e-06
0.00199481
-1.12036e-06
0.00199464
-1.18814e-06
0.00199448
-1.25796e-06
0.00199437
-1.32976e-06
0.00199427
-1.38505e-06
0.00199421
-1.44789e-06
0.00199417
-1.52819e-06
0.00199416
-1.6217e-06
0.00199418
-1.73189e-06
0.00199426
-1.85836e-06
0.00199435
-1.97938e-06
0.00199451
-2.10981e-06
0.00199467
-2.2155e-06
0.00199491
-2.34094e-06
0.00199515
-2.42805e-06
0.00199545
-2.55986e-06
0.00199575
-2.66111e-06
0.00199613
-2.7537e-06
0.00199649
-2.88374e-06
0.00199694
-2.92161e-06
0.00199737
-3.3049e-06
0.00199791
-3.16416e-06
0.00199847
-5.69868e-06
0.00200035
-3.93627e-06
-2.44492e-05
0.00199949
0.00227616
1.29871e-05
0.00228085
2.32185e-05
0.00228645
2.68766e-05
0.00229284
3.06729e-05
0.00229961
3.31575e-05
0.00230651
3.3697e-05
0.00231328
3.3261e-05
0.00231981
3.20712e-05
0.00232605
3.05426e-05
0.00233194
2.89444e-05
0.00233747
2.71401e-05
0.00234266
2.55219e-05
0.00234753
2.38346e-05
0.0023521
2.24696e-05
0.00235644
2.13309e-05
0.00236061
2.04424e-05
0.00236462
1.98591e-05
0.00236853
1.93149e-05
0.00237236
1.90575e-05
0.00237612
1.89055e-05
0.0023798
1.86915e-05
0.00238342
1.86264e-05
0.00238692
1.84778e-05
0.00239032
1.837e-05
0.00239357
1.82301e-05
0.00239664
1.80133e-05
0.00239952
1.79023e-05
0.00240213
1.77649e-05
0.00240448
1.76687e-05
0.00240643
1.75167e-05
0.00240798
1.74262e-05
0.00240906
1.72532e-05
0.00240956
1.71457e-05
0.00240939
1.70409e-05
0.00240865
1.68532e-05
0.00240729
1.66099e-05
0.00240533
1.63527e-05
0.00240279
1.60558e-05
0.00239971
1.5715e-05
0.00239614
1.53251e-05
0.00239215
1.48779e-05
0.00238783
1.44171e-05
0.00238325
1.38649e-05
0.00237851
1.32669e-05
0.00237366
1.26559e-05
0.00236884
1.20354e-05
0.0023641
1.14311e-05
0.00235949
1.08e-05
0.00235505
1.01621e-05
0.00235079
9.5504e-06
0.00234673
8.93809e-06
0.00234291
8.31992e-06
0.0023393
7.73304e-06
0.00233591
7.16354e-06
0.00233272
6.64246e-06
0.00232971
6.11783e-06
0.00232694
5.57338e-06
0.0023243
5.10573e-06
0.0023218
4.67128e-06
0.0023194
4.31741e-06
0.00231711
3.97507e-06
0.00231494
3.61162e-06
0.0023129
3.24095e-06
0.00231096
2.8757e-06
0.00230915
2.57486e-06
0.00230743
2.2966e-06
0.00230582
2.0527e-06
0.00230431
1.75261e-06
0.00230293
1.39663e-06
0.00230168
1.00855e-06
0.00230055
6.31888e-07
0.00229954
3.00401e-07
0.00229863
5.01953e-08
0.0022978
-1.37577e-07
0.00229704
-2.7938e-07
0.00229632
-4.00439e-07
0.00229567
-5.39921e-07
0.00229507
-6.59833e-07
0.00229453
-7.90848e-07
0.00229404
-8.8891e-07
0.0022936
-1.00851e-06
0.00229319
-1.12149e-06
0.00229284
-1.27724e-06
0.00229254
-1.4305e-06
0.00229231
-1.62636e-06
0.00229214
-1.80392e-06
0.00229202
-1.99402e-06
0.00229196
-2.15093e-06
0.00229194
-2.32687e-06
0.00229196
-2.44208e-06
0.00229204
-2.64033e-06
0.00229214
-2.76422e-06
0.00229231
-2.92221e-06
0.00229251
-3.08335e-06
0.00229275
-3.162e-06
0.00229304
-3.5992e-06
0.00229347
-3.59031e-06
0.00229388
-6.1085e-06
0.00229546
-5.51462e-06
-2.3506e-05
0.00229451
0.00251975
9.70021e-06
0.00252499
1.79757e-05
0.00253113
2.07359e-05
0.00253813
2.36749e-05
0.00254561
2.56789e-05
0.0025532
2.61039e-05
0.0025607
2.5761e-05
0.00256793
2.48435e-05
0.00257482
2.36514e-05
0.00258136
2.2407e-05
0.0025875
2.09982e-05
0.00259328
1.97396e-05
0.0025987
1.84227e-05
0.00260382
1.7349e-05
0.00260868
1.64638e-05
0.00261337
1.5755e-05
0.00261792
1.53103e-05
0.00262235
1.4881e-05
0.00262674
1.46692e-05
0.00263108
1.45638e-05
0.00263538
1.43946e-05
0.00263966
1.43488e-05
0.00264389
1.42485e-05
0.00264809
1.41671e-05
0.00265225
1.40716e-05
0.00265634
1.3917e-05
0.00266042
1.3825e-05
0.00266443
1.3756e-05
0.00266841
1.36884e-05
0.00267232
1.36059e-05
0.00267619
1.35586e-05
0.00267995
1.34906e-05
0.00268366
1.34366e-05
0.00268724
1.34586e-05
0.0026907
1.33941e-05
0.00269398
1.33314e-05
0.00269707
1.32612e-05
0.00269994
1.31872e-05
0.00270254
1.31148e-05
0.00270485
1.30205e-05
0.00270678
1.2941e-05
0.00270841
1.27935e-05
0.00270956
1.27095e-05
0.00271029
1.25425e-05
0.00271052
1.24259e-05
0.00271028
1.22689e-05
0.00270967
1.2044e-05
0.00270865
1.18225e-05
0.00270722
1.15925e-05
0.00270543
1.13411e-05
0.00270329
1.10764e-05
0.00270087
1.07354e-05
0.00269819
1.04105e-05
0.00269531
1.00487e-05
0.00269227
9.68583e-06
0.00268911
9.27248e-06
0.0026859
8.78938e-06
0.00268267
8.33534e-06
0.00267945
7.8874e-06
0.0026763
7.46657e-06
0.00267321
7.06486e-06
0.00267024
6.58533e-06
0.00266735
6.12457e-06
0.00266456
5.67004e-06
0.0026619
5.23839e-06
0.00265932
4.87685e-06
0.00265691
4.46143e-06
0.00265461
4.05088e-06
0.00265245
3.55071e-06
0.00265046
3.00782e-06
0.00264857
2.51884e-06
0.00264679
2.07616e-06
0.0026451
1.74226e-06
0.00264344
1.52514e-06
0.00264183
1.33239e-06
0.00264025
1.17212e-06
0.00263876
9.51546e-07
0.00263735
7.5374e-07
0.00263602
5.33878e-07
0.00263478
3.5283e-07
0.00263363
1.4158e-07
0.00263257
-5.63851e-08
0.00263159
-3.0002e-07
0.0026307
-5.43777e-07
0.0026299
-8.28398e-07
0.0026292
-1.09618e-06
0.00262857
-1.37094e-06
0.00262803
-1.61012e-06
0.00262756
-1.85172e-06
0.00262715
-2.03835e-06
0.00262679
-2.28053e-06
0.00262651
-2.47678e-06
0.00262626
-2.67667e-06
0.00262609
-2.90732e-06
0.00262597
-3.0486e-06
0.00262589
-3.52138e-06
0.00262603
-3.72252e-06
0.0026261
-6.1796e-06
0.00262719
-6.60801e-06
-2.23029e-05
0.00262599
0.00278949
6.3745e-06
0.00279533
1.21348e-05
0.00280208
1.39847e-05
0.00280975
1.60033e-05
0.00281801
1.74222e-05
0.00282639
1.77194e-05
0.00283468
1.74729e-05
0.00284268
1.68458e-05
0.0028503
1.60306e-05
0.00285754
1.51689e-05
0.00286433
1.42015e-05
0.00287073
1.3338e-05
0.00287673
1.24276e-05
0.0028824
1.16767e-05
0.0028878
1.10638e-05
0.00289299
1.0564e-05
0.00289805
1.0256e-05
0.00290297
9.95637e-06
0.00290784
9.79656e-06
0.00291268
9.72988e-06
0.00291746
9.61268e-06
0.00292222
9.58388e-06
0.00292695
9.52133e-06
0.00293165
9.46659e-06
0.00293632
9.40411e-06
0.00294094
9.29958e-06
0.00294553
9.22793e-06
0.0029501
9.18634e-06
0.00295465
9.14029e-06
0.00295918
9.08124e-06
0.00296368
9.0505e-06
0.00296817
9.00806e-06
0.00297264
8.9664e-06
0.0029771
8.99849e-06
0.00298152
8.96779e-06
0.00298592
8.93064e-06
0.00299029
8.89571e-06
0.00299462
8.85567e-06
0.00299891
8.82562e-06
0.00300314
8.78652e-06
0.00300734
8.74923e-06
0.00301144
8.69135e-06
0.0030155
8.65073e-06
0.00301943
8.6093e-06
0.00302329
8.56637e-06
0.00302702
8.5433e-06
0.0030306
8.46233e-06
0.00303402
8.40164e-06
0.00303725
8.35743e-06
0.00304029
8.30142e-06
0.00304313
8.24122e-06
0.00304569
8.17252e-06
0.003048
8.10463e-06
0.00305
8.04908e-06
0.0030517
7.97986e-06
0.00305309
7.88948e-06
0.00305409
7.7868e-06
0.00305479
7.63861e-06
0.0030551
7.57616e-06
0.00305518
7.38697e-06
0.00305496
7.27903e-06
0.00305449
7.05823e-06
0.00305376
6.85483e-06
0.00305276
6.66816e-06
0.00305153
6.46637e-06
0.00305011
6.3006e-06
0.00304853
6.04425e-06
0.00304685
5.72454e-06
0.00304507
5.32833e-06
0.00304322
4.85954e-06
0.00304128
4.46149e-06
0.00303922
4.13336e-06
0.00303711
3.85319e-06
0.00303495
3.68484e-06
0.00303282
3.46258e-06
0.00303073
3.26107e-06
0.00302871
2.97854e-06
0.00302675
2.70939e-06
0.00302487
2.41143e-06
0.00302309
2.13233e-06
0.00302141
1.82023e-06
0.00301984
1.516e-06
0.00301836
1.17936e-06
0.00301699
8.29319e-07
0.00301571
4.55006e-07
0.00301451
9.64611e-08
0.0030134
-2.56227e-07
0.00301237
-5.82742e-07
0.00301142
-8.9475e-07
0.00301055
-1.17124e-06
0.00300971
-1.44386e-06
0.00300893
-1.69517e-06
0.00300815
-1.89842e-06
0.0030074
-2.15745e-06
0.0030067
-2.35026e-06
0.00300604
-2.85825e-06
0.00300557
-3.2491e-06
0.00300509
-5.70179e-06
0.00300554
-7.0566e-06
-2.06876e-05
0.00300392
0.0030882
2.93786e-06
0.00309468
5.64892e-06
0.00310213
6.54027e-06
0.00311056
7.57554e-06
0.00311968
8.30299e-06
0.00312895
8.44631e-06
0.00313811
8.31597e-06
0.00314695
7.99918e-06
0.00315539
7.59465e-06
0.0031634
7.16049e-06
0.00317092
6.6755e-06
0.00317801
6.25216e-06
0.00318465
5.78481e-06
0.00319093
5.39649e-06
0.00319692
5.07754e-06
0.00320267
4.81637e-06
0.00320826
4.65895e-06
0.00321372
4.49786e-06
0.00321911
4.40369e-06
0.00322447
4.37719e-06
0.00322976
4.3156e-06
0.00323504
4.30698e-06
0.00324028
4.28638e-06
0.00324548
4.2627e-06
0.00325065
4.23374e-06
0.00325577
4.1752e-06
0.00326087
4.13454e-06
0.00326594
4.11369e-06
0.00327099
4.0908e-06
0.00327602
4.0559e-06
0.00328103
4.03984e-06
0.00328602
4.01391e-06
0.003291
3.98381e-06
0.00329598
4.01933e-06
0.00330094
4.01265e-06
0.00330588
3.99097e-06
0.0033108
3.97537e-06
0.0033157
3.95432e-06
0.00332058
3.94543e-06
0.00332544
3.92745e-06
0.00333028
3.90936e-06
0.00333509
3.88234e-06
0.00333987
3.86238e-06
0.00334464
3.84586e-06
0.00334938
3.82837e-06
0.00335409
3.82698e-06
0.00335877
3.78717e-06
0.00336341
3.75594e-06
0.00336803
3.74469e-06
0.0033726
3.72868e-06
0.00337714
3.698e-06
0.00338163
3.68873e-06
0.00338607
3.66146e-06
0.00339045
3.6647e-06
0.00339478
3.65275e-06
0.00339904
3.63091e-06
0.00340321
3.61165e-06
0.00340729
3.56641e-06
0.00341129
3.57079e-06
0.00341515
3.53141e-06
0.00341892
3.50813e-06
0.00342251
3.46297e-06
0.00342596
3.40644e-06
0.00342924
3.39136e-06
0.00343232
3.38437e-06
0.00343524
3.38108e-06
0.00343796
3.32407e-06
0.00344048
3.20342e-06
0.00344278
3.02842e-06
0.00344479
2.84958e-06
0.00344651
2.74514e-06
0.0034479
2.73754e-06
0.00344896
2.79938e-06
0.00344976
2.87837e-06
0.00345033
2.893e-06
0.00345076
2.8374e-06
0.00345095
2.78585e-06
0.00345099
2.66549e-06
0.00345085
2.55021e-06
0.00345056
2.4225e-06
0.00345014
2.24299e-06
0.00344962
2.03798e-06
0.00344902
1.77524e-06
0.00344837
1.48575e-06
0.00344764
1.17823e-06
0.00344685
8.88135e-07
0.00344598
6.20524e-07
0.00344505
3.45619e-07
0.00344409
6.35444e-08
0.00344312
-2.05655e-07
0.00344213
-4.49136e-07
0.00344111
-6.74372e-07
0.00344004
-8.34983e-07
0.00343894
-1.04855e-06
0.0034378
-1.21016e-06
0.00343666
-1.71906e-06
0.00343568
-2.26931e-06
0.00343463
-4.65653e-06
0.00343439
-6.81633e-06
-1.84744e-05
0.00343218
0.00341903
-7.29874e-07
0.00342623
-1.54431e-06
0.00343445
-1.68658e-06
0.00344374
-1.71429e-06
0.00345382
-1.77901e-06
0.00346409
-1.81976e-06
0.00347421
-1.80643e-06
0.003484
-1.78799e-06
0.00349334
-1.74788e-06
0.0035022
-1.69887e-06
0.00351054
-1.66154e-06
0.00351838
-1.58909e-06
0.00352574
-1.57513e-06
0.0035327
-1.55803e-06
0.00353933
-1.5532e-06
0.0035457
-1.55298e-06
0.00355189
-1.53279e-06
0.00355794
-1.55267e-06
0.00356391
-1.56631e-06
0.00356983
-1.54665e-06
0.0035757
-1.55207e-06
0.00358154
-1.53236e-06
0.00358734
-1.51172e-06
0.0035931
-1.4972e-06
0.00359882
-1.48759e-06
0.00360449
-1.50035e-06
0.00361013
-1.50444e-06
0.00361575
-1.50371e-06
0.00362134
-1.49884e-06
0.0036269
-1.509e-06
0.00363245
-1.50893e-06
0.00363798
-1.51474e-06
0.0036435
-1.5359e-06
0.00364901
-1.49412e-06
0.00365451
-1.4778e-06
0.00365998
-1.48186e-06
0.00366543
-1.47868e-06
0.00367086
-1.4768e-06
0.00367628
-1.46925e-06
0.00368167
-1.46512e-06
0.00368704
-1.46057e-06
0.00369238
-1.46185e-06
0.00369771
-1.46077e-06
0.00370301
-1.45865e-06
0.00370829
-1.45321e-06
0.00371356
-1.43733e-06
0.00371879
-1.44543e-06
0.003724
-1.45642e-06
0.00372919
-1.44699e-06
0.00373436
-1.44005e-06
0.00373951
-1.44566e-06
0.00374463
-1.4332e-06
0.00374973
-1.43468e-06
0.00375481
-1.41736e-06
0.00375987
-1.4067e-06
0.0037649
-1.40657e-06
0.00376992
-1.40486e-06
0.0037749
-1.41599e-06
0.00377988
-1.40416e-06
0.00378481
-1.40247e-06
0.00378973
-1.40565e-06
0.0037946
-1.41086e-06
0.00379943
-1.42651e-06
0.00380424
-1.41281e-06
0.00380901
-1.38601e-06
0.00381376
-1.37105e-06
0.00381848
-1.39513e-06
0.00382315
-1.46742e-06
0.00382775
-1.57651e-06
0.00383226
-1.65278e-06
0.00383668
-1.68219e-06
0.00384103
-1.60548e-06
0.00384528
-1.45342e-06
0.00384945
-1.29633e-06
0.00385354
-1.19163e-06
0.00385753
-1.15482e-06
0.00386144
-1.12632e-06
0.00386523
-1.12581e-06
0.00386886
-1.07087e-06
0.00387234
-1.0662e-06
0.00387567
-1.08028e-06
0.00387886
-1.15054e-06
0.00388187
-1.2353e-06
0.0038847
-1.34375e-06
0.00388732
-1.44586e-06
0.0038897
-1.48739e-06
0.00389183
-1.51731e-06
0.0038937
-1.52218e-06
0.00389532
-1.55413e-06
0.00389669
-1.57576e-06
0.00389779
-1.55062e-06
0.0038986
-1.48754e-06
0.00389912
-1.34707e-06
0.00389928
-1.20993e-06
0.00389917
-1.10157e-06
0.0038988
-1.35127e-06
0.00389832
-1.78354e-06
0.00389743
-3.77379e-06
0.00389681
-6.19006e-06
-1.57335e-05
0.00389407
0.00341906
-4.42884e-06
0.00342627
-8.74998e-06
0.0034345
-9.9146e-06
0.00344379
-1.10098e-05
0.00345388
-1.18627e-05
0.00346415
-1.20914e-05
0.00347427
-1.19258e-05
0.00348405
-1.15737e-05
0.0034934
-1.10943e-05
0.00350226
-1.05544e-05
0.0035106
-1.00023e-05
0.00351843
-9.42671e-06
0.0035258
-8.93704e-06
0.00353275
-8.51266e-06
0.00353938
-8.18322e-06
0.00354575
-7.92679e-06
0.00355194
-7.71819e-06
0.003558
-7.60829e-06
0.00356397
-7.53587e-06
0.00356989
-7.46702e-06
0.00357576
-7.425e-06
0.00358159
-7.36869e-06
0.00358739
-7.31034e-06
0.00359315
-7.25749e-06
0.00359887
-7.20681e-06
0.00360455
-7.17616e-06
0.00361019
-7.14486e-06
0.00361581
-7.12114e-06
0.0036214
-7.08798e-06
0.00362696
-7.07491e-06
0.00363251
-7.05767e-06
0.00363804
-7.04329e-06
0.00364356
-7.06021e-06
0.00364907
-7.00341e-06
0.00365456
-6.96996e-06
0.00366004
-6.95443e-06
0.00366549
-6.93199e-06
0.00367092
-6.90959e-06
0.00367634
-6.88289e-06
0.00368173
-6.85902e-06
0.0036871
-6.82843e-06
0.00369245
-6.80824e-06
0.00369777
-6.78361e-06
0.00370307
-6.76066e-06
0.00370835
-6.73819e-06
0.00371362
-6.69736e-06
0.00371885
-6.67839e-06
0.00372406
-6.66927e-06
0.00372925
-6.63467e-06
0.00373442
-6.60836e-06
0.00373956
-6.5862e-06
0.00374467
-6.54945e-06
0.00374977
-6.53026e-06
0.00375484
-6.4898e-06
0.0037599
-6.46356e-06
0.00376493
-6.43884e-06
0.00376993
-6.40772e-06
0.00377491
-6.3917e-06
0.00377987
-6.35985e-06
0.00378479
-6.32615e-06
0.00378969
-6.30203e-06
0.00379453
-6.25749e-06
0.00379934
-6.23787e-06
0.00380411
-6.17815e-06
0.00380884
-6.11771e-06
0.00381356
-6.0874e-06
0.00381822
-6.05805e-06
0.00382283
-6.08201e-06
0.00382735
-6.09107e-06
0.00383176
-6.06595e-06
0.00383607
-5.99521e-06
0.00384031
-5.83635e-06
0.00384446
-5.6031e-06
0.00384853
-5.37273e-06
0.00385252
-5.18076e-06
0.00385639
-5.02097e-06
0.00386013
-4.86526e-06
0.00386371
-4.71239e-06
0.00386716
-4.51414e-06
0.00387044
-4.35202e-06
0.00387356
-4.19792e-06
0.00387649
-4.07668e-06
0.0038792
-3.94787e-06
0.00388167
-3.81751e-06
0.0038839
-3.67454e-06
0.00388589
-3.47962e-06
0.00388763
-3.25842e-06
0.00388912
-3.00759e-06
0.00389033
-2.7659e-06
0.00389126
-2.5016e-06
0.00389195
-2.24461e-06
0.00389241
-1.95037e-06
0.00389266
-1.59128e-06
0.00389267
-1.22538e-06
0.0038925
-9.3048e-07
0.00389209
-9.38739e-07
0.0038915
-1.19453e-06
0.00389049
-2.75945e-06
0.00388937
-5.07197e-06
-1.28269e-05
0.00388646
0.00308828
-7.95012e-06
0.0030948
-1.52667e-05
0.00310225
-1.73627e-05
0.00311069
-1.94525e-05
0.00311981
-2.0986e-05
0.0031291
-2.13791e-05
0.00313825
-2.10746e-05
0.00314709
-2.0417e-05
0.00315554
-1.95404e-05
0.00316354
-1.8553e-05
0.00317107
-1.75379e-05
0.00317815
-1.65027e-05
0.0031848
-1.55859e-05
0.00319108
-1.47912e-05
0.00319706
-1.41701e-05
0.00320282
-1.36837e-05
0.0032084
-1.32998e-05
0.00321387
-1.30799e-05
0.00321927
-1.29272e-05
0.00322461
-1.28123e-05
0.00322992
-1.27333e-05
0.00323519
-1.26396e-05
0.00324043
-1.25474e-05
0.00324563
-1.24618e-05
0.0032508
-1.23716e-05
0.00325592
-1.23023e-05
0.00326102
-1.22409e-05
0.00326609
-1.21948e-05
0.00327114
-1.21359e-05
0.00327617
-1.21025e-05
0.00328118
-1.20679e-05
0.00328617
-1.20372e-05
0.00329116
-1.20505e-05
0.00329613
-1.19746e-05
0.00330109
-1.19284e-05
0.00330603
-1.189e-05
0.00331095
-1.1852e-05
0.00331585
-1.18082e-05
0.00332072
-1.17595e-05
0.00332558
-1.1718e-05
0.00333041
-1.16561e-05
0.00333522
-1.16159e-05
0.00334
-1.15623e-05
0.00334475
-1.15135e-05
0.00334948
-1.14697e-05
0.00335417
-1.13921e-05
0.00335884
-1.13414e-05
0.00336346
-1.12918e-05
0.00336805
-1.12223e-05
0.00337259
-1.11515e-05
0.00337708
-1.10792e-05
0.00338153
-1.09909e-05
0.0033859
-1.09071e-05
0.00339022
-1.08087e-05
0.00339446
-1.06994e-05
0.00339862
-1.05993e-05
0.00340268
-1.04673e-05
0.00340661
-1.03273e-05
0.00341045
-1.01928e-05
0.00341413
-1.0008e-05
0.00341765
-9.82625e-06
0.00342103
-9.63148e-06
0.00342418
-9.39167e-06
0.00342715
-9.15294e-06
0.00342993
-8.88945e-06
0.00343246
-8.62196e-06
0.00343479
-8.38681e-06
0.00343683
-8.12088e-06
0.00343858
-7.84062e-06
0.00344003
-7.52196e-06
0.00344119
-7.14697e-06
0.00344209
-6.74031e-06
0.00344279
-6.30042e-06
0.00344328
-5.86533e-06
0.00344356
-5.45919e-06
0.00344361
-5.07172e-06
0.00344347
-4.72972e-06
0.00344316
-4.3999e-06
0.0034427
-4.05124e-06
0.00344209
-3.74091e-06
0.00344134
-3.45045e-06
0.00344046
-3.19821e-06
0.00343947
-2.95706e-06
0.00343838
-2.72707e-06
0.0034372
-2.49814e-06
0.00343596
-2.24005e-06
0.00343468
-1.97036e-06
0.00343336
-1.69284e-06
0.00343203
-1.43293e-06
0.0034307
-1.17234e-06
0.00342938
-9.23498e-07
0.00342808
-6.52191e-07
0.00342683
-3.44928e-07
0.00342565
-4.19018e-08
0.00342451
2.03804e-07
0.00342338
1.99574e-07
0.00342224
-6.27563e-08
0.00342092
-1.43033e-06
0.00341947
-3.62809e-06
-1.00954e-05
0.00341674
0.00278961
-1.14045e-05
0.0027955
-2.11474e-05
0.00280225
-2.41209e-05
0.00280995
-2.71461e-05
0.00281821
-2.92482e-05
0.00282661
-2.97811e-05
0.00283489
-2.93537e-05
0.00284289
-2.84132e-05
0.00285052
-2.7173e-05
0.00285775
-2.57809e-05
0.00286455
-2.43448e-05
0.00287094
-2.28921e-05
0.00287695
-2.15897e-05
0.00288261
-2.04567e-05
0.00288802
-1.95771e-05
0.00289322
-1.88793e-05
0.00289825
-1.83381e-05
0.00290319
-1.8021e-05
0.00290806
-1.77957e-05
0.00291289
-1.76391e-05
0.00291769
-1.75288e-05
0.00292245
-1.74007e-05
0.00292717
-1.72735e-05
0.00293187
-1.7163e-05
0.00293653
-1.70283e-05
0.00294115
-1.69255e-05
0.00294575
-1.68352e-05
0.00295032
-1.67634e-05
0.00295486
-1.66796e-05
0.00295938
-1.66222e-05
0.00296388
-1.65686e-05
0.00296836
-1.6514e-05
0.00297283
-1.652e-05
0.00297727
-1.64175e-05
0.00298168
-1.634e-05
0.00298606
-1.6272e-05
0.00299041
-1.6197e-05
0.00299471
-1.61119e-05
0.00299896
-1.60122e-05
0.00300315
-1.59052e-05
0.00300729
-1.57915e-05
0.00301132
-1.56521e-05
0.00301527
-1.55116e-05
0.00301912
-1.53646e-05
0.00302283
-1.51763e-05
0.0030264
-1.49625e-05