/*--------------------------------*- C++ -*----------------------------------*\
| =========                 |                                                 |
| \\      /  F ield         | OpenFOAM: The Open Source CFD Toolbox           |
|  \\    /   O peration     | Version:  v2012                                 |
|   \\  /    A nd           | Website:  www.openfoam.com                      |
|    \\/     M anipulation  |                                                 |
\*---------------------------------------------------------------------------*/
FoamFile
{
    version     2.0;
    format      ascii;
    class       volVectorField;
    location    "0.121";
    object      U.air;
}
// * * * * * * * * * * * * * * * * * * * * * * * * * * * * * * * * * * * * * //

dimensions      [0 1 -1 0 0 0 0];


internalField   nonuniform List<vector> 
5600
(
(9.20613 0.00896209 0)
(8.83522 0.0172514 0)
(8.45616 0.0174854 0)
(8.07886 0.0144924 0)
(7.73095 0.00998045 0)
(7.42074 0.00527237 0)
(7.15457 0.000854041 0)
(6.93593 -0.00266931 0)
(6.75338 -0.00525014 0)
(6.60588 -0.00717262 0)
(6.4884 -0.00847348 0)
(6.39677 -0.00921727 0)
(6.32489 -0.00951421 0)
(6.26922 -0.00946917 0)
(6.22479 -0.00919155 0)
(6.18965 -0.00879379 0)
(6.16032 -0.00833848 0)
(6.13621 -0.00788303 0)
(6.11514 -0.00747775 0)
(6.09728 -0.00722331 0)
(6.08164 -0.00699085 0)
(6.0682 -0.00681189 0)
(6.05701 -0.00671082 0)
(6.04759 -0.00662079 0)
(6.04023 -0.00651682 0)
(6.03365 -0.00638345 0)
(6.02887 -0.00626677 0)
(6.02416 -0.00613797 0)
(6.02085 -0.00601929 0)
(6.01719 -0.00588215 0)
(6.01426 -0.00575043 0)
(6.01066 -0.00561863 0)
(6.00798 -0.00552325 0)
(6.00405 -0.00544897 0)
(6.00156 -0.00538254 0)
(5.99759 -0.00533367 0)
(5.99532 -0.00527276 0)
(5.99113 -0.00523344 0)
(5.98934 -0.00518178 0)
(5.98514 -0.00514983 0)
(5.98377 -0.00509847 0)
(5.97987 -0.00506967 0)
(5.97862 -0.00501375 0)
(5.97553 -0.00500123 0)
(5.97389 -0.00497095 0)
(5.97243 -0.00490697 0)
(5.96937 -0.00495871 0)
(5.96981 -0.00490252 0)
(5.96617 -0.00495499 0)
(5.96716 -0.00486756 0)
(5.96389 -0.00496372 0)
(5.96434 -0.00492158 0)
(5.96314 -0.00489289 0)
(5.96096 -0.00498832 0)
(5.96284 -0.00483824 0)
(5.95829 -0.00503183 0)
(5.96197 -0.00489249 0)
(5.95715 -0.00506695 0)
(5.96051 -0.00502104 0)
(5.95771 -0.00506379 0)
(5.95857 -0.00513287 0)
(5.95937 -0.00493946 0)
(5.95575 -0.00511246 0)
(5.95987 -0.00486801 0)
(5.95359 -0.00498586 0)
(5.95791 -0.00481092 0)
(5.95233 -0.00487826 0)
(5.95372 -0.00495932 0)
(5.9536 -0.00474737 0)
(5.94787 -0.00512803 0)
(5.95527 -0.00481937 0)
(5.94418 -0.00515814 0)
(5.95468 -0.00496992 0)
(5.94405 -0.00515099 0)
(5.95162 -0.00518947 0)
(5.94769 -0.00497076 0)
(5.9455 -0.00548469 0)
(5.95418 -0.00490665 0)
(5.94091 -0.00531904 0)
(5.95536 -0.0051509 0)
(5.94212 -0.00518061 0)
(5.95227 -0.00528144 0)
(5.94663 -0.00490509 0)
(5.94561 -0.00549763 0)
(5.95287 -0.00494065 0)
(5.94192 -0.00511217 0)
(5.95128 -0.00525748 0)
(5.9448 -0.00488598 0)
(5.94492 -0.00550074 0)
(5.95212 -0.00469327 0)
(5.93616 -0.00538463 0)
(5.95577 -0.00493037 0)
(5.93342 -0.00493427 0)
(5.95168 -0.00519605 0)
(5.9366 -0.00458059 0)
(5.94083 -0.0055388 0)
(5.94455 -0.00451094 0)
(5.92983 -0.00536323 0)
(5.94907 -0.00366411 0)
(5.88588 -0.0141084 0)
(9.39288 0.0365641 0)
(9.38796 0.0381896 0)
(9.35654 0.0375701 0)
(9.29944 0.0376134 0)
(9.22386 0.0368813 0)
(9.13562 0.035106 0)
(9.03684 0.0325824 0)
(8.9311 0.029689 0)
(8.82325 0.0268003 0)
(8.71594 0.0238927 0)
(8.61151 0.0210191 0)
(8.51245 0.0184239 0)
(8.41912 0.0161256 0)
(8.3332 0.0141347 0)
(8.25408 0.0124447 0)
(8.18291 0.0110454 0)
(8.11822 0.00989137 0)
(8.06096 0.00894467 0)
(8.00937 0.00813228 0)
(7.96454 0.00738122 0)
(7.92476 0.00673462 0)
(7.8908 0.00615642 0)
(7.86058 0.00568829 0)
(7.83332 0.00526949 0)
(7.80929 0.00488559 0)
(7.78717 0.00452628 0)
(7.76813 0.00420929 0)
(7.74925 0.00395037 0)
(7.733 0.00370608 0)
(7.71646 0.00352195 0)
(7.70241 0.00336076 0)
(7.68797 0.0031927 0)
(7.67605 0.00309395 0)
(7.66355 0.0030135 0)
(7.65354 0.0029401 0)
(7.64269 0.00286046 0)
(7.63428 0.00280005 0)
(7.62474 0.00272328 0)
(7.6177 0.00265942 0)
(7.60936 0.00257577 0)
(7.60335 0.00251538 0)
(7.59636 0.00241791 0)
(7.5909 0.00236191 0)
(7.5856 0.00225555 0)
(7.57997 0.00216233 0)
(7.57641 0.00214277 0)
(7.57049 0.00204676 0)
(7.56812 0.00204199 0)
(7.56267 0.00196069 0)
(7.56037 0.00197449 0)
(7.55673 0.00191048 0)
(7.55312 0.00190671 0)
(7.55191 0.00189823 0)
(7.54669 0.00185182 0)
(7.54724 0.0018701 0)
(7.54207 0.00184135 0)
(7.54266 0.00187471 0)
(7.53888 0.00184456 0)
(7.5384 0.00188932 0)
(7.53754 0.00188201 0)
(7.53475 0.00186461 0)
(7.53608 0.00191348 0)
(7.53219 0.00187211 0)
(7.53401 0.00189474 0)
(7.52986 0.00185806 0)
(7.53039 0.0019102 0)
(7.52867 0.00184913 0)
(7.52541 0.00184923 0)
(7.52731 0.00191202 0)
(7.52151 0.00187908 0)
(7.52533 0.00193066 0)
(7.51929 0.00192258 0)
(7.52248 0.00196238 0)
(7.51951 0.00195438 0)
(7.51916 0.00193764 0)
(7.5216 0.00204834 0)
(7.51658 0.00187046 0)
(7.52204 0.00202075 0)
(7.51635 0.00197873 0)
(7.52113 0.00196713 0)
(7.51798 0.00200782 0)
(7.51837 0.00191371 0)
(7.52064 0.002098 0)
(7.51655 0.00184874 0)
(7.52034 0.00202375 0)
(7.5168 0.0020142 0)
(7.51853 0.00191598 0)
(7.51841 0.00208064 0)
(7.51569 0.0018097 0)
(7.51867 0.00209159 0)
(7.51465 0.00191708 0)
(7.51646 0.00200003 0)
(7.51614 0.00204604 0)
(7.51114 0.00180817 0)
(7.51783 0.00216826 0)
(7.50808 0.00172614 0)
(7.51793 0.00210421 0)
(7.50257 0.00208546 0)
(7.52887 0.00295417 0)
(7.4814 -0.00861603 0)
(9.40085 0.0229776 0)
(9.42974 0.0304842 0)
(9.46069 0.0319614 0)
(9.47752 0.0330079 0)
(9.48908 0.0320177 0)
(9.48978 0.0301505 0)
(9.48381 0.0271901 0)
(9.46897 0.0241438 0)
(9.44572 0.0213418 0)
(9.41436 0.0186683 0)
(9.37566 0.0161987 0)
(9.33021 0.013906 0)
(9.27895 0.0119652 0)
(9.22318 0.010293 0)
(9.16428 0.00881997 0)
(9.10382 0.0075172 0)
(9.0428 0.0063388 0)
(8.98297 0.00525451 0)
(8.92495 0.00424774 0)
(8.87013 0.00328347 0)
(8.81863 0.00241685 0)
(8.77091 0.00158792 0)
(8.72733 0.000912629 0)
(8.6873 0.000331043 0)
(8.65134 -0.000147466 0)
(8.61778 -0.0005476 0)
(8.58829 -0.000822583 0)
(8.5595 -0.000997971 0)
(8.5348 -0.00115752 0)
(8.51005 -0.00125996 0)
(8.4894 -0.00136144 0)
(8.46845 -0.00147784 0)
(8.4512 -0.00155581 0)
(8.4334 -0.00163497 0)
(8.41898 -0.00170362 0)
(8.40364 -0.00178147 0)
(8.39154 -0.00182524 0)
(8.37824 -0.00189173 0)
(8.36808 -0.00192467 0)
(8.35665 -0.00198246 0)
(8.34792 -0.00199996 0)
(8.33845 -0.00204651 0)
(8.33043 -0.00204756 0)
(8.32339 -0.00205679 0)
(8.31502 -0.00206405 0)
(8.30983 -0.00203713 0)
(8.30167 -0.00212297 0)
(8.29753 -0.00209824 0)
(8.29042 -0.00217705 0)
(8.28612 -0.00215958 0)
(8.28164 -0.00219195 0)
(8.27549 -0.00220263 0)
(8.27402 -0.00217191 0)
(8.26674 -0.00223225 0)
(8.26683 -0.00217033 0)
(8.26035 -0.00231404 0)
(8.25983 -0.00225107 0)
(8.256 -0.00238121 0)
(8.25326 -0.00244465 0)
(8.25299 -0.00244159 0)
(8.24838 -0.00251394 0)
(8.24989 -0.00242387 0)
(8.24517 -0.00252474 0)
(8.24659 -0.00233346 0)
(8.24261 -0.00240523 0)
(8.24194 -0.00233188 0)
(8.24144 -0.00227514 0)
(8.23637 -0.00236259 0)
(8.23904 -0.00226822 0)
(8.2325 -0.00249318 0)
(8.23603 -0.00234676 0)
(8.23059 -0.00258545 0)
(8.2322 -0.00252398 0)
(8.23128 -0.00263391 0)
(8.22819 -0.00274162 0)
(8.23238 -0.00261279 0)
(8.22666 -0.00284646 0)
(8.23166 -0.00262378 0)
(8.22709 -0.00283827 0)
(8.22991 -0.00274092 0)
(8.22938 -0.00271165 0)
(8.22693 -0.00284917 0)
(8.23098 -0.00263137 0)
(8.22673 -0.00283276 0)
(8.22967 -0.00266008 0)
(8.22762 -0.00266508 0)
(8.22746 -0.00280094 0)
(8.22897 -0.00254845 0)
(8.22596 -0.00281788 0)
(8.22765 -0.00249572 0)
(8.2265 -0.00268581 0)
(8.22426 -0.00268176 0)
(8.2281 -0.0023708 0)
(8.22117 -0.0027405 0)
(8.22715 -0.00230853 0)
(8.2213 -0.0027673 0)
(8.22403 -0.00215153 0)
(8.22022 -0.00329849 0)
(8.23076 -0.00111312 0)
(8.2133 -0.0112515 0)
(9.3996 0.0218063 0)
(9.43083 0.0296006 0)
(9.46789 0.0303085 0)
(9.4994 0.0313238 0)
(9.52916 0.0312132 0)
(9.55561 0.0300576 0)
(9.58009 0.0284805 0)
(9.59923 0.0269602 0)
(9.61519 0.0255068 0)
(9.62558 0.0241805 0)
(9.63332 0.0227058 0)
(9.63467 0.0216985 0)
(9.63265 0.0206001 0)
(9.62644 0.0196107 0)
(9.61586 0.0186998 0)
(9.60084 0.0178355 0)
(9.58139 0.0169742 0)
(9.55748 0.01608 0)
(9.52932 0.0151444 0)
(9.49713 0.0141255 0)
(9.4614 0.0130773 0)
(9.4226 0.0120247 0)
(9.38214 0.0110561 0)
(9.34083 0.0101038 0)
(9.30028 0.00923995 0)
(9.25983 0.00839503 0)
(9.22247 0.00769152 0)
(9.18586 0.00705468 0)
(9.15375 0.00649328 0)
(9.12185 0.00599843 0)
(9.09478 0.00555134 0)
(9.06746 0.00516459 0)
(9.04427 0.00480956 0)
(9.02028 0.00450202 0)
(9.00022 0.00421839 0)
(8.97903 0.00395837 0)
(8.96182 0.00372388 0)
(8.94326 0.00350153 0)
(8.92856 0.00328892 0)
(8.91264 0.00309577 0)
(8.89986 0.00290379 0)
(8.88678 0.0027379 0)
(8.87481 0.00254942 0)
(8.86483 0.00243935 0)
(8.85302 0.00229223 0)
(8.84543 0.00220579 0)
(8.83455 0.00201601 0)
(8.82825 0.0019098 0)
(8.81913 0.00176672 0)
(8.81249 0.00160601 0)
(8.80667 0.00154004 0)
(8.79811 0.00134457 0)
(8.79565 0.00132328 0)
(8.78659 0.00110579 0)
(8.78555 0.0010627 0)
(8.77788 0.000883803 0)
(8.77588 0.000803876 0)
(8.77162 0.000715218 0)
(8.76682 0.000537485 0)
(8.76628 0.000530503 0)
(8.76013 0.000433506 0)
(8.76123 0.000460074 0)
(8.75551 0.000375841 0)
(8.75634 0.000500428 0)
(8.75223 0.000495929 0)
(8.75026 0.000471928 0)
(8.75022 0.00058522 0)
(8.74409 0.000482291 0)
(8.74681 0.000535411 0)
(8.73985 0.000410186 0)
(8.74309 0.000442438 0)
(8.7379 0.000361823 0)
(8.73871 0.00025344 0)
(8.73859 0.000308824 0)
(8.73458 8.5993e-05 0)
(8.73888 0.000221017 0)
(8.73326 4.8216e-05 0)
(8.73782 0.000137759 0)
(8.73386 0.000115399 0)
(8.73564 -2.51345e-05 0)
(8.73621 0.000234981 0)
(8.73317 -7.22626e-05 0)
(8.73705 0.000192552 0)
(8.73345 5.10465e-05 0)
(8.7357 0.000114984 0)
(8.73452 0.000288203 0)
(8.73366 -5.10103e-05 0)
(8.73539 0.000342451 0)
(8.73275 7.41464e-05 0)
(8.73399 0.000303833 0)
(8.73338 0.000324134 0)
(8.73118 6.97903e-05 0)
(8.73386 0.000609106 0)
(8.73028 6.79927e-05 0)
(8.73203 0.000553333 0)
(8.7319 0.000159399 0)
(8.72847 0.000604012 0)
(8.73191 -0.000493808 0)
(8.73169 0.00125971 0)
(8.73106 -0.00925347 0)
(9.39777 0.0183357 0)
(9.4281 0.0258222 0)
(9.46499 0.0260932 0)
(9.49882 0.0271399 0)
(9.5311 0.0271822 0)
(9.56228 0.0262979 0)
(9.59298 0.0248718 0)
(9.62049 0.0232904 0)
(9.64608 0.0217646 0)
(9.66883 0.0202731 0)
(9.69001 0.0189328 0)
(9.70842 0.0177051 0)
(9.72528 0.0166324 0)
(9.73972 0.0157991 0)
(9.7528 0.015128 0)
(9.76353 0.0146102 0)
(9.77287 0.0141712 0)
(9.77961 0.0138026 0)
(9.7847 0.0134418 0)
(9.78665 0.0130441 0)
(9.78586 0.0127781 0)
(9.78227 0.0123479 0)
(9.77546 0.0119004 0)
(9.76524 0.011375 0)
(9.75165 0.0108481 0)
(9.73468 0.0102258 0)
(9.71483 0.00961597 0)
(9.69245 0.00896058 0)
(9.66848 0.00831259 0)
(9.64288 0.00763828 0)
(9.61701 0.0070066 0)
(9.58982 0.00637746 0)
(9.56445 0.00582194 0)
(9.5377 0.00527941 0)
(9.51421 0.00481459 0)
(9.48904 0.00432309 0)
(9.46789 0.00390994 0)
(9.44496 0.00347521 0)
(9.4261 0.00308018 0)
(9.40599 0.00271132 0)
(9.38883 0.00233025 0)
(9.37209 0.00208211 0)
(9.3549 0.00172372 0)
(9.34121 0.00154602 0)
(9.32473 0.00123541 0)
(9.31358 0.00108541 0)
(9.29888 0.000829178 0)
(9.28898 0.00067291 0)
(9.27728 0.000523022 0)
(9.26652 0.000262556 0)
(9.25886 0.000269208 0)
(9.24666 -2.63756e-05 0)
(9.24221 -5.33001e-05 0)
(9.23081 -0.000315393 0)
(9.22721 -0.000390531 0)
(9.2185 -0.00050161 0)
(9.21329 -0.000633761 0)
(9.2083 -0.000600236 0)
(9.20012 -0.00075906 0)
(9.19864 -0.000745689 0)
(9.18976 -0.000817846 0)
(9.18976 -0.000801756 0)
(9.18238 -0.000868426 0)
(9.18135 -0.000827081 0)
(9.17751 -0.000780095 0)
(9.17218 -0.00087901 0)
(9.17288 -0.000729317 0)
(9.16551 -0.000802089 0)
(9.16789 -0.000779521 0)
(9.16106 -0.000908871 0)
(9.16295 -0.000924716 0)
(9.15939 -0.000990049 0)
(9.15811 -0.00119679 0)
(9.15953 -0.00109178 0)
(9.15463 -0.00130587 0)
(9.15852 -0.00126737 0)
(9.15376 -0.00136412 0)
(9.15686 -0.00134343 0)
(9.15486 -0.0013589 0)
(9.15446 -0.00151609 0)
(9.15689 -0.00127865 0)
(9.15343 -0.00145983 0)
(9.15644 -0.00139214 0)
(9.15428 -0.00137016 0)
(9.15487 -0.00141742 0)
(9.15561 -0.00123396 0)
(9.1539 -0.00145516 0)
(9.15529 -0.00126243 0)
(9.1541 -0.00133494 0)
(9.15399 -0.00131262 0)
(9.15538 -0.00117267 0)
(9.15254 -0.00135457 0)
(9.15531 -0.00116749 0)
(9.15332 -0.00127516 0)
(9.15285 -0.00129098 0)
(9.15553 -0.00119934 0)
(9.15203 -0.00112522 0)
(9.15526 -0.0019631 0)
(9.15439 -0.000847493 0)
(9.15592 -0.00842042 0)
(9.39592 0.0145875 0)
(9.42521 0.0219351 0)
(9.46146 0.0220246 0)
(9.49587 0.0229266 0)
(9.52817 0.0230118 0)
(9.56004 0.0222592 0)
(9.59153 0.0210415 0)
(9.62061 0.0197378 0)
(9.648 0.0185281 0)
(9.67335 0.017422 0)
(9.69755 0.0163958 0)
(9.71985 0.0155793 0)
(9.74127 0.0148812 0)
(9.76117 0.0143371 0)
(9.78043 0.0139154 0)
(9.79852 0.0135835 0)
(9.81612 0.0133126 0)
(9.83271 0.0130677 0)
(9.84873 0.0128463 0)
(9.86379 0.0126483 0)
(9.87801 0.012395 0)
(9.89121 0.0121158 0)
(9.90324 0.0118817 0)
(9.9142 0.0116496 0)
(9.92358 0.0114652 0)
(9.93176 0.0112451 0)
(9.93789 0.0110569 0)
(9.94247 0.0108406 0)
(9.94496 0.0105888 0)
(9.94498 0.0104069 0)
(9.94283 0.0101387 0)
(9.93887 0.00981534 0)
(9.93244 0.00948558 0)
(9.92439 0.00911698 0)
(9.91429 0.00871958 0)
(9.90279 0.00829839 0)
(9.88978 0.00784799 0)
(9.87571 0.0074259 0)
(9.86066 0.00691882 0)
(9.8452 0.00653878 0)
(9.82868 0.0059851 0)
(9.81345 0.00570677 0)
(9.79565 0.00520446 0)
(9.7818 0.00494442 0)
(9.76381 0.00454599 0)
(9.75107 0.00422982 0)
(9.7348 0.00392817 0)
(9.72178 0.00351477 0)
(9.70925 0.0034391 0)
(9.69401 0.00295016 0)
(9.68557 0.00292915 0)
(9.67009 0.00258194 0)
(9.66299 0.0023733 0)
(9.64996 0.00220999 0)
(9.64201 0.00194087 0)
(9.63278 0.00192692 0)
(9.62235 0.00159086 0)
(9.61653 0.00169443 0)
(9.60449 0.00128843 0)
(9.60078 0.00120992 0)
(9.58954 0.00104486 0)
(9.58601 0.000890842 0)
(9.57769 0.000881863 0)
(9.57212 0.00071463 0)
(9.56827 0.00101428 0)
(9.55916 0.000660316 0)
(9.55982 0.000831423 0)
(9.55152 0.000687428 0)
(9.55262 0.000532976 0)
(9.54706 0.000386604 0)
(9.54629 3.73061e-05 0)
(9.54576 0.000100586 0)
(9.5414 -0.000356464 0)
(9.54409 -0.000177224 0)
(9.53919 -0.000452408 0)
(9.54202 -0.000543153 0)
(9.53941 -0.000534608 0)
(9.53955 -0.000748546 0)
(9.54107 -0.000537318 0)
(9.5378 -0.000898921 0)
(9.54139 -0.000592868 0)
(9.53851 -0.000741392 0)
(9.54009 -0.000770878 0)
(9.54069 -0.000573044 0)
(9.53851 -0.000772083 0)
(9.54118 -0.000498738 0)
(9.53945 -0.000721375 0)
(9.54034 -0.000545236 0)
(9.54132 -0.000514577 0)
(9.53902 -0.00061647 0)
(9.54283 -0.000354657 0)
(9.53941 -0.000613971 0)
(9.54297 -0.000334922 0)
(9.54204 -0.000369726 0)
(9.5404 -0.000486989 0)
(9.54439 -0.000447018 0)
(9.54184 -0.000191247 0)
(9.54519 -0.00131705 0)
(9.54388 -0.000155753 0)
(9.54671 -0.00682099 0)
(9.395 0.0113282 0)
(9.42267 0.0175848 0)
(9.45813 0.0175082 0)
(9.49297 0.0182274 0)
(9.52502 0.0183622 0)
(9.55689 0.0177383 0)
(9.58836 0.0167442 0)
(9.61771 0.0157011 0)
(9.64531 0.0147299 0)
(9.67116 0.013841 0)
(9.69583 0.0130047 0)
(9.71891 0.0123335 0)
(9.74113 0.0117236 0)
(9.76219 0.0112267 0)
(9.78269 0.0108339 0)
(9.80243 0.0105267 0)
(9.82183 0.0102764 0)
(9.8407 0.0100683 0)
(9.85921 0.00988579 0)
(9.87738 0.00971844 0)
(9.89499 0.0095619 0)
(9.91247 0.00939163 0)
(9.92914 0.00925237 0)
(9.94584 0.00911838 0)
(9.96165 0.00901991 0)
(9.97757 0.00889649 0)
(9.99239 0.00880632 0)
(10.0075 0.00869343 0)
(10.0211 0.00863815 0)
(10.0353 0.00855951 0)
(10.0473 0.00846974 0)
(10.0604 0.00835852 0)
(10.0703 0.00826991 0)
(10.082 0.00815867 0)
(10.0894 0.00805302 0)
(10.0994 0.00791569 0)
(10.104 0.00778644 0)
(10.1115 0.00761217 0)
(10.1135 0.00744603 0)
(10.1175 0.00723057 0)
(10.1173 0.00698424 0)
(10.1171 0.00690941 0)
(10.1156 0.00660564 0)
(10.1123 0.00638351 0)
(10.1089 0.00612606 0)
(10.1026 0.00574766 0)
(10.098 0.0055486 0)
(10.089 0.0050186 0)
(10.0835 0.00497799 0)
(10.0734 0.00443535 0)
(10.0662 0.00426877 0)
(10.0564 0.00395096 0)
(10.0471 0.00350893 0)
(10.0385 0.00333712 0)
(10.0267 0.00279473 0)
(10.0205 0.00276264 0)
(10.008 0.0023064 0)
(10.0027 0.00232819 0)
(9.99135 0.00191542 0)
(9.98506 0.0017224 0)
(9.9756 0.00156645 0)
(9.96739 0.0012066 0)
(9.96081 0.00124233 0)
(9.95005 0.000849151 0)
(9.94719 0.00119245 0)
(9.9368 0.00064286 0)
(9.93531 0.000585807 0)
(9.92919 0.000494468 0)
(9.92547 9.8141e-05 0)
(9.92517 0.00015868 0)
(9.91914 -0.000257259 0)
(9.92141 -0.000126092 0)
(9.91628 -0.00047277 0)
(9.9184 -0.000473112 0)
(9.91612 -0.000587282 0)
(9.91553 -0.000882145 0)
(9.91788 -0.00068053 0)
(9.91352 -0.000964148 0)
(9.91777 -0.00084824 0)
(9.91393 -0.00105185 0)
(9.91703 -0.00099623 0)
(9.91659 -0.000886321 0)
(9.91472 -0.00116727 0)
(9.91889 -0.000886651 0)
(9.91548 -0.000964396 0)
(9.91856 -0.000946648 0)
(9.91749 -0.000963513 0)
(9.91741 -0.0010091 0)
(9.92006 -0.000844535 0)
(9.91728 -0.000981783 0)
(9.92153 -0.000863157 0)
(9.91886 -0.000933915 0)
(9.92137 -0.000968255 0)
(9.92202 -0.000700253 0)
(9.92104 -0.00096939 0)
(9.92346 -0.00103418 0)
(9.923 -0.000823736 0)
(9.92554 -0.00169341 0)
(9.92489 -0.00115383 0)
(9.92765 -0.00649263 0)
(9.39444 0.00798897 0)
(9.42062 0.0126847 0)
(9.45547 0.0125443 0)
(9.49057 0.0130661 0)
(9.52241 0.0132102 0)
(9.55423 0.0127489 0)
(9.5856 0.0120285 0)
(9.61501 0.0112652 0)
(9.64257 0.010541 0)
(9.66852 0.00987377 0)
(9.69316 0.00924617 0)
(9.71642 0.00874068 0)
(9.7387 0.00828728 0)
(9.76001 0.00792859 0)
(9.78067 0.00765823 0)
(9.80075 0.0074606 0)
(9.82044 0.00730603 0)
(9.83975 0.00718743 0)
(9.85872 0.00707668 0)
(9.87746 0.00698515 0)
(9.89578 0.00689538 0)
(9.914 0.00678341 0)
(9.93171 0.00667984 0)
(9.94941 0.00658141 0)
(9.96667 0.00650783 0)
(9.98395 0.00642367 0)
(10.0008 0.00635611 0)
(10.0177 0.00628635 0)
(10.0341 0.00623866 0)
(10.0508 0.00621645 0)
(10.0668 0.00616715 0)
(10.0831 0.00611397 0)
(10.0985 0.00606713 0)
(10.1145 0.00602569 0)
(10.1293 0.00598164 0)
(10.1449 0.00593611 0)
(10.1588 0.00589121 0)
(10.1739 0.00584226 0)
(10.187 0.00579084 0)
(10.2011 0.00575891 0)
(10.2137 0.00570195 0)
(10.2255 0.0056644 0)
(10.2389 0.00553968 0)
(10.2476 0.00548337 0)
(10.2612 0.00543361 0)
(10.2672 0.0053091 0)
(10.2795 0.00527518 0)
(10.2846 0.00511224 0)
(10.2925 0.00509051 0)
(10.2998 0.00492235 0)
(10.3015 0.00482341 0)
(10.3104 0.00473994 0)
(10.3088 0.00452346 0)
(10.315 0.00450336 0)
(10.3123 0.00421545 0)
(10.3152 0.00411282 0)
(10.3131 0.00386597 0)
(10.3125 0.00375686 0)
(10.3127 0.00361892 0)
(10.3069 0.0032712 0)
(10.3083 0.00332731 0)
(10.2997 0.0028896 0)
(10.3008 0.00303342 0)
(10.2916 0.0025951 0)
(10.2904 0.00264541 0)
(10.2861 0.00233699 0)
(10.2787 0.00167976 0)
(10.2805 0.00180641 0)
(10.2716 0.000975493 0)
(10.2764 0.00102424 0)
(10.2684 0.000477293 0)
(10.2727 0.000309117 0)
(10.2693 1.82954e-05 0)
(10.269 -0.0003449 0)
(10.2729 -0.000227507 0)
(10.2668 -0.000766015 0)
(10.274 -0.000637816 0)
(10.2676 -0.000802535 0)
(10.2742 -0.000892835 0)
(10.2711 -0.000880146 0)
(10.2715 -0.00110438 0)
(10.2752 -0.000769344 0)
(10.2708 -0.00105131 0)
(10.2756 -0.000950599 0)
(10.2725 -0.000875798 0)
(10.275 -0.000947177 0)
(10.2747 -0.000822199 0)
(10.2739 -0.000979474 0)
(10.2761 -0.000793569 0)
(10.2742 -0.000904414 0)
(10.2765 -0.000847314 0)
(10.2755 -0.000796934 0)
(10.2758 -0.000946968 0)
(10.2766 -0.000647992 0)
(10.2774 -0.000817193 0)
(10.2767 -0.00095095 0)
(10.2781 -0.000853089 0)
(10.2785 -0.00153418 0)
(10.2794 -0.00131168 0)
(10.281 -0.00574624 0)
(9.39406 0.00454702 0)
(9.41913 0.00728462 0)
(9.45366 0.00712631 0)
(9.48882 0.00743361 0)
(9.52055 0.00752861 0)
(9.5523 0.00723892 0)
(9.58362 0.00680882 0)
(9.61305 0.00633788 0)
(9.64058 0.00588082 0)
(9.66656 0.00547118 0)
(9.69118 0.00509109 0)
(9.71448 0.00478587 0)
(9.73674 0.00451267 0)
(9.75809 0.00429585 0)
(9.77876 0.00413055 0)
(9.79889 0.00400812 0)
(9.81859 0.0039077 0)
(9.83796 0.00383147 0)
(9.857 0.00375548 0)
(9.87579 0.00370076 0)
(9.89427 0.00364389 0)
(9.91254 0.00356672 0)
(9.93048 0.00349372 0)
(9.94829 0.00342934 0)
(9.96582 0.00338606 0)
(9.98331 0.00333745 0)
(10.0005 0.0032973 0)
(10.0177 0.00325527 0)
(10.0347 0.00322747 0)
(10.0516 0.00323276 0)
(10.0684 0.0032033 0)
(10.0852 0.00317649 0)
(10.1017 0.00314393 0)
(10.1183 0.00313086 0)
(10.1345 0.00310379 0)
(10.1509 0.00308587 0)
(10.1669 0.0030659 0)
(10.1831 0.00303472 0)
(10.1988 0.00302629 0)
(10.2146 0.00298353 0)
(10.2302 0.00299509 0)
(10.2455 0.00293195 0)
(10.2612 0.00291347 0)
(10.2757 0.00289699 0)
(10.2913 0.00289476 0)
(10.3052 0.00285502 0)
(10.3204 0.00283542 0)
(10.3342 0.0028405 0)
(10.348 0.00277057 0)
(10.3627 0.00280247 0)
(10.3744 0.00274839 0)
(10.3899 0.00274757 0)
(10.4 0.00273807 0)
(10.4151 0.00281052 0)
(10.4247 0.00271263 0)
(10.4374 0.00270065 0)
(10.4479 0.00266555 0)
(10.4569 0.00250724 0)
(10.4698 0.00256549 0)
(10.4748 0.00244815 0)
(10.4887 0.0025504 0)
(10.4916 0.00244054 0)
(10.5037 0.00256244 0)
(10.5075 0.00253886 0)
(10.5136 0.00236418 0)
(10.5221 0.00229238 0)
(10.5216 0.00186786 0)
(10.5314 0.00157296 0)
(10.529 0.00109438 0)
(10.5368 0.000781677 0)
(10.5347 0.000490004 0)
(10.539 -8.48017e-05 0)
(10.5398 -4.48302e-05 0)
(10.539 -0.000636421 0)
(10.5437 -0.000550839 0)
(10.5403 -0.000857545 0)
(10.5451 -0.000850564 0)
(10.5424 -0.000963085 0)
(10.5447 -0.00109772 0)
(10.5445 -0.000952455 0)
(10.5435 -0.00123864 0)
(10.5453 -0.000959682 0)
(10.5442 -0.00110447 0)
(10.5448 -0.00107376 0)
(10.5447 -0.000969576 0)
(10.5446 -0.00106975 0)
(10.5449 -0.000923206 0)
(10.5447 -0.00105463 0)
(10.545 -0.000933573 0)
(10.5451 -0.000946704 0)
(10.5442 -0.000977916 0)
(10.5455 -0.000869574 0)
(10.5444 -0.000984677 0)
(10.5447 -0.000869495 0)
(10.5455 -0.000920471 0)
(10.5445 -0.00104807 0)
(10.5455 -0.00099972 0)
(10.5445 -0.00167259 0)
(10.5461 -0.00181636 0)
(10.5464 -0.00560407 0)
(9.39387 0.000961806 0)
(9.41838 0.001316 0)
(9.45277 0.00114503 0)
(9.48797 0.00123428 0)
(9.51964 0.00123496 0)
(9.55134 0.00113511 0)
(9.58265 0.00102966 0)
(9.61208 0.000881598 0)
(9.63959 0.000724145 0)
(9.66559 0.00060279 0)
(9.6902 0.000490858 0)
(9.71352 0.000402763 0)
(9.73577 0.000319582 0)
(9.75714 0.000251554 0)
(9.7778 0.000200726 0)
(9.79793 0.000168278 0)
(9.81765 0.000144235 0)
(9.83701 0.000134625 0)
(9.85606 0.000120565 0)
(9.87484 0.000125005 0)
(9.89335 0.000126039 0)
(9.9116 0.000106165 0)
(9.92959 8.17649e-05 0)
(9.94738 6.17174e-05 0)
(9.96497 5.18134e-05 0)
(9.98245 3.50841e-05 0)
(9.99973 2.03136e-05 0)
(10.0169 -2.12401e-06 0)
(10.034 -1.04568e-05 0)
(10.051 6.48144e-06 0)
(10.0679 -6.23909e-06 0)
(10.0847 -1.65209e-05 0)
(10.1014 -3.17637e-05 0)
(10.118 -2.65088e-05 0)
(10.1345 -3.69071e-05 0)
(10.151 -3.33205e-05 0)
(10.1673 -3.88772e-05 0)
(10.1836 -4.23837e-05 0)
(10.1997 -3.84049e-05 0)
(10.2158 -5.84621e-05 0)
(10.2318 -1.69201e-05 0)
(10.2476 -6.32997e-05 0)
(10.2635 -3.7739e-05 0)
(10.2791 -6.28351e-05 0)
(10.2948 -3.13289e-05 0)
(10.3102 -5.06397e-05 0)
(10.3257 -6.80703e-05 0)
(10.341 -4.51002e-06 0)
(10.3562 -0.000112364 0)
(10.3714 -5.10072e-06 0)
(10.3862 -8.1997e-05 0)
(10.4013 -4.93749e-05 0)
(10.4158 -2.82243e-05 0)
(10.4308 -1.09008e-05 0)
(10.4453 2.32698e-05 0)
(10.4597 -5.09081e-05 0)
(10.4741 5.96759e-05 0)
(10.4877 -9.97111e-05 0)
(10.5018 8.7133e-05 0)
(10.5148 -1.75598e-06 0)
(10.5288 8.23511e-05 0)
(10.5417 8.54695e-05 0)
(10.5556 0.000109095 0)
(10.5693 0.000314704 0)
(10.5824 6.44876e-05 0)
(10.5973 0.000357215 0)
(10.6079 5.26012e-05 0)
(10.6206 0.00011612 0)
(10.6289 -0.000119658 0)
(10.637 -0.000148977 0)
(10.6439 -0.000192592 0)
(10.6469 -0.000492071 0)
(10.6517 -0.000340097 0)
(10.6525 -0.000820997 0)
(10.6547 -0.000677296 0)
(10.6549 -0.00089911 0)
(10.6549 -0.000939744 0)
(10.6556 -0.000896132 0)
(10.6544 -0.00112938 0)
(10.6549 -0.000854707 0)
(10.6536 -0.00114737 0)
(10.6534 -0.000963111 0)
(10.6534 -0.000975842 0)
(10.6522 -0.0010359 0)
(10.6527 -0.000877812 0)
(10.6518 -0.00100924 0)
(10.6523 -0.000859689 0)
(10.6515 -0.000988168 0)
(10.652 -0.000888724 0)
(10.6516 -0.000862548 0)
(10.6515 -0.000939325 0)
(10.652 -0.000802224 0)
(10.6514 -0.000907463 0)
(10.6519 -0.000831239 0)
(10.6515 -0.000850907 0)
(10.652 -0.000977104 0)
(10.6518 -0.000975734 0)
(10.6516 -0.00158649 0)
(10.6524 -0.0019569 0)
(10.6516 -0.00492169 0)
(9.39391 -0.00274643 0)
(9.41859 -0.00496468 0)
(9.45306 -0.00513763 0)
(9.48829 -0.00526899 0)
(9.51996 -0.00538186 0)
(9.55167 -0.00527999 0)
(9.58299 -0.00503992 0)
(9.6124 -0.0048508 0)
(9.63993 -0.00469268 0)
(9.66593 -0.00450986 0)
(9.69054 -0.00434307 0)
(9.71387 -0.00420189 0)
(9.73611 -0.00408588 0)
(9.75748 -0.00399675 0)
(9.77814 -0.00392434 0)
(9.79828 -0.00385997 0)
(9.81799 -0.00380303 0)
(9.83736 -0.00374486 0)
(9.85642 -0.0037008 0)
(9.87519 -0.00364202 0)
(9.89371 -0.00358902 0)
(9.91195 -0.00356017 0)
(9.92994 -0.00354356 0)
(9.94773 -0.00352695 0)
(9.96534 -0.00350573 0)
(9.9828 -0.00349161 0)
(10.0001 -0.00347785 0)
(10.0173 -0.00347742 0)
(10.0343 -0.00345967 0)
(10.0513 -0.00342693 0)
(10.0682 -0.00341761 0)
(10.085 -0.0034089 0)
(10.1017 -0.00340168 0)
(10.1183 -0.0033815 0)
(10.1349 -0.00337185 0)
(10.1513 -0.00335634 0)
(10.1676 -0.00334477 0)
(10.1839 -0.00332998 0)
(10.2 -0.00331609 0)
(10.2161 -0.00331316 0)
(10.2321 -0.00326947 0)
(10.2479 -0.00328827 0)
(10.2637 -0.00326079 0)
(10.2793 -0.00326368 0)
(10.2949 -0.00322535 0)
(10.3104 -0.00322035 0)
(10.3257 -0.0032218 0)
(10.341 -0.00315363 0)
(10.3561 -0.00321269 0)
(10.3711 -0.0031115 0)
(10.386 -0.00314218 0)
(10.4007 -0.00308676 0)
(10.4154 -0.00305913 0)
(10.43 -0.00302041 0)
(10.4445 -0.00295238 0)
(10.4587 -0.00298543 0)
(10.4728 -0.00284858 0)
(10.4863 -0.00294644 0)
(10.4999 -0.00277127 0)
(10.5129 -0.00282691 0)
(10.5259 -0.00276738 0)
(10.539 -0.00278776 0)
(10.5518 -0.00287572 0)
(10.5658 -0.00273012 0)
(10.578 -0.00301794 0)
(10.5919 -0.00271131 0)
(10.6024 -0.00269148 0)
(10.6139 -0.00243716 0)
(10.6222 -0.00219017 0)
(10.6292 -0.00200521 0)
(10.6363 -0.00153829 0)
(10.6391 -0.00153113 0)
(10.6437 -0.00112657 0)
(10.6444 -0.00124931 0)
(10.6466 -0.000956674 0)
(10.6467 -0.000965392 0)
(10.6472 -0.000988445 0)
(10.6473 -0.000871247 0)
(10.6467 -0.000968228 0)
(10.6468 -0.000758622 0)
(10.6458 -0.000967549 0)
(10.6458 -0.000861113 0)
(10.6448 -0.000881643 0)
(10.6452 -0.000922069 0)
(10.6442 -0.000851924 0)
(10.6446 -0.000942865 0)
(10.644 -0.000869707 0)
(10.6439 -0.000969089 0)
(10.6442 -0.000896852 0)
(10.6434 -0.000854221 0)
(10.6443 -0.000934777 0)
(10.6433 -0.000885699 0)
(10.6443 -0.000892494 0)
(10.6435 -0.000892697 0)
(10.6439 -0.000925106 0)
(10.6442 -0.000983812 0)
(10.6432 -0.00103532 0)
(10.6445 -0.00151461 0)
(10.6432 -0.00210765 0)
(10.6439 -0.00459284 0)
(9.39419 -0.00640478 0)
(9.41974 -0.0109661 0)
(9.45454 -0.0111158 0)
(9.48975 -0.0114675 0)
(9.52148 -0.0116782 0)
(9.55326 -0.0113835 0)
(9.58462 -0.0108157 0)
(9.61401 -0.0103134 0)
(9.64155 -0.00985764 0)
(9.66755 -0.00938278 0)
(9.69217 -0.00894944 0)
(9.71548 -0.00858626 0)
(9.73773 -0.00827773 0)
(9.75909 -0.0080375 0)
(9.77975 -0.00784955 0)
(9.7999 -0.00769486 0)
(9.8196 -0.0075632 0)
(9.83899 -0.00743874 0)
(9.85802 -0.00733899 0)
(9.87683 -0.0072227 0)
(9.8953 -0.00711519 0)
(9.91355 -0.00703582 0)
(9.9315 -0.00697695 0)
(9.9493 -0.00692547 0)
(9.96686 -0.00687411 0)
(9.9843 -0.00683406 0)
(10.0015 -0.00679723 0)
(10.0187 -0.00678209 0)
(10.0357 -0.0067451 0)
(10.0526 -0.00670118 0)
(10.0693 -0.00667343 0)
(10.086 -0.00664777 0)
(10.1026 -0.00662062 0)
(10.119 -0.00658521 0)
(10.1353 -0.00655392 0)
(10.1515 -0.00651947 0)
(10.1675 -0.00648387 0)
(10.1834 -0.00644441 0)
(10.1992 -0.00640858 0)
(10.2148 -0.00637238 0)
(10.2302 -0.00631277 0)
(10.2454 -0.00629329 0)
(10.2604 -0.00624845 0)
(10.2752 -0.00621999 0)
(10.2897 -0.00616762 0)
(10.3039 -0.00614024 0)
(10.3181 -0.00611988 0)
(10.3316 -0.00604804 0)
(10.3453 -0.00605688 0)
(10.358 -0.00596149 0)
(10.3708 -0.0059476 0)
(10.3827 -0.00589326 0)
(10.3945 -0.00584645 0)
(10.4058 -0.00575565 0)
(10.4161 -0.00566318 0)
(10.4267 -0.00561122 0)
(10.4355 -0.00542902 0)
(10.4447 -0.0054013 0)
(10.4523 -0.00518618 0)
(10.4599 -0.00514308 0)
(10.4668 -0.00503697 0)
(10.4723 -0.00500432 0)
(10.4783 -0.00505383 0)
(10.4824 -0.00487903 0)
(10.4868 -0.00492804 0)
(10.4896 -0.00458358 0)
(10.4927 -0.00425868 0)
(10.4951 -0.00385362 0)
(10.4967 -0.00330604 0)
(10.4992 -0.00282797 0)
(10.4998 -0.00232084 0)
(10.5024 -0.00184386 0)
(10.5023 -0.00158389 0)
(10.5042 -0.00136424 0)
(10.5042 -0.00118204 0)
(10.5051 -0.00105572 0)
(10.5059 -0.00102881 0)
(10.5055 -0.000903485 0)
(10.5067 -0.000931102 0)
(10.5058 -0.000798987 0)
(10.5071 -0.000883683 0)
(10.5059 -0.000858149 0)
(10.5068 -0.000842319 0)
(10.5062 -0.000898026 0)
(10.5061 -0.000845144 0)
(10.507 -0.000916336 0)
(10.5056 -0.000861742 0)
(10.5073 -0.000935191 0)
(10.5056 -0.000905817 0)
(10.5071 -0.000851269 0)
(10.5061 -0.000954484 0)
(10.5064 -0.000874474 0)
(10.507 -0.000894304 0)
(10.5057 -0.000880243 0)
(10.5076 -0.00090836 0)
(10.5058 -0.000971679 0)
(10.5077 -0.0010676 0)
(10.5061 -0.00159172 0)
(10.5065 -0.00203548 0)
(10.5058 -0.00423761 0)
(9.39466 -0.00995992 0)
(9.42161 -0.016456 0)
(9.45695 -0.0165723 0)
(9.49208 -0.0171216 0)
(9.52392 -0.0173726 0)
(9.5558 -0.0168881 0)
(9.58723 -0.0160135 0)
(9.61657 -0.0152321 0)
(9.64415 -0.0145128 0)
(9.67012 -0.0137798 0)
(9.69478 -0.0131088 0)
(9.71804 -0.0125481 0)
(9.74031 -0.012064 0)
(9.76162 -0.0116807 0)
(9.78228 -0.0113836 0)
(9.80239 -0.0111465 0)
(9.82204 -0.0109553 0)
(9.84139 -0.0107753 0)
(9.8603 -0.0106321 0)
(9.87905 -0.0104655 0)
(9.89734 -0.0103098 0)
(9.91547 -0.010184 0)
(9.93317 -0.0100828 0)
(9.9508 -0.00998768 0)
(9.96801 -0.00989437 0)
(9.98519 -0.0098138 0)
(10.0019 -0.00974274 0)
(10.0187 -0.00970072 0)
(10.0351 -0.0096344 0)
(10.0514 -0.00956912 0)
(10.0673 -0.00951457 0)
(10.0832 -0.00946451 0)
(10.0986 -0.00941125 0)
(10.1138 -0.00935706 0)
(10.1286 -0.00930189 0)
(10.1431 -0.00924875 0)
(10.1571 -0.00918488 0)
(10.1707 -0.0091369 0)
(10.1837 -0.0090762 0)
(10.1962 -0.00900023 0)
(10.2078 -0.00891027 0)
(10.219 -0.00882967 0)
(10.229 -0.00873183 0)