/*--------------------------------*- C++ -*----------------------------------*\
| =========                 |                                                 |
| \\      /  F ield         | OpenFOAM: The Open Source CFD Toolbox           |
|  \\    /   O peration     | Version:  v2012                                 |
|   \\  /    A nd           | Website:  www.openfoam.com                      |
|    \\/     M anipulation  |                                                 |
\*---------------------------------------------------------------------------*/
FoamFile
{
    version     2.0;
    format      ascii;
    class       volScalarField;
    location    "0.092";
    object      p;
}
// * * * * * * * * * * * * * * * * * * * * * * * * * * * * * * * * * * * * * //

dimensions      [0 2 -2 0 0 0 0];


internalField   nonuniform List<scalar> 
1900
(
-387.463
-388.056
-388.34
-388.297
-387.781
-385.94
-382.856
-374.299
-358.494
-312.84
-387.569
-388.121
-388.44
-388.374
-387.883
-386.441
-383.615
-376.774
-363.579
-339.347
-387.545
-388.214
-388.567
-388.552
-388.153
-387.123
-385.085
-380.491
-372.7
-364.277
-387.494
-388.305
-388.717
-388.792
-388.535
-388.054
-387.069
-384.922
-382.369
-384.246
-387.476
-388.399
-388.9
-389.027
-389.011
-389.093
-389.196
-389.408
-391.34
-400.413
-387.496
-388.426
-389.089
-389.284
-389.563
-390.167
-391.265
-393.586
-399.185
-413.53
-387.453
-388.389
-389.252
-389.54
-390.084
-391.164
-393.134
-397.223
-405.745
-423.877
-387.608
-388.434
-389.209
-389.779
-390.532
-391.923
-394.682
-400.1
-410.703
-431.459
-387.553
-388.426
-389.238
-390.05
-390.914
-392.499
-395.754
-402.048
-414.008
-436.465
-387.416
-388.456
-389.286
-390.176
-391.145
-392.797
-396.308
-403.124
-415.769
-438.983
-265.667
-476.835
-786.176
-1030.06
-1194.28
-1286.18
-1312.38
-1276.76
-1177.75
-1021.79
-815.99
-578.078
-375.101
-231.147
-140.324
-87.0433
-57.4925
-41.1824
-32.0251
-26.8349
-23.8509
-22.0235
-20.844
-20.0871
-19.5979
-19.252
-18.991
-18.7933
-18.6195
-18.4649
-18.3367
-18.2239
-17.9017
-17.8903
-17.7791
-17.6661
-17.5908
-17.4859
-17.3664
-17.2363
-17.1042
-16.9663
-16.8208
-16.6679
-16.5071
-16.338
-16.1598
-15.9717
-15.7727
-15.5621
-15.3392
-15.1039
-14.8566
-14.5985
-14.3315
-14.0577
-13.7793
-13.4984
-13.2164
-12.934
-12.6513
-12.3676
-12.0821
-11.7935
-11.5008
-11.2033
-10.9004
-10.5922
-10.2791
-9.96171
-9.64084
-9.3173
-8.99177
-8.66482
-8.33679
-8.0079
-7.67817
-7.34755
-7.01606
-6.68372
-6.35058
-6.01683
-5.68277
-5.34869
-5.01481
-4.68162
-4.34944
-4.01857
-3.68915
-3.36154
-3.03568
-2.71194
-2.38998
-2.07009
-1.75114
-1.43497
-1.11541
-0.80282
-0.47274
-0.182282
-327.589
-503.9
-784.098
-1014.42
-1175.13
-1267.38
-1294.79
-1259.36
-1160.11
-1004.38
-801.898
-574.467
-381.715
-243.317
-153.001
-97.7981
-65.7307
-47.1152
-36.0969
-29.5612
-25.6336
-23.2187
-21.6251
-20.5906
-19.9322
-19.4695
-19.1348
-18.9011
-18.6952
-18.5167
-18.3807
-18.2343
-17.9656
-17.9261
-17.82
-17.6933
-17.6332
-17.5297
-17.4053
-17.2711
-17.1372
-16.998
-16.8517
-16.6982
-16.5369
-16.3674
-16.1886
-16
-15.8007
-15.5899
-15.3672
-15.1323
-14.8858
-14.6288
-14.363
-14.0904
-13.8131
-13.5331
-13.2517
-12.9694
-12.6865
-12.4024
-12.1162
-11.8271
-11.534
-11.2362
-10.9333
-10.6253
-10.3125
-9.99552
-9.67511
-9.35199
-9.02682
-8.70012
-8.37226
-8.04345
-7.71373
-7.38307
-7.05157
-6.71926
-6.38619
-6.05254
-5.71861
-5.38464
-5.0509
-4.71779
-4.38568
-4.05482
-3.72537
-3.3976
-3.07151
-2.74729
-2.42456
-2.10358
-1.78238
-1.46455
-1.13954
-0.826805
-0.485001
-0.206373
-373.728
-525.603
-777.339
-993.67
-1149.49
-1240.89
-1268.69
-1232.3
-1132.7
-979.419
-782.626
-569.912
-387.629
-254.154
-164.422
-107.69
-73.2892
-52.536
-39.8323
-32.1047
-27.3118
-24.3061
-22.3507
-21.0707
-20.2368
-19.673
-19.2752
-18.9877
-18.7584
-18.5684
-18.4174
-18.243
-17.9936
-17.946
-17.8488
-17.7008
-17.6601
-17.5551
-17.4219
-17.2832
-17.1471
-17.0066
-16.8594
-16.7053
-16.5436
-16.3736
-16.1945
-16.0055
-15.8059
-15.5951
-15.3724
-15.138
-14.8922
-14.6362
-14.3715
-14.1
-13.8238
-13.5445
-13.2635
-12.9814
-12.6983
-12.4138
-12.1271
-11.8376
-11.5442
-11.2463
-10.9434
-10.6357
-10.3233
-10.0068
-9.68683
-9.36414
-9.03932
-8.71287
-8.38519
-8.05654
-7.72693
-7.39638
-7.06497
-6.73277
-6.39984
-6.06639
-5.73267
-5.39893
-5.06543
-4.73256
-4.40066
-4.06997
-3.74064
-3.4129
-3.08672
-2.7622
-2.4389
-2.11698
-1.79399
-1.47454
-1.14522
-0.831341
-0.480749
-0.208109
-406.026
-537.49
-762.385
-967.067
-1117.68
-1207.81
-1235.98
-1200.52
-1102.67
-952.963
-765.297
-565.563
-392.352
-263.222
-174.342
-116.351
-79.9652
-57.3357
-43.1702
-34.3897
-28.8516
-25.307
-23.0162
-21.5082
-20.5206
-19.8731
-19.4196
-19.0879
-18.8191
-18.6276
-18.4776
-18.2814
-18.0557
-18.0077
-17.8997
-17.7321
-17.7268
-17.6213
-17.4733
-17.3305
-17.1924
-17.0502
-16.9017
-16.7466
-16.584
-16.4131
-16.2332
-16.0434
-15.8432
-15.6318
-15.4089
-15.1746
-14.9291
-14.6737
-14.4098
-14.139
-13.8635
-13.5848
-13.304
-13.0218
-12.7384
-12.4535
-12.1663
-11.8762
-11.5824
-11.2842
-10.9813
-10.6735
-10.3613
-10.0451
-9.72543
-9.40303
-9.07845
-8.75218
-8.42461
-8.09596
-7.76629
-7.43568
-7.1042
-6.77195
-6.43904
-6.10564
-5.77198
-5.4383
-5.10488
-4.77207
-4.44019
-4.10948
-3.78009
-3.4522
-3.12579
-2.80084
-2.47682
-2.15395
-1.82918
-1.508
-1.17497
-0.859122
-0.501428
-0.228788
-431.266
-548.969
-749.562
-943.566
-1088.29
-1176.76
-1205.83
-1171.71
-1076.11
-930.331
-750.604
-561.375
-395.957
-270.823
-182.7
-123.712
-85.6902
-61.5127
-46.1105
-36.4045
-30.2099
-26.2068
-23.6191
-21.8833
-20.7632
-20.047
-19.5197
-19.1464
-18.8516
-18.6397
-18.4814
-18.2763
-18.051
-18.0134
-17.9028
-17.7014
-17.7463
-17.6336
-17.4739
-17.3293
-17.1908
-17.0483
-16.8999
-16.745
-16.5827
-16.4121
-16.2324
-16.0428
-15.8428
-15.6318
-15.4094
-15.1757
-14.9311
-14.6766
-14.4136
-14.1438
-13.8691
-13.5912
-13.3109
-13.0289
-12.7455
-12.4604
-12.1731
-11.8828
-11.5889
-11.2907
-10.9879
-10.6804
-10.3686
-10.0527
-9.73349
-9.41147
-9.08719
-8.76117
-8.43378
-8.10525
-7.77571
-7.44521
-7.11385
-6.78174
-6.44898
-6.11574
-5.78226
-5.44877
-5.11555
-4.78292
-4.4512
-4.12062
-3.79132
-3.46345
-3.13694
-2.81176
-2.48721
-2.16366
-1.83752
-1.51487
-1.17888
-0.860906
-0.497272
-0.223653
-450.808
-560.183
-741.49
-925.39
-1065.06
-1151.15
-1179.95
-1147.29
-1053.99
-911.795
-738.6
-557.94
-398.897
-276.929
-189.486
-129.756
-90.4347
-64.9952
-48.5934
-38.1159
-31.3828
-27.0087
-24.1477
-22.2435
-21.0269
-20.2288
-19.6794
-19.2705
-18.9647
-18.7325
-18.5495
-18.348
-18.1162
-18.0995
-17.9858
-17.8107
-17.8054
-17.6858
-17.533
-17.3885
-17.2478
-17.1033
-16.9531
-16.7967
-16.633
-16.4612
-16.2803
-16.0898
-15.8889
-15.6772
-15.4544
-15.2204
-14.9758
-14.7215
-14.4588
-14.1894
-13.915
-13.6373
-13.357
-13.0748
-12.7911
-12.5055
-12.2177
-11.9269
-11.6326
-11.3342
-11.0312
-10.7237
-10.4119
-10.0962
-9.77711
-9.45522
-9.13107
-8.80514
-8.4778
-8.14927
-7.81968
-7.48911
-7.15769
-6.82553
-6.49276
-6.15954
-5.82608
-5.49263
-5.15944
-4.82684
-4.49513
-4.16452
-3.83517
-3.50718
-3.18047
-2.85494
-2.52977
-2.20555
-1.87808
-1.55394
-1.21514
-0.89509
-0.52547
-0.248431
-465.367
-569.05
-736.007
-911.419
-1047.58
-1131.28
-1158.86
-1127.85
-1036.83
-897.615
-729.485
-555.325
-401.23
-281.687
-194.845
-134.571
-94.2424
-67.7833
-50.5452
-39.4793
-32.2892
-27.6031
-24.5201
-22.4513
-21.1636
-20.2854
-19.6982
-19.2672
-18.9501
-18.7016
-18.51
-18.3202
-18.0648
-18.1026
-17.9795
-17.8169
-17.7861
-17.6611
-17.5195
-17.3779
-17.2383
-17.0946
-16.9452
-16.7895
-16.6267
-16.4555
-16.2753
-16.0852
-15.8849
-15.6737
-15.4514
-15.2181
-14.9743
-14.7208
-14.4589
-14.1903
-13.9166
-13.6394
-13.3595
-13.0776
-12.7939
-12.5083
-12.2204
-11.9297
-11.6354
-11.3371
-11.0343
-10.727
-10.4155
-10.1001
-9.78131
-9.45969
-9.13578
-8.81005
-8.48285
-8.15441
-7.82487
-7.49437
-7.16302
-6.83094
-6.49826
-6.16514
-5.8318
-5.49846
-5.16539
-4.83291
-4.5013
-4.17076
-3.84146
-3.51346
-3.18668
-2.86098
-2.53541
-2.21075
-1.88228
-1.55707
-1.21598
-0.894454
-0.518922
-0.241624
-475.7
-575.684
-732.329
-901.092
-1035.11
-1117.16
-1142.88
-1113.4
-1024.33
-887.254
-722.734
-553.278
-402.892
-285.212
-198.897
-138.287
-97.2279
-70.0575
-52.1774
-40.6983
-33.1642
-28.2099
-24.9638
-22.7822
-21.422
-20.4887
-19.8675
-19.4083
-19.0751
-18.8118
-18.5969
-18.4198
-18.1851
-18.1628
-18.0625
-17.9125
-17.845
-17.7215
-17.5843
-17.4413
-17.2998
-17.1545
-17.0034
-16.8463
-16.6822
-16.5099
-16.3286
-16.1377
-15.9366
-15.7249
-15.5021
-15.2686
-15.0246
-14.7711
-14.5094
-14.2409
-13.9673
-13.69
-13.4101
-13.1279
-12.844
-12.5581
-12.2699
-11.9788
-11.6843
-11.3857
-11.0828
-10.7755
-10.464
-10.1487
-9.82999
-9.50846
-9.18463
-8.85897
-8.5318
-8.20335
-7.87379
-7.54325
-7.21188
-6.87979
-6.54711
-6.214
-5.88067
-5.54735
-5.21432
-4.88185
-4.55024
-4.21969
-3.89034
-3.56227
-3.23534
-2.90941
-2.58344
-2.25831
-1.92885
-1.60277
-1.25922
-0.936972
-0.554413
-0.276905
-482.379
-580.145
-730.131
-894.19
-1027
-1108.37
-1131.67
-1103.51
-1015.92
-880.152
-717.879
-551.393
-403.418
-286.982
-201.046
-140.333
-98.8531
-71.241
-53.0592
-41.25
-33.5112
-28.4351
-25.0772
-22.7836
-21.4334
-20.4713
-19.8388
-19.3749
-19.0427
-18.7732
-18.5475
-18.3922
-18.2043
-18.1396
-18.0331
-17.9025
-17.823
-17.7061
-17.5729
-17.4313
-17.2911
-17.1467
-16.9963
-16.8398
-16.6764
-16.5047
-16.3239
-16.1333
-15.9326
-15.7211
-15.4988
-15.2656
-15.022
-14.769
-14.5077
-14.2397
-13.9665
-13.6894
-13.4096
-13.1276
-12.8437
-12.5578
-12.2696
-11.9785
-11.684
-11.3855
-11.0826
-10.7755
-10.4642
-10.149
-9.83046
-9.50907
-9.18537
-8.85982
-8.53272
-8.2043
-7.87475
-7.54424
-7.2129
-6.88083
-6.54819
-6.21513
-5.88185
-5.54859
-5.2156
-4.88319
-4.55161
-4.22109
-3.89176
-3.56368
-3.23672
-2.9107
-2.58453
-2.25913
-1.92903
-1.60259
-1.25707
-0.935108
-0.545336
-0.275041
-485.639
-582.385
-729.184
-890.82
-1022.98
-1104.47
-1125.87
-1098.5
-1011.84
-876.853
-715.849
-551.016
-404.32
-288.528
-202.753
-141.877
-100.132
-72.2303
-53.8003
-41.7678
-33.8959
-28.7401
-25.3476
-22.9108
-21.5866
-20.5934
-19.9469
-19.4769
-19.1267
-18.8574
-18.6363
-18.4615
-18.2765
-18.1997
-18.0914
-17.9712
-17.8838
-17.7653
-17.632
-17.4898
-17.3489
-17.2039
-17.0528
-16.8957
-16.7318
-16.5596
-16.3784
-16.1875
-15.9865
-15.7749
-15.5524
-15.3191
-15.0755
-14.8225
-14.5612
-14.2932
-14.02
-13.743
-13.4631
-13.181
-12.897
-12.611
-12.3227
-12.0315
-11.7369
-11.4383
-11.1355
-10.8283
-10.517
-10.2019
-9.88341
-9.56206
-9.2384
-8.9129
-8.58581
-8.25738
-7.92782
-7.5973
-7.26595
-6.93389
-6.60124
-6.26818
-5.93491
-5.60165
-5.26867
-4.93626
-4.60468
-4.27415
-3.9448
-3.61669
-3.28966
-2.96355
-2.63721
-2.31167
-1.98088
-1.65465
-1.30664
-0.987028
-0.587126
-0.328398
-270.491
-280.32
-286.77
-288.312
-280.692
-266.338
-253.598
-252.839
-484.871
-491.008
-494.336
-492.433
-483.42
-467.675
-450.874
-444.928
-792.125
-796.553
-797.839
-793.48
-783.473
-768.528
-751.81
-742.21
-1040.96
-1046.1
-1046.02
-1041.32
-1032.92
-1022.09
-1010.7
-1002.9
-1205.37
-1209.63
-1209.38
-1206.01
-1200.13
-1193.1
-1186.34
-1181.45
-1296.25
-1300.14
-1300.21
-1297.81
-1293.53
-1288.36
-1283.57
-1280.12
-1322.58
-1326.82
-1326.97
-1324.89
-1320.47
-1314.84
-1309.42
-1305.44
-1286.2
-1290.37
-1290.42
-1287.81
-1283.62
-1278.71
-1274.46
-1271.75
-1186.17
-1189.69
-1189.65
-1186.74
-1181.53
-1175.59
-1170.48
-1167.24
-1030.44
-1033.56
-1032.87
-1029.31
-1023.87
-1017.77
-1012.33
-1008.8
-820.843
-821.58
-819.464
-814.525
-807.417
-799.659
-792.967
-788.893
-578.086
-575.361
-570.608
-564.406
-557.59
-550.836
-545.332
-542.197
-368.056
-361.145
-354.098
-347.224
-340.732
-335.128
-331.044
-329.018
-219.739
-209.968
-201.059
-193.365
-187.145
-182.535
-179.68
-178.491
-128.45
-118.551
-109.822
-102.608
-97.1028
-93.4006
-91.2132
-90.4505
-77.2641
-69
-61.4997
-55.2805
-50.6161
-47.5768
-46.0032
-45.4862
-50.0272
-43.7468
-38.0034
-33.2223
-29.6665
-27.3845
-26.2289
-25.8861
-35.8277
-31.3409
-27.2188
-23.7594
-21.1762
-19.5194
-18.6847
-18.4642
-28.3626
-25.2978
-22.4695
-20.0795
-18.2833
-17.1224
-16.5222
-16.3497
-24.4067
-22.379
-20.514
-18.947
-17.7834
-17.0525
-16.6955
-16.6106
-22.2463
-20.9156
-19.6925
-18.663
-17.8941
-17.4046
-17.1548
-17.0749
-20.9681
-20.0942
-19.287
-18.6038
-18.0887
-17.7573
-17.5871
-17.5249
-20.1569
-19.5879
-19.0604
-18.6136
-18.2757
-18.0564
-17.9432
-17.8931
-19.6405
-19.2723
-18.93
-18.6396
-18.4181
-18.2704
-18.1926
-18.1486
-19.3083
-19.0683
-18.843
-18.6508
-18.5019
-18.399
-18.3449
-18.3014
-19.0611
-18.9024
-18.7524
-18.6243
-18.5237
-18.4499
-18.4129
-18.3703
-18.8627
-18.756
-18.6553
-18.5683
-18.4985
-18.4422
-18.4165
-18.3754
-18.703
-18.6292
-18.5572
-18.4946
-18.4438
-18.3976
-18.3791
-18.339
-18.5557
-18.5021
-18.4499
-18.4043
-18.3669
-18.3273
-18.3135
-18.274
-18.419
-18.3784
-18.3393
-18.3033
-18.2741
-18.2379
-18.227
-18.1878
-18.2935
-18.2589
-18.2251
-18.1926
-18.1674
-18.1324
-18.1226
-18.0833
-18.1715
-18.131
-18.0952
-18.0622
-18.0388
-18.004
-17.9949
-17.9559
-17.911
-17.9079
-17.8999
-17.8854
-17.8754
-17.8486
-17.8447
-17.808
-17.8556
-17.8296
-17.8071
-17.782
-17.7662
-17.7352
-17.7291
-17.6915
-17.7507
-17.7265
-17.7046
-17.6788
-17.6634
-17.6318
-17.6257
-17.5877
-17.645
-17.6238
-17.6043
-17.5795
-17.5653
-17.5338
-17.5281
-17.49
-17.562
-17.5358
-17.5131
-17.4856
-17.47
-17.4371
-17.4309
-17.3926
-17.4576
-17.4311
-17.409
-17.3814
-17.3664
-17.3334
-17.3274
-17.2891
-17.3428
-17.3186
-17.2989
-17.2726
-17.2589
-17.2264
-17.2208
-17.1823
-17.2174
-17.1959
-17.1793
-17.1549
-17.1432
-17.1115
-17.1067
-17.0681
-17.0877
-17.0674
-17.0528
-17.0293
-17.0188
-16.9877
-16.9833
-16.9448
-16.9515
-16.9318
-16.9185
-16.8955
-16.8859
-16.8549
-16.8507
-16.8122
-16.8073
-16.788
-16.7758
-16.7531
-16.744
-16.7132
-16.7089
-16.6705
-16.6554
-16.6362
-16.6248
-16.6021
-16.5934
-16.5627
-16.5582
-16.5199
-16.4954
-16.4764
-16.4656
-16.443
-16.4345
-16.4039
-16.3992
-16.361
-16.327
-16.3082
-16.2981
-16.2756
-16.2674
-16.2369
-16.2321
-16.1939
-16.1496
-16.131
-16.1216
-16.0994
-16.0914
-16.0612
-16.0563
-16.0182
-15.9623
-15.944
-15.9352
-15.9133
-15.9057
-15.8758
-15.8708
-15.8327
-15.7641
-15.746
-15.7377
-15.7162
-15.7089
-15.6793
-15.6743
-15.6362
-15.5539
-15.5359
-15.5281
-15.5068
-15.4997
-15.4703
-15.4654
-15.4273
-15.3312
-15.313
-15.3054
-15.2841
-15.2772
-15.2479
-15.243
-15.2049
-15.0957
-15.0772
-15.0694
-15.048
-15.0409
-15.0117
-15.0067
-14.9687
-14.8479
-14.8287
-14.8205
-14.7986
-14.7913
-14.7619
-14.7569
-14.7189
-14.589
-14.5688
-14.56
-14.5374
-14.5296
-14.5
-14.4949
-14.457
-14.3209
-14.2997
-14.29
-14.2666
-14.2582
-14.2282
-14.223
-14.1851
-14.046
-14.0237
-14.0131
-13.9888
-13.9798
-13.9493
-13.944
-13.9062
-13.7666
-13.7434
-13.7319
-13.7067
-13.6972
-13.6663
-13.6608
-13.623
-13.485
-13.461
-13.4489
-13.423
-13.4131
-13.3818
-13.3762
-13.3385
-13.2027
-13.1781
-13.1658
-13.1394
-13.1292
-13.0978
-13.0921
-13.0543
-12.9203
-12.8956
-12.8833
-12.8568
-12.8466
-12.815
-12.8092
-12.7715
-12.6379
-12.6133
-12.6013
-12.5749
-12.5649
-12.5333
-12.5276
-12.4898
-12.3548
-12.3305
-12.319
-12.2929
-12.2831
-12.2518
-12.246
-12.2082
-12.0699
-12.046
-12.035
-12.0094
-11.9999
-11.9688
-11.9631
-11.9252
-11.7819
-11.7585
-11.748
-11.7227
-11.7136
-11.6827
-11.6769
-11.6391
-11.4897
-11.4666
-11.4565
-11.4315
-11.4226
-11.3919
-11.3861
-11.3483
-11.1923
-11.1695
-11.1596
-11.1348
-11.126
-11.0953
-11.0895
-11.0517
-10.8894
-10.8666
-10.8568
-10.832
-10.8231
-10.7925
-10.7865
-10.7487
-10.5811
-10.5581
-10.548
-10.5231
-10.514
-10.4834
-10.4773
-10.4395
-10.2676
-10.2443
-10.2339
-10.2087
-10.1993
-10.1686
-10.1624
-10.1247
-9.94981
-9.92606
-9.91525
-9.88979
-9.88007
-9.84924
-9.84287
-9.80517
-9.62848
-9.60433
-9.59311
-9.56732
-9.55728
-9.5263
-9.51981
-9.48212
-9.30451
-9.28
-9.26841
-9.24232
-9.23199
-9.20087
-9.19428
-9.15659
-8.97865
-8.95384
-8.94195
-8.91561
-8.90504
-8.87379
-8.86712
-8.82943
-8.65144
-8.62642
-8.61429
-8.58778
-8.57704
-8.5457
-8.53896
-8.50126
-8.32324
-8.29809
-8.28581
-8.25919
-8.24832
-8.21692
-8.21014
-8.17242
-7.99425
-7.96902
-7.95665
-7.92997
-7.91903
-7.88759
-7.88077
-7.84304
-7.66445
-7.6392
-7.62678
-7.60007
-7.58908
-7.55762
-7.55077
-7.51303
-7.33378
-7.30853
-7.29607
-7.26936
-7.25832
-7.22686
-7.21998
-7.18222
-7.00223
-6.97697
-6.96445
-6.93773
-6.92664
-6.89516
-6.88824
-6.85047
-6.66979
-6.64449
-6.63189
-6.60513
-6.59396
-6.56246
-6.5555
-6.51772
-6.33652
-6.31115
-6.29843
-6.2716
-6.26033
-6.2288
-6.22179
-6.18401
-6.00259
-5.97712
-5.96425
-5.93733
-5.92593
-5.89435
-5.88729
-5.8495
-5.66831
-5.64271
-5.62965
-5.6026
-5.59105
-5.55941
-5.55229
-5.51451
-5.33397
-5.30822
-5.29495
-5.26776
-5.25604
-5.22434
-5.21714
-5.17936
-4.99983
-4.97394
-4.96046
-4.93313
-4.92125
-4.88949
-4.88222
-4.84445
-4.6664
-4.64036
-4.62665
-4.59919
-4.58715
-4.55534
-4.548
-4.51024
-4.33402
-4.30789
-4.29397
-4.2664
-4.25421
-4.22235
-4.21495
-4.17719
-4.00298
-3.97678
-3.9627
-3.93506
-3.92275
-3.89086
-3.8834
-3.84566
-3.67344
-3.64726
-3.63308
-3.60542
-3.59304
-3.56114
-3.55365
-3.51591
-3.34578
-3.31963
-3.30541
-3.27778
-3.26537
-3.2335
-3.22599
-3.18827
-3.02
-2.99406
-2.97991
-2.95242
-2.94006
-2.90827
-2.90078
-2.86308
-2.69648
-2.6708
-2.65685
-2.6296
-2.61738
-2.58575
-2.57832
-2.54065
-2.37516
-2.35012
-2.33666
-2.30996
-2.29816
-2.26687
-2.25962
-2.22204
-2.05604
-2.03178
-2.01901
-1.99289
-1.98149
-1.95048
-1.94332
-1.90578
-1.73912
-1.71663
-1.7055
-1.68115
-1.67124
-1.64139
-1.63492
-1.59757
-1.42412
-1.40283
-1.39275
-1.36895
-1.35922
-1.32936
-1.32276
-1.28551
-1.11004
-1.09348
-1.08813
-1.06957
-1.0644
-1.03795
-1.03314
-0.996025
-0.796455
-0.779419
-0.772984
-0.751723
-0.743525
-0.714705
-0.708666
-0.672099
-0.479323
-0.474292
-0.481527
-0.475735
-0.481539
-0.462797
-0.461513
-0.423798
-0.170148
-0.144903
-0.127196
-0.0957805
-0.0801806
-0.0502481
-0.0476155
-0.0194983
)
;

boundaryField
{
    frontAndBack
    {
        type            empty;
    }
    inlet
    {
        type            zeroGradient;
    }
    outlet
    {
        type            fixedValue;
        value           uniform 0;
    }
    walls
    {
        type            zeroGradient;
    }
}


// ************************************************************************* //
