/*--------------------------------*- C++ -*----------------------------------*\
| =========                 |                                                 |
| \\      /  F ield         | OpenFOAM: The Open Source CFD Toolbox           |
|  \\    /   O peration     | Version:  v2012                                 |
|   \\  /    A nd           | Website:  www.openfoam.com                      |
|    \\/     M anipulation  |                                                 |
\*---------------------------------------------------------------------------*/
FoamFile
{
    version     2.0;
    format      ascii;
    class       Cloud<basicKinematicParcel>;
    location    "0.028/lagrangian/kinematicCloud";
    object      positions;
}
// * * * * * * * * * * * * * * * * * * * * * * * * * * * * * * * * * * * * * //

31
(
(0.339365 0.00436029 0.03) 322
(0.326448 0.0158728 0.03) 821
(0.313741 0.0237894 0.03) 1120
(0.29838 0.00949979 0.03) 519
(0.283681 0.0307436 0.03) 1418
(0.270208 0.0242865 0.03) 1118
(0.230561 0.000684816 0.03) 15
(0.242572 0.0347974 0.03) 1616
(0.227676 0.0345063 0.03) 1615
(0.214138 0.0128629 0.03) 714
(0.211444 0.0165674 0.03) 814
(0.198533 0.00750589 0.03) 413
(0.181027 0.038623 0.03) 1812
(0.166645 0.00131849 0.03) 111
(0.155815 0.0381356 0.03) 1810
(0.143058 0.0188231 0.03) 909
(0.131273 0.00405085 0.03) 308
(0.117404 0.0375729 0.03) 1807
(0.104383 0.00810039 0.03) 506
(0.103908 0.0346735 0.03) 1606
(0.0908505 0.0289215 0.03) 1306
(0.0788582 0.0369475 0.03) 1705
(0.0654372 0.0297013 0.03) 1304
(0.0521128 0.00624792 0.03) 403
(0.0500207 0.0148225 0.03) 803
(0.038785 0.0290422 0.03) 1302
(0.0269706 0.00476748 0.03) 301
(0.0270305 0.0322353 0.03) 1401
(0.0170784 0.00178841 0.03) 101
(0.014914 0.0331018 0.03) 1500
(0.0045249 7.80327e-05 0.03) 0
)


// ************************************************************************* //
