/*--------------------------------*- C++ -*----------------------------------*\
| =========                 |                                                 |
| \\      /  F ield         | OpenFOAM: The Open Source CFD Toolbox           |
|  \\    /   O peration     | Version:  v2012                                 |
|   \\  /    A nd           | Website:  www.openfoam.com                      |
|    \\/     M anipulation  |                                                 |
\*---------------------------------------------------------------------------*/
FoamFile
{
    version     2.0;
    format      ascii;
    class       surfaceScalarField;
    location    "0.395";
    object      phi.air;
}
// * * * * * * * * * * * * * * * * * * * * * * * * * * * * * * * * * * * * * //

dimensions      [0 3 -1 0 0 0 0];
oriented        oriented;


internalField   nonuniform List<scalar> 
3672
(
0.0064006
7.14517e-06
0.00639136
8.99623e-06
0.00638142
9.68684e-06
0.00637056
1.06126e-05
0.0063586
1.17119e-05
0.00634559
1.27594e-05
0.00633129
1.40467e-05
0.00631578
1.52582e-05
0.00629637
1.91628e-05
2.80585e-05
0.00626806
0.00641089
4.26004e-06
0.00641309
6.79313e-06
0.00641555
7.2261e-06
0.00641823
7.93235e-06
0.00642104
8.90607e-06
0.00642399
9.8076e-06
0.00642694
1.10891e-05
0.00642967
1.25285e-05
0.00643129
1.75455e-05
2.48537e-05
0.0064345
0.00640988
2.38202e-06
0.00641223
4.44505e-06
0.00641473
4.71802e-06
0.00641752
5.14462e-06
0.00642056
5.87155e-06
0.00642375
6.60995e-06
0.00642716
7.68595e-06
0.00643042
9.26281e-06
0.0064346
1.3366e-05
1.8425e-05
0.00644103
0.00640936
1.0263e-06
0.00641175
2.05189e-06
0.00641429
2.17918e-06
0.00641704
2.39546e-06
0.00642008
2.82902e-06
0.00642335
3.34014e-06
0.00642686
4.1794e-06
0.00643058
5.54008e-06
0.00643542
8.52209e-06
1.19254e-05
0.00644192
0.00640916
-1.33129e-07
0.00641153
-3.17988e-07
0.00641408
-3.68049e-07
0.0064168
-3.30659e-07
0.00641985
-2.20073e-07
0.00642318
1.20082e-08
0.0064268
5.59746e-07
0.0064308
1.54158e-06
0.00643581
3.50707e-06
5.3565e-06
0.00644238
0.00640918
-1.30997e-06
0.00641156
-2.70308e-06
0.00641412
-2.9249e-06
0.00641686
-3.07022e-06
0.00641993
-3.29409e-06
0.00642331
-3.36794e-06
0.00642702
-3.15054e-06
0.00643117
-2.6108e-06
0.00643623
-1.55005e-06
-9.18193e-07
0.00644251
0.00640941
-2.72028e-06
0.00641185
-5.1427e-06
0.00641442
-5.49271e-06
0.00641721
-5.85951e-06
0.00642032
-6.40729e-06
0.00642374
-6.78915e-06
0.00642751
-6.92237e-06
0.00643175
-6.8458e-06
0.00643674
-6.54489e-06
-6.74829e-06
0.00644257
0.00640999
-4.70719e-06
0.0064124
-7.5559e-06
0.00641495
-8.04445e-06
0.00641781
-8.71403e-06
0.00642095
-9.55364e-06
0.0064244
-1.02353e-05
0.00642821
-1.0735e-05
0.00643249
-1.11202e-05
0.00643739
-1.14533e-05
-1.21458e-05
0.00644279
0.00641105
-7.76188e-06
0.00641334
-9.83865e-06
0.00641585
-1.05521e-05
0.00641858
-1.14513e-05
0.00642152
-1.24901e-05
0.00642469
-1.34058e-05
0.00642817
-1.42168e-05
0.00643204
-1.49858e-05
0.00643631
-1.57293e-05
-1.68101e-05
0.00644098
0.00640049
0.0063909
0.0063806
0.0063694
0.00635716
0.006344
0.00633004
0.0063153
0.00629982
0.00628326
0.00618912
0.000122524
-4.35879e-05
0.00598884
8.2613e-05
0.000117663
0.00572442
-0.000168606
0.000433026
0.00550756
-0.000541274
0.000758141
0.00535911
-0.000908017
0.00105647
0.00525264
-0.00120371
0.00131018
0.0051718
-0.00137929
0.00146013
0.00510268
-0.00142731
0.00149643
0.00503456
-0.00137478
0.00144289
0.00496659
-0.00125504
0.00132302
0.00489901
-0.00110289
0.00117047
0.00483231
-0.00094553
0.00101223
0.00476697
-0.000798837
0.00086418
0.00470298
-0.00067041
0.000734396
0.004641
-0.000564246
0.000626225
0.00458133
-0.000478603
0.000538274
0.00452417
-0.000409536
0.000466699
0.00447019
-0.000354328
0.000408306
0.00442017
-0.000311436
0.000361456
0.00437443
-0.00027833
0.000324069
0.00433261
-0.000251347
0.000293163
0.00429458
-0.000228376
0.000266413
0.00426045
-0.000209459
0.000243591
0.00423025
-0.000194448
0.000224646
0.00420355
-0.000182073
0.000208767
0.00418014
-0.000170985
0.0001944
0.00416004
-0.000160938
0.000181036
0.00414287
-0.000152124
0.000169292
0.00412818
-0.000144624
0.000159314
0.00411559
-0.000137993
0.000150589
0.0041047
-0.000131813
0.000142696
0.00409527
-0.000125925
0.000135354
0.00408703
-0.000120375
0.000128615
0.00407972
-0.000115163
0.000122473
0.00407331
-0.000110464
0.000116877
0.00406776
-0.000106212
0.000111764
0.00406299
-0.000102237
0.000107005
0.00405895
-9.84415e-05
0.000102488
0.00405556
-9.48722e-05
9.82538e-05
0.00405279
-9.15846e-05
9.43558e-05
0.0040506
-8.86236e-05
9.08179e-05
0.00404893
-8.59232e-05
8.75962e-05
0.00404768
-8.33533e-05
8.45988e-05
0.00404678
-8.08166e-05
8.17168e-05
0.00404618
-7.8326e-05
7.89209e-05
0.00404587
-7.59663e-05
7.628e-05
0.00404582
-7.38264e-05
7.38777e-05
0.00404602
-7.18517e-05
7.16531e-05
0.00404646
-6.99591e-05
6.95214e-05
0.00404711
-6.81028e-05
6.74443e-05
0.00404797
-6.63061e-05
6.54479e-05
0.00404901
-6.46136e-05
6.35725e-05
0.00405023
-6.30568e-05
6.18389e-05
0.00405162
-6.16085e-05
6.02192e-05
0.00405317
-6.022e-05
5.86712e-05
0.00405486
-5.88637e-05
5.71703e-05
0.00405668
-5.75389e-05
5.57219e-05
0.0040586
-5.62547e-05
5.43344e-05
0.00406061
-5.50446e-05
5.30308e-05
0.00406272
-5.39149e-05
5.18103e-05
0.00406491
-5.28441e-05
5.06551e-05
0.00406717
-5.17936e-05
4.95299e-05
0.0040695
-5.0774e-05
4.84432e-05
0.00407189
-4.97862e-05
4.73972e-05
0.00407433
-4.88569e-05
4.64144e-05
0.00407682
-4.79644e-05
4.54767e-05
0.00407935
-4.71164e-05
4.45866e-05
0.00408192
-4.62937e-05
4.37261e-05
0.00408452
-4.54967e-05
4.28973e-05
0.00408714
-4.47139e-05
4.20901e-05
0.00408978
-4.39587e-05
4.13166e-05
0.00409244
-4.32281e-05
4.05719e-05
0.00409511
-4.25292e-05
3.98623e-05
0.00409778
-4.18482e-05
3.91745e-05
0.00410046
-4.11854e-05
3.85088e-05
0.00410313
-4.05262e-05
3.78547e-05
0.00410579
-3.98832e-05
3.722e-05
0.00410844
-3.9248e-05
3.6598e-05
0.00411108
-3.86347e-05
3.59997e-05
0.00411369
-3.80264e-05
3.54105e-05
0.00411629
-3.74331e-05
3.48389e-05
0.00411886
-3.68374e-05
3.42686e-05
0.0041214
-3.62557e-05
3.37146e-05
0.00412391
-3.56718e-05
3.31606e-05
0.00412639
-3.51042e-05
3.26236e-05
0.00412884
-3.45351e-05
3.20871e-05
0.00413125
-3.39824e-05
3.15674e-05
0.00413363
-3.34287e-05
3.10486e-05
0.00413598
-3.28939e-05
3.05486e-05
0.00413829
-3.23626e-05
3.00531e-05
0.00414056
-3.18589e-05
2.95845e-05
0.0041428
-3.13637e-05
2.91245e-05
0.00414501
-3.09198e-05
2.87135e-05
0.00414718
-3.04846e-05
2.83111e-05
0.00414933
-3.01957e-05
2.80477e-05
0.00415145
-2.98774e-05
2.77543e-05
0.00415358
-3.00393e-05
2.79134e-05
0.00415568
-2.99106e-05
2.78109e-05
0.00415787
-3.12141e-05
2.90192e-05
-3.11763e-05
2.92144e-05
0.00647836
7.86561e-05
0.00651174
4.92388e-05
0.00650174
-0.000158607
0.0064363
-0.00047583
0.00632498
-0.000796698
0.00617908
-0.00105782
0.00601661
-0.00121682
0.00585465
-0.00126535
0.00570347
-0.00122359
0.00556868
-0.00112025
0.00545268
-0.000986892
0.0053544
-0.000847251
0.00527088
-0.000715319
0.00519899
-0.000598513
0.00513576
-0.000501023
0.00507831
-0.000421152
0.00502391
-0.000355136
0.00497095
-0.000301364
0.00491905
-0.000259533
0.00486809
-0.000227375
0.00481805
-0.000201303
0.00476948
-0.000179807
0.00472307
-0.000163049
0.00467932
-0.0001507
0.00463835
-0.0001411
0.00460006
-0.000132696
0.00456461
-0.000125486
0.00453222
-0.00011974
0.00450285
-0.000115248
0.00447622
-0.000111367
0.00445198
-0.000107572
0.0044299
-0.000103842
0.00440985
-0.000100325
0.00439175
-9.7068e-05
0.00437543
-9.41384e-05
0.00436067
-9.1461e-05
0.00434733
-8.88947e-05
0.00433528
-8.63882e-05
0.0043244
-8.39978e-05
0.00431462
-8.17978e-05
0.00430578
-7.97826e-05
0.0042977
-7.78504e-05
0.00429032
-7.59671e-05
0.00428358
-7.40797e-05
0.00427745
-7.21973e-05
0.0042719
-7.04147e-05
0.00426689
-6.88213e-05
0.0042624
-6.73586e-05
0.00425838
-6.59388e-05
0.0042548
-6.45253e-05
0.00425163
-6.31328e-05
0.00424883
-6.18114e-05
0.00424638
-6.06077e-05
0.00424426
-5.94864e-05
0.00424244
-5.84069e-05
0.00424091
-5.73278e-05
0.0042396
-5.6228e-05
0.00423848
-5.51421e-05
0.00423757
-5.41269e-05
0.00423684
-5.31878e-05
0.00423629
-5.2295e-05
0.00423591
-5.14115e-05
0.00423568
-5.05483e-05
0.00423559
-4.96946e-05
0.00423562
-4.88832e-05
0.00423575
-4.80987e-05
0.00423599
-4.73546e-05
0.00423632
-4.66267e-05
0.00423674
-4.59145e-05
0.00423723
-4.52027e-05
0.00423778
-4.45094e-05
0.00423838
-4.38309e-05
0.00423903
-4.31784e-05
0.00423972
-4.25359e-05
0.00424044
-4.19043e-05
0.00424118
-4.12683e-05
0.00424194
-4.06423e-05
0.00424271
-4.00188e-05
0.00424349
-3.94134e-05
0.00424427
-3.8809e-05
0.00424506
-3.82162e-05
0.00424583
-3.76165e-05
0.00424661
-3.70288e-05
0.00424737
-3.64366e-05
0.00424813
-3.58599e-05
0.00424887
-3.52801e-05
0.00424961
-3.47161e-05
0.00425033
-3.41496e-05
0.00425104
-3.36019e-05
0.00425173
-3.30568e-05
0.00425241
-3.25396e-05
0.00425308
-3.20306e-05
0.00425373
-3.15738e-05
0.00425437
-3.11258e-05
0.004255
-3.08252e-05
0.00425563
-3.05006e-05
0.00425624
-3.06509e-05
0.00425686
-3.05287e-05
0.00425752
-3.18829e-05
-3.1734e-05
0.00647001
4.96757e-05
0.00650349
1.57557e-05
0.00650081
-0.000155926
0.00644848
-0.000423501
0.00634924
-0.000697458
0.00621162
-0.000920193
0.00605284
-0.00105805
0.0058907
-0.0011032
0.00573784
-0.00107074
0.00560288
-0.000985292
0.00548897
-0.00087298
0.00539519
-0.000753471
0.00531883
-0.000638963
0.00525748
-0.000537163
0.00520842
-0.000451966
0.00516853
-0.000381255
0.00513505
-0.000321659
0.00510652
-0.000272834
0.00508201
-0.00023502
0.00505997
-0.000205343
0.00503873
-0.000180057
0.00501727
-0.00015835
0.00499525
-0.000141034
0.00497255
-0.000127992
0.00494882
-0.000117372
0.00492373
-0.000107605
0.00489713
-9.88867e-05
0.00486934
-9.19517e-05
0.00484087
-8.67781e-05
0.00481219
-8.2689e-05
0.00478371
-7.90942e-05
0.00475569
-7.58193e-05
0.00472856
-7.31926e-05
0.00470287
-7.13795e-05
0.0046788
-7.00662e-05
0.00465631
-6.89726e-05
0.00463534
-6.79231e-05
0.00461583
-6.68766e-05
0.00459773
-6.58967e-05
0.00458098
-6.50474e-05
0.00456547
-6.42729e-05
0.00455106
-6.34432e-05
0.00453764
-6.25531e-05
0.00452516
-6.15993e-05
0.00451358
-6.06113e-05
0.00450286
-5.9697e-05
0.00449295
-5.89114e-05
0.00448378
-5.81894e-05
0.00447527
-5.74317e-05
0.00446735
-5.65971e-05
0.00445996
-5.57437e-05
0.00445309
-5.49484e-05
0.00444673
-5.42414e-05
0.00444082
-5.35807e-05
0.00443536
-5.29417e-05
0.0044303
-5.22753e-05
0.00442563
-5.15551e-05
0.00442131
-5.08225e-05
0.00441733
-5.01424e-05
0.00441366
-4.95169e-05
0.00441028
-4.89172e-05
0.00440717
-4.82999e-05
0.00440427
-4.7647e-05
0.00440155
-4.69743e-05
0.00439899
-4.63291e-05
0.0043966
-4.57046e-05
0.00439435
-4.51114e-05
0.00439224
-4.45172e-05
0.00439025
-4.39238e-05
0.00438836
-4.33121e-05
0.00438656
-4.27076e-05
0.00438484
-4.21055e-05
0.00438318
-4.15215e-05
0.00438158
-4.09373e-05
0.00438003
-4.0356e-05
0.00437853
-3.97616e-05
0.00437706
-3.9172e-05
0.00437562
-3.85793e-05
0.0043742
-3.80015e-05
0.00437282
-3.74203e-05
0.00437145
-3.68495e-05
0.0043701
-3.62689e-05
0.00436877
-3.56991e-05
0.00436746
-3.51237e-05
0.00436616
-3.45633e-05
0.00436488
-3.39992e-05
0.00436362
-3.34507e-05
0.00436236
-3.28992e-05
0.00436113
-3.23664e-05
0.00435991
-3.18362e-05
0.0043587
-3.13336e-05
0.00435751
-3.08398e-05
0.00435633
-3.03962e-05
0.00435517
-2.99638e-05
0.00435402
-2.96739e-05
0.00435289
-2.93653e-05
0.00435176
-2.95207e-05
0.00435065
-2.94239e-05
0.0043495
-3.07294e-05
-3.06857e-05
0.0064645
2.71008e-05
0.00648861
-8.35572e-06
0.00648172
-0.000149035
0.00642849
-0.000370269
0.00633104
-0.000600009
0.00619798
-0.000787141
0.00604461
-0.000904677
0.00588733
-0.000945925
0.00573858
-0.000921986
0.00560643
-0.000853136
0.00549383
-0.000760387
0.0054
-0.000659642
0.00532309
-0.000562047
0.00526136
-0.000475437
0.00521201
-0.000402614
0.00517163
-0.000340873
0.00513816
-0.000288186
0.00511119
-0.000245868
0.00508992
-0.000213745
0.00507224
-0.000187669
0.00505646
-0.000164271
0.00504265
-0.000144542
0.00503158
-0.000129968
0.00502259
-0.000118995
0.00501409
-0.000108873
0.0050055
-9.9018e-05
0.00499721
-9.05953e-05
0.00498933
-8.40728e-05
0.00498143
-7.88739e-05
0.00497302
-7.42873e-05
0.00496367
-6.97443e-05
0.00495309
-6.52315e-05
0.00494125
-6.13561e-05
0.00492831
-5.84382e-05
0.0049144
-5.61529e-05
0.00489952
-5.40991e-05
0.0048837
-5.21025e-05
0.00486704
-5.02156e-05
0.00484977
-4.863e-05
0.0048322
-4.74791e-05
0.00481469
-4.67565e-05
0.0047975
-4.6253e-05
0.00478072
-4.5775e-05
0.00476445
-4.53246e-05
0.00474883
-4.49998e-05
0.00473401
-4.48694e-05
0.00471998
-4.48802e-05
0.00470668
-4.4896e-05
0.00469407
-4.48249e-05
0.00468214
-4.46613e-05
0.00467086
-4.44632e-05
0.0046602
-4.42921e-05
0.00465011
-4.41443e-05
0.00464052
-4.39953e-05
0.00463141
-4.38279e-05
0.00462274
-4.36071e-05
0.00461453
-4.3346e-05
0.00460678
-4.30699e-05
0.00459944
-4.28107e-05
0.00459249
-4.25667e-05
0.00458589
-4.23128e-05
0.00457961
-4.20191e-05
0.00457362
-4.16601e-05
0.0045679
-4.12518e-05
0.00456241
-4.08367e-05
0.00455712
-4.04206e-05
0.00455202
-4.00071e-05
0.00454707
-3.957e-05
0.00454226
-3.9112e-05
0.00453756
-3.86144e-05
0.00453297
-3.81109e-05
0.00452846
-3.75979e-05
0.00452403
-3.70953e-05
0.00451968
-3.65836e-05
0.00451539
-3.60697e-05
0.00451117
-3.55364e-05
0.004507
-3.50067e-05
0.00450289
-3.44717e-05
0.00449884
-3.39497e-05
0.00449485
-3.34254e-05
0.00449091
-3.29095e-05
0.00448702
-3.23844e-05
0.00448319
-3.18684e-05
0.00447942
-3.13474e-05
0.00447569
-3.08414e-05
0.00447203
-3.03322e-05
0.00446841
-2.98388e-05
0.00446486
-2.93425e-05
0.00446136
-2.88656e-05
0.00445791
-2.8391e-05
0.00445452
-2.79438e-05
0.00445119
-2.75063e-05
0.00444791
-2.71153e-05
0.00444468
-2.67388e-05
0.0044415
-2.64913e-05
0.00443838
-2.62401e-05
0.00443525
-2.63966e-05
0.00443222
-2.63883e-05
0.00442904
-2.75547e-05
-2.78753e-05
0.00645963
9.8524e-06
0.00647551
-2.42333e-05
0.00646423
-0.000137754
0.00641073
-0.000316772
0.00631603
-0.000505312
0.00618842
-0.000659531
0.00604149
-0.000757745
0.00588976
-0.000794192
0.00574496
-0.000777183
0.00561508
-0.000723261
0.00550316
-0.00064846
0.00540893
-0.000565419
0.00533155
-0.00048466
0.00526942
-0.000413312
0.00521904
-0.000352228
0.00517713
-0.000298966
0.00514291
-0.000253965
0.00511616
-0.000219122
0.00509466
-0.000192238
0.00507564
-0.000168651
0.00505882
-0.000147452
0.00504547
-0.000131198
0.0050353
-0.000119789
0.00502633
-0.00011003
0.00501753
-0.000100077
0.0050096
-9.10835e-05
0.00500337
-8.43692e-05
0.00499868
-7.9379e-05
0.00499461
-7.48033e-05
0.00499038
-7.00613e-05
0.0049861
-6.5463e-05
0.00498246
-6.15923e-05
0.00497965
-5.85446e-05
0.00497719
-5.59814e-05
0.00497463
-5.35935e-05
0.00497169
-5.11507e-05
0.00496831
-4.87251e-05
0.00496464
-4.65468e-05
0.00496073
-4.47177e-05
0.00495646
-4.32139e-05
0.00495163
-4.19278e-05
0.00494603
-4.06455e-05
0.00493953
-3.92815e-05
0.00493217
-3.79632e-05
0.00492404
-3.68693e-05
0.00491525
-3.60833e-05
0.00490589
-3.55116e-05
0.00489596
-3.49726e-05
0.00488552
-3.43864e-05
0.00487468
-3.38178e-05
0.00486358
-3.33654e-05
0.00485237
-3.30822e-05
0.00484117
-3.29408e-05
0.00483004
-3.28699e-05
0.00481899
-3.27749e-05
0.00480804
-3.26559e-05
0.00479725
-3.2554e-05
0.00478667
-3.24901e-05
0.00477631
-3.24491e-05
0.00476615
-3.24116e-05
0.00475619
-3.23524e-05
0.00474643
-3.22611e-05
0.00473691
-3.21361e-05
0.00472762
-3.19659e-05
0.00471854
-3.17577e-05
0.00470965
-3.15276e-05
0.00470092
-3.12786e-05
0.00469236
-3.10032e-05
0.00468394
-3.06952e-05
0.00467566
-3.0339e-05
0.00466752
-2.997e-05
0.00465951
-2.95851e-05
0.00465162
-2.92055e-05
0.00464385
-2.88142e-05
0.0046362
-2.8418e-05
0.00462866
-2.80014e-05
0.00462125
-2.75886e-05
0.00461394
-2.71685e-05
0.00460676
-2.6762e-05
0.00459968
-2.63516e-05
0.00459272
-2.59497e-05
0.00458587
-2.55377e-05
0.00457914
-2.51351e-05
0.00457252
-2.47302e-05
0.00456602
-2.43392e-05
0.00455964
-2.39475e-05
0.00455337
-2.35704e-05
0.00454722
-2.31926e-05
0.00454119
-2.28329e-05
0.00453527
-2.24769e-05
0.00452947
-2.21463e-05
0.0045238
-2.18266e-05
0.00451823
-2.15464e-05
0.00451277
-2.1286e-05
0.00450741
-2.11285e-05
0.00450217
-2.09949e-05
0.00449693
-2.11596e-05
0.00449186
-2.13205e-05
0.00448653
-2.22256e-05
-2.32472e-05
0.00645566
-3.30157e-06
0.00646519
-3.37649e-05
0.00645042
-0.000122979
0.00639697
-0.000263323
0.00630461
-0.00041295
0.00618117
-0.000536091
0.00603902
-0.000615594
0.0058915
-0.00064668
0.00574998
-0.000635661
0.00562203
-0.00059531
0.00551057
-0.000536996
0.00541623
-0.000471086
0.00533877
-0.000407199
0.00527586
-0.000350403
0.00522375
-0.000300118
0.00518046
-0.000255677
0.00514606
-0.000219566
0.00511912
-0.00019218
0.00509602
-0.000169132
0.00507522
-0.000147853
0.00505837
-0.000130604
0.00504582
-0.000118647
0.00503517
-0.000109136
0.0050246
-9.94675e-05
0.00501487
-9.03456e-05
0.00500728
-8.34896e-05
0.00500157
-7.86592e-05
0.00499656
-7.43677e-05
0.00499137
-6.96203e-05
0.00498624
-6.49253e-05
0.00498201
-6.12326e-05
0.00497888
-5.84622e-05
0.00497633
-5.59976e-05
0.00497381
-5.34561e-05
0.00497106
-5.08451e-05
0.00496843
-4.85195e-05
0.00496635
-4.66533e-05
0.00496477
-4.49609e-05
0.00496336
-4.33065e-05
0.00496187
-4.17276e-05
0.0049602
-4.02603e-05
0.0049585
-3.89452e-05
0.00495693
-3.77066e-05
0.00495541
-3.64435e-05
0.00495381
-3.52724e-05
0.004952
-3.42756e-05
0.00494986
-3.3369e-05
0.00494732
-3.24359e-05
0.00494439
-3.14517e-05
0.00494106
-3.0485e-05
0.00493729
-2.95958e-05
0.004933
-2.87957e-05
0.00492811
-2.80477e-05
0.00492254
-2.7306e-05
0.0049163
-2.65294e-05
0.0049094
-2.57552e-05
0.00490188
-2.50353e-05
0.00489377
-2.43864e-05
0.0048851
-2.37778e-05
0.00487588
-2.31918e-05
0.00486616
-2.26245e-05
0.00485598
-2.20889e-05
0.00484544
-2.15941e-05
0.00483461
-2.11338e-05
0.00482355
-2.07012e-05
0.00481233
-2.02999e-05
0.00480097
-1.99276e-05
0.00478955
-1.95802e-05
0.0047781
-1.9239e-05
0.00476667
-1.89158e-05
0.0047553
-1.86026e-05
0.00474403
-1.83096e-05
0.00473285
-1.80303e-05
0.0047218
-1.77607e-05
0.00471089
-1.75041e-05
0.00470013
-1.72431e-05
0.00468953
-1.69939e-05
0.00467911
-1.67406e-05
0.00466885
-1.65089e-05
0.00465878
-1.62774e-05
0.00464889
-1.6061e-05
0.0046392
-1.58434e-05
0.00462969
-1.56348e-05
0.0046204
-1.54312e-05
0.00461129
-1.52381e-05
0.0046024
-1.50517e-05
0.0045937
-1.48751e-05
0.00458522
-1.4704e-05
0.00457693
-1.45438e-05
0.00456884
-1.43915e-05
0.00456095
-1.42553e-05
0.00455325
-1.41294e-05
0.00454574
-1.4031e-05
0.00453841
-1.39554e-05
0.00453122
-1.39427e-05
0.00452421
-1.39885e-05
0.00451723
-1.41738e-05
0.00451049
-1.45793e-05
0.00450335
-1.5087e-05
-1.71159e-05
0.00645273
-1.34585e-05
0.00645752
-3.85542e-05
0.00643989
-0.000105347
0.00638638
-0.000209818
0.00629583
-0.000322398
0.00617559
-0.00041585
0.00603717
-0.000477172
0.00589295
-0.000502461
0.00575375
-0.000496458
0.00562663
-0.000468196
0.00551467
-0.000425029
0.00541944
-0.000375858
0.00534086
-0.000328622
0.00527567
-0.000285209
0.00522085
-0.000245302
0.00517658
-0.000211411
0.00514187
-0.000184856
0.00511256
-0.000162867
0.00508637
-0.000142945
0.00506477
-0.000126245
0.0050481
-0.000113935
0.00503375
-0.000104306
0.00501984
-9.5223e-05
0.00500713
-8.67537e-05
0.00499679
-8.00078e-05
0.00498832
-7.50213e-05
0.00498036
-7.07017e-05
0.0049722
-6.62086e-05
0.00496437
-6.17823e-05
0.00495759
-5.81488e-05
0.00495171
-5.53578e-05
0.00494615
-5.28927e-05
0.00494042
-5.02681e-05
0.00493451
-4.75493e-05
0.00492883
-4.51637e-05
0.00492356
-4.32543e-05
0.00491851
-4.15976e-05
0.00491345
-3.99033e-05
0.00490823
-3.80914e-05
0.00490284
-3.63347e-05
0.00489742
-3.48346e-05
0.00489203
-3.35635e-05
0.00488665
-3.23256e-05
0.00488123
-3.10226e-05
0.0048757
-2.974e-05
0.00486999
-2.85709e-05
0.00486412
-2.74936e-05
0.00485813
-2.64503e-05
0.0048521
-2.54144e-05
0.00484602
-2.4413e-05
0.00483989
-2.34609e-05
0.00483365
-2.25532e-05
0.00482726
-2.16648e-05
0.00482074
-2.07852e-05
0.00481412
-1.99031e-05
0.00480741
-1.90521e-05
0.00480063
-1.82514e-05
0.00479373
-1.74882e-05
0.00478667
-1.67189e-05
0.00477942
-1.59429e-05
0.00477198
-1.51789e-05
0.00476434
-1.44541e-05
0.00475652
-1.37715e-05
0.0047485
-1.31168e-05
0.00474028
-1.2474e-05
0.00473183
-1.18505e-05
0.00472316
-1.12583e-05
0.00471429
-1.07073e-05
0.00470524
-1.01906e-05
0.00469603
-9.71308e-06
0.0046867
-9.27336e-06
0.00467726
-8.86855e-06
0.00466773
-8.50009e-06
0.00465814
-8.16577e-06
0.0046485
-7.86791e-06
0.00463886
-7.60357e-06
0.00462924
-7.36709e-06
0.00461966
-7.16143e-06
0.00461013
-6.98417e-06
0.00460069
-6.83802e-06
0.00459135
-6.71569e-06
0.00458212
-6.61698e-06
0.00457302
-6.53684e-06
0.00456407
-6.47705e-06
0.00455527
-6.43437e-06
0.00454662
-6.41022e-06
0.00453815
-6.39946e-06
0.00452985
-6.40197e-06
0.00452172
-6.41392e-06
0.00451376
-6.43734e-06
0.00450598
-6.47036e-06
0.00449836
-6.5126e-06
0.0044909
-6.57094e-06
0.0044836
-6.65274e-06
0.00447641
-6.75762e-06
0.00446938
-6.95094e-06
0.00446232
-7.12122e-06
0.00445547
-7.72735e-06
0.00444816
-7.77503e-06
-1.07117e-05
0.0064508
-2.14626e-05
0.00645216
-3.99198e-05
0.00643219
-8.53722e-05
0.00637824
-0.000155876
0.00628837
-0.000232521
0.0061693
-0.000296784
0.00603182
-0.000339691
0.00588774
-0.000358382
0.00574739
-0.000356113
0.00561734
-0.000338145
0.0055021
-0.000309785
0.00540377
-0.000277532
0.00532015
-0.000245001
0.00524887
-0.000213924
0.00518976
-0.000186197
0.00514132
-0.000162971
0.00509981
-0.000143346
0.00506322
-0.000126269
0.00503197
-0.000111699
0.0050056
-9.98773e-05
0.00498187
-9.02057e-05
0.00495954
-8.19767e-05
0.00493909
-7.47689e-05
0.00492088
-6.85456e-05
0.00490417
-6.32933e-05
0.00488797
-5.88195e-05
0.0048721
-5.48371e-05
0.00485699
-5.10973e-05
0.0048428
-4.75893e-05
0.00482915
-4.44967e-05
0.00481562
-4.18338e-05
0.00480216
-3.94274e-05
0.00478895
-3.70604e-05
0.00477613
-3.47363e-05
0.00476361
-3.26425e-05
0.00475119
-3.08343e-05
0.00473879
-2.91967e-05
0.00472648
-2.75947e-05
0.00471438
-2.59849e-05
0.00470249
-2.44518e-05
0.00469076
-2.30993e-05
0.00467911
-2.19167e-05
0.00466758
-2.07909e-05
0.00465621
-1.96565e-05
0.00464503
-1.8557e-05
0.00463401
-1.7556e-05
0.00462316
-1.66446e-05
0.0046125
-1.57849e-05
0.00460204
-1.49504e-05
0.00459178
-1.41541e-05
0.00458172
-1.34066e-05
0.00457187
-1.27046e-05
0.00456224
-1.20333e-05
0.00455284
-1.13871e-05
0.0045437
-1.0759e-05
0.00453481
-1.01621e-05
0.00452616
-9.6061e-06
0.00451776
-9.0809e-06
0.0045096
-8.56248e-06
0.00450171
-8.04805e-06
0.00449408
-7.54879e-06
0.0044867
-7.082e-06
0.00447958
-6.64445e-06
0.00447269
-6.22533e-06
0.00446602
-5.81057e-06
0.00445958
-5.40785e-06
0.00445334
-5.02238e-06
0.0044473
-4.66426e-06
0.00444143
-4.32315e-06
0.00443572
-4.00255e-06
0.00443016
-3.70731e-06
0.00442472
-3.43039e-06
0.00441939
-3.17325e-06
0.00441417
-2.93948e-06
0.00440902
-2.72581e-06
0.00440396
-2.53802e-06
0.00439896
-2.36543e-06
0.00439401
-2.21466e-06
0.00438911
-2.08227e-06
0.00438424
-1.97153e-06
0.0043794
-1.87891e-06
0.00437459
-1.80072e-06
0.00436979
-1.7388e-06
0.004365
-1.68947e-06
0.00436022
-1.65594e-06
0.00435545
-1.63594e-06
0.00435068
-1.62968e-06
0.00434591
-1.63397e-06
0.00434115
-1.64963e-06
0.00433639
-1.6759e-06
0.00433163
-1.7133e-06
0.00432688
-1.7628e-06
0.00432213
-1.8244e-06
0.00431739
-1.9132e-06
0.00431263
-1.99981e-06
0.00430788
-2.19232e-06
0.00430301
-2.25827e-06
0.00429815
-2.8658e-06
0.00429293
-2.5577e-06
-5.63643e-06
0.00644653
-2.70128e-05
0.00644397
-3.73618e-05
0.00642001
-6.141e-05
0.00636214
-9.80092e-05
0.00626748
-0.000137856
0.00614211
-0.000171423
0.00599644
-0.000194016
0.00584213
-0.000204068
0.00568909
-0.000203075
0.00554475
-0.000193802
0.00541387
-0.000178912
0.00529752
-0.00016118
0.00519554
-0.000143017
0.00510751
-0.000125901
0.00503178
-0.000110462
0.00496565
-9.68391e-05
0.00490726
-8.49625e-05
0.00485576
-7.47689e-05
0.00481018
-6.61114e-05
0.00476898
-5.86809e-05
0.00473099
-5.22141e-05
0.00469603
-4.70158e-05
0.00466397
-4.27137e-05
0.00463435
-3.89281e-05
0.00460653
-3.54662e-05
0.00458012
-3.24116e-05
0.0045551
-2.98156e-05
0.00453148
-2.74794e-05
0.00450913
-2.52355e-05
0.00448777
-2.31389e-05
0.00446724
-2.13061e-05
0.00444752
-1.97022e-05
0.00442865
-1.81978e-05
0.00441065
-1.67337e-05
0.00439339
-1.53848e-05
0.00437676
-1.42031e-05
0.00436072
-1.31566e-05
0.0043453
-1.21771e-05
0.00433054
-1.12212e-05
0.0043164
-1.03133e-05
0.00430281
-9.50539e-06
0.0042897
-8.80544e-06
0.00427707
-8.16178e-06
0.00426494
-7.53278e-06
0.00425332
-6.93103e-06
0.00424215
-6.38902e-06
0.00423141
-5.90518e-06
0.00422108
-5.45815e-06
0.00421117
-5.03352e-06
0.00420165
-4.63539e-06
0.00419251
-4.26922e-06
0.00418374
-3.93426e-06
0.00417533
-3.62239e-06
0.00416727
-3.33036e-06
0.00415957
-3.05357e-06
0.0041522
-2.79593e-06
0.00414516
-2.56212e-06
0.00413843
-2.34926e-06
0.00413201
-2.14514e-06
0.00412591
-1.94711e-06
0.00412012
-1.75773e-06
0.00411462
-1.58582e-06
0.0041094
-1.42838e-06
0.00410446
-1.28109e-06
0.00409978
-1.13473e-06
0.00409537
-9.93717e-07
0.00409121
-8.5713e-07
0.00408727
-7.31772e-07
0.00408356
-6.08193e-07
0.00408004
-4.84118e-07
0.00407671
-3.82868e-07
0.00407356
-2.78754e-07
0.00407057
-1.79281e-07
0.00406772
-8.5559e-08
0.00406499
3.13461e-09
0.00406237
8.18184e-08
0.00405984
1.56342e-07
0.00405741
2.20061e-07
0.00405505
2.77371e-07
0.00405275
3.24112e-07
0.00405051
3.61954e-07
0.00404832
3.9427e-07
0.00404616
4.17685e-07
0.00404404
4.35419e-07
0.00404194
4.46588e-07
0.00403985
4.5103e-07
0.00403777
4.51013e-07
0.00403569
4.48118e-07
0.0040336
4.38807e-07
0.00403149
4.26633e-07
0.00402938
4.04685e-07
0.00402723
3.78669e-07
0.00402507
3.38716e-07
0.00402287
2.8838e-07
0.00402062
2.49451e-07
0.0040183
1.26021e-07
0.00401589
1.50991e-07
0.00401334
-3.11514e-07
0.00401062
1.59988e-07
-2.32779e-06
0.00625665
0.00621968
0.00615866
0.00606105
0.00592359
0.00575257
0.00555895
0.00535529
0.00515263
0.00495924
0.00478075
0.00461999
0.0044774
0.00435193
0.0042419
0.00414549
0.00406096
0.00398663
0.00392096
0.00386272
0.00381095
0.00376438
0.00372211
0.00368362
0.0036486
0.00361664
0.00358727
0.00356024
0.00353545
0.00351277
0.00349191
0.00347266
0.00345491
0.00343863
0.0034237
0.00340995
0.00339724
0.00338552
0.00337475
0.00336489
0.00335584
0.00334749
0.00333978
0.0033327
0.00332622
0.00332029
0.00331484
0.00330983
0.00330526
0.00330108
0.00329726
0.00329378
0.00329061
0.00328774
0.00328514
0.0032828
0.00328069
0.0032788
0.00327711
0.00327562
0.00327431
0.00327318
0.00327221
0.00327138
0.00327071
0.00327017
0.00326977
0.00326949
0.00326934
0.00326931
0.00326938
0.00326956
0.00326983
0.0032702
0.00327066
0.0032712
0.00327181
0.00327248
0.00327321
0.00327399
0.00327481
0.00327566
0.00327653
0.00327742
0.00327832
0.00327923
0.00328014
0.00328104
0.00328193
0.00328281
0.00328367
0.0032845
0.0032853
0.00328604
0.00328674
0.00328733
0.00328793
0.00328807
0.00328869
-0.000831931
0.000788343
-0.00121946
0.000387527
-0.00139906
0.000179604
-0.00140205
2.98389e-06
-0.00126096
-0.00014109
-0.000964944
-0.000296012
-0.000524487
-0.000440457
-0.000525013
-0.000754951
0.00166096
-0.00111808
0.000750658
-0.00122824
0.000289766
-0.00120009
-2.51743e-05
-0.00105429
-0.000286883
-0.00080876
-0.000541545
-0.000456447
-0.00079277
-0.000981964
-0.000156197
0.00225018
-0.000557935
0.0011524
-0.000717708
0.000449539
-0.000731037
-1.18448e-05
-0.000650844
-0.000367076
-0.000507295
-0.000685094
-0.000303369
-0.000996696
-0.00128582
0.00042966
0.00257866
9.69583e-05
0.0014851
-0.000111094
0.000657591
-0.000205853
8.29145e-05
-0.000222048
-0.000350881
-0.000187708
-0.000719434
-0.000121698
-0.00106271
-0.00140799
0.000870297
0.00276483
0.000617311
0.00173808
0.00039523
0.000879672
0.000239663
0.000238481
0.000137924
-0.000249141
7.01127e-05
-0.000651623
2.21297e-05
-0.00101472
-0.00138632
0.00119707
0.00287795
0.000996738
0.00193841
0.000781889
0.00109452
0.000592641
0.000427729
0.000428779
-8.52789e-05
0.000279859
-0.000502703
0.000137298
-0.000872161
-0.00124949
0.00139123
0.00294684
0.00123794
0.0020917
0.00104153
0.00129093
0.000835822
0.000633432
0.000631623
0.00011892
0.00042645
-0.00029753
0.000215937
-0.000661648
-0.00103402
0.00145068
0.0029926
0.0013326
0.00220978
0.00116186
0.00146168
0.000958557
0.00083673
0.000737545
0.000339933
0.000503674
-6.36592e-05
0.000257031
-0.000415006
-0.000777461
0.00141297
0.00302252
0.00131819
0.00230456
0.00116843
0.00161145
0.000977336
0.00102782
0.000758636
0.000558633
0.000520585
0.000174392
0.000266354
-0.000160774
-0.000511591
0.00130656
0.00303898
0.0012323
0.00237882
0.00110359
0.00174016
0.000929937
0.00120147
0.000724762
0.000763808
0.000497979
0.000401175
0.000254462
8.27424e-05
-0.000257625
0.00116648
0.00304296
0.0011106
0.0024347
0.0010015
0.00184927
0.000848339
0.00135463
0.000663779
0.000948368
0.000456949
0.000608005
0.000233407
0.000306284
-2.47255e-05
0.0010187
0.00303649
0.000978035
0.00247536
0.000885893
0.00194141
0.000752873
0.00148765
0.000590932
0.00111031
0.000407677
0.00079126
0.000209253
0.000504708
0.000184016
0.000878045
0.00302263
0.000849146
0.00250426
0.000772228
0.00201833
0.000657558
0.00160232
0.000516411
0.00125146
0.000355831
0.000951841
0.000181821
0.000678718
0.00036533
0.000752842
0.00300418
0.000732577
0.00252452
0.000668516
0.00208239
0.000570141
0.00170069
0.000447927
0.00137367
0.000308395
0.00109137
0.000157169
0.000829944
0.000521997
0.000646706
0.0029837
0.000631924
0.00253931
0.000578396
0.00213592
0.000494481
0.00178461
0.000388936
0.00147922
0.000267836
0.00121247
0.000136392
0.000961388
0.000657891
0.000558531
0.00296345
0.000546352
0.00255149
0.000501199
0.00218107
0.000430067
0.00185574
0.000339143
0.00157014
0.000233922
0.00131769
0.000119064
0.00107625
0.000776461
0.00048542
0.00294472
0.00047453
0.00256238
0.000435738
0.00221986
0.000374851
0.00191663
0.00029631
0.00164868
0.000204738
0.00140927
0.000103922
0.00117706
0.000879891
0.000424907
0.00292812
0.000414827
0.00257246
0.000380854
0.00225384
0.000327884
0.0019696
0.0002595
0.00171706
0.00017948
0.00148929
9.08597e-05
0.00126568
0.000970261
0.00037564
0.00291394
0.000366008
0.00258209
0.000335688
0.00228416
0.000288899
0.00201638
0.000228682
0.00177728
0.000158203
0.00155976
8.00952e-05
0.00134379
0.00104987
0.000335928
0.00290208
0.000326467