/*--------------------------------*- C++ -*----------------------------------*\
| =========                 |                                                 |
| \\      /  F ield         | OpenFOAM: The Open Source CFD Toolbox           |
|  \\    /   O peration     | Version:  v2012                                 |
|   \\  /    A nd           | Website:  www.openfoam.com                      |
|    \\/     M anipulation  |                                                 |
\*---------------------------------------------------------------------------*/
FoamFile
{
    version     2.0;
    format      ascii;
    class       volScalarField;
    location    "0.347";
    object      p;
}
// * * * * * * * * * * * * * * * * * * * * * * * * * * * * * * * * * * * * * //

dimensions      [0 2 -2 0 0 0 0];


internalField   nonuniform List<scalar> 
1900
(
-299.623
-300.722
-301.622
-302.283
-302.96
-303.727
-304.533
-305.361
-305.974
-306.578
-300.077
-300.876
-301.704
-302.38
-303.061
-303.821
-304.632
-305.47
-306.23
-307.05
-300.363
-300.928
-301.696
-302.409
-303.106
-303.867
-304.693
-305.577
-306.47
-307.715
-300.547
-300.991
-301.726
-302.468
-303.178
-303.94
-304.784
-305.709
-306.722
-308.095
-300.645
-301.039
-301.754
-302.505
-303.221
-303.986
-304.848
-305.807
-306.888
-308.277
-300.662
-301.061
-301.78
-302.535
-303.254
-304.027
-304.904
-305.889
-307.004
-308.371
-300.597
-301.056
-301.807
-302.557
-303.277
-304.061
-304.951
-305.952
-307.079
-308.402
-300.445
-301.036
-301.83
-302.557
-303.27
-304.065
-304.969
-305.979
-307.11
-308.391
-300.188
-301.03
-301.891
-302.579
-303.277
-304.077
-304.985
-305.995
-307.118
-308.36
-299.754
-300.929
-301.881
-302.562
-303.26
-304.073
-304.992
-306.009
-307.135
-308.357
-305.92
-318.28
-337.562
-339.208
-320.079
-286.052
-243.019
-198.246
-157.318
-122.525
-94.1855
-71.7651
-54.2911
-40.7449
-30.1921
-21.8531
-15.2024
-9.86416
-5.51827
-1.90615
1.12336
3.65716
5.79184
7.62326
9.2143
10.5874
11.7595
12.777
13.6664
14.4445
15.1218
15.7054
16.206
16.6326
16.9925
17.2977
17.5539
17.7624
17.9269
18.0526
18.1452
18.2082
18.2423
18.2486
18.2275
18.182
18.1161
18.0322
17.9308
17.8119
17.6754
17.5223
17.355
17.1752
16.9835
16.7803
16.5656
16.339
16.1016
15.8548
15.5991
15.3349
15.0621
14.7804
14.49
14.1912
13.8848
13.5713
13.2504
12.9221
12.5866
12.2441
11.8947
11.5387
11.1761
10.8071
10.4316
10.0498
9.66176
9.26776
8.86769
8.46193
8.05023
7.63295
7.20991
6.78137
6.34727
5.90783
5.46311
5.01325
4.55838
4.09867
3.634
3.16487
2.69005
2.21236
1.72477
1.24259
0.733507
0.279198
-309.337
-321.606
-333.412
-332.126
-313.079
-280.334
-239.751
-197.44
-158.318
-124.59
-96.6758
-74.246
-56.5573
-42.6919
-31.7928
-23.1349
-16.2156
-10.6536
-6.12116
-2.36614
0.755562
3.35514
5.55186
7.43767
9.06428
10.4627
11.6562
12.69
13.59
14.3743
15.055
15.6402
16.1379
16.5613
16.9244
17.2343
17.4943
17.7063
17.8741
18.0032
18.0994
18.1658
18.2016
18.2086
18.1881
18.1432
18.0778
17.9948
17.8945
17.7765
17.6406
17.4879
17.3212
17.1418
16.9505
16.7477
16.5334
16.3073
16.0703
15.8238
15.5684
15.3045
15.0321
14.7505
14.4601
14.1615
13.8555
13.5421
13.2214
12.8932
12.5579
12.2154
11.8661
11.5102
11.1477
10.7786
10.4032
10.0213
9.63332
9.23926
8.83917
8.43335
8.02161
7.60426
7.18118
6.7526
6.3185
5.87908
5.4344
4.98463
4.52992
4.07043
3.60624
3.13757
2.6644
2.18734
1.70538
1.2218
0.729522
0.251881
-310.271
-317.92
-326.263
-324.072
-306.103
-275.371
-237.27
-197.129
-159.466
-126.591
-99.0102
-76.564
-58.6783
-44.5337
-33.3343
-24.4117
-17.2754
-11.529
-6.83801
-2.9574
0.261695
2.94412
5.22006
7.17633
8.85383
10.2867
11.5134
12.5786
13.5034
14.3026
14.9914
15.5832
16.085
16.5099
16.8767
17.1897
17.4513
17.6643
17.8326
17.9624
18.0581
18.1225
18.1573
18.1642
18.1445
18.1008
18.0373
17.956
17.8571
17.7406
17.6063
17.4551
17.2897
17.1112
16.9205
16.7177
16.5028
16.2764
16.0395
15.7933
15.538
15.2742
15.0022
14.7209
14.4308
14.1326
13.8269
13.5137
13.1932
12.8651
12.5299
12.1875
11.8383
11.4824
11.1199
10.7509
10.3754
9.99352
9.60548
9.21136
8.81121
8.40528
7.99347
7.57603
7.1529
6.72426
6.29015
5.85071
5.40608
4.95638
4.50183
4.04255
3.57885
3.11064
2.63917
2.16281
1.68646
1.20181
0.727089
0.223756
-310.492
-316.294
-321.939
-318.557
-301.089
-271.666
-235.203
-196.609
-160.103
-127.984
-100.756
-78.3671
-60.3634
-46.0136
-34.5805
-25.4459
-18.1293
-12.2244
-7.39886
-3.41718
-0.121936
2.62237
4.94657
6.9375
8.63893
10.0879
11.3283
12.4081
13.3495
14.1613
14.8606
15.4644
15.9833
16.4274
16.8087
17.132
17.4021
17.6224
17.7968
17.9314
18.0289
18.0923
18.1271
18.1345
18.1149
18.0715
18.0084
17.9271
17.8273
17.709
17.5733
17.4222
17.2576
17.0797
16.8897
16.6872
16.4718
16.2453
16.0091
15.7637
15.5091
15.2454
14.9726
14.691
14.4011
14.1033
13.7979
13.4849
13.1646
12.8366
12.5015
12.1592
11.8101
11.4542
11.0917
10.7226
10.3471
9.96516
9.57701
9.18283
8.78257
8.3765
7.96458
7.54702
7.12384
6.69513
6.26103
5.82157
5.37701
4.92739
4.47303
4.01396
3.55076
3.08304
2.61326
2.13767
1.66702
1.18104
0.723966
0.195991
-310.518
-314.805
-318.112
-313.455
-296.276
-267.995
-233.033
-195.921
-160.558
-129.165
-102.286
-79.9698
-61.8708
-47.343
-35.7093
-26.3901
-18.9131
-12.8671
-7.91879
-3.84327
-0.47993
2.32291
4.69821
6.72823
8.45666
9.92657
11.1871
12.2839
13.2401
14.0633
14.7696
15.3755
15.8962
16.345
16.7293
17.0522
17.3225
17.5444
17.7215
17.8596
17.962
18.031
18.0717
18.0851
18.0714
18.0338
17.9754
17.8973
17.7992
17.6818
17.5472
17.3975
17.2337
17.056
16.8664
16.6639
16.4483
16.2218
15.9856
15.74
15.4852
15.2207
14.9464
14.6637
14.3733
14.0753
13.7696
13.4561
13.1352
12.8067
12.4713
12.1287
11.7794
11.4234
11.0607
10.6914
10.3157
9.93378
9.54558
9.15138
8.75125
8.34528
7.93342
7.51587
7.09276
6.66408
6.23007
5.79068
5.34628
4.89679
4.4427
3.9839
3.52124
3.05408
2.58593
2.11123
1.64584
1.15927
0.718378
0.171089
-310.4
-313.509
-315.041
-309.398
-292.508
-265.228
-231.494
-195.545
-161.049
-130.183
-103.557
-81.2903
-63.1082
-48.4269
-36.6294
-27.1653
-19.5554
-13.3883
-8.34226
-4.1957
-0.77831
2.07439
4.49417
6.55382
8.30048
9.78619
11.0643
12.1755
13.1397
13.9692
14.6804
15.2918
15.8192
16.2743
16.6644
16.9916
17.2625
17.4863
17.6672
17.8092
17.9146
17.9843
18.0226
18.0343
18.0205
17.9832
17.9246
17.8458
17.7472
17.6301
17.497
17.3492
17.1873
17.0118
16.8238
16.6229
16.4093
16.1847
15.95
15.7056
15.4516
15.1878
14.9142
14.6321
14.342
14.044
13.738
13.4241
13.1029
12.7737
12.438
12.0951
11.7456
11.3893
11.0264
10.657
10.2813
9.89932
9.51126
9.11713
8.71713
8.31117
7.89943
7.48197
7.059
6.63045
6.19662
5.75738
5.3132
4.86392
4.41014
3.95171
3.48958
3.02307
2.55637
2.08281
1.62166
1.13602
0.707788
0.152299
-310.21
-312.445
-312.668
-306.232
-289.501
-262.955
-230.135
-195.076
-161.266
-130.842
-104.467
-82.2777
-64.053
-49.2744
-37.3654
-27.7967
-20.0846
-13.8167
-8.69492
-4.50036
-1.03842
1.86388
4.32105
6.39672
8.15509
9.65996
10.9577
12.0802
13.0481
13.881
14.6008
15.2208
15.7534
16.2123
16.6035
16.9335
17.2088
17.4348
17.6169
17.761
17.8676
17.9389
17.9786
17.9915
17.9798
17.9448
17.8876
17.8092
17.7109
17.5945
17.4619
17.3141
17.1516
16.9751
16.7855
16.5834
16.3691
16.1436
15.9079
15.6625
15.4077
15.1434
14.8696
14.5873
14.2971
13.9991
13.6934
13.38
13.0591
12.7306
12.3955
12.0533
11.7044
11.3487
10.9864
10.6174
10.2424
9.86071
9.47321
9.07947
8.6798
8.2741
7.86271
7.44564
7.02303
6.59486
6.16136
5.72248
5.27862
4.82971
4.3763
3.91827
3.4567
2.99088
2.52533
2.05308
1.59462
1.11173
0.690342
0.143268
-310.014
-311.622
-310.914
-303.872
-287.218
-261.199
-229.052
-194.666
-161.386
-131.314
-105.161
-83.0537
-64.8001
-49.956
-37.9787
-28.3259
-20.518
-14.1757
-9.00724
-4.76636
-1.24933
1.69322
4.16615
6.25364
8.03364
9.56139
10.8707
11.9938
12.965
13.8081
14.5381
15.1626
15.6948
16.1534
16.5484
16.8836
17.1617
17.3877
17.5691
17.7137
17.8229
17.8967
17.937
17.9495
17.9377
17.9032
17.8461
17.7676
17.6692
17.5529
17.4201
17.2721
17.1094
16.9327
16.7429
16.541
16.3271
16.1017
15.8655
15.6197
15.3646
15.1001
14.8262
14.5435
14.2527
13.9541
13.6479
13.334
13.0127
12.684
12.3486
12.006
11.6568
11.3009
10.9386
10.5697
10.1946
9.81316
9.42586
9.03245
8.63313
8.22794
7.81712
7.40069
6.9787
6.55122
6.11837
5.68017
5.23693
4.78864
4.3358
3.87834
3.41741
2.95231
2.48765
2.01688
1.55957
1.08113
0.660145
0.138631
-309.857
-311.036
-309.718
-302.257
-285.629
-259.948
-228.241
-194.297
-161.363
-131.532
-105.535
-83.4774
-65.2193
-50.3514
-38.3283
-28.6181
-20.7636
-14.3907
-9.19297
-4.9212
-1.37699
1.58294
4.06542
6.16346
7.95366
9.48751
10.7997
11.9257
12.901
13.7485
14.4811
15.1068
15.6405
16.1013
16.499
16.8361
17.1152
17.3417
17.5242
17.6704
17.7813
17.8561
17.8969
17.9098
17.8989
17.8655
17.8093
17.7315
17.6336
17.518
17.386
17.2386
17.0765
16.9002
16.7109
16.5093
16.2957
16.0705
15.8345
15.5889
15.3341
15.07
14.7965
14.5142
14.2239
13.9259
13.6204
13.3072
12.9866
12.6586
12.3243
11.9823
11.6335
11.2782
10.9164
10.548
10.1734
9.79237
9.40535
9.01218
8.61299
8.20773
7.79686
7.38035
6.95833
6.53078
6.09792
5.65967
5.21642
4.7681
4.31528
3.85793
3.39713
2.93215
2.46749
1.99749
1.53974
1.06568
0.639673
0.148954
-309.799
-310.776
-309.167
-301.515
-284.923
-259.448
-228.001
-194.311
-161.572
-131.866
-105.939
-83.9018
-65.6285
-50.724
-38.6585
-28.911
-21.0239
-14.6197
-9.39434
-5.10212
-1.54023
1.44293
3.94264
6.0506
7.84592
9.38508
10.7039
11.8347
12.812
13.6611
14.3963
15.0249
15.561
16.0231
16.4221
16.7607
17.0415
17.2695
17.4531
17.6
17.7118
17.7877
17.8297
17.8433
17.8332
17.8005
17.745
17.6677
17.5704
17.4554
17.324
17.1771
17.0154
16.8396
16.6507
16.4495
16.2365
16.0118
15.7764
15.5311
15.2767
15.0129
14.7399
14.4579
14.1678
13.8699
13.5646
13.2514
12.9309
12.6029
12.2683
11.9272
11.5789
11.2236
10.862
10.4938
10.1193
9.73857
9.35174
8.95884
8.56
8.15534
7.74474
7.32845
6.90661
6.4792
6.04642
5.60822
5.16503
4.7167
4.26397
3.80663
3.34605
2.88146
2.41684
1.94783
1.48886
1.02005
0.591332
0.112915
-314.073
-315.342
-316.519
-316.763
-316.246
-314.976
-313.67
-313.762
-333.208
-334.725
-335.67
-336.006
-335.684
-334.97
-334.106
-333.757
-348.321
-351.157
-352.673
-353.239
-353.129
-352.819
-352.512
-352.172
-346.898
-350.263
-352.116
-352.862
-352.689
-352.174
-351.696
-351.058
-325.752
-328.652
-330.387
-330.946
-330.606
-329.869
-329.084
-328.157
-289.994
-292.05
-293.341
-293.795
-293.469
-292.521
-291.108
-289.508
-244.964
-246.037
-246.888
-247.289
-247.031
-246.003
-244.218
-242.159
-198.428
-198.459
-198.713
-198.928
-198.649
-197.568
-195.617
-193.373
-156.29
-155.594
-155.332
-155.237
-154.834
-153.718
-151.763
-149.557
-120.783
-119.661
-119.115
-118.843
-118.354
-117.251
-115.404
-113.361
-92.2249
-90.9985
-90.351
-89.9565
-89.395
-88.3506
-86.6764
-84.8504
-69.8877
-68.7346
-68.0974
-67.6328
-67.0317
-66.0718
-64.5974
-63.0133
-52.6336
-51.6238
-51.036
-50.5708
-49.9908
-49.1271
-47.8491
-46.4876
-39.3681
-38.5315
-38.0272
-37.5965
-37.0616
-36.3014
-35.2127
-34.0589
-29.093
-28.4118
-27.9675
-27.5689
-27.0935
-26.4377
-25.5162
-24.5394
-21.0099
-20.4707
-20.0684
-19.6894
-19.273
-18.7139
-17.935
-17.0926
-14.5674
-14.1439
-13.7937
-13.4514
-13.0875
-12.6086
-11.9481
-11.1912
-9.38772
-9.05311
-8.75716
-8.46036
-8.14211
-7.72929
-7.16716
-6.48912
-5.16038
-4.89426
-4.64641
-4.39194
-4.11411
-3.75511
-3.27207
-2.68342
-1.63427
-1.42369
-1.21804
-1.00232
-0.761218
-0.447868
-0.0280947
0.482907
1.34306
1.51428
1.68934
1.87049
2.07789
2.35127
2.71806
3.16439
3.84578
3.99149
4.14612
4.30235
4.48365
4.72465
5.04799
5.44122
5.95297
6.07737
6.21284
6.35165
6.51516
6.73213
7.02119
7.37168
7.75994
7.8664
7.98365
8.1071
8.2552
8.45174
8.7121
9.02725
9.33204
9.42396
9.52703
9.63766
9.772
9.95036
10.1857
10.4707
10.6975
10.7838
10.8742
10.9735
11.0961
11.259
11.4729
11.7319
11.868
11.955
12.0382
12.1289
12.2416
12.3911
12.5865
12.8231
12.8753
12.9558
13.0328
13.1178
13.2236
13.3627
13.5428
13.7606
13.7539
13.8268
13.8973
13.9765
14.0755
14.2051
14.3717
14.5732
14.5223
14.5887
14.654
14.7283
14.8213
14.9424
15.0969
15.2841
15.1917
15.2526
15.3137
15.3838
15.4716
15.5853
15.7291
15.9034
15.7686
15.8247
15.8825
15.9492
16.0326
16.1397
16.274
16.4368
16.2654
16.3166
16.3706
16.4339
16.513
16.6141
16.7398
16.8924
16.6889
16.7361
16.7868
16.8469
16.9222
17.0179
17.1359
17.2795
17.0457
17.0905
17.1392
17.1969
17.269
17.36
17.4712
17.6069
17.3481
17.3909
17.4377
17.4932
17.5623
17.649
17.7541
17.8825
17.602
17.6431
17.6881
17.7414
17.8078
17.8905
17.9899
18.1117
17.8086
17.8484
17.8921
17.9437
18.0076
18.0867
18.181
18.2968
17.9715
18.0101
18.0525
18.1026
18.1643
18.2403
18.3299
18.4402
18.0954
18.1329
18.1741
18.2227
18.2825
18.3556
18.4409
18.5464
18.186
18.2222
18.2623
18.3095
18.3674
18.4377
18.5191
18.6201
18.2471
18.282
18.3207
18.3665
18.4226
18.4903
18.5681
18.665
18.2799
18.3137
18.3513
18.3958
18.4502
18.5155
18.59
18.6831
18.2851
18.3181
18.3549
18.3984
18.4513
18.5144
18.5857
18.6754
18.2633
18.2958
18.3321
18.3748
18.4263
18.4875
18.5561
18.6425
18.2173
18.2492
18.2849
18.3267
18.3772
18.4365
18.5025
18.586
18.1508
18.182
18.2169
18.2578
18.307
18.3646
18.4282
18.509
18.066
18.0965
18.1306
18.1707
18.2188
18.2748
18.3361
18.4144
17.9637
17.9937
18.0274
18.0667
18.1137
18.1682
18.2273
18.3033
17.8443
17.8739
17.9071
17.9457
17.9917
18.0447
18.1018
18.1756
17.7074
17.7366
17.7693
17.8073
17.8524
17.9041
17.9593
18.0312
17.5539
17.5829
17.6152
17.6526
17.6969
17.7474
17.8009
17.8709
17.3862
17.4148
17.4467
17.4836
17.5271
17.5764
17.6284
17.6967
17.206
17.2343
17.2658
17.3022
17.3449
17.3931
17.4435
17.5102
17.014
17.0419
17.073
17.109
17.151
17.1982
17.2471
17.3123
16.8105
16.8381
16.8689
16.9043
16.9456
16.9918
17.0393
17.1031
16.5953
16.6226
16.653
16.688
16.7286
16.7738
16.8201
16.8825
16.3684
16.3955
16.4257
16.4602
16.5002
16.5446
16.5896
16.6507
16.1308
16.1576
16.1875
16.2217
16.2611
16.3047
16.3486
16.4086
15.8837
15.9103
15.9399
15.9737
16.0125
16.0553
16.0981
16.157
15.6277
15.6541
15.6834
15.7168
15.7551
15.7971
15.839
15.8968
15.3634
15.3896
15.4186
15.4516
15.4893
15.5306
15.5714
15.6283
15.0903
15.1162
15.145
15.1776
15.2148
15.2554
15.2953
15.3512
14.8084
14.8341
14.8626
14.8948
14.9315
14.9714
15.0104
15.0655
14.5177
14.5432
14.5714
14.6033
14.6396
14.6789
14.7171
14.7714
14.2187
14.2441
14.2722
14.3038
14.3397
14.3784
14.4157
14.4693
13.9122
13.9375
13.9653
13.9967
14.0321
14.0703
14.107
14.1598
13.5986
13.6237
13.6513
13.6824
13.7174
13.755
13.7909
13.8431
13.2775
13.3025
13.3299
13.3607
13.3954
13.4325
13.4677
13.5193
12.9492
12.974
13.0013
13.0318
13.0661
13.1027
13.1373
13.1882
12.6135
12.6382
12.6653
12.6957
12.7296
12.7658
12.7998
12.8502
12.2709
12.2955
12.3225
12.3526
12.3861
12.4219
12.4553
12.5051
11.9214
11.9459
11.9727
12.0026
12.0359
12.0713
12.1041
12.1535
11.5653
11.5897
11.6164
11.6461
11.6791
11.7141
11.7463
11.7952
11.2027
11.227
11.2536
11.2831
11.3159
11.3505
11.3823
11.4307
10.8337
10.8579
10.8844
10.9137
10.9461
10.9804
11.0116
11.0597
10.4581
10.4823
10.5087
10.5379
10.5701
10.604
10.6348
10.6825
10.0763
10.1004
10.1267
10.1557
10.1876
10.2212
10.2516
10.2988
9.68823
9.71234
9.73856
9.76742
9.79912
9.83238
9.86236
9.90924
9.29422
9.31828
9.34439
9.37307
9.40451
9.43743
9.46698
9.51348
8.89416
8.91821
8.94427
8.97283
9.00407
9.03673
9.06591
9.1121
8.48841
8.51243
8.53839
8.5668
8.59779
8.63014
8.6589
8.70474
8.07673
8.10074
8.12666
8.15496
8.18578
8.2179
8.24635
8.29192
7.65947
7.68346
7.70932
7.73748
7.76809
7.79995
7.82811
7.87345
7.23645
7.26043
7.28624
7.31432
7.34476
7.37642
7.40466
7.45045
6.8079
6.83185
6.85759
6.88553
6.91575
6.94709
6.97515
7.02105
6.37379
6.3977
6.42335
6.45117
6.48122
6.51232
6.54009
6.58575
5.93431
5.95816
5.98372
6.01139
6.04126
6.07213
6.09962
6.14503
5.48952
5.51328
5.53872
5.56622
5.59586
5.62647
5.65364
5.69873
5.03956
5.06323
5.08855
5.11591
5.14535
5.17577
5.20269
5.24756
4.58452
4.60802
4.63314
4.66025
4.68939
4.71948
4.74601
4.79046
4.12463
4.14796
4.17292
4.19983
4.22876
4.25866
4.285
4.32936
3.65952
3.68249
3.70707
3.7336
3.76213
3.79164
3.81756
3.86151
3.19001
3.21266
3.23691
3.26308
3.29124
3.3204
3.34599
3.3897
2.71381
2.73537
2.75867
2.78404
2.81153
2.84022
2.86551
2.9091
2.23565
2.25678
2.27958
2.30435
2.33117
2.35917
2.38383
2.42674
1.74341
1.76105
1.78097
1.80353
1.82884
1.85608
1.88065
1.92458
1.26275
1.28118
1.30116
1.32305
1.34698
1.37222
1.3948
1.43512
0.739298
0.746867
0.757958
0.773152
0.792848
0.81593
0.834876
0.883295
0.302154
0.320211
0.336598
0.351731
0.366652
0.383722
0.400914
0.376896
)
;

boundaryField
{
    frontAndBack
    {
        type            empty;
    }
    inlet
    {
        type            zeroGradient;
    }
    outlet
    {
        type            fixedValue;
        value           uniform 0;
    }
    walls
    {
        type            zeroGradient;
    }
}


// ************************************************************************* //
