/*--------------------------------*- C++ -*----------------------------------*\
| =========                 |                                                 |
| \\      /  F ield         | OpenFOAM: The Open Source CFD Toolbox           |
|  \\    /   O peration     | Version:  v2012                                 |
|   \\  /    A nd           | Website:  www.openfoam.com                      |
|    \\/     M anipulation  |                                                 |
\*---------------------------------------------------------------------------*/
FoamFile
{
    version     2.0;
    format      ascii;
    class       surfaceScalarField;
    location    "0.347";
    object      phi.air;
}
// * * * * * * * * * * * * * * * * * * * * * * * * * * * * * * * * * * * * * //

dimensions      [0 3 -1 0 0 0 0];
oriented        oriented;


internalField   nonuniform List<scalar> 
3672
(
0.0064006
7.14517e-06
0.00639136
8.99623e-06
0.00638142
9.68684e-06
0.00637056
1.06126e-05
0.0063586
1.17119e-05
0.00634559
1.27594e-05
0.00633129
1.40467e-05
0.00631578
1.52582e-05
0.00629637
1.91628e-05
2.80585e-05
0.00626806
0.00641089
4.26003e-06
0.00641309
6.79313e-06
0.00641555
7.2261e-06
0.00641823
7.93236e-06
0.00642104
8.90607e-06
0.00642399
9.8076e-06
0.00642694
1.10891e-05
0.00642967
1.25285e-05
0.00643129
1.75455e-05
2.48537e-05
0.0064345
0.00640988
2.38202e-06
0.00641223
4.44505e-06
0.00641473
4.71802e-06
0.00641752
5.14462e-06
0.00642056
5.87155e-06
0.00642375
6.60995e-06
0.00642716
7.68595e-06
0.00643042
9.26282e-06
0.0064346
1.3366e-05
1.8425e-05
0.00644103
0.00640936
1.0263e-06
0.00641175
2.05189e-06
0.00641429
2.17918e-06
0.00641704
2.39546e-06
0.00642008
2.82902e-06
0.00642335
3.34014e-06
0.00642686
4.1794e-06
0.00643058
5.54009e-06
0.00643542
8.52209e-06
1.19255e-05
0.00644192
0.00640916
-1.33129e-07
0.00641153
-3.17987e-07
0.00641408
-3.68048e-07
0.0064168
-3.30658e-07
0.00641985
-2.20073e-07
0.00642318
1.20081e-08
0.0064268
5.59746e-07
0.0064308
1.54158e-06
0.00643581
3.50708e-06
5.3565e-06
0.00644238
0.00640918
-1.30997e-06
0.00641156
-2.70308e-06
0.00641412
-2.92489e-06
0.00641686
-3.07022e-06
0.00641993
-3.29409e-06
0.00642331
-3.36795e-06
0.00642702
-3.15054e-06
0.00643117
-2.61079e-06
0.00643623
-1.55005e-06
-9.1819e-07
0.00644251
0.00640941
-2.72027e-06
0.00641185
-5.1427e-06
0.00641442
-5.49271e-06
0.00641721
-5.85951e-06
0.00642032
-6.4073e-06
0.00642374
-6.78915e-06
0.00642751
-6.92237e-06
0.00643175
-6.8458e-06
0.00643674
-6.54489e-06
-6.74829e-06
0.00644257
0.00640999
-4.70719e-06
0.0064124
-7.5559e-06
0.00641495
-8.04444e-06
0.00641781
-8.71403e-06
0.00642095
-9.55364e-06
0.0064244
-1.02353e-05
0.00642821
-1.0735e-05
0.00643249
-1.11202e-05
0.00643739
-1.14533e-05
-1.21458e-05
0.00644279
0.00641105
-7.76188e-06
0.00641334
-9.83864e-06
0.00641585
-1.05521e-05
0.00641858
-1.14513e-05
0.00642152
-1.24901e-05
0.00642469
-1.34058e-05
0.00642817
-1.42168e-05
0.00643204
-1.49858e-05
0.00643631
-1.57293e-05
-1.68101e-05
0.00644098
0.00640049
0.0063909
0.0063806
0.0063694
0.00635716
0.006344
0.00633004
0.0063153
0.00629982
0.00628326
0.00618912
0.000122524
-4.3588e-05
0.00598884
8.26129e-05
0.000117663
0.00572442
-0.000168605
0.000433026
0.00550756
-0.000541274
0.000758141
0.00535911
-0.000908017
0.00105647
0.00525264
-0.00120371
0.00131018
0.0051718
-0.00137929
0.00146013
0.00510268
-0.00142732
0.00149644
0.00503456
-0.00137476
0.00144289
0.00496658
-0.00125503
0.001323
0.00489902
-0.00110293
0.00117049
0.00483231
-0.000945543
0.00101225
0.00476695
-0.000798763
0.000864124
0.00470298
-0.000670404
0.000734375
0.00464102
-0.000564339
0.000626297
0.00458134
-0.000478626
0.000538312
0.00452415
-0.000409437
0.000466627
0.00447018
-0.000354274
0.000408243
0.00442019
-0.000311519
0.00036151
0.00437444
-0.000278413
0.000324155
0.0043326
-0.000251301
0.000293144
0.00429456
-0.000228282
0.000266324
0.00426045
-0.000209457
0.000243568
0.00423026
-0.000194528
0.000224715
0.00420356
-0.000182115
0.000208821
0.00418013
-0.000170942
0.00019437
0.00416003
-0.000160884
0.000180981
0.00414287
-0.000152124
0.000169285
0.00412819
-0.000144661
0.000159347
0.00411559
-0.000138016
0.000150613
0.0041047
-0.000131805
0.00014269
0.00409527
-0.000125904
0.000135334
0.00408703
-0.00012036
0.0001286
0.00407972
-0.000115165
0.000122474
0.00407331
-0.000110481
0.000116892
0.00406776
-0.000106228
0.000111779
0.00406299
-0.000102237
0.000107005
0.00405895
-9.8427e-05
0.000102475
0.00405556
-9.48595e-05
9.82421e-05
0.00405279
-9.15848e-05
9.43562e-05
0.0040506
-8.86336e-05
9.0827e-05
0.00404893
-8.59339e-05
8.76055e-05
0.00404768
-8.33555e-05
8.46009e-05
0.00404678
-8.08065e-05
8.17082e-05
0.00404618
-7.83132e-05
7.89093e-05
0.00404587
-7.59652e-05
7.62789e-05
0.00404582
-7.38382e-05
7.38884e-05
0.00404602
-7.18635e-05
7.16634e-05
0.00404646
-6.99599e-05
6.95219e-05
0.00404711
-6.80929e-05
6.74356e-05
0.00404797
-6.62959e-05
6.5439e-05
0.00404901
-6.46119e-05
6.35712e-05
0.00405023
-6.30631e-05
6.18445e-05
0.00405162
-6.16163e-05
6.02258e-05
0.00405317
-6.02234e-05
5.86738e-05
0.00405486
-5.88606e-05
5.71676e-05
0.00405668
-5.75323e-05
5.57164e-05
0.0040586
-5.62505e-05
5.4331e-05
0.00406061
-5.5046e-05
5.30321e-05
0.00406272
-5.39199e-05
5.18145e-05
0.00406491
-5.28479e-05
5.06583e-05
0.00406717
-5.17933e-05
4.95296e-05
0.0040695
-5.07707e-05
4.84404e-05
0.00407189
-4.97835e-05
4.73948e-05
0.00407433
-4.88567e-05
4.64143e-05
0.00407682
-4.79662e-05
4.54783e-05
0.00407935
-4.71184e-05
4.45883e-05
0.00408192
-4.62946e-05
4.37267e-05
0.00408452
-4.5496e-05
4.28968e-05
0.00408714
-4.47125e-05
4.2089e-05
0.00408978
-4.39577e-05
4.13158e-05
0.00409244
-4.32282e-05
4.0572e-05
0.00409511
-4.25301e-05
3.9863e-05
0.00409778
-4.1849e-05
3.91751e-05
0.00410046
-4.11854e-05
3.85089e-05
0.00410313
-4.05256e-05
3.78542e-05
0.00410579
-3.98827e-05
3.72197e-05
0.00410844
-3.92481e-05
3.65981e-05
0.00411108
-3.86353e-05
3.60002e-05
0.00411369
-3.8027e-05
3.5411e-05
0.00411629
-3.74332e-05
3.48389e-05
0.00411886
-3.6837e-05
3.42682e-05
0.0041214
-3.62552e-05
3.37141e-05
0.00412391
-3.56716e-05
3.31604e-05
0.00412639
-3.51042e-05
3.26237e-05
0.00412884
-3.45353e-05
3.20873e-05
0.00413125
-3.39825e-05
3.15676e-05
0.00413363
-3.34287e-05
3.10485e-05
0.00413598
-3.28938e-05
3.05485e-05
0.00413829
-3.23625e-05
3.0053e-05
0.00414056
-3.18588e-05
2.95844e-05
0.0041428
-3.13636e-05
2.91244e-05
0.00414501
-3.09197e-05
2.87134e-05
0.00414718
-3.04846e-05
2.8311e-05
0.00414933
-3.01958e-05
2.80477e-05
0.00415145
-2.98775e-05
2.77544e-05
0.00415358
-3.00395e-05
2.79136e-05
0.00415568
-2.99107e-05
2.7811e-05
0.00415787
-3.12141e-05
2.90192e-05
-3.11762e-05
2.92143e-05
0.00647836
7.86562e-05
0.00651174
4.92388e-05
0.00650174
-0.000158607
0.0064363
-0.00047583
0.00632498
-0.000796698
0.00617908
-0.00105782
0.00601661
-0.00121682
0.00585465
-0.00126536
0.00570346
-0.00122357
0.00556868
-0.00112025
0.0054527
-0.000986949
0.0053544
-0.00084724
0.00527086
-0.000715223
0.00519898
-0.000598528
0.00513579
-0.00050115
0.00507833
-0.000421161
0.00502388
-0.000354995
0.00497092
-0.000301314
0.00491907
-0.000259663
0.00486812
-0.000227465
0.00481803
-0.000201212
0.00476944
-0.000179695
0.00472307
-0.000163082
0.00467935
-0.000150807
0.00463836
-0.000141126
0.00460004
-0.000132624
0.00456459
-0.00012543
0.00453222
-0.000119757
0.00450286
-0.000115295
0.00447623
-0.000111388
0.00445198
-0.000107556
0.00442989
-0.000103816
0.00440984
-0.000100313
0.00439175
-9.70751e-05
0.00437543
-9.41563e-05
0.00436068
-9.14744e-05
0.00434733
-8.88917e-05
0.00433528
-8.63727e-05
0.0043244
-8.39866e-05
0.00431462
-8.18001e-05
0.00430578
-7.9793e-05
0.0042977
-7.78609e-05
0.00429032
-7.59689e-05
0.00428358
-7.40683e-05
0.00427745
-7.21835e-05
0.0042719
-7.04141e-05
0.0042669
-6.88345e-05
0.0042624
-6.73714e-05
0.00425838
-6.59392e-05
0.0042548
-6.45144e-05
0.00425163
-6.31219e-05
0.00424883
-6.18096e-05
0.00424638
-6.06144e-05
0.00424426
-5.94952e-05
0.00424245
-5.8411e-05
0.00424091
-5.73241e-05
0.0042396
-5.62204e-05
0.00423848
-5.51375e-05
0.00423757
-5.41289e-05
0.00423684
-5.31935e-05
0.00423629
-5.2299e-05
0.00423591
-5.1411e-05
0.00423568
-5.05449e-05
0.00423559
-4.96917e-05
0.00423562
-4.88829e-05
0.00423575
-4.81006e-05
0.00423599
-4.7357e-05
0.00423632
-4.66278e-05
0.00423674
-4.59138e-05
0.00423723
-4.5201e-05
0.00423778
-4.45081e-05
0.00423838
-4.3831e-05
0.00423903
-4.31795e-05
0.00423972
-4.25369e-05
0.00424044
-4.19044e-05
0.00424118
-4.12677e-05
0.00424194
-4.06418e-05
0.00424271
-4.0019e-05
0.00424349
-3.94141e-05
0.00424427
-3.88096e-05
0.00424506
-3.82163e-05
0.00424583
-3.76161e-05
0.00424661
-3.70282e-05
0.00424737
-3.64364e-05
0.00424813
-3.586e-05
0.00424887
-3.52804e-05
0.00424961
-3.47162e-05
0.00425033
-3.41495e-05
0.00425104
-3.36017e-05
0.00425173
-3.30566e-05
0.00425241
-3.25395e-05
0.00425308
-3.20305e-05
0.00425373
-3.15738e-05
0.00425437
-3.11258e-05
0.004255
-3.08253e-05
0.00425563
-3.05008e-05
0.00425624
-3.06511e-05
0.00425686
-3.05288e-05
0.00425752
-3.18828e-05
-3.17339e-05
0.00647001
4.96757e-05
0.00650349
1.57558e-05
0.00650081
-0.000155926
0.00644848
-0.000423501
0.00634924
-0.000697458
0.00621162
-0.000920192
0.00605285
-0.00105805
0.00589069
-0.0011032
0.00573783
-0.00107071
0.00560289
-0.00098531
0.00548898
-0.000873039
0.00539516
-0.000753419
0.0053188
-0.000638864
0.00525751
-0.000537234
0.00520847
-0.000452112
0.00516851
-0.000381202
0.00513499
-0.000321476
0.00510651
-0.000272835
0.00508206
-0.000235209
0.00506
-0.000205408
0.0050387
-0.000179909
0.00501723
-0.000158222
0.00499524
-0.000141099
0.00497257
-0.000128136
0.00494885
-0.000117404
0.00492373
-0.000107506
0.00489711
-9.88087e-05
0.00486932
-9.19713e-05
0.00484087
-8.68412e-05
0.00481221
-8.27225e-05
0.00478372
-7.90687e-05
0.00475568
-7.57779e-05
0.00472855
-7.31844e-05
0.00470288
-7.13999e-05
0.00467881
-7.00896e-05
0.00465632
-6.89798e-05
0.00463533
-6.79106e-05
0.00461582
-6.68573e-05
0.00459772
-6.58892e-05
0.00458098
-6.50565e-05
0.00456547
-6.42863e-05
0.00455106
-6.34511e-05
0.00453764
-6.25507e-05
0.00452516
-6.15861e-05
0.00451358
-6.05995e-05
0.00450286
-5.96994e-05
0.00449295
-5.89254e-05
0.00448378
-5.82e-05
0.00447527
-5.74299e-05
0.00446734
-5.65865e-05
0.00445996
-5.57345e-05
0.00445309
-5.49473e-05
0.00444673
-5.42475e-05
0.00444082
-5.35893e-05
0.00443536
-5.29459e-05
0.0044303
-5.22712e-05
0.00442563
-5.1547e-05
0.00442131
-5.0818e-05
0.00441733
-5.01448e-05
0.00441366
-4.95228e-05
0.00441028
-4.89212e-05
0.00440717
-4.82993e-05
0.00440427
-4.76435e-05
0.00440155
-4.69712e-05
0.00439899
-4.63287e-05
0.0043966
-4.57067e-05
0.00439435
-4.51141e-05
0.00439224
-4.45184e-05
0.00439025
-4.39229e-05
0.00438836
-4.331e-05
0.00438656
-4.27061e-05
0.00438484
-4.21057e-05
0.00438318
-4.15228e-05
0.00438158
-4.09384e-05
0.00438003
-4.03561e-05
0.00437853
-3.97609e-05
0.00437706
-3.91714e-05
0.00437562
-3.85794e-05
0.0043742
-3.80021e-05
0.00437282
-3.74209e-05
0.00437145
-3.68495e-05
0.0043701
-3.62684e-05
0.00436877
-3.56985e-05
0.00436746
-3.51235e-05
0.00436616
-3.45634e-05
0.00436488
-3.39995e-05
0.00436362
-3.34508e-05
0.00436236
-3.28991e-05
0.00436113
-3.23663e-05
0.00435991
-3.18361e-05
0.0043587
-3.13334e-05
0.00435751
-3.08398e-05
0.00435633
-3.03962e-05
0.00435517
-2.99638e-05
0.00435402
-2.9674e-05
0.00435289
-2.93655e-05
0.00435176
-2.95209e-05
0.00435065
-2.9424e-05
0.0043495
-3.07294e-05
-3.06855e-05
0.0064645
2.71009e-05
0.00648861
-8.35571e-06
0.00648172
-0.000149034
0.00642849
-0.000370269
0.00633104
-0.000600009
0.00619798
-0.00078714
0.00604461
-0.00090468
0.00588733
-0.000945918
0.00573858
-0.000921968
0.00560645
-0.000853178
0.00549383
-0.000760419
0.00539996
-0.000659545
0.00532309
-0.000561992
0.00526143
-0.000475578
0.00521203
-0.000402715
0.00517155
-0.000340719
0.0051381
-0.000288023
0.00511126
-0.000245995
0.00509001
-0.000213962
0.00507221
-0.00018761
0.00505634
-0.00016404
0.00504263
-0.000144506
0.00503168
-0.000130156
0.00502266
-0.000119112
0.00501404
-0.000108782
0.00500541
-9.88825e-05
0.00499719
-9.05822e-05
0.00498936
-8.41462e-05
0.00498147
-7.89515e-05
0.00497305
-7.4303e-05
0.00496366
-6.96787e-05
0.00495305
-6.51642e-05
0.00494122
-6.13558e-05
0.00492831
-5.84854e-05
0.00491441
-5.61965e-05
0.00489954
-5.41081e-05
0.00488371
-5.20768e-05
0.00486703
-5.01813e-05
0.00484976
-4.86175e-05
0.0048322
-4.74974e-05
0.0048147
-4.67811e-05
0.0047975
-4.62588e-05
0.00478072
-4.5762e-05
0.00476444
-4.5308e-05
0.00474883
-4.4995e-05
0.00473401
-4.48801e-05
0.00471998
-4.48944e-05
0.00470668
-4.49001e-05
0.00469407
-4.48172e-05
0.00468213
-4.46504e-05
0.00467086
-4.4458e-05
0.0046602
-4.42948e-05
0.00465011
-4.41515e-05
0.00464052
-4.40023e-05
0.00463141
-4.38299e-05
0.00462274
-4.36021e-05
0.00461453
-4.33386e-05
0.00460678
-4.30666e-05
0.00459945
-4.28133e-05
0.00459249
-4.25721e-05
0.00458589
-4.23165e-05
0.00457961
-4.20187e-05
0.00457362
-4.16568e-05
0.0045679
-4.12486e-05
0.00456241
-4.08361e-05
0.00455712
-4.04228e-05
0.00455202
-4.001e-05
0.00454707
-3.95714e-05
0.00454226
-3.91109e-05
0.00453756
-3.86121e-05
0.00453297
-3.81093e-05
0.00452846
-3.75981e-05
0.00452403
-3.70967e-05
0.00451968
-3.65848e-05
0.00451539
-3.60697e-05
0.00451117
-3.55357e-05
0.004507
-3.50062e-05
0.00450289
-3.44719e-05
0.00449884
-3.39504e-05
0.00449485
-3.34259e-05
0.00449091
-3.29095e-05
0.00448702
-3.23839e-05
0.00448319
-3.18679e-05
0.00447942
-3.13472e-05
0.00447569
-3.08415e-05
0.00447203
-3.03324e-05
0.00446841
-2.98389e-05
0.00446486
-2.93424e-05
0.00446136
-2.88654e-05
0.00445791
-2.83908e-05
0.00445452
-2.79437e-05
0.00445119
-2.75063e-05
0.00444791
-2.71153e-05
0.00444468
-2.67389e-05
0.0044415
-2.64915e-05
0.00443838
-2.62403e-05
0.00443525
-2.63968e-05
0.00443222
-2.63884e-05
0.00442904
-2.75546e-05
-2.78751e-05
0.00645963
9.85242e-06
0.00647551
-2.42333e-05
0.00646423
-0.000137754
0.00641073
-0.000316772
0.00631603
-0.000505312
0.00618842
-0.000659531
0.00604149
-0.000757747
0.00588975
-0.00079418
0.00574497
-0.000777181
0.0056151
-0.000723314
0.00550313
-0.000648442
0.00540889
-0.000565312
0.0053316
-0.000484697
0.00526949
-0.000413475
0.00521898
-0.000352203
0.00517702
-0.000298756
0.00514294
-0.000253943
0.0051163
-0.000219357
0.00509467
-0.000192329
0.00507549
-0.000168434
0.00505875
-0.000147296
0.00504559
-0.000131343
0.00503541
-0.000119982
0.00502629
-0.000109985
0.00501741
-9.99046e-05
0.00500956
-9.10365e-05
0.00500345
-8.44704e-05
0.00499877
-7.94672e-05
0.00499462
-7.47979e-05
0.0049903
-6.99845e-05
0.00498603
-6.54111e-05
0.00498248
-6.16124e-05
0.00497971
-5.85874e-05
0.00497724
-5.60163e-05
0.00497464
-5.35927e-05
0.00497165
-5.11161e-05
0.00496826
-4.86953e-05
0.00496463
-4.65431e-05
0.00496074
-4.47358e-05
0.00495649
-4.32447e-05
0.00495166
-4.19441e-05
0.00494603
-4.06312e-05
0.00493952
-3.92517e-05
0.00493215
-3.79432e-05
0.00492403
-3.68748e-05
0.00491526
-3.6109e-05
0.0049059
-3.5534e-05
0.00489597
-3.49732e-05
0.00488552
-3.43683e-05
0.00487467
-3.37985e-05
0.00486357
-3.33593e-05
0.00485237
-3.30909e-05
0.00484117
-3.29552e-05
0.00483005
-3.28775e-05
0.00481899
-3.27717e-05
0.00480804
-3.26483e-05
0.00479725
-3.25487e-05
0.00478667
-3.24892e-05
0.00477631
-3.24515e-05
0.00476615
-3.24152e-05
0.00475619
-3.23551e-05
0.00474643
-3.22612e-05
0.00473691
-3.21337e-05
0.00472762
-3.1963e-05
0.00471854
-3.17568e-05
0.00470965
-3.15294e-05
0.00470092
-3.12815e-05
0.00469236
-3.10048e-05
0.00468394
-3.06942e-05
0.00467566
-3.03368e-05
0.00466752
-2.99683e-05
0.00465951
-2.95851e-05
0.00465162
-2.92068e-05
0.00464385
-2.88154e-05
0.0046362
-2.84182e-05
0.00462866
-2.80008e-05
0.00462125
-2.7588e-05
0.00461394
-2.71685e-05
0.00460676
-2.67625e-05
0.00459968
-2.6352e-05
0.00459272
-2.59496e-05
0.00458587
-2.55372e-05
0.00457914
-2.51346e-05
0.00457252
-2.473e-05
0.00456602
-2.43393e-05
0.00455964
-2.39477e-05
0.00455337
-2.35704e-05
0.00454722
-2.31925e-05
0.00454119
-2.28327e-05
0.00453527
-2.24768e-05
0.00452947
-2.21463e-05
0.00452379
-2.18266e-05
0.00451823
-2.15465e-05
0.00451277
-2.12862e-05
0.00450741
-2.11288e-05
0.00450217
-2.09951e-05
0.00449693
-2.11598e-05
0.00449186
-2.13205e-05
0.00448653
-2.22254e-05
-2.3247e-05
0.00645566
-3.30156e-06
0.00646519
-3.37649e-05
0.00645042
-0.000122979
0.00639697
-0.000263323
0.00630461
-0.00041295
0.00618117
-0.000536091
0.00603901
-0.000615596
0.0058915
-0.000646669
0.00575
-0.000635678
0.00562203
-0.00059534
0.00551052
-0.00053693
0.00541624
-0.000471037
0.00533885
-0.000407312
0.00527587
-0.00035049
0.00522364
-0.00029997
0.00518042
-0.000255539
0.0051462
-0.000219727
0.00511921
-0.000192362
0.00509587
-0.000168993
0.00507508
-0.000147645
0.00505847
-0.000130684
0.00504598
-0.000118855
0.00503514
-0.000109136
0.00502445
-9.9296e-05
0.00501482
-9.0275e-05
0.00500737
-8.35837e-05
0.00500167
-7.87747e-05
0.00499656
-7.43574e-05
0.00499128
-6.95153e-05
0.00498617
-6.48738e-05
0.00498204
-6.12804e-05
0.00497895
-5.85236e-05
0.00497638
-5.60146e-05
0.00497378
-5.34207e-05
0.00497099
-5.0807e-05
0.0049684
-4.85266e-05
0.00496638
-4.66737e-05
0.00496481
-4.49666e-05
0.00496338
-4.33044e-05
0.00496185
-4.17221e-05
0.00496017
-4.02588e-05
0.00495849
-3.89512e-05
0.00495694
-3.77009e-05
0.00495543
-3.64329e-05
0.00495383
-3.52765e-05
0.00495201
-3.42898e-05
0.00494985
-3.33774e-05
0.00494731
-3.24308e-05
0.00494438
-3.14394e-05
0.00494106
-3.04767e-05
0.0049373
-2.95969e-05
0.00493301
-2.88037e-05
0.00492811
-2.80554e-05
0.00492254
-2.73067e-05
0.00491629
-2.65239e-05
0.00490939
-2.57504e-05
0.00490188
-2.50352e-05
0.00489378
-2.4389e-05
0.00488511
-2.37798e-05
0.00487588
-2.31922e-05
0.00486615
-2.26242e-05
0.00485598
-2.20884e-05
0.00484544
-2.15932e-05
0.00483461
-2.11328e-05
0.00482355
-2.0701e-05
0.00481233
-2.0301e-05
0.00480097
-1.99293e-05
0.00478955
-1.95812e-05
0.00477809
-1.92386e-05
0.00476667
-1.89144e-05
0.00475531
-1.86014e-05
0.00474403
-1.83093e-05
0.00473285
-1.80309e-05
0.0047218
-1.77616e-05
0.00471089
-1.75047e-05
0.00470013
-1.72429e-05
0.00468953
-1.69933e-05
0.00467911
-1.67404e-05
0.00466885
-1.65092e-05
0.00465878
-1.62777e-05
0.00464889
-1.6061e-05
0.0046392
-1.5843e-05
0.00462969
-1.56343e-05
0.0046204
-1.5431e-05
0.00461129
-1.52382e-05
0.0046024
-1.50518e-05
0.0045937
-1.48751e-05
0.00458521
-1.47038e-05
0.00457693
-1.45436e-05
0.00456884
-1.43914e-05
0.00456095
-1.42552e-05
0.00455325
-1.41295e-05
0.00454574
-1.40311e-05
0.00453841
-1.39556e-05
0.00453122
-1.39429e-05
0.00452421
-1.39887e-05
0.00451723
-1.41739e-05
0.00451049
-1.45794e-05
0.00450335
-1.50868e-05
-1.71157e-05
0.00645273
-1.34585e-05
0.00645752
-3.85542e-05
0.00643989
-0.000105347
0.00638638
-0.000209818
0.00629583
-0.000322398
0.00617559
-0.00041585
0.00603717
-0.000477171
0.00589295
-0.000502456
0.00575376
-0.000496484
0.00562661
-0.000468187
0.00551463
-0.000424954
0.0054195
-0.000375909
0.00534092
-0.000328735
0.00527556
-0.000285129
0.00522075
-0.000245161
0.00517671
-0.000211494
0.00514199
-0.000185013
0.00511244
-0.000162806
0.00508623
-0.000142785
0.00506485
-0.000126268
0.00504825
-0.000114079
0.00503372
-0.000104326
0.0050197
-9.51137e-05
0.0050071
-8.66928e-05
0.00499689
-8.00679e-05
0.00498841
-7.51024e-05
0.00498033
-7.06972e-05
0.00497211
-6.61348e-05
0.00496433
-6.17436e-05
0.00495764
-5.81804e-05
0.00495178
-5.54156e-05
0.00494616
-5.29067e-05
0.00494037
-5.02254e-05
0.00493446
-4.75126e-05
0.00492883
-4.51742e-05
0.00492359
-4.32875e-05
0.00491853
-4.16175e-05
0.00491346
-3.98902e-05
0.00490822
-3.8062e-05
0.00490282
-3.63243e-05
0.00489741
-3.48509e-05
0.00489204
-3.35825e-05
0.00488667
-3.23265e-05
0.00488124
-3.10111e-05
0.0048757
-2.97335e-05
0.00486998
-2.8573e-05
0.00486411
-2.74982e-05
0.00485813
-2.64517e-05
0.0048521
-2.54126e-05
0.00484603
-2.44113e-05
0.0048399
-2.3461e-05
0.00483365
-2.25542e-05
0.00482726
-2.16649e-05
0.00482074
-2.07833e-05
0.00481411
-1.99012e-05
0.00480742
-1.90536e-05
0.00480064
-1.82552e-05
0.00479374
-1.749e-05
0.00478667
-1.67169e-05
0.00477942
-1.59396e-05
0.00477197
-1.51779e-05
0.00476434
-1.44557e-05
0.00475652
-1.37735e-05
0.00474851
-1.31171e-05
0.00474028
-1.24729e-05
0.00473183
-1.18495e-05
0.00472316
-1.12584e-05
0.00471428
-1.07082e-05
0.00470524
-1.01913e-05
0.00469603
-9.71304e-06
0.00468671
-9.27272e-06
0.00467726
-8.86788e-06
0.00466773
-8.49986e-06
0.00465814
-8.16616e-06
0.0046485
-7.86855e-06
0.00463886
-7.60385e-06
0.00462924
-7.36691e-06
0.00461966
-7.16117e-06
0.00461013
-6.98411e-06
0.00460069
-6.83816e-06
0.00459135
-6.71574e-06
0.00458212
-6.61677e-06
0.00457302
-6.53653e-06
0.00456407
-6.47685e-06
0.00455527
-6.43441e-06
0.00454662
-6.41035e-06
0.00453815
-6.39947e-06
0.00452985
-6.4018e-06
0.00452172
-6.41371e-06
0.00451376
-6.43721e-06
0.00450598
-6.47034e-06
0.00449836
-6.51269e-06
0.0044909
-6.57112e-06
0.0044836
-6.65298e-06
0.00447641
-6.75787e-06
0.00446938
-6.95115e-06
0.00446232
-7.12134e-06
0.00445547
-7.72733e-06
0.00444816
-7.77488e-06
-1.07114e-05
0.0064508
-2.14626e-05
0.00645216
-3.99198e-05
0.00643219
-8.53722e-05
0.00637824
-0.000155876
0.00628837
-0.000232521
0.0061693
-0.000296784
0.00603182
-0.000339689
0.00588776
-0.000358393
0.00574738
-0.000356105
0.0056173
-0.000338109
0.00550216
-0.000309813
0.00540384
-0.000277588
0.00532007
-0.000244966
0.0052488
-0.000213857
0.00518986
-0.000186221
0.0051414
-0.000163037
0.00509973
-0.000143339
0.00506313
-0.000126215
0.00503204
-0.000111689
0.00500569
-9.99157e-05
0.00498183
-9.02267e-05
0.00495946
-8.19573e-05
0.0049391
-7.47455e-05
0.00492095
-6.85456e-05
0.00490419
-6.33112e-05
0.00488792
-5.88338e-05
0.00487206
-5.48329e-05
0.004857
-5.10769e-05
0.00484284
-4.75784e-05
0.00482916
-4.4506e-05
0.0048156
-4.18545e-05
0.00480213
-3.94347e-05
0.00478895
-3.70431e-05
0.00477615
-3.47198e-05
0.00476363
-3.26479e-05
0.00475119
-3.08498e-05
0.00473878
-2.92056e-05
0.00472648
-2.75878e-05
0.00471438
-2.59694e-05
0.0047025
-2.44462e-05
0.00469076
-2.31091e-05
0.00467911
-2.19286e-05
0.00466757
-2.07917e-05
0.00465621
-1.96485e-05
0.00464503
-1.85516e-05
0.00463401
-1.7557e-05
0.00462316
-1.66484e-05
0.0046125
-1.5787e-05
0.00460204
-1.49496e-05
0.00459178
-1.41525e-05
0.00458172
-1.34059e-05
0.00457187
-1.27047e-05
0.00456224
-1.20335e-05
0.00455284
-1.13867e-05
0.0045437
-1.07585e-05
0.00453481
-1.01631e-05
0.00452616
-9.60808e-06
0.00451776
-9.0816e-06
0.0045096
-8.56101e-06
0.00450171
-8.04611e-06
0.00449408
-7.54848e-06
0.0044867
-7.08339e-06
0.00447958
-6.6458e-06
0.00447269
-6.2253e-06
0.00446602
-5.80951e-06
0.00445958
-5.40706e-06
0.00445334
-5.02262e-06
0.0044473
-4.66516e-06
0.00444143
-4.32376e-06
0.00443572
-4.00246e-06
0.00443016
-3.70672e-06
0.00442472
-3.42973e-06
0.00441939
-3.17298e-06
0.00441416
-2.93978e-06
0.00440902
-2.72641e-06
0.00440396
-2.53836e-06
0.00439896
-2.36529e-06
0.00439401
-2.21433e-06
0.00438911
-2.08213e-06
0.00438424
-1.97164e-06
0.0043794
-1.87903e-06
0.00437459
-1.80061e-06
0.00436979
-1.73855e-06
0.004365
-1.68929e-06
0.00436022
-1.65594e-06
0.00435545
-1.63603e-06
0.00435068
-1.62967e-06
0.00434591
-1.63382e-06
0.00434115
-1.64947e-06
0.00433639
-1.67582e-06
0.00433163
-1.71332e-06
0.00432688
-1.76291e-06
0.00432213
-1.82457e-06
0.00431739
-1.91342e-06
0.00431263
-2.00003e-06
0.00430788
-2.19247e-06
0.00430301
-2.25833e-06
0.00429815
-2.86575e-06
0.00429293
-2.55756e-06
-5.63624e-06
0.00644653
-2.70128e-05
0.00644397
-3.73617e-05
0.00642001
-6.141e-05
0.00636214
-9.80092e-05
0.00626748
-0.000137856
0.00614211
-0.000171423
0.00599644
-0.000194017
0.00584212
-0.000204066
0.00568908
-0.000203074
0.00554478
-0.000193807
0.00541388
-0.000178913
0.00529747
-0.000161174
0.00519552
-0.000143014
0.00510757
-0.000125908
0.00503181
-0.000110468
0.00496561
-9.68329e-05
0.00490722
-8.49538e-05
0.00485578
-7.47739e-05
0.00481022
-6.61213e-05
0.00476898
-5.86754e-05
0.00473095
-5.22036e-05
0.00469602
-4.70223e-05
0.004664
-4.27249e-05
0.00463437
-3.89224e-05
0.00460652
-3.54549e-05
0.0045801
-3.24151e-05
0.00455509
-2.98275e-05
0.00453149
-2.74785e-05
0.00450914
-2.5224e-05
0.00448777
-2.31339e-05
0.00446723
-2.13153e-05
0.00444751
-1.97122e-05
0.00442866
-1.81938e-05
0.00441066
-1.67238e-05
0.0043934
-1.53831e-05
0.00437676
-1.42089e-05
0.00436071
-1.31627e-05
0.0043453
-1.21764e-05
0.00433055
-1.12142e-05
0.00431641
-1.03091e-05
0.00430281
-9.50896e-06
0.00428969
-8.81166e-06
0.00427706
-8.16319e-06
0.00426494
-7.52902e-06
0.00425332
-6.92774e-06
0.00424215
-6.38908e-06
0.00423141
-5.90712e-06
0.00422108
-5.45935e-06
0.00421117
-5.03317e-06
0.00420165
-4.63457e-06
0.00419251
-4.26892e-06
0.00418374
-3.93442e-06
0.00417533
-3.62261e-06
0.00416727
-3.33028e-06
0.00415957
-3.05323e-06
0.0041522
-2.79605e-06
0.00414516
-2.56285e-06
0.00413842
-2.34969e-06
0.00413201
-2.14466e-06
0.00412591
-1.94632e-06
0.00412012
-1.75759e-06
0.00411462
-1.58644e-06
0.0041094
-1.429e-06
0.00410446
-1.28107e-06
0.00409978
-1.13425e-06
0.00409537
-9.93382e-07
0.00409121
-8.57292e-07
0.00408727
-7.32222e-07
0.00408356
-6.08371e-07
0.00408004
-4.84011e-07
0.00407671
-3.82631e-07
0.00407356
-2.78419e-07
0.00407057
-1.79052e-07
0.00406772
-8.56558e-08
0.00406499
2.77909e-09
0.00406237
8.15577e-08
0.00405984
1.56391e-07
0.00405741
2.20293e-07
0.00405505
2.77509e-07
0.00405275
3.24036e-07
0.00405051
3.61818e-07
0.00404832
3.94313e-07
0.00404616
4.17872e-07
0.00404404
4.35579e-07
0.00404194
4.46606e-07
0.00403985
4.50965e-07
0.00403777
4.51021e-07
0.00403569
4.48237e-07
0.0040336
4.38904e-07
0.00403149
4.2664e-07
0.00402938
4.04621e-07
0.00402724
3.78551e-07
0.00402507
3.38581e-07
0.00402287
2.88219e-07
0.00402062
2.49318e-07
0.0040183
1.25947e-07
0.00401589
1.50995e-07
0.00401334
-3.11438e-07
0.00401062
1.60103e-07
-2.32768e-06
0.00625665
0.00621968
0.00615866
0.00606105
0.00592359
0.00575257
0.00555895
0.00535529
0.00515263
0.00495924
0.00478074
0.00461999
0.0044774
0.00435192
0.00424189
0.00414549
0.00406097
0.00398663
0.00392095
0.00386272
0.00381096
0.00376438
0.0037221
0.00368362
0.00364861
0.00361664
0.00358726
0.00356023
0.00353546
0.00351278
0.00349191
0.00347265
0.00345491
0.00343863
0.0034237
0.00340995
0.00339724
0.00338551
0.00337475
0.0033649
0.00335584
0.00334748
0.00333977
0.0033327
0.00332623
0.00332029
0.00331484
0.00330983
0.00330526
0.00330108
0.00329726
0.00329378
0.00329061
0.00328774
0.00328514
0.0032828
0.00328069
0.0032788
0.00327711
0.00327562
0.00327432
0.00327318
0.00327221
0.00327138
0.00327071
0.00327017
0.00326977
0.00326949
0.00326934
0.00326931
0.00326938
0.00326956
0.00326983
0.0032702
0.00327066
0.0032712
0.00327181
0.00327248
0.00327321
0.00327399
0.00327481
0.00327566
0.00327653
0.00327742
0.00327832
0.00327923
0.00328014
0.00328104
0.00328193
0.00328281
0.00328367
0.00328451
0.0032853
0.00328604
0.00328674
0.00328732
0.00328793
0.00328807
0.00328869
-0.000831931
0.000788343
-0.00121946
0.000387527
-0.00139906
0.000179604
-0.00140205
2.98388e-06
-0.00126096
-0.00014109
-0.000964944
-0.000296012
-0.000524487
-0.000440457
-0.000525013
-0.000754951
0.00166096
-0.00111808
0.000750658
-0.00122824
0.000289766
-0.00120009
-2.51743e-05
-0.00105429
-0.000286883
-0.00080876
-0.000541545
-0.000456447
-0.00079277
-0.000981964
-0.000156197
0.00225018
-0.000557935
0.0011524
-0.000717708
0.000449539
-0.000731037
-1.18448e-05
-0.000650844
-0.000367076
-0.000507295
-0.000685094
-0.000303369
-0.000996696
-0.00128582
0.00042966
0.00257866
9.69581e-05
0.0014851
-0.000111094
0.000657591
-0.000205853
8.29145e-05
-0.000222049
-0.000350881
-0.000187708
-0.000719434
-0.000121698
-0.00106271
-0.00140799
0.000870296
0.00276483
0.000617311
0.00173808
0.00039523
0.000879671
0.000239663
0.000238481
0.000137924
-0.000249141
7.01128e-05
-0.000651623
2.21297e-05
-0.00101472
-0.00138632
0.00119707
0.00287795
0.000996738
0.00193841
0.000781889
0.00109452
0.000592641
0.000427729
0.000428779
-8.52789e-05
0.000279859
-0.000502703
0.000137297
-0.000872161
-0.00124949
0.00139123
0.00294685
0.00123794
0.0020917
0.00104152
0.00129093
0.000835822
0.000633432
0.000631623
0.00011892
0.000426449
-0.00029753
0.000215937
-0.000661649
-0.00103402
0.00145068
0.0029926
0.0013326
0.00220978
0.00116186
0.00146168
0.000958561
0.000836731
0.000737548
0.000339933
0.000503676
-6.36587e-05
0.000257033
-0.000415005
-0.000777459
0.00141297
0.00302252
0.00131819
0.00230456
0.00116842
0.00161145
0.000977333
0.00102782
0.000758633
0.000558633
0.000520583
0.000174392
0.000266352
-0.000160774
-0.000511592
0.00130655
0.00303897
0.00123229
0.00237882
0.00110358
0.00174016
0.000929929
0.00120147
0.000724755
0.000763806
0.000497974
0.000401174
0.000254459
8.27401e-05
-0.000257629
0.0011665
0.00304297
0.00111062
0.0024347
0.00100151
0.00184927
0.000848352
0.00135463
0.00066379
0.000948369
0.000456958
0.000608006
0.000233413
0.000306285
-2.47236e-05
0.00101872
0.0030365
0.000978052
0.00247536
0.000885908
0.00194142
0.000752886
0.00148765
0.000590942
0.00111031
0.000407684
0.000791264
0.000209257
0.000504712
0.000184022
0.000877998
0.00302262
0.000849107
0.00250426
0.000772195
0.00201833
0.00065753
0.00160231
0.000516388
0.00125146
0.000355813
0.000951839
0.00018181
0.000678715
0.000365325
0.000752817
0.00300418
0.000732555
0.00252452
0.000668497
0.00208239
0.000570125
0.00170069
0.000447914
0.00137367
0.000308385
0.00109137
0.000157164
0.000829937
0.000521987
0.000646768
0.00298371
0.000631976
0.00253931
0.00057844
0.00213592
0.000494518
0.00178461
0.000388967
0.00147922
0.000267859
0.00121247
0.000136406
0.00096139
0.000657895
0.000558575
0.00296345
0.000546391
0.00255149
0.000501232
0.00218108
0.000430094
0.00185575
0.000339165
0.00157015
0.000233938
0.0013177
0.000119073
0.00107626
0.000776474
0.00048536
0.00294472
0.000474478
0.00256238
0.000435695
0.00221986
0.000374815
0.00191663
0.000296281
0.00164868
0.000204717
0.00140927
0.000103909
0.00117706
0.000879891
0.000424841
0.00292812
0.000414769
0.00257245
0.000380805
0.00225383
0.000327843
0.00196959
0.000259466
0.00171706
0.000179455
0.00148928
9.08459e-05
0.00126567
0.000970247
0.000375683
0.00291394
0.000366044
0.00258209
0.000335718
0.00228415
0.000288923
0.00201638
0.0002287
0.00177728
0.000158217
0.00155976
8.01037e-05
0.00134379
0.00104986
0.000336012
0.00290209