/*--------------------------------*- C++ -*----------------------------------*\
| =========                 |                                                 |
| \\      /  F ield         | OpenFOAM: The Open Source CFD Toolbox           |
|  \\    /   O peration     | Version:  v2012                                 |
|   \\  /    A nd           | Website:  www.openfoam.com                      |
|    \\/     M anipulation  |                                                 |
\*---------------------------------------------------------------------------*/
FoamFile
{
    version     2.0;
    format      ascii;
    class       scalarField;
    location    "0.032/lagrangian/kinematicCloud";
    object      age;
}
// * * * * * * * * * * * * * * * * * * * * * * * * * * * * * * * * * * * * * //


35
(
0.0312
0.0302
0.0291
0.028
0.027
0.026
0.025
0.024
0.0229
0.0218
0.021725
0.0207
0.0196
0.0185
0.0174
0.0163
0.0152
0.0141
0.013
0.012925
0.0119
0.0108
0.0097
0.0086
0.008525
0.0075
0.0064
0.006325
0.0053
0.005225
0.0042
0.0031
0.002
0.0009
0.000825
)


// ************************************************************************* //
