/*--------------------------------*- C++ -*----------------------------------*\
| =========                 |                                                 |
| \\      /  F ield         | OpenFOAM: The Open Source CFD Toolbox           |
|  \\    /   O peration     | Version:  v2012                                 |
|   \\  /    A nd           | Website:  www.openfoam.com                      |
|    \\/     M anipulation  |                                                 |
\*---------------------------------------------------------------------------*/
FoamFile
{
    version     2.0;
    format      ascii;
    class       vectorField;
    location    "0.032/lagrangian/kinematicCloud";
    object      UCorrect;
}
// * * * * * * * * * * * * * * * * * * * * * * * * * * * * * * * * * * * * * //


35
(
(-1.24868e-29 3.58705e-33 0)
(0 0 0)
(0 0 0)
(0 0 0)
(0 0 0)
(0 0 0)
(0 0 0)
(-1.92343e-26 4.99029e-29 0)
(-2.01606e-26 5.71095e-29 0)
(0 0 0)
(0 0 0)
(-1.7961e-26 -4.19422e-29 0)
(-9.54098e-27 -7.96879e-30 0)
(-9.93875e-27 -6.71043e-31 0)
(0 0 0)
(0 0 0)
(0 0 0)
(-2.4185e-26 1.14781e-28 0)
(0 0 0)
(-2.56493e-26 1.34582e-28 0)
(-9.45613e-30 3.36853e-32 0)
(-2.81735e-26 1.97402e-28 0)
(-2.02332e-26 8.82665e-29 0)
(-2.53531e-26 -1.48529e-28 0)
(0 0 0)
(0 0 0)
(-2.93343e-26 -1.94955e-28 0)
(0 0 0)
(-1.56468e-29 -1.14588e-31 0)
(-6.6423e-30 3.89283e-32 0)
(0 0 0)
(0 0 0)
(0 0 0)
(-1.81002e-26 8.68988e-30 0)
(0 0 0)
)


// ************************************************************************* //
