/*--------------------------------*- C++ -*----------------------------------*\
| =========                 |                                                 |
| \\      /  F ield         | OpenFOAM: The Open Source CFD Toolbox           |
|  \\    /   O peration     | Version:  v2012                                 |
|   \\  /    A nd           | Website:  www.openfoam.com                      |
|    \\/     M anipulation  |                                                 |
\*---------------------------------------------------------------------------*/
FoamFile
{
    version     2.0;
    format      ascii;
    class       Cloud<basicKinematicParcel>;
    location    "0.015/lagrangian/kinematicCloud";
    object      positions;
}
// * * * * * * * * * * * * * * * * * * * * * * * * * * * * * * * * * * * * * //

15
(
(0.166058 0.00418263 0.03) 311
(0.153599 0.0158261 0.03) 810
(0.142502 0.0238451 0.03) 1109
(0.128841 0.00937938 0.03) 508
(0.115752 0.0308733 0.03) 1407
(0.10395 0.0243389 0.03) 1106
(0.0884703 0.000630884 0.03) 5
(0.0797066 0.0349442 0.03) 1605
(0.0666798 0.0346401 0.03) 1604
(0.0550985 0.0128089 0.03) 703
(0.0525661 0.0165447 0.03) 803
(0.0414812 0.00741713 0.03) 402
(0.0297494 0.038723 0.03) 1801
(0.0167183 0.00124265 0.03) 101
(0.0062479 0.038218 0.03) 1800
)


// ************************************************************************* //
