/*--------------------------------*- C++ -*----------------------------------*\
| =========                 |                                                 |
| \\      /  F ield         | OpenFOAM: The Open Source CFD Toolbox           |
|  \\    /   O peration     | Version:  v2012                                 |
|   \\  /    A nd           | Website:  www.openfoam.com                      |
|    \\/     M anipulation  |                                                 |
\*---------------------------------------------------------------------------*/
FoamFile
{
    version     2.0;
    format      ascii;
    class       Cloud<basicKinematicParcel>;
    location    "0.015/lagrangian/kinematicCloud";
    object      positions;
}
// * * * * * * * * * * * * * * * * * * * * * * * * * * * * * * * * * * * * * //

15
(
(0.234622 -0.000779362 0.03) 1236
(0.218873 0.00769909 0.03) 316
(0.198275 0.0143836 0.03) 614
(0.176878 0.00513137 0.03) 211
(0.156531 0.0207298 0.03) 809
(0.13723 0.0174698 0.03) 707
(0.103722 0.00138486 0.03) 103
(0.100155 0.0224094 0.03) 903
(0.0812599 0.0234687 0.03) 901
(0.0641469 0.009148 0.03) 39
(0.0622369 0.00843208 0.03) 39
(0.0470861 0.00520697 0.03) 17
(0.0278903 0.0265752 0.03) 94
(0.0160315 5.94826e-05 0.03) 2
(0.00516847 0.0255671 0.03) 90
)


// ************************************************************************* //
