/*--------------------------------*- C++ -*----------------------------------*\
| =========                 |                                                 |
| \\      /  F ield         | OpenFOAM: The Open Source CFD Toolbox           |
|  \\    /   O peration     | Version:  v2012                                 |
|   \\  /    A nd           | Website:  www.openfoam.com                      |
|    \\/     M anipulation  |                                                 |
\*---------------------------------------------------------------------------*/
FoamFile
{
    version     2.0;
    format      ascii;
    class       vectorField;
    location    "0.06/lagrangian/kinematicCloud";
    object      U;
}
// * * * * * * * * * * * * * * * * * * * * * * * * * * * * * * * * * * * * * //


43
(
(20.1858 -0.204767 0)
(6.76974 -0.00570546 0)
(15.9401 -0.354935 0)
(17.3126 -0.0271173 0)
(24.2466 -0.178488 0)
(21.1166 -0.270244 0)
(21.7905 -0.0466966 0)
(22.1548 -0.239152 0)
(23.7427 -0.0749038 0)
(24.5118 -0.0987304 0)
(14.4486 -0.0229101 0)
(24.1015 -0.0892907 0)
(21.5241 -0.264813 0)
(23.1478 -0.212017 0)
(23.937 -0.0939223 0)
(21.6634 -0.26627 0)
(23.3902 -0.0813476 0)
(18.4702 -0.34586 0)
(22.5443 -0.0644812 0)
(15.6402 -0.422288 0)
(20.2386 -0.30749 0)
(13.2508 -0.0216566 0)
(23.5759 -0.155421 0)
(22.1535 -0.262954 0)
(23.3873 -0.1251 0)
(22.9236 -0.209625 0)
(22.8255 -0.211484 0)
(22.9233 -0.127363 0)
(16.4392 -0.419562 0)
(22.0939 -0.261598 0)
(22.4578 -0.143181 0)
(20.9891 -0.298768 0)
(21.5336 -0.281592 0)
(21.7724 -0.254168 0)
(21.6732 -0.160034 0)
(21.1582 -0.0868993 0)
(21.2221 -0.20889 0)
(20.9793 -0.221382 0)
(20.6289 -0.0977753 0)
(19.6391 -0.292973 0)
(20.1089 -0.222987 0)
(19.4547 -0.0522317 0)
(13.5539 -0.0971246 0)
)


// ************************************************************************* //
