/*--------------------------------*- C++ -*----------------------------------*\
| =========                 |                                                 |
| \\      /  F ield         | OpenFOAM: The Open Source CFD Toolbox           |
|  \\    /   O peration     | Version:  v2012                                 |
|   \\  /    A nd           | Website:  www.openfoam.com                      |
|    \\/     M anipulation  |                                                 |
\*---------------------------------------------------------------------------*/
FoamFile
{
    version     2.0;
    format      ascii;
    class       vectorField;
    location    "0.06/lagrangian/kinematicCloud";
    object      UCorrect;
}
// * * * * * * * * * * * * * * * * * * * * * * * * * * * * * * * * * * * * * //


63
(
(0 0 0)
(0 0 0)
(-6.38456e-25 6.61663e-26 0)
(0 0 0)
(-8.46527e-25 4.06198e-26 0)
(0 0 0)
(0 0 0)
(0 0 0)
(0 0 0)
(-2.05259e-10 2.16155e-11 0)
(5.84856e-11 -1.62629e-11 0)
(0 0 0)
(0 0 0)
(0 0 0)
(0 0 0)
(-1.25123e-24 -7.95093e-26 0)
(-5.4062e-25 -9.22013e-26 0)
(0 0 0)
(0 0 0)
(0 0 0)
(0 0 0)
(0 0 0)
(-4.38893e-25 -1.57466e-26 0)
(0 0 0)
(0 0 0)
(0 0 0)
(0 0 0)
(0 0 0)
(0 0 0)
(0 0 0)
(9.60407e-08 6.67621e-12 0)
(0 0 0)
(0 0 0)
(0 0 0)
(0 0 0)
(0 0 0)
(-8.02557e-10 -1.33159e-12 0)
(5.60083e-10 7.06259e-13 0)
(0 0 0)
(8.70038e-09 3.19585e-12 0)
(0 0 0)
(0 0 0)
(-8.36647e-10 3.46422e-13 0)
(5.81106e-10 -4.29205e-13 0)
(-2.88217e-25 -1.03787e-28 0)
(0 0 0)
(0 0 0)
(-2.92956e-25 -5.82575e-29 0)
(-7.31602e-09 -1.6861e-12 0)
(-2.96114e-25 1.2602e-29 0)
(-1.06938e-07 -1.01794e-11 0)
(6.48854e-09 1.5884e-12 0)
(0 0 0)
(-5.84932e-26 -3.48363e-30 0)
(-9.58642e-10 -3.70027e-14 0)
(6.67048e-10 1.66941e-14 0)
(-1.53615e-25 7.64421e-30 0)
(-4.07594e-08 -7.01474e-13 0)
(0 0 0)
(-1.22065e-08 1.55039e-13 0)
(0 0 0)
(1.663e-08 4.09898e-13 0)
(3.11544e-08 2.24926e-13 0)
)


// ************************************************************************* //
