/*--------------------------------*- C++ -*----------------------------------*\
| =========                 |                                                 |
| \\      /  F ield         | OpenFOAM: The Open Source CFD Toolbox           |
|  \\    /   O peration     | Version:  v2012                                 |
|   \\  /    A nd           | Website:  www.openfoam.com                      |
|    \\/     M anipulation  |                                                 |
\*---------------------------------------------------------------------------*/
FoamFile
{
    version     2.0;
    format      ascii;
    class       Cloud<basicKinematicParcel>;
    location    "0.01/lagrangian/kinematicCloud";
    object      coordinates;
}
// * * * * * * * * * * * * * * * * * * * * * * * * * * * * * * * * * * * * * //

9
(
(0.0819204 0.18791 0.27113 0.45904) 10 1 2
(0.744642 0.0516754 0.0760035 0.127679) 30 60 1
(0.608802 0.0372037 0.195599 0.158395) 50 101 2
(0.179622 0.379423 0.0307666 0.410189) 20 21 2
(0.426528 0.286736 0.121787 0.164949) 70 141 1
(0.636907 0.16309 0.181546 0.018456) 60 7478 2
(0.446763 0.276618 0.0105256 0.266093) 0 7472 1
(0.349086 0.325457 0.105406 0.220051) 80 7480 1
(0.254402 0.0785868 0.372799 0.294212) 80 7480 2
)


// ************************************************************************* //
