/*--------------------------------*- C++ -*----------------------------------*\
| =========                 |                                                 |
| \\      /  F ield         | OpenFOAM: The Open Source CFD Toolbox           |
|  \\    /   O peration     | Version:  v2012                                 |
|   \\  /    A nd           | Website:  www.openfoam.com                      |
|    \\/     M anipulation  |                                                 |
\*---------------------------------------------------------------------------*/
FoamFile
{
    version     2.0;
    format      ascii;
    class       volScalarField;
    location    "0.1";
    object      epsilon.air;
}
// * * * * * * * * * * * * * * * * * * * * * * * * * * * * * * * * * * * * * //

dimensions      [0 2 -3 0 0 0 0];


internalField   nonuniform List<scalar> 
1900
(
112.724
141.424
210.097
257.591
369.051
443.457
614.739
724.909
971.322
1128.62
15.4676
16.4471
18.6373
20.4506
23.757
27.7274
32.0037
39.2876
45.1226
56.7616
14.7926
14.6415
14.5755
14.5063
14.5148
14.5574
14.6409
14.8309
15.0774
15.4133
14.77
14.6304
14.4634
14.3354
14.1726
14.059
13.904
13.8079
13.6654
13.5937
14.7766
14.6215
14.4705
14.3204
14.1748
14.0288
13.8891
13.7471
13.614
13.4768
14.7777
14.6205
14.4714
14.3196
14.1755
14.0283
13.8892
13.7471
13.6134
13.4773
14.7777
14.6207
14.4731
14.3235
14.1841
14.045
13.9175
13.7914
13.6807
13.5716
14.7761
14.6497
14.5638
14.5033
14.5107
14.5517
14.6365
14.8201
15.0457
15.3948
15.2123
16.5986
18.2788
20.6744
23.5965
27.5659
32.2714
38.3967
45.5763
54.8018
105.917
146.564
198.368
265.727
350.03
456.008
585.68
743.639
931.836
1154.02
4099.37
15202.2
19580.6
22433.1
21094
17993.3
15065.3
12775.3
11290.7
10381
9886.26
9712.73
9536.55
9264.98
8854.79
8353.71
7797.74
7210.54
6644.39
6126.4
5649.64
5222.92
4838.52
4487.51
4168.01
3878.36
3615.59
3377.9
3162.05
2966.12
2787.8
2625.06
2476.24
2339.76
2214.47
2099.17
1992.94
1894.78
1803.93
1719.64
1641.31
1568.35
1500.3
1436.72
1377.23
1321.49
1269.2
1220.06
1173.84
1130.28
1089.18
1050.33
1013.56
978.702
945.606
914.13
884.172
855.602
828.35
802.292
777.385
753.505
730.637
708.647
687.557
667.217
647.693
628.812
610.694
593.127
576.293
559.929
544.287
529.034
514.51
500.284
486.809
473.531
461.043
448.632
437.072
425.445
414.754
403.826
393.95
383.628
374.522
364.717
356.35
346.972
339.336
330.296
323.406
314.609
308.5
299.836
294.557
285.904
281.494
271.104
113.12
337.799
518.012
922.288
1124.13
1147.51
1119.61
1055.05
1050.35
1090.14
1196.17
1411.19
1699.19
2031.59
2381.52
2693.88
2972.35
3205.03
3360.1
3436.42
3428.45
3389.32
3302.76
3184.52
3055.86
2924.32
2793.2
2666.56
2543.14
2425.82
2313.87
2207.03
2105.79
2009.94
1919.64
1834.59
1754.74
1679.53
1608.78
1542.16
1479.41
1420.21
1364.34
1311.56
1261.66
1214.43
1169.69
1127.27
1087.01
1048.76
1012.39
977.763
944.762
913.26
883.161
854.352
826.766
800.303
774.92
750.523
727.094
704.535
682.852
661.934
641.818
622.375
603.677
585.569
568.171
551.288
535.097
519.353
504.298
489.618
475.638
461.954
448.991
436.232
424.231
412.323
401.226
390.092
379.847
369.404
359.961
350.122
341.435
332.113
324.152
315.259
308.013
299.46
292.938
284.632
278.861
270.698
265.719
257.579
253.434
243.677
16.4277
19.868
22.8865
29.0961
34.7833
38.7
41.6609
43.7007
46.6405
50.6642
58.7214
71.0005
95.6832
130.545
189.937
267.898
374.393
509.92
667.414
838.644
1007.38
1165.39
1304.44
1420.33
1509.89
1572.35
1609.64
1626.97
1624.4
1613.82
1591.36
1561.47
1527.39
1490.34
1451.83
1412.11
1372.25
1331.87
1292.02
1252.84
1214.39
1176.85
1140.32
1104.88
1070.53
1037.23
1005.04
973.859
943.701
914.552
886.391
859.169
832.867
807.43
782.839
759.027
735.991
713.669
692.069
671.134
650.882
631.255
612.287
593.9
576.153
558.942
542.355
526.251
510.76
495.698
481.246
467.165
453.703
440.552
428.035
415.762
404.149
392.695
381.938
371.24
361.293
351.285
342.106
332.716
324.26
315.411
307.638
299.25
292.131
284.126
277.651
269.949
264.12
256.637
251.477
244.122
239.662
232.334
228.608
219.827
13.4531
13.4606
13.5465
13.8032
14.3359
15.0079
15.7224
16.3393
16.9272
17.3379
17.8919
18.3563
19.3055
20.4976
22.7377
26.281
31.7566
40.8658
54.8319
76.401
106.828
147.648
199.483
261.212
330.642
405.146
480.11
553.517
620.594
682.15
735.431
779.651
814.612
840.559
858.888
870.149
875.71
875.164
872.467
866.447
857.65
846.949
834.874
821.552
807.288
792.24
776.642
760.409
743.9
727.186
710.324
693.406
676.525
659.736
643.102
626.615
610.37
594.331
578.587
563.1
547.951
533.107
518.641
504.502
490.783
477.4
464.458
451.829
439.648
427.74
416.296
405.08
394.353
383.799
373.765
363.849
354.483
345.157
336.432
327.663
319.558
311.304
303.794
296.003
289.059
281.672
275.266
268.222
262.339
255.581
250.209
243.669
238.81
232.424
228.095
221.796
218.025
211.741
208.553
201.013
13.3299
13.1589
13.0625
13.1169
13.3061
13.718
14.2907
14.9106
15.4536
15.8741
16.2068
16.4277
16.613
16.7576
16.9009
17.0933
17.3345
17.7401
18.3249
19.3236
20.8511
23.2788
26.8167
32.1893
39.8179
50.6276
64.9638
83.4506
106.121
132.994
163.578
196.834
232.063
267.541
302.753
335.831
367.038
395.114
420.053
441.35
459.195
473.556
484.889
493.348
499.246
502.942
504.695
504.399
503.194
500.552
496.648
491.799
486.245
480.02
473.328
466.208
458.813
451.112
443.289
435.278
427.252
419.144
411.072
403.019
395.106
387.247
379.546
371.889
364.411
356.961
349.73
342.497
335.536
328.518
321.845
315.066
308.693
302.166
296.112
289.831
284.099
278.052
272.648
266.821
261.747
256.116
251.37
245.904
241.473
236.125
232.019
226.764
222.997
217.805
214.398
209.236
206.214
201.047
198.433
192.206
13.3251
13.1543
13.0316
13.0865
13.2964
13.7738
14.5022
15.489
16.5044
17.5992
18.5876
19.512
20.2496
20.8639
21.2943
21.6043
21.7813
21.8567
21.8425
21.7976
21.7012
21.6015
21.5314
21.5577
21.6666
21.9275
22.4658
23.3632
24.839
26.9787
30.2108
34.5619
40.5758
48.1255
57.5741
68.7746
81.8915
96.5511
112.671
129.71
147.358
165.11
182.58
199.435
215.323
230.059
243.529
255.601
266.338
275.769
283.969
291.002
297.051
302.144
306.431
309.956
312.852
315.065
316.786
317.889
318.637
318.759
318.59
318.136
317.219
315.93
314.367
312.484
310.399
308.032
305.512
302.731
299.866
296.688
293.61
290.134
286.874
283.171
279.802
275.944
272.529
268.564
265.167
261.14
257.814
253.755
250.535
246.455
243.366
239.267
236.329
232.204
229.437
225.285
222.709
218.531
216.172
211.976
209.864
204.787
13.4658
13.3601
13.4096
13.6559
14.3047
15.6857
18.0382
21.4397
25.3993
29.7053
33.591
37.0501
39.576
41.5394
42.6113
43.3422
43.3852
43.2552
42.9272
42.3959
41.78
41.1328
40.4912
39.8785
39.3471
38.8833
38.5251
38.2517
38.143
38.1946
38.3614
38.7111
39.3183
40.2223
41.4874
43.2115
45.4643
48.3957
52.093
56.759
62.4479
69.3733
77.4772
86.9455
97.5809
109.48
122.293
136.027
150.255
164.906
179.601
194.204
208.479
222.264
235.446
247.886
259.566
270.398
280.408
289.549
297.845
305.311
311.928
317.774
322.868
327.21
330.886
333.87
336.2
337.967
339.107
339.827
339.808
339.549
338.949
337.68
336.432
334.426
332.691
330.133
328.007
325.02
322.646
319.358
316.861
313.375
310.84
307.219
304.701
300.98
298.521
294.726
292.358
288.512
286.258
282.391
280.282
276.431
274.521
269.94
15.91
16.8579
18.5479
21.9265
28.4186
39.4874
55.4883
75.0096
95.4395
114.258
129.157
140.03
146.456
150.087
150.778
150.381
149.351
147.742
146.267
145.08
144.47
144.616
145.239
146.613
149.073
152.187
156.403
161.17
167.178
173.937
181.774
190.636
200.373
211.375
223.244
236.38
250.416
265.532
281.469
298.258
315.602
333.491
351.497
369.686
387.536
405.357
422.516
439.492
455.629
471.382
486.347
500.699
514.411
527.251
539.44
550.601
560.94
570.245
578.667
586.008
592.443
597.847
602.362
605.899
608.676
610.482
611.734
611.934
611.637
610.853
609.269
607.104
604.432
601.156
597.764
593.549
589.578
584.695
580.329
574.93
570.26
564.494
559.712
553.769
549.054
543.094
538.564
532.67
528.387
522.598
518.606
512.94
509.263
503.744
500.391
495.034
492.045
486.872
484.364
478.525
68.0423
90.4176
126.233
184.84
272.03
385.146
511.684
635.83
744.739
831.568
892.297
932.315
952.982
963.404
964.799
963.68
961.135
957.74
956.622
957.493
960.299
965.904
974.627
986.298
1000.5
1016.71
1035.24
1055.57
1078.03
1101.5
1126.48
1152.29
1178.74
1205.78
1232.73
1259.58
1285.85
1311.38
1336
1359.46
1381.43
1401.85
1420.56
1437.83
1453.33
1467.55
1480.08
1491.59
1501.47
1510.37
1517.87
1524.13
1529.37
1532.85
1535.57
1536.22
1535.81
1534.42
1531.6
1527.16
1522.08
1515.53
1508.47
1500.15
1491.44
1481.78
1471.63
1460.92
1449.86
1438.19
1426.42
1413.91
1401.62
1388.47
1375.95
1362.51
1349.93
1336.39
1323.95
1310.43
1298.25
1284.84
1273.12
1260.02
1248.96
1236.38
1226.11
1214.12
1204.7
1193.31
1184.77
1173.92
1166.3
1155.98
1149.26
1139.44
1133.67
1124.32
1119.74
1109.55
1464.68
1897.24
2399.03
2961.89
3563.22
4171.86
4746.16
5251.11
5654.79
5950.61
6132.19
6219.47
6207
6160.32
6061.75
5928.55
5778.03
5619.36
5458.94
5301.32
5149.05
5004.25
4867.81
4740.07
4621.18
4511.1
4409.6
4316.31
4231.17
4153.46
4083.11
4019.45
3962.35
3911.36
3866.06
3825.98
3790.58
3759.4
3732.13
3708.44
3688.08
3670.6
3655.82
3643.44
3633.21
3624.96
3618.17
3612.96
3608.67
3605.45
3602.89
3600.85
3599.54
3598.45
3597.91
3597.92
3598.19
3598.76
3600.01
3601.15
3602.93
3604.34
3606.06
3607.29
3608.56
3609.29
3609.91
3609.88
3609.61
3608.86
3607.75
3605.5
3603.27
3599.47
3595.93
3590.61
3585.69
3578.76
3572.46
3563.93
3556.31
3546.27
3537.58
3526.3
3516.81
3504.57
3494.58
3481.6
3471.33
3457.64
3447.33
3432.99
3422.89
3407.8
3398.11
3382.14
3373.06
3356.14
3347.51
3325.79
1108.71
1064.25
1122.15
1210.2
1239.04
1121.53
818.772
1980.31
54606.1
16109.2
7348.61
6105.34
6235.73
6487.39
6558.2
8030.83
74261.9
43602.3
24819.5
18461.7
16103.8
15006.7
14635.1
19676.3
76422.1
71032.5
54258.7
41205.4
32696.8
27167.2
24554.9
34076.6
69725.9
75715.1
67761.9
55662.3
44574.5
35846.2
30865.6
42708.7
57733.1
71178.2
67952
59047.3
48379
38732.9
32780.9
45224.5
47466.2
61825.5
62486.1
56608.2
47159.1
38168.6
32442.8
44229.9
39067.1
51805.8
53568.9
49818.4
42375.6
34658.7
29575.2
39734.5
32618
42979
44905.4
42115.4
36284.8
30028.3
25808.8
34019.1
27607.5
35619.8
37248.4
35103.9
30532.4
25549.1
22217.7
29363.4
23494.2
29586.3
30821.1
29118.3
25528.5
21632.3
19158.5
26011.2
20114.7
24699.8
25576.7
24186.6
21344
18303.4
16500.9
22982.4
17376.9
20788.1
21375
20216.7
17946.8
15564.3
14274.3
20370.2
15143.3
17663.9
18030.1
17050.6
15222.5
13342.1
12438.6
18169.5
13292.1
15153.5
15361.1
14525.8
13040
11545.8
10935.6
16341.9
11730.3
13111.6
13210.6
12495.1
11278.1
10084.4
9699.26
14819.3
10406.3
11439.3
11465.1
10849.5
9845.1
8887.06
8675.78
13544.5
9267.58
10051.6
10033
9500.65
8667.24
7896.6
7821.46
12469.1
8285.62
8889.43
8845.86
8383.84
7689.15
7069.37
7101.01
11553.6
7442.79
7911.46
7853.11
7451.46
6869.81
6372.27
6486.96
10768.2
6716.24
7083.25
7016.74
6666.8
6177.69
5779.6
5960.73
10088.5
6090.14
6378.52
6307.81
6001.9
5588.85
5272.06
5506.66
9496.14
5548.03
5775.24
5703.03
5434.77
5084.71
4834.83
5112.73
8977.73
5074.35
5254.56
5183.07
4947.38
4650.1
4455.89
4769.23
8522.41
4658.19
4802.12
4732.84
4525.49
4272.83
4125.35
4467.95
8120.41
4290.93
4406.7
4340.6
4158.01
3943.34
3835.38
4202.29
7763.71
3965.32
4059.1
3996.8
3835.98
3653.88
3579.55
3966.77
7445.5
3675.89
3752.22
3694
3552.35
3398.31
3352.75
3756.95
7160.13
3417.5
3480
3426
3301.31
3171.58
3150.77
3569.25
6903.11
3186.19
3237.63
3187.83
3078.17
2969.61
2970.25
3400.71
6670.72
2978.37
3020.99
2975.35
2879.07
2789.09
2807.98
3249.06
6459.99
2791.03
2826.61
2785.02
2700.73
2627.07
2661.85
3112.1
6268.46
2621.61
2651.61
2613.92
2540.4
2481.15
2529.91
2988.06
6094.17
2467.85
2493.44
2459.52
2395.71
2349.27
2410.43
2875.46
5935.37
2327.94
2350.04
2319.72
2264.69
2229.69
2301.88
2772.98
5790.58
2200.22
2219.56
2192.69
2145.61
2120.88
2202.96
2679.48
5658.37
2083.34
2100.51
2076.88
2037.03
2021.54
2112.53
2593.92
5537.45
1976.06
1991.52
1970.96
1937.68
1930.53
2029.58
2515.39
5426.58
1877.35
1891.46
1873.8
1846.51
1846.95
1953.27
2443.1
5324.65
1786.27
1799.36
1784.43
1762.64
1769.85
1882.92
2376.38
5230.62
1702.04
1714.37
1702.02
1685.26
1698.62
1817.86
2314.63
5143.54
1623.99
1635.77
1625.87
1613.72
1632.69
1757.55
2257.33
5062.61
1551.51
1562.94
1555.35
1547.46
1571.55
1701.55
2204.06
4987.15
1484.1
1495.33
1489.93
1485.96
1514.76
1649.45
2154.47
4916.61
1421.31
1432.47
1429.14
1428.82
1461.93
1600.93
2108.24
4850.57
1362.71
1373.93
1372.58
1375.59
1412.75
1555.69
2065.13
4788.71
1307.96
1319.32
1319.86
1325.95
1366.87
1513.46
2024.88
4730.77
1256.71
1268.29
1270.62
1279.62
1324.03
1474
1987.32
4676.56
1208.67
1220.53
1224.58
1236.29
1283.95
1437.09
1952.24
4625.93
1163.57
1175.76
1181.45
1195.72
1246.41
1402.53
1919.48
4578.74
1121.15
1133.72
1140.98
1157.66
1211.19
1370.12
1888.86
4534.85
1081.18
1094.17
1102.94
1121.9
1178.12
1339.7
1860.26
4494.09
1043.47
1056.92
1067.14
1088.25
1146.99
1311.11
1833.48
4456.24
1007.83
1021.77
1033.39
1056.54
1117.67
1284.21
1808.42
4421.09
974.099
988.554
1001.52
1026.61
1090.01
1258.86
1784.93
4388.4
942.12
957.116
971.391
998.318
1063.88
1234.95
1762.89
4357.94
911.775
927.333
942.871
971.551
1039.16
1212.36
1742.16
4329.49
882.925
899.063
915.824
946.18
1015.74
1190.99
1722.66
4302.78
855.483
872.213
890.157
922.109
993.523
1170.74
1704.26
4277.69
829.315
846.648
865.738
899.219
972.405
1151.51
1686.87
4253.95
804.366
822.307
842.504
877.443
952.317
1133.24
1670.41
4231.55
780.499
799.049
820.318
856.657
933.147
1115.82
1654.8
4210.22
757.69
776.848
799.153
836.83
914.86
1099.21
1639.97
4190.03
735.796
755.556
778.863
817.824
897.334
1083.32
1625.83
4170.69
714.83
735.186
759.462
799.653
880.576
1068.13
1612.37
4152.37
694.635
715.576
740.788
782.163
864.445
1053.52
1599.47
4134.69
675.275
696.791
722.909
765.421
849
1039.53
1587.17
4117.98
656.565
678.642
705.632
749.237
834.064
1026.02
1575.33
4101.69
638.627
661.256
689.092
733.748
819.77
1013.09
1564.03
4086.37
621.239
644.397
673.043
718.707
805.879
1000.54
1553.09
4071.24
604.591
628.269
657.703
704.339
792.618
988.557
1542.69
4057.16
588.399
612.571
642.752
690.314
779.653
976.838
1532.53
4043
572.937
597.595
628.508
676.973
767.341
965.737
1522.98
4030.09
557.84
582.95
614.548
663.861
755.206
954.77
1513.52
4016.78
543.48
569.041
601.318
651.471
743.783
944.502
1504.77
4005.04
529.387
555.355
588.256
639.184
732.396
934.212
1495.94
3992.49
516.058
542.44
575.971
627.687
721.816
924.754
1488.02
3981.99
502.884
529.628
563.722
616.144
711.103
915.073
1479.75
3970.15
490.52
517.643
552.324
605.489
701.331
906.414
1472.67
3960.98
478.183
505.621
540.805
594.61
691.215
897.27
1464.89
3949.77
466.723
494.505
530.235
584.747
682.215
889.395
1458.68
3941.93
455.136
483.187
519.361
574.447
672.611
880.705
1451.3
3931.24
444.522
472.882
509.562
565.321
664.334
873.575
1445.93
3924.62
433.598
462.178
499.243
555.511
655.154
865.247
1438.85
3914.27
423.772
452.626
490.156
547.062
647.538
858.801
1434.25
3908.63
413.42
442.447
480.301
537.649
638.686
850.731
1427.36
3898.48
404.337
433.599
471.875
529.819
631.664
844.886
1423.4
3893.43
394.467
423.855
462.398
520.718
623.05
836.972
1416.57
3883.33
386.097
415.681
454.596
513.462
616.564
831.649
1413.12
3878.45
376.62
406.288
445.417
504.6
608.12
823.827
1406.31
3868.37
368.957
398.781
438.229
497.897
602.128
818.937
1403.11
3863.49
359.788
389.66
429.279
489.216
593.815
811.196
1396.46
3853.26
352.851
382.84
422.723
483.077
588.304
806.696
1393.41
3848.35
343.901
373.91
413.934
474.529
580.103
799.049
1386.9
3838.02
337.729
367.819
408.049
468.984
575.087
794.909
1383.98
3833.06
328.894
358.987
399.346
460.517
566.985
787.411
1377.71
3822.91
323.539
353.677
394.182
455.609
562.488
783.618
1374.9
3817.81
314.705
344.842
385.482
447.173
554.481
776.339
1368.93
3808.23
310.203
340.343
381.062
442.908
550.48
772.812
1366.19
3803.48
299.564
329.67
370.516
432.645
540.707
763.92
1358.72
3792.79
)
;

boundaryField
{
    frontAndBack
    {
        type            empty;
    }
    inlet
    {
        type            fixedValue;
        value           uniform 14.855;
    }
    outlet
    {
        type            zeroGradient;
    }
    walls
    {
        lowReCorrection 0;
        blending        stepwise;
        n               2;
        type            epsilonWallFunction;
        value           nonuniform List<scalar> 
228
(
112.724
141.424
210.097
257.591
369.051
443.457
614.739
724.909
971.322
1128.62
1108.71
1064.25
1122.15
1210.2
1239.04
1121.53
818.772
1980.31
1980.31
8030.83
19676.3
34076.6
42708.7
45224.5
44229.9
39734.5
34019.1
29363.4
26011.2
22982.4
20370.2
18169.5
16341.9
14819.3
13544.5
12469.1
11553.6
10768.2
10088.5
9496.14
8977.73
8522.41
8120.41
7763.71
7445.5
7160.13
6903.11
6670.72
6459.99
6268.46
6094.17
5935.37
5790.58
5658.37
5537.45
5426.58
5324.65
5230.62
5143.54
5062.61
4987.15
4916.61
4850.57
4788.71
4730.77
4676.56
4625.93
4578.74
4534.85
4494.09
4456.24
4421.09
4388.4
4357.94
4329.49
4302.78
4277.69
4253.95
4231.55
4210.22
4190.03
4170.69
4152.37
4134.69
4117.98
4101.69
4086.37
4071.24
4057.16
4043
4030.09
4016.78
4005.04
3992.49
3981.99
3970.15
3960.98
3949.77
3941.93
3931.24
3924.62
3914.27
3908.63
3898.48
3893.43
3883.33
3878.45
3868.37
3863.49
3853.26
3848.35
3838.02
3833.06
3822.91
3817.81
3808.23
3803.48
3792.79
105.917
146.564
198.368
265.727
350.03
456.008
585.68
743.639
931.836
1154.02
1464.68
1897.24
2399.03
2961.89
3563.22
4171.86
4746.16
5251.11
5654.79
5950.61
6132.19
6219.47
6207
6160.32
6061.75
5928.55
5778.03
5619.36
5458.94
5301.32
5149.05
5004.25
4867.81
4740.07
4621.18
4511.1
4409.6
4316.31
4231.17
4153.46
4083.11
4019.45
3962.35
3911.36
3866.06
3825.98
3790.58
3759.4
3732.13
3708.44
3688.08
3670.6
3655.82
3643.44
3633.21
3624.96
3618.17
3612.96
3608.67
3605.45
3602.89
3600.85
3599.54
3598.45
3597.91
3597.92
3598.19
3598.76
3600.01
3601.15
3602.93
3604.34
3606.06
3607.29
3608.56
3609.29
3609.91
3609.88
3609.61
3608.86
3607.75
3605.5
3603.27
3599.47
3595.93
3590.61
3585.69
3578.76
3572.46
3563.93
3556.31
3546.27
3537.58
3526.3
3516.81
3504.57
3494.58
3481.6
3471.33
3457.64
3447.33
3432.99
3422.89
3407.8
3398.11
3382.14
3373.06
3356.14
3347.51
3325.79
)
;
    }
}


// ************************************************************************* //
