/*--------------------------------*- C++ -*----------------------------------*\
| =========                 |                                                 |
| \\      /  F ield         | OpenFOAM: The Open Source CFD Toolbox           |
|  \\    /   O peration     | Version:  v2012                                 |
|   \\  /    A nd           | Website:  www.openfoam.com                      |
|    \\/     M anipulation  |                                                 |
\*---------------------------------------------------------------------------*/
FoamFile
{
    version     2.0;
    format      ascii;
    class       volScalarField;
    location    "0.042";
    object      nut.air;
}
// * * * * * * * * * * * * * * * * * * * * * * * * * * * * * * * * * * * * * //

dimensions      [0 2 -1 0 0 0 0];


internalField   nonuniform List<scalar> 
5600
(
1.29925e-05
2.99485e-05
5.01803e-05
6.51483e-05
7.30524e-05
7.5605e-05
7.50337e-05
7.28399e-05
7.01635e-05
6.7695e-05
6.55177e-05
6.37467e-05
6.24419e-05
6.16023e-05
6.11894e-05
6.11352e-05
6.13423e-05
6.16997e-05
6.2119e-05
6.25414e-05
6.29349e-05
6.32758e-05
6.35651e-05
6.38002e-05
6.39928e-05
6.41615e-05
6.43149e-05
6.44557e-05
6.45809e-05
6.46942e-05
6.47962e-05
6.48874e-05
6.49684e-05
6.50362e-05
6.50928e-05
6.51398e-05
6.51766e-05
6.52018e-05
6.52161e-05
6.52218e-05
6.52226e-05
6.52196e-05
6.52154e-05
6.521e-05
6.52072e-05
6.52029e-05
6.52053e-05
6.5201e-05
6.52114e-05
6.52013e-05
6.52265e-05
6.52024e-05
6.52504e-05
6.51972e-05
6.52813e-05
6.51779e-05
6.5321e-05
6.51428e-05
6.53712e-05
6.50925e-05
6.54323e-05
6.50302e-05
6.5499e-05
6.497e-05
6.55472e-05
6.49517e-05
6.55202e-05
6.50428e-05
6.53515e-05
6.52866e-05
6.50509e-05
6.55965e-05
6.4807e-05
6.56982e-05
6.49229e-05
6.53269e-05
6.55312e-05
6.4557e-05
6.63423e-05
6.39103e-05
6.67367e-05
6.39176e-05
6.63403e-05
6.4621e-05
6.53559e-05
6.57007e-05
6.42452e-05
6.66161e-05
6.38503e-05
6.61782e-05
6.53666e-05
6.3446e-05
6.89788e-05
5.98514e-05
7.22431e-05
5.76855e-05
7.39766e-05
5.22382e-05
8.42797e-05
1.34597e-05
0.000160945
0.0001422
0.000113436
0.000102515
0.000100808
0.000107232
0.000116916
0.000133782
0.000148932
0.000163024
0.000180389
0.000200098
0.000221364
0.000243289
0.00026522
0.000286669
0.000307214
0.000326302
0.00034356
0.00035888
0.000372411
0.000384236
0.000394811
0.000404263
0.000412996
0.000421151
0.000428808
0.000435897
0.00044241
0.00044839
0.000453781
0.00045854
0.000462725
0.00046636
0.000469565
0.000472498
0.000475196
0.000477643
0.00047983
0.000481739
0.000483353
0.000484668
0.000485725
0.000486488
0.000487097
0.000487427
0.000487803
0.000487806
0.000488204
0.000487858
0.000488596
0.000487705
0.000489143
0.000487336
0.000489922
0.000486635
0.000491007
0.00048555
0.000492408
0.000484083
0.000494095
0.000482366
0.000495811
0.000480938
0.000496677
0.000481131
0.000494965
0.000484763
0.0004892
0.00049232
0.000480813
0.000499842
0.00047634
0.000499397
0.000483123
0.000485806
0.000502071
0.000464807
0.000521471
0.000451809
0.000525632
0.000457823
0.000509248
0.000480791
0.000480645
0.00051065
0.000453243
0.000529592
0.000451489
0.000506314
0.000502823
0.000428954
0.000592606
0.000351766
0.000635187
0.000344547
0.000579171
0.000410553
0.000458399
0.000564125
0.000158652
0.000156094
0.000150399
0.00014379
0.000134672
0.000123886
0.000114836
0.000108892
0.000106546
0.000108535
0.000113767
0.000121542
0.000132178
0.000145359
0.000161214
0.000179546
0.000200663
0.000224656
0.000251078
0.000279361
0.000309601
0.000341645
0.000375838
0.000411791
0.000446693
0.00047738
0.000506979
0.000534835
0.00056084
0.000581094
0.000598881
0.000614497
0.00062826
0.000640761
0.000652373
0.000663415
0.00067403
0.000684148
0.00069366
0.000702419
0.000710299
0.00071706
0.000722723
0.000727073
0.000730567
0.000732732
0.000734771
0.00073524
0.000736859
0.000735885
0.000738203
0.000735458
0.000739686
0.00073425
0.000741767
0.00073224
0.000744596
0.000729324
0.000748211
0.000725562
0.000752386
0.000721517
0.000756032
0.000719125
0.000756221
0.000722299
0.000748538
0.000734939
0.000731395
0.000754649
0.000712647
0.000767848
0.000709892
0.000756112
0.000737008
0.000715868
0.000784119
0.000670673
0.000817405
0.000655406
0.000807664
0.000686559
0.000756812
0.000748906
0.000688366
0.000815789
0.000633959
0.000840355
0.000654192
0.000760681
0.000788482
0.000585435
0.00095166
0.000452178
0.000968663
0.000523937
0.000775861
0.000809741
0.000455577
0.00117538
0.000159212
0.000156928
0.000154696
0.000152591
0.000150235
0.00014747
0.000144059
0.000140391
0.000136312
0.000132412
0.000128869
0.000124999
0.000121705
0.000119023
0.000117839
0.000118127
0.00012054
0.000125478
0.000133807
0.00014456
0.000158996
0.000176171
0.000196995
0.000220873
0.000249012
0.000280522
0.000315321
0.00035209
0.000388929
0.000422272
0.000454897
0.000486212
0.000516191
0.000544778
0.000572171
0.000599163
0.000626173
0.000653187
0.000679702
0.000704862
0.000727956
0.000748135
0.000765165
0.000778331
0.000788654
0.000795237
0.000801032
0.000802908
0.000807039
0.000805242
0.000810392
0.000804527
0.000813793
0.000802243
0.000818115
0.000798276
0.000823651
0.000792564
0.000830497
0.000785306
0.000838054
0.000777931
0.000843543
0.000774851
0.000840609
0.000784083
0.000821658
0.000812054
0.000787576
0.000850102
0.000756996
0.000864811
0.000761817
0.000829121
0.000824326
0.000750447
0.000908325
0.000674245
0.000946033
0.000664914
0.00090508
0.000738128
0.000805392
0.000858606
0.000688365
0.000969895
0.000606908
0.00097883
0.000677273
0.000808489
0.000927703
0.000502739
0.00116416
0.000332603
0.00113543
0.00051003
0.000800117
0.0009802
0.000286393
0.00137321
0.000159348
0.000157196
0.000155315
0.000153619
0.000152088
0.000150611
0.000149231
0.000147781
0.000146414
0.000144849
0.00014346
0.000141757
0.000140242
0.000138305
0.000136686
0.000134555
0.0001329
0.000130539
0.000128638
0.000126399
0.000125323
0.000124839
0.000126087
0.000128846
0.000134174
0.000142071
0.000153587
0.000167995
0.000186655
0.000207868
0.000232906
0.000259923
0.000289054
0.000319405
0.000351438
0.000380389
0.000409067
0.000439469
0.00047089
0.000501981
0.000531654
0.000558666
0.000582389
0.000601115
0.000616476
0.000626166
0.000635195
0.000637606
0.000644257
0.000640784
0.000649055
0.000639417
0.000653544
0.000635394
0.000659701
0.000629461
0.000667883
0.000621305
0.000677971
0.000611337
0.000688557
0.000602324
0.000694713
0.000601747
0.000686416
0.000621032
0.000653861
0.000665305
0.000603221
0.000714082
0.000569188
0.000721628
0.000595958
0.000654487
0.000694812
0.000540311
0.000803552
0.000461447
0.000832918
0.000480976
0.000750415
0.000598259
0.000601374
0.000756206
0.000451686
0.000878655
0.000383707
0.000845991
0.000516672
0.000588289
0.000848605
0.000261453
0.00109792
0.000144907
0.00100309
0.000369522
0.000608592
0.000886067
6.63221e-05
0.00120239
0.000159376
0.00015728
0.000155471
0.000153863
0.00015244
0.000151131
0.000149954
0.000148837
0.000147824
0.000146824
0.000145915
0.000144995
0.000144147
0.000143272
0.000142447
0.000141608
0.000140787
0.000139923
0.00013907
0.000138125
0.000137171
0.000136197
0.000135161
0.000134144
0.00013317
0.000132034
0.00013134
0.00013069
0.000131239
0.000132132
0.000135115
0.000139657
0.00014632
0.000154946
0.000165566
0.000178222
0.000193596
0.000212671
0.000235852
0.000262045
0.000289986
0.000317215
0.000343008
0.000364432
0.000383377
0.000395559
0.000404452
0.000405296
0.000412443
0.000406828
0.000416704
0.00040376
0.000420899
0.000398084
0.00042753
0.000390572
0.000437033
0.000380799
0.000448819
0.00036967
0.000460135
0.000361793
0.0004629
0.000367446
0.000444362
0.000398867
0.000398563
0.000454731
0.000340451
0.000499714
0.000323665
0.000480902
0.000380893
0.000386271
0.000498169
0.000269236
0.00058521
0.000222515
0.000563341
0.000284002
0.00046658
0.000410666
0.000326936
0.000562768
0.000186319
0.000641247
0.000160564
0.000572512
0.0003325
0.000331773
0.000580334
8.01771e-05
0.0006804
5.57005e-05
0.000745651
0.00018396
0.00047996
0.000567899
6.11928e-05
0.000867716
0.000159383
0.000157309
0.000155518
0.000153941
0.00015254
0.000151277
0.00015013
0.000149079
0.000148109
0.000147206
0.000146364
0.000145571
0.000144823
0.000144114
0.000143434
0.000142792
0.000142167
0.00014157
0.00014099
0.00014043
0.000139873
0.00013935
0.000138807
0.0001383
0.000137778
0.000137259
0.000136752
0.000136221
0.00013574
0.000135222
0.000134743
0.000134371
0.000134058
0.000133875
0.00013385
0.000133963
0.000134387
0.000135538
0.000138119
0.000142389
0.000148555
0.000155666
0.000163521
0.000170248
0.000176776
0.000180467
0.000184679
0.00018463
0.000187711
0.000184194
0.00018833
0.000181088
0.000188811
0.000176582
0.00019095
0.000170948
0.000195514
0.000163625
0.000202091
0.000155304
0.000208197
0.000150782
0.000207982
0.000159368
0.000193352
0.000185833
0.000160536
0.000217727
0.000125385
0.000231073
0.000130143
0.000208597
0.00018373
0.000150176
0.00023186
8.96751e-05
0.00024403
9.25085e-05
0.000234711
0.000137446
0.000217976
0.000181734
0.000159402
0.000236734
4.67011e-05
0.000278148
3.04655e-05
0.000280867
0.000136437
0.000207707
0.000223413
4.20924e-05
0.000245834
4.23715e-05
0.000338041
3.39191e-05
0.00038555
0.00020783
9.92512e-05
0.000384312
0.000159386
0.00015732
0.000155535
0.000153969
0.000152577
0.000151327
0.000150192
0.000149155
0.000148201
0.000147317
0.000146494
0.000145724
0.000145
0.000144318
0.000143672
0.000143059
0.000142475
0.000141919
0.000141386
0.000140877
0.000140385
0.000139916
0.000139456
0.000139018
0.00013859
0.00013818
0.000137781
0.000137391
0.000137011
0.000136639
0.000136279
0.000135938
0.000135612
0.000135299
0.000134993
0.000134681
0.000134373
0.000134085
0.000133901
0.00013381
0.000133932
0.000134052
0.000134293
0.000134267
0.000134349
0.000133898
0.000133782
0.000132937
0.000132878
0.000131813
0.000132132
0.000130815
0.000131898
0.000129806
0.000132526
0.000128263
0.000134348
0.000125575
0.000137321
0.000121967
0.000140334
0.000119692
0.000140764
0.000122769
0.000135095
0.000132841
0.000121855
0.000144733
0.000108864
0.000149477
0.000112496
0.000141258
0.000129768
0.000125599
0.000138447
0.000124536
0.000132672
0.000133543
0.000134136
0.000115968
0.000159996
9.67337e-05
0.000169031
0.000124557
9.65034e-05
0.00017121
3.06331e-05
0.000188522
7.37745e-05
0.000172706
0.0001184
0.000138568
0.000141897
7.16731e-05
0.000170182
3.43809e-05
0.000176901
0.000143726
4.96679e-05
0.000225275
0.000159387
0.000157324
0.000155542
0.00015398
0.000152592
0.000151346
0.000150217
0.000149185
0.000148236
0.000147359
0.000146543
0.00014578
0.000145064
0.000144389
0.000143752
0.000143149
0.000142576
0.000142029
0.000141508
0.000141011
0.000140534
0.000140077
0.000139635
0.00013921
0.000138801
0.000138408
0.000138029
0.00013766
0.000137299
0.000136949
0.000136612
0.000136292
0.000135984
0.000135679
0.000135375
0.000135065
0.000134767
0.000134476
0.000134238
0.000133996
0.000133837
0.000133575
0.000133441
0.000133024
0.000132921
0.000132285
0.000132376
0.00013157
0.000132085
0.000131186
0.000132218
0.000131265
0.000132717
0.00013163
0.000133479
0.000131804
0.000134634
0.000131219
0.000136401
0.000129772
0.000138353
0.000128597
0.000138809
0.000129927
0.000135726
0.000134923
0.000129535
0.000140876
0.000125074
0.000142177
0.000127505
0.00013691
0.000134053
0.000132066
0.000134982
0.000135715
0.000128762
0.00014074
0.000129481
0.000132486
0.000141781
0.000122991
0.000140456
0.000139371
0.000113031
0.000158377
0.000111461
0.000135915
0.000156422
9.48764e-05
0.000176061
9.95871e-05
0.000142201
0.000160999
7.6349e-05
0.000212649
5.32481e-05
0.000190874
7.01114e-05
0.00015342
0.000159388
0.000157326
0.000155546
0.000153985
0.000152599
0.000151355
0.000150227
0.000149198
0.000148252
0.000147377
0.000146563
0.000145803
0.00014509
0.000144419
0.000143785
0.000143185
0.000142615
0.000142073
0.000141556
0.000141063
0.00014059
0.000140137
0.0001397
0.000139279
0.000138875
0.000138488
0.000138115
0.000137752
0.000137397
0.000137052
0.000136722
0.000136408
0.000136106
0.000135808
0.000135508
0.000135204
0.000134909
0.000134628
0.000134387
0.000134154
0.000133963
0.000133714
0.000133502
0.000133144
0.000132897
0.000132439
0.000132273
0.00013184
0.000131913
0.000131639
0.000131994
0.000131922
0.000132439
0.000132522
0.000133021
0.000133162
0.000133553
0.000133624
0.00013399
0.000133807
0.000134386
0.000133749
0.000134686
0.000133799
0.000134399
0.00013473
0.000132844
0.000136818
0.000130737
0.000138176
0.000130983
0.000135942
0.000134913
0.000131465
0.000138379
0.00013006
0.000137775
0.000131343
0.000137431
0.000130209
0.000138499
0.000132366
0.000130749
0.000144395
0.000119102
0.000145393
0.000136239
0.000111026
0.000181188
6.63789e-05
0.00019568
7.66474e-05
0.000149567
0.000166253
6.73346e-05
0.000249069
1.37639e-05
0.000227702
4.61984e-05
0.000153565
0.000159388
0.000157326
0.000155546
0.000153985
0.000152599
0.000151355
0.000150227
0.000149198
0.000148252
0.000147377
0.000146563
0.000145803
0.00014509
0.000144419
0.000143785
0.000143185
0.000142615
0.000142073
0.000141556
0.000141063
0.00014059
0.000140137
0.0001397
0.000139279
0.000138875
0.000138488
0.000138115
0.000137752
0.000137397
0.000137052
0.000136722
0.000136408
0.000136106
0.000135808
0.000135508
0.000135204
0.000134909
0.000134628
0.000134386
0.000134154
0.000133962
0.000133716
0.000133501
0.000133151
0.000132892
0.000132455
0.000132257
0.000131874
0.000131874
0.000131701
0.000131921
0.000132019
0.000132334
0.000132637
0.000132918
0.000133248
0.000133495
0.000133668
0.000133926
0.000133955
0.000134079
0.00013427
0.000133966
0.000134566
0.000133875
0.000134594
0.000134024
0.000134449
0.000134054
0.000134688
0.000133575
0.000135191
0.000133445
0.000134571
0.000134958
0.000132472
0.000136768
0.00013203
0.00013469
0.00013746
0.000126045
0.000148636
0.000113556
0.000157847
0.000109126
0.000149841
0.000134296
0.000111985
0.000190564
5.68928e-05
0.000225896
3.30982e-05
0.000194943
9.58046e-05
0.000120651
0.00021964
4.45202e-05
0.000287364
3.0225e-05
0.000250365
0.000159387
0.000157324
0.000155543
0.00015398
0.000152592
0.000151346
0.000150217
0.000149185
0.000148237
0.000147359
0.000146543
0.00014578
0.000145064
0.00014439
0.000143753
0.000143149
0.000142576
0.000142029
0.000141508
0.000141011
0.000140534
0.000140076
0.000139635
0.000139209
0.0001388
0.000138407
0.000138028
0.000137659
0.000137298
0.000136947
0.000136611
0.00013629
0.000135982
0.000135679
0.000135375
0.000135066
0.000134766
0.000134481
0.000134237
0.000134015
0.000133841
0.000133629
0.000133445
0.000133137
0.000132893
0.000132484
0.000132262
0.000131887
0.000131825
0.000131647
0.000131785
0.000131871
0.000132107
0.000132397
0.000132616
0.000132942
0.000133147
0.000133305
0.000133593
0.000133491
0.000133858
0.000133642
0.000133888
0.000133854
0.000133749
0.000134079
0.000133596
0.000134197
0.000133607
0.000134017
0.000134064
0.000133189
0.000135401
0.000131279
0.000137925
0.000128268
0.000140666
0.000126669
0.000138741
0.000134568
0.00012372
0.000159433
9.35357e-05
0.000189433
6.55739e-05
0.000193386
7.76661e-05
0.00015208
0.000156258
8.09807e-05
0.000245196
2.40657e-05
0.000250118
2.88589e-05
0.000184375
0.000116488
0.000103528
0.000282155
1.91375e-05
0.000372582
0.000159386
0.00015732
0.000155535
0.00015397
0.000152577
0.000151327
0.000150192
0.000149156
0.0001482
0.000147318
0.000146493
0.000145725
0.000145
0.000144318
0.000143671
0.000143059
0.000142474
0.000141918
0.000141384
0.000140874
0.000140384
0.000139912
0.000139454
0.000139013
0.000138586
0.000138175
0.000137773
0.000137385
0.000137004
0.000136631
0.000136274
0.000135934
0.000135613
0.000135309
0.000135016
0.000134718
0.000134425
0.000134174
0.000134035
0.000134066
0.000134292
0.000134595
0.00013496
0.000135165
0.000135274
0.000135066
0.000134789
0.000134237
0.000133771
0.000133171
0.000132733
0.0001323
0.000131966
0.000131771
0.000131575
0.000131538
0.0001315
0.000131437
0.000131583
0.000131381
0.00013168
0.000131374
0.000131709
0.000131429
0.000131635
0.000131612
0.00013134
0.000132098
0.000130696
0.000132802
0.000130185
0.00013265
0.000131532
0.000129596
0.000137116
0.000122056
0.000146511
0.000111973
0.000151935
0.000110353
0.000141661
0.000136148
0.000110602
0.000185117
6.80181e-05
0.000213521
4.41743e-05
0.000191076
8.41591e-05
0.000131002
0.000190597
6.81155e-05
0.000265644
3.14351e-05
0.000247974
3.89707e-05
0.000186442
9.78433e-05
0.000117523
0.00024182
0.000159383
0.00015731
0.000155517
0.000153943
0.000152539
0.00015128
0.000150127
0.000149083
0.000148104
0.000147211
0.000146357
0.000145576
0.000144814
0.000144116
0.000143423
0.000142792
0.000142152
0.000141566
0.000140973
0.000140414
0.000139856
0.000139322
0.000138783
0.000138267
0.000137737
0.000137222
0.000136686
0.000136192
0.000135696
0.000135201
0.000134796
0.000134471
0.000134284
0.000134298
0.000134543
0.000135024
0.000135989
0.000137999
0.000141728
0.000147515
0.000155232
0.00016411
0.000173226
0.000181564
0.000188596
0.000193751
0.000197274
0.000199193
0.000200082
0.000200024
0.000199554
0.00019871
0.000197869
0.000197094
0.000196509
0.000196092
0.000195869
0.000195614
0.000195718
0.00019536
0.000195849
0.000195096
0.000196211
0.000194639
0.000196811
0.000194013
0.000197358
0.000193816
0.000196902
0.000195302
0.000194206
0.000199229
0.000189516
0.000203334
0.000187207
0.000201255
0.000195477
0.000187073
0.000216131
0.000164812
0.000232926
0.00015388
0.00022518
0.000176601
0.000192154
0.000224062
0.000154201
0.000256014
0.000134461
0.000249798
0.000148452
0.000216216
0.000195252
0.000177295
0.000244282
0.000145244
0.000268062
0.000123007
0.00026169
0.000119322
0.000159372
0.000157286
0.000155464
0.000153873
0.000152427
0.000151146
0.000149932
0.000148859
0.000147792
0.000146849
0.000145869
0.000145021
0.000144081
0.000143293
0.000142358
0.000141623
0.000140666
0.000139897
0.000138906
0.000138035
0.000136984
0.000136062
0.000134952
0.000134063
0.000132982
0.00013213
0.000131444
0.000131597
0.000132485
0.000134673
0.000138869
0.000145014
0.000153599
0.000164218
0.000176949
0.000191709
0.000209437
0.000231079
0.000256699
0.000285236
0.00031503
0.000344163
0.000370988
0.000394081
0.000410325
0.000419788
0.000426341
0.000430418
0.000432863
0.00043394
0.000434421
0.000434292
0.000434195
0.000433973
0.000434099
0.000434146
0.000434401
0.000434471
0.000434791
0.000434669
0.000435232
0.000434566
0.000435867
0.000433966
0.000436952
0.000432702
0.000438569
0.000431083
0.000439902
0.000430692
0.000438604
0.000434469
0.000431871
0.000444064
0.000420712
0.000454728
0.000413859
0.000454279
0.000423793
0.000434115
0.000452085
0.000403656
0.000479739
0.000385394
0.000483986
0.000394078
0.000461122
0.000426612
0.00042158
0.000468266
0.000383883
0.000499641
0.000365874
0.00049795
0.000385377
0.000457008
0.00044124
0.000386488
0.000501875
0.000346323
0.000159334
0.000157217
0.00015529
0.000153655
0.00015204
0.000150664
0.000149143
0.00014785
0.000146264
0.000144908
0.000143252
0.000141806
0.000139907
0.000138359
0.000136199
0.000134669
0.000132282
0.000130506
0.000128112
0.000126722
0.000125657
0.000126316
0.000128174
0.000132657
0.000139159
0.000149542
0.000162662
0.000180241
0.000200847
0.000225013
0.000252177
0.000281717
0.000313191
0.00034584
0.000376626
0.000404691
0.000434374
0.000465577
0.000497522
0.000529019
0.000558939
0.000586289
0.000609688
0.000628554
0.000643013
0.000653539
0.00066086
0.000665581
0.000668554
0.000670159
0.00067112
0.000671479
0.000671864
0.000672008
0.000672367
0.000672491
0.000672834
0.000672933
0.000673219
0.000673194
0.000673553
0.000673193
0.000673979
0.000672818
0.000674721
0.000671904
0.000676002
0.000670422
0.000677573
0.000669161
0.000677988
0.000670309
0.000674549
0.000676513
0.000665719
0.000686928
0.000655841
0.000693625
0.000655099
0.000686133
0.00067096
0.000663518
0.000696864
0.000639738
0.000714443
0.000631706
0.000711204
0.00064538
0.000686869
0.000677477
0.000649774
0.000715075
0.000619204
0.000732828
0.000618612
0.000713132
0.000653988
0.000665525
0.000705875
0.000617078
0.000159167
0.000156989
0.000154624
0.000152673
0.000150108
0.000147525
0.00014378
0.000140428
0.000135856
0.00013258
0.000128553
0.000125205
0.000121661
0.000119877
0.000118751
0.00012036
0.000123145
0.000130008
0.000138995
0.000152017
0.00016764
0.000187392
0.000209916
0.000236905
0.000267249
0.000301661
0.000338069
0.000377118
0.000411504
0.0004454
0.000478335
0.00051003
0.000540228
0.000568807
0.000596264
0.000623382
0.000650446
0.000677388
0.000703675
0.000728562
0.000751262
0.000771044
0.00078731
0.000799983
0.00080944
0.00081624
0.000820947
0.000823667
0.00082537
0.000826309
0.000826913
0.000827176
0.000827453
0.000827547
0.000827772
0.000827834
0.000828023
0.000828055
0.000828207
0.00082818
0.000828366
0.000828167
0.000828591
0.000827939
0.000829029
0.000827371
0.000829829
0.000826401
0.00083092
0.000825395
0.000831528
0.00082564
0.000829917
0.000829024
0.00082464
0.000835783
0.000817498
0.000841653
0.000814852
0.000839278
0.000822374
0.000825895
0.000839523
0.000808891
0.000853936
0.00079997
0.000855793
0.000803868
0.000842518
0.000823103
0.000817811
0.000851727
0.000793253
0.000869606
0.000784954
0.000861118
0.000802374
0.000827518
0.000838858
0.00078681
0.000158495
0.000156317
0.000150102
0.000144079
0.000134292
0.00012406
0.00011492
0.000109806
0.00010817
0.00011138
0.000117173
0.000126099
0.00013742
0.000151835
0.000168584
0.000188224
0.000210505
0.000236055
0.000263611
0.000293691
0.000325305
0.000359678
0.000395469
0.000433224
0.000465026
0.000495759
0.000524858
0.000552665
0.000576984
0.000596471
0.000613574
0.000628578
0.000642018
0.000654245
0.000665615
0.000676413
0.000686746
0.000696577
0.000705819
0.000714344
0.000721977
0.000728538
0.000733938
0.000738181
0.000741376
0.000743658
0.00074523
0.000746237
0.000746887
0.000747259
0.000747531
0.000747664
0.000747822
0.000747893
0.000748035
0.000748079
0.000748193
0.000748211
0.000748296
0.000748285
0.000748371
0.000748292
0.000748469
0.000748199
0.000748663
0.000747942
0.000749039
0.000747463
0.000749617
0.00074686
0.000750122
0.000746662
0.000749743
0.000747894
0.00074748
0.000751151
0.000743585
0.000754986
0.000740814
0.000755645
0.00074303
0.000750303
0.000750925
0.000741052
0.000759977
0.000733848
0.000764108
0.000733604
0.000760044
0.000741837
0.000747985
0.000756489
0.000732626
0.000770062
0.000723804
0.000771987
0.000729624
0.000759025
0.000749457
0.000738352
0.000160411
0.000142691
0.000113475
0.000104113
0.00010209
0.000110429
0.000119977
0.000139927
0.000152661
0.00016774
0.000185853
0.000206173
0.000227825
0.000250017
0.000272031
0.0002935
0.000313857
0.000332746
0.000349606
0.000364694
0.000377837
0.000389507
0.000399898
0.000409266
0.000418003
0.000426107
0.000433695
0.000440621
0.000447019
0.000452839
0.000458019
0.000462564
0.000466498
0.000469882
0.0004729
0.000475662
0.000478197
0.000480497
0.000482551
0.000484338
0.000485838
0.000487065
0.000488028
0.00048875
0.000489273
0.000489631
0.000489874
0.00049003
0.000490142
0.000490208
0.000490277
0.00049034
0.000490428
0.000490474
0.000490543
0.000490566
0.000490622
0.000490629
0.000490668
0.000490664
0.000490694
0.000490674
0.000490722
0.000490651
0.000490781
0.000490573
0.000490901
0.000490412
0.000491109
0.000490169
0.000491359
0.000489971
0.000491414
0.000490171
0.000490851
0.000491174
0.000489437
0.000492819
0.000487886
0.000493883
0.000487737
0.000492861
0.000490009
0.000489541
0.000493861
0.000485831
0.000496809
0.00048417
0.000496916
0.000485879
0.000493367
0.000491112
0.000486894
0.00049789
0.000480959
0.000502183
0.000479574
0.000501156
0.000484487
0.000496141
1.29787e-05
2.99844e-05
5.02198e-05
6.5134e-05
7.28922e-05
7.53169e-05
7.46142e-05
7.22896e-05
6.96075e-05
6.71307e-05
6.49353e-05
6.31812e-05
6.19183e-05
6.11405e-05
6.07953e-05
6.08115e-05
6.1069e-05
6.14664e-05
6.19063e-05
6.23431e-05
6.27358e-05
6.30751e-05
6.33607e-05
6.35901e-05
6.37869e-05
6.39606e-05
6.41202e-05
6.42641e-05
6.43917e-05
6.45062e-05
6.46076e-05
6.46976e-05
6.47741e-05
6.48366e-05
6.48884e-05
6.49307e-05
6.49629e-05
6.49843e-05
6.49956e-05
6.49993e-05
6.49986e-05
6.49947e-05
6.49894e-05
6.49842e-05
6.498e-05
6.49772e-05
6.49762e-05
6.49766e-05
6.49784e-05
6.4981e-05
6.49856e-05
6.49905e-05
6.49965e-05
6.50005e-05
6.50052e-05
6.50076e-05
6.50108e-05
6.50118e-05
6.50139e-05
6.50141e-05
6.50154e-05
6.5015e-05
6.50165e-05
6.50145e-05
6.50183e-05
6.50122e-05
6.5022e-05
6.50071e-05
6.5029e-05
6.49986e-05
6.50387e-05
6.49893e-05
6.50448e-05
6.49904e-05
6.50323e-05
6.50181e-05
6.49877e-05
6.50769e-05
6.4924e-05
6.51321e-05
6.48939e-05
6.51232e-05
6.49502e-05
6.50212e-05
6.50859e-05
6.48729e-05
6.52233e-05
6.47721e-05
6.52725e-05
6.47896e-05
6.51841e-05
6.49497e-05
6.49614e-05
6.52134e-05
6.46939e-05
6.54371e-05
6.45496e-05
6.54648e-05
6.46068e-05
6.525e-05
0.000577142
0.0014156
0.00191625
0.00309071
0.00436628
0.00455454
0.00481859
0.00538692
0.00349961
0.00181684
0.00096906
0.000568601
0.000418076
0.000423335
0.000385807
0.000353258
0.000321074
0.000285148
0.000257487
0.000243079
0.000237051
0.000232643
0.000226099
0.000217121
0.00020735
0.000198543
0.000191463
0.000185799
0.000180753
0.000175682
0.000170428
0.000165269
0.000160599
0.000156578
0.000153008
0.000149571
0.000146171
0.000142982
0.000140238
0.00013811
0.000136643
0.000135727
0.000135192
0.000134892
0.000134727
0.000134637
0.000134586
0.000134558
0.000134542
0.000134532
0.000134527
0.000134524
0.000134522
0.000134521
0.00013452
0.00013452
0.00013452
0.00013452
0.00013452
0.00013452
0.00013452
0.00013452
0.00013452
0.00013452
0.00013452
0.00013452
0.00013452
0.000134519
0.00013452
0.000134519
0.000134521
0.000134518
0.000134521
0.000134518
0.000134522
0.000134517
0.000134522
0.000134518
0.000134521
0.000134518
0.000134521
0.000134519
0.000134521
0.000134519
0.000134521
0.000134519
0.000134521
0.000134518
0.000134522
0.000134517
0.000134522
0.000134517
0.000134522
0.000134517
0.000134522
0.000134516
0.00013452
0.000134513
0.000134516
0.000134505
0.000325636
0.00116968
0.00157569
0.00253136
0.00376715
0.00393631
0.0047902
0.00473251
0.00267967
0.0013217
0.000700803
0.000479507
0.000428612
0.000406888
0.000373846
0.000345276
0.00031557
0.000281439
0.00025286
0.000235626
0.000227009
0.000221742
0.000216091
0.000208841
0.000200742
0.000193198
0.000187063
0.000182212
0.000177921
0.000173503
0.000168737
0.000163879
0.000159373
0.000155464
0.000152025
0.00014876
0.000145556
0.000142576
0.000140036
0.000138047
0.000136634
0.000135723
0.000135176
0.000134859
0.000134678
0.000134575
0.000134517
0.000134485
0.000134467
0.000134456
0.000134451
0.000134447
0.000134446
0.000134445
0.000134444
0.000134444
0.000134444
0.000134444
0.000134444
0.000134444
0.000134444
0.000134444
0.000134444
0.000134444
0.000134444
0.000134443
0.000134444
0.000134443
0.000134444
0.000134443
0.000134445
0.000134442
0.000134445
0.000134441
0.000134446
0.000134441
0.000134446
0.000134442
0.000134445
0.000134442
0.000134444
0.000134443
0.000134444
0.000134443
0.000134444
0.000134443
0.000134444
0.000134442
0.000134445
0.000134442
0.000134446
0.000134442
0.000134445
0.000134441
0.000134445
0.000134441
0.000134444
0.000134439
0.000134442
0.000134434
0.000201915
0.000922898
0.00107622
0.00185013
0.00301465
0.00316612
0.00413313
0.00365579
0.00182974
0.000839007
0.000452034
0.000424959
0.00042752
0.000415509
0.000407292
0.000359149
0.000321172
0.00028664
0.000257729
0.000237743
0.000225585
0.00021789
0.000211448
0.000204493
0.000196986
0.000189896
0.000184054
0.000179486
0.000175555
0.000171542
0.000167125
0.000162493
0.000158105
0.000154298
0.000151041
0.000148048
0.000145144
0.000142425
0.000140083
0.000138208
0.000136807
0.000135852
0.000135251
0.000134889
0.000134677
0.000134555
0.000134486
0.000134447
0.000134425
0.000134414
0.000134407
0.000134404
0.000134402
0.000134401
0.0001344
0.0001344
0.0001344
0.0001344
0.0001344
0.0001344
0.0001344
0.0001344
0.0001344
0.000134399
0.0001344
0.000134399
0.0001344
0.000134399
0.0001344
0.000134399
0.000134401
0.000134398
0.000134401
0.000134397
0.000134402
0.000134397
0.000134402
0.000134398
0.000134401
0.000134399
0.0001344
0.0001344
0.000134399
0.0001344
0.000134399
0.0001344
0.000134399
0.000134399
0.0001344
0.000134399
0.0001344
0.000134399
0.0001344
0.000134399
0.0001344
0.000134399
0.0001344
0.0001344
0.000134401
0.000134402
0.00015873
0.00104816
0.00062309
0.00106243
0.00207797
0.0022219
0.00319478
0.00234366
0.00102082
0.000389897
0.000364418
0.000439596
0.000400937
0.000417187
0.000404114
0.000355871
0.000314151
0.000281473
0.000256085
0.000237609
0.000224971
0.000216253
0.000209255
0.000202333
0.000195063
0.000188072
0.000182151
0.000177488
0.000173592
0.00016976
0.000165576
0.000161116
0.000156802
0.000153046
0.000149946
0.00014728
0.000144791
0.000142434
0.000140323
0.000138552
0.000137157
0.000136146
0.000135471
0.000135048
0.000134792
0.000134641
0.000134553
0.000134504
0.000134476
0.00013446
0.000134452
0.000134447
0.000134444
0.000134443
0.000134442
0.000134442
0.000134442
0.000134442
0.000134442
0.000134442
0.000134442
0.000134442
0.000134442
0.000134442
0.000134442
0.000134442
0.000134442
0.000134441
0.000134442
0.000134441
0.000134443
0.00013444
0.000134443
0.00013444
0.000134444
0.00013444
0.000134443
0.000134441
0.000134442
0.000134442
0.000134441
0.000134442
0.000134441
0.000134443
0.00013444
0.000134443
0.000134441
0.000134442
0.000134441
0.000134442
0.000134441
0.000134443
0.000134441
0.000134443
0.000134441
0.000134444
0.000134442
0.000134447
0.000134445
0.000134455
0.00010392
0.00109996
0.000489134
0.000736715
0.00113114
0.00124234
0.00195769
0.00101809
0.00031806
0.00017289
0.000423707
0.000441349
0.000364944
0.000405865
0.000404928
0.0003659
0.000320166
0.000284004
0.000257764
0.000239071
0.000225808
0.000216226
0.000208635
0.000201566
0.000194354
0.000187306
0.000181123
0.000176141
0.000172057
0.000168233
0.000164177
0.000159835
0.000155546
0.00015176
0.000148711
0.000146296
0.000144225
0.000142283
0.000140457
0.000138827
0.000137476
0.000136442
0.000135712
0.000135231
0.000134928
0.000134745
0.000134636
0.000134573
0.000134537
0.000134517
0.000134506
0.0001345
0.000134497
0.000134495
0.000134494
0.000134494
0.000134493