/*--------------------------------*- C++ -*----------------------------------*\
| =========                 |                                                 |
| \\      /  F ield         | OpenFOAM: The Open Source CFD Toolbox           |
|  \\    /   O peration     | Version:  v2012                                 |
|   \\  /    A nd           | Website:  www.openfoam.com                      |
|    \\/     M anipulation  |                                                 |
\*---------------------------------------------------------------------------*/
FoamFile
{
    version     2.0;
    format      ascii;
    class       volScalarField;
    location    "0.277";
    object      epsilon.air;
}
// * * * * * * * * * * * * * * * * * * * * * * * * * * * * * * * * * * * * * //

dimensions      [0 2 -3 0 0 0 0];


internalField   nonuniform List<scalar> 
1900
(
112.724
141.424
210.097
257.591
369.051
443.457
614.741
724.902
971.33
1128.61
15.4676
16.4471
18.6374
20.4504
23.7569
27.7283
31.9995
39.3107
44.9857
56.9843
14.7926
14.6415
14.5755
14.5063
14.515
14.5559
14.6443
14.8291
15.0761
15.4175
14.77
14.6304
14.4634
14.3354
14.1726
14.059
13.904
13.8079
13.6654
13.5937
14.7766
14.6216
14.4704
14.3205
14.1747
14.029
13.8889
13.7473
13.6138
13.477
14.7777
14.6206
14.4713
14.3197
14.1753
14.0285
13.8891
13.7473
13.6133
13.4774
14.7776
14.6208
14.473
14.3236
14.184
14.045
13.9175
13.7915
13.6807
13.5716
14.7756
14.6502
14.5638
14.5034
14.5111
14.55
14.6402
14.8186
15.0458
15.3948
15.2062
16.6081
18.273
20.6817
23.595
27.5691
32.2723
38.3961
45.5777
54.8015
105.864
146.673
198.302
265.857
349.979
456.117
585.654
743.695
931.835
1154.03
4102.23
15199.8
19564.3
22427.2
21098.5
18018.8
15093.4
12807.5
11310.1
10389.7
9885.26
9705.15
9526.15
9255.48
8849.19
8351.24
7796.91
7210.29
6644.46
6126.57
5649.57
5222.41
4837.89
4486.98
4167.61
3878.02
3615.41
3377.97
3162.33
2966.64
2788.49
2625.89
2477.11
2340.6
2215.17
2099.69
1993.19
1894.76
1803.63
1719.1
1640.58
1567.51
1499.43
1435.89
1376.51
1320.92
1268.81
1219.87
1173.83
1130.44
1089.47
1050.73
1014.04
979.216
946.139
914.66
884.68
856.071
828.764
802.637
777.652
753.687
730.735
708.665
687.506
667.111
647.552
628.657
610.548
593.014
576.233
559.939
544.379
529.215
514.777
500.632
487.219
473.986
461.514
449.095
437.495
425.808
415.033
404.008
394.031
383.608
374.415
364.533
356.118
346.707
339.069
330.042
323.188
314.441
308.387
299.794
294.568
285.991
281.615
271.293
113.049
337.817
517.691
921.784
1124.44
1150.19
1122.83
1059.71
1053.75
1092.95
1197.79
1410.88
1697.62
2028.22
2378.2
2691.82
2970.92
3202.64
3357.14
3433.88
3426.1
3387.2
3301.22
3183.8
3055.97
2924.77
2794.03
2667.56
2544.1
2426.74
2314.61
2207.58
2106.17
2010.21
1919.81
1834.69
1754.75
1679.47
1608.62
1541.88
1479.01
1419.71
1363.78
1310.97
1261.08
1213.9
1169.26
1126.98
1086.88
1048.79
1012.56
978.055
945.142
913.7
883.631
854.831
827.233
800.741
775.316
750.867
727.378
704.756
683.01
662.031
641.861
622.371
603.64
585.51
568.108
551.238
535.077
519.377
504.377
489.761
475.846
462.226
449.316
436.599
424.618
412.711
401.592
390.414
380.108
369.589
360.064
350.141
341.38
331.991
323.986
315.06
307.808
299.262
292.765
284.499
278.77
270.665
265.728
257.65
253.532
243.833
16.424
19.8711
22.8819
29.0843
34.7778
38.7371
41.7136
43.8011
46.7478
50.7662
58.8081
71.0524
95.7277
130.324
189.672
267.244
374.152
508.986
665.707
836.054
1004.55
1161.87
1301.01
1417.75
1508.91
1572.53
1610.97
1628.86
1626.37
1615.72
1592.84
1562.36
1527.77
1490.3
1451.57
1411.69
1371.79
1331.49
1291.7
1252.57
1214.16
1176.61
1140.06
1104.57
1070.19
1036.86
1004.68
973.571
943.521
914.504
886.475
859.378
833.174
807.804
783.247
759.446
736.397
714.045
692.405
671.421
651.121
631.444
612.432
594.004
576.221
558.978
542.367
526.246
510.748
495.691
481.254
467.202
453.777
440.674
428.208
415.986
404.42
393.005
382.272
371.583
361.626
351.589
342.363
332.913
324.388
315.465
307.624
299.172
292.007
283.967
277.475
269.773
263.957
256.504
251.373
244.066
239.64
232.366
228.666
219.94
13.4532
13.4608
13.5467
13.8029
14.3338
15.0054
15.7151
16.337
16.9214
17.3425
17.8997
18.3652
19.3175
20.4891
22.7702
26.2123
31.7915
40.7973
54.7343
76.0402
106.319
146.816
198.253
259.754
329.314
404.33
479.992
554.247
622.084
684.21
737.551
781.453
815.916
841.22
859.06
869.826
875.138
874.555
871.864
865.94
857.271
846.665
834.674
821.352
807.102
792.005
776.398
760.197
743.747
727.139
710.401
693.604
676.828
660.103
643.505
627.021
610.748
594.665
578.869
563.321
548.121
533.227
518.72
504.55
490.803
477.4
464.44
451.798
439.61
427.706
416.275
405.082
394.386
383.875
373.888
364.021
354.706
345.424
336.732
327.985
319.884
311.616
304.076
296.238
289.236
281.783
275.31
268.202
262.264
255.461
250.056
243.501
238.636
232.265
227.95
221.688
217.94
211.704
208.54
201.055
13.3298
13.159
13.0628
13.117
13.3053
13.7161
14.283
14.9068
15.4435
15.8796
16.2086
16.4406
16.6231
16.7663
16.9159
17.0842
17.3466
17.7216
18.3298
19.2899
20.8314
23.2267
26.7389
32.0511
39.6097
50.4202
64.766
83.3958
106.234
133.472
164.341
197.893
233.225
268.731
303.761
336.622
367.46
395.265
419.918
441.055
458.784
473.075
484.43
492.875
498.858
502.533
504.369
504.103
502.962
500.459
496.697
492.006
486.562
480.449
473.806
466.693
459.271
451.523
443.64
435.552
427.467
419.28
411.148
403.052
395.088
387.192
379.45
371.762
364.26
356.802
349.573
342.355
335.424
328.453
321.832
315.113
308.805
302.342
296.348
290.116
284.419
278.39
272.983
267.134
262.021
256.336
251.527
245.992
241.492
236.084
231.92
226.629
222.826
217.625
214.205
209.059
206.043
200.909
198.314
192.138
13.325
13.1543
13.0318
13.0866
13.2958
13.772
14.4968
15.4818
16.5007
17.5991
18.5946
19.5235
20.2683
20.8782
21.2997
21.6046
21.7752
21.8466
21.8317
21.7871
21.6939
21.6018
21.5322
21.5578
21.6635
21.9213
22.4513
23.364
24.8065
27.0115
30.2346
34.7105
40.7604
48.4547
57.9667
69.2825
82.4145
97.0667
113.104
130.002
147.498
165.01
182.305
198.935
214.717
229.325
242.768
254.836
265.648
275.217
283.583
290.84
297.062
302.363
306.793
310.433
313.383
315.639
317.355
318.425
319.146
319.149
318.94
318.408
317.376
315.992
314.314
312.344
310.169
307.738
305.17
302.359
299.5
296.354
293.318
289.904
286.729
283.118
279.851
276.088
272.764
268.873
265.53
261.535
258.211
254.135
250.868
246.734
243.568
239.399
236.373
232.184
229.338
225.14
222.509
218.307
215.923
211.722
209.613
204.562
13.4657
13.3602
13.4098
13.6562
14.304
15.6864
18.0262
21.4285
25.3973
29.6999
33.6074
37.0836
39.6297
41.5502
42.6077
43.3325
43.3661
43.2343
42.8892
42.3863
41.7802
41.1628
40.5005
39.8993
39.357
38.8889
38.5151
38.2266
38.1064
38.159
38.3334
38.7272
39.3251
40.2675
41.5635
43.279
45.5969
48.4925
52.2654
56.8563
62.5896
69.4046
77.497
86.8068
97.3577
109.067
121.757
135.327
149.467
164.075
178.786
193.499
207.87
221.856
235.186
247.881
259.732
270.797
280.936
290.21
298.565
306.058
312.665
318.484
323.491
327.737
331.248
334.054
336.189
337.794
338.773
339.319
339.251
338.93
338.282
336.995
335.828
333.91
332.306
329.897
327.938
325.122
322.898
319.751
317.341
313.926
311.396
307.768
305.187
301.404
298.84
294.956
292.469
288.529
286.173
282.217
280.04
276.109
274.169
269.539
15.91
16.8588
18.5483
21.9335
28.4093
39.4899
55.4351
74.9753
95.4351
114.239
129.235
140.189
146.58
150.076
150.737
150.343
149.304
147.639
146.124
145.144
144.507
144.679
145.296
146.739
148.991
152.297
156.21
161.167
166.918
173.885
181.638
190.63
200.448
211.451
223.491
236.511
250.754
265.715
281.765
298.255
315.573
333.221
351.308
369.447
387.472
405.282
422.587
439.531
455.815
471.576
486.568
500.864
514.293
527.017
538.849
550.014
560.237
569.726
578.228
585.846
592.49
598.201
602.996
606.819
609.767
611.712
612.899
612.878
612.443
611.364
609.448
606.945
604.009
600.456
596.841
592.483
588.475
583.569
579.292
574.055
569.609
564.126
559.607
553.96
549.452
543.699
539.263
533.455
529.161
523.359
519.283
513.542
509.743
504.102
500.63
495.118
492.032
486.679
484.086
478.052
68.0409
90.4343
126.227
184.919
271.967
385.072
511.459
635.571
744.863
831.749
892.596
932.574
953.583
963.349
964.538
963.441
960.955
957.142
956.293
957.497
960.655
966.281
974.74
986.603
1000.62
1016.74
1034.84
1055.11
1077.46
1101.35
1126.35
1152.3
1178.84
1205.93
1233.21
1260.1
1286.68
1311.97
1336.46
1359.33
1381.17
1401.3
1420.11
1437.26
1452.9
1467.05
1479.72
1491.16
1501.23
1510.1
1517.66
1523.87
1528.78
1532.33
1534.67
1535.55
1535.17
1533.91
1531.28
1527.2
1522.34
1516.12
1509.47
1501.43
1493.09
1483.56
1473.34
1462.45
1451.17
1439.15
1427.01
1414.09
1401.42
1387.9
1375.05
1361.31
1348.56
1334.91
1322.48
1309.08
1297.1
1284.01
1272.58
1259.89
1249.1
1236.85
1226.74
1214.94
1205.58
1194.26
1185.73
1174.88
1167.22
1156.81
1150.03
1140.04
1134.19
1124.58
1119.86
1109.28
1464.69
1897.22
2399.01
2961.94
3563.11
4171.89
4746.07
5251.14
5655.25
5950.78
6132.44
6219.47
6206.89
6159.98
6061.07
5927.87
5777.7
5619.31
5459.3
5301.63
5149.46
5004.55
4867.76
4739.77
4620.62
4510.59
4409.12
4316.14
4231.11
4153.83
4083.71
4020.41
3963.23
3912.02
3866.29
3825.73
3789.99
3758.48
3731.14
3707.4
3687.37
3670.23
3655.98
3643.85
3633.94
3625.61
3618.86
3613.23
3608.73
3605.07
3602.28
3600.15
3598.71
3597.86
3597.87
3598.15
3598.88
3600.05
3601.51
3602.82
3604.52
3605.74
3607.29
3608.27
3609.36
3609.92
3610.23
3610.15
3609.79
3608.89
3607.73
3605.39
3603.08
3599.12
3595.38
3589.75
3584.6
3577.42
3570.96
3562.41
3554.9
3545.19
3536.86
3526.18
3517.2
3505.58
3496.02
3483.44
3473.39
3459.85
3449.48
3434.97
3424.57
3409.09
3399.03
3382.6
3373.23
3355.9
3347.1
3325.06
1109.43
1064.74
1122.21
1210.08
1238.81
1121.14
818.452
1979.82
54649.6
16140.7
7360.08
6109.47
6235.06
6485.35
6556.06
8029.98
74287.2
43685.9
24866.3
18479.9
16107.7
15004.7
14631.8
19677.3
76414.7
71050.5
54281.4
41216.8
32698.6
27163.6
24548
34068.9
69726.5
75706.4
67750.4
55650.8
44565.1
35839.2
30859.2
42695.4
57759.9
71171.3
67936.7
59030.6
48367.3
38725.7
32776.1
45211.5
47497.5
61830.1
62481.9
56603
47157.9
38171.3
32447.6
44231.4
39103.4
51823.4
53584
49834.7
42392.9
34676.1
29593.9
39765.4
32638.9
42994.4
44923.2
42135
36305.1
30047.5
25828.7
34056.3
27613.6
35629
37262.9
35120.8
30549.8
25565
22233.9
29394.2
23491.9
29590.4
30830.6
29129.8
25540.1
21642.5
19169.1
26036.6
20108.2
24699
25579.9
24190.9
21348
18306.3
16504.1
22996.6
17368.7
20783.8
21372.7
20214.8
17944.2
15560.9
14270.9
20372.4
15136.1
17658.2
18024.8
17044.8
15215.9
13334.7
12430.3
18160.6
13287.2
15148.4
15355.1
14518.7
13031.8
11536.5
10924.6
16323.9
11727.4
13107.6
13205.2
12488.4
11270.3
10075.5
9687.87
14796.1
10405.1
11436.9
11461.2
10844.4
9839.15
8880.04
8666.2
13521.1
9267.32
10050.5
10031
9497.73
8663.74
7892.32
7814.98
12449.6
8286.11
8889.48
8845.38
8382.97
7688.03
7067.78
7097.91
11540.3
7443.46
7912.02
7853.52
7451.87
6870.29
6372.69
6486.66
10761.5
6716.69
7083.79
7017.38
6667.74
6178.98
5781.24
5962.48
10088.1
6090.03
6378.61
6308.18
6002.77
5590.3
5274.18
5509.59
9500.71
5547.56
5774.92
5703.04
5435.34
5085.94
4836.88
5115.98
8985.32
5073.68
5253.94
5182.75
4947.57
4650.91
4457.49
4772.1
8530.8
4657.42
4801.34
4732.3
4525.36
4273.21
4126.39
4470.14
8127.98
4290.18
4405.92
4340.01
4157.73
3943.44
3835.96
4203.77
7769.62
3964.77
4058.54
3996.4
3835.79
3653.92
3579.88
3967.68
7449.51
3675.7
3752.06
3693.97
3552.45
3398.5
3353.04
3757.52
7162.35
3417.7
3480.31
3426.42
3301.79
3172.05
3151.18
3569.7
6903.94
3186.82
3238.41
3188.71
3079.05
2970.41
2970.91
3401.25
6670.87
2979.33
3022.14
2976.58
2880.28
2790.17
2808.91
3249.84
6460.17
2792.21
2828
2786.46
2702.11
2628.32
2662.99
3113.16
6269.29
2622.85
2653.02
2615.36
2541.76
2482.41
2531.11
2989.33
6095.94
2469.02
2494.71
2460.78
2396.88
2350.36
2411.52
2876.78
5938.08
2328.87
2350.99
2320.62
2265.5
2230.45
2302.71
2774.16
5793.92
2200.82
2220.11
2193.13
2145.96
2121.2
2203.38
2680.31
5661.83
2083.55
2100.59
2076.83
2036.88
2021.37
2112.45
2594.23
5540.4
1975.88
1991.16
1970.45
1937.07
1929.9
2029
2515.08
5428.4
1876.81
1890.72
1872.91
1845.53
1845.92
1952.23
2442.14
5324.87
1785.45
1798.35
1783.29
1761.4
1768.55
1881.52
2374.82
5228.95
1701.05
1713.21
1700.76
1683.91
1697.17
1816.24
2312.59
5139.99
1622.93
1634.59
1624.61
1612.39
1631.24
1755.86
2255.01
5057.43
1550.49
1561.84
1554.2
1546.26
1570.23
1699.94
2201.67
4980.84
1483.19
1494.4
1488.98
1484.98
1513.66
1648.05
2152.21
4909.81
1420.57
1431.76
1428.45
1428.11
1461.12
1599.83
2106.31
4843.97
1362.18
1373.46
1372.16
1375.17
1412.26
1554.97
2063.68
4783
1307.66
1319.09
1319.7
1325.82
1366.71
1513.15
2024.02
4726.53
1256.62
1268.29
1270.71
1279.76
1324.18
1474.1
1987.11
4674.21
1208.78
1220.73
1224.87
1236.66
1284.38
1437.56
1952.66
4625.65
1163.84
1176.12
1181.9
1196.27
1247.06
1403.32
1920.49
4580.52
1121.54
1134.2
1141.55
1158.34
1212.01
1371.15
1890.36
4538.42
1081.67
1094.74
1103.59
1122.66
1179.04
1340.91
1862.11
4499.06
1044.02
1057.53
1067.83
1089.04
1147.96
1312.4
1835.54
4462.09
1008.4
1022.39
1034.07
1057.32
1118.63
1285.51
1810.54
4427.27
974.675
989.164
1002.18
1027.34
1090.9
1260.07
1786.94
4394.36
942.677
957.69
971.989
998.969
1064.65
1236.01
1764.66
4363.18
912.294
927.849
943.385
972.086
1039.78
1213.2
1743.58
4333.64
883.386
899.5
916.232
946.573
1016.16
1191.56
1723.64
4305.56
855.869
872.554
890.441
922.341
993.734
1171
1704.74
4278.96
829.612
846.877
865.883
899.276
972.386
1151.45
1686.82
4253.66
804.563
822.416
842.505
877.324
952.07
1132.86
1669.84
4229.81
780.592
799.037
820.177
856.366
932.68
1115.14
1653.73
4207.15
757.683
776.722
798.883
836.387
914.205
1098.27
1638.47
4185.91
735.696
755.328
778.482
817.256
896.523
1082.15
1623.97
4165.73
714.656
734.882
759.003
799.002
879.664
1066.81
1610.26
4146.92
694.406
715.221
740.284
781.468
863.483
1052.12
1597.22
4129
675.018
696.421
722.403
764.737
848.054
1038.15
1584.91
4112.39
656.308
678.289
705.163
748.611
833.195
1024.73
1573.18
4096.46
638.402
660.956
688.702
733.23
819.039
1011.97
1562.11
4081.77
621.071
644.182
672.769
718.339
805.341
999.664
1551.51
4067.51
604.504
628.164
657.573
704.156
792.314
987.987
1541.54
4054.45
588.414
612.597
642.789
690.342
779.621
976.631
1531.91
4041.52
573.062
597.76
628.717
677.217
767.586
965.901
1522.9
4029.84
558.081
583.258
614.934
664.327
755.742
955.335
1514.05
4017.92
543.828
569.476
601.858
652.131
744.572
945.425
1505.86
4007.4
529.833
555.906
588.936
640.021
733.426
935.488
1497.6
3996.15
516.574
543.069
576.743
628.64
723.01
926.285
1490.11
3986.58
503.448
530.31
564.556
617.182
712.426
916.826
1482.25
3975.65
491.093
518.328
553.157
606.53
702.679
908.248
1475.37
3966.89
478.737
506.278
541.603
595.616
692.544
899.133
1467.73
3955.95
467.219
495.086
530.937
585.638
683.417
891.136
1461.43
3947.87
455.551
483.665
519.938
575.189
673.642
882.257
1453.85
3936.67
444.827
473.225
509.972
565.858
665.116
874.831
1448.12
3929.2
433.782
462.373
499.469
555.818
655.643
866.121
1440.51
3917.61
423.831
452.668
490.193
547.13
647.721
859.275
1435.36
3910.71
413.354
442.334
480.144
537.464
638.526
850.716
1427.7
3898.82
404.166
433.359
471.556
529.422
631.214
844.459
1423.13
3892.48
394.201
423.497
461.926
520.112
622.299
836.086
1415.52
3880.57
385.774
415.252
454.028
512.719
615.601
830.416
1411.51
3874.75
376.255
405.805
444.775
503.743
606.977
822.289
1404.11
3863.22
368.593
398.296
437.575
497.006
600.896
817.205
1400.61
3857.84
359.44
389.191
428.638
488.327
592.558
809.371
1393.6
3847.01
352.549
382.427
422.145
482.251
587.092
804.854
1390.49
3842.11
343.661
373.572
413.448
473.814
579.025
797.364
1384.08
3832.17
337.558
367.567
407.669
468.396
574.152
793.364
1381.34
3827.71
328.815
358.851
399.115
460.128
566.318
786.235
1375.54
3818.73
323.527
353.625
394.06
455.358
561.995
782.659
1373.05
3814.48
314.793
344.92
385.533
447.16
554.322
775.866
1367.82
3806.54
310.335
340.479
381.191
443.004
550.479
772.571
1365.46
3802.59
299.786
329.925
370.807
432.974
541.056
764.234
1358.91
3793.68
)
;

boundaryField
{
    frontAndBack
    {
        type            empty;
    }
    inlet
    {
        type            fixedValue;
        value           uniform 14.855;
    }
    outlet
    {
        type            zeroGradient;
    }
    walls
    {
        lowReCorrection 0;
        blending        stepwise;
        n               2;
        type            epsilonWallFunction;
        value           nonuniform List<scalar> 
228
(
112.724
141.424
210.097
257.591
369.051
443.457
614.741
724.902
971.33
1128.61
1109.43
1064.74
1122.21
1210.08
1238.81
1121.14
818.452
1979.82
1979.82
8029.98
19677.3
34068.9
42695.4
45211.5
44231.4
39765.4
34056.3
29394.2
26036.6
22996.6
20372.4
18160.6
16323.9
14796.1
13521.1
12449.6
11540.3
10761.5
10088.1
9500.71
8985.32
8530.8
8127.98
7769.62
7449.51
7162.35
6903.94
6670.87
6460.17
6269.29
6095.94
5938.08
5793.92
5661.83
5540.4
5428.4
5324.87
5228.95
5139.99
5057.43
4980.84
4909.81
4843.97
4783
4726.53
4674.21
4625.65
4580.52
4538.42
4499.06
4462.09
4427.27
4394.36
4363.18
4333.64
4305.56
4278.96
4253.66
4229.81
4207.15
4185.91
4165.73
4146.92
4129
4112.39
4096.46
4081.77
4067.51
4054.45
4041.52
4029.84
4017.92
4007.4
3996.15
3986.58
3975.65
3966.89
3955.95
3947.87
3936.67
3929.2
3917.61
3910.71
3898.82
3892.48
3880.57
3874.75
3863.22
3857.84
3847.01
3842.11
3832.17
3827.71
3818.73
3814.48
3806.54
3802.59
3793.68
105.864
146.673
198.302
265.857
349.979
456.117
585.654
743.695
931.835
1154.03
1464.69
1897.22
2399.01
2961.94
3563.11
4171.89
4746.07
5251.14
5655.25
5950.78
6132.44
6219.47
6206.89
6159.98
6061.07
5927.87
5777.7
5619.31
5459.3
5301.63
5149.46
5004.55
4867.76
4739.77
4620.62
4510.59
4409.12
4316.14
4231.11
4153.83
4083.71
4020.41
3963.23
3912.02
3866.29
3825.73
3789.99
3758.48
3731.14
3707.4
3687.37
3670.23
3655.98
3643.85
3633.94
3625.61
3618.86
3613.23
3608.73
3605.07
3602.28
3600.15
3598.71
3597.86
3597.87
3598.15
3598.88
3600.05
3601.51
3602.82
3604.52
3605.74
3607.29
3608.27
3609.36
3609.92
3610.23
3610.15
3609.79
3608.89
3607.73
3605.39
3603.08
3599.12
3595.38
3589.75
3584.6
3577.42
3570.96
3562.41
3554.9
3545.19
3536.86
3526.18
3517.2
3505.58
3496.02
3483.44
3473.39
3459.85
3449.48
3434.97
3424.57
3409.09
3399.03
3382.6
3373.23
3355.9
3347.1
3325.06
)
;
    }
}


// ************************************************************************* //
