/*--------------------------------*- C++ -*----------------------------------*\
| =========                 |                                                 |
| \\      /  F ield         | OpenFOAM: The Open Source CFD Toolbox           |
|  \\    /   O peration     | Version:  v2012                                 |
|   \\  /    A nd           | Website:  www.openfoam.com                      |
|    \\/     M anipulation  |                                                 |
\*---------------------------------------------------------------------------*/
FoamFile
{
    version     2.0;
    format      ascii;
    class       volScalarField;
    location    "0.277";
    object      omega.air;
}
// * * * * * * * * * * * * * * * * * * * * * * * * * * * * * * * * * * * * * //

dimensions      [0 0 -1 0 0 0 0];


internalField   nonuniform List<scalar> 
5600
(
6586.18
7485.62
7886.68
7965.22
7866.37
7687.48
7481.03
7289.96
7125.44
6987.6
6879.1
6796.05
6736.52
6693.17
6663.94
6642.13
6627.28
6614.71
6605.46
6596.37
6589.69
6582.53
6577.94
6573.02
6570.53
6567.58
6566.32
6564.68
6564
6562.81
6562.12
6560.6
6559.64
6557.63
6556.51
6554.28
6553.07
6550.81
6549.57
6547.44
6546.29
6544.34
6543.43
6541.67
6541.09
6539.57
6539.27
6538.01
6537.93
6536.77
6536.89
6535.89
6536.2
6535.3
6535.86
6535.08
6535.91
6535.27
6536.33
6535.88
6537.22
6536.84
6538.48
6538.17
6540.09
6539.84
6542.02
6541.82
6544.28
6544.07
6546.86
6546.61
6549.75
6549.44
6552.94
6552.53
6556.42
6555.9
6560.13
6559.52
6564
6563.42
6567.91
6567.62
6571.71
6572.32
6575.04
6578.03
6577.19
6585.9
6576.72
6598.41
6569.22
6622.76
6540.73
6683.32
6440.86
6867.74
6039.37
7491.44
2450.5
2296.71
2571.5
2795.25
2927.9
2998.33
3009.92
2968.45
2968.8
3017.5
3073.25
3119.25
3146.93
3158.69
3154.69
3140.62
3118.15
3091.31
3062.08
3032.53
3003.21
2973.95
2945
2916.53
2889.2
2863.34
2839.63
2817.54
2797.52
2778.66
2761.94
2745.94
2732.09
2718.67
2707.18
2696
2686.38
2677.02
2668.94
2661.09
2654.28
2647.65
2641.88
2636.28
2631.29
2626.31
2621.9
2617.4
2613.46
2609.56
2606.05
2602.57
2599.54
2596.51
2593.88
2591.24
2588.99
2586.7
2584.8
2582.73
2581.11
2579.33
2577.93
2576.38
2575.18
2573.83
2572.8
2571.63
2570.71
2569.77
2568.98
2568.19
2567.52
2566.89
2566.35
2565.86
2565.42
2565.06
2564.68
2564.45
2564.07
2564.03
2563.57
2563.83
2563.15
2563.98
2562.68
2564.67
2561.83
2566.33
2559.43
2570.71
2552.92
2582.28
2534.89
2614.44
2478.75
2714.94
2280.11
3065.83
2358.54
1859.95
1592.09
1427.92
1345.86
1274.12
1279.72
1309.33
1351.73
1412.68
1482.07
1549.76
1610.94
1664.09
1704.71
1733.51
1748.97
1752.54
1744.18
1726.51
1702.25
1676.78
1653.54
1634.91
1619.45
1605.82
1593.23
1581.8
1571.23
1561.02
1551.16
1540.95
1531.33
1521.66
1512.9
1504.18
1496.39
1488.69
1481.87
1475.15
1469.21
1463.34
1458.13
1452.87
1448.28
1443.64
1439.61
1435.49
1431.93
1428.3
1425.17
1421.96
1419.24
1416.42
1414.07
1411.57
1409.54
1407.32
1405.55
1403.53
1401.98
1400.15
1398.78
1397.1
1395.91
1394.35
1393.32
1391.89
1391
1389.72
1388.94
1387.8
1387.13
1386.11
1385.52
1384.63
1384.09
1383.32
1382.76
1382.2
1381.5
1381.28
1380.25
1380.66
1378.91
1380.49
1377.24
1381.11
1374.77
1383.18
1370.41
1388.25
1361.88
1399.91
1343.84
1425.59
1305.19
1478.16
1229.78
1555.52
2345.16
1822.38
1493.2
1267.69
1111.1
992.693
906.761
847.077
802.462
776.936
760.213
769.524
791.491
824.166
860.79
902.361
941.122
978.796
1011.08
1039.79
1061.28
1079.23
1091.58
1100.94
1105.76
1107.09
1103.67
1097.06
1087.66
1078.03
1068.46
1060.74
1053.92
1048.06
1042.52
1037.33
1032.5
1027.85
1023.55
1019.23
1015.11
1010.64
1006.17
1001.44
997.002
992.451
988.344
984.172
980.467
976.726
973.436
970.11
967.212
964.261
961.699
959.001
956.656
954.142
951.983
949.626
947.635
945.428
943.61
941.552
939.899
937.984
936.496
934.727
933.401
931.769
930.577
929.095
928.012
926.659
925.643
924.416
923.429
922.399
921.379
920.623
919.419
919.101
917.482
917.904
915.465
917.166
913.188
917.104
910.339
918.087
906.394
920.753
900.556
926.096
891.892
934.429
880.96
941.872
875.58
926.426
2341.96
1815.98
1479.8
1247.94
1079.71
952.581
853.183
774.622
710.643
658.885
616.122
581.918
556.207
536.188
523.509
514.876
513.65
521.056
532.145
549.358
568.518
591.954
616.193
642.08
667.252
691.995
713.925
733.274
748.171
760.957
769.63
777.546
782.076
786.122
787.263
787.734
785.89
783.518
779.53
775.79
771.204
767.628
764.165
761.331
758.415
755.726
753.031
750.451
747.96
745.567
743.327
741.132
739.055
736.95
734.799
732.423
730.118
727.669
725.388
722.982
720.793
718.484
716.424
714.252
712.343
710.315
708.566
706.7
705.107
703.376
701.902
700.263
698.85
697.299
695.911
694.478
693.07
691.809
690.343
689.355
687.733
687.149
685.211
685.239
682.713
683.696
680.155
682.576
677.45
681.958
674.507
681.855
671.355
682.03
668.547
681.352
667.755
677.071
671.86
664.947
2341.13
1814.13
1476.76
1243.88
1074.18
945.307
844.364
763.089
696.657
640.938
594.281
553.934
519.743
489.829
464.145
441.948
422.551
406.998
393.516
383.395
375.389
370.199
367.575
368.768
373.269
381.28
391.349
405.515
419.717
438.02
454.347
473.948
490.88
509.289
524.701
540.173
552.394
564.094
572.364
580.5
585.486
590.778
593.844
597.322
598.952
600.751
600.95
601.289
600.186
599.33
597.282
595.614
593.212
591.215
589.075
587.469
585.723
584.278
582.7
581.29
579.821
578.422
577.06
575.695
574.451
573.15
572.015
570.789
569.686
568.478
567.288
565.906
564.578
563.164
561.762
560.407
558.939
557.694
556.13
555.08
553.385
552.623
550.73
550.366
548.163
548.323
545.672
546.485
543.273
544.821
541.001
543.219
538.953
541.411
537.396
539.009
536.602
535.832
535.98
532.468
2340.86
1813.43
1475.76
1242.58
1072.64
943.396
842.187
760.483
693.659
637.428
590.139
549.149
513.93
482.863
455.603
431.376
409.752
390.354
373.115
357.22
343.546
330.459
319.59
309.262
300.748
293.426
286.925
282.666
278.532
277.093
276.458
278.368
281.909
287.101
294.207
302.906
312.512
324.295
335.298
348.746
360.366
374.081
385.555
398.315
408.924
420.257
429.181
438.713
445.592
452.966
457.77
462.951
466.097
469.48
471.435
473.83
475.073
476.702
477.296
478.187
478.23
478.472
478.036
477.693
476.84
476.057
474.955
473.867
472.73
471.546
470.527
469.555
468.666
467.791
466.918
466.107
465.204
464.469
463.475
462.843
461.722
461.236
459.97
459.684
458.253
458.17
456.552
456.646
454.838
455.069
453.106
453.392
451.344
451.487
449.463
449.37
447.347
447.287
444.502
445.283
2340.76
1813.12
1475.34
1242.04
1072.03
942.679
841.405
759.609
692.687
636.383
588.959
547.875
512.527
481.25
453.915
429.268
407.602
387.575
370.117
353.453
339.136
325.13
313.095
301.338
290.992
281.13
272.236
263.78
256.448
248.865
243.288
236.459
232.479
226.792
223.909
219.985
217.936
215.976
215.234
215.17
216.67
218.296
222.069
225.629
231.211
237.025
243.96
251.687
259.747
268.596
277.414
286.651
295.707
304.909
313.431
322.06
329.818
337.682
344.528
351.283
357.124
362.717
367.509
371.856
375.496
378.666
381.362
383.467
385.381
386.675
388.071
388.992
390.049
390.629
391.344
391.614
392.013
392.05
392.109
391.952
391.654
391.335
390.7
390.29
389.357
388.921
387.712
387.244
385.79
385.317
383.665
383.251
381.442
381.092
379.114
378.782
376.45
376.284
373.337
373.302
2340.71
1812.96
1475.14
1241.78
1071.74
942.361
841.041
759.249
692.256
635.979
588.473
547.403
512.01
480.679
453.368
428.601
406.974
386.851
369.318
352.686
338.115
324.221
311.869
300.088
289.566
279.307
270.443
261.212
253.868
245.395
239.286
231.602
226.298
219.555
214.761
208.895
204.69
199.33
196.045
190.88
188.619
183.783
182.269
178.144
177.126
173.876
173.546
171.065
171.686
170.072
171.939
171.386
174.291
175.036
179.023
181.107
186.096
189.372
195.358
199.706
206.447
211.609
218.851
224.588
232.019
237.971
245.391
251.288
258.354
263.829
270.297
275.323
281.115
285.605
290.65
294.532
298.82
302.12
305.598
308.287
310.964
313.051
314.91
316.454
317.554
318.658
319.099
319.774
319.613
319.947
319.302
319.472
318.499
318.581
317.31
317.151
315.466
315.097
313.025
312.224
2340.69
1812.88
1475.03
1241.68
1071.59
942.237
840.857
759.114
692.044
635.827
588.246
547.224
511.773
480.475
453.108
428.395
406.66
386.666
368.942
352.504
337.708
323.989
311.475
299.769
289.177
278.92
269.986
260.823
253.229
245.048
238.406
231.212
225.216
218.916
213.516
207.812
203.141
197.742
193.822
188.697
185.295
180.621
177.493
173.316
170.479
166.591
164.224
160.49
158.579
155.059
153.513
150.342
149.086
146.224
145.376
142.833
142.427
140.201
140.217
138.514
138.954
137.792
138.643
138.179
139.633
139.869
141.791
142.75
145.18
146.926
149.82
152.152
155.44
158.332
161.94
165.347
169.111
172.87
176.711
180.677
184.534
188.608
192.362
196.415
199.951
203.833
207.101
210.735
213.672
216.987
219.498
222.355
224.416
226.682
228.404
230.32
231.761
233.236
234.379
235.25
2340.69
1812.9
1475.03
1241.71
1071.59
942.277
840.848
759.157
692.034
635.867
588.238
547.262
511.759
480.527
453.07
428.476
406.595
386.762
368.877
352.579
337.678
324.025
311.472
299.804
289.14
279.028
269.852
261.034
253.02
245.292
238.223
231.392
225.123
219.037
213.442
207.998
202.97
198.078
193.557
189.121
185.072
181.032
177.392
173.749
170.441
167.203
164.197
161.35
158.678
156.181
153.885
151.754
149.836
148.133
146.596
145.402
144.29
143.639
143.053
143.02
143.12
143.753
144.578
145.943
147.513
149.635
151.991
154.82
157.901
161.347
165.04
169.049
173.213
177.62
182.1
186.717
191.383
196.056
200.723
205.286
209.791
214.113
218.308
222.246
225.997
229.486
232.758
235.76
238.533
241.057
243.373
245.472
247.355
249.035
250.463
251.692
252.67
253.508
254.129
254.721
2340.71
1813
1475.15
1241.86
1071.75
942.465
841.028
759.368
692.231
636.097
588.45
547.513
511.986
480.8
453.31
428.773
406.852
387.083
369.157
352.923
337.991
324.396
311.822
300.218
289.528
279.516
270.282
261.63
253.534
246.013
238.908
232.274
226.085
220.198
214.78
209.654
204.844
200.493
196.316
192.65
189.241
186.185
183.621
181.305
179.545
178.194
177.287
177.119
177.398
178.426
180.05
182.341
185.337
188.965
193.244
198.128
203.561
209.518
215.882
222.596
229.573
236.726
243.991
251.261
258.452
265.443
272.22
278.659
284.861
290.625
296.169
301.233
306.034
310.356
314.364
317.906
321.127
323.91
326.357
328.391
330.128
331.499
332.597
333.429
334.037
334.469
334.77
334.915
334.929
334.802
334.546
334.169
333.658
333.035
332.274
331.413
330.42
329.377
328.261
327.224
2340.76
1813.17
1475.39
1242.15
1072.07
942.821
841.414
759.779
692.669
636.566
588.937
548.044
512.528
481.395
453.927
429.438
407.569
387.845
370.001
353.843
339.001
325.567
313.087
301.753
291.228
281.602
272.697
264.574
257.066
250.336
244.229
238.866
234.183
230.25
227.058
224.772
223.173
222.857
223.459
225.34
228.25
232.305
237.508
243.697
250.901
258.956
267.685
276.97
286.595
296.425
306.334
316.021
325.444
334.477
343.077
351.155
358.698
365.615
371.924
377.553
382.533
386.842
390.516
393.594
396.105
398.166
399.853
401.3
402.533
403.546
404.386
405.005
405.48
405.748
405.88
405.83
405.654
405.326
404.885
404.321
403.675
402.938
402.143
401.331
400.469
399.634
398.809
397.988
397.143
396.29
395.393
394.476
393.502
392.498
391.433
390.344
389.2
388.067
386.937
385.928
2340.87
1813.49
1475.85
1242.7
1072.73
943.556
842.25
760.683
693.688
637.664
590.171
549.384
514.04
483.07
455.86
431.612
410.156
390.824
373.658
358.167
344.341
332.032
321.07
311.766
303.638
297.165
291.923
288.433
286.318
286.442
288.589
292.755
298.904
306.907
316.622
327.792
340.084
353.172
366.634
380.358
393.81
406.907
419.358
431.057
441.761
451.451
459.893
467.21
473.246
478.259
482.204
485.39
488.036
490.209
491.942
493.261
494.189
494.74
494.947
494.82
494.406
493.725
492.829
491.758
490.565
489.341
488.131
487.048
486.029
485.057
484.101
483.157
482.212
481.268
480.321
479.374
478.427
477.491
476.563
475.653
474.76
473.879
473.021
472.148
471.291
470.379
469.401
468.399
467.361
466.319
465.25
464.186
463.096
462.022
460.923
459.861
458.781
457.759
456.797
456.001
2341.15
1814.19
1476.91
1243.99
1074.37
945.464
844.558
763.343
696.862
641.376
594.581
554.632
520.493
490.965
465.768
443.814
425.845
410.602
398.957
389.577
383.756
380.082
380.931
385.415
393.423
404.693
418.813
435.27
453.404
472.417
491.923
511.196
529.574
546.621
561.821
575.029
585.953
594.938
601.977
607.599
612.154
615.744
618.425
620.207
621.132
621.251
620.627
619.389
617.624
615.553
613.244
611.018
609.054
607.255
605.538
603.878
602.236
600.623
599.018
597.451
595.911
594.428
592.986
591.607
590.255
588.942
587.588
586.132
584.599
583.036
581.443
579.86
578.269
576.703
575.137
573.604
572.092
570.619
569.185
567.793
566.444
565.145
563.893
562.683
561.511
560.378
559.259
558.177
557.102
556.06
555.015
554.005
552.986
552.019
551.035
550.127
549.21
548.394
547.679
547.187
2342.03
1815.98
1480.11
1247.97
1080.28
952.708
854.16
775.204
712.347
660.619
619.07
586.941
562.588
545.518
534.578
530.078
534.457
545.048
561.043
581.053
604.589
630.59
657.673
684.789
711.051
734.729
754.962
771.349
784.164
794.179
801.831
807.31
810.764
812.224
811.88
809.91
806.648
802.652
798.219
794.145
790.653
787.471
784.452
781.471
778.551
775.674
772.903
770.232
767.704
765.258
762.901
760.507
757.932
755.277
752.586
749.908
747.251
744.657
742.106
739.644
737.241
734.938
732.706
730.579
728.53
726.579
724.698
722.885
721.107
719.381
717.677
716.028
714.395
712.816
711.264
709.774
708.326
706.939
705.596
704.311
703.071
701.889
700.75
699.664
698.615
697.622
696.66
695.749
694.859
694.019
693.186
692.402
691.613
690.886
690.147
689.491
688.835
688.3
687.909
687.819
2345.25
1822.39
1493.86
1268.16
1113.23
994.178
912.592
852.014
814.515
787.866
783.662
800.121
829.082
866.048
907.627
950.239
990.275
1026.99
1058.26
1083.6
1103.45
1118.44
1129.1
1135.73
1137.48
1134.74
1127.99
1118.68
1108.64
1099.46
1091.8
1085.13
1079.04
1073.28
1067.82
1062.63
1057.75
1053
1048.38
1043.53
1038.47
1033.33
1028.23
1023.24
1018.46
1013.89
1009.56
1005.45
1001.59
997.955
994.542
991.335
988.276
985.353
982.54
979.837
977.227
974.724
972.302
969.989
967.752
965.621
963.565
961.613
959.738
957.96
956.26
954.645
953.099
951.62
950.195
948.831
947.506
946.247
945.04
943.895
942.788
941.739
940.722
939.762
938.84
937.963
937.123
936.328
935.567
934.851
934.167
933.531
932.919
932.359
931.806
931.309
930.802
930.369
929.912
929.559
929.206
929.014
929.012
929.441
2358.73
1860.91
1594.77
1434.01
1354
1288.98
1305.26
1337.29
1392.13
1465.14
1539.74
1610.27
1672.38
1723.07
1760.07
1783.38
1792.53
1788.85
1773.31
1750.19
1724.16
1700.72
1682.18
1666.52
1652.51
1639.48
1627.39
1615.93
1604.93
1593.82
1582.73
1571.91
1561.57
1551.73
1542.45
1533.72
1525.55
1517.92
1510.81
1504.16
1497.94
1492.02
1486.48
1481.29
1476.42
1471.84
1467.55
1463.51
1459.72
1456.17
1452.85
1449.75
1446.84
1444.13
1441.57
1439.17
1436.9
1434.76
1432.72
1430.8
1428.96
1427.22
1425.56
1423.99
1422.5
1421.09
1419.76
1418.5
1417.31
1416.18
1415.12
1414.12
1413.19
1412.29
1411.45
1410.64
1409.85
1409.11
1408.41
1407.74
1407.11
1406.52
1405.97
1405.46
1404.98
1404.54
1404.13
1403.76
1403.43
1403.14
1402.87
1402.65
1402.42
1402.28
1402.08
1402.07
1401.97
1402.25
1402.71
1403.86
2454.74
2305.68
2580.46
2808.66
2934.24
3009.99
2994.6
2967.45
3014.84
3085.64
3150.03
3196.6
3222.41
3229.86
3222.23
3203.94
3178.36
3148.79
3117.8
3086.34
3054.82
3023.07
2991.96
2961.69
2933.6
2907.2
2882.9
2860.47
2839.9
2820.97
2803.65
2787.82
2773.39
2760.23
2748.19
2737.22
2727.14
2717.95
2709.48
2701.75
2694.61
2688.06
2682
2676.29
2670.91
2665.8
2660.99
2656.44
2652.17
2648.16
2644.41
2640.9
2637.62
2634.57
2631.73
2629.08
2626.6
2624.29
2622.12
2620.09
2618.18
2616.4
2614.71
2613.13
2611.66
2610.28
2609.01
2607.8
2606.71
2605.68
2604.75
2603.89
2603.1
2602.38
2601.72
2601.1
2600.53
2600.01
2599.52
2599.09
2598.7
2598.35
2598.06
2597.81
2597.61
2597.45
2597.33
2597.27
2597.25
2597.28
2597.34
2597.45
2597.56
2597.77
2597.92
2598.34
2598.54
2599.48
2600.43
2602.41
6588.08
7481.92
7876.77
7935.99
7826.38
7629.93
7415.07
7222.09
7053.54
6914.36
6805.38
6723.42
6664.03
6621.64
6591.84
6570.25
6554.28
6541.59
6531.22
6522.47
6514.93
6508.9
6504
6500.34
6497.4
6495.13
6493.28
6491.85
6490.47
6489.02
6487.36
6485.46
6483.42
6481.22
6478.93
6476.61
6474.24
6471.94
6469.65
6467.5
6465.42
6463.49
6461.7
6460.09
6458.62
6457.29
6456.06
6454.94
6453.9
6452.96
6452.09
6451.33
6450.67
6450.13
6449.7
6449.37
6449.18
6449.08
6449.12
6449.24
6449.49
6449.82
6450.27
6450.8
6451.42
6452.11
6452.9
6453.77
6454.73
6455.77
6456.9
6458.1
6459.39
6460.75
6462.18
6463.68
6465.25
6466.86
6468.53
6470.24
6471.98
6473.76
6475.57
6477.42
6479.31
6481.23
6483.2
6485.21
6487.26
6489.34
6491.47
6493.63
6495.85
6498.07
6500.43
6502.59
6504.92
6506.75
6507.96
6507.87
5492.94
3367.89
2415.61
1948.59
1665.52
1480.94
1347
1246.11
1164.04
1095.7
1037.27
985.948
940.088
898.644
860.833
825.773
793.056
762.106
732.463
704.037
676.633
650.223
624.81
600.427
576.987
554.569
533.116
512.68
493.166
474.618
456.938
440.209
424.382
409.391
395.176
381.663
368.785
356.496
344.75
333.497
322.686
312.269
302.216
292.489
283.056
273.894
265.002
256.362
247.983
239.9
232.172
224.803
217.819
211.251
205.184
199.586
194.445
189.718
185.461
181.553
177.92
174.433
171.221
168.209
165.378
162.502
159.82
157.414
155.494
153.584
151.682
149.771
148.935
149.429
151.627
154.038
156.148
156.448
155.781
153.577
151.312
148.125
145.459
142.099
139.778
136.622
135.179
132.131
131.747
128.578
129.33
126.048
128.019
124.305
127.459
122.53
126.208
120.379
122.693
116.841
1539.77
2573.39
2358.69
1986.03
1702.22
1502.08
1355
1243.86
1154.22
1081.2
1019.91
966.88
920.581
879.63
842.895
809.269
778.152
748.883
720.982
694.296
668.594
643.776
619.769
596.6
574.124
552.463
531.535
511.513
492.181
473.735
455.936
439.116
423.235
408.202
393.936
380.351
367.384
354.986
343.106
331.698
320.714
310.11
299.861
289.938
280.315
270.98
261.937
253.175
244.709
236.579
228.851
221.536
214.652
208.234
202.358
196.991
192.097
187.626
183.617
179.953
176.533
173.233
170.172
167.315
164.62
161.86
159.216
156.816
154.86
152.916
150.866
148.645
147.205
146.918
148.224
149.938
151.578
151.806
151.239
149.324
147.3
144.409
141.976
138.886
136.825
133.882
132.658
129.649
129.384
126.078
126.901
123.378
125.374
121.451
124.539
119.568
123.142
117.339
119.656
113.784
1130.53
1420
1804.64
1801.67
1642.69
1475.83
1337
1225.38
1133.77
1058.4
995.387
941.454
895.094
854.697
818.955
786.643
757.052
729.401
703.311
678.5
654.661
631.646
609.31
587.639
566.47
545.944
525.932
506.703
487.968
470.015
452.492
435.846
420.091
405.157
390.956
377.395
364.425
351.992
340.043
328.539
317.434
306.693
296.298
286.23
276.472
267.026
257.903
249.102
240.64
232.569
224.959
217.827
211.184
205.063
199.527
194.54
190.036
185.954
182.307
178.986
175.86
172.812
169.95
167.286
164.754
162.135
159.549
157.163
155.165
153.184
150.986
148.476
146.44
145.362
145.701
146.596
147.593
147.58
146.96
145.24
143.388
140.767
138.551
135.75
133.971
131.298
130.326
127.43
127.297
123.934
124.817
121.129
123.118
119.036
122.015
117.031
120.46
114.701
117.01
111.117
895.548
846.988
1029.2
1250.41
1340.43
1313.7
1239.17
1156.63
1080.14
1012.7
954.549
904.295
860.664
822.444
788.677
758.273
730.535
704.716
680.482
657.523
635.502
614.274
593.666
573.559
553.832
534.638
515.828
497.686
479.928
462.808
446.065
429.948
414.545
399.88
385.872
372.441
359.566
347.179
335.233
323.701
312.542
301.736
291.269
281.137
271.335
261.882
252.796
244.088
235.78
227.936
220.623
213.868
207.669
202.054
197.066
192.66
188.73
185.199
182.047
179.173
176.416
173.675
171.046
168.591
166.226
163.751
161.216
158.834
156.765
154.717
152.349
149.549
146.923
145.049
144.367
144.338
144.527
144.097
143.244
141.593
139.815
137.412
135.383
132.881
131.41
129.068
128.384
125.688
125.697
122.38
123.299
119.552
121.481
117.324
120.13
115.19
118.422
112.738
115.027
109.141
675.176
656.096
666.808
732.488
836.227
921.755
960.585
959.779
936.464
903.277
867.616
833.286
801.253
771.623
744.402
719.148
695.465
673.084
651.661
631.109
611.212
591.914
573.077
554.636
536.476
518.754
501.354
484.514
467.966
451.869
436.203
420.909
406.133
391.97
378.321
365.162
352.507
340.273
328.426
316.952
305.833
295.063
284.638
274.57
264.872
255.579
246.717
238.311
230.389
223.02
216.27
210.169
204.698
199.872
195.701
192.12
188.973
186.16
183.623
181.271
178.918
176.495
174.087
171.813
169.572
167.196
164.668
162.244
160.042
157.863
155.266
152.155
148.933
146.268
144.527
143.5
142.743
141.734
140.466
138.737
136.911
134.66
132.776
130.585
129.447
127.509
127.154
124.756
124.915
121.761
122.675
119.01
120.792
116.691
119.227
114.428
117.395
111.85
114.098
108.293
530.556
531.138
526.879
527.669
540.599
566.621
598.671
629.758
653.224
668.147
674.774
675.781
672.766
666.564
657.908
647.31
635.067
621.706
607.3
592.261
576.717
560.929
544.896
528.93
512.931
497.075
481.347
465.899
450.728
435.86
421.444
407.315
393.581
380.293
367.262
354.611
342.393
330.484
318.894
307.643
296.739
286.197
276.03
266.272
256.951
248.12
239.815
232.075
224.926
218.439
212.67
207.644
203.312
199.665
196.656
194.183
192.028
190.066
188.202
186.365
184.364
182.181
179.894
177.691
175.45
173.057
170.424
167.855
165.407
162.985
160.056
156.576
152.735
149.282
146.462
144.39
142.582
140.867
139.023
137.077
135.082
132.918
131.15
129.299
128.538
127.099
127.126
125.136
125.448
122.586
123.429
120.009
121.519
117.654
119.777
115.271
117.873
112.583
114.757
109.163
439.331
441.242
439.663
434.57
427.966
422.616
418.184
416.302
416.642
420.612
427.69
437.883
450.47
464.592
478.783
491.968
502.658
510.296
514.091
514.228
510.836
504.81
496.415
486.426
475.253
463.293
450.794
437.868
424.96
412.064
399.377
386.788
374.389
362.137
350.172
338.558
327.256
316.049
305.106
294.502
284.27
274.443
265.05
256.146
247.774
239.999
232.864
226.417
220.673
215.7
211.527
208.157
205.495
203.483
201.989
200.856
199.796
198.67
197.365
195.862
193.988
191.805
189.4
187.032
184.557
181.925
178.984
176.089
173.217
170.381
166.966
163.021
158.516
154.28
150.381
147.257
144.345
141.853
139.324
137.071
134.821
132.723
131.079
129.651
129.353
128.554
129.034
127.581
128.031
125.586
126.254
123.246
124.318
120.902
122.431
118.433
120.54
115.715
117.746
112.616
369.195
371.277
371.175
367.685
360.953
352.21
341.771
330.705
319.377
308.788
299.302
291.851
287.039
285.884
288.828
296.293
307.91
322.867
339.643
356.788
372.194
385.408
393.953
398.814
400.443
399.154
395.579
390.008
383.1
375.143
366.499
357.335
347.809
337.595
327.206
316.854
306.454
296.566
287.101
278.047
269.41
261.222
253.522
246.379
239.845
233.996
228.879
224.537
220.969
218.226
216.294
215.134
214.569
214.46
214.565
214.66
214.413
213.729
212.525
210.873
208.648
206.023
203.098
200.192
197.131
193.941
190.409
186.946
183.424
179.971
175.904
171.399
166.206
161.228
156.312
152.201
148.219
144.974
141.758
139.21
136.712
134.762
133.34
132.534
132.858
132.923
133.937
133.166
133.682
131.75
132.078
129.615
130.059
127.283
128.061
124.787
126.292
122.235
124.017
119.738
309.689
309.618
308.623
305.323
299.503
291.561
282.184
272.049
262.218
252.978
245.351
239.493
235.614
233.637
233.431
234.468
236.883
240.079
244.829
250.171
257.596
265.038
275.327
286.158
296.487
305.344
312.409
317.202
319.76
320.158
318.471
315.152
309.768
303.791
297.354
290.636
283.511
276.689
270.164
263.958
258.092
252.628
247.63
243.183
239.349
236.22
233.847
232.262
231.427
231.357
231.964
233.115
234.515
235.919
236.986
237.487
237.137
235.975
234.003
231.416
228.155
224.507
220.567
216.687
212.644
208.544
204.127
199.851
195.472
191.229
186.4
181.304
175.476
169.874
164.1
159.167
154.275
150.441
146.698
144.04
141.48
139.954
139.034
139.243
140.469
141.734
143.328
143.35
143.719
142.316
142.054
140.181
139.83
137.769
137.768
135.345
136.268
133.318
134.713
131.773
235.946
236.736
237.155
236.735
235.529
233.969
232.745
232.491
233.82
236.686
241.297
246.84
253.251
259.874
265.979
271.265
275.449
278.762
281.259
282.963
284.098
285.034
285.81
286.694
287.834
289.077
290.412
291.592
292.466
292.949
292.697
291.891
289.95
287.48
284.588
281.422
277.968
274.4
270.858
267.468
264.318
261.523
259.179
257.382
256.196
255.713
255.95
256.889
258.426
260.497
262.891
265.342
267.421
268.83
269.231
268.525
266.599
263.684
259.895
255.538
250.609
245.457
240.128
234.949
229.645
224.402
218.936
213.711
208.394
203.328
197.784
192.194
185.916
179.915
173.575
168.119
162.668
158.609
154.752
152.423
150.288
149.771
149.938
151.831
154.385
157.211
159.262
159.983
159.762
158.734
157.554
156.178
154.941
153.532
152.904
151.383
151.902
150.386
151.237
150.149
255.238
255.747
256.502
258.207
261.143
265.655
271.548
278.868
286.892
295.489
303.972
312.034
318.996
324.672
329.206
332.721
335.331
337.372
338.872
340.024
340.867
341.247
341.237
340.878
340.254
339.365
338.255
336.89
335.287
333.459
331.301
328.904
326.144
323.111
319.771
316.255
312.669
309.126
305.754
302.678
300
297.838
296.282
295.412
295.254
295.846
297.121
298.98
301.227
303.659
305.868
307.436
307.913
307.103
304.845
301.285
296.547
291.029
284.905
278.511
271.848
265.21
258.548
252.134
245.675
239.394
233.017
226.989
220.951
215.297
209.329
203.514
197.121
191.053
184.602
179.1
173.725
170.093
166.897
165.668
164.869
166.299
168.503
172.874
177.112
181.422
183.362
184.135
182.704
181.622
179.274
178.172
176.104
175.269
174.283
173.794
174.118
174.259
174.441
175.586
326.393
325.754
325.751
327.069
329.919
334.227
339.754
346.254
353.259
360.623
367.988
374.982
381.39
387.051
391.948
396.009
399.387
401.964
403.836
405.121
405.908
406.242
406.186
405.741
404.926
403.71
402.115
400.116
397.741
394.963
391.747
388.146
384.15
379.769
375.132
370.368
365.619
360.971
356.584
352.609
349.187
346.448
344.488
343.383
343.122
343.633
344.724
346.19
347.697
348.817
348.964
347.765
344.98
340.666
334.952
328.221
320.757
312.986
305.054
297.216
289.411
281.827
274.314
267.089
259.916
253.016
246.145
239.716
233.396
227.549
221.548
215.815
209.642
203.835
197.766
192.794
188.318
185.952
184.434
185.285
186.974
191.357
196.534
203.637
209.251
213.978
214.758
214.516
211.477
209.858
206.424
205.433
202.747
202.607
201.485
202.262
202.541
204.116
203.979
207.461
385.175
384.699
384.984
386.716
390.169
395.276
401.906
409.726
418.442
427.402
436.141
444.35
451.789
458.347
463.93
468.58
472.324
475.215
477.287
478.572
479.124
478.964
478.168
476.746
474.729
472.124
468.994
465.302
461.134
456.485
451.388
445.923
440.125
434.032
427.863
421.726
415.715
409.996
404.751
400.138
396.295
393.322
391.298
390.26
390.08
390.505
391.175
391.726
391.63
390.297
387.282
382.511
376.08
368.34
359.651
350.495
341.183
332.053
323.163
314.638
306.313
298.266
290.347
282.742
275.281
268.168
261.2
254.732
248.481
242.738
236.972
231.527
225.806
220.529
215.309
211.502
208.813
208.654
209.909
213.885
219.181
227.303
235.797
244.909
250.685
254.143
252.758
250.728
246.119
243.786
239.634
238.77
235.805
236.594
235.479
237.719
237.9
240.756
241.046
246.07
455.521
455.383
456.08
458.397
462.68
468.908
476.856
486.251
496.569
507.426
518.177
528.449
537.877
546.16
553.102
558.635
562.714
565.347
566.563
566.411
564.948
562.32
558.615
553.977
548.508
542.371
535.712
528.671
521.336
513.803
506.179
498.528
490.913
483.454
476.193
469.213
462.609
456.602
451.345
446.979
443.599
441.245
439.929
439.573
439.844
440.233
440.179
439.142
436.486
431.818
425.119
416.686
406.939
396.421
385.598
374.912
364.604
354.875
345.671
336.921
328.41
320.181
312.133
304.438
296.975
289.906
283.076
276.774
270.78
265.302
259.924
254.917
249.862
245.457
241.689
239.925
240.162
243.424
248.747
257.023
266.959
279.165
290.333
299.723
303.802
304.362
300.281
296.223
290.424
287.515
283.166
282.572
279.798
281.659
280.676
284.455
284.364
288.867
289.247
294.536
547.097
547.45
548.848
552.272
558.237
566.733
577.552
590.282
604.322
618.974
633.363
646.85
658.769
668.518
675.836
680.53
682.602
682.102
679.257
674.274
667.472
659.236
649.816
639.62
628.876
617.906
606.857
595.973
585.242
574.891
564.97
555.49
546.527
538.153
530.376
523.258
516.92
511.498
507.114
503.868
501.774
500.751
500.662
501.235
501.855
501.734
500.136
496.441
490.273
481.748
471.294
459.525
447.063
434.499
422.289
410.776
400.08
390.242
381.009
372.207
363.662
355.413
347.395
339.756
332.429
325.525
318.921
312.858
307.196
302.063
297.19
292.835
288.8
285.883
284.579
286.284
291.094
299.442
310.336
324.075
339.258
354.78
366.611
373.718
374.155
370.867
364.183
358.377
352.028
348.925
345.004
344.921
342.865
345.776
345.11
350.241
349.673
355.847
354.607
360.214
688.269
689.314
691.731
696.898
705.612
717.9
733.437
751.461
771.032
790.647
809.162
825.132
837.573
845.674
849.282
848.304
843.192
834.384
822.674
808.678
793.196
776.814
760.071
743.483
727.285
711.724
696.895
682.897
669.697
657.425
646.015
635.479
625.856
617.153
609.412
602.719
597.195
592.957
590.094
588.607
588.342
588.971
590.103
591.212
591.411
589.693
585.247
577.727
567.37
554.806
540.804
526.147
511.534
497.515
484.435
472.533
461.81
452.007
442.784
434.014
425.549
417.385
409.483
401.975
394.844
388.146
381.781
375.968
370.682
365.997
361.846
358.626
356.402
356.238
359.32
366.939
378.789
394.338
412.222
432.152
451.782
468
477.159
479.199
474.742
467.593
458.94
452.095
446.039
443.309
440.522
441.256
440.42
444.252
444.073
450.029
448.437
455.577
451.322
458.937
930.651
932.671
936.57
944.53
957.736
976.104
998.572
1023.63
1049.09
1072.46
1091.98
1105.19
1111.23
1109.65
1101.08
1086.21
1066.63
1043.5
1018.38
992.381
966.514
941.439
917.56
895.189
874.44
855.337
837.892
821.938
807.475
794.339
782.431
771.749
762.245
753.953
746.951
741.338
737.285
734.91
734.208
734.972
736.741
738.795
740.397
740.822
739.063
734.062
725.259
712.959
698.01
681.405
664.12
646.947
630.549
615.447
601.878
589.908
579.183
569.357
560.237
551.678
543.486
535.599
527.989
520.772
513.97
507.589
501.542
496.068
491.341
487.452
484.628
483.769
485.274
490.566
501.715
519.244
541.381
565.954
591.363
616.392
636.791
649.037
651.523
646.515
637.075
626.857
617.308
610.5
605.755
604.184
603.289
605.198
606.002
610.528
610.751
616.775
613.293