/*--------------------------------*- C++ -*----------------------------------*\
| =========                 |                                                 |
| \\      /  F ield         | OpenFOAM: The Open Source CFD Toolbox           |
|  \\    /   O peration     | Version:  v2012                                 |
|   \\  /    A nd           | Website:  www.openfoam.com                      |
|    \\/     M anipulation  |                                                 |
\*---------------------------------------------------------------------------*/
FoamFile
{
    version     2.0;
    format      ascii;
    class       volVectorField;
    location    "0.057";
    object      U.air;
}
// * * * * * * * * * * * * * * * * * * * * * * * * * * * * * * * * * * * * * //

dimensions      [0 1 -1 0 0 0 0];


internalField   nonuniform List<vector> 
5600
(
(9.20612 0.00896169 0)
(8.83524 0.0172514 0)
(8.45614 0.0174886 0)
(8.07881 0.0144861 0)
(7.73114 0.00998335 0)
(7.42058 0.00528094 0)
(7.15453 0.000849089 0)
(6.93598 -0.00267977 0)
(6.75348 -0.00524518 0)
(6.60578 -0.00716732 0)
(6.48867 -0.00847977 0)
(6.39672 -0.0092226 0)
(6.32494 -0.00951075 0)
(6.26924 -0.00946406 0)
(6.22578 -0.00920059 0)
(6.1904 -0.00880522 0)
(6.1608 -0.00834917 0)
(6.13559 -0.00788189 0)
(6.11403 -0.00745383 0)
(6.09597 -0.00723413 0)
(6.08072 -0.00704554 0)
(6.06869 -0.00688707 0)
(6.05949 -0.0067768 0)
(6.05233 -0.00665752 0)
(6.04624 -0.00649364 0)
(6.04048 -0.00628921 0)
(6.03489 -0.00606019 0)
(6.02968 -0.0058006 0)
(6.02511 -0.00558554 0)
(6.02141 -0.00544691 0)
(6.01892 -0.00533457 0)
(6.01732 -0.00531583 0)
(6.01652 -0.00544997 0)
(6.01628 -0.00561053 0)
(6.01637 -0.00573071 0)
(6.01678 -0.00580112 0)
(6.01734 -0.00582028 0)
(6.01786 -0.00580323 0)
(6.01825 -0.0057758 0)
(6.01852 -0.00574972 0)
(6.0187 -0.00573039 0)
(6.01882 -0.00571744 0)
(6.01889 -0.00570894 0)
(6.01893 -0.00570347 0)
(6.01895 -0.00570005 0)
(6.01896 -0.005698 0)
(6.01897 -0.00569681 0)
(6.01898 -0.00569615 0)
(6.01898 -0.00569579 0)
(6.01898 -0.00569561 0)
(6.01898 -0.00569551 0)
(6.01898 -0.00569546 0)
(6.01898 -0.00569544 0)
(6.01898 -0.00569543 0)
(6.01898 -0.00569542 0)
(6.01898 -0.00569543 0)
(6.01898 -0.00569538 0)
(6.01898 -0.0056955 0)
(6.01898 -0.00569526 0)
(6.01898 -0.00569573 0)
(6.01899 -0.00569482 0)
(6.01896 -0.00569652 0)
(6.01902 -0.00569348 0)
(6.01893 -0.00569867 0)
(6.01908 -0.00569019 0)
(6.01883 -0.00570334 0)
(6.01923 -0.00568401 0)
(6.01862 -0.00571069 0)
(6.0195 -0.00567635 0)
(6.01829 -0.00571718 0)
(6.01987 -0.0056727 0)
(6.01791 -0.00571708 0)
(6.02022 -0.00567507 0)
(6.01758 -0.00571763 0)
(6.0206 -0.00566212 0)
(6.017 -0.0057527 0)
(6.02161 -0.00559601 0)
(6.01531 -0.00583747 0)
(6.02397 -0.00552157 0)
(6.01271 -0.00584244 0)
(6.0258 -0.00563697 0)
(6.01276 -0.00557724 0)
(6.02258 -0.00597624 0)
(6.02022 -0.00509029 0)
(6.00946 -0.00640561 0)
(6.03447 -0.00517818 0)
(6.0002 -0.00572492 0)
(6.03465 -0.0059626 0)
(6.00749 -0.00503069 0)
(6.01513 -0.00698304 0)
(6.03688 -0.00437464 0)
(5.97769 -0.00686164 0)
(6.05836 -0.00502837 0)
(5.96256 -0.00563461 0)
(6.04559 -0.0045181 0)
(5.94422 -0.00578788 0)
(6.01929 -0.00459615 0)
(5.88481 -0.00385407 0)
(5.79874 -0.00755318 0)
(5.97038 0.0279364 0)
(9.39288 0.0365639 0)
(9.38796 0.0381896 0)
(9.35655 0.0375727 0)
(9.2995 0.0376046 0)
(9.22382 0.0368861 0)
(9.13558 0.035114 0)
(9.03692 0.0325714 0)
(8.93118 0.0296898 0)
(8.82311 0.0268087 0)
(8.71592 0.0238709 0)
(8.61191 0.0210207 0)
(8.51227 0.0184512 0)
(8.41891 0.0161164 0)
(8.33318 0.0140664 0)
(8.2549 0.0123951 0)
(8.18342 0.0110914 0)
(8.11838 0.0099904 0)
(8.06028 0.00901776 0)
(8.00882 0.00816515 0)
(7.96409 0.00737349 0)
(7.92426 0.0066437 0)
(7.89067 0.00594479 0)
(7.86109 0.00539693 0)
(7.8349 0.00499218 0)
(7.81153 0.00468101 0)
(7.79093 0.00441177 0)
(7.77262 0.00409934 0)
(7.75697 0.00371251 0)
(7.74429 0.00331625 0)
(7.73481 0.00298131 0)
(7.72814 0.00263264 0)
(7.72388 0.00238163 0)
(7.72141 0.00236197 0)
(7.72022 0.00245057 0)
(7.71982 0.00251303 0)
(7.71986 0.00253487 0)
(7.72032 0.00254759 0)
(7.721 0.00255149 0)
(7.72159 0.00254825 0)
(7.72201 0.00254435 0)
(7.72228 0.00254187 0)
(7.72246 0.00254012 0)
(7.72257 0.00253882 0)
(7.72264 0.00253791 0)
(7.72268 0.00253729 0)
(7.72271 0.00253689 0)
(7.72272 0.00253665 0)
(7.72273 0.00253651 0)
(7.72273 0.00253643 0)
(7.72273 0.00253638 0)
(7.72273 0.00253636 0)
(7.72274 0.00253635 0)
(7.72274 0.00253634 0)
(7.72274 0.00253634 0)
(7.72274 0.00253634 0)
(7.72274 0.00253634 0)
(7.72274 0.00253633 0)
(7.72274 0.00253634 0)
(7.72274 0.00253633 0)
(7.72273 0.00253634 0)
(7.72275 0.00253633 0)
(7.72272 0.00253633 0)
(7.72276 0.00253636 0)
(7.7227 0.00253627 0)
(7.72281 0.00253645 0)
(7.72264 0.00253616 0)
(7.72289 0.00253652 0)
(7.72253 0.00253618 0)
(7.72301 0.00253613 0)
(7.7224 0.00253736 0)
(7.72314 0.00253377 0)
(7.72228 0.00254127 0)
(7.72325 0.00252859 0)
(7.72213 0.00254731 0)
(7.7235 0.00252434 0)
(7.72167 0.00254637 0)
(7.72419 0.00253124 0)
(7.72072 0.00253421 0)
(7.72512 0.00253665 0)
(7.72011 0.00255196 0)
(7.7247 0.00250446 0)
(7.72141 0.00257465 0)
(7.72079 0.00238897 0)
(7.727 0.002683 0)
(7.71537 0.00230175 0)
(7.72952 0.00253576 0)
(7.71446 0.0026839 0)
(7.72564 0.00228553 0)
(7.71998 0.00301259 0)
(7.71342 0.00183372 0)
(7.72771 0.00336424 0)
(7.70364 0.00245885 0)
(7.72396 0.00260912 0)
(7.69693 0.00397043 0)
(7.70054 0.00300312 0)
(7.69329 0.00473031 0)
(7.6602 0.0062631 0)
(7.68045 0.014263 0)
(7.5104 0.00885369 0)
(7.65279 0.0887165 0)
(9.40085 0.0229773 0)
(9.42974 0.0304831 0)
(9.46068 0.0319624 0)
(9.47757 0.0329995 0)
(9.48906 0.0320289 0)
(9.48976 0.0301574 0)
(9.4838 0.0271728 0)
(9.46904 0.0241461 0)
(9.4457 0.0213567 0)
(9.41432 0.0186337 0)
(9.37573 0.0161943 0)
(9.33026 0.0139558 0)
(9.27889 0.0119617 0)
(9.22311 0.0101948 0)
(9.16447 0.00873248 0)
(9.10418 0.00757192 0)
(9.0432 0.00649617 0)
(8.9826 0.00538293 0)
(8.9243 0.00426992 0)
(8.86967 0.0032491 0)
(8.81868 0.00231147 0)
(8.77129 0.0013847 0)
(8.72759 0.000634018 0)
(8.68751 6.21408e-05 0)
(8.65067 -0.000383513 0)
(8.6175 -0.000713222 0)
(8.58843 -0.00102184 0)
(8.56412 -0.00140797 0)
(8.54489 -0.00184305 0)
(8.53055 -0.00220389 0)
(8.5206 -0.00245466 0)
(8.51422 -0.00265096 0)
(8.51046 -0.00285953 0)
(8.5085 -0.00316938 0)
(8.5077 -0.00336446 0)
(8.50757 -0.00348759 0)
(8.50795 -0.00355611 0)
(8.50872 -0.00355916 0)
(8.50948 -0.00352267 0)
(8.51002 -0.00348203 0)
(8.51038 -0.00345183 0)
(8.51062 -0.00343133 0)
(8.51078 -0.00341765 0)
(8.51087 -0.00340871 0)
(8.51093 -0.00340304 0)
(8.51096 -0.00339957 0)
(8.51098 -0.00339753 0)
(8.51099 -0.00339638 0)
(8.51099 -0.00339575 0)
(8.511 -0.00339542 0)
(8.511 -0.00339524 0)
(8.511 -0.00339516 0)
(8.511 -0.00339511 0)
(8.511 -0.0033951 0)
(8.511 -0.00339507 0)
(8.511 -0.0033951 0)
(8.511 -0.00339501 0)
(8.511 -0.0033952 0)
(8.51101 -0.00339482 0)
(8.511 -0.00339553 0)
(8.51101 -0.00339424 0)
(8.51099 -0.00339653 0)
(8.51103 -0.00339263 0)
(8.51096 -0.00339897 0)
(8.51107 -0.00338915 0)
(8.5109 -0.00340356 0)
(8.51115 -0.00338354 0)
(8.51081 -0.00340963 0)
(8.51125 -0.00337802 0)
(8.51071 -0.00341348 0)
(8.51133 -0.00337626 0)
(8.51064 -0.00341368 0)
(8.51141 -0.00337352 0)
(8.51049 -0.00342431 0)
(8.51168 -0.00334745 0)
(8.50999 -0.00346792 0)
(8.51238 -0.00328787 0)
(8.50916 -0.00352093 0)
(8.51291 -0.00327234 0)
(8.50908 -0.00346097 0)
(8.51184 -0.00340895 0)
(8.51138 -0.00312649 0)
(8.50733 -0.00381145 0)
(8.51586 -0.00281123 0)
(8.50476 -0.00377324 0)
(8.51537 -0.00310909 0)
(8.506 -0.00322555 0)
(8.51044 -0.00372479 0)
(8.5117 -0.00221814 0)
(8.50201 -0.00429324 0)
(8.51279 -0.00185298 0)
(8.50219 -0.00336689 0)
(8.5035 -0.00256149 0)
(8.50453 -0.00196473 0)
(8.49002 -0.00185895 0)
(8.5032 -0.000812364 0)
(8.46473 0.000545107 0)
(8.49949 0.0115653 0)
(8.37702 0.00932821 0)
(8.37839 0.106806 0)
(9.3996 0.0218061 0)
(9.43084 0.0296007 0)
(9.46785 0.0303073 0)
(9.49948 0.0313154 0)
(9.5291 0.0312274 0)
(9.55559 0.0300616 0)
(9.58011 0.028459 0)
(9.59931 0.0269662 0)
(9.6151 0.0255297 0)
(9.62554 0.0241448 0)
(9.63334 0.0226984 0)
(9.63474 0.0217418 0)
(9.63268 0.0206017 0)
(9.62639 0.0195267 0)
(9.61578 0.0186095 0)
(9.60088 0.0178581 0)
(9.58158 0.0171259 0)
(9.55762 0.0162389 0)
(9.5291 0.0151819 0)
(9.49659 0.0140684 0)
(9.46111 0.0129234 0)
(9.42304 0.0118292 0)
(9.38299 0.0108708 0)
(9.34137 0.0100259 0)
(9.29858 0.00921414 0)
(9.25572 0.00829159 0)
(9.21682 0.00720213 0)
(9.18391 0.00607362 0)
(9.15808 0.0049605 0)
(9.13908 0.00389522 0)
(9.12614 0.00301454 0)
(9.11793 0.00216264 0)
(9.11321 0.00134411 0)
(9.11087 0.00101266 0)
(9.10997 0.000802399 0)
(9.10991 0.000658131 0)
(9.11052 0.000543958 0)
(9.11155 0.000508122 0)
(9.11253 0.000546079 0)
(9.11326 0.000603406 0)
(9.11373 0.000648421 0)
(9.11404 0.000680005 0)
(9.11424 0.000701287 0)
(9.11437 0.000715264 0)
(9.11445 0.000724133 0)
(9.11449 0.000729547 0)
(9.11452 0.000732731 0)
(9.11453 0.000734541 0)
(9.11454 0.000735538 0)
(9.11455 0.000736068 0)
(9.11455 0.000736352 0)
(9.11455 0.000736483 0)
(9.11455 0.000736565 0)
(9.11455 0.000736582 0)
(9.11455 0.000736628 0)
(9.11455 0.000736588 0)
(9.11455 0.000736701 0)
(9.11455 0.000736458 0)
(9.11455 0.000736944 0)
(9.11455 0.000736053 0)
(9.11456 0.000737616 0)
(9.11455 0.000734975 0)
(9.11456 0.00073923 0)
(9.11454 0.000732732 0)
(9.11457 0.000742105 0)
(9.11454 0.000729525 0)
(9.11457 0.000745131 0)
(9.11455 0.000727678 0)
(9.11454 0.000745131 0)
(9.11458 0.000730981 0)
(9.11449 0.000739804 0)
(9.11462 0.000736854 0)
(9.11448 0.000739965 0)
(9.11457 0.000726913 0)
(9.11459 0.000769243 0)
(9.11437 0.000684895 0)
(9.11471 0.000813957 0)
(9.11435 0.000688346 0)
(9.11419 0.000750088 0)
(9.1151 0.000866046 0)
(9.11287 0.00050604 0)
(9.11634 0.00125517 0)
(9.11217 0.000196333 0)
(9.11625 0.00128223 0)
(9.11307 0.000656091 0)
(9.11238 0.000622617 0)
(9.11561 0.00153379 0)
(9.11046 4.22996e-05 0)
(9.11533 0.002049 0)
(9.11371 0.000173582 0)
(9.10783 0.00152596 0)
(9.12095 0.00174023 0)
(9.10213 0.00105172 0)
(9.12289 0.0032862 0)
(9.10704 0.00211669 0)
(9.1239 0.00441286 0)
(9.10519 0.00511289 0)
(9.11075 0.0161509 0)
(9.08408 0.0224871 0)
(8.98722 0.122175 0)
(9.39777 0.0183347 0)
(9.42811 0.0258245 0)
(9.46493 0.0260892 0)
(9.49889 0.0271321 0)
(9.531 0.0271997 0)
(9.56237 0.0262987 0)
(9.59291 0.024849 0)
(9.62054 0.0232977 0)
(9.64602 0.0217916 0)
(9.66893 0.020236 0)
(9.68979 0.0189144 0)
(9.70857 0.0177392 0)
(9.72533 0.0166499 0)
(9.7398 0.0157197 0)
(9.75271 0.0150386 0)
(9.76303 0.0146289 0)
(9.77289 0.0142942 0)
(9.78029 0.0139669 0)
(9.78486 0.013552 0)
(9.78636 0.0129984 0)
(9.78547 0.0125928 0)
(9.78207 0.0120537 0)
(9.77564 0.011627 0)
(9.76549 0.0113517 0)
(9.75087 0.0110973 0)
(9.73163 0.0104987 0)
(9.709 0.00924273 0)
(9.68494 0.0073439 0)
(9.66388 0.00517604 0)
(9.64763 0.00303488 0)
(9.63645 0.001105 0)
(9.62979 -0.000359281 0)
(9.6265 -0.00119131 0)
(9.62521 -0.00172417 0)
(9.62498 -0.0020217 0)
(9.62562 -0.00226116 0)
(9.62711 -0.0024059 0)
(9.62887 -0.00243502 0)
(9.6303 -0.00237422 0)
(9.63136 -0.00229964 0)
(9.6321 -0.00224529 0)
(9.63259 -0.00220875 0)
(9.63291 -0.00218412 0)
(9.63311 -0.00216767 0)
(9.63323 -0.00215703 0)
(9.6333 -0.00215041 0)
(9.63334 -0.00214646 0)
(9.63336 -0.00214418 0)
(9.63338 -0.00214291 0)
(9.63338 -0.00214222 0)
(9.63339 -0.00214185 0)
(9.63339 -0.00214167 0)
(9.63339 -0.00214157 0)
(9.63339 -0.00214154 0)
(9.63339 -0.00214149 0)
(9.63339 -0.00214151 0)
(9.63339 -0.00214144 0)
(9.63339 -0.00214158 0)
(9.63339 -0.00214132 0)
(9.6334 -0.00214178 0)
(9.63338 -0.00214098 0)
(9.63341 -0.00214231 0)
(9.63336 -0.0021402 0)
(9.63345 -0.00214338 0)
(9.6333 -0.00213879 0)
(9.63354 -0.00214507 0)
(9.63318 -0.00213692 0)
(9.63369 -0.00214661 0)
(9.63301 -0.00213551 0)
(9.63388 -0.0021478 0)
(9.63283 -0.00213365 0)
(9.63405 -0.00215071 0)
(9.63267 -0.00212721 0)
(9.63426 -0.00216203 0)
(9.63233 -0.00210741 0)
(9.63485 -0.00218098 0)
(9.6314 -0.00209025 0)
(9.63606 -0.00217312 0)
(9.63019 -0.00210976 0)
(9.63676 -0.00212923 0)
(9.6307 -0.00218588 0)
(9.63504 -0.00204503 0)
(9.63556 -0.00231019 0)
(9.62766 -0.00199673 0)
(9.64136 -0.00213449 0)
(9.62505 -0.00209917 0)
(9.64151 -0.00209054 0)
(9.62899 -0.00227539 0)
(9.63442 -0.00195345 0)
(9.64383 -0.00223298 0)
(9.62315 -0.00181397 0)
(9.65061 -0.00185572 0)
(9.6256 -0.00179587 0)
(9.65336 -0.000963278 0)
(9.63664 -0.0010424 0)
(9.65142 0.000915005 0)
(9.64613 0.00301014 0)
(9.62057 0.0154714 0)
(9.63718 0.0303499 0)
(9.53583 0.125375 0)
(9.39592 0.0145855 0)
(9.42522 0.021939 0)
(9.46142 0.02202 0)
(9.49592 0.0229218 0)
(9.52806 0.0230262 0)
(9.56017 0.0222581 0)
(9.59145 0.0210247 0)
(9.6206 0.0197453 0)
(9.64798 0.0185451 0)
(9.67354 0.0173972 0)
(9.69735 0.0163827 0)
(9.71982 0.0155995 0)
(9.74134 0.0148866 0)
(9.7614 0.0142729 0)
(9.7803 0.013871 0)
(9.79819 0.0136026 0)
(9.8159 0.0133658 0)
(9.83296 0.0131954 0)
(9.84926 0.0129825 0)
(9.86417 0.0126799 0)
(9.87778 0.0122316 0)
(9.8905 0.0118195 0)
(9.90244 0.0116058 0)
(9.91358 0.0116454 0)
(9.92342 0.0118083 0)
(9.93088 0.0117026 0)
(9.9352 0.0110241 0)
(9.937 0.00974373 0)
(9.93749 0.00779904 0)
(9.93724 0.00568192 0)
(9.93698 0.00386189 0)
(9.9371 0.00246124 0)
(9.93771 0.0013964 0)
(9.93863 0.00055406 0)
(9.93985 -4.56231e-05 0)
(9.94129 -0.000475247 0)
(9.94298 -0.000754788 0)
(9.94478 -0.000797419 0)
(9.94626 -0.000664792 0)
(9.94741 -0.00050105 0)
(9.94825 -0.000367683 0)
(9.94884 -0.00026925 0)
(9.94923 -0.000200327 0)
(9.94948 -0.000154162 0)
(9.94964 -0.000124516 0)
(9.94973 -0.000106212 0)
(9.94979 -9.53134e-05 0)
(9.94982 -8.9036e-05 0)
(9.94983 -8.55323e-05 0)
(9.94984 -8.36301e-05 0)
(9.94985 -8.26259e-05 0)
(9.94985 -8.21056e-05 0)
(9.94985 -8.18527e-05 0)
(9.94985 -8.17184e-05 0)
(9.94985 -8.16519e-05 0)
(9.94985 -8.16084e-05 0)
(9.94985 -8.16091e-05 0)
(9.94986 -8.15763e-05 0)
(9.94985 -8.16283e-05 0)
(9.94986 -8.15279e-05 0)
(9.94985 -8.17332e-05 0)
(9.94987 -8.13441e-05 0)
(9.94983 -8.20584e-05 0)
(9.94989 -8.07922e-05 0)
(9.9498 -8.2894e-05 0)
(9.94994 -7.95584e-05 0)
(9.94974 -8.44998e-05 0)
(9.95002 -7.74384e-05 0)
(9.94966 -8.65613e-05 0)
(9.9501 -7.53691e-05 0)
(9.94958 -8.77523e-05 0)
(9.95018 -7.44287e-05 0)
(9.94949 -8.79438e-05 0)
(9.95035 -7.2123e-05 0)
(9.94922 -9.00916e-05 0)
(9.95082 -6.2565e-05 0)
(9.94864 -9.9632e-05 0)
(9.95155 -3.53253e-05 0)
(9.94823 -0.000113538 0)
(9.95172 -1.72217e-05 0)
(9.949 -0.000118034 0)
(9.94991 -5.50681e-05 0)
(9.95243 5.17507e-05 0)
(9.94612 -7.78582e-05 0)
(9.95559 0.000108642 0)
(9.94608 -0.000130594 0)
(9.95592 0.00027733 0)
(9.94936 7.09041e-06 0)
(9.95125 -7.32492e-05 0)
(9.95591 0.00049396 0)
(9.9468 0.000235234 0)
(9.96051 0.000666153 0)
(9.95042 0.000189221 0)
(9.96213 0.000998559 0)
(9.95365 0.00168743 0)
(9.96009 0.00271353 0)
(9.95453 0.00688393 0)
(9.93814 0.0172367 0)
(9.93913 0.0384802 0)
(9.88437 0.133024 0)
(9.395 0.0113284 0)
(9.42268 0.0175885 0)
(9.45812 0.0175033 0)
(9.49298 0.0182256 0)
(9.52495 0.0183696 0)
(9.55701 0.0177348 0)
(9.58829 0.0167369 0)
(9.61769 0.015705 0)
(9.64533 0.0147334 0)
(9.6713 0.0138281 0)
(9.69568 0.0130035 0)
(9.71889 0.0123383 0)
(9.74119 0.0117132 0)
(9.76233 0.0111766 0)
(9.78258 0.0108168 0)
(9.80224 0.0105542 0)
(9.8216 0.0103074 0)
(9.84074 0.010144 0)
(9.85963 0.00999165 0)
(9.87782 0.00976959 0)
(9.89521 0.00948893 0)
(9.91191 0.00919019 0)
(9.92817 0.00901251 0)
(9.94437 0.0090507 0)
(9.96084 0.00929216 0)
(9.97711 0.00945915 0)
(9.99204 0.00907345 0)
(10.0049 0.00784037 0)
(10.0152 0.00601402 0)
(10.0228 0.0039873 0)
(10.0284 0.00199173 0)
(10.0324 0.000255652 0)
(10.035 -0.00108597 0)
(10.0364 -0.00159272 0)
(10.0371 -0.00185328 0)
(10.0376 -0.002081 0)
(10.0381 -0.00223883 0)
(10.0387 -0.00222923 0)
(10.0392 -0.0020917 0)
(10.0397 -0.00194557 0)
(10.0401 -0.00183406 0)
(10.0404 -0.00175391 0)
(10.0406 -0.00169731 0)
(10.0408 -0.00165823 0)
(10.0408 -0.00163218 0)
(10.0409 -0.00161551 0)
(10.0409 -0.00160524 0)
(10.041 -0.00159915 0)
(10.041 -0.00159564 0)
(10.041 -0.00159369 0)
(10.041 -0.00159263 0)
(10.041 -0.00159206 0)
(10.041 -0.00159178 0)
(10.041 -0.00159164 0)
(10.041 -0.00159157 0)
(10.041 -0.00159151 0)
(10.041 -0.00159153 0)
(10.041 -0.00159144 0)
(10.041 -0.0015916 0)
(10.041 -0.0015913 0)
(10.041 -0.00159183 0)
(10.041 -0.00159093 0)
(10.041 -0.00159237 0)
(10.041 -0.0015902 0)
(10.041 -0.00159331 0)
(10.041 -0.00158913 0)
(10.041 -0.00159437 0)
(10.041 -0.00158824 0)
(10.041 -0.00159478 0)
(10.041 -0.00158848 0)
(10.041 -0.00159433 0)
(10.041 -0.00158833 0)
(10.041 -0.00159659 0)
(10.0411 -0.00158244 0)
(10.0409 -0.00160522 0)
(10.0411 -0.00157147 0)
(10.0408 -0.00161406 0)
(10.0412 -0.0015752 0)
(10.0408 -0.00159401 0)
(10.0413 -0.00162132 0)
(10.0409 -0.0015361 0)
(10.041 -0.00173875 0)
(10.0414 -0.00140634 0)
(10.0405 -0.00166374 0)
(10.0421 -0.00162229 0)
(10.0406 -0.00163116 0)
(10.0422 -0.00176083 0)
(10.0412 -0.00142086 0)
(10.0413 -0.00193012 0)
(10.0422 -0.00132059 0)
(10.041 -0.00158281 0)
(10.0429 -0.00167895 0)
(10.0417 -0.0014945 0)
(10.0425 -0.00104758 0)
(10.0416 -0.000372279 0)
(10.0421 0.00105861 0)
(10.0378 0.00629916 0)
(10.0336 0.0173588 0)
(10.024 0.0428746 0)
(10.0096 0.131148 0)
(9.39444 0.00798846 0)
(9.42062 0.0126875 0)
(9.45547 0.0125401 0)
(9.49057 0.0130662 0)
(9.5224 0.0132128 0)
(9.55428 0.0127466 0)
(9.58556 0.0120278 0)
(9.61501 0.0112648 0)
(9.64259 0.0105361 0)
(9.66857 0.00986931 0)
(9.6931 0.0092538 0)
(9.71639 0.00873773 0)
(9.73875 0.00826507 0)
(9.76008 0.00789076 0)
(9.78057 0.00766063 0)
(9.80061 0.00749532 0)
(9.82029 0.0073257 0)
(9.83975 0.00722178 0)
(9.859 0.00714847 0)
(9.87782 0.00704331 0)
(9.89605 0.00688587 0)
(9.91368 0.00666962 0)
(9.93088 0.00652309 0)
(9.94802 0.00653777 0)
(9.9654 0.00671875 0)
(9.98317 0.00688371 0)
(10.0004 0.00666273 0)
(10.0161 0.00585932 0)
(10.0291 0.00458957 0)
(10.0391 0.00315942 0)
(10.046 0.00188771 0)
(10.0503 0.00100029 0)
(10.0526 0.000469749 0)
(10.0537 -0.000133758 0)
(10.0541 -0.000609148 0)
(10.054 -0.0010634 0)
(10.0535 -0.00138831 0)
(10.053 -0.00145667 0)
(10.0525 -0.00131553 0)
(10.0522 -0.00111795 0)
(10.052 -0.000939622 0)
(10.0519 -0.000797436 0)
(10.0518 -0.000692685 0)
(10.0518 -0.000619864 0)
(10.0518 -0.00057157 0)
(10.0518 -0.000540831 0)
(10.0518 -0.000521981 0)
(10.0518 -0.000510806 0)
(10.0518 -0.000504391 0)
(10.0518 -0.000500815 0)
(10.0518 -0.000498881 0)
(10.0518 -0.000497859 0)
(10.0518 -0.000497344 0)
(10.0518 -0.000497065 0)
(10.0518 -0.000496938 0)
(10.0518 -0.000496843 0)
(10.0518 -0.000496846 0)
(10.0518 -0.000496758 0)
(10.0518 -0.000496887 0)
(10.0518 -0.000496652 0)
(10.0518 -0.000497076 0)
(10.0518 -0.000496361 0)
(10.0518 -0.000497515 0)
(10.0518 -0.000495742 0)
(10.0518 -0.000498316 0)
(10.0518 -0.000494788 0)
(10.0518 -0.000499327 0)
(10.0518 -0.000493801 0)
(10.0518 -0.000499972 0)
(10.0518 -0.000493493 0)
(10.0518 -0.000499981 0)
(10.0518 -0.000492815 0)
(10.0518 -0.000502053 0)
(10.0518 -0.000487351 0)
(10.0518 -0.000509809 0)
(10.0518 -0.000476466 0)
(10.0518 -0.0005192 0)
(10.0518 -0.000471356 0)
(10.0518 -0.000508643 0)
(10.0518 -0.000496612 0)
(10.0518 -0.000444849 0)
(10.0518 -0.000585356 0)
(10.0518 -0.000328426 0)
(10.0518 -0.000567105 0)
(10.0519 -0.000432092 0)
(10.0518 -0.000498552 0)
(10.0519 -0.000438935 0)
(10.0519 -0.000224618 0)
(10.0519 -0.000637518 0)
(10.0519 -3.67058e-05 0)
(10.052 -0.000298453 0)
(10.0521 -0.000206323 0)
(10.0521 -0.000137889 0)
(10.0519 0.000523967 0)
(10.0518 0.00138308 0)
(10.0511 0.00299915 0)
(10.0491 0.00810002 0)
(10.0468 0.0192833 0)
(10.0414 0.0468445 0)
(10.0463 0.127051 0)
(9.39406 0.00454664 0)
(9.41913 0.00728712 0)
(9.45366 0.00712321 0)
(9.48882 0.00743278 0)
(9.52055 0.00752796 0)
(9.55233 0.00723848 0)
(9.58362 0.00681265 0)
(9.61303 0.00633566 0)
(9.64057 0.0058732 0)
(9.66656 0.00546984 0)
(9.69117 0.00509946 0)
(9.71451 0.00477854 0)
(9.73678 0.00448942 0)
(9.75806 0.00427127 0)
(9.77863 0.00414043 0)
(9.7988 0.00403744 0)
(9.81858 0.0039195 0)
(9.83796 0.00384369 0)
(9.85714 0.00379982 0)
(9.87604 0.00375504 0)
(9.89451 0.00367786 0)
(9.91241 0.00354372 0)
(9.92978 0.00343858 0)
(9.94704 0.0034355 0)
(9.96442 0.00355473 0)
(9.98223 0.00371317 0)
(10 0.00366782 0)
(10.0163 0.00323367 0)
(10.0299 0.00243451 0)
(10.0403 0.00144907 0)
(10.0474 0.000420555 0)
(10.0518 -0.000624437 0)
(10.054 -0.00126203 0)
(10.0548 -0.00148017 0)
(10.0548 -0.00155247 0)
(10.0542 -0.0016113 0)
(10.053 -0.00164007 0)
(10.0516 -0.00159747 0)
(10.0504 -0.00150531 0)
(10.0494 -0.00142248 0)
(10.0488 -0.00136642 0)
(10.0483 -0.00132768 0)
(10.048 -0.00129933 0)
(10.0478 -0.00127834 0)
(10.0477 -0.00126331 0)
(10.0477 -0.00125305 0)
(10.0476 -0.00124637 0)
(10.0476 -0.00124221 0)
(10.0476 -0.00123971 0)
(10.0476 -0.00123825 0)
(10.0476 -0.00123743 0)
(10.0476 -0.00123698 0)
(10.0476 -0.00123677 0)
(10.0476 -0.00123667 0)
(10.0476 -0.0012366 0)
(10.0476 -0.00123656 0)
(10.0476 -0.00123656 0)
(10.0476 -0.0012365 0)
(10.0476 -0.00123658 0)
(10.0476 -0.00123643 0)
(10.0476 -0.0012367 0)
(10.0476 -0.00123624 0)
(10.0476 -0.00123697 0)
(10.0476 -0.00123587 0)
(10.0476 -0.00123744 0)
(10.0476 -0.00123533 0)
(10.0476 -0.00123798 0)
(10.0476 -0.00123485 0)
(10.0476 -0.00123824 0)
(10.0476 -0.00123483 0)
(10.0476 -0.00123815 0)
(10.0476 -0.00123445 0)
(10.0476 -0.00123963 0)
(10.0476 -0.00123089 0)
(10.0476 -0.0012444 0)
(10.0476 -0.00122484 0)
(10.0476 -0.0012491 0)
(10.0476 -0.00122494 0)
(10.0476 -0.00123895 0)
(10.0476 -0.00124697 0)
(10.0476 -0.00120529 0)
(10.0476 -0.00130551 0)
(10.0476 -0.00113301 0)
(10.0477 -0.00127207 0)
(10.0476 -0.00124225 0)
(10.0476 -0.00124925 0)
(10.0476 -0.0012788 0)
(10.0477 -0.00111747 0)
(10.0477 -0.00139087 0)
(10.0476 -0.00107064 0)
(10.0478 -0.00114276 0)
(10.0479 -0.00118297 0)
(10.0477 -0.00102239 0)
(10.0476 -0.000635983 0)
(10.0477 0.000128554 0)
(10.0474 0.00190005 0)
(10.0466 0.00723141 0)
(10.0459 0.019127 0)
(10.0464 0.0474929 0)
(10.063 0.119448 0)
(9.39387 0.00096147 0)
(9.41839 0.00131819 0)
(9.45276 0.00114334 0)
(9.48797 0.00123246 0)
(9.51964 0.00123267 0)
(9.55135 0.0011341 0)
(9.58266 0.00103382 0)
(9.61209 0.000882378 0)
(9.63955 0.000719644 0)
(9.66556 0.000597393 0)
(9.69022 0.000490859 0)
(9.71357 0.000395999 0)
(9.73579 0.000310248 0)
(9.75704 0.000243728 0)
(9.77766 0.000204492 0)
(9.79792 0.000180154 0)
(9.81768 0.000151911 0)
(9.83701 0.000144425 0)
(9.85611 0.000148673 0)
(9.875 0.000166833 0)
(9.89355 0.000181402 0)
(9.91157 0.000160424 0)
(9.92903 0.000134956 0)
(9.94624 0.000146328 0)
(9.9635 0.000221164 0)
(9.98114 0.000338782 0)
(9.99898 0.000404156 0)
(10.0155 0.000336935 0)
(10.0296 0.000121774 0)
(10.0402 -0.000138946 0)
(10.0473 -0.000312339 0)
(10.0514 -0.000373025 0)
(10.0534 -0.00047888 0)
(10.0539 -0.00061211 0)
(10.0538 -0.000823193 0)
(10.0529 -0.00110035 0)
(10.0513 -0.00132378 0)
(10.0493 -0.00140805 0)
(10.0476 -0.00135396 0)
(10.0462 -0.00124099 0)
(10.0453 -0.00112706 0)
(10.0446 -0.00103356 0)
(10.0442 -0.000964134 0)
(10.0439 -0.000915802 0)
(10.0437 -0.000883723 0)
(10.0436 -0.000863242 0)
(10.0435 -0.000850612 0)
(10.0435 -0.000843068 0)
(10.0435 -0.0008387 0)
(10.0435 -0.000836245 0)
(10.0435 -0.000834907 0)
(10.0435 -0.000834194 0)
(10.0435 -0.000833822 0)
(10.0435 -0.000833628 0)
(10.0435 -0.000833549 0)
(10.0435 -0.000833482 0)
(10.0435 -0.00083347 0)
(10.0435 -0.000833422 0)
(10.0435 -0.000833479 0)
(10.0435 -0.000833375 0)
(10.0435 -0.000833566 0)
(10.0435 -0.000833242 0)
(10.0435 -0.000833762 0)
(10.0435 -0.000832978 0)
(10.0435 -0.000834092 0)
(10.0435 -0.000832597 0)
(10.0435 -0.000834465 0)
(10.0435 -0.000832262 0)
(10.0435 -0.00083462 0)
(10.0435 -0.000832273 0)
(10.0435 -0.000834495 0)
(10.0435 -0.000831973 0)
(10.0435 -0.000835501 0)
(10.0435 -0.000829235 0)
(10.0435 -0.000838931 0)
(10.0435 -0.00082465 0)
(10.0435 -0.000842173 0)
(10.0435 -0.00082407 0)
(10.0435 -0.000834709 0)
(10.0435 -0.000838236 0)
(10.0435 -0.000806536 0)
(10.0435 -0.000878264 0)
(10.0435 -0.000748897 0)
(10.0435 -0.000848077 0)
(10.0435 -0.000825096 0)
(10.0435 -0.00082356 0)
(10.0435 -0.000823225 0)
(10.0435 -0.000690014 0)
(10.0435 -0.000891298 0)
(10.0435 -0.000583336 0)
(10.0437 -0.000632651 0)
(10.0438 -0.000652113 0)
(10.0437 -0.000479796 0)
(10.0438 9.93042e-05 0)
(10.0439 0.00100371 0)
(10.0438 0.00283932 0)
(10.044 0.00798367 0)
(10.0455 0.019759 0)
(10.0514 0.0471419 0)
(10.0772 0.109753 0)
(9.39391 -0.00274682 0)
(9.41859 -0.00496248 0)
(9.45306 -0.00513838 0)
(9.48828 -0.00527193 0)
(9.51996 -0.00538374 0)
(9.55167 -0.00528159 0)
(9.58299 -0.00503804 0)
(9.61242 -0.00484527 0)
(9.6399 -0.00469032 0)
(9.66588 -0.00452016 0)
(9.69053 -0.00435435 0)
(9.7139 -0.00420853 0)
(9.73614 -0.00407777 0)
(9.75738 -0.00398965 0)
(9.77803 -0.00393338 0)
(9.79827 -0.00386695 0)
(9.81801 -0.00379669 0)
(9.83733 -0.00373157 0)
(9.85648 -0.00368437 0)
(9.87537 -0.00361486 0)
(9.89391 -0.00352121 0)
(9.91193 -0.00343663 0)
(9.92939 -0.00337757 0)
(9.94659 -0.00334384 0)
(9.96384 -0.00331304 0)
(9.98148 -0.00325534 0)
(9.99937 -0.00309791 0)
(10.016 -0.00277596 0)
(10.03 -0.00237779 0)
(10.0405 -0.00199308 0)
(10.0475 -0.00170541 0)
(10.0516 -0.00151941 0)
(10.0535 -0.0013686 0)
(10.0541 -0.00121468 0)
(10.054 -0.00100062 0)
(10.053 -0.000732437 0)
(10.0514 -0.000517065 0)
(10.0495 -0.000436104 0)
(10.0477 -0.000481216 0)
(10.0464 -0.000573619 0)
(10.0454 -0.000664956 0)
(10.0447 -0.000739099 0)
(10.0443 -0.000793038 0)
(10.044 -0.000829472 0)
(10.0438 -0.000852863 0)
(10.0437 -0.000867313 0)
(10.0436 -0.000875956 0)
(10.0436 -0.000880966 0)
(10.0435 -0.000883782 0)
(10.0435 -0.000885318 0)
(10.0435 -0.00088613 0)
(10.0435 -0.00088655 0)
(10.0435 -0.000886771 0)
(10.0435 -0.000886884 0)
(10.0435 -0.000886931 0)
(10.0435 -0.000886963 0)
(10.0435 -0.000886995 0)
(10.0435 -0.000886977 0)
(10.0435 -0.00088701 0)
(10.0435 -0.000886946 0)
(10.0435 -0.000887058 0)
(10.0435 -0.000886862 0)
(10.0435 -0.000887177 0)
(10.0435 -0.000886706 0)
(10.0435 -0.000887371 0)
(10.0435 -0.000886483 0)
(10.0435 -0.000887583 0)
(10.0435 -0.000886297 0)
(10.0435 -0.00088766 0)
(10.0435 -0.000886319 0)
(10.0435 -0.000887564 0)
(10.0435 -0.000886119 0)
(10.0435 -0.000888221 0)
(10.0435 -0.000884344 0)
(10.0435 -0.000890292 0)
(10.0435 -0.000881675 0)
(10.0435 -0.000892009 0)
(10.0435 -0.000881758 0)
(10.0435 -0.000886506 0)
(10.0435 -0.000892007 0)
(10.0435 -0.000869614 0)
(10.0435 -0.000916053 0)
(10.0435 -0.00083319 0)
(10.0436 -0.00089374 0)
(10.0436 -0.000893667 0)
(10.0436 -0.000883329 0)
(10.0435 -0.000891149 0)
(10.0436 -0.000803088 0)
(10.0436 -0.000936408 0)
(10.0436 -0.000765257 0)
(10.0438 -0.000765699 0)
(10.0438 -0.000790773 0)
(10.0438 -0.000608817 0)
(10.0438 -0.000260889 0)
(10.0442 0.000600409 0)
(10.0447 0.00247612 0)
(10.0458 0.00754573 0)
(10.0494 0.0189654 0)
(10.0599 0.0445153 0)
(10.0926 0.0979009 0)
(9.39419 -0.00640532 0)
(9.41974 -0.0109636 0)
(9.45454 -0.0111159 0)
(9.48974 -0.0114714 0)
(9.52148 -0.0116798 0)
(9.55328 -0.0113844 0)
(9.5846 -0.0108164 0)
(9.61403 -0.0103073 0)
(9.64156 -0.00984896 0)
(9.66753 -0.00939267 0)
(9.69212 -0.00896788 0)
(9.71551 -0.00859728 0)
(9.73778 -0.00825757 0)
(9.75905 -0.00801759 0)
(9.77968 -0.00786509 0)
(9.79984 -0.00771116 0)
(9.81955 -0.00755852 0)
(9.83896 -0.00743284 0)
(9.85816 -0.00734247 0)
(9.87709 -0.00720978 0)
(9.89555 -0.00702528 0)
(9.91343 -0.00683501 0)
(9.93083 -0.00670191 0)
(9.94807 -0.00665824 0)
(9.96545 -0.00667724 0)
(9.98327 -0.00667061 0)
(10.001 -0.00641647 0)
(10.0173 -0.00572389 0)
(10.031 -0.00473484 0)
(10.0413 -0.00365848 0)
(10.0485 -0.00267194 0)
(10.0527 -0.00188175 0)
(10.0549 -0.00136028 0)
(10.0556 -0.00109394 0)
(10.0556 -0.000990638 0)
(10.0549 -0.000954339 0)
(10.0536 -0.000968076 0)
(10.0521 -0.00101546 0)
(10.0507 -0.00107101 0)
(10.0497 -0.00110753 0)
(10.049 -0.00112833 0)
(10.0485 -0.00114332 0)
(10.0482 -0.00115551 0)
(10.048 -0.00116516 0)
(10.0479 -0.00117229 0)
(10.0478 -0.00117717 0)
(10.0478 -0.00118031 0)
(10.0477 -0.00118222 0)
(10.0477 -0.00118334 0)
(10.0477 -0.00118397 0)
(10.0477 -0.00118431 0)
(10.0477 -0.0011845 0)
(10.0477 -0.00118459 0)
(10.0477 -0.00118462 0)
(10.0477 -0.00118463 0)
(10.0477 -0.00118464 0)
(10.0477 -0.00118466 0)
(10.0477 -0.00118465 0)
(10.0477 -0.00118467 0)
(10.0477 -0.00118464 0)
(10.0477 -0.00118471 0)
(10.0477 -0.00118458 0)
(10.0477 -0.00118478 0)
(10.0477 -0.00118448 0)
(10.0477 -0.00118491 0)
(10.0477 -0.00118433 0)
(10.0477 -0.00118505 0)
(10.0477 -0.00118421 0)
(10.0477 -0.00118511 0)
(10.0477 -0.00118422 0)
(10.0477 -0.00118502 0)
(10.0477 -0.00118408 0)
(10.0477 -0.00118545 0)
(10.0477 -0.00118278 0)
(10.0477 -0.00118683 0)
(10.0477 -0.00118098 0)
(10.0477 -0.00118783 0)
(10.0477 -0.00118104 0)
(10.0477 -0.00118359 0)
(10.0477 -0.00118818 0)
(10.0477 -0.00117094 0)
(10.0477 -0.00120415 0)
(10.0477 -0.00114358 0)
(10.0478 -0.00118455 0)
(10.0478 -0.00118795 0)
(10.0478 -0.00117486 0)
(10.0478 -0.00118081 0)
(10.0478 -0.00110613 0)
(10.0478 -0.00120481 0)
(10.0478 -0.00105339 0)
(10.048 -0.00104297 0)
(10.0481 -0.00105226 0)
(10.0481 -0.000876355 0)
(10.0482 -0.000439695 0)
(10.0487 0.000368986 0)
(10.0495 0.0020828 0)
(10.0515 0.00679264 0)
(10.0569 0.0174085 0)
(10.071 0.0405002 0)
(10.1084 0.0856352 0)
(9.39466 -0.00996069 0)
(9.42161 -0.0164532 0)
(9.45695 -0.0165714 0)
(9.49207 -0.0171259 0)
(9.52391 -0.0173769 0)
(9.55586 -0.0168864 0)
(9.58716 -0.0160133 0)
(9.61657 -0.0152303 0)
(9.64419 -0.0145045 0)
(9.67018 -0.0137836 0)
(9.69468 -0.0131269 0)
(9.71802 -0.0125676 0)
(9.74036 -0.0120415 0)
(9.76168 -0.0116519 0)
(9.78223 -0.0113962 0)
(9.80227 -0.0111601 0)
(9.82189 -0.0109539 0)
(9.84136 -0.0107932 0)
(9.86063 -0.0106643 0)
(9.87945 -0.0104575 0)
(9.89764 -0.0101777 0)
(9.91519 -0.00989701 0)
(9.93234 -0.00970995 0)
(9.94945 -0.00967145 0)
(9.96679 -0.009745 0)
(9.98452 -0.00973374 0)
(10.0018 -0.00929484 0)
(10.0173 -0.00823419 0)
(10.0301 -0.00674962 0)
(10.0398 -0.00512176 0)
(10.0465 -0.00362214 0)
(10.0507 -0.00241735 0)
(10.0531 -0.00154874 0)
(10.0541 -0.000964361 0)
(10.0544 -0.00052093 0)
(10.0542 -7.27641e-05 0)
(10.0537 0.000261941 0)
(10.053 0.00033779 0)
(10.0524 0.000196169 0)
(10.052 4.42165e-06 0)