/*--------------------------------*- C++ -*----------------------------------*\
| =========                 |                                                 |
| \\      /  F ield         | OpenFOAM: The Open Source CFD Toolbox           |
|  \\    /   O peration     | Version:  v2012                                 |
|   \\  /    A nd           | Website:  www.openfoam.com                      |
|    \\/     M anipulation  |                                                 |
\*---------------------------------------------------------------------------*/
FoamFile
{
    version     2.0;
    format      ascii;
    class       volScalarField;
    location    "0.299";
    object      k.air;
}
// * * * * * * * * * * * * * * * * * * * * * * * * * * * * * * * * * * * * * //

dimensions      [0 2 -2 0 0 0 0];


internalField   nonuniform List<scalar> 
5600
(
0.606318
0.840794
0.955143
0.978142
0.94919
0.897575
0.839564
0.787264
0.743295
0.707283
0.679339
0.658378
0.643343
0.632665
0.625305
0.620044
0.616287
0.613292
0.610959
0.608795
0.607122
0.605409
0.60426
0.603083
0.602465
0.601745
0.601448
0.601028
0.600893
0.600565
0.600429
0.600035
0.599814
0.599332
0.599047
0.598521
0.59821
0.597673
0.597368
0.596846
0.596575
0.596093
0.59588
0.595448
0.595307
0.594939
0.594872
0.594548
0.594546
0.594256
0.594293
0.594046
0.59413
0.593907
0.594044
0.593853
0.594052
0.593898
0.594154
0.594046
0.594367
0.594281
0.594672
0.594604
0.59506
0.595007
0.595531
0.595487
0.59608
0.596036
0.596706
0.596654
0.597409
0.59734
0.598185
0.598093
0.599029
0.598913
0.59993
0.599795
0.600871
0.600742
0.601824
0.601767
0.602746
0.602916
0.603556
0.604308
0.604078
0.606235
0.603959
0.609297
0.602124
0.615262
0.595194
0.630213
0.57113
0.676587
0.478253
0.840755
0.371632
0.315585
0.288636
0.275696
0.274934
0.284678
0.307337
0.344956
0.387088
0.430226
0.471436
0.509018
0.541753
0.569453
0.591919
0.609786
0.623506
0.633884
0.641789
0.647712
0.652624
0.65633
0.660061
0.662966
0.665953
0.668041
0.670324
0.671711
0.673314
0.673905
0.67492
0.674946
0.675604
0.675394
0.675886
0.675587
0.676002
0.675678
0.676089
0.67579
0.676257
0.676019
0.676568
0.676403
0.677029
0.676877
0.677521
0.67734
0.677992
0.67778
0.678479
0.678245
0.679007
0.678789
0.679642
0.679444
0.680407
0.680217
0.681299
0.681093
0.682276
0.682053
0.683342
0.683078
0.684477
0.684159
0.685665
0.685289
0.68691
0.686471
0.688234
0.687693
0.689631
0.688967
0.691103
0.69029
0.692637
0.691655
0.694197
0.69304
0.695745
0.694456
0.697243
0.695946
0.69864
0.697621
0.699799
0.699716
0.700416
0.702695
0.699727
0.707633
0.696117
0.716953
0.68584
0.736455
0.658772
0.780908
0.585178
0.884116
0.369157
0.281895
0.227742
0.192985
0.168605
0.15377
0.145631
0.143599
0.146973
0.155084
0.167021
0.181966
0.199243
0.218608
0.239096
0.260655
0.282472
0.304539
0.326424
0.348206
0.369558
0.390333
0.409303
0.425522
0.439939
0.45205
0.462995
0.471876
0.480052
0.486548
0.492858
0.497678
0.502746
0.506464
0.510611
0.513518
0.516993
0.519322
0.522362
0.524303
0.527064
0.528738
0.531297
0.532737
0.535143
0.53636
0.538587
0.539584
0.541679
0.542503
0.544527
0.545228
0.547224
0.54784
0.549852
0.550391
0.552437
0.552888
0.554973
0.555322
0.55745
0.55768
0.559869
0.559965
0.562239
0.562187
0.564556
0.564369
0.566858
0.56653
0.569161
0.568671
0.57148
0.570792
0.57381
0.572879
0.576136
0.574916
0.578422
0.57689
0.580648
0.578809
0.582804
0.580712
0.584874
0.582676
0.586788
0.584834
0.588399
0.587399
0.5894
0.590843
0.589105
0.596244
0.586017
0.605715
0.577057
0.622955
0.55757
0.636853
0.37012
0.280622
0.224142
0.186009
0.158604
0.138134
0.123017
0.111286
0.102971
0.0969464
0.0935732
0.0922935
0.0929481
0.0953489
0.0994886
0.105293
0.112844
0.121891
0.132873
0.145203
0.159506
0.175097
0.192528
0.210418
0.229108
0.247355
0.26552
0.281945
0.297798
0.311723
0.325239
0.336663
0.347935
0.357368
0.36687
0.374694
0.382846
0.389453
0.396613
0.402226
0.408534
0.413223
0.418727
0.422607
0.427385
0.430473
0.434702
0.437273
0.441151
0.443353
0.446998
0.448932
0.452422
0.454134
0.457518
0.459
0.462283
0.463536
0.466743
0.467776
0.47094
0.471752
0.47491
0.475508
0.478694
0.479088
0.482328
0.482527
0.485868
0.485855
0.48933
0.48909
0.492722
0.492218
0.496035
0.495223
0.499275
0.498107
0.50242
0.500863
0.505458
0.503501
0.508399
0.506057
0.511242
0.508602
0.513953
0.511211
0.516448
0.514002
0.518569
0.517244
0.519964
0.521509
0.520008
0.527322
0.518348
0.53379
0.518146
0.52984
0.370322
0.280735
0.224438
0.185974
0.158507
0.137551
0.121639
0.108643
0.0984593
0.0898626
0.0830362
0.0773069
0.0728814
0.0691628
0.0666798
0.0645243
0.0639046
0.063331
0.0645194
0.0656526
0.0687803
0.0720686
0.0775056
0.0834242
0.09148
0.100096
0.110721
0.121456
0.133839
0.145983
0.159521
0.172604
0.18661
0.199264
0.212523
0.224231
0.236456
0.247003
0.258152
0.26753
0.277619
0.285874
0.295078
0.302319
0.310598
0.316798
0.324233
0.329573
0.33636
0.341038
0.347336
0.351477
0.357355
0.360985
0.366463
0.369531
0.374639
0.377246
0.382084
0.384294
0.388942
0.39079
0.395309
0.396836
0.401283
0.402528
0.406943
0.40792
0.412357
0.413053
0.417543
0.41792
0.422473
0.422522
0.427165
0.426877
0.431632
0.430922
0.435835
0.434737
0.439854
0.438371
0.443722
0.441871
0.447435
0.445323
0.450971
0.448774
0.454283
0.452305
0.457269
0.456098
0.45975
0.460339
0.461677
0.464774
0.463653
0.467958
0.467847
0.465893
0.370357
0.280756
0.22458
0.18612
0.158744
0.137796
0.121913
0.108841
0.0985475
0.0896824
0.0825194
0.0761238
0.0710013
0.0661
0.0625078
0.0585445
0.0561536
0.0529491
0.0514671
0.0490124
0.0482405
0.0465976
0.0465534
0.0458033
0.0467379
0.046942
0.0491316
0.050497
0.0541429
0.0569435
0.0621459
0.0666136
0.0734693
0.0794998
0.0877396
0.0950064
0.104343
0.112428
0.122534
0.131132
0.141772
0.150684
0.161302
0.170008
0.180376
0.188619
0.198533
0.206148
0.215495
0.222433
0.231203
0.237485
0.245721
0.251396
0.259273
0.264397
0.271837
0.276385
0.283413
0.28742
0.294114
0.297624
0.304057
0.307137
0.313374
0.316082
0.322158
0.324506
0.33045
0.332427
0.338237
0.339763
0.34544
0.346576
0.352176
0.352954
0.358514
0.358929
0.364446
0.36455
0.370042
0.369883
0.375343
0.374991
0.380359
0.379958
0.385095
0.384831
0.389543
0.389642
0.393668
0.394448
0.397468
0.399169
0.401144
0.403432
0.405131
0.406682
0.409578
0.408872
0.370361
0.280749
0.224611
0.186152
0.158822
0.137887
0.122033
0.108995
0.0987028
0.0898596
0.0826932
0.0762351
0.071123
0.0660175
0.0624142
0.0581242
0.0555846
0.0519578
0.0500595
0.0470736
0.0455795
0.0431064
0.0420251
0.0398475
0.0393
0.0372767
0.0372853
0.0354792
0.0359687
0.0345469
0.035503
0.0346092
0.0361488
0.0358258
0.0381262
0.0384596
0.0416357
0.0427525
0.0468689
0.0489074
0.0540022
0.0570638
0.063094
0.067038
0.0739396
0.0786567
0.0862975
0.0916339
0.0998106
0.105541
0.114055
0.119985
0.12872
0.134654
0.143285
0.149072
0.157619
0.163174
0.171553
0.17679
0.184955
0.189814
0.197727
0.202201
0.209848
0.213957
0.221348
0.225098
0.232344
0.235813
0.242905
0.246045
0.252913
0.255721
0.262358
0.264858
0.271263
0.273498
0.279648
0.281686
0.287566
0.289473
0.295057
0.296915
0.302135
0.30406
0.308818
0.310915
0.315119
0.317454
0.321035
0.323659
0.326613
0.329431
0.331954
0.334657
0.337083
0.339415
0.341524
0.343891
0.370358
0.280743
0.224604
0.186161
0.158821
0.137925
0.122039
0.109065
0.0987276
0.0899418
0.0827575
0.0763101
0.0712268
0.0660857
0.0625155
0.0582056
0.055616
0.0520511
0.0499732
0.0471009
0.0453666
0.0429279
0.0416427
0.0393226
0.0385728
0.036268
0.0359161
0.0337578
0.0335911
0.0316717
0.0316506
0.0298923
0.0301403
0.0284114
0.029008
0.0273279
0.0282357
0.0266963
0.0278976
0.0265748
0.0281281
0.0270445
0.0290357
0.0282557
0.0307371
0.0303537
0.0333465
0.03348
0.0370326
0.0377367
0.0418808
0.0432109
0.0480015
0.049962
0.0552841
0.0578016
0.0636472
0.0666749
0.072984
0.0764455
0.0831654
0.0869814
0.0939777
0.0980422
0.105198
0.109417
0.11666
0.120914
0.128054
0.132165
0.139188
0.143264
0.15016
0.154176
0.160893
0.164837
0.171311
0.175192
0.181356
0.185194
0.191018
0.194824
0.200272
0.204076
0.209096
0.212954
0.217516
0.221434
0.225549
0.229498
0.233179
0.23715
0.240426
0.244369
0.247292
0.251161
0.253659
0.257589
0.259244
0.263423
0.370348
0.280748
0.224579
0.186179
0.158789
0.137959
0.122008
0.109105
0.0987111
0.0899818
0.082757
0.076356
0.0712282
0.0661573
0.0624949
0.0583233
0.0555581
0.052211
0.0498941
0.0472624
0.0453031
0.0430489
0.0415965
0.0394097
0.0384831
0.0363562
0.0357115
0.0338328
0.0332475
0.0316395
0.0311582
0.0296331
0.0294097
0.0278314
0.0278607
0.0262975
0.0264512
0.0249814
0.0252238
0.0238154
0.0242094
0.0227992
0.023375
0.0219805
0.0227134
0.0213874
0.0222458
0.0210273
0.0220406
0.0209424
0.0221336
0.0211754
0.0225902
0.0218329
0.0234484
0.0229475
0.0248316
0.0246141
0.026802
0.0268882
0.0294189
0.0299162
0.0327717
0.0337112
0.0368972
0.0383258
0.0419053
0.0437944
0.047677
0.0499769
0.0541345
0.0568531
0.0612228
0.0643211
0.0688723
0.0723486
0.0770284
0.0808361
0.0855591
0.0896362
0.0943626
0.098651
0.103304
0.107742
0.112244
0.11679
0.121117
0.125723
0.129856
0.134483
0.138403
0.143014
0.146741
0.151331
0.154882
0.159386
0.162639
0.167021
0.169837
0.173853
0.370337
0.280765
0.224548
0.186209
0.158751
0.137991
0.121981
0.109128
0.098698
0.0900049
0.0827374
0.0764056
0.0711769
0.0662501
0.0624077
0.0584488
0.0554574
0.0523391
0.0498092
0.0473721
0.0452386
0.0431529
0.0415232
0.0395442
0.0383676
0.0365367
0.0355568
0.0340327
0.033083
0.0318234
0.0309947
0.0297981
0.0292127
0.0279987
0.0275911
0.0264595
0.0260944
0.0250977
0.0247683
0.0238375
0.0236093
0.0226829
0.0225591
0.021659
0.0215915
0.0207529
0.0207166
0.0199345
0.0199443
0.0192101
0.0192648
0.0185743
0.0186735
0.0180632
0.018169
0.0176422
0.0177966
0.0173361
0.0175625
0.0171635
0.0174566
0.017185
0.0175321
0.0174113
0.0178164
0.0178596
0.0183988
0.0186192
0.0192722
0.0197036
0.0205264
0.021219
0.0222164
0.0231812
0.0243695
0.0256709
0.0270999
0.0287548
0.0304352
0.0324407
0.0344254
0.0368249
0.0391176
0.0418947
0.044494
0.0476269
0.0505398
0.05401
0.0572001
0.0609841
0.0644068
0.0684202
0.0720441
0.0761922
0.0800207
0.084312
0.0882865
0.0926101
0.0966327
0.1008
0.370329
0.280783
0.224528
0.186239
0.158727
0.138016
0.121969
0.109138
0.0986984
0.0900135
0.0827243
0.0764421
0.0711262
0.0663248
0.0623267
0.0585364
0.0553837
0.0524014
0.049767
0.0474083
0.0452038
0.0432027
0.0414551
0.0396352
0.0382626
0.0366486
0.0354522
0.0341294
0.033
0.0319054
0.0309142
0.0298939
0.0291078
0.0281216
0.0274676
0.0265917
0.0259726
0.0252291
0.0246504
0.0239795
0.0234852
0.0228469
0.0224318
0.0218442
0.0214732
0.0209536
0.0206233
0.0201576
0.0198792
0.0194699
0.0192391
0.0188891
0.0187039
0.0184441
0.0182864
0.0181219
0.018025
0.0179488
0.0179396
0.0179601
0.0180503
0.0182041
0.0184107
0.0187252
0.0190637
0.0195609
0.0200898
0.0208
0.0215211
0.0224665
0.0234361
0.0246539
0.0258972
0.0274111
0.0289443
0.0307934
0.0326579
0.0348599
0.0370629
0.0396094
0.0421679
0.0450807
0.0479871
0.0511993
0.0543894
0.0578516
0.0613038
0.0650042
0.0686765
0.0726004
0.0764692
0.0805632
0.0845917
0.0887944
0.0929539
0.0972454
0.101501
0.105849
0.110184
0.114621
0.370327
0.280798
0.224526
0.186261
0.15872
0.138035
0.121966
0.109145
0.098701
0.0900138
0.0827191
0.0764524
0.0710972
0.0663544
0.0622765
0.0585688
0.0553394
0.0524087
0.0497455
0.0473946
0.0451816
0.0432028
0.0414031
0.0396644
0.0381911
0.0366823
0.0353995
0.0341448
0.0329787
0.0319237
0.0309051
0.0299532
0.0291086
0.0282364
0.0275165
0.0267645
0.0261174
0.0254948
0.0249306
0.0244103
0.0239558
0.0235295
0.0231902
0.022883
0.0226585
0.0224946
0.0224155
0.0224091
0.0225159
0.0227049
0.0230273
0.0234564
0.0240371
0.0247633
0.0256341
0.0267036
0.0279219
0.0293785
0.0309954
0.032879
0.0349361
0.0372841
0.0398226
0.042655
0.0456856
0.0489764
0.0524198
0.0561046
0.0599237
0.0639789
0.0681513
0.0725426
0.0770248
0.0816952
0.0864202
0.0913021
0.0962021
0.101225
0.106218
0.111301
0.116313
0.121406
0.126382
0.131344
0.136163
0.140976
0.145704
0.150405
0.155013
0.159592
0.164056
0.168484
0.172778
0.177028
0.181154
0.185235
0.189208
0.193151
0.197054
0.20101
0.370327
0.280811
0.224535
0.186275
0.158724
0.138046
0.121963
0.109147
0.0986913
0.0900045
0.0827016
0.0764359
0.0710656
0.0663372
0.0622299
0.0585477
0.0552918
0.0523737
0.0497099
0.0473551
0.0451525
0.0431887
0.0413794
0.0396979
0.0382043
0.0367744
0.0355077
0.0343271
0.0332411
0.0322826
0.0313955
0.0306218
0.0299588
0.0293779
0.0289429
0.0286052
0.0284169
0.0283755
0.028501
0.0288095
0.0293258
0.0300545
0.031035
0.0322718
0.0337941
0.0356235
0.0377745
0.0402546
0.0431033
0.0462919
0.0498787
0.0537824
0.0580064
0.0625363
0.0673599
0.0724673
0.0778228
0.0834254
0.0892101
0.0951916
0.10128
0.107506
0.113775
0.120122
0.126471
0.132755
0.138946
0.145122
0.151232
0.157302
0.16328
0.169197
0.175003
0.180731
0.186336
0.191851
0.197245
0.20254
0.207715
0.212786
0.217744
0.2226
0.227346
0.232042
0.236626
0.241136
0.24552
0.249798
0.253949
0.257996
0.261906
0.265714
0.269379
0.272947
0.276381
0.279731
0.282967
0.286147
0.28929
0.292487
0.370328
0.280822
0.224545
0.186277
0.158719
0.138031
0.121936
0.109113
0.0986396
0.0899496
0.0826303
0.0763623
0.0709839
0.0662598
0.0621562
0.0584921
0.0552621
0.0523801
0.0497805
0.0474949
0.0453984
0.043574
0.0419262
0.0405008
0.0392735
0.0382445
0.0374324
0.0368549
0.0365085
0.0364769
0.0367205
0.0373449
0.0383206
0.0397338
0.0415798
0.043925
0.046768
0.0501607
0.054101
0.0586398
0.0636887
0.0692595
0.0753018
0.0818094
0.0887024
0.0959604
0.103483
0.111236
0.119148
0.127169
0.135304
0.143358
0.151366
0.159295
0.167126
0.174824
0.182373
0.189754
0.196949
0.203968
0.210783
0.217431
0.223876
0.230163
0.23626
0.242262
0.24812
0.253844
0.25939
0.264788
0.270005
0.27508
0.279984
0.284759
0.289379
0.293878
0.298243
0.302497
0.306638
0.310678
0.31462
0.31847
0.322223
0.325883
0.329453
0.332909
0.336244
0.339475
0.342608
0.345649
0.348599
0.351466
0.35424
0.356947
0.359564
0.362129
0.364617
0.367074
0.369529
0.372052
0.370326
0.280827
0.224529
0.186236
0.158658
0.137935
0.12182
0.108969
0.0984853
0.0897927
0.0824942
0.0762756
0.0709914
0.0663945
0.0624949
0.0590716
0.0562164
0.0537596
0.0517583
0.0501646
0.0489887
0.0482749
0.0480667
0.0484141
0.0493731
0.0510073
0.0533982
0.0565887
0.0606498
0.0656182
0.0715428
0.0784087
0.086031
0.0944522
0.103444
0.113009
0.122938
0.133241
0.143801
0.154575
0.165296
0.17591
0.186338
0.196527
0.206399
0.21595
0.225122
0.233958
0.242412
0.25055
0.258317
0.265849
0.27309
0.280027
0.286669
0.293019
0.2991
0.304928
0.31052
0.315914
0.321102
0.326141
0.331001
0.335737
0.340304
0.344749
0.34902
0.353121
0.357044
0.360834
0.364476
0.368008
0.371411
0.37472
0.377901
0.380991
0.38398
0.386888
0.389721
0.392482
0.395185
0.397829
0.400422
0.402963
0.405455
0.407895
0.410284
0.412613
0.414898
0.417123
0.419302
0.421429
0.423507
0.425551
0.427539
0.429508
0.43143
0.433351
0.435293
0.437327
0.370307
0.280788
0.224405
0.186075
0.158441
0.137693
0.121596
0.108825
0.0985509
0.0901706
0.0834199
0.0779627
0.0737093
0.0703866
0.06812
0.066668
0.0663311
0.0667837
0.068402
0.070984
0.0749276
0.0801583
0.0869497
0.0951551
0.104965
0.116016
0.128224
0.141237
0.15505
0.169403
0.184267
0.198935
0.213206
0.226997
0.240175
0.252748
0.264652
0.275949
0.28657
0.29661
0.306073
0.314985
0.323338
0.331128
0.338411
0.345252
0.351701
0.357826
0.363647
0.3692
0.374481
0.379489
0.384192
0.388634
0.39285
0.396859
0.400686
0.404348
0.407854
0.411237
0.414485
0.417646
0.420691
0.423674
0.42656
0.429395
0.432143
0.43483
0.437427
0.439961
0.442412
0.444803
0.447125
0.449381
0.451538
0.453644
0.455686
0.457687
0.459643
0.461559
0.463448
0.465301
0.46713
0.468933
0.470715
0.472475
0.47422
0.47593
0.477631
0.479293
0.480944
0.482559
0.484157
0.485733
0.487285
0.488821
0.490347
0.491869
0.493443
0.495137
0.370196
0.28054
0.224231
0.186051
0.158713
0.13852
0.123428
0.112329
0.104414
0.0992897
0.0968327
0.0965748
0.0983713
0.102002
0.10764
0.114997
0.124355
0.135441
0.148591
0.163398
0.180315
0.198742
0.218284
0.238272
0.258306
0.277676
0.295832
0.312658
0.328135
0.342247
0.354975
0.366565
0.377091
0.386681
0.395455
0.403545
0.411033
0.417977
0.424396
0.4303
0.435684
0.440694
0.445265
0.449405
0.453222
0.456775
0.460114
0.463281
0.466299
0.469201
0.471993
0.474696
0.477295
0.479797
0.482206
0.484526
0.486766
0.488932
0.491024
0.493062
0.495031
0.496965
0.498838
0.500691
0.502494
0.504284
0.506036
0.507776
0.50948
0.511163
0.512813
0.514438
0.516029
0.517607
0.519144
0.520658
0.522131
0.523581
0.525
0.526397
0.52778
0.529137
0.530485
0.531813
0.533138
0.534447
0.53576
0.537053
0.538353
0.539628
0.540912
0.54217
0.543434
0.54468
0.545925
0.547154
0.548404
0.549635
0.550926
0.552349
0.369475
0.281382
0.228615
0.193055
0.170712
0.155954
0.150115
0.150454
0.156549
0.16731
0.181625
0.198814
0.21842
0.239718
0.262353
0.285616
0.309405
0.333086
0.356943
0.380286
0.403306
0.423861
0.441743
0.457313
0.470493
0.482407
0.492495
0.501025
0.508346
0.514611
0.520105
0.524948
0.529233
0.533036
0.536433
0.539499
0.542296
0.544886
0.547297
0.549575
0.551716
0.553735
0.555667
0.557484
0.559191
0.560793
0.562302
0.563747
0.565124
0.566472
0.567779
0.569074
0.57035
0.571613
0.572862
0.574094
0.57531
0.576509
0.577689
0.578857
0.58
0.58114
0.582254
0.583368
0.584464
0.585563
0.586651
0.587746
0.588835
0.589923
0.591015
0.592101
0.593186
0.594264
0.59533
0.596381
0.59741
0.598425
0.599425
0.600411
0.601396
0.602365
0.603337
0.604297
0.605264
0.606222
0.607192
0.608154
0.609134
0.6101
0.611087
0.612058
0.613047
0.614027
0.615011
0.616003
0.616994
0.618023
0.619067
0.620247
0.372191
0.315453
0.292826
0.279516
0.286388
0.295372
0.331464
0.373613
0.418618
0.463068
0.504553
0.541604
0.573476
0.599924
0.621222
0.637805
0.650551
0.660065
0.667425
0.673046
0.677645
0.68165
0.685129
0.688116
0.690599
0.692637
0.694329
0.695595
0.696477
0.696999
0.697264
0.697363
0.697346
0.697262
0.697121
0.696968
0.696798
0.696657
0.696533
0.696465
0.696433
0.696452
0.696523
0.69661
0.6967
0.696788
0.696867
0.696953
0.697037
0.697146
0.697268
0.697425
0.697612
0.697838
0.6981
0.698395
0.698723
0.69908
0.699461
0.699869
0.70029
0.700737
0.701191
0.701667
0.702156
0.702664
0.703189
0.703731
0.704297
0.704876
0.705479
0.706099
0.706734
0.707384
0.708043
0.708711
0.709378
0.710046
0.710714
0.71138
0.712053
0.712722
0.713404
0.714084
0.714779
0.715475
0.716189
0.716906
0.717643
0.718382
0.719143
0.719904
0.720685
0.721474
0.722263
0.723087
0.723863
0.724726
0.72553
0.726378
0.606742
0.839814
0.952198
0.969555
0.937537
0.881261
0.821359
0.769006
0.724418
0.688386
0.66068
0.64013
0.625395
0.614958
0.607661
0.602393
0.59851
0.595429
0.592917
0.590802
0.588979
0.587527
0.586345
0.58546
0.584757
0.584202
0.583767
0.583417
0.583086
0.582739
0.582334
0.581884
0.581386
0.580863
0.580311
0.579754
0.579188
0.578632
0.578087
0.577567
0.577072
0.576609
0.576181
0.575794
0.575442
0.575123
0.574828
0.574561
0.574311
0.574087
0.57388
0.573697
0.573539
0.57341
0.573307
0.57323
0.573183
0.573161
0.57317
0.5732
0.573259
0.573338
0.573444
0.573571
0.573717
0.573884
0.574072
0.57428
0.574509
0.574758
0.575027
0.575317
0.575624
0.57595
0.576293
0.576653
0.577028
0.577415
0.577815
0.578223
0.578642
0.579068
0.579505
0.579948
0.580403
0.580864
0.581337
0.581818
0.582312
0.582812
0.583326
0.583844
0.584383
0.584914
0.585486
0.586006
0.586569
0.587009
0.587307
0.587286
0.0627894
2.29891
2.88265
3.08548
3.2318
3.28883
3.26901
3.19977
3.09936
2.99212
2.88389
2.7807
2.6861
2.60089
2.52386
2.4531
2.38691
2.32356
2.26122
2.19964
2.13795
2.07588
2.01363
1.95155
1.88917
1.82722
1.76596
1.70616
1.64711
1.58924
1.53278
1.47828
1.42554
1.37453
1.32522
1.27754
1.23146
1.18689
1.14371
1.10186
1.06123
1.02174
0.983335
0.945998
0.909633
0.874206
0.839633
0.80585
0.772781
0.740433
0.708783
0.677861
0.64764
0.618221
0.58964
0.562063
0.535543
0.510309
0.486407
0.46402
0.443095
0.423856
0.406188
0.390213
0.3756
0.362505
0.350601
0.340026
0.330204
0.321191
0.312576
0.304555
0.296829
0.289258
0.281792
0.274345
0.267635
0.261167
0.255956
0.25039
0.246703
0.242138
0.241064
0.238141
0.23998
0.238001
0.242048
0.240374
0.24639
0.243615
0.249592
0.243204
0.246623
0.236915
0.23754
0.226926
0.226084
0.215877
0.214917
0.205018
0.354411
1.13248
2.06949
2.51618
2.74904
2.848
2.85915
2.81062
2.72797
2.63348
2.53797
2.44933
2.37143
2.30411
2.24551
2.1936
2.1463
2.10176
2.05831
2.01512
1.97121
1.92603
1.87947
1.83172
1.78242
1.73217
1.68117
1.63045
1.57936
1.52851
1.47774
1.42786
1.37925
1.33191
1.28587
1.24107
1.19757
1.15529
1.11415
1.07408
1.03502
0.996906
0.959706
0.923409
0.887946
0.853294
0.819394
0.786193
0.753638
0.721746
0.690522
0.660015
0.630224
0.601253
0.573174
0.546156
0.520276
0.495757
0.472668
0.451174
0.431236
0.413046
0.39651
0.381702
0.368298
0.35638
0.345641
0.336154
0.327375
0.319275
0.311472
0.304111
0.296944
0.289824
0.282711
0.27553
0.268977
0.262635
0.257456
0.251886
0.247999
0.24306
0.241347
0.237625
0.238634
0.235829
0.239274
0.23694
0.242542
0.239284
0.245024
0.238439
0.241811
0.232151
0.232875
0.222483
0.221802
0.211971
0.211138
0.201753
0.551021
0.546651
1.02314
1.57972
1.97706
2.18966
2.28078
2.29152
2.25678
2.19816
2.13201
2.06981
2.01376
1.96572
1.92558
1.89201
1.86307
1.8369
1.81219
1.78749
1.7617
1.73417
1.70457
1.67273
1.63847
1.60219
1.56395
1.52483
1.48435
1.44301
1.40093
1.358
1.31519
1.27292
1.23136
1.19054
1.1506
1.1115
1.07319
1.03565
0.998839
0.962716
0.927293
0.89256
0.858491
0.825075
0.792278
0.760067
0.728412
0.697343
0.666904
0.637159
0.60814
0.579959
0.552724
0.526612
0.501727
0.478279
0.456368
0.43613
0.417547
0.400765
0.385719
0.372418
0.36055
0.350101
0.340793
0.332623
0.325086
0.31806
0.311198
0.304589
0.298052
0.291432
0.284716
0.277836
0.271476
0.26528
0.260158
0.254598
0.250532
0.245222
0.24285
0.238253
0.238308
0.234482
0.237114
0.2339
0.238891
0.234966
0.240313
0.233416
0.236666
0.227027
0.227858
0.217742
0.217275
0.207945
0.207283
0.198587
0.530831
0.495199
0.56044
0.767759
1.07071
1.34256
1.52383
1.61877
1.65654
1.65921
1.64326
1.62296
1.60087
1.5809
1.56505
1.5535
1.54491
1.53813
1.53131
1.52395
1.51525
1.50467
1.49186
1.47609
1.45747
1.43621
1.41235
1.38663
1.35883
1.32894
1.29815
1.26454
1.22953
1.19406
1.15847
1.12294
1.08776
1.05293
1.01844
0.984321
0.950572
0.917211
0.884271
0.851764
0.819713
0.788114
0.756972
0.72628
0.696032
0.666272
0.63709
0.60857
0.580781
0.553841
0.527909
0.503163
0.47974
0.457832
0.437573
0.41906
0.402299
0.387379
0.374261
0.362877
0.352921
0.344272
0.336682
0.33006
0.323956
0.318145
0.31233
0.306535
0.300666
0.294562
0.288259
0.281692
0.275542
0.269499
0.264446
0.258895
0.254664
0.248976
0.245938
0.240403
0.239395
0.234363
0.235959
0.231616
0.235764
0.23095
0.235713
0.22835
0.231378
0.221713
0.222657
0.212875
0.212686
0.204003
0.203566
0.19576
0.472643
0.46335
0.459958
0.486816
0.557034
0.666842
0.788635
0.897547
0.980134
1.03741
1.07367
1.09957
1.11897
1.13532
1.15073
1.16659
1.18231
1.19812
1.21187
1.2237
1.23327
1.24023
1.24429
1.2451
1.24269
1.23703
1.22835
1.21687
1.20246
1.18486
1.16609
1.14362
1.11862
1.09195
1.06409
1.03546
1.00649
0.977217
0.947708
0.918068
0.888369
0.858684
0.82908
0.799608
0.770334
0.741268
0.712466
0.683951
0.655747
0.627913
0.600594
0.573894
0.547924
0.522812
0.498775
0.475987
0.454624
0.434851
0.41684
0.400637
0.38627
0.373753
0.363073
0.354058
0.346414
0.33989
0.334284
0.329402
0.32487
0.320353
0.315626
0.310644
0.305421
0.299791
0.293872
0.287588
0.281641
0.275726
0.270733
0.265161
0.260764
0.254676
0.250966
0.244437
0.242279
0.235875
0.236219
0.230494
0.233542
0.227592
0.23155
0.223545
0.226242
0.216495
0.217567
0.208186
0.208358
0.200483
0.200336
0.193636
0.410909
0.411399
0.406301
0.402142
0.40354
0.414222
0.431502
0.455661
0.483128
0.514591
0.547188
0.581713
0.617799
0.655295
0.693423
0.732313
0.770896
0.809108
0.845275
0.878663
0.908784
0.935234
0.95764
0.97634
0.991205
1.00186
1.00873
1.01146
1.01102
1.00666
1.00042
0.99077
0.978012
0.962318
0.944227
0.924414
0.903472
0.88133
0.858233
0.834398
0.809991
0.785146
0.759976
0.734581
0.70907
0.683477
0.657912
0.632429
0.607098
0.581997
0.55733
0.533219
0.509832
0.487309
0.465929
0.445856
0.42731
0.410422
0.395393
0.382204
0.370899
0.361395
0.353695
0.347501
0.342529
0.33839
0.334941
0.331886
0.328949
0.325688
0.321978
0.317699
0.313008
0.307729
0.302096
0.296007
0.29021
0.284359
0.279389
0.273732
0.269148
0.262612
0.25822
0.250648
0.247279
0.239375
0.238282
0.230943
0.232639
0.225305
0.228239
0.21941
0.221678
0.211805
0.213047
0.204156
0.2048
0.197895
0.198115
0.192729
0.343494
0.345965
0.344398
0.338861
0.330717
0.321924
0.31246
0.30337
0.294466
0.287209
0.282259
0.281216
0.285707
0.297143
0.316113
0.342977
0.376946
0.416832
0.460774
0.506345
0.551592
0.594883
0.634981
0.671079
0.703255
0.730605
0.753625
0.771225
0.785649
0.795693
0.802724
0.806205
0.806055
0.80265
0.796277
0.787398
0.776484
0.763194
0.74814
0.731679
0.714076
0.695509
0.676147
0.656134
0.635628
0.614695
0.593499
0.57213
0.55072
0.529365
0.508332
0.487769
0.467913
0.448922
0.431133
0.414692
0.399874
0.386752
0.375547
0.366146
0.358598
0.352697
0.348449
0.345402
0.343294
0.341603
0.340279
0.33893
0.33741
0.335175
0.332237
0.328404
0.324002
0.318843
0.313314
0.307262
0.30151
0.29561
0.290592
0.284753
0.27994
0.272891
0.267803
0.25915
0.254539
0.245061
0.242405
0.233294
0.23343
0.224511
0.226243
0.216449
0.218245
0.208247
0.209767
0.201488
0.202752
0.19696
0.197633
0.193717
0.263152
0.267098
0.268087
0.264894
0.257998
0.248337
0.236661
0.223962
0.210995
0.198691
0.187702
0.178663
0.172217
0.168683
0.168652
0.172473
0.180996
0.194445
0.213778
0.238587
0.268921
0.303402
0.340782
0.379247
0.41803
0.454948
0.48974
0.520547
0.548006
0.571274
0.590796
0.60651
0.618152
0.6266
0.631509
0.63319
0.632052
0.628356
0.62244
0.614566
0.605017
0.593969
0.581633
0.568187
0.553839
0.538686
0.522948
0.50675
0.490301
0.473717
0.457328
0.44131
0.425986
0.411518
0.398297
0.386445
0.376278
0.367787
0.361183
0.356223
0.352938
0.350971
0.350316
0.350371
0.350922
0.351365
0.351773
0.351685
0.351108
0.349423
0.346799
0.342985
0.338495
0.333123
0.327439
0.321201
0.315341
0.309238
0.30408
0.297946
0.292858
0.285232
0.279452
0.269709
0.263868
0.252827
0.248581
0.237669
0.236146
0.225557
0.226017
0.215228
0.216637
0.206624
0.208635
0.20114
0.203193
0.19861
0.199819
0.197409
0.175713
0.179278
0.181369
0.180555
0.17688
0.170973
0.163766
0.156333
0.149743
0.144664
0.141675
0.140809
0.142018
0.144929
0.149204
0.154448
0.160619
0.167461
0.17544
0.184418
0.195365
0.208054
0.22398
0.242355
0.263493
0.286564
0.311488
0.336997
0.362572
0.387211
0.41028
0.431242
0.449338
0.464438
0.476682
0.485937
0.492266
0.49658
0.498813
0.498961
0.497194
0.493609
0.488411
0.481765
0.473919
0.464972
0.455193
0.444729
0.43386
0.422716
0.411681
0.400941
0.390898
0.381713
0.373818
0.36728
0.36241
0.359076
0.35742
0.35703
0.357898
0.359531
0.361917
0.364363
0.36676
0.368489
0.369786
0.37015
0.369749
0.367912
0.364971
0.360626
0.355594
0.349626
0.3435
0.33683
0.330691
0.324236
0.318863
0.31235
0.306971
0.298748
0.292322
0.281544
0.274565
0.262103
0.256385
0.243839
0.240736
0.228602
0.227921
0.216315
0.217647
0.207919
0.210791
0.204279
0.207264
0.203869
0.205659
0.204586
0.104555
0.108322
0.1118
0.114521
0.11663
0.118626
0.121222
0.125082
0.130653
0.138033
0.147112
0.157423
0.168493
0.179735
0.190677
0.201082
0.210783
0.219727
0.228068
0.235756
0.243077
0.250187
0.257223
0.264494
0.272308
0.280872
0.290353
0.300734
0.312035
0.324082
0.336649
0.349365
0.361716
0.373102
0.383721
0.393261
0.401363
0.408044
0.413296
0.417038
0.419328
0.420117
0.419523
0.41763
0.414644
0.410608
0.405791
0.400323
0.394514
0.388471
0.382589
0.377035
0.372252
0.368372
0.365803
0.364492
0.364667
0.366018
0.368563
0.371743
0.37553
0.379373
0.383313
0.386656
0.389461
0.39117
0.392186
0.391984
0.390868
0.388116
0.384216
0.37882
0.37285
0.36598
0.359179
0.351896
0.345382
0.338512
0.332931
0.326048
0.320449
0.311704
0.304771
0.293139
0.285254
0.271716
0.264864
0.251112
0.24677
0.233528
0.23214
0.220245
0.222145
0.213232
0.217451
0.212025
0.215974
0.213538
0.215857
0.215692
0.119066
0.123467
0.128295
0.134167
0.141518
0.150594
0.16147
0.174078
0.188046
0.203026
0.218461
0.233784
0.248334
0.261815
0.274112
0.285268
0.295264
0.304179
0.312238
0.319593
0.326434
0.332733
0.338577
0.344077
0.349269
0.354396
0.359258
0.363903
0.368422
0.37283
0.377229
0.381547
0.385815
0.389818
0.393356
0.396505
0.39915
0.401202
0.402673
0.403509
0.403763
0.403333
0.402292
0.400641
0.398507
0.395847
0.392884
0.389689
0.386535
0.383467
0.380827
0.378718
0.377552
0.377376
0.378485
0.380644
0.383906
0.387763
0.392142
0.396458
0.400756
0.404525
0.407915
0.410318
0.411977
0.412413
0.412153
0.410625
0.408189
0.40407
0.3989
0.392257
0.385234
0.377429
0.369973
0.362142
0.355363
0.348217
0.342596
0.335527
0.329919
0.320901
0.313762
0.301677
0.293384
0.279447
0.272124
0.25796
0.253093
0.239611
0.238367
0.22719
0.230557
0.223019
0.228846
0.22421
0.22889
0.226899
0.229525
0.229602
0.205091
0.209196
0.213953
0.220278
0.228699
0.239199
0.251601
0.265436
0.280179
0.295164
0.309843
0.323751
0.336626
0.348366
0.35903
0.368673
0.377527
0.385613
0.393112
0.400101
0.406708
0.412896
0.418698
0.424021
0.428906
0.433225
0.437076
0.440415
0.443223
0.445451
0.447152
0.448277
0.448929
0.448903
0.448024
0.446634
0.444626
0.442053
0.439064
0.435733
0.432188
0.428401
0.42451
0.420532
0.416582
0.412616
0.408857
0.405356
0.402345
0.399818
0.398055
0.39709
0.397247
0.398446
0.400808
0.403897
0.407571
0.411246
0.414903
0.418052
0.420855
0.422894
0.424431
0.424962
0.424854
0.423676
0.421988
0.419128
0.415463
0.410132
0.40388
0.396277
0.388522
0.380136
0.37237
0.364337
0.357601
0.350494
0.345111
0.338166
0.332829
0.323895
0.316944
0.304977
0.296973
0.283483
0.276533
0.262893
0.258387
0.245734
0.245687
0.236286
0.241626
0.235458
0.242451
0.23787
0.242866
0.240751
0.243376
0.243178
0.295812
0.299245
0.303446
0.30925
0.31705
0.326724
0.337984
0.350313
0.363197
0.375986
0.388259
0.39977
0.410444
0.420338
0.429524
0.438137
0.446267
0.453997
0.461348
0.468316
0.474851
0.480865
0.486311
0.491071
0.495111
0.498353
0.5008
0.502413
0.503228
0.503231
0.502446