/*--------------------------------*- C++ -*----------------------------------*\
| =========                 |                                                 |
| \\      /  F ield         | OpenFOAM: The Open Source CFD Toolbox           |
|  \\    /   O peration     | Version:  v2012                                 |
|   \\  /    A nd           | Website:  www.openfoam.com                      |
|    \\/     M anipulation  |                                                 |
\*---------------------------------------------------------------------------*/
FoamFile
{
    version     2.0;
    format      ascii;
    class       volScalarField;
    location    "0.386";
    object      nut.air;
}
// * * * * * * * * * * * * * * * * * * * * * * * * * * * * * * * * * * * * * //

dimensions      [0 2 -1 0 0 0 0];


internalField   nonuniform List<scalar> 
5600
(
2.45137e-05
3.47343e-05
4.04099e-05
4.24622e-05
4.22723e-05
4.09699e-05
3.92094e-05
3.75386e-05
3.61135e-05
3.49465e-05
3.40612e-05
3.34371e-05
3.30371e-05
3.28048e-05
3.26957e-05
3.26597e-05
3.26714e-05
3.2698e-05
3.2737e-05
3.27664e-05
3.28011e-05
3.28209e-05
3.28512e-05
3.28751e-05
3.29122e-05
3.29409e-05
3.298e-05
3.30113e-05
3.30504e-05
3.30788e-05
3.31119e-05
3.31318e-05
3.31556e-05
3.31661e-05
3.31821e-05
3.31859e-05
3.3197e-05
3.31964e-05
3.32044e-05
3.32013e-05
3.3208e-05
3.32039e-05
3.32107e-05
3.32064e-05
3.32142e-05
3.32106e-05
3.32198e-05
3.32168e-05
3.32272e-05
3.32242e-05
3.32352e-05
3.32326e-05
3.32445e-05
3.32413e-05
3.32549e-05
3.32519e-05
3.32672e-05
3.32646e-05
3.32816e-05
3.32796e-05
3.32988e-05
3.32966e-05
3.33182e-05
3.33157e-05
3.33395e-05
3.33365e-05
3.33629e-05
3.33591e-05
3.33882e-05
3.33833e-05
3.34153e-05
3.3409e-05
3.34444e-05
3.34363e-05
3.34754e-05
3.34653e-05
3.35081e-05
3.34959e-05
3.35422e-05
3.35283e-05
3.35769e-05
3.35627e-05
3.36109e-05
3.36e-05
3.36419e-05
3.3643e-05
3.36656e-05
3.3698e-05
3.36723e-05
3.378e-05
3.36421e-05
3.39237e-05
3.3516e-05
3.42285e-05
3.31062e-05
3.50289e-05
3.1738e-05
3.75697e-05
2.64779e-05
4.70309e-05
0.000151655
0.000137411
0.000112244
9.86284e-05
9.38991e-05
9.49506e-05
0.0001021
0.000110118
0.000116485
0.000124313
0.000132732
0.000141231
0.000149476
0.000157248
0.000164431
0.000170935
0.000176813
0.000182055
0.000186792
0.000191043
0.000195009
0.000198592
0.000202117
0.00020534
0.000208508
0.000211311
0.000214077
0.000216512
0.000218891
0.000220891
0.000222822
0.000224386
0.000225925
0.000227151
0.000228415
0.000229395
0.000230458
0.000231252
0.000232166
0.000232823
0.000233634
0.000234192
0.000234932
0.000235413
0.000236126
0.000236567
0.000237249
0.000237634
0.00023828
0.000238603
0.000239217
0.000239496
0.000240073
0.000240306
0.000240888
0.000241082
0.000241665
0.000241824
0.000242418
0.000242554
0.000243155
0.000243254
0.000243876
0.000243935
0.00024458
0.000244598
0.000245271
0.000245244
0.00024595
0.000245869
0.000246625
0.000246488
0.000247297
0.000247094
0.000247966
0.000247693
0.000248634
0.000248287
0.000249297
0.000248877
0.000249943
0.000249465
0.000250552
0.000250068
0.000251094
0.000250726
0.00025151
0.000251532
0.000251679
0.000252711
0.000251337
0.000254634
0.000249886
0.000258159
0.000245862
0.000265593
0.000235538
0.000282522
0.000209989
0.000287698
0.000156518
0.000151561
0.000143044
0.000135159
0.000125256
0.000120723
0.000113773
0.000109699
0.000108717
0.000109799
0.000112691
0.000117422
0.000123688
0.000131361
0.000140261
0.000150359
0.000161496
0.000173779
0.000187123
0.0002017
0.000217067
0.000232804
0.000246167
0.000258353
0.000270144
0.000281005
0.000290613
0.000298318
0.000305524
0.000311691
0.000317725
0.000322971
0.000328299
0.000332835
0.000337502
0.00034139
0.000345491
0.000348846
0.000352498
0.000355429
0.000358735
0.000361329
0.000364364
0.000366684
0.000369497
0.000371535
0.000374113
0.000375889
0.000378277
0.000379827
0.000382068
0.000383441
0.000385565
0.000386783
0.000388841
0.000389921
0.000391924
0.000392871
0.000394839
0.000395661
0.000397609
0.000398302
0.000400247
0.000400807
0.000402768
0.000403191
0.000405184
0.000405469
0.000407515
0.000407658
0.000409778
0.000409765
0.000411987
0.000411794
0.000414145
0.000413741
0.000416257
0.000415599
0.000418313
0.000417359
0.000420313
0.000419016
0.000422266
0.000420576
0.000424188
0.000422037
0.00042611
0.000423388
0.000428079
0.00042458
0.000430204
0.000425467
0.000432738
0.000425709
0.000436355
0.000424556
0.000442579
0.000420986
0.00043186
0.000408851
0.00015782
0.00015399
0.000150101
0.000146745
0.000142722
0.000139187
0.000135628
0.000131422
0.000128284
0.000124809
0.000123093
0.000119901
0.000117478
0.000115646
0.000115603
0.000116679
0.000119879
0.000124568
0.00013136
0.000139705
0.000150243
0.00016228
0.000176361
0.000191125
0.000207224
0.000223409
0.000238986
0.000252584
0.000266714
0.000279638
0.000293129
0.000305205
0.000317786
0.000329049
0.000340706
0.000351051
0.000361823
0.000371318
0.000381295
0.000389954
0.00039911
0.000406853
0.000415358
0.000422015
0.000428658
0.000433757
0.000439809
0.000444312
0.000449915
0.000453923
0.000459175
0.000462771
0.000467742
0.000470975
0.00047573
0.000478635
0.00048322
0.000485822
0.000490275
0.000492591
0.000496946
0.00049898
0.000503271
0.000505023
0.000509284
0.000510759
0.000515025
0.000516217
0.000520529
0.000521427
0.000525824
0.000526411
0.000530936
0.000531171
0.000535878
0.000535707
0.000540675
0.000539997
0.0005453
0.000544019
0.00054978
0.000547774
0.000554162
0.000551263
0.000558504
0.000554462
0.000562891
0.000557312
0.000567436
0.00055972
0.000572289
0.000561572
0.000577605
0.00056286
0.000583353
0.000563979
0.000588772
0.000566394
0.000592112
0.000571662
0.00015812
0.000154599
0.000151655
0.000149046
0.000146777
0.000144435
0.00014254
0.000140276
0.000138561
0.000136347
0.000134858
0.000132743
0.000131147
0.000128907
0.0001274
0.000125359
0.000124307
0.000121682
0.000121094
0.000119643
0.0001209
0.000121785
0.000125806
0.000129873
0.000137182
0.000144585
0.000155135
0.00016563
0.000178862
0.00019188
0.000207196
0.000222016
0.000235657
0.000247563
0.000261108
0.000273009
0.000286519
0.000298287
0.000311708
0.0003233
0.000336535
0.000347862
0.000360889
0.000371809
0.000384288
0.00039447
0.000406252
0.000415669
0.000426839
0.000435557
0.000446217
0.000454282
0.000464467
0.000471901
0.000481789
0.000488653
0.000498189
0.000504497
0.000513735
0.000519475
0.00052847
0.000533634
0.000542431
0.000547011
0.000555649
0.000559663
0.000568211
0.000571669
0.000580189
0.000583117
0.000591694
0.000594111
0.000602744
0.000604644
0.000613387
0.000614658
0.000622783
0.000622865
0.000631345
0.000630595
0.000639602
0.000637888
0.000647615
0.000644766
0.000655442
0.000651246
0.000663133
0.000657333
0.000670712
0.000663091
0.000678102
0.000668729
0.000685007
0.00067473
0.000690651
0.000681897
0.000694527
0.000691015
0.000696421
0.000700584
0.000158192
0.00015477
0.00015206
0.000149655
0.000147749
0.000145802
0.000144368
0.000142623
0.000141516
0.000139828
0.000138995
0.000137285
0.000136729
0.0001349
0.00013463
0.000132615
0.000132678
0.00013033
0.00013059
0.000127947
0.000128513
0.000125761
0.000126836
0.000124023
0.000125346
0.000123072
0.000125487
0.000124645
0.000128825
0.000130152
0.000136631
0.000140602
0.000149621
0.000156059
0.00016723
0.000175821
0.000188899
0.000199311
0.000214048
0.000225964
0.000242103
0.000251835
0.000264421
0.000274137
0.000287133
0.000297099
0.000310328
0.000320335
0.000333664
0.000343594
0.000356975
0.000366764
0.000380147
0.000389767
0.000403239
0.000412603
0.000425891
0.00043478
0.000447844
0.000456136
0.000468975
0.000476675
0.000489342
0.000496449
0.000508981
0.000515543
0.000527966
0.000534004
0.000546487
0.000552173
0.000564708
0.000569827
0.000582322
0.000586858
0.000599336
0.000603254
0.000615733
0.000618953
0.000631433
0.000633908
0.000646346
0.000648199
0.000660527
0.000661948
0.000673991
0.000675249
0.000686736
0.000688229
0.00069867
0.00070103
0.00070967
0.000713704
0.000720017
0.000726114
0.000730043
0.000737444
0.000740968
0.000746764
0.000755247
0.000761689
0.000158212
0.000154827
0.000152181
0.000149839
0.000148034
0.000146184
0.000144904
0.000143282
0.00014239
0.000140842
0.00014028
0.000138702
0.000138454
0.00013677
0.000136841
0.000134986
0.000135392
0.000133316
0.000134073
0.000131723
0.000132852
0.00013019
0.000131729
0.000128711
0.000130644
0.000127233
0.000129627
0.000125876
0.000128812
0.000124877
0.000128376
0.000124245
0.000128349
0.000124642
0.000129649
0.000126939
0.000133133
0.000131957
0.000139609
0.000140396
0.000149723
0.000152668
0.00016358
0.000168376
0.000180763
0.000187245
0.000200996
0.000208941
0.000223907
0.000233065
0.000249081
0.000259208
0.000275441
0.000282411
0.000295179
0.000302519
0.000315686
0.000323202
0.000336656
0.000344274
0.000357972
0.000365618
0.000379504
0.000387127
0.000401186
0.000408751
0.000422955
0.000430394
0.000444839
0.00045223
0.000466792
0.000473942
0.000488457
0.000495258
0.000509652
0.000516074
0.000530318
0.000536452
0.000550487
0.000556375
0.000570076
0.000575843
0.000589117
0.000594908
0.000607624
0.000613691
0.000625439
0.000632124
0.000642622
0.000650166
0.000659234
0.000667815
0.000675509
0.000684732
0.000691707
0.000700711
0.000708294
0.000716682
0.000726351
0.000738946
0.000158218
0.00015485
0.00015222
0.000149909
0.000148123
0.000146322
0.000145064
0.000143514
0.000142643
0.000141197
0.000140649
0.000139211
0.00013896
0.000137457
0.000137499
0.000135872
0.000136215
0.000134416
0.000135071
0.000133059
0.000134045
0.000131777
0.000133123
0.000130554
0.000132294
0.000129382
0.000131548
0.000128255
0.000130887
0.000127185
0.000130318
0.000126169
0.000129822
0.000125227
0.000129438
0.000124431
0.000129233
0.0001239
0.000129326
0.000123691
0.000129647
0.000124025
0.000130635
0.000125395
0.000132745
0.000128294
0.000136494
0.000133223
0.000142391
0.000140633
0.000150882
0.00015083
0.00016223
0.000163949
0.00017634
0.000179563
0.000192911
0.000197545
0.0002118
0.000217716
0.000232801
0.00023985
0.000255663
0.000263683
0.000280106
0.000288932
0.000305855
0.000312435
0.000325189
0.000330773
0.000343546
0.000349565
0.000362488
0.000368981
0.000381905
0.000388923
0.000401776
0.000409185
0.000421913
0.000429809
0.000442311
0.000450737
0.000462907
0.000471927
0.000483661
0.000493356
0.000504574
0.000514952
0.000525671
0.00053668
0.000547058
0.000558567
0.000568629
0.000580632
0.000590517
0.000603163
0.000612906
0.000627042
0.000637418
0.000655456
0.000158218
0.000154865
0.000152228
0.000149948
0.000148143
0.000146397
0.000145098
0.000143635
0.000142695
0.000141377
0.000140721
0.000139464
0.000139055
0.000137797
0.000137621
0.000136314
0.000136365
0.000134976
0.000135249
0.00013375
0.00013425
0.000132611
0.000133352
0.000131543
0.000132536
0.000130535
0.000131793
0.000129577
0.000131115
0.000128664
0.000130494
0.000127795
0.000129928
0.000126968
0.000129418
0.000126183
0.000128969
0.000125451
0.000128589
0.000124779
0.000128272
0.000124176
0.00012804
0.000123669
0.000127922
0.000123301
0.000127959
0.000123149
0.000128208
0.000123253
0.000128638
0.000123719
0.000129453
0.000124808
0.000130927
0.000126808
0.000133358
0.000130039
0.000137081
0.000134818
0.00014242
0.000141434
0.000149662
0.00015013
0.000159043
0.000161054
0.000170691
0.000174295
0.00018454
0.000189496
0.000200254
0.00020651
0.000217763
0.000225261
0.000236976
0.000245641
0.000257772
0.000267519
0.000279996
0.000290728
0.000303471
0.000315085
0.000328012
0.000340399
0.000353438
0.000366481
0.000379586
0.000393163
0.000406294
0.000420273
0.000432824
0.000447387
0.000460043
0.00047506
0.000488198
0.000502591
0.000515529
0.000529973
0.000542446
0.000556664
0.000158216
0.000154876
0.000152225
0.000149976
0.000148138
0.000146447
0.00014509
0.000143714
0.00014268
0.000141494
0.000140698
0.000139624
0.000139022
0.000138009
0.000137574
0.000136588
0.000136301
0.000135319
0.000135166
0.000134171
0.000134145
0.000133119
0.00013322
0.000132148
0.000132372
0.000131246
0.000131591
0.000130401
0.000130866
0.00012961
0.000130188
0.000128866
0.000129551
0.000128164
0.000128952
0.000127498
0.000128388
0.000126867
0.000127857
0.000126272
0.000127357
0.000125713
0.000126888
0.000125195
0.000126455
0.000124717
0.000126064
0.000124298
0.000125711
0.000123954
0.000125399
0.000123694
0.000125151
0.000123529
0.000125005
0.000123489
0.000124993
0.000123626
0.000125168
0.000124014
0.000125605
0.000124751
0.000126421
0.00012592
0.00012771
0.000127714
0.000129711
0.000130386
0.000132718
0.000134216
0.000137005
0.000139465
0.000142859
0.000146407
0.000150538
0.000155271
0.000160268
0.000166268
0.000172236
0.000179544
0.000186561
0.000195196
0.000203318
0.000213256
0.000222497
0.000233654
0.000244002
0.000256283
0.0002677
0.000281006
0.00029343
0.000307655
0.00032105
0.000336138
0.000350374
0.00036605
0.0003809
0.000396971
0.000412263
0.0004284
0.000158213
0.000154882
0.000152218
0.000149987
0.000148123
0.000146467
0.000145065
0.000143746
0.000142642
0.000141539
0.000140645
0.000139686
0.000138951
0.00013809
0.000137483
0.00013669
0.000136187
0.000135445
0.000135027
0.000134322
0.000133979
0.000133298
0.000133024
0.000132357
0.000132145
0.000131487
0.00013133
0.000130677
0.00013057
0.000129921
0.000129856
0.000129213
0.000129183
0.000128548
0.000128548
0.000127921
0.00012795
0.000127329
0.000127389
0.000126774
0.000126863
0.000126259
0.000126374
0.00012579
0.000125931
0.000125369
0.000125544
0.000125012
0.00012521
0.000124735
0.000124946
0.000124556
0.000124784
0.000124497
0.000124768
0.000124605
0.000124941
0.00012495
0.00012538
0.000125598
0.000126127
0.000126637
0.000127352
0.000128265
0.000129279
0.000130733
0.000132173
0.0001343
0.000136316
0.000139246
0.000141988
0.00014584
0.000149458
0.000154337
0.00015895
0.000164931
0.000170637
0.000177776
0.000184645
0.000192965
0.000201028
0.000210532
0.000219801
0.000230356
0.000240628
0.000252121
0.000263357
0.000275749
0.000287919
0.00030113
0.000314182
0.000328134
0.000341999
0.000356601
0.000371203
0.000386389
0.000401694
0.000417438
0.000433494
0.000449912
0.000158211
0.00015488
0.000152207
0.000149982
0.000148101
0.000146456
0.000145027
0.000143728
0.000142585
0.000141511
0.000140566
0.000139647
0.000138846
0.000138038
0.000137348
0.000136623
0.000136019
0.000135359
0.000134823
0.000134214
0.000133735
0.000133167
0.000132737
0.000132201
0.000131813
0.000131305
0.000130953
0.000130469
0.00013015
0.00012969
0.000129399
0.000128966
0.0001287
0.000128297
0.000128058
0.000127693
0.000127484
0.000127163
0.000126985
0.000126712
0.00012658
0.000126372
0.000126304
0.000126192
0.000126215
0.00012624
0.000126405
0.000126572
0.000126876
0.000127287
0.000127861
0.00012867
0.000129675
0.000131042
0.000132663
0.000134761
0.000137188
0.000140198
0.000143602
0.000147687
0.000152217
0.000157485
0.000163234
0.000169758
0.000176779
0.000184502
0.000192562
0.000201311
0.000210368
0.000220108
0.000230114
0.00024079
0.000251683
0.000263216
0.000274905
0.000287195
0.000299574
0.000312511
0.000325465
0.000338929
0.000352342
0.000366229
0.000377422
0.000387781
0.000398218
0.000408898
0.000419938
0.000431318
0.000442909
0.000454947
0.00046725
0.000479988
0.000493027
0.000506526
0.00052034
0.000534599
0.000549032
0.000563783
0.000578129
0.000592434
0.000158208
0.000154873
0.000152189
0.000149958
0.000148061
0.00014641
0.000144957
0.000143652
0.000142478
0.000141398
0.000140413
0.000139487
0.000138637
0.000137823
0.000137074
0.000136343
0.000135673
0.000135006
0.000134398
0.000133783
0.000133226
0.000132652
0.000132142
0.000131603
0.000131133
0.000130627
0.000130197
0.000129727
0.000129345
0.000128917
0.000128575
0.00012819
0.000127917
0.000127609
0.00012745
0.000127279
0.000127313
0.000127344
0.000127528
0.00012786
0.000128479
0.000129367
0.000130685
0.000132408
0.00013471
0.000137555
0.000141117
0.000145346
0.000150388
0.000156171
0.000162813
0.000170191
0.000178222
0.00018697
0.000196333
0.000206366
0.000216965
0.000228171
0.000239881
0.000252121
0.000264788
0.000277901
0.000291363
0.000305189
0.0003173
0.000326971
0.000336685
0.000346551
0.000356601
0.000366782
0.000377148
0.000387623
0.000398155
0.000408818
0.000419529
0.000430356
0.000441219
0.00045218
0.000463165
0.000474216
0.00048529
0.000496399
0.000507533
0.000518775
0.000530026
0.000541314
0.000552558
0.000563778
0.000574917
0.000586014
0.000597039
0.000608056
0.000619011
0.000629964
0.000640825
0.00065168
0.000662328
0.000672845
0.000682866
0.000692622
0.0001582
0.000154852
0.000152147
0.000149893
0.000147964
0.00014628
0.000144783
0.000143433
0.000142199
0.000141064
0.000140001
0.000139012
0.000138069
0.000137186
0.000136331
0.000135529
0.000134741
0.000134001
0.000133261
0.000132567
0.000131871
0.000131223
0.000130576
0.000129931
0.000129313
0.000128725
0.00012821
0.00012778
0.000127519
0.000127328
0.000127257
0.000127552
0.000128208
0.000129462
0.00013132
0.000134004
0.000137511
0.000142036
0.000147551
0.000154176
0.00016172
0.000170211
0.000179568
0.000189786
0.000200801
0.000212557
0.000225021
0.000238083
0.000251767
0.000265897
0.000279409
0.000289753
0.000300462
0.000311287
0.000322242
0.000333342
0.000344537
0.000355833
0.000367185
0.000378604
0.000390055
0.00040155
0.000413061
0.000424595
0.000436121
0.00044774
0.00045939
0.00047099
0.00048253
0.000493935
0.000505231
0.000516371
0.000527376
0.000538223
0.000548973
0.00055956
0.000570041
0.000580357
0.000590575
0.000600621
0.000610595
0.000620378
0.000630092
0.000639756
0.000649377
0.000658917
0.000668274
0.000677509
0.000686596
0.000695553
0.000704329
0.000712994
0.000721466
0.000729804
0.000737943
0.000745885
0.000753682
0.000761092
0.00076791
0.000774297
0.00015818
0.000154796
0.000152025
0.000149708
0.000147678
0.000145886
0.000144249
0.000142742
0.000141335
0.000139996
0.000138741
0.000137535
0.000136375
0.000135255
0.000134153
0.000133117
0.000132007
0.000130919
0.000129757
0.000128736
0.000127686
0.000126988
0.000126194
0.000125614
0.000125488
0.000126052
0.000127487
0.00013002
0.00013376
0.000138904
0.000145437
0.00015338
0.000162458
0.000172787
0.000184123
0.000196523
0.000209806
0.000223956
0.000238876
0.000252111
0.000263734
0.000275573
0.000287596
0.000299793
0.000312071
0.000324413
0.000336757
0.000349116
0.000361438
0.000373756
0.000385976
0.000398236
0.000410422
0.000422465
0.00043432
0.000445962
0.000457377
0.000468563
0.000479526
0.000490273
0.00050082
0.000511175
0.000521353
0.000531347
0.000541166
0.000550917
0.000560599
0.000570083
0.000579435
0.000588589
0.000597611
0.000606429
0.000615121
0.000623601
0.000631911
0.000639991
0.000647891
0.000655583
0.000663101
0.000670453
0.000677645
0.000684641
0.000691518
0.000698229
0.000704847
0.000711334
0.000717711
0.000723965
0.000730113
0.000736163
0.000742099
0.00074791
0.000753593
0.000759158
0.000764649
0.000769891
0.000775094
0.000779889
0.000784283
0.000788341
0.000158113
0.000154621
0.000151612
0.000149104
0.000146667
0.000144526
0.000142363
0.000140374
0.000138357
0.000136485
0.000134755
0.00013283
0.000131008
0.000129045
0.000127406
0.000125791
0.000124095
0.000122535
0.000121922
0.000122155
0.000123946
0.0001271
0.000132223
0.000138945
0.000147624
0.000157903
0.000169839
0.00018311
0.000197722
0.000213312
0.000228933
0.000242196
0.000255553
0.000268979
0.000282358
0.000295723
0.000309004
0.000322249
0.000335342
0.000348352
0.000361186
0.000373823
0.000386137
0.000398074
0.00040959
0.000420739
0.000431499
0.000441957
0.000452058
0.000461894
0.000471349
0.000480613
0.000489591
0.000498318
0.000506802
0.000515047
0.000523057
0.000530836
0.000538391
0.000545726
0.000552854
0.000559777
0.000566517
0.000573069
0.00057946
0.000585676
0.000591778
0.000597721
0.000603564
0.00060925
0.000614856
0.000620299
0.000625695
0.00063043
0.000634843
0.000639138
0.000643331
0.000647422
0.000651427
0.000655336
0.000659176
0.000662927
0.00066662
0.000670227
0.000673786
0.000677263
0.000680703
0.000684054
0.000687377
0.000690609
0.00069382
0.000696939
0.000700046
0.000703059
0.000706063
0.000708967
0.000711863
0.000714636
0.000717337
0.000719894
0.000157849
0.000153942
0.0001501
0.000146712
0.000142568
0.000139331
0.000135252
0.000131833
0.0001282
0.000126014
0.000123572
0.000120696
0.00011865
0.000117785
0.000118586
0.00012103
0.000125566
0.00013189
0.000140407
0.000150791
0.000163414
0.000177689
0.000193332
0.000209789
0.000227092
0.000242474
0.000257122
0.000271489
0.000285535
0.000299173
0.000312289
0.000324998
0.000337193
0.0003489
0.000360095
0.00037086
0.000381149
0.000391038
0.000400402
0.000409336
0.000417818
0.000426066
0.000433041
0.000439198
0.000445007
0.000450519
0.00045576
0.000460768
0.000465558
0.00047016
0.000474582
0.000478845
0.000482955
0.000486931
0.000490774
0.000494501
0.00049811
0.000501614
0.000505013
0.000508318
0.000511529
0.000514656
0.000517702
0.000520673
0.000523574
0.000526408
0.000529183
0.000531894
0.000534552
0.000537147
0.000539695
0.00054218
0.000544621
0.000547009
0.000549339
0.000551606
0.000553818
0.000555973
0.000558083
0.00056014
0.000562163
0.000564134
0.00056608
0.000567977
0.000569858
0.000571691
0.000573516
0.00057529
0.000577063
0.000578779
0.000580501
0.000582163
0.000583838
0.000585447
0.000587077
0.000588622
0.000590196
0.000591647
0.00059304
0.000594293
0.000156641
0.000151208
0.000143351
0.000134629
0.000126078
0.000120991
0.000115009
0.000112505
0.000112456
0.00011419
0.000117961
0.000123463
0.000130604
0.000139124
0.000149054
0.000160159
0.000172603
0.000186205
0.000201284
0.000217285
0.000233492
0.000246947
0.000259667
0.000271868
0.000283091
0.000294115
0.00030263
0.000310053
0.00031674
0.000322879
0.000328612
0.000333955
0.000338909
0.000343511
0.000347778
0.00035176
0.000355474
0.000358969
0.000362253
0.00036537
0.000368316
0.000371131
0.000373814
0.000376352
0.000378747
0.000381013
0.000383159
0.000385201
0.000387146
0.000389013
0.000390803
0.000392532
0.000394203
0.000395821
0.000397387
0.000398908
0.000400383
0.000401818
0.000403212
0.00040457
0.000405891
0.00040718
0.000408438
0.000409667
0.00041087
0.000412048
0.000413206
0.000414342
0.000415462
0.000416559
0.000417644
0.000418705
0.000419752
0.000420779
0.000421789
0.000422775
0.000423741
0.000424682
0.000425607
0.000426508
0.000427398
0.000428266
0.000429126
0.000429965
0.000430801
0.000431616
0.000432434
0.00043323
0.000434034
0.000434811
0.0004356
0.00043636
0.000437138
0.000437878
0.000438644
0.000439353
0.000440096
0.000440743
0.000441343
0.000441814
0.000151621
0.000136817
0.000113478
9.95201e-05
9.76017e-05
9.81308e-05
0.000110573
0.000115045
0.000121818
0.000129687
0.000137976
0.000146235
0.000154211
0.000161681
0.000168583
0.000174823
0.000180491
0.000185568
0.000190197
0.000194425
0.000198337
0.000202069
0.000205554
0.00020885
0.00021187
0.000214679
0.000217312
0.000219723
0.000221894
0.000223822
0.000225517
0.000227019
0.000228355
0.000229554
0.00023063
0.000231604
0.000232488
0.000233297
0.000234044
0.000234739
0.000235393
0.000236004
0.000236596
0.000237174
0.000237731
0.000238264
0.000238769
0.00023925
0.000239705
0.000240141
0.000240557
0.00024096
0.00024135
0.000241732
0.000242104
0.000242472
0.000242833
0.000243191
0.000243543
0.000243891
0.000244235
0.000244573
0.00024491
0.000245239
0.000245565
0.000245887
0.000246207
0.000246524
0.00024684
0.000247153
0.000247465
0.000247776
0.000248087
0.000248397
0.000248707
0.000249014
0.00024932
0.000249621
0.00024992
0.000250212
0.000250502
0.000250785
0.000251068
0.000251344
0.000251621
0.000251892
0.000252165
0.000252433
0.000252706
0.000252972
0.000253244
0.000253511
0.000253781
0.000254049
0.000254319
0.000254582
0.000254848
0.000255066
0.000255286
0.000255444
2.45432e-05
3.47523e-05
4.04101e-05
4.23028e-05
4.20136e-05
4.05608e-05
3.87137e-05
3.70559e-05
3.56101e-05
3.44451e-05
3.35764e-05
3.29762e-05
3.25986e-05
3.2385e-05
3.2287e-05
3.22583e-05
3.22697e-05
3.2298e-05
3.2331e-05
3.23649e-05
3.23935e-05
3.24264e-05
3.24614e-05
3.24994e-05
3.2539e-05
3.25762e-05
3.26142e-05
3.26515e-05
3.26862e-05
3.27167e-05
3.27415e-05
3.27608e-05
3.27749e-05
3.27852e-05
3.27918e-05
3.27959e-05
3.27977e-05
3.2798e-05
3.27971e-05
3.27957e-05
3.27941e-05
3.27925e-05
3.27911e-05
3.27904e-05
3.27903e-05
3.27907e-05
3.27914e-05
3.27924e-05
3.27936e-05
3.2795e-05
3.27966e-05
3.27986e-05
3.28009e-05
3.28039e-05
3.28074e-05
3.28116e-05
3.28164e-05
3.28219e-05
3.28281e-05
3.28348e-05
3.28422e-05
3.28501e-05
3.28587e-05
3.28677e-05
3.28773e-05
3.28872e-05
3.28977e-05
3.29087e-05
3.29202e-05
3.29321e-05
3.29447e-05
3.29577e-05
3.29712e-05
3.29852e-05
3.29996e-05
3.30144e-05
3.30297e-05
3.30451e-05
3.30609e-05
3.30768e-05
3.30929e-05
3.31091e-05
3.31255e-05
3.3142e-05
3.31588e-05
3.31756e-05
3.31928e-05
3.321e-05
3.32277e-05
3.32454e-05
3.32637e-05
3.32818e-05
3.33007e-05
3.3319e-05
3.33391e-05
3.33578e-05
3.33784e-05
3.33985e-05
3.34186e-05
3.34392e-05
1.28806e-05
0.00068162
0.00119335
0.00158395
0.00194108
0.00222139
0.00242734
0.00246847
0.00246037
0.00244548
0.00242926
0.00242021
0.00242351
0.00243701
0.00245663
0.0024818
0.00251189
0.00254746
0.00259029
0.00263903
0.00269432
0.00275494
0.00281891
0.00288738
0.00296143
0.00303801
0.00311406
0.0031917
0.00326494
0.00333938
0.00335836
0.00336306
0.00336532
0.00336514
0.00336277
0.00335837
0.00335219
0.00334442
0.00333513
0.00332448
0.0033125
0.00329937
0.00328509
0.00326985
0.00325359
0.00323657
0.00321863
0.00320015
0.00318079
0.00316114
0.00314059
0.00312005
0.0030985
0.00307731
0.00305497
0.00303331
0.00301034
0.0029884
0.00296501
0.00294292
0.00291933
0.00289719
0.00287357
0.00285137
0.00282789
0.00280555
0.0027822
0.0027597
0.00273632
0.00271352
0.00268978
0.00266667
0.00264201
0.00261867
0.00259209
0.00256865
0.00253922
0.00251546
0.00248263
0.00245786
0.00242147
0.0023952
0.00235544
0.00232671
0.00228435
0.00225217
0.00220993
0.00217314
0.0021343
0.00209207
0.00205846
0.00201409
0.0019849
0.00194351
0.00191624
0.00187948
0.00185688
0.00182261
0.00181021
0.00177579
0.000168939
0.000440563
0.00087796
0.00126761
0.0016157
0.00189667
0.00211053
0.00225985
0.00236363
0.00236029
0.00234121
0.00233184
0.00232948
0.00233313
0.00234281
0.0023591
0.00238193
0.0024112
0.0024482
0.00249019
0.00253604
0.00258597
0.00263983
0.00269797
0.00276237
0.00283157
0.00290381
0.00297984
0.00306362
0.00315076
0.00323832
0.00325493
0.00326322
0.00326856
0.00327131
0.00327174
0.00327017
0.00326679
0.0032617
0.00325506
0.00324694
0.00323749
0.00322674
0.00321488
0.00320187
0.00318796
0.00317299
0.00315736
0.00314071
0.00312366
0.00310559
0.00308743
0.00306815
0.00304912
0.00302885
0.00300916
0.00298807
0.0029679
0.00294621
0.00292569
0.00290362
0.00288286
0.00286058
0.00283955
0.00281722
0.00279585
0.00277345
0.00275171
0.00272908
0.00270681
0.00268361
0.00266078
0.00263648
0.0026131
0.00258675
0.00256287
0.00253364
0.00250898
0.00247636
0.00245026
0.00241413
0.00238627
0.00234685
0.00231653
0.00227463
0.00224122
0.00219968
0.00216241
0.00212453
0.00208303
0.00205051
0.00200843
0.00198052
0.00194277
0.00191723
0.00188486
0.00186415
0.00183497
0.00182391
0.00179532
0.000472324
0.000385211
0.000567446
0.00087749
0.00120427
0.0014843
0.00170635
0.00187028
0.00199064
0.00207697
0.00214206
0.00219881
0.00221591
0.0022208
0.00223189
0.00225059
0.00227657
0.00230827
0.00234314
0.00237997
0.00241901
0.00246089
0.00250685
0.00255607
0.00261032
0.00266944
0.00273409
0.00280286
0.00288323
0.00296515
0.00306986
0.00311737
0.00313328
0.0031455
0.00315462
0.003161
0.00316507
0.00316702
0.00316699
0.00316514
0.00316159
0.00315649
0.00314989
0.00314198
0.00313274
0.00312243
0.00311089
0.00309853
0.003085
0.00307093
0.0030557
0.00304025
0.00302355
0.00300699
0.00298908
0.00297162
0.00295267
0.00293449
0.00291474
0.002896
0.00287566
0.00285644
0.0028357
0.00281599
0.00279497
0.00277468
0.00275336
0.00273246
0.00271066
0.00268898
0.00266637
0.0026438
0.00261989
0.00259639
0.00257029
0.00254578
0.00251674
0.00249089
0.0024585
0.0024307
0.00239485
0.00236501
0.00232594
0.00229377
0.00225236
0.00221765
0.00217689
0.00213937
0.00210256
0.00206234
0.00203112
0.00199208
0.00196587
0.00193253
0.00190931
0.00188211
0.00186388
0.00184066
0.00183128
0.00180953
0.000592943
0.000584893
0.000544603
0.000614287
0.00079929
0.0010225
0.00123014
0.00139977
0.00153374
0.00163847
0.00172165
0.00179499
0.00186046
0.00192258
0.00198467
0.00204875
0.00211457
0.00217412
0.00221366
0.00225339
0.00229489
0.00233865
0.00238597
0.00243504
0.00248735
0.00254288
0.00260356
0.00266727
0.00273966
0.00281099
0.00290145
0.00294118
0.00296682
0.00298788
0.00300518
0.00301919
0.00303043
0.00303912
0.00304542
0.00304954
0.0030516
0.00305181
0.00305021
0.00304704
0.00304228
0.00303622
0.00302871
0.00302016
0.00301025
0.00299961
0.00298765
0.00297529
0.00296156
0.0029478
0.00293257
0.00291763
0.00290111
0.00288518
0.00286763
0.00285088
0.0028325
0.00281501
0.00279598
0.00277775
0.00275818
0.00273909
0.00271897
0.00269898
0.00267809
0.00265701
0.00263502
0.00261266
0.00258914
0.00256536
0.00253948
0.00251408
0.00248521
0.0024578
0.00242561
0.00239566
0.0023601
0.00232785
0.00228918
0.00225486
0.00221406
0.00217808
0.00213828
0.00210092
0.00206548
0.00202729
0.00199783
0.00196276
0.00193892
0.00191089
0.00189081
0.00186965
0.00185462
0.00183826
0.00183096
0.00181706
0.000700072
0.00070632
0.00068988
0.000664526
0.000666143
0.000723685
0.000821269
0.000935299
0.00104667
0.00114852
0.00123756
0.00131977
0.00139693
0.00147176
0.00154618
0.00162228
0.00169989
0.00177976
0.00185933
0.00193873
0.00201765
0.00209538
0.00217133
0.00224484
0.00231595
0.00238375
0.00244877
0.00250979
0.0025677
0.00262029
0.00267144
0.00271564
0.00275349
0.00278588
0.00281371
0.00283758
0.00285811
0.00287546
0.00288985
0.00290153
0.00291067
0.00291749
0.0029221
0.00292474
0.00292543
0.00292448
0.00292178
0.00291776
0.00291212
0.0029055
0.00289734
0.00288856
0.00287824
0.00286767
0.00285552
0.00284343
0.00282968
0.00281627
0.0028012
0.00278668
0.00277049
0.00275491
0.0027378
0.00272118
0.00270322
0.00268543
0.0026666
0.00264756
0.00262763
0.00260712
0.00258575
0.00256349
0.00254031
0.00251603
0.00249031
0.00246367
0.00243489
0.00240547
0.00237343
0.00234083
0.00230558
0.00227047
0.00223235
0.00219569
0.0021558
0.00211874
0.00208039
0.00204383
0.00201042
0.00197529