/*--------------------------------*- C++ -*----------------------------------*\
| =========                 |                                                 |
| \\      /  F ield         | OpenFOAM: The Open Source CFD Toolbox           |
|  \\    /   O peration     | Version:  v2012                                 |
|   \\  /    A nd           | Website:  www.openfoam.com                      |
|    \\/     M anipulation  |                                                 |
\*---------------------------------------------------------------------------*/
FoamFile
{
    version     2.0;
    format      ascii;
    class       Cloud<basicKinematicParcel>;
    location    "0.092/lagrangian/kinematicCloud";
    object      coordinates;
}
// * * * * * * * * * * * * * * * * * * * * * * * * * * * * * * * * * * * * * //

54
(
(0.100111 0.449945 0.0853854 0.364559) 361 523 1
(0.498301 0.186292 0.0645577 0.25085) 861 1722 1
(0.423465 0.288268 0.214627 0.0736407) 1161 2320 2
(0.124284 0.437858 0.083172 0.354686) 560 1121 1
(0.285655 0.192148 0.165024 0.357173) 1459 2719 2
(0.224739 0.387631 0.0505636 0.337067) 1159 2316 2
(0.620703 0.187272 0.00237661 0.189648) 46 92 1
(0.291315 0.354343 0.0781378 0.276205) 1656 3312 2
(0.0369899 0.481505 0.206048 0.275457) 1656 3113 1
(0.57821 0.210895 0.0239224 0.186973) 756 1510 2
(0.255295 0.0123811 0.372352 0.359971) 856 1710 1
(0.164912 0.417544 0.148774 0.26877) 555 911 1
(0.251743 0.11883 0.255298 0.374128) 1849 3698 1
(0.314891 0.342555 0.0853179 0.257237) 149 99 1
(0.328628 0.335686 0.229095 0.106591) 1849 3698 2
(0.777446 0.111277 0.00220534 0.109072) 952 1905 1
(0.322676 0.0182212 0.320441 0.338662) 350 501 2
(0.157278 0.0696435 0.421361 0.351717) 1748 3497 2
(0.456531 0.271735 0.0680722 0.203662) 550 1098 2
(0.00632681 0.244092 0.252745 0.496837) 1649 3099 2
(0.361248 0.270903 0.0484724 0.319376) 1349 2499 2
(0.766628 0.116686 0.0655062 0.0511799) 1747 3492 2
(0.0917273 0.432487 0.454136 0.0216495) 1348 2694 1
(0.00903377 0.495483 0.0249911 0.470492) 447 892 2
(0.243483 0.378259 0.244917 0.133341) 847 1692 2
(0.475082 0.262459 0.191349 0.0711097) 1346 2493 1
(0.431531 0.153227 0.284235 0.131007) 345 688 1
(0.586128 0.0917047 0.206936 0.115231) 1445 2891 2
(0.267005 0.23569 0.130808 0.366498) 142 284 1
(0.291719 0.0623048 0.291836 0.354141) 1544 2889 2
(0.117995 0.429013 0.011989 0.441002) 27 22247 1
(0.768401 0.1158 0.0998612 0.0159385) 242 482 2
(0.139321 0.43034 0.255468 0.174872) 1938 3677 1
(0.114848 0.36794 0.0746361 0.442576) 1041 2082 1
(0.0961667 0.0957779 0.451917 0.356139) 541 1083 2
(0.3742 0.3129 0.153003 0.159897) 1241 2483 1
(0.486392 0.178613 0.078191 0.256804) 740 1281 2
(0.0395318 0.480234 0.290645 0.18959) 840 1678 2
(0.214334 0.392833 0.236751 0.156082) 1239 2479 1
(0.355011 0.322495 0.265013 0.0574815) 35 71 1
(0.043476 0.243745 0.478262 0.234517) 638 1274 1
(0.487305 0.256347 0.0181434 0.238204) 1237 2472 2
(0.439401 0.270116 0.2803 0.0101838) 536 1073 2
(0.143239 0.42838 0.0169362 0.411444) 535 1070 2
(0.0582705 0.470865 0.203891 0.266974) 735 1271 1
(0.227855 0.338148 0.386072 0.0479243) 1134 2269 2
(0.39104 0.0228826 0.281598 0.30448) 1533 2867 2
(0.356197 0.312034 0.321902 0.00986777) 933 1864 1
(0.176093 0.411954 0.346391 0.0655622) 832 1465 1
(0.0429141 0.2047 0.273843 0.478543) 1431 2663 2
(0.198006 0.0263634 0.374634 0.400997) 330 461 2
(0.14865 0.425675 0.0563364 0.369339) 730 1461 1
(0.153828 0.215595 0.207491 0.423086) 1629 3059 2
(0.252364 0.373818 0.00963794 0.36418) 128 257 1
)


// ************************************************************************* //
