/*--------------------------------*- C++ -*----------------------------------*\
| =========                 |                                                 |
| \\      /  F ield         | OpenFOAM: The Open Source CFD Toolbox           |
|  \\    /   O peration     | Version:  v2012                                 |
|   \\  /    A nd           | Website:  www.openfoam.com                      |
|    \\/     M anipulation  |                                                 |
\*---------------------------------------------------------------------------*/
FoamFile
{
    version     2.0;
    format      ascii;
    class       scalarField;
    location    "0.106/lagrangian/kinematicCloud";
    object      age;
}
// * * * * * * * * * * * * * * * * * * * * * * * * * * * * * * * * * * * * * //


54
(
0.1052
0.1042
0.1031
0.102
0.101
0.1
0.099
0.098
0.0969
0.0958
0.095725
0.0947
0.0936
0.0925
0.0914
0.0903
0.0892
0.0881
0.087
0.086925
0.0859
0.0848
0.0837
0.0826
0.082525
0.0815
0.0804
0.080325
0.0793
0.079225
0.0782
0.0771
0.076
0.0749
0.074825
0.0739
0.0729
0.0719
0.0709
0.0699
0.0689
0.0679
0.0669
0.0659
0.0649
0.0639
0.0629
0.0619
0.0609
0.0599
0.0589
0.0579
0.0569
0.0559
)


// ************************************************************************* //
