/*--------------------------------*- C++ -*----------------------------------*\
| =========                 |                                                 |
| \\      /  F ield         | OpenFOAM: The Open Source CFD Toolbox           |
|  \\    /   O peration     | Version:  v2012                                 |
|   \\  /    A nd           | Website:  www.openfoam.com                      |
|    \\/     M anipulation  |                                                 |
\*---------------------------------------------------------------------------*/
FoamFile
{
    version     2.0;
    format      ascii;
    class       volVectorField;
    location    "0.287";
    object      U.air;
}
// * * * * * * * * * * * * * * * * * * * * * * * * * * * * * * * * * * * * * //

dimensions      [0 1 -1 0 0 0 0];


internalField   nonuniform List<vector> 
1900
(
(39.9676 0.00859687 0)
(39.9239 0.015103 0)
(39.8679 0.0180588 0)
(39.8035 0.0207993 0)
(39.73 0.0237062 0)
(39.6526 0.0267683 0)
(39.5681 0.0297565 0)
(39.4712 0.034433 0)
(39.3801 0.0347839 0)
(39.2118 0.073503 0)
(40.0053 0.0147927 0)
(40.0212 0.0233975 0)
(40.0401 0.0257182 0)
(40.0561 0.0277458 0)
(40.0726 0.0304775 0)
(40.0898 0.0329399 0)
(40.1095 0.0364838 0)
(40.1257 0.0385578 0)
(40.1466 0.0533817 0)
(40.1568 0.0585716 0)
(40.0029 0.00824745 0)
(40.0161 0.0135856 0)
(40.0335 0.0137912 0)
(40.051 0.0145443 0)
(40.0688 0.0163129 0)
(40.0879 0.0182043 0)
(40.1087 0.0208556 0)
(40.1299 0.024805 0)
(40.1543 0.0350812 0)
(40.1844 0.0529454 0)
(40.0018 0.00414496 0)
(40.0132 0.00782145 0)
(40.0301 0.00860527 0)
(40.0479 0.00970547 0)
(40.066 0.0114323 0)
(40.0852 0.0132518 0)
(40.1064 0.0158683 0)
(40.1291 0.0197454 0)
(40.1561 0.0288801 0)
(40.1894 0.0416246 0)
(40.0015 0.00111201 0)
(40.012 0.00211928 0)
(40.0285 0.00232728 0)
(40.0464 0.00266241 0)
(40.0645 0.0032531 0)
(40.084 0.00405072 0)
(40.1056 0.00562476 0)
(40.1294 0.00842125 0)
(40.1575 0.0146682 0)
(40.1918 0.0210544 0)
(40.0016 -0.00180292 0)
(40.0122 -0.00371605 0)
(40.0288 -0.00416325 0)
(40.0468 -0.00431399 0)
(40.065 -0.00436079 0)
(40.0846 -0.00401592 0)
(40.1066 -0.00289513 0)
(40.1311 -0.000789735 0)
(40.1597 0.00317609 0)
(40.1936 0.00640821 0)
(40.0019 -0.00486279 0)
(40.0136 -0.00947526 0)
(40.0308 -0.0105123 0)
(40.0489 -0.0114613 0)
(40.0672 -0.0126727 0)
(40.0871 -0.0134371 0)
(40.1094 -0.0134428 0)
(40.1344 -0.0127054 0)
(40.163 -0.0110203 0)
(40.1957 -0.0104531 0)
(40.0032 -0.00926927 0)
(40.0168 -0.0153327 0)
(40.0348 -0.0157393 0)
(40.0527 -0.016477 0)
(40.0709 -0.01804 0)
(40.0911 -0.0194037 0)
(40.1136 -0.0202815 0)
(40.1388 -0.020797 0)
(40.1672 -0.0210301 0)
(40.1987 -0.0225689 0)
(40.0057 -0.0162088 0)
(40.0223 -0.0253699 0)
(40.042 -0.0274341 0)
(40.0582 -0.0288787 0)
(40.0751 -0.0308084 0)
(40.0938 -0.0324197 0)
(40.1145 -0.0335734 0)
(40.1374 -0.0344434 0)
(40.1628 -0.0352272 0)
(40.1893 -0.0366674 0)
(39.9675 -0.0101412 0)
(39.9214 -0.0185951 0)
(39.8645 -0.0229106 0)
(39.797 -0.0265887 0)
(39.7223 -0.0303253 0)
(39.6428 -0.0339089 0)
(39.5582 -0.0373399 0)
(39.4686 -0.0407417 0)
(39.3739 -0.044104 0)
(39.2741 -0.0480425 0)
(39.1724 -0.0392832 0)
(38.0177 -0.354715 0)
(36.4706 -0.795035 0)
(34.9649 -1.35455 0)
(33.8571 -1.88882 0)
(33.1083 -2.33224 0)
(32.5394 -2.60363 0)
(32.0826 -2.66914 0)
(31.6441 -2.5693 0)
(31.213 -2.34953 0)
(30.7881 -2.0705 0)
(30.363 -1.77852 0)
(29.9523 -1.5088 0)
(29.5502 -1.27328 0)
(29.1575 -1.07567 0)
(28.7763 -0.915099 0)
(28.411 -0.788477 0)
(28.0659 -0.689212 0)
(27.7419 -0.609525 0)
(27.4409 -0.545117 0)
(27.1673 -0.494396 0)
(26.9193 -0.453556 0)
(26.6964 -0.418388 0)
(26.4945 -0.386704 0)
(26.317 -0.359219 0)
(26.1595 -0.33552 0)
(26.0255 -0.314946 0)
(25.9105 -0.296336 0)
(25.8115 -0.27923 0)
(25.7265 -0.263835 0)
(25.6538 -0.250301 0)
(25.5905 -0.238233 0)
(25.5363 -0.227385 0)
(25.4878 -0.217069 0)
(25.4451 -0.207268 0)
(25.4078 -0.198193 0)
(25.3757 -0.189958 0)
(25.3482 -0.182486 0)
(25.3251 -0.175639 0)
(25.306 -0.169166 0)
(25.2907 -0.16307 0)
(25.2788 -0.157374 0)
(25.2697 -0.152087 0)
(25.263 -0.147204 0)
(25.2584 -0.142686 0)
(25.2557 -0.138316 0)
(25.2546 -0.134034 0)
(25.2552 -0.129913 0)
(25.2571 -0.126055 0)
(25.2604 -0.122556 0)
(25.2651 -0.119324 0)
(25.2711 -0.116187 0)
(25.2783 -0.113104 0)
(25.2865 -0.110135 0)
(25.2957 -0.107338 0)
(25.3057 -0.10473 0)
(25.3166 -0.102308 0)
(25.3283 -0.1 0)
(25.3407 -0.0977438 0)
(25.3537 -0.095524 0)
(25.3671 -0.0933897 0)
(25.3809 -0.0913777 0)
(25.3952 -0.0895116 0)
(25.41 -0.0877376 0)
(25.4251 -0.0860222 0)
(25.4405 -0.084341 0)
(25.4562 -0.0827193 0)
(25.4721 -0.0811651 0)
(25.4882 -0.0796928 0)
(25.5045 -0.0782791 0)
(25.5209 -0.0769199 0)
(25.5375 -0.0755921 0)
(25.5541 -0.0743014 0)
(25.5708 -0.0730434 0)
(25.5875 -0.071833 0)
(25.6042 -0.070657 0)
(25.6208 -0.0695198 0)
(25.6375 -0.0683948 0)
(25.6539 -0.067298 0)
(25.6704 -0.0662084 0)
(25.6866 -0.0651534 0)
(25.7028 -0.064106 0)
(25.7186 -0.0630904 0)
(25.7345 -0.0620708 0)
(25.75 -0.0610755 0)
(25.7655 -0.0600764 0)
(25.7805 -0.0591082 0)
(25.7956 -0.0581436 0)
(25.8103 -0.0572146 0)
(25.8249 -0.0562925 0)
(25.8391 -0.0554167 0)
(25.8533 -0.0545552 0)
(25.867 -0.0537837 0)
(25.8809 -0.0530292 0)
(25.8941 -0.0525317 0)
(25.9078 -0.05198 0)
(25.9204 -0.0522654 0)
(25.9349 -0.0520663 0)
(25.9452 -0.0543079 0)
(25.9652 -0.0544216 0)
(40.259 0.20537 0)
(40.4989 0.295873 0)
(40.6487 -0.0460575 0)
(40.4722 -0.668263 0)
(39.9271 -1.3308 0)
(39.098 -1.89412 0)
(38.1064 -2.25379 0)
(37.0578 -2.38364 0)
(36.0565 -2.32238 0)
(35.1535 -2.13329 0)
(34.3676 -1.87972 0)
(33.697 -1.61155 0)
(33.1354 -1.36134 0)
(32.6583 -1.1414 0)
(32.2429 -0.954804 0)
(31.8688 -0.801953 0)
(31.5219 -0.680989 0)
(31.1917 -0.5854 0)
(30.8678 -0.507942 0)
(30.5452 -0.44563 0)
(30.2258 -0.397464 0)
(29.9186 -0.360802 0)
(29.6253 -0.331101 0)
(29.3433 -0.305744 0)
(29.0761 -0.285273 0)
(28.8275 -0.269781 0)
(28.5981 -0.257479 0)
(28.3882 -0.246336 0)
(28.1955 -0.235852 0)
(28.0208 -0.226507 0)
(27.8616 -0.218248 0)
(27.7175 -0.210594 0)
(27.5865 -0.203192 0)
(27.4681 -0.195752 0)
(27.3608 -0.188342 0)
(27.2637 -0.181336 0)
(27.1761 -0.17491 0)
(27.0972 -0.169049 0)
(27.0261 -0.163635 0)
(26.9617 -0.158476 0)
(26.9039 -0.153547 0)
(26.8512 -0.14882 0)
(26.8029 -0.144393 0)
(26.7589 -0.140382 0)
(26.7188 -0.136685 0)
(26.6825 -0.133088 0)
(26.6497 -0.129507 0)
(26.6201 -0.126033 0)
(26.5935 -0.12282 0)
(26.5697 -0.119946 0)
(26.5488 -0.11731 0)
(26.5302 -0.114716 0)
(26.5139 -0.112135 0)
(26.4997 -0.109613 0)
(26.4874 -0.107211 0)
(26.477 -0.104971 0)
(26.4681 -0.10287 0)
(26.4606 -0.100827 0)
(26.4543 -0.0988112 0)
(26.4492 -0.0968128 0)
(26.4452 -0.0948937 0)
(26.4423 -0.0930801 0)
(26.4404 -0.0914255 0)
(26.4395 -0.0898537 0)
(26.4393 -0.088331 0)
(26.4398 -0.0867818 0)
(26.441 -0.08528 0)
(26.4428 -0.0838375 0)
(26.4452 -0.0824686 0)
(26.448 -0.0811493 0)
(26.4512 -0.0798731 0)
(26.4549 -0.0786142 0)
(26.4588 -0.0773764 0)
(26.463 -0.0761592 0)
(26.4674 -0.0749792 0)
(26.4719 -0.0738267 0)
(26.4766 -0.0727022 0)
(26.4814 -0.0715826 0)
(26.4863 -0.0704781 0)
(26.4911 -0.0693775 0)
(26.496 -0.0683011 0)
(26.5009 -0.06723 0)
(26.5057 -0.0661847 0)
(26.5106 -0.0651316 0)
(26.5153 -0.0641003 0)
(26.52 -0.0630607 0)
(26.5246 -0.0620524 0)
(26.5292 -0.0610431 0)
(26.5336 -0.0600717 0)
(26.538 -0.0591022 0)
(26.5423 -0.0581827 0)
(26.5465 -0.0572734 0)
(26.5506 -0.0564603 0)
(26.5547 -0.0556615 0)
(26.5586 -0.0551291 0)
(26.5626 -0.0545475 0)
(26.5663 -0.0548247 0)
(26.5703 -0.0545624 0)
(26.5737 -0.0569854 0)
(26.5795 -0.0567939 0)
(40.2699 0.127743 0)
(40.4561 0.017745 0)
(40.6021 -0.368698 0)
(40.4975 -0.908898 0)
(40.0434 -1.4408 0)
(39.2825 -1.86017 0)
(38.3234 -2.09986 0)
(37.2916 -2.15529 0)
(36.2755 -2.06685 0)
(35.366 -1.88586 0)
(34.5833 -1.6583 0)
(33.9334 -1.42242 0)
(33.4089 -1.20352 0)
(32.9874 -1.00986 0)
(32.6458 -0.843273 0)
(32.3685 -0.705602 0)
(32.1444 -0.596065 0)
(31.9594 -0.507842 0)
(31.7971 -0.433903 0)
(31.6495 -0.373393 0)
(31.5137 -0.327004 0)
(31.384 -0.291598 0)
(31.2523 -0.262387 0)
(31.1148 -0.237421 0)
(30.9686 -0.217231 0)
(30.8138 -0.202277 0)
(30.6516 -0.191214 0)
(30.4828 -0.18173 0)
(30.308 -0.173187 0)
(30.1294 -0.166146 0)
(29.9486 -0.160741 0)
(29.7714 -0.156467 0)
(29.5992 -0.152665 0)
(29.4351 -0.148961 0)
(29.2793 -0.145597 0)
(29.1329 -0.142821 0)
(28.9969 -0.140473 0)
(28.871 -0.138325 0)
(28.7544 -0.13619 0)
(28.6462 -0.133933 0)
(28.5455 -0.131635 0)
(28.4518 -0.129256 0)
(28.3648 -0.126751 0)
(28.2843 -0.124296 0)
(28.2096 -0.121923 0)
(28.1402 -0.119493 0)
(28.0757 -0.116974 0)
(28.0159 -0.11449 0)
(27.9609 -0.112179 0)
(27.9099 -0.110065 0)
(27.8623 -0.108089 0)
(27.8178 -0.10615 0)
(27.7765 -0.10425 0)
(27.7382 -0.102399 0)
(27.7028 -0.100634 0)
(27.6699 -0.0990207 0)
(27.6397 -0.097542 0)
(27.6116 -0.0960746 0)
(27.5858 -0.0945628 0)
(27.5619 -0.0930244 0)
(27.5399 -0.0915337 0)
(27.5197 -0.0901233 0)
(27.5011 -0.0887782 0)
(27.4835 -0.0874439 0)
(27.4671 -0.0861383 0)
(27.4516 -0.0848361 0)
(27.4373 -0.0835752 0)
(27.4236 -0.0823378 0)
(27.4109 -0.0811626 0)
(27.3987 -0.0800064 0)
(27.3873 -0.0788855 0)
(27.3762 -0.0777482 0)
(27.3658 -0.0766223 0)
(27.3556 -0.075489 0)
(27.3458 -0.0743912 0)
(27.3362 -0.0732974 0)
(27.327 -0.0722314 0)
(27.3179 -0.0711464 0)
(27.3091 -0.0700778 0)
(27.3002 -0.0689945 0)
(27.2917 -0.0679411 0)
(27.2832 -0.0668803 0)
(27.2749 -0.0658453 0)
(27.2666 -0.0647964 0)
(27.2585 -0.0637674 0)
(27.2504 -0.0627294 0)
(27.2425 -0.0617199 0)
(27.2346 -0.0607113 0)
(27.2269 -0.0597364 0)
(27.2192 -0.0587669 0)
(27.2116 -0.0578421 0)
(27.2041 -0.0569331 0)
(27.1968 -0.0561141 0)
(27.1894 -0.0553159 0)
(27.1823 -0.0547774 0)
(27.1749 -0.0542007 0)
(27.1683 -0.0544652 0)
(27.1605 -0.0542659 0)
(27.1552 -0.0566424 0)
(27.1446 -0.0564502 0)
(40.2634 0.0673391 0)
(40.4034 0.00417027 0)
(40.4966 -0.262169 0)
(40.3657 -0.678571 0)
(39.9156 -1.11199 0)
(39.179 -1.46759 0)
(38.2538 -1.69379 0)
(37.2564 -1.77779 0)
(36.2699 -1.73984 0)
(35.382 -1.61421 0)
(34.6107 -1.43855 0)
(33.9657 -1.24816 0)
(33.441 -1.06658 0)
(33.0138 -0.901794 0)
(32.665 -0.758055 0)
(32.3859 -0.639603 0)
(32.1662 -0.545402 0)
(31.9866 -0.467568 0)
(31.8325 -0.400697 0)
(31.7033 -0.346416 0)
(31.6021 -0.306007 0)
(31.5216 -0.274511 0)
(31.4477 -0.245688 0)
(31.377 -0.219082 0)
(31.3165 -0.197747 0)
(31.2672 -0.1816 0)
(31.2215 -0.167964 0)
(31.1743 -0.155143 0)
(31.1234 -0.143029 0)
(31.0688 -0.132441 0)
(31.0112 -0.124137 0)
(30.9497 -0.117973 0)
(30.8825 -0.113063 0)
(30.8076 -0.108693 0)
(30.7241 -0.104712 0)
(30.6327 -0.101678 0)
(30.5349 -0.0997208 0)
(30.4326 -0.0984095 0)
(30.327 -0.0973495 0)
(30.219 -0.0963764 0)
(30.1096 -0.0954277 0)
(29.9999 -0.0945299 0)
(29.893 -0.09391 0)
(29.7901 -0.0935947 0)
(29.6913 -0.0933565 0)
(29.5964 -0.0930287 0)
(29.5058 -0.0926205 0)
(29.4199 -0.09222 0)
(29.339 -0.0919062 0)
(29.2628 -0.0916284 0)
(29.1909 -0.09122 0)
(29.1226 -0.0906134 0)
(29.0578 -0.0898868 0)
(28.996 -0.0890914 0)
(28.9377 -0.0882656 0)
(28.8822 -0.0874507 0)
(28.8298 -0.0866531 0)
(28.78 -0.0858137 0)
(28.733 -0.0849026 0)
(28.6883 -0.0839295 0)
(28.6461 -0.0829572 0)
(28.6059 -0.0820534 0)
(28.5678 -0.0812037 0)
(28.5311 -0.080315 0)
(28.4963 -0.0793786 0)
(28.4626 -0.0783857 0)
(28.4304 -0.0773813 0)
(28.3989 -0.0763722 0)
(28.3686 -0.0753964 0)
(28.3387 -0.0744165 0)
(28.31 -0.0734482 0)
(28.2814 -0.0724439 0)
(28.2537 -0.0714312 0)
(28.2261 -0.0704018 0)
(28.1993 -0.0693957 0)
(28.1726 -0.0683894 0)
(28.1466 -0.067401 0)
(28.1206 -0.0663919 0)
(28.0953 -0.0653906 0)
(28.07 -0.0643757 0)
(28.0454 -0.0633894 0)
(28.0208 -0.0623984 0)
(27.9969 -0.0614289 0)
(27.973 -0.0604423 0)
(27.9498 -0.0594735 0)
(27.9265 -0.0584934 0)
(27.904 -0.0575429 0)
(27.8815 -0.0565902 0)
(27.8596 -0.0556735 0)
(27.8377 -0.0547592 0)
(27.8166 -0.0538913 0)
(27.7954 -0.0530387 0)
(27.775 -0.052273 0)
(27.7544 -0.0515314 0)
(27.7348 -0.0510346 0)
(27.7145 -0.0505167 0)
(27.6962 -0.0507827 0)
(27.6747 -0.0506782 0)
(27.6601 -0.0528892 0)
(27.6311 -0.0531148 0)
(40.2555 0.0314289 0)
(40.3567 -0.0318828 0)
(40.4022 -0.258916 0)
(40.2468 -0.617321 0)
(39.8045 -0.995499 0)
(39.098 -1.30665 0)
(38.2123 -1.50462 0)
(37.2563 -1.57686 0)
(36.3008 -1.54069 0)
(35.4307 -1.42803 0)
(34.6682 -1.27279 0)
(34.0265 -1.10642 0)
(33.4987 -0.947613 0)
(33.0629 -0.802218 0)
(32.7074 -0.676155 0)
(32.4278 -0.57423 0)
(32.2053 -0.492043 0)
(32.0158 -0.421495 0)
(31.8534 -0.361312 0)
(31.726 -0.315018 0)
(31.6292 -0.280974 0)
(31.5438 -0.251643 0)
(31.4614 -0.223685 0)
(31.3909 -0.200421 0)
(31.3388 -0.18378 0)
(31.298 -0.170898 0)
(31.2589 -0.158711 0)
(31.2188 -0.146431 0)
(31.1831 -0.135488 0)
(31.1561 -0.12694 0)
(31.136 -0.120306 0)
(31.1178 -0.114406 0)
(31.098 -0.108371 0)
(31.0762 -0.102033 0)
(31.0569 -0.0962774 0)
(31.0397 -0.0913327 0)
(31.0225 -0.0872606 0)
(31.0039 -0.0838488 0)
(30.982 -0.0805455 0)
(30.9557 -0.0771638 0)
(30.9251 -0.0740139 0)
(30.8909 -0.0715774 0)
(30.8529 -0.07008 0)
(30.8108 -0.0691758 0)
(30.764 -0.0683527 0)
(30.712 -0.0674486 0)
(30.6549 -0.0666603 0)
(30.5935 -0.0662249 0)
(30.5289 -0.0661554 0)
(30.4621 -0.066248 0)
(30.394 -0.0663097 0)
(30.3248 -0.0663075 0)
(30.2551 -0.0662784 0)
(30.1849 -0.0663 0)
(30.1152 -0.0664267 0)
(30.0464 -0.066634 0)
(29.9789 -0.0668869 0)
(29.9121 -0.0670854 0)
(29.8468 -0.0671857 0)
(29.7824 -0.0671951 0)
(29.7199 -0.0671362 0)
(29.6582 -0.0670224 0)
(29.5982 -0.0668311 0)
(29.5394 -0.066552 0)
(29.4822 -0.0661812 0)
(29.4259 -0.0657072 0)
(29.3712 -0.0651513 0)
(29.317 -0.0645316 0)
(29.2643 -0.0638911 0)
(29.2119 -0.0632038 0)
(29.161 -0.0624896 0)
(29.1102 -0.0617059 0)
(29.0609 -0.0608862 0)
(29.0117 -0.0600311 0)
(28.9639 -0.059184 0)
(28.9162 -0.058325 0)
(28.8699 -0.0574771 0)
(28.8236 -0.0566012 0)
(28.7787 -0.05573 0)
(28.7339 -0.0548465 0)
(28.6904 -0.0539672 0)
(28.647 -0.0530795 0)
(28.6049 -0.0522215 0)
(28.5629 -0.0513575 0)
(28.5223 -0.0505152 0)
(28.4817 -0.0496684 0)
(28.4426 -0.0488522 0)
(28.4035 -0.0480372 0)
(28.3658 -0.0472581 0)
(28.3282 -0.0464834 0)
(28.292 -0.0457543 0)
(28.2558 -0.0450434 0)
(28.2211 -0.0444117 0)
(28.1862 -0.0438118 0)
(28.1531 -0.0434228 0)
(28.119 -0.0430502 0)
(28.0883 -0.0433168 0)
(28.0523 -0.0434257 0)
(28.0279 -0.0452804 0)
(27.9796 -0.0464643 0)
(40.2478 0.00636933 0)
(40.3189 -0.052935 0)
(40.3277 -0.234956 0)
(40.154 -0.518804 0)
(39.7188 -0.818106 0)
(39.0361 -1.062 0)
(38.1811 -1.21591 0)
(37.2551 -1.27231 0)
(36.3246 -1.2455 0)
(35.4683 -1.16009 0)
(34.7155 -1.04186 0)
(34.0778 -0.913518 0)
(33.5439 -0.787775 0)
(33.1003 -0.671236 0)
(32.7427 -0.570915 0)
(32.4607 -0.48993 0)
(32.2277 -0.422199 0)
(32.025 -0.362194 0)
(31.8602 -0.313447 0)
(31.7383 -0.278743 0)
(31.6367 -0.251021 0)
(31.5374 -0.224003 0)
(31.4496 -0.200066 0)
(31.3848 -0.182945 0)
(31.3357 -0.170728 0)
(31.2892 -0.15911 0)
(31.2404 -0.146538 0)
(31.197 -0.135402 0)
(31.1645 -0.127148 0)
(31.1399 -0.120839 0)
(31.1176 -0.114881 0)
(31.0936 -0.10839 0)
(31.069 -0.101907 0)
(31.0495 -0.0967312 0)
(31.035 -0.0926732 0)
(31.0232 -0.0891643 0)
(31.0115 -0.0858904 0)
(30.9982 -0.0825788 0)
(30.985 -0.0793399 0)
(30.9744 -0.0763495 0)
(30.9657 -0.0735982 0)
(30.9577 -0.0712372 0)
(30.9492 -0.0693378 0)
(30.9393 -0.0675439 0)
(30.9282 -0.0655161 0)
(30.9162 -0.0632737 0)
(30.9036 -0.0610949 0)
(30.8898 -0.0592448 0)
(30.8739 -0.057775 0)
(30.8552 -0.0565461 0)
(30.8331 -0.0553685 0)
(30.8073 -0.0541711 0)
(30.7779 -0.0529856 0)
(30.7451 -0.0519592 0)
(30.7086 -0.0511847 0)
(30.6681 -0.0506125 0)
(30.6234 -0.0500724 0)
(30.5745 -0.04954 0)
(30.5218 -0.0490233 0)
(30.4656 -0.0485511 0)
(30.4063 -0.0481166 0)
(30.3442 -0.0477165 0)
(30.2797 -0.047366 0)
(30.213 -0.0470539 0)
(30.1445 -0.0467328 0)
(30.0747 -0.0463703 0)
(30.0041 -0.0459584 0)
(29.9329 -0.0455237 0)
(29.8616 -0.0450814 0)
(29.7901 -0.04463 0)
(29.7191 -0.0441632 0)
(29.648 -0.0436571 0)
(29.5782 -0.043124 0)
(29.5085 -0.0425613 0)
(29.4403 -0.0420024 0)
(29.3723 -0.0414309 0)
(29.306 -0.0408741 0)
(29.24 -0.0402901 0)
(29.1758 -0.0397094 0)
(29.112 -0.0391109 0)
(29.05 -0.0385511 0)
(28.9885 -0.0379921 0)
(28.929 -0.0374418 0)
(28.8699 -0.0368811 0)
(28.8129 -0.0363297 0)
(28.7563 -0.0357766 0)
(28.7019 -0.0352465 0)
(28.6477 -0.0347221 0)
(28.5959 -0.0342262 0)
(28.5442 -0.0337378 0)
(28.495 -0.0332868 0)
(28.4457 -0.0328533 0)
(28.3989 -0.0324836 0)
(28.3518 -0.0321525 0)
(28.3075 -0.0319754 0)
(28.2617 -0.0318701 0)
(28.2208 -0.0321648 0)
(28.1729 -0.0326443 0)
(28.1403 -0.0339057 0)
(28.076 -0.0366338 0)
(40.2419 -0.0161658 0)
(40.2904 -0.0671901 0)
(40.2717 -0.206837 0)
(40.0832 -0.423796 0)
(39.6529 -0.656248 0)
(38.9885 -0.849198 0)
(38.1576 -0.975697 0)
(37.2545 -1.02821 0)
(36.3427 -1.01536 0)
(35.4963 -0.954371 0)
(34.7471 -0.86502 0)
(34.1041 -0.764969 0)
(33.5563 -0.663588 0)
(33.1014 -0.569801 0)
(32.7409 -0.491598 0)
(32.4474 -0.425989 0)
(32.1918 -0.366886 0)
(31.9806 -0.316984 0)
(31.821 -0.280002 0)
(31.6891 -0.251027 0)
(31.5635 -0.223839 0)
(31.4522 -0.19949 0)
(31.3664 -0.181455 0)
(31.2975 -0.168466 0)
(31.2309 -0.156699 0)
(31.1636 -0.144342 0)
(31.1042 -0.133275 0)
(31.056 -0.125189 0)
(31.0143 -0.119166 0)
(30.9733 -0.113319 0)
(30.9302 -0.10684 0)
(30.8885 -0.100653 0)
(30.8519 -0.0958236 0)
(30.8189 -0.0921774 0)
(30.7866 -0.0887952 0)
(30.7536 -0.0850576 0)
(30.7188 -0.0811575 0)
(30.6848 -0.0777316 0)
(30.6522 -0.0749556 0)
(30.6202 -0.0724517 0)
(30.5882 -0.0698345 0)
(30.5555 -0.0671962 0)
(30.5216 -0.0647661 0)
(30.4868 -0.0625659 0)
(30.4515 -0.0604807 0)
(30.4162 -0.0584456 0)
(30.3806 -0.0564944 0)
(30.3446 -0.0546902 0)
(30.3077 -0.0529997 0)
(30.2698 -0.0513232 0)
(30.231 -0.0495824 0)
(30.1916 -0.0478018 0)
(30.152 -0.046039 0)
(30.1121 -0.0443573 0)
(30.0717 -0.0427421 0)
(30.0305 -0.0411116 0)
(29.9883 -0.0394213 0)
(29.9452 -0.0377285 0)
(29.9013 -0.0361042 0)
(29.8566 -0.0345727 0)
(29.811 -0.0331057 0)
(29.7642 -0.0316832 0)
(29.7162 -0.0303292 0)
(29.6667 -0.0290601 0)
(29.6158 -0.027875 0)
(29.5635 -0.0267678 0)
(29.5101 -0.0257375 0)
(29.4554 -0.0247935 0)
(29.3996 -0.0239263 0)
(29.3426 -0.0231503 0)
(29.2847 -0.0224541 0)
(29.226 -0.0218274 0)
(29.1667 -0.0212607 0)
(29.107 -0.0207469 0)
(29.047 -0.0202904 0)
(28.9868 -0.0198828 0)
(28.9267 -0.0195273 0)
(28.8665 -0.0192038 0)
(28.8071 -0.0189146 0)
(28.7476 -0.0186494 0)
(28.6893 -0.0184124 0)
(28.6309 -0.0181999 0)
(28.5741 -0.0180187 0)
(28.5173 -0.0178618 0)
(28.4623 -0.0177254 0)
(28.4074 -0.0176078 0)
(28.3544 -0.0175109 0)
(28.3016 -0.0174331 0)
(28.2508 -0.0173726 0)
(28.2001 -0.0173266 0)
(28.1515 -0.0172986 0)
(28.1029 -0.0172858 0)
(28.0564 -0.0173064 0)
(28.0097 -0.017368 0)
(27.9654 -0.0175026 0)
(27.9196 -0.0177726 0)
(27.8784 -0.0181374 0)
(27.8297 -0.0191002 0)
(27.7968 -0.0196137 0)
(27.7301 -0.024158 0)
(40.2386 -0.030009 0)
(40.2709 -0.0704533 0)
(40.2318 -0.171528 0)
(40.0308 -0.327113 0)
(39.6008 -0.494847 0)
(38.9444 -0.634492 0)
(38.1222 -0.726393 0)
(37.2227 -0.765153 0)
(36.3073 -0.757447 0)
(35.4505 -0.717128 0)
(34.6859 -0.656723 0)
(34.0117 -0.585597 0)
(33.4357 -0.513349 0)
(32.9639 -0.448468 0)
(32.5691 -0.39175 0)
(32.2282 -0.340813 0)
(31.9412 -0.296625 0)
(31.7087 -0.26144 0)
(31.5081 -0.233289 0)
(31.3243 -0.208765 0)
(31.16 -0.186994 0)
(31.0204 -0.169517 0)
(30.8959 -0.156155 0)
(30.7761 -0.144863 0)
(30.6613 -0.133981 0)
(30.5559 -0.123812 0)
(30.4598 -0.115396 0)
(30.3675 -0.108828 0)
(30.2758 -0.103032 0)
(30.1855 -0.0969712 0)
(30.0991 -0.0908625 0)
(30.0165 -0.0855872 0)
(29.9356 -0.0813913 0)
(29.855 -0.0777707 0)
(29.7744 -0.0740524 0)
(29.6952 -0.0700338 0)
(29.6179 -0.066245 0)
(29.5419 -0.0631423 0)
(29.4665 -0.0605265 0)
(29.3913 -0.0579597 0)
(29.3168 -0.0552167 0)
(29.2436 -0.0524705 0)
(29.1715 -0.0500185 0)
(29.1004 -0.0479221 0)
(29.0299 -0.0459816 0)
(28.9605 -0.0440184 0)
(28.8922 -0.042024 0)
(28.8252 -0.0401008 0)
(28.7592 -0.0382969 0)
(28.6945 -0.0365989 0)
(28.6309 -0.0349721 0)
(28.5688 -0.0334165 0)
(28.5081 -0.0319211 0)
(28.4489 -0.0304933 0)
(28.3909 -0.0291165 0)
(28.3346 -0.0277719 0)
(28.2796 -0.026444 0)
(28.2265 -0.0251785 0)
(28.1748 -0.0239904 0)
(28.1249 -0.0228664 0)
(28.0763 -0.0217431 0)
(28.0296 -0.0206074 0)
(27.9841 -0.019478 0)
(27.9406 -0.0183971 0)
(27.8981 -0.017363 0)
(27.8574 -0.0163741 0)
(27.8178 -0.0154077 0)
(27.7796 -0.0144729 0)
(27.7423 -0.0135642 0)
(27.7063 -0.0127088 0)
(27.671 -0.0119278 0)
(27.6368 -0.0112087 0)
(27.6031 -0.0105309 0)
(27.5703 -0.00989847 0)
(27.5379 -0.00931944 0)
(27.5061 -0.00880619 0)
(27.4747 -0.0083546 0)
(27.4436 -0.00797189 0)
(27.4129 -0.00764359 0)
(27.3824 -0.00736818 0)
(27.3522 -0.00714268 0)
(27.322 -0.00696419 0)
(27.2921 -0.00683199 0)
(27.2621 -0.00674251 0)
(27.2323 -0.0066894 0)
(27.2025 -0.0066705 0)
(27.1727 -0.00668345 0)
(27.1429 -0.00672871 0)
(27.1132 -0.00679854 0)
(27.0834 -0.00689331 0)
(27.0537 -0.00700775 0)
(27.024 -0.00714442 0)
(26.9945 -0.00730742 0)
(26.9647 -0.00751254 0)
(26.9355 -0.00772805 0)
(26.9049 -0.00811321 0)
(26.8769 -0.00835651 0)
(26.8424 -0.00948508 0)
(26.8199 -0.00918225 0)
(26.7695 -0.0145937 0)
(40.2229 -0.0441214 0)
(40.2345 -0.0683461 0)
(40.1702 -0.129278 0)
(39.943 -0.223499 0)
(39.4859 -0.326545 0)
(38.7965 -0.413766 0)
(37.9306 -0.472622 0)
(36.9719 -0.498729 0)
(35.9901 -0.496025 0)
(35.0475 -0.472312 0)
(34.1786 -0.433992 0)
(33.4019 -0.388508 0)
(32.7253 -0.343072 0)
(32.1377 -0.301213 0)
(31.6247 -0.263379 0)
(31.1818 -0.230166 0)
(30.7989 -0.202279 0)
(30.4634 -0.179291 0)
(30.1607 -0.159561 0)
(29.8881 -0.142506 0)
(29.6416 -0.127999 0)
(29.4184 -0.11619 0)
(29.2116 -0.106196 0)
(29.0175 -0.09726 0)
(28.8367 -0.0893827 0)
(28.6684 -0.0824927 0)
(28.5104 -0.0763392 0)
(28.3595 -0.07072 0)
(28.2152 -0.0655611 0)
(28.0775 -0.0607639 0)
(27.9469 -0.0562898 0)
(27.8225 -0.0521792 0)
(27.703 -0.0484239 0)
(27.5878 -0.0449542 0)
(27.4768 -0.041671 0)
(27.3706 -0.0385238 0)
(27.2691 -0.0356064 0)
(27.1718 -0.0329849 0)
(27.0778 -0.0305602 0)
(26.9872 -0.028247 0)
(26.9001 -0.0260116 0)
(26.8168 -0.0239197 0)
(26.7369 -0.0220382 0)
(26.66 -0.0203432 0)
(26.5858 -0.018738 0)
(26.5145 -0.0171815 0)
(26.446 -0.0157033 0)
(26.3804 -0.0143607 0)
(26.3172 -0.0131528 0)
(26.2567 -0.0120432 0)
(26.1983 -0.0109863 0)
(26.1426 -0.00998165 0)
(26.0889 -0.00903733 0)
(26.0377 -0.00816847 0)
(25.9883 -0.00737032 0)
(25.9413 -0.00662226 0)
(25.8962 -0.00589711 0)
(25.8534 -0.0052042 0)
(25.8123 -0.00455682 0)
(25.7735 -0.00395689 0)
(25.7361 -0.00338124 0)
(25.701 -0.00282618 0)
(25.6674 -0.00229958 0)
(25.6359 -0.00181547 0)
(25.6058 -0.00136637 0)
(25.5776 -0.000945112 0)
(25.5507 -0.000541291 0)
(25.5255 -0.000158205 0)
(25.5015 0.00020027 0)
(25.4791 0.000528157 0)
(25.4577 0.000839722 0)
(25.4376 0.00107175 0)
(25.4184 0.00127055 0)
(25.4002 0.00145308 0)
(25.3827 0.00162912 0)
(25.3662 0.00178158 0)
(25.35 0.00192031 0)
(25.3347 0.00203258 0)
(25.3196 0.00213315 0)
(25.3052 0.00222224 0)
(25.291 0.00229909 0)
(25.2772 0.00235236 0)
(25.2636 0.00239672 0)
(25.2503 0.00243769 0)
(25.2371 0.00247359 0)
(25.224 0.00250416 0)
(25.211 0.00252603 0)
(25.1981 0.00253911 0)
(25.185 0.00253975 0)
(25.172 0.00253245 0)
(25.1588 0.00251197 0)
(25.1455 0.00247942 0)
(25.1321 0.00242676 0)
(25.1184 0.00231798 0)
(25.1048 0.00222397 0)
(25.0899 0.00194266 0)
(25.0767 0.00194549 0)
(25.0582 0.000987154 0)
(25.0479 0.00151907 0)
(25.0178 -0.00294832 0)
(39.1402 -0.0539802 0)
(38.9464 -0.0675466 0)
(38.6586 -0.0934487 0)
(38.1914 -0.131021 0)
(37.4774 -0.172078 0)
(36.5128 -0.207811 0)
(35.3544 -0.233301 0)
(34.0901 -0.246383 0)
(32.7978 -0.248009 0)
(31.541 -0.240224 0)
(30.3739 -0.225354 0)
(29.3098 -0.206534 0)
(28.3626 -0.186526 0)
(27.5261 -0.16644 0)
(26.7953 -0.147231 0)
(26.1541 -0.129856 0)
(25.5941 -0.114648 0)
(25.0993 -0.100853 0)
(24.6658 -0.0883457 0)
(24.2808 -0.0774409 0)
(23.9409 -0.068429 0)
(23.6347 -0.0609601 0)
(23.3582 -0.054365 0)
(23.1082 -0.0488066 0)
(22.8796 -0.0443515 0)
(22.6705 -0.0404454 0)
(22.4791 -0.0366691 0)
(22.3044 -0.0332588 0)
(22.1435 -0.0304889 0)
(21.9953 -0.0281474 0)
(21.8588 -0.0258662 0)
(21.734 -0.0236302 0)
(21.6194 -0.0216784 0)
(21.5139 -0.0201193 0)
(21.4162 -0.0187892 0)
(21.3263 -0.0174814 0)
(21.2437 -0.0161945 0)
(21.1682 -0.0150639 0)
(21.0984 -0.0141416 0)
(21.034 -0.0133624 0)
(20.9746 -0.0126112 0)
(20.9203 -0.011862 0)
(20.8704 -0.0111732 0)
(20.8247 -0.010599 0)
(20.7824 -0.0101132 0)
(20.7437 -0.00966275 0)
(20.708 -0.00921824 0)
(20.6755 -0.00879362 0)
(20.6457 -0.00840257 0)
(20.6185 -0.00804777 0)
(20.5934 -0.00771661 0)
(20.5708 -0.00740953 0)
(20.55 -0.00711863 0)
(20.5313 -0.00684344 0)
(20.5141 -0.00658077 0)
(20.4989 -0.00633347 0)
(20.4848 -0.0060963 0)
(20.4725 -0.00588257 0)
(20.4613 -0.00569331 0)
(20.4515 -0.00552672 0)
(20.4427 -0.00536048 0)
(20.4352 -0.00519413 0)
(20.4284 -0.00502372 0)
(20.423 -0.00486587 0)
(20.4182 -0.00470571 0)
(20.4146 -0.0045498 0)
(20.4115 -0.00436958 0)
(20.4095 -0.00418647 0)
(20.4081 -0.00396525 0)
(20.4076 -0.00370592 0)
(20.4077 -0.00352686 0)
(20.4085 -0.0033487 0)
(20.4099 -0.00319636 0)
(20.4119 -0.0030522 0)
(20.4145 -0.00290964 0)
(20.4176 -0.00277406 0)
(20.4213 -0.00264611 0)
(20.4253 -0.00253832 0)
(20.4297 -0.00244172 0)
(20.4344 -0.00235785 0)
(20.4394 -0.00228958 0)
(20.4446 -0.00226227 0)
(20.45 -0.00225353 0)
(20.4555 -0.00225548 0)
(20.4611 -0.00226453 0)
(20.4668 -0.00227895 0)
(20.4724 -0.00229622 0)
(20.4781 -0.00231483 0)
(20.4837 -0.00233716 0)
(20.4892 -0.00235736 0)
(20.4947 -0.00238238 0)
(20.4999 -0.00240498 0)
(20.5052 -0.00243503 0)
(20.5097 -0.00249614 0)
(20.5146 -0.00253991 0)
(20.518 -0.00268039 0)
(20.5227 -0.00262416 0)
(20.524 -0.00322312 0)
(20.5277 -0.00208142 0)
(20.5227 -0.00798325 0)
(1.95437 0.421237 0)
(1.64907 2.05102 0)
(0.910905 2.40128 0)
(0.110915 2.5677 0)
(-0.665574 2.43237 0)
(-1.46651 1.98152 0)
(-2.15367 1.28401 0)
(-2.51272 0.770952 0)
(10.5778 0.318084 0)
(4.36564 1.81697 0)
(1.74411 2.17481 0)
(-0.155017 2.21102 0)
(-2.00006 2.04563 0)
(-3.87731 1.69172 0)
(-5.71493 1.11972 0)
(-6.92409 0.530807 0)
(16.8868 -0.371863 0)
(7.91511 0.751522 0)
(2.86677 1.2142 0)
(-0.390801 1.32793 0)
(-2.9925 1.24932 0)
(-5.40338 1.0588 0)
(-7.85091 0.753711 0)
(-9.97521 0.288393 0)
(20.5479 -1.17077 0)
(11.239 -0.438565 0)
(4.58037 0.0734942 0)
(0.166287 0.312111 0)
(-3.14767 0.39339 0)
(-6.02668 0.379204 0)
(-8.77042 0.303335 0)
(-11.4791 0.0760387 0)
(22.4346 -1.81035 0)
(13.5547 -1.3272 0)
(6.44274 -0.873382 0)
(1.28495 -0.548985 0)
(-2.61863 -0.328242 0)
(-5.86405 -0.179406 0)
(-8.80813 -0.0646653 0)
(-11.7951 -0.0515929 0)
(23.6383 -2.31559 0)
(15.4317 -1.97617 0)
(8.25979 -1.57569 0)
(2.74329 -1.21556 0)
(-1.47203 -0.904722 0)
(-4.91752 -0.630896 0)
(-7.98474 -0.380776 0)
(-11.1055 -0.205935 0)
(24.3329 -2.60594 0)
(16.9013 -2.37076 0)
(10.0266 -2.03617 0)
(4.44231 -1.67069 0)
(0.115676 -1.30549 0)
(-3.37698 -0.946701 0)
(-6.43093 -0.597702 0)
(-9.51231 -0.307159 0)
(24.7683 -2.67803 0)
(17.9672 -2.50945 0)
(11.5151 -2.23411 0)
(6.1552 -1.89317 0)
(1.91902 -1.51313 0)
(-1.51041 -1.1124 0)
(-4.48998 -0.712717 0)
(-7.52818 -0.358454 0)
(25.0645 -2.58799 0)
(18.8341 -2.4609 0)
(12.8345 -2.2308 0)
(7.79367 -1.91906 0)
(3.76288 -1.55067 0)
(0.479099 -1.14689 0)
(-2.37462 -0.740283 0)
(-5.32874 -0.369169 0)
(25.2509 -2.38133 0)
(19.5303 -2.28724 0)
(13.9917 -2.09726 0)
(9.31686 -1.82124 0)
(5.53748 -1.48042 0)
(2.42568 -1.09684 0)
(-0.297099 -0.708837 0)
(-3.17833 -0.353643 0)
(25.3306 -2.11407 0)
(20.0612 -2.0519 0)
(14.9678 -1.89759 0)
(10.6755 -1.65952 0)
(7.16917 -1.35437 0)
(4.24243 -1.00525 0)
(1.65861 -0.650644 0)
(-1.14549 -0.325772 0)
(25.3128 -1.83509 0)
(20.4568 -1.79902 0)
(15.8046 -1.67507 0)
(11.8634 -1.47221 0)
(8.60665 -1.20347 0)
(5.86496 -0.895291 0)
(3.41674 -0.580444 0)
(0.697152 -0.291697 0)
(25.2213 -1.57359 0)
(20.7374 -1.55758 0)
(16.5019 -1.45875 0)
(12.8898 -1.28603 0)
(9.86446 -1.05201 0)
(7.29279 -0.78253 0)
(4.96272 -0.504727 0)
(2.30881 -0.250319 0)
(25.0838 -1.34512 0)
(20.9387 -1.34161 0)
(17.0853 -1.26293 0)
(13.7723 -1.11628 0)
(10.9565 -0.91359 0)
(8.53844 -0.679488 0)
(6.31434 -0.436109 0)
(3.71798 -0.214332 0)
(24.9177 -1.15106 0)
(21.0783 -1.15542 0)
(17.5722 -1.09202 0)
(14.5313 -0.967215 0)
(11.9029 -0.792913 0)
(9.62013 -0.590268 0)
(7.48738 -0.37749 0)
(4.93608 -0.184511 0)
(24.7432 -0.990428 0)
(21.1866 -0.996833 0)
(17.9786 -0.945158 0)
(15.1717 -0.838326 0)
(12.7162 -0.689666 0)
(10.5576 -0.51459 0)
(8.50771 -0.327792 0)
(5.99426 -0.161575 0)
(24.58 -0.860995 0)
(21.2809 -0.866235 0)
(18.3233 -0.821812 0)
(15.7145 -0.729611 0)
(13.4158 -0.602094 0)
(11.3714 -0.450066 0)
(9.39985 -0.283975 0)
(6.91571 -0.145665 0)
(24.4341 -0.756424 0)
(21.368 -0.760036 0)
(18.624 -0.719961 0)
(16.1851 -0.639288 0)
(14.0235 -0.52834 0)
(12.0819 -0.395197 0)
(10.1862 -0.246972 0)
(7.71762 -0.131357 0)
(24.3067 -0.669996 0)
(21.451 -0.672004 0)
(18.8912 -0.635323 0)
(16.5987 -0.563782 0)
(14.5565 -0.46608 0)
(12.7059 -0.348686 0)
(10.8782 -0.217153 0)
(8.42427 -0.11606 0)
(24.1978 -0.597715 0)
(21.5304 -0.598437 0)
(19.131 -0.564509 0)
(16.9661 -0.500448 0)
(15.028 -0.413546 0)
(13.2575 -0.309243 0)
(11.4895 -0.192387 0)
(9.04829 -0.102221 0)
(24.1076 -0.538239 0)
(21.6078 -0.538091 0)
(19.3487 -0.506215 0)
(17.2965 -0.448482 0)
(15.4497 -0.370353 0)
(13.7494 -0.276685 0)
(12.0337 -0.171969 0)
(9.60278 -0.090671 0)
(24.0335 -0.489551 0)
(21.6839 -0.488689 0)
(19.5459 -0.458752 0)
(17.5961 -0.406255 0)
(15.8312 -0.335291 0)
(14.1933 -0.25027 0)
(12.5235 -0.155403 0)
(10.1008 -0.0813175 0)
(23.9718 -0.4485 0)
(21.7577 -0.446819 0)
(19.7275 -0.41872 0)
(17.87 -0.370524 0)
(16.179 -0.305611 0)
(14.5973 -0.227935 0)
(12.9685 -0.141368 0)
(10.5524 -0.0734674 0)
(23.9209 -0.412182 0)
(21.8296 -0.409621 0)
(19.8963 -0.383385 0)
(18.1219 -0.338994 0)
(16.4975 -0.279437 0)
(14.9666 -0.208251 0)
(13.3747 -0.128956 0)
(10.9636 -0.0666494 0)
(23.8797 -0.380336 0)
(21.8977 -0.377056 0)
(20.0523 -0.352361 0)
(18.3533 -0.311275 0)
(16.7898 -0.256424 0)
(15.3053 -0.190951 0)
(13.7465 -0.118038 0)
(11.339 -0.0607748 0)
(23.8481 -0.353488 0)
(21.9653 -0.348975 0)
(20.1992 -0.325916 0)
(18.5683 -0.287638 0)
(17.0598 -0.236735 0)