/*--------------------------------*- C++ -*----------------------------------*\
| =========                 |                                                 |
| \\      /  F ield         | OpenFOAM: The Open Source CFD Toolbox           |
|  \\    /   O peration     | Version:  v2012                                 |
|   \\  /    A nd           | Website:  www.openfoam.com                      |
|    \\/     M anipulation  |                                                 |
\*---------------------------------------------------------------------------*/
FoamFile
{
    version     2.0;
    format      ascii;
    class       volScalarField;
    location    "0.088";
    object      epsilon.air;
}
// * * * * * * * * * * * * * * * * * * * * * * * * * * * * * * * * * * * * * //

dimensions      [0 2 -3 0 0 0 0];


internalField   nonuniform List<scalar> 
1900
(
112.724
141.424
210.097
257.591
369.051
443.457
614.739
724.909
971.32
1128.62
15.4676
16.4471
18.6376
20.4502
23.7573
27.7271
32.0037
39.2878
45.1224
56.7627
14.7926
14.6414
14.5755
14.5063
14.5148
14.5574
14.6409
14.8309
15.0773
15.4133
14.77
14.6304
14.4634
14.3354
14.1726
14.059
13.9039
13.808
13.6653
13.5937
14.7766
14.6216
14.4704
14.3205
14.1747
14.029
13.8889
13.7473
13.6138
13.477
14.7777
14.6206
14.4714
14.3196
14.1754
14.0284
13.8891
13.7472
13.6133
13.4774
14.7778
14.6206
14.4733
14.3232
14.1845
14.0444
13.9183
13.7906
13.6814
13.571
14.7761
14.6493
14.5641
14.5033
14.511
14.5511
14.6387
14.8129
15.0535
15.389
15.2108
16.5946
18.2869
20.6655
23.6111
27.5592
32.2871
38.3949
45.5841
54.8087
105.818
146.634
198.32
265.787
350.062
456.088
585.801
743.759
932.016
1154.15
4102.45
15196.5
19565.8
22439.3
21111.1
18029.1
15096.7
12806
11303.8
10382.9
9877.28
9697.07
9522.07
9255.06
8850.34
8352.98
7799.28
7212.84
6646.28
6127.54
5650.15
5222.84
4838.16
4487.01
4167.6
3878.13
3615.67
3378.28
3162.68
2967.03
2788.85
2626.13
2477.19
2340.49
2214.87
2099.19
1992.53
1893.99
1802.8
1718.26
1639.78
1566.79
1498.79
1435.34
1376.05
1320.53
1268.47
1219.57
1173.57
1130.21
1089.28
1050.57
1013.9
979.123
946.083
914.635
884.676
856.073
828.758
802.609
777.593
753.59
730.598
708.492
687.301
666.885
647.31
628.409
610.293
592.755
575.962
559.653
544.069
528.872
514.398
500.209
486.758
473.486
460.989
448.552
436.953
425.28
414.535
403.555
393.628
383.267
374.127
364.306
355.931
346.562
338.942
329.932
323.072
314.316
308.242
299.623
294.376
285.768
281.38
271.037
113.184
337.606
517.74
922.395
1125.61
1151.22
1123.54
1059.79
1052.95
1091.9
1196.43
1408.47
1695.31
2026.99
2378.13
2691.77
2970.77
3203.48
3358.04
3434.21
3426.39
3387.73
3302.24
3184.48
3056.46
2925.24
2794.54
2667.86
2544.25
2426.81
2314.58
2207.44
2105.94
2009.91
1919.46
1834.28
1754.26
1678.9
1607.96
1541.19
1478.3
1419.01
1363.11
1310.34
1260.53
1213.42
1168.85
1126.62
1086.57
1048.52
1012.33
977.851
944.963
913.549
883.513
854.744
827.171
800.696
775.279
750.826
727.324
704.678
682.902
661.892
641.69
622.175
603.422
585.28
567.867
550.99
534.82
519.109
504.093
489.456
475.514
461.862
448.922
436.172
424.166
412.241
401.117
389.946
379.659
369.174
359.688
349.816
341.1
331.761
323.792
314.904
307.669
299.14
292.642
284.371
278.629
270.505
265.554
257.454
253.328
243.617
16.4283
19.8653
22.8808
29.0885
34.7892
38.7591
41.7272
43.8081
46.7337
50.7397
58.7709
70.966
95.5386
130.145
189.503
267.271
373.717
508.658
665.768
835.886
1004.14
1161.95
1301.89
1418.93
1510.1
1573.68
1612.21
1629.48
1626.75
1615.79
1592.52
1561.9
1527.18
1489.7
1451.04
1411.23
1371.4
1331.1
1291.27
1252.11
1213.66
1176.07
1139.49
1103.98
1069.63
1036.35
1004.24
973.19
943.198
914.229
886.236
859.161
832.969
807.612
783.073
759.292
736.265
713.935
692.313
671.343
651.05
631.371
612.347
593.899
576.09
558.823
542.186
526.046
510.531
495.461
481.014
466.952
453.515
440.396
427.912
415.667
404.078
392.636
381.881
371.174
361.208
351.172
341.959
332.534
324.04
315.159
307.357
298.951
291.82
283.816
277.345
269.661
263.851
256.398
251.261
243.943
239.507
232.217
228.511
219.775
13.4532
13.4606
13.5464
13.8024
14.3322
15.0065
15.7133
16.3389
16.924
17.3464
17.9016
18.3659
19.3122
20.4874
22.7518
26.2287
31.7629
40.7335
54.7218
76.0294
106.221
146.69
198.299
260.125
329.896
405.118
481.03
555.27
622.844
684.629
737.623
781.234
815.41
840.55
858.386
869.244
874.735
874.195
871.544
865.665
856.992
846.354
834.295
820.91
806.65
791.571
776.016
759.867
743.464
726.905
710.203
693.423
676.645
659.911
643.31
626.828
610.565
594.498
578.723
563.199
548.023
533.147
518.647
504.474
490.713
477.291
464.306
451.641
439.43
427.506
416.059
404.852
394.143
383.617
373.615
363.73
354.396
345.092
336.381
327.617
319.506
311.237
303.702
295.883
288.905
281.488
275.049
267.983
262.079
255.313
249.935
243.404
238.554
232.191
227.879
221.614
217.864
211.617
208.449
200.956
13.3297
13.1591
13.0625
13.1166
13.3046
13.7164
14.2805
14.9086
15.4464
15.8843
16.2107
16.4463
16.6242
16.7655
16.9124
17.0822
17.342
17.713
18.3263
19.2891
20.8274
23.217
26.726
32.067
39.6724
50.5129
64.9405
83.6591
106.563
133.778
164.588
198.037
233.221
268.553
303.459
336.27
367.126
394.96
419.606
440.771
458.523
472.848
484.187
492.593
498.562
502.241
504.146
503.902
502.796
500.345
496.617
491.937
486.485
480.345
473.675
466.541
459.113
451.367
443.495
435.425
427.366
419.205
411.091
403.006
395.04
387.135
379.373
371.665
364.138
356.657
349.406
342.168
335.217
328.226
321.588
314.848
308.52
302.035
296.02
289.771
284.06
278.025
272.619
266.783
261.686
256.03
251.249
245.752
241.285
235.915
231.783
226.523
222.746
217.566
214.163
209.026
206.019
200.886
198.291
192.111
13.3249
13.1544
13.0316
13.0863
13.2951
13.7724
14.4936
15.4836
16.5024
17.6049
18.6011
19.5295
20.2657
20.8753
21.2958
21.5981
21.7644
21.8403
21.828
21.7867
21.6987
21.6027
21.5337
21.5595
21.666
21.9245
22.4594
23.369
24.8368
27.0408
30.2828
34.7559
40.812
48.4922
57.9656
69.2483
82.3326
96.9652
112.942
129.811
147.259
164.779
182.062
198.69
214.464
229.092
242.586
254.711
265.582
275.205
283.624
290.917
297.152
302.443
306.849
310.461
313.391
315.629
317.336
318.398
319.128
319.139
318.934
318.412
317.376
315.992
314.302
312.323
310.13
307.683
305.093
302.257
299.373
296.201
293.142
289.702
286.501
282.863
279.564
275.777
272.427
268.523
265.169
261.178
257.859
253.8
250.551
246.442
243.301
239.162
236.168
232.012
229.202
225.037
222.442
218.27
215.912
211.735
209.635
204.596
13.4662
13.3602
13.4095
13.6558
14.3029
15.6883
18.0197
21.4335
25.3971
29.7176
33.6274
37.0827
39.611
41.5481
42.6091
43.3014
43.3424
43.2151
42.9042
42.3853
41.7994
41.1502
40.5287
39.9043
39.3563
38.8674
38.4948
38.2189
38.1158
38.1722
38.3522
38.7509
39.3607
40.3184
41.5898
43.3414
45.5819
48.5156
52.202
56.8416
62.5087
69.3449
77.4041
86.708
97.2592
108.937
121.643
135.213
149.381
164.027
178.774
193.545
207.978
222.027
235.404
248.11
259.953
270.988
281.099
290.345
298.692
306.173
312.769
318.578
323.561
327.804
331.305
334.119
336.248
337.858
338.827
339.347
339.268
338.928
338.261
336.956
335.764
333.813
332.161
329.706
327.694
324.837
322.58
319.412
316.991
313.571
311.04
307.415
304.836
301.063
298.51
294.645
292.188
288.284
285.974
282.071
279.937
276.065
274.15
269.568
15.9176
16.8571
18.5437
21.9434
28.3844
39.4951
55.4221
74.9967
95.4477
114.315
129.294
140.125
146.528
150.114
150.697
150.27
149.198
147.622
146.233
145.059
144.562
144.727
145.347
146.725
148.989
152.248
156.11
161.201
166.963
173.927
181.722
190.714
200.594
211.692
223.631
236.824
250.747
265.855
281.598
298.324
315.508
333.293
351.312
369.435
387.572
405.362
422.832
439.735
455.967
471.606
486.44
500.66
514.093
526.847
538.775
549.982
560.26
569.784
578.316
585.998
592.692
598.44
603.231
607.025
609.903
611.807
612.979
612.963
612.544
611.518
609.623
607.157
604.245
600.721
597.144
592.801
588.778
583.842
579.482
574.148
569.584
563.995
559.395
553.682
549.145
543.369
538.92
533.094
528.769
522.942
518.827
513.055
509.238
503.594
500.141
494.677
491.633
486.371
483.823
477.895
68.0313
90.456
126.189
184.911
271.882
385.044
511.401
635.783
744.903
831.838
892.818
932.684
953.139
963.231
964.453
963.264
960.52
957.335
956.738
957.615
960.447
966.386
975.363
986.486
1000.25
1016.54
1034.84
1055.39
1077.46
1101.34
1126.5
1152.63
1179.41
1206.5
1233.59
1260.46
1286.62
1312
1336.2
1359.19
1380.81
1401.06
1419.87
1437.07
1452.93
1467.02
1479.9
1491.14
1501.14
1509.8
1517.25
1523.45
1528.48
1532.08
1534.56
1535.51
1535.15
1533.94
1531.36
1527.41
1522.58
1516.42
1509.72
1501.6
1493.11
1483.49
1473.25
1462.42
1451.18
1439.29
1427.23
1414.42
1401.83
1388.38
1375.6
1361.91
1349.15
1335.45
1322.87
1309.3
1297.12
1283.85
1272.31
1259.54
1248.75
1236.52
1226.44
1214.66
1205.24
1193.87
1185.22
1174.25
1166.46
1155.94
1149.1
1139.1
1133.27
1123.77
1119.12
1108.73
1464.84
1897.25
2398.9
2961.62
3562.78
4171.48
4745.84
5251.22
5655.15
5951.01
6132.74
6219.39
6206.76
6159.92
6061.18
5928.11
5777.96
5619.73
5459.52
5302.03
5149.75
5004.56
4867.69
4739.61
4620.64
4510.52
4409.19
4316.38
4231.48
4154.18
4083.88
4020.3
3962.95
3911.52
3865.57
3824.88
3788.96
3757.68
3730.49
3707.14
3687.06
3670.04
3655.66
3643.62
3633.61
3625.09
3618.32
3612.58
3608.22
3604.62
3602
3600.03
3598.97
3598.19
3598.21
3598.43
3598.93
3599.8
3600.93
3602.21
3603.79
3605.12
3606.76
3607.92
3609.13
3609.93
3610.41
3610.35
3610
3609.09
3607.79
3605.17
3602.6
3598.44
3594.62
3589.01
3583.91
3576.81
3570.42
3561.94
3554.47
3544.77
3536.45
3525.68
3516.62
3504.85
3495.13
3482.39
3472.13
3458.41
3447.89
3433.32
3422.96
3407.61
3397.76
3381.59
3372.44
3355.37
3346.66
3324.75
1109.62
1064.85
1122.17
1209.96
1238.64
1120.94
818.291
1979.5
54683
16164.2
7364.76
6109.31
6233.32
6483.33
6553.89
8027.23
74296.4
43689
24863.2
18474.3
16102.3
14999.7
14626.6
19669.5
76423.8
71043
54266.5
41203.7
32688.7
27156.5
24542.2
34058.7
69738.7
75705.5
67743.6
55643.5
44560.2
35836.9
30858.5
42693.2
57770.6
71174.6
67940
59034.2
48370.8
38728.9
32779.3
45215.3
47501.2
61837.3
62490.5
56611.6
47165.8
38178.3
32454.1
44241.7
39101.4
51827.7
53592.7
49844.8
42401.9
34683.2
29600.4
39777.9
32632
42994.7
44927.4
42140
36309.5
30050.5
25831.1
34062.8
27606
35626.5
37263.3
35121.7
30550.1
25564.5
22233.1
29396.2
23485.4
29586.6
30828
29127.2
25537.1
21639.1
19165.6
26034.9
20103
24694.9
25575.8
24186.5
21343.1
18301.1
16498.7
22991.4
17366.2
20780.7
21368.7
20210
17938.8
15555
14264.2
20363.2
15135.3
17656.1
18021.4
17040.4
15210.8
13329.1
12423.6
18148.7
13287.6
15147.4
15352.8
14515.6
13028.2
11532.6
10919.5
16312.4
11728.9
13108
13204.6
12487.2
11268.9
10073.8
9685.32
14787.9
10407.3
11438.4
11462.2
10845.1
9839.73
8880.52
8666.16
13517.1
9269.72
10052.5
10032.8
9499.52
8665.6
7894.27
7816.88
12449.6
8287.98
8891.31
8847.25
8385.03
7690.34
7070.43
7101.03
11543.9
7444.58
7913.29
7855.01
7453.72
6872.53
6375.43
6490.25
10767.8
6717.32
7084.57
7018.44
6669.18
6180.81
5783.56
5965.72
10095.2
6090.34
6379
6308.8
6003.68
5591.49
5275.74
5511.91
9506.82
5547.59
5774.99
5703.26
5435.73
5086.49
4837.64
5117.23
8989.39
5073.53
5253.82
5182.72
4947.62
4651.02
4457.67
4772.52
8532.85
4657.31
4801.26
4732.27
4525.35
4273.17
4126.29
4470.02
8128.38
4290.25
4406.04
4340.15
4157.84
3943.45
3835.8
4203.36
7768.72
3965.06
4058.9
3996.77
3836.12
3654.11
3579.83
3967.25
7447.8
3676.16
3752.63
3694.56
3552.99
3398.91
3353.23
3757.32
7160.59
3418.3
3481.04
3427.19
3302.52
3172.68
3151.65
3569.89
6902.88
3187.47
3239.21
3189.55
3079.87
2971.17
2971.59
3401.83
6670.91
2979.93
3022.87
2977.35
2881.06
2790.95
2809.7
3250.71
6461.35
2792.66
2828.54
2787.04
2702.71
2628.97
2663.73
3114.14
6271.4
2623.07
2653.29
2615.66
2542.09
2482.83
2531.69
2990.27
6098.61
2468.96
2494.66
2460.75
2396.91
2350.5
2411.84
2877.51
5940.86
2328.53
2350.64
2320.28
2265.23
2230.3
2302.73
2774.57
5796.3
2200.24
2219.5
2192.55
2145.45
2120.8
2203.13
2680.34
5663.41
2082.8
2099.81
2076.08
2036.21
2020.79
2111.98
2593.91
5540.98
1975.02
1990.29
1969.64
1936.33
1929.24
2028.4
2514.5
5428
1875.93
1889.86
1872.11
1844.81
1845.26
1951.59
2441.42
5323.68
1784.61
1797.55
1782.57
1760.76
1767.95
1880.93
2374.08
5227.31
1700.29
1712.53
1700.16
1683.39
1696.7
1815.76
2311.96
5138.28
1622.28
1634.02
1624.13
1612
1630.9
1755.53
2254.55
5055.98
1549.94
1561.39
1553.85
1545.99
1570.02
1699.76
2201.44
4979.91
1482.75
1494.05
1488.72
1484.81
1513.56
1648.02
2152.21
4909.54
1420.21
1431.48
1428.26
1428.01
1461.11
1599.91
2106.51
4844.39
1361.88
1373.23
1372.01
1375.11
1412.29
1555.12
2064.03
4784
1307.4
1318.9
1319.58
1325.78
1366.77
1513.33
2024.46
4727.89
1256.4
1268.12
1270.6
1279.72
1324.23
1474.27
1987.55
4675.69
1208.58
1220.57
1224.77
1236.62
1284.41
1437.71
1953.06
4627.01
1163.66
1175.98
1181.81
1196.23
1247.09
1403.43
1920.8
4581.59
1121.39
1134.08
1141.48
1158.31
1212.03
1371.24
1890.58
4539.12
1081.55
1094.65
1103.54
1122.64
1179.06
1340.97
1862.24
4499.37
1043.93
1057.48
1067.81
1089.05
1147.98
1312.45
1835.62
4462.1
1008.36
1022.38
1034.08
1057.34
1118.66
1285.55
1810.58
4427.08
974.663
989.18
1002.21
1027.39
1090.95
1260.13
1786.99
4394.17
942.691
957.725
972.035
999.021
1064.71
1236.08
1764.73
4363.1
912.32
927.889
943.432
972.139
1039.84
1213.28
1743.7
4333.81
883.406
899.526
916.261
946.606
1016.21
1191.63
1723.78
4305.99
855.87
872.554
890.44
922.348
993.762
1171.08
1704.92
4279.69
829.58
846.839
865.842
899.245
972.383
1151.51
1687.02
4254.65
804.491
822.335
842.422
877.255
952.035
1132.89
1670.04
4230.94
780.477
798.911
820.053
856.26
932.617
1115.15
1653.93
4208.38
757.525
776.556
798.722
836.25
914.114
1098.26
1638.65
4187.08
735.504
755.132
778.297
817.102
896.423
1082.15
1624.17
4166.86
714.436
734.662
758.799
798.833
879.552
1066.79
1610.43
4147.88
694.171
714.992
740.077
781.303
863.383
1052.13
1597.42
4129.88
674.772
696.184
722.19
764.567
847.951
1038.15
1585.1
4113.1
656.06
678.054
704.955
748.447
833.101
1024.75
1573.39
4097.09
638.148
660.714
688.484
733.054
818.933
1011.98
1562.31
4082.28
620.812
643.931
672.539
718.147
805.214
999.649
1551.68
4067.87
604.229
627.891
657.313
703.927
792.146
987.931
1541.68
4054.69
588.115
612.292
642.487
690.061
779.387
976.491
1531.94
4041.5
572.729
597.412
628.363
676.872
767.277
965.674
1522.83
4029.64
557.704
582.855
614.512
663.897
755.324
954.966
1513.78
4017.3
543.405
569.018
601.37
651.621
744.057
944.936
1505.44
4006.53
529.355
555.381
588.366
639.41
732.779
934.821
1496.91
3994.69
516.05
542.492
576.112
627.954
722.267
925.489
1489.25
3984.79
502.878
529.679
563.859
616.407
711.558
915.839
1481.08
3973.24
490.498
517.67
552.427
605.711
701.744
907.15
1474
3964.1
478.125
505.6
540.845
594.751
691.529
897.894
1466.11
3952.66
466.613
494.417
530.189
584.777
682.385
889.836
1459.66
3944.25
454.965
483.021
519.216
574.351
672.622
880.936
1452
3932.92
444.281
472.629
509.306
565.081
664.153
873.546
1446.23
3925.4
433.293
461.845
498.884
555.136
654.793
864.969
1438.77
3914.23
423.404
452.214
489.695
546.55
646.984
858.238
1433.73
3907.67
413.004
441.975
479.763
537.032
637.979
849.934
1426.46
3896.68
403.88
433.076
471.27
529.11
630.823
843.882
1422.17
3891.02
393.99
423.307
461.757
519.955
622.12
835.815
1415.06
3880.32
385.611
415.121
453.937
512.67
615.583
830.395
1411.44
3875.21
376.145
405.74
444.77
503.812
607.128
822.527
1404.51
3864.87
368.502
398.257
437.61
497.141
601.165
817.653
1401.3
3860.05
359.368
389.177
428.708
488.514
592.91
809.972
1394.7
3850.06
352.47
382.405
422.21
482.446
587.486
805.567
1391.75
3845.4
343.568
373.532
413.49
473.982
579.392
798.069
1385.49
3835.65
337.44
367.495
407.674
468.525
574.487
794.066
1382.73
3831.04
328.659
358.727
399.048
460.157
566.516
786.757
1376.76
3821.57
323.342
353.463
393.942
455.323
562.116
783.089
1374.11
3816.9
314.56
344.69
385.318
446.983
554.237
775.997
1368.47
3807.97
310.083
340.219
380.931
442.761
550.292
772.549
1365.86
3803.5
299.497
329.606
370.453
432.579
540.628
763.821
1358.65
3793.35
)
;

boundaryField
{
    frontAndBack
    {
        type            empty;
    }
    inlet
    {
        type            fixedValue;
        value           uniform 14.855;
    }
    outlet
    {
        type            zeroGradient;
    }
    walls
    {
        lowReCorrection 0;
        blending        stepwise;
        n               2;
        type            epsilonWallFunction;
        value           nonuniform List<scalar> 
228
(
112.724
141.424
210.097
257.591
369.051
443.457
614.739
724.909
971.32
1128.62
1109.62
1064.85
1122.17
1209.96
1238.64
1120.94
818.291
1979.5
1979.5
8027.23
19669.5
34058.7
42693.2
45215.3
44241.7
39777.9
34062.8
29396.2
26034.9
22991.4
20363.2
18148.7
16312.4
14787.9
13517.1
12449.6
11543.9
10767.8
10095.2
9506.82
8989.39
8532.85
8128.38
7768.72
7447.8
7160.59
6902.88
6670.91
6461.35
6271.4
6098.61
5940.86
5796.3
5663.41
5540.98
5428
5323.68
5227.31
5138.28
5055.98
4979.91
4909.54
4844.39
4784
4727.89
4675.69
4627.01
4581.59
4539.12
4499.37
4462.1
4427.08
4394.17
4363.1
4333.81
4305.99
4279.69
4254.65
4230.94
4208.38
4187.08
4166.86
4147.88
4129.88
4113.1
4097.09
4082.28
4067.87
4054.69
4041.5
4029.64
4017.3
4006.53
3994.69
3984.79
3973.24
3964.1
3952.66
3944.25
3932.92
3925.4
3914.23
3907.67
3896.68
3891.02
3880.32
3875.21
3864.87
3860.05
3850.06
3845.4
3835.65
3831.04
3821.57
3816.9
3807.97
3803.5
3793.35
105.818
146.634
198.32
265.787
350.062
456.088
585.801
743.759
932.016
1154.15
1464.84
1897.25
2398.9
2961.62
3562.78
4171.48
4745.84
5251.22
5655.15
5951.01
6132.74
6219.39
6206.76
6159.92
6061.18
5928.11
5777.96
5619.73
5459.52
5302.03
5149.75
5004.56
4867.69
4739.61
4620.64
4510.52
4409.19
4316.38
4231.48
4154.18
4083.88
4020.3
3962.95
3911.52
3865.57
3824.88
3788.96
3757.68
3730.49
3707.14
3687.06
3670.04
3655.66
3643.62
3633.61
3625.09
3618.32
3612.58
3608.22
3604.62
3602
3600.03
3598.97
3598.19
3598.21
3598.43
3598.93
3599.8
3600.93
3602.21
3603.79
3605.12
3606.76
3607.92
3609.13
3609.93
3610.41
3610.35
3610
3609.09
3607.79
3605.17
3602.6
3598.44
3594.62
3589.01
3583.91
3576.81
3570.42
3561.94
3554.47
3544.77
3536.45
3525.68
3516.62
3504.85
3495.13
3482.39
3472.13
3458.41
3447.89
3433.32
3422.96
3407.61
3397.76
3381.59
3372.44
3355.37
3346.66
3324.75
)
;
    }
}


// ************************************************************************* //
