/*--------------------------------*- C++ -*----------------------------------*\
| =========                 |                                                 |
| \\      /  F ield         | OpenFOAM: The Open Source CFD Toolbox           |
|  \\    /   O peration     | Version:  v2012                                 |
|   \\  /    A nd           | Website:  www.openfoam.com                      |
|    \\/     M anipulation  |                                                 |
\*---------------------------------------------------------------------------*/
FoamFile
{
    version     2.0;
    format      ascii;
    class       volScalarField;
    location    "0.088";
    object      nut.air;
}
// * * * * * * * * * * * * * * * * * * * * * * * * * * * * * * * * * * * * * //

dimensions      [0 2 -1 0 0 0 0];


internalField   nonuniform List<scalar> 
5600
(
2.45136e-05
3.47345e-05
4.04096e-05
4.24627e-05
4.22717e-05
4.09703e-05
3.9209e-05
3.75395e-05
3.61125e-05
3.49472e-05
3.40602e-05
3.34386e-05
3.30354e-05
3.28063e-05
3.26943e-05
3.26614e-05
3.26693e-05
3.27001e-05
3.2735e-05
3.27686e-05
3.27988e-05
3.28234e-05
3.28483e-05
3.28778e-05
3.2911e-05
3.29444e-05
3.29786e-05
3.30137e-05
3.30476e-05
3.30795e-05
3.31086e-05
3.31338e-05
3.31549e-05
3.31708e-05
3.31816e-05
3.31881e-05
3.31922e-05
3.31951e-05
3.31977e-05
3.32001e-05
3.32023e-05
3.32026e-05
3.32018e-05
3.31961e-05
3.31924e-05
3.3182e-05
3.31802e-05
3.31657e-05
3.31713e-05
3.31515e-05
3.31697e-05
3.31394e-05
3.3176e-05
3.31288e-05
3.31896e-05
3.3119e-05
3.32094e-05
3.31041e-05
3.32349e-05
3.3081e-05
3.32638e-05
3.30591e-05
3.32755e-05
3.30728e-05
3.32263e-05
3.31678e-05
3.30856e-05
3.33404e-05
3.29171e-05
3.34622e-05
3.28954e-05
3.33512e-05
3.31479e-05
3.29801e-05
3.35762e-05
3.25943e-05
3.38511e-05
3.25113e-05
3.37369e-05
3.28076e-05
3.3281e-05
3.3337e-05
3.27254e-05
3.38307e-05
3.23928e-05
3.39021e-05
3.26997e-05
3.31131e-05
3.39057e-05
3.16671e-05
3.53137e-05
3.08504e-05
3.54504e-05
3.13882e-05
3.42694e-05
3.24047e-05
3.37505e-05
3.08189e-05
4.04191e-05
1.17027e-05
0.000151652
0.000137421
0.000112237
9.86239e-05
9.39148e-05
9.49375e-05
0.000102091
0.000110137
0.000116487
0.000124307
0.00013272
0.000141247
0.000149472
0.000157253
0.000164416
0.000170957
0.000176793
0.000182073
0.000186772
0.000191064
0.000194978
0.000198626
0.000202085
0.000205372
0.000208474
0.000211353
0.000214039
0.000216553
0.000218835
0.000220898
0.000222752
0.000224415
0.000225907
0.000227251
0.000228425
0.000229448
0.00023036
0.00023119
0.000231981
0.000232749
0.000233504
0.000234213
0.000234889
0.000235427
0.000235954
0.000236232
0.000236637
0.000236599
0.000237009
0.000236632
0.000237237
0.000236477
0.000237457
0.000236209
0.000237762
0.000235895
0.000238205
0.000235455
0.000238804
0.000234862
0.000239412
0.000234485
0.00023937
0.000235279
0.000237589
0.00023817
0.000233798
0.000242258
0.000230444
0.000243822
0.0002317
0.000239219
0.000239358
0.000229671
0.000248928
0.000222406
0.000252602
0.000223278
0.000247089
0.000232308
0.000235202
0.000245029
0.000223227
0.000254513
0.000218595
0.000251626
0.00023084
0.000228527
0.000261644
0.00019714
0.000286549
0.000187025
0.000276429
0.00021117
0.000235118
0.000257549
0.000189728
0.000293503
0.000181722
0.00028314
0.000156514
0.000151573
0.000143027
0.000135171
0.000125248
0.000120743
0.00011374
0.000109733
0.000108698
0.000109825
0.000112647
0.000117449
0.000123698
0.00013136
0.00014023
0.000150399
0.000161458
0.000173819
0.000187089
0.000201744
0.000216995
0.000232874
0.000246066
0.000258427
0.000270035
0.00028108
0.00029052
0.000298424
0.000305434
0.000311753
0.000317534
0.000322993
0.000328171
0.000333033
0.000337532
0.000341631
0.000345373
0.000348808
0.000352064
0.000355213
0.000358389
0.000361444
0.000364499
0.000367094
0.00036967
0.000371304
0.000373296
0.000373719
0.000375434
0.000374595
0.000376576
0.000374459
0.000377295
0.000373803
0.000378061
0.000372844
0.000379173
0.00037154
0.000380659
0.000370115
0.000381762
0.000369963
0.000380329
0.000373683
0.00037402
0.000382339
0.000364259
0.000391207
0.00035903
0.000390128
0.000367856
0.000373746
0.000389411
0.000351181
0.000408265
0.00034003
0.000408449
0.000350048
0.000388937
0.00037574
0.000359755
0.000404562
0.000334889
0.000420118
0.000333193
0.000400776
0.000374689
0.000339439
0.000443927
0.000275377
0.000477406
0.000275596
0.000429705
0.0003583
0.000321287
0.000481986
0.000211894
0.0005452
0.000220817
0.00042055
0.000157813
0.000154007
0.000150078
0.000146775
0.000142685
0.000139243
0.000135551
0.000131522
0.000128163
0.000124957
0.00012294
0.000120008
0.000117385
0.000115767
0.000115439
0.000116844
0.000119727
0.000124708
0.000131235
0.000139843
0.000150083
0.000162421
0.000176223
0.000191286
0.000207029
0.000223525
0.000238762
0.000252845
0.000266564
0.000279859
0.000292746
0.000305189
0.000317426
0.000329368
0.000340833
0.000351659
0.000361759
0.00037127
0.000380387
0.00038939
0.000398439
0.000407206
0.000416062
0.000423189
0.000429703
0.000434087
0.000439162
0.000440725
0.000444858
0.000443487
0.000447805
0.000443629
0.000449392
0.000442365
0.000450825
0.000440322
0.000452899
0.000437654
0.000455546
0.00043526
0.000456711
0.00043643
0.000451886
0.000445871
0.000437826
0.000463326
0.000420298
0.000476473
0.000416402
0.000466821
0.000440149
0.000431553
0.000480919
0.000393831
0.000506637
0.000382651
0.000495426
0.000409541
0.000454646
0.000460131
0.000402968
0.000507893
0.000365123
0.000524119
0.000374595
0.000473797
0.000462636
0.000359241
0.000575204
0.000256937
0.000605103
0.000283068
0.000503408
0.000444766
0.000315423
0.000639836
0.000161364
0.000642301
0.000256011
0.000411409
0.000158111
0.00015462
0.000151626
0.00014909
0.000146721
0.000144516
0.000142436
0.000140411
0.000138392
0.000136552
0.000134632
0.000132984
0.00013087
0.000129248
0.000126998
0.000125797
0.000123863
0.000122107
0.000120667
0.000120084
0.000120446
0.00012222
0.000125365
0.000130315
0.000136778
0.000144946
0.000154666
0.000166027
0.000178571
0.000192347
0.000206741
0.000222155
0.000234985
0.000247924
0.000261026
0.000273984
0.000286567
0.000298622
0.000310546
0.00032252
0.000335174
0.000348041
0.000361732
0.000374205
0.000387054
0.000395917
0.000406128
0.000409486
0.00041749
0.000415242
0.000423027
0.000415851
0.000425595
0.000413724
0.000427647
0.000410126
0.000430891
0.000405739
0.000434837
0.000402592
0.000435508
0.000406394
0.000425325
0.000424004
0.000401077
0.000452082
0.00037573
0.000467882
0.000377446
0.000443728
0.000422337
0.000384009
0.000485546
0.000332648
0.000515024
0.000331324
0.000484908
0.000381857
0.000415822
0.000457111
0.000339725
0.000523503
0.000293929
0.000532411
0.000330216
0.000435111
0.000471577
0.000269426
0.000625874
0.000165914
0.000635187
0.000234923
0.000465466
0.000449895
0.000218469
0.000677022
8.90538e-05
0.000612044
0.000267775
0.000340682
0.000158181
0.000154795
0.000152026
0.000149707
0.00014768
0.000145897
0.000144247
0.000142779
0.000141326
0.000140059
0.000138731
0.000137591
0.000136374
0.000135325
0.000134139
0.000133172
0.000132065
0.000131002
0.00012985
0.000128767
0.000127627
0.000126702
0.000125843
0.000125019
0.000124322
0.000124146
0.000124386
0.000125639
0.000127819
0.000131237
0.000135709
0.00014149
0.000148477
0.000156703
0.000166393
0.000177101
0.000188837
0.00020048
0.000212824
0.000225405
0.000239826
0.000251542
0.000264752
0.000276758
0.000290667
0.000299872
0.000312241
0.000315425
0.000325843
0.000322135
0.000332458
0.000322315
0.000335205
0.000318799
0.0003375
0.000313293
0.000341262
0.000307297
0.000345358
0.000304584
0.000343189
0.000313368
0.000325327
0.000340502
0.000291937
0.000375073
0.000265802
0.000383518
0.00028181
0.000338444
0.000348932
0.000262097
0.000419704
0.000214642
0.000433686
0.000232541
0.00038109
0.000303208
0.000297265
0.000392048
0.000214389
0.000460177
0.000178209
0.000446512
0.000243932
0.000313987
0.000414025
0.000144517
0.000554026
7.0022e-05
0.000530499
0.00016565
0.000357127
0.00037081
0.000131615
0.00054799
6.29778e-05
0.000461769
0.000236702
0.00030507
0.0001582
0.000154852
0.000152145
0.000149894
0.000147962
0.000146284
0.000144779
0.000143442
0.000142197
0.000141076
0.000140007
0.000139023
0.000138083
0.000137206
0.000136342
0.000135556
0.000134754
0.000134032
0.000133276
0.00013261
0.000131882
0.000131251
0.000130574
0.000129963
0.000129279
0.000128727
0.000128041
0.000127541
0.000127019
0.000126762
0.000126475
0.000126283
0.000126312
0.000126577
0.000127489
0.000128965
0.000131501
0.00013424
0.000137915
0.00014169
0.000147059
0.000153023
0.000162101
0.000170851
0.000183189
0.000191579
0.000204033
0.000207924
0.000218674
0.000216125
0.000226117
0.000217001
0.000228944
0.00021304
0.000230546
0.00020643
0.000232946
0.000200041
0.000234231
0.000199672
0.000227204
0.000213661
0.000204667
0.000242713
0.00017196
0.000267317
0.000157267
0.000258267
0.000191851
0.000207167
0.00025551
0.000143632
0.000290123
0.000122408
0.000278014
0.00015858
0.000242101
0.000213802
0.000188701
0.00027212
0.00011165
0.00032148
7.67575e-05
0.000309212
0.000159102
0.00020728
0.000273657
6.95648e-05
0.000322521
2.05723e-05
0.000320984
0.0001094
0.000274945
0.000227324
0.00010139
0.000313491
8.37791e-05
0.000239065
0.000232717
0.000249342
0.000158207
0.000154873
0.000152188
0.000149959
0.000148059
0.000146411
0.000144954
0.000143655
0.000142475
0.000141402
0.000140411
0.000139493
0.000138636
0.000137835
0.000137071
0.000136361
0.000135669
0.000135029
0.000134393
0.000133811
0.000133223
0.00013268
0.000132138
0.000131632
0.000131124
0.00013066
0.000130175
0.000129735
0.00012929
0.000128904
0.000128495
0.000128146
0.000127753
0.000127413
0.000127082
0.000126844
0.00012673
0.000126668
0.000126702
0.000126526
0.000126596
0.000126525
0.000127487
0.000128312
0.000130902
0.000132322
0.000135742
0.000136221
0.000139304
0.000137725
0.000140427
0.000136482
0.000139966
0.000133276
0.000139399
0.000129051
0.000139418
0.000125535
0.000138762
0.000126107
0.000133986
0.000133889
0.000121971
0.000145935
0.000106561
0.000152628
0.000105607
0.000145716
0.000127592
0.000123378
0.000148404
0.000101383
0.000151614
0.00010836
0.000145856
0.000120825
0.000145717
0.000123915
0.000138692
0.000143171
9.06305e-05
0.000171036
5.60664e-05
0.000175267
0.000108511
0.00014199
0.000149753
8.96639e-05
0.000153424
9.19874e-05
0.000151002
0.00013254
0.000145527
0.000160596
9.3575e-05
0.000172185
0.000159492
7.0198e-05
0.000258477
9.0232e-05
0.00015821
0.000154882
0.000152205
0.000149984
0.000148097
0.00014646
0.00014502
0.000143735
0.000142576
0.000141521
0.000140554
0.000139661
0.000138831
0.000138057
0.000137329
0.000136646
0.000135997
0.000135386
0.0001348
0.000134246
0.000133711
0.000133201
0.000132711
0.000132242
0.000131786
0.000131348
0.00013092
0.000130512
0.000130115
0.00012974
0.000129364
0.000129008
0.000128648
0.00012831
0.000127987
0.000127687
0.000127416
0.000127139
0.000126888
0.000126578
0.000126345
0.000126033
0.000125963
0.00012576
0.000125949
0.000125781
0.000126049
0.000125691
0.00012579
0.000125171
0.000125088
0.000124275
0.00012439
0.000123243
0.000124168
0.000122161
0.000124457
0.000121324
0.000124569
0.000121652
0.000123255
0.000124047
0.00011978
0.000127638
0.000115936
0.000129444
0.0001164
0.000126609
0.000122052
0.000121011
0.000125713
0.000120341
0.000122731
0.000125477
0.000120152
0.00012248
0.000128124
0.000112762
0.000134263
0.000118051
0.000118427
0.000132452
0.000107696
0.000127665
0.000130134
0.000106478
0.000139775
0.000112062
0.000118259
0.000150511
8.87432e-05
0.00017924
6.74327e-05
0.000179492
7.2172e-05
0.00013631
0.000162938
3.57211e-05
0.000226306
4.52822e-05
0.000158211
0.000154886
0.000152212
0.000149996
0.000148112
0.000146482
0.000145047
0.000143768
0.000142616
0.00014157
0.000140611
0.000139726
0.000138906
0.000138142
0.000137426
0.000136754
0.000136119
0.000135519
0.00013495
0.000134408
0.00013389
0.000133395
0.000132922
0.00013247
0.000132033
0.00013161
0.000131201
0.00013081
0.000130434
0.000130073
0.000129717
0.000129366
0.000129023
0.000128694
0.000128386
0.000128091
0.000127809
0.00012751
0.000127222
0.000126897
0.000126642
0.00012634
0.000126196
0.000125924
0.000125873
0.000125535
0.000125465
0.000124995
0.000124856
0.000124355
0.000124217
0.000123854
0.00012387
0.000123642
0.000124002
0.000123639
0.000124508
0.000123753
0.000124983
0.000124139
0.000124884
0.000125114
0.000123917
0.000126591
0.00012264
0.000127548
0.000122602
0.000126591
0.000124589
0.000124269
0.000126383
0.000123782
0.000125254
0.000125889
0.000123584
0.000125975
0.000125162
0.000124078
0.000125275
0.000126796
0.000121191
0.000127573
0.00012833
0.000112123
0.000150572
9.17896e-05
0.000157627
9.97338e-05
0.000130066
0.000148119
7.88921e-05
0.000210245
3.51939e-05
0.000220253
5.33956e-05
0.000149598
0.000155893
5.78267e-05
0.00025639
2.5984e-05
0.000158211
0.000154886
0.000152212
0.000149996
0.000148113
0.000146482
0.000145047
0.000143768
0.000142617
0.00014157
0.000140611
0.000139726
0.000138906
0.000138142
0.000137426
0.000136753
0.000136119
0.000135519
0.000134949
0.000134407
0.000133889
0.000133394
0.000132921
0.000132468
0.000132031
0.000131608
0.0001312
0.000130807
0.000130432
0.00013007
0.000129715
0.000129364
0.000129021
0.000128692
0.000128384
0.00012809
0.00012781
0.000127515
0.000127228
0.000126911
0.000126651
0.000126364
0.000126209
0.000125975
0.000125902
0.000125631
0.000125518
0.000125136
0.00012492
0.000124513
0.000124276
0.000124009
0.000123895
0.000123807
0.000123932
0.000123891
0.000124254
0.00012416
0.000124566
0.000124556
0.000124649
0.000125023
0.000124513
0.000125446
0.000124344
0.000125633
0.000124459
0.000125291
0.000125165
0.000124354
0.000126191
0.000123525
0.000126533
0.000123867
0.000125305
0.000126251
0.000121638
0.000131469
0.000115584
0.000136315
0.000114118
0.000130424
0.000129604
0.000107997
0.000159881
8.09816e-05
0.000180136
7.26613e-05
0.000163717
0.00010902
0.000106695
0.00019588
4.04887e-05
0.000260855
1.92324e-05
0.000229155
6.31512e-05
0.000144538
0.000154104
7.48415e-05
0.00015821
0.000154882
0.000152205
0.000149985
0.000148097
0.000146461
0.00014502
0.000143735
0.000142576
0.000141522
0.000140554
0.00013966
0.000138831
0.000138055
0.000137329
0.000136643
0.000135997
0.000135381
0.000134799
0.000134241
0.000133707
0.000133196
0.000132707
0.000132234
0.000131781
0.00013134
0.000130915
0.000130502
0.000130112
0.00012973
0.000129369
0.000129005
0.000128662
0.000128319
0.000128011
0.000127723
0.000127475
0.000127228
0.000126993
0.000126722
0.000126491
0.000126261
0.000126204
0.000126191
0.000126404
0.000126544
0.000126771
0.000126726
0.000126619
0.000126278
0.000125847
0.000125367
0.000124852
0.000124396
0.00012405
0.000123633
0.000123561
0.000123188
0.000123278
0.000123075
0.000123046
0.000123196
0.000122802
0.000123416
0.00012257
0.000123601
0.000122498
0.00012344
0.00012304
0.000122408
0.000124663
0.000120371
0.000126823
0.00011862
0.000126986
0.000120866
0.000121423
0.000130713
0.000109874
0.000142204
0.000102016
0.000140509
0.000113121
0.000119629
0.000144932
8.95457e-05
0.000180318
6.57047e-05
0.000189867
6.76447e-05
0.000154385
0.000121557
9.45309e-05
0.00020667
4.8775e-05
0.000250706
3.22729e-05
0.00023293
3.81484e-05
0.000184059
0.000158207
0.000154873
0.000152189
0.000149959
0.00014806
0.000146412
0.000144955
0.000143654
0.000142475
0.000141402
0.000140409
0.000139491
0.000138634
0.000137826
0.000137072
0.000136347
0.000135669
0.00013501
0.000134394
0.00013379
0.000133219
0.00013266
0.000132133
0.000131609
0.000131127
0.000130641
0.000130187
0.00012973
0.000129329
0.000128925
0.000128581
0.000128216
0.000127918
0.00012758
0.000127386
0.000127264
0.000127357
0.000127485
0.000127652
0.000127816
0.000128142
0.000128828
0.000130285
0.000132528
0.000135597
0.000138945
0.000142268
0.000144971
0.000146912
0.000147948
0.000148147
0.00014778
0.00014689
0.000145837
0.000144645
0.00014345
0.000142538
0.000141551
0.000141154
0.00014044
0.000140421
0.000139928
0.000140013
0.000139889
0.00013952
0.00014041
0.000138609
0.000141411
0.000137598
0.000141916
0.000137999
0.000140087
0.000141644
0.000135071
0.000147247
0.000130403
0.000148059
0.000134475
0.000138609
0.000149012
0.000124811
0.00015958
0.000120438
0.000154951
0.000130544
0.000139904
0.000151213
0.000120082
0.000177621
9.95965e-05
0.000189989
9.32023e-05
0.000174866
0.000114099
0.000146248
0.000154746
0.000115516
0.000199508
8.01106e-05
0.000233129
0.0001582
0.000154852
0.000152146
0.000149894
0.000147963
0.000146281
0.000144782
0.000143434
0.000142197
0.000141068
0.000139997
0.000139012
0.000138075
0.000137178
0.00013634
0.000135521
0.000134749
0.00013399
0.000133274
0.000132557
0.000131882
0.000131215
0.000130582
0.000129907
0.000129342
0.000128725
0.000128215
0.000127741
0.00012752
0.000127328
0.000127329
0.000127576
0.000128182
0.000129274
0.000131193
0.000134097
0.000137865
0.0001424
0.000147521
0.00015336
0.000160272
0.000168773
0.000179139
0.000190892
0.000203269
0.000215136
0.000225676
0.000234164
0.000240423
0.00024452
0.000246729
0.000247602
0.000247357
0.000246641
0.000245464
0.000244346
0.000243278
0.00024238
0.000241902
0.000241203
0.000241355
0.000240526
0.000241281
0.000240209
0.000241112
0.000240634
0.000239988
0.000242477
0.000237402
0.000245456
0.000234669
0.00024686
0.000235612
0.000242606
0.000243373
0.000232657
0.000253467
0.000225542
0.000254552
0.000230831
0.000243598
0.000244727
0.000230954
0.000255288
0.000223266
0.000260544
0.00021978
0.000258224
0.000228005
0.000239367
0.000250145
0.000211465
0.000278303
0.000192784
0.000291301
0.000195045
0.000272834
0.000221055
0.000231839
0.000261252
0.00015818
0.000154797
0.000152024
0.000149709
0.000147677
0.000145887
0.000144249
0.000142743
0.00014133
0.000140008
0.000138729
0.000137535
0.000136388
0.000135234
0.000134176
0.000133102
0.000132015
0.0001309
0.000129786
0.000128706
0.00012772
0.000126959
0.000126205
0.000125583
0.000125559
0.000126025
0.000127467
0.000129944
0.000133837
0.000138985
0.00014555
0.000153231
0.000162217
0.000172491
0.000184202
0.000197047
0.000210412
0.000224081
0.000238086
0.000250586
0.000262071
0.000274606
0.000288025
0.000301537
0.00031436
0.000325825
0.000335314
0.000342479
0.000347467
0.000350541
0.000352094
0.000352624
0.000352401
0.000351949
0.000351208
0.000350628
0.000349971
0.000349681
0.000349464
0.000349301
0.000349473
0.00034903
0.000349742
0.000348719
0.000350053
0.000348627
0.000349796
0.000349547
0.000348052
0.000352222
0.000344697
0.000355711
0.000342031
0.000356401
0.000344338
0.000350612
0.000353074
0.000340592
0.000362103
0.000334852
0.000363221
0.000338322
0.000356038
0.000347745
0.000345059
0.000360309
0.000331444
0.000373512
0.000321883
0.000375443
0.000329508
0.000358376
0.000352879
0.000332929
0.000377584
0.000312878
0.000391342
0.000308044
0.000384463
0.000327175
0.000158113
0.000154622
0.000151611
0.000149106
0.000146665
0.000144529
0.00014236
0.000140375
0.000138349
0.000136511
0.000134722
0.000132842
0.000131028
0.00012901
0.000127441
0.000125775
0.000124089
0.000122537
0.000121938
0.000122138
0.000123964
0.000127067
0.000132239
0.000138968
0.000147648
0.000157842
0.000169796
0.000183137
0.000197866
0.000213405
0.000228854
0.000241913
0.0002553
0.000268955
0.000282698
0.000296225
0.000309317
0.000321956
0.000334379
0.000347005
0.000360046
0.000373456
0.00038687
0.000399585
0.000411054
0.000420778
0.00042853
0.000434316
0.000438281
0.000440735
0.00044205
0.000442607
0.000442619
0.00044244
0.00044214
0.000441956
0.000441669
0.000441585
0.000441457
0.000441462
0.000441531
0.000441338
0.000441758
0.000441107
0.000442063
0.000440904
0.000442108
0.00044126
0.000441186
0.000442912
0.000438836
0.000445738
0.0004361
0.000447562
0.000436118
0.000445024
0.000441307
0.000437833
0.000449084
0.000431177
0.000453178
0.000430601
0.000450392
0.000435972
0.000442807
0.000445423
0.00043152
0.000457953
0.000419968
0.000465621
0.000419031
0.000458717
0.000432737
0.000439813
0.000453548
0.000418837
0.0004731
0.000405073
0.000479232
0.000408043
0.000157849
0.000153942
0.000150097
0.000146713
0.000142568
0.000139335
0.000135246
0.000131832
0.0001282
0.000126043
0.000123518
0.000120726
0.000118664
0.000117754
0.000118609
0.00012102
0.000125556
0.000131904
0.000140412
0.000150781
0.000163409
0.000177688
0.00019336
0.000209797
0.000227066
0.000242429
0.000257135
0.000271568
0.000285636
0.000299169
0.00031216
0.000324784
0.000337099
0.000349031
0.000360431
0.000371166
0.000381185
0.000390605
0.00039964
0.000408499
0.000417278
0.000426102
0.000433395
0.000439799
0.000445429
0.000450129
0.000453848
0.000456595
0.000458497
0.000459692
0.00046035
0.000460646
0.000460687
0.000460649
0.000460508
0.000460445
0.000460317
0.000460312
0.00046024
0.000460243
0.000460259
0.000460166
0.000460368
0.000460023
0.000460549
0.000459865
0.000460634
0.000459974
0.00046022
0.000460813
0.00045892
0.00046249
0.00045714
0.000463931
0.000456591
0.000463075
0.000459087
0.000459125
0.00046384
0.000454574
0.000467195
0.000453101
0.000466575
0.00045555
0.000462553
0.00046099
0.000455686
0.000469025
0.00044758
0.000475521
0.000444502
0.000473652
0.000451183
0.00046272
0.00046496
0.000447811
0.000480081
0.000434875
0.000489238
0.000432247
0.000156642
0.000151209
0.000143345
0.000134629
0.000126083
0.000120993
0.000114994
0.000112512
0.000112468
0.000114187
0.000117933
0.000123494
0.000130604
0.000139108
0.000149065
0.000160154
0.000172601
0.000186216
0.000201284
0.000217275
0.000233495
0.00024696
0.00025968
0.000271854
0.000283065
0.000294109
0.000302646
0.000310091
0.000316771
0.000322854
0.000328542
0.000333891
0.00033892
0.000343604
0.00034791
0.000351846
0.000355438
0.000358756
0.000361912
0.00036501
0.00036808
0.000371096
0.000373936
0.000376488
0.000378682
0.000380468
0.000381849
0.000382838
0.000383504
0.000383909
0.000384121
0.000384205
0.000384203
0.000384189
0.000384148
0.000384149
0.000384112
0.000384138
0.000384113
0.000384138
0.000384138
0.00038412
0.000384194
0.000384058
0.000384292
0.000383962
0.000384378
0.000383944
0.000384273
0.000384246
0.000383727
0.000385042
0.000382762
0.000386
0.000382078
0.000386108
0.000382788
0.000384513
0.000385088
0.000381915
0.000387475
0.000380228
0.000388161
0.000380615
0.000386743
0.000382982
0.000383406
0.000387242
0.000378586
0.000391931
0.000375049
0.000393322
0.000376248
0.00038945
0.000382235
0.000381996
0.000390788
0.000373602
0.00039898
0.000368513
0.000151623
0.000136818
0.00011347
9.95202e-05
9.7611e-05
9.8122e-05
0.000110566
0.000115059
0.00012182
0.000129677
0.000137974
0.000146245
0.000154207
0.000161678
0.000168586
0.000174821
0.000180491
0.000185572
0.000190196
0.00019442
0.000198339
0.000202072
0.000205556
0.000208847
0.000211867
0.000214681
0.00021732
0.000219731
0.000221892
0.000223802
0.000225494
0.000227019
0.000228393
0.00022961
0.000230673
0.000231595
0.000232422
0.000233175
0.000233896
0.000234609
0.000235311
0.000235971
0.00023658
0.000237109
0.000237541
0.000237863
0.000238092
0.000238232
0.000238314
0.00023835
0.000238357
0.00023835
0.000238339
0.000238338
0.000238333
0.00023835
0.000238357
0.000238381
0.000238375
0.000238396
0.000238391
0.000238399
0.000238411
0.000238382
0.000238447
0.000238344
0.000238492
0.00023831
0.0002385
0.000238359
0.000238364
0.000238602
0.000238018
0.000239015
0.000237617
0.000239289
0.000237592
0.000238974
0.000238274
0.000237999
0.000239374
0.000236994
0.000240101
0.000236661
0.00024
0.000237207
0.000238986
0.000238696
0.000237061
0.000240882
0.000234973
0.000242473
0.00023424
0.000242179
0.000235552
0.000240059
0.00023836
0.000236822
0.000242228
0.000233853
2.45431e-05
3.47523e-05
4.04101e-05
4.23029e-05
4.20135e-05
4.05607e-05
3.87139e-05
3.7056e-05
3.56099e-05
3.44449e-05
3.35767e-05
3.29762e-05
3.25984e-05
3.23851e-05
3.22871e-05
3.22581e-05
3.22697e-05
3.22981e-05
3.2331e-05
3.23648e-05
3.23936e-05
3.24262e-05
3.24612e-05
3.24994e-05
3.25393e-05
3.25764e-05
3.26144e-05
3.26512e-05
3.26855e-05
3.27155e-05
3.27408e-05
3.27619e-05
3.27783e-05
3.27894e-05
3.27952e-05
3.27977e-05
3.27983e-05
3.27981e-05
3.27984e-05
3.27995e-05
3.28008e-05
3.28009e-05
3.2799e-05
3.27949e-05
3.27893e-05
3.27824e-05
3.27754e-05
3.27686e-05
3.27624e-05
3.27577e-05
3.27543e-05
3.27521e-05
3.2751e-05
3.2751e-05
3.27518e-05
3.27538e-05
3.27551e-05
3.27571e-05
3.27575e-05
3.2759e-05
3.2759e-05
3.27598e-05
3.27601e-05
3.27595e-05
3.27615e-05
3.2758e-05
3.27636e-05
3.27561e-05
3.2765e-05
3.27565e-05
3.27616e-05
3.27643e-05
3.27488e-05
3.27816e-05
3.27293e-05
3.2799e-05
3.27197e-05
3.27957e-05
3.27394e-05
3.27601e-05
3.27866e-05
3.27095e-05
3.28312e-05
3.26796e-05
3.28426e-05
3.26888e-05
3.28121e-05
3.27421e-05
3.2736e-05
3.28388e-05
3.26312e-05
3.29349e-05
3.25641e-05
3.2962e-05
3.25844e-05
3.29009e-05
3.26887e-05
3.27686e-05
3.2858e-05
3.26242e-05
0.000321597
0.000710248
0.00107086
0.00139631
0.00198744
0.00240074
0.00244458
0.00247699
0.00248336
0.00149856
0.000747966
0.000401741
0.000233469
0.000169586
0.000205986
0.000232777
0.00021118
0.000212397
0.000225299
0.00022933
0.000225323
0.000219641
0.000214599
0.000209285
0.000202773
0.000195394
0.000188179
0.000181887
0.000176554
0.000171703
0.000166813
0.000161641
0.000156289
0.000151084
0.000146373
0.00014234
0.000138937
0.000135996
0.000133417
0.000131227
0.000129486
0.000128202
0.000127337
0.000126813
0.00012652
0.000126365
0.000126286
0.000126247
0.000126227
0.000126217
0.000126212
0.00012621
0.000126209
0.000126208
0.000126208
0.000126207
0.000126207
0.000126207
0.000126207
0.000126207
0.000126207
0.000126207
0.000126207
0.000126207
0.000126208
0.000126207
0.000126208
0.000126207
0.000126207
0.000126207
0.000126207
0.000126208
0.000126206
0.000126209
0.000126206
0.000126209
0.000126206
0.000126209
0.000126206
0.000126209
0.000126205
0.00012621
0.000126205
0.00012621
0.000126205
0.00012621
0.000126204
0.00012621
0.000126204
0.00012621
0.000126204
0.000126211
0.000126203
0.00012621
0.000126203
0.00012621
0.000126201
0.000126208
0.000126199
0.000126209
0.000202112
0.000489884
0.000880191
0.00112283
0.00166738
0.00207514
0.00212106
0.00240962
0.00202642
0.00108239
0.000501319
0.000287762
0.000214908
0.000172233
0.000197991
0.000215437
0.000211529
0.000207745
0.00021091
0.000211102
0.000207934
0.00020482
0.000202421
0.000199448
0.000194993
0.000189329
0.000183406
0.000178021
0.000173355
0.000169068
0.000164687
0.000159954
0.000154939
0.000149955
0.000145371
0.00014142
0.000138115
0.000135323
0.000132931
0.000130925
0.000129338
0.00012816
0.00012735
0.000126845
0.000126557
0.000126401
0.000126319
0.000126277
0.000126256
0.000126245
0.000126239
0.000126236
0.000126235
0.000126234
0.000126234
0.000126234
0.000126233
0.000126233
0.000126233
0.000126233
0.000126233
0.000126233
0.000126233
0.000126233
0.000126234
0.000126233
0.000126234
0.000126233
0.000126233
0.000126234
0.000126233
0.000126234
0.000126232
0.000126235
0.000126232
0.000126235
0.000126232
0.000126235
0.000126231
0.000126236
0.000126231
0.000126236
0.00012623
0.000126236
0.00012623
0.000126237
0.00012623
0.000126237
0.000126229
0.000126238
0.000126229
0.000126238
0.000126228
0.000126238
0.000126228
0.000126238
0.000126227
0.000126238
0.000126228
0.000126245
0.000318865
0.000275356
0.000640775
0.000774004
0.0012657
0.00165518
0.00171673
0.00199359
0.00145431
0.00067168
0.00027659
0.000204971
0.000197888
0.000165571
0.000194256
0.000205611
0.000209434
0.000207357
0.000206053
0.000203443
0.000200099
0.000197782
0.000196201
0.000193991
0.000190328
0.000185423
0.000180114
0.000175179
0.000170873
0.00016693
0.000162901
0.000158496
0.000153743
0.000148935
0.000144452
0.000140567
0.000137352
0.00013471
0.000132509
0.000130687
0.00012924
0.000128153
0.000127391
0.000126901
0.000126611
0.000126448
0.000126359
0.000126312
0.000126287
0.000126274
0.000126267
0.000126264
0.000126262
0.000126261
0.000126261
0.000126261
0.000126261
0.000126261
0.000126261
0.00012626
0.000126261
0.00012626
0.000126261
0.00012626
0.000126261
0.00012626
0.000126261
0.00012626
0.00012626
0.000126261
0.00012626
0.000126262
0.000126259
0.000126263
0.000126258
0.000126263
0.000126258
0.000126263
0.000126258
0.000126264
0.000126257
0.000126264
0.000126257
0.000126265
0.000126256
0.000126265
0.000126255
0.000126266
0.000126255
0.000126266
0.000126254
0.000126267
0.000126254
0.000126268
0.000126254
0.000126269
0.000126254
0.000126273
0.00012626
0.000126289
0.000507415
0.000207101
0.000562062
0.000405175
0.000799191
0.0011266
0.00123031
0.00143442
0.000805519
0.000307748
0.000110449
0.000237199
0.000206901
0.000180061
0.000157278
0.000175927
0.000193469
0.000200688
0.000201604
0.000199188
0.000196228
0.000194291
0.000192899
0.000190844
0.000187423
0.000182807
0.000177746
0.000172996
0.000168858
0.000165123
0.000161349
0.000157204
0.000152668
0.000148004
0.000143598
0.000139765
0.000136628
0.000134125
0.000132112
0.000130474
0.000129164
0.000128167
0.000127455
0.000126983
0.000126689
0.000126516
0.000126417
0.000126363
0.000126333
0.000126317
0.000126308
0.000126304
0.000126302
0.000126301
0.0001263
0.0001263
0.000126299
0.000126299
0.000126299
0.000126299
0.000126299
0.000126299
0.000126299
0.000126299
0.000126299
0.000126299
0.000126299
0.000126299
0.000126299
0.0001263
0.000126298
0.000126301
0.000126297
0.000126302
0.000126296
0.000126302
0.000126296
0.000126302
0.000126296
0.000126303
0.000126295
0.000126304
0.000126294
0.000126304
0.000126294
0.000126305
0.000126293
0.000126306
0.000126292
0.000126307
0.000126292
0.000126308
0.000126291
0.000126309
0.000126291
0.000126312
0.000126293
0.000126319
0.000126304
0.000126347
0.000495883
0.000269629
0.000552259
0.000281282
0.000490904
0.000572929
0.000738448
0.000714265
0.000220035
6.37859e-05
0.000134859
0.000293472
0.000190185
0.000141091
0.000130301
0.000146647
0.000170963
0.000187693
0.000194263
0.000194499
0.00019284
0.00019148
0.000190307
0.000188395
0.000185157
0.00018073
0.000175809
0.000171148
0.000167107
0.000163527
0.00015997
0.000156061
0.00015172
0.000147179
0.000142828
0.000139021
0.000135931
0.000133534
0.000131683
0.000130219
0.000129054
0.000128162
0.000127514
0.000127068
0.000126775
0.000126592
0.000126482
0.000126419
0.000126383
0.000126364
0.000126353
0.000126347
0.000126344
0.000126343