/*--------------------------------*- C++ -*----------------------------------*\
| =========                 |                                                 |
| \\      /  F ield         | OpenFOAM: The Open Source CFD Toolbox           |
|  \\    /   O peration     | Version:  v2012                                 |
|   \\  /    A nd           | Website:  www.openfoam.com                      |
|    \\/     M anipulation  |                                                 |
\*---------------------------------------------------------------------------*/
FoamFile
{
    version     2.0;
    format      ascii;
    class       volScalarField;
    location    "0.088";
    object      p;
}
// * * * * * * * * * * * * * * * * * * * * * * * * * * * * * * * * * * * * * //

dimensions      [0 2 -2 0 0 0 0];


internalField   nonuniform List<scalar> 
1900
(
-299.623
-300.723
-301.623
-302.284
-302.961
-303.728
-304.533
-305.362
-305.974
-306.578
-300.077
-300.877
-301.704
-302.38
-303.061
-303.822
-304.632
-305.47
-306.23
-307.05
-300.364
-300.928
-301.696
-302.41
-303.106
-303.868
-304.694
-305.577
-306.47
-307.716
-300.548
-300.992
-301.726
-302.469
-303.178
-303.941
-304.785
-305.709
-306.722
-308.096
-300.646
-301.039
-301.754
-302.506
-303.221
-303.987
-304.848
-305.808
-306.889
-308.278
-300.662
-301.061
-301.781
-302.536
-303.254
-304.028
-304.904
-305.89
-307.004
-308.372
-300.597
-301.057
-301.807
-302.558
-303.277
-304.061
-304.952
-305.952
-307.079
-308.403
-300.446
-301.037
-301.831
-302.557
-303.27
-304.066
-304.969
-305.98
-307.11
-308.392
-300.189
-301.03
-301.892
-302.58
-303.277
-304.078
-304.986
-305.996
-307.118
-308.36
-299.755
-300.929
-301.882
-302.562
-303.26
-304.074
-304.992
-306.009
-307.135
-308.357
-305.92
-318.28
-337.563
-339.208
-320.079
-286.053
-243.019
-198.245
-157.322
-122.526
-94.179
-71.7687
-54.3036
-40.7418
-30.1766
-21.855
-15.2215
-9.86878
-5.50099
-1.89591
1.11071
3.64209
5.79522
7.63617
9.21704
10.5785
11.7527
12.779
13.6721
14.4475
15.1204
15.7018
16.2037
16.6331
16.9946
17.2987
17.5522
17.7591
17.9245
18.0521
18.146
18.2089
18.2415
18.2463
18.2259
18.1826
18.118
18.0335
17.9305
17.8103
17.6737
17.5211
17.3542
17.1744
16.9821
16.7783
16.5637
16.3381
16.1018
15.8557
15.5999
15.335
15.0617
14.7799
14.4897
14.1914
13.8853
13.5717
13.2504
12.9215
12.5855
12.2429
11.8937
11.5382
11.176
10.8074
10.432
10.05
9.66191
9.26779
8.86773
8.46234
8.05092
7.63379
7.21065
6.78178
6.34741
5.9078
5.46282
5.01278
4.55783
4.09799
3.63319
3.16404
2.68926
2.21161
1.72413
1.24198
0.732963
0.279081
-309.337
-321.606
-333.413
-332.127
-313.08
-280.335
-239.751
-197.44
-158.323
-124.589
-96.6696
-74.2515
-56.5677
-42.6863
-31.7807
-23.1408
-16.2315
-10.6529
-6.10536
-2.36151
0.742372
3.34436
5.55701
7.4479
9.065
10.4548
11.6512
12.6922
13.5948
14.3768
15.0535
15.6367
16.136
16.5622
16.9267
17.2351
17.4923
17.703
17.872
18.0031
18.1004
18.1664
18.2004
18.2062
18.1866
18.1439
18.0797
17.9959
17.894
17.7749
17.6391
17.4869
17.3204
17.141
16.949
16.7456
16.5315
16.3064
16.0706
15.8247
15.5691
15.3046
15.0316
14.75
14.46
14.1618
13.856
13.5425
13.2214
12.8926
12.5568
12.2142
11.8651
11.5096
11.1475
10.7788
10.4035
10.0215
9.63346
9.23932
8.83929
8.43378
8.0223
7.60508
7.18189
6.753
6.31863
5.87905
5.43412
4.98417
4.52938
4.06976
3.6054
3.1367
2.66359
2.18654
1.70472
1.22121
0.728992
0.251737
-310.272
-317.92
-326.263
-324.073
-306.103
-275.372
-237.27
-197.13
-159.47
-126.589
-99.0055
-76.5715
-58.6855
-44.5257
-33.3267
-24.4212
-17.2865
-11.5232
-6.82518
-2.95983
0.248312
2.94111
5.22929
7.18039
8.84825
10.2807
11.5139
12.5821
13.5056
14.3034
14.9903
15.5803
16.083
16.5109
16.8791
17.1905
17.4491
17.6609
17.8306
17.9624
18.0592
18.1231
18.1557
18.1617
18.1433
18.1019
18.0391
17.9567
17.8562
17.7391
17.6051
17.4543
17.2891
17.1103
16.9188
16.7155
16.5009
16.2755
16.0397
15.794
15.5386
15.2743
15.0019
14.7206
14.4307
14.1329
13.8274
13.514
13.1931
12.8645
12.5289
12.1864
11.8374
11.4818
11.1197
10.751
10.3756
9.99369
9.60561
9.21146
8.8114
8.40575
7.99416
7.57681
7.15357
6.72465
6.29028
5.85066
5.4058
4.95594
4.50132
4.04188
3.57795
3.10972
2.63831
2.16197
1.68578
1.20122
0.726554
0.223573
-310.493
-316.295
-321.94
-318.558
-301.09
-271.666
-235.203
-196.611
-160.107
-127.98
-100.754
-78.3763
-60.367
-46.0039
-34.5773
-25.4574
-18.1357
-12.2158
-7.39027
-3.42308
-0.132732
2.62305
4.956
6.93909
8.63106
10.0823
11.3315
12.4129
13.3492
14.1596
14.8601
15.4647
15.9829
16.427
16.8091
17.1322
17.4003
17.6199
17.7956
17.9313
18.0294
18.0926
18.1252
18.1318
18.114
18.0729
18.0102
17.9275
17.8261
17.7074
17.5723
17.4217
17.2573
17.0789
16.8879
16.6848
16.47
16.2446
16.0093
15.7642
15.5095
15.2454
14.9724
14.6908
14.4012
14.1036
13.7984
13.4851
13.1644
12.8359
12.5006
12.1582
11.8092
11.4536
11.0914
10.7226
10.3472
9.96531
9.57717
9.18302
8.78285
8.37701
7.96527
7.54775
7.12446
6.6955
6.26114
5.82151
5.37676
4.92694
4.47252
4.01329
3.54983
3.08204
2.61233
2.13676
1.66633
1.18045
0.723414
0.195761
-310.518
-314.806
-318.112
-313.455
-296.276
-267.995
-233.033
-195.924
-160.559
-129.16
-102.287
-79.9788
-61.8701
-47.3332
-35.7102
-26.4026
-18.9155
-12.8557
-7.91479
-3.85349
-0.487422
2.32841
4.70646
6.72569
8.44723
9.92308
11.1926
12.2899
13.239
14.0591
14.7669
15.3766
15.8988
16.3456
16.7283
17.0519
17.321
17.5423
17.7205
17.8596
17.9619
18.031
18.0704
18.0831
18.0707
18.0345
17.9762
17.8974
17.7985
17.6808
17.5464
17.397
17.2333
17.0554
16.8646
16.6614
16.4465
16.221
15.9855
15.7402
15.4854
15.2208
14.9464
14.6638
14.3736
14.0757
13.77
13.4561
13.1349
12.8061
12.4706
12.1279
11.7786
11.4227
11.0602
10.6912
10.3157
9.9339
9.54581
9.15171
8.75165
8.34583
7.93408
7.51652
7.09332
6.66444
6.23016
5.7906
5.34604
4.89636
4.44221
3.98325
3.52025
3.05297
2.58491
2.11028
1.64517
1.15869
0.717823
0.170795
-310.4
-313.509
-315.042
-309.399
-292.508
-265.229
-231.494
-195.548
-161.048
-130.179
-103.563
-81.297
-63.1015
-48.421
-36.6365
-27.1744
-19.5518
-13.3781
-8.34412
-4.20748
-0.780807
2.0835
4.49889
6.54724
8.29208
9.78638
11.0706
12.1791
13.1371
13.9647
14.679
15.2943
15.8223
16.2745
16.6614
16.9891
17.2623
17.4869
17.6677
17.8086
17.9124
17.9824
18.0221
18.0341
18.0206
17.9834
17.9244
17.8453
17.7465
17.6297
17.4968
17.3491
17.187
17.0109
16.8219
16.6206
16.4076
16.1837
15.9494
15.7053
15.4516
15.188
14.9145
14.6324
14.3425
14.0446
13.7384
13.4239
13.1022
12.7731
12.4375
12.0945
11.7449
11.3885
11.0257
10.6564
10.2811
9.89943
9.51161
9.11766
8.71769
8.31178
7.90004
7.48253
7.05952
6.63081
6.19669
5.75727
5.31294
4.86353
4.40971
3.95106
3.48852
3.02185
2.55527
2.08185
1.62103
1.13548
0.707332
0.151991
-310.211
-312.446
-312.668
-306.232
-289.501
-262.956
-230.135
-195.078
-161.265
-130.842
-104.473
-82.2796
-64.0454
-49.2732
-37.3762
-27.8006
-20.0747
-13.812
-8.70436
-4.50756
-1.03222
1.8709
4.31699
6.38933
8.15366
9.66344
10.9604
12.0791
13.0455
13.8804
14.601
15.2218
15.7549
16.2117
16.602
16.9324
17.2081
17.4349
17.6176
17.7599
17.8653
17.9371
17.9784
17.992
17.9799
17.9441
17.8865
17.8086
17.7109
17.5947
17.4621
17.3139
17.151
16.9741
16.7838
16.5814
16.3674
16.1423
15.9068
15.6619
15.4077
15.1438
14.8702
14.5879
14.2978
13.9999
13.6938
13.3795
13.0582
12.7299
12.3952
12.053
11.7038
11.3478
10.9853
10.6165
10.2419
9.86089
9.47379
9.08025
8.68052
8.27471
7.86327
7.44615
7.02357
6.59525
6.16141
5.72233
5.27832
4.82935
4.37595
3.91763
3.45552
2.98952
2.52411
2.05211
1.59407
1.11125
0.689999
0.14295
-310.014
-311.623
-310.914
-303.873
-287.218
-261.199
-229.053
-194.666
-161.385
-131.318
-105.165
-83.0487
-64.7975
-49.9627
-37.9832
-28.3213
-20.5142
-14.1803
-9.01172
-4.76378
-1.24598
1.69034
4.16211
6.25476
8.03582
9.5591
10.8673
11.9948
12.9685
13.8091
14.5347
15.1597
15.6966
16.1563
16.5487
16.8811
17.1588
17.387
17.5709
17.7144
17.8209
17.8939
17.936
17.9501
17.9383
17.9024
17.8449
17.7671
17.6693
17.5531
17.4203
17.2719
17.1089
16.9319
16.7414
16.5391
16.3252
16.0999
15.864
15.619
15.3648
15.1008
14.8269
14.5441
14.2534
13.9551
13.6484
13.3335
13.0116
12.6832
12.3484
12.0059
11.6564
11.3
10.9373
10.5684
10.194
9.81333
9.42659
9.03344
8.63401
8.22857
7.81759
7.40116
6.97924
6.55164
6.11845
5.68
5.23655
4.78827
4.3356
3.87779
3.41607
2.95073
2.48625
2.01586
1.55903
1.08067
0.659881
0.138369
-309.857
-311.037
-309.718
-302.258
-285.629
-259.948
-228.242
-194.298
-161.365
-131.533
-105.533
-83.4772
-65.2224
-50.3533
-38.3272
-28.617
-20.765
-14.3933
-9.19315
-4.91913
-1.37732
1.57961
4.06421
6.16583
7.95418
9.48356
10.7967
11.9282
12.905
13.7485
14.4766
15.104
15.6432
16.1049
16.4989
16.8328
17.112
17.3415
17.5266
17.6712
17.7788
17.8528
17.8959
17.9108
17.8998
17.8645
17.8077
17.7308
17.6338
17.5184
17.3864
17.2386
17.0761
16.8995
16.7093
16.5072
16.2937
16.0686
15.8328
15.5879
15.3343
15.0709
14.7974
14.5148
14.2246
13.9269
13.621
13.3065
12.9852
12.6577
12.3241
11.9823
11.6333
11.2772
10.9149
10.5465
10.1727
9.79265
9.40622
9.0133
8.61395
8.20839
7.7973
7.38081
6.95889
6.53126
6.09803
5.65947
5.21596
4.76765
4.3151
3.85742
3.39566
2.9304
2.46593
1.99645
1.53921
1.06512
0.639237
0.148568
-309.8
-310.777
-309.168
-301.516
-284.924
-259.448
-228.002
-194.312
-161.573
-131.867
-105.94
-83.9017
-65.629
-50.7256
-38.6599
-28.9106
-21.0231
-14.6212
-9.39645
-5.10157
-1.53896
1.44129
3.94019
6.05135
7.84725
9.38266
10.7006
11.8359
12.8158
13.662
14.3924
15.0218
15.563
16.0267
16.4224
16.7577
17.0383
17.269
17.4553
17.601
17.7095
17.7845
17.8285
17.8443
17.8341
17.7995
17.7432
17.6671
17.5708
17.4558
17.3244
17.1769
17.0149
16.839
16.6491
16.4473
16.2346
16.01
15.7745
15.53
15.2769
15.0141
14.741
14.4585
14.1684
13.8708
13.5655
13.2509
12.9294
12.602
12.2681
11.9272
11.5785
11.2227
10.8605
10.4922
10.1186
9.73894
9.35266
8.95998
8.56099
8.15596
7.74518
7.32892
6.90714
6.47966
6.04654
5.608
5.16452
4.71621
4.26384
3.80618
3.34477
2.87968
2.41521
1.94679
1.48846
1.01962
0.590701
0.11251
-314.074
-315.343
-316.52
-316.764
-316.247
-314.977
-313.671
-313.763
-333.209
-334.725
-335.671
-336.006
-335.685
-334.97
-334.107
-333.758
-348.322
-351.158
-352.674
-353.24
-353.13
-352.82
-352.512
-352.172
-346.898
-350.263
-352.116
-352.862
-352.69
-352.175
-351.696
-351.058
-325.752
-328.652
-330.388
-330.947
-330.606
-329.869
-329.085
-328.157
-289.995
-292.05
-293.342
-293.796
-293.47
-292.522
-291.109
-289.509
-244.964
-246.037
-246.888
-247.289
-247.031
-246.003
-244.218
-242.159
-198.427
-198.459
-198.713
-198.927
-198.649
-197.568
-195.617
-193.373
-156.294
-155.598
-155.335
-155.24
-154.837
-153.721
-151.766
-149.559
-120.785
-119.663
-119.117
-118.845
-118.356
-117.252
-115.405
-113.362
-92.2185
-90.9924
-90.3456
-89.9517
-89.3908
-88.3469
-86.6731
-84.8472
-69.8905
-68.737
-68.0991
-67.6342
-67.0331
-66.0733
-64.5992
-63.0154
-52.6462
-51.6357
-51.0469
-50.5808
-49.9999
-49.1354
-47.8568
-46.4949
-39.3655
-38.5293
-38.0261
-37.5962
-37.0616
-36.3015
-35.2125
-34.0584
-29.0775
-28.3976
-27.9546
-27.557
-27.0826
-26.4277
-25.5068
-24.5305
-21.0105
-20.4709
-20.0675
-19.6876
-19.271
-18.7119
-17.9334
-17.0914
-14.5862
-14.1608
-13.8088
-13.4652
-13.1002
-12.6205
-11.9594
-11.2022
-9.39396
-9.05967
-8.76448
-8.46834
-8.15017
-7.73705
-7.17444
-6.4959
-5.14422
-4.88033
-4.63466
-4.38167
-4.10489
-3.74666
-3.26402
-2.6755
-1.62282
-1.41232
-1.20634
-0.990403
-0.749559
-0.436729
-0.0175225
0.492974
1.33216
1.50565
1.68281
1.86536
2.07365
2.34754
2.7145
3.16073
3.83049
3.97678
4.13163
4.28813
4.46997
4.7116
5.03546
5.42907
5.95465
6.07726
6.211
6.34871
6.51164
6.72838
7.01751
7.36825
7.77224
7.87766
7.99421
8.11709
8.26457
8.46054
8.72055
9.03552
9.33588
9.4289
9.53313
9.64442
9.779
9.95733
10.1925
10.4772
10.6896
10.777
10.8684
10.9683
11.0916
11.2548
11.4689
11.7279
11.8608
11.9475
12.0302
12.1206
12.2334
12.383
12.5786
12.8154
12.8765
12.9562
13.0324
13.1168
13.2222
13.3611
13.5412
13.7592
13.7594
13.8321
13.9025
13.9816
14.0805
14.2099
14.3764
14.5779
14.5255
14.5921
14.6579
14.7324
14.8255
14.9466
15.1011
15.2881
15.1905
15.2518
15.313
15.3833
15.4712
15.5849
15.7287
15.9029
15.7651
15.8213
15.879
15.9458
16.0292
16.1363
16.2707
16.4336
16.2628
16.3139
16.3678
16.431
16.5102
16.6113
16.737
16.8898
16.6892
16.7362
16.7868
16.8468
16.922
17.0177
17.1357
17.2794
17.0479
17.0926
17.1412
17.1988
17.2709
17.3618
17.473
17.6086
17.3494
17.3923
17.4392
17.4947
17.5638
17.6505
17.7555
17.8838
17.6006
17.6418
17.687
17.7404
17.8068
17.8896
17.989
18.1107
17.8054
17.8453
17.889
17.9406
18.0046
18.0839
18.1782
18.294
17.9689
18.0074
18.0498
18.0998
18.1616
18.2376
18.3273
18.4376
18.0948
18.1321
18.1733
18.2219
18.2816
18.3546
18.44
18.5455
18.1868
18.223
18.263
18.3101
18.368
18.4382
18.5196
18.6206
18.2479
18.2828
18.3216
18.3674
18.4234
18.491
18.5688
18.6657
18.2792
18.3131
18.3509
18.3954
18.4498
18.5151
18.5896
18.6827
18.2829
18.316
18.353
18.3965
18.4495
18.5127
18.5841
18.6738
18.2617
18.2941
18.3303
18.3729
18.4246
18.4857
18.5544
18.6408
18.2177
18.2495
18.285
18.3267
18.377
18.4364
18.5024
18.5859
18.1526
18.1837
18.2185
18.2594
18.3085
18.3661
18.4297
18.5105
18.0674
18.098
18.1323
18.1724
18.2204
18.2764
18.3376
18.4159
17.9636
17.9937
18.0274
18.0668
18.1138
18.1683
18.2274
18.3034
17.8427
17.8724
17.9055
17.9442
17.9902
18.0432
18.1003
18.1741
17.7055
17.7347
17.7673
17.8053
17.8504
17.9021
17.9573
18.0291
17.5526
17.5815
17.6137
17.6512
17.6954
17.7458
17.7994
17.8693
17.3854
17.414
17.4459
17.4828
17.5263
17.5756
17.6275
17.6958
17.2052
17.2334
17.265
17.3014
17.3441
17.3923
17.4427
17.5094
17.0126
17.0405
17.0717
17.1076
17.1496
17.1969
17.2458
17.311
16.8085
16.8362
16.867
16.9025
16.9438
16.99
17.0376
17.1014
16.5934
16.6207
16.6512
16.6862
16.7268
16.7721
16.8185
16.8809
16.3675
16.3946
16.4247
16.4592
16.4992
16.5436
16.5887
16.6499
16.131
16.1578
16.1877
16.2218
16.2612
16.3048
16.3487
16.4088
15.8846
15.9113
15.9409
15.9746
16.0134
16.0562
16.099
16.1579
15.6286
15.655
15.6843
15.7177
15.756
15.798
15.8398
15.8977
15.3635
15.3897
15.4188
15.4518
15.4895
15.5308
15.5716
15.6285
15.0898
15.1157
15.1445
15.1771
15.2143
15.2549
15.2948
15.3508
14.8078
14.8334
14.8619
14.8942
14.9309
14.9708
15.0098
15.0649
14.5174
14.5428
14.571
14.603
14.6392
14.6785
14.7167
14.771
14.2189
14.2443
14.2723
14.304
14.3398
14.3785
14.4159
14.4694
13.9128
13.938
13.9658
13.9972
14.0326
14.0708
14.1074
14.1602
13.5991
13.6241
13.6518
13.6828
13.7178
13.7554
13.7913
13.8435
13.2776
13.3025
13.3299
13.3607
13.3953
13.4325
13.4677
13.5192
12.9486
12.9734
13.0007
13.0312
13.0655
13.1021
13.1367
13.1876
12.6124
12.6371
12.6643
12.6946
12.7285
12.7648
12.7987
12.8491
12.2697
12.2943
12.3212
12.3514
12.385
12.4207
12.4541
12.504
11.9204
11.9449
11.9717
12.0017
12.035
12.0704
12.1032
12.1526
11.5648
11.5892
11.6159
11.6456
11.6786
11.7136
11.7459
11.7948
11.2026
11.227
11.2536
11.2831
11.3158
11.3505
11.3823
11.4307
10.834
10.8582
10.8847
10.914
10.9465
10.9807
11.012
11.06
10.4585
10.4827
10.5091
10.5383
10.5705
10.6044
10.6352
10.6829
10.0765
10.1007
10.127
10.1559
10.1879
10.2214
10.2518
10.299
9.68837
9.71248
9.73869
9.76754
9.79924
9.83248
9.86245
9.90932
9.29423
9.31829
9.3444
9.37308
9.4045
9.43741
9.46694
9.51343
8.89419
8.91826
8.94433
8.97289
9.00414
9.0368
9.06598
9.11219
8.48881
8.51281
8.53878
8.56718
8.59818
8.63053
8.65932
8.70517
8.07741
8.10142
8.12733
8.15562
8.18644
8.21857
8.24703
8.29263
7.66032
7.6843
7.71015
7.73831
7.76892
7.80079
7.82896
7.87432
7.23721
7.26119
7.28701
7.31508
7.34553
7.37719
7.40544
7.45119
6.80832
6.83226
6.85799
6.88592
6.91612
6.94743
6.97545
7.02131
6.37392
6.39782
6.42346
6.45126
6.48129
6.51237
6.54012
6.58579
5.93427
5.95811
5.98366
6.01133
6.04118
6.07205
6.09954
6.14495
5.48923
5.51299
5.53843
5.56592
5.59555
5.62615
5.65331
5.69837
5.03909
5.06275
5.08807
5.11541
5.14485
5.17526
5.20217
5.24702
4.58395
4.60744
4.63255
4.65964
4.68876
4.71884
4.74536
4.7898
4.12393
4.14727
4.17221
4.19912
4.22804
4.25792
4.28426
4.32861
3.65872
3.6817
3.70629
3.73282
3.76135
3.79085
3.81679
3.86074
3.18921
3.21187
3.23612
3.2623
3.29046
3.31962
3.34523
3.38895
2.71303
2.7346
2.7579
2.78326
2.81076
2.83945
2.86476
2.90836
2.23492
2.25608
2.27888
2.30366
2.33048
2.35848
2.38317
2.4261
1.74282
1.76047
1.78041
1.80298
1.82827
1.85549
1.8801
1.92405
1.26215
1.2806
1.30059
1.32249
1.34643
1.37168
1.39429
1.43462
0.738727
0.746294
0.757378
0.772583
0.792313
0.815429
0.834436
0.882899
0.302053
0.320133
0.336535
0.351692
0.366637
0.383726
0.40095
0.376852
)
;

boundaryField
{
    frontAndBack
    {
        type            empty;
    }
    inlet
    {
        type            zeroGradient;
    }
    outlet
    {
        type            fixedValue;
        value           uniform 0;
    }
    walls
    {
        type            zeroGradient;
    }
}


// ************************************************************************* //
