/*--------------------------------*- C++ -*----------------------------------*\
| =========                 |                                                 |
| \\      /  F ield         | OpenFOAM: The Open Source CFD Toolbox           |
|  \\    /   O peration     | Version:  v2012                                 |
|   \\  /    A nd           | Website:  www.openfoam.com                      |
|    \\/     M anipulation  |                                                 |
\*---------------------------------------------------------------------------*/
FoamFile
{
    version     2.0;
    format      ascii;
    class       volScalarField;
    location    "0.141";
    object      omega.air;
}
// * * * * * * * * * * * * * * * * * * * * * * * * * * * * * * * * * * * * * //

dimensions      [0 0 -1 0 0 0 0];


internalField   nonuniform List<scalar> 
5600
(
6774.11
9485.19
11876
13295.2
13892
13969.3
13767.9
13436.1
13075.1
12744
12449.6
12202.5
12010.3
11870.7
11781.8
11730.1
11711.2
11708.1
11719.3
11731.6
11747.1
11757.9
11768.7
11774.7
11781.8
11785.5
11791.8
11795.1
11801
11803.9
11809.4
11811.3
11815.5
11815.8
11817.9
11816.5
11817.3
11814.6
11814.6
11811.1
11810.6
11806.7
11806.2
11802.1
11801.9
11798.1
11798.4
11794.8
11795.6
11792.3
11793.5
11790.3
11791.9
11788.7
11790.8
11787.6
11790.1
11787.1
11789.9
11787.3
11790.6
11788.2
11792
11789.7
11794.3
11791.9
11797.2
11794.8
11800.9
11798.3
11805.2
11802.2
11810.1
11806.6
11815.5
11811.3
11821.5
11816.5
11828
11822
11834.9
11827.9
11841.9
11834.2
11849.1
11841.5
11855.5
11850.5
11859.8
11863.4
11858.6
11885.8
11843.4
11933.9
11783
12062.3
11560.4
12473.8
10623.9
13863.4
2507.1
2659.16
3499.31
4408.39
5079.77
5503.07
5763.18
5918.97
5999.03
6000.35
6089.32
6224.28
6349.84
6440.52
6481.61
6479.87
6436.27
6366.23
6274.63
6171.98
6065.87
5960.39
5862.66
5770.51
5686.18
5604.11
5529.28
5457.35
5394.49
5334.95
5283.16
5233.97
5191.55
5151.03
5116.66
5083.65
5055.92
5029.24
5006.8
4985.06
4966.66
4948.78
4933.42
4918.78
4906
4893.49
4882.44
4871.53
4861.86
4852.24
4843.77
4835.29
4827.89
4820.44
4813.99
4807.47
4801.91
4796.19
4791.46
4786.31
4782.38
4777.84
4774.49
4770.59
4767.63
4764.26
4761.68
4758.75
4756.48
4753.95
4751.9
4749.8
4748.03
4746.18
4744.58
4742.98
4741.53
4740.2
4738.88
4737.87
4736.59
4735.99
4734.51
4734.65
4732.69
4734.13
4730.74
4734.85
4727.87
4738.07
4721.86
4747.38
4705.64
4773.14
4661.99
4847.29
4531.33
5073.7
4097.55
5796.32
2557.46
2210.53
2001.23
1889.68
1866.37
1937.78
2042.85
2169.38
2320.65
2455.61
2599.79
2764.35
2936.69
3109.93
3265.41
3401.22
3505.71
3583.34
3628.73
3647.09
3636.15
3600.41
3539.67
3465.26
3386.86
3319.34
3263.09
3213.46
3168.57
3126.28
3089.24
3054.74
3024.71
2993.99
2966.26
2938.92
2914.76
2890.75
2869.7
2848.62
2830.35
2812.02
2796.31
2780.56
2767.07
2753.58
2742.18
2730.6
2720.84
2710.72
2702.28
2693.35
2686.03
2678.09
2671.75
2664.71
2659.25
2653.01
2648.31
2642.74
2638.7
2633.73
2630.26
2625.77
2622.77
2618.63
2616.09
2612.18
2610.01
2606.39
2604.52
2601.17
2599.6
2596.47
2595.12
2592.2
2591.02
2588.37
2587.28
2585
2583.84
2582.18
2580.48
2580.02
2576.99
2578.94
2572.84
2579.52
2566.91
2583.3
2556.88
2593.93
2537.43
2618.93
2497.44
2673.8
2415.25
2781.91
2265.84
2924.62
2552.81
2195.11
1926.95
1721.52
1562.2
1441.01
1350.45
1281.81
1234.04
1203.51
1187.64
1198.28
1226.63
1279.66
1348.93
1439.27
1539.75
1651.78
1762.92
1876.05
1977.49
2070.6
2142.96
2201.96
2241.22
2271.59
2288.02
2297.18
2292.92
2281.06
2257.42
2230.68
2199.16
2173.42
2149.09
2127.22
2106.36
2086.38
2067.5
2049.15
2032.52
2016.41
2002.38
1987.72
1974.05
1959.99
1947.38
1934.5
1923.13
1911.44
1901.26
1890.67
1881.62
1872.1
1864.12
1855.66
1848.72
1841.16
1835.03
1828.19
1822.72
1816.46
1811.54
1805.74
1801.31
1795.86
1791.88
1786.75
1783.18
1778.34
1775.19
1770.64
1767.88
1763.71
1761.32
1757.53
1755.39
1752.01
1749.95
1747.11
1744.88
1742.84
1739.96
1739.31
1734.9
1736.77
1729.33
1735.66
1722.55
1736.82
1713.45
1741.58
1700.43
1751.75
1681.99
1767.38
1660.44
1779.17
1653.5
1743.21
2551.05
2191.73
1920.23
1709.32
1540.16
1402.96
1288.82
1194.23
1113.04
1045.73
986.189
938.134
895.479
862.824
834.682
816.751
802.987
801.929
808.958
830.025
857.572
901.934
949.712
1013.77
1076.71
1152.81
1223.52
1302.32
1370.03
1438.16
1488.95
1535.79
1565.72
1594.03
1610.3
1625.01
1630.07
1634.08
1630.12
1625.8
1614.84
1604.9
1590.33
1578.94
1566.42
1555.83
1544.64
1534.47
1523.95
1514.07
1504.21
1494.78
1485.87
1477.27
1469.51
1461.97
1454.88
1447.31
1440.46
1433.13
1426.64
1419.63
1413.53
1406.83
1401.13
1394.75
1389.48
1383.45
1378.63
1372.97
1368.62
1363.37
1359.45
1354.59
1351.03
1346.55
1343.24
1339.17
1335.93
1332.41
1329.02
1326.27
1322.37
1320.75
1315.81
1315.98
1309.19
1312.11
1302.32
1309.36
1295.06
1307.67
1287.57
1306.41
1281.14
1303.22
1279.13
1292.89
1287.17
1268.58
2550.62
2190.63
1918.6
1707.02
1537.13
1398.71
1282.92
1185.73
1101.89
1030.04
966.904
911.433
862.805
818.603
780.392
745.011
714.036
686.609
661.045
641.306
620.818
607.99
593.865
587.775
581.728
585.187
589.849
606.516
623.558
656.34
686.457
733.494
773.474
828.799
873.91
931.805
975.971
1029.37
1066.86
1110.96
1138.2
1170.06
1186.82
1207.42
1217.52
1230.26
1234.8
1241.71
1241.67
1243.99
1240.36
1238.98
1232.87
1228.64
1221.29
1215.37
1208.2
1202.62
1196.23
1190.92
1185.01
1179.75
1174.14
1168.85
1163.53
1158.26
1153.35
1148.22
1143.81
1138.99
1135.09
1130.63
1126.85
1122.26
1118.46
1113.93
1110.14
1105.81
1101.98
1097.99
1094.03
1090.58
1086.34
1083.6
1078.92
1077.13
1071.74
1071.15
1064.9
1065.67
1058.58
1060.49
1053
1055.04
1048.57
1048.64
1045.59
1041.09
1042.98
1034.04
2550.53
2190.17
1918.11
1706.18
1536.33
1397.51
1281.83
1183.99
1100.42
1027.51
964.768
907.918
859.416
813.791
774.935
738.118
705.571
675.957
648.005
623.633
600.139
578.861
560.015
540.797
525.736
509.315
496.428
484.067
472.668
464.59
455.93
451.781
447.571
448.749
450.128
459.437
466.749
486.262
500.355
529.448
550.528
586.465
612.741
652.355
680.89
722.003
749.44
788.791
813.01
847.791
867.827
895.975
911.3
931.861
942.297
955.925
962.287
971.337
974.892
980.594
982.03
985.132
984.859
985.831
984.248
983.466
980.914
978.737
975.503
972.371
968.81
965.158
961.822
958.256
955.274
951.808
948.94
945.546
942.624
939.316
936.257
933.139
929.926
927.143
923.759
921.398
917.824
915.888
912.252
910.665
907.2
905.574
902.263
900.289
897.354
894.855
892.168
889.482
885.928
884.333
2550.53
2189.91
1917.97
1705.75
1536.1
1396.92
1281.56
1183.21
1100.14
1026.6
964.334
907.001
858.684
812.875
773.966
736.903
704.639
673.997
647.249
620.694
599.173
575.026
557.995
535.997
521.859
502.557
490.031
473.208
462.494
446.733
438.844
423.088
417.902
402.888
399.022
386.039
382.858
371.84
370.573
360.504
362.367
353.888
358.432
354.21
360.298
362.459
370.762
379.199
391.442
405.214
422.085
440.367
460.917
482.895
505.467
529.74
552.825
577.799
600.309
624.202
644.883
666.652
684.914
703.637
719.242
734.409
747.125
758.62
768.299
776.316
783.236
788.183
793.122
795.991
799.6
801.013
803.517
803.84
805.344
804.786
805.337
804.13
803.827
802.224
801.19
799.346
797.66
795.636
793.426
791.359
788.853
787.027
784.521
782.913
780.227
778.729
775.449
774.097
769.728
768.51
2550.55
2189.77
1917.91
1705.53
1536
1396.61
1281.45
1182.89
1099.92
1026.36
963.935
906.877
858.169
812.693
773.589
736.388
704.592
673.106
647.367
619.752
599.029
574.38
557.4
535.52
521.146
501.692
489.615
471.629
462.182
444.713
437.911
420.84
415.932
399.723
396.054
380.575
378.472
362.808
362.936
346.618
348.653
332.426
335.316
319.939
323.461
308.479
313.669
298.117
305.579
289.89
298.85
284.584
293.9
282.492
292.181
283.949
294.613
289.783
302.124
301.019
315.262
317.893
334.289
340.425
358.788
367.967
387.702
399.354
419.818
433.079
453.644
467.517
487.544
501.386
520.093
533.177
550.102
562.05
576.959
587.529
600.248
609.303
619.675
627.152
635.207
641.122
646.978
651.365
655.103
658.105
659.983
662.074
662.739
664.213
663.858
664.708
663.175
663.347
660.615
659.756
2550.54
2189.75
1917.83
1705.49
1535.87
1396.6
1281.23
1182.94
1099.58
1026.52
963.483
907.072
857.726
812.796
773.251
736.379
704.279
673.165
646.837
620.111
598.136
575.036
556.311
536.188
520.153
502.19
488.697
472.187
460.967
445.693
436.18
422.186
413.97
401.002
394.172
381.677
376.392
364.176
360.048
348.512
344.886
334.278
331.12
320.914
318.828
308.346
307.564
296.947
296.793
286.83
286.548
277.629
277.117
269.032
268.607
261.075
260.907
253.813
254.102
247.315
248.222
241.792
243.231
237.605
239.329
234.859
236.946
233.772
236.59
234.796
238.479
238.394
242.926
244.851
250.364
254.283
260.84
266.538
274.043
281.368
289.711
298.427
307.364
316.993
326.175
336.277
345.506
355.873
365.049
375.345
384.122
393.814
401.887
410.689
417.968
425.93
432.565
439.602
445.532
451.299
2550.53
2189.79
1917.79
1705.58
1535.78
1396.73
1281.09
1183.11
1099.43
1026.67
963.369
907.183
857.634
812.931
773.074
736.661
703.914
673.638
646.32
620.668
597.607
575.555
555.821
536.717
519.561
502.915
487.846
473.168
459.924
446.766
435.132
423.238
412.889
402.205
392.804
383.251
374.669
365.98
358.284
350.186
343.327
335.819
329.504
322.761
316.737
310.735
305.07
299.535
294.415
289.168
284.572
279.696
275.452
271.067
267.127
263.216
259.654
256.216
253.056
250.22
247.475
245.337
243.192
241.767
240.504
239.937
239.758
240.328
241.396
243.366
245.939
249.455
253.784
258.926
265.026
271.785
279.535
287.781
296.943
306.384
316.599
326.913
337.805
348.631
359.78
370.696
381.653
392.247
402.639
412.655
422.303
431.472
440.146
448.301
455.839
462.773
469.052
474.788
479.996
484.817
2550.53
2189.84
1917.84
1705.67
1535.86
1396.87
1281.16
1183.3
1099.49
1026.88
963.455
907.373
857.775
813.094
773.239
736.863
704.018
673.949
646.336
621.055
597.622
575.908
555.928
537.003
519.722
503.238
487.942
473.621
459.946
447.292
435.203
423.738
413.086
402.723
393.068
383.941
374.97
366.918
358.786
351.361
344.304
337.363
331.197
325.085
319.451
314.439
309.438
305.394
301.511
298.358
295.932
294.035
293.322
293.279
294.627
296.895
300.825
305.86
312.762
320.868
330.832
342
354.855
368.727
384.01
399.964
416.964
434.215
452.091
469.777
487.677
505.054
522.222
538.452
554.24
568.938
583.012
595.892
608.036
618.93
629.033
637.901
645.939
652.78
658.804
663.69
667.881
671.054
673.727
675.768
677.37
678.542
679.296
679.709
679.69
679.398
678.707
677.836
676.682
675.55
2550.54
2189.94
1917.95
1705.84
1536.05
1397.08
1281.41
1183.55
1099.76
1027.2
963.715
907.756
858.048
813.502
773.574
737.259
704.435
674.356
646.798
621.541
598.093
576.51
556.453
537.701
520.407
504.039
488.877
474.647
461.201
448.783
436.953
425.995
415.772
406.205
397.476
389.504
382.259
376.135
370.739
366.718
363.82
362.541
363.026
365.414
370.055
377.107
386.676
398.882
413.653
430.879
450.323
471.686
494.522
518.491
543.114
567.996
592.924
617.26
640.787
663.172
684.32
703.933
722.044
738.37
753.054
765.849
776.997
786.269
794.101
800.211
805.343
809.429
812.768
815.348
817.34
818.711
819.575
819.923
819.865
819.369
818.555
817.378
815.96
814.251
812.383
810.298
808.164
805.869
803.666
801.473
799.342
797.237
795.112
792.969
790.755
788.54
786.247
783.995
781.748
779.696
2550.59
2190.13
1918.19
1706.18
1536.41
1397.53
1281.89
1184.09
1100.36
1027.84
964.417
908.562
858.849
814.504
774.549
738.473
705.721
675.85
648.55
623.542
600.527
579.419
559.983
542.099
525.832
510.921
497.658
485.792
475.666
467.317
460.998
457.02
455.938
458.17
464.087
474.197
488.701
507.765
531.126
558.54
589.087
622.356
656.987
693.031
729.068
764.544
798.519
830.649
860.266
887.163
910.828
931.357
948.379
962.408
973.333
982.332
989.316
994.754
998.727
1001.47
1003.07
1003.69
1003.41
1002.32
1000.55
998.156
995.295
991.985
988.489
984.69
981.083
977.562
974.16
970.815
967.5
964.194
960.882
957.568
954.251
950.947
947.668
944.435
941.251
938.154
935.115
932.22
929.364
926.725
924.042
921.341
918.638
915.924
913.194
910.462
907.708
905.012
902.32
899.759
897.289
895.113
2550.73
2190.52
1918.75
1706.97
1537.29
1398.68
1283.14
1185.68
1102.16
1030.12
967.056
911.899
862.757
819.532
780.47
746.145
714.942
687.834
663.557
642.982
625.291
611.354
600.817
594.464
593.028
597.71
608.627
626.895
653.03
686.667
727.329
773.229
823.272
875.746
929.61
982.166
1032.47
1078.41
1119.76
1154.68
1183.98
1206.67
1224.99
1239.36
1250.14
1257.86
1262.77
1265.23
1265.46
1263.76
1260.36
1255.6
1249.72
1243.17
1236.21
1229.69
1223.37
1217.29
1211.37
1205.53
1199.76
1194.05
1188.38
1182.83
1177.36
1172.08
1166.95
1162.11
1157.41
1153.07
1148.62
1144.16
1139.7
1135.26
1130.86
1126.52
1122.24
1118.06
1113.93
1109.92
1105.98
1102.17
1098.44
1094.83
1091.32
1087.93
1084.67
1081.53
1078.54
1075.65
1072.85
1070.12
1067.44
1064.82
1062.24
1059.74
1057.31
1055.03
1052.93
1051.21
2551.15
2191.6
1920.44
1709.24
1540.44
1402.95
1289.4
1194.38
1114.24
1046.35
988.283
940.053
899.196
867.046
841.286
824.688
814.805
817.632
829.728
854.793
890.074
938.025
994.796
1061.06
1132.65
1209.24
1286.62
1362.9
1433.09
1493.93
1543.48
1581.6
1610.96
1633.02
1648.23
1657.32
1661.12
1659.95
1654.75
1645.66
1634.33
1620.76
1608
1595.98
1584.47
1573.31
1562.39
1551.64
1541.11
1530.83
1520.93
1511.48
1502.61
1494.29
1486.52
1478.67
1470.95
1463.4
1456.02
1448.84
1441.83
1435.04
1428.41
1422.01
1415.78
1409.8
1403.99
1398.47
1393.11
1388.05
1383.18
1378.51
1374.03
1369.74
1365.62
1361.67
1357.86
1354.2
1350.64
1347.23
1343.92
1340.73
1337.64
1334.66
1331.78
1329
1326.34
1323.77
1321.34
1319
1316.74
1314.54
1312.42
1310.34
1308.34
1306.4
1304.59
1302.91
1301.49
1300.61
2552.75
2195.2
1927.02
1721.94
1562.95
1442.89
1354.07
1286.17
1243.14
1212.62
1204.5
1219.77
1257.3
1316.35
1395.92
1492
1600.92
1715.7
1832.72
1944.63
2047.46
2134.39
2203.74
2254.87
2291.49
2315.74
2329.78
2331.91
2323.47
2304.31
2277.86
2246.83
2218.64
2193.53
2170.32
2148.43
2127.5
2107.37
2088.17
2070.15
2053.36
2038.05
2022.98
2008.03
1993.6
1979.77
1966.62
1954.11
1942.25
1930.98
1920.33
1910.23
1900.73
1891.78
1883.42
1875.54
1868.13
1861.11
1854.47
1848.16
1842.13
1836.38
1830.86
1825.59
1820.51
1815.66
1810.98
1806.52
1802.21
1798.13
1794.19
1790.48
1786.95
1783.62
1780.45
1777.46
1774.59
1771.89
1769.29
1766.82
1764.45
1762.2
1760.03
1757.95
1755.97
1754.06
1752.26
1750.52
1748.87
1747.3
1745.8
1744.32
1742.9
1741.51
1740.21
1738.94
1737.83
1736.9
1736.29
1736.43
2557
2211.36
2002.18
1894.87
1875.33
1959.42
2066.2
2207.42
2362.24
2500.6
2657.98
2832.81
3015.54
3190.91
3348.89
3479.25
3580.93
3649.57
3688.57
3696.01
3676.11
3627.39
3558.58
3478.11
3403.19
3341.25
3288.32
3239.88
3195.12
3154.18
3117.29
3084.09
3052.13
3021.54
2992.9
2966.15
2941.12
2917.76
2895.88
2875.53
2856.56
2839.04
2822.83
2807.69
2793.83
2781.04
2769.21
2758.21
2747.98
2738.4
2729.45
2721.05
2713.18
2705.81
2698.93
2692.49
2686.48
2680.84
2675.57
2670.62
2665.99
2661.63
2657.51
2653.63
2649.94
2646.44
2643.12
2639.93
2636.94
2634.04
2631.32
2628.74
2626.26
2623.9
2621.64
2619.5
2617.45
2615.54
2613.73
2612.02
2610.4
2608.88
2607.44
2606.09
2604.83
2603.64
2602.55
2601.5
2600.54
2599.65
2598.8
2597.97
2597.16
2596.43
2595.71
2595.16
2594.66
2594.56
2594.84
2596.3
2508.44
2664.98
3511.59
4424.73
5100.85
5522.78
5790.78
5943.85
6009.58
6036.79
6165.18
6318.14
6450.53
6536.63
6572.46
6559.29
6508.64
6428.33
6330.66
6222.6
6112.21
6005.77
5906.32
5814.07
5726.76
5644.41
5567.05
5496.78
5432.53
5374.36
5321.52
5273.59
5230.25
5191.15
5155.85
5124.26
5095.82
5070.33
5047.22
5026.4
5007.41
4990.25
4974.56
4960.34
4947.2
4934.93
4923.46
4912.7
4902.63
4893.17
4884.32
4876.02
4868.25
4860.99
4854.2
4847.89
4842.02
4836.53
4831.42
4826.67
4822.25
4818.12
4814.29
4810.67
4807.29
4804.13
4801.17
4798.37
4795.77
4793.29
4791.02
4788.87
4786.88
4785
4783.22
4781.54
4779.96
4778.5
4777.16
4775.92
4774.79
4773.76
4772.83
4772
4771.27
4770.62
4770.08
4769.61
4769.23
4768.91
4768.63
4768.42
4768.22
4768.17
4768.04
4768.37
4768.38
4769.47
4770.7
4773.64
6770.09
9484.85
11871.7
13279.9
13857.4
13918.8
13700.3
13354.3
12989.1
12654.4
12355.6
12108.7
11918.3
11784.7
11699.7
11655.4
11638.5
11640.8
11651.3
11666.2
11679.5
11691.3
11700.2
11707.2
11713.1
11718.4
11723.5
11728.3
11732.8
11737
11740.5
11743.5
11745.3
11746.2
11746.1
11745.3
11743.8
11741.9
11739.5
11737
11734.2
11731.4
11728.6
11725.9
11723.4
11721.1
11719
11717.1
11715.4
11713.8
11712.4
11711.1
11709.9
11708.8
11707.9
11707.1
11706.5
11706
11705.8
11705.7
11705.9
11706.2
11706.8
11707.6
11708.5
11709.6
11710.9
11712.4
11714
11715.7
11717.6
11719.6
11721.8
11724.1
11726.5
11729.1
11731.7
11734.4
11737.3
11740.2
11743.2
11746.2
11749.4
11752.6
11755.9
11759.2
11762.6
11766.1
11769.6
11773.2
11776.8
11780.5
11784.3
11788.1
11792.1
11796.2
11800.1
11804
11806.7
11807.6
10965.4
6797.1
4856.29
3903.82
3330.56
2956.57
2687.05
2483.72
2319.37
2182.94
2066.82
1965.37
1875.14
1794.08
1720.33
1652.3
1588.84
1528.65
1471.08
1415.81
1362.72
1311.44
1262.1
1214.65
1169.05
1125.29
1083.35
1043.23
1004.78
968.098
932.973
899.473
867.606
837.337
808.604
781.316
755.363
730.651
707.084
684.566
663.012
642.335
622.45
603.264
584.699
566.696
549.192
532.096
515.369
499.046
483.158
467.641
452.563
438.169
424.685
412.095
400.328
389.42
379.478
370.286
361.547
353.226
345.689
338.939
332.606
326.355
320.766
316.337
312.815
308.616
303.302
297.843
295.429
297.334
303.594
310.307
315.294
315.814
313.53
308.444
302.761
295.995
289.645
282.805
277.316
270.865
267.501
261.102
260.469
253.5
255.711
248.028
252.943
244.341
251.142
241.302
247.947
237.706
241.463
231.36
2653.98
5031.4
4711.64
3975.29
3404.46
3000.61
2705.18
2481.92
2302.94
2157.19
2035.52
1930.85
1839.84
1759.88
1688.33
1623.2
1562.76
1505.86
1451.77
1399.95
1350.21
1302.03
1255.36
1210.22
1166.48
1124.11
1083.21
1043.78
1005.81
969.25
934.077
900.23
867.963
837.435
808.5
781.027
754.885
729.973
706.177
683.396
661.55
640.549
620.311
600.746
581.779
563.35
545.406
527.867
510.702
493.963
477.7
461.886
446.62
432.18
418.802
406.46
395.043
384.563
375.112
366.465
358.28
350.507
343.535
337.426
331.775
326.153
321.033
316.943
313.685
309.668
304.182
297.935
293.916
293.65
297.559
302.408
306.271
306.574
304.568
300.061
294.956
288.738
282.905
276.497
271.542
265.427
262.54
256.226
255.881
248.696
251.106
243.006
248.059
239.042
245.848
235.793
242.386
231.984
235.818
225.498
2104.7
2659.64
3532.95
3584.28
3281.68
2949.44
2671.86
2448.67
2266.18
2116.11
1991.16
1884.76
1793.62
1714.75
1645.11
1582.5
1524.68
1471.03
1420.53
1372.41
1326.29
1281.54
1238.01
1195.63
1154.34
1114.1
1074.99
1036.98
1000.2
964.468
929.954
896.44
864.269
833.843
804.98
777.547
751.414
726.479
702.61
679.701
657.681
636.458
615.96
596.102
576.811
558.033
539.724
521.825
504.318
487.271
470.764
454.816
439.566
425.317
412.312
400.509
389.744
379.99
371.313
363.478
356.102
349.116
342.923
337.644
332.845
328.005
323.462
319.76
316.745
312.865
307.173
300.12
294.456
291.921
293.268
295.946
298.297
298.003
295.962
291.827
287.17
281.435
276.097
270.143
265.772
260.092
257.744
251.654
251.62
244.365
246.959
238.562
243.733
234.343
241.144
230.858
237.38
226.79
230.69
220.104
1703.12
1591.06
1954.56
2431.56
2649.26
2615.99
2475.59
2314.18
2163.47
2030.49
1915.71
1816.92
1731.22
1656.54
1590.59
1531.5
1477.03
1426.78
1379.78
1335.14
1292.46
1250.95
1210.47
1170.89
1132.25
1094.53
1057.71
1021.64
986.595
952.311
919.122
886.842
855.616
825.768
797.296
770.15
744.235
719.461
695.682
672.797
650.732
629.41
608.765
588.729
569.234
550.232
531.692
513.582
495.904
478.75
462.23
446.432
431.535
417.859
405.642
394.807
385.125
376.512
368.988
362.302
356.034
350.103
344.916
340.646
336.835
332.881
328.974
325.644
322.776
318.903
312.893
304.984
297.647
292.793
291.424
291.651
292.099
290.778
288.308
284.245
279.834
274.457
269.565
264.064
260.333
255.197
253.475
247.768
248.088
240.938
243.706
235.174
240.435
230.759
237.53
227.021
233.458
222.66
226.621
215.736
1294.95
1256.29
1274.7
1399.52
1612.79
1800.65
1897.29
1910.8
1874.51
1815.35
1748.67
1683.54
1621.84
1564.45
1511.22
1461.94
1415.56
1371.38
1329.29
1288.82
1249.82
1211.67
1174.32
1137.62
1101.7
1066.64
1032.21
998.295
965.24
932.823
901.359
870.837
841.229
812.459
784.76
758.203
732.76
708.364
684.853
662.148
640.189
618.912
598.264
578.202
558.671
539.633
521.076
502.999
485.437
468.51
452.368
437.178
423.16
410.633
399.808
390.551
382.533
375.589
369.665
364.488
359.611
354.959
350.939
347.766
344.959
341.858
338.503
335.397
332.458
328.36
321.858
313.023
304.002
296.816
292.641
290.215
288.433
285.685
282.372
278.02
273.596
268.392
263.873
258.803
255.785
251.304
250.335
245.175
245.927
239.067
242.01
233.54
238.843
229.035
235.715
225.059
231.377
220.402
224.424
213.261
1032.52
1033.22
1024.8
1024.45
1047.66
1097.39
1163.6
1233.47
1292.12
1335.11
1360.65
1373.07
1374.96
1367.95
1353.95
1334.32
1310.8
1283.69
1254.28
1223.23
1191.34
1159
1126.41
1093.7
1061.1
1028.85
996.986
965.509
934.691
904.542
875.143
846.663
819.106
791.921
765.517
740.023
715.465
691.785
668.801
646.504
624.878
603.882
583.482
563.662
544.388
525.652
507.461
489.858
472.922
456.812
441.726
427.908
415.615
405.144
396.627
389.822
384.247
379.611
375.766
372.412
369.104
365.805
362.938
360.755
358.75
356.234
353.119
349.886
346.488
341.8
334.534
324.663
313.959
304.476
297.458
292.257
288.003
283.496
278.962
273.954
269.242
264.004
259.8
255.145
252.963
249.268
249.245
244.8
246.115
239.727
242.854
234.677
239.92
230.238
236.672
226.08
232.17
221.144
225.224
213.871
876.693
878.002
873.742
863.137
850.207
839.583
831.548
828.792
832.093
843.973
864.686
893.111
928.296
966.302
1004.52
1038.28
1065.62
1083.71
1091.87
1090.24
1080.69
1064.97
1044.87
1021.72
996.559
969.895
942.837
915.555
888.299
861.368
834.735
808.659
783.179
758.33
734.23
710.789
688.013
665.768
643.89
622.581
601.901
581.833
562.36
543.492
525.225
507.585
490.606
474.389
459.075
444.871
432.029
420.849
411.612
404.55
399.623
396.379
394.117
392.384
390.924
389.44
387.548
385.329
383.25
381.603
379.852
377.307
373.798
369.828
365.384
359.585
351.171
340.101
327.732
316.053
306.238
298.256
291.41
284.935
278.906
272.952
267.729
262.292
258.406
254.223
253.1
250.383
251.593
248.059
250.105
244.37
247.653
240.04
245.01
235.864
241.735
231.645
237.259
226.525
230.617
219.369
762.271
763.028
760.454
752.31
739.013
722.391
703.143
682.684
661.841
641.614
623.338
608.368
598.619
595.903
602.321
618.858
645.546
680.435
720.39
760.093
796.762
824.26
843.073
853.005
854.849
849.695
839.376
825.463
808.928
790.799
771.374
751.198
730.333
709.708
689.327
668.687
647.925
627.422
607.694
588.659
570.29
552.543
535.391
518.867
503.001
487.863
473.527
460.166
448.006
437.322
428.396
421.556
417.053
414.965
414.933
416.148
417.609
418.717
419.197
418.874
417.535
415.477
413.252
411.163
408.621
404.996
400.118
394.574
388.38
380.925
371.026
358.702
344.825
331.229
318.883
308.321
298.964
290.534
282.948
275.953
270.151
264.509
261.098
257.623
257.953
256.568
259.389
257.028
259.931
255.026
258.296
251.562
255.85
247.805
252.615
243.691
248.462
238.629
242.605
232.084
655.46
654.668
651.449
643.372
630.289
613.007
592.506
570.299
547.748
526.265
506.908
490.57
477.75
469.437
464.544
463.754
465.364
470.811
478.274
490.936
505.528
526.943
552.094
578.823
604.814
627.918
646.364
659.565
667.198
669.864
667.916
662.219
652.905
640.967
626.386
610.88
595.34
579.803
564.904
550.535
536.661
523.254
510.31
497.916
486.179
475.237
465.238
456.447
449.172
443.742
440.452
439.609
441.308
445.255
450.514
455.784
459.849
462.23
462.882
461.907
459.386
455.899
452.039
448.04
443.25
437.203
429.85
421.907
413.386
403.931
392.463
379.069
364.078
349.108
334.782
322.11
310.592
300.517
291.618
283.822
277.672
272.183
269.708
267.579
270.007
270.632
275.456
274.611
278.225
274.299
277.071
271.544
274.509
268.147
271.375
264.281
267.932
259.765
263.39
254.562
455.792
460.176
463.148
463.673
461.235
457.317
453.351
451.299
452.566
458.227
468.255
482.021
498.761
516.297
533.101
547.962
560.242
569.898
577.47
582.367
585.94
586.91
587.489
588.037
588.833
590.031
591.542
593.236
594.727
595.729
595.599
594.383
591.418
586.92
580.376
572.528
564.058
555.09
545.885
536.623
527.474
518.564
510.007
502.008
494.765
488.497
483.431
479.896
478.213
478.705
481.606
487.023
494.595
503.331
511.575
517.737
520.921
521.231
519.039
514.811
508.956
502.24
495.121
487.659
479.213
469.641
459.121
448.451
437.539
426.23
413.539
399.578
384.133
368.569
353.077
339.064
326.101
315.103
305.561
297.7
291.928
287.588
287.035
287.584
293.083
296.78
303.722
304.618
308.162
305.178
306.547
302.367
303.327
298.901
300.368
295.407
298.038
292.298
295.194
289.311
489.396
493.604
498.557
505.419
515.36
528.65
545.475
565.067
586.165
607.685
628.431
646.869
662.071
673.977
682.851
689.182
693.453
696.346
697.902
698.7
698.448
698.218
697.223
695.618
693.453
690.843
687.637
683.974
679.58
674.545
668.764
662.366
655.223
647.46
639.053
629.959
620.31
610.358
600.329
590.453
580.968
572.073
563.968
556.932
551.171
546.883
544.316
543.771
545.466
549.597
556.174
564.832
574.411
583.043
588.704
590.383
588.155
582.817
575.121
565.798
555.397
544.562
533.419
521.867
509.481
496.546
483.404
470.71
458.197
445.847
432.722
418.895
403.754
388.412
372.737
358.444
345.253
334.589
325.681
319.164
315.212
313.853
316.914
322.175
331.764
339.339
347.554
349.514
351.396
348.663
347.656
344.332
343.116
340.17
340.338
337.378
339.364
336.709
338.458
336.594
674.61
673.936
674.679
678.145
684.749
693.982
705.25
717.516
730.186
742.624
754.285
764.78
773.914
781.657
788.106
793.328
797.626
800.785
802.877
804.19
804.75
804.728
804.182
803.103
801.517
799.356
796.489
792.911
788.331
782.881
776.527
769.229
760.892
751.667
741.46
730.428
718.799
706.88
694.804
682.876
671.394
660.656
650.977
642.71
636.081
631.331
628.781
628.706
631.209
636.245
643.329
651.276
657.993
661.195
659.622
653.543
643.949
632.076
618.815
604.88
590.647
576.404
561.978
547.307
532.316
517.571
503.311
489.895
476.988
464.578
451.745
438.493
424.067
409.4
394.327
380.805
368.835
360.042
353.484
350.132
349.985
353.832
362.538
374.121
387.93
398.408
405.771
406.699
405.376
401.57
397.914
394.563
391.656
389.566
389.049
387.895
389.808
389.845
390.947
393.175
778.023
776.876
777.199
780.039
785.728
793.99
804.498
816.673
830.07
843.636
856.741
868.956
879.972
889.701
897.991
904.941
910.488
914.87
917.996
920.109
921.102
921.098
920.124
918.138
915.275
911.401
906.67
900.891
894.268
886.675
878.114
868.589
858.139
846.926
834.905
822.214
809.145
795.841
782.548
769.601
757.259
745.823
735.636
727.046
720.282
715.647
713.525
714.139
717.354
722.575
728.466
732.905
733.361
728.372
718.249
704.346
688.183
671.073
653.781
636.762
620.058
603.628
587.203
570.91
554.982
539.917
525.732
512.592
500.118
488.195
475.938
463.295
449.59
435.708
421.757
409.936
400.625
395.321
393.009
394.791
400.666
411.861
427.87
445.872
462.413
472.891
476.751
474.367
469.093
463.223
457.305
453.443
449.508
448.038
447.254
447.772
449.96
451.622
453.73
458.038
893.453
892.472
893.078
896.492
903.18
913.029
925.612
940.456
956.692
973.77
990.619
1006.78
1021.71
1035.04
1046.39
1055.6
1062.52
1067.29
1069.79
1070.28
1068.6
1065.1
1059.75
1052.75
1044.31
1034.65
1023.91
1012.25
999.894
986.908
973.487
959.784
945.941
931.984
918.072
904.121
890.233
876.436
863.057
850.341
838.476
827.752
818.523
811.116
805.752
802.737
802.404
804.72
808.979
813.669
816.477
814.777
806.78
792.855
774.66
754.165
733.001
712.283
692.477
673.664
655.551
637.893
620.556
603.832
588.041
573.501
560.057
547.711
536.007
524.717
513.014
500.815
487.703
474.698
462.455
453.498
448.608
448.876
453.18
462.514
476.975
497.542
521.469
544.03
560.026
566.611
564.621
557.436
548.167
539.964
532.464
528.09
523.836
522.98
522.258
524.186
526.493
529.332
532.629
535.817
1050.16
1049.94
1051.7
1057.03
1066.73
1080.72
1098.61
1119.66
1142.86
1167.09
1190.95
1213.46
1233.62
1250.55
1263.61
1272.47
1277.08
1277.6
1274.15
1267.2
1256.98
1244.21
1229.11
1212.46
1194.58
1176.09
1157.02
1137.86
1118.61
1099.56
1080.92
1062.89
1045.52
1028.79
1012.88
997.777
983.402
969.78
957.064
945.38
934.886
925.866
918.695
913.665
910.934
910.677
912.923
917.068
921.511
923.708
920.733
910.456
893.045
870.586
845.48
819.845
795.135
772.12
750.887
731.116
712.259
694.012
676.386
659.862
644.711
631.069
618.623
607.182
596.25
585.515
574.221
562.284
549.721
537.987
528.552
524.395
526.611
535.555
549.716
569.657
595.439
626.471
656.612
679.405
690.088
689.066
679.877
667.475
654.767
644.652
636.422
631.902
628.03
627.878
627.501
630.394
632.345
635.736
638.123
638.841
1300.57
1301.62
1305.25
1313.78
1328.51
1349.45
1375.99
1406.77
1440.23
1473.93
1506.02
1534.15
1556.76
1572.37
1580.59
1581.33
1575.02
1562.43
1544.47
1522.28
1496.88
1469.42
1440.77
1411.94
1383.31
1355.41
1328.25
1302.14
1277
1253.03
1230.31
1208.96
1188.89
1170.14
1152.86
1137.01
1122.42
1109.14
1097.3
1087
1078.41
1071.78
1067.45
1065.6
1066.2
1069.02
1073.44
1077.98
1080.13
1076.65
1064.8
1044.25
1017.36
987.163
956.286
926.653
899.412
874.96
852.969
832.738
813.471
794.852
777.188
761.097
746.776
734.109
722.609
711.936
701.617
691.313
680.345
668.675
657
647.758
643.595
647.957
661.904
684.439
712.887
746.91
785.979
825.689
856.719
873.001
873.189
862.19
845.623
828.559
813.467
802.379
794.415
790.378
787.514
788.201
788.359
791.745
792.542
795.296
794.704
794.02
1737.74
1740.5
1746.81
1760.43
1783.29
1815.27
1854.5
1898.37
1943.2
1984.89
2020.4
2045.9
2059.66
2060.75
2049.92
2028.32
1997.85
1960.68
1918.91
1874.68
1829.41
1784.69
1741.36
1700.15
1661.25
1624.88
1590.89
1559.19
1529.73
1502.33
1476.98
1453.67
1432.14
1412.52
1394.96
1379.24
1365.11
1352.69
1342.23
1333.9
1327.82
1324.21
1323.3
1324.98
1328.77
1333.67
1338.04
1339.54
1335.15
1321.76
1298.09
1266.28
1230.02
1192.68
1156.69
1123.67
1094.42
1069.03
1046.76
1026.35
1006.68
987.76
970.25
954.762
941.338
929.603
918.914
908.86
899.086
889.32
879.006
868.282
858.956
855.559
862.548
882.961
916.731
960.116
1007.85
1058.54
1109.05
1150.02
1172.31
1173.91
1159.66
1138.01
1114.9
1094.49
1078.49
1067.77
1061.23
1058.47
1057.18
1058.82