/*--------------------------------*- C++ -*----------------------------------*\
| =========                 |                                                 |
| \\      /  F ield         | OpenFOAM: The Open Source CFD Toolbox           |
|  \\    /   O peration     | Version:  v2012                                 |
|   \\  /    A nd           | Website:  www.openfoam.com                      |
|    \\/     M anipulation  |                                                 |
\*---------------------------------------------------------------------------*/
FoamFile
{
    version     2.0;
    format      ascii;
    class       volScalarField;
    location    "0.141";
    object      p;
}
// * * * * * * * * * * * * * * * * * * * * * * * * * * * * * * * * * * * * * //

dimensions      [0 2 -2 0 0 0 0];


internalField   nonuniform List<scalar> 
1900
(
-299.623
-300.722
-301.622
-302.283
-302.96
-303.727
-304.533
-305.361
-305.974
-306.578
-300.077
-300.876
-301.704
-302.38
-303.061
-303.821
-304.632
-305.47
-306.23
-307.05
-300.363
-300.928
-301.696
-302.409
-303.106
-303.867
-304.693
-305.577
-306.47
-307.715
-300.547
-300.991
-301.726
-302.468
-303.178
-303.94
-304.784
-305.709
-306.722
-308.095
-300.645
-301.039
-301.754
-302.506
-303.221
-303.987
-304.848
-305.807
-306.888
-308.277
-300.662
-301.061
-301.781
-302.535
-303.254
-304.027
-304.904
-305.889
-307.004
-308.372
-300.597
-301.056
-301.807
-302.557
-303.277
-304.061
-304.951
-305.952
-307.079
-308.403
-300.445
-301.036
-301.83
-302.557
-303.27
-304.065
-304.969
-305.979
-307.11
-308.391
-300.189
-301.03
-301.891
-302.579
-303.277
-304.077
-304.985
-305.995
-307.118
-308.36
-299.754
-300.929
-301.881
-302.562
-303.26
-304.073
-304.992
-306.009
-307.135
-308.357
-305.92
-318.28
-337.562
-339.208
-320.079
-286.053
-243.02
-198.241
-157.323
-122.531
-94.1719
-71.7622
-54.3132
-40.7513
-30.1645
-21.8409
-15.2295
-9.8845
-5.49812
-1.8802
1.11525
3.63226
5.78814
7.64081
9.22426
10.5791
11.7487
12.7766
13.6732
14.4498
15.1219
15.7015
16.2023
16.633
16.9961
17.3004
17.553
17.7591
17.9244
18.0525
18.1469
18.2102
18.2422
18.2458
18.2251
18.1823
18.1184
18.0339
17.9305
17.8101
17.6738
17.5222
17.3561
17.1766
16.9842
16.7797
16.5643
16.3382
16.1018
15.8556
15.5998
15.3349
15.0616
14.7799
14.4898
14.1913
13.8852
13.5715
13.2504
12.922
12.5865
12.2442
11.8949
11.5389
11.1762
10.8071
10.4316
10.0499
9.66188
9.26789
8.86779
8.462
8.0503
7.63303
7.21002
6.78148
6.34738
5.90792
5.46319
5.01333
4.55846
4.09875
3.63406
3.16491
2.69007
2.21238
1.72479
1.24261
0.733516
0.279202
-309.337
-321.606
-333.413
-332.127
-313.079
-280.334
-239.751
-197.435
-158.324
-124.593
-96.6611
-74.2479
-56.5772
-42.6912
-31.7685
-23.1328
-16.2411
-10.6628
-6.09891
-2.34989
0.742592
3.33646
5.55349
7.45217
9.06978
10.4549
11.6485
12.6905
13.5954
14.3785
15.0551
15.6365
16.1345
16.5623
16.9283
17.2367
17.4928
17.7028
17.8719
18.0034
18.1015
18.1678
18.201
18.2056
18.1858
18.1438
18.0802
17.9964
17.8939
17.7746
17.6392
17.488
17.3222
17.1431
16.9511
16.747
16.5321
16.3066
16.0706
15.8246
15.569
15.3044
15.0316
14.75
14.4599
14.1617
13.8558
13.5423
13.2214
12.893
12.5578
12.2155
11.8663
11.5103
11.1478
10.7787
10.4032
10.0214
9.63344
9.23939
8.83927
8.43342
8.02168
7.60435
7.18129
6.75271
6.3186
5.87917
5.43448
4.98472
4.53
4.07051
3.6063
3.1376
2.66442
2.18736
1.70541
1.22182
0.729531
0.251884
-310.271
-317.92
-326.263
-324.073
-306.103
-275.372
-237.27
-197.126
-159.473
-126.59
-98.9969
-76.5711
-58.6944
-44.5256
-33.3162
-24.4194
-17.2955
-11.5261
-6.81687
-2.95381
0.243169
2.93635
5.23308
7.18502
8.84688
10.278
11.5143
12.5831
13.5056
14.3036
14.9918
15.5809
16.0815
16.5106
16.8806
17.1923
17.4499
17.6607
17.8304
17.9625
18.0602
18.1246
18.1562
18.1609
18.1426
18.102
18.0399
17.9572
17.856
17.7387
17.6052
17.4554
17.2908
17.1124
16.9208
16.7169
16.5016
16.2758
16.0399
15.794
15.5386
15.2742
15.0017
14.7205
14.4306
14.1328
13.8272
13.5139
13.1932
12.865
12.5298
12.1876
11.8385
11.4826
11.12
10.7509
10.3754
9.9936
9.60559
9.21147
8.8113
8.40535
7.99355
7.57612
7.15301
6.72437
6.29024
5.8508
5.40617
4.95647
4.50192
4.04262
3.57891
3.11067
2.63918
2.16283
1.68649
1.20182
0.727097
0.223759
-310.492
-316.294
-321.939
-318.557
-301.089
-271.666
-235.202
-196.609
-160.11
-127.979
-100.746
-78.379
-60.3748
-46.0003
-34.569
-25.4593
-18.1421
-12.2146
-7.38418
-3.42133
-0.136897
2.62166
4.96036
6.94219
8.62872
10.0794
11.3338
12.4156
13.3475
14.157
14.8609
15.467
15.9834
16.4271
16.8091
17.1326
17.4012
17.6203
17.7958
17.9317
18.0304
18.094
18.1254
18.1308
18.1135
18.0735
18.0112
17.928
17.8258
17.7069
17.5723
17.4226
17.2589
17.0811
16.8899
16.686
16.4707
16.245
16.0096
15.7643
15.5095
15.2453
14.9722
14.6906
14.401
14.1034
13.7982
13.485
13.1645
12.8364
12.5015
12.1593
11.8102
11.4544
11.0918
10.7227
10.3471
9.96525
9.57711
9.18292
8.78265
8.37658
7.96467
7.54711
7.12394
6.69523
6.26112
5.82166
5.37711
4.92748
4.47311
4.01403
3.55083
3.08307
2.61327
2.13769
1.66705
1.18106
0.723975
0.195993
-310.518
-314.805
-318.112
-313.455
-296.276
-267.995
-233.032
-195.923
-160.562
-129.156
-102.282
-79.9842
-61.8752
-47.3277
-35.7038
-26.406
-18.9208
-12.8522
-7.9095
-3.85474
-0.490737
2.32974
4.71044
6.72674
8.44487
9.92087
11.1949
12.293
13.2386
14.0568
14.7664
15.3778
15.8995
16.346
16.7288
17.052
17.3221
17.5431
17.7205
17.8592
17.9626
18.0324
18.0708
18.0827
18.0707
18.0351
17.9769
17.8976
17.7984
17.6806
17.5465
17.3976
17.2345
17.0574
16.8667
16.6627
16.4473
16.2217
15.9861
15.7406
15.4854
15.2206
14.9461
14.6634
14.3733
14.0754
13.7698
13.4561
13.1352
12.8066
12.4714
12.1289
11.7795
11.4235
11.0607
10.6915
10.3158
9.93387
9.54566
9.15146
8.75133
8.34536
7.93352
7.51596
7.09285
6.66416
6.23016
5.79078
5.34638
4.89688
4.44278
3.98398
3.52131
3.05409
2.58592
2.11126
1.64587
1.15929
0.718387
0.171091
-310.4
-313.509
-315.041
-309.398
-292.508
-265.228
-231.493
-195.549
-161.048
-130.173
-103.561
-81.3047
-63.1011
-48.4137
-36.6351
-27.1788
-19.5537
-13.3736
-8.34029
-4.21009
-0.783793
2.08607
4.50279
6.54746
8.28973
9.78513
11.0724
12.1815
13.1369
13.9629
14.6785
15.295
15.8236
16.2756
16.6617
16.988
17.2623
17.4881
17.6692
17.8093
17.9123
17.9825
18.0221
18.0341
18.0212
17.9844
17.9251
17.8453
17.7462
17.6294
17.4968
17.3495
17.1879
17.0126
16.8238
16.6221
16.4086
16.1846
15.9504
15.706
15.4518
15.1876
14.9139
14.6319
14.3421
14.0441
13.7381
13.4241
13.1028
12.7737
12.4382
12.0952
11.7457
11.3893
11.0264
10.6571
10.2814
9.89942
9.51132
9.11719
8.7172
8.31127
7.89954
7.48206
7.0591
6.63053
6.1967
5.75748
5.31331
4.86402
4.41022
3.95179
3.48966
3.02307
2.55636
2.08284
1.62169
1.13603
0.707796
0.152301
-310.21
-312.446
-312.668
-306.232
-289.501
-262.955
-230.134
-195.078
-161.263
-130.837
-104.474
-82.2844
-64.042
-49.2667
-37.3788
-27.8063
-20.0717
-13.8057
-8.70531
-4.51245
-1.0311
1.87651
4.318
6.38622
8.15257
9.66571
10.9623
12.0789
13.0448
13.8799
14.6012
15.2226
15.755
16.2123
16.6029
16.9318
17.2079
17.436
17.6187
17.7607
17.8652
17.9367
17.9785
17.9926
17.9809
17.945
17.8868
17.8084
17.7107
17.5948
17.4621
17.3141
17.1516
16.9753
16.7857
16.5831
16.3686
16.1434
15.9081
15.6629
15.4079
15.1431
14.8693
14.5871
14.2972
13.9993
13.6935
13.3799
13.059
12.7306
12.3957
12.0535
11.7045
11.3487
10.9864
10.6175
10.2425
9.86083
9.47329
9.07951
8.67985
8.2742
7.86284
7.44574
7.02312
6.59494
6.16144
5.72259
5.27874
4.82981
4.37636
3.91837
3.4568
2.99086
2.5253
2.05312
1.59466
1.11174
0.690351
0.143269
-310.014
-311.622
-310.914
-303.872
-287.218
-261.199
-229.052
-194.667
-161.382
-131.316
-105.169
-83.0468
-64.7922
-49.9638
-37.987
-28.3194
-20.5099
-14.1813
-9.01483
-4.76191
-1.2418
1.69016
4.1591
6.25542
8.03978
9.55985
10.8643
11.9934
12.9712
13.8119
14.5336
15.1572
15.6957
16.1588
16.5518
16.8807
17.1566
17.3866
17.5726
17.7166
17.8214
17.8929
17.9353
17.9505
17.9395
17.9037
17.8454
17.7668
17.669
17.553
17.4201
17.2719
17.1093
16.9331
16.7435
16.541
16.3264
16.1011
15.8656
15.6203
15.365
15.1
14.8257
14.5432
14.2527
13.9543
13.6481
13.334
13.0126
12.684
12.3487
12.0061
11.6569
11.301
10.9386
10.5698
10.1948
9.81329
9.42593
9.03249
8.63317
8.22804
7.81724
7.4008
6.97878
6.55129
6.11844
5.68027
5.23707
4.78874
4.33584
3.87847
3.41753
2.95225
2.4876
2.01693
1.55961
1.08114
0.660153
0.138633
-309.857
-311.036
-309.718
-302.257
-285.629
-259.948
-228.241
-194.297
-161.364
-131.533
-105.531
-83.475
-65.2239
-50.3546
-38.3251
-28.6144
-20.7651
-14.3952
-9.19328
-4.91608
-1.37519
1.5781
4.06255
6.16789
7.95743
9.48302
10.7936
11.9278
12.9086
13.7509
14.4745
15.1011
15.6432
16.1081
16.5019
16.8318
17.1092
17.3414
17.5291
17.6737
17.779
17.8513
17.895
17.9116
17.9014
17.8661
17.8081
17.7303
17.6334
17.5183
17.3862
17.2385
17.0764
16.9005
16.7113
16.5092
16.2949
16.0698
15.8347
15.5896
15.3345
15.0698
14.796
14.5139
14.224
13.9262
13.6205
13.3072
12.9865
12.6586
12.3244
11.9824
11.6336
11.2782
10.9164
10.5481
10.1735
9.79252
9.40543
9.01221
8.61303
8.20783
7.79699
7.38046
6.95842
6.53085
6.09798
5.65976
5.21658
4.76821
4.31528
3.85808
3.39727
2.93204
2.46742
1.99756
1.53979
1.06568
0.639681
0.148957
-309.799
-310.776
-309.167
-301.515
-284.923
-259.448
-228.001
-194.311
-161.572
-131.866
-105.94
-83.9014
-65.6288
-50.7248
-38.6591
-28.9104
-21.0225
-14.6207
-9.39675
-5.10072
-1.53691
1.44167
3.93883
6.05186
7.85008
9.38335
10.6981
11.8347
12.8187
13.6647
14.391
15.019
15.5627
16.0297
16.4254
16.7569
17.0355
17.2688
17.4576
17.6034
17.7098
17.783
17.8276
17.845
17.8356
17.801
17.7438
17.6665
17.5703
17.4558
17.3241
17.1769
17.0152
16.8398
16.6512
16.4495
16.2358
16.0112
15.7765
15.5318
15.2772
15.0128
14.7394
14.4576
14.1679
13.8702
13.5647
13.2514
12.9308
12.6028
12.2684
11.9274
11.579
11.2237
10.862
10.4938
10.1195
9.73873
9.35182
8.95887
8.56003
8.15543
7.74486
7.32856
6.9067
6.47928
6.04648
5.60831
5.1652
4.71681
4.26395
3.80682
3.34625
2.88128
2.41674
1.94794
1.48891
1.02005
0.591339
0.112919
-314.074
-315.343
-316.519
-316.764
-316.246
-314.976
-313.67
-313.762
-333.208
-334.725
-335.67
-336.006
-335.684
-334.97
-334.106
-333.757
-348.321
-351.158
-352.673
-353.24
-353.129
-352.819
-352.512
-352.172
-346.898
-350.263
-352.116
-352.862
-352.69
-352.175
-351.696
-351.058
-325.752
-328.651
-330.387
-330.946
-330.605
-329.869
-329.084
-328.157
-289.994
-292.05
-293.342
-293.796
-293.47
-292.522
-291.109
-289.508
-244.965
-246.037
-246.887
-247.288
-247.03
-246.002
-244.217
-242.158
-198.424
-198.455
-198.71
-198.924
-198.646
-197.565
-195.615
-193.371
-156.293
-155.597
-155.335
-155.239
-154.836
-153.721
-151.766
-149.56
-120.79
-119.668
-119.122
-118.849
-118.359
-117.256
-115.407
-113.364
-92.2132
-90.9882
-90.342
-89.9486
-89.3878
-88.3438
-86.6698
-84.8438
-69.8821
-68.7282
-68.0908
-67.6265
-67.0261
-66.0671
-64.5938
-63.0106
-52.6557
-51.6444
-51.0539
-50.5867
-50.005
-49.1401
-47.8614
-46.4996
-39.3754
-38.5385
-38.0352
-37.605
-37.0699
-36.309
-35.2192
-34.0645
-29.066
-28.3873
-27.9461
-27.5499
-27.0763
-26.4218
-25.5011
-24.5246
-20.9956
-20.4571
-20.0543
-19.6749
-19.2588
-18.7005
-17.9227
-17.0812
-14.5929
-14.1662
-13.8123
-13.4674
-13.1017
-12.6217
-11.9608
-11.2039
-9.41027
-9.07445
-8.77805
-8.48125
-8.16238
-7.74856
-7.18542
-6.50648
-5.14311
-4.8804
-4.6362
-4.38426
-4.10787
-3.74961
-3.26667
-2.67772
-1.60732
-1.39851
-1.19389
-0.978787
-0.73864
-0.426375
-0.0074677
0.502903
1.33817
1.5124
1.69055
1.87372
2.0821
2.3558
2.72242
3.16824
3.82151
3.96933
4.12541
4.28271
4.46511
4.70709
5.03101
5.42452
5.94688
6.06924
6.20246
6.33992
6.50293
6.71989
7.00926
7.36024
7.77585
7.88004
7.99553
8.11775
8.26485
8.46066
8.72073
9.03589
9.34321
9.43611
9.54047
9.65177
9.78621
9.96437
10.1995
10.4841
10.6909
10.7791
10.8712
10.9716
11.0951
11.2584
11.4724
11.7312
11.857
11.9439
12.0268
12.1173
12.2302
12.3799
12.5755
12.8123
12.8739
12.9532
13.029
13.1131
13.2184
13.3573
13.5375
13.7556
13.7604
13.8328
13.9031
13.9821
14.0809
14.2103
14.3769
14.5785
14.5279
14.5945
14.6605
14.7352
14.8283
14.9495
15.104
15.291
15.1921
15.2534
15.3148
15.3851
15.473
15.5867
15.7305
15.9046
15.7649
15.8211
15.8788
15.9455
16.0289
16.136
16.2703
16.4331
16.2614
16.3125
16.3664
16.4296
16.5088
16.61
16.7358
16.8885
16.6889
16.7358
16.7864
16.8464
16.9217
17.0173
17.1354
17.2791
17.0493
17.094
17.1426
17.2001
17.2721
17.363
17.4742
17.6098
17.3511
17.3941
17.441
17.4965
17.5656
17.6522
17.7572
17.8855
17.6014
17.6427
17.6879
17.7414
17.8078
17.8905
17.9899
18.1117
17.8054
17.8452
17.8889
17.9406
18.0046
18.0839
18.1782
18.294
17.9687
18.0072
18.0496
18.0996
18.1614
18.2374
18.327
18.4374
18.0951
18.1324
18.1736
18.2221
18.2819
18.3549
18.4403
18.5458
18.1878
18.2239
18.2639
18.3111
18.3689
18.4391
18.5206
18.6215
18.2492
18.2841
18.3228
18.3686
18.4246
18.4922
18.57
18.6668
18.2799
18.3138
18.3516
18.3962
18.4506
18.5159
18.5903
18.6834
18.2825
18.3157
18.3527
18.3963
18.4493
18.5125
18.584
18.6736
18.2608
18.2932
18.3295
18.3722
18.4238
18.485
18.5536
18.6401
18.2174
18.2491
18.2846
18.3263
18.3766
18.4359
18.5019
18.5854
18.153
18.184
18.2188
18.2596
18.3087
18.3663
18.4299
18.5107
18.0678
18.0985
18.1327
18.1728
18.2209
18.2769
18.3381
18.4164
17.9636
17.9938
18.0276
18.067
18.1141
18.1685
18.2277
18.3037
17.8425
17.8722
17.9054
17.9441
17.9901
18.0432
18.1003
18.1741
17.7056
17.7348
17.7674
17.8054
17.8505
17.9022
17.9575
18.0294
17.5536
17.5825
17.6147
17.6521
17.6964
17.7468
17.8004
17.8704
17.3873
17.4159
17.4478
17.4847
17.5281
17.5774
17.6294
17.6976
17.2075
17.2358
17.2673
17.3037
17.3464
17.3946
17.445
17.5116
17.0147
17.0426
17.0738
17.1097
17.1517
17.1989
17.2478
17.313
16.8099
16.8376
16.8684
16.9038
16.9451
16.9913
17.0389
17.1026
16.594
16.6213
16.6518
16.6868
16.7274
16.7727
16.819
16.8814
16.3676
16.3946
16.4248
16.4593
16.4993
16.5437
16.5887
16.6499
16.1309
16.1577
16.1876
16.2217
16.2611
16.3047
16.3486
16.4086
15.8845
15.9111
15.9407
15.9744
16.0132
16.056
16.0988
16.1577
15.6285
15.6549
15.6842
15.7176
15.7559
15.7979
15.8397
15.8976
15.3634
15.3896
15.4187
15.4517
15.4894
15.5307
15.5715
15.6284
15.0898
15.1157
15.1445
15.1771
15.2143
15.2549
15.2948
15.3508
14.8078
14.8335
14.862
14.8942
14.9309
14.9708
15.0098
15.0649
14.5174
14.5429
14.5712
14.6031
14.6394
14.6787
14.7168
14.7712
14.2189
14.2443
14.2724
14.304
14.3398
14.3786
14.4159
14.4695
13.9126
13.9378
13.9657
13.9971
14.0325
14.0707
14.1073
14.1602
13.5988
13.6239
13.6515
13.6826
13.7176
13.7553
13.7912
13.8433
13.2775
13.3024
13.3299
13.3607
13.3953
13.4325
13.4677
13.5193
12.949
12.9738
13.0011
13.0317
13.0659
13.1026
13.1371
13.1881
12.6134
12.6381
12.6652
12.6955
12.7295
12.7657
12.7997
12.8501
12.271
12.2955
12.3225
12.3526
12.3862
12.4219
12.4553
12.5052
11.9216
11.9461
11.9729
12.0028
12.0361
12.0715
12.1043
12.1537
11.5656
11.5899
11.6166
11.6463
11.6793
11.7143
11.7465
11.7954
11.2028
11.2271
11.2537
11.2833
11.316
11.3506
11.3824
11.4308
10.8337
10.8579
10.8844
10.9137
10.9462
10.9804
11.0117
11.0597
10.4581
10.4823
10.5087
10.5379
10.5701
10.604
10.6348
10.6825
10.0764
10.1005
10.1268
10.1558
10.1877
10.2212
10.2516
10.2988
9.68835
9.71247
9.73869
9.76754
9.79924
9.8325
9.86248
9.90936
9.29436
9.31842
9.34454
9.37322
9.40465
9.43758
9.46712
9.51362
8.89427
8.91832
8.94438
8.97294
9.00418
9.03685
9.06602
9.11221
8.48848
8.51249
8.53846
8.56687
8.59786
8.63021
8.65897
8.70481
8.07679
8.1008
8.12672
8.15502
8.18584
8.21796
8.24641
8.29198
7.65955
7.68355
7.7094
7.73757
7.76817
7.80003
7.82819
7.87353
7.23656
7.26054
7.28636
7.31443
7.34487
7.37653
7.40477
7.45057
6.80802
6.83197
6.85771
6.88565
6.91588
6.94722
6.97528
7.02118
6.3739
6.3978
6.42346
6.45128
6.48133
6.51243
6.5402
6.58586
5.9344
5.95824
5.98381
6.01148
6.04135
6.07222
6.09971
6.14512
5.4896
5.51336
5.5388
5.5663
5.59593
5.62655
5.65372
5.69881
5.03965
5.06331
5.08864
5.11599
5.14543
5.17585
5.20277
5.24764
4.5846
4.6081
4.63323
4.66033
4.68947
4.71956
4.74609
4.79054
4.1247
4.14804
4.17299
4.19991
4.22884
4.25873
4.28508
4.32944
3.65958
3.68255
3.70713
3.73366
3.7622
3.79171
3.81763
3.86158
3.19005
3.2127
3.23695
3.26313
3.29128
3.32044
3.34604
3.38975
2.71383
2.7354
2.7587
2.78407
2.81156
2.84025
2.86554
2.90913
2.23567
2.25681
2.2796
2.30437
2.33119
2.35919
2.38386
2.42677
1.74344
1.76108
1.78099
1.80355
1.82887
1.8561
1.88068
1.9246
1.26276
1.2812
1.30118
1.32307
1.347
1.37224
1.39481
1.43514
0.739306
0.746876
0.757967
0.773162
0.792858
0.81594
0.834886
0.883306
0.302159
0.320216
0.336603
0.351736
0.366657
0.383728
0.40092
0.376902
)
;

boundaryField
{
    frontAndBack
    {
        type            empty;
    }
    inlet
    {
        type            zeroGradient;
    }
    outlet
    {
        type            fixedValue;
        value           uniform 0;
    }
    walls
    {
        type            zeroGradient;
    }
}


// ************************************************************************* //
