/*--------------------------------*- C++ -*----------------------------------*\
| =========                 |                                                 |
| \\      /  F ield         | OpenFOAM: The Open Source CFD Toolbox           |
|  \\    /   O peration     | Version:  v2012                                 |
|   \\  /    A nd           | Website:  www.openfoam.com                      |
|    \\/     M anipulation  |                                                 |
\*---------------------------------------------------------------------------*/
FoamFile
{
    version     2.0;
    format      ascii;
    class       Cloud<basicKinematicParcel>;
    location    "0.098/lagrangian/kinematicCloud";
    object      coordinates;
}
// * * * * * * * * * * * * * * * * * * * * * * * * * * * * * * * * * * * * * //

54
(
(0.0970417 0.0128114 0.438668 0.451479) 364 529 2
(0.332083 0.270985 0.0629735 0.333958) 865 1730 1
(0.567753 0.216124 0.013753 0.202371) 1165 2131 1
(0.124034 0.437983 0.0314231 0.40656) 564 1129 1
(0.277815 0.152791 0.208301 0.361093) 1463 2727 2
(0.407619 0.29619 0.0527865 0.243404) 1163 2324 2
(0.601705 0.199148 0.00457989 0.194568) 49 96 2
(0.428875 0.0512216 0.234341 0.285562) 1660 3121 2
(0.0147151 0.492642 0.120766 0.371876) 1660 3121 1
(0.76249 0.118755 0.020977 0.097778) 760 1518 2
(0.279274 0.360363 0.275206 0.0851563) 860 1721 1
(0.180451 0.409775 0.155242 0.254533) 559 919 1
(0.434743 0.0382273 0.282629 0.244401) 1853 3704 1
(0.327603 0.237713 0.0984856 0.336198) 152 105 2
(0.681272 0.159364 0.115732 0.0436316) 1853 3704 2
(0.777827 0.0128791 0.111087 0.0982076) 956 1913 2
(0.348547 0.161697 0.16403 0.325727) 354 509 2
(0.184966 0.406924 0.407517 0.000592936) 1752 3505 2
(0.546112 0.226944 0.0533918 0.173552) 554 1106 2
(0.0312934 0.304143 0.484353 0.180211) 1553 3107 2
(0.331008 0.199145 0.135351 0.334496) 1353 2507 2
(0.275088 0.362456 0.0869612 0.275495) 1751 3500 2
(0.25416 0.367878 0.37292 0.00504179) 1352 2702 1
(0.00420316 0.497898 0.00800192 0.489896) 451 900 2
(0.438376 0.280812 0.239688 0.0411242) 851 1700 2
(0.442879 0.261897 0.0166636 0.27856) 1350 2501 2
(0.299642 0.200251 0.350179 0.149928) 349 696 1
(0.626697 0.0272616 0.186651 0.15939) 1449 2899 2
(0.704217 0.147892 0.0196226 0.128269) 146 293 1
(0.246429 0.0623125 0.314473 0.376786) 1548 2897 2
(0.0233519 0.488324 0.44309 0.0452344) 29 56 2
(0.365836 0.317082 0.0866548 0.230427) 246 490 2
(0.0966316 0.351744 0.0999401 0.451684) 1941 3683 2
(0.0773651 0.39023 0.461317 0.0710874) 1046 2090 1
(0.0653506 0.0302965 0.467325 0.437028) 545 1091 2
(0.399861 0.300069 0.0588785 0.241191) 1245 2491 1
(0.504229 0.075191 0.172695 0.247886) 744 1289 2
(0.23199 0.384005 0.285708 0.0982966) 844 1686 2
(0.240125 0.379937 0.142442 0.237496) 1243 2487 1
(0.352773 0.243672 0.323613 0.0799411) 38 77 2
(0.231769 0.138163 0.384116 0.245952) 642 1282 1
(0.679302 0.160349 0.0295174 0.130832) 1241 2480 2
(0.408115 0.199505 0.295942 0.0964369) 540 1081 2
(0.00263253 0.498684 0.394975 0.103709) 540 1078 2
(0.0765717 0.461714 0.290899 0.170815) 739 1279 1
(0.24403 0.232818 0.377985 0.145168) 1138 2277 2
(0.304495 0.347753 0.0199654 0.327787) 1537 3074 2
(0.551169 0.214338 0.224415 0.0100775) 937 1872 1
(0.185985 0.374791 0.0322169 0.407008) 836 1473 2
(0.00625852 0.128848 0.368023 0.496871) 1435 2671 2
(0.234614 0.0165228 0.36617 0.382693) 334 469 2
(0.136865 0.388593 0.431568 0.0429749) 734 1469 2
(0.10444 0.19266 0.25512 0.44778) 1633 3067 2
(0.207597 0.396201 0.144912 0.25129) 132 265 1
)


// ************************************************************************* //
