/*--------------------------------*- C++ -*----------------------------------*\
| =========                 |                                                 |
| \\      /  F ield         | OpenFOAM: The Open Source CFD Toolbox           |
|  \\    /   O peration     | Version:  v2012                                 |
|   \\  /    A nd           | Website:  www.openfoam.com                      |
|    \\/     M anipulation  |                                                 |
\*---------------------------------------------------------------------------*/
FoamFile
{
    version     2.0;
    format      ascii;
    class       vectorField;
    location    "0.098/lagrangian/kinematicCloud";
    object      U;
}
// * * * * * * * * * * * * * * * * * * * * * * * * * * * * * * * * * * * * * //


54
(
(9.47756 -0.00044823 0)
(10.2129 -0.00073529 0)
(10.2197 -0.000684873 0)
(10.121 1.31188e-05 0)
(10.0975 -0.00129953 0)
(10.2329 -0.00100661 0)
(6.4506 -0.00144388 0)
(9.67243 -0.00250097 0)
(9.73274 -0.00298352 0)
(10.2316 0.00116575 0)
(10.2475 0.000149763 0)
(10.0194 0.00251493 0)
(8.31133 -0.00236677 0)
(8.34155 0.00135833 0)
(8.71743 -0.00196413 0)
(10.2556 -0.00010953 0)
(9.57729 0.00342984 0)
(9.08002 -0.00335591 0)
(10.0984 0.00483487 0)
(9.79113 -0.00550237 0)
(10.2138 -0.00560521 0)
(9.34637 -0.00522942 0)
(10.1973 -0.00616562 0)
(9.97161 0.00503383 0)
(10.2462 0.0024163 0)
(10.2161 -0.00601882 0)
(9.80505 0.00507172 0)
(10.0941 -0.0067599 0)
(8.98602 0.00371871 0)
(10.036 -0.00680101 0)
(3.61681 -0.000431257 0)
(9.45403 0.0031309 0)
(8.12838 -0.00424272 0)
(10.2416 -0.00182652 0)
(10.1948 0.00518297 0)
(10.2342 -0.00536034 0)
(10.2356 0.00372219 0)
(10.2409 0.00228586 0)
(10.2341 -0.00540033 0)
(8.2868 0.000128159 0)
(10.2329 0.00431382 0)
(10.2388 -0.00478128 0)
(10.2078 0.00529897 0)
(10.1681 0.00553131 0)
(10.2381 0.00384104 0)
(10.2415 -0.00377978 0)
(10.1467 -0.00710476 0)
(10.2416 0.000101778 0)
(10.242 0.0023064 0)
(10.2285 -0.00629441 0)
(9.93946 0.00492325 0)
(10.2448 0.00248754 0)
(10.09 -0.00676433 0)
(9.60176 0.00487672 0)
)


// ************************************************************************* //
