/*--------------------------------*- C++ -*----------------------------------*\
| =========                 |                                                 |
| \\      /  F ield         | OpenFOAM: The Open Source CFD Toolbox           |
|  \\    /   O peration     | Version:  v2012                                 |
|   \\  /    A nd           | Website:  www.openfoam.com                      |
|    \\/     M anipulation  |                                                 |
\*---------------------------------------------------------------------------*/
FoamFile
{
    version     2.0;
    format      ascii;
    class       vectorField;
    location    "0.098/lagrangian/kinematicCloud";
    object      UCorrect;
}
// * * * * * * * * * * * * * * * * * * * * * * * * * * * * * * * * * * * * * //


101
(
(-2.66292e-25 -9.71705e-28 0)
(0 0 0)
(-2.53057e-25 -2.21819e-29 0)
(0 0 0)
(-2.48119e-25 6.51417e-29 0)
(-2.53603e-25 2.47068e-29 0)
(0 0 0)
(-2.42832e-25 -1.34699e-28 0)
(0 0 0)
(-2.59111e-25 -8.57288e-30 0)
(0 0 0)
(0 0 0)
(2.04656e-07 -3.79572e-11 0)
(-1.48468e-33 -3.831e-37 0)
(0 0 0)
(-2.60958e-25 2.93918e-28 0)
(0 0 0)
(0 0 0)
(-2.78544e-25 2.52224e-28 0)
(0 0 0)
(0 0 0)
(2.09216e-07 1.48682e-09 0)
(0 0 0)
(0 0 0)
(-2.7052e-25 1.1635e-27 0)
(0 0 0)
(-2.97051e-25 6.00844e-27 0)
(0 0 0)
(-2.91973e-25 2.06847e-26 0)
(-2.57411e-25 6.74408e-28 0)
(0 0 0)
(0 0 0)
(0 0 0)
(-2.97106e-25 7.06172e-27 0)
(0 0 0)
(0 0 0)
(0 0 0)
(-3.40015e-25 2.40311e-26 0)
(-7.23236e-28 3.19515e-29 0)
(0 0 0)
(0 0 0)
(0 0 0)
(0 0 0)
(0 0 0)
(-8.43288e-25 1.38638e-25 0)
(0 0 0)
(0 0 0)
(-1.17687e-24 1.05216e-25 0)
(0 0 0)
(0 0 0)
(0 0 0)
(-1.38412e-24 2.40873e-26 0)
(0 0 0)
(0 0 0)
(0 0 0)
(0 0 0)
(-2.12584e-07 -1.52496e-09 0)
(0 0 0)
(0 0 0)
(0 0 0)
(0 0 0)
(-7.8229e-10 -8.00821e-11 0)
(5.41849e-10 5.79606e-11 0)
(0 0 0)
(0 0 0)
(0 0 0)
(0 0 0)
(0 0 0)
(0 0 0)
(0 0 0)
(0 0 0)
(0 0 0)
(0 0 0)
(0 0 0)
(0 0 0)
(0 0 0)
(-2.06423e-07 3.80678e-11 0)
(0 0 0)
(0 0 0)
(0 0 0)
(-8.58056e-10 1.26999e-14 0)
(5.99049e-10 -9.74569e-14 0)
(0 0 0)
(0 0 0)
(-1.54923e-29 2.30996e-33 0)
(-2.92825e-25 -2.97214e-29 0)
(-8.98226e-30 -6.07178e-34 0)
(-2.95884e-25 -1.14638e-29 0)
(0 0 0)
(0 0 0)
(0 0 0)
(3.04578e-28 -2.6221e-31 0)
(-2.64974e-09 -4.21466e-14 0)
(-1.52805e-25 2.66295e-30 0)
(-1.53629e-25 1.08946e-29 0)
(-3.6591e-09 1.06374e-13 0)
(-1.55313e-25 6.98054e-31 0)
(3.05506e-09 -9.91726e-14 0)
(2.5259e-09 4.01958e-14 0)
(0 0 0)
(0 0 0)
)


// ************************************************************************* //
