/*--------------------------------*- C++ -*----------------------------------*\
| =========                 |                                                 |
| \\      /  F ield         | OpenFOAM: The Open Source CFD Toolbox           |
|  \\    /   O peration     | Version:  v2012                                 |
|   \\  /    A nd           | Website:  www.openfoam.com                      |
|    \\/     M anipulation  |                                                 |
\*---------------------------------------------------------------------------*/
FoamFile
{
    version     2.0;
    format      ascii;
    class       vectorField;
    location    "0.094/lagrangian/kinematicCloud";
    object      U;
}
// * * * * * * * * * * * * * * * * * * * * * * * * * * * * * * * * * * * * * //


54
(
(16.1185 0.00746729 0)
(18.3529 0.00429114 0)
(18.3237 -0.0060965 0)
(17.5707 0.00897263 0)
(17.4688 -0.0110921 0)
(18.1783 -0.00690381 0)
(11.1607 0.000560546 0)
(16.3337 -0.0107959 0)
(16.4211 -0.0111942 0)
(17.8453 0.00801619 0)
(18.0274 0.00373397 0)
(16.9946 0.0102342 0)
(13.6375 -0.00576811 0)
(13.5823 0.00482258 0)
(14.2891 -0.00659118 0)
(17.7869 0.000542715 0)
(15.7776 0.00932613 0)
(14.782 -0.00858523 0)
(16.9315 0.0114426 0)
(16.1899 -0.0125872 0)
(17.3065 -0.012524 0)
(15.1659 -0.0107009 0)
(17.1376 -0.0132269 0)
(16.3935 0.0118708 0)
(17.3413 0.00627497 0)
(17.1164 -0.0130063 0)
(15.8916 0.0115125 0)
(16.6401 -0.014347 0)
(14.1561 0.00772291 0)
(16.4318 -0.0144858 0)
(4.80038 -0.000104969 0)
(14.9697 0.00925454 0)
(12.4828 -0.00640183 0)
(16.914 -0.00372913 0)
(16.6744 0.0126744 0)
(16.806 -0.0123235 0)
(16.757 0.00991745 0)
(16.7267 0.00647478 0)
(16.6284 -0.0125238 0)
(12.5145 0.00397154 0)
(16.4943 0.0114994 0)
(16.4612 -0.0111384 0)
(16.2637 0.0136562 0)
(16.0609 0.0143345 0)
(16.2543 0.0104973 0)
(16.198 -0.00874692 0)
(15.8232 -0.016653 0)
(16.0555 0.00102628 0)
(15.9827 0.00662852 0)
(15.8648 -0.0152689 0)
(14.9828 0.0136006 0)
(15.7626 0.00712217 0)
(15.255 -0.0168557 0)
(14.0054 0.0112729 0)
)


// ************************************************************************* //
