/*--------------------------------*- C++ -*----------------------------------*\
| =========                 |                                                 |
| \\      /  F ield         | OpenFOAM: The Open Source CFD Toolbox           |
|  \\    /   O peration     | Version:  v2012                                 |
|   \\  /    A nd           | Website:  www.openfoam.com                      |
|    \\/     M anipulation  |                                                 |
\*---------------------------------------------------------------------------*/
FoamFile
{
    version     2.0;
    format      ascii;
    class       vectorField;
    location    "0.094/lagrangian/kinematicCloud";
    object      U;
}
// * * * * * * * * * * * * * * * * * * * * * * * * * * * * * * * * * * * * * //

8((6.4449 -0.00477567 0) (15.6953 0.251021 0) (15.1591 -0.0151515 0) (16.294 0.270091 0) (21.2574 -0.248387 0) (23.363 -0.198768 0) (22.9173 -0.0504457 0) (17.6513 -0.332805 0))

// ************************************************************************* //
