/*--------------------------------*- C++ -*----------------------------------*\
| =========                 |                                                 |
| \\      /  F ield         | OpenFOAM: The Open Source CFD Toolbox           |
|  \\    /   O peration     | Version:  v2012                                 |
|   \\  /    A nd           | Website:  www.openfoam.com                      |
|    \\/     M anipulation  |                                                 |
\*---------------------------------------------------------------------------*/
FoamFile
{
    version     2.0;
    format      ascii;
    class       volVectorField;
    location    "0.136";
    object      U.air;
}
// * * * * * * * * * * * * * * * * * * * * * * * * * * * * * * * * * * * * * //

dimensions      [0 1 -1 0 0 0 0];


internalField   nonuniform List<vector> 
5600
(
(18.5969 0.0138481 0)
(18.1355 0.0315854 0)
(17.5526 0.0442214 0)
(16.8978 0.0497183 0)
(16.2193 0.047983 0)
(15.5637 0.0415309 0)
(14.9524 0.0328054 0)
(14.4135 0.0235341 0)
(13.9483 0.0152945 0)
(13.5506 0.00860238 0)
(13.218 0.00288388 0)
(12.9539 -0.00192171 0)
(12.7479 -0.00572118 0)
(12.5974 -0.00842894 0)
(12.489 -0.0100862 0)
(12.4165 -0.0107983 0)
(12.3698 -0.010742 0)
(12.3393 -0.0101191 0)
(12.3232 -0.00933389 0)
(12.3111 -0.00854532 0)
(12.306 -0.00793438 0)
(12.3004 -0.00723261 0)
(12.2976 -0.00674715 0)
(12.2939 -0.00630484 0)
(12.2928 -0.00609409 0)
(12.2914 -0.00594792 0)
(12.2919 -0.00588909 0)
(12.2926 -0.00578946 0)
(12.2945 -0.00570502 0)
(12.2964 -0.00567035 0)
(12.2993 -0.00556862 0)
(12.3009 -0.00544754 0)
(12.3031 -0.00526427 0)
(12.3034 -0.0050784 0)
(12.3036 -0.00487913 0)
(12.3025 -0.00469638 0)
(12.3012 -0.0045246 0)
(12.2988 -0.0043859 0)
(12.2965 -0.00425196 0)
(12.2932 -0.00415527 0)
(12.2905 -0.00406925 0)
(12.2868 -0.00399915 0)
(12.2838 -0.00392739 0)
(12.2799 -0.00388684 0)
(12.2772 -0.00385853 0)
(12.2736 -0.00384236 0)
(12.2714 -0.00383108 0)
(12.2682 -0.00383421 0)
(12.2664 -0.00383114 0)
(12.2636 -0.00383656 0)
(12.2623 -0.00383043 0)
(12.2597 -0.00383188 0)
(12.2588 -0.0038239 0)
(12.2565 -0.00382096 0)
(12.2558 -0.00381082 0)
(12.2538 -0.00380487 0)
(12.2535 -0.00380412 0)
(12.2517 -0.00382935 0)
(12.2518 -0.00386045 0)
(12.2506 -0.00389108 0)
(12.2509 -0.00391349 0)
(12.2503 -0.0039609 0)
(12.2509 -0.00398153 0)
(12.2506 -0.0040287 0)
(12.2519 -0.00405731 0)
(12.2517 -0.00409934 0)
(12.2537 -0.00412609 0)
(12.2538 -0.00416091 0)
(12.2562 -0.00418462 0)
(12.2567 -0.00422193 0)
(12.2596 -0.00423249 0)
(12.2602 -0.00426099 0)
(12.2637 -0.00427554 0)
(12.2645 -0.00430524 0)
(12.2685 -0.00431561 0)
(12.2694 -0.00434473 0)
(12.274 -0.00435205 0)
(12.275 -0.00437889 0)
(12.2802 -0.00438608 0)
(12.2811 -0.00440581 0)
(12.287 -0.00441054 0)
(12.2877 -0.00442714 0)
(12.2942 -0.00443379 0)
(12.2949 -0.0044494 0)
(12.3018 -0.00446638 0)
(12.3026 -0.00445949 0)
(12.3098 -0.00449773 0)
(12.311 -0.00445057 0)
(12.3178 -0.00452967 0)
(12.3202 -0.00442097 0)
(12.325 -0.0046001 0)
(12.3311 -0.00444552 0)
(12.3327 -0.00466644 0)
(12.3431 -0.00433992 0)
(12.3388 -0.00476294 0)
(12.3575 -0.00425061 0)
(12.3434 -0.00463784 0)
(12.3752 -0.00634616 0)
(12.3885 -0.00055504 0)
(12.2443 -0.0167607 0)
(18.7901 0.0365727 0)
(18.8039 0.0482764 0)
(18.7962 0.0516426 0)
(18.7578 0.0559299 0)
(18.6851 0.0582948 0)
(18.5782 0.0587089 0)
(18.4414 0.0574821 0)
(18.2775 0.0549856 0)
(18.0937 0.051037 0)
(17.898 0.0468005 0)
(17.6954 0.0420754 0)
(17.4908 0.0369311 0)
(17.2863 0.031693 0)
(17.0888 0.0266245 0)
(16.9006 0.021981 0)
(16.7248 0.017889 0)
(16.5643 0.0145869 0)
(16.4168 0.0118397 0)
(16.2876 0.00966445 0)
(16.1692 0.00788824 0)
(16.0687 0.00656923 0)
(15.9765 0.0055773 0)
(15.9007 0.00480264 0)
(15.8317 0.0040879 0)
(15.7775 0.00359423 0)
(15.7261 0.00323854 0)
(15.6847 0.00292224 0)
(15.6453 0.00266441 0)
(15.6138 0.00242872 0)
(15.5824 0.00227895 0)
(15.5553 0.00218828 0)
(15.5277 0.00213535 0)
(15.5038 0.00207288 0)
(15.4795 0.00206387 0)
(15.4589 0.00203837 0)
(15.4379 0.0019949 0)
(15.4203 0.00195868 0)
(15.4025 0.00191557 0)
(15.3875 0.0018878 0)
(15.3722 0.00182461 0)
(15.3593 0.00177112 0)
(15.3461 0.0016964 0)
(15.3351 0.00163438 0)
(15.3238 0.00157393 0)
(15.3145 0.00150553 0)
(15.3047 0.00143424 0)
(15.2967 0.00137964 0)
(15.2881 0.00132021 0)
(15.2811 0.0012737 0)
(15.2734 0.00122035 0)
(15.2673 0.00118128 0)
(15.2606 0.00113301 0)
(15.2553 0.00109566 0)
(15.2493 0.00104785 0)
(15.2448 0.00100842 0)
(15.2397 0.00095534 0)
(15.236 0.000927115 0)
(15.2317 0.000909184 0)
(15.2288 0.000884291 0)
(15.2253 0.000873066 0)
(15.2232 0.000864036 0)
(15.2204 0.000862708 0)
(15.219 0.000863005 0)
(15.2169 0.000837452 0)
(15.2162 0.000840477 0)
(15.2148 0.000824843 0)
(15.2147 0.000822637 0)
(15.2141 0.000807488 0)
(15.2145 0.00080018 0)
(15.2144 0.000781738 0)
(15.2154 0.000776207 0)
(15.2158 0.000752633 0)
(15.2173 0.000745183 0)
(15.2181 0.000718367 0)
(15.2202 0.000712303 0)
(15.2214 0.000686055 0)
(15.224 0.000680326 0)
(15.2255 0.000656725 0)
(15.2287 0.000646749 0)
(15.2304 0.000629244 0)
(15.2342 0.000619387 0)
(15.236 0.000603809 0)
(15.2405 0.000591441 0)
(15.2423 0.000572798 0)
(15.2475 0.000558282 0)
(15.2492 0.000553341 0)
(15.2555 0.000524142 0)
(15.2567 0.000541453 0)
(15.2646 0.000491728 0)
(15.2646 0.0005507 0)
(15.2741 0.00043767 0)
(15.2726 0.000495618 0)
(15.2849 0.000416737 0)
(15.2798 0.000521081 0)
(15.2983 0.000347104 0)
(15.2848 0.000512221 0)
(15.3186 7.14033e-05 0)
(15.2857 -0.000874341 0)
(15.3588 0.00477735 0)
(15.2581 -0.0278291 0)
(18.7905 0.0259617 0)
(18.8272 0.0395182 0)
(18.8715 0.0482515 0)
(18.9161 0.0560443 0)
(18.9584 0.0604976 0)
(18.9942 0.0616086 0)
(19.0215 0.0601474 0)
(19.0363 0.0562286 0)
(19.0337 0.0532513 0)
(19.0183 0.0489624 0)
(18.9878 0.0442938 0)
(18.9408 0.0395872 0)
(18.8769 0.0351833 0)
(18.7962 0.0310531 0)
(18.6999 0.0275377 0)
(18.5898 0.0241543 0)
(18.4686 0.0214061 0)
(18.3392 0.0189225 0)
(18.2064 0.0167584 0)
(18.0708 0.0148151 0)
(17.9417 0.0130076 0)
(17.8141 0.0113196 0)
(17.6992 0.00963906 0)
(17.5895 0.00795223 0)
(17.494 0.00642463 0)
(17.4046 0.00517949 0)
(17.3281 0.00407051 0)
(17.2561 0.00315686 0)
(17.1949 0.00243063 0)
(17.1354 0.00199311 0)
(17.0846 0.00170802 0)
(17.0343 0.00151435 0)
(16.9921 0.00134205 0)
(16.9502 0.00119771 0)
(16.9156 0.00104437 0)
(16.8811 0.000877339 0)
(16.8525 0.000691792 0)
(16.8238 0.000520482 0)
(16.7999 0.000364593 0)
(16.7757 0.000200271 0)
(16.7555 5.49912e-05 0)
(16.735 -9.51286e-05 0)
(16.7179 -0.00023128 0)
(16.7006 -0.000335242 0)
(16.686 -0.000435746 0)
(16.6709 -0.000516609 0)
(16.658 -0.000580923 0)
(16.6445 -0.000652876 0)
(16.6332 -0.000713945 0)
(16.6214 -0.000781714 0)
(16.6115 -0.000834497 0)
(16.6011 -0.000893338 0)
(16.5926 -0.00093845 0)
(16.5836 -0.000988752 0)
(16.5763 -0.00102514 0)
(16.5685 -0.00106334 0)
(16.5625 -0.001084 0)
(16.5558 -0.00113699 0)
(16.5509 -0.00119194 0)
(16.5454 -0.0012488 0)
(16.5415 -0.00130994 0)
(16.5371 -0.00139622 0)
(16.5341 -0.00145273 0)
(16.5306 -0.00153015 0)
(16.5285 -0.00159702 0)
(16.5259 -0.00167844 0)
(16.5246 -0.00174687 0)
(16.5227 -0.00181158 0)
(16.5221 -0.00185723 0)
(16.5209 -0.00192637 0)
(16.5209 -0.00196359 0)
(16.5206 -0.00202276 0)
(16.5211 -0.00206389 0)
(16.5212 -0.00211747 0)
(16.5223 -0.00215241 0)
(16.5229 -0.00220103 0)
(16.5245 -0.0022284 0)
(16.5254 -0.00228369 0)
(16.5276 -0.00231406 0)
(16.5291 -0.00235815 0)
(16.5318 -0.00237663 0)
(16.5335 -0.00242023 0)
(16.5369 -0.00243666 0)
(16.5388 -0.00249163 0)
(16.5429 -0.002501 0)
(16.5448 -0.00255813 0)
(16.5499 -0.00256808 0)
(16.5516 -0.00262605 0)
(16.558 -0.00262616 0)
(16.5592 -0.0026559 0)
(16.5673 -0.00267263 0)
(16.5672 -0.00272321 0)
(16.5769 -0.00269834 0)
(16.5751 -0.00277881 0)
(16.5883 -0.00272904 0)
(16.5825 -0.00300804 0)
(16.6034 -0.00284623 0)
(16.5884 -0.00481332 0)
(16.6322 -1.00664e-05 0)
(16.6059 -0.0256373 0)
(18.7889 0.0234343 0)
(18.8253 0.0378376 0)
(18.8727 0.0450527 0)
(18.924 0.0512162 0)
(18.9779 0.0545656 0)
(19.0326 0.05527 0)
(19.088 0.0541559 0)
(19.138 0.0523947 0)
(19.1854 0.0496435 0)
(19.2256 0.0469444 0)
(19.2619 0.044239 0)
(19.2909 0.0416997 0)
(19.3143 0.0393285 0)
(19.3297 0.0372374 0)
(19.3388 0.0351528 0)
(19.3378 0.0340027 0)
(19.3293 0.0326796 0)
(19.3118 0.0313846 0)
(19.2842 0.0302189 0)
(19.2458 0.0289343 0)
(19.1964 0.0274963 0)
(19.1356 0.0259223 0)
(19.0644 0.0241177 0)
(18.9831 0.0222026 0)
(18.8941 0.0202573 0)
(18.7999 0.0184512 0)
(18.7044 0.0166649 0)
(18.6075 0.0149011 0)
(18.5166 0.0132922 0)
(18.4273 0.0118935 0)
(18.3491 0.0106875 0)
(18.2733 0.00960248 0)
(18.2085 0.00860374 0)
(18.1457 0.00772334 0)
(18.0929 0.00697345 0)
(18.0407 0.0063699 0)
(17.9957 0.00584508 0)
(17.9506 0.00540644 0)
(17.912 0.00501185 0)
(17.8731 0.00464905 0)
(17.84 0.00431429 0)
(17.8066 0.00400149 0)
(17.7785 0.00369433 0)
(17.7501 0.00341544 0)
(17.7264 0.00312162 0)
(17.7026 0.00288934 0)
(17.6825 0.00268251 0)
(17.6621 0.00247804 0)
(17.6448 0.00229129 0)
(17.6271 0.00211225 0)
(17.6122 0.00195347 0)
(17.5968 0.00179748 0)
(17.5839 0.00165814 0)
(17.5705 0.00151624 0)
(17.5595 0.00139093 0)
(17.548 0.00126161 0)
(17.5387 0.00113779 0)
(17.5288 0.000971349 0)
(17.5212 0.000797129 0)
(17.5128 0.000636556 0)
(17.5065 0.000475855 0)
(17.4996 0.00028593 0)
(17.4945 0.000133084 0)
(17.4888 -5.16815e-05 0)
(17.4847 -0.000160506 0)
(17.48 -0.000279863 0)
(17.4769 -0.000389473 0)
(17.4732 -0.000500674 0)
(17.471 -0.000595064 0)
(17.4681 -0.000703455 0)
(17.4666 -0.000798939 0)
(17.4646 -0.000899628 0)
(17.4638 -0.000963702 0)
(17.4625 -0.00106502 0)
(17.4621 -0.00112301 0)
(17.4614 -0.00122036 0)
(17.4616 -0.00126787 0)
(17.4616 -0.0013621 0)
(17.4622 -0.00143501 0)
(17.4629 -0.00151944 0)
(17.4642 -0.00156967 0)
(17.4654 -0.00164832 0)
(17.4672 -0.00169688 0)
(17.4689 -0.00177694 0)
(17.4712 -0.00182051 0)
(17.4733 -0.00191131 0)
(17.4762 -0.00195927 0)
(17.479 -0.00205385 0)
(17.4823 -0.00207976 0)
(17.4858 -0.00215499 0)
(17.4894 -0.00217487 0)
(17.4937 -0.00227286 0)
(17.497 -0.00222074 0)
(17.5025 -0.00239632 0)
(17.5051 -0.00224669 0)
(17.5121 -0.00281201 0)
(17.5147 -0.00231035 0)
(17.5222 -0.00527618 0)
(17.5326 6.02057e-05 0)
(17.5504 -0.0294289 0)
(18.7873 0.0198293 0)
(18.8223 0.0334038 0)
(18.8695 0.0390045 0)
(18.9212 0.0442521 0)
(18.9759 0.047524 0)
(19.0323 0.0484238 0)
(19.0901 0.0478151 0)
(19.1442 0.0462127 0)
(19.1975 0.0440259 0)
(19.2458 0.0417068 0)
(19.2926 0.0392041 0)
(19.3348 0.0367099 0)
(19.3743 0.0343487 0)
(19.4108 0.032159 0)
(19.4437 0.0305473 0)
(19.4752 0.02901 0)
(19.5028 0.0279342 0)
(19.5297 0.0271569 0)
(19.5527 0.0267484 0)
(19.5745 0.0264319 0)
(19.5924 0.026231 0)
(19.6068 0.0260492 0)
(19.6175 0.0258162 0)
(19.6215 0.0254733 0)
(19.6193 0.0251571 0)
(19.6105 0.0246265 0)
(19.5938 0.0239534 0)
(19.5685 0.0230878 0)
(19.5347 0.0221536 0)
(19.4929 0.0211508 0)
(19.4445 0.020026 0)
(19.39 0.0188568 0)
(19.3315 0.0175846 0)
(19.2697 0.0162858 0)
(19.2071 0.0150183 0)
(19.1428 0.0138018 0)
(19.0824 0.012682 0)
(19.0211 0.0116167 0)
(18.9661 0.0106439 0)
(18.9105 0.00969649 0)
(18.862 0.00883073 0)
(18.8131 0.00800164 0)
(18.7711 0.00723266 0)
(18.7286 0.00654598 0)
(18.6927 0.00588906 0)
(18.6566 0.00539393 0)
(18.6253 0.00498014 0)
(18.5935 0.00458685 0)
(18.5661 0.00422003 0)
(18.5382 0.00387215 0)
(18.5143 0.00355225 0)
(18.4899 0.00323843 0)
(18.4691 0.00294768 0)
(18.4479 0.00265012 0)
(18.43 0.00237411 0)
(18.4117 0.00207926 0)
(18.3965 0.0018118 0)
(18.3808 0.00154585 0)
(18.3679 0.0012779 0)
(18.3545 0.00102832 0)
(18.3435 0.000813776 0)
(18.3319 0.000592102 0)
(18.3224 0.000396911 0)
(18.3124 0.000179139 0)
(18.3042 4.71647e-05 0)
(18.2956 -8.93385e-05 0)
(18.2886 -0.000221075 0)
(18.2813 -0.000360268 0)
(18.2755 -0.00048564 0)
(18.2694 -0.000627234 0)
(18.2647 -0.000756182 0)
(18.2598 -0.000887609 0)
(18.2561 -0.000998945 0)
(18.2523 -0.0011238 0)
(18.2495 -0.00122759 0)
(18.2468 -0.00133206 0)
(18.2447 -0.00143145 0)
(18.243 -0.00154761 0)
(18.2416 -0.0016573 0)
(18.2409 -0.0017599 0)
(18.2401 -0.00186119 0)
(18.2402 -0.00194393 0)
(18.2401 -0.00202188 0)
(18.2409 -0.00212861 0)
(18.241 -0.00218446 0)
(18.2427 -0.0023079 0)
(18.2431 -0.00238535 0)
(18.2459 -0.0025116 0)
(18.2465 -0.00257283 0)
(18.2507 -0.00266837 0)
(18.2511 -0.00272769 0)
(18.2566 -0.00281353 0)
(18.2565 -0.00281828 0)
(18.2633 -0.00295762 0)
(18.2628 -0.00291212 0)
(18.2709 -0.00341073 0)
(18.2711 -0.00312505 0)
(18.279 -0.00594919 0)
(18.2845 -0.003488 0)
(18.2995 -0.0278141 0)
(18.7859 0.0160586 0)
(18.8195 0.0284001 0)
(18.8663 0.033002 0)
(18.9178 0.0375817 0)
(18.9723 0.0405714 0)
(19.0287 0.0413202 0)
(19.0862 0.0407485 0)
(19.1412 0.0392969 0)
(19.1946 0.0374581 0)
(19.2442 0.0354539 0)
(19.2918 0.0332926 0)
(19.3359 0.0311964 0)
(19.3774 0.0292325 0)
(19.4165 0.027535 0)
(19.4529 0.0261646 0)
(19.4883 0.0251136 0)
(19.5216 0.0243879 0)
(19.5547 0.0238628 0)
(19.5862 0.0235825 0)
(19.6179 0.0233479 0)
(19.6482 0.0232072 0)
(19.6788 0.0230455 0)
(19.7077 0.0228797 0)
(19.7369 0.0227335 0)
(19.7637 0.022464 0)
(19.7907 0.0222118 0)
(19.8145 0.0220396 0)
(19.8381 0.0218602 0)
(19.8579 0.0217206 0)
(19.8765 0.0215592 0)
(19.8907 0.0213883 0)
(19.9017 0.0211891 0)
(19.9089 0.0208638 0)
(19.9097 0.0206026 0)
(19.9061 0.0202007 0)
(19.8975 0.0196976 0)
(19.8839 0.0191348 0)
(19.8652 0.0184807 0)
(19.8419 0.0177448 0)
(19.8142 0.0169505 0)
(19.783 0.0160812 0)
(19.7484 0.0152034 0)
(19.7117 0.0142509 0)
(19.6727 0.0133542 0)
(19.6334 0.0123771 0)
(19.5926 0.0114217 0)
(19.554 0.0105768 0)
(19.5141 0.00976787 0)
(19.4778 0.00901889 0)
(19.4405 0.0082923 0)
(19.4074 0.00762518 0)
(19.3736 0.00696277 0)
(19.3441 0.00636283 0)
(19.314 0.00576747 0)
(19.288 0.00523703 0)
(19.2614 0.00471859 0)
(19.2385 0.00424138 0)
(19.2155 0.00383071 0)
(19.1949 0.00345129 0)
(19.174 0.00312307 0)
(19.1553 0.00282037 0)
(19.1364 0.00251254 0)
(19.1194 0.00223789 0)
(19.1025 0.00195307 0)
(19.0873 0.0016892 0)
(19.0725 0.00141403 0)
(19.059 0.00115418 0)
(19.0461 0.000901661 0)
(19.0343 0.00066909 0)
(19.0232 0.000432244 0)
(19.013 0.000206229 0)
(19.0037 -5.45814e-06 0)
(18.995 -0.000212934 0)
(18.9875 -0.00041392 0)
(18.9802 -0.000616529 0)
(18.9742 -0.000796277 0)
(18.9681 -0.000977185 0)
(18.9634 -0.00115327 0)
(18.9582 -0.00133529 0)
(18.9546 -0.00149656 0)
(18.9503 -0.00164606 0)
(18.9478 -0.00179 0)
(18.9441 -0.00193351 0)
(18.9427 -0.00203709 0)
(18.9395 -0.00218631 0)
(18.9391 -0.0023039 0)
(18.9367 -0.00249204 0)
(18.9371 -0.0026077 0)
(18.9357 -0.00277469 0)
(18.937 -0.00286989 0)
(18.936 -0.00297588 0)
(18.9384 -0.00308516 0)
(18.9376 -0.00314675 0)
(18.9409 -0.0032887 0)
(18.9407 -0.00332467 0)
(18.9443 -0.00378258 0)
(18.9457 -0.00372422 0)
(18.9497 -0.00644602 0)
(18.9552 -0.0052866 0)
(18.9643 -0.0265098 0)
(18.7853 0.0125995 0)
(18.8171 0.0228325 0)
(18.8634 0.0264647 0)
(18.9148 0.0301761 0)
(18.969 0.0326649 0)
(19.0252 0.0332376 0)
(19.0822 0.0327608 0)
(19.1376 0.0316054 0)
(19.1906 0.0301191 0)
(19.2405 0.0284855 0)
(19.288 0.0267305 0)
(19.3324 0.0250615 0)
(19.3741 0.0234779 0)
(19.4135 0.0221182 0)
(19.4505 0.0209882 0)
(19.4862 0.0201499 0)
(19.5204 0.0195211 0)
(19.554 0.0190272 0)
(19.5867 0.0187394 0)
(19.6193 0.0185134 0)
(19.6514 0.0183777 0)
(19.6836 0.0182468 0)
(19.7151 0.0181199 0)
(19.7468 0.0179981 0)
(19.7778 0.0178252 0)
(19.8088 0.0176818 0)
(19.8391 0.0176012 0)
(19.8696 0.0174987 0)
(19.899 0.0174078 0)
(19.9289 0.0172947 0)
(19.9574 0.0172439 0)
(19.9865 0.0171595 0)
(20.0137 0.0171291 0)
(20.0417 0.0171218 0)
(20.0671 0.0170597 0)
(20.0935 0.016973 0)
(20.1159 0.0168982 0)
(20.1398 0.0168207 0)
(20.1585 0.0167234 0)
(20.1788 0.0166032 0)
(20.1928 0.0164546 0)
(20.208 0.0162564 0)
(20.2167 0.0160416 0)
(20.2249 0.0157331 0)
(20.2282 0.0153409 0)
(20.228 0.0151025 0)
(20.2248 0.0147162 0)
(20.2188 0.0142756 0)
(20.2095 0.0137773 0)
(20.1976 0.0132544 0)
(20.1828 0.0126909 0)
(20.1657 0.0120976 0)
(20.1467 0.0114735 0)
(20.1258 0.0108346 0)
(20.1037 0.0101707 0)
(20.0804 0.00952084 0)
(20.0568 0.00882568 0)
(20.0324 0.00817452 0)
(20.0086 0.00749625 0)
(19.9846 0.00692733 0)
(19.9616 0.00635811 0)
(19.9387 0.00580879 0)
(19.9167 0.00528763 0)
(19.8957 0.00478849 0)
(19.8751 0.00429504 0)
(19.8559 0.00382942 0)
(19.8371 0.00337294 0)
(19.8198 0.00294817 0)
(19.8027 0.00253856 0)
(19.7874 0.00215321 0)
(19.772 0.00177955 0)
(19.7584 0.00143634 0)
(19.7446 0.00110708 0)
(19.7326 0.000833533 0)
(19.7198 0.000573344 0)
(19.7088 0.000338674 0)
(19.697 9.77908e-05 0)
(19.6873 -0.000138244 0)
(19.6765 -0.000398244 0)
(19.668 -0.000617499 0)
(19.6584 -0.000835838 0)
(19.6512 -0.00103667 0)
(19.6427 -0.00124305 0)
(19.6368 -0.0014159 0)
(19.6294 -0.00161535 0)
(19.6247 -0.00181227 0)
(19.6185 -0.00203763 0)
(19.6149 -0.00225549 0)
(19.6098 -0.00248294 0)
(19.6072 -0.00262949 0)
(19.6033 -0.00284638 0)
(19.6015 -0.0029601 0)
(19.5987 -0.00312733 0)
(19.5974 -0.00327221 0)
(19.5958 -0.00342024 0)
(19.595 -0.00392918 0)
(19.5948 -0.00403249 0)
(19.5956 -0.00668522 0)
(19.598 -0.00667792 0)
(19.6021 -0.0256712 0)
(18.7848 0.00893971 0)
(18.8152 0.0166318 0)
(18.861 0.0192915 0)
(18.9123 0.0220291 0)
(18.9663 0.0239125 0)
(19.0223 0.0243385 0)
(19.079 0.0239977 0)
(19.1345 0.0231626 0)
(19.1874 0.0220682 0)
(19.2373 0.0208712 0)
(19.2847 0.0195765 0)
(19.3292 0.0183511 0)
(19.3709 0.0171714 0)
(19.4102 0.0161502 0)
(19.4474 0.0152914 0)
(19.4831 0.0146524 0)
(19.5174 0.0141715 0)
(19.551 0.0137982 0)
(19.5839 0.0135954 0)
(19.6166 0.0134497 0)
(19.6489 0.0133728 0)
(19.6812 0.0133048 0)
(19.7131 0.0132335 0)
(19.7449 0.0131634 0)
(19.7764 0.0130611 0)
(19.8078 0.0129642 0)
(19.8388 0.0129015 0)
(19.8698 0.0128173 0)
(19.9004 0.0127418 0)
(19.931 0.0126593 0)
(19.9614 0.0126276 0)
(19.9918 0.0125736 0)
(20.0218 0.0125385 0)
(20.0521 0.0125475 0)
(20.0819 0.0124955 0)
(20.1119 0.0124221 0)
(20.1411 0.0123647 0)
(20.1708 0.0123154 0)
(20.1995 0.0122549 0)
(20.2287 0.0121924 0)
(20.2565 0.0121238 0)
(20.2851 0.0120524 0)
(20.3119 0.0120043 0)
(20.3397 0.0119196 0)
(20.365 0.0119105 0)
(20.3917 0.0118669 0)
(20.4151 0.0117828 0)
(20.4401 0.0117025 0)
(20.4611 0.0116294 0)
(20.4838 0.0115607 0)
(20.502 0.0114781 0)
(20.5219 0.0113818 0)
(20.5366 0.0112612 0)
(20.553 0.0111136 0)
(20.5636 0.0109419 0)
(20.5759 0.0107178 0)
(20.5822 0.0104925 0)
(20.5894 0.010203 0)
(20.5917 0.00998901 0)
(20.5937 0.00962109 0)
(20.5927 0.00938651 0)
(20.5907 0.00904779 0)
(20.5862 0.00865206 0)
(20.5806 0.00825496 0)
(20.5729 0.00782704 0)
(20.5644 0.00739403 0)
(20.554 0.00693548 0)
(20.5432 0.00647133 0)
(20.5309 0.00599395 0)
(20.5185 0.00551982 0)
(20.5048 0.00502565 0)
(20.4917 0.00455382 0)
(20.4774 0.0040457 0)
(20.4643 0.00358922 0)
(20.4501 0.00313753 0)
(20.4374 0.00275523 0)
(20.4236 0.00233649 0)
(20.4116 0.00198257 0)
(20.3986 0.00154773 0)
(20.3874 0.00117959 0)
(20.3752 0.000808407 0)
(20.365 0.00047476 0)
(20.3537 0.000118561 0)
(20.3446 -0.000195248 0)
(20.3345 -0.000540299 0)
(20.3265 -0.000888474 0)
(20.3177 -0.00120458 0)
(20.3106 -0.00149601 0)
(20.3029 -0.00178479 0)
(20.2966 -0.00202664 0)
(20.2898 -0.0022712 0)
(20.2841 -0.00247768 0)
(20.2783 -0.00264254 0)
(20.2728 -0.00285016 0)
(20.2678 -0.00300755 0)
(20.2628 -0.0035503 0)
(20.259 -0.0038532 0)
(20.255 -0.00676645 0)
(20.2546 -0.00750056 0)
(20.2525 -0.0238794 0)
(18.7845 0.00517833 0)
(18.8138 0.00980847 0)
(18.8592 0.011412 0)
(18.9105 0.0130959 0)
(18.9643 0.0142698 0)
(19.0201 0.0145281 0)
(19.0767 0.0143254 0)
(19.1322 0.013812 0)
(19.185 0.0131365 0)
(19.235 0.0124058 0)
(19.2824 0.0116048 0)
(19.3268 0.0108546 0)
(19.3686 0.0101248 0)
(19.4079 0.00949116 0)
(19.4451 0.00895276 0)
(19.4807 0.00855895 0)
(19.5151 0.00826622 0)
(19.5487 0.00803305 0)
(19.5817 0.00790698 0)
(19.6143 0.00781463 0)
(19.6467 0.00776365 0)
(19.6789 0.00771927 0)
(19.7109 0.00766996 0)
(19.7427 0.00761635 0)
(19.7742 0.00754525 0)
(19.8056 0.00746843 0)
(19.8367 0.00741959 0)
(19.8676 0.00736057 0)
(19.8984 0.00731234 0)
(19.9291 0.00725872 0)
(19.9596 0.00723914 0)
(19.9901 0.00720679 0)
(20.0204 0.00718154 0)
(20.0508 0.00720567 0)
(20.081 0.00718468 0)
(20.1112 0.0071444 0)
(20.1411 0.00711953 0)
(20.1711 0.00710409 0)
(20.2008 0.00708145 0)
(20.2305 0.0070532 0)
(20.26 0.00702761 0)
(20.2894 0.00698808 0)
(20.3185 0.00697534 0)
(20.3478 0.00691428 0)
(20.3765 0.00689793 0)
(20.4055 0.0068711 0)
(20.4338 0.0068259 0)
(20.4624 0.00677182 0)
(20.4904 0.00674109 0)
(20.5186 0.00670562 0)
(20.546 0.00667184 0)
(20.5739 0.00663601 0)
(20.6006 0.00660086 0)
(20.6281 0.00656889 0)
(20.654 0.00653499 0)
(20.6808 0.00650337 0)
(20.7057 0.0064904 0)
(20.7316 0.00647086 0)
(20.7554 0.00646802 0)
(20.7802 0.00645562 0)
(20.8025 0.00640628 0)
(20.8258 0.00635519 0)
(20.8463 0.00629968 0)
(20.8678 0.00625684 0)
(20.8862 0.00619937 0)
(20.9057 0.00613451 0)
(20.9216 0.00604989 0)
(20.9385 0.00594883 0)
(20.9517 0.00583395 0)
(20.9658 0.00569613 0)
(20.9759 0.00553723 0)
(20.9869 0.0053463 0)
(20.9939 0.00516146 0)
(21.0017 0.0049597 0)
(21.006 0.00477827 0)
(21.0109 0.00452942 0)
(21.0128 0.00432102 0)
(21.015 0.00395525 0)
(21.0149 0.00373398 0)
(21.0144 0.0034334 0)
(21.0126 0.00310932 0)
(21.0101 0.00279017 0)
(21.0065 0.00244501 0)
(21.0025 0.00208658 0)
(20.9976 0.00170088 0)
(20.9927 0.00127482 0)
(20.9872 0.000900654 0)
(20.9815 0.000534408 0)
(20.9754 0.000198539 0)
(20.9689 -0.000119565 0)
(20.9622 -0.000425935 0)
(20.955 -0.000747631 0)
(20.9478 -0.00102011 0)
(20.9403 -0.00134336 0)
(20.9335 -0.00164017 0)
(20.9261 -0.00230189 0)
(20.9202 -0.00287406 0)
(20.9132 -0.00556125 0)
(20.9093 -0.00757807 0)
(20.903 -0.0213257 0)
(18.7843 0.00122748 0)
(18.8131 0.002261 0)
(18.8583 0.00270034 0)
(18.9096 0.00325415 0)
(18.9633 0.00361302 0)
(19.019 0.00367037 0)
(19.0756 0.00361941 0)
(19.131 0.00345847 0)
(19.1838 0.00324932 0)
(19.2338 0.00303587 0)
(19.2811 0.00278606 0)
(19.3256 0.00256774 0)
(19.3674 0.00234261 0)
(19.4066 0.00214116 0)
(19.4439 0.00195246 0)
(19.4795 0.00182725 0)
(19.514 0.00173307 0)
(19.5475 0.00164179 0)
(19.5805 0.0015942 0)
(19.6131 0.00155939 0)
(19.6455 0.0015467 0)
(19.6777 0.0015438 0)
(19.7097 0.00153988 0)
(19.7415 0.00152884 0)
(19.7731 0.00151311 0)
(19.8044 0.00148723 0)
(19.8355 0.00147768 0)
(19.8665 0.00146184 0)
(19.8973 0.00144804 0)
(19.9279 0.001428 0)
(19.9584 0.00142447 0)
(19.9889 0.00141304 0)
(20.0193 0.00139455 0)
(20.0497 0.00142665 0)
(20.0799 0.0014266 0)
(20.1101 0.00140528 0)
(20.1401 0.00139115 0)
(20.17 0.00139166 0)
(20.1998 0.00138062 0)
(20.2296 0.00137194 0)
(20.2591 0.00135955 0)
(20.2886 0.00134244 0)
(20.3179 0.00133859 0)
(20.3472 0.00130583 0)
(20.3762 0.00130074 0)
(20.4052 0.00131348 0)
(20.434 0.00130256 0)
(20.4628 0.00128893 0)
(20.4913 0.00128644 0)
(20.5199 0.00128626 0)
(20.5482 0.001283 0)
(20.5765 0.00128103 0)
(20.6045 0.00127934 0)
(20.6326 0.00127423 0)
(20.6604 0.00126974 0)
(20.6882 0.00125311 0)
(20.7158 0.00125768 0)
(20.7434 0.00122909 0)
(20.7706 0.0012287 0)
(20.798 0.00118691 0)
(20.8249 0.00116163 0)
(20.8519 0.00114244 0)
(20.8785 0.0011201 0)
(20.9052 0.0011086 0)
(20.9314 0.00108984 0)
(20.9577 0.00107795 0)
(20.9835 0.00106169 0)
(21.0094 0.00105566 0)
(21.0345 0.00105224 0)
(21.0599 0.00106039 0)
(21.0844 0.00105783 0)
(21.1091 0.00107705 0)
(21.1328 0.00110045 0)
(21.1566 0.00112287 0)
(21.1795 0.00113182 0)
(21.2021 0.00114577 0)
(21.2241 0.00113346 0)
(21.2453 0.00112658 0)
(21.2661 0.00108736 0)
(21.2856 0.00104067 0)
(21.3048 0.00100132 0)
(21.3224 0.000975553 0)
(21.3398 0.000925786 0)
(21.3553 0.000847094 0)
(21.3708 0.000718307 0)
(21.384 0.000571522 0)
(21.3972 0.000402155 0)
(21.408 0.000252291 0)
(21.4184 0.000127594 0)
(21.4262 5.25337e-05 0)
(21.433 -2.9905e-05 0)
(21.4376 -9.93218e-05 0)
(21.4407 -0.00015901 0)
(21.4426 -0.00036098 0)
(21.4429 -0.000490175 0)
(21.442 -0.000995345 0)
(21.4401 -0.00161704 0)
(21.4364 -0.00397942 0)
(21.4322 -0.00672933 0)
(21.4245 -0.0183046 0)
(18.7843 -0.00286925 0)
(18.8133 -0.00567564 0)
(18.8586 -0.00644795 0)
(18.9099 -0.00706762 0)
(18.9636 -0.00757435 0)
(19.0193 -0.0077345 0)
(19.0759 -0.00762211 0)
(19.1313 -0.00740975 0)
(19.1841 -0.00712976 0)
(19.2341 -0.00680044 0)
(19.2814 -0.00647338 0)
(19.3259 -0.00613372 0)
(19.3677 -0.00583626 0)
(19.4069 -0.00558792 0)
(19.4442 -0.00541803 0)
(19.4798 -0.00526279 0)
(19.5143 -0.00514999 0)
(19.5478 -0.00509352 0)
(19.5808 -0.00505138 0)
(19.6135 -0.0050192 0)
(19.6458 -0.00498335 0)
(19.6781 -0.00493868 0)
(19.71 -0.0048957 0)
(19.7418 -0.00486604 0)
(19.7734 -0.0048314 0)
(19.8047 -0.00481484 0)
(19.8358 -0.0047955 0)
(19.8668 -0.00478419 0)
(19.8976 -0.00477663 0)
(19.9282 -0.00477423 0)
(19.9588 -0.00476705 0)
(19.9893 -0.00476049 0)
(20.0196 -0.00477202 0)
(20.05 -0.00472616 0)
(20.0802 -0.00469931 0)
(20.1104 -0.00469552 0)
(20.1404 -0.00468735 0)
(20.1703 -0.00466136 0)
(20.2002 -0.00464489 0)
(20.2299 -0.00462335 0)
(20.2595 -0.00460549 0)
(20.2889 -0.00459178 0)
(20.3182 -0.004572 0)
(20.3475 -0.00457123 0)
(20.3766 -0.00455515 0)
(20.4055 -0.00451841 0)
(20.4344 -0.00451223 0)
(20.4631 -0.00450746 0)
(20.4917 -0.00449679 0)
(20.5201 -0.00448183 0)
(20.5485 -0.0044719 0)
(20.5767 -0.00445833 0)
(20.6048 -0.00444964 0)
(20.6328 -0.00443316 0)
(20.6607 -0.00442444 0)
(20.6883 -0.00441192 0)
(20.7159 -0.00438868 0)
(20.7433 -0.00437012 0)
(20.7707 -0.00432986 0)
(20.7978 -0.00430714 0)
(20.8248 -0.0042817 0)
(20.8515 -0.00425385 0)
(20.8782 -0.00423917 0)
(20.9045 -0.00421344 0)
(20.9308 -0.00419727 0)
(20.9566 -0.00417414 0)
(20.9824 -0.00416177 0)
(21.0076 -0.00414734 0)
(21.0328 -0.00413888 0)
(21.0573 -0.00413383 0)
(21.0818 -0.00414672 0)
(21.1054 -0.00415707 0)
(21.129 -0.00415803 0)
(21.1516 -0.00416569 0)
(21.174 -0.00416347 0)
(21.1954 -0.00418893 0)
(21.2166 -0.00415864 0)
(21.2364 -0.00415333 0)
(21.256 -0.00411858 0)
(21.274 -0.00408963 0)
(21.2917 -0.00403706 0)
(21.3076 -0.00397451 0)
(21.3233 -0.00390876 0)
(21.3371 -0.00385508 0)
(21.3504 -0.00380074 0)
(21.3618 -0.00374572 0)
(21.3723 -0.00366182 0)
(21.3808 -0.00351055 0)
(21.3883 -0.00328552 0)
(21.3941 -0.00300017 0)
(21.3988 -0.00270094 0)
(21.4021 -0.00237384 0)
(21.4044 -0.0020739 0)
(21.4054 -0.00182556 0)
(21.4051 -0.00168926 0)
(21.4037 -0.00180361 0)
(21.4012 -0.0020795 0)
(21.397 -0.00390496 0)
(21.3914 -0.00644979 0)
(21.3816 -0.0159585 0)
(18.7846 -0.0068851 0)
(18.8144 -0.0132506 0)
(18.86 -0.0151579 0)
(18.9114 -0.0169159 0)
(18.9651 -0.0182364 0)
(19.021 -0.0186006 0)
(19.0776 -0.0183323 0)
(19.1331 -0.0177644 0)
(19.1858 -0.0170198 0)
(19.2359 -0.0161731 0)
(19.2832 -0.0152935 0)
(19.3277 -0.0144157 0)
(19.3695 -0.0136168 0)
(19.4087 -0.0129314 0)
(19.446 -0.0124183 0)
(19.4816 -0.0119911 0)
(19.516 -0.0116798 0)
(19.5496 -0.0114893 0)
(19.5826 -0.0113666 0)
(19.6152 -0.0112815 0)
(19.6476 -0.0112069 0)
(19.6798 -0.0111246 0)
(19.7118 -0.0110404 0)
(19.7436 -0.0109734 0)
(19.7752 -0.0108858 0)
(19.8065 -0.0108223 0)
(19.8376 -0.0107647 0)
(19.8685 -0.0107166 0)
(19.8994 -0.0106771 0)
(19.93 -0.0106455 0)
(19.9605 -0.0106219 0)
(19.991 -0.010596 0)
(20.0214 -0.0106036 0)
(20.0518 -0.0105437 0)
(20.082 -0.0104982 0)
(20.1121 -0.0104781 0)
(20.1421 -0.0104542 0)
(20.172 -0.0104151 0)
(20.2017 -0.0103787 0)
(20.2313 -0.0103419 0)
(20.2609 -0.0103028 0)
(20.2901 -0.0102684 0)
(20.3194 -0.0102304 0)
(20.3483 -0.0102039 0)
(20.3773 -0.0101478 0)
(20.4059 -0.0100756 0)
(20.4345 -0.0100294 0)
(20.4626 -0.00999164 0)
(20.4908 -0.00994531 0)
(20.5184 -0.00989657 0)
(20.5461 -0.00985189 0)
(20.5732 -0.0098052 0)
(20.6001 -0.00976638 0)
(20.6266 -0.00972702 0)
(20.6527 -0.00969447 0)
(20.6782 -0.00967467 0)
(20.7033 -0.00964887 0)
(20.7276 -0.00965269 0)
(20.7513 -0.00959598 0)
(20.7741 -0.00953647 0)
(20.7961 -0.00948222 0)
(20.8171 -0.00942978 0)
(20.8371 -0.00937428 0)
(20.8557 -0.00930389 0)
(20.8734 -0.00921881 0)
(20.8894 -0.00911508 0)
(20.9043 -0.00899063 0)
(20.9172 -0.00884631 0)
(20.929 -0.00867598 0)
(20.9388 -0.00848763 0)
(20.9472 -0.00827939 0)
(20.9536 -0.00807916 0)
(20.9589 -0.00785515 0)
(20.9623 -0.00764223 0)
(20.9648 -0.00736625 0)
(20.9656 -0.00705885 0)
(20.9652 -0.0068443 0)
(20.9637 -0.00655912 0)
(20.9612 -0.00621717 0)
(20.9576 -0.00587724 0)
(20.9531 -0.00552346 0)
(20.9479 -0.00516767 0)
(20.9419 -0.00482158 0)
(20.9355 -0.00448427 0)
(20.9285 -0.00415632 0)
(20.9211 -0.00382358 0)
(20.9133 -0.00347801 0)
(20.9053 -0.00308084 0)
(20.8972 -0.00265142 0)
(20.8891 -0.00216156 0)
(20.8812 -0.00171322 0)
(20.8735 -0.00128616 0)
(20.8662 -0.000903733 0)
(20.859 -0.000605478 0)
(20.8521 -0.000341582 0)
(20.8451 -0.000356867 0)
(20.8384 -0.000600543 0)
(20.8311 -0.00214621 0)
(20.8231 -0.00460341 0)
(20.8115 -0.0124869 0)
(18.785 -0.0107613 0)
(18.8161 -0.0201363 0)
(18.8623 -0.0230471 0)
(18.9137 -0.0258613 0)
(18.9676 -0.0278827 0)
(19.0237 -0.0284146 0)
(19.0804 -0.0280013 0)
(19.136 -0.0271087 0)
(19.1887 -0.0259472 0)
(19.2389 -0.0246439 0)
(19.2862 -0.0232738 0)
(19.3307 -0.0219178 0)
(19.3724 -0.0206727 0)
(19.4117 -0.0195893 0)
(19.4488 -0.0187668 0)
(19.4845 -0.0180813 0)
(19.5189 -0.0175746 0)
(19.5524 -0.0172486 0)
(19.5854 -0.0170368 0)
(19.618 -0.0168974 0)
(19.6505 -0.0167799 0)
(19.6826 -0.0166645 0)
(19.7147 -0.0165476 0)
(19.7464 -0.0164555 0)
(19.778 -0.0163339 0)
(19.8092 -0.0162423 0)
(19.8403 -0.0161623 0)
(19.8711 -0.016085 0)
(19.9018 -0.0160178 0)
(19.9324 -0.0159644 0)
(19.9628 -0.0159233 0)
(19.993 -0.0158819 0)
(20.0232 -0.0158845 0)
(20.0532 -0.0158 0)
(20.0831 -0.015728 0)
(20.1128 -0.0156778 0)
(20.1422 -0.0156206 0)
(20.1713 -0.0155522 0)
(20.2002 -0.015481 0)
(20.2286 -0.0154099 0)
(20.2567 -0.0153415 0)
(20.2843 -0.0152735 0)
(20.3112 -0.0152175 0)
(20.3375 -0.015213 0)
(20.363 -0.015136 0)
(20.3876 -0.0150396 0)
(20.4111 -0.0149586 0)
(20.4334 -0.0148836 0)
(20.4542 -0.0147988 0)
(20.4737 -0.0146964 0)
(20.4913 -0.0145841 0)
(20.5073 -0.0144427 0)
(20.521 -0.014281 0)
(20.5327 -0.0140829 0)
(20.542 -0.0138474 0)
(20.549 -0.013579 0)
(20.5533 -0.0133001 0)
(20.5554 -0.0129509 0)
(20.5551 -0.0127165 0)
(20.5529 -0.0123669 0)
(20.5488 -0.0119789 0)
(20.5428 -0.0115672 0)
(20.535 -0.0111284 0)
(20.5256 -0.0106705 0)