/*--------------------------------*- C++ -*----------------------------------*\
| =========                 |                                                 |
| \\      /  F ield         | OpenFOAM: The Open Source CFD Toolbox           |
|  \\    /   O peration     | Version:  v2012                                 |
|   \\  /    A nd           | Website:  www.openfoam.com                      |
|    \\/     M anipulation  |                                                 |
\*---------------------------------------------------------------------------*/
FoamFile
{
    version     2.0;
    format      ascii;
    class       volScalarField;
    location    "0.37";
    object      epsilon.air;
}
// * * * * * * * * * * * * * * * * * * * * * * * * * * * * * * * * * * * * * //

dimensions      [0 2 -3 0 0 0 0];


internalField   nonuniform List<scalar> 
1900
(
112.724
141.424
210.097
257.591
369.051
443.457
614.739
724.906
971.319
1128.61
15.4676
16.4471
18.6375
20.4503
23.757
27.7274
32.0038
39.2874
45.1225
56.7618
14.7926
14.6414
14.5755
14.5063
14.5148
14.5573
14.6409
14.8309
15.0774
15.4133
14.77
14.6304
14.4634
14.3354
14.1726
14.059
13.904
13.8079
13.6653
13.5937
14.7766
14.6215
14.4705
14.3204
14.1748
14.0288
13.8891
13.7471
13.614
13.4768
14.7777
14.6205
14.4714
14.3196
14.1755
14.0283
13.8892
13.7471
13.6134
13.4773
14.7777
14.6207
14.4731
14.3234
14.1841
14.0449
13.9176
13.7913
13.6808
13.5714
14.7761
14.6498
14.5639
14.5032
14.5107
14.5515
14.6369
14.8184
15.0473
15.3928
15.2121
16.6002
18.2799
20.6725
23.6021
27.5589
32.2792
38.3846
45.5836
54.7885
105.893
146.614
198.355
265.777
350.041
456.025
585.697
743.595
931.823
1153.92
4099.33
15202.2
19580.5
22434.6
21095.6
17994.2
15064.5
12774.1
11287.9
10377.8
9882.74
9711.75
9536.6
9265.15
8855.74
8355.04
7798.51
7210.5
6644.02
6126.13
5649.33
5222.46
4838
4487.16
4167.86
3878.36
3615.7
3378.11
3162.33
2966.4
2788.03
2625.22
2476.31
2339.74
2214.36
2098.98
1992.68
1894.48
1803.63
1719.35
1641.06
1568.16
1500.17
1436.65
1377.2
1321.49
1269.22
1220.09
1173.87
1130.31
1089.22
1050.38
1013.64
978.809
945.754
914.319
884.399
855.856
828.616
802.554
777.629
753.719
730.816
708.792
687.673
667.316
647.783
628.905
610.795
593.244
576.424
560.073
544.442
529.195
514.676
500.451
486.982
473.705
461.224
448.814
437.258
425.628
414.932
403.99
394.095
383.751
374.612
364.778
356.373
346.968
339.296
330.238
323.322
314.519
308.398
299.743
294.466
285.834
281.439
271.092
113.114
337.792
518.018
922.3
1124.29
1147.55
1119.55
1054.91
1049.98
1089.71
1195.45
1410.55
1699.1
2031.33
2381.3
2694.22
2973.25
3205.08
3359.43
3436.09
3428.29
3389.21
3302.43
3184.37
3055.93
2924.45
2793.32
2666.68
2543.28
2425.94
2313.93
2207.02
2105.74
2009.88
1919.55
1834.47
1754.58
1679.35
1608.59
1541.96
1479.21
1420.03
1364.19
1311.45
1261.58
1214.38
1169.67
1127.28
1087.05
1048.82
1012.46
977.847
944.861
913.381
883.31
854.533
826.982
800.547
775.184
750.793
727.355
704.776
683.062
662.112
641.964
622.495
603.78
585.667
568.272
551.401
535.224
519.494
504.451
489.78
475.805
462.122
449.161
436.4
424.4
412.49
401.394
390.255
380.006
369.552
360.094
350.237
341.524
332.178
324.186
315.269
307.993
299.423
292.878
284.566
278.784
270.628
265.651
257.529
253.397
243.679
16.4275
19.8676
22.8863
29.0939
34.7878
38.7011
41.6588
43.6992
46.6333
50.6565
58.6845
70.9631
95.6819
130.506
189.908
267.747
374.571
510.213
667.231
838.37
1007.39
1165.47
1304.41
1420.38
1510.2
1572.72
1609.89
1627.05
1624.43
1613.81
1591.25
1561.27
1527.18
1490.18
1451.73
1412.04
1372.21
1331.83
1291.98
1252.78
1214.3
1176.73
1140.19
1104.74
1070.4
1037.12
1004.96
973.829
943.722
914.615
886.484
859.283
832.995
807.569
782.989
759.192
736.178
713.878
692.299
671.376
651.128
631.493
612.506
594.093
576.315
559.075
542.463
526.347
510.851
495.795
481.353
467.287
453.839
440.7
428.192
415.923
404.313
392.857
382.1
371.399
361.451
351.439
342.253
332.855
324.384
315.521
307.724
299.316
292.17
284.144
277.64
269.922
264.071
256.581
251.407
244.056
239.595
232.281
228.566
219.817
13.4531
13.4606
13.5464
13.803
14.336
15.0074
15.7225
16.3407
16.9271
17.3389
17.8928
18.3563
19.3055
20.4923
22.7453
26.2645
31.747
40.9109
54.8322
76.359
106.797
147.681
199.535
261.247
330.744
405.363
480.319
553.631
620.642
682.118
735.273
779.363
814.273
840.286
858.728
870.085
875.741
875.218
872.547
866.559
857.719
846.944
834.815
821.44
807.164
792.094
776.509
760.323
743.868
727.219
710.411
693.531
676.671
659.889
643.254
626.762
610.52
594.488
578.759
563.285
548.147
533.308
518.836
504.681
490.938
477.529
464.56
451.911
439.718
427.808
416.37
405.165
394.452
383.912
373.891
363.983
354.627
345.303
336.582
327.813
319.708
311.452
303.937
296.14
289.182
281.783
275.355
268.294
262.383
255.606
250.206
243.648
238.765
232.367
228.023
221.722
217.945
211.668
208.487
200.97
13.3299
13.1589
13.0625
13.1169
13.306
13.7177
14.291
14.9119
15.4533
15.8757
16.2091
16.4272
16.6129
16.756
16.9018
17.0901
17.3326
17.7437
18.3243
19.3238
20.8458
23.2819
26.8222
32.1974
39.8179
50.6486
65.01
83.4933
106.147
132.998
163.539
196.732
231.887
267.347
302.591
335.745
367.026
395.174
420.175
441.52
459.366
473.663
484.932
493.311
499.186
502.819
504.574
504.286
503.107
500.533
496.696
491.898
486.375
480.163
473.468
466.334
458.925
451.215
443.396
435.39
427.376
419.28
411.209
403.153
395.226
387.35
379.624
371.946
364.45
356.992
349.759
342.53
335.581
328.574
321.916
315.147
308.788
302.27
296.227
289.954
284.229
278.19
272.786
266.961
261.877
256.24
251.472
245.991
241.533
236.166
232.029
226.755
222.962
217.753
214.327
209.153
206.121
200.949
198.336
192.117
13.3251
13.1543
13.0316
13.0864
13.2963
13.774
14.5015
15.4901
16.5051
17.6025
18.587
19.5114
20.2508
20.8627
21.2905
21.6006
21.7815
21.8594
21.8451
21.7995
21.7012
21.6043
21.5317
21.5573
21.6648
21.925
22.464
23.366
24.8406
26.9809
30.2135
34.5597
40.5646
48.0965
57.5315
68.7374
81.864
96.5453
112.687
129.766
147.446
165.206
182.655
199.475
215.336
230.036
243.477
255.531
266.272
275.73
283.969
291.04
297.108
302.218
306.505
310.027
312.912
315.119
316.84
317.943
318.696
318.827
318.659
318.206
317.286
315.994
314.409
312.511
310.405
308.029
305.5
302.715
299.854
296.681
293.612
290.141
286.893
283.202
279.849
276.01
272.613
268.672
265.287
261.279
257.95
253.896
250.659
246.57
243.455
239.338
236.371
232.225
229.429
225.254
222.656
218.456
216.081
211.864
209.742
204.65
13.4659
13.36
13.4095
13.6559
14.3041
15.6888
18.0322
21.4442
25.4039
29.711
33.5798
37.0542
39.5872
41.5303
42.5906
43.3356
43.3946
43.2666
42.927
42.3992
41.7846
41.1489
40.4875
39.8686
39.3324
38.8712
38.5237
38.2473
38.1448
38.1967
38.3684
38.7145
39.3598
40.2425
41.5088
43.2194
45.4474
48.3954
52.0645
56.7526
62.4206
69.3696
77.4779
86.9622
97.6104
109.51
122.327
136.039
150.251
164.882
179.562
194.167
208.418
222.203
235.365
247.818
259.516
270.38
280.412
289.569
297.864
305.336
311.946
317.806
322.896
327.252
330.904
333.884
336.182
337.942
339.068
339.783
339.764
339.506
338.905
337.625
336.374
334.364
332.636
330.099
327.994
325.053
322.703
319.465
316.979
313.524
310.983
307.367
304.833
301.099
298.618
294.8
292.408
288.53
286.255
282.351
280.224
276.331
274.401
269.773
15.9125
16.8553
18.5483
21.9281
28.4053
39.5079
55.4635
75.0422
95.4506
114.263
129.11
140.075
146.492
150.01
150.739
150.367
149.405
147.753
146.232
145.14
144.5
144.643
145.246
146.572
149.015
152.146
156.386
161.127
167.211
173.885
181.875
190.642
200.531
211.443
223.311
236.431
250.39
265.611
281.421
298.241
315.425
333.305
351.305
369.597
387.567
405.443
422.633
439.532
455.66
471.356
486.313
500.627
514.225
526.99
539.076
550.245
560.644
570.062
578.586
586.018
592.486
597.927
602.44
605.997
608.772
610.582
611.793
611.961
611.647
610.841
609.241
607.097
604.452
601.188
597.781
593.524
589.513
584.577
580.166
574.757
570.084
564.383
559.636
553.793
549.118
543.235
538.727
532.863
528.584
522.786
518.783
513.088
509.391
503.826
500.457
495.05
492.049
486.825
484.291
478.381
68.0485
90.4125
126.212
184.869
271.967
385.207
511.654
635.882
744.732
831.815
892.099
932.217
953.092
963.287
964.689
963.61
961.432
957.694
956.501
957.524
960.645
966.065
974.436
986.1
1000.42
1016.67
1035.12
1055.32
1077.93
1101.6
1126.77
1152.5
1179.03
1205.84
1232.81
1259.68
1285.96
1311.57
1335.83
1359.12
1380.91
1401.44
1420.29
1437.77
1453.44
1467.72
1480.29
1491.68
1501.6
1510.38
1517.88
1524.02
1529.06
1532.47
1535.04
1535.85
1535.52
1534.29
1531.72
1527.41
1522.36
1515.85
1508.77
1500.42
1491.7
1481.96
1471.76
1461.02
1449.91
1438.23
1426.49
1414.04
1401.82
1388.7
1376.16
1362.63
1349.94
1336.27
1323.7
1310.13
1297.92
1284.61
1272.94
1260.03
1249.04
1236.6
1226.38
1214.43
1205.01
1193.58
1185.02
1174.12
1166.47
1156.1
1149.37
1139.5
1133.76
1124.38
1119.8
1109.55
1464.62
1897.09
2398.89
2961.84
3563.14
4171.87
4746.25
5251.04
5654.94
5950.68
6131.96
6219.42
6207.02
6160.39
6061.77
5928.63
5778.13
5619.48
5459.06
5301.28
5148.93
5004.08
4867.58
4739.91
4621.09
4511.16
4409.82
4316.61
4231.41
4153.59
4083.22
4019.51
3962.38
3911.11
3865.62
3825.4
3790.04
3759.07
3731.9
3708.37
3688.06
3670.79
3656.09
3643.77
3633.45
3625.09
3618.21
3612.84
3608.55
3605.31
3602.93
3601.11
3599.91
3599.01
3598.55
3598.57
3598.81
3599.33
3600.42
3601.35
3602.88
3604.22
3605.9
3607.31
3608.74
3609.71
3610.38
3610.34
3610.01
3609.07
3607.82
3605.39
3603.08
3599.25
3595.72
3590.42
3585.58
3578.76
3572.56
3564.18
3556.63
3546.73
3538.01
3526.79
3517.22
3504.96
3494.89
3481.84
3471.58
3457.9
3447.68
3433.4
3423.41
3408.38
3398.77
3382.76
3373.71
3356.64
3347.9
3325.91
1108.69
1064.22
1122.13
1210.17
1239
1121.5
818.751
1980.25
54608.3
16110.2
7348.35
6104.9
6235.36
6487.08
6557.89
8030.23
74257.8
43596.2
24815.4
18459.2
16102.3
15005.8
14634.3
19674.4
76424.4
71030.5
54254.6
41202.1
32694.6
27166
24554.2
34074.6
69729.3
75716.2
67761.3
55661.5
44574.2
35846.5
30866.3
42709.6
57734.8
71179.9
67954
59049.6
48381.2
38734.7
32782.6
45227.4
47465.8
61827.5
62489.3
56611.6
47162.2
38171.1
32445
44234.7
39065.6
51806.6
53571.4
49821.3
42377.9
34660.2
29576.2
39737.7
32614.2
42977.7
44905.5
42115.7
36284.9
30028
25808.2
34019.2
27603.6
35617.8
37247.3
35102.9
30531.3
25547.8
22216.4
29362.5
23491.9
29584.8
30819.7
29116.8
25526.8
21630.4
19156.5
26008.7
20114.1
24698.9
25575.4
24184.9
21341.9
18301.1
16498.3
22978
17376.8
20787.4
21373.7
20215
17944.9
15562.3
14272.1
20365.4
15143.6
17663.7
18029.4
17049.6
15221.4
13341
12437.3
18166.2
13292.9
15153.9
15361.2
14525.7
13039.9
11545.6
10935.2
16340.2
11731.3
13112.3
13211.2
12495.6
11278.6
10084.8
9699.53
14818.7
10407
11440
11465.8
10850.1
9845.81
8887.84
8676.62
13545.1
9267.78
10052
10033.5
9501.27
8668.01
7897.57
7822.74
12471.2
8285.52
8889.53
8846.12
8384.31
7689.84
7070.29
7102.35
11556.7
7442.58
7911.35
7853.14
7451.67
6870.19
6372.85
6487.93
10771.3
6715.85
7082.88
7016.46
6666.64
6177.65
5779.71
5961.13
10090.6
6089.55
6377.94
6307.26
6001.42
5588.45
5271.77
5506.55
9497.07
5547.42
5774.61
5702.41
5434.18
5084.14
4834.29
5112.22
8977.62
5073.9
5254.06
5182.55
4946.84
4649.53
4455.24
4768.44
8521.33
4657.94
4801.83
4732.51
4525.09
4272.35
4124.72
4467.03
8118.45
4290.88
4406.62
4340.48
4157.81
3943.03
3834.89
4201.44
7761.29
3965.45
4059.23
3996.9
3836.01
3653.8
3579.31
3966.18
7443.2
3676.17
3752.53
3694.3
3552.6
3398.48
3352.79
3756.72
7158.43
3417.88
3480.42
3426.43
3301.72
3171.95
3151.05
3569.37
6902.2
3186.58
3238.08
3188.31
3078.65
2970.09
2970.71
3401.13
6670.67
2978.72
3021.39
2975.79
2879.55
2789.61
2808.54
3249.71
6460.77
2791.28
2826.92
2785.37
2701.13
2627.54
2662.42
3112.87
6269.97
2621.74
2651.77
2614.13
2540.66
2481.5
2530.41
2988.84
6096.16
2467.85
2493.45
2459.57
2395.82
2349.47
2410.78
2876.13
5937.54
2327.8
2349.9
2319.61
2264.63
2229.72
2302.06
2773.47
5792.59
2199.97
2219.3
2192.44
2145.41
2120.75
2202.96
2679.74
5659.97
2083.02
2100.16
2076.55
2036.73
2021.29
2112.36
2593.93
5538.46
1975.7
1991.14
1970.59
1937.33
1930.21
2029.3
2515.2
5426.92
1877
1891.1
1873.44
1846.16
1846.6
1952.92
2442.75
5324.35
1785.96
1799.04
1784.12
1762.33
1769.53
1882.56
2375.94
5229.79
1701.8
1714.13
1701.79
1685.02
1698.35
1817.53
2314.16
5142.36
1623.82
1635.61
1625.72
1613.56
1632.49
1757.29
2256.9
5061.3
1551.41
1562.86
1555.27
1547.36
1571.42
1701.36
2203.72
4985.92
1484.07
1495.31
1489.9
1485.92
1514.7
1649.35
2154.24
4915.65
1421.31
1432.48
1429.15
1428.81
1461.91
1600.88
2108.12
4849.96
1362.73
1373.95
1372.59
1375.6
1412.75
1555.68
2065.1
4788.48
1307.98
1319.33
1319.86
1325.95
1366.87
1513.48
2024.92
4730.9
1256.73
1268.29
1270.61
1279.61
1324.02
1474.02
1987.4
4676.97
1208.68
1220.52
1224.56
1236.27
1283.93
1437.1
1952.32
4626.5
1163.57
1175.74
1181.42
1195.69
1246.38
1402.52
1919.54
4579.31
1121.16
1133.71
1140.95
1157.63
1211.16
1370.09
1888.88
4535.29
1081.21
1094.18
1102.94
1121.88
1178.08
1339.66
1860.22
4494.27
1043.53
1056.96
1067.17
1088.25
1146.97
1311.06
1833.39
4456.13
1007.93
1021.85
1033.45
1056.57
1117.67
1284.16
1808.29
4420.67
974.24
988.68
1001.62
1026.67
1090.03
1258.82
1784.76
4387.73
942.302
957.28
971.523
998.406
1063.91
1234.91
1762.7
4357.07
911.992
927.526
943.026
971.658
1039.21
1212.33
1741.97
4328.52
883.161
899.269
915.987
946.291
1015.79
1190.96
1722.47
4301.8
855.724
872.419
890.317
922.216
993.57
1170.71
1704.08
4276.77
829.545
846.839
865.882
899.312
972.442
1151.48
1686.71
4253.16
804.572
822.471
842.623
877.516
952.338
1133.19
1670.26
4230.87
780.673
799.184
820.412
856.71
933.156
1115.78
1654.67
4209.68
757.831
776.952
799.221
836.86
914.851
1099.16
1639.83
4189.55
735.907
755.637
778.914
817.844
897.32
1083.26
1625.71
4170.29
714.919
735.249
759.499
799.662
880.55
1068.05
1612.22
4151.94
694.713
715.634
740.824
782.174
864.424
1053.45
1599.32
4134.26
675.349
696.849
722.946
765.432
848.975
1039.45
1586.99
4117.46
656.647
678.711
705.682
749.261
834.05
1025.95
1575.14
4101.14
638.721
661.336
689.152
733.78
819.76
1013.02
1563.83
4085.77
621.349
644.495
673.121
718.755
805.884
1000.47
1552.89
4070.65
604.714
628.38
657.793
704.4
792.636
988.505
1542.51
4056.61
588.536
612.695
642.858
690.394
779.692
976.808
1532.37
4042.54
573.083
597.73
628.628
677.072
767.408
965.746
1522.88
4029.81
557.994
583.096
614.685
663.983
755.303
954.817
1513.46
4016.62
543.642
569.2
601.475
651.625
743.928
944.621
1504.84
4005.19
529.555
555.526
588.433
639.368
732.582
934.386
1496.08
3992.79
516.237
542.63
576.177
627.914
722.067
925.028
1488.32
3982.66
503.07
529.831
563.948
616.401
711.395
915.405
1480.13
3970.95
490.719
517.866
552.579
605.788
701.688
906.847
1473.22
3962.08
478.387
505.852
541.073
594.928
691.6
897.748
1465.51
3951
466.934
494.748
530.519
585.088
682.637
889.936
1459.41
3943.29
455.345
483.426
519.64
574.785
673.037
881.265
1452.08
3932.68
444.723
473.111
509.83
565.646
664.747
874.129
1446.71
3926.02
433.783
462.387
499.485
555.807
655.54
865.782
1439.64
3915.66
423.931
452.801
490.356
547.305
647.857
859.254
1434.93
3909.85
413.55
442.586
480.459
537.844
638.952
851.131
1427.99
3899.52
404.426
433.687
471.968
529.93
631.823
845.148
1423.85
3894.26
394.52
423.901
462.442
520.773
623.145
837.163
1416.94
3883.85
386.103
415.669
454.566
513.423
616.535
831.673
1413.27
3878.7
376.594
406.239
445.345
504.509
608.028
823.77
1406.33
3868.2
368.887
398.679
438.089
497.718
601.917
818.723
1402.97
3863.05
359.698
389.534
429.11
489
593.553
810.9
1396.1
3852.37
352.728
382.674
422.501
482.789
587.944
806.263
1392.92
3847.19
343.772
373.735
413.699
474.218
579.703
798.54
1386.2
3836.4
337.583
367.622
407.783
468.629
574.62
794.305
1383.19
3831.24
328.758
358.797
399.082
460.154
566.489
786.734
1376.72
3820.72
323.403
353.485
393.911
455.228
561.957
782.88
1373.83
3815.42
314.591
344.67
385.226
446.797
553.931
775.536
1367.71
3805.64
310.105
340.188
380.821
442.544
549.933
771.99
1364.92
3800.83
299.514
329.566
370.326
432.327
540.192
763.1
1357.4
3790.11
)
;

boundaryField
{
    frontAndBack
    {
        type            empty;
    }
    inlet
    {
        type            fixedValue;
        value           uniform 14.855;
    }
    outlet
    {
        type            zeroGradient;
    }
    walls
    {
        lowReCorrection 0;
        blending        stepwise;
        n               2;
        type            epsilonWallFunction;
        value           nonuniform List<scalar> 
228
(
112.724
141.424
210.097
257.591
369.051
443.457
614.739
724.906
971.319
1128.61
1108.69
1064.22
1122.13
1210.17
1239
1121.5
818.751
1980.25
1980.25
8030.23
19674.4
34074.6
42709.6
45227.4
44234.7
39737.7
34019.2
29362.5
26008.7
22978
20365.4
18166.2
16340.2
14818.7
13545.1
12471.2
11556.7
10771.3
10090.6
9497.07
8977.62
8521.33
8118.45
7761.29
7443.2
7158.43
6902.2
6670.67
6460.77
6269.97
6096.16
5937.54
5792.59
5659.97
5538.46
5426.92
5324.35
5229.79
5142.36
5061.3
4985.92
4915.65
4849.96
4788.48
4730.9
4676.97
4626.5
4579.31
4535.29
4494.27
4456.13
4420.67
4387.73
4357.07
4328.52
4301.8
4276.77
4253.16
4230.87
4209.68
4189.55
4170.29
4151.94
4134.26
4117.46
4101.14
4085.77
4070.65
4056.61
4042.54
4029.81
4016.62
4005.19
3992.79
3982.66
3970.95
3962.08
3951
3943.29
3932.68
3926.02
3915.66
3909.85
3899.52
3894.26
3883.85
3878.7
3868.2
3863.05
3852.37
3847.19
3836.4
3831.24
3820.72
3815.42
3805.64
3800.83
3790.11
105.893
146.614
198.355
265.777
350.041
456.025
585.697
743.595
931.823
1153.92
1464.62
1897.09
2398.89
2961.84
3563.14
4171.87
4746.25
5251.04
5654.94
5950.68
6131.96
6219.42
6207.02
6160.39
6061.77
5928.63
5778.13
5619.48
5459.06
5301.28
5148.93
5004.08
4867.58
4739.91
4621.09
4511.16
4409.82
4316.61
4231.41
4153.59
4083.22
4019.51
3962.38
3911.11
3865.62
3825.4
3790.04
3759.07
3731.9
3708.37
3688.06
3670.79
3656.09
3643.77
3633.45
3625.09
3618.21
3612.84
3608.55
3605.31
3602.93
3601.11
3599.91
3599.01
3598.55
3598.57
3598.81
3599.33
3600.42
3601.35
3602.88
3604.22
3605.9
3607.31
3608.74
3609.71
3610.38
3610.34
3610.01
3609.07
3607.82
3605.39
3603.08
3599.25
3595.72
3590.42
3585.58
3578.76
3572.56
3564.18
3556.63
3546.73
3538.01
3526.79
3517.22
3504.96
3494.89
3481.84
3471.58
3457.9
3447.68
3433.4
3423.41
3408.38
3398.77
3382.76
3373.71
3356.64
3347.9
3325.91
)
;
    }
}


// ************************************************************************* //
