/*--------------------------------*- C++ -*----------------------------------*\
| =========                 |                                                 |
| \\      /  F ield         | OpenFOAM: The Open Source CFD Toolbox           |
|  \\    /   O peration     | Version:  v2012                                 |
|   \\  /    A nd           | Website:  www.openfoam.com                      |
|    \\/     M anipulation  |                                                 |
\*---------------------------------------------------------------------------*/
FoamFile
{
    version     2.0;
    format      ascii;
    class       Cloud<basicKinematicParcel>;
    location    "0.078/lagrangian/kinematicCloud";
    object      coordinates;
}
// * * * * * * * * * * * * * * * * * * * * * * * * * * * * * * * * * * * * * //

27
(
(0.302121 0.191885 0.34894 0.157055) 1047 7675 2
(0.55511 0.172806 0.222445 0.0496389) 1818 3525 1
(0.147658 0.426171 0.206533 0.219637) 1077 2157 2
(0.140808 0.429596 0.360723 0.0688731) 1802 3483 1
(0.245067 0.276727 0.100739 0.377466) 1659 3214 2
(0.0690884 0.293009 0.172446 0.465456) 1840 3568 1
(0.483342 0.258329 0.0694131 0.188916) 1059 2139 2
(0.129662 0.313779 0.12139 0.435169) 1861 3607 1
(0.0464267 0.476787 0.192935 0.283852) 697 1479 2
(0.148605 0.281256 0.144442 0.425698) 293 470 2
(0.286084 0.356958 0.00322842 0.35373) 291 464 1
(0.157819 0.421091 0.355369 0.065721) 689 1463 2
(0.399162 0.140578 0.300419 0.159841) 1585 3091 2
(0.269114 0.365443 0.282617 0.0828257) 1756 3396 1
(0.0109147 0.494543 0.357257 0.137286) 582 1251 1
(0.464927 0.267536 0.190701 0.0768356) 1694 3280 1
(0.238938 0.380531 0.33444 0.0460907) 1685 3278 1
(0.601692 0.199154 0.170109 0.0290449) 172 406 2
(0.64787 0.0972152 0.0788496 0.176065) 571 1228 1
(0.957896 0.0021962 0.0210521 0.0188559) 867 1818 2
(0.397218 0.104048 0.301391 0.197342) 366 818 1
(0.143796 0.428102 0.348718 0.0793841) 363 616 1
(0.10295 0.291478 0.157047 0.448525) 860 1605 2
(0.0801441 0.246205 0.213723 0.459928) 1533 2992 1
(0.480407 0.104209 0.155587 0.259796) 255 356 2
(0.446784 0.276608 0.0761997 0.200408) 951 1984 2
(0.0103331 0.180888 0.313946 0.494833) 1382 2709 1
)


// ************************************************************************* //
