/*--------------------------------*- C++ -*----------------------------------*\
| =========                 |                                                 |
| \\      /  F ield         | OpenFOAM: The Open Source CFD Toolbox           |
|  \\    /   O peration     | Version:  v2012                                 |
|   \\  /    A nd           | Website:  www.openfoam.com                      |
|    \\/     M anipulation  |                                                 |
\*---------------------------------------------------------------------------*/
FoamFile
{
    version     2.0;
    format      ascii;
    class       Cloud<basicKinematicParcel>;
    location    "0.078/lagrangian/kinematicCloud";
    object      positions;
}
// * * * * * * * * * * * * * * * * * * * * * * * * * * * * * * * * * * * * * //

54
(
(0.782422 0.00412785 0.03) 352
(0.783536 0.0157864 0.03) 852
(0.775344 0.0238218 0.03) 1151
(0.764088 0.00939801 0.03) 550
(0.752998 0.0307821 0.03) 1450
(0.743635 0.024276 0.03) 1149
(0.605358 0.000626446 0.03) 40
(0.715673 0.034721 0.03) 1647
(0.705473 0.0343903 0.03) 1647
(0.701158 0.0129166 0.03) 746
(0.698665 0.0165817 0.03) 846
(0.687223 0.00763339 0.03) 545
(0.628703 0.0384969 0.03) 1841
(0.618742 0.00140058 0.03) 141
(0.622586 0.0380062 0.03) 1841
(0.644092 0.0188225 0.03) 942
(0.626211 0.00425112 0.03) 341
(0.602934 0.0373801 0.03) 1740
(0.611248 0.00830655 0.03) 540
(0.607493 0.0344028 0.03) 1640
(0.600047 0.0287233 0.03) 1340
(0.577383 0.0366831 0.03) 1738
(0.577608 0.0294918 0.03) 1338
(0.564104 0.00647464 0.03) 437
(0.563472 0.014898 0.03) 837
(0.553217 0.0288528 0.03) 1336
(0.539086 0.00500169 0.03) 335
(0.541961 0.031997 0.03) 1436
(0.514021 0.00200077 0.03) 134
(0.530146 0.0328557 0.03) 1535
(0.353255 7.67897e-05 0.03) 23
(0.500678 0.00309672 0.03) 233
(0.457144 0.0389357 0.03) 1930
(0.485757 0.0217651 0.03) 1032
(0.484694 0.00935783 0.03) 532
(0.476818 0.0278482 0.03) 1231
(0.465282 0.0123115 0.03) 731
(0.456868 0.0147748 0.03) 830
(0.445525 0.0280455 0.03) 1229
(0.40753 0.00098887 0.03) 27
(0.426871 0.01111 0.03) 628
(0.415167 0.0270205 0.03) 1227
(0.404287 0.00901261 0.03) 526
(0.39577 0.00761177 0.03) 526
(0.38495 0.011782 0.03) 725
(0.374644 0.0255035 0.03) 1124
(0.363619 0.0329424 0.03) 1524
(0.354058 0.0185127 0.03) 923
(0.342874 0.0144435 0.03) 822
(0.33296 0.0305959 0.03) 1422
(0.32161 0.00413077 0.03) 321
(0.312908 0.0140168 0.03) 720
(0.302696 0.0345317 0.03) 1620
(0.289144 0.00231041 0.03) 119
)


// ************************************************************************* //
