/*--------------------------------*- C++ -*----------------------------------*\
| =========                 |                                                 |
| \\      /  F ield         | OpenFOAM: The Open Source CFD Toolbox           |
|  \\    /   O peration     | Version:  v2012                                 |
|   \\  /    A nd           | Website:  www.openfoam.com                      |
|    \\/     M anipulation  |                                                 |
\*---------------------------------------------------------------------------*/
FoamFile
{
    version     2.0;
    format      ascii;
    class       Cloud<basicKinematicParcel>;
    location    "0.078/lagrangian/kinematicCloud";
    object      positions;
}
// * * * * * * * * * * * * * * * * * * * * * * * * * * * * * * * * * * * * * //

54
(
(1.09384 0.00499327 0.03) 372
(1.12865 0.0161128 0.03) 875
(1.11225 0.0234799 0.03) 1174
(1.08725 0.0101251 0.03) 672
(1.06817 0.0300229 0.03) 1371
(1.05696 0.0239545 0.03) 1170
(0.778744 0.000803923 0.03) 51
(0.993265 0.0340075 0.03) 1566
(0.978581 0.0337065 0.03) 1565
(0.983861 0.0132789 0.03) 765
(0.981019 0.0167418 0.03) 865
(0.955944 0.00819776 0.03) 563
(0.823993 0.0381605 0.03) 1854
(0.807554 0.00171239 0.03) 153
(0.822919 0.0376138 0.03) 1854
(0.889348 0.0188524 0.03) 959
(0.845366 0.00473559 0.03) 356
(0.79858 0.0369591 0.03) 1753
(0.832791 0.00873308 0.03) 555
(0.821253 0.0338946 0.03) 1554
(0.816562 0.0283734 0.03) 1354
(0.764095 0.0362438 0.03) 1750
(0.780214 0.0291349 0.03) 1352
(0.756012 0.00690043 0.03) 450
(0.758994 0.0150591 0.03) 850
(0.742447 0.0285406 0.03) 1349
(0.71416 0.00541699 0.03) 347
(0.722973 0.0316004 0.03) 1448
(0.657457 0.00229272 0.03) 143
(0.703925 0.0324483 0.03) 1446
(0.380241 0.000107232 0.03) 25
(0.647996 0.00345934 0.03) 243
(0.561241 0.0387762 0.03) 1837
(0.636563 0.0217051 0.03) 1042
(0.635008 0.00964315 0.03) 642
(0.62217 0.0276247 0.03) 1241
(0.605104 0.0125017 0.03) 740
(0.591341 0.0148969 0.03) 839
(0.574684 0.0278395 0.03) 1238
(0.492801 0.00115887 0.03) 32
(0.545692 0.0113064 0.03) 636
(0.528864 0.0268563 0.03) 1235
(0.512984 0.00923868 0.03) 534
(0.49953 0.00785785 0.03) 533
(0.483963 0.011935 0.03) 732
(0.468916 0.0253938 0.03) 1131
(0.45319 0.0327019 0.03) 1530
(0.43913 0.0185313 0.03) 929
(0.423489 0.014527 0.03) 828
(0.409273 0.0304243 0.03) 1327
(0.392392 0.00435175 0.03) 326
(0.380768 0.0140954 0.03) 725
(0.366363 0.0343313 0.03) 1624
(0.344448 0.00248088 0.03) 122
)


// ************************************************************************* //
