/*--------------------------------*- C++ -*----------------------------------*\
| =========                 |                                                 |
| \\      /  F ield         | OpenFOAM: The Open Source CFD Toolbox           |
|  \\    /   O peration     | Version:  v2012                                 |
|   \\  /    A nd           | Website:  www.openfoam.com                      |
|    \\/     M anipulation  |                                                 |
\*---------------------------------------------------------------------------*/
FoamFile
{
    version     2.0;
    format      ascii;
    class       vectorField;
    location    "0.078/lagrangian/kinematicCloud";
    object      U;
}
// * * * * * * * * * * * * * * * * * * * * * * * * * * * * * * * * * * * * * //


54
(
(15.8158 0.00938361 0)
(17.6528 0.00501994 0)
(17.605 -0.00672583 0)
(17.1173 0.0112658 0)
(17.0245 -0.0134168 0)
(17.4347 -0.00743728 0)
(11.0687 0.0011281 0)
(15.9866 -0.0130112 0)
(16.0611 -0.0134748 0)
(17.154 0.00913159 0)
(17.1999 0.00390662 0)
(16.5473 0.0126798 0)
(13.3822 -0.00692638 0)
(13.3352 0.00582759 0)
(14.0086 -0.00787851 0)
(16.8782 0.000611627 0)
(15.4085 0.011455 0)
(14.4729 -0.0100613 0)
(16.368 0.0136888 0)
(15.7657 -0.0149374 0)
(16.5487 -0.0135494 0)
(14.8072 -0.0125614 0)
(16.3886 -0.0143819 0)
(15.8741 0.0142336 0)
(16.3737 0.0062157 0)
(16.2772 -0.0135679 0)
(15.4216 0.0138735 0)
(16.0039 -0.0162891 0)
(13.8156 0.00932118 0)
(15.8346 -0.0166269 0)
(5.50333 0.000113593 0)
(14.5665 0.0113738 0)
(12.2079 -0.00738277 0)
(15.8339 -0.00341272 0)
(15.7918 0.0134257 0)
(15.7612 -0.0117145 0)
(15.6834 0.00944996 0)
(15.6096 0.00605135 0)
(15.5307 -0.0116983 0)
(12.2544 0.00505249 0)
(15.3731 0.010827 0)
(15.2907 -0.0101309 0)
(15.1965 0.013335 0)
(15.0846 0.0147114 0)
(15.0391 0.00951998 0)
(14.9517 -0.0077388 0)
(14.8214 -0.0167461 0)
(14.7722 0.000965798 0)
(14.681 0.00586959 0)
(14.5915 -0.0135504 0)
(14.2102 0.0154522 0)
(14.4002 0.00619965 0)
(14.2323 -0.017032 0)
(13.4156 0.0134301 0)
)


// ************************************************************************* //
