/*--------------------------------*- C++ -*----------------------------------*\
| =========                 |                                                 |
| \\      /  F ield         | OpenFOAM: The Open Source CFD Toolbox           |
|  \\    /   O peration     | Version:  v2012                                 |
|   \\  /    A nd           | Website:  www.openfoam.com                      |
|    \\/     M anipulation  |                                                 |
\*---------------------------------------------------------------------------*/
FoamFile
{
    version     2.0;
    format      ascii;
    class       volScalarField;
    location    "0.285";
    object      p;
}
// * * * * * * * * * * * * * * * * * * * * * * * * * * * * * * * * * * * * * //

dimensions      [0 2 -2 0 0 0 0];


internalField   nonuniform List<scalar> 
1900
(
-299.623
-300.722
-301.622
-302.283
-302.96
-303.727
-304.532
-305.361
-305.973
-306.577
-300.077
-300.876
-301.704
-302.379
-303.06
-303.821
-304.632
-305.47
-306.23
-307.05
-300.363
-300.928
-301.695
-302.409
-303.106
-303.867
-304.693
-305.577
-306.47
-307.715
-300.547
-300.991
-301.726
-302.468
-303.178
-303.94
-304.784
-305.709
-306.721
-308.095
-300.645
-301.039
-301.753
-302.505
-303.221
-303.986
-304.847
-305.807
-306.888
-308.277
-300.662
-301.06
-301.78
-302.535
-303.254
-304.027
-304.904
-305.889
-307.003
-308.371
-300.596
-301.056
-301.807
-302.557
-303.277
-304.06
-304.951
-305.951
-307.078
-308.402
-300.445
-301.036
-301.83
-302.557
-303.269
-304.065
-304.969
-305.979
-307.109
-308.391
-300.188
-301.03
-301.891
-302.579
-303.276
-304.077
-304.985
-305.995
-307.118
-308.36
-299.754
-300.929
-301.881
-302.562
-303.259
-304.073
-304.992
-306.009
-307.135
-308.357
-305.919
-318.28
-337.562
-339.208
-320.079
-286.052
-243.02
-198.242
-157.321
-122.531
-94.1753
-71.7599
-54.3084
-40.7543
-30.1701
-21.8376
-15.2233
-9.88711
-5.50421
-1.87835
1.12145
3.63212
5.78267
7.63932
9.22876
10.5824
11.7466
12.7725
13.6719
14.4515
15.1242
15.7023
16.201
16.6305
16.9953
17.3016
17.5547
17.7596
17.9236
18.0512
18.1462
18.2107
18.2436
18.2466
18.2242
18.1808
18.1176
18.0344
17.9316
17.8107
17.6735
17.5212
17.3554
17.1766
16.9848
16.7804
16.5645
16.3378
16.1013
15.8553
15.5999
15.3353
15.0619
14.7799
14.4896
14.1911
13.8851
13.5716
13.2506
12.9221
12.5865
12.2441
11.8949
11.539
11.1764
10.8073
10.4318
10.05
9.66203
9.26809
8.86802
8.46222
8.05048
7.63319
7.21017
6.78164
6.34753
5.90806
5.46331
5.01344
4.55856
4.09884
3.63416
3.165
2.69016
2.21245
1.72484
1.24264
0.733538
0.279209
-309.337
-321.605
-333.412
-332.126
-313.079
-280.334
-239.752
-197.436
-158.322
-124.593
-96.6642
-74.2445
-56.574
-42.6955
-31.7718
-23.1276
-16.2373
-10.6678
-6.1034
-2.3455
0.748038
3.3341
5.54814
7.45241
9.07468
10.4571
11.6456
12.6868
13.5949
14.3803
15.0571
15.6372
16.1329
16.5598
16.9278
17.2382
17.4945
17.703
17.8708
18.0022
18.1008
18.1684
18.2025
18.2062
18.1848
18.1422
18.0796
17.9971
17.895
17.775
17.6387
17.4871
17.3217
17.1432
16.9517
16.7476
16.5323
16.3062
16.0701
15.8244
15.5692
15.3047
15.0317
14.7499
14.4598
14.1615
13.8558
13.5424
13.2215
12.8931
12.5578
12.2154
11.8664
11.5105
11.148
10.7789
10.4033
10.0215
9.6336
9.23959
8.83949
8.43363
8.02187
7.60451
7.18144
6.75287
6.31876
5.87931
5.4346
4.98483
4.5301
4.0706
3.60639
3.1377
2.66451
2.18742
1.70545
1.22185
0.729552
0.251891
-310.271
-317.92
-326.263
-324.072
-306.102
-275.371
-237.27
-197.126
-159.471
-126.592
-98.9987
-76.567
-58.6936
-44.5305
-33.3159
-24.4132
-17.2955
-11.5331
-6.81811
-2.94643
0.246698
2.93009
5.22809
7.18918
8.85301
10.2774
11.5092
12.5804
13.5069
14.3057
14.9929
15.5811
16.0801
16.5082
16.8804
17.1939
17.4514
17.6608
17.8294
17.9614
18.0597
18.1253
18.1578
18.1613
18.1412
18.1005
18.0395
17.9581
17.857
17.7388
17.6045
17.4546
17.2905
17.1126
16.9214
16.7173
16.5016
16.2754
16.0395
15.794
15.5387
15.2744
15.0019
14.7204
14.4305
14.1327
13.8272
13.514
13.1933
12.865
12.5298
12.1876
11.8386
11.4827
11.1202
10.7511
10.3756
9.99374
9.60576
9.21168
8.81152
8.40555
7.99374
7.57629
7.15317
6.72453
6.2904
5.85094
5.40629
4.95658
4.50202
4.04272
3.579
3.11077
2.63927
2.1629
1.68653
1.20186
0.727118
0.223766
-310.492
-316.294
-321.939
-318.557
-301.089
-271.666
-235.202
-196.608
-160.109
-127.981
-100.746
-78.375
-60.3763
-46.0044
-34.5654
-25.4541
-18.1462
-12.221
-7.38101
-3.41353
-0.137195
2.61357
4.9576
6.949
8.63483
10.0765
11.3267
12.4141
13.3517
14.1597
14.8598
15.4652
15.9825
16.4262
16.8102
17.1338
17.4015
17.6199
17.795
17.931
18.0302
18.0948
18.127
18.1309
18.1118
18.0719
18.0111
17.9292
17.8268
17.7069
17.5715
17.4218
17.2586
17.0814
16.8906
16.6864
16.4704
16.2446
16.0094
15.7644
15.5096
15.2454
14.9722
14.6905
14.4009
14.1034
13.7982
13.4852
13.1646
12.8365
12.5014
12.1593
11.8103
11.4545
11.0919
10.7228
10.3473
9.96541
9.5773
9.18313
8.78286
8.37677
7.96485
7.54729
7.12411
6.69539
6.26127
5.82179
5.37723
4.92759
4.47322
4.01412
3.55091
3.08317
2.61337
2.13776
1.66709
1.18109
0.723996
0.196001
-310.518
-314.805
-318.111
-313.455
-296.275
-267.995
-233.032
-195.922
-160.561
-129.159
-102.28
-79.9814
-61.8784
-47.3297
-35.6986
-26.4034
-18.9273
-12.8561
-7.90242
-3.84856
-0.495916
2.32183
4.71242
6.73519
8.44803
9.91533
11.1879
12.2935
13.2441
14.06
14.7636
15.3743
15.8991
16.3466
16.7303
17.053
17.3209
17.5422
17.7205
17.8595
17.9625
18.0327
18.0717
18.0824
18.0694
18.0343
17.9771
17.8984
17.7988
17.6804
17.546
17.3971
17.2343
17.0576
16.8672
16.6629
16.447
16.2213
15.9861
15.7408
15.4856
15.2206
14.946
14.6633
14.3733
14.0755
13.7699
13.4562
13.1352
12.8066
12.4713
12.1289
11.7797
11.4236
11.0608
10.6916
10.316
9.93405
9.54587
9.15166
8.75152
8.34555
7.9337
7.51615
7.09303
6.66433
6.23031
5.7909
5.3465
4.89699
4.44289
3.98407
3.52139
3.0542
2.58603
2.11132
1.64591
1.15932
0.718408
0.171099
-310.4
-313.509
-315.041
-309.398
-292.508
-265.228
-231.493
-195.547
-161.049
-130.175
-103.558
-81.3042
-63.1057
-48.4121
-36.6296
-27.1806
-19.5603
-13.3728
-8.33231
-4.20833
-0.791389
2.08184
4.50842
6.55398
8.28891
9.77941
11.0687
12.1838
13.1414
13.9637
14.6748
15.2926
15.8243
16.2775
16.6629
16.988
17.2602
17.4867
17.6696
17.811
17.9132
17.9821
18.0215
18.0333
18.0205
17.9845
17.9257
17.8457
17.7461
17.6289
17.4963
17.3494
17.1881
17.0129
16.8241
16.622
16.4083
16.1843
15.9504
15.7062
15.4519
15.1876
14.9138
14.6317
14.342
14.0442
13.7383
13.4242
13.1028
12.7737
12.4381
12.0954
11.7458
11.3895
11.0265
10.6572
10.2816
9.89963
9.51155
9.11739
8.71737
8.31144
7.89972
7.48226
7.05927
6.6307
6.19685
5.7576
5.31342
4.86413
4.41033
3.95187
3.48973
3.0232
2.55648
2.0829
1.62173
1.13607
0.707817
0.152309
-310.21
-312.445
-312.667
-306.232
-289.501
-262.955
-230.134
-195.077
-161.264
-130.837
-104.472
-82.286
-64.0447
-49.2629
-37.375
-27.8111
-20.0765
-13.8007
-8.69917
-4.51583
-1.03789
1.87762
4.32457
6.38825
8.14906
9.6623
10.9628
12.0809
13.0456
13.8793
14.5989
15.2219
15.7568
16.2125
16.6028
16.9322
17.2065
17.435
17.6193
17.7618
17.8661
17.9364
17.9774
17.9917
17.9808
17.9457
17.8874
17.8083
17.71
17.5941
17.4619
17.3144
17.152
16.9755
16.7856
16.5829
16.3684
16.1433
15.9082
15.6631
15.408
15.1431
14.8691
14.587
14.2972
13.9995
13.6937
13.38
13.0589
12.7306
12.3957
12.0536
11.7047
11.3489
10.9865
10.6176
10.2426
9.86104
9.47353
9.07971
8.68002
8.27435
7.86301
7.44595
7.02331
6.5951
6.16159
5.72271
5.27885
4.82992
4.37648
3.91843
3.45684
2.991
2.52544
2.05317
1.5947
1.11178
0.690372
0.143278
-310.014
-311.622
-310.914
-303.872
-287.218
-261.198
-229.052
-194.666
-161.382
-131.315
-105.17
-83.0502
-64.7905
-49.9596
-37.9888
-28.3241
-20.5085
-14.1761
-9.01504
-4.76655
-1.24253
1.69401
4.16083
6.25322
8.03869
9.56174
10.865
11.9913
12.9692
13.813
14.5353
15.157
15.6947
16.157
16.5521
16.8831
17.1568
17.3848
17.5714
17.7172
17.8233
17.8935
17.9342
17.9491
17.9391
17.9044
17.8461
17.7668
17.6685
17.5525
17.42
17.2721
17.1095
16.9331
16.7434
16.541
16.3264
16.101
15.8655
15.6203
15.3651
15.1
14.8257
14.543
14.2526
13.9544
13.6482
13.3341
13.0126
12.6839
12.3487
12.0062
11.6571
11.3011
10.9387
10.5698
10.1949
9.8135
9.42618
9.03269
8.63334
8.22819
7.81742
7.401
6.97898
6.55146
6.11859
5.68039
5.23716
4.78886
4.33598
3.8785
3.41755
2.95243
2.48776
2.01697
1.55964
1.08119
0.660175
0.138641
-309.856
-311.036
-309.717
-302.257
-285.628
-259.948
-228.241
-194.296
-161.363
-131.534
-105.533
-83.4744
-65.2212
-50.3547
-38.3278
-28.6153
-20.7625
-14.3931
-9.19478
-4.91835
-1.37435
1.58033
4.06251
6.16647
7.95802
9.48494
10.7932
11.925
12.907
13.7529
14.4767
15.1004
15.6411
16.1064
16.5029
16.8346
17.1094
17.3389
17.5273
17.6745
17.7813
17.8522
17.8937
17.9098
17.9009
17.8669
17.8091
17.7303
17.6328
17.5178
17.3861
17.2388
17.0766
16.9006
16.7113
16.5092
16.295
16.0697
15.8345
15.5896
15.3347
15.0699
14.7959
14.5137
14.2238
13.9262
13.6207
13.3073
12.9865
12.6585
12.3244
11.9825
11.6338
11.2784
10.9165
10.5482
10.1737
9.79272
9.40568
9.01243
8.61319
8.20797
7.79716
7.38067
6.95862
6.53102
6.09814
5.65989
5.21665
4.76832
4.31546
3.85808
3.39727
2.93227
2.4676
1.99758
1.53982
1.06573
0.639704
0.148964
-309.799
-310.776
-309.167
-301.515
-284.923
-259.447
-228.001
-194.311
-161.572
-131.866
-105.94
-83.9012
-65.6272
-50.7245
-38.6608
-28.9114
-21.021
-14.6188
-9.39733
-5.10289
-1.53701
1.44383
3.93973
6.05057
7.84974
9.38496
10.6985
11.8323
12.8166
13.6661
14.3934
15.0187
15.5606
16.0278
16.4262
16.7597
17.036
17.2664
17.4557
17.6041
17.7121
17.7841
17.8264
17.8433
17.8351
17.8018
17.7447
17.6666
17.5697
17.4552
17.324
17.1771
17.0154
16.8398
16.6511
16.4496
16.2359
16.0111
15.7763
15.5317
15.2773
15.0129
14.7393
14.4574
14.1678
13.8702
13.5649
13.2515
12.9308
12.6028
12.2684
11.9275
11.5792
11.2238
10.8621
10.4939
10.1196
9.73892
9.35207
8.95909
8.56019
8.15558
7.74503
7.32877
6.9069
6.47944
6.04664
5.60844
5.16526
4.71692
4.26415
3.80678
3.34619
2.88159
2.41695
1.94792
1.48893
1.0201
0.591363
0.112924
-314.073
-315.342
-316.519
-316.763
-316.246
-314.976
-313.67
-313.762
-333.208
-334.724
-335.67
-336.006
-335.684
-334.97
-334.106
-333.757
-348.321
-351.157
-352.673
-353.239
-353.129
-352.819
-352.512
-352.172
-346.898
-350.263
-352.116
-352.862
-352.689
-352.174
-351.695
-351.057
-325.752
-328.651
-330.387
-330.946
-330.605
-329.868
-329.084
-328.157
-289.994
-292.05
-293.342
-293.795
-293.469
-292.521
-291.108
-289.508
-244.964
-246.037
-246.887
-247.288
-247.03
-246.002
-244.217
-242.158
-198.424
-198.456
-198.71
-198.925
-198.647
-197.566
-195.615
-193.371
-156.292
-155.596
-155.333
-155.238
-154.835
-153.72
-151.765
-149.559
-120.789
-119.667
-119.121
-118.848
-118.358
-117.255
-115.407
-113.363
-92.2163
-90.991
-90.3445
-89.9507
-89.3897
-88.3456
-86.6716
-84.8455
-69.8806
-68.7272
-68.0903
-67.6263
-67.026
-66.0669
-64.5934
-63.0101
-52.6507
-51.6398
-51.0498
-50.583
-50.0017
-49.1371
-47.8586
-46.4968
-39.3782
-38.541
-38.0369
-37.6061
-37.0706
-36.3096
-35.2199
-34.0653
-29.0718
-28.3926
-27.9509
-27.5544
-27.0805
-26.4257
-25.5047
-24.5282
-20.993
-20.4548
-20.0527
-19.6739
-19.2582
-18.7
-17.9222
-17.0807
-14.5866
-14.1604
-13.8071
-13.4625
-13.0971
-12.6174
-11.9566
-11.1998
-9.41195
-9.0757
-8.77864
-8.48123
-8.16201
-7.74799
-7.18477
-6.50589
-5.14917
-4.88585
-4.64113
-4.38886
-4.1122
-3.75369
-3.2706
-2.68159
-1.60646
-1.39819
-1.19427
-0.979757
-0.739953
-0.427879
-0.00906452
0.501326
1.34405
1.51766
1.69527
1.87806
2.08612
2.35953
2.72596
3.17172
3.82221
3.97062
4.12738
4.28519
4.46787
4.70999
5.03397
5.42746
5.94201
6.06508
6.19894
6.33689
6.5003
6.71758
7.00716
7.35822
7.77384
7.87762
7.99262
8.11451
8.26148
8.45726
8.71736
9.03257
9.34697
9.43909
9.54269
9.65342
9.78745
9.9653
10.2002
10.4848
10.6944
10.7826
10.8749
10.9754
11.0988
11.262
11.4759
11.7347
11.8555
11.9431
12.0266
12.1176
12.2308
12.3808
12.5765
12.8132
12.87
12.9495
13.0254
13.1097
13.2152
13.3543
13.5346
13.7527
13.7587
13.8308
13.9007
13.9794
14.078
14.2074
14.374
14.5756
14.5293
14.5956
14.6613
14.7358
14.8288
14.9498
15.1043
15.2913
15.1944
15.2557
15.3171
15.3875
15.4754
15.589
15.7328
15.9069
15.766
15.8224
15.8803
15.9471
16.0305
16.1376
16.2719
16.4347
16.2603
16.3115
16.3656
16.4289
16.5081
16.6093
16.7351
16.8879
16.6865
16.7334
16.784
16.8441
16.9194
17.0151
17.1333
17.277
17.0482
17.0927
17.1411
17.1986
17.2706
17.3615
17.4728
17.6084
17.3522
17.395
17.4418
17.4971
17.5661
17.6527
17.7577
17.886
17.6032
17.6446
17.6898
17.7432
17.8096
17.8923
17.9916
18.1133
17.8061
17.8461
17.89
17.9417
18.0057
18.085
18.1793
18.295
17.968
18.0065
18.049
18.0991
18.1609
18.2369
18.3266
18.437
18.0937
18.131
18.1722
18.2207
18.2805
18.3536
18.439
18.5445
18.1869
18.223
18.2629
18.31
18.3679
18.4381
18.5196
18.6206
18.2495
18.2844
18.3231
18.3688
18.4247
18.4923
18.5701
18.6669
18.2813
18.3152
18.3529
18.3974
18.4518
18.517
18.5914
18.6845
18.2834
18.3167
18.3537
18.3974
18.4503
18.5135
18.5849
18.6745
18.2601
18.2927
18.3291
18.3718
18.4235
18.4847
18.5534
18.6399
18.2158
18.2476
18.283
18.3248
18.3752
18.4345
18.5006
18.5841
18.1521
18.1831
18.2177
18.2585
18.3076
18.3652
18.4287
18.5096
18.0681
18.0987
18.1329
18.173
18.221
18.2769
18.3382
18.4165
17.9647
17.9949
18.0287
18.0681
18.1151
18.1696
18.2287
18.3046
17.8432
17.873
17.9062
17.945
17.991
18.044
18.1012
18.175
17.7053
17.7346
17.7672
17.8053
17.8504
17.9021
17.9574
18.0293
17.5527
17.5815
17.6137
17.6512
17.6954
17.7459
17.7995
17.8695
17.3865
17.415
17.4469
17.4838
17.5272
17.5766
17.6285
17.6968
17.2074
17.2357
17.2672
17.3036
17.3462
17.3945
17.4448
17.5115
17.0153
17.0432
17.0744
17.1103
17.1523
17.1995
17.2484
17.3135
16.8106
16.8383
16.8691
16.9046
16.9459
16.9921
17.0396
17.1033
16.5943
16.6216
16.6521
16.6871
16.7277
16.773
16.8193
16.8817
16.3672
16.3943
16.4244
16.459
16.499
16.5434
16.5885
16.6496
16.1303
16.1571
16.187
16.2211
16.2605
16.3041
16.348
16.408
15.8842
15.9108
15.9404
15.9741
16.0129
16.0557
16.0985
16.1574
15.6286
15.655
15.6843
15.7177
15.756
15.798
15.8398
15.8977
15.3638
15.3901
15.4191
15.4521
15.4898
15.5311
15.5719
15.6288
15.0901
15.116
15.1448
15.1774
15.2146
15.2552
15.2951
15.3511
14.8078
14.8335
14.8619
14.8942
14.9309
14.9708
15.0098
15.0649
14.5172
14.5427
14.5709
14.6028
14.6391
14.6784
14.7166
14.7709
14.2187
14.2441
14.2721
14.3038
14.3396
14.3783
14.4157
14.4693
13.9126
13.9378
13.9657
13.997
14.0325
14.0706
14.1073
14.1602
13.599
13.6241
13.6517
13.6828
13.7178
13.7554
13.7913
13.8435
13.2777
13.3026
13.3301
13.3609
13.3956
13.4327
13.4679
13.5195
12.9491
12.9739
13.0012
13.0318
13.066
13.1027
13.1372
13.1882
12.6134
12.6381
12.6652
12.6955
12.7295
12.7657
12.7997
12.8501
12.2709
12.2955
12.3224
12.3525
12.3861
12.4219
12.4553
12.5051
11.9216
11.9461
11.9729
12.0028
12.0361
12.0715
12.1043
12.1537
11.5657
11.5901
11.6168
11.6465
11.6795
11.7144
11.7467
11.7956
11.203
11.2274
11.254
11.2835
11.3162
11.3508
11.3826
11.4311
10.8339
10.8581
10.8846
10.914
10.9464
10.9806
11.0119
11.0599
10.4583
10.4825
10.5089
10.5381
10.5702
10.6041
10.635
10.6826
10.0765
10.1006
10.1269
10.1559
10.1878
10.2214
10.2517
10.299
9.68849
9.71261
9.73882
9.76768
9.79937
9.83263
9.86262
9.9095
9.29456
9.31862
9.34473
9.37341
9.40485
9.43777
9.46731
9.51382
8.8945
8.91856
8.94462
8.97318
9.00442
9.03708
9.06626
9.11244
8.4887
8.51272
8.53869
8.56709
8.59809
8.63044
8.6592
8.70504
8.07698
8.10099
8.12691
8.15521
8.18603
8.21815
8.24659
8.29217
7.65971
7.6837
7.70955
7.73772
7.76833
7.80018
7.82834
7.87369
7.2367
7.26069
7.2865
7.31457
7.34501
7.37667
7.40491
7.45071
6.80818
6.83213
6.85786
6.8858
6.91603
6.94737
6.97543
7.02133
6.37405
6.39796
6.42362
6.45143
6.48148
6.51258
6.54036
6.58602
5.93454
5.95839
5.98395
6.01163
6.04149
6.07236
6.09985
6.14527
5.48972
5.51348
5.53892
5.56642
5.59606
5.62667
5.65384
5.69893
5.03975
5.06342
5.08874
5.11609
5.14554
5.17595
5.20287
5.24775
4.5847
4.6082
4.63332
4.66043
4.68957
4.71966
4.74619
4.79064
4.1248
4.14814
4.17309
4.20001
4.22894
4.25883
4.28517
4.32953
3.65968
3.68265
3.70723
3.73376
3.76229
3.7918
3.81772
3.86167
3.19015
3.21279
3.23704
3.26322
3.29138
3.32053
3.34613
3.38984
2.71392
2.73548
2.75878
2.78415
2.81164
2.84033
2.86562
2.90921
2.23574
2.25687
2.27966
2.30443
2.33125
2.35925
2.38392
2.42683
1.74348
1.76112
1.78104
1.8036
1.82891
1.85614
1.88072
1.92464
1.2628
1.28123
1.30121
1.3231
1.34703
1.37227
1.39484
1.43517
0.739328
0.746898
0.757989
0.773183
0.792879
0.815961
0.834907
0.883326
0.302165
0.320221
0.336608
0.351741
0.366662
0.383733
0.400925
0.376906
)
;

boundaryField
{
    frontAndBack
    {
        type            empty;
    }
    inlet
    {
        type            zeroGradient;
    }
    outlet
    {
        type            fixedValue;
        value           uniform 0;
    }
    walls
    {
        type            zeroGradient;
    }
}


// ************************************************************************* //
