/*--------------------------------*- C++ -*----------------------------------*\
| =========                 |                                                 |
| \\      /  F ield         | OpenFOAM: The Open Source CFD Toolbox           |
|  \\    /   O peration     | Version:  v2012                                 |
|   \\  /    A nd           | Website:  www.openfoam.com                      |
|    \\/     M anipulation  |                                                 |
\*---------------------------------------------------------------------------*/
FoamFile
{
    version     2.0;
    format      ascii;
    class       volScalarField;
    location    "0.258";
    object      k.air;
}
// * * * * * * * * * * * * * * * * * * * * * * * * * * * * * * * * * * * * * //

dimensions      [0 2 -2 0 0 0 0];


internalField   nonuniform List<scalar> 
5600
(
0.60622
0.840887
0.955057
0.97818
0.94913
0.897628
0.839549
0.787326
0.743266
0.70737
0.679266
0.658477
0.643208
0.632751
0.625195
0.620082
0.616258
0.613293
0.611002
0.608731
0.607213
0.605324
0.604337
0.603026
0.602504
0.601709
0.601469
0.600998
0.600896
0.600549
0.600437
0.600026
0.599835
0.599321
0.599069
0.598515
0.598218
0.597686
0.597352
0.596874
0.596549
0.596116
0.595866
0.595449
0.595315
0.594923
0.594888
0.594549
0.594549
0.594269
0.594299
0.594068
0.594128
0.593923
0.594048
0.593856
0.594062
0.593897
0.59416
0.594048
0.594368
0.594287
0.594669
0.594606
0.595061
0.595006
0.595534
0.595484
0.596084
0.596032
0.59671
0.596645
0.597415
0.597327
0.598192
0.598078
0.599032
0.598893
0.59993
0.599772
0.600879
0.600718
0.601835
0.60174
0.602753
0.60288
0.60357
0.604265
0.604125
0.606201
0.604038
0.609283
0.602232
0.615224
0.595363
0.630089
0.571393
0.676372
0.478613
0.840639
0.37169
0.315388
0.288836
0.275475
0.275156
0.284601
0.307359
0.345045
0.387023
0.430387
0.471379
0.509106
0.541755
0.569391
0.592014
0.60962
0.623679
0.633651
0.641973
0.647497
0.652825
0.656158
0.660261
0.662807
0.666106
0.66795
0.670394
0.671648
0.673344
0.673868
0.674961
0.674894
0.675669
0.67534
0.675937
0.675569
0.675991
0.675745
0.676001
0.675897
0.676169
0.676071
0.676547
0.676381
0.677059
0.676824
0.677567
0.67729
0.678007
0.677795
0.678436
0.67828
0.678983
0.678807
0.679654
0.679433
0.680431
0.680208
0.681304
0.681095
0.682258
0.68206
0.683329
0.683074
0.68447
0.68414
0.685664
0.685272
0.686914
0.686452
0.688244
0.68766
0.689646
0.688927
0.691125
0.690258
0.692655
0.69161
0.694201
0.692975
0.695767
0.6944
0.697284
0.695898
0.698667
0.69752
0.699809
0.699542
0.700456
0.702536
0.699837
0.707543
0.696332
0.716819
0.68622
0.736168
0.659254
0.780521
0.58591
0.883318
0.369189
0.281763
0.227877
0.19286
0.168685
0.153833
0.145532
0.143835
0.146767
0.155348
0.166879
0.182085
0.199289
0.218472
0.239295
0.260364
0.282698
0.304239
0.326634
0.34795
0.369775
0.390155
0.409536
0.425367
0.440116
0.451963
0.463073
0.471822
0.480093
0.486496
0.492921
0.497589
0.502833
0.506384
0.510665
0.513517
0.516943
0.519446
0.522229
0.524449
0.526968
0.528788
0.531301
0.532681
0.535209
0.536283
0.538637
0.539551
0.541655
0.542549
0.54446
0.545267
0.547198
0.547843
0.549878
0.550364
0.552462
0.552882
0.554968
0.555334
0.55742
0.557684
0.559853
0.559954
0.562233
0.562156
0.56455
0.564341
0.566861
0.566501
0.569176
0.568623
0.571498
0.570738
0.573831
0.572841
0.576158
0.574866
0.57843
0.576808
0.580665
0.57874
0.582837
0.580666
0.584907
0.582573
0.586804
0.584644
0.588404
0.587235
0.589438
0.59076
0.589275
0.596139
0.586333
0.605552
0.577356
0.622762
0.557967
0.636406
0.370144
0.280524
0.224215
0.185979
0.158548
0.138331
0.122756
0.111666
0.102627
0.0972936
0.0933677
0.0924073
0.0930145
0.0951506
0.0997838
0.104901
0.1132
0.121474
0.133231
0.144813
0.159836
0.17482
0.192811
0.21024
0.229303
0.247284
0.265617
0.281903
0.297841
0.311643
0.325304
0.336523
0.348034
0.357259
0.366918
0.374712
0.382766
0.389622
0.396463
0.402398
0.408455
0.413259
0.418775
0.42251
0.427492
0.430381
0.434745
0.437269
0.441084
0.443431
0.446915
0.448969
0.452405
0.454116
0.457564
0.458964
0.462304
0.463541
0.466725
0.467803
0.470902
0.47175
0.474895
0.475488
0.478694
0.47905
0.482319
0.482491
0.485872
0.485817
0.489354
0.489033
0.492745
0.492155
0.496053
0.495182
0.4993
0.498055
0.502436
0.500772
0.505468
0.503423
0.50842
0.506015
0.511284
0.508504
0.513982
0.511026
0.516425
0.513846
0.518551
0.517159
0.520095
0.521426
0.520256
0.527273
0.518521
0.533734
0.518372
0.529562
0.370357
0.280657
0.224444
0.186045
0.158314
0.13788
0.121253
0.109101
0.0980831
0.0901887
0.0828965
0.0773117
0.073082
0.068819
0.0671464
0.0639673
0.0644764
0.0627092
0.0651054
0.0650745
0.0692723
0.0716573
0.0778453
0.0831947
0.0916673
0.100012
0.110816
0.121401
0.133922
0.145846
0.159638
0.17239
0.186722
0.199123
0.212542
0.224277
0.236334
0.247216
0.257991
0.267721
0.277577
0.285882
0.295197
0.302177
0.310747
0.316703
0.324258
0.329611
0.33625
0.341151
0.347246
0.351507
0.357365
0.360945
0.366537
0.3695
0.374653
0.377275
0.382055
0.384341
0.388908
0.390783
0.395306
0.396814
0.401295
0.40249
0.406935
0.407883
0.412367
0.413011
0.41758
0.417862
0.422507
0.422459
0.427185
0.426837
0.431664
0.430873
0.435868
0.434646
0.439859
0.43829
0.443729
0.441831
0.44749
0.44524
0.451022
0.448614
0.454243
0.45216
0.457214
0.455998
0.459852
0.46027
0.461865
0.46481
0.463757
0.467963
0.46802
0.465708
0.370397
0.280719
0.224494
0.186306
0.158414
0.138223
0.121465
0.109287
0.0982417
0.0898846
0.0825439
0.075953
0.0713806
0.0655995
0.0631268
0.0578555
0.0568673
0.0522079
0.0521614
0.0483547
0.0487801
0.0461607
0.0468578
0.0456087
0.0468608
0.046861
0.0492406
0.0503602
0.054356
0.0566672
0.0624312
0.0663178
0.0736252
0.0794104
0.0876543
0.0951736
0.10408
0.112716
0.122338
0.131296
0.141792
0.150629
0.161515
0.169816
0.180552
0.188547
0.198518
0.206244
0.215345
0.222567
0.231129
0.237493
0.245775
0.251333
0.259377
0.26439
0.271844
0.276447
0.283387
0.287489
0.294102
0.297619
0.304074
0.30712
0.313402
0.316056
0.32216
0.324473
0.330476
0.332387
0.338295
0.339713
0.345492
0.346527
0.352203
0.352917
0.358561
0.358886
0.364507
0.364469
0.37005
0.369806
0.375343
0.374951
0.380437
0.379891
0.385175
0.384704
0.389497
0.389507
0.393601
0.39433
0.397552
0.399117
0.401277
0.403512
0.405214
0.406696
0.409737
0.408751
0.37039
0.280778
0.224429
0.186438
0.158404
0.138335
0.121621
0.109327
0.0985524
0.0898771
0.0829009
0.0759061
0.0716324
0.0654288
0.0631021
0.0573929
0.0563343
0.0512067
0.0507399
0.0464651
0.0460311
0.0427888
0.0421791
0.0397862
0.0393282
0.0372022
0.037463
0.0351973
0.0363598
0.0341063
0.0359129
0.0343275
0.0361998
0.0359753
0.0377707
0.0388998
0.0411577
0.0430987
0.0467127
0.0488691
0.0542131
0.0567714
0.0634539
0.0667853
0.0740587
0.0786954
0.0861645
0.0918381
0.099602
0.105659
0.114045
0.119937
0.128809
0.134556
0.143393
0.149102
0.157609
0.16326
0.171533
0.176872
0.184973
0.189809
0.197761
0.202188
0.209889
0.213948
0.221361
0.225067
0.232387
0.235772
0.242985
0.246009
0.252984
0.255693
0.262396
0.264827
0.27133
0.273464
0.279738
0.281628
0.287578
0.289406
0.295052
0.296873
0.302237
0.30402
0.308923
0.310836
0.315073
0.317333
0.320959
0.323529
0.326663
0.329406
0.332044
0.334761
0.337179
0.339428
0.341669
0.343844
0.370357
0.280841
0.224364
0.186483
0.158417
0.138288
0.121757
0.109216
0.0987502
0.0897999
0.0830717
0.0759249
0.0717408
0.0655338
0.0631478
0.0575473
0.0562945
0.0513861
0.0505584
0.0466133
0.0456768
0.0427691
0.0416398
0.039382
0.0385399
0.0361789
0.0361651
0.0333773
0.0340625
0.0312116
0.0319959
0.0297811
0.0299579
0.0288375
0.0284182
0.0279154
0.0277645
0.0268742
0.0280244
0.0261748
0.0286457
0.0265211
0.029414
0.0281379
0.030587
0.0306563
0.0329991
0.0338052
0.0368345
0.0377093
0.0420403
0.0430442
0.0481347
0.0498298
0.0553076
0.0579184
0.0635649
0.0667428
0.0729419
0.0765027
0.0832314
0.0869448
0.0939964
0.0980168
0.105245
0.109426
0.116673
0.120862
0.128097
0.13211
0.139273
0.143235
0.150231
0.154162
0.160929
0.164797
0.17138
0.17516
0.181462
0.18517
0.191024
0.194758
0.200245
0.204014
0.209197
0.212948
0.217637
0.221418
0.22551
0.229377
0.233069
0.236987
0.240407
0.24436
0.247358
0.251285
0.25381
0.257645
0.259396
0.263462
0.37032
0.280878
0.224356
0.186446
0.158501
0.138167
0.121892
0.109098
0.0988376
0.0897827
0.083049
0.0760434
0.071611
0.0657659
0.0629471
0.0578508
0.0560621
0.0517146
0.0503319
0.0469165
0.0454912
0.0430004
0.0415103
0.0395257
0.0384196
0.036283
0.0359397
0.033493
0.0336439
0.03129
0.0313734
0.0296536
0.0291318
0.0283065
0.0273045
0.0267723
0.0261769
0.0249372
0.0255556
0.0232832
0.0247541
0.0223803
0.0235298
0.0221315
0.022329
0.0218427
0.0218635
0.0212494
0.0220599
0.0206952
0.022443
0.0209551
0.0226975
0.0218105
0.0233136
0.0231516
0.0247191
0.0246314
0.026781
0.0268559
0.0295352
0.0298683
0.0327504
0.0336713
0.0369274
0.0383648
0.0419182
0.0437106
0.0477128
0.0499108
0.0542051
0.0568275
0.0612663
0.0643116
0.068896
0.0722806
0.077063
0.0807892
0.0856526
0.0896693
0.094362
0.0985804
0.103221
0.107628
0.11229
0.116822
0.121253
0.125794
0.129863
0.134358
0.138224
0.142765
0.146577
0.151285
0.154946
0.159548
0.162882
0.167192
0.170045
0.173995
0.370299
0.280872
0.224405
0.186363
0.158613
0.13806
0.121979
0.109054
0.0988298
0.0898445
0.0829277
0.0762251
0.0713761
0.0660651
0.0626219
0.058222
0.0557232
0.0520573
0.0500811
0.0471458
0.0453705
0.0431177
0.0414615
0.0396376
0.0382959
0.0365297
0.0356559
0.0338633
0.0332949
0.0316286
0.0311226
0.029809
0.029045
0.0282946
0.027251
0.0267358
0.025967
0.0250131
0.0250347
0.023465
0.0239538
0.0224708
0.022563
0.0218648
0.0212601
0.0210918
0.0204859
0.0200031
0.0200678
0.0189689
0.0194991
0.0184491
0.0186951
0.0181325
0.0180188
0.017793
0.0177452
0.0173093
0.0176076
0.0170905
0.0175425
0.0171739
0.0175086
0.0174017
0.0178131
0.0179088
0.0184115
0.0185615
0.0193062
0.0196691
0.0205671
0.0212122
0.0222312
0.0231718
0.0244073
0.0256215
0.0271295
0.0286902
0.030493
0.0325044
0.0344502
0.0368022
0.0390425
0.0417994
0.0444704
0.0476599
0.0506567
0.0541301
0.0572941
0.0609431
0.0642627
0.0681705
0.0717947
0.0760866
0.0800562
0.0844854
0.0885709
0.0928727
0.0969109
0.101033
0.3703
0.280842
0.224468
0.186297
0.15869
0.13802
0.121998
0.109075
0.098785
0.0899142
0.0828305
0.0763505
0.0712056
0.0662773
0.0623655
0.0585038
0.0554435
0.0523111
0.0498889
0.0472756
0.045317
0.043127
0.0414781
0.0396493
0.0382266
0.0366817
0.0354342
0.0341261
0.0330312
0.0318548
0.0309698
0.0298716
0.0290733
0.0282171
0.0273413
0.0267008
0.0259232
0.0251877
0.0247717
0.0238116
0.0236362
0.0227655
0.0224076
0.0219708
0.0212898
0.0211344
0.0205096
0.0201759
0.0199648
0.0193371
0.019355
0.0188391
0.0186984
0.0185
0.0181993
0.0181976
0.0180098
0.0179193
0.0179873
0.0179075
0.018095
0.0182036
0.0184054
0.0187216
0.0190593
0.0195963
0.0200872
0.0207874
0.0215291
0.0224668
0.0234436
0.0246568
0.0259047
0.0274029
0.0289713
0.0307833
0.0326846
0.0348208
0.0370898
0.039639
0.0421995
0.0450996
0.0479706
0.0511844
0.054344
0.0578528
0.0613156
0.065067
0.0687824
0.0726811
0.0765065
0.0805114
0.0844775
0.0887162
0.0929142
0.0972837
0.101587
0.105954
0.110314
0.114755
0.370309
0.28082
0.224516
0.186266
0.158729
0.13802
0.121991
0.109112
0.0987431
0.0899622
0.0827767
0.076401
0.071132
0.0663519
0.0622514
0.0586159
0.055297
0.0524303
0.0497605
0.0473451
0.045255
0.043121
0.0414757
0.0396113
0.0382153
0.0366888
0.0353631
0.0342016
0.0329179
0.0319721
0.0308778
0.0299651
0.029101
0.0282471
0.0275053
0.0267654
0.0261344
0.0254546
0.0249856
0.0243516
0.0239973
0.0235193
0.0231598
0.0229487
0.0225765
0.0225715
0.0223688
0.022416
0.022552
0.022655
0.0230656
0.0234454
0.0240308
0.0247843
0.0256014
0.0267291
0.0279179
0.0293656
0.0310125
0.0328593
0.0349548
0.0372833
0.0398322
0.042646
0.0456969
0.0489846
0.0524227
0.0561044
0.0599162
0.0639817
0.0681401
0.0725454
0.0770239
0.0816931
0.0864321
0.0913044
0.0962168
0.101207
0.106235
0.111305
0.116347
0.121423
0.126384
0.131334
0.136114
0.140961
0.145682
0.150454
0.155099
0.159701
0.164145
0.16851
0.172742
0.176967
0.181073
0.185187
0.189171
0.193155
0.197081
0.201067
0.370315
0.280817
0.224546
0.186258
0.158753
0.138021
0.121988
0.109128
0.09871
0.0899827
0.0827266
0.0764111
0.0710798
0.0663432
0.0621993
0.0586002
0.0552313
0.0524284
0.0496766
0.0473606
0.0451773
0.0431393
0.0414447
0.0396293
0.0382623
0.0367401
0.0355087
0.0343599
0.0331817
0.0323536
0.031326
0.030679
0.0299182
0.0293983
0.0289441
0.0285812
0.0284585
0.0283228
0.0285505
0.0287712
0.029343
0.0300583
0.0310122
0.0323071
0.0337583
0.0356578
0.0377546
0.0402652
0.0431114
0.0462812
0.0498879
0.0537791
0.0580053
0.0625367
0.0673478
0.0724715
0.0778167
0.0834221
0.0892116
0.0951861
0.10129
0.107507
0.113787
0.120118
0.126487
0.132752
0.138953
0.145117
0.151223
0.157298
0.163265
0.169199
0.174998
0.180733
0.186344
0.191854
0.197253
0.202529
0.207731
0.212787
0.217775
0.222602
0.227345
0.23202
0.236583
0.241126
0.24551
0.249862
0.254026
0.258092
0.26197
0.26573
0.269346
0.27289
0.27631
0.279685
0.282923
0.286149
0.289299
0.29253
0.370316
0.280828
0.224557
0.186256
0.158754
0.137998
0.121968
0.10909
0.0986561
0.0899378
0.0826381
0.0763561
0.0709828
0.0662705
0.0621312
0.05853
0.0552161
0.0524277
0.0497407
0.0475217
0.0453913
0.0435608
0.0419597
0.0404524
0.0393282
0.0381941
0.0374665
0.0368439
0.0364925
0.0365164
0.0366647
0.0374079
0.0382625
0.0397788
0.0415547
0.0439255
0.0467858
0.0501232
0.0541387
0.0586017
0.0637112
0.0692495
0.0752987
0.0818267
0.0886868
0.0959859
0.103472
0.111251
0.119148
0.12717
0.135306
0.143355
0.151364
0.159289
0.167118
0.174821
0.182366
0.189752
0.196948
0.203968
0.210791
0.217434
0.223888
0.23016
0.236273
0.242256
0.248126
0.253836
0.259383
0.264782
0.269994
0.275083
0.279979
0.284766
0.289385
0.29388
0.29825
0.302491
0.306656
0.31068
0.314645
0.318462
0.322221
0.325861
0.329427
0.332915
0.336255
0.339545
0.342666
0.345716
0.348623
0.351458
0.354202
0.356901
0.35952
0.362112
0.364601
0.367102
0.369549
0.372103
0.370311
0.28084
0.224533
0.186223
0.158688
0.137901
0.121858
0.108936
0.0985099
0.0897768
0.0824994
0.076277
0.070981
0.0664109
0.0624712
0.0590998
0.0561856
0.0537918
0.0517287
0.0501912
0.0489703
0.0482828
0.0480717
0.0483939
0.0494035
0.0509683
0.0534366
0.0565573
0.0606691
0.0656204
0.0715269
0.0784461
0.0859901
0.0944947
0.103408
0.113025
0.12293
0.133221
0.143821
0.154541
0.16532
0.175894
0.186347
0.196536
0.206392
0.215972
0.225113
0.233975
0.242409
0.250553
0.258318
0.265844
0.273087
0.28002
0.286662
0.293016
0.299094
0.304928
0.310519
0.315916
0.321108
0.326144
0.331012
0.335733
0.340315
0.344742
0.349025
0.353112
0.35704
0.360829
0.364469
0.368012
0.371408
0.374729
0.377905
0.380992
0.383986
0.386886
0.389739
0.392482
0.395199
0.397814
0.400419
0.402946
0.40545
0.407915
0.410307
0.412675
0.414934
0.417164
0.4193
0.421409
0.423472
0.425518
0.427515
0.429506
0.43143
0.433389
0.435317
0.437374
0.370291
0.280807
0.224399
0.186073
0.158462
0.137663
0.121635
0.108785
0.0985854
0.0901449
0.0834313
0.0779625
0.0736965
0.070407
0.0680942
0.0666956
0.0663068
0.0668072
0.0683836
0.071003
0.0749107
0.0801691
0.0869408
0.0951499
0.104973
0.115996
0.128251
0.141211
0.155079
0.169394
0.184274
0.198954
0.213181
0.227027
0.240138
0.252765
0.264633
0.275938
0.286584
0.296581
0.306099
0.314966
0.323351
0.331133
0.338406
0.345271
0.35169
0.357844
0.363642
0.369204
0.37448
0.379484
0.38419
0.388628
0.392845
0.396856
0.400681
0.404348
0.407853
0.411242
0.414489
0.417647
0.420699
0.42367
0.426569
0.429387
0.432147
0.434821
0.437426
0.439956
0.442409
0.444808
0.447124
0.44939
0.45154
0.453645
0.455691
0.457687
0.459658
0.461556
0.463454
0.465285
0.467131
0.468923
0.470726
0.4725
0.474247
0.475978
0.477651
0.479317
0.480928
0.482537
0.484125
0.485707
0.48727
0.488827
0.490356
0.491908
0.493462
0.495173
0.370179
0.280563
0.224218
0.186058
0.158724
0.138496
0.123465
0.112284
0.104457
0.0992529
0.0968539
0.0965672
0.0983621
0.102022
0.107613
0.115027
0.124332
0.135464
0.148579
0.163411
0.180302
0.198746
0.218273
0.238269
0.258305
0.277668
0.295852
0.312643
0.328163
0.342235
0.354986
0.366575
0.37707
0.386706
0.395417
0.403565
0.41101
0.417974
0.424405
0.430276
0.435711
0.440674
0.445282
0.449404
0.453219
0.456791
0.460102
0.463297
0.46629
0.469206
0.471991
0.474693
0.477294
0.479791
0.482203
0.484523
0.486764
0.488933
0.491023
0.493067
0.495034
0.496967
0.498844
0.500687
0.5025
0.504277
0.50604
0.507767
0.509482
0.51116
0.512814
0.514442
0.516031
0.517613
0.519146
0.52066
0.522134
0.523584
0.52501
0.526392
0.527782
0.529124
0.53049
0.53181
0.533157
0.534471
0.535786
0.537087
0.538361
0.539639
0.540888
0.542147
0.543402
0.544659
0.545917
0.547166
0.54842
0.54967
0.550938
0.552372
0.369458
0.281408
0.228597
0.19307
0.170714
0.155939
0.150145
0.150412
0.156592
0.167269
0.181651
0.198799
0.218416
0.239731
0.262331
0.285646
0.309383
0.33311
0.356932
0.380296
0.403295
0.423864
0.441731
0.457318
0.470489
0.482407
0.492509
0.501013
0.50837
0.514596
0.520117
0.52495
0.529216
0.533057
0.536398
0.539521
0.542273
0.54489
0.547303
0.549558
0.55174
0.553715
0.555685
0.55748
0.559192
0.560803
0.562292
0.56376
0.565114
0.566478
0.567775
0.569072
0.570348
0.571609
0.572861
0.574091
0.57531
0.576511
0.577689
0.578863
0.580002
0.581141
0.582257
0.583365
0.584467
0.585557
0.586655
0.587739
0.58884
0.589921
0.591019
0.592104
0.593189
0.594269
0.595331
0.596384
0.597412
0.598428
0.599431
0.600406
0.601396
0.602357
0.603345
0.604298
0.605285
0.606242
0.607215
0.608174
0.609131
0.610096
0.611055
0.612034
0.613016
0.614013
0.615008
0.61602
0.617015
0.618053
0.619071
0.62026
0.372174
0.315481
0.292812
0.279532
0.286389
0.295364
0.331482
0.373586
0.418646
0.463036
0.504573
0.541586
0.573481
0.599925
0.621214
0.63782
0.650537
0.66008
0.667413
0.673054
0.677634
0.681657
0.685117
0.688127
0.690592
0.692644
0.694335
0.695588
0.696494
0.696982
0.697276
0.697357
0.697337
0.697276
0.697094
0.696989
0.696775
0.696667
0.696534
0.696456
0.696451
0.696436
0.69654
0.696602
0.696703
0.696792
0.696858
0.696962
0.697027
0.697151
0.697263
0.697424
0.697611
0.697835
0.6981
0.698394
0.698725
0.699083
0.699462
0.699873
0.70029
0.700738
0.701193
0.701665
0.702158
0.702661
0.703193
0.703728
0.704304
0.704877
0.705485
0.706102
0.706739
0.707387
0.708045
0.708714
0.70938
0.710049
0.710717
0.711377
0.712053
0.712719
0.713414
0.714089
0.714799
0.715489
0.716204
0.716909
0.71763
0.718364
0.719105
0.719879
0.720658
0.72147
0.722267
0.723111
0.723886
0.72475
0.725531
0.726385
0.606743
0.839814
0.952192
0.969565
0.937525
0.881271
0.821352
0.769012
0.724415
0.688385
0.660683
0.640125
0.625402
0.614952
0.607666
0.602388
0.598513
0.595426
0.592917
0.590803
0.588976
0.587532
0.586338
0.585468
0.584749
0.584208
0.583764
0.583415
0.583089
0.582731
0.582338
0.581876
0.581387
0.580864
0.580306
0.579762
0.57918
0.578641
0.578083
0.57757
0.577073
0.576606
0.576186
0.575789
0.575444
0.57512
0.574827
0.574561
0.574308
0.574088
0.573877
0.573699
0.573538
0.573412
0.573308
0.573232
0.573185
0.573163
0.573171
0.573202
0.57326
0.573339
0.573445
0.573571
0.573719
0.573885
0.574075
0.574281
0.574513
0.57476
0.575031
0.575319
0.575627
0.575952
0.576295
0.576655
0.57703
0.577418
0.577817
0.578224
0.578644
0.579069
0.579509
0.57995
0.580406
0.580862
0.581332
0.581805
0.582294
0.582794
0.583307
0.583833
0.584376
0.584919
0.585493
0.58602
0.586583
0.587022
0.587313
0.587296
0.0567797
2.29647
2.88207
3.08539
3.23188
3.28905
3.26936
3.20002
3.09953
2.9922
2.88391
2.78095
2.68673
2.60187
2.5252
2.45463
2.38838
2.32476
2.2618
2.19928
2.13624
2.0725
2.00808
1.94361
1.8785
1.81354
1.74896
1.68567
1.62294
1.56111
1.50027
1.44086
1.38265
1.3255
1.26925
1.21402
1.15982
1.10649
1.05393
1.0024
0.952181
0.903218
0.855676
0.809994
0.76645
0.725178
0.686304
0.650129
0.6168
0.58629
0.558357
0.532906
0.509777
0.488731
0.469098
0.450458
0.432803
0.416611
0.401657
0.387402
0.373549
0.36113
0.350981
0.343006
0.335732
0.328655
0.322446
0.318923
0.318529
0.320709
0.323856
0.327553
0.331569
0.335766
0.33866
0.3392
0.336183
0.330083
0.321522
0.311974
0.30196
0.292218
0.282565
0.273242
0.26395
0.25433
0.244099
0.232521
0.219874
0.205034
0.189275
0.171189
0.153719
0.134306
0.118436
0.0995725
0.0880181
0.0694062
0.0634646
0.044231
0.356804
1.13066
2.06861
2.51602
2.74905
2.84816
2.85949
2.81088
2.72815
2.63361
2.538
2.44958
2.37206
2.3051
2.24686
2.19513
2.14776
2.10288
2.05872
2.01441
1.96889
1.92172
1.87261
1.82201
1.76952
1.71577
1.66106
1.60631
1.55124
1.49601
1.44065
1.38546
1.3308
1.27662
1.22282
1.16962
1.11711
1.06519
1.01379
0.963254
0.913974
0.865946
0.819374
0.774762
0.73245
0.692595
0.655354
0.621023
0.589734
0.561421
0.535822
0.512783
0.492075
0.473383
0.456018
0.439513
0.423829
0.409404
0.396058
0.383251
0.37069
0.359349
0.350126
0.342958
0.336368
0.329596
0.323071
0.318455
0.316458
0.316935
0.318724
0.321428
0.324677
0.328204
0.330582
0.330738
0.327544
0.321392
0.312963
0.303673
0.294068
0.284819
0.27574
0.266981
0.258184
0.248986
0.239044
0.227725
0.215182
0.200524
0.184776
0.166866
0.14928
0.130021
0.113831
0.0951913
0.0831789
0.0650575
0.0587469
0.040257
0.551886
0.546217
1.02242
1.57941
1.97685
2.18964
2.28102
2.29172
2.25691
2.19829
2.13202
2.07003
2.01437
1.96668
1.92689
1.89351
1.86448
1.83794
1.81246
1.78652
1.75894
1.72914
1.69668
1.66157
1.62363
1.58332
1.54094
1.49714
1.45232
1.40613
1.35928
1.31043
1.26091
1.21102
1.16084
1.11071
1.06085
1.01122
0.961794
0.913013
0.86542
0.819068
0.774213
0.731431
0.69112
0.653461
0.618638
0.586943
0.558481
0.533136
0.510629
0.49073
0.473124
0.4574
0.442865
0.429005
0.415744
0.403447
0.391993
0.380872
0.369829
0.359761
0.351603
0.345299
0.339399
0.332915
0.326044
0.320242
0.316439
0.314865
0.314842
0.316084
0.318161
0.320665
0.322229
0.321752
0.318209
0.311912
0.303589
0.294584
0.285469
0.276821
0.268453
0.260386
0.252204
0.243508
0.233922
0.222881
0.210461
0.195962
0.180228
0.162462
0.14478
0.125655
0.109167
0.0907434
0.0782816
0.060707
0.0540196
0.0364105
0.531226
0.495229
0.560219
0.767818
1.07043
1.34229
1.5239
1.61885
1.65657
1.6593
1.64321
1.62311
1.60145
1.58181
1.56632
1.55496
1.54626
1.53908
1.53146
1.5228
1.51223
1.49923
1.48337
1.46408
1.44138
1.41562
1.38714
1.35613
1.32357
1.28847
1.2522
1.21189
1.16941
1.12547
1.08039
1.03469
0.98874
0.942547
0.89617
0.850181
0.805301
0.761644
0.719536
0.679628
0.642369
0.607948
0.576584
0.548557
0.523937
0.502544
0.484073
0.468196
0.454485
0.442413
0.431299
0.420596
0.410187
0.400339
0.390997
0.381727
0.372362
0.363716
0.35672
0.351282
0.345999
0.339696
0.332381
0.325272
0.319465
0.315499
0.313188
0.312419
0.312819
0.313837
0.314188
0.312733
0.308587
0.301996
0.293726
0.285021
0.276486
0.268563
0.261056
0.253819
0.246382
0.238269
0.229099
0.218341
0.206049
0.191668
0.175937
0.158268
0.140513
0.121491
0.104748
0.0865071
0.0736333
0.0566196
0.0495721
0.0329391
0.472815
0.463467
0.459817
0.487071
0.557031
0.666611
0.788658
0.897556
0.980031
1.03749
1.07351
1.09962
1.11948
1.13617
1.15194
1.16802
1.18358
1.19898
1.21189
1.22237
1.23002
1.2345
1.23535
1.23243
1.22561
1.21505
1.20122
1.18392
1.16448
1.1413
1.11621
1.08636
1.05306
1.01714
0.979026
0.939524
0.899102
0.857831
0.815938
0.774155
0.733386
0.693812
0.65586
0.620239
0.587427
0.557608
0.531041
0.507988
0.48847
0.472212
0.458873
0.447986
0.438979
0.431199
0.424004
0.41684
0.409557
0.402304
0.395118
0.387689
0.38001
0.372811
0.366975
0.362311
0.357476
0.351149
0.343207
0.334624
0.32661
0.319934
0.314873
0.311506
0.309636
0.308609
0.307247
0.304386
0.299313
0.292232
0.283953
0.275573
0.267722
0.260666
0.254181
0.247911
0.241341
0.233883
0.22517
0.214685
0.202505
0.188187
0.172435
0.154811
0.137009
0.118051
0.101117
0.0830009
0.0697958
0.0532856
0.0459411
0.0302933
0.410954
0.411517
0.406199
0.402297
0.403655
0.414168
0.431613
0.455773
0.482995
0.514763
0.546979
0.581632
0.618157
0.655979
0.694473
0.733673
0.772078
0.80991
0.845208
0.877197
0.905352
0.929328
0.948365
0.963248
0.973508
0.979105
0.9806
0.977562
0.971304
0.960769
0.947679
0.930062
0.908217
0.882744
0.854024
0.82309
0.790284
0.755903
0.720452
0.684838
0.650133
0.61659
0.584755
0.555356
0.528864
0.505443
0.485394
0.468952
0.456056
0.446296
0.439262
0.434305
0.430682
0.427625
0.424584
0.421037
0.416819
0.411976
0.406678
0.400807
0.39459
0.388678
0.383852
0.379751
0.375092
0.36845
0.359624
0.349355
0.338926
0.329255
0.321022
0.314485
0.309707
0.306006
0.302359
0.297603
0.291243
0.283457
0.275124
0.267135
0.260113
0.254087
0.24878
0.243598
0.237988
0.231227
0.222974
0.21272
0.200602
0.186267
0.170454
0.152812
0.134994
0.116057
0.0990325
0.0809646
0.0675806
0.0514365
0.0439521
0.0291339
0.343473
0.346047
0.344344
0.338927
0.330825
0.321959
0.312566
0.303552
0.294412
0.287429
0.282184
0.28114
0.285888
0.297445
0.31667
0.343969
0.377806
0.417564
0.460836
0.505151
0.548549
0.58944
0.626259
0.65873
0.68635
0.708794
0.726505
0.738897
0.746856
0.750416
0.75062
0.746336
0.737326
0.723999
0.706691
0.686612
0.663721
0.63867
0.61222
0.585384
0.559343
0.534404
0.511218
0.490482
0.472615
0.457728
0.446175
0.438123
0.433398
0.431405
0.431605
0.433116
0.435036
0.436559
0.437316
0.43686
0.435059
0.431901
0.427755
0.422774
0.417487
0.412465
0.408317
0.404439
0.399598
0.392308
0.382324
0.370144
0.357128
0.344247
0.332497
0.322303
0.314028
0.307036
0.300524
0.293387
0.285404
0.276761
0.268407
0.260974
0.254993
0.250184
0.246184
0.242156
0.237526
0.231441
0.223587
0.213474
0.201324
0.186872
0.170954
0.153231
0.135454
0.116506
0.0995634
0.0814596
0.068154
0.0521794
0.0448302
0.0304952
0.26314
0.267147
0.268072
0.264924
0.258084
0.248421
0.236781
0.224173
0.211081
0.198891
0.187767
0.178656
0.172298
0.168739
0.168726
0.172863
0.181206
0.194815
0.213951
0.23826
0.267577
0.300624
0.335563
0.371259
0.406114
0.438624
0.468337
0.494039
0.515765
0.533108
0.546623
0.555625
0.559538
0.558753
0.553386
0.544337
0.532656
0.519132
0.504208
0.488784
0.474025
0.460203
0.448051
0.438145
0.430818
0.426183
0.424613
0.426107
0.430309
0.436368
0.443579
0.450862
0.457283
0.462151
0.465357
0.466568
0.465733
0.462868
0.458615
0.453478
0.44831
0.443575
0.439631
0.435573
0.430217
0.422043
0.410755
0.396598
0.38096
0.36479
0.349345
0.335208
0.323048
0.312319
0.302496
0.292623
0.282836
0.273376
0.265239
0.258707
0.254065
0.250651
0.247991
0.24508
0.241315
0.235781
0.228159
0.218037
0.205709
0.191031
0.174976
0.157122
0.139494
0.120517
0.103936
0.085727
0.072863
0.0568555
0.049931
0.0356527
0.175777
0.179332
0.181381
0.180576
0.176945
0.171081
0.163925
0.156584
0.14996
0.144905
0.141842
0.140865
0.142066
0.144909
0.149125
0.154485
0.160555
0.167533
0.175598
0.184652
0.195503
0.208226
0.223309
0.240972
0.260635
0.281599
0.303705
0.3258
0.347161
0.367121
0.384983
0.399935
0.412132
0.42109
0.426447
0.428083
0.427692
0.425956
0.423081
0.41978
0.417056
0.415092
0.414615
0.415946
0.419343
0.424956
0.433044
0.44328
0.455053
0.467328
0.479308
0.489883
0.498277
0.504069
0.507434
0.508143
0.506239
0.501856
0.495993
0.48956
0.483689
0.478657
0.474467
0.46994
0.463952
0.454949
0.442528
0.426666
0.408638
0.389344
0.370284
0.352253
0.336168
0.3216
0.308336
0.295708
0.284278
0.274442
0.2671
0.262038
0.259043
0.257091
0.255618
0.253627
0.250412
0.245173
0.237472
0.227141
0.214432
0.199451
0.183229
0.165235
0.147893
0.128901
0.113032
0.0947586
0.0826386
0.0664246
0.0599761
0.0456702
0.104723
0.108434
0.11185
0.114537
0.116642
0.118681
0.121329
0.125276
0.130862
0.138249
0.14729
0.157497
0.168522
0.179667
0.190501
0.200925
0.210564
0.219628
0.228157
0.236078
0.243716
0.251255
0.258637
0.266378
0.274641
0.283387
0.293033
0.303352
0.314033
0.325238
0.336444
0.347099
0.35749
0.367217
0.375963
0.38341
0.389909
0.395727
0.401057
0.40641
0.412463
0.419269
0.427419
0.436869
0.447861
0.460629
0.475041
0.49033
0.505659
0.520032
0.532717
0.542782
0.549791
0.553646
0.554722
0.552785
0.547915
0.540488
0.531934
0.523559
0.516632
0.511053
0.506469
0.50157
0.495263
0.485929
0.472989
0.456106
0.436295
0.414418
0.39225
0.370867
0.351307
0.333316
0.317003
0.302176
0.289889
0.280707
0.275093
0.272143
0.270865
0.270171
0.269448
0.26797
0.264771
0.25945
0.25122
0.240493
0.22717
0.211913
0.195468
0.177464
0.160507
0.141714
0.126819
0.108887
0.0977227
0.0815546
0.0755915
0.0616714
0.119195
0.123559
0.128343
0.134155
0.141459
0.150533
0.161423
0.174091
0.188086
0.203097
0.21854
0.2338
0.248327
0.26169
0.273886
0.285022
0.294984
0.304036
0.31231
0.319929
0.327167
0.333961
0.340362
0.346594
0.352728
0.358727
0.3649
0.370986
0.376898
0.382921
0.388937
0.394944
0.401198
0.407539
0.413966
0.42046
0.427007
0.433635
0.440487
0.447891
0.456308
0.465815
0.476751
0.488759
0.502125
0.516842
0.532089
0.546914
0.560565
0.572282
0.581578
0.58789
0.591142
0.591404
0.589004
0.583554
0.575139
0.564499
0.553548
0.543775
0.536232
0.530481
0.525963
0.521328
0.515453
0.506671
0.494169
0.477289
0.456713
0.433363
0.409317
0.385867
0.364051
0.343836
0.325682
0.310122
0.298621
0.291608
0.288579
0.287795
0.287623
0.287521
0.286804
0.285218
0.281394
0.275563
0.266411
0.255228
0.24119
0.225869
0.209177
0.191577
0.175041
0.157204
0.143227
0.126618
0.116898
0.102287
0.0971573
0.0843081
0.205156
0.209239
0.213965
0.220232
0.228608
0.239096
0.251496
0.265384
0.28015
0.295187
0.309879
0.323736
0.336589
0.348203
0.358802
0.368432
0.377296
0.385542
0.39325
0.400505
0.407496
0.414168
0.420531
0.426665
0.432467
0.437929
0.443061
0.4478
0.452222
0.456351
0.460126
0.463768
0.467436
0.471008
0.4747
0.478608
0.482705
0.487125
0.492127
0.498027
0.505272
0.513965
0.524086
0.535047
0.54695
0.559195
0.570891
0.581411
0.590417
0.597557
0.602376
0.604635
0.604446
0.601786
0.59666
0.588592
0.5778
0.56538
0.553519
0.543664
0.536489
0.531396
0.527703
0.524068
0.519329
0.511816
0.500494
0.484464
0.464165
0.440728
0.416452
0.392641
0.370246
0.349465
0.331259
0.31702
0.308134
0.304255
0.303591
0.303873
0.303718
0.303331
0.301972
0.299713
0.294914
0.288299
0.278248
0.266734
0.252244
0.237166
0.220426
0.203717
0.187657
0.171697
0.159131
0.145193
0.136965
0.125078
0.120856
0.110304
0.295846
0.299264
0.303434
0.309192
0.316961
0.326632
0.337895
0.350285
0.363182
0.376024
0.388283
0.399744
0.410381
0.420158
0.429324
0.437947
0.446118
0.454014
0.461546
0.468736
0.475623