/*--------------------------------*- C++ -*----------------------------------*\
| =========                 |                                                 |
| \\      /  F ield         | OpenFOAM: The Open Source CFD Toolbox           |
|  \\    /   O peration     | Version:  v2012                                 |
|   \\  /    A nd           | Website:  www.openfoam.com                      |
|    \\/     M anipulation  |                                                 |
\*---------------------------------------------------------------------------*/
FoamFile
{
    version     2.0;
    format      ascii;
    class       scalarField;
    location    "0.124/lagrangian/kinematicCloud";
    object      age;
}
// * * * * * * * * * * * * * * * * * * * * * * * * * * * * * * * * * * * * * //


54
(
0.1232
0.1222
0.1211
0.12
0.119
0.118
0.117
0.116
0.1149
0.1138
0.113725
0.1127
0.1116
0.1105
0.1094
0.1083
0.1072
0.1061
0.105
0.104925
0.1039
0.1028
0.1017
0.1006
0.100525
0.0995
0.0984
0.098325
0.0973
0.097225
0.0962
0.0951
0.094
0.0929
0.092825
0.0919
0.0909
0.0899
0.0889
0.0879
0.0869
0.0859
0.0849
0.0839
0.0829
0.0819
0.0809
0.0799
0.0789
0.0779
0.0769
0.0759
0.0749
0.0739
)


// ************************************************************************* //
