/*--------------------------------*- C++ -*----------------------------------*\
| =========                 |                                                 |
| \\      /  F ield         | OpenFOAM: The Open Source CFD Toolbox           |
|  \\    /   O peration     | Version:  v2012                                 |
|   \\  /    A nd           | Website:  www.openfoam.com                      |
|    \\/     M anipulation  |                                                 |
\*---------------------------------------------------------------------------*/
FoamFile
{
    version     2.0;
    format      ascii;
    class       volScalarField;
    location    "0.052";
    object      nut.air;
}
// * * * * * * * * * * * * * * * * * * * * * * * * * * * * * * * * * * * * * //

dimensions      [0 2 -1 0 0 0 0];


internalField   nonuniform List<scalar> 
1900
(
1.07826e-05
1.25664e-05
1.64255e-05
1.88861e-05
2.41588e-05
2.74149e-05
3.43191e-05
3.84515e-05
4.70968e-05
5.21759e-05
0.000160682
0.000159705
0.000159986
0.00015932
0.000160012
0.000159841
0.000161052
0.000161625
0.000163506
0.000165995
0.000160404
0.000159935
0.00015935
0.000158942
0.000158375
0.00015803
0.000157477
0.000157202
0.000156664
0.000156471
0.000160434
0.00015992
0.000159412
0.000158936
0.000158464
0.000158021
0.000157582
0.000157168
0.000156758
0.000156368
0.000160441
0.000159918
0.000159424
0.000158939
0.000158482
0.00015803
0.000157607
0.000157182
0.000156788
0.000156388
0.00016044
0.000159918
0.000159424
0.000158939
0.000158482
0.00015803
0.000157606
0.000157182
0.000156788
0.000156389
0.000160422
0.000159933
0.000159398
0.000158951
0.000158448
0.000158039
0.000157564
0.000157188
0.000156737
0.000156392
0.000160361
0.000159977
0.000159308
0.000158984
0.000158335
0.00015807
0.000157442
0.000157238
0.000156633
0.000156495
0.000160186
0.000160254
0.000159435
0.000159943
0.000159441
0.000160539
0.000160502
0.000162329
0.0001629
0.000165194
1.04295e-05
1.27948e-05
1.58561e-05
1.92306e-05
2.33359e-05
2.78923e-05
3.32125e-05
3.90718e-05
4.56978e-05
5.28811e-05
0.000196168
0.000641279
0.00141945
0.00211005
0.00247579
0.00267402
0.00269253
0.00258663
0.00247348
0.00238972
0.00233857
0.00234357
0.00237546
0.00247832
0.00261033
0.00278496
0.00300214
0.00323891
0.0034806
0.00372059
0.00392698
0.00405943
0.00417884
0.00430422
0.00442061
0.0045306
0.00463368
0.00472825
0.00481916
0.00490328
0.00498765
0.00506699
0.00513439
0.0051757
0.00521093
0.00524193
0.00526855
0.00529129
0.00531107
0.00532807
0.00534319
0.00535667
0.00536844
0.00537894
0.00538792
0.00539561
0.00540184
0.00540719
0.00541133
0.00541508
0.0054182
0.00542181
0.00542532
0.00543013
0.00543514
0.00544206
0.00544889
0.00545771
0.00546575
0.00547499
0.00548161
0.00548815
0.00549024
0.00549053
0.00548461
0.00547604
0.00546119
0.00544382
0.00542034
0.00539476
0.00536472
0.00533481
0.0053044
0.00527856
0.00525735
0.0052434
0.00523606
0.00523578
0.00524374
0.00525785
0.00528114
0.00530773
0.00534388
0.00537811
0.00541983
0.00544787
0.00547649
0.00547586
0.00547281
0.00542563
0.00538696
0.00529492
0.00522583
0.00509373
0.00500378
0.00483985
0.0047408
0.00455463
0.00445678
0.00421564
0.000172474
0.000182737
0.000219856
0.000325325
0.000480876
0.000625599
0.000699529
0.0007485
0.000767536
0.000767121
0.000764949
0.000776471
0.000806715
0.000838452
0.000891624
0.000968194
0.00106242
0.00118027
0.00131713
0.00147489
0.0016446
0.00182404
0.00200786
0.00219927
0.00240164
0.0026054
0.00280751
0.0030023
0.00318843
0.00336192
0.00352247
0.00366335
0.00379254
0.00388331
0.00397011
0.00405563
0.00413441
0.00420848
0.00427979
0.00434692
0.00441364
0.00447762
0.00453621
0.00458283
0.00462496
0.0046632
0.00469761
0.00472917
0.00475767
0.00478437
0.00480915
0.00483316
0.00485636
0.00487987
0.00490264
0.00492627
0.00494911
0.00497313
0.00499598
0.00501948
0.00504008
0.00506038
0.00507624
0.00508986
0.00509677
0.00510052
0.00509762
0.00509124
0.00507737
0.0050597
0.0050354
0.00500889
0.00497981
0.00495397
0.00493281
0.00491967
0.00491406
0.00491587
0.00492661
0.0049433
0.00496988
0.00499881
0.00503785
0.00507294
0.00511707
0.00514522
0.00517703
0.00517639
0.00517877
0.00513836
0.005111
0.00503331
0.00498007
0.0048663
0.00479192
0.00464634
0.00455946
0.00438889
0.00429724
0.00406635
0.000155879
0.000156049
0.000155666
0.000156124
0.000159359
0.000165005
0.000172679
0.000180637
0.000185987
0.000190941
0.000194847
0.000199346
0.000205342
0.000212519
0.000222299
0.000235999
0.000255114
0.000280733
0.000316125
0.000360051
0.00041686
0.000484743
0.000566038
0.000657713
0.000760741
0.000875628
0.00100016
0.00113579
0.00127708
0.00142766
0.00157725
0.00173679
0.00189782
0.00205726
0.00221674
0.00237396
0.0025262
0.00267256
0.00281164
0.00294316
0.0030656
0.00315973
0.00324086
0.00331925
0.00339491
0.00346772
0.00353804
0.00360553
0.0036709
0.00373566
0.00379901
0.00386191
0.00392641
0.00399042
0.00405226
0.00411438
0.00416144
0.00420666
0.00424939
0.0042913
0.00432948
0.00436649
0.00439962
0.00442966
0.00445283
0.00447268
0.00448627
0.00449492
0.0044948
0.00448901
0.00447465
0.00445568
0.00443227
0.00441028
0.00439265
0.00438303
0.00438144
0.00438664
0.00440114
0.00442063
0.00445032
0.00448071
0.00452129
0.00455531
0.00459953
0.00462552
0.00465637
0.00465323
0.00465903
0.00462382
0.00460762
0.00454535
0.0045098
0.00442098
0.00436871
0.00425325
0.00418675
0.00404596
0.00396817
0.00376631
0.000155907
0.000155427
0.000154966
0.000154628
0.000154421
0.000154443
0.000154535
0.000154755
0.000154903
0.000155064
0.000155117
0.00015513
0.000155168
0.000155079
0.000155281
0.000155178
0.000155809
0.000155927
0.000157411
0.000158342
0.000161599
0.000165804
0.000171255
0.000180127
0.000192199
0.000210386
0.000234381
0.000266365
0.000305562
0.000354683
0.00041216
0.000479081
0.000555123
0.000639648
0.000731215
0.000830778
0.000935585
0.0010464
0.00116046
0.00127793
0.00139571
0.00151523
0.00163656
0.0017552
0.0018726
0.00198923
0.0021038
0.00221623
0.00232554
0.00242074
0.00250032
0.00257985
0.00266003
0.00274038
0.00282018
0.00290018
0.00297874
0.00305687
0.00313444
0.00321332
0.00329152
0.00337438
0.00343826
0.00349141
0.00353751
0.00358173
0.00362064
0.00365023
0.00366922
0.00368038
0.0036817
0.00367667
0.00366542
0.00365207
0.00364208
0.0036398
0.00364593
0.00365791
0.00367898
0.00370408
0.0037389
0.00377191
0.00381384
0.00384766
0.00388647
0.0039045
0.00392602
0.0039199
0.00392805
0.0039081
0.00391173
0.0038853
0.00387663
0.00383433
0.00381045
0.00374676
0.0037062
0.00361355
0.0035563
0.00339994
0.000155946
0.000155434
0.000154985
0.000154573
0.000154284
0.000154119
0.000154085
0.000154201
0.000154281
0.000154432
0.000154388
0.00015444
0.000154238
0.000154222
0.000153922
0.000153901
0.000153556
0.000153576
0.000153205
0.000153303
0.000152922
0.000153141
0.000152798
0.000153188
0.000152967
0.00015367
0.00015378
0.000155126
0.000156041
0.000158748
0.000162227
0.000166633
0.000173388
0.000183411
0.000195735
0.000214217
0.000235847
0.000264632
0.000298044
0.000339071
0.000385348
0.000438415
0.000497161
0.000561672
0.000631231
0.000705404
0.000783379
0.000865375
0.000949747
0.00103782
0.00112556
0.00121465
0.00130251
0.00139044
0.00148179
0.0015729
0.00166331
0.00175546
0.00184671
0.00193895
0.00203028
0.00212169
0.0022112
0.00229898
0.00238003
0.00245403
0.00252306
0.0025819
0.00262101
0.00265321
0.00267818
0.00268548
0.0026805
0.00267339
0.00267237
0.00268268
0.00270272
0.00272909
0.00275885
0.00279327
0.00283477
0.00287281
0.00291579
0.00294994
0.00298665
0.0030158
0.00305026
0.00307706
0.00311706
0.00314871
0.00318533
0.00320873
0.00322771
0.00323372
0.00323739
0.00322824
0.00321396
0.00317339
0.00314107
0.00304401
0.000155945
0.000155429
0.000154969
0.000154529
0.000154241
0.000154047
0.000154108
0.000154193
0.000154475
0.00015468
0.000155084
0.000155417
0.000155943
0.000156399
0.000157039
0.000157594
0.00015831
0.000158918
0.000159692
0.00016033
0.000161164
0.000161839
0.000162746
0.000163482
0.000164482
0.00016529
0.000166419
0.000167309
0.000168601
0.000169609
0.000171086
0.000172292
0.000173965
0.000175482
0.000177491
0.000179802
0.000182314
0.000185621
0.000189033
0.000194108
0.000199579
0.000207007
0.000215756
0.000226972
0.000240701
0.00025735
0.000277681
0.000302186
0.000330717
0.000365102
0.000403564
0.000448303
0.00049774
0.000551972
0.000611341
0.000674802
0.000741654
0.000812771
0.000884918
0.00095929
0.00103545
0.00111141
0.00118612
0.00126043
0.00133064
0.00139503
0.00145704
0.00151519
0.00156668
0.00161224
0.00165073
0.001681
0.00170408
0.00172025
0.00173617
0.00175736
0.00178219
0.00180839
0.00184145
0.00187749
0.00191915
0.00196525
0.00202021
0.00207582
0.00213605
0.00220157
0.00227661
0.00235426
0.00243513
0.00251182
0.00258791
0.00265913
0.00272382
0.00277291
0.00280589
0.00282656
0.00283935
0.00284278
0.00283265
0.0027849
0.000155873
0.00015544
0.000154878
0.000154526
0.000154139
0.000154109
0.0001544
0.000155109
0.000156504
0.000158757
0.000161991
0.000165483
0.000169701
0.000173998
0.00017871
0.000183127
0.000187744
0.00019204
0.000196466
0.000200647
0.000205001
0.000209201
0.000213703
0.000218059
0.000222839
0.000227488
0.000232633
0.00023769
0.000243139
0.000248898
0.000254906
0.000261171
0.00026775
0.000274739
0.000282076
0.000289956
0.000298246
0.00030714
0.000316505
0.000326539
0.000337164
0.000348348
0.000360242
0.000372749
0.000385841
0.000399586
0.00041391
0.000428814
0.000444273
0.000460434
0.000477188
0.000494895
0.000513168
0.000532675
0.000553384
0.000575189
0.000599058
0.000624911
0.000652098
0.000681918
0.000714401
0.000748574
0.000784626
0.000824365
0.000867884
0.000912683
0.000958155
0.00100736
0.00106016
0.00111001
0.0011564
0.00120604
0.00125462
0.00129506
0.00133285
0.00136648
0.00139665
0.00142647
0.00145753
0.00148984
0.001527
0.00157129
0.00162515
0.00169064
0.00176819
0.00185691
0.00195526
0.00205502
0.00215087
0.00223594
0.00231348
0.00238927
0.00245366
0.0025077
0.00254279
0.00257519
0.00259167
0.00260015
0.00259452
0.00256765
0.000155799
0.000155733
0.000155028
0.000155434
0.000155764
0.000160088
0.000164386
0.000172729
0.000186187
0.000201299
0.000218072
0.000234271
0.000250143
0.000264287
0.000277856
0.000289886
0.000301897
0.000312899
0.000324419
0.000335667
0.000347868
0.000360267
0.000373233
0.000386318
0.000400103
0.000413928
0.000428496
0.000443125
0.000458491
0.000473911
0.000490088
0.000506279
0.000523454
0.000541543
0.000560367
0.000579891
0.000600002
0.000620672
0.000641833
0.000663547
0.000685594
0.000708104
0.000730925
0.000754143
0.000777307
0.000801067
0.000824475
0.00084818
0.000871939
0.000895465
0.000919453
0.000943485
0.000967677
0.000992397
0.00101734
0.00104305
0.0010697
0.00109686
0.00112443
0.00115293
0.0011823
0.00121191
0.00124245
0.00127574
0.00131113
0.00134642
0.00138098
0.00141749
0.00145594
0.00148989
0.00151694
0.0015455
0.00157312
0.0015877
0.00160006
0.00161433
0.00162919
0.00164676
0.00166868
0.00169365
0.00172227
0.0017558
0.0017942
0.0018362
0.00187898
0.00192274
0.00196822
0.00201626
0.00206295
0.00210769
0.00214778
0.00218617
0.00221952
0.00224818
0.00226697
0.00227329
0.0022785
0.00227075
0.00226273
0.00223676
0.000166515
0.000169602
0.000176143
0.000188671
0.000212045
0.000244416
0.000282771
0.000323027
0.000361854
0.000397523
0.000429335
0.000457409
0.000482538
0.000505581
0.000527821
0.00055027
0.00057337
0.000597096
0.000624441
0.000652874
0.00068109
0.000691084
0.000701644
0.000713054
0.000724979
0.000737583
0.000750571
0.000764196
0.000777946
0.0007923
0.000806542
0.000821331
0.000835799
0.000850203
0.000864331
0.000878353
0.000892162
0.000905813
0.000919308
0.0009326
0.000945715
0.000958682
0.00097152
0.000984173
0.000996756
0.00100923
0.00102167
0.00103402
0.00104631
0.00105837
0.00107
0.00108099
0.0010914
0.00110135
0.0011107
0.00111942
0.00112735
0.00113469
0.00114196
0.0011501
0.0011595
0.00117014
0.00118201
0.00119476
0.00120749
0.00121935
0.00123021
0.00123965
0.00124708
0.00125202
0.00125117
0.00124388
0.00123005
0.0012112
0.00119956
0.00120537
0.00122511
0.00125093
0.0012795
0.0013101
0.00134084
0.00137061
0.00139933
0.0014261
0.00145058
0.00147253
0.00149408
0.00151555
0.00153557
0.00154842
0.0015613
0.00156504
0.0015711
0.00156464
0.00156227
0.00154652
0.00153855
0.00151687
0.00150682
0.00147714
6.23717e-05
7.45213e-05
8.79205e-05
0.000102395
0.000118129
0.000134677
0.000151713
0.000168235
0.000183701
0.000197068
0.000208129
0.000216298
0.000221571
0.000225223
0.000226535
0.00022614
0.000224564
0.000222167
0.000219223
0.000215998
0.000212598
0.000209237
0.000205978
0.000202876
0.000199952
0.000197227
0.000194705
0.000192389
0.000190273
0.000188353
0.000186617
0.000185059
0.000183665
0.000182426
0.000181328
0.000180359
0.000179508
0.000178763
0.000178114
0.000177553
0.00017707
0.00017666
0.000176316
0.000176033
0.000175808
0.000175638
0.000175522
0.000175459
0.000175447
0.000175474
0.000175527
0.000175594
0.00017567
0.000175746
0.000175808
0.000175845
0.000175844
0.000175799
0.000175734
0.000175692
0.000175726
0.000175863
0.000176047
0.000176255
0.000176547
0.00017682
0.000177034
0.000177231
0.000177409
0.000177508
0.000177416
0.000176772
0.000175153
0.000173325
0.000171966
0.000171509
0.000171766
0.000172242
0.000173365
0.000174951
0.000176316
0.000177477
0.000178454
0.000179243
0.000179817
0.000180287
0.000180741
0.00018091
0.000180836
0.00018044
0.00018014
0.000179439
0.000178971
0.000178016
0.000177454
0.000176338
0.000175788
0.000174632
0.000174108
0.000172838
0.000132031
0.00100867
0.00144193
0.00161977
0.00157207
0.0013027
0.000974532
0.000294977
0.00294545
0.00274225
0.00298683
0.00314071
0.00283863
0.00217104
0.00114303
0.000457661
0.00467236
0.00460561
0.00549736
0.00623568
0.00591451
0.00462861
0.0024687
0.000595085
0.00542863
0.00584552
0.00713131
0.00894468
0.00857619
0.00696547
0.00395372
0.000754753
0.00574989
0.00657415
0.00809049
0.00987196
0.00989394
0.00828778
0.0049518
0.000857643
0.0058716
0.00677445
0.00820924
0.00998181
0.0102975
0.00879241
0.00535498
0.000886361
0.00577168
0.00692608
0.0082444
0.00985454
0.0103959
0.00898469
0.00553476
0.000892917
0.00550978
0.00679015
0.00826809
0.00982109
0.0103339
0.00900554
0.00561265
0.000883362
0.00522757
0.00657745
0.00809717
0.00963615
0.0100801
0.00881378
0.00552224
0.000850852
0.00499378
0.00638355
0.00793914
0.00944277
0.00976018
0.00852687
0.00535277
0.000811813
0.00481911
0.00623478
0.0078214
0.00928965
0.00942974
0.00821099
0.00515329
0.00077007
0.00472698
0.00616819
0.00775074
0.00900448
0.00909389
0.00787755
0.00492678
0.000735335
0.00468137
0.0061546
0.00772317
0.00874226
0.00876602
0.00753664
0.00467793
0.000711704
0.00469975
0.00619413
0.00773087
0.0085061
0.00845662
0.00721038
0.00443939
0.000689021
0.0047341
0.00626319
0.00777096
0.00829804
0.00817367
0.00690799
0.00422011
0.000668054
0.00478775
0.00633717
0.00769778
0.00810514
0.0079103
0.0066361
0.0040182
0.000648907
0.00486101
0.00640322
0.00756051
0.00791908
0.00766227
0.00638423
0.00383727
0.000603403
0.00494999
0.00646298
0.00743456
0.00774052
0.00743093
0.00615468
0.00368572
0.00052103
0.00505067
0.00651623
0.00731852
0.00757243
0.00721649
0.00594365
0.00354769
0.000459842
0.00516081
0.00656512
0.00721388
0.00741672
0.0070189
0.00574933
0.0034202
0.000412824
0.00527824
0.00658869
0.00711925
0.00727308
0.00683739
0.00557075
0.00330271
0.000375657
0.00540316
0.00655407
0.00703366
0.00714095
0.00667074
0.00540687
0.00319489
0.000345649
0.00551856
0.00652054
0.00695389
0.00701841
0.00651716
0.00525601
0.00309576
0.000320966
0.00562979
0.00648932
0.00687935
0.0069042
0.00637492
0.00511658
0.00300436
0.000300358
0.00572798
0.00645899
0.00680901
0.00679726
0.00624282
0.00498726
0.00291981
0.000282936
0.00581829
0.00642929
0.00674217
0.00669663
0.00611899
0.0048668
0.00284134
0.000268036
0.00583288
0.00640004
0.00667821
0.00660119
0.00600431
0.00475397
0.00276838
0.00025518
0.00584095
0.00636972
0.00661599
0.00651004
0.0058966
0.00464803
0.00270027
0.000243988
0.00584588
0.00633931
0.00655579
0.00642305
0.00579472
0.00454831
0.00263652
0.000234176
0.00584783
0.00630855
0.00649706
0.00633965
0.00569775
0.00445401
0.0025766
0.000225514
0.00584948
0.00627874
0.00644014
0.00625959
0.00560543
0.00436467
0.00252017
0.00021782
0.0058501
0.00624966
0.00638502
0.00618282
0.00551738
0.00427991
0.00246692
0.000210951
0.00585028
0.00622139
0.00633239
0.00610906
0.0054332
0.00419937
0.00241662
0.00020479
0.00584991
0.00619404
0.00628184
0.00603838
0.00535277
0.00412281
0.0023691
0.000199243
0.00584815
0.00616719
0.00623309
0.00597078
0.00527592
0.00405001
0.00232418
0.000194233
0.00584518
0.00614064
0.0061858
0.00590564
0.00520246
0.00398078
0.0022817
0.000189692
0.00584095
0.00611429
0.00613971
0.00584345
0.00513184
0.00391476
0.00224148
0.000185567
0.00583518
0.00608797
0.00609471
0.0057836
0.00506395
0.00385168
0.00220334
0.000181809
0.00582822
0.00606163
0.00605071
0.00572574
0.00499861
0.00379132
0.00216712
0.000178376
0.00582012
0.00603521
0.00600762
0.00566965
0.00493562
0.00373345
0.00213265
0.000175231
0.00581115
0.0060087
0.0059653
0.00561511
0.00487475
0.00367787
0.0020998
0.000172342
0.00580155
0.00598224
0.00592377
0.00556202
0.00481586
0.00362441
0.00206844
0.000169685
0.00579128
0.00595577
0.00588291
0.00551023
0.00475877
0.00357287
0.00203843
0.000167235
0.00578059
0.00592946
0.00584286
0.00545975
0.0047034
0.00352316
0.00200971
0.000164973
0.00576936
0.00590322
0.0058034
0.00541049
0.00464966
0.00347517
0.0019822
0.00016288
0.0057578
0.00587717
0.00576489
0.00536239
0.00459751
0.00342884
0.00195584
0.000160944
0.00574574
0.00585125
0.00572717
0.00531539
0.00454682
0.00338406
0.00193058
0.000159153
0.00573369
0.00582582
0.00569045
0.00526973
0.00449773
0.00334092
0.00190644
0.000157498
0.00572133
0.00580065
0.00565453
0.0052253
0.00445019
0.00329936
0.00188339
0.000155972
0.00570938
0.0057764
0.00561992
0.00518251
0.00440446
0.00325953
0.00186147
0.000154566
0.00569755
0.00575281
0.00558642
0.00514122
0.00436044
0.00322136
0.00184064
0.000153273
0.00568691
0.00573086
0.0055548
0.00510199
0.00431854
0.00318508
0.00182096
0.000152088
0.00567675
0.00570981
0.00552455
0.00506447
0.0042785
0.00315054
0.00180237
0.000151
0.00566835
0.00569098
0.00549651
0.00502931
0.00424077
0.00311796
0.00178492
0.000150005
0.00566066
0.00567331
0.00546988
0.00499584
0.00420487
0.00308704
0.00176846
0.000149089
0.00565525
0.00565808
0.00544568
0.00496475
0.00417118
0.00305792
0.001753
0.000148244
0.00565016
0.0056435
0.0054224
0.00493483
0.0041388
0.00303001
0.00173829
0.000147453
0.00564722
0.00563104
0.00540111
0.00490672
0.00410802
0.00300335
0.00172427
0.000146709
0.00564367
0.00561813
0.00537963
0.00487877
0.00407766
0.00297726
0.00171068
0.000146
0.00564131
0.00560626
0.00535908
0.00485167
0.00404809
0.00295187
0.00169753
0.000145322
0.00563654
0.00559226
0.00533687
0.00482351
0.00401809
0.00292653
0.00168458
0.000144667
0.0056316
0.00557808
0.00531446
0.00479533
0.00398828
0.00290153
0.00167186
0.000144034
0.00562259
0.00556042
0.00528937
0.00476541
0.00395767
0.0028764
0.00165924
0.000143419
0.00561207
0.00554156
0.00526349
0.00473514
0.00392713
0.00285157
0.00164684
0.000142829
0.0055962
0.00551836
0.00523451
0.00470305
0.00389585
0.0028267
0.00163455
0.00014227
0.00557827
0.00549365
0.00520466
0.00467068
0.00386477
0.00280224
0.00162251
0.000141763
0.00555506
0.00546483
0.00517204
0.00463685
0.00383333
0.00277804
0.00161071
0.000141298
0.00553015
0.00543503
0.00513921
0.00460349
0.00380284
0.00275489
0.00159949
0.000140845
0.00550071
0.00540224
0.00510509
0.00457034
0.00377363
0.00273323
0.00158903
0.000140443
0.00547066
0.00537008
0.00507272
0.00453972
0.00374709
0.00271365
0.0015795
0.000140166
0.00543829
0.00533741
0.00504152
0.0045113
0.0037229
0.00269558
0.0015703
0.000139942
0.00540776
0.00530763
0.00501376
0.00448613
0.00370103
0.00267846
0.00156094
0.000139764
0.00537834
0.00527982
0.00498817
0.00446262
0.00367993
0.00266168
0.00155231
0.000139632
0.00535384
0.00525647
0.00496578
0.0044406
0.00365874
0.00264448
0.00154503
0.000139535
0.00533337
0.0052362
0.00494486
0.0044186
0.00363661
0.00262602
0.00153703
0.000139468
0.00531862
0.0052199
0.00492579
0.0043968
0.00361415
0.00260793
0.0015291
0.000139426
0.00530895
0.00520706
0.00490848
0.00437557
0.00359196
0.0025911
0.00152212
0.00013942
0.0053052
0.00519886
0.00489459
0.00435683
0.00357169
0.0025752
0.00151647
0.000139453
0.00530857
0.00519665
0.00488569
0.00434256
0.00355555
0.00256275
0.00151235
0.000139534
0.00531803
0.00520041
0.00488285
0.0043345
0.00354537
0.00255516
0.00150981
0.000139668
0.00533579
0.00521182
0.0048873
0.00433334
0.00354153
0.00255265
0.00150981
0.000139862
0.00535788
0.00522872
0.00489833
0.00433923
0.00354367
0.00255313
0.00151115
0.000140087
0.00538865
0.00525341
0.00491628
0.00435113
0.00355105
0.00255662
0.00151371
0.000140334
0.00541996
0.00528074
0.00493835
0.00436742
0.00356124
0.00256193
0.00151644
0.000140555
0.00545638
0.0053112
0.00496194
0.00438403
0.0035711
0.00256663
0.0015191
0.000140737
0.00548268
0.00533463
0.00498097
0.00439786
0.00357852
0.00256927
0.00152023
0.000140838
0.00550604
0.00535254
0.00499264
0.00440323
0.00357866
0.00256728
0.00151989
0.000140842
0.00550433
0.00534879
0.00498564
0.00439324
0.00356637
0.00255661
0.00151639
0.000140682
0.00549564
0.00533539
0.00496802
0.00437271
0.00354587
0.00254021
0.00150413
0.000140345
0.00544286
0.00527878
0.00490955
0.00431627
0.00349819
0.00251046
0.00147757
0.000139906
0.00539651
0.00522778
0.00485671
0.00426525
0.00345417
0.00248134
0.00144859
0.000139324
0.00529649
0.00512454
0.00475488
0.00417099
0.00337812
0.00243307
0.00141526
0.000138536
0.00521831
0.00504231
0.00467357
0.00409691
0.00331688
0.00239318
0.00138439
0.000137844
0.00507781
0.00490049
0.00453735
0.00397427
0.00322135
0.00233305
0.00134811
0.000137002
0.00498027
0.00480112
0.00444208
0.00389079
0.00315433
0.00229054
0.00132037
0.000136346
0.00481044
0.00463371
0.00428552
0.00375405
0.00305148
0.00222806
0.00128689
0.000135541
0.00470755
0.00453237
0.00419141
0.00367435
0.00298964
0.00219028
0.00126487
0.000135015
0.00451979
0.00435157
0.00402675
0.00353528
0.00288828
0.00213057
0.0012355
0.000134259
0.00442273
0.00425954
0.00394434
0.00346719
0.00283684
0.00210033
0.00122013
0.000133922
0.00418692
0.00403877
0.00374928
0.00330852
0.00272464
0.00203605
0.00119137
0.000133121
)
;

boundaryField
{
    frontAndBack
    {
        type            empty;
    }
    inlet
    {
        type            calculated;
        value           nonuniform List<scalar> 10(9.54769e-06 0.000160714 0.000160714 0.000160714 0.000160714 0.000160714 0.000160714 0.000160714 0.000160714 9.54736e-06);
    }
    outlet
    {
        type            calculated;
        value           nonuniform List<scalar> 
18
(
0.00418692
0.00403877
0.00374928
0.00330852
0.00272464
0.00203605
0.00119092
0.00016813
0.00421564
0.00406635
0.00376631
0.00339994
0.00304401
0.0027849
0.00256765
0.00223676
0.00147735
0.000181332
)
;
    }
    walls
    {
        type            nutkWallFunction;
        blending        stepwise;
        Cmu             0.09;
        kappa           0.41;
        E               9.8;
        value           nonuniform List<scalar> 
228
(
2.20337e-05
2.44559e-05
2.91026e-05
3.17398e-05
3.68056e-05
3.96162e-05
4.50183e-05
4.79443e-05
5.35673e-05
5.65374e-05
0.000228261
0.000216673
0.000219079
0.000225624
0.000229852
0.000225515
0.000199532
3.37447e-05
3.37447e-05
5.92134e-05
7.99895e-05
9.57466e-05
0.000104038
0.000107449
0.000108226
0.000107094
0.00010323
9.85683e-05
9.35563e-05
8.93628e-05
8.64973e-05
8.37369e-05
8.11763e-05
7.88302e-05
7.6605e-05
7.44988e-05
7.2604e-05
7.08981e-05
6.93606e-05
6.798e-05
6.67395e-05
6.56224e-05
6.46146e-05
6.37018e-05
6.28747e-05
6.21234e-05
6.14394e-05
6.08149e-05
6.02429e-05
5.97179e-05
5.92355e-05
5.87919e-05
5.83841e-05
5.80092e-05
5.76647e-05
5.73481e-05
5.70569e-05
5.6789e-05
5.65422e-05
5.6315e-05
5.61057e-05
5.59129e-05
5.57352e-05
5.55718e-05
5.54219e-05
5.52855e-05
5.51623e-05
5.50523e-05
5.49547e-05
5.48697e-05
5.47963e-05
5.47342e-05
5.46815e-05
5.4637e-05
5.45976e-05
5.4562e-05
5.45277e-05
5.44942e-05
5.44601e-05
5.44261e-05
5.43926e-05
5.43619e-05
5.4337e-05
5.4324e-05
5.43228e-05
5.43291e-05
5.43534e-05
5.44125e-05
5.44924e-05
5.45899e-05
5.47005e-05
5.48152e-05
5.49276e-05
5.50346e-05
5.51374e-05
5.52384e-05
5.53428e-05
5.54553e-05
5.55812e-05
5.57172e-05
5.58643e-05
5.60128e-05
5.61589e-05
5.62901e-05
5.63995e-05
5.64671e-05
5.64883e-05
5.64758e-05
5.64219e-05
5.63087e-05
5.62035e-05
5.60505e-05
5.59247e-05
5.57573e-05
5.56416e-05
5.54751e-05
5.53963e-05
5.52262e-05
2.15268e-05
2.47524e-05
2.8458e-05
3.20937e-05
3.60562e-05
4.00127e-05
4.41922e-05
4.83748e-05
5.26953e-05
5.69927e-05
6.21854e-05
6.81866e-05
7.41054e-05
7.97521e-05
8.50881e-05
8.98974e-05
9.41177e-05
9.75734e-05
0.000100286
0.00010217
0.000103363
0.00010385
0.000103735
0.000103363
0.00010259
0.000101559
0.000100381
9.91165e-05
9.78157e-05
9.65205e-05
9.5245e-05
9.40247e-05
9.28663e-05
9.17762e-05
9.07548e-05
8.98033e-05
8.89198e-05
8.81035e-05
8.73506e-05
8.66594e-05
8.60257e-05
8.54472e-05
8.49196e-05
8.44398e-05
8.40033e-05
8.36068e-05
8.32467e-05
8.292e-05
8.26235e-05
8.23546e-05
8.2111e-05
8.18911e-05
8.16934e-05
8.15169e-05
8.13609e-05
8.1225e-05
8.11091e-05
8.10135e-05
8.09372e-05
8.08764e-05
8.08266e-05
8.07838e-05
8.07456e-05
8.07088e-05
8.06689e-05
8.06216e-05
8.05622e-05
8.04894e-05
8.04096e-05
8.03373e-05
8.02884e-05
8.02708e-05
8.02715e-05
8.02824e-05
8.03142e-05
8.03404e-05
8.03485e-05
8.0345e-05
8.03243e-05
8.02652e-05
8.01271e-05
7.98069e-05
7.91973e-05
7.84983e-05
7.793e-05
7.76332e-05
7.75739e-05
7.7621e-05
7.7856e-05
7.82267e-05
7.8552e-05
7.8815e-05
7.90127e-05
7.91426e-05
7.91983e-05
7.92002e-05
7.91712e-05
7.90587e-05
7.88841e-05
7.86398e-05
7.84296e-05
7.81426e-05
7.7926e-05
7.76098e-05
7.73967e-05
7.70596e-05
7.68636e-05
7.65139e-05
7.63428e-05
7.59263e-05
)
;
    }
}


// ************************************************************************* //
