/*--------------------------------*- C++ -*----------------------------------*\
| =========                 |                                                 |
| \\      /  F ield         | OpenFOAM: The Open Source CFD Toolbox           |
|  \\    /   O peration     | Version:  v2012                                 |
|   \\  /    A nd           | Website:  www.openfoam.com                      |
|    \\/     M anipulation  |                                                 |
\*---------------------------------------------------------------------------*/
FoamFile
{
    version     2.0;
    format      ascii;
    class       scalarField;
    location    "0.123/lagrangian/kinematicCloud";
    object      age;
}
// * * * * * * * * * * * * * * * * * * * * * * * * * * * * * * * * * * * * * //


54
(
0.1222
0.1212
0.1201
0.119
0.118
0.117
0.116
0.115
0.1139
0.1128
0.112725
0.1117
0.1106
0.1095
0.1084
0.1073
0.1062
0.1051
0.104
0.103925
0.1029
0.1018
0.1007
0.0996
0.099525
0.0985
0.0974
0.097325
0.0963
0.096225
0.0952
0.0941
0.093
0.0919
0.091825
0.0909
0.0899
0.0889
0.0879
0.0869
0.0859
0.0849
0.0839
0.0829
0.0819
0.0809
0.0799
0.0789
0.0779
0.0769
0.0759
0.0749
0.0739
0.0729
)


// ************************************************************************* //
