/*--------------------------------*- C++ -*----------------------------------*\
| =========                 |                                                 |
| \\      /  F ield         | OpenFOAM: The Open Source CFD Toolbox           |
|  \\    /   O peration     | Version:  v2012                                 |
|   \\  /    A nd           | Website:  www.openfoam.com                      |
|    \\/     M anipulation  |                                                 |
\*---------------------------------------------------------------------------*/
FoamFile
{
    version     2.0;
    format      ascii;
    class       volScalarField;
    location    "0.104";
    object      epsilon.air;
}
// * * * * * * * * * * * * * * * * * * * * * * * * * * * * * * * * * * * * * //

dimensions      [0 2 -3 0 0 0 0];


internalField   nonuniform List<scalar> 
1900
(
112.724
141.424
210.098
257.591
369.051
443.457
614.74
724.902
971.33
1128.61
15.4676
16.4471
18.6378
20.4499
23.7574
27.7276
32.0002
39.3098
44.9855
56.9762
14.7926
14.6414
14.5755
14.5063
14.515
14.5558
14.6443
14.829
15.0762
15.4173
14.77
14.6304
14.4634
14.3354
14.1726
14.059
13.9039
13.808
13.6653
13.5938
14.7766
14.6216
14.4704
14.3205
14.1747
14.029
13.8889
13.7473
13.6138
13.477
14.7777
14.6205
14.4714
14.3196
14.1754
14.0284
13.8891
13.7473
13.6132
13.4774
14.7777
14.6206
14.4731
14.3234
14.1841
14.045
13.9175
13.7915
13.6806
13.5716
14.7762
14.6499
14.5638
14.5034
14.5109
14.5498
14.6402
14.8192
15.0442
15.3955
15.2149
16.599
18.2775
20.6787
23.5918
27.5733
32.263
38.4073
45.565
54.8155
105.957
146.551
198.387
265.738
350.028
456.044
585.664
743.691
931.816
1154.08
4102.23
15195.6
19568.6
22445.5
21116.3
18030.9
15095.2
12801.7
11298.3
10378.3
9873.63
9695.57
9522.35
9256.25
8851.24
8353.17
7798.87
7212.07
6645.22
6126.44
5649.17
5222.07
4837.67
4486.72
4167.5
3878.16
3615.79
3378.42
3162.86
2967.21
2789.01
2626.26
2477.29
2340.58
2214.96
2099.31
1992.7
1894.22
1803.12
1718.67
1640.28
1567.36
1499.44
1436.06
1376.81
1321.31
1269.24
1220.29
1174.21
1130.75
1089.71
1050.88
1014.11
979.235
946.115
914.605
884.603
855.975
828.647
802.495
777.479
753.477
730.486
708.384
687.204
666.806
647.265
628.409
610.353
592.881
576.163
559.924
544.406
529.262
514.828
500.664
487.224
473.949
461.435
448.972
437.336
425.619
414.824
403.79
393.811
383.396
374.214
364.35
355.953
346.564
338.948
329.942
323.111
314.382
308.347
299.769
294.556
285.989
281.617
271.3
112.994
337.664
517.783
922.776
1126.15
1151.4
1123.53
1059.37
1052.19
1091.06
1195.51
1407.59
1694.72
2026.89
2378.17
2691.53
2969.97
3202.58
3357.13
3433.54
3425.83
3387.34
3302.17
3184.51
3056.58
2925.4
2794.7
2667.91
2544.28
2426.84
2314.62
2207.52
2106.06
2010.07
1919.67
1834.53
1754.56
1679.27
1608.4
1541.69
1478.85
1419.59
1363.72
1310.98
1261.19
1214.1
1169.53
1127.28
1087.19
1049.07
1012.8
978.236
945.258
913.754
883.633
854.79
827.16
800.647
775.206
750.742
727.236
704.59
682.813
661.803
641.604
622.097
603.363
585.25
567.88
551.055
534.946
519.296
504.341
489.756
475.857
462.234
449.31
436.564
424.551
412.607
401.456
390.251
379.926
369.396
359.869
349.951
341.201
331.826
323.837
314.93
307.696
299.168
292.689
284.438
278.724
270.632
265.705
257.638
253.524
243.832
16.4228
19.8665
22.8797
29.0924
34.7983
38.7623
41.7304
43.8017
46.7169
50.7169
58.7329
70.9208
95.463
130.107
189.448
267.249
373.528
508.382
665.463
835.643
1004.01
1162.06
1302.32
1419.48
1510.62
1574.14
1612.59
1629.58
1626.75
1615.69
1592.32
1561.75
1527.12
1489.75
1451.2
1411.48
1371.77
1331.56
1291.79
1252.7
1214.26
1176.66
1140.05
1104.53
1070.16
1036.87
1004.76
973.713
943.712
914.718
886.687
859.565
833.314
807.89
783.275
759.419
736.322
713.938
692.28
671.288
650.986
631.306
612.282
593.837
576.032
558.77
542.144
526.022
510.535
495.502
481.102
467.09
453.706
440.635
428.193
415.979
404.41
392.978
382.222
371.502
361.517
351.454
342.208
332.744
324.213
315.292
307.457
299.017
291.865
283.84
277.365
269.678
263.878
256.44
251.323
244.03
239.614
232.351
228.656
219.94
13.4531
13.4606
13.5462
13.8022
14.3328
15.0053
15.7157
16.3395
16.9264
17.3475
17.9015
18.3652
19.3061
20.4909
22.7407
26.2317
31.7531
40.7093
54.7019
75.9854
106.214
146.692
198.447
260.367
330.24
405.48
481.431
555.575
623.013
684.636
737.493
781.021
815.171
840.353
858.315
869.258
874.973
874.5
871.946
866.224
857.588
846.931
834.815
821.371
807.054
791.934
776.362
760.215
743.821
727.269
710.565
693.776
676.977
660.209
643.552
627.004
610.668
594.537
578.711
563.154
547.96
533.081
518.586
504.421
490.671
477.258
464.285
451.635
439.448
427.552
416.143
404.978
394.317
383.836
373.876
364.023
354.713
345.423
336.715
327.943
319.817
311.523
303.959
296.103
289.089
281.63
275.156
268.052
262.121
255.328
249.937
243.395
238.544
232.188
227.887
221.642
217.906
211.687
208.53
201.061
13.3297
13.1591
13.0624
13.1164
13.3045
13.7152
14.2831
14.909
15.4497
15.8852
16.2116
16.4471
16.6209
16.7667
16.9055
17.0841
17.3368
17.7136
18.3273
19.2849
20.8363
23.2067
26.7452
32.0753
39.7281
50.5568
65.0324
83.7466
106.671
133.856
164.645
198.034
233.157
268.425
303.306
336.114
367.009
394.916
419.662
440.975
458.836
473.225
484.557
492.926
498.849
502.475
504.353
504.109
503.011
500.579
496.874
492.201
486.756
480.607
473.903
466.721
459.224
451.41
443.476
435.359
427.268
419.094
410.982
402.902
394.951
387.061
379.317
371.631
364.131
356.681
349.472
342.28
335.381
328.441
321.85
315.151
308.857
302.396
296.395
290.146
284.427
278.371
272.937
267.063
261.926
256.224
251.401
245.858
241.353
235.946
231.785
226.501
222.706
217.52
214.112
208.987
205.985
200.875
198.293
192.143
13.3249
13.1544
13.0316
13.0861
13.2951
13.7718
14.4966
15.4848
16.5045
17.6046
18.6025
19.5278
20.2651
20.8712
21.2928
21.5963
21.764
21.8435
21.8318
21.7913
21.7032
21.6067
21.5351
21.5603
21.6669
21.9254
22.4662
23.3659
24.8477
27.0489
30.2964
34.7737
40.8178
48.4935
57.9312
69.1945
82.2353
96.8478
112.805
129.698
147.191
164.76
182.095
198.736
214.543
229.163
242.681
254.805
265.722
275.36
283.822
291.124
297.376
302.666
307.055
310.631
313.513
315.689
317.338
318.346
319.015
319.004
318.776
318.222
317.179
315.795
314.111
312.149
309.984
307.57
305.034
302.259
299.445
296.342
293.347
289.976
286.832
283.242
279.984
276.218
272.88
268.969
265.597
261.572
258.213
254.106
250.808
246.65
243.461
239.275
236.234
232.036
229.182
224.99
222.361
218.181
215.809
211.641
209.55
204.543
13.4657
13.3602
13.4097
13.6559
14.3036
15.6843
18.0281
21.4324
25.3998
29.7175
33.6314
37.079
39.606
41.5362
42.6054
43.3009
43.3491
43.2254
42.9148
42.4135
41.7924
41.161
40.513
39.907
39.3457
38.8471
38.4878
38.2097
38.1124
38.1705
38.3508
38.7642
39.3411
40.3312
41.5617
43.3305
45.5477
48.4684
52.1643
56.7461
62.4445
69.2139
77.3288
86.6075
97.2119
108.898
121.66
135.244
149.477
164.135
178.937
193.721
208.17
222.203
235.575
248.255
260.096
271.112
281.207
290.429
298.72
306.163
312.686
318.445
323.361
327.552
330.985
333.756
335.871
337.463
338.452
339.065
339.026
338.761
338.193
337.03
335.92
334.07
332.51
330.133
328.187
325.372
323.127
319.951
317.497
314.041
311.465
307.799
305.178
301.359
298.752
294.834
292.304
288.345
285.959
282.012
279.829
275.932
274.013
269.446
15.9088
16.8588
18.549
21.9365
28.4067
39.4692
55.4478
74.9853
95.4585
114.317
129.311
140.112
146.497
150.077
150.694
150.273
149.21
147.691
146.238
145.169
144.524
144.704
145.339
146.744
148.96
152.109
156.126
161.141
166.961
173.926
181.663
190.755
200.532
211.719
223.538
236.74
250.614
265.656
281.519
298.066
315.425
332.984
351.182
369.248
387.473
405.309
422.81
439.729
456.056
471.696
486.643
500.852
514.282
526.963
538.826
549.984
560.29
569.874
578.502
586.317
593.05
598.883
603.607
607.366
610.105
611.877
612.731
612.604
612.029
610.729
608.784
606.249
603.392
599.956
596.466
592.27
588.389
583.634
579.458
574.309
569.918
564.475
559.961
554.302
549.759
543.98
539.508
533.682
529.356
523.521
519.38
513.575
509.675
503.962
500.39
494.838
491.696
486.341
483.761
477.794
68.0259
90.4447
126.231
184.865
271.947
385
511.481
635.801
744.964
831.764
892.83
932.643
953.115
963.025
964.45
963.3
960.463
957.541
956.946
957.809
960.437
966.414
975.218
986.392
999.955
1016.24
1034.89
1055.29
1077.41
1101.24
1126.41
1152.7
1179.38
1206.49
1233.39
1260.25
1286.33
1311.73
1336.04
1358.9
1380.69
1400.73
1419.75
1436.94
1452.97
1467.21
1480.17
1491.53
1501.67
1510.39
1517.95
1524.05
1528.96
1532.44
1534.72
1535.64
1535.29
1534.14
1531.67
1527.95
1523.11
1517.18
1510.27
1502.21
1493.52
1483.59
1473.08
1461.96
1450.41
1438.17
1425.98
1413.03
1400.46
1387.1
1374.43
1360.88
1348.28
1334.79
1322.46
1309.17
1297.27
1284.27
1272.88
1260.23
1249.43
1237.21
1227.11
1215.37
1206.03
1194.73
1186.13
1175.2
1167.36
1156.81
1149.81
1139.7
1133.72
1124.02
1119.29
1108.77
1464.64
1897.28
2398.99
2961.87
3563.12
4171.83
4746.07
5251.35
5654.98
5950.74
6132.39
6219.1
6206.49
6159.71
6061.18
5928.12
5778.15
5619.82
5459.49
5301.73
5149.45
5004.24
4867.31
4739.41
4620.5
4510.57
4409.34
4316.55
4231.7
4154.4
4084.1
4020.51
3963.06
3911.64
3865.65
3825.08
3789.24
3758.13
3731.05
3707.71
3687.83
3670.84
3656.77
3644.62
3634.57
3625.84
3618.73
3612.71
3608.09
3604.31
3601.78
3599.9
3598.89
3598.46
3598.57
3598.92
3599.66
3600.59
3601.57
3602.67
3603.74
3604.84
3606.13
3607.15
3608.48
3609.25
3609.98
3610
3609.74
3608.92
3607.65
3605.07
3602.54
3598.39
3594.53
3588.9
3583.83
3576.89
3570.73
3562.54
3555.34
3545.88
3537.67
3526.99
3517.89
3506.12
3496.35
3483.61
3473.4
3459.73
3449.22
3434.6
3424.05
3408.52
3398.36
3381.91
3372.5
3355.19
3346.4
3324.43
1109.72
1064.93
1122.22
1209.98
1238.64
1120.93
818.282
1979.5
54696.4
16173
7366.18
6109.16
6233.01
6483
6553.43
8026.22
74298.1
43681.5
24857.3
18470.6
16100.1
14998.3
14625.1
19666
76428.9
71038
54258
41197.4
32685
27154.6
24541.1
34055.2
69744
75706
67742.3
55642.5
44560.1
35837.6
30859.6
42694.5
57771.5
71176.6
67943.6
59038.6
48374.6
38731.8
32781.8
45219.7
47498.9
61839.5
62494.9
56616.3
47169.6
38181
32456.4
44247.3
39095.4
51826.4
53593.6
49846.2
42402.5
34682.9
29599.7
39778.9
32624.9
42991.2
44925.2
42137.9
36307
30047.6
25827.9
34059
27600.7
35622.9
37259.9
35118.1
30546.2
25560.5
22228.9
29390.7
23482.6
29583.7
30824.5
29123.3
25532.9
21634.9
19161.1
26027.2
20102.1
24693.1
25573.1
24183.3
21339.8
18297.8
16494.9
22983.4
17366.5
20780.1
21367.3
20208.2
17937
15553.2
14261.9
20356.6
15136.3
17656.4
18021.3
17040.2
15210.7
13329
12423.2
18144.8
13288.6
15148.2
15353.6
14516.5
13029.4
11533.9
10920.7
16312
11729.4
13108.8
13205.7
12488.6
11270.7
10075.8
9687.69
14790.6
10407.3
11438.8
11463.1
10846.5
9841.48
8882.66
8668.88
13521.8
9269.27
10052.5
10033.2
9500.46
8666.92
7895.99
7819.31
12455
8287.12
8890.82
8847.15
8385.35
7691.01
7071.48
7102.76
11548.8
7443.54
7912.49
7854.49
7453.51
6872.59
6375.81
6491.21
10771.6
6716.3
7083.68
7017.71
6668.62
6180.43
5783.4
5966
10097.8
6089.48
6378.17
6308.02
6002.96
5590.84
5275.2
5511.62
9508.02
5546.96
5774.32
5702.56
5435
5085.74
4836.9
5116.58
8989.4
5073.11
5253.34
5182.17
4946.99
4650.31
4456.89
4771.68
8531.98
4657.11
4800.99
4731.91
4524.87
4272.58
4125.58
4469.14
8126.97
4290.23
4405.95
4339.97
4157.53
3943
3835.18
4202.51
7767
3965.16
4058.95
3996.73
3835.93
3653.77
3579.32
3966.48
7445.98
3676.32
3752.75
3694.58
3552.88
3398.66
3352.81
3756.65
7158.84
3418.49
3481.17
3427.22
3302.43
3172.47
3151.3
3569.32
6901.34
3187.64
3239.3
3189.55
3079.76
2970.96
2971.28
3401.34
6669.62
2980.05
3022.9
2977.29
2880.89
2790.71
2809.39
3250.26
6460.27
2792.71
2828.48
2786.89
2702.48
2628.69
2663.4
3113.71
6270.47
2623.06
2653.17
2615.45
2541.82
2482.5
2531.32
2989.82
6097.8
2468.91
2494.5
2460.5
2396.6
2350.15
2411.45
2877.04
5940.08
2328.48
2350.48
2320.04
2264.91
2229.93
2302.32
2774.07
5795.49
2200.22
2219.37
2192.33
2145.16
2120.44
2202.71
2679.81
5662.53
2082.83
2099.74
2075.93
2035.97
2020.48
2111.58
2593.36
5539.95
1975.14
1990.32
1969.58
1936.19
1929
2028.04
2513.93
5426.76
1876.15
1890
1872.18
1844.78
1845.12
1951.3
2440.86
5322.19
1784.95
1797.83
1782.77
1760.87
1767.95
1880.75
2373.58
5225.58
1700.74
1712.93
1700.5
1683.65
1696.84
1815.72
2311.56
5136.39
1622.84
1634.56
1624.62
1612.41
1631.19
1755.65
2254.31
5054.13
1550.61
1562.04
1554.46
1546.53
1570.45
1700.04
2201.4
4978.31
1483.49
1494.79
1489.43
1485.46
1514.13
1648.46
2152.41
4908.43
1421.01
1432.28
1429.03
1428.72
1461.76
1600.49
2106.95
4843.95
1362.69
1374.04
1372.79
1375.85
1413
1555.8
2064.69
4784.33
1308.18
1319.67
1320.32
1326.5
1367.47
1514.06
2025.29
4729.03
1257.11
1268.81
1271.26
1280.37
1324.89
1475
1988.49
4677.55
1209.19
1221.16
1225.32
1237.17
1284.99
1438.38
1954.03
4629.43
1164.15
1176.44
1182.23
1196.65
1247.54
1404.01
1921.72
4584.28
1121.76
1134.41
1141.77
1158.59
1212.35
1371.67
1891.36
4541.77
1081.79
1094.85
1103.7
1122.79
1179.23
1341.24
1862.81
4501.65
1044.07
1057.56
1067.85
1089.07
1148.02
1312.54
1835.92
4463.73
1008.4
1022.37
1034.04
1057.27
1118.58
1285.47
1810.59
4427.86
974.632
989.104
1002.1
1027.23
1090.75
1259.89
1786.69
4393.96
942.608
957.603
971.872
998.808
1064.43
1235.7
1764.17
4361.93
912.205
927.738
943.238
971.885
1039.49
1212.79
1742.91
4331.75
883.274
899.363
916.054
946.336
1015.84
1191.09
1722.84
4303.32
855.731
872.386
890.231
922.072
993.374
1170.49
1703.88
4276.62
829.441
846.675
865.64
898.979
972.007
1150.93
1685.98
4251.51
804.355
822.175
842.229
877.003
951.679
1132.34
1669.04
4227.96
780.345
798.762
819.877
856.036
932.301
1114.65
1653.03
4205.77
757.4
776.42
798.57
836.061
913.848
1097.84
1637.88
4184.97
735.391
755.018
778.178
816.96
896.221
1081.81
1623.54
4165.3
714.344
734.581
758.726
798.752
879.432
1066.57
1610
4146.91
694.111
714.956
740.061
781.293
863.349
1052.02
1597.15
4129.4
674.76
696.209
722.249
764.647
848.027
1038.18
1585.03
4113.12
656.108
678.148
705.094
748.619
833.284
1024.91
1573.49
4097.48
638.27
660.894
688.72
733.336
819.243
1012.3
1562.63
4083.07
621.011
644.196
672.867
718.531
805.642
1000.11
1552.19
4069.01
604.511
628.246
657.739
704.419
792.697
988.539
1542.38
4056.22
588.472
612.725
642.995
690.642
780.043
977.233
1532.83
4043.37
573.155
597.915
628.945
677.536
768.032
966.544
1523.9
4031.88
558.182
583.41
615.147
664.621
756.154
955.942
1515.02
4019.88
543.921
569.61
602.043
652.389
744.946
945.998
1506.82
4009.39
529.892
555.993
589.059
640.203
733.707
935.947
1498.41
3997.87
516.593
543.106
576.806
628.751
723.208
926.649
1490.81
3988.12
503.412
530.279
564.538
617.192
712.499
917.029
1482.73
3976.77
491.007
518.238
553.07
606.459
702.651
908.321
1475.67
3967.62
478.597
506.126
541.441
595.45
692.393
899.039
1467.79
3956.2
467.038
494.886
530.718
585.4
683.169
890.904
1461.27
3947.62
455.335
483.424
519.666
574.883
673.302
881.892
1453.48
3936
444.59
472.957
509.665
565.502
664.699
874.34
1447.53
3928.04
433.533
462.09
499.141
555.431
655.179
865.554
1439.78
3916.2
423.579
452.378
489.853
546.72
647.211
858.62
1434.46
3908.96
413.11
442.053
479.811
537.058
638.014
850.044
1426.76
3897.01
403.934
433.089
471.232
529.022
630.698
843.762
1422.12
3890.57
393.989
423.252
461.631
519.744
621.817
835.421
1414.54
3878.79
385.584
415.031
453.762
512.385
615.158
829.793
1410.57
3873.08
376.092
405.617
444.55
503.461
606.598
821.748
1403.29
3861.84
368.457
398.142
437.394
496.78
600.59
816.751
1399.88
3856.66
359.331
389.073
428.503
488.162
592.334
809.038
1393.07
3846.24
352.47
382.347
422.061
482.154
586.96
804.637
1390.1
3841.58
343.606
373.523
413.406
473.774
578.973
797.274
1383.93
3832.08
337.53
367.553
407.674
468.421
574.191
793.399
1381.32
3827.82
328.805
358.86
399.15
460.193
566.416
786.37
1375.75
3819.18
323.534
353.656
394.124
455.464
562.154
782.881
1373.35
3815.11
314.811
344.964
385.612
447.286
554.512
776.146
1368.25
3807.32
310.357
340.526
381.272
443.133
550.673
772.864
1365.92
3803.4
299.81
329.97
370.882
433.089
541.232
764.508
1359.36
3794.47
)
;

boundaryField
{
    frontAndBack
    {
        type            empty;
    }
    inlet
    {
        type            fixedValue;
        value           uniform 14.855;
    }
    outlet
    {
        type            zeroGradient;
    }
    walls
    {
        lowReCorrection 0;
        blending        stepwise;
        n               2;
        type            epsilonWallFunction;
        value           nonuniform List<scalar> 
228
(
112.724
141.424
210.098
257.591
369.051
443.457
614.74
724.902
971.33
1128.61
1109.72
1064.93
1122.22
1209.98
1238.64
1120.93
818.282
1979.5
1979.5
8026.22
19666
34055.2
42694.5
45219.7
44247.3
39778.9
34059
29390.7
26027.2
22983.4
20356.6
18144.8
16312
14790.6
13521.8
12455
11548.8
10771.6
10097.8
9508.02
8989.4
8531.98
8126.97
7767
7445.98
7158.84
6901.34
6669.62
6460.27
6270.47
6097.8
5940.08
5795.49
5662.53
5539.95
5426.76
5322.19
5225.58
5136.39
5054.13
4978.31
4908.43
4843.95
4784.33
4729.03
4677.55
4629.43
4584.28
4541.77
4501.65
4463.73
4427.86
4393.96
4361.93
4331.75
4303.32
4276.62
4251.51
4227.96
4205.77
4184.97
4165.3
4146.91
4129.4
4113.12
4097.48
4083.07
4069.01
4056.22
4043.37
4031.88
4019.88
4009.39
3997.87
3988.12
3976.77
3967.62
3956.2
3947.62
3936
3928.04
3916.2
3908.96
3897.01
3890.57
3878.79
3873.08
3861.84
3856.66
3846.24
3841.58
3832.08
3827.82
3819.18
3815.11
3807.32
3803.4
3794.47
105.957
146.551
198.387
265.738
350.028
456.044
585.664
743.691
931.816
1154.08
1464.64
1897.28
2398.99
2961.87
3563.12
4171.83
4746.07
5251.35
5654.98
5950.74
6132.39
6219.1
6206.49
6159.71
6061.18
5928.12
5778.15
5619.82
5459.49
5301.73
5149.45
5004.24
4867.31
4739.41
4620.5
4510.57
4409.34
4316.55
4231.7
4154.4
4084.1
4020.51
3963.06
3911.64
3865.65
3825.08
3789.24
3758.13
3731.05
3707.71
3687.83
3670.84
3656.77
3644.62
3634.57
3625.84
3618.73
3612.71
3608.09
3604.31
3601.78
3599.9
3598.89
3598.46
3598.57
3598.92
3599.66
3600.59
3601.57
3602.67
3603.74
3604.84
3606.13
3607.15
3608.48
3609.25
3609.98
3610
3609.74
3608.92
3607.65
3605.07
3602.54
3598.39
3594.53
3588.9
3583.83
3576.89
3570.73
3562.54
3555.34
3545.88
3537.67
3526.99
3517.89
3506.12
3496.35
3483.61
3473.4
3459.73
3449.22
3434.6
3424.05
3408.52
3398.36
3381.91
3372.5
3355.19
3346.4
3324.43
)
;
    }
}


// ************************************************************************* //
