/*--------------------------------*- C++ -*----------------------------------*\
| =========                 |                                                 |
| \\      /  F ield         | OpenFOAM: The Open Source CFD Toolbox           |
|  \\    /   O peration     | Version:  v2012                                 |
|   \\  /    A nd           | Website:  www.openfoam.com                      |
|    \\/     M anipulation  |                                                 |
\*---------------------------------------------------------------------------*/
FoamFile
{
    version     2.0;
    format      ascii;
    class       volScalarField;
    location    "0.104";
    object      k.air;
}
// * * * * * * * * * * * * * * * * * * * * * * * * * * * * * * * * * * * * * //

dimensions      [0 2 -2 0 0 0 0];


internalField   nonuniform List<scalar> 
5600
(
0.606299
0.840815
0.955116
0.978163
0.949162
0.897611
0.839527
0.787305
0.743258
0.707338
0.679288
0.658429
0.643293
0.632717
0.625252
0.620092
0.616235
0.613347
0.6109
0.608862
0.607047
0.605488
0.604178
0.603164
0.602391
0.601813
0.601379
0.601079
0.600863
0.60063
0.600401
0.600104
0.599785
0.599375
0.599027
0.598543
0.598203
0.597645
0.597389
0.596771
0.596666
0.595946
0.596074
0.595146
0.59556
0.59437
0.595226
0.593732
0.595144
0.593222
0.595126
0.592754
0.594771
0.592495
0.593732
0.592825
0.591901
0.593762
0.589888
0.594529
0.589043
0.593754
0.590617
0.590779
0.59426
0.587008
0.597468
0.585302
0.597576
0.587253
0.594003
0.592081
0.588654
0.597245
0.584664
0.599389
0.585228
0.595566
0.592253
0.58569
0.603476
0.575683
0.610242
0.574948
0.603858
0.587455
0.585977
0.606299
0.569962
0.615762
0.570131
0.604204
0.589079
0.579379
0.61124
0.560612
0.624602
0.540686
0.644104
0.545567
0.371635
0.315566
0.288666
0.275664
0.274959
0.284661
0.307362
0.344937
0.3871
0.430237
0.471461
0.508986
0.541776
0.56944
0.59193
0.60979
0.62347
0.633928
0.641715
0.647804
0.652516
0.65645
0.659934
0.663109
0.665829
0.668171
0.670195
0.671867
0.673128
0.674067
0.67474
0.675056
0.6754
0.675461
0.675801
0.67564
0.676056
0.675589
0.676229
0.675457
0.676587
0.675439
0.677359
0.675508
0.678314
0.675271
0.679263
0.674802
0.680487
0.674589
0.681914
0.675212
0.682408
0.677349
0.680397
0.681405
0.675698
0.686301
0.670847
0.688716
0.671
0.683782
0.679328
0.671816
0.691918
0.660219
0.699798
0.657934
0.695516
0.668499
0.680245
0.686149
0.662839
0.701258
0.652939
0.70319
0.66136
0.683088
0.69109
0.647605
0.726613
0.620182
0.737851
0.630556
0.702465
0.68332
0.640779
0.740952
0.599174
0.754613
0.618264
0.699844
0.689036
0.631161
0.732549
0.622955
0.693209
0.713827
0.531499
0.957611
0.369146
0.281902
0.227738
0.192994
0.168588
0.153797
0.14561
0.14363
0.146948
0.155116
0.167035
0.181948
0.19926
0.218599
0.239116
0.260649
0.282445
0.304575
0.326356
0.348286
0.36947
0.390437
0.409173
0.425664
0.439822
0.452178
0.462876
0.472014
0.479883
0.486705
0.492678
0.497799
0.502546
0.506516
0.510515
0.513516
0.517076
0.519152
0.522646
0.523803
0.527646
0.527822
0.532518
0.531345
0.537137
0.534007
0.541292
0.535898
0.545329
0.537954
0.549103
0.54132
0.551042
0.547117
0.549133
0.555243
0.543792
0.562919
0.539529
0.564316
0.543629
0.554469
0.557838
0.537192
0.574158
0.524478
0.579832
0.52702
0.568575
0.545166
0.546037
0.568935
0.524398
0.585374
0.517074
0.580104
0.536706
0.545987
0.580906
0.498706
0.622481
0.473777
0.621264
0.503694
0.562383
0.578989
0.484055
0.643756
0.447452
0.637568
0.494698
0.553491
0.586111
0.479329
0.619747
0.490904
0.556062
0.59962
0.412561
0.731873
0.370097
0.280653
0.224109
0.186056
0.158547
0.138207
0.12294
0.111374
0.102894
0.0970135
0.0935392
0.0923308
0.0929091
0.0953966
0.0994382
0.105365
0.112741
0.12201
0.132726
0.145354
0.159359
0.175242
0.192384
0.210553
0.228997
0.247489
0.265396
0.282082
0.297627
0.311876
0.325053
0.336789
0.347747
0.357401
0.36679
0.374622
0.382995
0.38918
0.397069
0.401493
0.409412
0.411919
0.420457
0.420647
0.430174
0.427301
0.438479
0.432403
0.445976
0.437501
0.452433
0.444529
0.455923
0.454884
0.4543
0.467547
0.448997
0.477528
0.446951
0.476549
0.456508
0.46107
0.476769
0.439479
0.49482
0.428238
0.495673
0.437506
0.476475
0.463188
0.447488
0.491574
0.423879
0.506373
0.422207
0.490937
0.455108
0.442458
0.512047
0.387591
0.552935
0.37178
0.533967
0.423178
0.453608
0.515494
0.366897
0.576395
0.344586
0.544155
0.420269
0.438543
0.519209
0.372468
0.535363
0.400821
0.460315
0.508045
0.348252
0.569047
0.370291
0.280783
0.224382
0.186051
0.158418
0.13766
0.121528
0.10876
0.0983605
0.0899507
0.0829679
0.0773866
0.0727915
0.0692809
0.0665349
0.0647113
0.0636799
0.0635817
0.0642482
0.0659202
0.0685226
0.0723096
0.077283
0.0836244
0.0912892
0.100302
0.110525
0.121672
0.1336
0.146189
0.159295
0.172767
0.186422
0.199264
0.212468
0.224084
0.236712
0.246608
0.258818
0.26651
0.278837
0.284075
0.297402
0.299689
0.314356
0.312678
0.329276
0.323352
0.342423
0.333838
0.353407
0.347041
0.359981
0.364198
0.360016
0.382676
0.356315
0.394748
0.358523
0.390479
0.375017
0.369096
0.40106
0.344663
0.418586
0.33722
0.412539
0.354404
0.385123
0.387252
0.350697
0.418559
0.32716
0.429041
0.333829
0.401119
0.381427
0.338609
0.448341
0.280547
0.481888
0.279035
0.442269
0.351975
0.344296
0.454459
0.257371
0.501723
0.256656
0.44232
0.356062
0.328272
0.445346
0.282199
0.441939
0.321431
0.368191
0.41272
0.29447
0.427877
0.37032
0.280817
0.224507
0.186219
0.158633
0.137923
0.121789
0.108962
0.0984485
0.089775
0.0824358
0.0762314
0.0708677
0.0662847
0.0622761
0.0588316
0.0558292
0.0532964
0.0511162
0.0493489
0.0479206
0.0468999
0.0462559
0.0461036
0.0464218
0.0472805
0.0487778
0.0508765
0.0537597
0.057293
0.0618095
0.0668772
0.0732745
0.079521
0.0877439
0.0947496
0.104737
0.111819
0.123555
0.129753
0.143455
0.14827
0.16421
0.166603
0.185096
0.183658
0.204765
0.198909
0.222349
0.214471
0.237011
0.233963
0.246362
0.258415
0.249022
0.282848
0.24948
0.295984
0.25872
0.287662
0.28314
0.261714
0.312509
0.238236
0.325452
0.237789
0.31076
0.262839
0.276805
0.299892
0.240453
0.330275
0.220696
0.332972
0.238343
0.291816
0.298628
0.220864
0.366789
0.169508
0.384717
0.187027
0.326073
0.27355
0.224093
0.369945
0.151949
0.39363
0.177507
0.315295
0.280819
0.220147
0.337187
0.204976
0.320906
0.239796
0.268235
0.297455
0.237761
0.282396
0.370324
0.280815
0.224529
0.18626
0.158704
0.138012
0.12192
0.109099
0.098622
0.0899406
0.0826078
0.0763611
0.0709522
0.0662576
0.062118
0.0584735
0.0552156
0.0523261
0.0497148
0.0473893
0.045282
0.0434012
0.0417057
0.0402048
0.0388938
0.0377253
0.0368073
0.0359746
0.0354866
0.0350034
0.0350788
0.0349758
0.0358585
0.0360055
0.0380569
0.0383149
0.0419664
0.0421078
0.0479277
0.047469
0.0559281
0.0544248
0.0662386
0.0630869
0.0789527
0.0732579
0.0930353
0.084509
0.106501
0.0984551
0.117856
0.118755
0.125811
0.145686
0.129756
0.171122
0.135381
0.181717
0.151981
0.1697
0.180738
0.144203
0.206646
0.12758
0.210802
0.135327
0.189949
0.163443
0.15627
0.197149
0.124701
0.220819
0.112474
0.214697
0.139253
0.166953
0.201011
0.102297
0.253766
0.0707495
0.25277
0.103257
0.191835
0.181129
0.110136
0.248493
0.0696493
0.246472
0.111668
0.176627
0.183302
0.129254
0.195433
0.138958
0.182462
0.153685
0.157697
0.178733
0.15796
0.149773
0.370324
0.280805
0.224526
0.18626
0.158717
0.138029
0.121953
0.109135
0.0986765
0.0900002
0.0826818
0.0764385
0.0710422
0.0663436
0.0622074
0.0585489
0.0552809
0.0523572
0.0497138
0.0473259
0.04515
0.0431665
0.0413495
0.0396793
0.0381529
0.0367258
0.0354467
0.0342174
0.03316
0.0320819
0.0312573
0.0302813
0.0297569
0.0287776
0.028684
0.0275657
0.0280995
0.0266562
0.0281406
0.0261023
0.0289149
0.0258763
0.0306065
0.0261113
0.0334802
0.0271321
0.0373169
0.0294771
0.0408058
0.03455
0.0425254
0.044828
0.0426394
0.0603499
0.0434249
0.0745942
0.0496243
0.0779905
0.0649683
0.0675402
0.0851142
0.0525088
0.0977785
0.0470905
0.0944928
0.0560942
0.079076
0.0732852
0.0591878
0.0924056
0.0405505
0.105393
0.0355178
0.0971063
0.0577863
0.0633463
0.096463
0.0286075
0.118302
0.0222342
0.108284
0.0466296
0.0756779
0.0853688
0.039473
0.110943
0.0321735
0.0966616
0.0643306
0.062385
0.0861067
0.0628871
0.0700273
0.0769372
0.066948
0.0775311
0.0571569
0.0847326
0.0703845
0.0571984
0.370323
0.280796
0.224519
0.186254
0.158714
0.138027
0.121958
0.109141
0.0986889
0.0900145
0.0827023
0.076461
0.0710713
0.0663744
0.0622441
0.0585867
0.0553242
0.0523992
0.0497595
0.0473685
0.0451913
0.0432016
0.0413765
0.0396953
0.0381464
0.0367057
0.0353793
0.0341294
0.0329873
0.0318854
0.0309067
0.0299142
0.0290967
0.0281666
0.027526
0.0266055
0.0261746
0.025202
0.025046
0.0239395
0.0241488
0.0227761
0.0235051
0.021697
0.0231554
0.0207966
0.0230142
0.0203244
0.0226419
0.0207494
0.0215051
0.0226774
0.0197986
0.0259472
0.0189284
0.0285496
0.0207636
0.0278501
0.0256389
0.0238007
0.030886
0.0199919
0.0326724
0.0197481
0.0302468
0.0222695
0.0261023
0.0257185
0.0211996
0.0304854
0.0157698
0.0343028
0.0149034
0.0307105
0.0229872
0.0199682
0.0331684
0.0134652
0.0342167
0.0178277
0.0271139
0.0263187
0.019161
0.0329623
0.0153594
0.0319221
0.0225923
0.0198452
0.035543
0.0120903
0.0325579
0.0252331
0.0167342
0.034617
0.0156889
0.0336142
0.013712
0.033208
0.0239348
0.0188799
0.370323
0.280792
0.224515
0.18625
0.158711
0.138026
0.121958
0.109142
0.0986921
0.0900185
0.0827084
0.0764678
0.0710803
0.0663843
0.062256
0.0585995
0.0553391
0.0524147
0.0497771
0.0473868
0.045211
0.0432221
0.0413977
0.0397175
0.0381669
0.0367288
0.0353966
0.034151
0.032996
0.031904
0.0308978
0.0299286
0.0290517
0.0281777
0.0274158
0.0266139
0.0259582
0.0252109
0.0246578
0.0239456
0.0234967
0.0227884
0.0224648
0.0217191
0.0215605
0.0207496
0.0207504
0.019927
0.019923
0.0193313
0.0189659
0.0190393
0.0179532
0.0189635
0.0172101
0.0187119
0.017078
0.017882
0.0174799
0.0166323
0.0177723
0.0156914
0.0173383
0.0154577
0.0163865
0.0155308
0.0155232
0.0157111
0.0146146
0.0163326
0.0137016
0.016468
0.0144559
0.0143537
0.0173933
0.0114453
0.0189827
0.0120992
0.0158679
0.0171195
0.0100716
0.0223353
0.00652129
0.0231299
0.00913659
0.0171033
0.0178266
0.00779431
0.0252303
0.00440228
0.0237096
0.00963567
0.0173238
0.0151142
0.0131434
0.0202098
0.00651991
0.0264833
0.00365912
0.0253257
0.370323
0.280793
0.224517
0.186252
0.158714
0.138028
0.121961
0.109144
0.0986946
0.0900207
0.0827107
0.0764699
0.0710824
0.0663862
0.0622579
0.0586012
0.0553409
0.0524163
0.0497787
0.0473883
0.0452125
0.0432235
0.041399
0.0397189
0.038168
0.0367304
0.0353973
0.0341532
0.0329962
0.0319075
0.0308966
0.0299351
0.0290476
0.0281901
0.0274068
0.0266358
0.0259414
0.0252479
0.0246297
0.0240055
0.0234519
0.0228833
0.0223936
0.0218658
0.0214555
0.0209605
0.0206294
0.0201711
0.0198682
0.0194942
0.0191455
0.018963
0.0185333
0.0186164
0.0181325
0.0183725
0.0179361
0.0180383
0.0178174
0.0175012
0.0176129
0.0168639
0.017214
0.0163581
0.016588
0.0162007
0.0157125
0.016508
0.0147212
0.0168876
0.0144252
0.0161313
0.015983
0.0135438
0.018925
0.0108215
0.0204983
0.0109629
0.0182765
0.0151696
0.0125912
0.0215024
0.00682924
0.0253112
0.00595111
0.0226655
0.0114367
0.0157285
0.0183335
0.0103393
0.0222075
0.00777592
0.0240569
0.00626513
0.0243111
0.0084013
0.0189073
0.0168279
0.0102012
0.0245201
0.370324
0.2808
0.224525
0.18626
0.158722
0.138034
0.121967
0.109147
0.0986967
0.0900207
0.0827095
0.0764665
0.0710778
0.0663795
0.06225
0.0585911
0.0553298
0.0524031
0.0497646
0.0473724
0.0451962
0.0432056
0.0413813
0.0397007
0.0381507
0.0367142
0.0353834
0.0341436
0.0329912
0.0319103
0.0309086
0.029962
0.0290898
0.0282591
0.0275002
0.0267717
0.0261139
0.0254906
0.0249331
0.0244167
0.0239511
0.0235362
0.0231724
0.0228689
0.0226602
0.0224936
0.022462
0.0224111
0.022513
0.0225968
0.0228747
0.023295
0.023917
0.0248834
0.0257688
0.0271583
0.0278488
0.0292821
0.0293989
0.0304242
0.0301931
0.0302948
0.0305148
0.0292831
0.0304674
0.0283747
0.0295803
0.0286748
0.0276239
0.0300281
0.0258741
0.0303723
0.0265251
0.0280346
0.0297803
0.024292
0.0331061
0.0218983
0.0340785
0.0224847
0.0316313
0.0266969
0.0261071
0.0328272
0.0208127
0.0366497
0.018746
0.0372676
0.0187772
0.0362958
0.0212251
0.0316583
0.0289687
0.0218284
0.0398066
0.0124889
0.0450438
0.0120713
0.0400298
0.0219828
0.370325
0.280812
0.224537
0.186271
0.158731
0.138039
0.121969
0.109144
0.0986903
0.0900085
0.0826948
0.0764452
0.0710541
0.0663499
0.0622186
0.0585544
0.0552934
0.0523634
0.0497274
0.047336
0.0451678
0.0431829
0.0413749
0.0397112
0.0381884
0.0367865
0.0355017
0.0343259
0.0332499
0.0322705
0.0314018
0.0306202
0.0299569
0.0293847
0.0289418
0.0285978
0.0284117
0.0283752
0.0285137
0.0288289
0.0293129
0.0300329
0.0309706
0.0322362
0.0338189
0.0357061
0.0378961
0.0401989
0.0428871
0.0456969
0.0492847
0.0531484
0.0579534
0.0628723
0.0680944
0.0732344
0.0771142
0.0817875
0.0829815
0.0870785
0.0857293
0.0888475
0.0869997
0.0875945
0.0882382
0.0847441
0.089117
0.0829223
0.0880797
0.084088
0.0848872
0.0869507
0.0820445
0.0883628
0.0817101
0.0874602
0.0832984
0.0852477
0.0862325
0.0815174
0.0906346
0.0771808
0.0937966
0.0760598
0.0923243
0.0799032
0.0864919
0.0876711
0.0772488
0.0978614
0.0679084
0.103984
0.0671756
0.0972221
0.080531
0.0796327
0.0986014
0.0648821
0.108017
0.0613355
0.370326
0.280824
0.224546
0.186273
0.158728
0.138021
0.121946
0.109106
0.0986438
0.0899476
0.0826296
0.0763658
0.0709774
0.0662677
0.0621497
0.0584942
0.0552668
0.052369
0.0497971
0.0474751
0.0454187
0.0435575
0.0419373
0.0404972
0.0392717
0.0382465
0.0374294
0.0368603
0.036511
0.0364621
0.036731
0.0373423
0.0383315
0.0397332
0.0415752
0.0438937
0.0467689
0.050186
0.0541531
0.0586509
0.0636088
0.0691281
0.0751751
0.0818185
0.0888529
0.0961689
0.103531
0.110857
0.118366
0.125971
0.134323
0.142587
0.151507
0.159642
0.167819
0.174597
0.180229
0.185455
0.187341
0.19202
0.190028
0.194912
0.190746
0.194546
0.191992
0.191478
0.19445
0.187807
0.196269
0.186636
0.195086
0.189093
0.191308
0.193136
0.187391
0.1965
0.184673
0.198301
0.184286
0.196488
0.188845
0.189313
0.197667
0.180583
0.204676
0.176491
0.205087
0.17988
0.197653
0.190961
0.184182
0.205125
0.172346
0.212004
0.17218
0.204974
0.184496
0.189779
0.200386
0.174979
0.370323
0.280831
0.224528
0.186234
0.158665
0.137924
0.121832
0.10896
0.0984916
0.0897861
0.0825008
0.0762715
0.0709907
0.0663986
0.0624899
0.0590738
0.0562204
0.0537498
0.0517733
0.0501441
0.049014
0.0482501
0.0480898
0.0483958
0.0493813
0.0510043
0.0533987
0.0565995
0.0606407
0.0656048
0.0715629
0.0784218
0.0860399
0.0944376
0.103412
0.112983
0.122979
0.133303
0.143838
0.154508
0.165127
0.175752
0.186281
0.196642
0.206566
0.216024
0.224872
0.233284
0.241397
0.249369
0.25744
0.265242
0.273165
0.280026
0.286748
0.29189
0.296407
0.300023
0.301586
0.304892
0.303134
0.307329
0.30301
0.307542
0.303479
0.305387
0.305715
0.301859
0.308497
0.299473
0.309163
0.300317
0.306679
0.303853
0.302572
0.308085
0.298527
0.311696
0.295881
0.312561
0.297623
0.307693
0.305242
0.298482
0.314515
0.290806
0.319541
0.289206
0.317042
0.295832
0.306458
0.309196
0.292415
0.321474
0.284658
0.323339
0.288594
0.314314
0.300846
0.299654
0.370304
0.280793
0.224402
0.186076
0.158446
0.137683
0.121608
0.108817
0.0985546
0.0901647
0.0834306
0.0779524
0.0737125
0.0703889
0.0681142
0.0666748
0.0663287
0.0667817
0.0684077
0.0709736
0.074946
0.0801413
0.0869624
0.0951384
0.104976
0.116014
0.128228
0.141238
0.15504
0.16941
0.184292
0.19895
0.213197
0.22697
0.240153
0.252754
0.264706
0.275988
0.286555
0.296511
0.305927
0.314896
0.323329
0.331215
0.338459
0.345171
0.351336
0.357155
0.36275
0.368237
0.373777
0.379002
0.38418
0.388486
0.392733
0.395702
0.398511
0.400417
0.401339
0.403182
0.401764
0.404706
0.401031
0.405079
0.400815
0.403819
0.402331
0.401074
0.405054
0.398414
0.406744
0.397988
0.40572
0.400311
0.402484
0.404123
0.398453
0.408149
0.394879
0.410618
0.394344
0.408475
0.399318
0.401152
0.407867
0.392759
0.414911
0.388085
0.416388
0.390266
0.41022
0.399953
0.398068
0.41268
0.387093
0.42004
0.384332
0.41802
0.390188
0.408202
0.370193
0.280545
0.224226
0.186055
0.158713
0.138513
0.12344
0.112321
0.104413
0.0992902
0.0968425
0.0965611
0.0983749
0.102006
0.107633
0.115006
0.124347
0.135446
0.148589
0.163401
0.180323
0.198729
0.218287
0.238264
0.258316
0.277673
0.295833
0.312656
0.328134
0.342264
0.354991
0.366569
0.377078
0.386663
0.395446
0.403555
0.41107
0.418001
0.424375
0.430214
0.435562
0.440628
0.445256
0.449452
0.453205
0.456634
0.459748
0.462712
0.465608
0.468518
0.471529
0.47442
0.477393
0.479812
0.482287
0.483822
0.485427
0.486265
0.486749
0.487617
0.486561
0.488414
0.485602
0.488766
0.48503
0.488156
0.48588
0.48627
0.488082
0.483908
0.490066
0.482814
0.490082
0.484006
0.487931
0.486923
0.484569
0.490556
0.481018
0.493565
0.479244
0.493376
0.481821
0.488453
0.48844
0.481097
0.495492
0.47535
0.49911
0.47453
0.496605
0.480357
0.48782
0.490912
0.477101
0.500069
0.470881
0.5027
0.471539
0.498268
0.369472
0.281387
0.228611
0.193062
0.170704
0.155956
0.150127
0.150441
0.156547
0.167319
0.181628
0.1988
0.218423
0.239722
0.262347
0.285625
0.309396
0.333092
0.356942
0.380293
0.403307
0.42385
0.441748
0.457308
0.470501
0.482405
0.492496
0.501024
0.508348
0.514626
0.520116
0.524945
0.529214
0.533022
0.536436
0.539517
0.542327
0.544902
0.547273
0.549492
0.551608
0.553679
0.555672
0.557531
0.559164
0.560642
0.561969
0.563292
0.564639
0.566081
0.567623
0.569138
0.570738
0.571971
0.573292
0.573955
0.574776
0.574951
0.575154
0.575382
0.574662
0.57566
0.573699
0.575941
0.572997
0.575809
0.573337
0.574698
0.574909
0.57287
0.576797
0.571497
0.577513
0.571757
0.576389
0.573697
0.573896
0.576619
0.570794
0.579602
0.568443
0.580733
0.569072
0.578083
0.57349
0.572475
0.579531
0.566808
0.584082
0.564071
0.584443
0.566429
0.579291
0.573748
0.570733
0.582314
0.563404
0.587581
0.560395
0.587959
0.372188
0.315458
0.292826
0.279522
0.286373
0.295387
0.33147
0.373593
0.418622
0.463078
0.50455
0.541594
0.573481
0.599925
0.621221
0.637809
0.650545
0.660069
0.667424
0.67305
0.677645
0.681643
0.685135
0.688111
0.690606
0.692635
0.694329
0.695591
0.696483
0.69701
0.69727
0.69735
0.69732
0.69725
0.697136
0.696999
0.696829
0.696658
0.696492
0.696383
0.696357
0.696437
0.696563
0.696676
0.696696
0.696684
0.696653
0.696714
0.696857
0.697131
0.697497
0.697884
0.698337
0.698588
0.698929
0.698879
0.699032
0.698752
0.698675
0.698487
0.698007
0.69837
0.69719
0.698543
0.696546
0.698691
0.696551
0.698236
0.697503
0.697063
0.698981
0.695796
0.699992
0.695431
0.699726
0.696426
0.698172
0.698447
0.695863
0.700893
0.693585
0.702608
0.692925
0.70184
0.695204
0.698284
0.699549
0.693719
0.703807
0.690327
0.705853
0.690123
0.703934
0.694047
0.698443
0.700339
0.692225
0.705855
0.687894
0.709084
0.606742
0.839813
0.952197
0.969554
0.937537
0.881265
0.821356
0.769005
0.724422
0.688386
0.660679
0.640129
0.625399
0.614954
0.607665
0.60239
0.598512
0.595428
0.592918
0.590801
0.588979
0.587526
0.586348
0.585458
0.584758
0.584198
0.583765
0.583413
0.583088
0.582737
0.58233
0.581873
0.581378
0.580864
0.580318
0.579761
0.579192
0.578635
0.578098
0.577588
0.577117
0.57668
0.576263
0.575865
0.575496
0.575179
0.574911
0.574711
0.574543
0.574403
0.574256
0.574087
0.573892
0.573629
0.573377
0.57304
0.572811
0.572476
0.572303
0.572062
0.571902
0.571887
0.571615
0.571925
0.571423
0.572053
0.571402
0.57207
0.571635
0.571824
0.57208
0.57142
0.572495
0.571178
0.572587
0.571318
0.572263
0.57183
0.571616
0.572587
0.570846
0.573282
0.570381
0.573409
0.570707
0.572652
0.571844
0.571294
0.573283
0.570008
0.574303
0.569464
0.574336
0.570096
0.573165
0.571766
0.571357
0.573758
0.569813
0.575554
0.402194
2.22501
2.68724
2.89604
3.11688
3.17328
3.33314
3.41858
3.27256
3.13335
2.86158
1.9921
0.868295
0.277508
0.0989573
0.051572
0.0315702
0.039004
0.0299206
0.0187222
0.0877385
0.183561
0.233874
0.225453
0.184704
0.137534
0.0982956
0.0710807
0.0539211
0.0432312
0.0362608
0.0314758
0.0280878
0.0256324
0.0237769
0.0222762
0.0209741
0.0197983
0.0187378
0.0178132
0.0170483
0.0164468
0.0159806
0.0155978
0.0152512
0.0149246
0.0146303
0.0143851
0.0141976
0.0140684
0.0139887
0.0139435
0.0139192
0.0139066
0.0139002
0.0138969
0.0138953
0.0138944
0.013894
0.0138937
0.0138936
0.0138935
0.0138935
0.0138936
0.0138934
0.0138936
0.0138933
0.0138937
0.0138932
0.0138937
0.0138932
0.0138937
0.0138932
0.0138937
0.0138931
0.0138938
0.0138931
0.0138938
0.0138931
0.0138939
0.013893
0.0138939
0.013893
0.013894
0.0138929
0.013894
0.0138929
0.0138941
0.0138928
0.0138941
0.0138928
0.0138941
0.0138927
0.0138941
0.0138926
0.0138939
0.0138923
0.0138936
0.013892
0.013894
0.141082
1.27158
2.05806
2.41175
2.69786
2.77728
2.94806
3.03853
2.88733
2.74618
2.42803
1.48586
0.501218
0.133894
0.0636811
0.0367068
0.0234868
0.0285456
0.0329701
0.0117452
0.0428058
0.115907
0.164182
0.163781
0.134194
0.0991265
0.071226
0.0530541
0.0422276
0.0356895
0.0313866
0.0282955
0.0259678
0.0241768
0.0227541
0.0215534
0.0204678
0.0194456
0.0184868
0.0176226
0.0168876
0.0162979
0.0158385
0.0154687
0.0151454
0.0148481
0.0145826
0.0143621
0.0141912
0.0140695
0.0139921
0.0139472
0.0139225
0.0139092
0.0139023
0.0138986
0.0138967
0.0138957
0.0138952
0.0138949
0.0138948
0.0138947
0.0138946
0.0138947
0.0138945
0.0138948
0.0138944
0.0138949
0.0138944
0.0138949
0.0138944
0.0138949
0.0138943
0.013895
0.0138942
0.0138951
0.0138942
0.0138951
0.0138941
0.0138952
0.0138941
0.0138953
0.013894
0.0138953
0.0138939
0.0138954
0.0138938
0.0138955
0.0138938
0.0138955
0.0138937
0.0138956
0.0138936
0.0138956
0.0138935
0.0138957
0.0138934
0.0138957
0.0138937
0.0138975
0.363806
0.595095
1.1045
1.57755
2.0081
2.1725
2.39669
2.52206
2.39362
2.28319
1.87459
0.907878
0.207134
0.0520729
0.0498118
0.0312394
0.0258183
0.0253622
0.0329308
0.016663
0.0212219
0.0666835
0.105213
0.10925
0.0907206
0.068396
0.0514233
0.0408632
0.03473
0.0309889
0.028378
0.0263211
0.0246233
0.0232213
0.022054
0.0210376
0.0200929
0.0191761
0.0182894
0.0174673
0.0167515
0.016167
0.0157102
0.0153509
0.0150505
0.0147833
0.0145464
0.0143474
0.0141904
0.014076
0.0140005
0.0139548
0.0139287
0.0139142
0.0139062
0.0139019
0.0138996
0.0138984
0.0138978
0.0138974
0.0138972
0.0138972
0.013897
0.0138972
0.0138969
0.0138973
0.0138968
0.0138973
0.0138967
0.0138974
0.0138967
0.0138974
0.0138966
0.0138975
0.0138965
0.0138976
0.0138965
0.0138977
0.0138964
0.0138977
0.0138963
0.0138979
0.0138962
0.0138979
0.0138961
0.0138981
0.013896
0.0138982
0.0138959
0.0138983
0.0138958
0.0138984
0.0138957
0.0138986
0.0138956
0.0138989
0.0138958
0.0138996
0.013897
0.0139033
0.386942
0.447087
0.536353
0.709587
1.10327
1.32996
1.63252
1.80991
1.75136
1.69088
1.15537
0.365503
0.0345653
0.0295952
0.0520327
0.0249038
0.0257461
0.0268965
0.0311562
0.0217947
0.0160777
0.0389813
0.0644281
0.0695139
0.0602084
0.0484364
0.0395209
0.0339169
0.0305562
0.028365
0.0266613
0.0251528
0.0237883
0.0225927
0.0215656
0.0206589
0.019807
0.0189656
0.0181325
0.017341
0.0166365
0.0160521
0.0155942
0.0152425
0.0149628
0.0147252
0.0145162
0.0143376
0.0141939
0.0140873
0.0140144
0.013968
0.0139399
0.0139235
0.0139142
0.0139089
0.0139061
0.0139045
0.0139036
0.0139032
0.0139029
0.0139028
0.0139027
0.0139028
0.0139025
0.0139029
0.0139024
0.013903
0.0139023
0.0139031
0.0139022
0.0139031
0.0139022
0.0139032
0.013902
0.0139033
0.0139019
0.0139034
0.0139019
0.0139035
0.0139017
0.0139037
0.0139016
0.0139038
0.0139015
0.0139039
0.0139013
0.0139041
0.0139012
0.0139042
0.0139011
0.0139045
0.0139009
0.0139048
0.013901
0.0139053
0.0139015
0.0139068
0.0139037
0.0139126
0.346132
0.368733
0.370179
0.371139
0.482274
0.554583
0.766703
0.917386
0.991714
0.913752
0.377785
0.0260328
0.00567431
0.0378815
0.054575
0.0160538
0.0319478
0.0428787
0.0366017
0.0261292
0.0176972
0.0270839
0.0416973
0.0463947
0.0431005
0.0378223
0.0333967
0.0303473
0.028353
0.0269172
0.0256634
0.0244342
0.0232414
0.0221529
0.0212025
0.0203641
0.0195786
0.0187968
0.0180082
0.0172415
0.0165435
0.0159543
0.0154904
0.0151407
0.0148757
0.0146631
0.0144809
0.0143241
0.0141968
0.0141002
0.0140313
0.0139847
0.0139547
0.0139362
0.0139251
0.0139187
0.013915
0.013913
0.0139119
0.0139112
0.0139109
0.0139108
0.0139106
0.0139107
0.0139104
0.0139108
0.0139102
0.0139109
0.0139101
0.013911
0.0139101
0.013911
0.01391
0.0139112
0.0139098
0.0139113
0.0139097
0.0139114
0.0139096
0.0139115
0.0139095
0.0139117
0.0139093
0.0139118
0.0139092
0.013912
0.013909
0.0139121
0.0139089
0.0139123
0.0139087
0.0139126
0.0139086
0.013913
0.0139087
0.0139137
0.0139095
0.0139158
0.0139126
0.0139233
0.276005
0.274849
0.264598
0.274944
0.229532
0.298636
0.25943
0.245339
0.382033
0.0585987
0.0804279
0.00743678
0.00530277
0.0437336
0.0535825
0.0103974
0.0541718
0.0874829
0.0636901
0.0372643
0.0225458
0.023509
0.0311487
0.0352327
0.0349402
0.0327354
0.0303345
0.0284291
0.0270673
0.0260054
0.0249924
0.0239216
0.0228283
0.0218025
0.0209011
0.0201137
0.0193848
0.018658
0.0179124
0.0171695
0.016476
0.015878
0.0154015
0.0150447
0.0147842
0.0145886
0.014431
0.0142983
0.0141898
0.0141051
0.0140416
0.0139961
0.0139653
0.0139453
0.0139329
0.0139253
0.013921
0.0139185
0.0139171
0.0139163
0.0139159
0.0139157
0.0139155
0.0139156
0.0139153
0.0139157
0.0139151
0.0139158
0.013915
0.0139159
0.0139149
0.013916
0.0139149
0.0139161
0.0139147
0.0139162
0.0139146
0.0139163
0.0139145
0.0139164
0.0139144
0.0139166
0.0139142
0.0139167
0.0139141
0.0139168
0.013914
0.013917
0.0139138
0.0139172
0.0139137
0.0139174
0.0139136
0.0139178
0.0139138
0.0139187
0.0139147
0.0139209
0.0139181
0.0139291
0.180385
0.160591
0.176371
0.148709
0.140362
0.160076
0.0992094
0.144261
0.0282636
0.0278561
0.0398827
0.0128803
0.0229599
0.0564024
0.0509216
0.023786
0.114995
0.192504
0.141956
0.0729294
0.036643
0.0262248
0.0277087
0.0304535
0.0311024
0.0301299
0.0286289
0.0272745
0.026232
0.025364
0.024481
0.0234996
0.022465
0.0214798
0.0206168
0.0198773
0.0192062
0.0185385
0.0178405
0.017125
0.0164373
0.0158284
0.0153333
0.0149598
0.0146923
0.0145032
0.0143637
0.0142531
0.0141627
0.0140899
0.0140332
0.0139911
0.0139616
0.0139419
0.0139294
0.0139217
0.0139172
0.0139145
0.013913
0.0139121
0.0139116
0.0139114
0.0139112
0.0139113
0.013911
0.0139114
0.0139108
0.0139115
0.0139107
0.0139116
0.0139107
0.0139116
0.0139106
0.0139117
0.0139105
0.0139118
0.0139104
0.0139119
0.0139103
0.013912
0.0139102
0.0139121
0.0139101
0.0139122
0.01391
0.0139124
0.0139098
0.0139125
0.0139097
0.0139126
0.0139096
0.0139129
0.0139096
0.0139132
0.0139098
0.0139139
0.0139107
0.013916
0.0139139
0.0139237
0.0794493
0.0674766
0.0876764
0.0474753
0.0645367
0.0532711
0.0440056
0.0455046
0.0113411
0.0246844
0.0139124
0.00408578
0.0359978
0.0633159
0.0504069
0.0866048
0.255757
0.400343
0.328461
0.176108
0.0791885
0.041597
0.0319949
0.0307128
0.0305564
0.0297571
0.0284708
0.0271726
0.0260818
0.0251414
0.0242038
0.0231912
0.0221433
0.0211615
0.0203222
0.0196283
0.0190196
0.0184188
0.0177776
0.0170977
0.0164214
0.0158044
0.0152897
0.0148947
0.0146119
0.0144183
0.0142859
0.0141893
0.0141128
0.014051
0.0140024
0.0139661
0.0139405
0.0139234
0.0139124
0.0139055
0.0139015
0.0138991
0.0138977
0.013897
0.0138966
0.0138964
0.0138962
0.0138963
0.013896
0.0138964
0.0138959
0.0138964
0.0138958
0.0138965
0.0138958
0.0138965
0.0138957
0.0138966
0.0138956
0.0138967
0.0138955
0.0138967
0.0138955
0.0138968
0.0138954
0.0138969
0.0138953
0.013897
0.0138952
0.0138971
0.0138951
0.0138972
0.013895
0.0138973
0.013895
0.0138975
0.0138949
0.0138977
0.0138951
0.0138982
0.0138958
0.0138998
0.0138983
0.0139062
0.0297071
0.020565
0.0355034
0.0137184
0.0260732
0.0153664
0.0184243
0.0214188
0.00580737
0.0298325
0.0154752
0.00160912
0.0589336
0.0774255
0.0924046
0.2509
0.530202
0.733271
0.654453
0.413948
0.208579
0.0962712
0.0538686
0.0413001
0.0367191
0.0336373
0.0309988
0.0288142
0.0270906
0.0256864
0.0244147
0.0231707
0.0219735
0.0209108
0.0200481
0.0193756
0.0188178
0.0182806
0.0176993
0.0170624
0.0164066
0.0157902
0.0152632
0.0148505
0.0145512
0.014347
0.0142118
0.0141195
0.0140514
0.0139984
0.0139579
0.0139284
0.0139081
0.0138949
0.0138866
0.0138815
0.0138785
0.0138767
0.0138757
0.0138752
0.0138748
0.0138747
0.0138746
0.0138746
0.0138744
0.0138747
0.0138743
0.0138747
0.0138743
0.0138748
0.0138743
0.0138748
0.0138742
0.0138748
0.0138742
0.0138749
0.0138741
0.0138749
0.0138741
0.013875
0.013874
0.0138751
0.0138739
0.0138751
0.0138739
0.0138752
0.0138738
0.0138753
0.0138737
0.0138754
0.0138736
0.0138755
0.0138736
0.0138756
0.0138737
0.013876
0.0138741
0.013877
0.0138757
0.0138818
0.00680696
0.020925
0.0144145
0.0103155
0.023046
0.00383091
0.0232974
0.0119426
0.00945117
0.0349976
0.00556596
0.0360412
0.0909804
0.123168
0.239873
0.557001
0.92898
1.15087
1.06093
0.765925
0.467027
0.256852
0.139275
0.0828682
0.0580346
0.0464347
0.039803
0.0352081
0.0317034
0.0288985
0.0265402
0.0244876
0.0227224
0.0212895
0.0202079
0.0194219
0.0188161
0.0182665
0.0176879
0.017056
0.0164002
0.0157777
0.0152406
0.0148163
0.0145058
0.0142922
0.0141511
0.0140579
0.0139935
0.013947
0.0139135
0.0138903
0.013875
0.0138654
0.0138597
0.0138563
0.0138545
0.0138534
0.0138528
0.0138525
0.0138524
0.0138522
0.0138522
0.0138522
0.0138522
0.0138522
0.0138521
0.0138523
0.0138521
0.0138523
0.0138521
0.0138523
0.013852
0.0138523
0.013852
0.0138524
0.0138519
0.0138524
0.0138519
0.0138525
0.0138518
0.0138526
0.0138517
0.0138526
0.0138516
0.0138528
0.0138515
0.0138529
0.0138514
0.013853
0.0138513
0.0138531
0.0138512
0.0138533
0.0138511
0.0138536
0.0138512
0.0138543
0.0138523
0.0138578
0.00456982
0.0286267
0.00176632
0.0257989
0.0140035
0.0097742
0.0322602
0.0133482
0.043594
0.0200626
0.0274963
0.101305
0.15536
0.260959
0.525297
0.936673
1.31553
1.5197
1.42223
1.10404
0.749772
0.471493
0.293843
0.192503
0.134582
0.0985949
0.0753047
0.0599623
0.0494349
0.0417854
0.035905
0.0312451
0.0275751
0.0248007
0.0228143
0.0214296
0.0204036
0.0195111
0.0186182
0.0177019
0.0168118
0.0160148
0.0153605
0.0148647
0.0145131
0.0142768
0.0141242
0.0140272
0.0139646
0.0139231
0.0138957
0.0138782
0.0138676
0.0138614
0.013858
0.0138562
0.0138552
0.0138547
0.0138546
0.0138544
0.0138544
0.0138543
0.0138544
0.0138542
0.0138544
0.0138542
0.0138544
0.0138542
0.0138544
0.0138542
0.0138543
0.0138543
0.0138542
0.0138545
0.0138541
0.0138546
0.013854
0.0138547
0.0138538
0.013855
0.0138535
0.0138553
0.0138532
0.0138556
0.0138528
0.013856
0.0138524