/*--------------------------------*- C++ -*----------------------------------*\
| =========                 |                                                 |
| \\      /  F ield         | OpenFOAM: The Open Source CFD Toolbox           |
|  \\    /   O peration     | Version:  v2012                                 |
|   \\  /    A nd           | Website:  www.openfoam.com                      |
|    \\/     M anipulation  |                                                 |
\*---------------------------------------------------------------------------*/
FoamFile
{
    version     2.0;
    format      ascii;
    class       volScalarField;
    location    "0.337";
    object      p;
}
// * * * * * * * * * * * * * * * * * * * * * * * * * * * * * * * * * * * * * //

dimensions      [0 2 -2 0 0 0 0];


internalField   nonuniform List<scalar> 
5600
(
-0.674827
-1.13298
-1.51342
-1.83194
-2.1428
-2.45304
-2.7544
-3.03613
-3.2992
-3.54937
-3.78593
-4.01061
-4.22505
-4.43134
-4.63156
-4.82739
-5.01967
-5.20941
-5.39658
-5.58152
-5.76431
-5.94463
-6.12238
-6.29869
-6.47352
-6.64704
-6.81931
-6.99056
-7.16134
-7.33157
-7.50132
-7.67026
-7.83845
-8.0062
-8.17349
-8.34008
-8.50616
-8.67155
-8.83642
-9.0006
-9.16423
-9.32728
-9.4897
-9.65141
-9.81265
-9.97335
-10.1336
-10.2933
-10.4525
-10.6113
-10.7696
-10.9274
-11.0848
-11.2417
-11.3982
-11.5543
-11.71
-11.8652
-12.02
-12.1742
-12.3282
-12.4818
-12.6351
-12.7879
-12.9403
-13.0924
-13.2441
-13.3955
-13.5466
-13.6973
-13.8477
-13.9979
-14.1477
-14.2973
-14.4465
-14.5956
-14.7443
-14.8928
-15.0409
-15.189
-15.3367
-15.4843
-15.6316
-15.7789
-15.9257
-16.0725
-16.219
-16.3655
-16.5117
-16.6577
-16.8035
-16.9489
-17.095
-17.2407
-17.3871
-17.5336
-17.6828
-17.8357
-17.9918
-18.2301
-0.733861
-1.15316
-1.53004
-1.84976
-2.16079
-2.47137
-2.77266
-3.05465
-3.31807
-3.56829
-3.80508
-4.03006
-4.24484
-4.4515
-4.65207
-4.84822
-5.04079
-5.23078
-5.41812
-5.60313
-5.78613
-5.96656
-6.14437
-6.32078
-6.49576
-6.6694
-6.84177
-7.0131
-7.18398
-7.3543
-7.52413
-7.69314
-7.86135
-8.02914
-8.19647
-8.36309
-8.5292
-8.69462
-8.85953
-9.02373
-9.1874
-9.35048
-9.51293
-9.67466
-9.83594
-9.99664
-10.1569
-10.3166
-10.4759
-10.6346
-10.7929
-10.9507
-11.1081
-11.265
-11.4215
-11.5775
-11.7333
-11.8885
-12.0432
-12.1975
-12.3515
-12.505
-12.6583
-12.811
-12.9635
-13.1156
-13.2673
-13.4186
-13.5697
-13.7204
-13.8709
-14.021
-14.1709
-14.3204
-14.4696
-14.6187
-14.7674
-14.9159
-15.064
-15.2121
-15.3598
-15.5074
-15.6547
-15.802
-15.9488
-16.0956
-16.242
-16.3886
-16.5347
-16.6808
-16.8264
-16.9722
-17.1178
-17.2642
-17.4094
-17.5578
-17.7039
-17.8608
-18.0119
-18.2426
-0.772108
-1.16579
-1.54278
-1.86312
-2.172
-2.48008
-2.78028
-3.06187
-3.32506
-3.57495
-3.81147
-4.03653
-4.25134
-4.45798
-4.65858
-4.85476
-5.04733
-5.23735
-5.42467
-5.60973
-5.7927
-5.97318
-6.15115
-6.32762
-6.5025
-6.67613
-6.84842
-7.01976
-7.19053
-7.36082
-7.53057
-7.69952
-7.86778
-8.03558
-8.20289
-8.36949
-8.53558
-8.70097
-8.86584
-9.03
-9.19361
-9.35664
-9.51901
-9.68066
-9.84186
-10.0026
-10.1628
-10.3225
-10.4818
-10.6405
-10.7989
-10.9567
-11.1141
-11.271
-11.4276
-11.5837
-11.7395
-11.8947
-12.0496
-12.2039
-12.3579
-12.5116
-12.6649
-12.8177
-12.9703
-13.1223
-13.2741
-13.4255
-13.5766
-13.7274
-13.8778
-14.028
-14.1779
-14.3275
-14.4767
-14.6258
-14.7745
-14.9231
-15.0712
-15.2193
-15.367
-15.5147
-15.662
-15.8092
-15.9561
-16.1029
-16.2494
-16.396
-16.5421
-16.6882
-16.8338
-16.9796
-17.1252
-17.2716
-17.4169
-17.5652
-17.7118
-17.8693
-18.0195
-18.2419
-0.820831
-1.18227
-1.55817
-1.87997
-2.18757
-2.49471
-2.79529
-3.0775
-3.34133
-3.59154
-3.82863
-4.05371
-4.26899
-4.47584
-4.67648
-4.87259
-5.06502
-5.25478
-5.44181
-5.62655
-5.80937
-5.98976
-6.16776
-6.34431
-6.51931
-6.69322
-6.86588
-7.03756
-7.20856
-7.37908
-7.54899
-7.7181
-7.88637
-8.05424
-8.22161
-8.38831
-8.55448
-8.71997
-8.88494
-9.04923
-9.21298
-9.37617
-9.53872
-9.70057
-9.86195
-10.0227
-10.183
-10.3427
-10.5021
-10.6609
-10.8193
-10.9772
-11.1346
-11.2916
-11.4481
-11.6041
-11.7598
-11.915
-12.0697
-12.2239
-12.3779
-12.5315
-12.6846
-12.8374
-12.9898
-13.1419
-13.2936
-13.4449
-13.596
-13.7467
-13.8971
-14.0472
-14.1971
-14.3466
-14.4959
-14.6449
-14.7936
-14.9421
-15.0903
-15.2383
-15.386
-15.5336
-15.6809
-15.8282
-15.975
-16.1218
-16.2683
-16.4148
-16.561
-16.707
-16.8527
-16.9984
-17.1441
-17.2902
-17.4359
-17.5834
-17.7306
-17.8861
-18.0412
-18.2423
-0.870458
-1.19939
-1.57392
-1.89816
-2.20417
-2.51046
-2.81075
-3.09278
-3.35663
-3.60664
-3.84395
-4.06879
-4.28427
-4.49134
-4.69219
-4.88846
-5.08109
-5.27097
-5.45815
-5.64298
-5.82577
-6.00619
-6.18416
-6.36056
-6.53539
-6.70911
-6.88157
-7.05307
-7.22382
-7.39424
-7.56406
-7.73315
-7.90148
-8.06945
-8.23682
-8.40356
-8.56971
-8.73521
-8.90013
-9.0644
-9.22806
-9.39118
-9.55357
-9.71536
-9.87664
-10.0373
-10.1976
-10.3573
-10.5166
-10.6753
-10.8336
-10.9914
-11.1488
-11.3057
-11.4622
-11.6183
-11.7741
-11.9294
-12.0842
-12.2386
-12.3926
-12.5462
-12.6996
-12.8525
-13.005
-13.1572
-13.309
-13.4603
-13.6115
-13.7623
-13.9127
-14.0629
-14.2128
-14.3624
-14.5117
-14.6608
-14.8095
-14.958
-15.1063
-15.2543
-15.4021
-15.5497
-15.697
-15.8443
-15.9912
-16.1379
-16.2845
-16.431
-16.5773
-16.7232
-16.869
-17.0146
-17.1604
-17.3064
-17.4522
-17.5997
-17.7466
-17.9018
-18.0539
-18.2478
-0.920493
-1.21871
-1.5912
-1.91841
-2.2228
-2.52812
-2.82803
-3.11008
-3.37417
-3.62437
-3.86191
-4.0871
-4.30286
-4.5102
-4.71125
-4.90764
-5.10037
-5.29025
-5.47748
-5.66235
-5.84494
-6.02536
-6.20339
-6.37983
-6.55474
-6.72849
-6.90099
-7.07254
-7.24333
-7.41361
-7.58345
-7.75247
-7.92078
-8.08862
-8.25589
-8.42254
-8.5886
-8.75406
-8.91892
-9.08318
-9.24682
-9.41015
-9.5726
-9.73449
-9.89582
-10.0566
-10.2169
-10.3767
-10.5361
-10.6949
-10.8533
-11.0112
-11.1687
-11.3256
-11.4821
-11.6383
-11.7941
-11.9493
-12.1041
-12.2585
-12.4125
-12.5661
-12.7192
-12.8721
-13.0246
-13.1767
-13.3284
-13.4798
-13.6308
-13.7816
-13.932
-14.0822
-14.2321
-14.3817
-14.5309
-14.68
-14.8288
-14.9772
-15.1255
-15.2735
-15.4213
-15.5689
-15.7162
-15.8634
-16.0103
-16.1571
-16.3037
-16.4501
-16.5964
-16.7424
-16.8881
-17.0338
-17.1796
-17.3256
-17.4713
-17.6185
-17.7654
-17.9192
-18.0701
-18.255
-0.969911
-1.24052
-1.61027
-1.9407
-2.24362
-2.54791
-2.84753
-3.12966
-3.39392
-3.64424
-3.8819
-4.10734
-4.32317
-4.53068
-4.73184
-4.92833
-5.12113
-5.31105
-5.49831
-5.68319
-5.86578
-6.04622
-6.22433
-6.40079
-6.57574
-6.74949
-6.92202
-7.09357
-7.26446
-7.43464
-7.60449
-7.77352
-7.94188
-8.10969
-8.27697
-8.44361
-8.60966
-8.77511
-8.93992
-9.10417
-9.26776
-9.43104
-9.59346
-9.75527
-9.91651
-10.0772
-10.2375
-10.3972
-10.5565
-10.7152
-10.8736
-11.0314
-11.1889
-11.3459
-11.5024
-11.6585
-11.8144
-11.9696
-12.1245
-12.2788
-12.4328
-12.5864
-12.7397
-12.8926
-13.0451
-13.1972
-13.349
-13.5004
-13.6515
-13.8022
-13.9527
-14.1029
-14.2528
-14.4024
-14.5517
-14.7008
-14.8496
-14.998
-15.1463
-15.2943
-15.4421
-15.5897
-15.7371
-15.8843
-16.0312
-16.178
-16.3245
-16.4711
-16.6173
-16.7634
-16.9091
-17.0548
-17.2005
-17.3465
-17.4922
-17.6391
-17.7858
-17.938
-18.0872
-18.2622
-1.01689
-1.26502
-1.63168
-1.96517
-2.26688
-2.57017
-2.86958
-3.15178
-3.41616
-3.66657
-3.90432
-4.12999
-4.3459
-4.55359
-4.75491
-4.95152
-5.14441
-5.33437
-5.52166
-5.70657
-5.88917
-6.06958
-6.24772
-6.42419
-6.59917
-6.77291
-6.94546
-7.11703
-7.28795
-7.45815
-7.62797
-7.79701
-7.96538
-8.13319
-8.30047
-8.46711
-8.63316
-8.79861
-8.96342
-9.12773
-9.29137
-9.45448
-9.61694
-9.77874
-9.94001
-10.1007
-10.261
-10.4207
-10.5799
-10.7387
-10.897
-11.0549
-11.2122
-11.3693
-11.5258
-11.6819
-11.8376
-11.9928
-12.1476
-12.302
-12.456
-12.6095
-12.7628
-12.9156
-13.0681
-13.2202
-13.372
-13.5235
-13.6746
-13.8253
-13.9758
-14.126
-14.2759
-14.4255
-14.5748
-14.7239
-14.8727
-15.0212
-15.1694
-15.3175
-15.4653
-15.6129
-15.7603
-15.9074
-16.0544
-16.2011
-16.3477
-16.4942
-16.6405
-16.7865
-16.9322
-17.0779
-17.2236
-17.3695
-17.5152
-17.6618
-17.8081
-17.9585
-18.1054
-18.27
-1.05987
-1.29209
-1.65602
-1.99196
-2.29278
-2.59524
-2.89452
-3.17674
-3.4412
-3.69171
-3.92954
-4.15538
-4.37136
-4.5792
-4.78063
-4.97731
-5.17025
-5.36022
-5.54752
-5.73245
-5.91504
-6.0954
-6.27358
-6.45007
-6.62507
-6.79881
-6.97138
-7.14297
-7.31391
-7.48414
-7.65391
-7.82296
-7.99134
-8.15916
-8.32643
-8.49308
-8.65912
-8.82457
-8.98938
-9.1537
-9.31734
-9.4804
-9.64289
-9.80471
-9.96599
-10.1267
-10.2869
-10.4467
-10.6059
-10.7647
-10.923
-11.0808
-11.2382
-11.3953
-11.5518
-11.7079
-11.8635
-12.0188
-12.1736
-12.3279
-12.4819
-12.6354
-12.7886
-12.9414
-13.0939
-13.246
-13.3978
-13.5492
-13.7003
-13.8511
-14.0015
-14.1517
-14.3015
-14.4511
-14.6003
-14.7494
-14.8982
-15.0467
-15.195
-15.343
-15.4908
-15.6384
-15.7857
-15.9329
-16.0799
-16.2266
-16.3731
-16.5197
-16.666
-16.812
-16.9577
-17.1035
-17.2492
-17.395
-17.5405
-17.6868
-17.8325
-17.981
-18.1251
-18.2785
-1.09705
-1.32128
-1.68386
-2.02123
-2.32152
-2.62354
-2.92277
-3.20496
-3.46946
-3.72005
-3.95794
-4.18386
-4.39988
-4.60778
-4.80928
-5.006
-5.19899
-5.38898
-5.57629
-5.76124
-5.94383
-6.12415
-6.30234
-6.47885
-6.65387
-6.8276
-7.00017
-7.17177
-7.34274
-7.513
-7.68272
-7.85176
-8.02017
-8.18799
-8.35526
-8.52191
-8.68795
-8.8534
-9.0182
-9.18253
-9.34618
-9.50923
-9.67171
-9.83354
-9.99481
-10.1555
-10.3158
-10.4755
-10.6347
-10.7935
-10.9518
-11.1097
-11.267
-11.4241
-11.5806
-11.7367
-11.8923
-12.0476
-12.2024
-12.3567
-12.5107
-12.6643
-12.8175
-12.9703
-13.1227
-13.2748
-13.4266
-13.5781
-13.7292
-13.8799
-14.0303
-14.1805
-14.3303
-14.48
-14.6292
-14.7782
-14.927
-15.0755
-15.2237
-15.3716
-15.5194
-15.667
-15.8144
-15.9615
-16.1084
-16.2551
-16.4016
-16.5481
-16.6944
-16.8404
-16.9862
-17.1319
-17.2776
-17.4233
-17.5688
-17.7146
-17.8596
-18.0059
-18.1467
-18.2888
-1.1244
-1.35058
-1.71428
-2.05158
-2.35174
-2.65393
-2.95324
-3.23529
-3.49979
-3.75044
-3.98831
-4.21422
-4.43023
-4.63812
-4.83963
-5.03636
-5.22935
-5.41934
-5.60665
-5.79162
-5.97419
-6.15445
-6.33265
-6.50916
-6.68419
-6.85791
-7.03047
-7.20206
-7.37307
-7.54334
-7.71302
-7.88206
-8.05048
-8.21832
-8.38557
-8.55223
-8.71826
-8.88371
-9.0485
-9.21287
-9.37652
-9.53955
-9.70202
-9.86386
-10.0251
-10.1859
-10.3461
-10.5058
-10.665
-10.8238
-10.9821
-11.14
-11.2973
-11.4544
-11.6109
-11.767
-11.9227
-12.0779
-12.2327
-12.3871
-12.541
-12.6946
-12.8478
-13.0006
-13.1531
-13.3052
-13.4569
-13.6084
-13.7595
-13.9103
-14.0606
-14.2108
-14.3607
-14.5102
-14.6595
-14.8085
-14.9573
-15.1057
-15.2539
-15.4019
-15.5497
-15.6973
-15.8447
-15.9918
-16.1388
-16.2855
-16.432
-16.5785
-16.7248
-16.8708
-17.0165
-17.1622
-17.3079
-17.4535
-17.5989
-17.7443
-17.8885
-18.0326
-18.1701
-18.3025
-1.13919
-1.37723
-1.74433
-2.08005
-2.38052
-2.68347
-2.98295
-3.26478
-3.52926
-3.77994
-4.01772
-4.24353
-4.45946
-4.66726
-4.86872
-5.06542
-5.25839
-5.44837
-5.63565
-5.82065
-6.00319
-6.18339
-6.36157
-6.53809
-6.71313
-6.88683
-7.05938
-7.23095
-7.40201
-7.57228
-7.74193
-7.91097
-8.0794
-8.24724
-8.41449
-8.58115
-8.74717
-8.91263
-9.07739
-9.2418
-9.40544
-9.56845
-9.73091
-9.89275
-10.054
-10.2148
-10.375
-10.5347
-10.6939
-10.8527
-11.011
-11.1689
-11.3263
-11.4834
-11.6399
-11.7959
-11.9516
-12.1068
-12.2616
-12.4159
-12.5699
-12.7235
-12.8766
-13.0295
-13.1819
-13.3341
-13.4858
-13.6373
-13.7884
-13.9391
-14.0896
-14.2398
-14.3897
-14.5392
-14.6885
-14.8375
-14.9863
-15.1348
-15.2831
-15.4311
-15.5789
-15.7265
-15.8738
-16.021
-16.1679
-16.3147
-16.4613
-16.6078
-16.7541
-16.9002
-17.046
-17.1917
-17.3373
-17.4829
-17.6281
-17.7731
-17.9167
-18.0588
-18.1934
-18.3184
-1.14291
-1.40079
-1.77237
-2.10539
-2.40658
-2.71064
-3.01037
-3.29192
-3.55635
-3.80706
-4.0447
-4.27035
-4.48617
-4.69381
-4.89517
-5.0918
-5.28473
-5.4747
-5.66194
-5.84698
-6.02949
-6.20962
-6.38777
-6.56428
-6.73932
-6.913
-7.08552
-7.25706
-7.42818
-7.59843
-7.76806
-7.93709
-8.10553
-8.27337
-8.44062
-8.60728
-8.77331
-8.93877
-9.10352
-9.26798
-9.4316
-9.59459
-9.75705
-9.91888
-10.0802
-10.2409
-10.4011
-10.5608
-10.72
-10.8788
-11.0371
-11.195
-11.3524
-11.5095
-11.666
-11.8221
-11.9777
-12.133
-12.2878
-12.4422
-12.5962
-12.7498
-12.903
-13.0558
-13.2083
-13.3604
-13.5122
-13.6637
-13.8148
-13.9656
-14.1161
-14.2664
-14.4162
-14.5658
-14.7151
-14.8641
-15.0129
-15.1615
-15.3097
-15.4577
-15.6055
-15.7531
-15.9004
-16.0475
-16.1945
-16.3412
-16.4877
-16.6341
-16.7803
-16.9264
-17.0723
-17.2181
-17.3637
-17.5093
-17.6544
-17.799
-17.9419
-18.0828
-18.2152
-18.3348
-1.13783
-1.42212
-1.79834
-2.12805
-2.43029
-2.73563
-3.03564
-3.31685
-3.58121
-3.83191
-4.0694
-4.29484
-4.51054
-4.71801
-4.91922
-5.11577
-5.30864
-5.49858
-5.68577
-5.87086
-6.05333
-6.23341
-6.41153
-6.58803
-6.76306
-6.93671
-7.10921
-7.28071
-7.45188
-7.62211
-7.79171
-7.96074
-8.12919
-8.29701
-8.46427
-8.6309
-8.79694
-8.96232
-9.12713
-9.2916
-9.45521
-9.61821
-9.78066
-9.94251
-10.1038
-10.2645
-10.4248
-10.5845
-10.7438
-10.9026
-11.0609
-11.2187
-11.3763
-11.5334
-11.69
-11.8461
-12.0018
-12.157
-12.3119
-12.4663
-12.6203
-12.7739
-12.9272
-13.08
-13.2324
-13.3845
-13.5363
-13.6877
-13.8388
-13.9896
-14.1402
-14.2903
-14.4402
-14.5898
-14.7391
-14.8881
-15.0369
-15.1854
-15.3337
-15.4817
-15.6295
-15.7771
-15.9245
-16.0716
-16.2186
-16.3654
-16.5121
-16.6587
-16.805
-16.951
-17.0967
-17.2424
-17.388
-17.5334
-17.6784
-17.823
-17.9658
-18.1048
-18.2355
-18.3512
-1.1265
-1.44158
-1.82197
-2.14827
-2.45182
-2.75852
-3.05893
-3.33977
-3.60406
-3.85473
-4.09202
-4.31718
-4.5327
-4.73998
-4.94105
-5.13748
-5.33026
-5.52017
-5.7073
-5.89242
-6.07483
-6.25483
-6.43289
-6.6094
-6.7844
-6.95806
-7.13047
-7.30201
-7.4732
-7.6434
-7.81298
-7.98201
-8.15049
-8.31833
-8.48561
-8.65225
-8.81834
-8.98373
-9.14869
-9.31311
-9.47673
-9.6398
-9.80232
-9.96423
-10.1256
-10.2864
-10.4467
-10.6065
-10.7658
-10.9246
-11.0829
-11.2406
-11.3981
-11.5552
-11.7118
-11.8679
-12.0235
-12.1788
-12.3336
-12.488
-12.642
-12.7956
-12.9488
-13.1017
-13.2541
-13.4062
-13.5579
-13.7094
-13.8605
-14.0113
-14.1618
-14.312
-14.4618
-14.6114
-14.7606
-14.9096
-15.0584
-15.2069
-15.3551
-15.5031
-15.6509
-15.7984
-15.9457
-16.0928
-16.2396
-16.3863
-16.5327
-16.6791
-16.8254
-16.9714
-17.1173
-17.263
-17.4087
-17.5542
-17.6991
-17.8433
-17.9855
-18.1247
-18.2544
-18.3673
-1.11097
-1.45956
-1.8432
-2.16645
-2.47137
-2.77931
-3.08018
-3.36069
-3.62497
-3.87558
-4.11276
-4.33766
-4.5529
-4.75996
-4.96095
-5.15725
-5.35002
-5.53983
-5.72704
-5.91219
-6.09456
-6.27448
-6.45246
-6.62893
-6.80387
-6.9775
-7.14987
-7.32151
-7.49268
-7.66293
-7.83253
-8.0016
-8.17018
-8.33814
-8.50551
-8.67226
-8.83842
-9.0039
-9.16887
-9.3332
-9.49679
-9.65983
-9.82234
-9.98423
-10.1456
-10.3063
-10.4666
-10.6264
-10.7857
-10.9445
-11.1028
-11.2606
-11.4181
-11.5752
-11.7317
-11.8878
-12.0435
-12.1987
-12.3536
-12.508
-12.662
-12.8156
-12.9688
-13.1216
-13.2741
-13.4262
-13.578
-13.7294
-13.8806
-14.0313
-14.1819
-14.3321
-14.4819
-14.6315
-14.7808
-14.9299
-15.0787
-15.2272
-15.3755
-15.5235
-15.6713
-15.8189
-15.9663
-16.1135
-16.2605
-16.4073
-16.554
-16.7006
-16.8469
-16.9929
-17.1387
-17.2844
-17.4299
-17.5753
-17.7202
-17.8645
-18.0062
-18.1434
-18.272
-18.3829
-1.09223
-1.47625
-1.86226
-2.1833
-2.48955
-2.79839
-3.09948
-3.37949
-3.64374
-3.89415
-4.13099
-4.35615
-4.57092
-4.7776
-4.97837
-5.17447
-5.36711
-5.55676
-5.74403
-5.92904
-6.11142
-6.29142
-6.46953
-6.64617
-6.82127
-6.99501
-7.16755
-7.33933
-7.51056
-7.68087
-7.85043
-8.01939
-8.1879
-8.35579
-8.52309
-8.68977
-8.85586
-9.02129
-9.18619
-9.35049
-9.51406
-9.67706
-9.83949
-10.0013
-10.1626
-10.3234
-10.4836
-10.6433
-10.8026
-10.9613
-11.1196
-11.2773
-11.4348
-11.5918
-11.7483
-11.9044
-12.06
-12.2152
-12.37
-12.5244
-12.6783
-12.8319
-12.9851
-13.1378
-13.2902
-13.4423
-13.594
-13.7454
-13.8965
-14.0472
-14.1977
-14.3478
-14.4976
-14.6471
-14.7963
-14.9453
-15.094
-15.2425
-15.3907
-15.5386
-15.6864
-15.8338
-15.9811
-16.1282
-16.2751
-16.4217
-16.5682
-16.7146
-16.8608
-17.0068
-17.1526
-17.2983
-17.4439
-17.5894
-17.7342
-17.8784
-18.0205
-18.1588
-18.2872
-18.3974
-1.07137
-1.49059
-1.87785
-2.19825
-2.50642
-2.81688
-3.1183
-3.39783
-3.66211
-3.91238
-4.14897
-4.37439
-4.58883
-4.79538
-4.99615
-5.19237
-5.3852
-5.5752
-5.76278
-5.94803
-6.13062
-6.31066
-6.48886
-6.66549
-6.84051
-7.01402
-7.18636
-7.35803
-7.52919
-7.69947
-7.86904
-8.03803
-8.20656
-8.37448
-8.5418
-8.70851
-8.87463
-9.04009
-9.20501
-9.36933
-9.53293
-9.69593
-9.85834
-10.0202
-10.1815
-10.3422
-10.5025
-10.6623
-10.8215
-10.9803
-11.1386
-11.2964
-11.4539
-11.611
-11.7675
-11.9236
-12.0793
-12.2345
-12.3894
-12.5438
-12.6978
-12.8514
-13.0046
-13.1574
-13.3098
-13.4619
-13.6137
-13.7652
-13.9163
-14.0671
-14.2176
-14.3678
-14.5176
-14.6672
-14.8165
-14.9655
-15.1143
-15.2628
-15.411
-15.5591
-15.7069
-15.8544
-16.0018
-16.1489
-16.2959
-16.4427
-16.5893
-16.7357
-16.882
-17.0281
-17.1739
-17.3196
-17.4651
-17.6105
-17.7553
-17.8994
-18.0409
-18.1778
-18.3048
-18.4135
-1.05677
-1.50516
-1.89009
-2.20779
-2.51678
-2.82902
-3.13095
-3.40994
-3.67439
-3.92466
-4.16113
-4.38617
-4.60043
-4.80686
-5.00752
-5.20364
-5.39635
-5.58622
-5.77368
-5.95876
-6.14104
-6.32067
-6.49866
-6.67509
-6.84998
-7.02338
-7.19552
-7.36708
-7.53815
-7.70836
-7.87785
-8.04675
-8.21519
-8.38302
-8.55027
-8.7169
-8.88295
-9.04834
-9.2132
-9.37745
-9.54099
-9.70394
-9.86631
-10.0281
-10.1893
-10.3501
-10.5103
-10.67
-10.8292
-10.988
-11.1462
-11.304
-11.4614
-11.6184
-11.7749
-11.931
-12.0866
-12.2418
-12.3966
-12.5509
-12.7049
-12.8584
-13.0116
-13.1644
-13.3168
-13.4688
-13.6206
-13.772
-13.9231
-14.0738
-14.2243
-14.3744
-14.5242
-14.6737
-14.823
-14.9719
-15.1207
-15.2692
-15.4174
-15.5654
-15.7131
-15.8606
-16.0079
-16.155
-16.302
-16.4487
-16.5952
-16.7416
-16.8879
-17.0339
-17.1797
-17.3254
-17.4709
-17.6164
-17.7611
-17.9053
-18.0471
-18.1848
-18.3122
-18.4214
-1.02629
-1.51999
-1.9137
-2.23195
-2.54113
-2.85387
-3.15657
-3.43459
-3.69936
-3.94974
-4.18611
-4.41096
-4.62501
-4.83116
-5.03155
-5.22743
-5.41996
-5.60968
-5.79704
-5.98205
-6.16436
-6.34405
-6.52201
-6.69842
-6.87326
-7.04664
-7.21878
-7.3903
-7.56132
-7.7315
-7.90096
-8.06985
-8.23828
-8.40611
-8.57335
-8.73998
-8.90603
-9.07142
-9.23628
-9.40054
-9.56408
-9.72704
-9.88941
-10.0512
-10.2125
-10.3732
-10.5334
-10.6931
-10.8524
-11.0111
-11.1693
-11.3271
-11.4845
-11.6416
-11.7981
-11.9541
-12.1098
-12.265
-12.4198
-12.5741
-12.7281
-12.8817
-13.0348
-13.1876
-13.34
-13.4921
-13.6438
-13.7953
-13.9463
-14.0971
-14.2476
-14.3977
-14.5475
-14.6971
-14.8463
-14.9953
-15.144
-15.2925
-15.4408
-15.5888
-15.7365
-15.884
-16.0313
-16.1785
-16.3254
-16.4721
-16.6187
-16.7651
-16.9113
-17.0574
-17.2032
-17.3489
-17.4944
-17.6398
-17.7846
-17.9287
-18.0704
-18.2077
-18.3349
-18.4436
-18.2223
-18.4831
-19.2198
-19.3445
-18.803
-17.7198
-16.2602
-14.5568
-12.7962
-11.0739
-9.48024
-8.04333
-6.77923
-5.68264
-4.74012
-3.93177
-3.24007
-2.64522
-2.13173
-1.68762
-1.30118
-0.962579
-0.665044
-0.402574
-0.169808
0.0378718
0.223206
0.388517
0.536586
0.669661
0.789963
0.898088
0.99376
1.07866
1.15399
1.22052
1.27901
1.33014
1.37448
1.41256
1.44487
1.47188
1.49402
1.51167
1.52522
1.535
1.54132
1.54446
1.54471
1.54225
1.53744
1.53032
1.52108
1.50996
1.49711
1.48253
1.46636
1.44874
1.42964
1.40918
1.38742
1.36441
1.34017
1.31476
1.28825
1.26066
1.23185
1.20204
1.17132
1.13979
1.10744
1.07448
1.04087
1.0068
0.972208
0.937392
0.90214
0.866926
0.831401
0.796021
0.760468
0.725055
0.689489
0.653904
0.618185
0.582488
0.546725
0.510947
0.474922
0.438754
0.402384
0.365978
0.329339
0.292488
0.2547
0.216248
0.17454
0.132323
0.0830733
0.03213
-18.2617
-18.4101
-19.1133
-19.2549
-18.7255
-17.6627
-16.2252
-14.5414
-12.7965
-11.0856
-9.50037
-8.06814
-6.80652
-5.71095
-4.76823
-3.95898
-3.26574
-2.66914
-2.15391
-1.7081
-1.32017
-0.980314
-0.68168
-0.418128
-0.184504
0.0237947
0.209568
0.375324
0.523557
0.656674
0.776179
0.884119
0.979906
1.06487
1.14027
1.20688
1.26544
1.31664
1.36103
1.39917
1.43153
1.45859
1.48077
1.49846
1.51204
1.52184
1.52819
1.53137
1.53164
1.52922
1.5244
1.51733
1.50812
1.49701
1.48418
1.4696
1.45343
1.43581
1.41669
1.3962
1.37442
1.35137
1.32707
1.30161
1.27503
1.24737
1.21851
1.18865
1.15788
1.12631
1.09393
1.06095
1.02732
0.993252
0.958658
0.92386
0.888623
0.853442
0.817953
0.78263
0.747139
0.7118
0.676309
0.640798
0.60516
0.569543
0.533859
0.498135
0.462171
0.426073
0.389797
0.353516
0.317049
0.280436
0.243076
0.20519
0.164651
0.123814
0.0772187
0.0293298
-18.2562
-18.4173
-19.0384
-19.1633
-18.6386
-17.5933
-16.1784
-14.5166
-12.7911
-11.0958
-9.52115
-8.09594
-6.83865
-5.74465
-4.80154
-3.99103
-3.29587
-2.69722
-2.18003
-1.73232
-1.34271
-1.00135
-0.701378
-0.436569
-0.201881
0.00729002
0.193738
0.360274
0.509011
0.642691
0.761626
0.868687
0.964421
1.04949
1.125
1.1917
1.25035
1.30164
1.34611
1.38432
1.41675
1.44386
1.46609
1.48383
1.49745
1.50729
1.51368
1.51689
1.51719
1.5148
1.50999
1.50297
1.49377
1.48273
1.4699
1.45532
1.43915
1.42153
1.40239
1.38188
1.36006
1.33696
1.31261
1.28708
1.26043
1.23269
1.20376
1.17383
1.14301
1.11139
1.07898
1.04597
1.01232
0.978246
0.943649
0.908865
0.873649
0.838511
0.803068
0.767815
0.732397
0.69714
0.661733
0.626301
0.590757
0.555225
0.519624
0.483959
0.448066
0.412047
0.375869
0.339717
0.303447
0.267098
0.230216
0.192967
0.153732
0.114428
0.0707602
0.0263726
-18.2811
-18.4372
-18.9762
-19.0796
-18.5498
-17.5178
-16.1235
-14.4869
-12.7823
-11.1052
-9.54301
-8.12679
-6.87511
-5.78318
-4.83978
-4.0279
-3.33071
-2.73012
-2.21099
-1.76103
-1.36932
-1.02606
-0.72441
-0.458125
-0.222154
-0.011892
0.175422
0.342828
0.492187
0.626523
0.745357
0.851433
0.947082
1.03232
1.10797
1.17481
1.23358
1.28497
1.32955
1.36784
1.40035
1.42753
1.44983
1.46762
1.4813
1.49119
1.49762
1.50087
1.5012
1.49886
1.49408
1.4871
1.47794
1.46694
1.45412
1.43955
1.42343
1.40577
1.38661
1.36607
1.34421
1.32106
1.29664
1.27104
1.24429
1.21646
1.18745
1.15745
1.12657
1.09489
1.06243
1.02938
0.995703
0.961623
0.927029
0.892268
0.857074
0.821995
0.786594
0.751428
0.716087
0.680918
0.645606
0.61026
0.574823
0.539383
0.50387
0.468273
0.432463
0.396529
0.360464
0.324447
0.288401
0.252334
0.215978
0.179455
0.141662
0.104074
0.0636144
0.0232612
-18.3002
-18.4479
-18.9138
-18.9943
-18.4628
-17.4422
-16.0658
-14.4562
-12.7739
-11.1169
-9.56904
-8.16297
-6.91703
-5.82756
-4.88421
-4.07101
-3.37168
-2.76881
-2.24734
-1.79468
-1.40042
-1.05491
-0.751279
-0.483304
-0.245885
-0.0344182
0.153856
0.322073
0.472066
0.606861
0.725996
0.831815
0.927627
1.01311
1.08895
1.15596
1.21489
1.26643
1.31113
1.34953
1.38214
1.40942
1.4318
1.44966
1.46341
1.47336
1.47984
1.48314
1.48352
1.48124
1.47652
1.46957
1.46046
1.44949
1.43668
1.42214
1.40606
1.38836
1.36919
1.34865
1.32674
1.30351
1.27901
1.25333
1.22647
1.19852
1.16943
1.13934
1.10837
1.07661
1.04411
1.01102
0.977303
0.943223
0.908639
0.873912
0.838731
0.803716
0.768352
0.733285
0.698044
0.662956
0.627754
0.592505
0.557191
0.521852
0.486436
0.450918
0.415202
0.379359
0.343413
0.307558
0.271742
0.236006
0.200215
0.164508
0.128307
0.0926429
0.055692
0.0199471
-18.3173
-18.4558
-18.8478
-18.9
-18.3687
-17.3605
-16.0066
-14.4267
-12.7686
-11.1334
-9.60128
-8.20672
-6.9671
-5.88055
-4.9374
-4.12262
-3.42057
-2.81443
-2.28974
-1.83393
-1.43676
-1.08872
-0.782865
-0.51297
-0.273916
-0.0610985
0.128284
0.297365
0.448138
0.583378
0.703236
0.809592
0.905747
0.991519
1.06764
1.13488
1.19402
1.24574
1.29061
1.32916
1.36189
1.38929
1.41177
1.42973
1.44357
1.45359
1.46015
1.46351
1.46395
1.46173
1.45708
1.45019
1.44115
1.43021
1.41744
1.40292
1.38684
1.36914
1.34996
1.32941
1.30745
1.28412
1.25954
1.23376
1.20679
1.17872
1.14949
1.11929
1.08822
1.05639
1.02381
0.990692
0.956954
0.922871
0.888267
0.853576
0.818415
0.783471
0.748171
0.713188
0.678074
0.643062
0.60799
0.572851
0.537675
0.502448
0.46714
0.431715
0.396099
0.360343
0.324529
0.288876
0.253298
0.217947
0.182774
0.14797
0.113513
0.0799891
0.0468938
0.0163389
-18.333
-18.4598
-18.7777
-18.7963
-18.2651
-17.27
-15.9406
-14.393
-12.7636
-11.1536
-9.63973
-8.25866
-7.02655
-5.94307
-5.00002
-4.1833
-3.4779
-2.86778
-2.33908
-1.87953
-1.47894
-1.12796
-0.819495
-0.54736
-0.306387
-0.0920217
0.0987049
0.268863
0.420666
0.556567
0.677322
0.784493
0.881076
0.967219
1.0437
1.11126
1.17067
1.22264
1.26771
1.30645
1.33935
1.36689
1.38951
1.40759
1.42153
1.43165
1.4383
1.44174
1.44226
1.44013
1.43556
1.42875
1.41978
1.40889
1.39617
1.38168
1.36561
1.34791
1.32873
1.30812
1.2861
1.2627
1.23803
1.21214
1.18505
1.15682
1.12743
1.0971
1.06593
1.03402
1.00135
0.968178
0.93439
0.900313
0.865689
0.831038
0.795917
0.761035
0.72585
0.69092
0.655953
0.621024
0.586106
0.551092
0.516075
0.480972
0.445789
0.410464
0.374936
0.339281
0.303645
0.268208
0.232891
0.197951
0.163462
0.129648
0.0970972
0.0659364
0.0371028
0.0122794
-18.3473
-18.4593
-18.7044
-18.6852
-18.1535
-17.1729
-15.869
-14.3545
-12.7561
-11.1729
-9.67956
-8.31374
-7.09074
-6.00971
-5.06679
-4.24862
-3.54035
-2.92659
-2.39392
-1.93047
-1.52612
-1.17179
-0.860329
-0.58565
-0.342489
-0.12669
0.0654237
0.236797
0.389756
0.526479
0.648147
0.756221
0.853329
0.939959
1.01689
1.08484
1.14458
1.19682
1.24214
1.28109
1.3142
1.34192
1.3647
1.38293
1.39701
1.40725
1.41402
1.41756
1.41817
1.41616
1.41171
1.40499
1.39613
1.38531
1.37265
1.3582
1.34215
1.32446
1.30526
1.28461
1.26253
1.23904
1.21426
1.18822
1.16101
1.1326
1.10305
1.07256
1.04123
1.0092
0.976447
0.943219
0.909371
0.8753
0.84067
0.806056
0.771023
0.736163
0.701131
0.666247
0.631444
0.596616
0.561877
0.527006
0.492169
0.45721
0.422161
0.386922
0.351467
0.316002
0.280567
0.245337
0.210303
0.175803
0.142056
0.109323
0.0788434
0.0502663
0.0261787
0.00752323
-18.3608
-18.4555
-18.6297
-18.5681
-18.0349
-17.0699
-15.7929
-14.3101
-12.7427
-11.1867
-9.71536
-8.36639
-7.15386
-6.07835
-5.13733
-4.31825
-3.60718
-2.98973
-2.45304
-1.98573
-1.57775
-1.22019
-0.905822
-0.628625
-0.383251
-0.165646
0.0280875
0.200906
0.355164
0.492899
0.615563
0.724626
0.822372
0.909568
0.987002
1.05536
1.11544
1.16798
1.21358
1.25279
1.28613
1.31408
1.33707
1.35548
1.36972
1.38007
1.38699
1.39066
1.39141
1.38954
1.38524
1.37865
1.36991
1.35923
1.34666
1.33228
1.31625
1.29858
1.27938
1.25867
1.23652
1.21294
1.18801
1.16179
1.13434
1.10572
1.07599
1.04534
1.01383
0.981658
0.948806
0.915531
0.881637
0.847567
0.812966
0.778347
0.743451
0.708601
0.673734
0.638917
0.604295
0.569594
0.535059
0.500357
0.465728
0.430921
0.39598
0.360797
0.325531
0.290304
0.255047
0.22002
0.185298
0.151267
0.118315
0.0867427
0.0585068
0.0327086
0.0139523
0.00169353
-18.3734
-18.4488
-18.555
-18.4473
-17.91
-16.9608
-15.7108
-14.2632
-12.7304
-11.2039
-9.75544
-8.42347
-7.22109
-6.15253
-5.21346
-4.39297
-3.67862
-3.05709
-2.51608
-2.04462
-1.63282
-1.27187
-0.954533
-0.67481
-0.427316
-0.207603
-0.0123199
0.161714
0.317034
0.455657
0.579223
0.689214
0.787587
0.875321
0.953268
1.02207
1.08256
1.1355
1.18145
1.221
1.25465
1.28289
1.30614
1.3248
1.33926
1.34982
1.35695
1.36078
1.36169
1.36001
1.35589
1.34947
1.34088
1.33031
1.31784
1.30353
1.28754
1.26989
1.25067
1.22991
1.20768
1.18399
1.15891
1.13247
1.10476
1.0759
1.04596
1.01511
0.983428
0.95112
0.918148
0.884815
0.850891
0.816785
0.782264
0.747628
0.712886
0.678074
0.64338
0.608668
0.574242
0.539709
0.505413
0.4709
0.43651
0.401748
0.366951
0.331942
0.296954
0.261895
0.226824
0.192007
0.157628
0.124084
0.0919814
0.0616246
0.0358155
0.0129222
0.000227101
-0.00577629
-18.3855
-18.4419
-18.4897
-18.338
-17.7952
-16.8614
-15.6364
-14.2237
-12.7243
-11.2259
-9.79888
-8.48246
-7.28948
-6.2254
-5.28698
-4.46487
-3.74752
-3.12236
-2.57752
-2.1024
-1.68716
-1.3231
-1.00304
-0.720952
-0.471464
-0.249953
-0.0531496
0.122071
0.278372
0.417752
0.542048
0.652749
0.751594
0.839652
0.91791
0.98701
1.04782
1.10114
1.14745
1.18734
1.22132
1.24988
1.27343
1.29237
1.30709
1.31791
1.3253
1.32931
1.33038
1.32891
1.32501
1.31876
1.31033
1.29986
1.28748
1.27326
1.25731
1.23969
1.22044
1.19962
1.17729
1.15347
1.12821
1.10157
1.07362
1.04451
1.01433
0.983261
0.951377
0.918913
0.885822
0.852404
0.818487
0.784345
0.749919
0.715304
0.680728
0.646
0.611484
0.576925
0.542713
0.508395
0.474364
0.440022
0.405706
0.37112
0.336562
0.301826
0.267024
0.232096
0.197232
0.16261
0.128597
0.095507
0.0642759
0.0350688
0.0117779
-0.00837374
-0.0144402
-0.0152443
-18.3976
-18.4381
-18.4421
-18.2547
-17.7065
-16.7856
-15.5817
-14.1951
-12.7213
-11.2449
-9.83551
-8.53222
-7.34745
-6.28751
-5.35037
-4.52756
-3.80803
-3.17997
-2.63197
-2.15385
-1.73581
-1.36923
-1.04698
-0.763045
-0.512005
-0.28915
-0.0910718
0.0851794
0.242342
0.382369
0.507315
0.618561
0.717999
0.806823
0.885539
0.954893
1.01591
1.06943
1.11595
1.15607
1.19026
1.21902
1.24279
1.26192
1.27681
1.28778
1.29539
1.29952
1.30071
1.29942
1.29569
1.2896
1.2813
1.27094
1.25865
1.24449
1.22858
1.21096
1.19168
1.17078
1.14833
1.12437
1.09894
1.07207
1.04388
1.0145
0.984082
0.952783
0.920707
0.888089
0.854913
0.821428
0.787551
0.753416
0.719087
0.684541
0.650151
0.615557
0.581213
0.54685
0.512861
0.478778
0.444853
0.410678
0.376478
0.342229
0.307891
0.273312
0.23866
0.203858
0.169185
0.134724
0.101071
0.0683368
0.0379376
0.00963648
-0.0112567
-0.0291994
-0.0286961
-0.0262303
-18.4101
-18.4384
-18.4112
-18.197
-17.644
-16.7324
-15.544
-14.1764
-12.722
-11.2627
-9.86715
-8.57403
-7.39568
-6.33903
-5.40291
-4.57954
-3.85835
-3.22803
-2.67758
-2.19714
-1.77694
-1.40841
-1.08444
-0.799078
-0.54678
-0.322889
-0.124023
0.0529046
0.210609
0.351028
0.476388
0.587975
0.687783
0.777265
0.856426
0.926263
0.987727
1.04151
1.08825
1.12853
1.16288
1.19179
1.21571
1.23498
1.24996
1.26097
1.26878
1.27297
1.27422
1.27305
1.26944
1.26345
1.25524
1.24495
1.2327
1.21857
1.20266
1.18501
1.16566
1.14467
1.1221
1.09798
1.07236
1.04526
1.01684
0.987216
0.956571
0.925074
0.892841
0.860101
0.826906
0.793402
0.759586
0.72552
0.6913
0.65684
0.622624
0.588217
0.554055
0.519903
0.486131
0.452068
0.418296
0.384365
0.350435
0.316378
0.28217
0.247725
0.213209
0.178511
0.144002
0.109667
0.0763459
0.0438734
0.0142364
-0.0134431
-0.0322969
-0.0484869
-0.0419818
-0.0380735
-18.423
-18.4422
-18.3931
-18.1594
-17.6024
-16.6977
-15.5206
-14.167
-12.727