/*--------------------------------*- C++ -*----------------------------------*\
| =========                 |                                                 |
| \\      /  F ield         | OpenFOAM: The Open Source CFD Toolbox           |
|  \\    /   O peration     | Version:  v2012                                 |
|   \\  /    A nd           | Website:  www.openfoam.com                      |
|    \\/     M anipulation  |                                                 |
\*---------------------------------------------------------------------------*/
FoamFile
{
    version     2.0;
    format      ascii;
    class       volScalarField;
    location    "0.127";
    object      k.air;
}
// * * * * * * * * * * * * * * * * * * * * * * * * * * * * * * * * * * * * * //

dimensions      [0 2 -2 0 0 0 0];


internalField   nonuniform List<scalar> 
5600
(
0.606299
0.840814
0.955117
0.978163
0.94916
0.897611
0.839529
0.787306
0.743255
0.707336
0.679291
0.65843
0.643291
0.632716
0.625255
0.620089
0.61624
0.613339
0.610912
0.608842
0.607078
0.605444
0.604238
0.603082
0.602488
0.601694
0.601518
0.600933
0.601001
0.60042
0.600604
0.599804
0.600075
0.599017
0.599414
0.598103
0.598651
0.597234
0.597741
0.596569
0.596651
0.596254
0.595418
0.596199
0.594283
0.596074
0.593756
0.595392
0.594162
0.593936
0.595352
0.592231
0.596411
0.591341
0.596377
0.591994
0.594892
0.593977
0.592673
0.59621
0.591096
0.597339
0.591523
0.596328
0.594401
0.593129
0.598671
0.58949
0.601602
0.588272
0.600471
0.591243
0.595019
0.597276
0.588448
0.602085
0.585693
0.601422
0.588981
0.595555
0.595487
0.589513
0.59916
0.588944
0.596219
0.5944
0.589024
0.601452
0.583344
0.604093
0.583919
0.599557
0.58993
0.593491
0.590625
0.60177
0.566436
0.64578
0.480129
0.799227
0.371637
0.315566
0.288658
0.275669
0.274961
0.284656
0.307359
0.344948
0.387105
0.430216
0.471462
0.508995
0.541778
0.569431
0.591937
0.609783
0.623483
0.633908
0.641746
0.647754
0.652589
0.656343
0.660093
0.662886
0.666108
0.667814
0.670643
0.671323
0.673775
0.673348
0.675595
0.674113
0.676601
0.674214
0.677181
0.674159
0.677399
0.674354
0.677057
0.675346
0.675922
0.677242
0.674395
0.679413
0.67338
0.680606
0.674398
0.679049
0.678392
0.6749
0.683772
0.670741
0.687469
0.670308
0.686456
0.675385
0.680875
0.683686
0.674176
0.690757
0.670877
0.692503
0.67525
0.686185
0.687678
0.674713
0.702376
0.665149
0.709741
0.666867
0.701834
0.68279
0.681909
0.70399
0.663567
0.715344
0.661005
0.706623
0.677602
0.684719
0.697946
0.669635
0.703509
0.674278
0.688872
0.69459
0.667063
0.712838
0.655579
0.713147
0.66593
0.692985
0.68843
0.675053
0.692837
0.688164
0.663234
0.72423
0.624414
0.77036
0.369148
0.281902
0.227733
0.192998
0.168588
0.153795
0.145611
0.143627
0.146961
0.1551
0.16703
0.181958
0.199268
0.218583
0.239125
0.260639
0.282465
0.304549
0.326394
0.348231
0.369548
0.39032
0.409366
0.425394
0.440169
0.451708
0.463502
0.471265
0.480805
0.485639
0.493951
0.496362
0.504271
0.504678
0.512527
0.511487
0.518901
0.517708
0.523323
0.524284
0.525885
0.531212
0.527505
0.53753
0.529899
0.541128
0.535325
0.540299
0.54421
0.536505
0.553601
0.534042
0.558811
0.537596
0.556862
0.547981
0.549699
0.560933
0.542713
0.570144
0.542142
0.570031
0.552614
0.559193
0.572205
0.543901
0.59137
0.535644
0.596329
0.545313
0.580545
0.571416
0.553327
0.598378
0.534456
0.605991
0.539951
0.587216
0.565973
0.558771
0.588598
0.54577
0.587917
0.558382
0.565812
0.583611
0.542333
0.599445
0.537072
0.590968
0.556131
0.565305
0.580066
0.549111
0.583516
0.556998
0.570382
0.563205
0.577027
0.548226
0.370098
0.280653
0.224106
0.186058
0.158547
0.138204
0.122947
0.111363
0.102906
0.0970082
0.0935336
0.0923316
0.0929242
0.0953754
0.099458
0.10534
0.11278
0.121957
0.132802
0.145248
0.159503
0.175042
0.192665
0.210195
0.229461
0.246887
0.266161
0.281129
0.298826
0.310442
0.326792
0.334763
0.350143
0.354863
0.369528
0.37201
0.38526
0.387662
0.397363
0.402913
0.406148
0.417383
0.41297
0.42932
0.420753
0.435736
0.432146
0.435947
0.446876
0.433367
0.460282
0.434201
0.466388
0.443324
0.463198
0.459705
0.454983
0.477027
0.449082
0.487222
0.453043
0.484043
0.470739
0.468334
0.497343
0.450688
0.518696
0.446713
0.518622
0.466452
0.494415
0.502189
0.462219
0.53152
0.446951
0.531927
0.462674
0.503131
0.49615
0.471622
0.516924
0.464317
0.50836
0.484087
0.481465
0.510605
0.460337
0.520773
0.462738
0.504987
0.486136
0.480546
0.504331
0.471118
0.504574
0.476129
0.500956
0.470227
0.5148
0.459349
0.370292
0.280783
0.22438
0.186053
0.158418
0.137657
0.121534
0.108751
0.0983679
0.0899483
0.0829683
0.0773782
0.0728124
0.0692523
0.0665697
0.0646638
0.0637493
0.0634799
0.0643986
0.0657053
0.0688223
0.0719003
0.0778245
0.0829415
0.0921609
0.0992163
0.11186
0.12004
0.135578
0.143901
0.161943
0.169825
0.189661
0.195887
0.215947
0.220954
0.239176
0.245326
0.258302
0.269416
0.273455
0.29235
0.287008
0.311038
0.30282
0.321936
0.323326
0.325032
0.34657
0.326059
0.365398
0.333275
0.372917
0.350762
0.369322
0.374764
0.361576
0.396879
0.35897
0.407676
0.369753
0.401077
0.39645
0.381076
0.430171
0.363504
0.451853
0.367043
0.445066
0.39849
0.413006
0.443002
0.378793
0.471343
0.370666
0.462117
0.397341
0.424795
0.435684
0.393983
0.451054
0.394398
0.434888
0.419399
0.406202
0.443974
0.390108
0.447078
0.399388
0.427191
0.422028
0.409123
0.431708
0.40645
0.430268
0.408055
0.43335
0.397461
0.444335
0.397355
0.370321
0.280817
0.224505
0.18622
0.158633
0.13792
0.121794
0.108956
0.0984535
0.0897712
0.0824416
0.0762182
0.0708903
0.0662531
0.0623194
0.0587689
0.0559236
0.0531536
0.0513297
0.0490381
0.048363
0.0462854
0.0470859
0.0450096
0.0478342
0.0454934
0.0509988
0.0481602
0.0569972
0.0535516
0.0660571
0.0622213
0.0781992
0.0746291
0.0923574
0.0910666
0.107011
0.111643
0.120921
0.135559
0.13464
0.160116
0.150585
0.180482
0.172321
0.192323
0.200843
0.197052
0.231037
0.202465
0.253216
0.21741
0.260826
0.244138
0.257103
0.276097
0.251855
0.302509
0.25556
0.31305
0.276154
0.302828
0.31364
0.280389
0.353563
0.267265
0.372778
0.28261
0.358317
0.327236
0.320803
0.377464
0.289861
0.400114
0.293014
0.380186
0.330187
0.337928
0.368071
0.313437
0.374132
0.322527
0.352609
0.348588
0.327102
0.366995
0.318576
0.363049
0.332802
0.343705
0.348467
0.336518
0.348521
0.338366
0.348002
0.335787
0.35537
0.324257
0.362141
0.329663
0.370324
0.280815
0.224528
0.18626
0.158704
0.138011
0.121922
0.109095
0.0986257
0.0899362
0.0826149
0.0763487
0.0709715
0.0662296
0.0621588
0.0584124
0.0553083
0.0521861
0.0499227
0.0470874
0.0457111
0.0428045
0.0425164
0.0391252
0.0403032
0.0359111
0.0391052
0.0331064
0.038969
0.0308536
0.0398604
0.0296316
0.0414299
0.0305251
0.0427129
0.0351439
0.0426278
0.0446836
0.0412857
0.0580996
0.0416511
0.0711612
0.0490714
0.0782803
0.0678042
0.0774809
0.0955357
0.0746477
0.122648
0.0801578
0.138487
0.10063
0.140003
0.133199
0.133768
0.168292
0.130842
0.194135
0.141607
0.201126
0.17197
0.186849
0.217362
0.164938
0.258002
0.160357
0.270742
0.1895
0.249501
0.243901
0.213048
0.293087
0.192582
0.305542
0.209557
0.276791
0.252067
0.237693
0.281162
0.225488
0.276136
0.241009
0.254744
0.261324
0.238078
0.270105
0.237978
0.26085
0.252508
0.248194
0.256181
0.253004
0.249309
0.255668
0.250867
0.250751
0.259521
0.239449
0.264724
0.243795
0.370324
0.280805
0.224526
0.18626
0.158716
0.138028
0.121954
0.109133
0.0986786
0.0899973
0.0826865
0.0764309
0.071054
0.0663261
0.0622337
0.0585092
0.0553411
0.0522669
0.0498468
0.047134
0.0454213
0.0427908
0.0418591
0.0390009
0.0390415
0.0355782
0.0369087
0.032389
0.035396
0.0294182
0.0343294
0.0269079
0.0332181
0.0255924
0.0310801
0.0266283
0.0268684
0.0307503
0.0207814
0.0365778
0.0159199
0.0396506
0.0178842
0.034971
0.0302456
0.0227589
0.0486016
0.0113591
0.0619705
0.0121198
0.0619594
0.0296638
0.0503805
0.0571008
0.0369273
0.0829948
0.0321264
0.0974274
0.0452221
0.0935262
0.0790205
0.0734771
0.121922
0.0553368
0.151449
0.0617101
0.152472
0.0997435
0.130419
0.151475
0.104812
0.188486
0.100503
0.189142
0.127238
0.160514
0.162459
0.136232
0.17471
0.13797
0.162825
0.151858
0.149778
0.159903
0.144388
0.159775
0.149638
0.149379
0.159102
0.146688
0.152062
0.157576
0.144714
0.158797
0.146097
0.155832
0.15325
0.146131
0.157576
0.147712
0.370323
0.280796
0.224519
0.186254
0.158714
0.138027
0.121958
0.10914
0.0986897
0.0900133
0.0827044
0.0764577
0.0710764
0.0663667
0.0622557
0.0585693
0.0553503
0.0523604
0.0498159
0.0472881
0.0453036
0.0430477
0.0415835
0.0394215
0.0385039
0.0362458
0.0359639
0.0334013
0.0338749
0.030839
0.0320991
0.0286431
0.0303517
0.0271173
0.0281598
0.0266958
0.0251084
0.0275037
0.0214758
0.0286371
0.0188526
0.0279819
0.0195418
0.0236187
0.0243638
0.0163287
0.0306606
0.0105241
0.0333579
0.0110875
0.029364
0.0186913
0.0203593
0.0297751
0.0109428
0.0393968
0.00669917
0.0419069
0.0137474
0.0330087
0.0332142
0.0165105
0.0546095
0.00686101
0.062748
0.0167633
0.0545402
0.0419326
0.0411558
0.0678023
0.03389
0.0808922
0.0422372
0.0748333
0.0622485
0.0617237
0.0745454
0.05964
0.0701885
0.0680772
0.0615412
0.0714033
0.0609128
0.0683768
0.0630585
0.0636435
0.0694775
0.0555102
0.0728549
0.0589759
0.0632393
0.067732
0.0584971
0.0698196
0.0560584
0.0701894
0.0612218
0.0626765
0.0644426
0.0624543
0.370323
0.280792
0.224515
0.18625
0.158711
0.138026
0.121959
0.109141
0.0986923
0.090018
0.0827091
0.0764667
0.0710821
0.0663816
0.06226
0.0585936
0.0553477
0.0524023
0.0497946
0.0473628
0.0452436
0.0431787
0.0414546
0.0396437
0.0382619
0.0366082
0.0355485
0.0339626
0.0332239
0.031638
0.0311957
0.0296205
0.0293379
0.0279663
0.0274898
0.0267546
0.0255439
0.0259453
0.0236236
0.0252067
0.0221807
0.0239615
0.0217271
0.0218508
0.0222406
0.019323
0.0228251
0.0175782
0.0222992
0.0174836
0.020315
0.0187581
0.0175203
0.0205055
0.0149908
0.0216036
0.0141056
0.0205932
0.016287
0.016609
0.0209727
0.0121269
0.0238372
0.0123691
0.021076
0.0182949
0.0152842
0.0248845
0.0125452
0.0271958
0.0161026
0.0239745
0.0241937
0.0182221
0.0304927
0.0167344
0.0286982
0.0221997
0.0216916
0.0279718
0.017393
0.029048
0.0167851
0.0283737
0.0173014
0.0254737
0.0222374
0.0190377
0.0271504
0.0169276
0.0267953
0.0178658
0.0250479
0.0218188
0.0189653
0.027442
0.0163825
0.0284241
0.0144881
0.0293961
0.370323
0.280793
0.224517
0.186252
0.158714
0.138028
0.121961
0.109144
0.0986948
0.0900204
0.0827111
0.0764694
0.0710832
0.0663851
0.0622595
0.0585989
0.0553441
0.0524119
0.0497844
0.0473811
0.0452214
0.0432125
0.0414123
0.0397028
0.0381877
0.0367065
0.0354268
0.0341164
0.0330407
0.0318557
0.0309547
0.0298765
0.0290982
0.0281591
0.0274021
0.0266921
0.0258228
0.0254374
0.0243773
0.024299
0.0231503
0.023145
0.0222256
0.02191
0.0215765
0.0206913
0.0210157
0.019712
0.0203139
0.0191499
0.0193761
0.0190252
0.0182904
0.0191592
0.0174023
0.0190001
0.0174916
0.0177677
0.0191809
0.0155876
0.021443
0.0144987
0.0216391
0.016809
0.0186992
0.0220413
0.0151881
0.0270211
0.0149231
0.0288351
0.0192674
0.0269496
0.0260743
0.0238091
0.0308976
0.0227852
0.0316319
0.0234597
0.030853
0.0234667
0.0299274
0.0245298
0.0262245
0.029094
0.020288
0.0335991
0.0172537
0.0335651
0.0194692
0.0285541
0.0268678
0.0194743
0.035501
0.01375
0.0364282
0.0167401
0.0304296
0.0254882
0.0190692
0.0378487
0.370324
0.2808
0.224526
0.18626
0.158722
0.138034
0.121967
0.109147
0.0986971
0.0900203
0.0827098
0.0764663
0.0710781
0.066379
0.0622508
0.0585899
0.0553316
0.0524006
0.0497675
0.0473693
0.0451993
0.0432024
0.0413847
0.0396972
0.0381541
0.0367112
0.0353872
0.0341376
0.0329992
0.0318995
0.0309235
0.0299443
0.0291087
0.0282414
0.0275096
0.0267751
0.0260949
0.0255393
0.0248487
0.0245396
0.0237703
0.0237739
0.0228868
0.0232258
0.0223041
0.0228191
0.0221898
0.0224665
0.022683
0.0222754
0.0236656
0.0227308
0.0247057
0.0243746
0.0255931
0.0270797
0.0272152
0.0299115
0.0309284
0.0322801
0.0364695
0.03514
0.0418819
0.0400662
0.0466319
0.0475496
0.0521888
0.0568017
0.0593136
0.0664374
0.066699
0.074772
0.0725143
0.0808297
0.0756014
0.0844083
0.0772588
0.0839305
0.080843
0.0784261
0.0865659
0.0721185
0.0890701
0.0716872
0.0844729
0.0783418
0.0753621
0.0869925
0.0678788
0.0908944
0.0680309
0.0855624
0.0770209
0.0749234
0.0868697
0.0675101
0.091415
0.0664492
0.0876661
0.0755558
0.370326
0.280811
0.224538
0.186271
0.158731
0.138039
0.121969
0.109143
0.098691
0.0900081
0.0826945
0.0764457
0.0710533
0.0663506
0.0622181
0.0585545
0.0552939
0.0523619
0.0497292
0.0473348
0.0451678
0.0431835
0.0413745
0.0397109
0.0381877
0.0367895
0.0354987
0.0343267
0.0332492
0.0322703
0.0314085
0.0306062
0.0299788
0.0293505
0.0289808
0.0285579
0.0284649
0.0283396
0.0285012
0.0288778
0.0291555
0.030365
0.0305371
0.0329686
0.0329234
0.0366336
0.0367479
0.0411063
0.0425612
0.0462948
0.0505077
0.052587
0.0597053
0.0605979
0.068977
0.0710713
0.07829
0.0836037
0.0885007
0.0964528
0.0998726
0.108394
0.111902
0.119987
0.124965
0.131778
0.139784
0.143228
0.155056
0.154076
0.167212
0.16437
0.173437
0.173947
0.173822
0.181916
0.171379
0.186081
0.170848
0.183976
0.175289
0.17662
0.182161
0.169804
0.185697
0.168642
0.183106
0.173356
0.176423
0.180399
0.169943
0.18497
0.16808
0.183675
0.172047
0.177611
0.179487
0.170004
0.186104
0.166841
0.370327
0.280822
0.224547
0.186272
0.158727
0.138022
0.121945
0.109105
0.0986451
0.0899474
0.082628
0.0763686
0.0709742
0.066271
0.0621464
0.0584973
0.0552641
0.0523706
0.0497959
0.0474782
0.0454127
0.0435653
0.0419303
0.0405009
0.0392696
0.0382517
0.0374238
0.0368605
0.0365076
0.036474
0.0367255
0.0373333
0.0383427
0.0397026
0.041624
0.0438627
0.0468395
0.0500871
0.0541657
0.0586164
0.0636387
0.0694033
0.0750069
0.0823064
0.0880329
0.0968416
0.102426
0.112274
0.118197
0.127817
0.135193
0.142887
0.152469
0.157454
0.169004
0.17267
0.183966
0.188809
0.197127
0.2046
0.209008
0.218761
0.220709
0.231399
0.23334
0.243113
0.2475
0.253292
0.262217
0.261181
0.274391
0.267865
0.280873
0.274766
0.281051
0.281945
0.277228
0.287695
0.273721
0.289127
0.274546
0.284903
0.279895
0.278034
0.285613
0.273447
0.287581
0.273591
0.285024
0.27774
0.279629
0.283427
0.274562
0.286933
0.273203
0.285898
0.276588
0.28064
0.283243
0.274505
0.370325
0.280828
0.224529
0.186233
0.158663
0.137927
0.12183
0.108958
0.098495
0.0897849
0.0824978
0.076277
0.0709847
0.0664045
0.0624841
0.0590797
0.0562138
0.053756
0.0517677
0.0501526
0.0490008
0.0482654
0.048075
0.0484065
0.0493774
0.0510081
0.0533914
0.0565978
0.0606434
0.0656225
0.0715401
0.0784099
0.0860411
0.0944382
0.103462
0.112974
0.122983
0.13319
0.143859
0.154523
0.165306
0.175949
0.186224
0.196799
0.205989
0.216533
0.224315
0.234846
0.241494
0.251352
0.257874
0.265812
0.273592
0.278712
0.288169
0.291046
0.300861
0.303518
0.311237
0.315761
0.319836
0.327075
0.32802
0.337341
0.33703
0.346603
0.347389
0.353919
0.358411
0.358436
0.368132
0.3614
0.373834
0.364824
0.374258
0.369664
0.370553
0.375012
0.365855
0.378342
0.36395
0.377266
0.36662
0.372359
0.371845
0.366998
0.375964
0.364248
0.376831
0.365073
0.374239
0.369039
0.369348
0.37403
0.365098
0.376892
0.364146
0.375787
0.367619
0.370712
0.370306
0.280789
0.224404
0.186075
0.158443
0.137688
0.121604
0.108815
0.0985612
0.0901602
0.0834276
0.0779596
0.0737063
0.070394
0.0681098
0.0666787
0.0663237
0.0667875
0.0684037
0.0709792
0.0749359
0.0801505
0.0869565
0.095146
0.104971
0.116013
0.128221
0.141244
0.155043
0.16941
0.184264
0.198941
0.213208
0.22699
0.240182
0.252728
0.264681
0.275913
0.286614
0.296563
0.306095
0.315003
0.323273
0.33131
0.338117
0.345675
0.351078
0.358554
0.362847
0.369973
0.373917
0.379693
0.384304
0.387816
0.393896
0.395276
0.402286
0.40285
0.408839
0.410559
0.413839
0.418038
0.418389
0.425154
0.423668
0.431649
0.430205
0.436604
0.43779
0.439073
0.445069
0.439823
0.449916
0.440826
0.45074
0.443522
0.447865
0.447687
0.443292
0.451522
0.440049
0.452506
0.440516
0.449774
0.444261
0.445141
0.448692
0.441281
0.451421
0.439859
0.451253
0.44163
0.447939
0.446022
0.44313
0.450567
0.439587
0.452656
0.439702
0.45032
0.370196
0.280541
0.224229
0.186053
0.158712
0.138518
0.123433
0.112322
0.104421
0.0992803
0.0968416
0.0965692
0.0983709
0.102007
0.107632
0.115007
0.124346
0.135449
0.148588
0.1634
0.180318
0.198736
0.218288
0.238264
0.258311
0.277673
0.295832
0.312663
0.328131
0.342255
0.354973
0.366569
0.37709
0.386675
0.39546
0.403529
0.411057
0.417946
0.424433
0.430256
0.435712
0.440698
0.445231
0.449527
0.45301
0.457075
0.459657
0.463832
0.465665
0.469868
0.471426
0.475006
0.477182
0.47935
0.482859
0.483384
0.488071
0.487576
0.492066
0.492141
0.49484
0.496927
0.497269
0.501885
0.50029
0.506586
0.504318
0.510127
0.509347
0.511554
0.51452
0.511215
0.518426
0.510766
0.519552
0.511829
0.517654
0.514638
0.51388
0.518124
0.510363
0.520143
0.509402
0.519195
0.511552
0.51588
0.51529
0.512115
0.518603
0.509596
0.519999
0.509583
0.518471
0.512515
0.514498
0.517035
0.510129
0.520754
0.507951
0.521133
0.369475
0.281383
0.228613
0.19306
0.170706
0.155957
0.150117
0.15045
0.156552
0.167305
0.181631
0.198808
0.218419
0.239721
0.262348
0.285625
0.309398
0.333093
0.35694
0.38029
0.403306
0.423856
0.441746
0.457306
0.470499
0.482405
0.492497
0.50103
0.508342
0.514618
0.520102
0.524951
0.529229
0.533031
0.536438
0.539487
0.542317
0.544859
0.547328
0.549537
0.551746
0.553727
0.55566
0.557549
0.55905
0.560986
0.561991
0.564143
0.564661
0.567006
0.567256
0.569426
0.570098
0.571445
0.573214
0.573382
0.576292
0.575414
0.57867
0.577853
0.580156
0.58082
0.581419
0.584272
0.583091
0.587736
0.585425
0.590349
0.588469
0.591188
0.591826
0.590334
0.594692
0.589043
0.595956
0.588875
0.594996
0.590441
0.592249
0.593172
0.589074
0.595556
0.587295
0.595972
0.588005
0.594097
0.590642
0.591059
0.59376
0.588234
0.596006
0.586949
0.596075
0.588229
0.593559
0.591717
0.589593
0.595762
0.58627
0.5981
0.372191
0.315454
0.292825
0.27952
0.286381
0.295378
0.331465
0.373609
0.418618
0.463067
0.504556
0.541599
0.573477
0.599925
0.621221
0.63781
0.650545
0.660071
0.667421
0.673049
0.677645
0.681647
0.685133
0.68811
0.690606
0.692634
0.694333
0.695597
0.696475
0.697003
0.69726
0.697365
0.697342
0.697259
0.697126
0.696959
0.696812
0.696636
0.696555
0.696436
0.696462
0.696439
0.696527
0.696634
0.696613
0.696902
0.69668
0.697215
0.69674
0.697523
0.69686
0.697748
0.697328
0.697883
0.698263
0.698071
0.699382
0.69837
0.700284
0.699012
0.70071
0.700364
0.701063
0.702361
0.701675
0.704535
0.702626
0.706146
0.703907
0.706465
0.705568
0.705398
0.707217
0.703798
0.708306
0.702858
0.708093
0.703356
0.706455
0.705135
0.704067
0.707248
0.702145
0.708432
0.701795
0.707871
0.703202
0.705904
0.705553
0.703504
0.707837
0.701688
0.708963
0.701561
0.708018
0.703545
0.705294
0.706718
0.702118
0.709629
0.606742
0.839813
0.952198
0.969554
0.937537
0.881263
0.821358
0.769006
0.724419
0.688386
0.660681
0.640128
0.625398
0.614955
0.607664
0.602391
0.598511
0.595429
0.592917
0.590803
0.588978
0.587527
0.586346
0.585459
0.584758
0.5842
0.583768
0.583415
0.583085
0.582739
0.582332
0.581884
0.581385
0.580863
0.580312
0.579751
0.579191
0.578624
0.578094
0.577557
0.577086
0.576598
0.57619
0.575793
0.575437
0.575156
0.574798
0.574643
0.574239
0.574213
0.573768
0.573849
0.573459
0.573546
0.573366
0.573272
0.573423
0.573057
0.573522
0.573065
0.573641
0.57338
0.573775
0.573945
0.573865
0.574511
0.573852
0.574792
0.573776
0.574613
0.573809
0.574015
0.574008
0.57322
0.574234
0.572647
0.57425
0.572545
0.573902
0.572942
0.573246
0.573633
0.572558
0.574207
0.572233
0.574315
0.572452
0.573906
0.573089
0.573191
0.573886
0.572472
0.574491
0.572146
0.574536
0.572445
0.573917
0.57321
0.572658
0.573787
0.135352
1.97116
2.68887
2.99205
3.24107
3.28986
3.14496
2.92505
2.75292
2.56821
2.51965
2.47865
2.3263
2.14284
1.93286
1.64281
1.14377
0.577272
0.21084
0.0991977
0.044437
0.039013
0.0792187
0.00567006
0.0867495
0.329885
0.537654
0.642086
0.663794
0.639761
0.587263
0.507443
0.409681
0.311587
0.226947
0.161984
0.116072
0.0848648
0.0637005
0.0490089
0.0387239
0.0315761
0.0266301
0.0231698
0.0206672
0.0187691
0.01727
0.0160628
0.0150959
0.014341
0.0137724
0.0133531
0.0130316
0.0127534
0.0124822
0.0122131
0.0119602
0.0117427
0.011571
0.0114499
0.0113713
0.011325
0.0112981
0.0112841
0.0112757
0.0112722
0.0112694
0.0112689
0.0112676
0.011268
0.011267
0.0112677
0.0112668
0.0112677
0.0112668
0.0112677
0.0112667
0.0112678
0.0112667
0.0112678
0.0112666
0.0112678
0.0112666
0.0112679
0.0112665
0.0112679
0.0112665
0.011268
0.0112664
0.011268
0.0112664
0.0112681
0.0112663
0.0112681
0.0112662
0.011268
0.0112661
0.011268
0.0112662
0.0112693
0.504507
0.918972
1.88295
2.43287
2.76763
2.8571
2.72512
2.50883
2.35792
2.18149
2.1463
2.12748
1.98734
1.81743
1.61366
1.29918
0.783269
0.287709
0.0878436
0.0501336
0.0435084
0.0321685
0.0807761
0.0248788
0.0114194
0.214622
0.434171
0.563344
0.603583
0.589809
0.541767
0.463781
0.367934
0.2731
0.193087
0.133671
0.0933536
0.0673933
0.0506743
0.0395732
0.0320682
0.0269698
0.0234887
0.0210539
0.0192594
0.0178474
0.0166746
0.0156766
0.0148346
0.0141473
0.0136104
0.0132045
0.0128928
0.0126306
0.0123832
0.0121412
0.0119147
0.0117201
0.0115639
0.0114503
0.0113745
0.0113293
0.0113024
0.0112881
0.0112794
0.0112756
0.0112726
0.011272
0.0112706
0.011271
0.0112699
0.0112707
0.0112697
0.0112707
0.0112696
0.0112707
0.0112696
0.0112708
0.0112695
0.0112709
0.0112694
0.0112709
0.0112694
0.011271
0.0112693
0.0112711
0.0112692
0.0112711
0.0112692
0.0112712
0.0112691
0.0112712
0.011269
0.0112713
0.011269
0.0112714
0.011269
0.0112717
0.0112696
0.011274
0.57582
0.496807
0.876662
1.48518
1.987
2.19586
2.13394
1.94888
1.84594
1.69663
1.69275
1.71083
1.58526
1.44814
1.24867
0.880552
0.400941
0.0811209
0.0294025
0.0421823
0.0490115
0.0499074
0.093914
0.057791
0.00331639
0.114833
0.320972
0.469336
0.528746
0.526909
0.484621
0.409667
0.317335
0.227958
0.155341
0.104136
0.0715596
0.051892
0.0398771
0.0322141
0.027142
0.0237044
0.0213233
0.0196089
0.0182952
0.0172101
0.0162578
0.0154015
0.0146429
0.0139983
0.0134782
0.0130766
0.0127683
0.0125176
0.012292
0.0120771
0.0118764
0.0117025
0.0115604
0.0114546
0.0113816
0.0113368
0.0113092
0.0112942
0.0112847
0.0112805
0.0112769
0.0112763
0.0112745
0.0112751
0.0112738
0.0112748
0.0112735
0.0112747
0.0112734
0.0112748
0.0112733
0.0112748
0.0112732
0.0112749
0.0112732
0.011275
0.0112731
0.0112751
0.011273
0.0112752
0.0112729
0.0112753
0.0112728
0.0112754
0.0112727
0.0112755
0.0112727
0.0112756
0.0112726
0.0112759
0.0112729
0.0112767
0.0112742
0.0112804
0.505514
0.464083
0.500591
0.66865
1.03858
1.32204
1.36743
1.23712
1.20555
1.09674
1.13561
1.20386
1.09681
1.01767
0.804507
0.396071
0.102034
0.00819448
0.0248767
0.0597686
0.0613976
0.0904607
0.134189
0.110414
0.0128795
0.0413942
0.207831
0.361961
0.43846
0.449241
0.413841
0.343517
0.257299
0.177024
0.116117
0.0765324
0.0532253
0.0399426
0.0321139
0.0272061
0.023927
0.0216256
0.0199492
0.0186792
0.01766
0.0167795
0.0159699
0.0152078
0.0145041
0.0138847
0.0133707
0.0129665
0.012657
0.0124142
0.0122077
0.0120191
0.0118434
0.0116884
0.0115593
0.0114619
0.0113926
0.0113483
0.0113197
0.0113035
0.0112928
0.0112879
0.0112837
0.0112828
0.0112808
0.0112813
0.0112798
0.0112809
0.0112795
0.0112809
0.0112793
0.0112809
0.0112792
0.011281
0.0112791
0.0112811
0.011279
0.0112812
0.0112789
0.0112813
0.0112788
0.0112814
0.0112787
0.0112815
0.0112786
0.0112817
0.0112785
0.0112818
0.0112784
0.0112821
0.0112785
0.0112826
0.011279
0.0112839
0.0112811
0.0112893
0.426335
0.411347
0.414907
0.419609
0.48556
0.601034
0.655259
0.541567
0.567044
0.476762
0.522691
0.63195
0.543142
0.529417
0.287563
0.0221547
0.0299594
0.0250999
0.0397468
0.0851986
0.0938186
0.157616
0.229047
0.20237
0.0707841
0.00798334
0.109981
0.248342
0.33444
0.35673
0.328916
0.265506
0.18981
0.124846
0.080647
0.0545982
0.0401812
0.0321033
0.0273111
0.0242222
0.0220424
0.0203976
0.0191137
0.0180886
0.0172371
0.0164816
0.0157663
0.01507
0.0144047
0.0138004
0.0132854
0.0128733
0.0125578
0.0123178
0.0121257
0.0119597
0.0118076
0.0116721
0.0115579
0.0114705
0.0114058
0.0113624
0.0113327
0.0113151
0.011303
0.0112972
0.0112922
0.011291
0.0112885
0.011289
0.0112873
0.0112885
0.0112869
0.0112884
0.0112867
0.0112884
0.0112866
0.0112885
0.0112865
0.0112886
0.0112864
0.0112887
0.0112863
0.0112888
0.0112861
0.011289
0.011286
0.0112891
0.0112859
0.0112893
0.0112858
0.0112895
0.0112857
0.0112898
0.0112858
0.0112905
0.0112866
0.0112923
0.0112894
0.011299
0.345349
0.338162
0.338345
0.341451
0.319472
0.327895
0.320154
0.236741
0.250119
0.174038
0.123652
0.196275
0.0765447
0.0744732
0.0719398
0.00282098
0.0232414
0.0454322
0.0560312
0.118808
0.168857
0.272946
0.392284
0.364675
0.194368
0.0362481
0.0476505
0.144396
0.224342
0.25323
0.232709
0.180281
0.123033
0.0803789
0.0547817
0.0406281
0.0326221
0.0278187
0.0247571
0.0226318
0.0210073
0.0196853
0.0185924
0.0176906
0.0169327
0.0162576
0.0156113
0.0149675
0.0143341
0.0137411
0.0132217
0.0127975
0.0124704
0.0122261
0.0120404
0.0118913
0.0117614
0.0116473
0.0115501
0.0114738
0.0114146
0.0113728
0.0113428
0.0113241
0.0113108
0.011304
0.0112984
0.0112967
0.011294
0.0112943
0.0112925
0.0112936
0.011292
0.0112935
0.0112917
0.0112935
0.0112916
0.0112935
0.0112915
0.0112937
0.0112914
0.0112938
0.0112913
0.0112939
0.0112912
0.011294
0.0112911
0.0112941
0.0112909
0.0112943
0.0112908
0.0112945
0.0112908
0.0112948
0.011291
0.0112956
0.0112919
0.0112976
0.011295
0.011305
0.25392
0.248788
0.247426
0.258497
0.225646
0.229911
0.180766
0.159408
0.135947
0.0810807
0.10165
0.0503449
0.0157901
0.00378554
0.0167451
0.000208647
0.0362218
0.0712363
0.0946552
0.184875
0.303728
0.459993
0.616614
0.603009
0.399356
0.156539
0.0468669
0.0753909
0.131432
0.155188
0.139873
0.105017
0.0732903
0.0532311
0.0418594
0.0347429
0.0297661
0.0262513
0.0237789
0.0219578
0.0205053
0.0192834
0.0182519
0.0173976
0.0166887
0.016069
0.0154797
0.014885
0.0142839
0.0137034
0.0131797
0.0127406
0.0123965
0.0121402
0.0119525
0.0118127
0.0117012
0.0116078
0.0115272
0.0114617
0.0114087
0.01137
0.0113411
0.0113226
0.0113093
0.0113022
0.0112963
0.0112943
0.0112915
0.0112916
0.0112899
0.0112908
0.0112893
0.0112906
0.0112891
0.0112906
0.0112889
0.0112907
0.0112888
0.0112908
0.0112887
0.0112909
0.0112887
0.011291
0.0112886
0.0112911
0.0112885
0.0112912
0.0112884
0.0112913
0.0112883
0.0112915
0.0112883
0.0112918
0.0112885
0.0112924
0.0112893
0.0112943
0.0112923
0.0113014
0.155442
0.146282
0.153424
0.148972
0.141588
0.127074
0.0994104
0.081115
0.056349
0.0426945
0.032585
0.0172015
0.0147798
0.0267234
0.0202726
0.0305107
0.0792673
0.115641
0.16635
0.311545
0.505433
0.714013
0.888685
0.884557
0.665932
0.372021
0.153816
0.0770772
0.081886
0.0892914
0.0794544
0.0646214
0.0545496
0.0484773
0.0429438
0.0370041
0.0315882
0.0273869
0.024381
0.0222175
0.0205565
0.0192075
0.018102
0.0172146
0.0165069
0.015915
0.015369
0.0148191
0.0142513
0.0136855
0.0131587
0.0127044
0.0123403
0.0120666
0.0118696
0.0117307
0.0116292
0.0115502
0.0114833
0.0114279
0.0113823
0.0113484
0.011323
0.0113065
0.0112944
0.0112879
0.0112826
0.0112807
0.0112782
0.0112782
0.0112767
0.0112774
0.0112762
0.0112772
0.0112759
0.0112772
0.0112759
0.0112773
0.0112758
0.0112773
0.0112757
0.0112774
0.0112756
0.0112775
0.0112755
0.0112776
0.0112755
0.0112777
0.0112754
0.0112778
0.0112753
0.0112779
0.0112753
0.0112781
0.0112755
0.0112786
0.0112762
0.0112802
0.0112786
0.0112862
0.0670925
0.0573582
0.0662414
0.0558468
0.0594192
0.0465943
0.0335222
0.0292687
0.0109189
0.0188584
0.0163511
0.00645574
0.0275378
0.0276338
0.0301778
0.0727335
0.129633
0.184257
0.29222
0.508978
0.758753
1.00457
1.18655
1.18317
0.960544
0.638098
0.359724
0.199347
0.130112
0.0999553
0.0856216
0.0809063
0.0789214
0.0735349
0.0635446
0.0517717
0.0413199
0.0334824
0.0280951
0.0244443
0.0218633
0.0199414
0.0184827
0.0173881
0.0165716
0.0159349
0.0153814
0.0148406
0.0142823
0.0137159
0.0131759
0.0126997
0.0123113
0.012016
0.0118037
0.0116573
0.0115564
0.0114834
0.0114255
0.0113788
0.0113411
0.0113134
0.0112931
0.01128
0.0112707
0.0112656
0.0112616
0.0112601
0.0112582
0.0112582
0.011257
0.0112576
0.0112566
0.0112574
0.0112564
0.0112574
0.0112564
0.0112575
0.0112563
0.0112576
0.0112562
0.0112577
0.0112561
0.0112578
0.011256
0.0112579
0.0112559
0.011258
0.0112558
0.0112581
0.0112557
0.0112582
0.0112557
0.0112584
0.0112557
0.0112588
0.0112562
0.01126
0.0112581
0.011265
0.0184556
0.0212556
0.0254022
0.0140769
0.0288218
0.00879642
0.025074
0.0165628
0.0174372
0.0402645
0.0228829
0.0470064
0.0591778
0.054908
0.103739
0.167864
0.21991
0.314602
0.495344
0.759228
1.02638
1.28922
1.48146
1.482
1.26244
0.922408
0.604761
0.388241
0.268803
0.213389
0.190933
0.178738
0.163615
0.141626
0.11506
0.0889514
0.0671946
0.0510407
0.0398469
0.0322829
0.0271162
0.0234948
0.020929
0.0191267
0.0178627
0.0169318
0.0161637
0.0154475
0.014738
0.0140412
0.0133912
0.0128266
0.0123715
0.0120288
0.0117849
0.0116188
0.011508
0.0114329
0.0113792
0.0113393
0.0113096
0.0112887
0.0112742
0.0112652
0.0112591
0.011256
0.0112535
0.0112528
0.0112515
0.0112517
0.0112508
0.0112515
0.0112505
0.0112515
0.0112503
0.0112516
0.0112502
0.0112518
0.0112499
0.011252
0.0112497
0.0112523
0.0112495
0.0112525
0.0112492
0.0112529
0.0112488
0.0112532
0.0112485
0.0112536
0.0112482
0.011254
0.0112479
0.0112546
0.0112478
0.0112554
0.0112483
0.0112574
0.0112513
0.0112641
0.011528
0.037898
0.0158388
0.0318409
0.0298574
0.0248416
0.0506154
0.0367275
0.0671518
0.0750059
0.0718867
0.114211
0.109126
0.137824
0.221395
0.268539
0.336202
0.498858
0.734356
0.976039
1.23886
1.5084
1.69881
1.71017
1.51664
1.19141
0.86285
0.616581
0.465786
0.385242
0.340767
0.307324
0.271759
0.230888
0.187869
0.147665
0.113678
0.0871455
0.0674931
0.0532735
0.0430419
0.0357024
0.0304942
0.0268523
0.0242908
0.0223509
0.0206681
0.0190472
0.0174642
0.0159931
0.01472
0.0136951
0.0129237
0.0123756
0.0120046
0.0117627
0.0116108
0.0115179
0.0114626
0.0114298
0.0114109
0.0114009
0.0113954
0.0113937
0.0113919
0.0113928
0.0113915
0.0113931
0.0113914
0.0113935
0.0113913
0.011394
0.0113909
0.0113944
0.0113905
0.011395
0.0113898
0.0113958
0.0113889
0.0113968
0.0113878
0.011398
0.0113866
0.0113993
0.0113851
0.0114009
0.0113835
0.0114027
0.0113817
0.0114046
0.0113799
0.0114071
0.0113781
0.0114104
0.0113774
0.0114153
0.0113799
0.0114259
0.0113933
0.0114534
0.075677
0.0875014
0.0685484
0.0966203
0.0761598
0.102256
0.11023
0.116034
0.159586
0.149375
0.183154
0.21118
0.205111
0.279807