/*--------------------------------*- C++ -*----------------------------------*\
| =========                 |                                                 |
| \\      /  F ield         | OpenFOAM: The Open Source CFD Toolbox           |
|  \\    /   O peration     | Version:  v2012                                 |
|   \\  /    A nd           | Website:  www.openfoam.com                      |
|    \\/     M anipulation  |                                                 |
\*---------------------------------------------------------------------------*/
FoamFile
{
    version     2.0;
    format      ascii;
    class       volScalarField;
    location    "0.275";
    object      k.air;
}
// * * * * * * * * * * * * * * * * * * * * * * * * * * * * * * * * * * * * * //

dimensions      [0 2 -2 0 0 0 0];


internalField   nonuniform List<scalar> 
5600
(
0.606282
0.84084
0.955083
0.978179
0.949153
0.897616
0.839546
0.787272
0.743294
0.707269
0.679368
0.658335
0.643404
0.632608
0.625386
0.619985
0.616355
0.613247
0.610993
0.608764
0.607134
0.605391
0.604269
0.603065
0.602471
0.601736
0.601448
0.601034
0.600879
0.600587
0.60041
0.600054
0.599803
0.599331
0.59905
0.598511
0.59822
0.597665
0.597373
0.596847
0.596574
0.5961
0.595877
0.595454
0.595307
0.594944
0.594869
0.594563
0.594542
0.594262
0.594293
0.594049
0.594125
0.593908
0.594043
0.593855
0.594054
0.5939
0.594157
0.594047
0.594372
0.594281
0.594678
0.594604
0.595067
0.595007
0.595536
0.595485
0.596083
0.596033
0.596709
0.596649
0.597411
0.597334
0.598185
0.598087
0.59903
0.598905
0.599934
0.599784
0.600875
0.60073
0.601827
0.601754
0.602751
0.602899
0.603563
0.604286
0.604087
0.60621
0.603974
0.609267
0.602151
0.615223
0.595232
0.630159
0.571199
0.676487
0.478361
0.841393
0.371611
0.315579
0.288697
0.275615
0.275075
0.284522
0.30749
0.344835
0.387225
0.430113
0.471523
0.508933
0.54181
0.569396
0.591954
0.609747
0.623542
0.633875
0.641795
0.647718
0.652636
0.656314
0.660097
0.662932
0.665984
0.668021
0.670304
0.671746
0.673247
0.67398
0.674852
0.674996
0.675591
0.67538
0.675919
0.675553
0.676033
0.675658
0.676092
0.6758
0.676239
0.676036
0.676556
0.676407
0.677037
0.676863
0.677541
0.67732
0.677996
0.677783
0.678464
0.678257
0.679002
0.678796
0.679644
0.679446
0.680412
0.680215
0.681301
0.681084
0.68228
0.682044
0.683351
0.683067
0.684487
0.684152
0.685677
0.685281
0.686918
0.686458
0.688243
0.687682
0.689639
0.688955
0.691106
0.690273
0.692643
0.691632
0.694211
0.693015
0.695757
0.694428
0.697255
0.695916
0.698661
0.697586
0.699826
0.699671
0.700441
0.702636
0.69977
0.707563
0.696185
0.716881
0.685913
0.736347
0.658886
0.780665
0.585476
0.883774
0.369126
0.281906
0.227778
0.192919
0.168733
0.153622
0.14581
0.14341
0.147169
0.154901
0.167188
0.181815
0.199359
0.218519
0.239147
0.26063
0.282496
0.304553
0.326446
0.348237
0.369595
0.39032
0.409351
0.425482
0.439967
0.452034
0.462953
0.471924
0.479968
0.486622
0.492794
0.49771
0.502753
0.506431
0.510667
0.513469
0.517035
0.51931
0.52235
0.524329
0.527032
0.52876
0.531282
0.532734
0.535154
0.536345
0.538599
0.539582
0.54167
0.542519
0.544507
0.545241
0.547219
0.547845
0.549856
0.55039
0.552443
0.552885
0.554976
0.555308
0.557454
0.557663
0.55988
0.559947
0.562247
0.562175
0.564569
0.564357
0.566869
0.56651
0.569171
0.568657
0.571489
0.570779
0.573815
0.572857
0.576146
0.574887
0.57844
0.57686
0.580661
0.578779
0.582815
0.580677
0.584895
0.58264
0.586816
0.584793
0.58842
0.587343
0.589428
0.590782
0.589143
0.596206
0.586049
0.605651
0.577119
0.622768
0.557703
0.636669
0.370086
0.280632
0.224181
0.185935
0.158743
0.137966
0.123234
0.11105
0.103224
0.0966926
0.0938181
0.0920661
0.0931404
0.0952061
0.0995897
0.105243
0.112889
0.121888
0.132909
0.145212
0.159572
0.175061
0.192598
0.21037
0.229132
0.247345
0.265459
0.281999
0.297693
0.311793
0.325174
0.336674
0.347964
0.357312
0.366947
0.374634
0.382892
0.389456
0.396586
0.402268
0.408493
0.413247
0.418716
0.422594
0.427404
0.430457
0.434706
0.437282
0.441132
0.443378
0.446977
0.448944
0.45242
0.454137
0.457526
0.458997
0.46229
0.463533
0.466751
0.467757
0.470946
0.471727
0.474922
0.475486
0.4787
0.47907
0.482342
0.482511
0.485885
0.485831
0.489339
0.489075
0.492732
0.492206
0.496043
0.495195
0.499288
0.498072
0.50244
0.500833
0.505472
0.503471
0.508411
0.506019
0.511262
0.508566
0.513977
0.511177
0.516467
0.51395
0.518585
0.517193
0.519973
0.521495
0.520018
0.527285
0.518389
0.533662
0.518161
0.52976
0.370297
0.280726
0.224498
0.185873
0.158676
0.13735
0.121897
0.108368
0.0987604
0.0895647
0.0833216
0.0770533
0.0730839
0.0690189
0.0667722
0.0644757
0.0639486
0.0633025
0.0645835
0.0655928
0.0688965
0.0719753
0.0776067
0.083377
0.0914793
0.100144
0.110602
0.121566
0.133695
0.14606
0.159463
0.172577
0.186669
0.199167
0.212621
0.224163
0.236491
0.247028
0.258103
0.267592
0.277572
0.285895
0.29508
0.302293
0.310625
0.316785
0.324229
0.329597
0.336332
0.341076
0.347316
0.351489
0.357361
0.360988
0.366476
0.369528
0.374649
0.377245
0.382101
0.384272
0.388953
0.39076
0.395326
0.396813
0.40129
0.402504
0.40696
0.407904
0.412379
0.413029
0.417554
0.417906
0.422485
0.422511
0.427181
0.426847
0.431652
0.430883
0.435856
0.434709
0.439869
0.438344
0.443735
0.441832
0.447453
0.44529
0.450993
0.448747
0.454305
0.452259
0.457278
0.456055
0.45974
0.460336
0.461683
0.464753
0.463691
0.467881
0.467813
0.465855
0.370349
0.280717
0.224669
0.185984
0.158946
0.137558
0.122208
0.108533
0.0988779
0.0893742
0.0827969
0.075904
0.0711523
0.0660128
0.062547
0.0585236
0.0561941
0.0528811
0.0515921
0.0488681
0.0484145
0.0464676
0.0466355
0.0458255
0.0466248
0.0471318
0.0489051
0.0506873
0.0539969
0.0569759
0.0621876
0.0664718
0.073625
0.079336
0.087848
0.094957
0.104321
0.11251
0.122443
0.13121
0.141728
0.150691
0.161324
0.169964
0.180406
0.188615
0.198514
0.206191
0.215459
0.22248
0.231192
0.237492
0.245736
0.2514
0.259295
0.264398
0.27185
0.276387
0.283442
0.287398
0.294133
0.297592
0.304079
0.307117
0.313386
0.316058
0.322181
0.32449
0.330482
0.33241
0.338253
0.339754
0.345457
0.346569
0.352204
0.352923
0.358543
0.35889
0.36447
0.364527
0.370062
0.36986
0.375363
0.374954
0.380378
0.379927
0.385119
0.384811
0.389572
0.389603
0.393674
0.394412
0.397448
0.399169
0.401154
0.403419
0.405172
0.406645
0.409529
0.408842
0.370375
0.280678
0.224722
0.18599
0.159043
0.137628
0.122345
0.108679
0.0990298
0.08958
0.0829205
0.0760899
0.0711903
0.0660084
0.0623962
0.0581215
0.0556451
0.0518303
0.0502545
0.0468697
0.0457671
0.0430167
0.0420066
0.0400132
0.0390356
0.037586
0.0370214
0.0356251
0.0359645
0.034393
0.0357536
0.0343106
0.0363823
0.0356825
0.0381405
0.0385359
0.0414813
0.0429192
0.0467468
0.0489515
0.0540171
0.0570114
0.0631626
0.0669825
0.0739459
0.0786934
0.0862442
0.0916933
0.0997602
0.105584
0.114062
0.119978
0.128736
0.134655
0.143311
0.149074
0.157633
0.163174
0.171594
0.176772
0.184983
0.189783
0.19775
0.202185
0.209868
0.213934
0.221377
0.225084
0.232387
0.235808
0.242926
0.246044
0.252938
0.255718
0.262403
0.26483
0.271302
0.273464
0.279673
0.281669
0.287592
0.289457
0.295085
0.296884
0.302154
0.304036
0.308845
0.310903
0.315155
0.317427
0.321037
0.323633
0.326587
0.329429
0.331971
0.334654
0.337124
0.339411
0.34148
0.343855
0.370388
0.280659
0.224716
0.185999
0.15903
0.137678
0.122329
0.108777
0.0990114
0.0897234
0.0829103
0.0762506
0.0712137
0.0661413
0.0624614
0.0582032
0.0557056
0.0518741
0.0502089
0.0468831
0.0455194
0.0429187
0.0415085
0.0396095
0.0382216
0.0365959
0.0357258
0.0337539
0.0337854
0.0313341
0.0320216
0.0295831
0.0302786
0.0284463
0.028821
0.0275712
0.0279992
0.0268398
0.027877
0.0264821
0.0282623
0.0269224
0.0291054
0.0282644
0.0306479
0.03047
0.0332567
0.0335413
0.0369908
0.0377371
0.0419229
0.0431847
0.0479949
0.0499574
0.0553098
0.0578018
0.0636512
0.0666441
0.0730415
0.0764325
0.0831993
0.0869399
0.0939927
0.0980335
0.105233
0.109384
0.116683
0.120895
0.128103
0.132174
0.139209
0.143263
0.150188
0.15417
0.160951
0.164815
0.171352
0.175164
0.181375
0.185181
0.191045
0.194815
0.200303
0.204054
0.20911
0.212932
0.217539
0.221428
0.225588
0.229487
0.233176
0.237129
0.240395
0.244356
0.247309
0.251168
0.253696
0.257614
0.259221
0.263376
0.370382
0.280675
0.224666
0.186052
0.158948
0.137766
0.122232
0.108886
0.0989195
0.0898364
0.0828418
0.0763545
0.0711737
0.0662394
0.0624307
0.0583211
0.055649
0.052037
0.0501102
0.0470776
0.045405
0.0430923
0.0414161
0.0397146
0.038154
0.0366155
0.035629
0.0337087
0.033543
0.0312618
0.0314913
0.0294414
0.0293905
0.0280243
0.0275681
0.0265675
0.0262798
0.0249981
0.0253422
0.0236222
0.0243813
0.0227083
0.023359
0.0220912
0.0225549
0.0215216
0.0221803
0.0210372
0.0220657
0.0208861
0.022187
0.0211704
0.0225582
0.021835
0.0234629
0.0229459
0.0248499
0.0245483
0.0268544
0.0268785
0.0294578
0.0298709
0.0327671
0.0336993
0.0369619
0.0382866
0.0419092
0.0437577
0.0477166
0.0500099
0.0541421
0.056838
0.0612318
0.0643046
0.0689345
0.0723364
0.0770571
0.0808116
0.0855601
0.0896215
0.0943777
0.0986477
0.103331
0.107735
0.112244
0.116762
0.12112
0.125713
0.129892
0.134495
0.138405
0.142993
0.146699
0.151288
0.154873
0.159395
0.162676
0.167076
0.169861
0.173819
0.370362
0.280718
0.224599
0.186135
0.15884
0.13788
0.122108
0.109
0.0988205
0.0899196
0.0827865
0.0764114
0.0711342
0.0663155
0.0623521
0.0584623
0.0555051
0.052231
0.04995
0.0472472
0.0453075
0.0431836
0.0413952
0.0397582
0.0381424
0.0367007
0.0355332
0.0339025
0.0333285
0.0315473
0.0312025
0.0297267
0.0291192
0.0282083
0.0273441
0.0266454
0.0260232
0.0250358
0.0249207
0.0236623
0.0237301
0.0226555
0.0224931
0.0217834
0.0214639
0.020834
0.0207008
0.0199055
0.0199962
0.0191575
0.0192884
0.0185969
0.0186357
0.0180747
0.0181742
0.0176363
0.0178199
0.0172928
0.0175888
0.0171556
0.0174825
0.017166
0.0175299
0.0173858
0.0178783
0.017832
0.0184078
0.0185832
0.0192886
0.0197387
0.0205196
0.0212153
0.0222052
0.0231633
0.0244144
0.0256681
0.0271146
0.0287331
0.0304366
0.0324359
0.0344261
0.0368266
0.0391329
0.041909
0.0444957
0.047603
0.0505243
0.0539939
0.0572288
0.0610156
0.064431
0.0684109
0.0720116
0.0761387
0.0799743
0.0842977
0.0883044
0.0926834
0.0967237
0.100839
0.370344
0.280758
0.224553
0.186207
0.158759
0.137978
0.122012
0.109091
0.0987499
0.0899684
0.0827621
0.0764257
0.0711235
0.0663488
0.0622949
0.0585616
0.0553813
0.0523739
0.0498192
0.0473506
0.0452464
0.0432015
0.0414078
0.0397317
0.0381535
0.0367303
0.0354451
0.0340533
0.0331366
0.0317607
0.0310102
0.0298828
0.029026
0.0282624
0.0273188
0.0266913
0.0259512
0.0251699
0.0247573
0.0238705
0.0235505
0.0228446
0.0223782
0.0219239
0.0214029
0.0209905
0.0206242
0.0201322
0.0199161
0.01944
0.0192444
0.0189123
0.0186771
0.018454
0.018288
0.0181196
0.0180349
0.0179342
0.0179483
0.0179554
0.0180647
0.0181982
0.0184139
0.0187035
0.0191019
0.0195448
0.0201014
0.0207744
0.0215323
0.0224795
0.0234295
0.0246628
0.0258807
0.0274116
0.0289544
0.0308047
0.03266
0.0348525
0.0370676
0.0396127
0.0421668
0.0450807
0.0479895
0.0512204
0.0543951
0.0578576
0.0612918
0.0649953
0.0686846
0.0726194
0.0764954
0.0805745
0.0845966
0.0887763
0.0929154
0.0972127
0.101479
0.105888
0.110271
0.114712
0.370334
0.280785
0.224539
0.186248
0.158728
0.138032
0.121966
0.109144
0.0987083
0.0899979
0.0827436
0.0764265
0.0711196
0.0663448
0.0622735
0.0585838
0.0553217
0.0524228
0.0497408
0.0473914
0.0451888
0.0432016
0.0413926
0.0396913
0.0381595
0.0367033
0.0354091
0.0341017
0.0330436
0.0318626
0.0309367
0.0299649
0.0290541
0.0283145
0.0274399
0.0268131
0.026109
0.0254637
0.0249837
0.0243575
0.0239864
0.0235288
0.0231657
0.0229164
0.022632
0.022506
0.0224173
0.0223991
0.02253
0.0226931
0.0230267
0.0234691
0.0240252
0.0247651
0.0256371
0.0267038
0.0279239
0.0293781
0.0309956
0.0328814
0.0349437
0.0372847
0.0398251
0.0426455
0.0457008
0.0489682
0.0524255
0.0560866
0.0599296
0.0639707
0.0681539
0.0725428
0.0770179
0.0816986
0.086416
0.0913158
0.0961996
0.10123
0.106218
0.111303
0.116312
0.121405
0.126384
0.131359
0.136169
0.140989
0.145694
0.150404
0.155009
0.159603
0.164072
0.168497
0.17279
0.177019
0.181126
0.185205
0.189183
0.193176
0.197117
0.2011
0.37033
0.280805
0.224542
0.18627
0.158724
0.138052
0.121951
0.10916
0.0986804
0.0900063
0.0827102
0.0764181
0.0710888
0.0663167
0.0622441
0.0585455
0.0552845
0.0523899
0.0496903
0.0473756
0.0451345
0.0432041
0.0413667
0.0397085
0.0381996
0.0367686
0.035529
0.0342923
0.0332808
0.0322509
0.0314073
0.030634
0.0299254
0.029421
0.028902
0.0286327
0.0284071
0.0283679
0.0285191
0.0287899
0.0293387
0.0300514
0.0310303
0.032279
0.0337899
0.0356237
0.0377751
0.0402526
0.043104
0.0462881
0.0498763
0.0537856
0.0580022
0.0625357
0.0673624
0.0724683
0.0778262
0.0834283
0.0892128
0.0951977
0.101286
0.10751
0.113777
0.120118
0.126476
0.132746
0.138947
0.145106
0.151234
0.157289
0.163285
0.169191
0.175003
0.180732
0.186333
0.191863
0.19724
0.202547
0.207711
0.212788
0.217742
0.2226
0.227351
0.232054
0.236632
0.241146
0.245509
0.249801
0.253945
0.258007
0.261916
0.265724
0.269384
0.272935
0.27636
0.279712
0.282958
0.286182
0.289346
0.292566
0.370329
0.280821
0.224546
0.186276
0.158718
0.138036
0.121925
0.109125
0.0986271
0.0899574
0.0826284
0.0763567
0.0709966
0.0662445
0.0621728
0.0584805
0.0552684
0.0523828
0.0497702
0.0475126
0.0453762
0.043598
0.0419035
0.0405181
0.0392654
0.0382399
0.0374505
0.0368267
0.0365405
0.0364495
0.0367358
0.0373446
0.0383064
0.0397551
0.041556
0.0439442
0.0467545
0.0501666
0.0541016
0.0586366
0.0636935
0.0692571
0.0753045
0.0818092
0.088704
0.0959583
0.103483
0.111233
0.119145
0.127166
0.1353
0.143358
0.151363
0.159294
0.167129
0.174826
0.182377
0.189758
0.196954
0.203975
0.210788
0.217435
0.223877
0.230159
0.23626
0.242252
0.248119
0.253829
0.259393
0.264775
0.270011
0.275073
0.279986
0.284761
0.289379
0.293887
0.298238
0.302505
0.306633
0.310682
0.31462
0.318473
0.32223
0.325892
0.329457
0.332915
0.336236
0.339482
0.342605
0.345661
0.348603
0.351471
0.354239
0.356935
0.359551
0.362126
0.364626
0.367119
0.369579
0.372117
0.370326
0.28083
0.224526
0.186238
0.158654
0.137939
0.121813
0.108975
0.0984772
0.0897993
0.0824893
0.0762776
0.070994
0.0663888
0.0625054
0.05906
0.0562287
0.053751
0.0517617
0.0501687
0.0489766
0.0482938
0.0480432
0.0484372
0.0493558
0.0510144
0.0534039
0.0565746
0.0606715
0.0655967
0.0715608
0.0783968
0.0860305
0.0944575
0.10343
0.113021
0.122925
0.133251
0.143797
0.154578
0.165298
0.17591
0.186343
0.196525
0.206401
0.215947
0.225122
0.233954
0.242409
0.250547
0.258313
0.265848
0.273086
0.280027
0.286672
0.293021
0.299104
0.304932
0.310525
0.315919
0.321106
0.326144
0.331
0.335733
0.340302
0.34474
0.34902
0.353108
0.357048
0.360823
0.364483
0.368001
0.371414
0.374721
0.377902
0.380998
0.383976
0.386896
0.389716
0.392487
0.395185
0.397834
0.400428
0.402968
0.405457
0.407898
0.410279
0.412622
0.414895
0.417133
0.419301
0.42143
0.423504
0.425542
0.427535
0.429516
0.431449
0.433396
0.435337
0.437376
0.370307
0.28079
0.2244
0.186081
0.158434
0.137699
0.12159
0.108829
0.0985469
0.0901741
0.0834164
0.0779668
0.0737067
0.0703883
0.0681231
0.0666616
0.0663415
0.0667718
0.0684126
0.0709769
0.074928
0.0801657
0.0869355
0.0951735
0.104948
0.116029
0.128222
0.141235
0.155062
0.169388
0.184282
0.198919
0.213209
0.226994
0.240166
0.252756
0.264641
0.27596
0.286566
0.296616
0.306075
0.314985
0.323342
0.331126
0.338413
0.345248
0.351701
0.357823
0.363645
0.369197
0.374477
0.379489
0.384189
0.388635
0.392852
0.396861
0.40069
0.404351
0.407858
0.411241
0.414487
0.417646
0.420689
0.423671
0.426558
0.429387
0.432143
0.43482
0.437432
0.439952
0.442419
0.444798
0.44713
0.449382
0.45154
0.453648
0.455684
0.457693
0.459639
0.461566
0.463448
0.465308
0.467134
0.468936
0.470716
0.472477
0.474217
0.475938
0.477628
0.479301
0.480941
0.48256
0.484154
0.485729
0.487288
0.488836
0.490371
0.491912
0.493476
0.495169
0.370198
0.280541
0.224225
0.186058
0.158703
0.138528
0.123419
0.112333
0.104411
0.0992916
0.0968316
0.0965778
0.0983688
0.102007
0.107639
0.114995
0.12436
0.135432
0.1486
0.163389
0.18032
0.198742
0.218279
0.238284
0.258294
0.27769
0.295828
0.312661
0.328141
0.342235
0.354989
0.366548
0.377096
0.386675
0.395448
0.403553
0.411023
0.417989
0.42439
0.430306
0.435684
0.440694
0.445268
0.449402
0.453224
0.456771
0.460115
0.463278
0.466298
0.469199
0.47199
0.474697
0.477293
0.479799
0.482208
0.484528
0.48677
0.488934
0.491027
0.493064
0.495032
0.496965
0.498836
0.500688
0.502491
0.504278
0.506036
0.507768
0.509485
0.511157
0.51282
0.514434
0.516035
0.517607
0.519148
0.520661
0.52213
0.523586
0.524997
0.526404
0.527781
0.529143
0.530487
0.531816
0.533139
0.534448
0.535759
0.537058
0.53835
0.539634
0.540908
0.542173
0.543432
0.54468
0.545933
0.547172
0.54843
0.54967
0.550945
0.552363
0.369478
0.281382
0.228609
0.193063
0.170699
0.155964
0.150104
0.150461
0.156545
0.167313
0.181624
0.198816
0.21842
0.239721
0.262353
0.285616
0.309407
0.33308
0.356949
0.380279
0.403312
0.423859
0.441742
0.457322
0.470482
0.482422
0.492487
0.501031
0.508347
0.514602
0.520116
0.524932
0.52924
0.533028
0.53643
0.539506
0.542288
0.544897
0.547291
0.549582
0.551715
0.553735
0.555668
0.557482
0.559192
0.560789
0.562303
0.563743
0.565124
0.566471
0.567778
0.569075
0.570349
0.571616
0.572863
0.574095
0.575313
0.576511
0.577691
0.578858
0.58
0.581138
0.582251
0.583366
0.584461
0.585559
0.586652
0.587742
0.58884
0.58992
0.591022
0.592098
0.593192
0.594264
0.595334
0.596382
0.597411
0.598428
0.599424
0.600417
0.601396
0.602371
0.603338
0.604299
0.605264
0.606222
0.607192
0.608158
0.609131
0.610105
0.611083
0.612061
0.613045
0.614032
0.61502
0.616021
0.617018
0.618047
0.619071
0.620245
0.372196
0.315452
0.292821
0.279522
0.286376
0.29538
0.331454
0.373618
0.418614
0.46307
0.504552
0.541605
0.573476
0.599927
0.62122
0.637808
0.65055
0.660063
0.66743
0.673041
0.677653
0.681648
0.68513
0.688123
0.690589
0.692651
0.694318
0.695604
0.696472
0.696995
0.69727
0.697349
0.697355
0.697254
0.697122
0.696972
0.696792
0.696667
0.696527
0.696471
0.69643
0.696452
0.696522
0.696607
0.6967
0.696785
0.696867
0.696951
0.697038
0.697146
0.697268
0.697426
0.697612
0.697839
0.6981
0.698396
0.698725
0.699081
0.699462
0.699868
0.700289
0.700735
0.701189
0.701666
0.702155
0.702663
0.703191
0.703731
0.704302
0.704876
0.705485
0.706098
0.70674
0.707384
0.708047
0.708711
0.709381
0.710047
0.710715
0.711385
0.712053
0.712727
0.713404
0.714086
0.714779
0.715476
0.71619
0.716908
0.717643
0.718386
0.71914
0.719908
0.720683
0.721482
0.722269
0.723102
0.723878
0.724735
0.725519
0.726362
0.606743
0.839812
0.952201
0.969551
0.937537
0.881263
0.821357
0.769009
0.724417
0.688388
0.66068
0.640131
0.625396
0.614958
0.607661
0.602395
0.598509
0.595432
0.592916
0.590803
0.58898
0.587524
0.586346
0.585459
0.584754
0.584205
0.583761
0.58342
0.583083
0.582738
0.582335
0.581881
0.58139
0.58086
0.580314
0.579753
0.579187
0.578633
0.578084
0.577569
0.57707
0.57661
0.57618
0.575794
0.575441
0.575123
0.574829
0.574561
0.574312
0.574087
0.57388
0.573698
0.573539
0.57341
0.573306
0.57323
0.573183
0.573161
0.573169
0.573199
0.573259
0.573337
0.573444
0.573572
0.573718
0.573886
0.574074
0.574282
0.574512
0.57476
0.57503
0.575318
0.575627
0.575951
0.576295
0.576654
0.57703
0.577416
0.577816
0.578225
0.578643
0.57907
0.579506
0.57995
0.580403
0.580865
0.581338
0.581819
0.582312
0.582813
0.583324
0.583844
0.58438
0.584914
0.585482
0.586003
0.586564
0.587001
0.587293
0.587272
0.107543
2.29747
2.88239
3.08542
3.23192
3.28897
3.26917
3.20007
3.0997
2.99249
2.88423
2.78091
2.68615
2.60079
2.52362
2.45283
2.38666
2.32347
2.26134
2.2
2.13845
2.07636
2.01384
1.95124
1.88813
1.82528
1.76289
1.70186
1.6413
1.58174
1.52329
1.46652
1.41126
1.35752
1.30537
1.25461
1.2052
1.1571
1.11007
1.06402
1.01887
0.974578
0.931052
0.888333
0.846495
0.805642
0.76586
0.727364
0.690338
0.654993
0.621483
0.590035
0.560712
0.53364
0.508798
0.486207
0.465646
0.447067
0.430254
0.415044
0.40087
0.387527
0.374855
0.363079
0.351818
0.340901
0.330127
0.320256
0.311558
0.304244
0.297502
0.291436
0.286145
0.282844
0.281487
0.282225
0.283838
0.286354
0.289186
0.292505
0.295183
0.296318
0.295153
0.291141
0.285532
0.277896
0.270773
0.261993
0.255675
0.246387
0.242063
0.231465
0.229172
0.215434
0.214257
0.19571
0.194672
0.17041
0.169614
0.140318
0.35514
1.13183
2.06908
2.516
2.74909
2.84809
2.85928
2.8109
2.72829
2.63384
2.53831
2.44955
2.37149
2.30404
2.24528
2.19333
2.14605
2.10165
2.0584
2.01545
1.97168
1.92645
1.87954
1.83113
1.78091
1.72953
1.67717
1.62494
1.57215
1.51938
1.46649
1.41421
1.36288
1.31262
1.26351
1.21536
1.16823
1.12206
1.07666
1.03197
0.987943
0.944585
0.901857
0.859834
0.818649
0.778444
0.739343
0.701591
0.665409
0.63102
0.5986
0.568383
0.540442
0.514879
0.491671
0.470807
0.452043
0.43526
0.420211
0.406687
0.394121
0.38224
0.370876
0.360219
0.349948
0.339871
0.329824
0.320514
0.312294
0.305357
0.298924
0.292907
0.287309
0.283188
0.280675
0.280091
0.280563
0.282151
0.284262
0.286948
0.289123
0.289893
0.288507
0.284453
0.27887
0.271465
0.264544
0.256195
0.250164
0.241417
0.237306
0.227178
0.22496
0.211495
0.21034
0.191825
0.190888
0.166531
0.165846
0.13649
0.551128
0.546647
1.0228
1.57936
1.97695
2.18965
2.28082
2.29175
2.25706
2.19849
2.13234
2.07003
2.01384
1.96567
1.92537
1.89175
1.86282
1.83677
1.81225
1.78777
1.76213
1.73453
1.70453
1.67192
1.63656
1.59891
1.55909
1.51812
1.47573
1.43219
1.38783
1.34234
1.29659
1.25119
1.20633
1.16188
1.11799
1.07463
1.03165
0.989029
0.946792
0.904992
0.863652
0.822892
0.782911
0.7439
0.706025
0.669563
0.634782
0.601912
0.571151
0.542736
0.516752
0.493269
0.472262
0.453676
0.437243
0.422748
0.409911
0.398466
0.387856
0.37773
0.367915
0.358554
0.349412
0.340288
0.331075
0.322416
0.314743
0.308219
0.302122
0.296172
0.290281
0.28531
0.28154
0.279424
0.278455
0.278762
0.279831
0.281584
0.283003
0.283184
0.281415
0.277216
0.271619
0.264448
0.257788
0.249956
0.244322
0.23623
0.232437
0.222881
0.220788
0.207661
0.206529
0.188076
0.187218
0.162779
0.162186
0.132814
0.530762
0.495246
0.560392
0.767499
1.07055
1.34247
1.52375
1.6189
1.65673
1.65947
1.64355
1.62316
1.60094
1.58086
1.56487
1.55328
1.5447
1.538
1.53134
1.52418
1.51563
1.50498
1.49175
1.47513
1.45529
1.43246
1.40681
1.37892
1.34899
1.31666
1.28332
1.24682
1.20863
1.16982
1.13071
1.09129
1.05185
1.01238
0.97282
0.933177
0.89358
0.854152
0.814977
0.776234
0.738202
0.701122
0.665208
0.630778
0.598148
0.567548
0.5392
0.513334
0.490053
0.469382
0.451289
0.435664
0.4222
0.410563
0.400433
0.391479
0.383168
0.375067
0.367003
0.359071
0.351146
0.343033
0.334716
0.326762
0.319679
0.313575
0.307803
0.301897
0.2957
0.289842
0.284733
0.280894
0.278191
0.276832
0.276478
0.27693
0.277267
0.276568
0.274192
0.269694
0.264019
0.257074
0.250742
0.243518
0.238416
0.231099
0.227754
0.218866
0.216967
0.204233
0.203125
0.18476
0.183942
0.159441
0.15891
0.129583
0.472537
0.463326
0.45997
0.486719
0.556977
0.666862
0.788507
0.897614
0.980211
1.03757
1.07388
1.09974
1.11901
1.13531
1.15058
1.16642
1.18214
1.198
1.21187
1.22387
1.23356
1.24045
1.24409
1.244
1.24027
1.23287
1.22218
1.20828
1.19158
1.17129
1.14966
1.12397
1.09549
1.06532
1.03376
1.00101
0.967526
0.9333
0.898383
0.862858
0.826984
0.790963
0.75496
0.719225
0.684123
0.649947
0.616968
0.585546
0.556044
0.528686
0.503715
0.481347
0.461698
0.444733
0.430406
0.418525
0.408726
0.400528
0.393573
0.387461
0.381704
0.375791
0.369567
0.363079
0.356344
0.349199
0.341755
0.334494
0.327985
0.322253
0.31674
0.310803
0.304244
0.297441
0.290911
0.285184
0.280481
0.277075
0.274882
0.273609
0.272481
0.270551
0.267301
0.262315
0.25649
0.249758
0.243843
0.237324
0.232921
0.226488
0.223746
0.215601
0.21398
0.201674
0.200594
0.182334
0.181509
0.156981
0.156468
0.127282
0.410814
0.411328
0.406288
0.402105
0.403502
0.414323
0.431438
0.455753
0.48315
0.514644
0.547297
0.581833
0.617782
0.655317
0.693321
0.732253
0.770826
0.809059
0.845266
0.878768
0.908975
0.935346
0.957325
0.975106
0.988592
0.997427
1.00217
1.00244
0.999373
0.992061
0.982691
0.969516
0.953038
0.93383
0.911894
0.887802
0.862176
0.83491
0.80622
0.776331
0.745627
0.714411
0.68296
0.651594
0.620764
0.590816
0.562094
0.534992
0.509913
0.487066
0.466707
0.44903
0.434152
0.421954
0.412352
0.405039
0.39957
0.3953
0.391843
0.388747
0.385598
0.381825
0.377318
0.372091
0.36634
0.359965
0.353241
0.346557
0.340525
0.335048
0.329661
0.323561
0.316532
0.308696
0.300662
0.292909
0.285982
0.280188
0.275745
0.272307
0.269301
0.265763
0.261355
0.255678
0.249651
0.243143
0.237777
0.232075
0.228563
0.2231
0.221124
0.213756
0.212503
0.200623
0.19957
0.181419
0.180525
0.156023
0.15547
0.126556
0.343418
0.345875
0.344354
0.338839
0.330679
0.322009
0.312454
0.303458
0.294518
0.287258
0.282325
0.281316
0.285636
0.297206
0.31606
0.343066
0.377063
0.416956
0.460854
0.506459
0.551706
0.594915
0.63461
0.669848
0.700674
0.726271
0.747169
0.762491
0.774056
0.781054
0.784927
0.784923
0.781256
0.773951
0.763513
0.750297
0.734729
0.716359
0.69581
0.673467
0.649817
0.625263
0.600196
0.575004
0.550213
0.526225
0.503467
0.482345
0.463299
0.446512
0.432236
0.420616
0.411751
0.405402
0.40142
0.399332
0.398591
0.398397
0.398391
0.398105
0.397235
0.395189
0.39194
0.387501
0.38228
0.376275
0.369952
0.363603
0.357845
0.352422
0.346966
0.340521
0.332885
0.32391
0.314293
0.304419
0.295108
0.28667
0.279642
0.27365
0.268385
0.262889
0.25708
0.250566
0.244356
0.238153
0.233541
0.228784
0.22637
0.221913
0.220843
0.214215
0.213399
0.201892
0.200839
0.182796
0.181747
0.157369
0.156696
0.128249
0.263081
0.266992
0.268007
0.264857
0.257956
0.248394
0.236697
0.224057
0.211105
0.198801
0.187816
0.178789
0.172186
0.168744
0.168598
0.172554
0.18115
0.194659
0.213973
0.238791
0.269018
0.30344
0.340543
0.378428
0.416169
0.451673
0.484537
0.513257
0.53823
0.558735
0.575438
0.588112
0.596976
0.601168
0.602032
0.599573
0.594032
0.58571
0.574872
0.561824
0.547061
0.531036
0.514226
0.497067
0.480139
0.463893
0.448825
0.43533
0.423866
0.414571
0.407687
0.403259
0.40131
0.401439
0.403375
0.406462
0.410076
0.413355
0.416047
0.417736
0.418254
0.417035
0.414174
0.409716
0.40431
0.398082
0.391694
0.385325
0.379552
0.373936
0.368193
0.361237
0.352875
0.342704
0.331484
0.319466
0.307714
0.296529
0.286747
0.277972
0.270202
0.26253
0.255218
0.247876
0.241675
0.236
0.232454
0.228773
0.227634
0.224127
0.224026
0.218001
0.217612
0.206375
0.205229
0.187312
0.185989
0.161899
0.16101
0.133275
0.175642
0.179146
0.181235
0.18046
0.176802
0.170992
0.163819
0.156454
0.149912
0.144846
0.141861
0.140963
0.142045
0.144953
0.149143
0.154426
0.160652
0.167529
0.175557
0.184583
0.195468
0.208152
0.223991
0.242211
0.263026
0.285582
0.309563
0.333875
0.357854
0.380477
0.401285
0.41963
0.435026
0.447396
0.456703
0.462775
0.465631
0.466387
0.464914
0.461283
0.455859
0.449049
0.441337
0.433116
0.424989
0.417447
0.41102
0.406042
0.402928
0.401743
0.40265
0.405517
0.41021
0.416143
0.422943
0.429836
0.436241
0.441377
0.445187
0.447353
0.447849
0.44616
0.442518
0.437032
0.430604
0.423508
0.416564
0.409808
0.403723
0.397708
0.391546
0.384026
0.374938
0.363651
0.350919
0.336875
0.322793
0.308995
0.296547
0.285035
0.274778
0.26499
0.256359
0.248507
0.242806
0.238091
0.235995
0.233462
0.233646
0.230905
0.231678
0.226009
0.225885
0.21479
0.213344
0.195651
0.193872
0.170315
0.169101
0.142322
0.104544
0.108218
0.111655
0.114375
0.1165
0.11858
0.121222
0.125159
0.130783
0.138188
0.147274
0.157538
0.168518
0.179719
0.190583
0.200974
0.210696
0.21966
0.22808
0.235824
0.243172
0.250301
0.257406
0.26473
0.272733
0.281449
0.291076
0.30154
0.312754
0.32447
0.336422
0.348298
0.35932
0.36966
0.379117
0.387281
0.393831
0.398914
0.402563
0.404782
0.405775
0.405816
0.405266
0.404385
0.403718
0.403724
0.404858
0.407285
0.411289
0.416801
0.423829
0.431989
0.440972
0.450088
0.458979
0.466918
0.473501
0.478155
0.481045
0.481948
0.480917
0.477459
0.471943
0.46457
0.456481
0.448106
0.440313
0.432953
0.426427
0.420011
0.413508
0.405592
0.396001
0.383886
0.369937
0.354215
0.338195
0.322264
0.307593
0.293781
0.281461
0.270062
0.260775
0.253233
0.24887
0.245707
0.245327
0.243828
0.245122
0.242812
0.244122
0.238486
0.238267
0.227206
0.225147
0.207918
0.205424
0.182741
0.181054
0.15548
0.119144
0.123478
0.128267
0.134093
0.141426
0.150516
0.161393
0.174042
0.188039
0.20305
0.218503
0.233801
0.248312
0.261759
0.273992
0.285128
0.295131
0.30408
0.312217
0.319622
0.326502
0.332836
0.338781
0.344414
0.349935
0.355396
0.360821
0.366086
0.371272
0.37638
0.381422
0.386428
0.391246
0.395805
0.400125
0.404021
0.407475
0.410459
0.412998
0.41506
0.416768
0.418336
0.419978
0.421801
0.424279
0.427776
0.432557
0.438578
0.445933
0.454323
0.463471
0.472801
0.481979
0.490415
0.497886
0.503845
0.508129
0.510392
0.510921
0.509502
0.506149
0.500334
0.492558
0.483178
0.473494
0.463989
0.455501
0.447736
0.441024
0.434548
0.428084
0.420222
0.410604
0.398208
0.383635
0.366977
0.349904
0.332833
0.316914
0.30181
0.288442
0.276614
0.268004
0.262078
0.259928
0.258621
0.259624
0.258699
0.260486
0.258154
0.259407
0.253502
0.252705
0.241673
0.238746
0.222355
0.218832
0.197473
0.195128
0.171084
0.205183
0.209249
0.213979
0.220252
0.228642
0.239123
0.251504
0.265365
0.280123
0.295145
0.309842
0.323733
0.336585
0.348293
0.35891
0.368562
0.377429
0.38556
0.393115
0.400125
0.406758
0.41299
0.418887
0.424414
0.429607
0.434358
0.438745
0.442709
0.44626
0.449349
0.45196
0.454134
0.45586
0.457122
0.457873
0.458098
0.45803
0.457694
0.457203
0.456605
0.456131
0.456064
0.456541
0.457679
0.459953
0.463578
0.468592
0.474783
0.482016
0.489666
0.497298
0.50443
0.510882
0.516269
0.520555
0.523373
0.524736
0.524421
0.522705
0.519232
0.513943
0.506287
0.496844
0.486181
0.475681
0.465764
0.457187
0.449587
0.443205
0.437178
0.431232
0.423916
0.41477
0.402678
0.388206
0.371599
0.35466
0.337706
0.321803
0.3067
0.293656
0.283003
0.27657
0.27323
0.273328
0.273249
0.274648
0.273659
0.275212
0.272518
0.273194
0.266907
0.265261
0.254415
0.250662
0.235354
0.230703
0.21114
0.207925
0.185762
0.295883
0.299289
0.303467
0.309226
0.317001
0.326655
0.3379
0.350259
0.363155
0.375982
0.388257
0.39975
0.410399
0.420259
0.429423
0.438069
0.446225
0.454004
0.46139
0.468334
0.474886
0.480916
0.486459
0.491413
0.495747
0.499358
0.502319
0.504494
0.506002
0.506807
0.506918