/*--------------------------------*- C++ -*----------------------------------*\
| =========                 |                                                 |
| \\      /  F ield         | OpenFOAM: The Open Source CFD Toolbox           |
|  \\    /   O peration     | Version:  v2012                                 |
|   \\  /    A nd           | Website:  www.openfoam.com                      |
|    \\/     M anipulation  |                                                 |
\*---------------------------------------------------------------------------*/
FoamFile
{
    version     2.0;
    format      ascii;
    class       surfaceScalarField;
    location    "0.325";
    object      phi.air;
}
// * * * * * * * * * * * * * * * * * * * * * * * * * * * * * * * * * * * * * //

dimensions      [0 3 -1 0 0 0 0];
oriented        oriented;


internalField   nonuniform List<scalar> 
3672
(
0.0064006
7.14517e-06
0.00639136
8.99623e-06
0.00638142
9.68684e-06
0.00637056
1.06126e-05
0.0063586
1.17119e-05
0.00634559
1.27593e-05
0.00633129
1.40467e-05
0.00631578
1.52582e-05
0.00629637
1.91627e-05
2.80585e-05
0.00626806
0.00641089
4.26003e-06
0.00641309
6.79313e-06
0.00641555
7.2261e-06
0.00641823
7.93235e-06
0.00642104
8.90607e-06
0.00642399
9.8076e-06
0.00642694
1.10891e-05
0.00642967
1.25285e-05
0.00643129
1.75454e-05
2.48537e-05
0.0064345
0.00640988
2.38202e-06
0.00641223
4.44505e-06
0.00641473
4.71802e-06
0.00641752
5.14462e-06
0.00642056
5.87155e-06
0.00642375
6.60995e-06
0.00642716
7.68595e-06
0.00643042
9.26281e-06
0.0064346
1.33659e-05
1.84249e-05
0.00644103
0.00640936
1.0263e-06
0.00641175
2.05189e-06
0.00641429
2.17918e-06
0.00641704
2.39546e-06
0.00642008
2.82902e-06
0.00642335
3.34014e-06
0.00642686
4.1794e-06
0.00643058
5.54008e-06
0.00643542
8.52207e-06
1.19254e-05
0.00644192
0.00640916
-1.33129e-07
0.00641153
-3.17987e-07
0.00641408
-3.68048e-07
0.0064168
-3.30658e-07
0.00641985
-2.20073e-07
0.00642318
1.2008e-08
0.0064268
5.59743e-07
0.0064308
1.54157e-06
0.00643581
3.50706e-06
5.35648e-06
0.00644238
0.00640918
-1.30997e-06
0.00641156
-2.70308e-06
0.00641412
-2.92489e-06
0.00641686
-3.07022e-06
0.00641993
-3.29409e-06
0.00642331
-3.36794e-06
0.00642702
-3.15054e-06
0.00643117
-2.6108e-06
0.00643623
-1.55006e-06
-9.18206e-07
0.00644251
0.00640941
-2.72028e-06
0.00641185
-5.1427e-06
0.00641442
-5.49271e-06
0.00641721
-5.85951e-06
0.00642032
-6.40729e-06
0.00642374
-6.78915e-06
0.00642751
-6.92237e-06
0.00643175
-6.8458e-06
0.00643674
-6.5449e-06
-6.7483e-06
0.00644257
0.00640999
-4.70719e-06
0.0064124
-7.5559e-06
0.00641495
-8.04444e-06
0.00641781
-8.71402e-06
0.00642095
-9.55364e-06
0.0064244
-1.02353e-05
0.00642821
-1.0735e-05
0.00643249
-1.11202e-05
0.00643739
-1.14533e-05
-1.21458e-05
0.00644279
0.00641105
-7.76188e-06
0.00641334
-9.83864e-06
0.00641585
-1.05521e-05
0.00641858
-1.14513e-05
0.00642152
-1.24901e-05
0.00642469
-1.34058e-05
0.00642817
-1.42168e-05
0.00643204
-1.49858e-05
0.00643631
-1.57293e-05
-1.68101e-05
0.00644098
0.00640049
0.0063909
0.0063806
0.0063694
0.00635716
0.006344
0.00633004
0.0063153
0.00629982
0.00628326
0.00618912
0.000122524
-4.35876e-05
0.00598884
8.26134e-05
0.000117663
0.00572442
-0.000168605
0.000433026
0.00550756
-0.000541278
0.000758141
0.00535911
-0.000908012
0.00105646
0.00525264
-0.00120372
0.00131019
0.00517181
-0.00137931
0.00146014
0.00510269
-0.00142733
0.00149645
0.00503452
-0.00137462
0.00144279
0.00496659
-0.00125509
0.00132302
0.00489909
-0.00110326
0.00117076
0.00483226
-0.000945267
0.0010121
0.00476685
-0.000798287
0.000863694
0.00470307
-0.000670892
0.000734672
0.00464116
-0.000564972
0.000626879
0.00458125
-0.000478135
0.000538045
0.00452397
-0.000408595
0.000465877
0.00447023
-0.000354555
0.0004083
0.00442038
-0.000312491
0.00036234
0.00437445
-0.000278504
0.000324432
0.00433243
-0.000250422
0.000292446
0.0042945
-0.000227818
0.000265744
0.00426058
-0.000210015
0.000243935
0.00423037
-0.000195177
0.000225391
0.00420351
-0.000181972
0.00020883
0.00418003
-0.00017035
0.000193828
0.00416001
-0.000160677
0.000180701
0.00414291
-0.000152441
0.000169534
0.00412823
-0.000145006
0.000159691
0.0041156
-0.000138036
0.000150665
0.00410469
-0.000131596
0.000142503
0.00409526
-0.000125709
0.000135144
0.00408702
-0.000120322
0.000128558
0.00407972
-0.0001153
0.0001226
0.00407332
-0.000110656
0.000117056
0.00406777
-0.000106266
0.000111815
0.004063
-0.000102114
0.000106891
0.00405894
-9.82848e-05
0.000102342
0.00405555
-9.48319e-05
9.82172e-05
0.00405279
-9.1669e-05
9.44373e-05
0.0040506
-8.87457e-05
9.09294e-05
0.00404894
-8.59894e-05
8.76525e-05
0.00404769
-8.32932e-05
8.45455e-05
0.00404677
-8.06749e-05
8.15908e-05
0.00404617
-7.8255e-05
7.88554e-05
0.00404586
-7.60468e-05
7.63527e-05
0.00404583
-7.39641e-05
7.40013e-05
0.00404603
-7.19067e-05
7.16988e-05
0.00404647
-6.98877e-05
6.94562e-05
0.00404711
-6.79842e-05
6.73415e-05
0.00404796
-6.62554e-05
6.5407e-05
0.004049
-6.46636e-05
6.36191e-05
0.00405023
-6.31458e-05
6.19158e-05
0.00405163
-6.1661e-05
6.02602e-05
0.00405318
-6.02034e-05
5.86528e-05
0.00405487
-5.87964e-05
5.71132e-05
0.00405667
-5.74785e-05
5.56738e-05
0.00405859
-5.62514e-05
5.43342e-05
0.00406061
-5.50955e-05
5.30741e-05
0.00406272
-5.39693e-05
5.18548e-05
0.00406492
-5.28557e-05
5.06633e-05
0.00406718
-5.17608e-05
4.95015e-05
0.0040695
-5.0733e-05
4.84088e-05
0.00407189
-4.97727e-05
4.73868e-05
0.00407433
-4.88731e-05
4.64295e-05
0.00407682
-4.79907e-05
4.5499e-05
0.00407935
-4.71315e-05
4.45982e-05
0.00408192
-4.62898e-05
4.37215e-05
0.00408452
-4.54806e-05
4.28837e-05
0.00408714
-4.46997e-05
4.20792e-05
0.00408978
-4.39567e-05
4.13158e-05
0.00409244
-4.32376e-05
4.05799e-05
0.00409511
-4.2541e-05
3.98713e-05
0.00409778
-4.1852e-05
3.91771e-05
0.00410046
-4.11795e-05
3.85042e-05
0.00410313
-4.05175e-05
3.78477e-05
0.00410579
-3.98795e-05
3.72169e-05
0.00410844
-3.92513e-05
3.66007e-05
0.00411108
-3.86406e-05
3.60046e-05
0.00411369
-3.80294e-05
3.5413e-05
0.00411629
-3.74315e-05
3.48376e-05
0.00411886
-3.68337e-05
3.42655e-05
0.0041214
-3.62535e-05
3.37127e-05
0.00412391
-3.56726e-05
3.31612e-05
0.00412639
-3.51063e-05
3.26255e-05
0.00412884
-3.45364e-05
3.20882e-05
0.00413125
-3.3982e-05
3.15671e-05
0.00413363
-3.34273e-05
3.10474e-05
0.00413598
-3.28931e-05
3.05478e-05
0.00413829
-3.23629e-05
3.00533e-05
0.00414056
-3.18599e-05
2.95854e-05
0.0041428
-3.13643e-05
2.91251e-05
0.00414501
-3.09197e-05
2.87134e-05
0.00414718
-3.0484e-05
2.83106e-05
0.00414933
-3.01952e-05
2.80472e-05
0.00415145
-2.98773e-05
2.77542e-05
0.00415358
-3.00396e-05
2.79136e-05
0.00415568
-2.99108e-05
2.78111e-05
0.00415787
-3.1214e-05
2.90192e-05
-3.11762e-05
2.92143e-05
0.00647836
7.8656e-05
0.00651174
4.9239e-05
0.00650174
-0.000158606
0.00643629
-0.000475833
0.00632498
-0.000796695
0.00617908
-0.00105782
0.00601663
-0.00121686
0.00585462
-0.00126532
0.00570341
-0.0012234
0.00556879
-0.00112047
0.00545281
-0.00098728
0.00535425
-0.00084671
0.00527069
-0.000714725
0.0051991
-0.000599304
0.00513604
-0.000501907
0.00507827
-0.000420373
0.0050236
-0.000353921
0.0049709
-0.00030186
0.00491936
-0.000260945
0.00486821
-0.000227353
0.00481776
-0.000199979
0.00476927
-0.000179324
0.00472325
-0.000163993
0.00467958
-0.000151513
0.00463834
-0.000140725
0.00459985
-0.000131867
0.00456449
-0.000125312
0.00453227
-0.000120225
0.00450296
-0.000115687
0.00447626
-0.000111345
0.00445194
-0.000107268
0.00442984
-0.000103613
0.00440984
-0.000100323
0.00439179
-9.72501e-05
0.00437546
-9.43233e-05
0.00436067
-9.14745e-05
0.0043473
-8.87465e-05
0.00433525
-8.62412e-05
0.00432441
-8.39851e-05
0.00431464
-8.18968e-05
0.00430579
-7.99009e-05
0.00429771
-7.79097e-05
0.00429031
-7.58959e-05
0.00428357
-7.39266e-05
0.00427744
-7.21275e-05
0.0042719
-7.05073e-05
0.00426691
-6.8971e-05
0.00426241
-6.74141e-05
0.00425838
-6.5858e-05
0.0042548
-6.43986e-05
0.00425162
-6.30796e-05
0.00424882
-6.18628e-05
0.00424638
-6.07027e-05
0.00424427
-5.95483e-05
0.00424245
-5.83919e-05
0.00424091
-5.72506e-05
0.00423959
-5.6159e-05
0.00423848
-5.51401e-05
0.00423757
-5.41849e-05
0.00423684
-5.32472e-05
0.0042363
-5.23063e-05
0.00423591
-5.13756e-05
0.00423568
-5.05046e-05
0.00423559
-4.96792e-05
0.00423561
-4.88991e-05
0.00423575
-4.81277e-05
0.00423599
-4.73733e-05
0.00423633
-4.66239e-05
0.00423674
-4.58963e-05
0.00423723
-4.51853e-05
0.00423778
-4.4506e-05
0.00423838
-4.38419e-05
0.00423903
-4.31926e-05
0.00423972
-4.25407e-05
0.00424044
-4.18975e-05
0.00424118
-4.1258e-05
0.00424194
-4.0638e-05
0.00424271
-4.00226e-05
0.00424349
-3.94203e-05
0.00424427
-3.88124e-05
0.00424506
-3.82143e-05
0.00424583
-3.76123e-05
0.00424661
-3.70263e-05
0.00424737
-3.64375e-05
0.00424813
-3.58623e-05
0.00424887
-3.52815e-05
0.00424961
-3.47155e-05
0.00425033
-3.41481e-05
0.00425104
-3.3601e-05
0.00425173
-3.30572e-05
0.00425241
-3.25407e-05
0.00425308
-3.20313e-05
0.00425373
-3.15737e-05
0.00425437
-3.11252e-05
0.004255
-3.08247e-05
0.00425563
-3.05005e-05
0.00425624
-3.06511e-05
0.00425686
-3.05289e-05
0.00425752
-3.18828e-05
-3.17339e-05
0.00647001
4.96756e-05
0.00650349
1.57558e-05
0.00650081
-0.000155926
0.00644848
-0.000423503
0.00634924
-0.000697456
0.00621162
-0.000920191
0.00605284
-0.00105809
0.00589065
-0.00110313
0.00573784
-0.00107059
0.00560306
-0.000985685
0.00548897
-0.000873197
0.00539488
-0.000752612
0.00531876
-0.000638608
0.00525788
-0.000538424
0.00520864
-0.000452671
0.00516813
-0.000379858
0.00513465
-0.000320444
0.00510678
-0.000273989
0.0050825
-0.000236669
0.00505997
-0.000204822
0.00503831
-0.000178311
0.00501696
-0.000157979
0.00499535
-0.000142381
0.0049729
-0.000129061
0.00494905
-0.000116877
0.00492365
-0.000106465
0.0048969
-9.8569e-05
0.00486922
-9.25441e-05
0.00484094
-8.74043e-05
0.00481231
-8.27178e-05
0.00478369
-7.86498e-05
0.00475557
-7.54924e-05
0.00472854
-7.32883e-05
0.00470298
-7.16885e-05
0.0046789
-7.02486e-05
0.00465631
-6.88797e-05
0.00463525
-6.76907e-05
0.00461575
-6.67367e-05
0.00459772
-6.5955e-05
0.00458103
-6.52067e-05
0.00456552
-6.43902e-05
0.00455106
-6.3456e-05
0.00453761
-6.24417e-05
0.00452513
-6.14502e-05
0.00451358
-6.05787e-05
0.00450289
-5.98142e-05
0.00449297
-5.90492e-05
0.00448377
-5.82145e-05
0.00447525
-5.73396e-05
0.00446734
-5.64859e-05
0.00445997
-5.57073e-05
0.0044531
-5.49999e-05
0.00444673
-5.43282e-05
0.00444082
-5.36412e-05
0.00443536
-5.2927e-05
0.0044303
-5.21942e-05
0.00442563
-5.14844e-05
0.00442131
-5.08241e-05
0.00441733
-5.02046e-05
0.00441366
-4.95776e-05
0.00441028
-4.89276e-05
0.00440717
-4.82628e-05
0.00440427
-4.76014e-05
0.00440154
-4.69561e-05
0.00439899
-4.63449e-05
0.0043966
-4.57365e-05
0.00439436
-4.51332e-05
0.00439225
-4.45146e-05
0.00439025
-4.39029e-05
0.00438836
-4.32921e-05
0.00438656
-4.27042e-05
0.00438484
-4.21185e-05
0.00438318
-4.15372e-05
0.00438158
-4.0942e-05
0.00438003
-4.0348e-05
0.00437852
-3.97506e-05
0.00437705
-3.91678e-05
0.00437562
-3.85837e-05
0.0043742
-3.80088e-05
0.00437282
-3.74239e-05
0.00437145
-3.68472e-05
0.0043701
-3.62644e-05
0.00436877
-3.56967e-05
0.00436746
-3.51247e-05
0.00436616
-3.45658e-05
0.00436488
-3.40006e-05
0.00436362
-3.34501e-05
0.00436236
-3.28977e-05
0.00436113
-3.23657e-05
0.00435991
-3.18367e-05
0.0043587
-3.13346e-05
0.00435751
-3.08405e-05
0.00435633
-3.03961e-05
0.00435517
-2.99632e-05
0.00435402
-2.96734e-05
0.00435289
-2.93652e-05
0.00435176
-2.95209e-05
0.00435065
-2.94241e-05
0.0043495
-3.07294e-05
-3.06855e-05
0.0064645
2.71008e-05
0.00648861
-8.35571e-06
0.00648172
-0.000149034
0.00642849
-0.000370271
0.00633104
-0.000600007
0.00619799
-0.000787142
0.0060446
-0.000904696
0.00588728
-0.000945811
0.00573868
-0.00092199
0.0056066
-0.00085361
0.00549362
-0.000760211
0.00539967
-0.000658665
0.00532339
-0.000562332
0.00526194
-0.000476968
0.00521177
-0.000402502
0.00517079
-0.000338885
0.00513813
-0.000287781
0.00511215
-0.000248004
0.00509037
-0.000214892
0.00507142
-0.000185872
0.00505558
-0.000162474
0.00504307
-0.000145468
0.00503265
-0.000131956
0.00502275
-0.000119166
0.00501328
-0.000107405
0.00500486
-9.80498e-05
0.0049973
-9.10102e-05
0.00498986
-8.50966e-05
0.00498192
-7.94717e-05
0.00497312
-7.39166e-05
0.00496334
-6.88701e-05
0.00495266
-6.48083e-05
0.00494106
-6.16933e-05
0.00492844
-5.9063e-05
0.00491467
-5.6475e-05
0.0048997
-5.39132e-05
0.00488368
-5.16725e-05
0.0048669
-4.99511e-05
0.00484966
-4.87174e-05
0.00483223
-4.77744e-05
0.00481479
-4.69502e-05
0.00479752
-4.61863e-05
0.00478064
-4.55635e-05
0.00476438
-4.51939e-05
0.00474887
-4.50668e-05
0.0047341
-4.50419e-05
0.00472002
-4.49764e-05
0.00470665
-4.4841e-05
0.00469401
-4.46962e-05
0.0046821
-4.45775e-05
0.00467087
-4.44771e-05
0.00466024
-4.43716e-05
0.00465014
-4.42225e-05
0.00464052
-4.40274e-05
0.00463139
-4.37931e-05
0.00462272
-4.35275e-05
0.00461453
-4.32905e-05
0.00460678
-4.30814e-05
0.00459945
-4.28703e-05
0.00459249
-4.2621e-05
0.00458589
-4.23224e-05
0.00457961
-4.19853e-05
0.00457362
-4.16154e-05
0.0045679
-4.12307e-05
0.0045624
-4.08506e-05
0.00455712
-4.04538e-05
0.00455202
-4.00315e-05
0.00454707
-3.95683e-05
0.00454226
-3.90895e-05
0.00453756
-3.85928e-05
0.00453296
-3.81076e-05
0.00452846
-3.76118e-05
0.00452403
-3.71117e-05
0.00451968
-3.65881e-05
0.00451539
-3.60611e-05
0.00451117
-3.55251e-05
0.004507
-3.50028e-05
0.00450289
-3.44765e-05
0.00449884
-3.39571e-05
0.00449485
-3.34287e-05
0.00449091
-3.29071e-05
0.00448702
-3.23798e-05
0.00448319
-3.18661e-05
0.00447942
-3.13485e-05
0.00447569
-3.08438e-05
0.00447203
-3.03334e-05
0.00446841
-2.98382e-05
0.00446486
-2.9341e-05
0.00446136
-2.8865e-05
0.00445791
-2.83915e-05
0.00445452
-2.79448e-05
0.00445119
-2.75069e-05
0.00444791
-2.71151e-05
0.00444468
-2.67382e-05
0.0044415
-2.64908e-05
0.00443838
-2.624e-05
0.00443525
-2.63968e-05
0.00443222
-2.63885e-05
0.00442904
-2.75547e-05
-2.78751e-05
0.00645963
9.85233e-06
0.00647551
-2.42333e-05
0.00646423
-0.000137754
0.00641073
-0.000316773
0.00631603
-0.00050531
0.00618843
-0.000659538
0.00604146
-0.000757732
0.00588974
-0.00079409
0.00574511
-0.00077736
0.00561511
-0.000723607
0.00550275
-0.000647852
0.00540886
-0.000564771
0.00533225
-0.000485721
0.00526968
-0.0004144
0.00521811
-0.000350931
0.00517654
-0.000297313
0.00514387
-0.000255117
0.00511719
-0.000221321
0.00509395
-0.000191653
0.00507427
-0.000166191
0.00505899
-0.000147197
0.00504689
-0.000133367
0.0050358
-0.00012087
0.00502531
-0.000108671
0.00501649
-9.85892e-05
0.00500981
-9.13704e-05
0.00500445
-8.56437e-05
0.00499933
-7.99788e-05
0.00499412
-7.42582e-05
0.00498941
-6.92085e-05
0.00498577
-6.52292e-05
0.00498296
-6.19974e-05
0.00498036
-5.90942e-05
0.0049775
-5.62019e-05
0.00497434
-5.33156e-05
0.00497114
-5.07217e-05
0.00496799
-4.85192e-05
0.0049647
-4.66582e-05
0.00496105
-4.507e-05
0.0049568
-4.35205e-05
0.00495176
-4.19111e-05
0.0049459
-4.03292e-05
0.00493928
-3.8948e-05
0.00493199
-3.78945e-05
0.00492403
-3.71107e-05
0.00491539
-3.64036e-05
0.00490605
-3.56314e-05
0.00489603
-3.48259e-05
0.00488548
-3.41403e-05
0.00487458
-3.36804e-05
0.00486351
-3.3413e-05
0.00485238
-3.3241e-05
0.00484123
-3.30719e-05
0.00483008
-3.28747e-05
0.00481897
-3.2684e-05
0.00480801
-3.25707e-05
0.00479725
-3.25285e-05
0.00478669
-3.25171e-05
0.00477631
-3.24958e-05
0.00476614
-3.24484e-05
0.00475618
-3.23611e-05
0.00474643
-3.22387e-05
0.00473692
-3.20997e-05
0.00472763
-3.19437e-05
0.00471855
-3.17659e-05
0.00470965
-3.15567e-05
0.00470092
-3.13027e-05
0.00469235
-3.10037e-05
0.00468394
-3.06749e-05
0.00467567
-3.03185e-05
0.00466752
-2.9966e-05
0.00465951
-2.95973e-05
0.00465162
-2.92208e-05
0.00464385
-2.88192e-05
0.0046362
-2.84105e-05
0.00462867
-2.79907e-05
0.00462125
-2.75844e-05
0.00461394
-2.71727e-05
0.00460675
-2.6769e-05
0.00459968
-2.63549e-05
0.00459272
-2.59474e-05
0.00458587
-2.55333e-05
0.00457914
-2.51328e-05
0.00457252
-2.47312e-05
0.00456602
-2.43414e-05
0.00455964
-2.39486e-05
0.00455337
-2.35697e-05
0.00454722
-2.31914e-05
0.00454119
-2.28324e-05
0.00453527
-2.24775e-05
0.00452947
-2.21473e-05
0.0045238
-2.18271e-05
0.00451823
-2.15463e-05
0.00451277
-2.12855e-05
0.00450741
-2.11281e-05
0.00450217
-2.09948e-05
0.00449693
-2.11598e-05
0.00449186
-2.13207e-05
0.00448653
-2.22255e-05
-2.32471e-05
0.00645566
-3.30163e-06
0.00646519
-3.37649e-05
0.00645042
-0.000122979
0.00639697
-0.000263324
0.00630461
-0.000412948
0.00618117
-0.000536098
0.00603901
-0.000615575
0.00589157
-0.000646649
0.00575011
-0.0006359
0.00562178
-0.000595282
0.00551021
-0.000536277
0.00541666
-0.00047122
0.00533942
-0.000408484
0.00527536
-0.00035034
0.00522271
-0.000298283
0.00518089
-0.000255485
0.00514752
-0.000221751
0.00511899
-0.000192791
0.00509428
-0.000166945
0.00507484
-0.000146749
0.00506001
-0.000132367
0.00504681
-0.000120171
0.00503409
-0.000108148
0.00502321
-9.77901e-05
0.00501502
-9.03982e-05
0.00500853
-8.48774e-05
0.00500231
-7.94272e-05
0.00499598
-7.36489e-05
0.00499032
-6.85939e-05
0.00498598
-6.48701e-05
0.00498264
-6.18941e-05
0.00497963
-5.89835e-05
0.00497643
-5.58961e-05
0.0049732
-5.29747e-05
0.00497051
-5.06203e-05
0.00496847
-4.86834e-05
0.0049668
-4.68484e-05
0.00496517
-4.5025e-05
0.00496336
-4.3268e-05
0.00496152
-4.16767e-05
0.00495989
-4.02829e-05
0.00495848
-3.89164e-05
0.00495711
-3.75815e-05
0.00495564
-3.64195e-05
0.00495393
-3.5407e-05
0.00495194
-3.44148e-05
0.00494969
-3.33723e-05
0.00494717
-3.2315e-05
0.00494436
-3.13299e-05
0.00494115
-3.04646e-05
0.00493741
-2.96759e-05
0.00493307
-2.88976e-05
0.00492808
-2.80875e-05
0.00492246
-2.72554e-05
0.00491623
-2.64486e-05
0.00490938
-2.57246e-05
0.00490192
-2.5063e-05
0.00489383
-2.44273e-05
0.00488513
-2.37971e-05
0.00487587
-2.3189e-05
0.00486612
-2.26136e-05
0.00485596
-2.20771e-05
0.00484544
-2.15833e-05
0.00483463
-2.11289e-05
0.00482357
-2.07073e-05
0.00481233
-2.03141e-05
0.00480096
-1.99387e-05
0.00478954
-1.9579e-05
0.00477809
-1.9228e-05
0.00476668
-1.89045e-05
0.00475531
-1.85992e-05
0.00474403
-1.83158e-05
0.00473285
-1.80399e-05
0.0047218
-1.77663e-05
0.00471089
-1.75012e-05
0.00470013
-1.72349e-05
0.00468954
-1.69888e-05
0.00467911
-1.67425e-05
0.00466885
-1.65149e-05
0.00465878
-1.62811e-05
0.00464889
-1.60598e-05
0.0046392
-1.58396e-05
0.0046297
-1.56323e-05
0.0046204
-1.54316e-05
0.00461129
-1.524e-05
0.0046024
-1.50528e-05
0.0045937
-1.48746e-05
0.00458522
-1.47029e-05
0.00457693
-1.45434e-05
0.00456884
-1.43921e-05
0.00456095
-1.42561e-05
0.00455325
-1.41299e-05
0.00454574
-1.40309e-05
0.00453841
-1.3955e-05
0.00453122
-1.39423e-05
0.00452421
-1.39884e-05
0.00451723
-1.41739e-05
0.00451049
-1.45795e-05
0.00450335
-1.5087e-05
-1.71158e-05
0.00645273
-1.34586e-05
0.00645752
-3.85543e-05
0.00643989
-0.000105347
0.00638638
-0.000209819
0.00629583
-0.000322396
0.00617559
-0.000415856
0.00603716
-0.000477149
0.00589302
-0.000502503
0.00575376
-0.000496642
0.00562629
-0.000467817
0.00551466
-0.000424637
0.00542022
-0.000376784
0.00534088
-0.000329143
0.00527442
-0.000283886
0.00522077
-0.000244629
0.00517814
-0.000212856
0.00514213
-0.000185739
0.00511091
-0.000161569
0.00508581
-0.000141847
0.00506625
-0.000127186
0.00504903
-0.000115147
0.00503273
-0.000103868
0.00501863
-9.40531e-05
0.00500747
-8.66287e-05
0.004998
-8.09294e-05
0.00498874
-7.56153e-05
0.00497956
-7.02471e-05
0.00497134
-6.5435e-05
0.00496445
-6.16988e-05
0.00495831
-5.87304e-05
0.00495224
-5.58256e-05
0.00494596
-5.27041e-05
0.00493982
-4.97535e-05
0.00493421
-4.73661e-05
0.00492902
-4.54258e-05
0.00492394
-4.36067e-05
0.00491874
-4.16545e-05
0.00491336
-3.96409e-05
0.00490795
-3.78578e-05
0.00490266
-3.63842e-05
0.00489742
-3.50482e-05
0.00489217
-3.36664e-05
0.00488683
-3.22392e-05
0.00488132
-3.0909e-05
0.00487564
-2.97234e-05
0.00486984
-2.86207e-05
0.004864
-2.7529e-05
0.00485813
-2.64415e-05
0.00485219
-2.53941e-05
0.00484614
-2.44156e-05
0.00483995
-2.34801e-05
0.00483361
-2.25621e-05
0.00482717
-2.16485e-05
0.00482067
-2.07532e-05
0.00481411
-1.98924e-05
0.00480747
-1.90833e-05
0.0048007
-1.82895e-05
0.00479376
-1.74893e-05
0.00478665
-1.66858e-05
0.00477937
-1.59149e-05
0.00477194
-1.51827e-05
0.00476435
-1.44787e-05
0.00475655
-1.37887e-05
0.00474854
-1.31134e-05
0.00474029
-1.24597e-05
0.00473181
-1.18412e-05
0.00472314
-1.126e-05
0.00471427
-1.07143e-05
0.00470524
-1.01955e-05
0.00469605
-9.71261e-06
0.00468672
-9.26944e-06
0.00467727
-8.86568e-06
0.00466773
-8.50068e-06
0.00465813
-8.16874e-06
0.0046485
-7.86985e-06
0.00463887
-7.60186e-06
0.00462924
-7.36386e-06
0.00461966
-7.16098e-06
0.00461013
-6.98667e-06
0.00460069
-6.84056e-06
0.00459135
-6.71585e-06
0.00458212
-6.61483e-06
0.00457302
-6.53466e-06
0.00456407
-6.47676e-06
0.00455527
-6.43571e-06
0.00454662
-6.41131e-06
0.00453815
-6.39923e-06
0.00452985
-6.4011e-06
0.00452172
-6.41358e-06
0.00451376
-6.43779e-06
0.00450598
-6.47103e-06
0.00449836
-6.51295e-06
0.0044909
-6.57089e-06
0.0044836
-6.65247e-06
0.00447641
-6.75735e-06
0.00446938
-6.95085e-06
0.00446232
-7.1213e-06
0.00445547
-7.72745e-06
0.00444816
-7.77503e-06
-1.07116e-05
0.0064508
-2.14627e-05
0.00645216
-3.99198e-05
0.00643219
-8.53722e-05
0.00637824
-0.000155876
0.00628837
-0.000232521
0.0061693
-0.000296784
0.00603183
-0.000339685
0.00588779
-0.00035846
0.0057471
-0.000355951
0.00561724
-0.000337963
0.00550285
-0.000310247
0.00540387
-0.0002778
0.00531914
-0.000244417
0.00524879
-0.000213529
0.00519087
-0.00018671
0.00514145
-0.000163442
0.00509873
-0.000143012
0.00506296
-0.000125802
0.00503293
-0.000111823
0.00500603
-0.000100277
0.00498115
-9.02674e-05
0.00495898
-8.1699e-05
0.0049395
-7.45767e-05
0.00492152
-6.86441e-05
0.00490411
-6.3529e-05
0.00488742
-5.89197e-05
0.00487185
-5.46825e-05
0.00485729
-5.08726e-05
0.00484317
-4.75756e-05
0.00482914
-4.47033e-05
0.00481532
-4.2008e-05
0.00480196
-3.93412e-05
0.00478905
-3.68387e-05
0.00477635
-3.46719e-05
0.0047637
-3.27741e-05
0.00475109
-3.09945e-05
0.00473865
-2.92123e-05
0.00472646
-2.74544e-05
0.00471447
-2.58662e-05
0.00470257
-2.44885e-05
0.00469075
-2.32257e-05
0.00467906
-2.19766e-05
0.00466755
-2.0733e-05
0.00465622
-1.9577e-05
0.00464504
-1.85423e-05
0.00463401
-1.75939e-05
0.00462316
-1.66786e-05
0.00461251
-1.57852e-05
0.00460205
-1.49336e-05
0.00459178
-1.41469e-05
0.00458171
-1.34116e-05
0.00457186
-1.27084e-05
0.00456224
-1.2028e-05
0.00455286
-1.13757e-05
0.00454372
-1.07569e-05
0.00453482
-1.01792e-05
0.00452615
-9.62408e-06
0.00451774
-9.07688e-06
0.0045096
-8.54071e-06
0.00450171
-8.03349e-06
0.00449409
-7.55606e-06
0.00448671
-7.10053e-06
0.00447957
-6.65411e-06
0.00447268
-6.21903e-06
0.00446602
-5.79799e-06
0.00445958
-5.40186e-06
0.00445335
-5.02625e-06
0.0044473
-4.67162e-06
0.00444143
-4.32704e-06
0.00443572
-4.00123e-06
0.00443016
-3.70302e-06
0.00442472
-3.42699e-06
0.00441939
-3.17345e-06
0.00441416
-2.94271e-06
0.00440902
-2.72875e-06
0.00440396
-2.53743e-06
0.00439896
-2.36221e-06
0.00439401
-2.21295e-06
0.00438911
-2.08376e-06
0.00438424
-1.97412e-06
0.0043794
-1.87975e-06
0.00437459
-1.79909e-06
0.00436979
-1.73672e-06
0.004365
-1.68899e-06
0.00436022
-1.65704e-06
0.00435545
-1.63698e-06
0.00435068
-1.62955e-06
0.00434591
-1.63321e-06
0.00434115
-1.64938e-06
0.00433639
-1.67632e-06
0.00433163
-1.71379e-06
0.00432688
-1.76299e-06
0.00432213
-1.82437e-06
0.00431739
-1.91305e-06
0.00431264
-1.99967e-06
0.00430788
-2.19225e-06
0.00430301
-2.25829e-06
0.00429815
-2.86585e-06
0.00429293
-2.5577e-06
-5.63636e-06
0.00644653
-2.70128e-05
0.00644397
-3.73618e-05
0.00642001
-6.141e-05
0.00636214
-9.80094e-05
0.00626748
-0.000137856
0.00614211
-0.000171423
0.00599645
-0.000194017
0.00584204
-0.000204052
0.00568918
-0.000203087
0.00554505
-0.000193841
0.00541369
-0.000178885
0.00529701
-0.000161122
0.00519563
-0.000143035
0.00510808
-0.000125975
0.00503184
-0.000110473
0.00496516
-9.67568e-05
0.00490707
-8.49237e-05
0.00485612
-7.48537e-05
0.00481045
-6.61585e-05
0.00476876
-5.85867e-05
0.00473067
-5.21728e-05
0.00469609
-4.71207e-05
0.00466427
-4.27532e-05
0.00463445
-3.88215e-05
0.00460633
-3.54168e-05
0.00457993
-3.25154e-05
0.00455514
-2.989e-05
0.00453166
-2.73972e-05
0.00450922
-2.51316e-05
0.00448768
-2.31706e-05
0.0044671
-2.14223e-05
0.00444748
-1.97263e-05
0.00442875
-1.81084e-05
0.00441075
-1.66683e-05
0.00439339
-1.54127e-05
0.00437667
-1.42798e-05
0.00436065
-1.31896e-05
0.00434532
-1.21279e-05
0.00433062
-1.11586e-05
0.00431644
-1.03143e-05
0.00430278
-9.55938e-06
0.00428964
-8.84107e-06
0.00427705
-8.14127e-06
0.00426497
-7.49433e-06
0.00425335
-6.92085e-06
0.00424216
-6.40685e-06
0.0042314
-5.92279e-06
0.00422108
-5.458e-06
0.00421117
-5.02358e-06
0.00420165
-4.63091e-06
0.00419251
-4.27225e-06
0.00418374
-3.93759e-06
0.00417533
-3.62168e-06
0.00416728
-3.32555e-06
0.00415958
-3.0507e-06
0.0041522
-2.80151e-06
0.00414515
-2.57047e-06
0.00413842
-2.34931e-06
0.00413201
-2.13652e-06
0.00412592
-1.9403e-06
0.00412012
-1.76014e-06
0.00411462
-1.59354e-06
0.0041094
-1.43249e-06
0.00410445
-1.27828e-06
0.00409979
-1.12935e-06
0.00409538
-9.9152e-07
0.00409121
-8.59313e-07
0.00408727
-7.34914e-07
0.00408355
-6.09233e-07
0.00408004
-4.83659e-07
0.00407672
-3.81468e-07
0.00407357
-2.76807e-07
0.00407057
-1.78785e-07
0.00406771
-8.72846e-08
0.00406499
9.44264e-10
0.00406237
8.17238e-08
0.00405985
1.58428e-07
0.00405741
2.21747e-07
0.00405505
2.7678e-07
0.00405275
3.22148e-07
0.00405051
3.60913e-07
0.00404832
3.95355e-07
0.00404616
4.19385e-07
0.00404404
4.35922e-07
0.00404194
4.45674e-07
0.00403985
4.50058e-07
0.00403777
4.51126e-07
0.00403569
4.48822e-07
0.0040336
4.38981e-07
0.00403149
4.26214e-07
0.00402938
4.04342e-07
0.00402723
3.78664e-07
0.00402507
3.38808e-07
0.00402287
2.88419e-07
0.00402062
2.4944e-07
0.0040183
1.26028e-07
0.00401589
1.51017e-07
0.00401334
-3.11508e-07
0.00401062
1.59999e-07
-2.32775e-06
0.00625665
0.00621968
0.00615866
0.00606105
0.00592359
0.00575257
0.00555895
0.00535531
0.00515263
0.0049592
0.00478074
0.00462004
0.00447743
0.00435188
0.00424184
0.00414552
0.00406103
0.00398661
0.00392089
0.00386275
0.00381102
0.00376434
0.00372203
0.00368366
0.00364869
0.00361662
0.00358718
0.00356023
0.00353554
0.00351282
0.00349185
0.00347258
0.00345492
0.0034387
0.00342374
0.00340991
0.00339718
0.0033855
0.0033748
0.00336494
0.00335583
0.00334744
0.00333976
0.00333272
0.00332625
0.0033203
0.00331483
0.00330982
0.00330526
0.00330108
0.00329726
0.00329378
0.00329061
0.00328774
0.00328515
0.0032828
0.00328069
0.00327879
0.00327711
0.00327562
0.00327432
0.00327318
0.0032722
0.00327138
0.00327071
0.00327017
0.00326977
0.00326949
0.00326933
0.0032693
0.00326938
0.00326956
0.00326983
0.0032702
0.00327066
0.00327119
0.00327181
0.00327248
0.00327322
0.00327399
0.00327481
0.00327566
0.00327653
0.00327742
0.00327832
0.00327923
0.00328013
0.00328104
0.00328193
0.00328281
0.00328367
0.0032845
0.0032853
0.00328604
0.00328674
0.00328733
0.00328793
0.00328807
0.00328869
-0.000831931
0.000788343
-0.00121946
0.000387527
-0.00139906
0.000179604
-0.00140205
2.98392e-06
-0.00126096
-0.00014109
-0.000964944
-0.000296012
-0.000524487
-0.000440457
-0.000525013
-0.000754951
0.00166096
-0.00111808
0.000750658
-0.00122824
0.000289766
-0.00120009
-2.51742e-05
-0.00105429
-0.000286883
-0.00080876
-0.000541545
-0.000456447
-0.000792769
-0.000981964
-0.000156196
0.00225018
-0.000557935
0.0011524
-0.000717708
0.000449539
-0.000731038
-1.18447e-05
-0.000650844
-0.000367076
-0.000507296
-0.000685094
-0.000303369
-0.000996696
-0.00128582
0.000429658
0.00257866
9.6957e-05
0.0014851
-0.000111094
0.000657591
-0.000205854
8.29144e-05
-0.000222049
-0.000350881
-0.000187708
-0.000719434
-0.000121698
-0.00106271
-0.00140799
0.000870299
0.00276483
0.000617314
0.00173808
0.000395234
0.000879672
0.000239666
0.000238482
0.000137926
-0.000249141
7.01144e-05
-0.000651623
2.21306e-05
-0.00101472
-0.00138632
0.00119707
0.00287795
0.000996734
0.00193841
0.000781884
0.00109452
0.000592636
0.00042773
0.000428774
-8.52788e-05
0.000279855
-0.000502703
0.000137295
-0.000872162
-0.00124949
0.00139124
0.00294685
0.00123794
0.00209171
0.00104153
0.00129093
0.000835829
0.000633432
0.000631629
0.000118921
0.000426455
-0.000297529
0.00021594
-0.000661647
-0.00103402
0.0014507
0.0029926
0.00133263
0.00220978
0.00116188
0.00146168
0.000958581
0.000836734
0.000737564
0.000339937
0.000503689
-6.3654e-05
0.00025704
-0.000414998
-0.00077745
0.00141289
0.0030225
0.00131812
0.00230455
0.00116836
0.00161144
0.000977278
0.00102782
0.000758586
0.000558629
0.000520546
0.000174386
0.00026633
-0.000160782
-0.000511605
0.00130655
0.00303897
0.00123228
0.00237882
0.00110356
0.00174016
0.000929917
0.00120146
0.000724746
0.000763799
0.000497968
0.000401165
0.000254457
8.27284e-05
-0.000257644
0.00116672
0.00304301
0.0011108
0.00243473
0.00100166
0.0018493
0.000848483
0.00135464
0.000663897
0.000948385
0.000457037
0.000608025
0.000233455
0.00030631
-2.46959e-05
0.00101861
0.00303649
0.000977976
0.00247537
0.000885849
0.00194142
0.000752836
0.00148766
0.000590901
0.00111032
0.000407653
0.000791272
0.00020924
0.000504723
0.000184033
0.000877612
0.00302257
0.000848784
0.0025042
0.000771926
0.00201828
0.000657307
0.00160227
0.000516209
0.00125142
0.000355681
0.0009518
0.000181735
0.000678669
0.000365261
0.000753028
0.00300422
0.000732721
0.00252451
0.000668633
0.00208237
0.000570236
0.00170067
0.000448003
0.00137365
0.000308452
0.00109135
0.000157205
0.000829916
0.000521965
0.000647318
0.00298378
0.00063245
0.00253937
0.000578834
0.00213599
0.00049484
0.00178466
0.000389222
0.00147927
0.000268044
0.00121253
0.000136509
0.000961451
0.000657976
0.000558412
0.00296341
0.000546261
0.00255152
0.000501127
0.00218112
0.000430013
0.00185578
0.000339103
0.00157018
0.000233893
0.00131774
0.000119045
0.0010763
0.000776526
0.000484653
0.00294463
0.000473866
0.00256231
0.000435189
0.0022198
0.000374404
0.00191656
0.000295959
0.00164862
0.000204485
0.00140921
0.000103781
0.001177
0.000879815
0.000424798
0.00292814
0.000414721
0.00257239
0.000380759
0.00225376
0.000327797
0.00196953
0.000259425
0.001717
0.000179425
0.00148921
9.08319e-05
0.0012656
0.000970157
0.000376445
0.00291403
0.0003667
0.00258213
0.000336258
0.0022842
0.000289358
0.00201643
0.000229039
0.00177732
0.000158459
0.00155979
8.0237e-05
0.00134382
0.00104991
0.000336355
0.00290211
0.000326851