/*--------------------------------*- C++ -*----------------------------------*\
| =========                 |                                                 |
| \\      /  F ield         | OpenFOAM: The Open Source CFD Toolbox           |
|  \\    /   O peration     | Version:  v2012                                 |
|   \\  /    A nd           | Website:  www.openfoam.com                      |
|    \\/     M anipulation  |                                                 |
\*---------------------------------------------------------------------------*/
FoamFile
{
    version     2.0;
    format      ascii;
    class       volScalarField;
    location    "0.078";
    object      omega.air;
}
// * * * * * * * * * * * * * * * * * * * * * * * * * * * * * * * * * * * * * //

dimensions      [0 0 -1 0 0 0 0];


internalField   nonuniform List<scalar> 
5600
(
6771.82
9483.93
11876.7
13295.6
13892.6
13968.9
13768.2
13435.7
13075.6
12743.4
12450.2
12201.9
12011.2
11869.7
11782.9
11728.5
11712.9
11706.2
11721.3
11729.6
11749.1
11755.7
11770.3
11773.3
11782.4
11785.7
11790.9
11797
11798.8
11806.3
11807.4
11812.6
11815.4
11814.4
11820.7
11812.3
11822.4
11808.9
11819.7
11806.8
11812.6
11806.9
11803.1
11807.3
11795
11805.5
11791.9
11799.3
11794.8
11789.2
11801.1
11779.2
11805.2
11775.2
11802.1
11780.9
11790.1
11794.6
11775
11808.1
11766.1
11812.2
11771
11804
11788.4
11789.7
11806.4
11782.2
11812.8
11790.7
11805.1
11811.2
11792.3
11829.9
11788.7
11835.7
11800.1
11829.6
11819.2
11822.6
11833.1
11824.8
11834.4
11836
11829.8
11840.7
11838.4
11822.4
11864.9
11798.4
11869.5
11823.2
11805.3
11914.4
11697.5
12022.3
11538.1
12311.7
10730.4
13682.9
2506.87
2658.99
3499.59
4408.89
5080.13
5503.37
5763.15
5919.18
5998.64
6001.14
6088.17
6225.3
6348.45
6441.96
6480.26
6481.7
6434.88
6367.52
6274.25
6171.8
6066.15
5959.59
5863.29
5770.18
5685.82
5605.14
5527.61
5459.06
5392.76
5335.95
5282.47
5234.05
5191.85
5150.66
5116.94
5083.45
5056.19
5029.21
5006.99
4985.47
4966.26
4949.69
4932.6
4919.15
4905.42
4893.82
4882.18
4871.42
4862.24
4851.47
4844.38
4833.95
4828.97
4818.79
4814.75
4807.04
4801.26
4796.63
4789.77
4787.95
4779.63
4780.37
4772.2
4771.82
4766.78
4764.62
4762.24
4758.27
4757.88
4753.38
4752.68
4750.08
4747.91
4747.9
4742.77
4745.18
4739.67
4741.41
4738.33
4738.39
4737.49
4737.12
4736.89
4737.43
4735.86
4738.06
4735.15
4737.72
4735.17
4736.78
4732.05
4744.59
4714.01
4771.24
4669.99
4840.76
4550.1
5043.34
4159.04
5666.44
2557.37
2210.63
2001.04
1890.08
1866.06
1938.48
2042.09
2170.36
2319.36
2457.21
2597.73
2767.2
2933.58
3113.38
3261.65
3405.05
3501.65
3587.14
3625.07
3650.52
3633.06
3602.6
3538.18
3465.45
3386.93
3319.12
3262.8
3213.91
3167.87
3126.81
3088.78
3054.51
3024.98
2993.53
2966.52
2938.33
2915.46
2890.07
2870.15
2848.61
2829.82
2812.7
2795.26
2781.75
2765.81
2755.12
2741.29
2731.15
2721.01
2709.71
2703.77
2690.93
2688.49
2675.35
2673.5
2663.65
2658.5
2654.63
2644.54
2646.92
2633.37
2638.34
2626.3
2627.99
2622.05
2617.84
2618.29
2609.91
2612.4
2605.59
2604.41
2603.72
2596.32
2601.72
2590.27
2597.15
2587.65
2590.9
2586.94
2585.4
2585.76
2583.45
2582.95
2584.46
2580.08
2584.5
2580.8
2580.52
2584.09
2578.94
2577.68
2594.16
2550.01
2628.89
2508.67
2673.06
2451.97
2749.57
2337.86
2869.03
2552.81
2195.1
1926.89
1721.7
1561.84
1441.7
1349.37
1283.41
1231.77
1206.58
1183.71
1202.34
1221.44
1285.65
1341.94
1446.9
1531.32
1660.29
1754.97
1883
1972.72
2073.8
2142.47
2200.73
2243.69
2268.21
2291.14
2294.05
2295
2279.77
2256.72
2232.21
2196.3
2175.87
2146.62
2128.56
2105.47
2086.1
2067.84
2048.32
2032.77
2015.96
2001.89
1988.42
1973.46
1961.68
1946.9
1935.31
1922.94
1910.55
1902.26
1888.25
1883.6
1869.69
1865.24
1854.74
1847.66
1842.83
1831.23
1832.25
1818.05
1820.48
1808.79
1807.78
1802
1795
1794.59
1784.92
1785.07
1778.61
1774.21
1774.53
1763.94
1769.63
1756.83
1762.16
1753.02
1753.69
1750.4
1747.05
1746.73
1744.12
1741.63
1743.57
1738.07
1740.97
1739.49
1735.02
1742.2
1734.49
1733.8
1749.3
1711.94
1769.39
1697.51
1772.42
1701.7
1763.57
1706.5
1743.34
2551.14
2191.61
1920.29
1709.31
1540.05
1403.22
1288.37
1194.91
1112.06
1047.1
984.323
940.63
892.214
866.916
830.025
821.78
798.42
805.379
806.986
830.221
859.995
897.485
957.587
1004.35
1088.33
1141.53
1233.59
1295.75
1372.26
1441.44
1480.95
1547.56
1551.86
1607.03
1598.18
1633.67
1624.31
1634.91
1632.29
1619.84
1621.49
1596.72
1596.19
1575.23
1566.78
1556.87
1541.21
1537.95
1519.46
1516.08
1502.55
1493.29
1487.67
1474.11
1471.6
1459.61
1455.23
1447.84
1437.91
1436.7
1423.17
1423.65
1411.99
1409.24
1402.99
1394.11
1392.46
1382.21
1379.98
1374.35
1367.1
1367.98
1355.62
1360.01
1347.72
1350
1342.33
1339.91
1337.08
1332.38
1330.44
1327.95
1323.31
1324.4
1319.37
1318.39
1320.55
1311.45
1321.05
1312.25
1311.54
1324.02
1298.49
1329.2
1303.21
1313.11
1323.53
1296.02
1327.31
1301.16
2550.75
2190.45
1918.76
1706.82
1537.33
1398.46
1283.22
1185.34
1102.35
1029.51
967.509
910.737
863.71
817.321
782.367
741.994
718.471
680.362
669.111
631.191
632.348
595.242
606.508
576.028
590.883
580.051
590.296
612.1
612.018
673.82
665.519
756.672
753.095
847.739
862.708
939.868
977.513
1022.06
1086.12
1084.9
1168.93
1147.84
1203.71
1194.37
1209.51
1231.31
1212.8
1255.97
1219.49
1259.18
1227.79
1243.29
1235.36
1219.1
1234.59
1201.12
1220.35
1194.64
1200.68
1191.77
1181.76
1185.38
1169.58
1172.56
1162.88
1157.33
1155.61
1146.54
1144.4
1140.56
1132.49
1134.66
1122.83
1126.46
1116.13
1116.03
1110.75
1106.02
1103.97
1098.72
1095.36
1093.25
1087.18
1086.63
1083.46
1077.52
1083.99
1070.8
1081.12
1074.09
1070.38
1082.8
1064.82
1078.49
1077.71
1060.53
1091.41
1058.69
1077.3
1081.29
2550.65
2189.98
1918.33
1705.86
1536.77
1396.87
1282.71
1182.78
1102.02
1025.45
967.396
904.588
863.586
808.586
781.239
730.608
713.994
666.801
657.034
615.243
606.603
574.889
560.369
544.064
518.517
519.204
484.485
495.355
463.118
469.553
456.294
444.848
460.351
429.764
470.894
435.078
489.953
461.585
523.156
509.132
567.761
577.133
619.145
656.967
670.507
743.3
722.819
811.41
793.57
866.841
858.953
888.516
926.8
898.268
979.65
917.738
989.247
941.797
983.579
974.417
959.63
990.91
958.516
989.683
970.068
979.926
981.689
971.567
979.173
967.179
966.372
965.632
956.622
959.98
952.625
951.688
950.58
944.815
945.645
940.564
937.801
936.615
930.994
929.306
929.561
919.437
930.228
915.516
924.038
922.495
913.587
928.168
914.394
919.154
928.602
906.481
933.304
913.88
916.321
931.925
2550.59
2189.82
1918.09
1705.53
1536.42
1396.4
1282.29
1182.18
1101.54
1024.72
966.793
903.83
862.65
808.091
779.455
730.991
710.484
668.894
650.831
619.45
597.485
579.956
550.098
545.967
511.316
511.454
485.114
471.601
472.466
427.157
467.116
386.803
456.544
362.808
431.349
360.066
392.269
375.144
346.837
394.498
314.932
394.474
313.727
382.218
348.456
362.429
395.224
348.209
431.235
358.493
455.426
405.73
479.398
462.857
507.815
530.181
541.765
584.764
584.23
633.726
608.546
682.525
656.262
705.224
708.549
717.609
748.302
741.673
768.589
765.9
770.675
787.084
779.35
793.533
789.917
792.765
801.365
796.131
805.823
801.032
803.135
804.569
801.07
802.35
804.794
794.586
808.146
792.714
800.972
801.46
790.411
805.485
793.621
794.859
806.768
786.471
807.198
795.147
795.129
805.074
2550.55
2189.79
1917.89
1705.53
1536.03
1396.54
1281.59
1182.63
1100.32
1025.74
964.831
905.652
859.726
810.864
775.556
734.54
706.037
672.467
646.905
621.636
595.701
579.057
551.917
541.097
516.622
504.067
490.716
466.287
472.307
430.345
455.402
402.659
432.467
388.622
399.98
387.51
360.975
392.404
324.925
389.453
308.626
362.841
321.841
312.415
355.52
254.413
384.778
220.384
375.013
231.883
326.68
287.647
247.338
365.578
176.22
397.109
174.605
377.491
231.762
319.289
337.937
281.785
387.203
292.416
397.905
343.7
379.1
405.682
383.265
457.098
416.088
485.742
465.012
501.997
509.787
520.53
544.511
548.207
569.676
577.318
590.021
602.263
613.321
619.181
638.812
631.032
654.197
647.012
654.659
663.906
653.961
667.943
664.12
660.537
674.426
659.781
671.725
667.229
667.749
666.673
2550.52
2189.8
1917.78
1705.57
1535.79
1396.69
1281.15
1183
1099.56
1026.47
963.614
906.854
858.004
812.5
773.494
736.276
704.16
673.586
646.074
621.233
596.703
576.695
554.592
537.769
518.981
502.69
489.146
470.635
463.659
442.119
440.225
418.522
416.569
400.63
391.905
387.362
367.722
375.611
347.599
360.783
335.844
339.14
333.427
312.242
334.953
288.258
330.54
277.74
311.551
284.357
279.372
301.404
242.965
316.494
219.71
310.64
224.57
281.278
249.367
239.347
283.423
205.07
288.34
212.783
259.606
243.501
228.993
263.181
215.638
264.268
233.4
252.766
249.272
253.451
259.241
272.515
257.945
291.364
261.622
305.373
284.308
309.209
319.937
309.924
350.321
325.38
362.823
356.527
364.762
385.235
371.901
396.451
387.063
397.021
397.163
399.15
400.427
399.026
403.479
396.286
2550.51
2189.81
1917.76
1705.6
1535.75
1396.76
1281.06
1183.15
1099.39
1026.71
963.332
907.211
857.614
812.937
773.074
736.666
703.886
673.71
646.183
620.879
597.325
575.885
555.483
537.012
519.365
502.963
487.982
472.831
460.449
446.098
435.869
422.553
413.384
402.093
392.368
384.408
372.736
368.643
355.193
353.266
340.976
336.787
330.608
319.336
322.467
303.4
313.123
292.234
299.857
286.835
283.464
284.488
267.764
281.175
256.156
274.797
249.04
266.137
245.236
256.183
244.966
244.864
248.94
232.449
254.561
225.343
253.449
231.375
243.997
248.582
233.076
265.701
236.43
270.977
258.932
265.506
292.034
264.746
317.681
282.713
326.587
320.995
328.894
362.8
342.413
389.264
372.297
398.429
406.58
401.383
430.297
408.74
437.283
423.441
431.865
438.453
425.328
445.271
426.337
440.743
2550.52
2189.86
1917.83
1705.69
1535.84
1396.88
1281.16
1183.29
1099.5
1026.88
963.441
907.404
857.732
813.133
773.226
736.826
704.117
673.788
646.535
620.853
597.783
575.823
555.915
537.121
519.511
503.521
487.616
473.945
459.696
447.357
435.488
422.915
414.629
400.369
396.177
380.347
378.568
363.976
360.411
351.686
341.775
342.129
324.726
332.539
312.109
320.698
305.32
306.831
303.301
293.57
303.487
284.815
303.229
284.397
301.385
293.803
299.731
311.32
303.549
332.595
318.095
354.001
345.076
375.23
381.22
398.85
421.018
426.83
460.413
460.063
495.798
498.784
524.701
540.669
547.287
579.473
569.379
608.218
597.257
623.873
629.991
631.526
658.299
641.445
671.766
659.743
669.518
680.429
664.46
690.707
670.305
685.717
685.237
675.016
696.267
673.854
692.129
685.596
681.493
694.981
2550.55
2189.94
1917.95
1705.85
1536.03
1397.1
1281.39
1183.55
1099.77
1027.17
963.746
907.725
858.076
813.471
773.626
737.162
704.603
674.098
647.143
621.123
598.542
576.083
556.797
537.51
520.378
504.356
488.214
475.688
459.805
450.418
435.312
427.275
415.326
405.313
400.119
384.862
388.73
368.208
379.099
358.784
369.926
358.998
363.301
368.133
364.576
383.921
378.966
405.628
408.025
434.258
448.846
471.302
496.313
515.662
546.685
563.429
597.866
611.356
646.69
657.561
688.838
701.656
722.197
740.994
748.603
771.398
771.463
790.419
792.154
799.625
808.325
805.037
817.527
810.996
819.27
818.744
816.571
824.823
814.343
824.937
815.74
818.205
819.016
809.705
818.908
806.302
812.791
809.255
804.89
812.55
802.259
811.217
805.635
806.538
810.649
803.653
811.568
806.025
808.693
810.193
2550.6
2190.11
1918.19
1706.18
1536.4
1397.55
1281.87
1184.11
1100.35
1027.85
964.428
908.538
858.88
814.469
774.59
738.418
705.801
675.721
648.737
623.28
600.865
579.007
560.456
541.593
526.337
510.487
497.941
485.754
475.343
468.101
459.698
458.916
453.571
460.853
461.159
476.936
486.109
509.654
530.087
558.471
590.595
619.796
660.664
688.785
733.357
760.502
801.637
828.537
861.317
887.425
909.68
933.522
945.808
965.092
971.273
983.564
989.332
993.743
1000.94
998.629
1006.12
1001.04
1005.11
1001.68
999.912
999.706
993.126
994.164
986.961
985.203
981.534
975.992
975.851
968.46
968.801
963.457
960.412
959.366
952.248
953.664
946.065
945.329
942.198
936.89
938.723
931.83
934.307
930.972
930.128
931.555
927.733
931.44
927.952
929.776
929.691
928.055
930.756
928.108
930.266
929.756
2550.73
2190.51
1918.77
1706.95
1537.31
1398.68
1283.13
1185.71
1102.12
1030.15
967.022
911.923
862.739
819.554
780.436
746.203
714.846
687.955
663.399
643.151
625.126
611.496
600.778
594.401
593.326
597.208
609.319
625.872
654.199
685.397
728.682
772.356
823.694
876.12
928.082
984.47
1029.05
1082.2
1115.9
1158.05
1181.51
1208.01
1224.7
1238.64
1251.38
1256.22
1264.55
1263.67
1266.63
1263.04
1260.42
1255.82
1248.96
1244.02
1235.36
1230.31
1223.18
1217.19
1211.86
1204.7
1200.6
1193.22
1188.7
1182.82
1176.88
1172.82
1166.14
1162.87
1156.89
1153.14
1148.69
1143.36
1140.33
1134.18
1131.59
1126.08
1122.35
1118.71
1113.25
1111.19
1105.16
1103.21
1098.93
1095.66
1094.2
1089.99
1090.28
1087.01
1086.97
1086.03
1084.63
1085.74
1083.62
1085.07
1083.76
1084
1084.38
1083.32
1084.78
1083.92
2551.15
2191.6
1920.45
1709.22
1540.48
1402.93
1289.41
1194.39
1114.2
1046.4
988.219
940.123
899.142
867.128
841.196
824.811
814.586
817.829
829.39
855.137
889.713
938.572
994.423
1061.52
1132.25
1209.31
1286.51
1362.58
1433.58
1493.26
1544.25
1580.81
1611.48
1632.54
1648.28
1657.5
1660.61
1660.79
1653.7
1646.72
1633.27
1621.34
1607.65
1596.01
1584.59
1573.14
1562.68
1551.31
1541.18
1530.8
1520.68
1511.59
1502.46
1494.38
1486.45
1478.77
1471.05
1463.22
1456.24
1448.55
1442.03
1434.8
1428.4
1422.15
1415.4
1410.22
1403.52
1398.84
1392.72
1388.06
1383.14
1378.01
1374.43
1369.11
1366.16
1361.29
1358.07
1354.39
1350.4
1348.09
1343.76
1342.22
1338.67
1336.92
1335.09
1332.73
1332.46
1330.02
1330.3
1328.76
1328.5
1328.4
1327.21
1328.14
1326.63
1327.56
1326.85
1326.83
1327.66
1327.17
2552.74
2195.21
1927.01
1721.94
1563
1442.86
1354.09
1286.13
1243.11
1212.62
1204.47
1219.89
1257.3
1316.5
1395.85
1492.06
1600.67
1715.79
1832.45
1944.9
2047.26
2134.75
2203.47
2255.1
2291.2
2315.88
2329.65
2332.06
2323.5
2304.18
2277.88
2246.54
2218.67
2193.39
2170.32
2148.4
2127.6
2107.28
2088.28
2070
2053.44
2037.83
2023.15
2007.92
1993.68
1979.86
1966.47
1954.2
1942.02
1931.16
1920.02
1910.43
1900.62
1891.83
1883.49
1875.5
1868.26
1860.89
1854.71
1847.9
1842.3
1836.27
1830.86
1825.71
1820.13
1815.96
1810.46
1806.8
1801.83
1798.15
1794.14
1790.15
1787.31
1783.1
1780.89
1777.02
1774.84
1771.87
1769.35
1767.71
1764.94
1764.28
1761.85
1761.37
1759.96
1758.9
1758.67
1757.04
1757.51
1755.98
1756.27
1755.62
1755.02
1755.53
1754.17
1755.29
1754.11
1754.8
1755.17
1755.38
2556.96
2211.38
2002.15
1895
1875.44
1959.41
2066.17
2207.29
2362.13
2500.55
2658.03
2832.9
3015.61
3191.02
3348.87
3479.25
3580.84
3649.61
3688.54
3696.11
3675.96
3627.39
3558.39
3478.18
3403.13
3341.28
3288.43
3239.93
3195.09
3154.18
3117.11
3084.14
3051.86
3021.72
2992.68
2966.28
2941.17
2917.6
2896.17
2875.14
2856.88
2838.72
2823.14
2807.47
2794.03
2781.01
2769.09
2758.41
2747.75
2738.63
2729.17
2721.33
2712.96
2705.97
2699.01
2692.39
2686.61
2680.6
2675.84
2670.32
2666.26
2661.51
2657.5
2653.7
2649.52
2646.66
2642.5
2640.22
2636.54
2634.11
2631.31
2628.6
2626.52
2623.52
2621.94
2619.1
2617.72
2615.49
2614.1
2613.02
2611.51
2611.36
2610.04
2610.24
2609.34
2609.09
2608.86
2608
2608.33
2607.13
2607.53
2606.66
2606.51
2606.57
2605.64
2606.53
2605.36
2606.54
2606.65
2607.96
2508.27
2664.85
3511.99
4425.22
5101.09
5522.85
5790.69
5943.86
6009.65
6036.87
6165.21
6318.09
6450.46
6536.61
6572.49
6559.37
6508.68
6428.38
6330.7
6222.53
6112.15
6005.66
5906.38
5813.95
5726.98
5644.18
5567.39
5496.53
5432.68
5374.24
5321.39
5273.71
5229.93
5191.52
5155.48
5124.61
5095.68
5070.31
5047.46
5026.04
5007.81
4990.01
4974.81
4960.26
4947.33
4934.93
4923.35
4912.99
4902.45
4893.34
4884.24
4876.18
4868.19
4861.04
4854.33
4847.68
4842.14
4836.37
4831.51
4826.57
4822.42
4818.11
4814.12
4810.7
4806.9
4804.02
4800.83
4798.3
4795.72
4793.25
4791.16
4789.11
4787.01
4785.09
4783.2
4781.6
4779.96
4778.67
4777.64
4776.87
4776.39
4775.94
4775.76
4775.7
4775.43
4775.29
4774.9
4774.64
4774.26
4773.79
4773.54
4772.93
4772.88
4772.4
4772.25
4772.32
4771.82
4773.04
4773.07
4775.69
6768.26
9484.53
11872.5
13280.5
13857.5
13918.8
13700.3
13354.4
12989.3
12654.3
12355.5
12108.7
11918.3
11784.7
11699.6
11655.3
11638.5
11640.8
11651.4
11666.1
11679.6
11691.2
11700.4
11707
11713.3
11718.1
11723.7
11728.1
11733
11736.9
11740.5
11743.6
11745
11746.6
11745.7
11745.7
11743.5
11742
11739.8
11736.6
11735
11730.5
11729.7
11724.8
11724.5
11720.3
11719.6
11717.2
11715
11714.7
11711.3
11712.4
11708.5
11710
11707
11707.4
11706.8
11705.2
11707.2
11704.2
11707.5
11705.1
11707.3
11707.9
11707.4
11711.6
11708.9
11715.1
11712.3
11717.5
11717.5
11719.5
11723.4
11722.5
11729
11727.5
11733.9
11734.6
11738.1
11742.1
11742.2
11748.3
11746.6
11751.6
11750.7
11752.3
11754
11751.5
11755.5
11751.2
11754.5
11752.5
11752
11754.1
11750.2
11754.1
11750.3
11751.5
11750.1
11744.7
10834.9
6759.05
4846.04
3897.94
3324.6
2953.36
2684.76
2487.66
2331.36
2196.44
2079.47
1974.89
1875.9
1785.51
1706.86
1643.4
1582.8
1523.47
1471.94
1416.09
1345.55
1279.91
1248.68
1230.98
1158.9
984.652
802.958
726.447
679.868
685.534
821.427
902.129
917.136
891.031
845.914
795.518
750.737
716.251
690.612
671.113
653.748
633.585
608.244
576.628
537.657
492.863
446.544
402.41
362.009
325.102
291.244
260.572
233.714
211.295
193.561
180.236
170.581
163.707
158.849
155.489
153.317
152.141
151.768
151.917
152.207
152.28
151.957
151.249
150.296
149.298
148.439
147.807
147.396
147.151
147.018
146.948
146.915
146.898
146.891
146.885
146.884
146.881
146.88
146.878
146.879
146.877
146.878
146.876
146.878
146.876
146.878
146.876
146.878
146.875
146.878
146.874
146.876
146.872
146.873
146.866
2962.26
5035.69
4724.29
3983.01
3402.32
3003.46
2708.6
2492.81
2324.29
2179.48
2056.91
1948.43
1845.71
1753.53
1673.85
1611.98
1552
1495.31
1450.52
1396.15
1320.9
1257.19
1233.98
1207.54
1078.58
850.596
652.753
593.435
702.471
652.122
723.653
846.194
889.153
877.127
837.931
789.845
745.599
710.769
684.306
663.409
644.245
622.768
596.752
564.295
523.738
477.488
430.182
385.313
344.015
305.927
271.236
240.889
215.923
196.729
182.812
173.05
166.183
161.207
157.502
154.771
152.9
151.84
151.49
151.633
151.931
152.036
151.756
151.108
150.238
149.316
148.491
147.858
147.429
147.164
147.01
146.924
146.876
146.85
146.835
146.826
146.821
146.817
146.815
146.814
146.813
146.812
146.812
146.812
146.812
146.811
146.811
146.811
146.811
146.811
146.811
146.81
146.811
146.809
146.809
146.807
2204.67
2654.06
3515.93
3588.91
3278.33
2961.02
2684.52
2470.16
2300.71
2150.37
2025.09
1913.8
1808.18
1715.59
1635.93
1576.18
1516.28
1461.49
1424.88
1369.67
1287.89
1231.35
1216.64
1156.62
885.849
577.547
651.96
695.408
773.103
827.66
707.958
782.414
849.473
856.538
826.511
782.187
738.965
703.852
676.534
654.055
632.917
610.157
583.424
549.764
507.503
459.724
411.122
364.93
322.136
283.11
248.927
220.955
199.82
184.967
174.961
168.198
163.382
159.696
156.731
154.375
152.659
151.631
151.257
151.374
151.676
151.833
151.629
151.069
150.295
149.469
148.693
148.049
147.575
147.264
147.068
146.953
146.882
146.842
146.816
146.802
146.792
146.788
146.783
146.783
146.78
146.781
146.778
146.78
146.778
146.78
146.778
146.78
146.778
146.78
146.778
146.781
146.778
146.781
146.779
146.784
1730.21
1654.38
1932.81
2400.38
2626.74
2636.34
2502.85
2353.79
2218.45
2082.23
1967.69
1859.33
1755.17
1665.24
1587.49
1528.77
1468.29
1415.89
1390.32
1327.41
1240.1
1200.23
1182.75
952.788
560.251
504.519
697.57
824.875
844.015
935.609
827.33
752.092
802.653
826.75
809.544
771.108
729.83
694.705
666.596
642.634
619.636
595.591
567.824
532.394
488.153
438.395
387.898
339.965
296.297
258.203
227.136
203.821
187.65
177
170.049
165.317
161.787
158.882
156.355
154.209
152.551
151.495
151.05
151.104
151.4
151.638
151.577
151.17
150.52
149.781
149.042
148.384
147.858
147.488
147.238
147.083
146.98
146.921
146.879
146.859
146.841
146.835
146.826
146.827
146.821
146.824
146.819
146.823
146.818
146.823
146.818
146.823
146.818
146.823
146.818
146.824
146.819
146.827
146.823
146.835
1310.02
1314.37
1303.71
1381.35
1605.31
1815.68
1937.41
1976.24
1954.81
1890
1826.88
1738.98
1651.29
1571.5
1500.85
1437.09
1371.25
1325.59
1318.31
1217.65
1148.27
1146.06
931.927
476.23
466.304
648.289
822.297
940.943
930.439
982.924
962.188
797.549
767.392
788.785
784.49
754.685
716.781
682.164
653.375
628.01
603.259
577.611
548.076
510.236
463.565
411.566
359.296
310.952
268.915
234.8
209.27
191.563
179.895
172.331
167.309
163.747
160.937
158.481
156.217
154.192
152.542
151.414
150.856
150.805
151.064
151.379
151.499
151.304
150.814
150.155
149.439
148.777
148.223
147.806
147.502
147.299
147.158
147.071
147.009
146.976
146.948
146.938
146.925
146.924
146.916
146.919
146.912
146.917
146.911
146.917
146.911
146.917
146.91
146.918
146.911
146.919
146.912
146.923
146.918
146.935
1054.77
1083.18
1073.49
1037.45
1092.68
1110.84
1202.05
1303.32
1356.55
1404.19
1448.19
1415.52
1390.54
1332.91
1280.01
1178
1035.26
1023.28
946.076
760.84
879.675
693.686
300.168
379.572
619.303
798.932
933.206
1028.3
1015.24
1021.78
1040.88
905.663
776.126
754.657
751.148
730.318
697.442
664.132
634.841
607.87
581.037
553.337
521.51
481.735
433.634
380.861
329.114
283.113
245.573
217.335
197.556
184.364
175.698
169.921
165.907
162.926
160.485
158.285
156.198
154.263
152.608
151.388
150.683
150.483
150.648
150.972
151.212
151.202
150.881
150.337
149.695
149.075
148.525
148.083
147.739
147.493
147.314
147.197
147.114
147.066
147.029
147.013
146.995
146.992
146.983
146.985
146.978
146.982
146.976
146.982
146.976
146.982
146.976
146.982
146.976
146.984
146.978
146.988
146.984
147
904.458
924.147
921.561
894.503
905.227
870.679
880.476
884.5
865.759
887.669
889.432
862.642
894.792
797.236
729.782
586.312
334.215
265.889
172.082
145.831
124.46
164.686
430.579
627.756
791.84
934.312
1038.02
1104.83
1093.6
1070.95
1085.25
1011.84
849.964
753.144
720.762
698.362
668.85
637.179
607.65
579.16
551.065
523.534
494.577
460.389
417.84
368.216
317.466
272.31
236.686
210.997
193.538
181.998
174.335
169.103
165.368
162.546
160.232
158.166
156.208
154.36
152.718
151.42
150.559
150.16
150.139
150.342
150.567
150.649
150.482
150.096
149.583
149.049
148.545
148.116
147.769
147.511
147.321
147.194
147.103
147.048
147.008
146.988
146.97
146.965
146.956
146.956
146.95
146.954
146.949
146.953
146.948
146.953
146.948
146.953
146.948
146.954
146.95
146.958
146.955
146.969
789.388
803.431
795.921
791.727
779.589
757.192
751.182
715.81
689.827
689.968
586.401
620.995
515.02
442.601
356.334
305.774
314.175
360.023
431.584
422.015
523.996
675.893
736.018
805.764
928.954
1057.64
1137.77
1176.15
1165.8
1131.97
1127.09
1090.18
958.699
814.596
726.171
676.245
638.259
605.287
575.944
549.998
530.941
520.904
515.049
501.689
470.111
419.261
359.095
302.231
256.344
223.096
200.621
185.977
176.48
170.189
165.851
162.692
160.226
158.143
156.256
154.494
152.887
151.534
150.521
149.893
149.612
149.583
149.664
149.725
149.655
149.421
149.054
148.635
148.219
147.857
147.561
147.341
147.178
147.069
146.992
146.945
146.911
146.893
146.878
146.873
146.866
146.866
146.861
146.864
146.86
146.863
146.859
146.863
146.859
146.863
146.859
146.864
146.861
146.867
146.865
146.876
669.917
663.157
666.841
656.932
634.344
626.994
591.956
553.494
558.905
453.055
482.7
406.561
358.334
350.478
379.111
381.019
467.403
527.111
515.634
578.869
664.071
711.949
772.506
893.517
1051.04
1177.11
1231.65
1240.53
1225.83
1193.92
1175.51
1153.83
1062.71
924.492
801.892
712.863
653.889
614.511
589.548
584.462
599.356
619.839
629.504
616.294
576.123
514.004
441.507
370.649
309.417
261.407
226.516
202.529
186.584
176.132
169.241
164.585
161.292
158.809
156.781
155
153.378
151.935
150.738
149.849
149.271
148.961
148.828
148.78
148.715
148.572
148.332
148.04
147.743
147.485
147.276
147.123
147.012
146.94
146.888
146.859
146.836
146.826
146.816
146.814
146.808
146.81
146.805
146.808
146.804
146.808
146.804
146.808
146.804
146.808
146.804
146.809
146.805
146.811
146.808
146.818
402.732
395.694
394.781
391.834
372.261
374.976
342.33
350.556
318.914
337.723
341.847
360.626
416.585
498.05
553.423
644.462
708.418
721.452
750.41
806.184
844.937
875.407
950.438
1084.36
1228.59
1307.14
1305.09
1278.19
1256.87
1236.71
1222.04
1210.22
1154.91
1046.36
928.447
829.909
764.376
732.108
728.142
742.189
756.696
760.286
745.896
710.389
655.94
589.06
516.912
446.37
382.813
328.767
284.376
248.955
221.651
201.356
186.778
176.632
169.685
164.874
161.364
158.581
156.184
154.063
152.23
150.757
149.667
148.94
148.493
148.242
148.082
147.947
147.784
147.61
147.435
147.297
147.185
147.115
147.061
147.037
147.013
147.01
146.997
147.001
146.991
146.999
146.989
146.999
146.988
146.999
146.988
147
146.987
147.001
146.987
147.002
146.987
147.004
146.988
147.009
146.995
147.023
437.818
431.549
451.472
434.783
468.422
471.405
496.168
538.534
559.561
609.461
656.079
694.496
753.575
789.98
824.166
863.14
875.304
876.392
904.57
936.413
949.83
992.859
1110.72
1270.14
1383.55
1381.62
1315.21
1262.96
1242.48
1241.45
1248.03
1254.76
1230.58
1155.99
1060.95
978.857
927.849
906.082
898.724
891.712
876.963
851.732
814.111
764.122
705.095
641.953
578.64
517.789
462.07
413.732
373.115
338.709
308.78
282.402
259.091
238.887
221.723
207.252
194.909
184.335
175.332
167.92
161.996
157.49
154.206
151.986
150.514
149.63
149.084
148.829
148.688
148.704
148.737
148.873
148.959
149.113
149.172
149.298
149.312
149.409
149.384
149.466
149.415
149.494
149.425
149.509
149.425
149.518
149.422
149.525
149.417
149.534
149.412
149.546
149.411
149.567
149.424
149.614
149.482
149.733
681.203
694.896
691.574
700.989
715.891
724.673
750.32
764.037
783.836
809.021
822.613
847.514
874.342
894.199
926.908
954.995
962.145
981.275
1018.66
1035.18
1054.15
1148.95
1315.19
1458.87
1474.65
1372.68
1262.76
1205.31
1195.21
1212.71
1242.02
1271.26
1277.27
1236.86
1169.11
1109.95
1069.1
1037.28
1006.14
970.233
929.643
885.415
837.398
785.659
732.474
680.373
630.082
581.969
536.746
496.412
462.997
436.537
414.835
396.138
378.474
360.882
342.679
323.472
302.385
279.702
256.222
234.13
214.611
198.951
186.827
178.388
172.46
169.052
167.13
167.048
167.674
169.378
170.938
172.961
174.273
175.843
176.514
177.574
177.711
178.46
178.259
178.875
178.473
179.07
178.529
179.173
178.522
179.237
178.497
179.285
178.465
179.34
178.434
179.417
178.431
179.548
178.528
179.839
178.933
180.581
807.929
813.042
813.062
821.322
829.558
839.775
855.126
867.754
886.372
904.4
922.94
951.074
974.922
1004.21
1043.53
1066.43
1082.36
1116.83
1142.68
1148.64
1210.59
1367.89
1537.75
1587.09
1469.39
1301.95
1193.39
1154.14
1155.96
1180.57
1217.99
1258.55
1283.7
1271.56
1231.29
1184.64
1131.74
1075.35
1022.61
971.948
923.102
875.972
829.682
784.799
743.029
704.466
667.46
631.805
598.223
568.404
542.88
521.92
504.702
490.617
478.171
466.49
454.699
442.886
429.365
413.564
394.673
374.695
354.237
336.123
320.218
308.673
300.283
296.771
296.247
299.89
304.679
311.342
316.878
322.784
326.568
330.529
332.299
334.741
335.124
336.76
336.346
337.665
336.804
338.08
336.917
338.302
336.89
338.441
336.83
338.543
336.767
338.653
336.71
338.809
336.711
339.083
336.92
339.711
337.78
341.334
930.436
932.72
934.836
942.392
950.168
962.659
976.563
992.289
1012.8
1031.41
1056.96
1086.83
1115.73
1159.7
1203.98
1231.22
1261.89
1292.54
1296.23
1321.86
1447.64
1629.66
1720.78
1610.25
1393.27
1229.54
1153.59
1133.74
1140.12
1161.02
1192.86
1229.68
1257.55
1259.5
1232.91
1184.56
1118.94
1051.84
995.8
948.542
905.868
865.044
824.728
786.741
752.788
722.323
694.081
668.231
645.448
626.578
611.096
598.37
587.309
577.389
568.286
560.192
552.913
547.045
542.176
537.949
533.906
530.34
526.967
524.312
522.251
521.455
521.67
523.681
527.199
532.38
537.974
543.628
548.385
552.474
555.424
557.766
559.225
560.421
560.999
561.627
561.746
562.149
562.025
562.376
562.098
562.497
562.077
562.595
562.01
562.704
561.915
562.853
561.803
563.072
561.72
563.433
561.804
564.165
562.493
565.895
1085.87
1087.14
1091.2
1099.03
1109.32
1125.24
1141.86
1164.64
1189.14
1215.46
1250.53
1285.98
1330.52
1390.23
1441.88
1477.36
1503.81
1506.99
1501.21
1574.23
1741.67
1869.16
1790.14
1541.71
1318.77
1198.04
1155.91
1149.35
1153.79
1164.24
1182.15
1204.8
1222.78
1223.54
1198.29
1148.74
1085.64
1026.78
982.326
948.519
918.347
886.662
852.146
818.108
787.12
759.413
735.158
715.313
700.381
689.973
682.779
677.829
674.516
672.611
671.901
671.938
672.019
671.526
670.937
671.16
672.787
675.538
679.021
682.053
684.541
686.315
688.223
690.523
693.978
697.919
702.167
705.793
709.087
711.523
713.574
714.843
715.941
716.476
717.051
717.218
717.528
717.541
717.709
717.677
717.756
717.745
717.742
717.812
717.684
717.917
717.581
718.081
717.442
718.328
717.303
718.733
717.293
719.484
717.864
721.149
1329.74
1331.18
1337.31
1346.99
1362.42
1383.78
1408.1
1440.72
1473.13
1511.92
1555.93
1601.75
1665.52
1736.25
1791.18
1812.26
1799.9
1771.11
1782.17
1899.39
2038.68
2007.12
1757.86
1476.56
1297.33
1224.43
1210.62
1212.4
1211.19
1207.61
1206.68
1209.2
1210.88
1202.22
1174.56
1129.78
1081.43
1043.88
1020.9
1006.82
992.271
969.578
938.949
906.365
875.663
848.317
826.161
810.89
802.585
799.709
800.276
802.952
807.054
812.117
817.937
824.086
830.236
836.002
841.227
845.584
848.907
850.896
851.727
851.722
851.437
851.247
851.971
853.996
857.601
861.999
866.561
870.635
874.163
876.936
879.078
880.588
881.666
882.379
882.86
883.185
883.364
883.532
883.549
883.68
883.593
883.76
883.571
883.838
883.506
883.949
883.398
884.127
883.242
884.417
883.067
884.932
883.009
885.907
883.653
887.989
1758.51
1761.06
1769.79
1783.92
1807.55
1838.34
1875.24
1919.76
1963.12
2013.01
2062.27
2117.69
2193.65
2260.54
2287.28
2249.14
2177.66
2135.77
2178.94
2288.74
2297.27
2075.63
1746.5
1491.26
1365.27
1335.77
1346.67
1355.32
1348
1329.62
1307.66
1286.61
1267.95
1246.63
1217.22
1184.88
1164.1
1159.95
1167.13
1178.98
1182.04
1165.94
1135.91
1102.4
1070.59
1042.93
1023.3
1013.83
1013.62
1019.63
1029.02
1039.87
1051.06
1061.86
1072.02
1081.25
1089.47
1096.42
1101.94
1105.88
1108.49
1110.04
1110.9
1111.34
1111.79
1112.66
1114.48
1117.38
1121.19
1125.24
1129.04
1132.34
1135.05
1137.18
1138.72
1139.82
1140.55
1141.04
1141.35
1141.57
1141.68
1141.78
1141.8
1141.86
1141.82
1141.91
1141.81
1141.96
1141.77
1142.05
1141.68
1142.21
1141.53
1142.57
1141.3
1143.34
1141.06
1144.94