/*--------------------------------*- C++ -*----------------------------------*\
| =========                 |                                                 |
| \\      /  F ield         | OpenFOAM: The Open Source CFD Toolbox           |
|  \\    /   O peration     | Version:  v2012                                 |
|   \\  /    A nd           | Website:  www.openfoam.com                      |
|    \\/     M anipulation  |                                                 |
\*---------------------------------------------------------------------------*/
FoamFile
{
    version     2.0;
    format      ascii;
    class       volScalarField;
    location    "0.078";
    object      p;
}
// * * * * * * * * * * * * * * * * * * * * * * * * * * * * * * * * * * * * * //

dimensions      [0 2 -2 0 0 0 0];


internalField   nonuniform List<scalar> 
5600
(
-13.7102
-14.6757
-15.629
-16.6201
-17.6792
-18.7797
-19.8843
-20.953
-21.9711
-22.9331
-23.8458
-24.7055
-25.5075
-26.2651
-26.9796
-27.6687
-28.3331
-28.983
-29.6247
-30.262
-30.8976
-31.5295
-32.1605
-32.785
-33.4113
-34.0256
-34.6452
-35.2573
-35.8673
-36.4795
-37.0828
-37.6949
-38.2982
-38.9094
-39.5182
-40.1213
-40.7261
-41.3257
-41.9315
-42.5247
-43.1283
-43.7237
-44.32
-44.9166
-45.5036
-46.0995
-46.6798
-47.276
-47.8591
-48.4467
-49.0311
-49.6066
-50.194
-50.7596
-51.3476
-51.9149
-52.497
-53.0688
-53.6336
-54.2132
-54.771
-55.3469
-55.9023
-56.4725
-57.034
-57.5914
-58.1571
-58.7085
-59.2743
-59.8252
-60.3836
-60.9371
-61.4894
-62.0439
-62.5908
-63.146
-63.6928
-64.2439
-64.7921
-65.3408
-65.8899
-66.4353
-66.9832
-67.5347
-68.08
-68.638
-69.1826
-69.7404
-70.2921
-70.8363
-71.3988
-71.9368
-72.4951
-73.0449
-73.5829
-74.1512
-74.6931
-75.2725
-75.8522
-76.6537
-13.8087
-14.6995
-15.6467
-16.6332
-17.6892
-18.7889
-19.8935
-20.9615
-21.9806
-22.9433
-23.8552
-24.7141
-25.5161
-26.2743
-26.9897
-27.6805
-28.3462
-28.9978
-29.6406
-30.2785
-30.9151
-31.5475
-32.1794
-32.8039
-33.4307
-34.0448
-34.665
-35.2772
-35.8874
-36.4998
-37.1032
-37.7156
-38.319
-38.9306
-39.5396
-40.1425
-40.7479
-41.3471
-41.9533
-42.5464
-43.1502
-43.7458
-44.3419
-44.9388
-45.5255
-46.1218
-46.7018
-47.2981
-47.8815
-48.4687
-49.0537
-49.6286
-50.2166
-50.7817
-51.3702
-51.9374
-52.519
-53.0919
-53.6554
-54.2363
-54.7929
-55.3694
-55.9246
-56.4943
-57.057
-57.6129
-58.1798
-58.7305
-59.2965
-59.8478
-60.4052
-60.9599
-61.511
-62.0664
-62.6129
-63.168
-63.7154
-64.2657
-64.8148
-65.3625
-65.9122
-66.4579
-67.005
-67.5572
-68.1021
-68.6599
-69.2058
-69.7618
-70.3153
-70.8587
-71.4201
-71.9615
-72.5142
-73.0702
-73.6044
-74.1744
-74.7143
-75.2991
-75.8619
-76.6612
-13.8904
-14.7206
-15.6749
-16.6615
-17.7115
-18.8054
-19.9052
-20.97
-21.9851
-22.9467
-23.857
-24.7147
-25.5167
-26.2747
-26.9903
-27.6815
-28.3477
-28.9995
-29.6421
-30.2813
-30.9177
-31.5511
-32.1823
-32.8076
-33.4349
-34.0501
-34.6705
-35.2831
-35.8938
-36.5067
-37.1103
-37.7228
-38.3263
-38.9379
-39.5469
-40.1496
-40.7552
-41.3544
-41.9606
-42.5537
-43.1573
-43.7534
-44.3489
-44.9463
-45.5326
-46.129
-46.7091
-47.3052
-47.8891
-48.4757
-49.0612
-49.6356
-50.224
-50.7889
-51.3772
-51.945
-52.526
-53.0995
-53.6626
-54.2438
-54.8008
-55.377
-55.933
-56.5022
-57.0657
-57.6211
-58.1883
-58.7391
-59.3048
-59.8569
-60.4135
-60.9691
-61.5197
-62.0754
-62.622
-63.1768
-63.7248
-64.2743
-64.8241
-65.3715
-65.9213
-66.467
-67.0137
-67.5662
-68.111
-68.6682
-69.2149
-69.7696
-70.3241
-70.867
-71.4277
-71.9708
-72.5218
-73.079
-73.6126
-74.1809
-74.7241
-75.3074
-75.8718
-76.6492
-13.9815
-14.7507
-15.7033
-16.6885
-17.7311
-18.8195
-19.9168
-20.9815
-21.9943
-22.9568
-23.8684
-24.7269
-25.5307
-26.2897
-27.007
-27.6975
-28.3649
-29.0166
-29.659
-30.2972
-30.9322
-31.5646
-32.1938
-32.819
-33.445
-34.0609
-34.6805
-35.2935
-35.9052
-36.5186
-37.1236
-37.7361
-38.3404
-38.9524
-39.5617
-40.1645
-40.7702
-41.3696
-41.9757
-42.5692
-43.1726
-43.7693
-44.3644
-44.9623
-45.5487
-46.1454
-46.726
-47.3217
-47.9064
-48.4923
-49.0785
-49.6528
-50.2413
-50.8067
-51.3946
-51.9633
-52.5433
-53.118
-53.6799
-54.2621
-54.8184
-55.3941
-55.9511
-56.5189
-57.0838
-57.6376
-58.2059
-58.7562
-59.3213
-59.8747
-60.4296
-60.9867
-61.5362
-62.0922
-62.6393
-63.193
-63.7424
-64.2905
-64.8412
-65.3884
-65.9377
-66.4844
-67.0302
-67.5832
-68.1287
-68.6845
-69.2337
-69.786
-70.3424
-70.8856
-71.4437
-71.9907
-72.5386
-73.0956
-73.6351
-74.1933
-74.746
-75.3198
-75.8855
-76.6255
-14.0738
-14.7816
-15.7291
-16.7158
-17.7524
-18.8359
-19.9309
-20.9939
-22.0059
-22.9685
-23.8799
-24.7382
-25.5424
-26.3016
-27.0205
-27.7103
-28.379
-29.0315
-29.6748
-30.3135
-30.9488
-31.582
-32.2108
-32.8372
-33.4619
-34.0787
-34.6967
-35.3094
-35.9211
-36.5327
-37.1386
-37.7487
-38.3532
-38.9649
-39.5737
-40.1774
-40.7829
-41.3833
-41.9888
-42.5837
-43.1862
-43.784
-44.3788
-44.9767
-45.5638
-46.1598
-46.7417
-47.3362
-47.9222
-48.507
-49.0937
-49.668
-50.2558
-50.8225
-51.4088
-51.9795
-52.5572
-53.1334
-53.6943
-54.2769
-54.834
-55.408
-55.9678
-56.5332
-57.0999
-57.6529
-58.2213
-58.7727
-59.3364
-59.8917
-60.4449
-61.0033
-61.5525
-62.1081
-62.6564
-63.2087
-63.7595
-64.3066
-64.8579
-65.4051
-65.9538
-66.5015
-67.0465
-67.5996
-68.1461
-68.6998
-69.2515
-69.8018
-70.3585
-70.9032
-71.4586
-72.0085
-72.5552
-73.1108
-73.6531
-74.2073
-74.7629
-75.3339
-75.8952
-76.6054
-14.1647
-14.8145
-15.7553
-16.7456
-17.7766
-18.8546
-19.9468
-21.0081
-22.0195
-22.9819
-23.8929
-24.7514
-25.5563
-26.3164
-27.0364
-27.7271
-28.3968
-29.0501
-29.6938
-30.3326
-30.9679
-31.6011
-32.2297
-32.8567
-33.4801
-34.0978
-34.7153
-35.3284
-35.941
-36.5512
-37.1596
-37.7673
-38.3731
-38.984
-39.5922
-40.1965
-40.8003
-41.4023
-42.0048
-42.6017
-43.2017
-43.7999
-44.3948
-44.991
-45.5804
-46.1746
-46.759
-47.3513
-47.9389
-48.5232
-49.1098
-49.6855
-50.2712
-50.8416
-51.4245
-51.9984
-52.5737
-53.1506
-53.712
-54.2936
-54.8531
-55.4239
-55.9873
-56.5496
-57.1178
-57.6706
-58.2379
-58.7921
-59.3525
-59.9107
-60.4617
-61.021
-61.5708
-62.1249
-62.6756
-63.2258
-63.778
-64.3244
-64.8758
-65.4237
-65.9711
-66.5201
-67.0645
-67.6172
-68.1658
-68.7165
-69.2715
-69.8203
-70.3759
-70.9247
-71.4754
-72.029
-72.5747
-73.1275
-73.6754
-74.2241
-74.7809
-75.3504
-75.9054
-76.5869
-14.251
-14.8495
-15.7825
-16.7769
-17.8026
-18.8752
-19.9648
-21.0248
-22.0357
-22.9976
-23.9086
-24.7672
-25.5729
-26.3336
-27.0544
-27.746
-28.4161
-29.07
-29.7141
-30.353
-30.9885
-31.6216
-32.2503
-32.8772
-33.5004
-34.1188
-34.736
-35.3493
-35.9622
-36.5717
-37.1809
-37.7878
-38.395
-39.0046
-39.6129
-40.2179
-40.8206
-41.4251
-42.0244
-42.625
-43.2227
-43.8202
-44.4162
-45.0092
-45.6032
-46.1931
-46.7821
-47.3706
-47.9595
-48.543
-49.1273
-49.7072
-50.2867
-50.8638
-51.4408
-52.0173
-52.592
-53.1673
-53.7314
-54.3102
-54.8752
-55.4405
-56.0077
-56.5675
-57.136
-57.691
-58.2553
-58.814
-59.3703
-59.931
-60.4808
-61.0399
-61.5917
-62.1432
-62.6967
-63.2444
-63.7979
-64.3442
-64.8948
-65.4441
-65.9899
-66.5399
-67.0844
-67.6356
-68.1875
-68.7346
-69.2922
-69.8416
-70.3942
-70.948
-71.4939
-72.0501
-72.5969
-73.1462
-73.6985
-74.2434
-74.7996
-75.3682
-75.9157
-76.5694
-14.3289
-14.8862
-15.8109
-16.8092
-17.8304
-18.8981
-19.9855
-21.0446
-22.0549
-23.0165
-23.9274
-24.7861
-25.5924
-26.3535
-27.0752
-27.7675
-28.438
-29.0925
-29.7369
-30.3761
-31.0117
-31.6447
-32.2737
-32.9003
-33.5235
-34.1423
-34.7591
-35.3726
-35.9854
-36.5949
-37.2042
-37.8112
-38.4188
-39.0277
-39.636
-40.2412
-40.8438
-41.4485
-42.0472
-42.6487
-43.2456
-43.8432
-44.4398
-45.0315
-45.6282
-46.2153
-46.8069
-47.3929
-47.9837
-48.5664
-49.148
-49.7328
-50.3076
-50.8902
-51.4618
-52.0405
-52.6146
-53.1881
-53.7575
-54.3276
-54.9002
-55.4602
-56.0305
-56.5904
-57.1565
-57.7169
-58.2748
-58.8378
-59.3892
-59.951
-60.5024
-61.0595
-61.6146
-62.1635
-62.7195
-63.2658
-63.8192
-64.3666
-64.9157
-65.4662
-66.0112
-66.5612
-67.1072
-67.6558
-68.211
-68.7559
-69.314
-69.866
-70.415
-70.9727
-71.5161
-72.0726
-72.6218
-73.168
-73.722
-74.266
-74.8197
-75.386
-75.927
-76.5515
-14.3947
-14.9229
-15.8405
-16.8419
-17.8598
-18.9237
-20.0094
-21.0678
-22.0777
-23.0389
-23.9498
-24.8086
-25.6154
-26.3768
-27.0991
-27.7919
-28.4628
-29.1177
-29.7625
-30.4018
-31.0375
-31.6703
-32.2995
-32.9259
-33.5492
-34.1681
-34.7846
-35.3984
-36.011
-36.6209
-37.2298
-37.8373
-38.4449
-39.0536
-39.6616
-40.267
-40.8698
-41.4739
-42.0734
-42.6743
-43.2716
-43.8693
-44.4656
-45.0578
-45.6536
-46.2412
-46.8324
-47.4186
-48.0088
-48.592
-49.1735
-49.7588
-50.3334
-50.9158
-51.4867
-52.067
-52.6405
-53.2137
-53.7853
-54.3501
-54.9276
-55.486
-56.0568
-56.6172
-57.1799
-57.745
-58.2995
-58.8652
-59.4145
-59.9748
-60.5292
-61.084
-61.6404
-62.1879
-62.7443
-63.2916
-63.844
-64.3926
-64.94
-65.4902
-66.0355
-66.5846
-67.1324
-67.6787
-68.2353
-68.7802
-69.3372
-69.8908
-70.438
-70.9973
-71.5411
-72.0971
-72.6474
-73.1929
-73.7464
-74.2912
-74.8419
-75.403
-75.9388
-76.5313
-14.444
-14.9575
-15.8715
-16.8746
-17.8906
-18.9523
-20.037
-21.095
-22.1047
-23.0658
-23.9767
-24.8354
-25.6425
-26.4041
-27.1267
-27.8199
-28.4909
-29.1461
-29.791
-30.4304
-31.0662
-31.699
-32.3283
-32.9545
-33.5779
-34.1969
-34.8133
-35.4272
-36.0396
-36.6497
-37.2585
-37.8663
-38.4738
-39.0825
-39.6902
-40.2956
-40.8988
-41.5023
-42.1026
-42.7027
-43.3007
-43.8981
-44.4941
-45.0869
-45.6816
-46.2706
-46.8609
-47.448
-48.0369
-48.621
-49.2027
-49.7866
-50.3629
-50.9434
-51.5165
-52.0955
-52.6692
-53.2421
-53.8133
-54.3796
-54.9553
-55.5154
-56.0843
-56.6459
-57.2082
-57.7733
-58.3287
-58.8927
-59.4441
-60.003
-60.5584
-61.1129
-61.6688
-62.217
-62.7724
-63.3211
-63.8723
-64.4217
-64.9688
-65.5184
-66.0642
-66.613
-67.1612
-67.7073
-68.2639
-68.8089
-69.3653
-69.9187
-70.4663
-71.0254
-71.5693
-72.1256
-72.6751
-73.2216
-73.7739
-74.3183
-74.867
-75.4207
-75.9498
-76.5074
-14.4688
-14.9858
-15.902
-16.9049
-17.9206
-18.9825
-20.0674
-21.1255
-22.1353
-23.0963
-24.0072
-24.8659
-25.673
-26.4344
-27.157
-27.8503
-28.5212
-29.1763
-29.8214
-30.4608
-31.0965
-31.7293
-32.3587
-32.9848
-33.6082
-34.2273
-34.8435
-35.4576
-36.0698
-36.68
-37.2888
-37.8967
-38.5043
-39.1128
-39.7204
-40.3258
-40.9292
-41.5324
-42.1331
-42.7329
-43.3312
-43.9285
-44.5242
-45.1176
-45.7115
-46.3014
-46.8911
-47.4788
-48.0668
-48.6514
-49.2333
-49.8162
-50.394
-50.973
-51.5478
-52.1254
-52.6993
-53.2723
-53.8434
-54.4111
-54.9837
-55.5467
-56.1139
-56.6767
-57.2394
-57.8028
-58.36
-58.9216
-59.4751
-60.0331
-60.5886
-61.1437
-61.6986
-62.248
-62.8025
-63.3514
-63.9026
-64.4519
-64.9992
-65.5484
-66.0948
-66.6435
-67.1912
-67.7384
-68.2926
-68.8399
-69.3952
-69.9484
-70.4978
-71.0544
-71.6007
-72.1551
-72.7049
-73.2525
-73.803
-74.347
-74.8934
-75.4401
-75.9608
-76.4837
-14.4667
-15.0053
-15.9291
-16.9299
-17.947
-19.0116
-20.0976
-21.1563
-22.1664
-23.1275
-24.0385
-24.897
-25.7039
-26.4649
-27.1871
-27.8802
-28.5508
-29.2056
-29.8505
-30.4899
-31.1257
-31.7584
-32.3878
-33.0139
-33.6373
-34.2564
-34.8725
-35.4867
-36.0988
-36.7089
-37.3178
-37.9257
-38.5333
-39.1418
-39.7494
-40.3547
-40.9583
-41.5613
-42.1622
-42.7618
-43.3603
-43.9578
-44.553
-45.147
-45.7403
-46.3305
-46.92
-47.5079
-48.0955
-48.6803
-49.2626
-49.8447
-50.4234
-51.0016
-51.5772
-52.1544
-52.7282
-53.3016
-53.8725
-54.4409
-55.0118
-55.5766
-56.1426
-56.706
-57.2691
-57.8312
-58.3895
-58.9496
-59.5049
-60.0616
-60.6177
-61.1731
-61.7267
-62.2777
-62.8303
-63.381
-63.9312
-64.481
-65.0287
-65.5765
-66.1251
-66.6714
-67.2209
-67.7686
-68.3209
-68.8719
-69.4236
-69.9787
-70.5283
-71.0828
-71.6326
-72.1834
-72.7349
-73.2813
-73.8311
-74.3756
-74.9181
-75.4597
-75.9718
-76.4679
-14.443
-15.0177
-15.952
-16.9491
-17.9692
-19.038
-20.126
-21.1855
-22.1962
-23.1575
-24.0686
-24.9269
-25.7334
-26.4938
-27.2153
-27.908
-28.5781
-29.2324
-29.8771
-30.5163
-31.1521
-31.7848
-32.4142
-33.0404
-33.6638
-34.2829
-34.8988
-35.5131
-36.125
-36.7351
-37.3441
-37.9519
-38.5596
-39.1682
-39.7757
-40.3808
-40.9846
-41.5875
-42.1884
-42.7881
-43.3866
-43.9842
-44.5791
-45.1735
-45.7667
-46.3569
-46.9464
-47.5344
-48.1217
-48.7066
-49.2892
-49.8707
-50.4499
-51.0278
-51.6037
-52.1803
-52.7545
-53.3272
-53.8989
-54.4673
-55.0375
-55.6032
-56.1682
-56.7329
-57.2949
-57.8576
-58.4163
-58.9756
-59.5325
-60.0879
-60.6454
-61.1999
-61.7537
-62.3058
-62.8569
-63.4096
-63.9583
-64.5092
-65.0568
-65.6045
-66.1543
-66.6989
-67.2504
-67.7971
-68.3495
-68.9014
-69.4513
-70.0071
-70.5559
-71.11
-71.6604
-72.2102
-72.7617
-73.3073
-73.8572
-74.4006
-74.9412
-75.4782
-75.9837
-76.4605
-14.4026
-15.0259
-15.9712
-16.9638
-17.9881
-19.0622
-20.1525
-21.213
-22.2245
-23.186
-24.0972
-24.9552
-25.7612
-26.521
-27.2416
-27.9338
-28.6033
-29.257
-29.9014
-30.5404
-31.1762
-31.8089
-32.4383
-33.0644
-33.6879
-34.3068
-34.9227
-35.5371
-36.149
-36.7589
-37.3679
-37.9756
-38.5833
-39.1921
-39.7996
-40.4046
-41.0083
-41.6115
-42.2122
-42.812
-43.4107
-44.008
-44.6029
-45.1968
-45.7907
-46.3806
-46.9701
-47.5581
-48.1451
-48.7304
-49.3126
-49.8947
-50.4734
-51.0518
-51.6282
-52.2043
-52.7794
-53.351
-53.9241
-54.4922
-55.0625
-55.6289
-56.1936
-56.7593
-57.3203
-57.8841
-58.4423
-59.0019
-59.5592
-60.1142
-60.6721
-61.2256
-61.7799
-62.3313
-62.8826
-63.4353
-63.9834
-64.5348
-65.0817
-65.6301
-66.1794
-66.7244
-67.2757
-67.822
-68.3748
-68.926
-69.4765
-70.0314
-70.5804
-71.1343
-71.6843
-72.2345
-72.7851
-73.3312
-73.8805
-74.423
-74.9629
-75.4957
-75.9967
-76.4588
-14.3499
-15.0315
-15.9869
-16.9749
-18.0043
-19.0842
-20.1772
-21.2391
-22.2513
-23.2131
-24.1243
-24.982
-25.7874
-26.5464
-27.2658
-27.9576
-28.6263
-29.2794
-29.9234
-30.5622
-31.198
-31.8307
-32.4601
-33.0862
-33.7097
-34.3285
-34.9443
-35.5586
-36.1706
-36.7804
-37.3896
-37.9969
-38.6048
-39.2136
-39.8207
-40.4262
-41.0292
-41.633
-42.2333
-42.8332
-43.4322
-44.0292
-44.625
-45.2182
-45.813
-46.4025
-46.9927
-47.581
-48.1682
-48.7541
-49.3361
-49.9191
-50.4973
-51.0764
-51.6528
-52.2288
-52.8039
-53.3748
-53.9482
-54.5157
-55.0862
-55.6523
-56.2171
-56.7827
-57.3434
-57.9075
-58.4651
-59.0251
-59.5822
-60.1374
-60.6951
-61.2483
-61.8032
-62.354
-62.906
-63.4582
-64.0066
-64.5579
-65.1046
-65.6534
-66.202
-66.7478
-67.2983
-67.8451
-68.3976
-68.9482
-69.4993
-70.053
-70.6029
-71.1561
-71.7059
-72.2563
-72.8061
-73.3529
-73.9013
-74.4437
-74.9827
-75.5125
-76.0102
-76.4615
-14.2897
-15.0353
-15.9993
-16.9833
-18.0182
-19.1037
-20.1997
-21.2634
-22.2765
-23.2387
-24.1502
-25.0075
-25.8122
-26.5703
-27.2886
-27.9796
-28.6472
-29.2998
-29.9433
-30.582
-31.2177
-31.8506
-32.4797
-33.1063
-33.7297
-34.3483
-34.9638
-35.5778
-36.1897
-36.7991
-37.4086
-38.0157
-38.6243
-39.2331
-39.8402
-40.4465
-41.0494
-41.6545
-42.2548
-42.8553
-43.4549
-44.0518
-44.6483
-45.241
-45.836
-46.4248
-47.0152
-47.6032
-48.1901
-48.776
-49.3577
-49.9407
-50.5185
-51.0979
-51.674
-52.25
-52.825
-53.3959
-53.9694
-54.5367
-55.1073
-55.6732
-56.2383
-56.8037
-57.3645
-57.9284
-58.4858
-59.0461
-59.6028
-60.1584
-60.7158
-61.2689
-61.8238
-62.3744
-62.9267
-63.4786
-64.0273
-64.5783
-65.1252
-65.6742
-66.2222
-66.7687
-67.3182
-67.8657
-68.4175
-68.9681
-69.5195
-70.0724
-70.6229
-71.1754
-71.7254
-72.2759
-72.8251
-73.3724
-73.92
-74.4626
-75.0007
-75.5286
-76.024
-76.4677
-14.225
-15.0377
-16.0083
-16.9907
-18.0317
-19.1218
-20.2203
-21.2854
-22.2992
-23.2614
-24.1734
-25.0303
-25.8348
-26.5916
-27.3099
-27.9999
-28.6665
-29.3182
-29.9611
-30.5993
-31.2348
-31.8674
-32.4962
-33.1231
-33.7465
-34.3657
-34.9819
-35.5965
-36.2092
-36.8192
-37.4297
-38.0373
-38.6465
-39.2553
-39.8621
-40.4682
-41.0705
-41.6757
-42.2755
-42.8759
-43.4753
-44.0719
-44.6684
-45.2606
-45.8554
-46.4441
-47.0345
-47.6223
-48.2092
-48.795
-49.3768
-49.9597
-50.5374
-51.1169
-51.6927
-52.2689
-52.8436
-53.4147
-53.988
-54.5553
-55.1259
-55.6915
-56.2569
-56.8219
-57.3829
-57.9466
-58.5039
-59.0642
-59.6206
-60.1765
-60.7336
-61.2867
-61.8414
-62.3918
-62.9441
-63.4957
-64.0444
-64.5952
-65.1421
-65.6911
-66.2391
-66.786
-67.3353
-67.8832
-68.4348
-68.9855
-69.537
-70.0895
-70.6406
-71.1925
-71.7429
-72.2931
-72.8421
-73.3898
-73.9367
-74.4797
-75.017
-75.5438
-76.0378
-76.4764
-14.1585
-15.0378
-16.0111
-16.9944
-18.0448
-19.1405
-20.2414
-21.3083
-22.3225
-23.2841
-24.1957
-25.0514
-25.8551
-26.6102
-27.3285
-28.0173
-28.6835
-29.3352
-29.9785
-30.6174
-31.254
-31.8881
-32.5182
-33.1461
-33.7695
-34.3892
-35.0054
-35.6194
-36.231
-36.84
-37.45
-38.0571
-38.666
-39.2745
-39.8811
-40.4872
-41.0894
-41.6945
-42.2942
-42.8946
-43.494
-44.0906
-44.687
-45.279
-45.8736
-46.4622
-47.0526
-47.6403
-48.2272
-48.8129
-49.3947
-49.9775
-50.5553
-51.1348
-51.7105
-52.2869
-52.8614
-53.4326
-54.0058
-54.5733
-55.1438
-55.7093
-56.2749
-56.8398
-57.401
-57.9645
-58.5221
-59.0823
-59.6387
-60.1949
-60.7517
-61.3052
-61.8597
-62.4105
-62.9628
-63.5143
-64.0637
-64.6138
-65.1615
-65.71
-66.2579
-66.8049
-67.3535
-67.9016
-68.4527
-69.0034
-69.5548
-70.1071
-70.6583
-71.2098
-71.7606
-72.3105
-72.8596
-73.4073
-73.9538
-74.497
-75.0335
-75.5595
-76.0521
-76.4874
-14.0992
-15.0438
-16.01
-16.9892
-18.0454
-19.1462
-20.2524
-21.3243
-22.3397
-23.3031
-24.2162
-25.0723
-25.8759
-26.6308
-27.3485
-28.0366
-28.7022
-29.3536
-29.9965
-30.6352
-31.2715
-31.9055
-32.5354
-33.1626
-33.7846
-34.4036
-35.0192
-35.6327
-36.2438
-36.8523
-37.4622
-38.0691
-38.6779
-39.2863
-39.8928
-40.4988
-41.1008
-41.7059
-42.3054
-42.9057
-43.505
-44.1015
-44.6978
-45.2898
-45.8843
-46.4729
-47.0632
-47.6508
-48.2376
-48.8232
-49.405
-49.9876
-50.5654
-51.1448
-51.7205
-52.2968
-52.8711
-53.4424
-54.0154
-54.5829
-55.1533
-55.7187
-56.2843
-56.849
-57.4102
-57.9736
-58.531
-59.0912
-59.6475
-60.2036
-60.7603
-61.3137
-61.8682
-62.4188
-62.971
-63.5224
-64.0716
-64.6218
-65.1693
-65.7179
-66.2659
-66.813
-67.3619
-67.9101
-68.4614
-69.0122
-69.5636
-70.116
-70.6673
-71.2187
-71.7695
-72.3194
-72.8685
-73.4162
-73.9627
-74.506
-75.0424
-75.5687
-76.0612
-76.4958
-14.0232
-15.0504
-16.0301
-17.017
-18.0771
-19.1778
-20.2847
-21.3575
-22.3709
-23.3351
-24.2496
-25.1066
-25.9102
-26.6648
-27.3815
-28.0684
-28.7327
-29.3827
-30.0244
-30.662
-31.2973
-31.9306
-32.56
-33.187
-33.8092
-34.4279
-35.0436
-35.6567
-36.2678
-36.8762
-37.4858
-38.0926
-38.7011
-39.3094
-39.9157
-40.5216
-41.1237
-41.7285
-42.3282
-42.9284
-43.5276
-44.1241
-44.7203
-45.3125
-45.9068
-46.4954
-47.0857
-47.6733
-48.2602
-48.8457
-49.4275
-50.0101
-50.588
-51.1673
-51.743
-52.3193
-52.8935
-53.4649
-54.0378
-54.6054
-55.1757
-55.7412
-56.3068
-56.8715
-57.4328
-57.9959
-58.5537
-59.1137
-59.67
-60.2263
-60.7828
-61.3365
-61.8906
-62.4415
-62.9936
-63.545
-64.0944
-64.6443
-65.1922
-65.7405
-66.2886
-66.8357
-67.3843
-67.9328
-68.4838
-69.0348
-69.586
-70.1385
-70.6897
-71.2411
-71.792
-72.3416
-72.8909
-73.4385
-73.985
-74.5283
-75.0644
-75.5905
-76.0826
-76.5165
-76.5963
-78.5941
-81.0248
-81.2102
-78.5077
-73.9772
-68.3754
-62.2014
-56.0873
-50.1072
-44.3868
-38.8812
-33.4453
-28.1564
-23.1603
-18.6162
-14.834
-11.9887
-9.90146
-8.44166
-7.29688
-6.35914
-5.61397
-5.0479
-4.62551
-4.51252
-5.00303
-5.91843
-6.80587
-7.46367
-7.265
-5.98941
-3.85994
-1.97797
-1.08042
-0.629881
-0.310902
0.0117125
0.38535
0.765799
1.16163
1.6161
2.07336
2.50075
2.89738
3.29047
3.64959
3.93586
4.14825
4.30288
4.41468
4.49145
4.53675
4.55385
4.54681
4.52122
4.48033
4.42554
4.35983
4.28603
4.20639
4.12172
4.03021
3.92778
3.81945
3.71133
3.60026
3.4878
3.38642
3.29048
3.19679
3.0933
2.98863
2.88629
2.78215
2.67727
2.57192
2.46611
2.35998
2.2536
2.14707
2.04043
1.93373
1.82698
1.7202
1.61339
1.50657
1.39973
1.29286
1.18594
1.07893
0.97179
0.864416
0.756651
0.648162
0.538558
0.426711
0.312339
0.191054
0.0698366
-76.7477
-78.1713
-80.5708
-80.8062
-78.1804
-73.736
-68.2189
-62.1149
-56.0474
-50.0937
-44.3898
-38.8964
-33.469
-28.1995
-23.2214
-18.6853
-14.9013
-12.0493
-9.9382
-8.45889
-7.29557
-6.35241
-5.61896
-5.08375
-4.70461
-4.65493
-5.30456
-6.33334
-7.28277
-7.98565
-7.78954
-6.42328
-4.07768
-2.0055
-1.01446
-0.510918
-0.179665
0.122904
0.463892
0.813445
1.18082
1.61398
2.0544
2.46522
2.85115
3.2493
3.6132
3.90364
4.12226
4.28225
4.3986
4.47745
4.52328
4.54036
4.53331
4.50774
4.46697
4.41236
4.34666
4.27281
4.19322
4.10881
4.01663
3.91419
3.8056
3.69784
3.58712
3.47562
3.37439
3.27749
3.18371
3.08075
2.97623
2.87383
2.76971
2.66473
2.55929
2.45343
2.34727
2.24087
2.13431
2.02767
1.92097
1.81422
1.70743
1.60063
1.4938
1.38697
1.28012
1.17322
1.06625
0.959167
0.851906
0.744333
0.636182
0.527139
0.416303
0.303445
0.185045
0.0666374
-76.7012
-78.1198
-80.2567
-80.3946
-77.8143
-73.4558
-68.0184
-61.9935
-55.9811
-50.0591
-44.3766
-38.9002
-33.4854
-28.2414
-23.2893
-18.7643
-14.977
-12.118
-9.97969
-8.46583
-7.28028
-6.33671
-5.60997
-5.1178
-4.79271
-4.82147
-5.62278
-6.79156
-7.80638
-8.55871
-8.36981
-6.93585
-4.32746
-2.02728
-0.929285
-0.360691
-0.0152869
0.261358
0.562633
0.875174
1.20738
1.61533
2.03482
2.42246
2.79986
3.20123
3.56941
3.86591
4.09332
4.26006
4.38149
4.46253
4.50883
4.52575
4.51857
4.49294
4.45227
4.39785
4.33217
4.25829
4.17878
4.09451
4.00171
3.89917
3.79036
3.68263
3.57266
3.46245
3.36144
3.26381
3.1684
3.06662
2.96268
2.85996
2.75588
2.65083
2.54531
2.4394
2.33319
2.22676
2.12019
2.01355
1.90684
1.80008
1.6933
1.58649
1.47967
1.37285
1.26601
1.15913
1.0522
0.945194
0.838059
0.730701
0.622927
0.514513
0.404807
0.293643
0.178444
0.063162
-76.808
-78.0786
-79.9752
-80.0156
-77.4495
-73.1558
-67.7909
-61.8563
-55.895
-50.002
-44.3477
-38.8842
-33.4914
-28.2789
-23.3625
-18.8572
-15.0666
-12.1928
-10.0297
-8.45918
-7.24508
-6.30733
-5.58378
-5.15233
-4.86814
-5.0152
-5.94828
-7.2783
-8.36437
-9.15906
-8.96734
-7.53261
-4.63573
-2.03105
-0.817935
-0.173124
0.190701
0.433872
0.685577
0.954083
1.24493
1.62102
2.01506
2.37128
2.74147
3.14367
3.51802
3.82348
4.06138
4.23641
4.36331
4.44664
4.49331
4.50992
4.50244
4.47665
4.43608
4.38188
4.31625
4.24236
4.16292
4.07872
3.98538
3.88246
3.77358
3.66574
3.55666
3.44796
3.34728
3.24919
3.15158
3.05053
2.94768
2.84468
2.74048
2.63542
2.52983
2.42385
2.3176
2.21115
2.10455
1.9979
1.89119
1.78443
1.67765
1.57084
1.46403
1.35721
1.25038
1.14353
1.03665
0.929724
0.82273
0.715613
0.60826
0.500549
0.3921
0.282829
0.171179
0.0593789
-76.8604
-78.0033
-79.6747
-79.6271
-77.0974
-72.8639
-67.5597
-61.7149
-55.7954
-49.9343
-44.3101
-38.8507
-33.4906
-28.319
-23.4341
-18.9676
-15.1836
-12.2756
-10.0926
-8.44036
-7.18759
-6.2472
-5.55072
-5.14535
-4.93345
-5.22798
-6.29067
-7.77659
-8.93726
-9.76673
-9.58519
-8.06788
-5.08538
-2.03624
-0.65939
0.0593018
0.447464
0.649314
0.837437
1.05151
1.29503
1.63089
1.995
2.31306
2.67306
3.07675
3.45962
3.77656
4.02608
4.21114
4.34389
4.42961
4.47658
4.4927
4.48476
4.45871
4.41824
4.36429
4.29875
4.22486
4.1455
4.0613
3.96758
3.86411
3.75521
3.64707
3.53868
3.43177
3.33172
3.23278
3.13326
3.03281
2.93118
2.82781
2.72344
2.61833
2.51267
2.40663
2.30033
2.19385
2.08724
1.98058
1.87386
1.7671
1.66032
1.55352
1.44671
1.3399
1.23309
1.12626
1.01943
0.912597
0.80576
0.698911
0.592027
0.485097
0.378045
0.270882
0.163158
0.0552412
-76.9038
-77.9151
-79.3454
-79.2019
-76.7161
-72.5489
-67.3287
-61.577
-55.6938
-49.8677
-44.2615
-38.8022
-33.4812
-28.3565
-23.504
-19.0935
-15.3251
-12.3726
-10.1502
-8.39429
-7.0971
-6.13464
-5.48855
-5.11003
-5.01357
-5.45166
-6.63959
-8.25805
-9.51632
-10.3675
-10.2258
-8.48742
-5.53315
-2.14383
-0.45826
0.361802
0.761502
0.91693
1.02469
1.16918
1.35646
1.64439
1.97836
2.25004
2.59386
3.0022
3.39546
3.7261
3.98769
4.18403
4.32296
4.41123
4.45843
4.47392
4.46536
4.43895
4.39858
4.34493
4.2795
4.20563
4.12631
4.04204
3.94807
3.84425
3.73526
3.6265
3.51815
3.41372
3.31425
3.21423
3.11321
3.01382
2.91271
2.80913
2.70472
2.59948
2.49369
2.38756
2.28121
2.1747
2.06807
1.9614
1.85468
1.74791
1.64113
1.53433
1.42753
1.32073
1.21394
1.10714
1.00037
0.893633
0.78697
0.680417
0.574051
0.467986
0.362479
0.257653
0.154269
0.0506818
-76.9288
-77.8071
-78.9874
-78.7398
-76.2935
-72.1968
-67.0731
-61.411
-55.5777
-49.7967
-44.1973
-38.7441
-33.4611
-28.3693
-23.5567
-19.1994
-15.4458
-12.4557
-10.17
-8.32994
-6.98681
-6.01474
-5.39712
-5.09617
-5.11705
-5.668
-6.97611
-8.69687
-10.0903
-10.9488
-10.8273
-8.93497
-5.80165
-2.3083
-0.236027
0.757263
1.1448
1.24231
1.25406
1.31097
1.43178
1.67947
1.95898
2.18274
2.50732
2.91836
3.32359
3.67035
3.94618
4.15474
4.3003
4.39129
4.43866
4.4534
4.44412
4.41724
4.37694
4.32362
4.2583
4.18442
4.10511
4.02078
3.92661
3.8225
3.71345
3.60426
3.49543
3.3932
3.2943
3.19359
3.09185
2.99284
2.89192
2.78856
2.68406
2.57866
2.47273
2.36649
2.26007
2.15351
2.04685
1.94018
1.83345
1.72668
1.61989
1.5131
1.4063
1.29951
1.19274
1.08598
0.979266
0.87264
0.766167
0.65994
0.554145
0.449031
0.345225
0.242974
0.144383
0.0456165
-76.9327
-77.6774
-78.605
-78.244
-75.8339
-71.8153
-66.7903
-61.2132
-55.4389
-49.6957
-44.0997
-38.6613
-33.4065
-28.3351
-23.5716
-19.266
-15.5492
-12.5404
-10.1798
-8.26782
-6.86003
-5.88329
-5.30716
-5.08704
-5.21505
-5.87087
-7.29055
-9.09289
-10.6222
-11.4886
-11.3559
-9.41806
-5.99879
-2.39042
0.0563984
1.24147
1.61895
1.62612
1.52756
1.4835
1.54197
1.73728
1.92358
2.10523
2.41382
2.82676
3.24676
3.60875
3.90187
4.12308
4.27587
4.36978
4.41713
4.43096
4.42086
4.39349
4.35321
4.30018
4.23494
4.16106
4.0816
3.99721
3.90291
3.7986
3.68953
3.58013
3.47105
3.36947
3.27191
3.17066
3.06873
2.96952
2.86896
2.76577
2.6611
2.55555
2.44949
2.34315
2.23666
2.13006
2.02336
1.91667
1.80993
1.70315
1.59637
1.48958
1.38278
1.27601
1.16925
1.06253
0.955889
0.849381
0.743117
0.637245
0.532072
0.427994
0.326051
0.226615
0.133323
0.039901
-76.9207
-77.532
-78.2041
-77.7154
-75.3376
-71.4028
-66.4757
-60.9897
-55.2674
-49.5467
-43.9529
-38.5216
-33.2921
-28.2786
-23.5882
-19.3391
-15.6649
-12.6303
-10.1771
-8.18679
-6.72895
-5.75185
-5.22141
-5.08516
-5.31671
-6.05924
-7.55443
-9.43611
-11.076
-11.9638
-11.7929
-9.83625
-6.17627
-2.39212
0.431414
1.8073
2.18563
2.0692
1.83884
1.69641
1.68947
1.78708
1.88497
2.02821
2.3206
2.7368
3.16854
3.54532
3.85631
4.08966
4.24952
4.34655
4.39383
4.40659
4.39553
4.3675
4.32716
4.27427
4.20901
4.13518
4.05561
3.97119
3.87678
3.77222
3.6632
3.55377
3.44482
3.3427
3.24687
3.14526
3.04325
2.94372
2.84356
2.74051
2.63566
2.52994
2.42375
2.31732
2.21076
2.10411
1.99736
1.89067
1.78391
1.67713
1.57034
1.46355
1.35677
1.25
1.14326
1.03659
0.930018
0.823639
0.717599
0.612109
0.507608
0.404647
0.30473
0.208335
0.120913
0.0333663
-76.8944
-77.3737
-77.7907
-77.1582
-74.8033
-70.95
-66.1186
-60.7238
-55.0632
-49.3782
-43.7941
-38.3702
-33.1659
-28.2286
-23.6136
-19.4188
-15.7683
-12.703
-10.1601
-8.10065
-6.60373
-5.6411
-5.17146
-5.12066
-5.43348
-6.23788
-7.75813
-9.71146
-11.4394
-12.3432
-12.1104
-10.1014
-6.31138
-2.31688
0.8224
2.41375
2.79404
2.55975
2.20074
1.93828
1.8321
1.82204
1.85387
1.96135
2.2379
2.65617
3.09143
3.4786
3.80854
4.05727
4.2236
4.32239
4.36885
4.3801
4.36808
4.33942
4.29886
4.24568
4.18038
4.1067
4.02672
3.94218
3.84791
3.74312
3.63419
3.52486
3.41633
3.31363
3.21815
3.11716
3.01511
2.91524
2.81534
2.71247
2.60742
2.50152
2.39519
2.28865
2.18203
2.07533
1.96855
1.86185
1.75508
1.64829
1.5415
1.43471
1.32794
1.22118
1.11447
1.00784
0.901342
0.795099
0.689299
0.584214
0.480428
0.378651
0.280917
0.187753
0.106854
0.025681
-76.8585
-77.2164
-77.4073
-76.6358
-74.2932
-70.517
-65.7743
-60.4592
-54.8676
-49.2182
-43.6476
-38.2355
-33.0626
-28.1853
-23.6281
-19.4786
-15.8417
-12.7425
-10.134
-8.02923
-6.50622
-5.56526
-5.16148
-5.18713
-5.55656
-6.40402
-7.92956
-9.89901
-11.6791
-12.5725
-12.2676
-10.1904
-6.34601
-2.17628
1.16715
2.93632
3.33315
3.02237
2.54763
2.13171
1.92981
1.85092
1.83216
1.90894
2.17301
2.59145
3.02825
3.42063
3.75821
4.02022
4.19839
4.29955
4.3446
4.35395
4.33982
4.31004
4.26905
4.21545
4.15021
4.0769
3.99637
3.91181
3.81757
3.71262
3.60366
3.49455
3.3867
3.28418
3.1869
3.08743
2.98564
2.8855
2.78566
2.68295
2.57775
2.47168
2.36522
2.25857
2.15187
2.04513
1.93845
1.83159
1.72481
1.61801
1.51122
1.40443
1.29766
1.19092
1.08423
0.977641
0.87122
0.765113
0.65955
0.554864
0.451789
0.351176
0.255646
0.165653
0.0916672
0.0168753
-76.8234
-77.0855
-77.1039
-76.2177
-73.8801
-70.1674
-65.4963
-60.2477
-54.7046
-49.0771
-43.5144
-38.1136
-32.9689
-28.1416
-23.6387
-19.5241
-15.8863
-12.7569
-10.114
-7.97608
-6.43917
-5.52958
-5.18141
-5.26066
-5.68354
-6.55628
-8.06928
-10.0086
-11.794
-12.6623
-12.2802
-10.1432
-6.27647
-2.01702
1.42168
3.28993
3.70171
3.34951
2.79855
2.25451
1.99114
1.87132
1.81879
1.87596
2.13106
2.54825
2.97883
3.37667
3.71904
3.98768
4.17375
4.27771
4.3225
4.33053
4.31433
4.28316
4.24136
4.18795
4.12274
4.04862
3.96696
3.88204
3.78837
3.68386
3.57471
3.46581
3.35883
3.25611
3.15732
3.05903
2.95765
2.85736
2.75744
2.65473
2.54943
2.4432
2.33662
2.22987
2.12313
2.01635
1.90963
1.80278
1.69598
1.58917
1.48238
1.37559
1.26883
1.1621
1.05543
0.94888
0.842522
0.736531
0.631178
0.526841
0.424392
0.324791
0.231258
0.143987
0.0766726
0.00742449
-76.7954
-76.989
-76.8838
-75.9116
-73.5737
-69.9058
-65.2863
-60.0842
-54.5748
-48.9652
-43.4095
-38.0192
-32.8988
-28.1114
-23.6514
-19.5526
-15.9072
-12.7621
-10.0996
-7.93964
-6.40414
-5.52851
-5.22442
-5.35018
-5.80911
-6.69721
-8.17944
-10.0769
-11.8383
-12.6781
-12.2132
-10.0299
-6.15428
-1.87442
1.587
3.48899
3.90739
3.53635
2.94866
2.34509
2.03066
1.88363
1.81211
1.85858
2.10694
2.51674
2.93794
3.3429
3.69232
3.96482
4.15213
4.2571
4.30157
4.30853
4.2914
4.25928
4.21659
4.1635
4.09868
4.02402
3.94245
3.85612
3.76224
3.65795
3.54876
3.43999
3.33344
3.23022
3.13127
3.03335
2.93232
2.83191
2.73187
2.62914
2.52382
2.41753
2.31083
2.204
2.09719
1.99037
1.88361
1.77678
1.66994
1.56315
1.45634
1.34957
1.24279
1.13609
1.02944
0.922908
0.816609
0.71071
0.605528
0.501475
0.399541
0.30076
0.208923
0.12379
0.0625817
-0.00222543
-76.7767
-76.9213
-76.7287
-75.6935
-73.3532
-69.7172
-65.1353
-59.9667
-54.4819
-48.8857
-43.3352
-37.9528
-32.8515
-28.0968
-23.6691
-19.5776
-15.9248
-12.7705
-10.0923
-7.92291
-6.39919
-5.55517
-5.2887
-5.45269
-5.9324
-6.81893
-8.27052
-10.1319
-11.8585
-12.6684
-12.1252
-9.89845
-6.02114
-1.75756
1.68638
3.5862
4.01307
3.64109
3.03706
2.41901
2.05532
1.88613
1.80389
1.846
2.09039
2.48832
2.91062
3.31913
3.66946
3.9429
4.13139
4.23727
4.28178