/*--------------------------------*- C++ -*----------------------------------*\
| =========                 |                                                 |
| \\      /  F ield         | OpenFOAM: The Open Source CFD Toolbox           |
|  \\    /   O peration     | Version:  v2012                                 |
|   \\  /    A nd           | Website:  www.openfoam.com                      |
|    \\/     M anipulation  |                                                 |
\*---------------------------------------------------------------------------*/
FoamFile
{
    version     2.0;
    format      ascii;
    class       vectorField;
    location    "0.04/lagrangian/kinematicCloud";
    object      U;
}
// * * * * * * * * * * * * * * * * * * * * * * * * * * * * * * * * * * * * * //


43
(
(20.7069 -0.48977 0)
(22.707 -0.345161 0)
(23.3205 -0.244869 0)
(22.2789 -0.439858 0)
(22.4923 -0.141459 0)
(23.7031 -0.261089 0)
(19.0621 -0.246325 0)
(22.6852 -0.174901 0)
(22.3359 -0.134933 0)
(23.5545 -0.147425 0)
(23.3548 -0.135562 0)
(22.126 -0.124989 0)
(7.72958 -0.00546685 0)
(14.7538 -0.450781 0)
(15.9843 -0.0334879 0)
(22.8205 -0.201252 0)
(20.5673 -0.324225 0)
(20.629 -0.0581356 0)
(21.4348 -0.280816 0)
(21.8685 -0.0908005 0)
(22.0185 -0.119879 0)
(13.5792 -0.0230377 0)
(21.5138 -0.109871 0)
(20.6329 -0.300702 0)
(21.3713 -0.245796 0)
(21.0577 -0.110208 0)
(20.4689 -0.288392 0)
(20.6971 -0.091027 0)
(16.7517 -0.330366 0)
(20.1943 -0.0687507 0)
(12.4776 -0.189889 0)
(18.5092 -0.253985 0)
(12.3912 -0.00618164 0)
(18.7493 -0.0704546 0)
(18.7395 -0.104664 0)
(18.0815 -0.0297353 0)
(17.3348 -0.00721541 0)
(16.4921 0.00286477 0)
(15.6068 -0.00239725 0)
(11.0691 0.000607648 0)
(13.6944 0.00144383 0)
(12.6541 -0.000644256 0)
(11.5509 0.000538175 0)
)


// ************************************************************************* //
