/*--------------------------------*- C++ -*----------------------------------*\
| =========                 |                                                 |
| \\      /  F ield         | OpenFOAM: The Open Source CFD Toolbox           |
|  \\    /   O peration     | Version:  v2012                                 |
|   \\  /    A nd           | Website:  www.openfoam.com                      |
|    \\/     M anipulation  |                                                 |
\*---------------------------------------------------------------------------*/
FoamFile
{
    version     2.0;
    format      ascii;
    class       volScalarField;
    location    "0.367";
    object      epsilon.air;
}
// * * * * * * * * * * * * * * * * * * * * * * * * * * * * * * * * * * * * * //

dimensions      [0 2 -3 0 0 0 0];


internalField   nonuniform List<scalar> 
1900
(
112.724
141.424
210.097
257.591
369.051
443.457
614.74
724.902
971.325
1128.61
15.4676
16.4471
18.6374
20.4504
23.7569
27.7282
31.9999
39.3103
44.9856
56.9847
14.7926
14.6415
14.5755
14.5063
14.515
14.5559
14.6443
14.8291
15.0762
15.4176
14.77
14.6304
14.4634
14.3354
14.1726
14.059
13.904
13.8079
13.6654
13.5937
14.7766
14.6216
14.4704
14.3205
14.1747
14.029
13.8889
13.7473
13.6138
13.477
14.7777
14.6206
14.4713
14.3197
14.1753
14.0285
13.8891
13.7473
13.6133
13.4774
14.7776
14.6208
14.473
14.3236
14.184
14.045
13.9175
13.7915
13.6807
13.5716
14.7756
14.6502
14.5637
14.5034
14.511
14.55
14.6402
14.8186
15.0459
15.3947
15.2063
16.6078
18.2727
20.6818
23.5943
27.5692
32.2721
38.3959
45.5786
54.8004
105.863
146.669
198.3
265.852
349.973
456.112
585.648
743.693
931.835
1154.03
4102.07
15200.7
19565
22425.5
21096.2
18016.2
15091.9
12806.8
11310.4
10390.4
9886.36
9705.91
9526.45
9255.68
8849.24
8351.09
7796.69
7210.2
6644.51
6126.59
5649.55
5222.39
4837.9
4486.99
4167.6
3877.99
3615.38
3377.93
3162.28
2966.59
2788.44
2625.84
2477.06
2340.57
2215.16
2099.69
1993.2
1894.78
1803.66
1719.13
1640.61
1567.54
1499.46
1435.91
1376.52
1320.91
1268.79
1219.85
1173.81
1130.41
1089.45
1050.71
1014.02
979.208
946.136
914.662
884.685
856.078
828.772
802.646
777.661
753.697
730.744
708.674
687.514
667.117
647.557
628.659
610.547
593.01
576.225
559.928
544.366
529.2
514.761
500.617
487.207
473.977
461.509
449.095
437.5
425.816
415.045
404.023
394.047
383.624
374.43
364.545
356.127
346.712
339.07
330.04
323.182
314.433
308.376
299.784
294.557
285.981
281.606
271.288
113.051
337.842
517.707
921.706
1124.22
1149.92
1122.59
1059.57
1053.76
1093.01
1197.93
1411.13
1697.74
2028.37
2378.41
2692.01
2970.9
3202.61
3357.33
3434.02
3426.19
3387.2
3301.17
3183.76
3055.88
2924.67
2793.94
2667.51
2544.06
2426.7
2314.59
2207.57
2106.17
2010.21
1919.81
1834.7
1754.76
1679.48
1608.63
1541.9
1479.03
1419.73
1363.8
1310.98
1261.09
1213.9
1169.26
1126.97
1086.86
1048.77
1012.54
978.038
945.128
913.689
883.625
854.829
827.235
800.746
775.323
750.874
727.386
704.763
683.016
662.037
641.866
622.374
603.642
585.511
568.108
551.236
535.072
519.37
504.368
489.751
475.834
462.215
449.306
436.591
424.612
412.709
401.594
390.42
380.117
369.6
360.077
350.154
341.393
332.002
323.994
315.065
307.809
299.261
292.761
284.493
278.762
270.656
265.719
257.642
253.525
243.828
16.4241
19.8715
22.8824
29.0845
34.7753
38.7325
41.7094
43.7973
46.7465
50.7659
58.813
71.061
95.7366
130.336
189.693
267.325
374.225
508.97
665.759
836.211
1004.66
1161.92
1301.04
1417.75
1508.81
1572.36
1610.78
1628.75
1626.28
1615.67
1592.84
1562.38
1527.81
1490.35
1451.61
1411.72
1371.82
1331.51
1291.71
1252.57
1214.16
1176.61
1140.07
1104.58
1070.2
1036.87
1004.69
973.574
943.519
914.497
886.464
859.365
833.161
807.793
783.239
759.442
736.398
714.049
692.411
671.428
651.128
631.451
612.438
594.008
576.224
558.98
542.367
526.246
510.747
495.689
481.251
467.197
453.771
440.666
428.199
415.977
404.411
392.997
382.266
371.579
361.626
351.592
342.369
332.921
324.398
315.477
307.635
299.183
292.015
283.973
277.478
269.773
263.955
256.499
251.367
244.06
239.633
232.359
228.66
219.935
13.4532
13.4608
13.5467
13.803
14.3339
15.0057
15.7152
16.3367
16.9212
17.342
17.8993
18.3648
19.3181
20.4891
22.77
26.215
31.8013
40.7972
54.7288
76.0607
106.345
146.845
198.272
259.78
329.317
404.27
479.875
554.12
621.957
684.092
737.475
781.434
815.948
841.284
859.121
869.891
875.186
874.598
871.897
865.951
857.27
846.659
834.669
821.347
807.098
792.002
776.397
760.197
743.746
727.134
710.392
693.593
676.815
660.09
643.495
627.016
610.748
594.669
578.877
563.331
548.132
533.237
518.73
504.557
490.809
477.403
464.442
451.798
439.609
427.704
416.272
405.077
394.381
383.868
373.88
364.013
354.697
345.416
336.725
327.979
319.882
311.617
304.079
296.243
289.244
281.792
275.32
268.212
262.272
255.468
250.061
243.504
238.636
232.263
227.946
221.683
217.935
211.698
208.534
201.05
13.3298
13.159
13.0628
13.117
13.3054
13.7164
14.2832
14.9065
15.4435
15.8791
16.208
16.4394
16.6235
16.7659
16.9163
17.0844
17.3479
17.7223
18.3289
19.2914
20.832
23.2305
26.7389
32.0545
39.6141
50.4235
64.7515
83.3679
106.192
133.417
164.279
197.84
233.192
268.723
303.771
336.648
367.502
395.315
419.971
441.095
458.812
473.092
484.444
492.883
498.859
502.528
504.36
504.092
502.95
500.445
496.679
491.986
486.542
480.428
473.789
466.68
459.264
451.523
443.646
435.561
427.48
419.294
411.163
403.066
395.101
387.203
379.459
371.769
364.265
356.805
349.574
342.354
335.421
328.447
321.824
315.104
308.794
302.331
296.337
290.106
284.412
278.384
272.981
267.135
262.025
256.342
251.534
246.001
241.501
236.093
231.928
226.636
222.831
217.628
214.207
209.058
206.041
200.905
198.31
192.133
13.325
13.1543
13.0318
13.0866
13.2958
13.7721
14.4969
15.4818
16.5007
17.5983
18.5938
19.5234
20.2679
20.8777
21.3001
21.606
21.7765
21.8469
21.8318
21.7869
21.694
21.6015
21.5317
21.5573
21.6634
21.9215
22.4507
23.3639
24.8039
27.0074
30.2271
34.6982
40.7475
48.4408
57.9583
69.2761
82.4179
97.0781
113.128
130.031
147.531
165.043
182.34
198.971
214.749
229.352
242.785
254.846
265.647
275.207
283.563
290.812
297.029
302.326
306.757
310.4
313.355
315.618
317.342
318.418
319.148
319.156
318.951
318.425
317.395
316.012
314.334
312.364
310.188
307.755
305.185
302.369
299.506
296.355
293.315
289.897
286.719
283.105
279.836
276.073
272.749
268.86
265.519
261.528
258.207
254.134
250.87
246.738
243.575
239.407
236.383
232.194
229.348
225.149
222.517
218.313
215.928
211.724
209.614
204.559
13.4657
13.3602
13.4098
13.6562
14.3041
15.6864
18.0265
21.4292
25.3966
29.6967
33.6078
37.0851
39.6263
41.5484
42.611
43.3385
43.367
43.2339
42.8869
42.3878
41.7806
41.1596
40.4973
39.8991
39.3597
38.8914
38.515
38.2281
38.1081
38.1606
38.3345
38.7247
39.3251
40.2594
41.5617
43.2727
45.5982
48.4916
52.2682
56.8615
62.5968
69.4185
77.5093
86.8267
97.3773
109.093
121.783
135.355
149.491
164.095
178.793
193.493
207.849
221.825
235.147
247.839
259.689
270.755
280.896
290.173
298.539
306.039
312.659
318.485
323.501
327.752
331.27
334.08
336.219
337.827
338.808
339.347
339.276
338.951
338.295
337
335.827
333.902
332.292
329.878
327.915
325.098
322.874
319.73
317.323
313.911
311.386
307.762
305.185
301.407
298.847
294.966
292.482
288.543
286.189
282.232
280.055
276.122
274.18
269.544
15.9101
16.8587
18.5483
21.9325
28.4115
39.4902
55.4365
74.9768
95.4291
114.229
129.242
140.192
146.561
150.08
150.752
150.356
149.298
147.635
146.132
145.145
144.499
144.668
145.29
146.742
149.006
152.3
156.205
161.172
166.93
173.896
181.647
190.612
200.443
211.423
223.487
236.499
250.763
265.713
281.76
298.249
315.571
333.241
351.317
369.459
387.457
405.261
422.56
439.514
455.804
471.577
486.565
500.866
514.291
527.023
538.863
550.033
560.253
569.73
578.215
585.817
592.458
598.163
602.964
606.787
609.738
611.685
612.892
612.879
612.456
611.399
609.492
606.996
604.059
600.501
596.881
592.515
588.497
583.579
579.288
574.04
569.583
564.094
559.573
553.926
549.42
543.67
539.237
533.434
529.145
523.349
519.279
513.543
509.751
504.113
500.648
495.139
492.058
486.705
484.112
478.074
68.044
90.4297
126.233
184.916
271.974
385.084
511.453
635.568
744.874
831.688
892.575
932.618
953.58
963.349
964.569
963.486
960.927
957.104
956.334
957.542
960.637
966.176
974.753
986.657
1000.64
1016.7
1034.83
1055.17
1077.53
1101.37
1126.32
1152.24
1178.81
1205.9
1233.22
1260.09
1286.68
1311.94
1336.45
1359.35
1381.2
1401.34
1420.12
1437.27
1452.89
1467.05
1479.72
1491.18
1501.25
1510.12
1517.66
1523.87
1528.77
1532.33
1534.69
1535.56
1535.18
1533.91
1531.25
1527.16
1522.3
1516.06
1509.43
1501.37
1493.03
1483.51
1473.31
1462.44
1451.17
1439.18
1427.06
1414.16
1401.48
1387.96
1375.11
1361.36
1348.6
1334.94
1322.49
1309.07
1297.08
1283.99
1272.55
1259.86
1249.07
1236.81
1226.7
1214.9
1205.55
1194.23
1185.7
1174.86
1167.21
1156.8
1150.04
1140.05
1134.22
1124.61
1119.9
1109.33
1464.71
1897.22
2399.04
2961.95
3563.12
4171.89
4746.05
5251.13
5655.24
5950.76
6132.48
6219.52
6206.93
6160.01
6061.1
5927.87
5777.68
5619.28
5459.25
5301.6
5149.45
5004.56
4867.78
4739.81
4620.66
4510.61
4409.11
4316.1
4231.05
4153.76
4083.64
4020.34
3963.19
3912
3866.33
3825.78
3790.07
3758.53
3731.2
3707.43
3687.39
3670.22
3655.94
3643.8
3633.89
3625.59
3618.87
3613.27
3608.79
3605.16
3602.35
3600.2
3598.74
3597.83
3597.82
3598.07
3598.77
3599.91
3601.38
3602.71
3604.46
3605.71
3607.31
3608.31
3609.42
3609.99
3610.29
3610.2
3609.83
3608.92
3607.75
3605.42
3603.11
3599.16
3595.44
3589.83
3584.69
3577.51
3571.05
3562.46
3554.92
3545.18
3536.81
3526.09
3517.08
3505.45
3495.88
3483.32
3473.29
3459.77
3449.44
3434.96
3424.59
3409.14
3399.11
3382.68
3373.32
3355.97
3347.16
3325.1
1109.36
1064.69
1122.19
1210.08
1238.82
1121.17
818.476
1979.86
54645.3
16136.8
7359.09
6109.27
6235.14
6485.51
6556.27
8030.38
74285.4
43682.3
24864.6
18479.5
16107.9
15005.1
14632.2
19678.5
76413.4
71050.5
54282
41217.5
32699.3
27164.2
24548.7
34070.9
69724.6
75706.7
67751.5
55651.8
44565.8
35839.5
30859.4
42696.2
57757.7
71171.2
67936.8
59030.6
48367.1
38725.5
32775.8
45211.1
47496.4
61829.4
62481.2
56602.3
47157.1
38170.5
32446.6
44229.4
39102.9
51822.7
53582.9
49833.3
42391.7
34675
29592.9
39762.5
32639.4
42994.4
44922.7
42134.3
36304.4
30047
25828.2
34054.8
27614.6
35629.3
37262.8
35120.6
30549.7
25565
22233.9
29393.7
23492.8
29590.9
30830.8
29130
25540.4
21642.8
19169.5
26036.9
20108.7
24699.3
25580.3
24191.3
21348.5
18306.9
16504.8
22997.8
17369
20784.2
21373.2
20215.4
17944.9
15561.6
14271.7
20374.2
15136.3
17658.6
18025.3
17045.3
15216.4
13335.3
12431
18162.6
13287.2
15148.5
15355.3
14519
13032.2
11536.9
10925.1
16325.6
11727.3
13107.7
13205.3
12488.5
11270.5
10075.6
9688.21
14797.4
10405
11436.8
11461.2
10844.4
9839.16
8880.09
8666.37
13522
9267.23
10050.4
10030.9
9497.66
8663.66
7892.25
7814.95
12450
8286.08
8889.42
8845.3
8382.86
7687.88
7067.61
7097.71
11540.1
7443.43
7911.96
7853.43
7451.74
6870.12
6372.47
6486.38
10760.8
6716.65
7083.74
7017.31
6667.63
6178.85
5781.06
5962.2
10087.2
6090.03
6378.61
6308.16
6002.72
5590.22
5274.05
5509.34
9499.75
5547.59
5774.95
5703.06
5435.34
5085.9
4836.79
5115.77
8984.43
5073.71
5253.97
5182.77
4947.58
4650.89
4457.44
4771.96
8530.09
4657.43
4801.36
4732.31
4525.36
4273.21
4126.38
4470.08
8127.53
4290.17
4405.92
4340.01
4157.74
3943.45
3835.98
4203.78
7769.46
3964.75
4058.52
3996.38
3835.79
3653.94
3579.92
3967.73
7449.59
3675.66
3752.02
3693.93
3552.43
3398.51
3353.08
3757.58
7162.58
3417.64
3480.24
3426.37
3301.76
3172.04
3151.2
3569.76
6904.24
3186.74
3238.34
3188.64
3079
2970.38
2970.91
3401.3
6671.15
2979.25
3022.07
2976.51
2880.23
2790.14
2808.89
3249.87
6460.38
2792.14
2827.93
2786.4
2702.06
2628.29
2662.96
3113.15
6269.39
2622.8
2652.97
2615.32
2541.72
2482.38
2531.09
2989.31
6095.93
2468.98
2494.68
2460.75
2396.86
2350.35
2411.51
2876.76
5938.01
2328.85
2350.99
2320.62
2265.5
2230.45
2302.7
2774.15
5793.83
2200.83
2220.13
2193.15
2145.99
2121.22
2203.4
2680.32
5661.77
2083.58
2100.62
2076.87
2036.92
2021.41
2112.49
2594.27
5540.41
1975.92
1991.2
1970.5
1937.12
1929.95
2029.05
2515.14
5428.52
1876.86
1890.77
1872.97
1845.58
1845.98
1952.29
2442.22
5325.09
1785.5
1798.39
1783.33
1761.45
1768.59
1881.58
2374.91
5229.25
1701.09
1713.25
1700.79
1683.95
1697.21
1816.29
2312.68
5140.33
1622.96
1634.61
1624.63
1612.41
1631.26
1755.89
2255.08
5057.77
1550.51
1561.85
1554.21
1546.26
1570.23
1699.94
2201.71
4981.12
1483.2
1494.4
1488.97
1484.96
1513.64
1648.04
2152.22
4909.99
1420.57
1431.74
1428.42
1428.08
1461.09
1599.8
2106.28
4844.03
1362.17
1373.43
1372.12
1375.13
1412.21
1554.92
2063.61
4782.91
1307.63
1319.06
1319.65
1325.78
1366.66
1513.08
2023.94
4726.3
1256.6
1268.26
1270.66
1279.71
1324.12
1474.02
1987
4673.87
1208.75
1220.7
1224.83
1236.62
1284.32
1437.48
1952.54
4625.22
1163.81
1176.09
1181.87
1196.23
1247.01
1403.25
1920.37
4580.03
1121.52
1134.17
1141.52
1158.31
1211.97
1371.09
1890.24
4537.93
1081.65
1094.72
1103.57
1122.64
1179.01
1340.86
1862
4498.6
1044
1057.52
1067.82
1089.03
1147.94
1312.37
1835.46
4461.71
1008.4
1022.39
1034.07
1057.32
1118.62
1285.49
1810.48
4426.98
974.675
989.167
1002.18
1027.35
1090.9
1260.07
1786.91
4394.19
942.682
957.698
971.999
998.981
1064.67
1236.02
1764.66
4363.14
912.302
927.861
943.4
972.105
1039.8
1213.22
1743.61
4333.72
883.396
899.514
916.251
946.596
1016.19
1191.59
1723.69
4305.75
855.881
872.57
890.462
922.369
993.77
1171.05
1704.81
4279.24
829.625
846.895
865.906
899.306
972.427
1151.51
1686.91
4254.02
804.577
822.434
842.529
877.356
952.114
1132.92
1669.95
4230.21
780.606
799.055
820.201
856.398
932.725
1115.2
1653.84
4207.57
757.696
776.74
798.906
836.419
914.248
1098.33
1638.58
4186.31
735.708
755.345
778.503
817.285
896.562
1082.21
1624.08
4166.1
714.667
734.896
759.021
799.025
879.697
1066.86
1610.36
4147.23
694.414
715.231
740.296
781.484
863.506
1052.16
1597.3
4129.24
675.023
696.427
722.408
764.744
848.066
1038.17
1584.96
4112.54
656.309
678.289
705.162
748.609
833.194
1024.74
1573.2
4096.52
638.398
660.95
688.693
733.217
819.025
1011.96
1562.1
4081.73
621.064
644.17
672.753
718.318
805.315
999.634
1551.48
4067.39
604.492
628.147
657.55
704.127
792.277
987.942
1541.48
4054.25
588.398
612.576
642.762
690.308
779.577
976.574
1531.83
4041.27
573.043
597.736
628.687
677.179
767.538
965.836
1522.81
4029.55
558.061
583.233
614.903
664.289
755.692
955.267
1513.95
4017.61
543.809
569.453
601.83
652.094
744.525
945.358
1505.76
4007.08
529.816
555.886
588.911
639.99
733.383
935.425
1497.49
3995.83
516.559
543.053
576.724
628.616
722.975
926.232
1490.02
3986.3
503.438
530.3
564.544
617.165
712.401
916.782
1482.17
3975.4
491.088
518.324
553.153
606.523
702.667
908.22
1475.31
3966.71
478.738
506.281
541.607
595.618
692.541
899.117
1467.69
3955.82
467.226
495.095
530.949
585.651
683.428
891.14
1461.41
3947.84
455.562
483.68
519.955
575.208
673.662
882.273
1453.85
3936.69
444.843
473.245
509.996
565.887
665.148
874.866
1448.15
3929.31
433.8
462.395
499.496
555.85
655.682
866.166
1440.56
3917.78
423.851
452.692
490.222
547.166
647.767
859.333
1435.44
3910.96
413.373
442.358
480.173
537.502
638.575
850.783
1427.8
3899.12
404.183
433.38
471.583
529.458
631.263
844.53
1423.24
3892.81
394.215
423.515
461.95
520.145
622.347
836.159
1415.65
3880.92
385.784
415.265
454.047
512.745
615.642
830.484
1411.63
3875.08
376.262
405.814
444.787
503.763
607.011
822.35
1404.23
3863.51
368.594
398.298
437.58
497.017
600.918
817.251
1400.71
3858.09
359.437
389.189
428.637
488.329
592.569
809.402
1393.67
3847.16
352.541
382.418
422.135
482.241
587.088
804.864
1390.54
3842.19
343.651
373.56
413.433
473.798
579.01
797.355
1384.09
3832.12
337.544
367.55
407.647
468.37
574.121
793.333
1381.32
3827.6
328.801
358.833
399.092
460.098
566.279
786.187
1375.48
3818.51
323.512
353.606
394.034
455.323
561.948
782.596
1372.97
3814.2
314.779
344.902
385.508
447.124
554.272
775.792
1367.7
3806.21
310.323
340.462
381.167
442.97
550.428
772.495
1365.34
3802.25
299.778
329.913
370.79
432.947
541.012
764.161
1358.78
3793.36
)
;

boundaryField
{
    frontAndBack
    {
        type            empty;
    }
    inlet
    {
        type            fixedValue;
        value           uniform 14.855;
    }
    outlet
    {
        type            zeroGradient;
    }
    walls
    {
        lowReCorrection 0;
        blending        stepwise;
        n               2;
        type            epsilonWallFunction;
        value           nonuniform List<scalar> 
228
(
112.724
141.424
210.097
257.591
369.051
443.457
614.74
724.902
971.325
1128.61
1109.36
1064.69
1122.19
1210.08
1238.82
1121.17
818.476
1979.86
1979.86
8030.38
19678.5
34070.9
42696.2
45211.1
44229.4
39762.5
34054.8
29393.7
26036.9
22997.8
20374.2
18162.6
16325.6
14797.4
13522
12450
11540.1
10760.8
10087.2
9499.75
8984.43
8530.09
8127.53
7769.46
7449.59
7162.58
6904.24
6671.15
6460.38
6269.39
6095.93
5938.01
5793.83
5661.77
5540.41
5428.52
5325.09
5229.25
5140.33
5057.77
4981.12
4909.99
4844.03
4782.91
4726.3
4673.87
4625.22
4580.03
4537.93
4498.6
4461.71
4426.98
4394.19
4363.14
4333.72
4305.75
4279.24
4254.02
4230.21
4207.57
4186.31
4166.1
4147.23
4129.24
4112.54
4096.52
4081.73
4067.39
4054.25
4041.27
4029.55
4017.61
4007.08
3995.83
3986.3
3975.4
3966.71
3955.82
3947.84
3936.69
3929.31
3917.78
3910.96
3899.12
3892.81
3880.92
3875.08
3863.51
3858.09
3847.16
3842.19
3832.12
3827.6
3818.51
3814.2
3806.21
3802.25
3793.36
105.863
146.669
198.3
265.852
349.973
456.112
585.648
743.693
931.835
1154.03
1464.71
1897.22
2399.04
2961.95
3563.12
4171.89
4746.05
5251.13
5655.24
5950.76
6132.48
6219.52
6206.93
6160.01
6061.1
5927.87
5777.68
5619.28
5459.25
5301.6
5149.45
5004.56
4867.78
4739.81
4620.66
4510.61
4409.11
4316.1
4231.05
4153.76
4083.64
4020.34
3963.19
3912
3866.33
3825.78
3790.07
3758.53
3731.2
3707.43
3687.39
3670.22
3655.94
3643.8
3633.89
3625.59
3618.87
3613.27
3608.79
3605.16
3602.35
3600.2
3598.74
3597.83
3597.82
3598.07
3598.77
3599.91
3601.38
3602.71
3604.46
3605.71
3607.31
3608.31
3609.42
3609.99
3610.29
3610.2
3609.83
3608.92
3607.75
3605.42
3603.11
3599.16
3595.44
3589.83
3584.69
3577.51
3571.05
3562.46
3554.92
3545.18
3536.81
3526.09
3517.08
3505.45
3495.88
3483.32
3473.29
3459.77
3449.44
3434.96
3424.59
3409.14
3399.11
3382.68
3373.32
3355.97
3347.16
3325.1
)
;
    }
}


// ************************************************************************* //
