/*--------------------------------*- C++ -*----------------------------------*\
| =========                 |                                                 |
| \\      /  F ield         | OpenFOAM: The Open Source CFD Toolbox           |
|  \\    /   O peration     | Version:  v2012                                 |
|   \\  /    A nd           | Website:  www.openfoam.com                      |
|    \\/     M anipulation  |                                                 |
\*---------------------------------------------------------------------------*/
FoamFile
{
    version     2.0;
    format      ascii;
    class       volVectorField;
    location    "0.294";
    object      U.air;
}
// * * * * * * * * * * * * * * * * * * * * * * * * * * * * * * * * * * * * * //

dimensions      [0 1 -1 0 0 0 0];


internalField   nonuniform List<vector> 
5600
(
(9.20613 0.00896195 0)
(8.83521 0.0172483 0)
(8.45627 0.0174885 0)
(8.07875 0.0144928 0)
(7.73105 0.00998278 0)
(7.42057 0.00526939 0)
(7.15473 0.000857033 0)
(6.93569 -0.0026704 0)
(6.7536 -0.00525134 0)
(6.60561 -0.00717427 0)
(6.48869 -0.00847315 0)
(6.39647 -0.00921768 0)
(6.32524 -0.00951513 0)
(6.26889 -0.00946705 0)
(6.22514 -0.00919397 0)
(6.18932 -0.00879098 0)
(6.1606 -0.00834064 0)
(6.13591 -0.0078803 0)
(6.11542 -0.00748075 0)
(6.09703 -0.007221 0)
(6.08189 -0.00699326 0)
(6.06799 -0.00681009 0)
(6.05725 -0.00671198 0)
(6.04742 -0.0066196 0)
(6.0404 -0.00651763 0)
(6.03356 -0.00638385 0)
(6.0289 -0.00626639 0)
(6.02421 -0.00613903 0)
(6.0208 -0.0060187 0)
(6.01726 -0.00588183 0)
(6.01419 -0.00575112 0)
(6.01083 -0.00561694 0)
(6.0077 -0.00552184 0)
(6.0043 -0.0054489 0)
(6.00122 -0.0053851 0)
(5.99787 -0.00533102 0)
(5.9949 -0.00527853 0)
(5.99166 -0.00523261 0)
(5.98886 -0.00518715 0)
(5.98581 -0.00514584 0)
(5.98327 -0.00510487 0)
(5.98051 -0.00506361 0)
(5.97827 -0.00502046 0)
(5.9758 -0.0049883 0)
(5.97396 -0.00495597 0)
(5.97189 -0.00494001 0)
(5.97044 -0.0049306 0)
(5.96869 -0.00492916 0)
(5.96761 -0.00492461 0)
(5.96606 -0.00492214 0)
(5.96521 -0.00492684 0)
(5.964 -0.00493778 0)
(5.9633 -0.00493572 0)
(5.96227 -0.00493936 0)
(5.9618 -0.00495209 0)
(5.96098 -0.0049874 0)
(5.96077 -0.00500881 0)
(5.96018 -0.00504356 0)
(5.96019 -0.0050786 0)
(5.95996 -0.00511863 0)
(5.96016 -0.00513912 0)
(5.96011 -0.00516877 0)
(5.96059 -0.00519417 0)
(5.96072 -0.005226 0)
(5.96144 -0.00524921 0)
(5.96177 -0.0052791 0)
(5.96272 -0.00529521 0)
(5.96323 -0.00532292 0)
(5.96442 -0.00533566 0)
(5.96507 -0.0053584 0)
(5.9665 -0.00537181 0)
(5.96729 -0.00539318 0)
(5.96896 -0.0054052 0)
(5.96987 -0.00542413 0)
(5.97177 -0.00543578 0)
(5.97279 -0.00545208 0)
(5.97494 -0.00546266 0)
(5.97605 -0.00547657 0)
(5.97842 -0.00548602 0)
(5.97962 -0.00549735 0)
(5.98219 -0.00550572 0)
(5.98346 -0.0055116 0)
(5.98618 -0.00552211 0)
(5.98755 -0.00552025 0)
(5.99029 -0.00553502 0)
(5.99187 -0.00552475 0)
(5.99449 -0.00555433 0)
(5.99649 -0.00552515 0)
(5.99871 -0.00560304 0)
(6.00187 -0.00553335 0)
(6.003 -0.00563466 0)
(6.00774 -0.00551607 0)
(6.00705 -0.00565528 0)
(6.01392 -0.00544952 0)
(6.01032 -0.00577449 0)
(6.02194 -0.00540106 0)
(6.01298 -0.00593441 0)
(6.03325 -0.00659188 0)
(6.03765 -0.00350978 0)
(5.96895 -0.0149304 0)
(9.39288 0.0365656 0)
(9.38797 0.0381832 0)
(9.35656 0.0375747 0)
(9.29944 0.0376146 0)
(9.22387 0.0368833 0)
(9.1356 0.0351034 0)
(9.03686 0.0325854 0)
(8.93106 0.0296849 0)
(8.82342 0.0268046 0)
(8.71572 0.0238883 0)
(8.61174 0.0210219 0)
(8.51222 0.0184203 0)
(8.41936 0.0161284 0)
(8.33294 0.0141329 0)
(8.25434 0.012446 0)
(8.18263 0.011048 0)
(8.11848 0.0098899 0)
(8.06071 0.00894256 0)
(8.00962 0.008132 0)
(7.9643 0.00738044 0)
(7.92502 0.00673407 0)
(7.89056 0.0061564 0)
(7.86084 0.00568578 0)
(7.83314 0.00527209 0)
(7.80946 0.00488539 0)
(7.78709 0.00452981 0)
(7.76811 0.00420782 0)
(7.74934 0.00394682 0)
(7.73289 0.00371239 0)
(7.71657 0.00351922 0)
(7.70231 0.00335351 0)
(7.68811 0.00320369 0)
(7.67589 0.0030978 0)
(7.66373 0.00301254 0)
(7.65336 0.00293781 0)
(7.64295 0.0028612 0)
(7.63405 0.00279367 0)
(7.62509 0.00272098 0)
(7.61743 0.00265439 0)
(7.6097 0.00258043 0)
(7.60315 0.00250685 0)
(7.59652 0.00243139 0)
(7.59093 0.00235488 0)
(7.58528 0.00226367 0)
(7.58054 0.00217787 0)
(7.57569 0.00210919 0)
(7.57159 0.00206182 0)
(7.56735 0.00201499 0)
(7.56381 0.00197468 0)
(7.56011 0.00194716 0)
(7.55707 0.00192546 0)
(7.55389 0.0019028 0)
(7.55133 0.00188351 0)
(7.54862 0.00185793 0)
(7.54652 0.00185046 0)
(7.54428 0.00185542 0)
(7.54265 0.00185984 0)
(7.54084 0.00186716 0)
(7.53961 0.00187186 0)
(7.53823 0.0018869 0)
(7.53741 0.00189236 0)
(7.53641 0.00189309 0)
(7.53596 0.00190118 0)
(7.53531 0.00190832 0)
(7.53519 0.00191347 0)
(7.53494 0.00191681 0)
(7.53506 0.00191827 0)
(7.53511 0.00191771 0)
(7.53551 0.00191936 0)
(7.53586 0.00191484 0)
(7.53656 0.00191487 0)
(7.53717 0.00191002 0)
(7.53817 0.00190986 0)
(7.53901 0.00190683 0)
(7.54029 0.00190181 0)
(7.54134 0.00189881 0)
(7.54292 0.00189369 0)
(7.54414 0.00189075 0)
(7.54597 0.00188307 0)
(7.54732 0.00188098 0)
(7.54942 0.00187277 0)
(7.55084 0.00187339 0)
(7.55322 0.00186279 0)
(7.55466 0.00186747 0)
(7.55737 0.00185422 0)
(7.55872 0.00186186 0)
(7.56192 0.00184233 0)
(7.563 0.00185756 0)
(7.56694 0.00181597 0)
(7.56748 0.00185279 0)
(7.5724 0.0018033 0)
(7.57202 0.00184798 0)
(7.57832 0.00180259 0)
(7.57623 0.0018594 0)
(7.58562 0.00175135 0)
(7.57948 0.00185384 0)
(7.59676 0.00160377 0)
(7.5813 0.00120068 0)
(7.6187 0.00386857 0)
(7.57062 -0.0140265 0)
(9.40085 0.0229773 0)
(9.42975 0.0304776 0)
(9.46068 0.0319672 0)
(9.47753 0.0330088 0)
(9.48907 0.0320208 0)
(9.48978 0.0301467 0)
(9.48382 0.0271943 0)
(9.46898 0.0241352 0)
(9.44574 0.0213479 0)
(9.41436 0.0186663 0)
(9.37569 0.0161987 0)
(9.3302 0.0139041 0)
(9.27897 0.0119659 0)
(9.22316 0.0102948 0)
(9.16431 0.00881873 0)
(9.10376 0.00752065 0)
(9.04298 0.00633615 0)
(8.98277 0.0052551 0)
(8.92515 0.00424646 0)
(8.86992 0.00328259 0)
(8.81885 0.00241562 0)
(8.77069 0.00158871 0)
(8.72757 0.000906234 0)
(8.68713 0.000338353 0)
(8.65147 -0.000152018 0)
(8.61775 -0.000538473 0)
(8.58822 -0.000828061 0)
(8.55967 -0.000999589 0)
(8.53454 -0.00115129 0)
(8.5103 -0.00126438 0)
(8.48918 -0.00136761 0)
(8.46865 -0.00146508 0)
(8.45102 -0.001556 0)
(8.43365 -0.00163539 0)
(8.41879 -0.00171036 0)
(8.40398 -0.00177755 0)
(8.39131 -0.00183502 0)
(8.37863 -0.00188815 0)
(8.36781 -0.00193245 0)
(8.35696 -0.00197422 0)
(8.34774 -0.00201007 0)
(8.33848 -0.00203362 0)
(8.33064 -0.00205053 0)
(8.32276 -0.00205766 0)
(8.31591 -0.00205564 0)
(8.30893 -0.00207786 0)
(8.30288 -0.00210487 0)
(8.29672 -0.00213603 0)
(8.29146 -0.0021604 0)
(8.28608 -0.0021779 0)
(8.28155 -0.00218888 0)
(8.2769 -0.00220186 0)
(8.27306 -0.00220947 0)
(8.26909 -0.00221745 0)
(8.2659 -0.00224996 0)
(8.26259 -0.00230374 0)
(8.26001 -0.00234361 0)
(8.25728 -0.0023947 0)
(8.25523 -0.00245031 0)
(8.25303 -0.00250874 0)
(8.25148 -0.00254859 0)
(8.24977 -0.00259482 0)
(8.24867 -0.00263796 0)
(8.24739 -0.00268898 0)
(8.24668 -0.00273106 0)
(8.24582 -0.00277295 0)
(8.24548 -0.00280137 0)
(8.24498 -0.00284211 0)
(8.24498 -0.00287008 0)
(8.24492 -0.00290574 0)
(8.24518 -0.00293142 0)
(8.24545 -0.00296466 0)
(8.24604 -0.00298947 0)
(8.24662 -0.00302076 0)
(8.24754 -0.00304226 0)
(8.24839 -0.00307055 0)
(8.24961 -0.00308933 0)
(8.25065 -0.0031132 0)
(8.25213 -0.00312788 0)
(8.25333 -0.00315046 0)
(8.25508 -0.00316113 0)
(8.2564 -0.00318146 0)
(8.25844 -0.00318981 0)
(8.25982 -0.00320974 0)
(8.26221 -0.00321203 0)
(8.26357 -0.00324036 0)
(8.26644 -0.00323783 0)
(8.26762 -0.00327374 0)
(8.2712 -0.00327403 0)
(8.27192 -0.00330527 0)
(8.27644 -0.00329606 0)
(8.2764 -0.00332228 0)
(8.28199 -0.00329296 0)
(8.28093 -0.00336576 0)
(8.28853 -0.0033247 0)
(8.28528 -0.00354128 0)
(8.29742 -0.0034379 0)
(8.28939 -0.0045716 0)
(8.315 -0.0026146 0)
(8.30263 -0.0164668 0)
(9.39959 0.0218061 0)
(9.43086 0.0295957 0)
(9.46781 0.0303137 0)
(9.49948 0.0313247 0)
(9.52909 0.031218 0)
(9.55566 0.0300518 0)
(9.58004 0.0284846 0)
(9.5993 0.026952 0)
(9.61515 0.0255142 0)
(9.62563 0.0241761 0)
(9.63331 0.0227083 0)
(9.63468 0.0216981 0)
(9.63265 0.0205996 0)
(9.62644 0.0196123 0)
(9.61586 0.0187003 0)
(9.60083 0.0178318 0)
(9.5814 0.0169752 0)
(9.55747 0.0160822 0)
(9.52934 0.0151427 0)
(9.49712 0.0141244 0)
(9.46143 0.0130754 0)
(9.4226 0.0120256 0)
(9.3822 0.0110508 0)
(9.34074 0.0101133 0)
(9.30032 0.00923034 0)
(9.25988 0.00840995 0)
(9.22231 0.00767926 0)
(9.18611 0.00706325 0)
(9.15337 0.00649299 0)
(9.12222 0.0059926 0)
(9.09438 0.00555326 0)
(9.06775 0.00516254 0)
(9.0441 0.00480992 0)
(9.02063 0.00449842 0)
(9 0.00421397 0)
(8.97946 0.00395744 0)
(8.96156 0.00371968 0)
(8.94372 0.0034998 0)
(8.92829 0.0032922 0)
(8.91291 0.00309816 0)
(8.89971 0.0029081 0)
(8.88659 0.00273652 0)
(8.87529 0.00256686 0)
(8.86396 0.00242189 0)
(8.8542 0.00229766 0)
(8.84438 0.0021578 0)
(8.8359 0.00201941 0)
(8.82735 0.00187986 0)
(8.82002 0.00174965 0)
(8.81259 0.00161743 0)
(8.80629 0.00148751 0)
(8.79989 0.00135306 0)
(8.79452 0.00122715 0)
(8.78906 0.00109469 0)
(8.78455 0.000956932 0)
(8.77994 0.000830043 0)
(8.77621 0.00072635 0)
(8.77234 0.000623733 0)
(8.76925 0.000543963 0)
(8.76602 0.000463249 0)
(8.76353 0.000385628 0)
(8.76088 0.000307552 0)
(8.7589 0.000253114 0)
(8.75677 0.000196665 0)
(8.75527 0.000140054 0)
(8.75361 8.25462e-05 0)
(8.75256 3.02434e-05 0)
(8.75135 -2.80921e-05 0)
(8.75072 -8.2566e-05 0)
(8.74997 -0.000137992 0)
(8.74972 -0.000183075 0)
(8.74942 -0.000243856 0)
(8.7495 -0.00028568 0)
(8.7496 -0.000338007 0)
(8.74999 -0.000386596 0)
(8.75044 -0.000431814 0)
(8.7511 -0.000468977 0)
(8.75176 -0.000508826 0)
(8.75266 -0.000546542 0)
(8.75354 -0.000582813 0)
(8.75471 -0.000616113 0)
(8.7558 -0.000648628 0)
(8.75722 -0.000680506 0)
(8.75852 -0.000711844 0)
(8.7602 -0.000733903 0)
(8.76169 -0.000779876 0)
(8.76365 -0.000795231 0)
(8.76532 -0.000850707 0)
(8.76758 -0.000868684 0)
(8.76938 -0.000917918 0)
(8.77187 -0.000919402 0)
(8.77388 -0.000963724 0)
(8.7765 -0.000933571 0)
(8.77885 -0.00104912 0)
(8.78156 -0.00100155 0)
(8.78441 -0.0013329 0)
(8.78765 -0.00119504 0)
(8.79133 -0.00295497 0)
(8.79896 -0.000244573 0)
(8.80996 -0.0179365 0)
(9.39775 0.0183325 0)
(9.42814 0.0258224 0)
(9.46484 0.0260959 0)
(9.49897 0.0271391 0)
(9.53096 0.0271886 0)
(9.56241 0.02629 0)
(9.59284 0.0248754 0)
(9.62065 0.0232803 0)
(9.64594 0.0217728 0)
(9.669 0.0202663 0)
(9.68987 0.0189393 0)
(9.70857 0.0176984 0)
(9.72517 0.0166369 0)
(9.73983 0.0157978 0)
(9.75273 0.0151312 0)
(9.76357 0.0146079 0)
(9.77283 0.0141738 0)
(9.77963 0.0138022 0)
(9.78467 0.0134406 0)
(9.78666 0.0130418 0)
(9.78585 0.0127748 0)
(9.78228 0.0123477 0)
(9.77546 0.0118974 0)
(9.76526 0.0113865 0)
(9.75165 0.010835 0)
(9.73469 0.010244 0)
(9.71481 0.00960404 0)
(9.69247 0.00897044 0)
(9.66839 0.00831484 0)
(9.64291 0.00763451 0)
(9.61682 0.0070025 0)
(9.59006 0.00637613 0)
(9.5642 0.00581016 0)
(9.53811 0.00528477 0)
(9.51389 0.00479737 0)
(9.48957 0.00433119 0)
(9.46754 0.00389681 0)
(9.44548 0.00348007 0)
(9.42582 0.00309006 0)
(9.40614 0.00271582 0)
(9.38885 0.00235338 0)
(9.3715 0.00205344 0)
(9.35585 0.00176448 0)
(9.34011 0.00149768 0)
(9.32626 0.00124776 0)
(9.3124 0.00102855 0)
(9.30031 0.000835541 0)
(9.28818 0.000650265 0)
(9.27768 0.000477756 0)
(9.26712 0.000310744 0)
(9.25804 0.000152969 0)
(9.2489 -5.36741e-06 0)
(9.2411 -0.000160478 0)
(9.23325 -0.000324806 0)
(9.22655 -0.000456577 0)
(9.21979 -0.000555712 0)
(9.21402 -0.000635362 0)
(9.20814 -0.000710755 0)
(9.20316 -0.000750227 0)
(9.19807 -0.000791572 0)
(9.1938 -0.000823989 0)
(9.18944 -0.000876508 0)
(9.18583 -0.000950861 0)
(9.18214 -0.00103036 0)
(9.17914 -0.00109648 0)
(9.17608 -0.00116242 0)
(9.17366 -0.00121458 0)
(9.1712 -0.00128367 0)
(9.16932 -0.00134672 0)
(9.16745 -0.00140865 0)
(9.16605 -0.00146768 0)
(9.16474 -0.00152404 0)
(9.16375 -0.00157973 0)
(9.16292 -0.00163342 0)
(9.1623 -0.00168278 0)
(9.1619 -0.00173037 0)
(9.16162 -0.00177096 0)
(9.16159 -0.00180919 0)
(9.16166 -0.00184412 0)
(9.16194 -0.00188511 0)
(9.16229 -0.00191712 0)
(9.1629 -0.0019562 0)
(9.16352 -0.0019873 0)
(9.16449 -0.00202562 0)
(9.16531 -0.00205286 0)
(9.1667 -0.00209595 0)
(9.16765 -0.00212145 0)
(9.16949 -0.00217233 0)
(9.17049 -0.00219645 0)
(9.17284 -0.00223715 0)
(9.17376 -0.002255 0)
(9.1767 -0.00229089 0)
(9.17752 -0.00229245 0)
(9.18108 -0.00237752 0)
(9.18185 -0.00237958 0)
(9.18586 -0.00264092 0)
(9.18733 -0.00265137 0)
(9.19176 -0.00408227 0)
(9.19618 -0.00361702 0)
(9.20616 -0.0176575 0)
(9.3959 0.0145841 0)
(9.42524 0.0219402 0)
(9.46134 0.0220248 0)
(9.496 0.0229241 0)
(9.52804 0.0230178 0)
(9.56021 0.0222528 0)
(9.59135 0.0210446 0)
(9.62081 0.0197297 0)
(9.64779 0.0185344 0)
(9.67358 0.0174165 0)
(9.69733 0.0164018 0)
(9.72007 0.0155739 0)
(9.74109 0.0148862 0)
(9.76135 0.0143354 0)
(9.78029 0.01392 0)
(9.79863 0.0135822 0)
(9.816 0.0133139 0)
(9.83281 0.0130687 0)
(9.84858 0.0128442 0)
(9.86393 0.0126461 0)
(9.87784 0.0123932 0)
(9.89135 0.0121123 0)
(9.90313 0.011883 0)
(9.91425 0.0116539 0)
(9.92361 0.0114582 0)
(9.93168 0.0112591 0)
(9.93805 0.0110479 0)
(9.94233 0.0108551 0)
(9.94503 0.0105883 0)
(9.94488 0.0104036 0)
(9.9429 0.0101321 0)
(9.93875 0.00980548 0)
(9.93248 0.00947757 0)
(9.92431 0.0091102 0)
(9.91434 0.00870958 0)
(9.90277 0.00828969 0)
(9.88983 0.00784909 0)
(9.87572 0.00741088 0)
(9.86076 0.00695474 0)
(9.84508 0.00652008 0)
(9.82913 0.00605742 0)
(9.81281 0.00563557 0)
(9.79689 0.00525237 0)
(9.78071 0.00488933 0)
(9.76547 0.00454425 0)
(9.75005 0.00421164 0)
(9.73589 0.00389592 0)
(9.72161 0.0035886 0)
(9.70873 0.0033043 0)
(9.69577 0.00303406 0)
(9.68421 0.00278355 0)
(9.6726 0.00254892 0)
(9.6623 0.0023364 0)
(9.6519 0.00216278 0)
(9.64239 0.00198468 0)
(9.63283 0.00179241 0)
(9.62422 0.00162032 0)
(9.61557 0.0014476 0)
(9.60784 0.00126625 0)
(9.60013 0.00109216 0)
(9.59324 0.000947197 0)
(9.58648 0.00078401 0)
(9.58041 0.000591761 0)
(9.57456 0.000398384 0)
(9.56928 0.000221753 0)
(9.56428 5.51267e-05 0)
(9.55974 -0.000103605 0)
(9.55557 -0.000242746 0)
(9.55168 -0.000379375 0)
(9.54823 -0.000505501 0)
(9.5449 -0.000630995 0)
(9.54207 -0.000746284 0)
(9.53924 -0.000857508 0)
(9.53694 -0.000956593 0)
(9.53457 -0.00105984 0)
(9.53277 -0.00114583 0)
(9.53086 -0.00123044 0)
(9.52959 -0.00131414 0)
(9.52814 -0.00139306 0)
(9.52737 -0.00146028 0)
(9.52631 -0.001537 0)
(9.52599 -0.00159752 0)
(9.52534 -0.00167829 0)
(9.52542 -0.0017298 0)
(9.52519 -0.00179434 0)
(9.52571 -0.00187173 0)
(9.52566 -0.00191966 0)
(9.52672 -0.00200103 0)
(9.52683 -0.00205085 0)
(9.52838 -0.00211687 0)
(9.52866 -0.00216408 0)
(9.53067 -0.00222031 0)
(9.53116 -0.00225267 0)
(9.53351 -0.00235314 0)
(9.5344 -0.0023927 0)
(9.53688 -0.00269266 0)
(9.53876 -0.00281334 0)
(9.54175 -0.00436158 0)
(9.54597 -0.00439253 0)
(9.55231 -0.0167499 0)
(9.39499 0.0113289 0)
(9.42269 0.0175917 0)
(9.45807 0.0175046 0)
(9.49304 0.0182226 0)
(9.52495 0.0183641 0)
(9.55704 0.0177343 0)
(9.58821 0.0167455 0)
(9.61787 0.0156959 0)
(9.64515 0.0147328 0)
(9.67133 0.0138368 0)
(9.69567 0.0130088 0)
(9.71908 0.0123282 0)
(9.74098 0.0117292 0)
(9.76233 0.0112251 0)
(9.78255 0.0108398 0)
(9.80255 0.0105259 0)
(9.8217 0.0102779 0)
(9.8408 0.0100696 0)
(9.85911 0.00988336 0)
(9.87744 0.00971636 0)
(9.89494 0.00955928 0)
(9.91248 0.00938743 0)
(9.92913 0.00925386 0)
(9.94584 0.00911959 0)
(9.96166 0.00901726 0)
(9.97755 0.00890414 0)
(9.99244 0.00880289 0)
(10.0074 0.00870603 0)
(10.0212 0.00864354 0)
(10.0351 0.00855797 0)
(10.0475 0.00846391 0)
(10.06 0.00835499 0)
(10.0706 0.00826521 0)
(10.0814 0.00815452 0)
(10.0899 0.00804507 0)
(10.0985 0.0079118 0)
(10.1046 0.00778287 0)
(10.1106 0.00761284 0)
(10.114 0.00745446 0)
(10.1171 0.00722764 0)
(10.1177 0.00700909 0)
(10.1173 0.00685071 0)
(10.1156 0.00661635 0)
(10.1127 0.00635052 0)
(10.1086 0.00606724 0)
(10.1035 0.00576845 0)
(10.0974 0.00545865 0)
(10.0905 0.00514084 0)
(10.0828 0.00481375 0)
(10.0746 0.00448764 0)
(10.0659 0.00415167 0)
(10.0569 0.0038268 0)
(10.0477 0.00348436 0)
(10.0384 0.00317883 0)
(10.0293 0.0028808 0)
(10.02 0.00259997 0)
(10.0111 0.00233096 0)
(10.0022 0.00207144 0)
(9.99366 0.00182642 0)
(9.98531 0.00159556 0)
(9.9773 0.00136266 0)
(9.96963 0.00113838 0)
(9.96224 0.000942581 0)
(9.9553 0.000766421 0)
(9.94857 0.000591042 0)
(9.94234 0.000419193 0)
(9.93628 0.000237458 0)
(9.93074 0.000103193 0)
(9.92509 -2.37093e-05 0)
(9.91993 -0.000142792 0)
(9.91464 -0.000270123 0)
(9.90997 -0.000391896 0)
(9.90514 -0.000513161 0)
(9.901 -0.000630445 0)
(9.89666 -0.000754049 0)
(9.89307 -0.000860721 0)
(9.88923 -0.000967488 0)
(9.88622 -0.00107341 0)
(9.8829 -0.00118183 0)
(9.88047 -0.00128161 0)
(9.87768 -0.00138507 0)
(9.8758 -0.00148144 0)
(9.87353 -0.00158023 0)
(9.87218 -0.00167177 0)
(9.87041 -0.00177472 0)
(9.86957 -0.00184522 0)
(9.86826 -0.00195623 0)
(9.86787 -0.00202907 0)
(9.86705 -0.0021365 0)
(9.86699 -0.0021924 0)
(9.86673 -0.0022965 0)
(9.8669 -0.00234348 0)
(9.86708 -0.00241291 0)
(9.86758 -0.00252763 0)
(9.86819 -0.00260952 0)
(9.86908 -0.0029265 0)
(9.87032 -0.00315402 0)
(9.87205 -0.00471959 0)
(9.875 -0.00539767 0)
(9.87847 -0.0163826 0)
(9.39444 0.00798759 0)
(9.42062 0.0126914 0)
(9.45547 0.0125406 0)
(9.49059 0.0130624 0)
(9.52238 0.0132091 0)
(9.55431 0.0127483 0)
(9.58551 0.0120303 0)
(9.6151 0.0112627 0)
(9.64248 0.0105425 0)
(9.6686 0.00987068 0)
(9.69308 0.0092487 0)
(9.71651 0.00873691 0)
(9.73862 0.00829242 0)
(9.76009 0.00792863 0)
(9.78059 0.00766333 0)
(9.80082 0.00746042 0)
(9.82036 0.0073077 0)
(9.83981 0.0071877 0)
(9.85867 0.00707625 0)
(9.87749 0.00698125 0)
(9.89576 0.00689392 0)
(9.914 0.00677855 0)
(9.9317 0.00668072 0)
(9.94941 0.00658252 0)
(9.96667 0.00650651 0)
(9.98395 0.00642773 0)
(10.0008 0.00635527 0)
(10.0177 0.00629722 0)
(10.0342 0.00624636 0)
(10.0507 0.00621421 0)
(10.0668 0.00616589 0)
(10.083 0.00611146 0)
(10.0986 0.00606649 0)
(10.1144 0.00602349 0)
(10.1294 0.00597741 0)
(10.1446 0.0059334 0)
(10.159 0.00588669 0)
(10.1736 0.00583832 0)
(10.1871 0.0057852 0)
(10.2009 0.0057404 0)
(10.2134 0.00571652 0)
(10.2262 0.00563504 0)
(10.2374 0.00555373 0)
(10.249 0.00547131 0)
(10.2588 0.00539407 0)
(10.2689 0.00530846 0)
(10.2771 0.00522346 0)
(10.2856 0.0051222 0)
(10.292 0.00501923 0)
(10.2987 0.00489397 0)
(10.3032 0.00477107 0)
(10.3079 0.00461802 0)
(10.3105 0.00448127 0)
(10.313 0.00432544 0)
(10.3142 0.00417886 0)
(10.3148 0.00397677 0)
(10.3145 0.0038408 0)
(10.3136 0.00364515 0)
(10.312 0.00343033 0)
(10.3099 0.00321764 0)
(10.3071 0.00299517 0)
(10.304 0.00277439 0)
(10.3003 0.00254777 0)
(10.2964 0.00231816 0)
(10.2922 0.00208015 0)
(10.2878 0.00184869 0)
(10.2831 0.00161054 0)
(10.2786 0.00138851 0)
(10.2738 0.00116439 0)
(10.2693 0.000969162 0)
(10.2645 0.00076059 0)
(10.2601 0.000575304 0)
(10.2554 0.000377233 0)
(10.2513 0.000202289 0)
(10.2468 6.83995e-06 0)
(10.2429 -0.000170961 0)
(10.2387 -0.000365433 0)
(10.2351 -0.000511719 0)
(10.2313 -0.000663087 0)
(10.2281 -0.000802706 0)
(10.2246 -0.00095119 0)
(10.2218 -0.00108829 0)
(10.2187 -0.0012317 0)
(10.2163 -0.00136206 0)
(10.2136 -0.00149745 0)
(10.2116 -0.00161576 0)
(10.2094 -0.00174857 0)
(10.2076 -0.00187316 0)
(10.2058 -0.00198424 0)
(10.2043 -0.00209619 0)
(10.2029 -0.00219722 0)
(10.2016 -0.00229807 0)
(10.2006 -0.00238601 0)
(10.1995 -0.00253075 0)
(10.1988 -0.00263706 0)
(10.1981 -0.00300057 0)
(10.1978 -0.0033055 0)
(10.1976 -0.00484136 0)
(10.1985 -0.0061042 0)
(10.1986 -0.0156684 0)
(9.39406 0.00454601 0)
(9.41913 0.00729015 0)
(9.45366 0.00712312 0)
(9.48884 0.0074309 0)
(9.52054 0.0075255 0)
(9.55233 0.00723975 0)
(9.58358 0.00681095 0)
(9.6131 0.00633595 0)
(9.64054 0.00588141 0)
(9.66659 0.00546897 0)
(9.69114 0.00509218 0)
(9.71452 0.00478352 0)
(9.73669 0.00451698 0)
(9.75813 0.00429649 0)
(9.77871 0.00413491 0)
(9.79892 0.00400765 0)
(9.81856 0.00390945 0)
(9.83798 0.00383089 0)
(9.85698 0.00375609 0)
(9.87581 0.00369642 0)
(9.89425 0.00364251 0)
(9.91255 0.00356255 0)
(9.93046 0.00349409 0)
(9.9483 0.0034302 0)
(9.96582 0.00338526 0)
(9.98331 0.00333976 0)
(10.0005 0.00329805 0)
(10.0177 0.00326259 0)
(10.0347 0.00323664 0)
(10.0517 0.00323003 0)
(10.0684 0.00320467 0)
(10.0852 0.00317186 0)
(10.1017 0.00314723 0)
(10.1182 0.00312749 0)
(10.1345 0.00310505 0)
(10.1509 0.00308358 0)
(10.1669 0.00306265 0)
(10.183 0.00303752 0)
(10.1988 0.00301328 0)
(10.2146 0.00299074 0)
(10.2301 0.00297611 0)
(10.2457 0.00294413 0)
(10.2608 0.00291515 0)
(10.276 0.00289074 0)
(10.2908 0.00286708 0)
(10.3056 0.00284325 0)
(10.3199 0.00281758 0)
(10.3343 0.00279121 0)
(10.3481 0.00276323 0)
(10.362 0.0027366 0)
(10.3751 0.00270972 0)
(10.3884 0.00268284 0)
(10.4009 0.00265785 0)
(10.4135 0.00262354 0)
(10.425 0.00259865 0)
(10.4368 0.00256844 0)
(10.4474 0.00251033 0)
(10.4582 0.00244999 0)
(10.4677 0.00239067 0)
(10.4774 0.00233125 0)
(10.4857 0.00226716 0)
(10.4943 0.00219334 0)
(10.5013 0.00211442 0)
(10.5085 0.00202173 0)
(10.5142 0.00192828 0)
(10.5201 0.0018236 0)
(10.5244 0.00172393 0)
(10.5289 0.00161276 0)
(10.532 0.00150595 0)
(10.5354 0.00139179 0)
(10.5374 0.00127269 0)
(10.5397 0.00113206 0)
(10.5409 0.00100866 0)
(10.5421 0.00085238 0)
(10.5426 0.000710037 0)
(10.5428 0.000573365 0)
(10.5425 0.000403547 0)
(10.5421 0.000250842 0)
(10.5413 8.812e-05 0)
(10.5403 -7.10559e-05 0)
(10.539 -0.000233618 0)
(10.5376 -0.000397133 0)
(10.536 -0.000561314 0)
(10.5343 -0.000722943 0)
(10.5324 -0.000883487 0)
(10.5304 -0.00104035 0)
(10.5283 -0.00119761 0)
(10.5262 -0.00136242 0)
(10.524 -0.00150805 0)
(10.5217 -0.00165607 0)
(10.5193 -0.00178547 0)
(10.5169 -0.00190982 0)
(10.5144 -0.00202552 0)
(10.5118 -0.00218103 0)
(10.5093 -0.00233482 0)
(10.5065 -0.00268237 0)
(10.504 -0.0031014 0)
(10.5012 -0.00466618 0)
(10.4992 -0.00634235 0)
(10.4959 -0.0144413 0)
(9.39387 0.000961234 0)
(9.41839 0.00131983 0)
(9.45277 0.00114279 0)
(9.48798 0.00123176 0)
(9.51963 0.00123168 0)
(9.55135 0.00113605 0)
(9.58263 0.00103171 0)
(9.6121 0.000879888 0)
(9.63958 0.000724307 0)
(9.6656 0.000601961 0)
(9.69018 0.000491186 0)
(9.71354 0.00040174 0)
(9.73575 0.000322953 0)
(9.75716 0.000252253 0)
(9.77778 0.000204559 0)
(9.79795 0.000168012 0)
(9.81763 0.000145772 0)
(9.83702 0.000133962 0)
(9.85605 0.000120482 0)
(9.87486 0.00012169 0)
(9.89333 0.000124529 0)
(9.91161 0.000103345 0)
(9.92956 8.17761e-05 0)
(9.9474 6.17959e-05 0)
(9.96496 5.17984e-05 0)
(9.98245 3.74215e-05 0)
(9.99972 2.20535e-05 0)
(10.0169 2.26078e-06 0)
(10.034 -3.14526e-06 0)
(10.051 4.25684e-06 0)
(10.0679 -4.813e-06 0)
(10.0847 -2.02021e-05 0)
(10.1014 -2.84065e-05 0)
(10.118 -3.0285e-05 0)
(10.1345 -3.47499e-05 0)
(10.151 -3.71795e-05 0)
(10.1673 -3.93617e-05 0)
(10.1836 -4.22799e-05 0)
(10.1997 -5.0281e-05 0)
(10.2158 -5.00713e-05 0)
(10.2317 -4.31851e-05 0)
(10.2477 -4.38454e-05 0)
(10.2634 -4.98898e-05 0)
(10.2792 -5.47678e-05 0)
(10.2947 -6.14146e-05 0)
(10.3103 -6.68853e-05 0)
(10.3256 -7.405e-05 0)
(10.341 -8.06651e-05 0)
(10.3562 -8.74711e-05 0)
(10.3713 -9.46454e-05 0)
(10.3863 -9.99737e-05 0)
(10.4012 -0.000107055 0)
(10.416 -0.000115525 0)
(10.4307 -0.000128867 0)
(10.4452 -0.000126017 0)
(10.4597 -0.000134662 0)
(10.4738 -0.000142653 0)
(10.488 -0.000145301 0)
(10.5019 -0.000150621 0)
(10.5158 -0.00015183 0)
(10.5292 -0.000156546 0)
(10.5428 -0.000159762 0)
(10.5558 -0.000164216 0)
(10.5689 -0.00016618 0)
(10.5814 -0.000168545 0)
(10.594 -0.000165473 0)
(10.606 -0.000165154 0)
(10.618 -0.000170161 0)
(10.6292 -0.000186089 0)
(10.6405 -0.000194635 0)
(10.651 -0.000219778 0)
(10.6614 -0.000240399 0)
(10.6712 -0.000264555 0)
(10.6806 -0.00029193 0)
(10.6894 -0.000314271 0)
(10.6977 -0.000348293 0)
(10.7055 -0.000378972 0)
(10.7127 -0.000429707 0)
(10.7193 -0.000492776 0)
(10.7252 -0.000553468 0)
(10.7306 -0.000621662 0)
(10.7351 -0.000691184 0)
(10.7392 -0.000764953 0)
(10.7423 -0.000833515 0)
(10.745 -0.000906575 0)
(10.7466 -0.000973907 0)
(10.748 -0.00105978 0)
(10.7482 -0.00111968 0)
(10.748 -0.00118171 0)
(10.7471 -0.00125672 0)
(10.7456 -0.00132482 0)
(10.7434 -0.00139169 0)
(10.7407 -0.0014528 0)
(10.7374 -0.0015537 0)
(10.7336 -0.00166028 0)
(10.7292 -0.00194174 0)
(10.7245 -0.00236025 0)
(10.7191 -0.0037331 0)
(10.7136 -0.0056607 0)
(10.706 -0.0127017 0)
(9.39391 -0.00274673 0)
(9.41859 -0.00496218 0)
(9.45306 -0.00513895 0)
(9.48829 -0.00527131 0)
(9.51995 -0.00538405 0)
(9.55167 -0.00527975 0)
(9.58297 -0.00503835 0)
(9.61242 -0.00485203 0)
(9.63991 -0.00469293 0)
(9.66594 -0.00450963 0)
(9.69053 -0.00434318 0)
(9.71387 -0.00420211 0)
(9.73609 -0.00408367 0)
(9.75749 -0.00399615 0)
(9.77813 -0.00392128 0)
(9.79829 -0.00385974 0)
(9.81798 -0.00380195 0)
(9.83738 -0.00374541 0)
(9.8564 -0.00370193 0)
(9.87522 -0.00364419 0)
(9.89369 -0.00359007 0)
(9.91196 -0.00356185 0)
(9.92992 -0.00354407 0)
(9.94774 -0.00352759 0)
(9.96533 -0.00350519 0)
(9.9828 -0.00348909 0)
(10.0001 -0.00347516 0)
(10.0173 -0.00347516 0)
(10.0343 -0.00345603 0)
(10.0514 -0.00342844 0)
(10.0682 -0.00341536 0)
(10.0851 -0.00341023 0)
(10.1017 -0.00339968 0)
(10.1184 -0.00338458 0)
(10.1349 -0.00337161 0)
(10.1513 -0.00335739 0)
(10.1676 -0.0033443 0)
(10.1839 -0.0033284 0)
(10.2 -0.00332625 0)
(10.2161 -0.00330854 0)
(10.232 -0.00328794 0)
(10.2479 -0.0032755 0)
(10.2637 -0.00326894 0)
(10.2794 -0.00326074 0)
(10.2949 -0.00325186 0)
(10.3104 -0.00323969 0)
(10.3257 -0.0032289 0)
(10.341 -0.00321576 0)
(10.3561 -0.00320316 0)
(10.3712 -0.00318867 0)
(10.386 -0.00317382 0)
(10.4009 -0.00315316 0)
(10.4155 -0.00313804 0)
(10.43 -0.00312127 0)
(10.4443 -0.00309913 0)
(10.4586 -0.00308549 0)
(10.4726 -0.00307043 0)
(10.4865 -0.00305696 0)
(10.5001 -0.00304799 0)
(10.5135 -0.00303699 0)
(10.5268 -0.00302817 0)
(10.5397 -0.00301816 0)
(10.5524 -0.00300869 0)
(10.5648 -0.00299981 0)
(10.5769 -0.00298947 0)
(10.5886 -0.00297373 0)
(10.6 -0.00294913 0)
(10.6109 -0.0029259 0)
(10.6215 -0.00289497 0)
(10.6316 -0.0028736 0)
(10.6413 -0.00282966 0)
(10.6504 -0.00278281 0)
(10.6591 -0.0027264 0)
(10.6671 -0.00267691 0)
(10.6747 -0.00261669 0)
(10.6816 -0.00255444 0)
(10.688 -0.00248819 0)
(10.6937 -0.00241888 0)
(10.6988 -0.00233401 0)
(10.7032 -0.0022425 0)
(10.707 -0.00214688 0)
(10.7102 -0.00204723 0)
(10.7126 -0.00195213 0)
(10.7146 -0.00185233 0)
(10.7158 -0.00175668 0)
(10.7167 -0.00162833 0)
(10.7167 -0.00154798 0)
(10.7163 -0.00143186 0)
(10.7154 -0.00132029 0)
(10.714 -0.00120256 0)
(10.712 -0.00107547 0)
(10.7095 -0.000957707 0)
(10.7065 -0.000848435 0)
(10.703 -0.000789679 0)
(10.6991 -0.000766079 0)
(10.6946 -0.000909388 0)
(10.6898 -0.00122011 0)
(10.6842 -0.00239546 0)
(10.678 -0.00429408 0)
(10.6694 -0.0101477 0)
(9.39419 -0.00640491 0)
(9.41974 -0.0109645 0)
(9.45454 -0.0111166 0)
(9.48975 -0.0114696 0)
(9.52147 -0.0116796 0)
(9.55328 -0.0113837 0)
(9.58459 -0.0108148 0)
(9.61404 -0.0103139 0)
(9.64152 -0.00985827 0)
(9.66757 -0.00938213 0)
(9.69215 -0.00894956 0)
(9.71549 -0.00858594 0)
(9.73772 -0.00827659 0)
(9.75911 -0.00803693 0)
(9.77974 -0.00784739 0)
(9.79992 -0.00769417 0)
(9.81959 -0.0075626 0)
(9.83901 -0.00743897 0)
(9.858 -0.00734036 0)
(9.87685 -0.00722438 0)
(9.89528 -0.00711556 0)
(9.91356 -0.0070369 0)
(9.93149 -0.00697777 0)
(9.94931 -0.00692605 0)
(9.96685 -0.0068732 0)
(9.9843 -0.00683162 0)
(10.0015 -0.00679469 0)
(10.0187 -0.00678091 0)
(10.0356 -0.00674391 0)
(10.0526 -0.00670204 0)
(10.0693 -0.00667099 0)
(10.086 -0.00664828 0)
(10.1025 -0.00661975 0)
(10.119 -0.00658742 0)
(10.1353 -0.00655404 0)
(10.1515 -0.00651804 0)
(10.1675 -0.00648361 0)
(10.1835 -0.00644272 0)
(10.1991 -0.00641679 0)
(10.2148 -0.00637056 0)
(10.2301 -0.00632453 0)
(10.2454 -0.00628756 0)
(10.2604 -0.00625539 0)
(10.2752 -0.00622428 0)
(10.2897 -0.00619174 0)
(10.304 -0.00615907 0)
(10.318 -0.00612587 0)
(10.3317 -0.00609441 0)
(10.3451 -0.00606085 0)
(10.3581 -0.00603151 0)
(10.3707 -0.0059951 0)
(10.3828 -0.0059658 0)
(10.3945 -0.00591508 0)
(10.4056 -0.00585007 0)
(10.4162 -0.0057824 0)
(10.4263 -0.00571683 0)
(10.4357 -0.00564582 0)
(10.4445 -0.00557147 0)
(10.4525 -0.00549026 0)
(10.4599 -0.00539884 0)
(10.4665 -0.00529873 0)
(10.4724 -0.00518752 0)
(10.4775 -0.00506798 0)
(10.4819 -0.00493952 0)
(10.4854 -0.00481445 0)
(10.4884 -0.00468596 0)
(10.4906 -0.0045501 0)
(10.4924 -0.00439887 0)
(10.4935 -0.00425042 0)
(10.4941 -0.00405635 0)
(10.4941 -0.00392922 0)
(10.4937 -0.00375743 0)
(10.4928 -0.00357225 0)
(10.4916 -0.00338966 0)
(10.4901 -0.00320176 0)
(10.4882 -0.00301327 0)
(10.4861 -0.00282533 0)
(10.4837 -0.00263483 0)
(10.4812 -0.00244189 0)
(10.4785 -0.00225157 0)
(10.4757 -0.00206865 0)
(10.4729 -0.00188105 0)
(10.4699 -0.00170096 0)
(10.467 -0.00153191 0)
(10.464 -0.00137168 0)
(10.4611 -0.00121968 0)
(10.4581 -0.00106969 0)
(10.4552 -0.000940507 0)
(10.4523 -0.000833988 0)
(10.4493 -0.000727532 0)
(10.4464 -0.00058895 0)
(10.4435 -0.000440544 0)
(10.4406 -0.000298539 0)
(10.4376 -0.000178019 0)
(10.4347 -0.000100552 0)
(10.4317 -0.000179213 0)
(10.4285 -0.00047673 0)
(10.4249 -0.00148749 0)
(10.4207 -0.00323408 0)
(10.414 -0.00809705 0)
(9.39466 -0.00995996 0)
(9.42161 -0.0164549 0)
(9.45695 -0.0165729 0)
(9.49209 -0.0171233 0)
(9.52391 -0.0173742 0)
(9.55583 -0.0168877 0)
(9.58718 -0.0160131 0)
(9.61662 -0.0152317 0)
(9.6441 -0.0145139 0)
(9.67016 -0.0137792 0)
(9.69474 -0.0131088 0)
(9.71806 -0.0125473 0)
(9.74028 -0.0120636 0)
(9.76164 -0.0116803 0)
(9.78226 -0.011382 0)
(9.80241 -0.0111458 0)
(9.82202 -0.010955 0)
(9.84141 -0.0107752 0)
(9.86029 -0.0106332 0)
(9.87907 -0.0104671 0)
(9.89733 -0.0103102 0)
(9.91548 -0.0101846 0)
(9.93316 -0.0100833 0)
(9.9508 -0.00998776 0)
(9.968 -0.0098931 0)
(9.98518 -0.00981189 0)
(10.0019 -0.00974136 0)
(10.0187 -0.0096997 0)
(10.0351 -0.00963401 0)
(10.0514 -0.00956924 0)
(10.0673 -0.00951363 0)
(10.0832 -0.00946526 0)
(10.0986 -0.00941111 0)
(10.1139 -0.00935754 0)
(10.1286 -0.00930062 0)
(10.1432 -0.00924674 0)
(10.1571 -0.00918514 0)
(10.1707 -0.0091372 0)
(10.1836 -0.00908106 0)
(10.1962 -0.00899938 0)
(10.2078 -0.00891601 0)
(10.2189 -0.00882907 0)
(10.2291 -0.00874024 0)
(10.2386 -0.00864248 0)
(10.247 -0.00853732 0)
(10.2547 -0.00841743 0)
(10.2611 -0.00828845 0)
(10.2668 -0.00814036 0)
(10.271 -0.00798662 0)