/*--------------------------------*- C++ -*----------------------------------*\
| =========                 |                                                 |
| \\      /  F ield         | OpenFOAM: The Open Source CFD Toolbox           |
|  \\    /   O peration     | Version:  v2012                                 |
|   \\  /    A nd           | Website:  www.openfoam.com                      |
|    \\/     M anipulation  |                                                 |
\*---------------------------------------------------------------------------*/
FoamFile
{
    version     2.0;
    format      ascii;
    class       volScalarField;
    location    "0.194";
    object      nut.air;
}
// * * * * * * * * * * * * * * * * * * * * * * * * * * * * * * * * * * * * * //

dimensions      [0 2 -1 0 0 0 0];


internalField   nonuniform List<scalar> 
5600
(
2.45143e-05
3.47349e-05
4.04079e-05
4.24647e-05
4.22691e-05
4.09744e-05
3.92051e-05
3.75415e-05
3.61118e-05
3.49452e-05
3.40646e-05
3.3428e-05
3.30488e-05
3.27911e-05
3.27076e-05
3.26523e-05
3.26726e-05
3.27029e-05
3.27261e-05
3.27815e-05
3.27836e-05
3.2836e-05
3.28417e-05
3.2876e-05
3.29209e-05
3.29223e-05
3.3007e-05
3.298e-05
3.30813e-05
3.30516e-05
3.31291e-05
3.31264e-05
3.31459e-05
3.31898e-05
3.31482e-05
3.32265e-05
3.31555e-05
3.32324e-05
3.31762e-05
3.3217e-05
3.32033e-05
3.31991e-05
3.32224e-05
3.31948e-05
3.32247e-05
3.32076e-05
3.32183e-05
3.3228e-05
3.32129e-05
3.32441e-05
3.32171e-05
3.32502e-05
3.3232e-05
3.3251e-05
3.32538e-05
3.32516e-05
3.32747e-05
3.32557e-05
3.32953e-05
3.32667e-05
3.33159e-05
3.32833e-05
3.3334e-05
3.33075e-05
3.33497e-05
3.33349e-05
3.33655e-05
3.33591e-05
3.3388e-05
3.3379e-05
3.34218e-05
3.33996e-05
3.34595e-05
3.34269e-05
3.34879e-05
3.34641e-05
3.35054e-05
3.35072e-05
3.3526e-05
3.35413e-05
3.3566e-05
3.35587e-05
3.36209e-05
3.35763e-05
3.36634e-05
3.36203e-05
3.36752e-05
3.36911e-05
3.36674e-05
3.37717e-05
3.36483e-05
3.38906e-05
3.35473e-05
3.4173e-05
3.31558e-05
3.49562e-05
3.1818e-05
3.74614e-05
2.66101e-05
4.6953e-05
0.000151569
0.000137591
0.000112153
9.87352e-05
9.3842e-05
9.49502e-05
0.00010218
0.000110028
0.000116633
0.000124099
0.000132957
0.000140971
0.000149722
0.000157026
0.000164579
0.000170899
0.000176733
0.000182263
0.000186505
0.000191354
0.000194709
0.000198812
0.000202034
0.000205236
0.00020886
0.000210778
0.000214742
0.000215811
0.000219531
0.000220411
0.000223047
0.000224495
0.000225517
0.000227857
0.000227552
0.000230323
0.000229597
0.000231925
0.000231734
0.000233003
0.000233725
0.000233974
0.000235237
0.000235165
0.000236287
0.000236605
0.000237102
0.000237968
0.000237887
0.000239048
0.000238824
0.000239828
0.000239866
0.000240439
0.000240943
0.000240994
0.000241876
0.000241553
0.000242745
0.000242224
0.000243536
0.000242952
0.000244179
0.00024378
0.000244733
0.000244599
0.00024528
0.000245236
0.000245955
0.000245713
0.000246799
0.000246222
0.00024762
0.000246907
0.000248146
0.000247756
0.000248444
0.000248602
0.00024892
0.000249116
0.000249836
0.000249271
0.000250901
0.000249561
0.000251519
0.000250427
0.000251566
0.000251564
0.000251541
0.000252597
0.00025154
0.000254041
0.000250516
0.000257312
0.000246683
0.000264627
0.000236765
0.000280829
0.000212471
0.000287174
0.000156434
0.000151755
0.000142832
0.000135402
0.000125157
0.000120568
0.000114248
0.000108935
0.000109763
0.000108569
0.000113966
0.000116207
0.000124592
0.000130795
0.000140343
0.000150746
0.000160693
0.000174892
0.000185952
0.000202807
0.000216352
0.00023306
0.000246309
0.00025766
0.000271515
0.000279276
0.000292616
0.00029654
0.000306935
0.00031102
0.000317621
0.000324003
0.000326591
0.000335109
0.000335113
0.000343722
0.000343678
0.000350098
0.000352029
0.000355345
0.000359346
0.00036062
0.000365099
0.000366339
0.000369556
0.000371982
0.000373448
0.000376912
0.000377248
0.00038086
0.000381285
0.000384055
0.00038531
0.000386856
0.000389177
0.000389593
0.000392602
0.000392101
0.000395668
0.000394804
0.000398499
0.000397665
0.000400826
0.000400606
0.00040297
0.000403343
0.000405205
0.00040546
0.000407648
0.000407161
0.00041025
0.000409058
0.000412621
0.000411528
0.0004143
0.000414219
0.000415629
0.00041646
0.000417559
0.000417723
0.000420398
0.000418379
0.0004231
0.000419623
0.000424706
0.000421879
0.00042578
0.000423842
0.000427597
0.000424595
0.000430333
0.000424819
0.000433195
0.000425144
0.000436486
0.000424486
0.000442364
0.000421081
0.000434358
0.000409181
0.000157728
0.000154193
0.000149896
0.000146918
0.000142817
0.000138629
0.000136893
0.00012932
0.000131241
0.000121309
0.00012665
0.000117203
0.000119226
0.000115365
0.000114512
0.000119019
0.000116778
0.000127959
0.000128361
0.000141949
0.000149299
0.000161778
0.000178489
0.000187689
0.000211811
0.000218538
0.000243041
0.000249089
0.000269149
0.000278879
0.000292408
0.000308017
0.000313955
0.000333887
0.000335962
0.00035548
0.000358587
0.000373391
0.000380979
0.000389237
0.000400721
0.000405333
0.000416717
0.000421813
0.000428265
0.000435076
0.000438218
0.000446459
0.000448023
0.000455688
0.000458011
0.000463632
0.000467593
0.000470835
0.000476617
0.000477889
0.000484694
0.000484319
0.000491889
0.000491004
0.000498524
0.000497982
0.00050412
0.000504885
0.000509467
0.000511184
0.000515097
0.000516189
0.000520993
0.000520404
0.000526821
0.000525113
0.0005319
0.000530972
0.000535805
0.000536956
0.000539384
0.000541593
0.000544216
0.000544347
0.000550339
0.000546475
0.000555595
0.000549963
0.000558889
0.000554756
0.000561939
0.000558337
0.000566595
0.00055985
0.000572327
0.000560889
0.000577774
0.000562608
0.000582777
0.0005646
0.000587741
0.000567146
0.000591269
0.000572015
0.00015802
0.000154795
0.000151513
0.000149062
0.000147186
0.000143385
0.000144496
0.000137348
0.000142304
0.000132264
0.000138475
0.000130505
0.000131129
0.00013186
0.00012162
0.000133588
0.000115251
0.000129964
0.000115044
0.000122103
0.000122654
0.000115864
0.000135705
0.000117956
0.00015048
0.000132708
0.000165208
0.000159537
0.000181026
0.000194395
0.000201326
0.000229565
0.000227286
0.000256909
0.000253348
0.000279699
0.000282901
0.000300063
0.000312804
0.000321283
0.000339708
0.000345696
0.000362728
0.00037211
0.000383354
0.000397336
0.000403521
0.0004194
0.000424024
0.000438602
0.000444957
0.000455606
0.000464743
0.000471307
0.000483363
0.000487069
0.000500715
0.000501985
0.000516685
0.000517184
0.000531273
0.000532304
0.000543718
0.000547019
0.000555823
0.000560497
0.000568472
0.000571677
0.000581364
0.000581502
0.000593681
0.000592257
0.000604288
0.000604699
0.000612861
0.000617028
0.000620769
0.000625274
0.000630197
0.000630643
0.00064097
0.000635799
0.000649638
0.000643302
0.00065543
0.000652156
0.000661498
0.000658844
0.000669702
0.000663167
0.000678234
0.000667823
0.000685088
0.000674479
0.000689895
0.000682669
0.00069345
0.000691586
0.000696102
0.00070041
0.000158093
0.00015493
0.000152026
0.00014946
0.000148507
0.000144296
0.000146816
0.000139331
0.000145268
0.000136308
0.00014125
0.000137278
0.000133601
0.000141536
0.000124975
0.000144164
0.000121305
0.000138823
0.000127374
0.000123552
0.00014207
0.000104474
0.000155873
9.33884e-05
0.000155868
9.85733e-05
0.000140689
0.00012057
0.000121073
0.000148711
0.000112521
0.000169105
0.00012415
0.000178154
0.000152589
0.0001843
0.00018729
0.000196738
0.000220141
0.000219838
0.000247727
0.000248952
0.000265689
0.000276291
0.000284009
0.000302284
0.000305667
0.000325879
0.000329994
0.00034689
0.000355838
0.000367683
0.000381134
0.000388357
0.000405893
0.000410254
0.000429917
0.000431248
0.000451875
0.000452947
0.000472319
0.000475406
0.000490468
0.000497038
0.000508877
0.000516818
0.000528742
0.000533882
0.000548708
0.000549697
0.000567363
0.000567137
0.000583496
0.000587392
0.000597873
0.000606847
0.000612865
0.000622062
0.00063064
0.00063329
0.000649009
0.000644719
0.000663223
0.000659842
0.000673403
0.000676328
0.000684333
0.000689424
0.000697691
0.000699916
0.000710393
0.00071147
0.000720449
0.000724872
0.000729203
0.000737464
0.000740051
0.000746549
0.000755029
0.000760152
0.000158132
0.000154921
0.000152266
0.000149455
0.000149031
0.000144459
0.000147439
0.000140198
0.000145473
0.00013858
0.000140684
0.000141026
0.000132855
0.000145508
0.000125902
0.000146197
0.000126171
0.000137485
0.000137297
0.000119487
0.000154807
0.000100341
0.00016616
9.30945e-05
0.000159262
0.000107839
0.000131876
0.000142356
9.45531e-05
0.000176585
6.97141e-05
0.000182422
7.85236e-05
0.000156303
0.000112455
0.000126857
0.000143409
0.000114516
0.000156656
0.000126982
0.000155064
0.000151766
0.000157752
0.000178088
0.00016835
0.000197367
0.000190951
0.000217678
0.000218562
0.000234421
0.000247011
0.000257917
0.000277364
0.000279522
0.000300274
0.000299672
0.000322973
0.000318375
0.000341627
0.000339167
0.000360529
0.000364254
0.000379773
0.000388395
0.000400854
0.000410283
0.000424622
0.000429711
0.000448327
0.000448533
0.000469389
0.000470251
0.000488088
0.000496053
0.000507045
0.000520867
0.000527562
0.000539877
0.000550958
0.000554811
0.000573897
0.000571851
0.000591624
0.000593146
0.000606063
0.000614996
0.000622569
0.000633018
0.000641815
0.000648749
0.000659966
0.000665348
0.000675554
0.00068339
0.000690127
0.000700517
0.000706901
0.000716231
0.000725937
0.000737764
0.000158166
0.000154879
0.000152376
0.000149462
0.000149097
0.000144789
0.00014714
0.000141235
0.000144575
0.000140364
0.000139583
0.000142753
0.000132766
0.000145749
0.000128206
0.000144121
0.000131036
0.000134165
0.000142336
0.000118119
0.000155511
0.000105172
0.000159257
0.000106704
0.000146425
0.000126682
0.000119462
0.000156084
8.86178e-05
0.00017723
7.34467e-05
0.000171511
9.39238e-05
0.000139157
0.00013263
0.000106501
0.000156064
9.37442e-05
0.000149353
0.000116177
0.000122137
0.000137379
0.000111247
0.000148841
0.000108168
0.000142789
0.000122254
0.000145141
0.000137972
0.000137869
0.00014712
0.00014602
0.000167814
0.000157153
0.00018889
0.000173478
0.000210554
0.000188232
0.000219788
0.000208865
0.000233838
0.00023907
0.000254195
0.000266554
0.000279435
0.000290869
0.000308611
0.000310549
0.000329971
0.000325874
0.000346143
0.000345386
0.000360452
0.000370436
0.000378574
0.000395338
0.000400177
0.000413097
0.000423985
0.00042777
0.000447082
0.000447313
0.000465695
0.000471479
0.000482071
0.000495338
0.000502236
0.000516338
0.000525866
0.000536179
0.000548438
0.000556809
0.00056875
0.000579521
0.000588698
0.000602788
0.000611507
0.00062672
0.00063728
0.000654888
0.000158192
0.000154857
0.000152372
0.0001496
0.000148829
0.000145389
0.000146367
0.000142386
0.000143535
0.000141446
0.00013929
0.00014251
0.000134452
0.000143375
0.000131964
0.000140645
0.00013472
0.000132686
0.000142106
0.000122318
0.00014857
0.000116641
0.000146997
0.000121979
0.000134877
0.000136779
0.000116725
0.000152208
0.000101107
0.0001589
9.96165e-05
0.000149074
0.000118876
0.000125775
0.0001408
0.000109552
0.000145253
0.000112804
0.000132451
0.000131895
0.000113878
0.00014167
0.000111551
0.000138626
0.000116096
0.000130516
0.0001234
0.00012704
0.000129786
0.000121806
0.000127058
0.000121898
0.000135726
0.000116009
0.000146798
0.000112889
0.000157395
0.000115442
0.000150029
0.000126145
0.000143916
0.000142126
0.000147603
0.000155604
0.000159067
0.000165243
0.000173581
0.000171674
0.000191041
0.000184775
0.000206517
0.000202894
0.000217709
0.000227612
0.000234467
0.000255488
0.000257383
0.000273618
0.000282442
0.000289525
0.000309161
0.000313006
0.000333101
0.000341475
0.000353276
0.000369893
0.000378165
0.000396429
0.000407759
0.00042187
0.00043635
0.000447061
0.000461412
0.000474459
0.00048723
0.000502432
0.000514829
0.000530643
0.000542962
0.000557281
0.000158206
0.000154864
0.000152307
0.000149794
0.000148475
0.000145978
0.000145645
0.000143227
0.000142911
0.000141748
0.000139782
0.000141262
0.000136772
0.000140524
0.000135297
0.000137978
0.00013641
0.000133283
0.000139193
0.00012846
0.000140497
0.000127163
0.000137173
0.000131318
0.00012943
0.000138114
0.000121453
0.000142341
0.000117942
0.000140969
0.00012131
0.000133465
0.000130025
0.000123833
0.000135654
0.000121464
0.000131914
0.000127588
0.000123495
0.000134732
0.0001175
0.000135495
0.000119797
0.000130024
0.000124764
0.00012503
0.000127963
0.000122004
0.000129882
0.000121837
0.000125751
0.000124969
0.000125596
0.000122843
0.000128951
0.000119483
0.000133139
0.000118681
0.000131347
0.000119697
0.00013099
0.000120768
0.000130368
0.000127095
0.000127923
0.00013469
0.000126783
0.000134136
0.00013307
0.000133324
0.000144855
0.000134677
0.000149715
0.000145471
0.000151295
0.000164331
0.000159469
0.000174329
0.000172057
0.000180783
0.000191346
0.000193985
0.00021083
0.000214956
0.00022463
0.000237895
0.000244008
0.000261101
0.000270136
0.000284926
0.000297716
0.000308867
0.000323406
0.000336503
0.000350708
0.000366263
0.000380957
0.00039847
0.000413318
0.00042992
0.000158209
0.000154879
0.000152246
0.000149924
0.000148242
0.000146305
0.000145255
0.000143585
0.000142711
0.000141639
0.000140329
0.000140223
0.00013826
0.000138792
0.000136973
0.000136779
0.000136714
0.00013422
0.000136855
0.000132186
0.000135906
0.000132175
0.000132784
0.000134322
0.000128532
0.000136348
0.000125986
0.000135599
0.000126779
0.000132056
0.000129547
0.000127985
0.000131559
0.000126001
0.000130459
0.000127595
0.000126526
0.000130518
0.000123221
0.000131691
0.000121971
0.000131061
0.000122333
0.000129135
0.000123821
0.000126193
0.000126908
0.000121583
0.000130767
0.000119097
0.000129509
0.000122102
0.000125707
0.000125581
0.000122592
0.000128257
0.000121515
0.000128823
0.00012348
0.000125154
0.000130512
0.000120173
0.000134788
0.000123179
0.000132365
0.000132856
0.000128781
0.000139845
0.000131341
0.000143022
0.000142917
0.000143954
0.000154168
0.000151108
0.000161845
0.000166343
0.000171538
0.00018097
0.000183347
0.000195081
0.000201532
0.000210998
0.000223257
0.000231124
0.000242399
0.000253656
0.00026398
0.000278
0.000289155
0.000303719
0.000316349
0.000329466
0.000343293
0.00035727
0.000371679
0.00038649
0.000401899
0.000418348
0.000434208
0.000451006
0.000158206
0.000154888
0.000152205
0.000149977
0.000148124
0.000146415
0.000145091
0.000143648
0.000142671
0.000141435
0.00014062
0.00013962
0.000138854
0.00013802
0.000137424
0.000136432
0.000136371
0.000134835
0.000135458
0.000133612
0.000134087
0.000133315
0.000131904
0.000133771
0.000129689
0.000133635
0.000128921
0.000131802
0.000129757
0.000129261
0.000130294
0.000128184
0.000128868
0.00012913
0.000126206
0.000130271
0.000124791
0.000129302
0.000125937
0.000126706
0.000127233
0.000125963
0.000125793
0.000128186
0.000123099
0.000129853
0.000123717
0.000127319
0.000128716
0.000123546
0.000132752
0.000124013
0.000133479
0.00012914
0.00013247
0.000137329
0.00013316
0.000145217
0.00013926
0.000150668
0.000151536
0.000156356
0.000165877
0.000166867
0.000179634
0.000182953
0.000193184
0.000202239
0.000208598
0.000222473
0.000228567
0.000242074
0.000251844
0.000262784
0.000275925
0.000286398
0.00030067
0.000312206
0.000325602
0.000339503
0.00035202
0.000366907
0.000377702
0.000388459
0.000398604
0.000409288
0.000420296
0.00043166
0.000443406
0.000455678
0.000468043
0.000480659
0.000493539
0.000506959
0.000520341
0.000534589
0.000548947
0.000564132
0.00057858
0.000593309
0.000158201
0.000154887
0.00015217
0.000149984
0.000148038
0.000146424
0.000144969
0.0001436
0.000142589
0.000141218
0.000140664
0.000139176
0.000138982
0.000137481
0.000137373
0.000136125
0.000135785
0.000135017
0.000134254
0.000134074
0.000132773
0.000133272
0.000131388
0.000132389
0.000130506
0.000130852
0.000130615
0.000128557
0.000131143
0.000126874
0.000130252
0.000127536
0.000127034
0.000130232
0.000123356
0.000132155
0.000122598
0.000130874
0.000125777
0.000127614
0.000130329
0.000126715
0.000133229
0.00013072
0.000135197
0.000138159
0.000139904
0.00014661
0.000149605
0.000156296
0.000163392
0.000169141
0.000179517
0.0001859
0.000196967
0.000206423
0.00021624
0.000229476
0.000238394
0.000253526
0.000263862
0.000278265
0.000291646
0.000304461
0.000318104
0.000326051
0.000337523
0.000346095
0.000356544
0.000367354
0.000376386
0.000388625
0.00039745
0.000409218
0.000419439
0.000429951
0.000441752
0.000451513
0.000463672
0.000473992
0.000485226
0.00049669
0.000507276
0.00051907
0.000529852
0.000541368
0.000552447
0.000563618
0.00057479
0.000585916
0.000597057
0.000607961
0.000619035
0.000629859
0.000640616
0.00065148
0.000661993
0.000672854
0.000682689
0.000692745
0.000158194
0.00015487
0.00015212
0.000149934
0.000147916
0.000146329
0.000144753
0.00014342
0.000142285
0.000140878
0.000140303
0.000138596
0.00013857
0.000136658
0.000136807
0.000135193
0.000134854
0.000134168
0.000132793
0.000133311
0.000130921
0.000132261
0.000129601
0.000130655
0.000129055
0.000128315
0.000129435
0.000125735
0.00013019
0.000124451
0.000129835
0.000125798
0.000128726
0.000130316
0.000129238
0.000136914
0.000134352
0.000144933
0.00014537
0.000155415
0.000161464
0.000169668
0.000180581
0.000188643
0.000201799
0.00021189
0.000225284
0.000238168
0.000251512
0.000266191
0.000279143
0.000289868
0.000300569
0.000311093
0.000322489
0.000333162
0.00034453
0.000356056
0.000366756
0.000379134
0.000389524
0.000401917
0.000412927
0.000424455
0.000436546
0.000447189
0.000459964
0.00047053
0.000482696
0.000494134
0.000504782
0.000517056
0.000526697
0.000538752
0.000548632
0.00055946
0.000570271
0.000579844
0.000591047
0.000600236
0.000610739
0.000620416
0.000629885
0.000639904
0.000649121
0.000658979
0.000668053
0.000677448
0.000686385
0.000695413
0.000704192
0.000712764
0.00072144
0.000729542
0.000737817
0.000745683
0.000753403
0.000761075
0.000767597
0.000774289
0.000158174
0.000154813
0.000151998
0.000149751
0.000147621
0.000145952
0.000144189
0.000142773
0.000141364
0.000139872
0.000138987
0.000137154
0.000136878
0.000134676
0.000134734
0.00013263
0.000132295
0.000130913
0.000129423
0.000129401
0.00012676
0.000128049
0.000125181
0.000126449
0.000125002
0.000126095
0.00012794
0.000129103
0.000135038
0.000137436
0.000146886
0.000152141
0.000163296
0.000172457
0.000183909
0.000197213
0.000208779
0.000225165
0.000237701
0.000253037
0.000263069
0.000275868
0.00028764
0.000299456
0.000312566
0.000323892
0.000337173
0.000348878
0.000361503
0.000373829
0.000385849
0.000398364
0.000410382
0.000422448
0.000434406
0.000445866
0.000457423
0.000468599
0.000479368
0.000490546
0.000500498
0.00051145
0.000521175
0.000531358
0.000541345
0.000550607
0.00056097
0.000569714
0.000579654
0.000588574
0.000597408
0.000606844
0.000614648
0.000624037
0.000631595
0.000640083
0.000647948
0.000655318
0.000663411
0.000670158
0.00067786
0.000684564
0.000691478
0.000698313
0.000704693
0.000711441
0.000717546
0.000724005
0.000729985
0.00073616
0.000741993
0.000747769
0.000753598
0.000758941
0.00076462
0.000769732
0.000775002
0.000779994
0.000784042
0.000788364
0.000158109
0.000154635
0.000151589
0.000149142
0.000146613
0.000144594
0.00014229
0.000140434
0.000138334
0.000136439
0.000134901
0.000132566
0.000131391
0.000128569
0.000127918
0.000125314
0.000124448
0.000122342
0.0001219
0.000122372
0.000123567
0.000127574
0.000131726
0.00013939
0.000147282
0.000158099
0.000169829
0.000182936
0.000198075
0.000212827
0.000229464
0.000241617
0.000256077
0.000268577
0.000282554
0.000295768
0.000308715
0.000322743
0.000334732
0.000348983
0.000360671
0.000374203
0.000385972
0.000398038
0.000409811
0.000420424
0.000431807
0.000441689
0.000452227
0.00046182
0.000471343
0.00048066
0.000489534
0.00049835
0.000506807
0.00051503
0.000523069
0.000530865
0.000538307
0.000545871
0.000552672
0.000559959
0.000566386
0.000573115
0.000579529
0.000585514
0.000592011
0.000597466
0.000603755
0.000609172
0.000614778
0.000620517
0.000625403
0.000630712
0.000634651
0.000639237
0.000643377
0.000647287
0.000651627
0.000655152
0.000659334
0.000662879
0.000666629
0.000670291
0.000673701
0.000677357
0.000680625
0.000684129
0.000687335
0.000690661
0.000693805
0.000696891
0.000700078
0.000702924
0.000706113
0.000708875
0.000711872
0.000714692
0.000717222
0.000719999
0.000157846
0.000153952
0.000150082
0.000146742
0.000142524
0.000139389
0.000135186
0.000131898
0.000128154
0.000126021
0.000123625
0.000120583
0.000118819
0.000117576
0.000118809
0.000120815
0.000125748
0.000131762
0.000140461
0.000150815
0.000163321
0.000177842
0.000193148
0.000209985
0.000226908
0.000242644
0.000257016
0.000271504
0.000285625
0.000298972
0.00031256
0.0003247
0.0003375
0.000348623
0.000360298
0.000370755
0.000381112
0.000391217
0.000400104
0.000409692
0.000417498
0.000426336
0.000432926
0.000439195
0.000445108
0.000450362
0.000455927
0.000460625
0.000465648
0.00047012
0.000474584
0.000478864
0.000482944
0.000486929
0.000490795
0.000494477
0.000498122
0.000501632
0.000504952
0.000508414
0.000511412
0.000514771
0.000517625
0.000520706
0.000523615
0.000526316
0.000529326
0.000531746
0.000534669
0.000537095
0.000539656
0.00054229
0.000544452
0.000547191
0.000549207
0.000551711
0.00055381
0.000555927
0.000558183
0.000560028
0.000562276
0.000564074
0.000566114
0.00056799
0.000569817
0.000571751
0.000573465
0.000575354
0.000577025
0.000578828
0.000580477
0.000582148
0.00058385
0.000585368
0.000587128
0.000588551
0.000590243
0.000591666
0.000592997
0.000594364
0.000156639
0.000151215
0.000143339
0.00013465
0.000126048
0.000121029
0.000114974
0.000112536
0.000112435
0.000114197
0.000117973
0.00012343
0.000130659
0.000139054
0.000149134
0.000160079
0.000172677
0.000186144
0.000201324
0.000217269
0.000233504
0.000246983
0.000259599
0.000271953
0.000282998
0.000294212
0.000302571
0.000310072
0.00031677
0.000322797
0.000328736
0.000333803
0.000339066
0.000343366
0.000347882
0.000351716
0.000355447
0.000359065
0.000362111
0.000365544
0.000368147
0.000371277
0.000373719
0.000376387
0.000378772
0.000380949
0.00038324
0.00038512
0.000387206
0.000388976
0.000390818
0.000392534
0.000394199
0.000395823
0.000397394
0.000398899
0.000400391
0.000401822
0.000403186
0.000404613
0.000405834
0.000407242
0.000408393
0.000409697
0.000410878
0.000412012
0.000413274
0.000414263
0.000415533
0.000416514
0.00041764
0.00041874
0.000419675
0.000420873
0.000421717
0.00042285
0.000423714
0.000424681
0.00042564
0.000426458
0.000427461
0.000428219
0.00042916
0.000429953
0.000430792
0.000431644
0.000432408
0.000433271
0.000434007
0.000434848
0.00043558
0.000436364
0.000437137
0.000437847
0.000438679
0.000439315
0.000440147
0.000440745
0.000441356
0.000441858
0.000151619
0.000136822
0.000113473
9.9527e-05
9.75934e-05
9.81396e-05
0.000110563
0.000115054
0.000121811
0.000129692
0.000137973
0.000146235
0.000154215
0.000161671
0.0001686
0.000174802
0.000180514
0.000185544
0.000190221
0.000194405
0.000198347
0.000202071
0.000205538
0.000208879
0.000211833
0.00021472
0.000217274
0.000219746
0.000221891
0.000223803
0.000225552
0.000226968
0.000228413
0.000229496
0.00023068
0.000231571
0.000232499
0.000233314
0.000234006
0.000234798
0.000235327
0.000236068
0.000236541
0.000237212
0.000237717
0.000238256
0.000238793
0.000239217
0.000239736
0.000240116
0.000240574
0.000240952
0.000241353
0.000241733
0.000242105
0.000242472
0.000242835
0.000243191
0.000243536
0.000243904
0.000244216
0.000244597
0.000244891
0.000245256
0.00024556
0.000245883
0.000246226
0.000246496
0.000246871
0.000247126
0.000247476
0.000247775
0.000248067
0.00024843
0.000248677
0.000249052
0.000249299
0.000249634
0.000249922
0.000250198
0.000250525
0.000250761
0.000251088
0.000251329
0.000251625
0.000251898
0.000252157
0.00025245
0.000252695
0.000252991
0.000253232
0.000253519
0.000253777
0.000254046
0.000254336
0.000254574
0.000254885
0.000255059
0.000255311
0.00025546
2.45432e-05
3.47523e-05
4.04101e-05
4.23028e-05
4.20135e-05
4.05611e-05
3.87134e-05
3.70564e-05
3.56096e-05
3.44457e-05
3.35756e-05
3.2977e-05
3.25979e-05
3.23854e-05
3.2287e-05
3.22578e-05
3.22707e-05
3.22965e-05
3.2333e-05
3.23629e-05
3.23951e-05
3.24254e-05
3.24615e-05
3.25005e-05
3.2537e-05
3.25787e-05
3.26116e-05
3.26532e-05
3.26854e-05
3.27164e-05
3.27428e-05
3.27586e-05
3.2778e-05
3.2782e-05
3.27949e-05
3.27934e-05
3.27991e-05
3.27978e-05
3.27961e-05
3.2798e-05
3.27912e-05
3.2796e-05
3.27881e-05
3.27931e-05
3.27889e-05
3.27912e-05
3.2792e-05
3.27912e-05
3.27952e-05
3.27935e-05
3.27979e-05
3.27978e-05
3.28014e-05
3.28038e-05
3.28075e-05
3.28117e-05
3.28164e-05
3.2822e-05
3.28277e-05
3.28352e-05
3.28415e-05
3.28511e-05
3.28579e-05
3.28688e-05
3.2877e-05
3.28876e-05
3.28986e-05
3.29078e-05
3.29217e-05
3.29307e-05
3.29453e-05
3.2957e-05
3.29707e-05
3.29864e-05
3.29987e-05
3.30166e-05
3.30289e-05
3.30466e-05
3.30609e-05
3.30769e-05
3.30941e-05
3.31084e-05
3.31271e-05
3.31416e-05
3.316e-05
3.31765e-05
3.31937e-05
3.32121e-05
3.32287e-05
3.32481e-05
3.3265e-05
3.32844e-05
3.33026e-05
3.33217e-05
3.33425e-05
3.33606e-05
3.33833e-05
3.34016e-05
3.34239e-05
3.34434e-05
2.46489e-05
0.000674684
0.00119051
0.00158226
0.00193886
0.00221764
0.0024211
0.00246406
0.00245411
0.00243811
0.00242072
0.00241094
0.00241106
0.00242047
0.00243746
0.00245816
0.00248163
0.00250599
0.00252523
0.0025412
0.00255496
0.00255102
0.00253473
0.00251297
0.00246302
0.00238622
0.00231933
0.00226805
0.00220204
0.002159
0.00211995
0.00203048
0.00194183
0.00187927
0.00182048
0.00175226
0.00169278
0.00164491
0.00160387
0.00157557
0.00156875
0.00160166
0.00168557
0.00178551
0.00184527
0.0018552
0.00185029
0.00185669
0.00187984
0.001925
0.00198852
0.00205178
0.00209435
0.0021067
0.00209031
0.0020543
0.00200561
0.00194431
0.00186526
0.00176629
0.00164947
0.00152041
0.00138398
0.00124397
0.00110229
0.000962353
0.000828856
0.000707334
0.000601221
0.000511732
0.000436697
0.000373411
0.000319531
0.000274183
0.000236753
0.000207079
0.000184467
0.000168066
0.000156496
0.000148549
0.000142921
0.000138752
0.000135258
0.000132168
0.000129239
0.000126591
0.000124201
0.000122266
0.000120721
0.00011965
0.000118871
0.000118406
0.000118066
0.000117902
0.000117757
0.000117719
0.00011765
0.000117661
0.000117625
0.000117666
0.0001792
0.00043292
0.000872808
0.00126448
0.00161254
0.00189245
0.00210419
0.00225064
0.00235284
0.00235262
0.0023323
0.00232218
0.00231844
0.00231883
0.00232647
0.00233965
0.00235707
0.00237724
0.00239443
0.00240395
0.00241412
0.00241021
0.00239402
0.00237544
0.0023336
0.00226603
0.00221034
0.00216335
0.00209675
0.00198991
0.00192085
0.00183838
0.00175457
0.00170283
0.00165552
0.00159323
0.0015423
0.00150755
0.00147622
0.0014573
0.00146725
0.00151721
0.00161129
0.00172142
0.00179832
0.00182733
0.00183526
0.00184646
0.00186857
0.00190844
0.0019649
0.00202129
0.00205812
0.00206552
0.00204476
0.00200574
0.00195693
0.00189874
0.0018252
0.00173219
0.00162041
0.00149474
0.00135999
0.00122001
0.00107741
0.000935901
0.000800587
0.000677201
0.000569518
0.000478864
0.000403854
0.000342327
0.000291931
0.000251028
0.000218433
0.000193305
0.000174536
0.000161032
0.000151498
0.000144894
0.000140168
0.000136639
0.000133661
0.000131002
0.000128439
0.000126086
0.000123927
0.000122154
0.000120712
0.000119703
0.000118959
0.000118515
0.000118184
0.000118027
0.000117883
0.000117847
0.000117777
0.00011779
0.000117754
0.0001178
0.000475935
0.000383652
0.000563484
0.00087376
0.00120014
0.00147948
0.0017
0.00186083
0.00197988
0.0020648
0.00212713
0.00218294
0.00220465
0.00220596
0.00221433
0.00222895
0.0022482
0.00227194
0.00229147
0.00230333
0.00230901
0.00230501
0.00228554
0.00226515
0.00222441
0.00215667
0.00208991
0.00198818
0.00185396
0.00174536
0.00168687
0.00161462
0.00153867
0.00150298
0.00147328
0.00142157
0.00138425
0.00136994
0.00135363
0.00134711
0.00137905
0.00145073
0.00155276
0.00166479
0.00175054
0.00179409
0.00181362
0.00182964
0.00185079
0.00188518
0.00193394
0.00198263
0.00201272
0.0020141
0.00198795
0.001945
0.0018955
0.00184043
0.00177298
0.00168688
0.00158121
0.00145991
0.00132762
0.00118833
0.00104541
0.000903057
0.000766747
0.00064242
0.000534165
0.000443623
0.000370169
0.000311734
0.000265674
0.000229818
0.000202331
0.000181701
0.000166466
0.000155461
0.000147562
0.000141973
0.000137885
0.000134803
0.000132196
0.00012988
0.000127633
0.00012556
0.000123636
0.000122042
0.000120715
0.000119772
0.000119062
0.000118638
0.000118313
0.00011816
0.000118014
0.000117979
0.000117907
0.000117922
0.000117885
0.000117937
0.000592539
0.000584349
0.000543899
0.000613215
0.000795849
0.00101787
0.00122444
0.00139055
0.00152354
0.00162711
0.0017071
0.00177979
0.00184311
0.00189721
0.00195318
0.00200671
0.00205679
0.0021071
0.00214201
0.00216191
0.00217845
0.0021669
0.00212618
0.00208568
0.00201324
0.00189331
0.00178806
0.0016942
0.00156554
0.00146636
0.00142692
0.00137156
0.00130946
0.0012981
0.00129444
0.00125921
0.00124052
0.001254
0.00125848
0.00126818
0.00132779
0.00142624
0.00153287
0.00163452
0.0017148
0.00176282
0.00178898
0.00180777
0.00182708
0.00185546
0.00189577
0.00193579
0.00195797
0.00195201
0.0019194
0.00187172
0.00182104
0.00176913
0.00170824
0.00162984
0.00153124
0.00141524
0.00128623
0.00114842
0.001006
0.000863831
0.000727789
0.000603904
0.000496575
0.000407858
0.000337438
0.00028314
0.000242139
0.000211677
0.000189191
0.000172644
0.00016039
0.000151351
0.000144646
0.000139738
0.000136047
0.000133233
0.000130869
0.00012881
0.000126836
0.000125026
0.000123327
0.000121909
0.000120704
0.000119838
0.000119168
0.000118762
0.000118443
0.00011829
0.000118142
0.000118105
0.00011803
0.000118045
0.000118008
0.000118064
0.000700068
0.000705914
0.000688803
0.000665591
0.000665547
0.000721851
0.000819017
0.000928547
0.00103913
0.00114005
0.00122496
0.00130685
0.00138218
0.0014478
0.00151583
0.00158057
0.00163998
0.00170098
0.00174602
0.00177286
0.0017963
0.00179135
0.00175347
0.00171642
0.00165015
0.00153429
0.00143766
0.00136125
0.00125147
0.00117697
0.00117134
0.00114403
0.00110585
0.00112866
0.00115708
0.00114078
0.00114367
0.00118819
0.00121839
0.0012492
0.00134038
0.00146982
0.00157882
0.0016566
0.00171234
0.00174813
0.00177014
0.0017859
0.00180045
0.00182146
0.00185231
0.00188254
0.00189549
0.00188089
0.00184095
0.00178826
0.00173647
0.00168802
0.00163409
0.00156388
0.00147289
0.00136278
0.00123768
0.00110212
0.000961155
0.000820435
0.000686247
0.000564567
0.000459938
0.000374514
0.000308082
0.000258563
0.000222846
0.000197508
0.000179399
0.000166174
0.000156188