/*--------------------------------*- C++ -*----------------------------------*\
| =========                 |                                                 |
| \\      /  F ield         | OpenFOAM: The Open Source CFD Toolbox           |
|  \\    /   O peration     | Version:  v2012                                 |
|   \\  /    A nd           | Website:  www.openfoam.com                      |
|    \\/     M anipulation  |                                                 |
\*---------------------------------------------------------------------------*/
FoamFile
{
    version     2.0;
    format      ascii;
    class       volScalarField;
    location    "0.194";
    object      omega.air;
}
// * * * * * * * * * * * * * * * * * * * * * * * * * * * * * * * * * * * * * //

dimensions      [0 0 -1 0 0 0 0];


internalField   nonuniform List<scalar> 
5600
(
6586.34
7485.56
7886.58
7965.48
7866.06
7687.92
7480.52
7290.34
7125.21
6987.45
6879.53
6795.08
6737.78
6691.75
6665.04
6641.53
6627.08
6615.49
6604.04
6598.08
6587.83
6584.09
6576.93
6573.17
6571.3
6565.95
6568.56
6562.02
6566.52
6560.55
6563.48
6560.24
6558.7
6559.67
6553.63
6557.62
6549.63
6553.74
6547.28
6548.68
6545.96
6543.94
6544.39
6540.76
6541.94
6539.43
6539.15
6538.96
6536.78
6538.44
6535.45
6537.35
6535.24
6536.11
6535.82
6535.11
6536.56
6534.67
6537.45
6534.94
6538.56
6535.87
6539.77
6537.65
6540.96
6539.82
6542.29
6541.9
6544.3
6543.79
6547.38
6545.92
6550.97
6548.78
6554
6552.56
6556.26
6556.86
6558.83
6560.53
6563.05
6563.05
6568.65
6565.71
6573.3
6570.44
6575.65
6577.32
6576.61
6584.99
6576.92
6595.52
6571.27
6618.03
6544.16
6677.24
6446.56
6859.14
6048.81
7488.69
2450.88
2295.58
2571.94
2794.55
2928.53
2997.94
3009.94
2968.69
2968.77
3018.13
3072.38
3120.57
3145.58
3160.1
3153.76
3141.29
3117.66
3091.73
3061.75
3032.54
3003.39
2973.62
2945.83
2915.65
2889.81
2863
2839.57
2817.31
2797.53
2778.78
2761.59
2746.61
2731.51
2719.16
2706.83
2696.31
2686.14
2677.21
2668.95
2660.99
2654.37
2647.65
2641.76
2636.42
2631.15
2626.55
2621.65
2617.56
2613.37
2609.64
2606
2602.66
2599.53
2596.46
2593.88
2591.25
2589.01
2586.61
2584.91
2582.57
2581.22
2579.2
2578.02
2576.37
2575.23
2573.95
2572.91
2571.72
2570.78
2569.68
2568.87
2568.01
2567.44
2566.86
2566.43
2566.03
2565.68
2565.27
2564.91
2564.59
2564.19
2564.01
2563.54
2563.74
2563.12
2563.84
2562.73
2564.44
2562.05
2566.1
2559.82
2570.17
2553.69
2581.12
2536.22
2612.48
2481.31
2711.08
2288.2
3052.19
2358.64
1859.7
1592.37
1427.48
1346.18
1274.36
1278.83
1310.45
1350.33
1414.48
1480.03
1552.25
1609.09
1665.17
1704.87
1732.25
1751.29
1749.74
1746.97
1724.24
1703.44
1676.59
1653.3
1635.29
1618.94
1605.84
1593.43
1581.36
1571.51
1561
1550.93
1541.14
1531.06
1521.93
1512.41
1504.65
1495.92
1488.97
1481.75
1475.18
1469.17
1463.33
1458.2
1452.82
1448.23
1443.77
1439.42
1435.66
1431.63
1428.53
1424.89
1422.12
1419.09
1416.45
1414.03
1411.55
1409.59
1407.11
1405.66
1403.25
1402.14
1399.9
1398.94
1397
1395.98
1394.38
1393.36
1391.89
1390.98
1389.5
1388.84
1387.48
1387.16
1385.91
1385.66
1384.69
1384.19
1383.57
1382.72
1382.38
1381.53
1381.15
1380.5
1380.25
1379.31
1380.12
1377.55
1380.89
1375.13
1382.81
1371.2
1387.3
1363.29
1398.29
1345.99
1423.15
1308.86
1473.92
1236.61
1548.55
2345.18
1822.34
1493.23
1267.74
1110.85
993.289
905.704
848.634
800.316
779.445
757.977
769.485
791.656
822.484
863.313
898.689
945.671
974.296
1014.71
1037.84
1061.29
1081.23
1087.89
1105.64
1100.46
1111.77
1099.68
1099.19
1087.08
1077.14
1069.68
1059.1
1055.08
1046.98
1042.59
1037.39
1032.02
1028.13
1023.23
1019.4
1014.87
1010.59
1006.19
1001.29
996.89
992.339
988.142
984.208
980.072
976.761
973.053
970.106
967.002
964.27
961.679
958.979
956.715
953.856
951.929
949.21
947.649
945.14
943.689
941.438
939.919
937.948
936.481
934.613
933.325
931.431
930.438
928.663
927.978
926.419
925.731
924.471
923.409
922.603
921.252
920.721
919.484
918.873
917.863
917.437
915.949
916.841
913.51
916.955
910.759
917.71
907.246
919.899
901.834
924.889
893.543
932.902
883.26
939.893
878.658
924.623
2341.96
1816.02
1479.71
1248.14
1079.34
953.115
852.504
775.335
710.086
658.977
616.846
580.005
558.985
532.237
528.003
510.258
517.426
519.417
532.168
551.706
563.963
598.717
607.628
652.554
657.75
700.224
708.993
734.658
750.479
755.775
776.202
770.174
788.41
780.516
790.295
785.817
785.598
784.257
777.817
776.813
770.261
767.51
764.182
760.582
758.617
754.989
752.959
750.154
747.555
745.411
742.879
740.994
738.778
736.931
734.745
732.387
730.102
727.371
725.193
722.489
720.662
718.124
716.413
714.069
712.317
710.162
708.486
706.462
704.992
702.996
701.801
699.846
698.805
697.089
695.93
694.53
692.952
691.909
690.198
689.306
687.883
686.893
685.662
684.906
683.169
683.577
680.457
682.591
677.894
681.746
675.249
681.376
672.264
681.508
669.524
680.882
668.818
676.747
672.952
664.984
2341.1
1814.2
1476.63
1244.08
1073.92
945.59
844.154
763.083
697.045
640.003
595.863
551.72
522.372
487.122
466.366
440.777
422.15
409.36
389.153
389.784
367.396
379.07
359.416
374.083
369.703
381.217
394.91
398.687
430.401
425.284
469.254
460.962
502.337
503.202
527.849
541.402
549.636
568.544
568.646
583.259
584.652
590.527
595.18
595.256
600.967
598.884
602.119
600.053
600.42
599.175
597.013
595.662
592.745
591.423
588.611
587.376
585.122
584.251
582.488
581.167
579.789
578.06
577.053
575.363
574.377
572.841
571.827
570.452
569.569
568.255
567.373
565.784
564.694
563.097
561.703
560.377
558.705
557.609
555.996
554.882
553.622
552.392
551.198
550.28
548.563
548.449
545.988
546.653
543.735
544.812
541.598
543.131
539.568
541.442
537.981
539.19
537.152
536.129
536.578
532.832
2340.83
1813.5
1475.67
1242.69
1072.57
943.364
842.407
759.99
694.478
636.284
591.512
547.733
515.108
482.252
455.335
432.744
407.234
393.842
369.054
361.201
340.472
331.785
320.902
304.86
307.711
283.819
297.511
271.441
288.726
268.948
281.523
276.727
279.398
292.437
287.21
310.983
305.161
331.077
331.898
349.551
363.682
371.145
390.207
394.426
413.766
418.914
431.259
437.62
446.134
454.567
458.61
464.119
465.487
470.129
469.837
473.681
472.949
477.284
477.005
479.084
478.685
478.275
478.315
477.141
476.824
475.618
474.542
473.615
472.429
471.684
470.856
470.026
469.124
467.971
466.774
465.756
464.766
464.029
463.34
462.489
461.953
461.029
460.273
459.803
458.511
458.422
456.832
456.781
455.199
455.104
453.512
453.541
451.783
451.821
449.911
449.824
447.795
447.689
445.024
445.637
2340.74
1813.16
1475.32
1242.02
1072.16
942.402
841.876
758.948
693.475
635.596
589.555
547.685
512.115
482.38
452.077
431.614
405.095
389.702
368.951
353.045
341.562
320.424
319.828
292.984
299.61
273.172
277.656
261.66
254.086
255.382
232.626
248.706
218.679
237.949
214.331
224.296
216.351
212.37
219.946
207.894
221.491
213.298
223.073
225.242
229.077
238.459
241.422
253.213
257.723
269.407
277.139
286.663
295.077
305.478
311.877
322.969
327.183
338.901
344.115
352.308
358.123
362.513
368.087
371.063
375.444
378.105
381.093
383.478
385.114
386.912
388.231
389.555
390.466
390.785
391.023
390.77
391.313
391.25
391.872
391.513
391.641
391.04
390.586
390.281
389.394
388.974
387.849
387.084
385.856
385.12
383.745
383.369
381.66
381.466
379.425
379.217
376.812
376.53
373.71
373.501
2340.7
1812.96
1475.16
1241.69
1071.94
942.036
841.483
758.751
692.698
635.748
588.328
548.057
510.797
482.366
451.434
430.396
405.79
386.914
370.798
349.422
343.08
317.916
318.656
293.772
294.113
277.536
268.577
266.921
244.529
257.083
226.512
242.909
217.71
223.589
214.797
204.827
210.652
192.023
201.725
186.972
188.592
185.649
177.305
183.469
170.545
178.036
168.639
173.987
169.536
168.773
170.869
168.848
175.607
172.116
181.069
179.645
189.1
187.504
195.543
197.029
205.12
211.076
217.719
224.249
231.591
236.766
246.311
250.205
259.174
262.78
269.41
274.98
279.485
285.71
289.337
293.667
298.151
301.034
305.882
307.469
310.908
312.409
313.996
316.063
316.903
318.256
318.703
319.052
319.146
319.19
318.918
319.214
318.378
318.706
317.3
317.357
315.578
315.089
313.171
312.244
2340.68
1812.88
1475.06
1241.6
1071.73
942.032
841.105
758.881
692.179
635.886
587.907
547.885
510.818
481.604
452.015
429.174
406.504
385.941
370.709
349.719
341.278
320.099
315.078
297.19
290.156
280.046
266.72
266.04
246.761
251.95
232.243
235.862
223.004
218.86
215.749
204.589
206.721
195.017
195.482
188.789
183.985
183.057
174.936
175.908
168.499
168.309
162.973
161.595
158.218
155.203
153.467
149.833
150.593
143.961
148.51
139.381
147.015
136.945
142.459
136.912
138.483
138.47
137.489
139.381
139.274
140.186
142.726
141.468
146.953
145.456
150.745
151.284
154.402
158.752
160.887
167.168
169.373
173.695
177.634
180.132
185.502
188.288
192.821
196.672
199.705
204.149
206.866
210.852
213.81
216.911
219.689
222.256
224.382
226.673
228.244
230.282
231.694
233.14
234.37
235.223
2340.69
1812.9
1475.05
1241.67
1071.65
942.193
840.947
759.07
692.075
635.909
588.081
547.544
511.372
480.965
452.671
428.728
406.606
386.402
369.632
351.462
339.055
322.585
312.766
298.918
289.461
279.41
268.809
262.662
251.07
247.385
236.357
232.924
224.225
219.405
213.711
207.397
203.945
197.082
194.666
188.275
185.772
180.837
177.306
174.422
169.556
168.47
163.137
162.249
158.538
155.877
154.893
150.624
151.128
147.44
146.808
146.084
143.235
145.234
141.675
144.253
142.43
144.102
144.89
145.325
148.437
148.68
152.695
154.666
157.674
161.972
164.131
169.893
172.653
177.839
182.106
185.868
191.536
195.255
200.881
205.133
209.482
214.166
217.675
222.149
225.724
229.209
232.588
235.277
238.172
240.544
242.952
245.197
247.079
248.901
250.273
251.542
252.486
253.209
253.846
254.341
2340.71
1813
1475.15
1241.86
1071.76
942.445
841.056
759.334
692.263
636.075
588.453
547.536
511.934
480.879
453.214
428.873
406.769
387.126
369.18
352.814
338.202
324.081
312.237
299.727
290.071
278.967
270.8
261.212
253.806
245.968
238.706
232.772
225.347
221.145
213.782
210.586
204.184
200.786
196.518
192.002
190.314
184.88
184.995
180.131
180.347
177.941
176.973
177.986
176.244
179.64
179.137
182.83
185.298
188.637
193.859
197.293
204.391
208.751
216.311
222.616
229.03
237.612
242.976
251.997
258.014
265.287
272.636
277.921
285.538
290.094
296.237
301.459
305.532
310.793
313.883
317.862
320.92
323.595
326.54
328.084
330.19
331.362
332.286
333.367
333.805
334.36
334.598
334.654
334.685
334.43
334.252
333.904
333.46
332.863
332.114
331.271
330.22
329.1
327.951
326.85
2340.76
1813.17
1475.38
1242.15
1072.06
942.831
841.406
759.781
692.677
636.543
588.977
547.987
512.596
481.327
453.98
429.421
407.532
387.947
369.838
354.044
338.801
325.711
313.05
301.639
291.512
281.149
273.288
263.893
257.779
249.643
244.839
238.367
234.529
230.085
227.019
225.02
222.716
223.533
222.694
226.115
227.646
232.589
237.608
243.175
251.723
257.999
268.482
276.531
286.571
296.861
305.646
316.763
324.806
334.877
342.971
350.922
359.142
365.023
372.489
377.144
382.703
386.882
390.274
393.866
395.789
398.352
399.75
401.185
402.712
403.309
404.583
404.93
405.46
405.836
405.707
405.913
405.515
405.337
404.915
404.234
403.761
402.86
402.125
401.324
400.407
399.629
398.735
397.921
397.044
396.159
395.272
394.357
393.412
392.402
391.348
390.23
389.058
387.847
386.696
385.63
2340.87
1813.5
1475.85
1242.71
1072.72
943.574
842.226
760.711
693.661
637.683
590.168
549.362
514.091
482.991
455.96
431.506
410.246
390.774
373.65
358.241
344.215
332.19
320.902
311.905
303.515
297.266
291.817
288.552
286.211
286.427
288.723
292.409
299.485
306.116
317.573
326.823
340.93
352.613
366.797
380.572
393.303
407.548
418.736
431.497
441.585
451.394
460.094
466.954
473.471
478.143
482.2
485.501
487.861
490.365
491.82
493.288
494.241
494.615
495.128
494.663
494.536
493.661
492.801
491.811
490.453
489.428
488.047
487.037
486.065
484.993
484.213
483.132
482.24
481.283
480.247
479.392
478.373
477.497
476.587
475.629
474.804
473.862
473.025
472.165
471.273
470.374
469.364
468.367
467.316
466.281
465.203
464.149
463.057
461.969
460.87
459.753
458.672
457.586
456.631
455.812
2341.15
1814.19
1476.91
1243.99
1074.37
945.474
844.538
763.375
696.817
641.431
594.523
554.684
520.456
490.974
465.797
443.739
425.968
410.455
399.135
389.393
383.951
379.908
380.996
385.373
393.348
404.876
418.477
435.771
452.784
473.122
491.306
511.643
529.404
546.498
562.237
574.414
586.619
594.343
602.392
607.372
612.187
615.864
618.213
620.436
620.926
621.387
620.562
619.359
617.689
615.486
613.29
610.996
609.04
607.269
605.506
603.883
602.237
600.611
599.058
597.427
595.945
594.405
592.977
591.604
590.236
588.939
587.571
586.118
584.615
583.05
581.497
579.887
578.27
576.699
575.083
573.589
572.079
570.612
569.214
567.785
566.474
565.15
563.902
562.695
561.493
560.36
559.218
558.14
557.059
556.031
554.976
553.981
552.947
551.966
550.981
550.007
549.109
548.231
547.55
547.051
2342.03
1815.98
1480.11
1247.96
1080.29
952.698
854.163
775.213
712.319
660.673
618.987
587.052
562.448
545.682
534.416
530.206
534.439
545.038
561.151
580.896
604.828
630.315
657.992
684.502
711.249
734.65
754.901
771.542
783.865
794.544
801.456
807.66
810.495
812.371
811.873
809.78
806.852
802.412
798.412
794.017
790.716
787.447
784.447
781.474
778.52
775.7
772.878
770.242
767.698
765.28
762.886
760.509
757.955
755.248
752.614
749.871
747.272
744.656
742.11
739.67
737.225
734.949
732.69
730.573
728.53
726.552
724.706
722.856
721.143
719.405
717.721
716.071
714.366
712.814
711.194
709.759
708.314
706.925
705.628
704.301
703.101
701.886
700.757
699.656
698.59
697.589
696.603
695.699
694.803
693.985
693.138
692.376
691.565
690.831
690.078
689.367
688.744
688.149
687.811
687.718
2345.25
1822.38
1493.87
1268.14
1113.26
994.139
912.634
851.97
814.546
787.865
783.614
800.196
828.975
866.196
907.453
950.44
990.069
1027.13
1058.2
1083.59
1103.53
1118.31
1129.26
1135.55
1137.64
1134.6
1128.07
1118.67
1108.61
1099.52
1091.76
1085.18
1078.99
1073.31
1067.79
1062.66
1057.69
1053.05
1048.35
1043.56
1038.44
1033.34
1028.24
1023.19
1018.52
1013.84
1009.58
1005.45
1001.59
997.988
994.506
991.367
988.27
985.344
982.561
979.799
977.262
974.714
972.318
970.014
967.727
965.647
963.534
961.619
959.727
957.932
956.271
954.612
953.159
951.64
950.245
948.866
947.456
946.24
944.96
943.885
942.761
941.737
940.748
939.761
938.87
937.952
937.131
936.305
935.536
934.805
934.099
933.47
932.857
932.326
931.757
931.287
930.755
930.322
929.837
929.455
929.136
928.906
928.968
929.388
2358.74
1860.9
1594.79
1433.97
1354.06
1288.9
1305.32
1337.23
1392.19
1465.09
1539.77
1610.29
1672.32
1723.16
1759.96
1783.51
1792.4
1789
1773.19
1750.29
1724.06
1700.76
1682.12
1666.56
1652.48
1639.47
1627.41
1615.91
1604.99
1593.75
1582.85
1571.8
1561.68
1551.65
1542.49
1533.73
1525.48
1518.03
1510.7
1504.27
1497.86
1492.07
1486.45
1481.27
1476.48
1471.77
1467.62
1463.47
1459.76
1456.18
1452.83
1449.79
1446.81
1444.15
1441.56
1439.16
1436.93
1434.75
1432.75
1430.81
1428.94
1427.25
1425.52
1424.01
1422.48
1421.07
1419.77
1418.47
1417.4
1416.19
1415.18
1414.14
1413.14
1412.27
1411.37
1410.62
1409.82
1409.13
1408.44
1407.76
1407.14
1406.51
1405.98
1405.43
1404.94
1404.48
1404.06
1403.7
1403.38
1403.14
1402.85
1402.65
1402.4
1402.27
1402.05
1402.03
1401.96
1402.23
1402.76
1403.9
2454.75
2305.65
2580.47
2808.63
2934.26
3009.96
2994.66
2967.39
3014.91
3085.55
3150.14
3196.51
3222.5
3229.8
3222.29
3203.86
3178.44
3148.78
3117.77
3086.42
3054.69
3023.19
2991.81
2961.83
2933.48
2907.29
2882.83
2860.53
2839.9
2820.91
2803.8
2787.64
2773.61
2760.05
2748.34
2737.16
2727.13
2718.04
2709.33
2701.89
2694.52
2688.1
2681.98
2676.29
2670.96
2665.71
2661.1
2656.38
2652.23
2648.16
2644.4
2640.95
2637.57
2634.63
2631.69
2629.1
2626.62
2624.29
2622.15
2620.1
2618.16
2616.42
2614.65
2613.15
2611.63
2610.27
2609.04
2607.81
2606.8
2605.7
2604.78
2603.89
2603.06
2602.32
2601.64
2601.07
2600.53
2600.05
2599.58
2599.14
2598.74
2598.37
2598.07
2597.81
2597.59
2597.42
2597.32
2597.27
2597.29
2597.34
2597.42
2597.55
2597.66
2597.87
2598.02
2598.48
2598.68
2599.72
2600.7
2602.68
6588.08
7481.92
7876.77
7936
7826.37
7629.96
7415.04
7222.13
7053.47
6914.44
6805.28
6723.51
6663.94
6621.68
6591.83
6570.18
6554.4
6541.4
6531.43
6522.24
6515.12
6508.79
6504.02
6500.43
6497.21
6495.37
6493.04
6492.01
6490.4
6488.98
6487.48
6485.26
6483.69
6480.93
6479.21
6476.4
6474.38
6471.93
6469.57
6467.7
6465.17
6463.8
6461.45
6460.32
6458.51
6457.33
6456.13
6454.83
6454.05
6452.82
6452.21
6451.26
6450.71
6450.12
6449.7
6449.4
6449.18
6449.11
6449.09
6449.28
6449.42
6449.9
6450.2
6450.89
6451.4
6452.16
6453
6453.73
6454.87
6455.67
6456.93
6458.02
6459.3
6460.8
6462.1
6463.87
6465.24
6467.03
6468.59
6470.29
6472.11
6473.74
6475.73
6477.43
6479.45
6481.36
6483.36
6485.47
6487.47
6489.69
6491.75
6494.02
6496.22
6498.49
6500.93
6503.08
6505.59
6507.36
6508.81
6508.74
5488.05
3370.17
2417.18
1949.39
1666.42
1481.54
1347.37
1246.09
1163.54
1094.83
1036.1
984.395
938.312
896.881
858.754
823.476
790.637
759.463
729.802
701.774
674.937
649.82
625.972
602.259
579.964
559.291
537.362
515.243
495.238
475.147
455.175
437.351
420.063
402.42
385.976
369.566
352.388
336.816
323.823
312.734
304.935
300.499
296.355
291.759
290.315
294.427
300.643
302.504
297.394
288.554
279.8
272.288
265.752
259.37
252.594
245.695
239.362
234.092
229.908
226.227
222.265
217.034
209.668
199.557
186.871
172.442
157.6
143.258
129.942
117.758
106.851
97.2956
89.0942
82.037
76.1779
71.5643
68.2184
65.9651
64.6019
63.8604
63.5392
63.4056
63.3308
63.191
62.9849
62.6923
62.382
62.068
61.8183
61.6157
61.4886
61.3915
61.3443
61.3017
61.2899
61.2682
61.2687
61.2525
61.256
61.2424
1568.12
2577.05
2361.81
1987.64
1703.39
1502.74
1355.26
1243.8
1153.63
1080.22
1018.63
965.135
918.476
877.469
840.263
806.254
774.807
744.934
716.478
689.572
663.543
638.911
615.319
591.391
568.572
547.346
524.616
501.807
481.674
461.656
441.613
423.998
407.101
389.604
373.391
357.396
340.433
325.697
314.536
305.544
299.79
297.01
293.343
288.011
285.16
287.764
293.041
294.94
290.565
282.494
274.274
266.991
260.359
253.711
246.691
239.675
233.293
227.971
223.753
220.104
216.244
211.235
204.202
194.519
182.239
168.071
153.246
138.796
125.346
113.152
102.399
93.0834
85.123
78.5078
73.2862
69.3904
66.6602
64.877
63.8148
63.2643
63.0398
62.978
62.9477
62.8643
62.6955
62.453
62.1727
61.898
61.6624
61.4843
61.36
61.2801
61.2291
61.1994
61.1804
61.1705
61.163
61.1601
61.1571
61.1607
1141.52
1417.61
1803.91
1801.97
1643.39
1476.12
1336.74
1224.99
1132.83
1057.1
993.901
939.427
892.626
852.169
815.848
783.087
753.036
724.48
697.372
671.637
646.571
622.666
599.621
575.783
552.743
531.251
507.995
484.794
464.663
444.533
424.272
406.868
390.483
373.448
357.869
342.796
326.615
314.351
307.101
301.926
299.345
298.771
295.055
287.408
281.573
281.659
285.425
287.008
283.156
275.758
268.012
260.904
254.131
247.249
240.141
233.216
226.985
221.754
217.564
213.953
210.163
205.308
198.517
189.166
177.207
163.238
148.385
133.789
120.21
108.07
97.5237
88.5397
81.1322
75.3076
70.9212
67.7669
65.592
64.185
63.3396
62.9075
62.7309
62.6982
62.6863
62.6369
62.499
62.2987
62.0514
61.8129
61.5921
61.4291
61.3047
61.2326
61.1775
61.1537
61.1292
61.1253
61.1127
61.1169
61.1103
61.1239
899.062
848.435
1028.15
1248.26
1338.99
1312.45
1237.57
1155.19
1078.21
1010.53
952.432
901.603
857.559
819.339
784.905
754.064
725.85
698.866
673.353
648.933
624.882
601.846
579.422
555.885
532.829
511.084
487.24
463.337
442.428
421.638
401.119
384.074
368.534
353.012
339.346
326.321
313.488
307.023
306.81
307.386
308.421
309.803
305.321
293.286
281.878
277.469
278.535
279.111
275.398
268.511
261.157
254.173
247.256
240.236
233.293
226.782
221
216.084
212.044
208.503
204.742
199.917
193.189
183.959
172.114
158.168
143.168
128.349
114.637
102.577
92.3284
83.9733
77.4668
72.62
69.1013
66.6212
64.9008
63.7705
63.0651
62.6939
62.5279
62.4956
62.4832
62.4536
62.3439
62.184
61.9692
61.7637
61.5608
61.4135
61.2911
61.224
61.1647
61.1435
61.114
61.1133
61.0966
61.1056
61.0963
61.1172
676.478
657.392
667.681
732.202
834.396
919.009
957.019
956.201
932.555
899.257
863.984
829.171
796.747
767.12
739.08
713.367
689.237
665.327
642.408
620.02
597.351
575.311
553.344
530.024
506.627
483.568
458.163
432.571
409.629
387.894
368.54
353.549
340.997
329.889
321.515
314.196
309.337
312.266
320.891
327.153
329.829
330.932
325.388
308.413
288.937
277.408
273.826
272.187
267.931
261.245
254.139
247.225
240.227
233.288
226.881
221.247
216.333
212.047
208.348
204.953
201.184
196.229
189.298
179.858
167.781
153.553
138.197
123.032
109.139
97.2037
87.4903
80.0321
74.5455
70.6411
67.8703
65.9196
64.5264
63.5757
62.9424
62.5854
62.3993
62.3449
62.316
62.2943
62.2074
62.0861
61.9032
61.7296
61.5486
61.4218
61.3054
61.2443
61.1813
61.1618
61.1273
61.1289
61.108
61.1208
61.1089
61.1363
531.364
532.034
527.592
528.594
540.617
565.504
596.762
626.143
648.801
663.088
669.315
669.842
666.206
659.288
649.193
637.643
624.474
608.907
592.249
574.286
554.691
534.376
512.71
489.234
464.673
438.452
410.436
383.925
361.168
343.696
331.651
324.721
321.226
319.551
319.262
320.778
325.921
336.842
350.489
358.531
359.355
357.564
350.853
331.541
304.601
284.181
273.591
267.84
261.852
254.755
247.612
240.682
233.769
227.334
222.042
217.949
214.494
211.268
208.17
205.044
201.261
196.017
188.577
178.514
165.761
150.863
134.891
119.257
105.166
93.4372
84.3104
77.6352
72.9184
69.6602
67.3605
65.7222
64.5011
63.6256
62.9936
62.6035
62.3626
62.2615
62.1954
62.1651
62.0866
61.998
61.8486
61.7148
61.5597
61.457
61.3476
61.2951
61.2288
61.213
61.1729
61.178
61.152
61.1696
61.1543
61.1887
439.857
441.919
440.085
435.35
428.568
422.607
418.48
415.324
415.183
418.904
424.076
433.545
445.392
456.486
467.79
477.807
484.545
487.779
486.239
479.223
468.345
453.295
433.458
411.602
388.013
361.746
339.233
323.103
316.527
318.573
322.84
328.372
334.874
339.518
343.794
351.224
361.958
375.107
387.915
393.838
391.123
385.747
377.661
358.531
328.196
299.855
280.792
268.772
259.36
250.822
243.122
236.086
229.644
224.47
221.158
219.406
218.07
216.336
214.072
211.326
207.534
201.888
193.662
182.582
168.724
152.822
136.051
119.906
105.571
93.822
84.7758
78.2119
73.5666
70.3495
68.0415
66.3734
65.0796
64.1169
63.365
62.8608
62.4979
62.3071
62.1624
62.0998
62.0037
61.9413
61.8171
61.7302
61.5965
61.5259
61.4201
61.387
61.3143
61.3127
61.2621
61.2804
61.243
61.2746
61.2499
61.3008
369.435
371.676
371.383
368.124
361.445
352.431
342.284
330.831
319.314
308.954
298.468
290.681
285.916
282.441
283.946
288.575
294.442
303.887
311.804
315.738
317.901
315.048
308.275
300.961
293.794
293.954
302.326
315.873
333.006
348.226
358.356
366.741
374.173
379.393
385.436
395.303
407.454
419.424
427.954
428.698
421.622
412.774
403.769
386.293
356.701
323.983
297.47
278.394
264.258
253.253
244.409
237.245
231.808
228.688
228.065
229.144
230.138
229.919
228.386
225.917
222.024
215.911
206.777
194.489
179.276
162.184
144.494
127.816
113.159
101.123
91.5196
84.2441
78.7524
74.7236
71.6108
69.2657
67.3429
65.8905
64.6827
63.8427
63.1589
62.7673
62.4287
62.2893
62.1049
62.0601
61.9141
61.8922
61.7527
61.7531
61.6312
61.6631
61.56
61.6183
61.5268
61.6041
61.521
61.6157
61.5506
61.6741
309.721
309.723
308.638
305.453
299.694
291.714
282.392
272.204
262.355
253.049
245.479
239.549
235.75
234.029
234.108
235.782
238.642
242.722
247.88
253.992
261.222
270.161
280.877
293.59
311.119
331.886
351.412
369.727
386.614
399.446
408.509
416.102
422.421
427.891
435.193
445.356
455.776
462.146
461.394
453.841
442.306
431.346
422.995
410.846
386.642
353.944
323.241
298.685
280.043
266.3
256.086
248.867
244.714
243.879
245.88
249.305
251.869
252.384
250.946
248.329
244.035
237.351
227.321
213.915
197.296
178.92
160.101
142.888
128.138
116.449
106.804
99.1759
92.6977
87.4463
82.6538
78.676
74.9487
72.0376
69.3945
67.5607
65.8947
64.9609
64.0258
63.6921
63.1668
63.158
62.8279
62.9901
62.7433
62.9952
62.7642
63.0572
62.8062
63.1195
62.8423
63.1814
62.8931
63.2772
63.0293
63.4993
235.944
236.76
237.141
236.717
235.503
233.951
232.716
232.586
234.029
237.047
242.044
247.686
254.573
261.991
269.015
275.898
282.595
289.307
296.971
305.779
315.746
327.64
341.723
357.872
375.605
393.519
411.238
429.041
444.992
456.819
465.4
472.127
477.277
481.748
487.225
492.646
494.129
487.918
474.917
459.549
444.592
433.113
427.763
424.313
411.761
385.539
355.094
328.297
307.077
291.462
280.214
273.05
269.984
270.803
274.214
278.392
280.85
280.717
278.464
275.141
270.112
262.838
252.118
238.143
220.678
201.52
181.787
164.324
149.574
138.87
130.197
123.824
117.689
112.688
106.911
101.865
95.8098
90.8302
85.219
81.3537
77.1554
74.9725
72.2704
71.5302
69.8721
70.1334
69.1399
70.071
69.4083
70.6527
69.9786
71.2804
70.4423
71.7276
70.7355
72.0673
71.0055
72.4927
71.5663
73.3791
254.783
255.234
255.941
257.733
260.797
265.511
271.634
279.367
287.599
296.511
305.223
313.441
320.864
327.442
333.265
338.894
344.687
351.11
358.771
367.819
378.454
391.184
406.047
422.92
441.079
459.682
478.836
497.441
512.503
522.616
528.542
531.442
532.303
531.675
529.214
522.437
508.029
486.745
464.308
445.273
430.547
421.627
420.116
423.498
423.123
409.744
385.63
360.401
339.147
323.001
311.389
304.438
302.052
303.581
307.088
310.391
310.994
308.868
304.959
300.487
294.712
287.363
276.756
263.024
245.482
226.589
207.302
190.906
176.732
166.774
158.679
153.673
148.566
145.472
140.993
137.99
132.575
128.723
122.327
118.499
112.599
110.224
105.78
105.313
102.401
103.759
102.115
104.829
103.72
106.908
105.558
108.672
106.847
109.79
107.613
110.584
108.271
111.577
109.555
113.644
325.942
325.279
325.288
326.732
329.766
334.299
340.085
346.909
354.071
361.703
369.362
376.659
383.907
390.909
397.616
404.41
411.559
419.207
427.777
437.599
449.094
462.483
477.723
494.425
513.104
533.734
554.969
573.561
585.387
589.953
588.54
582.763
573.993
561.924
544.584
520.897
492.632
464.851
442.584
426.813
416.161
410.977
412.111
418.159
423.484
420.444
405.604
384.966
365.72
350.359
339.416
333.464
332.384
335.062
338.666
340.325
337.98
332.892
326.629
320.512
313.732
305.897
295.09
281.301
264.412
247.33
231.093
217.87
206.352
197.483
189.842
184.974
180.912
179.129
177.29
177.052
175.637
175.458
173.546
173.213
171.16
171.295
169.664
170.698
169.701
171.81
171.38
174.274
173.802
176.827
175.755
178.669
176.917
179.792
177.536
180.64
178.145
181.828
179.544
184.395
384.83
384.369
384.69
386.556
390.174
395.484
402.328
410.422
419.306
428.653
437.863
446.732
455.488
463.815
471.681
479.434
487.256
495.551
504.516
514.727
526.752
540.429
555.998
574.016
595.394
618.715
639.664
652.66
654.214
645.799
630.491
610.85
587.751
560.933
530.53
498.574
468.772
444.537
427.635
416.866
410.306
407.855
409.953
415.873
422.208
423.314
414.915
399.703
383.899
371.141
362.854
359.943
362.268
367.635
371.748
371.088
364.865
355.931
346.457
337.535
328.408
318.385
306.2
292.314
277.678
264.426
253.231
244.388
237.107
231.307
226.333
222.462
219.713
218.525
218.599
219.678
221.291
223.181
225.038
226.871
228.335
229.785
230.752
232.02
232.73
234.198
234.816
236.516
236.687
238.382
237.864
239.666
238.436
240.503
238.669
241.268
239.037
242.463
240.268
245.098
455.338
455.252
456.01
458.468
462.894
469.293
477.448
487.118
497.692
509.136
520.574
531.842
543.019
553.424
562.973
571.977
580.581
589.144
597.827
607.671
619.137
631.875
647.352
666.983
690.072
711.935
724.212
721.064
703.766
676.718
644.926
611.947
578.06
543.53
510.068
479.62
454.597
436.744
425.889
419.752
416.403
415.45
417.13
421.201
425.815
427.056
421.541
410.728
399.589
391.938
389.177
392.232
400.534
409.756
413.85
409.48
398.164
384.314
370.567
357.745
345.288
332.565
319.375
306.761
296.037
287.98
282.36
278.349
275.532
273.501
272.316
271.791
272.025
272.644
273.73
275.038
276.755
278.5
280.416
282.055
283.561
284.749
285.711
286.699
287.446
288.684
289.342
290.826
290.985
292.543
291.995
293.78
292.431
294.63
292.576
295.504
292.896
296.92
294.276
300.043
546.999
547.42
548.898
552.471
558.584
567.281
578.372
591.474
605.937
621.413
636.668
651.512
665.549
677.648
687.886
696.484
703.496
709.457
714.844
721.197
729.156
739.013
753.557
773.194
792.97
803.471
794.854
767.67
729.894
687.867
645.9
606.272
568.812
533.782
502.856
477.447
458.758
447.48
442.147
439.941
438.901
438.436
438.716
439.851
441.055
440.178
435.376
428.34
423.722
424.449
430.732
443.076
459.479
472.292
474.296
464.086
446.392
426.707
408.068
391.284
375.832
361.387
348.782
339.249
333.558
331.157
330.894
331.628
332.958
334.561
336.552
338.787
341.29
343.848
346.357
348.668
350.616
352.256
353.386
354.368
354.859
355.577
355.859
356.841
357.309
358.824
359.285
361.017
360.956
362.744
361.985
363.96
362.344
364.871
362.401
365.942
362.649
367.734
364.206
371.582
688.22
689.327
691.845
697.185
706.096
718.663
734.605
753.137
773.344
793.977
813.489
831.192
845.949
856.451
863.309
866.477
866.309
864.369
861.78
860.777
863.025
869.318
881.772
896.793
903.522
890.574
855.664
807.34
755.644
705.928
660.315
618.968
581.893
549.607
523.01
503.312
490.997
485.788
485.29
486.399
486.972
486.292
484.552
482.084
478.877
474.648
469.843
467.759
473.138
486.917
506.794
532.124
557.545
571.481
567.63
549.186
524.145
498.381
475.07
455.033
437.703
423.195
413.065
408.209
408.275
411.533
416.218
421.206
425.998
430.432
434.541
438.339
441.745
444.734
447.168
449.106
450.455
451.453
452.037
452.546
452.807
453.28
453.605
454.442
455.023
456.221
456.73
457.976
458.04
459.338
458.786
460.329
458.938
461.273
458.807
462.706
458.816
465.374
460.482
470.855
930.648
932.711
936.747
944.926
958.427
977.189
1000.23
1025.93
1052.24
1076.66
1097.29
1112.58
1120.73
1121.48
1116.4
1105.26
1090.23
1074.71
1060.25
1050.17
1047.26
1050.32
1057.33
1059.21
1041.59
999.707
941.878
879.075
819.298
766.083
719.897
679.372
644.469
615.603
593.593
579.378
573.002
573.211
577.007
581.039
582.838
581.562
577.495
571.08
562.851
554.743
551.065
558.228
580.466
614.978
655.062
697.329
729.946
739.28
724.428
695.808
663.098
631.834
604.933
582.956
565.281
552.795
547.24
548.596
554.958
563.616
572.659
581.048
588.251
594.278
599.185
603.176
606.248
608.583
610.175
611.241
611.838
612.218
612.424
612.672
612.893
613.331
613.787
614.572
615.219
616.17
616.716
617.593
617.803
618.66