/*--------------------------------*- C++ -*----------------------------------*\
| =========                 |                                                 |
| \\      /  F ield         | OpenFOAM: The Open Source CFD Toolbox           |
|  \\    /   O peration     | Version:  v2012                                 |
|   \\  /    A nd           | Website:  www.openfoam.com                      |
|    \\/     M anipulation  |                                                 |
\*---------------------------------------------------------------------------*/
FoamFile
{
    version     2.0;
    format      ascii;
    class       volScalarField;
    location    "0.11";
    object      epsilon.air;
}
// * * * * * * * * * * * * * * * * * * * * * * * * * * * * * * * * * * * * * //

dimensions      [0 2 -3 0 0 0 0];


internalField   nonuniform List<scalar> 
1900
(
112.724
141.424
210.098
257.591
369.051
443.457
614.739
724.909
971.327
1128.62
15.4676
16.4471
18.6377
20.4498
23.7576
27.7269
32.0038
39.2874
45.1211
56.7569
14.7926
14.6414
14.5755
14.5063
14.5148
14.5574
14.6409
14.8308
15.0774
15.4131
14.77
14.6304
14.4634
14.3354
14.1726
14.059
13.9039
13.808
13.6653
13.5938
14.7767
14.6215
14.4705
14.3204
14.1748
14.0288
13.889
13.7472
13.6139
13.4769
14.7778
14.6205
14.4714
14.3195
14.1754
14.0283
13.8891
13.7472
13.6133
13.4774
14.7777
14.6206
14.4731
14.3234
14.1841
14.045
13.9175
13.7915
13.6807
13.5716
14.7762
14.6498
14.5639
14.5033
14.5107
14.5518
14.6363
14.8205
15.0448
15.3954
15.2148
16.5985
18.2797
20.6756
23.596
27.5683
32.2683
38.4013
45.5682
54.8112
105.949
146.567
198.388
265.747
350.048
456.027
585.698
743.636
931.848
1153.98
4100.08
15197.8
19580
22449.4
21112.7
18012.4
15072.8
12776.5
11281.4
10368.9
9871.54
9700.27
9528.84
9261.77
8854.86
8354.84
7798.82
7211.18
6644.47
6126.19
5649.23
5222.48
4838.35
4487.54
4168.25
3878.81
3616.3
3378.7
3162.87
2966.91
2788.47
2625.54
2476.47
2339.74
2214.2
2098.69
1992.27
1894.01
1803.11
1718.85
1640.61
1567.81
1499.93
1436.53
1377.22
1321.62
1269.44
1220.39
1174.22
1130.69
1089.59
1050.74
1013.95
979.072
945.955
914.455
884.465
855.852
828.545
802.422
777.446
753.499
730.577
708.553
687.455
667.135
647.657
628.84
610.795
593.301
576.529
560.208
544.59
529.333
514.788
500.522
486.997
473.662
461.114
448.65
437.035
425.369
414.637
403.687
393.787
383.463
374.353
364.563
356.212
346.861
339.256
330.246
323.392
314.618
308.539
299.884
294.619
285.96
281.543
271.126
113.088
337.638
518.02
923.036
1125.84
1149.39
1120.98
1055.67
1049.29
1088.55
1193.69
1407.58
1695.49
2028.09
2379.03
2692.21
2970.55
3203.23
3358.43
3435.55
3427.88
3389.23
3303.56
3185.62
3057.07
2925.43
2794.34
2667.36
2543.69
2426.18
2314
2207
2105.65
2009.72
1919.36
1834.27
1754.35
1679.09
1608.27
1541.63
1478.88
1419.74
1363.95
1311.28
1261.51
1214.41
1169.8
1127.49
1087.32
1049.13
1012.8
978.175
945.159
913.632
883.507
854.674
827.062
800.572
775.154
750.716
727.236
704.623
682.889
661.929
641.786
622.337
603.654
585.58
568.231
551.403
535.266
519.563
504.536
489.864
475.874
462.164
449.163
436.358
424.307
412.353
401.21
390.04
379.761
369.297
359.833
349.99
341.298
331.985
324.034
315.16
307.937
299.406
292.912
284.625
278.878
270.724
265.757
257.616
253.467
243.695
16.4267
19.8637
22.8829
29.097
34.8027
38.7341
41.6867
43.7221
46.6296
50.6319
58.6405
70.8629
95.3954
130.229
189.361
267.34
373.623
508.877
666.186
837.479
1006.46
1164.9
1305.08
1421.96
1512.13
1574.54
1611.89
1628.31
1625.39
1614.29
1591.05
1560.93
1526.71
1489.67
1451.27
1411.67
1371.96
1331.65
1291.79
1252.61
1214.13
1176.57
1140.04
1104.62
1070.34
1037.12
1005.03
973.968
943.927
914.869
886.77
859.57
833.254
807.782
783.146
759.295
736.225
713.881
692.262
671.311
651.039
631.385
612.386
593.964
576.187
558.954
542.359
526.264
510.798
495.773
481.363
467.321
453.891
440.759
428.246
415.96
404.322
392.834
382.036
371.297
361.309
351.266
342.052
332.639
324.159
315.301
307.518
299.133
292.019
284.026
277.568
269.883
264.077
256.611
251.47
244.128
239.678
232.353
228.627
219.839
13.4531
13.4604
13.5461
13.8023
14.3346
15.0059
15.7213
16.3416
16.9303
17.3459
17.8971
18.3595
19.2892
20.504
22.7064
26.2513
31.7202
40.7704
54.7199
76.1955
106.635
147.395
199.419
261.535
331.494
406.425
481.786
555.31
622.189
683.26
735.893
779.576
814.095
839.767
858.075
869.401
875.278
874.821
872.226
866.336
857.531
846.841
834.734
821.405
807.173
792.15
776.631
760.492
744.079
727.47
710.689
693.809
676.914
660.075
643.37
626.811
610.504
594.43
578.667
563.178
548.036
533.193
518.722
504.568
490.828
477.424
464.464
451.828
439.657
427.774
416.366
405.187
394.499
383.976
373.961
364.05
354.677
345.331
336.576
327.774
319.63
311.341
303.792
295.971
288.996
281.589
275.164
268.112
262.225
255.469
250.107
243.577
238.736
232.365
228.055
221.771
218.012
211.737
208.552
201.012
13.3298
13.159
13.0622
13.1163
13.305
13.7159
14.2892
14.912
15.4568
15.8839
16.2122
16.4388
16.6102
16.7619
16.8917
17.0888
17.3271
17.7292
18.3231
19.3047
20.8521
23.2515
26.8122
32.1744
39.8905
50.7587
65.2468
83.8636
106.71
133.631
164.181
197.307
232.328
267.545
302.516
335.452
366.593
394.701
419.625
440.98
458.816
473.247
484.608
493.12
499.121
502.86
504.759
504.515
503.391
500.877
497.071
492.265
486.71
480.431
473.645
466.423
458.926
451.157
443.284
435.252
427.228
419.116
411.046
402.99
395.059
387.181
379.461
371.798
364.325
356.902
349.708
342.521
335.613
328.646
322.012
315.264
308.909
302.389
296.325
290.028
284.266
278.19
272.745
266.881
261.764
256.097
251.315
245.819
241.367
236.003
231.891
226.636
222.877
217.696
214.304
209.16
206.152
201.003
198.396
192.18
13.325
13.1544
13.0314
13.0861
13.2955
13.774
14.4989
15.4907
16.5087
17.6076
18.5972
19.519
20.2523
20.8601
21.2853
21.5951
21.7714
21.8532
21.8409
21.7982
21.7078
21.6064
21.5335
21.5584
21.667
21.9295
22.4834
23.3693
24.8834
27.0433
30.3005
34.6859
40.6975
48.2607
57.6462
68.8084
81.8117
96.42
112.416
129.391
146.919
164.617
182.037
198.881
214.835
229.654
243.287
255.493
266.416
275.981
284.353
291.483
297.6
302.704
306.942
310.399
313.192
315.326
316.954
317.987
318.684
318.717
318.517
318.012
317.028
315.698
314.092
312.203
310.111
307.784
305.297
302.578
299.793
296.687
293.674
290.273
287.066
283.408
280.065
276.225
272.812
268.84
265.417
261.357
257.982
253.869
250.591
246.453
243.313
239.167
236.194
232.044
229.26
225.108
222.535
218.374
216.029
211.857
209.757
204.707
13.4657
13.3601
13.4095
13.6557
14.3034
15.6882
18.0293
21.4437
25.4094
29.7201
33.6096
37.0638
39.5779
41.5182
42.5898
43.3171
43.376
43.2496
42.9316
42.4082
41.8102
41.1365
40.5
39.8638
39.3383
38.8553
38.4903
38.2327
38.1444
38.2045
38.3828
38.7694
39.3477
40.2848
41.5131
43.266
45.4508
48.3989
52.0144
56.6943
62.307
69.2135
77.2463
86.6497
97.2503
109.073
121.947
135.662
150.038
164.739
179.6
194.318
208.728
222.648
235.901
248.435
260.116
270.976
280.936
290.037
298.248
305.598
312.088
317.796
322.742
326.977
330.513
333.44
335.684
337.481
338.593
339.397
339.468
339.266
338.76
337.65
336.487
334.568
332.907
330.424
328.361
325.425
323.074
319.787
317.257
313.718
311.111
307.403
304.798
300.988
298.444
294.581
292.149
288.272
285.99
282.127
280.02
276.191
274.294
269.749
15.9085
16.8592
18.5473
21.9384
28.3906
39.4922
55.4623
75.0285
95.498
114.292
129.223
140.065
146.435
149.997
150.719
150.333
149.304
147.72
146.337
145.141
144.524
144.638
145.256
146.55
149.044
152.113
156.143
161.24
167.037
174.113
181.803
190.794
200.541
211.574
223.417
236.571
250.407
265.539
281.25
298.158
315.374
333.398
351.347
369.626
387.583
405.441
422.836
439.65
455.9
471.307
486.205
500.289
513.884
526.705
538.858
550.222
560.693
570.311
578.974
586.619
593.2
598.707
603.154
606.579
609.124
610.723
611.698
611.644
611.228
610.296
608.599
606.422
603.856
600.621
597.337
593.239
589.35
584.555
580.279
575.003
570.471
564.85
560.188
554.338
549.667
543.706
539.136
533.164
528.776
522.865
518.725
512.938
509.113
503.506
500.066
494.672
491.661
486.483
483.978
478.156
68.0223
90.4481
126.187
184.869
271.899
385.12
511.635
635.894
745.058
831.752
892.401
932.273
952.959
963.058
964.507
963.501
961.117
957.524
956.938
957.922
960.586
965.639
974.909
986.268
1000.23
1016.06
1034.73
1055.66
1077.96
1101.83
1126.59
1152.69
1179.27
1206.31
1233.13
1259.8
1285.74
1311.21
1335.64
1359.16
1380.92
1401.36
1420.06
1437.47
1453.21
1467.54
1480.37
1491.6
1501.65
1510.09
1517.68
1523.7
1528.89
1532.47
1535.1
1536.19
1535.91
1534.79
1532.42
1528.4
1523.38
1516.98
1509.69
1501.27
1492.16
1482.16
1471.72
1460.75
1449.43
1437.62
1425.77
1413.25
1401.01
1387.93
1375.43
1362.01
1349.44
1335.89
1323.48
1310.05
1298.06
1284.9
1273.43
1260.58
1249.7
1237.24
1227.02
1215.02
1205.51
1193.98
1185.24
1174.22
1166.34
1155.86
1148.98
1139.05
1133.24
1123.84
1119.24
1109
1464.67
1897.14
2398.93
2961.79
3563.03
4171.85
4746.04
5251.25
5654.9
5950.54
6132
6219.21
6206.73
6160.05
6061.59
5928.56
5778.16
5619.77
5459.27
5301.34
5148.99
5004.05
4867.45
4739.58
4621.02
4511.14
4410.02
4316.9
4231.76
4154.09
4083.51
4019.72
3962.25
3911
3865.39
3825.15
3789.6
3758.64
3731.66
3708.5
3688.32
3671.11
3656.2
3643.85
3633.38
3624.96
3618.08
3612.61
3608.41
3605.06
3602.82
3601.13
3600.23
3599.63
3599.35
3599.39
3599.57
3599.96
3600.8
3601.69
3603.03
3604.31
3605.75
3607.17
3608.41
3609.33
3609.93
3609.86
3609.44
3608.34
3606.89
3604.27
3601.84
3597.99
3594.5
3589.33
3584.7
3578.14
3572.26
3564.18
3557.02
3547.37
3538.97
3527.87
3518.43
3506.14
3496.01
3482.81
3472.3
3458.37
3447.75
3433.16
3422.75
3407.48
3397.63
3381.57
3372.48
3355.55
3346.92
3325.22
1109.2
1064.55
1122.14
1210
1238.72
1121.12
818.445
1979.69
54674.6
16153
7357.47
6105.37
6232.81
6483.78
6554.17
8025.42
74272.5
43609.8
24816
18452.9
16094.5
14997.8
14625.7
19661.5
76435.1
71021.2
54235.1
41183.8
32680
27154.9
24544.5
34057
69745.5
75712.4
67748.7
55648.8
44565.6
35842.2
30864.2
42703.9
57753.1
71182.6
67955.6
59051.7
48384.1
38738
32786.2
45230.8
47474.9
61837.3
62499.7
56621.9
47172.2
38180.3
32454.1
44249.3
39067.4
51814
53584
49835.9
42391
34670.5
29585.8
39757.8
32606.1
42978.2
44911.3
42122.8
36291
30031.8
25810.9
34028.5
27592.5
35613.8
37247.5
35103.8
30531.2
25546
22213.6
29362.6
23482.1
29579
30815.8
29112.8
25521.8
21624.3
19149.4
26000.8
20106.1
24692.6
25569.2
24178.1
21334.4
18293
16489.1
22964.8
17371.8
20782.3
21367.5
20208
17937.3
15554.3
14262.7
20349.4
15141.4
17660.2
18024.6
17043.9
15215.3
13334.5
12429.4
18149.7
13292.2
15152
15358.1
14522
13035.9
11541.5
10929.9
16326.2
11731.4
13111.7
13209.8
12494
11277.1
10083.4
9697.32
14809.8
10407.6
11440.2
11465.8
10850.3
9846.28
8888.54
8677.07
13541.6
9268.58
10052.7
10034.4
9502.52
8669.66
7899.6
7825
12472.1
8286.13
8890.27
8847.15
8385.82
7691.83
7072.83
7105.55
11560.9
7442.76
7911.76
7853.91
7452.95
6872.03
6375.37
6491.48
10777.8
6715.8
7083.03
7016.95
6667.6
6179.14
5781.88
5964.48
10098.5
6089.48
6377.96
6307.55
6002.08
5589.5
5273.35
5509.2
9504.72
5547.45
5774.64
5702.59
5434.56
5084.75
4835.23
5113.95
8983.64
5073.97
5254.11
5182.67
4947.04
4649.81
4455.67
4769.35
8525.24
4658.12
4802
4732.7
4525.28
4272.51
4124.89
4467.42
8120.63
4291.24
4406.99
4340.85
4158.12
3943.24
3834.98
4201.54
7762.21
3966.03
4059.83
3997.48
3836.49
3654.12
3579.43
3966.14
7443.21
3676.86
3753.27
3695
3553.18
3398.87
3352.97
3756.66
7157.89
3418.61
3481.21
3427.17
3302.33
3172.38
3151.3
3569.41
6901.65
3187.29
3238.83
3188.99
3079.2
2970.5
2970.98
3401.26
6670.47
2979.32
3022
2976.32
2879.96
2789.89
2808.74
3249.85
6460.95
2791.7
2827.3
2785.66
2701.3
2627.62
2662.45
3112.88
6270.28
2621.93
2651.88
2614.14
2540.57
2481.33
2530.19
2988.62
6096.33
2467.79
2493.29
2459.3
2395.46
2349.05
2410.31
2875.63
5937.31
2327.53
2349.49
2319.1
2264.05
2229.08
2301.35
2772.67
5791.74
2199.52
2218.72
2191.77
2144.67
2119.95
2202.07
2678.65
5658.33
2082.45
2099.48
2075.79
2035.91
2020.42
2111.37
2592.64
5536
1975.08
1990.43
1969.83
1936.54
1929.37
2028.31
2513.81
5423.79
1876.37
1890.43
1872.75
1845.46
1845.86
1952.03
2441.39
5320.79
1785.39
1798.48
1783.57
1761.79
1768.95
1881.85
2374.76
5226.19
1701.34
1713.7
1701.41
1684.67
1697.99
1817.07
2313.28
5139.13
1623.5
1635.35
1625.52
1613.42
1632.37
1757.11
2256.42
5058.82
1551.24
1562.77
1555.26
1547.43
1571.54
1701.47
2203.67
4984.49
1484.05
1495.38
1490.07
1486.17
1515.02
1649.73
2154.62
4915.44
1421.43
1432.69
1429.45
1429.21
1462.4
1601.49
2108.91
4851.03
1362.96
1374.27
1373
1376.09
1413.36
1556.47
2066.21
4790.73
1308.3
1319.73
1320.33
1326.51
1367.55
1514.36
2026.27
4734.08
1257.1
1268.72
1271.11
1280.18
1324.72
1474.95
1988.87
4680.8
1209.09
1220.96
1225.05
1236.83
1284.6
1438.01
1953.81
4630.62
1163.98
1176.18
1181.88
1196.2
1247
1403.35
1920.94
4583.39
1121.55
1134.11
1141.37
1158.07
1211.68
1370.8
1890.1
4538.96
1081.57
1094.54
1103.29
1122.24
1178.49
1340.21
1861.17
4497.25
1043.84
1057.26
1067.44
1088.51
1147.25
1311.43
1834.04
4458.2
1008.17
1022.07
1033.63
1056.72
1117.81
1284.33
1808.61
4421.74
974.415
988.816
1001.71
1026.71
1090.02
1258.78
1784.74
4387.8
942.401
957.33
971.512
998.327
1063.76
1234.68
1762.35
4356.22
912.011
927.487
942.916
971.465
1038.91
1211.91
1741.32
4326.86
883.101
899.144
915.784
945.993
1015.37
1190.37
1721.55
4299.49
855.588
872.213
890.029
921.827
993.046
1169.98
1702.94
4273.95
829.343
846.566
865.527
898.855
971.842
1150.65
1685.41
4250.01
804.318
822.151
842.226
877.02
951.697
1132.31
1668.87
4227.56
780.387
798.84
820.001
856.209
932.516
1114.89
1653.26
4206.36
757.536
776.612
798.829
836.395
914.26
1098.33
1638.5
4186.43
735.628
755.329
778.572
817.448
896.819
1082.55
1624.52
4167.49
714.681
735.002
759.24
799.374
880.188
1067.52
1611.29
4149.68
694.535
715.467
740.668
782.014
864.223
1053.12
1598.69
4132.63
675.248
696.781
722.913
765.425
848.968
1039.39
1586.73
4116.66
656.627
678.742
705.769
749.402
834.232
1026.14
1575.27
4101.18
638.783
661.466
689.359
734.071
820.139
1013.48
1564.39
4086.78
621.481
644.705
673.424
719.166
806.423
1001.17
1553.83
4072.55
604.902
628.654
658.174
704.912
793.316
989.42
1543.82
4059.44
588.754
613.002
643.277
690.957
780.453
977.868
1533.97
4046.09
573.311
598.046
629.057
677.653
768.209
966.894
1524.68
4033.93
558.204
583.386
615.081
664.53
756.079
955.974
1515.36
4021.08
543.814
569.44
601.81
652.1
744.624
945.701
1506.68
4009.61
529.669
555.693
588.678
639.735
733.154
935.333
1497.8
3997.02
516.278
542.705
576.307
628.137
722.457
925.74
1489.72
3986.16
503.036
529.812
563.961
616.477
711.602
915.885
1481.22
3973.81
490.599
517.74
552.455
605.686
701.654
906.987
1473.78
3963.7
478.197
505.639
540.839
594.684
691.378
897.629
1465.69
3951.71
466.67
494.44
530.161
584.675
682.176
889.456
1458.99
3942.66
455.035
483.062
519.21
574.275
672.436
880.57
1451.29
3931.18
444.368
472.689
509.319
565.02
663.967
873.142
1445.41
3923.39
433.419
461.953
498.958
555.151
654.701
864.678
1438.1
3912.47
423.562
452.359
489.812
546.612
646.944
857.997
1433.08
3905.98
413.208
442.178
479.954
537.192
638.071
849.876
1426.07
3895.52
404.12
433.323
471.514
529.336
630.995
843.921
1421.89
3890.17
394.27
423.605
462.071
520.274
622.424
836.045
1415.08
3880.1
385.923
415.461
454.306
513.065
615.99
830.769
1411.66
3875.38
376.482
406.114
445.186
504.275
607.636
823.061
1405.01
3865.7
368.862
398.664
438.076
497.679
601.788
818.353
1402
3861.25
359.733
389.593
429.191
489.083
593.59
810.79
1395.71
3851.86
352.846
382.842
422.729
483.076
588.266
806.535
1392.91
3847.44
343.924
373.948
413.988
474.596
580.174
799.096
1386.89
3838.11
337.793
367.913
408.184
469.17
575.334
795.199
1384.21
3833.59
328.969
359.094
399.498
460.735
567.295
787.854
1378.36
3824.19
323.632
353.808
394.372
455.886
562.895
784.213
1375.72
3819.54
314.787
344.958
385.654
447.435
554.892
777
1370.03
3810.24
310.273
340.443
381.211
443.144
550.866
773.462
1367.32
3805.49
299.592
329.709
370.58
432.769
540.957
764.431
1359.73
3794.42
)
;

boundaryField
{
    frontAndBack
    {
        type            empty;
    }
    inlet
    {
        type            fixedValue;
        value           uniform 14.855;
    }
    outlet
    {
        type            zeroGradient;
    }
    walls
    {
        lowReCorrection 0;
        blending        stepwise;
        n               2;
        type            epsilonWallFunction;
        value           nonuniform List<scalar> 
228
(
112.724
141.424
210.098
257.591
369.051
443.457
614.739
724.909
971.327
1128.62
1109.2
1064.55
1122.14
1210
1238.72
1121.12
818.445
1979.69
1979.69
8025.42
19661.5
34057
42703.9
45230.8
44249.3
39757.8
34028.5
29362.6
26000.8
22964.8
20349.4
18149.7
16326.2
14809.8
13541.6
12472.1
11560.9
10777.8
10098.5
9504.72
8983.64
8525.24
8120.63
7762.21
7443.21
7157.89
6901.65
6670.47
6460.95
6270.28
6096.33
5937.31
5791.74
5658.33
5536
5423.79
5320.79
5226.19
5139.13
5058.82
4984.49
4915.44
4851.03
4790.73
4734.08
4680.8
4630.62
4583.39
4538.96
4497.25
4458.2
4421.74
4387.8
4356.22
4326.86
4299.49
4273.95
4250.01
4227.56
4206.36
4186.43
4167.49
4149.68
4132.63
4116.66
4101.18
4086.78
4072.55
4059.44
4046.09
4033.93
4021.08
4009.61
3997.02
3986.16
3973.81
3963.7
3951.71
3942.66
3931.18
3923.39
3912.47
3905.98
3895.52
3890.17
3880.1
3875.38
3865.7
3861.25
3851.86
3847.44
3838.11
3833.59
3824.19
3819.54
3810.24
3805.49
3794.42
105.949
146.567
198.388
265.747
350.048
456.027
585.698
743.636
931.848
1153.98
1464.67
1897.14
2398.93
2961.79
3563.03
4171.85
4746.04
5251.25
5654.9
5950.54
6132
6219.21
6206.73
6160.05
6061.59
5928.56
5778.16
5619.77
5459.27
5301.34
5148.99
5004.05
4867.45
4739.58
4621.02
4511.14
4410.02
4316.9
4231.76
4154.09
4083.51
4019.72
3962.25
3911
3865.39
3825.15
3789.6
3758.64
3731.66
3708.5
3688.32
3671.11
3656.2
3643.85
3633.38
3624.96
3618.08
3612.61
3608.41
3605.06
3602.82
3601.13
3600.23
3599.63
3599.35
3599.39
3599.57
3599.96
3600.8
3601.69
3603.03
3604.31
3605.75
3607.17
3608.41
3609.33
3609.93
3609.86
3609.44
3608.34
3606.89
3604.27
3601.84
3597.99
3594.5
3589.33
3584.7
3578.14
3572.26
3564.18
3557.02
3547.37
3538.97
3527.87
3518.43
3506.14
3496.01
3482.81
3472.3
3458.37
3447.75
3433.16
3422.75
3407.48
3397.63
3381.57
3372.48
3355.55
3346.92
3325.22
)
;
    }
}


// ************************************************************************* //
