/*--------------------------------*- C++ -*----------------------------------*\
| =========                 |                                                 |
| \\      /  F ield         | OpenFOAM: The Open Source CFD Toolbox           |
|  \\    /   O peration     | Version:  v2012                                 |
|   \\  /    A nd           | Website:  www.openfoam.com                      |
|    \\/     M anipulation  |                                                 |
\*---------------------------------------------------------------------------*/
FoamFile
{
    version     2.0;
    format      ascii;
    class       volScalarField;
    location    "0.11";
    object      k.air;
}
// * * * * * * * * * * * * * * * * * * * * * * * * * * * * * * * * * * * * * //

dimensions      [0 2 -2 0 0 0 0];


internalField   nonuniform List<scalar> 
5600
(
0.652871
1.46904
2.4163
3.07766
3.37957
3.41844
3.31553
3.14769
2.97059
2.8121
2.67474
2.56187
2.47573
2.4136
2.37525
2.35176
2.3446
2.34257
2.34734
2.35381
2.35853
2.36584
2.3676
2.37319
2.37362
2.37741
2.3787
2.38088
2.38342
2.38435
2.38712
2.38786
2.38921
2.39041
2.38974
2.39124
2.38912
2.39051
2.388
2.38872
2.38666
2.38641
2.38514
2.38414
2.38344
2.38222
2.38201
2.38069
2.38093
2.37935
2.38022
2.37837
2.37962
2.37772
2.37882
2.37744
2.37823
2.37762
2.37843
2.378
2.37937
2.37838
2.38057
2.3791
2.38173
2.38028
2.38282
2.38153
2.38412
2.38263
2.38593
2.38383
2.38808
2.38558
2.39033
2.38789
2.39304
2.39041
2.39654
2.39282
2.40033
2.39534
2.40355
2.39832
2.40641
2.40168
2.40958
2.40531
2.41264
2.41024
2.4133
2.41944
2.40677
2.44064
2.38049
2.4982
2.28392
2.68591
1.89852
3.36756
0.403462
0.378331
0.397215
0.451838
0.511033
0.591383
0.672785
0.794437
0.93881
1.10219
1.28469
1.47468
1.66998
1.85158
2.02408
2.17024
2.29641
2.39563
2.46992
2.52842
2.55937
2.59288
2.60094
2.62146
2.62341
2.63585
2.64103
2.64483
2.65273
2.65152
2.6567
2.6558
2.65445
2.65659
2.64949
2.6543
2.64534
2.65029
2.64267
2.64579
2.64133
2.64152
2.64051
2.63906
2.63985
2.63808
2.64022
2.6377
2.64117
2.63709
2.64229
2.63741
2.64321
2.63863
2.64308
2.64029
2.64326
2.64239
2.64618
2.64459
2.65079
2.64671
2.6552
2.6499
2.65884
2.65425
2.66234
2.65791
2.66644
2.66016
2.67106
2.66273
2.67568
2.66638
2.67967
2.67023
2.68469
2.67338
2.69177
2.6765
2.69936
2.68071
2.70487
2.68552
2.7094
2.68966
2.7157
2.69331
2.72237
2.69962
2.72432
2.71366
2.71429
2.74526
2.67691
2.81829
2.57292
2.99219
2.28805
3.3976
0.406016
0.345128
0.300682
0.272384
0.250453
0.240986
0.233672
0.236367
0.248194
0.264992
0.297707
0.33275
0.391056
0.448477
0.529198
0.61023
0.705605
0.807321
0.908065
1.02182
1.11896
1.23376
1.32466
1.43213
1.5181
1.60279
1.67178
1.72548
1.77909
1.81305
1.84899
1.87645
1.89732
1.9237
1.93297
1.95797
1.96184
1.98253
1.98583
2.00024
2.00588
2.01437
2.02257
2.0282
2.03694
2.04098
2.05078
2.05263
2.0636
2.06229
2.07467
2.0722
2.08418
2.08251
2.09136
2.09205
2.09869
2.10074
2.10929
2.10912
2.12102
2.11715
2.13111
2.12616
2.13941
2.13567
2.14767
2.14332
2.15669
2.1488
2.16538
2.155
2.1733
2.16265
2.18062
2.16939
2.18929
2.17445
2.19998
2.17985
2.21033
2.18712
2.21826
2.19417
2.22596
2.19896
2.2363
2.20245
2.24742
2.2078
2.25522
2.21783
2.25599
2.23676
2.24368
2.27432
2.20671
2.34325
2.13385
2.39169
0.406532
0.345084
0.2972
0.263851
0.233511
0.21311
0.194672
0.178268
0.171194
0.154778
0.158743
0.143377
0.155571
0.147043
0.162377
0.169197
0.183937
0.212662
0.228623
0.27986
0.304517
0.372829
0.414359
0.491893
0.557023
0.63895
0.725547
0.806839
0.899423
0.975571
1.05378
1.12378
1.18173
1.24677
1.28512
1.3417
1.36873
1.41417
1.43793
1.47176
1.49617
1.52098
1.54572
1.56518
1.58731
1.60083
1.62156
1.62985
1.65081
1.65372
1.67487
1.67636
1.6954
1.69857
1.71243
1.7181
1.7295
1.73508
1.74964
1.75113
1.76975
1.76662
1.78619
1.78255
1.79976
1.79775
1.81366
1.80988
1.82828
1.81953
1.84142
1.8304
1.85305
1.84282
1.86465
1.85313
1.87791
1.861
1.89248
1.8701
1.90558
1.88155
1.91624
1.89169
1.92748
1.89826
1.94134
1.90396
1.95506
1.91219
1.96528
1.92393
1.97006
1.94129
1.96688
1.96737
1.95678
1.99451
1.95799
1.9768
0.40603
0.346038
0.296727
0.264178
0.233346
0.210794
0.194512
0.171935
0.169323
0.143294
0.150195
0.12455
0.132155
0.115788
0.113432
0.115438
0.0962812
0.119498
0.086651
0.123251
0.0907534
0.126079
0.110809
0.134517
0.145626
0.159922
0.19464
0.213323
0.260463
0.296724
0.344848
0.40077
0.444969
0.517138
0.561159
0.638595
0.683929
0.753321
0.800917
0.857865
0.90608
0.951763
0.997231
1.03539
1.07638
1.10577
1.14458
1.16576
1.20379
1.21701
1.25307
1.26432
1.29556
1.30929
1.33305
1.34844
1.36905
1.38092
1.40508
1.41017
1.43833
1.43816
1.46516
1.46537
1.48804
1.48981
1.51152
1.50979
1.5351
1.52725
1.55536
1.54624
1.57318
1.56578
1.59118
1.5812
1.61048
1.59356
1.62943
1.60797
1.64553
1.62485
1.65959
1.63907
1.67487
1.64897
1.69183
1.65905
1.70729
1.67245
1.71914
1.68846
1.7267
1.70744
1.72983
1.72853
1.73436
1.7421
1.7531
1.73404
0.405273
0.346891
0.2965
0.264103
0.234559
0.209006
0.197225
0.168943
0.172012
0.141091
0.150174
0.125212
0.127165
0.119497
0.103026
0.11943
0.0816487
0.118127
0.0691556
0.109075
0.0692844
0.0917537
0.0784183
0.073534
0.0874911
0.0646782
0.0886575
0.0719242
0.0826575
0.0918991
0.0821391
0.115921
0.0972462
0.143821
0.130881
0.17872
0.184277
0.224924
0.249964
0.28664
0.324129
0.359853
0.403363
0.44107
0.489649
0.526075
0.578108
0.608934
0.663827
0.688228
0.740324
0.764202
0.808893
0.836047
0.87138
0.897966
0.930224
0.949748
0.986924
0.998001
1.03893
1.0456
1.08248
1.09073
1.12146
1.13034
1.16102
1.16427
1.19939
1.1959
1.23197
1.22858
1.26085
1.2593
1.28969
1.28393
1.31876
1.30501
1.34479
1.32856
1.36654
1.35408
1.38704
1.37538
1.40882
1.39194
1.43038
1.4094
1.44919
1.43005
1.46509
1.45178
1.47821
1.47357
1.48911
1.49355
1.50347
1.50667
1.52408
1.5163
0.404804
0.347054
0.29688
0.263351
0.235974
0.207541
0.198795
0.168124
0.171965
0.142689
0.14715
0.129745
0.121801
0.125079
0.0981127
0.122575
0.0804643
0.115843
0.0733991
0.100619
0.0775518
0.0793461
0.0859575
0.0612748
0.0877633
0.056175
0.0753235
0.0672547
0.0522989
0.0827568
0.0363914
0.0860258
0.0358717
0.0804488
0.0431953
0.0720542
0.0577172
0.0661526
0.069989
0.0728149
0.0831791
0.0848899
0.102078
0.105417
0.131163
0.130561
0.167901
0.167108
0.212569
0.21436
0.257221
0.271448
0.308778
0.334766
0.367584
0.394365
0.430694
0.451701
0.498727
0.513362
0.564759
0.578848
0.623559
0.641021
0.678932
0.695509
0.735154
0.744233
0.788248
0.791142
0.832862
0.837606
0.873335
0.880378
0.915716
0.917095
0.957649
0.951359
0.993817
0.988481
1.02534
1.02638
1.05729
1.05865
1.09001
1.08594
1.11992
1.11413
1.1463
1.14424
1.17109
1.17349
1.19358
1.20066
1.2137
1.22467
1.23546
1.24446
1.2577
1.26483
0.405048
0.346298
0.297703
0.262447
0.236615
0.207549
0.19801
0.170074
0.169128
0.146443
0.143194
0.133568
0.118995
0.126454
0.0988454
0.11961
0.0858455
0.108586
0.0820957
0.0917471
0.0857765
0.0730921
0.0894295
0.0611099
0.0840709
0.0626717
0.0660898
0.0757707
0.0438754
0.0856921
0.0337471
0.0806808
0.0373153
0.0688079
0.0436531
0.0567807
0.0505744
0.0478546
0.0509704
0.0470414
0.0500235
0.0422921
0.0553599
0.036507
0.0621982
0.0313502
0.0679859
0.0359438
0.0677633
0.0477835
0.0655436
0.0666631
0.071876
0.0795017
0.088622
0.0906345
0.116878
0.107731
0.146762
0.138691
0.177411
0.18061
0.210407
0.221861
0.250824
0.260686
0.299147
0.303761
0.347625
0.352373
0.390604
0.401775
0.435338
0.449955
0.486321
0.494227
0.53597
0.538538
0.578451
0.586108
0.618541
0.633672
0.662051
0.675732
0.705331
0.713261
0.743147
0.750822
0.777333
0.788719
0.811173
0.825098
0.843266
0.859493
0.872886
0.890771
0.902192
0.919341
0.930053
0.947706
0.405724
0.345266
0.298346
0.262029
0.236178
0.208827
0.195769
0.173136
0.165765
0.14974
0.14081
0.134697
0.119751
0.123787
0.103536
0.11333
0.0932586
0.10102
0.088922
0.0868704
0.0879827
0.0741772
0.085297
0.0678338
0.076289
0.0701422
0.0611564
0.0770209
0.047185
0.0787312
0.0432296
0.0706141
0.0472381
0.0601862
0.0500006
0.0536441
0.049558
0.0501007
0.0475254
0.0470268
0.0480618
0.039838
0.052946
0.0309691
0.0570388
0.0263529
0.0539531
0.0313651
0.0434989
0.0401773
0.0333426
0.0455336
0.0333143
0.0387494
0.042725
0.0283106
0.0519135
0.0265438
0.0517059
0.0364574
0.0471007
0.047996
0.0500136
0.0519532
0.062409
0.053235
0.0768371
0.0640915
0.0875704
0.0844035
0.097488
0.104261
0.116167
0.122287
0.144266
0.143816
0.172451
0.17348
0.197151
0.208
0.225687
0.243679
0.263641
0.279945
0.303755
0.316853
0.339988
0.355106
0.375902
0.394523
0.414222
0.4345
0.452712
0.473213
0.488495
0.508591
0.522817
0.542031
0.556347
0.574982
0.406292
0.344628
0.298504
0.262199
0.235199
0.210395
0.19357
0.175604
0.163469
0.151457
0.140247
0.133928
0.122124
0.120044
0.108432
0.107903
0.0985794
0.0966198
0.0916751
0.0862882
0.086205
0.0780171
0.0801624
0.0731314
0.0722561
0.0715907
0.0633379
0.0709846
0.0564985
0.0678042
0.0541212
0.0615214
0.0540738
0.0558353
0.0524185
0.0529845
0.0490663
0.051275
0.0462831
0.0484109
0.0459927
0.0430362
0.048255
0.036792
0.0496843
0.0340726
0.0459835
0.0374122
0.0376799
0.0430224
0.0305185
0.0443507
0.030761
0.0377028
0.0370339
0.0293671
0.0406525
0.0276322
0.0366103
0.0327136
0.0297363
0.0360694
0.0288029
0.0324568
0.0338102
0.0267211
0.0368557
0.0273095
0.0336366
0.0333494
0.0297672
0.0361688
0.0326943
0.0338794
0.0397553
0.033692
0.0435218
0.040558
0.0449293
0.0496121
0.0496701
0.0568103
0.0605504
0.0656591
0.0736458
0.0782874
0.0864518
0.0940615
0.102444
0.112896
0.122973
0.135144
0.146777
0.159954
0.172097
0.185764
0.198631
0.213178
0.22766
0.243369
0.406538
0.344428
0.298452
0.262435
0.234595
0.21121
0.192548
0.176611
0.162664
0.151877
0.140412
0.133162
0.123523
0.118209
0.110517
0.105911
0.100152
0.0957834
0.0915364
0.0874279
0.0841997
0.0804627
0.0778055
0.0747317
0.0719436
0.0702085
0.0664239
0.0664924
0.061693
0.0626843
0.0583919
0.0583115
0.0562471
0.054054
0.0541359
0.0508961
0.0512296
0.0492143
0.0474921
0.0484088
0.0441337
0.046638
0.0429985
0.0427078
0.0438806
0.0383894
0.0437208
0.0370539
0.0398966
0.0394749
0.0340105
0.0418154
0.0310988
0.039563
0.0332911
0.0338999
0.0365272
0.0303616
0.0358107
0.0316967
0.0316923
0.0343767
0.029274
0.0339824
0.0309087
0.0311458
0.0335292
0.0303688
0.0335814
0.0332258
0.0326081
0.0363922
0.0345814
0.0378758
0.0395152
0.0402014
0.0446988
0.0458828
0.0501921
0.0541079
0.0574577
0.0633651
0.0677989
0.0745269
0.0812817
0.0888058
0.0972756
0.1063
0.11618
0.126888
0.138031
0.150194
0.162666
0.175994
0.189846
0.204055
0.218657
0.233846
0.249327
0.265817
0.406594
0.344464
0.298309
0.262675
0.234245
0.21158
0.192193
0.176848
0.162599
0.151732
0.14077
0.132661
0.124092
0.117716
0.110813
0.105943
0.0997041
0.0966732
0.0902369
0.0889773
0.0826004
0.0817921
0.0770079
0.0747201
0.0728368
0.0684561
0.0687363
0.0639866
0.0638569
0.06124
0.0588118
0.0588249
0.0550573
0.055358
0.0532188
0.0509885
0.0521428
0.0474379
0.0498651
0.0461491
0.0459103
0.0462814
0.0421971
0.045387
0.0408671
0.0424012
0.0415412
0.0391798
0.0416141
0.0383286
0.0396717
0.039803
0.0375772
0.0411425
0.0379549
0.0411921
0.0409181
0.0417385
0.0447104
0.0449205
0.0487464
0.0510337
0.0544354
0.0593862
0.0632534
0.0698022
0.0756827
0.0831799
0.0916172
0.100612
0.111132
0.122387
0.134466
0.147861
0.161412
0.176687
0.192087
0.208694
0.225965
0.243307
0.261685
0.279954
0.298951
0.318596
0.338332
0.35876
0.378931
0.399195
0.419332
0.439573
0.459501
0.479218
0.498569
0.517813
0.536672
0.55512
0.573119
0.590755
0.607971
0.625433
0.406658
0.344487
0.298184
0.262904
0.233901
0.211968
0.191799
0.177143
0.162456
0.151653
0.141076
0.132139
0.124753
0.116991
0.111468
0.105442
0.0999076
0.0967966
0.0896854
0.0898864
0.0813221
0.083237
0.0754935
0.076006
0.0719259
0.0687522
0.0691135
0.0629703
0.0653933
0.0596064
0.0604139
0.0579926
0.055454
0.0563797
0.052153
0.053605
0.0509198
0.0502188
0.0506381
0.0478894
0.0500215
0.0477655
0.0491609
0.0495939
0.0495908
0.0526063
0.0529115
0.0569353
0.0596502
0.0640246
0.0697134
0.0754546
0.0835543
0.0920521
0.102261
0.114142
0.127065
0.142
0.157821
0.174979
0.193857
0.213259
0.234659
0.256426
0.279366
0.303134
0.327175
0.352119
0.377201
0.402532
0.428459
0.454322
0.480268
0.505562
0.530551
0.555565
0.57949
0.603607
0.626604
0.648942
0.670985
0.691849
0.712906
0.733302
0.753374
0.773293
0.792369
0.811096
0.829187
0.846568
0.863743
0.880598
0.897144
0.913452
0.929288
0.944639
0.959537
0.973988
0.988161
1.00253
0.406765
0.344359
0.298269
0.262857
0.233853
0.212093
0.191568
0.177423
0.162123
0.151937
0.140828
0.132217
0.124787
0.116699
0.111901
0.104733
0.100712
0.0958314
0.0905846
0.0891264
0.0817862
0.083322
0.0750489
0.0773067
0.0707157
0.0709196
0.0681914
0.0651002
0.0662332
0.0612286
0.0639638
0.0601234
0.0618262
0.0616194
0.061604
0.0652583
0.0654514
0.0714925
0.0748261
0.0820733
0.0904387
0.0995045
0.112869
0.125875
0.143586
0.162092
0.183113
0.206964
0.23157
0.259395
0.287685
0.317956
0.349052
0.380766
0.413406
0.446616
0.480607
0.514216
0.547074
0.579361
0.611049
0.641697
0.671924
0.700842
0.729029
0.756283
0.782386
0.808047
0.832508
0.856443
0.879599
0.901684
0.923512
0.944481
0.964894
0.984975
1.00386
1.02271
1.04031
1.05736
1.07404
1.08974
1.10574
1.12105
1.13625
1.15128
1.16565
1.17992
1.1935
1.20649
1.21922
1.23148
1.24353
1.25523
1.26661
1.27757
1.28828
1.29868
1.30904
1.31962
0.406796
0.344249
0.298418
0.262646
0.234049
0.211875
0.191656
0.177361
0.161957
0.152133
0.140396
0.132625
0.124287
0.117111
0.11173
0.104887
0.10134
0.0956633
0.0923495
0.0891065
0.0847352
0.084646
0.0791918
0.0817652
0.0768282
0.0806865
0.0788934
0.0829675
0.0867268
0.0917339
0.10198
0.110638
0.126959
0.142847
0.165256
0.190459
0.218717
0.252237
0.286423
0.325609
0.365104
0.407096
0.450861
0.495649
0.542302
0.587002
0.631689
0.674862
0.716184
0.756587
0.794367
0.831064
0.865627
0.898557
0.930084
0.959802
0.987979
1.01497
1.04053
1.065
1.08841
1.11062
1.13222
1.15257
1.17235
1.19136
1.20959
1.22764
1.24482
1.26185
1.2781
1.2934
1.30828
1.32233
1.33589
1.34914
1.36148
1.37384
1.38517
1.39628
1.40713
1.41734
1.42796
1.43793
1.448
1.45776
1.46721
1.47655
1.48566
1.49448
1.50333
1.51178
1.5203
1.52845
1.53656
1.5443
1.55204
1.55953
1.56716
1.57507
0.406709
0.344273
0.298421
0.262478
0.234171
0.211575
0.191884
0.177187
0.162211
0.152466
0.140778
0.133971
0.125372
0.120129
0.114737
0.110613
0.10839
0.106103
0.106825
0.108063
0.111736
0.118817
0.126545
0.141836
0.156625
0.182485
0.208822
0.246761
0.287432
0.335546
0.387732
0.442685
0.503346
0.564741
0.629939
0.692707
0.754079
0.813481
0.868539
0.922123
0.97081
1.01743
1.06064
1.09986
1.13715
1.17029
1.20187
1.23059
1.25711
1.28247
1.30553
1.32814
1.34924
1.36964
1.38927
1.40747
1.42478
1.44106
1.45638
1.471
1.48491
1.49809
1.51094
1.52299
1.53476
1.54603
1.55685
1.56761
1.57784
1.58805
1.59803
1.60751
1.61685
1.62571
1.6344
1.64292
1.65091
1.65899
1.66633
1.67377
1.68096
1.68786
1.69516
1.70191
1.70891
1.7155
1.72204
1.72845
1.73482
1.741
1.74736
1.75334
1.75958
1.76541
1.77146
1.77707
1.78298
1.78853
1.79441
1.80063
0.406441
0.344422
0.298153
0.262697
0.234717
0.212887
0.19451
0.180868
0.168462
0.161379
0.154166
0.153348
0.152401
0.15818
0.165552
0.179522
0.197909
0.223004
0.255165
0.29493
0.342569
0.398906
0.461691
0.534996
0.613153
0.701125
0.788761
0.881565
0.967898
1.05031
1.12516
1.19324
1.25556
1.3089
1.3577
1.39952
1.4375
1.4717
1.50172
1.53082
1.55624
1.58141
1.60378
1.62409
1.64293
1.65875
1.67419
1.68768
1.7003
1.71239
1.72312
1.73398
1.74384
1.75366
1.76317
1.77229
1.78132
1.78999
1.7984
1.80654
1.81443
1.822
1.82953
1.83662
1.84365
1.8504
1.85696
1.86353
1.86981
1.87615
1.88234
1.8884
1.89455
1.90042
1.90632
1.91207
1.91753
1.92311
1.9282
1.93352
1.9386
1.94361
1.94893
1.95383
1.95904
1.96377
1.96863
1.97329
1.978
1.98256
1.98735
1.99177
1.99656
2.00088
2.0056
2.0098
2.01447
2.01876
2.0234
2.02844
0.405285
0.345552
0.300778
0.272839
0.252077
0.243044
0.23726
0.242577
0.255759
0.27862
0.310679
0.357207
0.413537
0.484301
0.564459
0.656206
0.755768
0.862161
0.972366
1.0839
1.1941
1.30267
1.40666
1.50946
1.5996
1.67847
1.74231
1.79778
1.84208
1.88011
1.91068
1.93701
1.95974
1.97786
1.9955
2.00919
2.02223
2.03328
2.04254
2.05194
2.05917
2.06732
2.07422
2.08106
2.08813
2.09405
2.10055
2.10593
2.11139
2.11659
2.12116
2.12606
2.1303
2.13482
2.13907
2.14337
2.14771
2.15197
2.15629
2.16056
2.16485
2.16905
2.17339
2.17752
2.1817
2.18575
2.18981
2.19387
2.19781
2.20179
2.2057
2.20958
2.21353
2.21729
2.22112
2.2248
2.22834
2.23198
2.23537
2.23898
2.24242
2.24592
2.24965
2.25313
2.25685
2.26018
2.26373
2.26705
2.2705
2.27381
2.27736
2.28062
2.28425
2.28743
2.29107
2.29423
2.29784
2.30116
2.30485
2.30898
0.402075
0.380494
0.399146
0.459903
0.521009
0.609852
0.694954
0.833855
0.985949
1.15971
1.35029
1.54963
1.74645
1.934
2.10315
2.2504
2.37164
2.46728
2.53856
2.58922
2.62359
2.6465
2.66228
2.6735
2.68234
2.69069
2.69563
2.70173
2.70378
2.70719
2.70712
2.70703
2.70578
2.70306
2.70154
2.69826
2.69651
2.694
2.69172
2.69023
2.68784
2.68696
2.68541
2.68473
2.68434
2.68368
2.68381
2.68335
2.68344
2.68341
2.68332
2.6836
2.68356
2.68398
2.68422
2.68476
2.68538
2.68614
2.68711
2.68818
2.68942
2.69075
2.6923
2.69379
2.69552
2.69722
2.69906
2.70095
2.70284
2.70482
2.70677
2.70881
2.71091
2.71295
2.71509
2.71712
2.71915
2.72123
2.72325
2.72548
2.72762
2.72994
2.73239
2.73469
2.73718
2.73942
2.74189
2.74414
2.74659
2.74895
2.75153
2.75393
2.75663
2.75902
2.76174
2.76425
2.7669
2.76961
2.77243
2.77548
0.651792
1.46975
2.41433
3.07069
3.36115
3.39267
3.28092
3.10731
2.92919
2.76995
2.63158
2.51959
2.43481
2.37618
2.33906
2.32009
2.31256
2.31376
2.31816
2.3246
2.33045
2.33544
2.33946
2.34232
2.34494
2.34735
2.34936
2.35175
2.35333
2.35553
2.35676
2.35821
2.35898
2.35925
2.35941
2.35883
2.35838
2.35743
2.35644
2.3554
2.35407
2.353
2.35164
2.35056
2.34942
2.3484
2.34757
2.34665
2.34599
2.34526
2.34465
2.34411
2.34355
2.34314
2.34267
2.34235
2.342
2.34181
2.34167
2.34165
2.34174
2.34189
2.34218
2.34251
2.34297
2.34348
2.34409
2.34475
2.34546
2.34624
2.34703
2.34788
2.34878
2.34972
2.35073
2.35176
2.35287
2.35402
2.35523
2.35655
2.35789
2.35931
2.36074
2.36215
2.3636
2.36499
2.36648
2.36793
2.3695
2.37106
2.37271
2.37433
2.37604
2.37771
2.37944
2.38122
2.38291
2.38462
2.38583
2.38625
0.433988
9.04056
11.5321
12.317
12.8702
13.0614
12.9617
12.6765
12.2749
11.8508
11.4306
11.0302
10.6653
10.3377
10.0391
9.76577
9.51428
9.272
9.02966
8.78827
8.54498
8.29991
8.0533
7.8045
7.55352
7.30418
7.04434
6.76996
6.48736
6.1794
5.84344
5.49765
5.14695
4.77632
4.40683
4.07263
3.76898
3.47977
3.21399
2.98029
2.76103
2.5439
2.34288
2.16866
2.01261
1.87276
1.76821
1.71912
1.72426
1.75648
1.77948
1.77876
1.76875
1.76388
1.75965
1.74957
1.74416
1.75557
1.7778
1.7961
1.7966
1.77172
1.72325
1.66027
1.5916
1.52161
1.44936
1.37219
1.28867
1.19811
1.09984
0.993391
0.879481
0.760766
0.641762
0.528149
0.424943
0.335265
0.260181
0.198997
0.150142
0.111895
0.082492
0.0605085
0.0447428
0.0339734
0.0269635
0.0226078
0.0200384
0.0186104
0.0178643
0.0174434
0.0171308
0.0167627
0.0163467
0.0158035
0.0153158
0.0147167
0.0143957
0.0138584
1.38702
4.20487
8.10642
9.94861
10.8835
11.2652
11.3038
11.1144
10.7933
10.429
10.065
9.72675
9.43101
9.17681
8.95226
8.7529
8.57515
8.40742
8.23873
8.06831
7.89242
7.70955
7.52001
7.32217
7.11354
6.89899
6.66741
6.4124
6.14258
5.84253
5.51058
5.16721
4.82059
4.45352
4.08876
3.76408
3.47473
3.20087
2.95125
2.7366
2.5365
2.3355
2.15186
1.99981
1.8662
1.74796
1.67103
1.6556
1.68668
1.728
1.75027
1.74798
1.73688
1.72999
1.72334
1.71154
1.70363
1.7111
1.72866
1.74203
1.73789
1.70914
1.65795
1.59398
1.52621
1.45878
1.39061
1.31841
1.23995
1.15418
1.06036
0.957968
0.847728
0.73225
0.615932
0.504294
0.402514
0.314029
0.240164
0.180491
0.133647
0.0978061
0.0710798
0.0518527
0.0386019
0.0298592
0.0243114
0.020919
0.0189362
0.0178447
0.0172895
0.0169898
0.0167697
0.0164788
0.0161296
0.015646
0.0152085
0.0146524
0.0143567
0.0138459
2.1325
1.99951
3.83272
6.08389
7.71539
8.58404
8.963
9.0247
8.90605
8.69471
8.45471
8.22721
8.02225
7.84681
7.69668
7.56901
7.46245
7.36806
7.27247
7.17361
7.06704
6.94954
6.82205
6.68204
6.52435
6.35283
6.15844
5.93245
5.68509
5.40328
5.08584
4.7519
4.41369
4.05674
3.70334
3.3949
3.12714
2.87568
2.64875
2.46033
2.28706
2.11
1.95244
1.83251
1.73148
1.64402
1.60338
1.63011
1.6922
1.73948
1.75046
1.73488
1.71367
1.69901
1.68643
1.67057
1.65861
1.66069
1.67229
1.67968
1.6702
1.63749
1.584
1.51959
1.45334
1.38914
1.32566
1.25902
1.18621
1.1057
1.01665
0.918568
0.812223
0.70023
0.586923
0.47772
0.377887
0.291152
0.219138
0.161694
0.117507
0.0845991
0.060947
0.044614
0.033764
0.026788
0.0224191
0.0197544
0.0181884
0.0173188
0.0168766
0.0166428
0.0164788
0.0162437
0.0159522
0.0155228
0.015141
0.0146289
0.0143647
0.0138695
2.01402
1.8528
2.07729
2.84684
4.03676
5.13866
5.89512
6.3081
6.49157
6.53483
6.50403
6.45092
6.38635
6.32608
6.27461
6.23327
6.20928
6.18866
6.16218
6.1306
6.09012
6.03584
5.96999
5.8892
5.78735
5.66589
5.51543
5.32654
5.1114
4.85819
4.56072
4.24119
3.91687
3.57837
3.24604
2.96413
2.72868
2.50972
2.31502
2.1629
2.0267
1.88416
1.76442
1.68878
1.63202
1.58613
1.59105
1.66716
1.76449
1.81468
1.80177
1.7568
1.71193
1.67993
1.65519
1.63122
1.61281
1.60777
1.6119
1.61206
1.59628
1.55925
1.50386
1.43968
1.3757
1.31549
1.25732
1.19674
1.12994
1.05486
0.970535
0.876598
0.773969
0.665362
0.555142
0.448712
0.351377
0.267073
0.197688
0.143239
0.102334
0.072849
0.0524715
0.0389199
0.0301644
0.0246154
0.0211379
0.0189888
0.0176969
0.0169588
0.0165726
0.0163654
0.0162322
0.01604
0.0158065
0.0154313
0.0151091
0.0146383
0.0144097
0.0139257
1.77425
1.7352
1.71713
1.80708
2.05664
2.46707
2.9483
3.40042
3.76271
4.02789
4.21366
4.35273
4.4595
4.54977
4.62728
4.69483
4.7711
4.83961
4.89303
4.936
4.96532
4.9776
4.97629
4.95727
4.91362
4.84599
4.74318
4.59462
4.41547
4.19601
3.92403
3.62706
3.33049
3.02584
2.73062
2.4908
2.3019
2.12659
1.97723
1.87465
1.78783
1.69237
1.62347
1.60347
1.60076
1.60558
1.66169
1.78839
1.92135
1.97253
1.92566
1.83434
1.7491
1.68634
1.64001
1.60166
1.57292
1.55827
1.55296
1.54437
1.52129
1.47957
1.42276
1.35979
1.29914
1.24387
1.19171
1.13761
1.07696
1.00714
0.927051
0.836562
0.736913
0.631058
0.523511
0.419754
0.325144
0.243719
0.177497
0.126508
0.0892232
0.0632563
0.0459355
0.0347522
0.0276579
0.0231758
0.0203272
0.0185162
0.0173846
0.0167067
0.0163344
0.0161268
0.016008
0.0158488
0.015676
0.0153582
0.015096
0.0146579
0.0144628
0.0139948
1.53152
1.53406
1.51518
1.49946
1.49978
1.53374
1.5954
1.68715
1.80286
1.93766
2.09165
2.25725
2.42699
2.6048
2.77979
2.94191
3.11007
3.27276
3.4167
3.54617
3.65569
3.7436
3.81464
3.86391
3.88301
3.87381
3.82469
3.72261
3.58538
3.40822
3.17719
2.92064
2.67314
2.42522
2.19146
2.01464
1.89017
1.77679
1.6899
1.65042
1.62313
1.58515
1.57664
1.61691
1.66997
1.72666
1.83104
2.00164
2.16641
2.21934
2.13684
1.98789
1.84619
1.73728
1.65681
1.5952
1.55011
1.52183
1.50411
1.48465
1.45303
1.40616
1.34836
1.28784
1.23193
1.18287
1.13757
1.09026
1.03564
0.970505
0.893654
0.805353
0.707357
0.603031
0.497179
0.395437
0.303199
0.224496
0.161319
0.113577
0.0795199
0.0564616
0.0414886
0.0320257
0.0260871
0.0223194
0.0198732
0.0182593
0.017201
0.0165277
0.0161338
0.0159009
0.0157782
0.0156349
0.0155118
0.0152462
0.0150444
0.0146436
0.0144849
0.0140438
1.26966
1.28098
1.27716
1.25935
1.22983
1.19725
1.16268
1.12811
1.09792
1.07005
1.05374
1.05445
1.07036
1.12052
1.2047
1.3091
1.45129
1.62323
1.80345
1.99037
2.16914
2.32863
2.47273
2.59424
2.6819
2.74003
2.75665
2.71642
2.63809
2.52331
2.35881
2.17359
2.00527
1.84409
1.7018
1.61863
1.58174
1.55038
1.53938
1.56717
1.59781
1.6164
1.66517
1.75586
1.85202
1.94869
2.08945
2.29287
2.48364
2.54195
2.4344
2.23075
2.02402
1.85564
1.7277
1.63204
1.56234
1.51422
1.4794
1.44576
1.40361
1.35078
1.2922
1.23541
1.18608
1.14477
1.10716
1.06673
1.01763
0.956104
0.880947
0.793018
0.694774
0.590167
0.484398
0.383258
0.292105
0.214852
0.153341
0.107335
0.0749341
0.0533096
0.0394658
0.0308212
0.0254333
0.0220058
0.0197438
0.018202
0.0171425
0.0164244
0.0159704
0.0156793
0.0155195
0.0153629
0.0152602
0.0150351
0.0148915
0.014545
0.0144277
0.0140268
0.950819
0.969917
0.977612
0.969464
0.946055
0.91137
0.868243
0.819121
0.768463
0.717067
0.668069
0.626673
0.590086
0.565001
0.556085
0.555423
0.576642
0.623886
0.689337
0.785456
0.906451
1.03839
1.18471
1.33261
1.4632
1.57894
1.66355
1.69907
1.70082
1.67386
1.6107
1.53597
1.48181
1.44094
1.42163
1.45006
1.50242
1.54685
1.60099
1.67653
1.74317
1.79953
1.88575
2.00405
2.12055
2.23698
2.40112
2.62657
2.8339
2.90184
2.78959
2.55345
2.28936
2.05747
1.87431
1.73507
1.63162
1.55567
1.49726
1.44456
1.3887
1.3283
1.26884
1.21708
1.1763
1.1442
1.11462
1.08043
1.03557
0.975929
0.900374
0.810574
0.709861
0.602783
0.49493
0.392178
0.299765
0.221437
0.158867
0.111723
0.0782252
0.0556635
0.0410949
0.0319433
0.0262275
0.0225961
0.0201921
0.0185303
0.0173474
0.0165025
0.0159205
0.0155178
0.0152665
0.0150576
0.0149319
0.0147299
0.0146217
0.01434
0.0142548
0.0139136
0.586223
0.604754
0.617222
0.617167
0.604289
0.58042
0.549294
0.514537
0.48083
0.451585
0.42922
0.415971
0.411428
0.41495
0.426775
0.443009
0.464098
0.490493
0.518787
0.553724
0.597211
0.644728
0.706385
0.77845
0.853758
0.937574
1.01973
1.08431
1.14101
1.19099
1.23108
1.27436
1.33231
1.39883
1.47977
1.58057
1.67837
1.76078
1.84636
1.9373
2.01226
2.08248
2.17998
2.29797
2.4089
2.52813
2.70757
2.9455
3.15799
3.24076
3.14902
2.91694
2.62194
2.33972
2.10417
1.91735
1.77261
1.66068
1.57138
1.49365
1.4197
1.34942
1.28903
1.24367
1.21283
1.19013
1.1674
1.13748
1.09448
1.03432
0.956039
0.862086
0.756841
0.645358
0.533351
0.426732
0.330636
0.248816
0.182757
0.131865
0.0944879
0.0682517
0.0504781
0.0387667
0.031119
0.0261093
0.0227145
0.020346
0.0186122
0.0173455
0.0164065
0.0157406
0.0152681
0.0149312
0.0146987
0.0144843
0.0143491
0.014135
0.0140513
0.0138106
0.258288
0.273529
0.287728
0.297712
0.303992
0.307679
0.312586
0.321412
0.337198
0.361275
0.393884
0.433847
0.47916
0.526759
0.575328
0.622706
0.667041
0.709345
0.74912
0.78689
0.823468
0.859042
0.895259
0.932824
0.972941
1.01989
1.073
1.13102
1.1977
1.27405
1.35977
1.45547
1.5567
1.66002
1.77072
1.88328
1.98081
2.06671
2.15676
2.24179
2.30949
2.37746
2.46189
2.54541
2.61903
2.72748
2.9172
3.16454
3.3852
3.49106
3.44459
3.25613
2.97218
2.66872
2.39547
2.1653
1.97684
1.82358
1.69781
1.58998
1.49419
1.41263
1.35165
1.31323
1.2915
1.27552
1.25632
1.22714
1.18243
1.1188
1.03581
0.936326
0.825376
0.708836
0.592395
0.481914
0.3823
0.297447
0.228477
0.174562
0.133333
0.102539
0.0796534
0.0628788
0.0504575
0.0413272
0.0343585
0.0291627
0.0250988
0.0221346
0.0198045
0.0182259
0.0169727
0.0162319
0.015574
0.0152793
0.0149177
0.0148616
0.0146744
0.0147543
0.282541
0.299595
0.318685
0.341727
0.371201
0.407404
0.45213
0.504315
0.563235
0.626965
0.693856
0.760244
0.823753
0.882832
0.937599
0.987138
1.03125
1.07145
1.10833
1.14225
1.17479
1.20678
1.23897
1.27163
1.30704
1.34769
1.39497
1.45013
1.51528
1.59115
1.6763
1.76786
1.8641
1.96656
2.07373
2.17433
2.25944
2.33617
2.40874
2.46582
2.50659
2.54608
2.58607
2.61788
2.66398
2.77769
2.9809
3.23265
3.45929
3.59338
3.6023
3.48187
3.24977
2.96173
2.67485
2.41481
2.18865
1.99698
1.83626
1.69908
1.58275
1.49221
1.43235
1.40002
1.38277
1.36754
1.34662
1.31366
1.26335
1.19377
1.10557
1.00174
0.88629
0.766398
0.648639
0.539763
0.443526
0.362721
0.296774
0.245324
0.204843
0.173278
0.147076
0.125608
0.106781
0.090984
0.0765186
0.0645954
0.0538634
0.0458241
0.0388154
0.0343072
0.0302111
0.0282255
0.0259216
0.0256136
0.0243697
0.0253636
0.0247986
0.0266979
0.64283
0.660487
0.680738
0.707581
0.743191
0.787278
0.839521
0.897136
0.958541
1.02055
1.08086
1.13815
1.1911
1.23941
1.2838
1.32382
1.36032
1.39448
1.42667
1.45713
1.48762
1.5182
1.54903
1.58106
1.61611
1.65539
1.69973
1.75016
1.80799
1.87262
1.94162
2.01457
2.09461
2.18195
2.26806
2.34264
2.40418
2.45779
2.49995
2.5223
2.52955
2.53163
2.52994
2.53558
2.5831
2.71169
2.92458
3.17511
3.40159
3.55285
3.60458
3.5477
3.38031
3.13186
2.85297
2.57969
2.32961
2.11212
1.92699
1.76942
1.64107
1.54876
1.49349
1.46496
1.44586
1.42555
1.39821
1.35829
1.30067
1.22448
1.13086
1.02443
0.909402
0.794109
0.684662
0.588072
0.505359
0.438309
0.383109
0.339453
0.302781
0.273325
0.246732
0.224473
0.202518
0.183537
0.163853
0.147317
0.130399
0.117734
0.105319
0.0978807
0.090173
0.0873767
0.0832506
0.0843217
0.0826348
0.0869766
0.0865103
0.0930389
1.01689
1.03188
1.04959
1.0738
1.10556
1.14448
1.18953
1.23813
1.28906
1.3392
1.38719
1.43213
1.47361
1.51213
1.54827
1.58176
1.61345
1.64451
1.67466
1.70402
1.73394
1.76371
1.79306
1.82261
1.85375
1.88664
1.92164
1.9598
2.00192
2.04706
2.09495
2.14925
2.21307
2.27972
2.33736
2.38195
2.416
2.44108
2.45093
2.44198
2.42156
2.39828
2.37793
2.37952
2.44015
2.58459
2.80022
3.04186
3.25965
3.41574
3.49346
3.48258
3.37007
3.16533
2.90587
2.63297
2.3745
2.14638
1.94984
1.78376
1.65475
1.56911
1.52095
1.49303
1.46763
1.4391
1.403
1.35479
1.28901
1.20683
1.11062
1.00602
0.897583
0.794282
0.70081
0.622699
0.558309
0.5081
0.46694
0.434534
0.405745
0.381724
0.358218
0.337528
0.315716
0.296522
0.276346
0.26002
0.243544
0.232192
0.22087
0.215092
0.208622
0.207726
0.204999
0.208364
0.208074
0.214973
0.215327
0.224376
1.3304
1.34195
1.35594
1.37548
1.40091
1.43205
1.46755
1.5057
1.54513
1.58453
1.62254
1.65911
1.69409
1.72808
1.76098
1.79224
1.82253
1.85221
1.88039
1.90746
1.9341
1.9587
1.98105
2.00187
2.02222
2.0416
2.06078
2.08143
2.10409
2.12858
2.15733
2.19489
2.23879
2.27687
2.30256
2.318
2.32586
2.32448
2.30842
2.27887
2.24215
2.20633
2.18205
2.19241
2.2677
2.42025
2.63016
2.8572
3.06117
3.21433
3.30581
3.32521
3.25319
3.08592
2.84994
2.58791
2.33492
2.10942
1.91286
1.7498
1.63102
1.55841
1.51724
1.48628
1.45263
1.415
1.36966
1.31294
1.24036
1.15519
1.06042
0.962745
0.867216
0.781542
0.708111
0.649654
0.603136
0.567909
0.539301
0.51681
0.496461
0.478947
0.461021
0.44449
0.426692
0.41063
0.394053
0.380699
0.36773
0.35892
0.350462
0.346554
0.342263
0.34264
0.341549
0.345651
0.346474
0.353623
0.354453
0.363305
1.58332
1.59236
1.60372
1.61992
1.64088
1.66649
1.69555
1.72686
1.75959
1.79274
1.82517
1.85765
1.88981
1.92172
1.95231
1.98074