/*--------------------------------*- C++ -*----------------------------------*\
| =========                 |                                                 |
| \\      /  F ield         | OpenFOAM: The Open Source CFD Toolbox           |
|  \\    /   O peration     | Version:  v2012                                 |
|   \\  /    A nd           | Website:  www.openfoam.com                      |
|    \\/     M anipulation  |                                                 |
\*---------------------------------------------------------------------------*/
FoamFile
{
    version     2.0;
    format      ascii;
    class       volScalarField;
    location    "0.11";
    object      k.air;
}
// * * * * * * * * * * * * * * * * * * * * * * * * * * * * * * * * * * * * * //

dimensions      [0 2 -2 0 0 0 0];


internalField   nonuniform List<scalar> 
5600
(
0.606299
0.840814
0.955118
0.978164
0.949159
0.897608
0.83953
0.787309
0.743252
0.707334
0.679294
0.658432
0.64329
0.632715
0.625254
0.620093
0.616234
0.613348
0.610898
0.608861
0.607049
0.605489
0.604178
0.603158
0.60239
0.601813
0.601396
0.60107
0.600844
0.600609
0.600416
0.600068
0.599826
0.599345
0.599078
0.598477
0.598284
0.597568
0.597517
0.596641
0.596824
0.59574
0.596265
0.594917
0.595887
0.594211
0.595598
0.593642
0.595215
0.593404
0.594558
0.593804
0.593478
0.594816
0.59216
0.595682
0.591347
0.595212
0.591971
0.592783
0.594201
0.589354
0.596499
0.587132
0.596835
0.587786
0.594346
0.591148
0.590133
0.595377
0.586568
0.597772
0.58615
0.595988
0.590499
0.589354
0.598659
0.581289
0.605248
0.57835
0.603558
0.585065
0.592018
0.598914
0.578282
0.60938
0.57391
0.606336
0.583471
0.590869
0.599175
0.578179
0.603593
0.582041
0.589108
0.605239
0.553514
0.662906
0.452096
0.8292
0.371638
0.315567
0.288655
0.275665
0.274971
0.284654
0.307343
0.344964
0.387114
0.430203
0.471455
0.509008
0.54178
0.569429
0.591928
0.609794
0.62347
0.633929
0.641717
0.647798
0.652514
0.656455
0.659942
0.663094
0.665835
0.668174
0.670193
0.671836
0.673206
0.674004
0.674798
0.67499
0.675584
0.675314
0.675969
0.675349
0.676275
0.675254
0.67668
0.675067
0.677235
0.674791
0.677988
0.674549
0.679108
0.674494
0.680216
0.674746
0.680394
0.675977
0.678836
0.679081
0.675856
0.683737
0.673147
0.687336
0.673819
0.685716
0.680253
0.677751
0.690112
0.668202
0.697505
0.664343
0.695855
0.670405
0.684711
0.683625
0.670286
0.696418
0.660622
0.700632
0.663761
0.68884
0.68365
0.663289
0.711144
0.639335
0.72639
0.638215
0.709613
0.670683
0.665647
0.716754
0.626786
0.739878
0.625365
0.715032
0.668949
0.661755
0.714129
0.636142
0.71048
0.668933
0.647012
0.755868
0.539208
0.862158
0.425984
0.868203
0.369149
0.281902
0.227731
0.192999
0.168588
0.1538
0.145602
0.14363
0.146971
0.155095
0.167018
0.18197
0.199273
0.218585
0.239107
0.260656
0.282451
0.304573
0.326361
0.348279
0.369461
0.390446
0.409188
0.425646
0.439829
0.452172
0.462882
0.471991
0.479948
0.486633
0.492766
0.497686
0.502769
0.506326
0.510801
0.513128
0.517455
0.5186
0.523272
0.523139
0.528578
0.526879
0.5335
0.529995
0.538207
0.532947
0.542275
0.536285
0.544497
0.541023
0.543843
0.547963
0.541269
0.556046
0.540091
0.560949
0.544982
0.557614
0.557523
0.546712
0.572212
0.536285
0.579682
0.536
0.57334
0.548298
0.556087
0.567017
0.537497
0.581801
0.528648
0.581574
0.539415
0.559342
0.570796
0.52331
0.605561
0.497896
0.614829
0.509206
0.580694
0.560147
0.520978
0.616334
0.480671
0.630037
0.4966
0.583129
0.56013
0.51803
0.605922
0.502007
0.585614
0.55203
0.50962
0.638555
0.428435
0.680467
0.43827
0.577656
0.370099
0.280653
0.224104
0.186061
0.158543
0.138209
0.122944
0.111361
0.10291
0.0970128
0.0935205
0.0923402
0.0929223
0.0953887
0.0994311
0.105368
0.112747
0.122007
0.132731
0.145352
0.159348
0.175243
0.192406
0.21054
0.229003
0.247469
0.26541
0.282061
0.297693
0.311796
0.325163
0.336626
0.348011
0.357142
0.3672
0.37411
0.383572
0.388378
0.397941
0.400528
0.41069
0.410629
0.421817
0.418888
0.431489
0.426044
0.439248
0.433529
0.443918
0.442795
0.444561
0.454316
0.44305
0.46578
0.444691
0.471198
0.455303
0.465513
0.474559
0.452335
0.493143
0.443173
0.498698
0.448454
0.486577
0.467435
0.463643
0.49076
0.442531
0.505273
0.437004
0.498044
0.4575
0.464322
0.499987
0.42004
0.537679
0.398431
0.535661
0.425603
0.483581
0.49275
0.412971
0.55164
0.379205
0.549135
0.415585
0.482204
0.492548
0.414827
0.529343
0.413269
0.495027
0.471996
0.419353
0.544488
0.371442
0.538125
0.429868
0.439939
0.370292
0.280783
0.224379
0.186056
0.158415
0.13766
0.121534
0.108749
0.0983667
0.0899564
0.0829565
0.0773885
0.0728003
0.0692758
0.0665339
0.0647108
0.0636825
0.0635798
0.0642514
0.0659197
0.0685217
0.0722975
0.077305
0.0836108
0.0913092
0.10027
0.110549
0.121625
0.1337
0.146075
0.159471
0.172499
0.186766
0.198897
0.213045
0.223401
0.237498
0.245525
0.259969
0.265231
0.280554
0.282396
0.299201
0.297453
0.315842
0.311304
0.329568
0.325644
0.338641
0.342067
0.34232
0.360318
0.343948
0.376117
0.351029
0.382269
0.36969
0.374829
0.396791
0.361073
0.418544
0.355671
0.420847
0.368156
0.402545
0.394083
0.374619
0.420909
0.352635
0.433084
0.352641
0.416641
0.384508
0.370925
0.437038
0.321176
0.472978
0.307871
0.455762
0.352713
0.386746
0.432793
0.310505
0.487122
0.289405
0.464378
0.346434
0.382516
0.428279
0.322582
0.449323
0.336016
0.406555
0.395352
0.340276
0.446795
0.324713
0.4159
0.382489
0.36067
0.370321
0.280817
0.224504
0.186222
0.158631
0.137922
0.121794
0.108956
0.09845
0.0897792
0.0824311
0.0762307
0.0708719
0.0662828
0.0622756
0.0588314
0.0558312
0.0532926
0.0511212
0.0493445
0.0479278
0.0468833
0.0462799
0.0460768
0.0464541
0.0472442
0.0488257
0.0507831
0.0539122
0.0570801
0.0621453
0.0664171
0.0738097
0.0788759
0.088623
0.0937445
0.105948
0.110299
0.125104
0.12795
0.145674
0.146201
0.166601
0.164005
0.186597
0.182333
0.204084
0.202747
0.216458
0.225989
0.222937
0.250161
0.228428
0.269219
0.242817
0.275452
0.271519
0.267585
0.306679
0.256713
0.329782
0.258951
0.32742
0.280323
0.303513
0.312163
0.272954
0.339838
0.253111
0.346555
0.261461
0.318815
0.30512
0.263005
0.36296
0.214459
0.389687
0.215436
0.354698
0.276655
0.274821
0.359762
0.204153
0.399223
0.202862
0.355608
0.274869
0.272244
0.344018
0.233768
0.344562
0.257903
0.305126
0.304213
0.259571
0.329896
0.268525
0.295482
0.299563
0.287028
0.370324
0.280815
0.224528
0.186261
0.158703
0.138012
0.121922
0.109096
0.0986224
0.0899422
0.0826067
0.0763603
0.0709534
0.0662577
0.0621171
0.0584734
0.0552176
0.0523224
0.0497192
0.0473847
0.0452896
0.0433872
0.0417266
0.0401779
0.0389261
0.0376838
0.0368728
0.0358655
0.0356526
0.0347538
0.0354542
0.0344712
0.0364912
0.035193
0.0390893
0.0370625
0.0435057
0.0402815
0.0499443
0.0450351
0.0586485
0.051655
0.0693063
0.0603168
0.080548
0.0724928
0.0906423
0.0901891
0.0976477
0.113122
0.101757
0.13653
0.108931
0.152572
0.12873
0.155157
0.164013
0.147392
0.201635
0.142847
0.22127
0.154712
0.213991
0.182797
0.188458
0.215502
0.160238
0.239059
0.146068
0.237977
0.163081
0.201686
0.212889
0.144517
0.264594
0.107564
0.27473
0.124816
0.228749
0.190792
0.154266
0.259233
0.104536
0.275283
0.124295
0.222878
0.192188
0.161152
0.229262
0.153
0.215066
0.174587
0.192481
0.19823
0.171074
0.201081
0.191981
0.174948
0.197678
0.187404
0.370324
0.280805
0.224525
0.186261
0.158716
0.138029
0.121954
0.109134
0.0986767
0.0900004
0.0826817
0.0764383
0.0710422
0.0663442
0.0622068
0.058549
0.0552818
0.0523555
0.0497157
0.0473236
0.0451541
0.043159
0.0413606
0.0396646
0.0381717
0.0366995
0.0354882
0.034153
0.0332548
0.0319409
0.031462
0.0300058
0.0301172
0.0283068
0.0292858
0.0268055
0.0290577
0.0254917
0.0295492
0.0243781
0.0308877
0.0237093
0.0328928
0.0241711
0.0346113
0.0272874
0.0345827
0.0349346
0.0321221
0.0468843
0.0293094
0.0583182
0.0322021
0.0622946
0.0474539
0.0569762
0.0738827
0.0496586
0.098612
0.051573
0.107931
0.0672246
0.0999195
0.0906203
0.0823089
0.113427
0.0639032
0.127638
0.0569297
0.121296
0.07519
0.08922
0.113637
0.0502071
0.141832
0.035934
0.136131
0.0575008
0.101971
0.0998606
0.0599065
0.133595
0.0422727
0.12933
0.0672638
0.093628
0.102611
0.0741582
0.102667
0.0872372
0.089404
0.0939615
0.0859538
0.0999203
0.0819166
0.0897517
0.103934
0.0744784
0.099345
0.0824356
0.370323
0.280796
0.224519
0.186254
0.158714
0.138027
0.121958
0.10914
0.098689
0.0900145
0.0827024
0.0764609
0.0710712
0.0663747
0.0622438
0.0585868
0.0553244
0.0523987
0.04976
0.0473678
0.0451927
0.043199
0.0413803
0.0396901
0.0381536
0.0366956
0.0353949
0.034106
0.0330204
0.031838
0.0309734
0.0298262
0.029211
0.0280185
0.0277136
0.0263675
0.0264773
0.0248298
0.0255113
0.0233693
0.0248116
0.0220455
0.0242559
0.0211117
0.0234497
0.0210898
0.0218282
0.0225192
0.0192735
0.0251313
0.0169505
0.0270106
0.0172382
0.0256999
0.0219325
0.021295
0.0296771
0.0178156
0.0358103
0.019502
0.0368223
0.0258248
0.0334713
0.0333542
0.0277712
0.0404578
0.02145
0.0447912
0.0197964
0.0406003
0.0282277
0.0272727
0.0413622
0.0161856
0.0458353
0.0183291
0.038378
0.0289168
0.0272327
0.0392434
0.0192961
0.042192
0.0230121
0.0324086
0.0364513
0.021031
0.0403397
0.0271062
0.0268528
0.0402529
0.020384
0.0391421
0.0230688
0.0382042
0.0259036
0.0282681
0.0398198
0.0211282
0.0377029
0.022948
0.370323
0.280792
0.224515
0.18625
0.158711
0.138026
0.121958
0.109142
0.0986921
0.0900184
0.0827084
0.0764678
0.0710803
0.0663844
0.0622559
0.0585995
0.0553392
0.0524146
0.0497772
0.0473866
0.0452115
0.0432213
0.0413988
0.0397158
0.0381694
0.0367254
0.0354015
0.0341437
0.0330054
0.0318917
0.0309143
0.0299087
0.0290756
0.0281475
0.0274514
0.0265702
0.0260151
0.0251412
0.0247475
0.0238304
0.0236303
0.0226383
0.022615
0.0216148
0.0215927
0.0208587
0.0204396
0.0204414
0.019175
0.0202327
0.0181002
0.0197928
0.0176646
0.018699
0.0180333
0.0171782
0.0187273
0.0161637
0.0189141
0.0162667
0.0183193
0.0169968
0.0173398
0.0176983
0.0160948
0.0183541
0.0148041
0.0182711
0.0150417
0.0159289
0.0176632
0.0123953
0.0196506
0.0120229
0.017135
0.0164681
0.0114498
0.0216629
0.0076656
0.0228579
0.0094863
0.0179216
0.0170069
0.00940477
0.02433
0.00533195
0.0237513
0.0100477
0.0169235
0.0166111
0.0122875
0.0202257
0.00841244
0.0247813
0.00516803
0.0240961
0.00932918
0.0187296
0.0151264
0.0114112
0.370323
0.280793
0.224517
0.186252
0.158714
0.138028
0.121961
0.109144
0.0986946
0.0900207
0.0827107
0.0764699
0.0710825
0.0663862
0.0622579
0.0586012
0.055341
0.0524161
0.0497789
0.0473882
0.0452127
0.0432231
0.0413995
0.0397181
0.0381693
0.0367289
0.0353995
0.03415
0.0329996
0.0319038
0.0309016
0.0299306
0.0290516
0.0281854
0.0274099
0.0266329
0.0259474
0.0252416
0.0246407
0.0239851
0.0234742
0.0228536
0.0224268
0.0218509
0.0214612
0.0209873
0.0205465
0.0202746
0.0197066
0.0196923
0.0190039
0.019144
0.0184949
0.0185399
0.0182264
0.0179673
0.0182153
0.0176655
0.0183441
0.0177501
0.0183447
0.018127
0.0179171
0.0186207
0.0170431
0.0188484
0.0164752
0.0178896
0.017435
0.0151849
0.0197775
0.0122916
0.0210395
0.0121648
0.0188082
0.0159469
0.0135333
0.0215469
0.00841736
0.0249034
0.00752426
0.0227101
0.0122902
0.0164196
0.0186526
0.0114321
0.0220215
0.00951962
0.0232038
0.00856323
0.0234087
0.00994383
0.0194776
0.0167116
0.0115716
0.0243272
0.00568828
0.0283058
0.00377613
0.0259914
0.370324
0.2808
0.224526
0.18626
0.158722
0.138034
0.121966
0.109147
0.0986968
0.0900207
0.0827095
0.0764664
0.071078
0.0663793
0.0622501
0.0585911
0.0553299
0.0524027
0.049765
0.0473722
0.0451962
0.0432055
0.0413814
0.0397003
0.0381513
0.0367133
0.0353853
0.0341406
0.0329931
0.0319087
0.0309112
0.0299608
0.02909
0.0282588
0.0274961
0.0267768
0.0261133
0.0254962
0.0249298
0.0244056
0.0239564
0.0235228
0.0232079
0.0228675
0.0226815
0.0224618
0.0224042
0.0224042
0.0224919
0.0228016
0.0229513
0.0236222
0.0237073
0.0248609
0.0250272
0.0268177
0.0275975
0.0296516
0.0315347
0.0328031
0.0357232
0.0355999
0.0383799
0.0380219
0.038485
0.040048
0.0371362
0.0405187
0.0368957
0.038233
0.0389022
0.0343796
0.0413364
0.0318136
0.0418464
0.0320654
0.0397591
0.0351206
0.0355
0.0398333
0.0310828
0.0433079
0.0289323
0.0442282
0.0285604
0.0439762
0.0297029
0.0410291
0.0355073
0.0327804
0.045476
0.0232932
0.0519523
0.0211625
0.048348
0.0297714
0.0356812
0.0458803
0.0191556
0.0588765
0.370326
0.280811
0.224538
0.186271
0.158731
0.138039
0.121969
0.109144
0.0986908
0.0900085
0.0826945
0.0764452
0.0710545
0.0663494
0.0622188
0.0585544
0.0552936
0.0523624
0.0497287
0.0473356
0.0451669
0.0431846
0.041373
0.0397124
0.0381876
0.0367867
0.0355053
0.0343197
0.0332517
0.0322717
0.031404
0.0306193
0.0299552
0.0293829
0.028935
0.0286138
0.0284151
0.028382
0.0284851
0.0288049
0.0293261
0.0300624
0.0310733
0.0322393
0.0338094
0.0354837
0.0377869
0.0401637
0.0432716
0.046364
0.0498939
0.0537123
0.0571465
0.0623156
0.0657119
0.0730614
0.0766264
0.0852294
0.0890882
0.0959074
0.100819
0.102857
0.109339
0.106607
0.11291
0.109357
0.111823
0.111918
0.108921
0.112962
0.107323
0.11194
0.107624
0.109937
0.109173
0.107144
0.112169
0.103471
0.115312
0.101336
0.115445
0.103244
0.111469
0.108967
0.104174
0.117335
0.0958616
0.123825
0.093351
0.120704
0.1021
0.107433
0.116995
0.0938814
0.126634
0.0894784
0.124912
0.0973075
0.111694
0.113813
0.370327
0.280822
0.224548
0.186272
0.158726
0.138023
0.121944
0.109105
0.0986457
0.0899473
0.0826285
0.0763667
0.0709776
0.0662667
0.0621506
0.0584939
0.055267
0.0523674
0.0497995
0.0474749
0.0454153
0.043564
0.0419286
0.0405049
0.0392669
0.0382489
0.0374356
0.0368443
0.0365162
0.0364738
0.0367288
0.0373353
0.0383248
0.0397274
0.0415871
0.0439357
0.0467684
0.0501506
0.0540638
0.0586365
0.0637161
0.0693144
0.0753276
0.0817249
0.0886023
0.0957516
0.103516
0.111215
0.119457
0.127127
0.135178
0.142676
0.150202
0.158523
0.165479
0.175488
0.181047
0.191994
0.195469
0.204824
0.207517
0.211944
0.216553
0.21419
0.221718
0.214818
0.222298
0.216533
0.219322
0.219284
0.215488
0.221667
0.212765
0.222932
0.211977
0.221955
0.214632
0.217086
0.221094
0.209988
0.227428
0.205677
0.228836
0.207487
0.223801
0.215536
0.213532
0.226817
0.203271
0.233896
0.201174
0.230097
0.210107
0.218151
0.223161
0.206367
0.232666
0.200448
0.233202
0.20635
0.370325
0.280828
0.224531
0.186233
0.158662
0.137929
0.121829
0.108957
0.0984971
0.089784
0.0824983
0.0762748
0.0709897
0.0663978
0.0624918
0.0590719
0.056221
0.0537481
0.0517766
0.0501446
0.0490076
0.0482598
0.0480747
0.0484136
0.0493705
0.051009
0.0534009
0.0565775
0.0606574
0.0656273
0.0715422
0.0783983
0.0860361
0.0944536
0.103467
0.113017
0.122918
0.13321
0.143769
0.154607
0.165348
0.175957
0.186288
0.196392
0.206257
0.215825
0.225192
0.23399
0.242591
0.250306
0.25796
0.264936
0.272028
0.279196
0.285457
0.29347
0.29795
0.306613
0.308577
0.316548
0.317047
0.321765
0.32363
0.32267
0.328096
0.321856
0.329499
0.322177
0.327604
0.324423
0.323996
0.32745
0.320553
0.330037
0.318391
0.330842
0.319217
0.327744
0.324485
0.320865
0.331872
0.314368
0.336408
0.312583
0.334993
0.317264
0.327204
0.327371
0.316204
0.337496
0.309101
0.340123
0.311421
0.333385
0.321155
0.322121
0.332696
0.31174
0.340531
0.308558
0.370306
0.280788
0.224406
0.186073
0.158443
0.137692
0.1216
0.108814
0.0985655
0.0901582
0.0834267
0.0779594
0.0737101
0.0703889
0.0681157
0.0666713
0.0663303
0.0667806
0.0684119
0.0709726
0.0749394
0.0801447
0.0869612
0.0951504
0.104965
0.116015
0.128222
0.141236
0.155057
0.169411
0.184262
0.198931
0.213217
0.227007
0.240191
0.252742
0.264624
0.275927
0.28656
0.296654
0.306106
0.314994
0.323263
0.331012
0.338304
0.345169
0.351746
0.357808
0.363701
0.368884
0.374092
0.37865
0.383366
0.387923
0.392031
0.397152
0.399851
0.405613
0.406164
0.411927
0.410932
0.415016
0.414758
0.414937
0.417824
0.413313
0.419396
0.412518
0.418594
0.41377
0.415907
0.416454
0.412675
0.419384
0.409968
0.421284
0.409292
0.420161
0.412495
0.41504
0.418892
0.408449
0.424638
0.404505
0.426128
0.405839
0.421797
0.412867
0.412788
0.422609
0.404012
0.42885
0.401437
0.427444
0.406299
0.419835
0.415758
0.409323
0.4263
0.40071
0.370195
0.280541
0.224231
0.18605
0.158714
0.138522
0.123426
0.112323
0.104428
0.099276
0.0968385
0.096573
0.0983726
0.102004
0.107633
0.115004
0.124349
0.135447
0.148592
0.163394
0.180318
0.198736
0.218294
0.238264
0.258305
0.277674
0.295833
0.312663
0.328139
0.34225
0.354972
0.366566
0.377101
0.386686
0.395461
0.403537
0.411011
0.417964
0.424393
0.430339
0.435706
0.440692
0.445192
0.449304
0.45313
0.456712
0.460142
0.463243
0.466289
0.468892
0.471652
0.474002
0.476707
0.479266
0.48176
0.48483
0.486384
0.490047
0.489952
0.493931
0.492378
0.495689
0.494373
0.495196
0.496264
0.493417
0.497666
0.492081
0.497605
0.492527
0.495866
0.49455
0.493244
0.49724
0.490605
0.499504
0.489164
0.499694
0.490673
0.496418
0.495453
0.490847
0.500994
0.486239
0.503988
0.485392
0.502353
0.489523
0.495991
0.497357
0.487812
0.504555
0.48286
0.506554
0.483937
0.502644
0.490165
0.494375
0.499931
0.484528
0.369474
0.281384
0.228613
0.193055
0.170715
0.155956
0.150107
0.150458
0.156559
0.167297
0.181628
0.198816
0.218419
0.239719
0.262346
0.285625
0.309399
0.333094
0.35694
0.380284
0.403308
0.423859
0.441749
0.457304
0.470495
0.482406
0.492498
0.50103
0.508348
0.514612
0.520101
0.52495
0.529242
0.533039
0.536432
0.539487
0.542279
0.54488
0.547307
0.549615
0.551729
0.553721
0.555588
0.55739
0.559118
0.56077
0.562346
0.563729
0.565093
0.566193
0.567499
0.568544
0.570014
0.571328
0.572828
0.574557
0.575462
0.57761
0.577304
0.579853
0.578256
0.580764
0.578981
0.580148
0.579956
0.578531
0.581049
0.577043
0.581482
0.576877
0.580614
0.578196
0.578736
0.580388
0.576459
0.582623
0.574699
0.583655
0.574896
0.582027
0.577974
0.577904
0.582596
0.573481
0.586199
0.571275
0.586613
0.5729
0.582907
0.578302
0.57646
0.584879
0.570796
0.588817
0.569093
0.5882
0.571873
0.583275
0.578786
0.575051
0.372189
0.315458
0.292821
0.279516
0.286396
0.295366
0.331457
0.373625
0.418621
0.463057
0.504556
0.541604
0.573476
0.599923
0.62122
0.637809
0.650548
0.66007
0.667421
0.673046
0.677646
0.681649
0.685134
0.688109
0.690603
0.692634
0.694335
0.695598
0.696478
0.696996
0.697257
0.697366
0.697356
0.697261
0.697112
0.696949
0.696786
0.696664
0.696555
0.696501
0.696435
0.696422
0.696446
0.696541
0.696669
0.696814
0.696942
0.696978
0.697027
0.69697
0.69713
0.697167
0.697593
0.697906
0.698485
0.699087
0.699351
0.700227
0.699722
0.700958
0.699557
0.701101
0.69932
0.700442
0.699531
0.699157
0.700216
0.697866
0.700858
0.697339
0.700697
0.697994
0.699596
0.699531
0.697929
0.701371
0.696282
0.70273
0.695662
0.702399
0.697157
0.699878
0.700403
0.696381
0.703707
0.693743
0.705312
0.693531
0.703929
0.696457
0.699759
0.701319
0.694905
0.705543
0.691884
0.707129
0.691888
0.705451
0.695306
0.700541
0.606742
0.839813
0.952197
0.969556
0.937536
0.881261
0.821361
0.769008
0.724416
0.688386
0.660683
0.640128
0.625397
0.614954
0.607665
0.60239
0.598513
0.595427
0.592917
0.590803
0.58898
0.587526
0.586345
0.585459
0.584758
0.5842
0.583769
0.583413
0.583085
0.582735
0.582332
0.581884
0.581384
0.580857
0.580304
0.579749
0.57919
0.578638
0.578097
0.57758
0.57708
0.576618
0.576198
0.575835
0.575503
0.575197
0.574902
0.574623
0.574388
0.574164
0.574025
0.573876
0.573833
0.573737
0.573712
0.573606
0.57345
0.573347
0.572961
0.572999
0.57236
0.572616
0.571872
0.57222
0.571695
0.571784
0.571836
0.571361
0.572103
0.571128
0.572227
0.571239
0.572048
0.571655
0.571603
0.572236
0.571055
0.572772
0.570696
0.572925
0.570877
0.572419
0.571702
0.571398
0.572808
0.5704
0.573597
0.56998
0.573613
0.570458
0.572697
0.571762
0.571216
0.573271
0.569956
0.574233
0.569464
0.574329
0.56985
0.573267
0.0638028
1.87581
2.65553
2.89937
3.10272
3.16996
3.17567
3.22718
3.22877
3.05976
2.89973
2.63174
1.91378
0.908566
0.308733
0.106503
0.0628914
0.0321324
0.0414278
0.0404048
0.000391013
0.0971691
0.254053
0.357823
0.375406
0.331967
0.262162
0.191157
0.133034
0.092372
0.0666008
0.0507442
0.0406668
0.0339619
0.0293679
0.0261543
0.0238325
0.0220548
0.0205947
0.01933
0.0182153
0.0172494
0.0164461
0.0158105
0.0153238
0.0149405
0.0146071
0.0142905
0.0139907
0.0137254
0.0135094
0.0133492
0.0132426
0.0131784
0.0131424
0.013123
0.0131129
0.0131077
0.013105
0.0131037
0.0131029
0.0131026
0.0131022
0.0131024
0.013102
0.0131024
0.0131019
0.0131024
0.0131019
0.0131024
0.0131019
0.0131024
0.0131018
0.0131025
0.0131018
0.0131025
0.0131017
0.0131025
0.0131017
0.0131026
0.0131016
0.0131026
0.0131016
0.0131027
0.0131015
0.0131027
0.0131015
0.0131028
0.0131014
0.0131028
0.0131014
0.0131028
0.0131013
0.0131028
0.0131012
0.0131027
0.0131009
0.0131024
0.0131008
0.0131031
0.466742
0.786758
1.84805
2.32604
2.6294
2.75186
2.78778
2.84366
2.8522
2.68039
2.52211
2.2235
1.44362
0.534198
0.141361
0.0651855
0.0423703
0.0288729
0.027922
0.0447433
0.00276402
0.0376069
0.162486
0.267067
0.296652
0.264803
0.20569
0.145759
0.0991379
0.0687113
0.0507169
0.0402359
0.0337555
0.0294243
0.0263667
0.0241361
0.0224499
0.0211
0.0199391
0.018884
0.0179095
0.0170296
0.0162726
0.0156573
0.0151785
0.0148038
0.0144878
0.0141974
0.0139267
0.0136884
0.0134939
0.0133463
0.0132448
0.0131821
0.0131462
0.0131264
0.0131158
0.0131101
0.0131071
0.0131056
0.0131047
0.0131044
0.013104
0.0131042
0.0131037
0.0131041
0.0131036
0.0131041
0.0131036
0.0131041
0.0131035
0.0131042
0.0131035
0.0131043
0.0131034
0.0131043
0.0131034
0.0131044
0.0131033
0.0131044
0.0131032
0.0131045
0.0131032
0.0131046
0.0131031
0.0131046
0.013103
0.0131047
0.0131029
0.0131048
0.0131029
0.0131048
0.0131028
0.0131049
0.0131027
0.0131049
0.0131026
0.0131051
0.013103
0.013107
0.60677
0.36649
0.858455
1.40721
1.8803
2.12215
2.2344
2.32846
2.36547
2.20987
2.08218
1.71613
0.895336
0.224503
0.0452418
0.0517483
0.032672
0.0335739
0.0239564
0.045301
0.0158013
0.00415508
0.085443
0.177883
0.214282
0.193965
0.148126
0.1029
0.0702234
0.0504496
0.0394074
0.0331548
0.0292607
0.0265319
0.0244611
0.0228362
0.0215338
0.020445
0.0194736
0.0185573
0.0176788
0.0168581
0.0161313
0.0155268
0.01505
0.0146797
0.0143791
0.0141148
0.0138735
0.0136607
0.0134846
0.0133484
0.013252
0.0131902
0.0131534
0.0131324
0.0131207
0.0131142
0.0131107
0.0131089
0.0131078
0.0131074
0.0131069
0.0131071
0.0131065
0.013107
0.0131064
0.013107
0.0131064
0.0131071
0.0131063
0.0131071
0.0131062
0.0131072
0.0131062
0.0131073
0.0131061
0.0131074
0.013106
0.0131075
0.0131059
0.0131075
0.0131058
0.0131076
0.0131057
0.0131077
0.0131056
0.0131078
0.0131055
0.013108
0.0131054
0.0131081
0.0131053
0.0131083
0.0131053
0.0131085
0.0131055
0.0131093
0.0131067
0.013113
0.525783
0.39695
0.47859
0.615132
0.977906
1.27906
1.48342
1.63706
1.72101
1.61303
1.53813
1.06416
0.365995
0.0405449
0.018192
0.0571927
0.0272187
0.0350599
0.0331511
0.0433811
0.0297275
0.00495572
0.0361603
0.103888
0.137987
0.12743
0.0972319
0.0688854
0.0497816
0.0387119
0.0325764
0.0290158
0.0266579
0.0248402
0.0233156
0.022021
0.0209291
0.0199898
0.0191359
0.018313
0.0175026
0.0167242
0.0160167
0.0154158
0.0149362
0.0145671
0.0142789
0.0140391
0.0138269
0.0136386
0.0134795
0.0133544
0.0132639
0.0132034
0.0131655
0.0131427
0.0131294
0.0131218
0.0131176
0.0131153
0.0131139
0.0131134
0.0131127
0.0131129
0.0131123
0.0131128
0.0131121
0.0131128
0.0131121
0.0131129
0.013112
0.013113
0.0131119
0.0131131
0.0131118
0.0131131
0.0131117
0.0131132
0.0131116
0.0131134
0.0131115
0.0131135
0.0131114
0.0131136
0.0131112
0.0131137
0.0131111
0.0131139
0.013111
0.013114
0.0131108
0.0131142
0.0131107
0.0131145
0.0131108
0.0131151
0.0131113
0.0131165
0.0131135
0.0131222
0.409512
0.370743
0.377743
0.365222
0.457107
0.526835
0.694749
0.818334
0.926975
0.908036
0.852922
0.355109
0.0358192
0.0105929
0.0281757
0.0638628
0.0236736
0.0415597
0.0660629
0.0563042
0.0411551
0.0105803
0.0164045
0.0561989
0.0808997
0.077256
0.0617266
0.047531
0.0380419
0.0323206
0.0289234
0.0267815
0.0252114
0.0238591
0.0226146
0.0214895
0.0205082
0.0196548
0.0188777
0.018123
0.0173662
0.0166213
0.0159272
0.0153247
0.0148375
0.0144646
0.0141833
0.0139627
0.0137765
0.0136124
0.0134723
0.0133608
0.0132779
0.0132197
0.0131809
0.0131562
0.0131411
0.0131321
0.0131268
0.0131239
0.0131221
0.0131214
0.0131206
0.0131208
0.01312
0.0131207
0.0131198
0.0131206
0.0131198
0.0131207
0.0131197
0.0131208
0.0131196
0.0131209
0.0131195
0.013121
0.0131194
0.0131211
0.0131192
0.0131212
0.0131191
0.0131213
0.013119
0.0131215
0.0131188
0.0131216
0.0131187
0.0131218
0.0131185
0.013122
0.0131184
0.0131222
0.0131183
0.0131226
0.0131184
0.0131233
0.0131192
0.0131253
0.0131222
0.0131326
0.290333
0.302416
0.278054
0.283255
0.293498
0.224928
0.320976
0.231464
0.285365
0.277065
0.17403
0.0479701
0.00350436
0.0102761
0.0373188
0.0643349
0.0293975
0.0685689
0.140786
0.112116
0.064935
0.026561
0.0156408
0.0332516
0.0477983
0.0482999
0.0425788
0.0367166
0.0322506
0.0291199
0.0270058
0.0255307
0.0243442
0.0232293
0.0221321
0.0210975
0.0201786
0.0193811
0.0186625
0.0179663
0.0172588
0.0165457
0.0158633
0.0152564
0.0147569
0.0143729
0.0140894
0.0138788
0.0137132
0.0135735
0.013455
0.0133593
0.0132853
0.0132306
0.0131921
0.0131663
0.0131498
0.0131395
0.0131333
0.0131298
0.0131276
0.0131267
0.0131257
0.0131259
0.0131251
0.0131257
0.0131248
0.0131257
0.0131247
0.0131257
0.0131247
0.0131258
0.0131245
0.0131259
0.0131244
0.013126
0.0131244
0.0131261
0.0131242
0.0131262
0.0131241
0.0131263
0.013124
0.0131265
0.0131238
0.0131266
0.0131237
0.0131268
0.0131236
0.013127
0.0131234
0.0131272
0.0131234
0.0131276
0.0131236
0.0131284
0.0131245
0.0131306
0.0131278
0.0131385
0.184632
0.1997
0.165419
0.206166
0.148677
0.175483
0.12346
0.0994244
0.12797
0.0214126
0.0410319
0.0235831
0.000992197
0.0248501
0.0518852
0.0647334
0.0621559
0.147763
0.28773
0.256727
0.138869
0.0586783
0.0274079
0.0273244
0.0333783
0.0352341
0.034104
0.0319449
0.0296236
0.027584
0.0260059
0.0248091
0.0237873
0.0227798
0.0217522
0.0207633
0.0198819
0.0191275
0.0184626
0.0178252
0.0171702
0.0164928
0.015825
0.0152138
0.0146984
0.0142961
0.0140005
0.0137894
0.0136362
0.0135173
0.0134196
0.013339
0.0132744
0.0132247
0.0131885
0.0131635
0.013147
0.0131366
0.0131302
0.0131264
0.0131241
0.013123
0.013122
0.0131221
0.0131213
0.0131219
0.0131211
0.0131218
0.013121
0.0131218
0.0131209
0.0131219
0.0131208
0.013122
0.0131207
0.0131221
0.0131206
0.0131222
0.0131205
0.0131223
0.0131204
0.0131224
0.0131203
0.0131225
0.0131202
0.0131226
0.0131201
0.0131227
0.01312
0.0131229
0.0131199
0.0131231
0.0131199
0.0131234
0.01312
0.0131241
0.0131209
0.0131262
0.013124
0.0131337
0.0990285
0.0877814
0.0774736
0.0904432
0.071111
0.0765112
0.0450792
0.0473641
0.0306614
0.0101485
0.0293808
0.0277961
0.00449909
0.0410366
0.0667822
0.0805061
0.150729
0.325114
0.533012
0.523044
0.327583
0.151093
0.0628345
0.0367432
0.0326518
0.0323831
0.0320766
0.0310416
0.0293855
0.0275813
0.0260007
0.0247196
0.0236138
0.0225464
0.0214818
0.0204759
0.0195992
0.0188731
0.0182575
0.0176811
0.017085
0.016451
0.0158042
0.0151928
0.0146626
0.0142396
0.0139258
0.0137053
0.0135539
0.0134464
0.0133634
0.0132955
0.0132404
0.0131976
0.0131662
0.0131443
0.0131297
0.0131205
0.0131147
0.0131113
0.0131092
0.0131083
0.0131074
0.0131074
0.0131067
0.0131072
0.0131065
0.0131071
0.0131064
0.0131072
0.0131064
0.0131072
0.0131063
0.0131073
0.0131062
0.0131074
0.0131062
0.0131074
0.0131061
0.0131075
0.013106
0.0131076
0.0131059
0.0131077
0.0131058
0.0131078
0.0131058
0.0131079
0.0131057
0.013108
0.0131056
0.0131081
0.0131056
0.0131083
0.0131057
0.0131089
0.0131064
0.0131105
0.0131089
0.0131168
0.0393245
0.0268381
0.0276494
0.0293987
0.0200022
0.0315623
0.0101139
0.0191012
0.014763
0.00398852
0.0229743
0.00975319
0.0098471
0.0694468
0.0977566
0.156888
0.341346
0.626147
0.877016
0.879056
0.638199
0.365084
0.178284
0.0852559
0.0513256
0.0418139
0.0387566
0.0362387
0.0333222
0.030415
0.0279186
0.0259218
0.0242881
0.0228489
0.0215341
0.0203728
0.0194165
0.0186698
0.0180752
0.0175439
0.0169997
0.0164091
0.0157873
0.0151814
0.014642
0.0142022
0.0138707
0.0136369
0.0134792
0.013373
0.013297
0.0132381
0.0131916
0.0131563
0.0131309
0.0131137
0.0131025
0.0130955
0.0130911
0.0130886
0.013087
0.0130863
0.0130856
0.0130856
0.0130852
0.0130855
0.013085
0.0130854
0.013085
0.0130855
0.0130849
0.0130855
0.0130849
0.0130856
0.0130848
0.0130856
0.0130848
0.0130857
0.0130847
0.0130857
0.0130846
0.0130858
0.0130846
0.0130858
0.0130845
0.0130859
0.0130844
0.013086
0.0130844
0.0130861
0.0130843
0.0130862
0.0130843
0.0130864
0.0130843
0.0130867
0.0130847
0.0130878
0.0130864
0.0130925
0.0234319
0.00701299
0.0231537
0.00966494
0.0156839
0.0185423
0.0067937
0.0261097
0.00209447
0.024155
0.0312572
0.0181619
0.058309
0.115504
0.170762
0.334745
0.645941
1.00406
1.26423
1.2597
1.00011
0.671533
0.404736
0.236616
0.144582
0.0968975
0.0721943
0.0579799
0.0482813
0.0410139
0.0354469
0.0311814
0.0278626
0.0251941
0.023011
0.0212646
0.0199386
0.0189764
0.0182661
0.017675
0.0170978
0.0164841
0.0158404
0.0152109
0.0146476
0.0141862
0.0138368
0.0135891
0.013422
0.0133116
0.0132368
0.0131833
0.0131439
0.0131155
0.0130961
0.0130834
0.0130755
0.0130708
0.013068
0.0130664
0.0130656
0.0130651
0.0130648
0.0130647
0.0130645
0.0130646
0.0130645
0.0130646
0.0130644
0.0130646
0.0130644
0.0130647
0.0130643
0.0130647
0.0130643
0.0130648
0.0130642
0.0130649
0.0130641
0.0130649
0.013064
0.013065
0.0130639
0.0130652
0.0130638
0.0130653
0.0130637
0.0130654
0.0130635
0.0130656
0.0130634
0.0130658
0.0130632
0.013066
0.0130632
0.0130664
0.0130634
0.0130673
0.0130647
0.0130712
0.0130693
0.0134192
0.0251943
0.00485231
0.0315934
0.00384799
0.0333897
0.0193444
0.0149221
0.052652
0.0327637
0.0705386
0.142379
0.205346
0.345855
0.62148
0.978994
1.33222
1.58651
1.58636
1.33132
0.9732
0.652407
0.426623
0.287698
0.206678
0.156895
0.122285
0.0959564
0.0759549
0.0610356
0.0499406
0.0415859
0.0351832
0.0302601
0.0265718
0.0239263
0.0220913
0.0207792
0.0197094
0.0186906
0.0176576
0.0166448
0.0157243
0.0149522
0.0143528
0.0139184
0.0136207
0.0134255
0.0133013
0.0132227
0.0131718
0.0131385
0.0131169
0.0131036
0.0130957
0.0130913
0.0130888
0.0130877
0.0130869
0.0130868
0.0130864
0.0130866
0.0130863
0.0130865
0.0130863
0.0130865
0.0130864
0.0130864
0.0130865
0.0130862
0.0130866
0.0130861
0.0130868
0.0130859
0.013087
0.0130857
0.0130872
0.0130854
0.0130876
0.0130851
0.013088
0.0130846
0.0130885
0.013084
0.0130891
0.0130833
0.0130899
0.0130826
0.0130907
0.0130818
0.0130916
0.0130811
0.0130928
0.0130806
0.0130946