/*--------------------------------*- C++ -*----------------------------------*\
| =========                 |                                                 |
| \\      /  F ield         | OpenFOAM: The Open Source CFD Toolbox           |
|  \\    /   O peration     | Version:  v2012                                 |
|   \\  /    A nd           | Website:  www.openfoam.com                      |
|    \\/     M anipulation  |                                                 |
\*---------------------------------------------------------------------------*/
FoamFile
{
    version     2.0;
    format      ascii;
    class       volScalarField;
    location    "0.019";
    object      nut.air;
}
// * * * * * * * * * * * * * * * * * * * * * * * * * * * * * * * * * * * * * //

dimensions      [0 2 -1 0 0 0 0];


internalField   nonuniform List<scalar> 
5600
(
1.35483e-05
2.91676e-05
4.92055e-05
6.47566e-05
7.3043e-05
7.56377e-05
7.49685e-05
7.27252e-05
7.0124e-05
6.77683e-05
6.56031e-05
6.37128e-05
6.231e-05
6.15381e-05
6.13218e-05
6.144e-05
6.16846e-05
6.19302e-05
6.21289e-05
6.2272e-05
6.23666e-05
6.24267e-05
6.24664e-05
6.24942e-05
6.25141e-05
6.25264e-05
6.25339e-05
6.25387e-05
6.25417e-05
6.25434e-05
6.25444e-05
6.25449e-05
6.25452e-05
6.25453e-05
6.25454e-05
6.25454e-05
6.25454e-05
6.25454e-05
6.25454e-05
6.25454e-05
6.25454e-05
6.25454e-05
6.25454e-05
6.25454e-05
6.25454e-05
6.25454e-05
6.25454e-05
6.25454e-05
6.25454e-05
6.25455e-05
6.25455e-05
6.25455e-05
6.25455e-05
6.25455e-05
6.25455e-05
6.25455e-05
6.25455e-05
6.25455e-05
6.25455e-05
6.25455e-05
6.25455e-05
6.25455e-05
6.25455e-05
6.25455e-05
6.25455e-05
6.25455e-05
6.25455e-05
6.25454e-05
6.25455e-05
6.25453e-05
6.25459e-05
6.25445e-05
6.25475e-05
6.25411e-05
6.25544e-05
6.2528e-05
6.25781e-05
6.24874e-05
6.26442e-05
6.23873e-05
6.27864e-05
6.22053e-05
6.30037e-05
6.19838e-05
6.32184e-05
6.18013e-05
6.34283e-05
6.14775e-05
6.40644e-05
6.04807e-05
6.55334e-05
5.92107e-05
6.63818e-05
5.98304e-05
6.36666e-05
6.43642e-05
5.6747e-05
7.17707e-05
5.57278e-05
5.1724e-05
0.000159865
0.000143339
0.000114206
0.000102162
0.000100674
0.000107743
0.000117976
0.000134774
0.000149167
0.00016293
0.000179106
0.000197334
0.000219036
0.000244011
0.000269525
0.000292375
0.000310788
0.000324133
0.000333079
0.000338664
0.000341955
0.000343816
0.000344862
0.000345495
0.000345913
0.000346158
0.000346314
0.00034642
0.000346487
0.000346529
0.000346553
0.000346567
0.000346575
0.000346579
0.000346581
0.000346582
0.000346583
0.000346583
0.000346583
0.000346583
0.000346583
0.000346583
0.000346583
0.000346583
0.000346583
0.000346583
0.000346583
0.000346583
0.000346583
0.000346583
0.000346583
0.000346583
0.000346583
0.000346583
0.000346583
0.000346583
0.000346583
0.000346583
0.000346583
0.000346583
0.000346583
0.000346583
0.000346583
0.000346583
0.000346583
0.000346583
0.000346584
0.000346582
0.000346586
0.000346576
0.0003466
0.000346547
0.000346661
0.000346422
0.000346905
0.000345968
0.000347707
0.000344626
0.000349824
0.000341514
0.000354071
0.000336224
0.000360019
0.000330198
0.000365443
0.000324917
0.000371865
0.000313452
0.00039197
0.000282576
0.000428449
0.000250013
0.000430014
0.000280884
0.000333568
0.000421527
0.000171667
0.000532515
0.000169601
0.000223747
0.000158539
0.000156121
0.000150627
0.000144089
0.000134578
0.000123733
0.000114783
0.000108994
0.000106495
0.000108522
0.000113632
0.00012036
0.000129784
0.000144204
0.000163746
0.000186036
0.000207581
0.000225588
0.000238891
0.00024769
0.000252913
0.00025569
0.000257049
0.000257714
0.00025807
0.000258291
0.000258465
0.00025861
0.000258726
0.000258811
0.00025887
0.000258908
0.000258931
0.000258945
0.000258953
0.000258957
0.000258959
0.00025896
0.000258961
0.000258961
0.000258961
0.000258961
0.000258961
0.000258961
0.000258961
0.000258962
0.000258962
0.000258962
0.000258962
0.000258962
0.000258962
0.000258962
0.000258962
0.000258962
0.000258962
0.000258962
0.000258962
0.000258962
0.000258962
0.000258962
0.000258962
0.000258962
0.000258962
0.000258962
0.000258962
0.000258961
0.000258963
0.000258958
0.000258971
0.00025894
0.000259008
0.000258862
0.000259167
0.000258555
0.000259734
0.000257556
0.000261406
0.000254911
0.000265318
0.000249483
0.000272179
0.000241376
0.000280581
0.000232911
0.000288471
0.000223437
0.000301999
0.000200238
0.000335057
0.000155524
0.000368433
0.000138788
0.000329306
0.000239684
0.000184171
0.000417292
1.37263e-05
0.000508182
5.31963e-05
0.000392764
0.000159208
0.000156927
0.000154684
0.000152674
0.000150205
0.000147448
0.000143957
0.000140255
0.000136289
0.000132511
0.000129038
0.000125176
0.000121273
0.000118273
0.000117646
0.000119891
0.000123741
0.000127515
0.000130107
0.000131243
0.00013118
0.000130379
0.000129303
0.000128279
0.000127467
0.000126912
0.000126581
0.000126406
0.000126324
0.000126292
0.000126283
0.000126284
0.000126287
0.000126291
0.000126293
0.000126295
0.000126296
0.000126296
0.000126297
0.000126297
0.000126297
0.000126297
0.000126297
0.000126297
0.000126297
0.000126297
0.000126297
0.000126297
0.000126297
0.000126297
0.000126297
0.000126297
0.000126297
0.000126297
0.000126297
0.000126297
0.000126297
0.000126297
0.000126297
0.000126297
0.000126297
0.000126297
0.000126297
0.000126297
0.000126297
0.000126296
0.000126299
0.000126293
0.000126306
0.000126277
0.000126339
0.000126212
0.000126463
0.000125984
0.000126858
0.000125328
0.000127875
0.0001238
0.000129922
0.000121044
0.000132996
0.000117319
0.000136523
0.000112992
0.000141115
0.000105163
0.000150787
8.601e-05
0.000166239
5.7606e-05
0.000172588
6.88974e-05
0.000146521
0.000150589
6.09521e-05
0.000208339
1.88672e-06
0.000333094
2.76743e-05
0.000836874
0.000159346
0.000157203
0.000155299
0.000153648
0.000152065
0.00015063
0.000149201
0.000147788
0.000146373
0.000144911
0.00014343
0.000141865
0.000140175
0.000138332
0.000136447
0.000134585
0.00013294
0.000131056
0.00012911
0.000127186
0.000125382
0.000123798
0.000122493
0.000121481
0.000120735
0.000120213
0.000119864
0.000119641
0.000119504
0.000119422
0.000119375
0.000119348
0.000119334
0.000119326
0.000119322
0.00011932
0.000119319
0.000119319
0.000119318
0.000119318
0.000119318
0.000119318
0.000119318
0.000119318
0.000119318
0.000119318
0.000119318
0.000119318
0.000119318
0.000119318
0.000119318
0.000119318
0.000119318
0.000119318
0.000119318
0.000119318
0.000119318
0.000119318
0.000119318
0.000119318
0.000119318
0.000119318
0.000119318
0.000119318
0.000119318
0.000119319
0.000119317
0.000119321
0.000119313
0.000119328
0.0001193
0.000119348
0.000119271
0.000119385
0.000119239
0.000119383
0.000119336
0.000119088
0.000119952
0.000117941
0.000121632
0.000115457
0.000124318
0.000112292
0.000126633
0.000109688
0.000127745
0.00010482
0.000130556
8.83051e-05
0.000137131
7.93927e-05
0.000139378
0.000114482
9.30225e-05
0.000143023
3.70145e-05
0.000226247
6.40835e-05
0.00133869
0.000159374
0.000157283
0.000155466
0.000153872
0.000152434
0.000151133
0.000149945
0.000148851
0.000147825
0.000146835
0.000145882
0.000144984
0.000144145
0.000143333
0.0001425
0.000141611
0.000140698
0.00013979
0.000138978
0.000138334
0.000137899
0.000137675
0.000137623
0.000137683
0.00013779
0.000137902
0.000137995
0.000138063
0.000138108
0.000138136
0.000138152
0.00013816
0.000138164
0.000138166
0.000138167
0.000138167
0.000138167
0.000138167
0.000138167
0.000138167
0.000138167
0.000138167
0.000138167
0.000138167
0.000138167
0.000138167
0.000138167
0.000138167
0.000138167
0.000138167
0.000138167
0.000138167
0.000138167
0.000138167
0.000138167
0.000138167
0.000138167
0.000138167
0.000138167
0.000138167
0.000138167
0.000138167
0.000138167
0.000138167
0.000138168
0.000138166
0.000138169
0.000138162
0.000138178
0.000138144
0.000138213
0.000138078
0.000138332
0.000137881
0.000138638
0.000137445
0.000139188
0.000136863
0.00013962
0.000136848
0.000138894
0.00013848
0.000136597
0.00014076
0.000135976
0.000138069
0.000142871
0.000124242
0.000157485
9.79483e-05
0.000173926
7.13746e-05
0.000187573
9.72245e-05
0.000164866
0.00014756
3.54218e-05
0.000196675
4.21112e-05
0.000534218
0.000159383
0.000157309
0.000155517
0.000153944
0.00015254
0.000151273
0.000150128
0.000149087
0.000148122
0.000147205
0.000146336
0.000145539
0.000144828
0.000144176
0.000143524
0.000142824
0.000142079
0.000141346
0.000140714
0.000140263
0.000140031
0.000140008
0.000140144
0.000140368
0.000140614
0.000140837
0.000141015
0.000141143
0.000141229
0.000141283
0.000141315
0.000141333
0.000141342
0.000141347
0.00014135
0.000141351
0.000141351
0.000141352
0.000141352
0.000141352
0.000141352
0.000141352
0.000141352
0.000141352
0.000141352
0.000141352
0.000141352
0.000141352
0.000141352
0.000141352
0.000141352
0.000141352
0.000141352
0.000141352
0.000141352
0.000141352
0.000141352
0.000141352
0.000141352
0.000141352
0.000141352
0.000141352
0.000141352
0.000141352
0.000141351
0.000141352
0.00014135
0.000141355
0.000141344
0.000141367
0.000141322
0.000141408
0.000141251
0.000141524
0.000141074
0.000141775
0.000140752
0.000142148
0.000140385
0.000142447
0.000140192
0.000142598
0.000139829
0.000143557
0.000137898
0.000146316
0.000135847
0.000145104
0.00014454
0.000122994
0.000174481
8.19942e-05
0.000206248
8.75429e-05
0.000166926
0.000166099
2.47531e-05
0.00022515
3.01105e-05
0.000259225
0.000159386
0.000157319
0.000155535
0.000153971
0.000152577
0.000151322
0.00015019
0.000149164
0.000148214
0.000147315
0.000146466
0.000145691
0.000145005
0.000144382
0.000143764
0.000143098
0.000142387
0.000141686
0.000141085
0.000140665
0.000140466
0.000140475
0.000140639
0.000140886
0.000141149
0.000141384
0.00014157
0.000141703
0.000141791
0.000141847
0.000141879
0.000141897
0.000141907
0.000141912
0.000141915
0.000141916
0.000141916
0.000141917
0.000141917
0.000141917
0.000141917
0.000141917
0.000141917
0.000141917
0.000141917
0.000141917
0.000141917
0.000141917
0.000141917
0.000141917
0.000141917
0.000141917
0.000141917
0.000141917
0.000141917
0.000141917
0.000141917
0.000141917
0.000141917
0.000141917
0.000141917
0.000141917
0.000141917
0.000141917
0.000141917
0.000141917
0.000141918
0.000141915
0.000141921
0.000141909
0.000141933
0.000141885
0.000141976
0.000141814
0.000142084
0.000141667
0.000142253
0.000141518
0.000142305
0.000141651
0.000141945
0.000142139
0.000141685
0.000141566
0.00014376
0.000137761
0.000148903
0.000133272
0.000151698
0.000132424
0.000153188
0.000124476
0.000167936
0.000107681
0.000172035
0.000136904
0.000107305
0.000205207
7.08894e-05
0.000187656
0.000159388
0.000157323
0.000155542
0.000153982
0.000152592
0.000151341
0.000150214
0.000149194
0.00014825
0.000147357
0.000146515
0.000145747
0.000145069
0.000144454
0.000143845
0.000143189
0.000142487
0.000141795
0.000141203
0.000140793
0.000140604
0.000140623
0.000140794
0.000141046
0.000141312
0.000141548
0.000141732
0.000141863
0.00014195
0.000142004
0.000142035
0.000142053
0.000142062
0.000142067
0.000142069
0.000142071
0.000142071
0.000142071
0.000142071
0.000142071
0.000142071
0.000142071
0.000142071
0.000142071
0.000142071
0.000142071
0.000142071
0.000142071
0.000142071
0.000142071
0.000142071
0.000142071
0.000142071
0.000142071
0.000142071
0.000142071
0.000142071
0.000142071
0.000142071
0.000142071
0.000142071
0.000142071
0.000142071
0.000142071
0.000142071
0.000142071
0.000142072
0.000142071
0.000142072
0.000142069
0.000142078
0.000142056
0.000142105
0.000142003
0.000142207
0.000141818
0.000142515
0.000141345
0.000143176
0.000140541
0.000143976
0.000140056
0.000143734
0.000141399
0.000141244
0.000144383
0.000139388
0.000143192
0.000144912
0.000134234
0.000153817
0.000131967
0.000146542
0.000146454
0.000131933
0.00015165
0.000139281
0.000139365
0.000146716
0.000136269
0.000159388
0.000157325
0.000155546
0.000153987
0.000152599
0.00015135
0.000150225
0.000149206
0.000148265
0.000147375
0.000146535
0.00014577
0.000145095
0.000144483
0.000143877
0.000143226
0.000142527
0.000141838
0.00014125
0.000140843
0.000140658
0.00014068
0.000140854
0.000141108
0.000141373
0.000141607
0.00014179
0.000141919
0.000142004
0.000142057
0.000142087
0.000142104
0.000142113
0.000142118
0.00014212
0.000142121
0.000142122
0.000142122
0.000142122
0.000142122
0.000142122
0.000142122
0.000142122
0.000142122
0.000142122
0.000142122
0.000142122
0.000142122
0.000142122
0.000142122
0.000142122
0.000142122
0.000142122
0.000142122
0.000142122
0.000142122
0.000142122
0.000142122
0.000142122
0.000142122
0.000142122
0.000142122
0.000142122
0.000142122
0.000142122
0.000142122
0.000142122
0.000142122
0.000142123
0.00014212
0.000142125
0.000142116
0.000142131
0.000142109
0.000142137
0.000142111
0.000142112
0.000142181
0.000141977
0.000142386
0.000141746
0.000142528
0.000141878
0.000141954
0.000142853
0.000141078
0.000142648
0.000143446
0.000137966
0.00014882
0.000136084
0.000143765
0.000147737
0.000131548
0.00015083
0.000144163
0.000126969
0.000162498
0.000129934
0.000140627
0.000159388
0.000157325
0.000155546
0.000153987
0.000152599
0.00015135
0.000150225
0.000149206
0.000148265
0.000147375
0.000146535
0.00014577
0.000145095
0.000144483
0.000143877
0.000143226
0.000142527
0.000141838
0.00014125
0.000140844
0.000140658
0.00014068
0.000140854
0.000141107
0.000141373
0.000141607
0.000141789
0.000141919
0.000142004
0.000142056
0.000142086
0.000142103
0.000142112
0.000142117
0.000142119
0.00014212
0.000142121
0.000142121
0.000142121
0.000142121
0.000142121
0.000142121
0.000142121
0.000142121
0.000142121
0.000142121
0.000142121
0.000142121
0.000142121
0.000142121
0.000142121
0.000142121
0.000142121
0.000142121
0.000142121
0.000142121
0.000142121
0.000142121
0.000142121
0.000142121
0.000142121
0.000142121
0.000142121
0.000142121
0.000142121
0.000142121
0.000142121
0.00014212
0.000142122
0.000142118
0.000142127
0.00014211
0.000142142
0.000142083
0.000142184
0.000142022
0.000142266
0.000141928
0.000142349
0.000141896
0.000142274
0.000142125
0.000141889
0.000142572
0.000141611
0.000142348
0.000142618
0.000140619
0.00014441
0.000140128
0.000142238
0.000145191
0.000136388
0.000147887
0.000140955
0.000135983
0.000154092
0.000131401
0.000142984
0.000155637
0.000159388
0.000157323
0.000155543
0.000153982
0.000152593
0.000151342
0.000150214
0.000149194
0.00014825
0.000147357
0.000146515
0.000145747
0.000145069
0.000144454
0.000143845
0.00014319
0.000142487
0.000141795
0.000141204
0.000140794
0.000140604
0.000140622
0.000140794
0.000141046
0.000141311
0.000141546
0.000141731
0.000141862
0.000141948
0.000142002
0.000142033
0.000142051
0.00014206
0.000142065
0.000142067
0.000142068
0.000142068
0.000142069
0.000142069
0.000142069
0.000142069
0.000142069
0.000142069
0.000142069
0.000142069
0.000142069
0.000142069
0.000142069
0.000142069
0.000142069
0.000142069
0.000142069
0.000142069
0.000142069
0.000142069
0.000142069
0.000142069
0.000142069
0.000142069
0.000142069
0.000142069
0.000142069
0.000142069
0.000142069
0.000142069
0.000142069
0.000142069
0.000142068
0.00014207
0.000142067
0.000142074
0.00014206
0.000142085
0.000142041
0.000142113
0.000142002
0.000142161
0.000141953
0.000142199
0.000141945
0.000142158
0.000142039
0.00014203
0.00014216
0.000141954
0.0001422
0.000141883
0.000142361
0.000141741
0.000142084
0.000142963
0.000139912
0.000144893
0.000140558
0.000140111
0.000147787
0.000135844
0.000144143
0.000147391
0.000130807
0.000159386
0.000157319
0.000155535
0.000153971
0.000152578
0.000151322
0.00015019
0.000149164
0.000148215
0.000147315
0.000146466
0.000145691
0.000145005
0.000144382
0.000143763
0.000143098
0.000142387
0.000141686
0.000141085
0.000140665
0.000140465
0.000140474
0.000140637
0.000140883
0.000141147
0.000141381
0.000141567
0.000141699
0.000141787
0.000141842
0.000141875
0.000141893
0.000141903
0.000141907
0.00014191
0.000141911
0.000141912
0.000141912
0.000141912
0.000141912
0.000141912
0.000141912
0.000141912
0.000141912
0.000141912
0.000141912
0.000141912
0.000141912
0.000141912
0.000141912
0.000141912
0.000141912
0.000141912
0.000141912
0.000141912
0.000141912
0.000141912
0.000141912
0.000141912
0.000141912
0.000141912
0.000141912
0.000141912
0.000141912
0.000141912
0.000141912
0.000141912
0.000141912
0.000141913
0.00014191
0.000141916
0.000141905
0.000141925
0.00014189
0.000141947
0.000141861
0.000141981
0.000141831
0.000141992
0.000141856
0.000141918
0.000141975
0.000141788
0.000142048
0.000141848
0.000141825
0.00014216
0.000141618
0.000142032
0.000142166
0.000141294
0.000142567
0.000141785
0.000141033
0.000143792
0.000139741
0.000143022
0.000143384
0.000136975
0.000150797
0.000159383
0.000157309
0.000155517
0.000153945
0.00015254
0.000151273
0.000150128
0.000149087
0.000148122
0.000147204
0.000146335
0.000145538
0.000144826
0.000144172
0.000143519
0.000142819
0.000142073
0.000141341
0.000140708
0.000140255
0.000140022
0.000139997
0.000140131
0.000140354
0.000140599
0.000140821
0.000140998
0.000141126
0.000141211
0.000141264
0.000141296
0.000141314
0.000141323
0.000141328
0.00014133
0.000141331
0.000141332
0.000141332
0.000141332
0.000141332
0.000141332
0.000141332
0.000141332
0.000141332
0.000141332
0.000141332
0.000141332
0.000141332
0.000141332
0.000141332
0.000141332
0.000141332
0.000141332
0.000141332
0.000141332
0.000141332
0.000141332
0.000141332
0.000141332
0.000141332
0.000141332
0.000141332
0.000141332
0.000141332
0.000141332
0.000141332
0.000141333
0.000141332
0.000141333
0.000141331
0.000141336
0.000141326
0.000141343
0.000141314
0.000141361
0.000141291
0.000141385
0.000141272
0.000141386
0.000141305
0.000141311
0.000141417
0.000141193
0.000141485
0.000141235
0.000141312
0.000141482
0.000141114
0.00014153
0.000141173
0.000141578
0.000140834
0.00014205
0.000140795
0.000141238
0.000141884
0.000141467
0.000139641
0.00014323
0.000143529
0.000159374
0.000157284
0.000155465
0.000153874
0.000152432
0.000151134
0.000149943
0.000148849
0.000147819
0.000146828
0.000145873
0.00014497
0.000144124
0.000143301
0.000142459
0.000141571
0.000140649
0.000139738
0.000138916
0.000138258
0.000137805
0.000137561
0.000137491
0.000137534
0.000137629
0.000137731
0.000137817
0.00013788
0.000137923
0.000137948
0.000137963
0.000137971
0.000137975
0.000137976
0.000137977
0.000137977
0.000137977
0.000137977
0.000137977
0.000137977
0.000137977
0.000137977
0.000137977
0.000137977
0.000137977
0.000137977
0.000137977
0.000137977
0.000137977
0.000137977
0.000137977
0.000137977
0.000137977
0.000137977
0.000137977
0.000137977
0.000137977
0.000137977
0.000137977
0.000137977
0.000137977
0.000137977
0.000137977
0.000137977
0.000137977
0.000137977
0.000137978
0.000137977
0.000137978
0.000137976
0.00013798
0.000137972
0.000137986
0.000137963
0.000138
0.000137946
0.000138018
0.000137934
0.000138014
0.000137964
0.00013795
0.000138055
0.000137858
0.000138105
0.00013789
0.000137994
0.000138008
0.00013798
0.000137865
0.000138145
0.000138036
0.000137257
0.000139747
0.000135188
0.000141519
0.000133879
0.000142367
0.000133334
0.000140742
0.000142491
0.000159341
0.000157207
0.000155294
0.000153659
0.00015205
0.000150638
0.000149174
0.000147776
0.000146313
0.000144862
0.000143357
0.000141762
0.000140019
0.000138125
0.000136214
0.000134445
0.000132727
0.000130861
0.000128907
0.000126941
0.000125073
0.000123413
0.000122031
0.000120949
0.000120151
0.000119595
0.000119226
0.000118993
0.000118851
0.000118767
0.00011872
0.000118693
0.000118679
0.000118671
0.000118668
0.000118666
0.000118665
0.000118664
0.000118664
0.000118664
0.000118664
0.000118664
0.000118664
0.000118664
0.000118664
0.000118664
0.000118664
0.000118664
0.000118664
0.000118664
0.000118664
0.000118664
0.000118664
0.000118664
0.000118664
0.000118664
0.000118664
0.000118664
0.000118664
0.000118664
0.000118664
0.000118664
0.000118664
0.000118664
0.000118664
0.000118664
0.000118664
0.000118664
0.000118664
0.000118663
0.000118666
0.00011866
0.00011867
0.000118654
0.000118679
0.000118644
0.000118688
0.000118639
0.000118681
0.000118665
0.000118636
0.000118719
0.000118599
0.000118706
0.000118677
0.0001186
0.000118698
0.000118823
0.000118145
0.000119561
0.00011768
0.000119073
0.000119632
0.000115662
0.000124257
0.000109686
0.000130812
0.000100617
0.000135835
0.000102841
0.000159177
0.000156949
0.000154667
0.000152705
0.000150136
0.000147432
0.000143777
0.000140168
0.00013599
0.000132493
0.00012895
0.000125129
0.000121351
0.000118746
0.000118904
0.000122117
0.000126904
0.000131426
0.000134575
0.000136098
0.000136291
0.000135657
0.000134683
0.000133718
0.000132938
0.000132395
0.000132069
0.000131894
0.000131811
0.000131778
0.000131769
0.000131769
0.000131772
0.000131774
0.000131777
0.000131778
0.000131779
0.000131779
0.00013178
0.00013178
0.00013178
0.00013178
0.00013178
0.00013178
0.00013178
0.00013178
0.00013178
0.00013178
0.00013178
0.00013178
0.00013178
0.00013178
0.00013178
0.00013178
0.00013178
0.00013178
0.00013178
0.00013178
0.00013178
0.00013178
0.00013178
0.00013178
0.00013178
0.00013178
0.00013178
0.00013178
0.00013178
0.00013178
0.00013178
0.000131779
0.000131781
0.000131777
0.000131786
0.000131769
0.000131797
0.000131753
0.000131818
0.000131729
0.000131839
0.000131723
0.000131821
0.000131771
0.000131753
0.000131822
0.000131775
0.000131676
0.000132034
0.000131436
0.000131991
0.000132036
0.000130794
0.00013335
0.000130392
0.000131503
0.000135237
0.000123464
0.000144556
0.000111814
0.000151621
0.000102517
0.000158389
0.00015626
0.00015049
0.000144249
0.000134288
0.000123843
0.000114989
0.000109826
0.000108196
0.000111253
0.000117175
0.000124543
0.000134896
0.000150556
0.000171433
0.000194866
0.00021726
0.000235868
0.000249568
0.000258619
0.000264017
0.000266928
0.000268386
0.000269119
0.000269511
0.000269747
0.000269922
0.000270063
0.000270172
0.000270251
0.000270304
0.000270339
0.00027036
0.000270372
0.000270379
0.000270383
0.000270385
0.000270386
0.000270386
0.000270386
0.000270386
0.000270387
0.000270387
0.000270387
0.000270387
0.000270387
0.000270387
0.000270387
0.000270387
0.000270387
0.000270387
0.000270387
0.000270387
0.000270387
0.000270387
0.000270387
0.000270387
0.000270387
0.000270387
0.000270387
0.000270387
0.000270387
0.000270387
0.000270387
0.000270387
0.000270387
0.000270387
0.000270387
0.000270387
0.000270386
0.000270388
0.000270384
0.000270392
0.000270376
0.000270406
0.000270353
0.000270441
0.000270305
0.0002705
0.000270246
0.000270538
0.000270258
0.000270446
0.000270433
0.00027024
0.000270551
0.000270372
0.000270062
0.000271116
0.000269459
0.000270999
0.000270604
0.000269294
0.000271335
0.000271279
0.000265531
0.00027896
0.000256659
0.000282228
0.000249988
0.000159282
0.00014377
0.000114431
0.000103589
0.000102066
0.000110997
0.000121073
0.000141006
0.00015289
0.000167612
0.00018441
0.000203184
0.000225499
0.000250909
0.000276444
0.000299
0.000316939
0.000329812
0.000338376
0.000343711
0.000346865
0.000348667
0.000349688
0.000350306
0.000350723
0.000350969
0.000351124
0.000351228
0.000351295
0.000351335
0.000351358
0.000351371
0.000351379
0.000351382
0.000351384
0.000351385
0.000351386
0.000351386
0.000351386
0.000351386
0.000351386
0.000351386
0.000351386
0.000351386
0.000351386
0.000351386
0.000351386
0.000351386
0.000351386
0.000351386
0.000351386
0.000351386
0.000351386
0.000351386
0.000351386
0.000351386
0.000351386
0.000351386
0.000351386
0.000351386
0.000351386
0.000351386
0.000351386
0.000351386
0.000351386
0.000351386
0.000351386
0.000351386
0.000351386
0.000351386
0.000351387
0.000351385
0.000351388
0.000351383
0.000351394
0.000351373
0.00035141
0.000351347
0.000351448
0.000351298
0.000351499
0.000351262
0.000351495
0.000351336
0.000351338
0.000351542
0.000351181
0.000351507
0.000351527
0.000350882
0.000352143
0.000350725
0.000351552
0.00035181
0.000350982
0.000350773
0.000354111
0.000346997
0.000357545
0.000345776
1.35299e-05
2.91729e-05
4.92362e-05
6.47549e-05
7.28934e-05
7.5345e-05
7.45389e-05
7.2178e-05
6.95824e-05
6.72183e-05
6.501e-05
6.31214e-05
6.17771e-05
6.10984e-05
6.09689e-05
6.11494e-05
6.14326e-05
6.16981e-05
6.19029e-05
6.20459e-05
6.21391e-05
6.21981e-05
6.22376e-05
6.22656e-05
6.22859e-05
6.22986e-05
6.23064e-05
6.23113e-05
6.23143e-05
6.2316e-05
6.2317e-05
6.23175e-05
6.23178e-05
6.23179e-05
6.2318e-05
6.2318e-05
6.23181e-05
6.23181e-05
6.23181e-05
6.23181e-05
6.23181e-05
6.23181e-05
6.23181e-05
6.23181e-05
6.23181e-05
6.23181e-05
6.23181e-05
6.23181e-05
6.23181e-05
6.23181e-05
6.23181e-05
6.23181e-05
6.23181e-05
6.23181e-05
6.23181e-05
6.23181e-05
6.23181e-05
6.23181e-05
6.23181e-05
6.23181e-05
6.23181e-05
6.23181e-05
6.23181e-05
6.23181e-05
6.23181e-05
6.23181e-05
6.23181e-05
6.23181e-05
6.23181e-05
6.23181e-05
6.23181e-05
6.23181e-05
6.23181e-05
6.2318e-05
6.23183e-05
6.23177e-05
6.23188e-05
6.23168e-05
6.23201e-05
6.2315e-05
6.23222e-05
6.23132e-05
6.23229e-05
6.23148e-05
6.2318e-05
6.23228e-05
6.23097e-05
6.23259e-05
6.23178e-05
6.23042e-05
6.23461e-05
6.22856e-05
6.23354e-05
6.23246e-05
6.22897e-05
6.23057e-05
6.2352e-05
6.20888e-05
6.24049e-05
6.18347e-05
0.000659767
4.33383e-05
0.00145978
0.00091066
0.000521353
0.000350599
0.000275867
0.000223415
0.000205543
0.000208568
0.000201742
0.00018984
0.000180116
0.000172565
0.000165887
0.000159902
0.000154763
0.000150551
0.000147359
0.000145158
0.000143792
0.000143034
0.000142638
0.000142434
0.000142329
0.000142275
0.000142246
0.00014223
0.000142222
0.000142217
0.000142215
0.000142213
0.000142213
0.000142212
0.000142212
0.000142212
0.000142212
0.000142212
0.000142212
0.000142212
0.000142212
0.000142212
0.000142212
0.000142212
0.000142212
0.000142212
0.000142212
0.000142212
0.000142212
0.000142212
0.000142212
0.000142212
0.000142212
0.000142212
0.000142212
0.000142212
0.000142212
0.000142212
0.000142212
0.000142212
0.000142212
0.000142212
0.000142212
0.000142212
0.000142212
0.000142212
0.000142212
0.000142212
0.000142212
0.000142212
0.000142212
0.000142212
0.000142212
0.000142212
0.000142212
0.000142212
0.000142212
0.000142212
0.000142212
0.000142212
0.000142212
0.000142212
0.000142212
0.000142212
0.000142212
0.000142212
0.000142212
0.000142211
0.000142213
0.00014221
0.000142214
0.000142209
0.000142215
0.000142208
0.000142215
0.000142208
0.000142213
0.000142205
0.000142209
0.000142196
0.000856399
8.44488e-05
0.0010215
0.000596369
0.000389988
0.000288765
0.000219454
0.000190215
0.000176155
0.000188226
0.000193412
0.000187573
0.000179235
0.000171658
0.000164902
0.000159022
0.000154139
0.000150204
0.000147207
0.000145113
0.000143755
0.000142959
0.000142533
0.000142315
0.000142206
0.000142151
0.000142123
0.000142109
0.000142102
0.000142098
0.000142097
0.000142096
0.000142095
0.000142095
0.000142095
0.000142095
0.000142095
0.000142095
0.000142095
0.000142095
0.000142095
0.000142095
0.000142095
0.000142095
0.000142095
0.000142095
0.000142095
0.000142095
0.000142095
0.000142095
0.000142095
0.000142095
0.000142095
0.000142095
0.000142095
0.000142095
0.000142095
0.000142095
0.000142095
0.000142095
0.000142095
0.000142095
0.000142095
0.000142095
0.000142095
0.000142095
0.000142095
0.000142095
0.000142095
0.000142095
0.000142095
0.000142095
0.000142095
0.000142095
0.000142095
0.000142095
0.000142095
0.000142095
0.000142095
0.000142095
0.000142095
0.000142095
0.000142095
0.000142095
0.000142095
0.000142094
0.000142095
0.000142094
0.000142096
0.000142093
0.000142097
0.000142091
0.000142098
0.000142091
0.000142098
0.000142091
0.000142097
0.000142089
0.000142094
0.000142087
0.00076408
0.0002561
0.000569091
0.000313361
0.000249953
0.000221343
0.000190554
0.00018987
0.000172122
0.00017853
0.000188303
0.000187047
0.000179785
0.000171694
0.000164366
0.000158245
0.00015347
0.000149848
0.000147148
0.000145224
0.00014391
0.000143068
0.000142582
0.000142323
0.000142191
0.000142124
0.000142092
0.000142076
0.000142068
0.000142064
0.000142062
0.000142061
0.00014206
0.00014206
0.00014206
0.00014206
0.00014206
0.00014206
0.00014206
0.00014206
0.00014206
0.00014206
0.00014206
0.00014206
0.00014206
0.00014206
0.00014206
0.00014206
0.00014206
0.00014206
0.00014206
0.00014206
0.00014206
0.00014206
0.00014206
0.00014206
0.00014206
0.00014206
0.00014206
0.00014206
0.00014206
0.00014206
0.00014206
0.00014206
0.00014206
0.00014206
0.00014206
0.00014206
0.00014206
0.00014206
0.00014206
0.00014206
0.00014206
0.00014206
0.00014206
0.00014206
0.00014206
0.00014206
0.00014206
0.00014206
0.00014206
0.00014206
0.00014206
0.00014206
0.00014206
0.00014206
0.00014206
0.000142059
0.000142061
0.000142059
0.000142062
0.000142057
0.000142063
0.000142057
0.000142062
0.000142059
0.000142062
0.00014206
0.000142062
0.000142065
0.000553232
0.000337822
0.000253631
0.000228482
0.000354746
0.000243167
0.00016967
0.000178296
0.00016122
0.000161198
0.00017626
0.00018299
0.000179465
0.000171849
0.000164053
0.000157551
0.000152712
0.000149318
0.000146937
0.000145248
0.000144051
0.000143229
0.000142711
0.000142416
0.000142258
0.000142176
0.000142134
0.000142113
0.000142103
0.000142098
0.000142095
0.000142094
0.000142093
0.000142093
0.000142092
0.000142092
0.000142092
0.000142092
0.000142092
0.000142092
0.000142092
0.000142092
0.000142092
0.000142092
0.000142092
0.000142092
0.000142092
0.000142092
0.000142092
0.000142092
0.000142092
0.000142092
0.000142092
0.000142092
0.000142092
0.000142092
0.000142092
0.000142092
0.000142092
0.000142092
0.000142092
0.000142092
0.000142092
0.000142092
0.000142092
0.000142092
0.000142092
0.000142092
0.000142092
0.000142092
0.000142092
0.000142092
0.000142092
0.000142092
0.000142092
0.000142092
0.000142092
0.000142092
0.000142092
0.000142092
0.000142092
0.000142092
0.000142092
0.000142092
0.000142092
0.000142092
0.000142092
0.000142092
0.000142093
0.000142091
0.000142094
0.00014209
0.000142095
0.00014209
0.000142094
0.000142092
0.000142094
0.000142095
0.000142096
0.000142103
0.000563167
0.000312009
0.000222777
0.000423008
0.000201355
0.000109941
0.000123423
0.00017907
0.000175849
0.000157053
0.000164179
0.000175971
0.000178013
0.000172327
0.000164366
0.000157303
0.000152124
0.000148687
0.000146454
0.000144953
0.000143906
0.000143173
0.000142692
0.000142406
0.000142248
0.000142165
0.000142122
0.000142101
0.00014209
0.000142084
0.000142081
0.00014208
0.000142079
0.000142079
0.000142078
0.000142078
0.000142078
0.000142078
0.000142078
0.000142078
0.000142078
0.000142078
0.000142078
0.000142078
0.000142078
0.000142078
0.000142078
0.000142078