/*--------------------------------*- C++ -*----------------------------------*\
| =========                 |                                                 |
| \\      /  F ield         | OpenFOAM: The Open Source CFD Toolbox           |
|  \\    /   O peration     | Version:  v2012                                 |
|   \\  /    A nd           | Website:  www.openfoam.com                      |
|    \\/     M anipulation  |                                                 |
\*---------------------------------------------------------------------------*/
FoamFile
{
    version     2.0;
    format      ascii;
    class       volScalarField;
    location    "0.019";
    object      omega.air;
}
// * * * * * * * * * * * * * * * * * * * * * * * * * * * * * * * * * * * * * //

dimensions      [0 0 -1 0 0 0 0];


internalField   nonuniform List<scalar> 
5600
(
6848.4
9370.72
11786
13270.9
13895.7
13969.3
13758.5
13424.1
13073.7
12753.9
12458.6
12198.6
11996.7
11864.5
11793.1
11761.3
11750.1
11748.1
11749.9
11752.9
11755.9
11758.6
11761.2
11763.8
11766
11767.6
11768.8
11769.6
11770.1
11770.4
11770.5
11770.6
11770.7
11770.7
11770.7
11770.7
11770.7
11770.7
11770.7
11770.7
11770.7
11770.7
11770.7
11770.7
11770.7
11770.7
11770.7
11770.7
11770.7
11770.7
11770.7
11770.7
11770.7
11770.7
11770.7
11770.7
11770.7
11770.7
11770.7
11770.7
11770.7
11770.7
11770.7
11770.7
11770.7
11770.7
11770.7
11770.7
11770.8
11770.7
11770.8
11770.7
11770.9
11770.4
11771.5
11769.2
11773.6
11765.7
11779.4
11756.8
11792
11740.4
11811.6
11720.1
11831.2
11703.3
11849.5
11675
11904
11585.2
12033.7
11463.3
12114.2
11506
11884.3
11899.4
11230.4
12555.5
10901.3
11033.6
2528.51
2623.84
3449.32
4384.82
5078.24
5509.53
5768.62
5919.37
5996.68
5995.87
6088.47
6235.47
6369.91
6450.79
6467.17
6428.15
6361.29
6294.02
6239.02
6199.87
6175.61
6162.76
6156.91
6154.97
6155.67
6157.75
6159.82
6161.41
6162.52
6163.25
6163.7
6163.97
6164.13
6164.22
6164.26
6164.29
6164.3
6164.31
6164.31
6164.31
6164.31
6164.31
6164.31
6164.31
6164.31
6164.31
6164.31
6164.31
6164.31
6164.31
6164.31
6164.31
6164.31
6164.31
6164.31
6164.31
6164.31
6164.31
6164.31
6164.31
6164.31
6164.31
6164.31
6164.31
6164.31
6164.31
6164.31
6164.32
6164.31
6164.32
6164.29
6164.36
6164.22
6164.51
6163.94
6165.01
6163.1
6166.36
6161.07
6169.25
6157.44
6173.73
6153.07
6178.4
6149.7
6182.88
6144.92
6194.1
6131.34
6219.37
6120.81
6233.64
6152.17
6191.93
6235.55
6092.67
6384.8
6089.11
6437.27
6088.18
2559.5
2208.6
1997.75
1883.45
1866.13
1944.39
2053.5
2174.53
2319.39
2451.83
2594.33
2755.3
2934.21
3118.13
3281.69
3404.94
3484.68
3530.15
3553.9
3566.14
3573.32
3578.47
3582.75
3586.78
3590.62
3593.87
3596.39
3598.2
3599.42
3600.21
3600.69
3600.98
3601.14
3601.23
3601.28
3601.3
3601.32
3601.32
3601.33
3601.33
3601.33
3601.33
3601.33
3601.33
3601.33
3601.33
3601.33
3601.33
3601.33
3601.33
3601.33
3601.33
3601.33
3601.33
3601.33
3601.33
3601.33
3601.33
3601.33
3601.33
3601.33
3601.33
3601.33
3601.33
3601.33
3601.33
3601.33
3601.33
3601.33
3601.34
3601.31
3601.36
3601.29
3601.37
3601.32
3601.22
3601.74
3600.27
3603.56
3597.06
3608.3
3590.31
3615.56
3582.49
3620.05
3579.68
3619.71
3573.09
3636.4
3523.86
3697.37
3419.83
3758.45
3400.27
3671.86
3578.94
3468.66
3496.38
4112.79
2133.75
2552.97
2194.79
1927.22
1720.53
1562.17
1441.44
1352.68
1283.06
1233.4
1201.87
1188.13
1193.76
1220.48
1276.8
1362.12
1462.36
1558.55
1636.22
1692.19
1728.9
1751.14
1763.69
1770.6
1774.69
1777.44
1779.58
1781.38
1782.82
1783.91
1784.67
1785.18
1785.5
1785.7
1785.81
1785.88
1785.91
1785.93
1785.94
1785.94
1785.95
1785.95
1785.95
1785.95
1785.95
1785.95
1785.95
1785.95
1785.95
1785.95
1785.95
1785.95
1785.95
1785.95
1785.95
1785.95
1785.95
1785.95
1785.95
1785.95
1785.95
1785.95
1785.95
1785.95
1785.95
1785.95
1785.95
1785.96
1785.93
1785.99
1785.86
1786.14
1785.55
1786.76
1784.36
1788.91
1780.64
1795.03
1771.12
1808.81
1752.26
1832.04
1724.89
1859.63
1695.68
1887.11
1657.47
1940.05
1563.38
2060.9
1393.76
2167.54
1324.73
2014.36
1627.12
1585.11
2057.34
1304.95
1822.8
2030.03
823.263
2551.17
2191.48
1920.47
1708.96
1540.37
1402.72
1289.37
1194.11
1113.36
1045.09
986.993
937.169
894.784
861.018
836.891
821.457
809.923
800.919
790.492
777.944
764.232
750.785
738.894
729.411
722.611
718.238
715.688
714.327
713.669
713.392
713.301
713.288
713.303
713.321
713.336
713.346
713.352
713.356
713.358
713.359
713.359
713.359
713.36
713.36
713.36
713.36
713.36
713.36
713.36
713.36
713.36
713.36
713.36
713.36
713.36
713.36
713.36
713.36
713.36
713.36
713.36
713.36
713.36
713.359
713.361
713.357
713.367
713.343
713.397
713.278
713.53
713.017
714.026
712.121
715.564
709.617
719.398
704.118
726.696
695.175
736.637
684.891
746.94
672.819
765.412
639.066
823.962
546.409
939.648
420.776
1003.64
445.207
811.68
779.387
406.807
1098.06
289.202
932.511
623.054
580.877
2550.74
2190.45
1918.72
1706.81
1537.26
1398.57
1283.14
1185.56
1102.08
1029.98
967.034
911.467
862.152
818.57
780.265
746.367
715.449
686.498
658.892
632.868
609.201
588.738
572.052
559.275
550.098
543.907
539.965
537.587
536.223
535.478
535.09
534.897
534.806
534.764
534.746
534.739
534.736
534.735
534.735
534.735
534.735
534.735
534.735
534.735
534.735
534.735
534.735
534.735
534.735
534.735
534.735
534.735
534.735
534.735
534.735
534.735
534.735
534.735
534.735
534.735
534.735
534.735
534.735
534.735
534.734
534.735
534.733
534.738
534.728
534.749
534.709
534.78
534.66
534.847
534.583
534.903
534.623
534.626
535.374
533.089
538.096
528.855
544.145
520.971
554.131
508.403
571.253
484.185
606.02
441.627
646.395
432.472
584.022
599.171
323.259
859.144
190.667
760.87
402.975
597.9
2550.6
2190.08
1918.14
1706.09
1536.35
1397.51
1281.85
1184.04
1100.31
1027.86
964.45
908.378
858.504
814.123
774.602
739.079
706.499
675.965
647.097
620.155
595.848
574.958
557.995
545.024
535.682
529.332
525.247
522.75
521.296
520.486
520.055
519.834
519.725
519.673
519.65
519.639
519.635
519.633
519.632
519.632
519.632
519.632
519.631
519.631
519.631
519.631
519.631
519.631
519.631
519.631
519.631
519.631
519.631
519.631
519.631
519.631
519.631
519.631
519.631
519.631
519.631
519.631
519.632
519.631
519.632
519.631
519.633
519.629
519.638
519.617
519.662
519.57
519.749
519.421
519.986
519.074
520.438
518.578
520.831
518.529
520.256
519.879
518.384
521.314
519.155
516.068
530.682
498.226
552.204
478.961
562.091
488.398
526.578
558.849
426.961
661.694
375.295
624.556
487.48
542.906
2550.55
2189.92
1917.9
1705.78
1535.98
1397.09
1281.37
1183.5
1099.73
1027.23
963.763
907.632
857.697
813.237
773.606
737.948
705.235
674.584
645.616
618.592
594.219
573.281
556.286
543.291
533.929
527.56
523.456
520.944
519.478
518.66
518.223
517.998
517.886
517.833
517.809
517.798
517.793
517.791
517.79
517.79
517.79
517.79
517.79
517.79
517.79
517.79
517.79
517.79
517.79
517.79
517.79
517.79
517.79
517.79
517.79
517.79
517.79
517.79
517.79
517.79
517.79
517.79
517.79
517.79
517.79
517.79
517.789
517.79
517.788
517.792
517.787
517.793
517.789
517.78
517.828
517.686
518.022
517.327
518.616
516.462
519.682
515.466
520.041
516.586
516.562
522.799
508.478
530.134
505.891
524.41
520.533
506.41
532.425
511.526
507.175
545.621
486.103
537.457
524.522
512.384
2550.52
2189.85
1917.79
1705.64
1535.81
1396.89
1281.15
1183.26
1099.47
1026.95
963.478
907.334
857.38
812.9
773.251
737.581
704.857
674.188
645.197
618.146
593.749
572.793
555.786
542.784
533.417
527.045
522.94
520.427
518.96
518.142
517.703
517.478
517.366
517.312
517.287
517.276
517.271
517.269
517.269
517.268
517.268
517.268
517.268
517.268
517.268
517.268
517.268
517.268
517.268
517.268
517.268
517.268
517.268
517.268
517.268
517.268
517.268
517.268
517.268
517.268
517.268
517.268
517.268
517.268
517.268
517.268
517.268
517.268
517.269
517.266
517.271
517.263
517.275
517.261
517.268
517.294
517.178
517.483
516.845
517.977
516.266
518.396
516.475
516.953
519.599
512.396
524.087
510.758
519.767
522.229
503.829
535.719
500.501
526.101
517.828
511.708
522.419
513.495
524.298
506.949
2550.51
2189.81
1917.73
1705.57
1535.73
1396.8
1281.05
1183.15
1099.36
1026.83
963.352
907.202
857.241
812.752
773.099
737.43
704.705
674.032
645.03
617.963
593.552
572.585
555.571
542.565
533.197
526.825
522.72
520.207
518.739
517.92
517.482
517.256
517.144
517.09
517.065
517.054
517.049
517.047
517.046
517.046
517.045
517.045
517.045
517.045
517.045
517.045
517.045
517.045
517.045
517.045
517.045
517.045
517.045
517.045
517.045
517.045
517.045
517.045
517.045
517.045
517.045
517.045
517.045
517.045
517.045
517.045
517.046
517.045
517.047
517.043
517.052
517.033
517.07
516.998
517.13
516.901
517.276
516.704
517.508
516.494
517.582
516.725
516.858
518.029
515.169
519.429
515.241
516.536
521.581
507.965
528.737
507.151
519.921
523.571
503.601
530.407
510.085
515.925
521.699
514.317
2550.51
2189.81
1917.74
1705.58
1535.74
1396.81
1281.06
1183.16
1099.36
1026.84
963.361
907.211
857.25
812.761
773.108
737.438
704.714
674.041
645.038
617.972
593.559
572.592
555.577
542.57
533.201
526.828
522.723
520.21
518.742
517.923
517.485
517.259
517.147
517.093
517.068
517.057
517.052
517.05
517.049
517.049
517.049
517.049
517.049
517.049
517.049
517.049
517.049
517.049
517.049
517.049
517.049
517.049
517.049
517.049
517.049
517.049
517.049
517.049
517.049
517.049
517.049
517.049
517.049
517.049
517.049
517.048
517.049
517.048
517.05
517.046
517.053
517.041
517.063
517.025
517.086
516.993
517.124
516.954
517.156
516.936
517.161
516.925
517.212
516.82
517.303
516.968
516.54
518.663
514.098
520.701
514.498
516.037
523.042
507.397
525.953
513.647
513.246
524.956
509.805
521.384
2550.52
2189.85
1917.8
1705.66
1535.83
1396.91
1281.18
1183.29
1099.5
1026.98
963.506
907.359
857.404
812.924
773.276
737.607
704.882
674.214
645.223
618.172
593.773
572.814
555.804
542.799
533.43
527.057
522.951
520.437
518.969
518.15
517.712
517.486
517.374
517.321
517.296
517.285
517.28
517.278
517.277
517.276
517.276
517.276
517.276
517.276
517.276
517.276
517.276
517.276
517.276
517.276
517.276
517.276
517.276
517.276
517.276
517.276
517.276
517.276
517.276
517.276
517.276
517.276
517.276
517.276
517.276
517.276
517.276
517.276
517.277
517.274
517.28
517.269
517.29
517.253
517.313
517.222
517.349
517.189
517.365
517.208
517.294
517.334
517.143
517.439
517.184
517.165
517.692
516.58
518.021
516.926
516.716
519.018
514.712
519.447
517.203
514.087
523.04
511.734
518.988
522.104
2550.55
2189.94
1917.93
1705.82
1536.02
1397.13
1281.41
1183.55
1099.78
1027.27
963.81
907.679
857.742
813.282
773.652
737.997
705.284
674.632
645.663
618.637
594.262
573.32
556.319
543.319
533.952
527.58
523.475
520.962
519.495
518.677
518.239
518.014
517.903
517.85
517.825
517.814
517.81
517.808
517.807
517.807
517.806
517.806
517.806
517.806
517.806
517.806
517.806
517.806
517.806
517.806
517.806
517.806
517.806
517.806
517.806
517.806
517.806
517.806
517.806
517.806
517.806
517.806
517.806
517.806
517.806
517.806
517.807
517.806
517.807
517.805
517.81
517.8
517.818
517.787
517.836
517.764
517.862
517.742
517.868
517.764
517.808
517.857
517.707
517.924
517.714
517.848
517.79
517.875
517.632
517.983
517.967
516.883
519.608
515.663
519.324
517.344
518.195
515.77
521.585
516.096
2550.6
2190.1
1918.18
1706.13
1536.4
1397.57
1281.91
1184.1
1100.37
1027.92
964.521
908.452
858.58
814.207
774.699
739.19
706.625
676.102
647.242
620.304
595.996
575.103
558.135
545.157
535.81
529.456
525.368
522.87
521.416
520.606
520.175
519.954
519.845
519.793
519.769
519.759
519.754
519.753
519.752
519.752
519.751
519.751
519.751
519.751
519.751
519.751
519.751
519.751
519.751
519.751
519.751
519.751
519.751
519.751
519.751
519.751
519.751
519.751
519.751
519.751
519.751
519.751
519.751
519.751
519.751
519.751
519.752
519.751
519.752
519.75
519.755
519.746
519.761
519.735
519.776
519.717
519.793
519.708
519.785
519.745
519.716
519.831
519.652
519.816
519.785
519.6
519.931
519.775
519.219
520.97
518.037
521.279
519.422
517.905
524.382
512.048
530.479
506.411
533.316
510.086
2550.74
2190.48
1918.78
1706.87
1537.34
1398.65
1283.25
1185.67
1102.2
1030.13
967.233
911.714
862.454
818.98
780.858
747.15
716.504
687.749
660.3
634.399
610.821
590.416
573.762
561
551.833
545.648
541.713
539.34
537.981
537.239
536.852
536.66
536.568
536.527
536.509
536.501
536.498
536.497
536.497
536.497
536.497
536.497
536.497
536.497
536.497
536.497
536.497
536.497
536.497
536.497
536.497
536.497
536.497
536.497
536.497
536.497
536.497
536.497
536.497
536.497
536.497
536.497
536.497
536.497
536.497
536.497
536.497
536.496
536.498
536.495
536.5
536.49
536.508
536.479
536.524
536.46
536.54
536.455
536.52
536.515
536.42
536.628
536.357
536.548
536.658
536.058
537.096
536.134
535.983
538.499
532.847
541.097
532.454
537.949
539.509
526.69
554.867
505.421
575.497
487.305
2551.15
2191.53
1920.56
1709.03
1540.52
1402.86
1289.84
1194.48
1114.17
1046.14
988.668
939.458
897.869
865.442
843.367
829.883
821.632
814.965
806.478
795.506
783.023
770.48
759.207
750.123
743.57
739.344
736.888
735.585
734.96
734.699
734.614
734.603
734.616
734.633
734.647
734.656
734.662
734.665
734.667
734.667
734.668
734.668
734.668
734.668
734.668
734.668
734.668
734.668
734.668
734.668
734.668
734.668
734.668
734.668
734.668
734.668
734.668
734.668
734.668
734.668
734.668
734.668
734.668
734.668
734.668
734.668
734.669
734.668
734.67
734.665
734.674
734.657
734.689
734.633
734.727
734.579
734.794
734.51
734.841
734.522
734.734
734.734
734.477
734.869
734.71
734.055
736.037
732.82
735.972
735.497
730.236
742.648
725.386
740.25
737.402
717.538
764.401
678.099
790.254
621.173
2552.79
2195.02
1927.26
1721
1562.81
1443.56
1356.41
1287.34
1241.84
1211.84
1204.14
1215.3
1249.2
1314.46
1408.58
1515.69
1615.39
1695.1
1752.12
1789.43
1812.14
1825.18
1832.49
1836.89
1839.83
1842.02
1843.79
1845.18
1846.21
1846.93
1847.4
1847.7
1847.88
1847.98
1848.03
1848.06
1848.08
1848.09
1848.09
1848.09
1848.09
1848.1
1848.1
1848.1
1848.1
1848.1
1848.1
1848.1
1848.1
1848.1
1848.1
1848.1
1848.1
1848.1
1848.1
1848.1
1848.1
1848.1
1848.1
1848.1
1848.1
1848.1
1848.1
1848.1
1848.1
1848.1
1848.1
1848.1
1848.1
1848.09
1848.1
1848.09
1848.11
1848.06
1848.16
1847.99
1848.27
1847.83
1848.48
1847.62
1848.61
1847.67
1848.27
1848.32
1847.49
1848.75
1848.05
1846.74
1851.17
1843.96
1851.35
1847.7
1844.81
1851.95
1847.19
1838.36
1859.4
1815.32
1843.71
1761.94
2558.91
2209.44
1998.86
1888.33
1875.23
1966.94
2076.83
2211.71
2360.98
2496.86
2651.05
2823.87
3012.23
3200.24
3362.07
3479.5
3552.19
3591.41
3610.59
3619.77
3624.98
3628.98
3632.63
3636.28
3639.85
3642.88
3645.24
3646.93
3648.06
3648.78
3649.22
3649.48
3649.62
3649.7
3649.75
3649.77
3649.78
3649.78
3649.79
3649.79
3649.79
3649.79
3649.79
3649.79
3649.79
3649.79
3649.79
3649.79
3649.79
3649.79
3649.79
3649.79
3649.79
3649.79
3649.79
3649.79
3649.79
3649.79
3649.79
3649.79
3649.79
3649.79
3649.79
3649.79
3649.79
3649.79
3649.79
3649.79
3649.79
3649.79
3649.79
3649.79
3649.79
3649.8
3649.78
3649.8
3649.79
3649.78
3649.84
3649.69
3649.96
3649.55
3650.06
3649.61
3649.73
3650.22
3648.99
3650.67
3649.42
3648.92
3652.13
3646.43
3652.23
3649.51
3645.34
3654.56
3636.05
3646.22
3608.27
3600.55
2530.13
2628.73
3461
4402.1
5099.5
5530.01
5795.65
5943.92
6007.71
6029.77
6163.88
6331.39
6470.16
6545.51
6551.85
6502.2
6427.32
6354.99
6297.62
6257.48
6232.52
6219.12
6212.93
6210.66
6210.97
6212.76
6214.64
6216.1
6217.13
6217.81
6218.23
6218.48
6218.63
6218.7
6218.75
6218.77
6218.78
6218.78
6218.79
6218.79
6218.79
6218.79
6218.79
6218.79
6218.79
6218.79
6218.79
6218.79
6218.79
6218.79
6218.79
6218.79
6218.79
6218.79
6218.79
6218.79
6218.79
6218.79
6218.79
6218.79
6218.79
6218.79
6218.79
6218.79
6218.79
6218.79
6218.79
6218.79
6218.79
6218.79
6218.79
6218.79
6218.79
6218.8
6218.78
6218.81
6218.76
6218.83
6218.73
6218.87
6218.71
6218.87
6218.75
6218.78
6218.87
6218.66
6218.86
6218.91
6218.38
6219.43
6218.15
6218.87
6219.2
6217.33
6218.16
6218.26
6207.89
6208.46
6174.8
6150.3
6843.99
9368.33
11781.7
13257.1
13861.5
13918.3
13689.9
13343
12989.2
12665.1
12363.1
12101.8
11904.6
11780.6
11716.8
11690.7
11683.3
11683.2
11685.6
11688.6
11691.5
11694.1
11696.6
11699.1
11701.4
11703.1
11704.3
11705.1
11705.6
11705.9
11706
11706.1
11706.2
11706.2
11706.2
11706.2
11706.2
11706.2
11706.2
11706.2
11706.2
11706.2
11706.2
11706.2
11706.2
11706.2
11706.2
11706.2
11706.2
11706.2
11706.2
11706.2
11706.2
11706.2
11706.2
11706.2
11706.2
11706.2
11706.2
11706.2
11706.2
11706.2
11706.2
11706.2
11706.2
11706.2
11706.2
11706.2
11706.2
11706.2
11706.2
11706.2
11706.2
11706.2
11706.2
11706.2
11706.3
11706.1
11706.4
11706
11706.6
11705.8
11706.7
11705.9
11706.2
11706.6
11705.5
11707
11706.2
11705.1
11708.8
11703.4
11708.3
11707.4
11705.3
11709.8
11720
11712.7
11776.3
11786.3
6998.09
3129.84
4070.58
4331.25
2153.42
976.535
688.981
643.57
635.168
618.306
599.815
583.433
567.851
553.369
541.898
534.23
529.195
525.451
522.616
520.65
519.476
518.908
518.646
518.518
518.449
518.406
518.379
518.363
518.352
518.346
518.342
518.34
518.339
518.339
518.338
518.338
518.338
518.338
518.338
518.338
518.338
518.338
518.338
518.338
518.338
518.338
518.338
518.338
518.338
518.338
518.338
518.338
518.338
518.338
518.338
518.338
518.338
518.338
518.338
518.338
518.338
518.338
518.338
518.338
518.338
518.338
518.338
518.338
518.338
518.338
518.338
518.338
518.338
518.338
518.338
518.338
518.338
518.338
518.338
518.338
518.338
518.338
518.338
518.338
518.338
518.338
518.338
518.338
518.337
518.339
518.336
518.339
518.336
518.338
518.336
518.333
518.335
518.323
518.326
518.295
7486.21
6185.46
5730.97
4058.15
1600.43
794.83
649.727
629.305
627.46
613.618
595.459
579.833
565.722
552.349
541.215
533.607
528.854
525.477
522.847
520.909
519.564
518.764
518.357
518.157
518.058
518.007
517.98
517.967
517.959
517.956
517.953
517.952
517.952
517.952
517.951
517.951
517.951
517.951
517.951
517.951
517.951
517.951
517.951
517.951
517.951
517.951
517.951
517.951
517.951
517.951
517.951
517.951
517.951
517.951
517.951
517.951
517.951
517.951
517.951
517.951
517.951
517.951
517.951
517.951
517.951
517.951
517.951
517.951
517.951
517.951
517.951
517.951
517.951
517.951
517.951
517.951
517.951
517.951
517.951
517.951
517.951
517.951
517.951
517.951
517.951
517.951
517.951
517.952
517.95
517.953
517.948
517.955
517.946
517.956
517.946
517.953
517.946
517.95
517.94
517.94
5768.58
6032.57
5938.13
2978.72
1048.31
648.867
613.516
617.316
622.059
611.473
593.25
577.283
563.892
551.472
540.685
532.968
528.322
525.432
523.273
521.553
520.168
519.149
518.526
518.189
518.015
517.928
517.884
517.863
517.852
517.847
517.844
517.843
517.842
517.842
517.841
517.841
517.841
517.841
517.841
517.841
517.841
517.841
517.841
517.841
517.841
517.841
517.841
517.841
517.841
517.841
517.841
517.841
517.841
517.841
517.841
517.841
517.841
517.841
517.841
517.841
517.841
517.841
517.841
517.841
517.841
517.841
517.841
517.841
517.841
517.841
517.841
517.841
517.841
517.841
517.841
517.841
517.841
517.841
517.841
517.841
517.841
517.841
517.841
517.841
517.841
517.841
517.841
517.842
517.84
517.844
517.837
517.847
517.834
517.85
517.833
517.85
517.835
517.854
517.838
517.865
3388.22
3973.27
3910.12
1447.76
652.305
604.499
620.547
621.053
621.814
612.104
593.166
575.752
562.145
550.405
540.122
532.371
527.622
525.018
523.348
521.98
520.742
519.686
518.929
518.468
518.213
518.077
518.006
517.97
517.952
517.942
517.937
517.935
517.934
517.933
517.933
517.933
517.932
517.932
517.932
517.932
517.932
517.932
517.932
517.932
517.932
517.932
517.932
517.932
517.932
517.932
517.932
517.932
517.932
517.932
517.932
517.932
517.932
517.932
517.932
517.932
517.932
517.932
517.932
517.932
517.932
517.932
517.932
517.932
517.932
517.932
517.932
517.932
517.932
517.932
517.932
517.932
517.932
517.932
517.932
517.932
517.932
517.932
517.932
517.932
517.932
517.932
517.932
517.933
517.931
517.935
517.928
517.939
517.925
517.942
517.925
517.943
517.928
517.95
517.935
517.97
1312.56
2114.68
1650.46
725.298
616.072
613.95
610.908
610.447
612.663
609.022
593.474
575.7
561.313
549.635
539.675
531.925
526.946
524.28
522.805
521.694
520.655
519.703
518.966
518.491
518.218
518.07
517.992
517.952
517.931
517.92
517.915
517.912
517.911
517.91
517.909
517.909
517.909
517.909
517.909
517.909
517.909
517.909
517.909
517.909
517.909
517.909
517.909
517.909
517.909
517.909
517.909
517.909
517.909
517.909
517.909
517.909
517.909
517.909
517.909
517.909
517.909
517.909
517.909
517.909
517.909
517.909
517.909
517.909
517.909
517.909
517.909
517.909
517.909
517.909
517.909
517.909
517.909
517.909
517.909
517.909
517.909
517.909
517.909
517.909
517.909
517.909
517.909
517.91
517.908
517.911
517.906
517.914
517.903
517.917
517.903
517.918
517.906
517.924
517.913
517.943
552.081
958.621
736.69
582.558
575.002
583.803
598.965
609.495
610.163
607.963
596.055
578.419
562.334
549.637
539.548
531.751
526.453
523.434
521.836
520.811
519.966
519.228
518.657
518.278
518.056
517.935
517.871
517.838
517.821
517.812
517.808
517.805
517.804
517.804
517.803
517.803
517.803
517.803
517.803
517.803
517.803
517.803
517.803
517.803
517.803
517.803
517.803
517.803
517.803
517.803
517.803
517.803
517.803
517.803
517.803
517.803
517.803
517.803
517.803
517.803
517.803
517.803
517.803
517.803
517.803
517.803
517.803
517.803
517.803
517.803
517.803
517.803
517.803
517.803
517.803
517.803
517.803
517.803
517.803
517.803
517.803
517.803
517.803
517.803
517.803
517.803
517.803
517.803
517.802
517.805
517.8
517.807
517.798
517.809
517.798
517.81
517.801
517.815
517.806
517.83
485.421
604.647
574.277
553.444
581.194
597.937
599.031
606.223
604.466
601.564
595.7
582.532
566.033
551.056
539.593
531.665
526.594
523.578
521.781
520.555
519.628
518.922
518.42
518.1
517.916
517.817
517.766
517.741
517.728
517.721
517.718
517.716
517.716
517.715
517.715
517.715
517.715
517.715
517.715
517.715
517.715
517.715
517.715
517.715
517.715
517.715
517.715
517.715
517.715
517.715
517.715
517.715
517.715
517.715
517.715
517.715
517.715
517.715
517.715
517.715
517.715
517.715
517.715
517.715
517.715
517.715
517.715
517.715
517.715
517.715
517.715
517.715
517.715
517.715
517.715
517.715
517.715
517.715
517.715
517.715
517.715
517.715
517.715
517.715
517.715
517.715
517.715
517.715
517.714
517.716
517.712
517.718
517.711
517.72
517.711
517.72
517.712
517.724
517.717
517.736
503.609
554.414
539.015
558.207
569.373
570.85
576.709
594.522
600.19
594.367
589.881
584.484
573.556
558.212
542.82
531.048
523.995
520.657
519.378
518.881
518.579
518.309
518.075
517.904
517.795
517.734
517.702
517.685
517.676
517.672
517.67
517.668
517.668
517.668
517.667
517.667
517.667
517.667
517.667
517.667
517.667
517.667
517.667
517.667
517.667
517.667
517.667
517.667
517.667
517.667
517.667
517.667
517.667
517.667
517.667
517.667
517.667
517.667
517.667
517.667
517.667
517.667
517.667
517.667
517.667
517.667
517.667
517.667
517.667
517.667
517.667
517.667
517.667
517.667
517.667
517.667
517.667
517.667
517.667
517.667
517.667
517.667
517.667
517.667
517.667
517.667
517.667
517.668
517.667
517.669
517.666
517.67
517.664
517.671
517.664
517.672
517.665
517.675
517.669
517.684
523.402
523.938
532.049
542.92
545.217
562.389
579.086
592.876
600.439
589.878
574.114
565.496
563.043
560.506
554.137
544.713
535.25
527.988
523.376
520.761
519.333
518.549
518.116
517.883
517.763
517.704
517.676
517.663
517.657
517.654
517.653
517.652
517.652
517.652
517.652
517.652
517.651
517.651
517.651
517.651
517.651
517.651
517.651
517.651
517.651
517.651
517.651
517.651
517.651
517.651
517.651
517.651
517.651
517.651
517.651
517.651
517.651
517.651
517.651
517.651
517.651
517.651
517.651
517.651
517.651
517.651
517.651
517.651
517.651
517.651
517.651
517.651
517.651
517.651
517.651
517.651
517.651
517.651
517.651
517.651
517.651
517.651
517.651
517.651
517.651
517.652
517.651
517.652
517.651
517.652
517.65
517.654
517.649
517.655
517.649
517.655
517.65
517.657
517.652
517.664
517.235
519.948
526.988
530.785
553.293
561.468
572.189
578.395
584.706
582.912
561.764
532.298
510.546
501.999
503.1
507.924
512.484
515.466
517.046
517.735
517.933
517.911
517.829
517.758
517.713
517.689
517.677
517.672
517.67
517.669
517.668
517.668
517.668
517.668
517.668
517.668
517.668
517.668
517.668
517.668
517.668
517.668
517.668
517.668
517.668
517.668
517.668
517.668
517.668
517.668
517.668
517.668
517.668
517.668
517.668
517.668
517.668
517.668
517.668
517.668
517.668
517.668
517.668
517.668
517.668
517.668
517.668
517.668
517.668
517.668
517.668
517.668
517.668
517.668
517.668
517.668
517.668
517.668
517.668
517.668
517.668
517.668
517.668
517.668
517.668
517.668
517.668
517.668
517.668
517.669
517.667
517.67
517.666
517.671
517.666
517.671
517.666
517.672
517.667
517.676
514.904
524.559
515.875
526.7
551.407
545.34
560.773
581.461
578.817
576.191
587.063
599.291
599.553
586.306
566.566
548.045
534.594
526.376
521.947
519.759
518.712
518.2
517.947
517.828
517.776
517.757
517.75
517.749
517.749
517.75
517.75
517.751
517.751
517.751
517.751
517.751
517.751
517.751
517.751
517.751
517.751
517.751
517.751
517.751
517.751
517.751
517.751
517.751
517.751
517.751
517.751
517.751
517.751
517.751
517.751
517.751
517.751
517.751
517.751
517.751
517.751
517.751
517.751
517.751
517.751
517.751
517.751
517.751
517.751
517.751
517.751
517.751
517.751
517.751
517.751
517.751
517.751
517.751
517.751
517.751
517.751
517.751
517.751
517.751
517.751
517.751
517.751
517.751
517.751
517.752
517.75
517.753
517.749
517.753
517.749
517.753
517.749
517.753
517.749
517.754
507.178
531.45
508.213
532.328
542.007
534.33
567.296
604.194
620.479
614.41
595.161
573.582
556.089
543.841
535.368
529.244
524.846
521.903
520.109
519.096
518.538
518.227
518.062
517.983
517.952
517.944
517.945
517.948
517.95
517.952
517.953
517.954
517.954
517.954
517.954
517.954
517.954
517.954
517.954
517.954
517.954
517.954
517.954
517.954
517.954
517.954
517.954
517.954
517.954
517.954
517.954
517.954
517.954
517.954
517.954
517.954
517.954
517.954
517.954
517.954
517.954
517.954
517.954
517.954
517.954
517.954
517.954
517.954
517.954
517.954
517.954
517.954
517.954
517.954
517.954
517.954
517.954
517.954
517.954
517.954
517.954
517.954
517.954
517.954
517.954
517.955
517.954
517.955
517.954
517.955
517.953
517.956
517.952
517.957
517.952
517.957
517.952
517.957
517.951
517.956
512.611
533.784
493.938
555.483
523.49
532.216
648.968
706.322
685.084
645.187
616.394
598.028
582.221
565.659
549.906
537.378
528.893
523.82
521.066
519.671
518.98
518.634
518.47
518.404
518.385
518.386
518.392
518.398
518.402
518.405
518.407
518.408
518.408
518.409
518.409
518.409
518.409
518.409
518.409
518.409
518.409
518.409
518.409
518.409
518.409
518.409
518.409
518.409
518.409
518.409
518.409
518.409
518.409
518.409
518.409
518.409
518.409
518.409
518.409
518.409
518.409
518.409
518.409
518.409
518.409
518.409
518.409
518.409
518.409
518.409
518.409
518.409
518.409
518.409
518.409
518.409
518.409
518.409
518.409
518.409
518.409
518.409
518.409
518.409
518.409
518.409
518.409
518.409
518.408
518.41
518.407
518.412
518.406
518.413
518.405
518.413
518.405
518.413
518.405
518.414
517.818
535.781
486.639
575.625
504.658
650.687
910.558
990.177
916.823
808.129
722.504
664.364
622.199
588.588
562.36
543.917
532.384
525.854
522.441
520.781
520.011
519.669
519.54
519.513
519.529
519.556
519.581
519.599
519.61
519.616
519.62
519.622
519.623
519.623
519.624
519.624
519.624
519.624
519.624
519.624
519.624
519.624
519.624
519.624
519.624
519.624
519.624
519.624
519.624
519.624
519.624
519.624
519.624
519.624
519.624
519.624
519.624
519.624
519.624
519.624
519.624
519.624
519.624
519.624
519.624
519.624
519.624
519.624
519.624
519.624
519.624
519.624
519.624
519.624
519.624
519.624
519.624
519.624
519.624
519.624
519.624
519.624
519.624
519.624
519.624
519.624
519.623
519.625
519.622
519.627
519.62
519.63
519.617
519.633
519.615
519.636
519.614
519.642
519.617
519.654
561.105
519.469
515.629
621.322
601.942
1138.13
1621.73
1680.12
1482.39
1228.26
1015.44
859.417
745.955
662.248
603.531
566.226
544.675
533.099
527.3
524.701
523.714
523.47
523.55
523.738
523.927
524.075
524.177
524.242
524.28
524.303
524.315
524.321
524.325
524.326
524.327
524.328
524.328
524.328
524.328
524.328
524.328
524.328
524.328
524.328
524.328
524.328
524.328
524.328
524.328
524.328
524.328
524.328
524.328
524.328
524.328
524.328
524.328
524.328
524.328
524.328
524.328
524.328
524.328
524.328
524.328
524.328
524.328
524.328
524.328
524.328
524.328
524.328
524.328
524.328
524.328
524.328
524.328
524.328
524.328
524.328
524.328
524.328
524.328
524.329
524.327
524.33
524.325
524.335
524.318
524.344
524.307
524.357
524.294
524.373
524.283
524.396
524.277
524.44
524.299
524.53
754.592
625.827
747.036
903.272
1318.57
2356.45
2912.38
2829.41
2450.69
2027.1
1660.24
1351.65
1093.56
890.357
745.227
652.58
598.043
568.265
553.822
548.373
547.482
548.518
550.174
551.778
553.042
553.92
554.481
554.819
555.013
555.12
555.178
555.209
555.225
555.233
555.237
555.239
555.241
555.241
555.241
555.242
555.242
555.242
555.242
555.242
555.242
555.242
555.242
555.242
555.242
555.242
555.242
555.242
555.242
555.242
555.242
555.242
555.242
555.242
555.242
555.242
555.242
555.242
555.242
555.242
555.242
555.242
555.242
555.242
555.242
555.242
555.242
555.242
555.242
555.242
555.242
555.242
555.242
555.242
555.242
555.242
555.241
555.243
555.24
555.246
555.234
555.257
555.216
555.286
555.175
555.342
555.111
555.419
555.042
555.512
554.976
555.671
554.917
556.002
555.046
556.674
1778.82
1697.04
1891.33
2186.33
2983.21
4196.42
4501.99
4108.38
3466.07
2893.84
2408.51
1980.22
1606.88
1318.67
1116.91
968.625
860.554
792.215
759.378
751.291
755.831
764.942
774.515
782.523
788.35
792.193
794.551
795.923
796.693
797.116
797.342
797.461
797.523
797.555
797.571
797.58
797.584
797.586
797.587
797.588
797.588
797.588
797.588
797.588
797.588
797.588
797.588
797.588
797.588
797.588
797.588
797.588
797.588
797.588
797.588
797.588
797.588
797.589
797.589
797.589
797.589
797.589
797.589
797.589
797.589
797.589
797.589
797.589
797.589
797.589
797.589
797.589
797.589
797.589
797.589
797.589
797.589
797.589
797.589
797.59
797.587
797.593
797.58
797.608
797.551