/*--------------------------------*- C++ -*----------------------------------*\
| =========                 |                                                 |
| \\      /  F ield         | OpenFOAM: The Open Source CFD Toolbox           |
|  \\    /   O peration     | Version:  v2012                                 |
|   \\  /    A nd           | Website:  www.openfoam.com                      |
|    \\/     M anipulation  |                                                 |
\*---------------------------------------------------------------------------*/
FoamFile
{
    version     2.0;
    format      ascii;
    class       scalarField;
    location    "0.117/lagrangian/kinematicCloud";
    object      age;
}
// * * * * * * * * * * * * * * * * * * * * * * * * * * * * * * * * * * * * * //


54
(
0.1162
0.1152
0.1141
0.113
0.112
0.111
0.11
0.109
0.1079
0.1068
0.106725
0.1057
0.1046
0.1035
0.1024
0.1013
0.1002
0.0991
0.098
0.097925
0.0969
0.0958
0.0947
0.0936
0.093525
0.0925
0.0914
0.091325
0.0903
0.090225
0.0892
0.0881
0.087
0.0859
0.085825
0.0849
0.0839
0.0829
0.0819
0.0809
0.0799
0.0789
0.0779
0.0769
0.0759
0.0749
0.0739
0.0729
0.0719
0.0709
0.0699
0.0689
0.0679
0.0669
)


// ************************************************************************* //
