/*--------------------------------*- C++ -*----------------------------------*\
| =========                 |                                                 |
| \\      /  F ield         | OpenFOAM: The Open Source CFD Toolbox           |
|  \\    /   O peration     | Version:  v2012                                 |
|   \\  /    A nd           | Website:  www.openfoam.com                      |
|    \\/     M anipulation  |                                                 |
\*---------------------------------------------------------------------------*/
FoamFile
{
    version     2.0;
    format      ascii;
    class       volScalarField;
    location    "0.195";
    object      omega.air;
}
// * * * * * * * * * * * * * * * * * * * * * * * * * * * * * * * * * * * * * //

dimensions      [0 0 -1 0 0 0 0];


internalField   nonuniform List<scalar> 
5600
(
6586.29
7485.62
7886.51
7965.51
7866.05
7687.9
7480.62
7290.19
7125.42
6987.23
6879.75
6794.9
6737.83
6691.85
6664.76
6641.91
6626.69
6615.83
6603.82
6598.12
6587.98
6583.76
6577.39
6572.66
6571.78
6565.58
6568.72
6562.06
6566.24
6561.04
6562.84
6560.99
6558.05
6560.15
6553.38
6557.61
6549.91
6553.26
6547.89
6548.1
6546.46
6543.65
6544.45
6540.9
6541.65
6539.78
6538.83
6539.22
6536.65
6538.43
6535.59
6537.15
6535.49
6535.83
6536.06
6534.92
6536.72
6534.57
6537.51
6534.91
6538.51
6535.95
6539.59
6537.81
6540.79
6539.99
6542.27
6541.95
6544.43
6543.65
6547.48
6545.78
6550.87
6548.91
6553.72
6552.92
6556
6557.09
6558.93
6560.32
6563.51
6562.63
6568.97
6565.69
6573.07
6570.9
6575.2
6577.65
6576.65
6584.82
6577.27
6595.38
6571.29
6618.28
6543.85
6677.61
6446.29
6859.52
6048.88
7475.4
2450.87
2295.65
2571.82
2794.68
2928.28
2998.24
3009.53
2969
2968.5
3018.41
3072.18
3120.7
3145.58
3159.98
3153.98
3141.09
3117.81
3091.51
3062.02
3032.41
3003.53
2973.4
2946
2915.65
2889.58
2863.16
2839.59
2817.33
2797.45
2778.92
2761.43
2746.6
2731.56
2719.1
2706.86
2696.32
2686.2
2677.15
2669.04
2660.95
2654.3
2647.71
2641.75
2636.46
2631.11
2626.55
2621.69
2617.54
2613.38
2609.64
2606.02
2602.64
2599.56
2596.45
2593.86
2591.25
2589.04
2586.58
2584.92
2582.57
2581.22
2579.2
2577.98
2576.38
2575.2
2573.94
2572.92
2571.74
2570.83
2569.74
2568.89
2568.01
2567.38
2566.8
2566.37
2565.98
2565.67
2565.29
2564.94
2564.63
2564.23
2564.05
2563.54
2563.72
2563.12
2563.82
2562.75
2564.45
2562.04
2566.12
2559.84
2570.18
2553.7
2581.17
2536.16
2612.52
2481.24
2711.16
2287.86
3052.11
2358.63
1859.73
1592.29
1427.65
1345.84
1274.84
1278.48
1310.7
1350.17
1414.53
1480.14
1551.85
1609.69
1664.43
1705.63
1731.62
1751.67
1749.64
1746.82
1724.67
1702.91
1676.99
1653.04
1635.45
1618.88
1605.8
1593.49
1581.41
1571.39
1561.14
1550.87
1541.09
1531.04
1521.99
1512.39
1504.63
1496.02
1488.85
1481.82
1475.16
1469.19
1463.3
1458.19
1452.89
1448.16
1443.79
1439.41
1435.7
1431.62
1428.51
1424.93
1422.06
1419.13
1416.42
1414.05
1411.52
1409.64
1407.11
1405.67
1403.24
1402.11
1399.91
1398.88
1397.02
1395.94
1394.39
1393.37
1391.9
1391.05
1389.53
1388.88
1387.46
1387.11
1385.89
1385.57
1384.71
1384.14
1383.61
1382.76
1382.37
1381.62
1381.12
1380.54
1380.26
1379.26
1380.2
1377.48
1380.92
1375.13
1382.78
1371.25
1387.31
1363.26
1398.38
1345.88
1423.22
1308.73
1474.04
1236.34
1548.84
2345.17
1822.36
1493.18
1267.82
1110.72
993.424
905.617
848.64
800.485
778.998
758.754
768.809
792.357
821.792
863.818
898.4
945.52
974.918
1013.7
1039.08
1059.97
1082.42
1086.99
1106.1
1100.44
1111.36
1100.41
1098.33
1087.84
1076.6
1069.97
1059.02
1055
1047.22
1042.41
1037.46
1032.04
1028.05
1023.25
1019.35
1014.96
1010.52
1006.18
1001.33
996.873
992.358
988.091
984.255
980.092
976.744
973.079
970.043
966.996
964.212
961.685
958.956
956.782
953.911
951.979
949.212
947.602
945.125
943.618
941.45
939.891
937.953
936.501
934.629
933.39
931.465
930.477
928.659
927.913
926.396
925.626
924.494
923.373
922.625
921.305
920.673
919.57
918.824
917.886
917.477
915.868
916.936
913.443
916.961
910.779
917.673
907.28
919.929
901.788
924.972
893.454
932.944
883.169
939.934
878.56
924.645
2341.95
1816.04
1479.68
1248.17
1079.33
953.092
852.601
775.133
710.425
658.505
617.389
579.531
559.311
532.17
527.684
511
516.21
520.843
530.634
553.225
562.664
599.658
607.242
652.268
658.955
698.448
711.266
732.375
752.448
754.397
776.795
770.257
787.769
781.559
789.222
786.762
784.908
784.617
777.759
776.617
770.577
767.258
764.353
760.529
758.631
755.065
752.867
750.218
747.56
745.409
742.894
740.947
738.743
736.863
734.738
732.383
730.164
727.448
725.27
722.506
720.623
718.103
716.345
714.067
712.302
710.178
708.511
706.477
705.036
703.016
701.817
699.857
698.743
697.079
695.843
694.553
692.951
691.915
690.262
689.24
687.928
686.849
685.641
684.957
683.084
683.649
680.419
682.569
677.927
681.72
675.266
681.414
672.224
681.559
669.472
680.898
668.775
676.729
672.934
664.933
2341.1
1814.21
1476.63
1244.07
1073.96
945.503
844.302
762.873
697.301
639.745
596.05
551.694
522.155
487.64
465.55
441.822
420.973
410.483
388.217
390.339
367.446
378.348
360.996
372.057
372.132
378.539
397.303
396.442
431.863
424.713
468.683
462.753
499.781
505.924
525.531
543.049
548.705
568.645
569.236
582.323
585.533
589.856
595.696
595.077
600.851
599.128
601.938
600.338
600.121
599.27
596.964
595.746
592.683
591.438
588.658
587.47
585.101
584.15
582.489
581.121
579.851
578.079
577.048
575.39
574.371
572.885
571.843
570.448
569.542
568.202
567.323
565.781
564.671
563.148
561.705
560.422
558.743
557.589
556.036
554.801
553.602
552.358
551.119
550.318
548.493
548.476
545.981
546.618
543.764
544.804
541.592
543.158
539.53
541.459
537.956
539.188
537.147
536.094
536.58
532.798
2340.83
1813.5
1475.69
1242.65
1072.64
943.272
842.521
759.875
694.56
636.278
591.399
548
514.682
482.81
454.718
433.311
406.838
393.933
369.373
360.426
341.725
330.164
322.67
303.214
308.878
283.211
297.292
272.409
287.139
271.266
278.867
279.619
276.908
293.957
286.383
310.906
305.983
329.428
334.187
347.421
364.664
370.717
390.484
394.518
412.761
419.573
431.185
438.206
445.345
454.226
458.539
464.548
465.595
470.48
470.07
474.003
472.841
476.706
476.807
478.731
478.944
478.35
478.424
477.27
476.784
475.762
474.484
473.628
472.309
471.508
470.707
469.934
469.179
468.122
466.981
465.875
464.831
463.968
463.287
462.406
461.864
461.026
460.159
459.794
458.468
458.394
456.861
456.766
455.216
455.108
453.464
453.527
451.727
451.799
449.892
449.813
447.826
447.676
445.033
445.645
2340.74
1813.14
1475.35
1241.97
1072.21
942.347
841.912
758.959
693.39
635.776
589.279
548.034
511.747
482.689
451.915
431.542
405.462
389.025
369.908
351.912
342.706
319.457
320.346
293.11
298.705
274.879
275.375
264.297
251.526
257.418
231.408
248.761
219.73
235.976
216.981
221.634
218.891
210.619
220.795
208.213
220.563
214.835
221.587
226.339
228.537
238.721
241.406
253.101
258.061
268.913
277.336
286.955
294.888
305.826
311.744
323.322
327.263
338.126
344.12
351.772
358.412
362.644
368.26
371.314
375.396
378.211
380.859
383.475
385.011
386.804
388.101
389.404
390.561
390.949
391.406
390.968
391.354
391.157
391.695
391.452
391.552
391.085
390.531
390.204
389.379
388.913
387.897
387.13
385.873
385.149
383.648
383.295
381.561
381.394
379.403
379.199
376.883
376.565
373.732
373.546
2340.71
1812.95
1475.19
1241.66
1071.97
942.027
841.455
758.838
692.541
635.97
588.068
548.305
510.63
482.379
451.637
429.945
406.478
386.058
371.7
348.634
343.556
317.919
318.046
295.032
292.316
279.684
266.4
268.747
243.386
257.174
227.598
240.789
220.502
220.818
217.066
203.443
211.042
192.705
200.194
188.996
186.825
187.028
176.48
183.627
171.194
177.418
169.204
172.916
170.844
168.615
171.371
168.162
175.654
171.976
180.72
179.208
189.114
188.354
196.013
197.779
204.689
210.985
217.74
224.003
231.94
236.451
246.181
250.265
259.059
263.424
269.306
275.256
279.515
285.554
289.747
293.536
298.228
300.782
305.662
307.59
310.804
312.705
314.034
315.978
316.943
318.162
318.803
319.128
319.2
319.247
318.795
319.122
318.245
318.629
317.275
317.323
315.668
315.139
313.199
312.295
2340.69
1812.87
1475.08
1241.58
1071.74
942.041
841.066
758.959
692.064
636.029
587.763
547.991
510.793
481.509
452.255
428.79
406.997
385.406
371.187
349.41
341.31
320.426
314.377
298.215
288.935
281.268
265.698
266.652
246.702
251.407
233.349
234.398
224.527
217.589
216.479
204.452
206.311
195.79
194.519
189.673
183.363
183.275
175.018
175.627
168.811
168.042
163.197
161.258
158.507
155.078
153.756
149.225
151.148
143.482
148.823
139.073
146.657
137.891
141.851
137.845
137.83
138.588
137.402
139.015
139.592
139.711
143.264
141.29
146.954
145.753
150.5
151.976
154.09
158.811
160.455
166.603
169.609
173.445
178.067
180.204
185.432
188.452
192.607
196.856
199.71
204.141
206.943
210.726
213.832
216.876
219.67
222.316
224.366
226.713
228.269
230.263
231.717
233.139
234.362
235.226
2340.69
1812.89
1475.05
1241.67
1071.65
942.198
840.929
759.103
692.028
635.966
588.028
547.58
511.369
480.92
452.771
428.574
406.798
386.198
369.81
351.354
339.057
322.714
312.505
299.284
289.038
279.822
268.476
262.865
251.034
247.253
236.637
232.542
224.634
219.028
213.995
207.219
204.014
197.104
194.541
188.477
185.502
181.127
177.02
174.645
169.433
168.423
163.354
161.876
158.938
155.545
155.063
150.645
150.865
147.857
146.356
146.43
143.036
145.217
141.875
143.961
142.76
143.744
145.186
145.151
148.482
148.825
152.353
154.983
157.398
162.179
164.111
169.718
172.892
177.597
182.457
185.864
191.503
195.285
200.608
205.268
209.402
214.257
217.775
222.026
225.774
229.159
232.638
235.358
238.199
240.6
242.89
245.141
247.023
248.854
250.278
251.543
252.542
253.264
253.873
254.388
2340.71
1813
1475.15
1241.85
1071.76
942.444
841.055
759.339
692.255
636.087
588.44
547.549
511.922
480.886
453.214
428.862
406.793
387.086
369.234
352.749
338.27
324.022
312.276
299.719
290.04
279.038
270.69
261.354
253.645
246.136
238.55
232.897
225.272
221.146
213.868
210.407
204.439
200.486
196.813
191.759
190.456
184.879
184.839
180.425
179.968
178.339
176.632
178.178
176.246
179.439
179.459
182.51
185.559
188.449
193.969
197.301
204.276
208.967
215.989
222.958
228.776
237.694
243.105
251.737
258.347
265.005
272.792
277.877
285.41
290.345
295.976
301.622
305.492
310.74
314.066
317.774
321.017
323.477
326.5
328.139
330.112
331.482
332.289
333.331
333.822
334.322
334.638
334.675
334.721
334.463
334.221
333.868
333.419
332.84
332.099
331.276
330.265
329.147
327.987
326.893
2340.76
1813.17
1475.38
1242.15
1072.06
942.83
841.409
759.777
692.683
636.536
588.984
547.983
512.594
481.338
453.957
429.454
407.495
387.979
369.823
354.032
338.848
325.632
313.15
301.536
291.6
281.091
273.308
263.91
257.729
249.717
244.745
238.48
234.394
230.24
226.857
225.176
222.583
223.601
222.715
225.986
227.878
232.314
237.88
242.973
251.795
258.096
268.24
276.836
286.29
297.041
305.593
316.702
324.955
334.671
343.19
350.746
359.241
365.01
372.398
377.297
382.55
387.013
390.211
393.874
395.836
398.268
399.852
401.101
402.738
403.321
404.516
405.003
405.412
405.875
405.721
405.895
405.547
405.28
404.939
404.226
403.747
402.9
402.105
401.331
400.408
399.624
398.752
397.925
397.062
396.166
395.265
394.342
393.399
392.396
391.349
390.244
389.089
387.881
386.717
385.655
2340.87
1813.5
1475.85
1242.71
1072.72
943.575
842.226
760.708
693.667
637.673
590.183
549.345
514.107
482.98
455.961
431.52
410.216
390.817
373.603
358.279
344.195
332.189
320.922
311.877
303.541
297.244
291.838
288.515
286.282
286.311
288.865
292.253
299.61
306.044
317.56
326.937
340.719
352.882
366.535
380.77
393.2
407.546
418.839
431.335
441.741
451.292
460.133
466.969
473.408
478.222
482.131
485.544
487.859
490.333
491.874
493.225
494.291
494.579
495.128
494.69
494.497
493.718
492.765
491.836
490.448
489.412
488.081
487.001
486.081
484.974
484.193
483.159
482.23
481.311
480.253
479.383
478.379
477.471
476.592
475.627
474.799
473.878
473.015
472.169
471.279
470.381
469.375
468.37
467.319
466.28
465.203
464.145
463.061
461.973
460.884
459.769
458.689
457.602
456.63
455.812
2341.15
1814.19
1476.91
1243.99
1074.36
945.477
844.534
763.379
696.815
641.428
594.532
554.667
520.48
490.944
465.83
443.711
425.983
410.454
399.122
389.42
383.911
379.965
380.937
385.44
393.265
404.96
418.392
435.824
452.782
473.059
491.439
511.468
529.604
546.306
562.383
574.346
586.603
594.423
602.278
607.488
612.089
615.928
618.195
620.424
620.962
621.341
620.61
619.331
617.689
615.499
613.275
611.015
609.03
607.271
605.513
603.872
602.243
600.599
599.061
597.43
595.944
594.421
592.974
591.607
590.235
588.938
587.574
586.111
584.607
583.039
581.489
579.902
578.282
576.715
575.092
573.575
572.076
570.599
569.211
567.788
566.469
565.157
563.899
562.702
561.503
560.369
559.228
558.141
557.057
556.027
554.975
553.981
552.958
551.973
550.999
550.022
549.12
548.235
547.535
547.039
2342.03
1815.98
1480.11
1247.96
1080.29
952.702
854.156
775.222
712.308
660.683
618.98
587.052
562.457
545.659
534.456
530.151
534.491
544.986
561.196
580.862
604.844
630.323
657.961
684.562
711.165
734.746
754.807
771.624
783.81
794.567
801.469
807.616
810.568
812.284
811.956
809.719
806.885
802.409
798.391
794.045
790.694
787.461
784.44
781.486
778.513
775.699
772.881
770.241
767.692
765.282
762.894
760.498
757.961
755.247
752.614
749.876
747.259
744.663
742.102
739.675
737.232
734.949
732.697
730.566
728.536
726.549
724.705
722.852
721.124
719.404
717.711
716.09
714.383
712.825
711.203
709.739
708.313
706.911
705.625
704.303
703.097
701.894
700.757
699.667
698.598
697.6
696.612
695.699
694.798
693.98
693.136
692.375
691.576
690.839
690.098
689.376
688.748
688.144
687.789
687.702
2345.25
1822.38
1493.87
1268.14
1113.26
994.142
912.627
851.983
814.526
787.891
783.585
800.212
828.959
866.202
907.458
950.424
990.11
1027.07
1058.25
1083.54
1103.57
1118.28
1129.27
1135.55
1137.62
1134.63
1128.03
1118.71
1108.57
1099.54
1091.74
1085.19
1078.99
1073.31
1067.78
1062.67
1057.69
1053.04
1048.35
1043.55
1038.45
1033.32
1028.26
1023.18
1018.51
1013.85
1009.57
1005.46
1001.58
997.997
994.511
991.356
988.282
985.337
982.567
979.798
977.25
974.722
972.306
970.026
967.73
965.647
963.542
961.609
959.738
957.924
956.273
954.603
953.14
951.645
950.236
948.895
947.47
946.251
944.965
943.866
942.758
941.719
940.747
939.759
938.872
937.96
937.133
936.317
935.544
934.818
934.107
933.471
932.848
932.319
931.755
931.284
930.764
930.33
929.858
929.455
929.13
928.893
928.942
929.371
2358.74
1860.89
1594.79
1433.97
1354.06
1288.9
1305.31
1337.24
1392.18
1465.1
1539.74
1610.32
1672.3
1723.18
1759.95
1783.51
1792.4
1788.98
1773.21
1750.26
1724.09
1700.74
1682.13
1666.55
1652.5
1639.45
1627.42
1615.89
1605
1593.74
1582.85
1571.81
1561.66
1551.67
1542.45
1533.77
1525.46
1518.04
1510.7
1504.26
1497.88
1492.05
1486.48
1481.24
1476.49
1471.76
1467.61
1463.48
1459.74
1456.2
1452.82
1449.79
1446.81
1444.14
1441.57
1439.15
1436.93
1434.75
1432.74
1430.83
1428.94
1427.25
1425.52
1424
1422.49
1421.06
1419.77
1418.45
1417.38
1416.2
1415.17
1414.17
1413.15
1412.28
1411.36
1410.6
1409.81
1409.11
1408.43
1407.76
1407.15
1406.52
1405.98
1405.44
1404.95
1404.49
1404.07
1403.7
1403.37
1403.12
1402.85
1402.65
1402.41
1402.27
1402.06
1402.03
1401.94
1402.21
1402.73
1403.88
2454.75
2305.65
2580.47
2808.63
2934.27
3009.96
2994.66
2967.39
3014.92
3085.55
3150.13
3196.52
3222.48
3229.82
3222.27
3203.87
3178.41
3148.81
3117.74
3086.45
3054.67
3023.2
2991.81
2961.82
2933.5
2907.26
2882.86
2860.49
2839.94
2820.86
2803.83
2787.63
2773.61
2760.08
2748.3
2737.2
2727.08
2718.07
2709.33
2701.88
2694.54
2688.09
2681.99
2676.26
2670.99
2665.7
2661.08
2656.4
2652.21
2648.18
2644.39
2640.95
2637.57
2634.62
2631.7
2629.08
2626.63
2624.29
2622.15
2620.11
2618.16
2616.42
2614.65
2613.14
2611.64
2610.25
2609.04
2607.79
2606.79
2605.72
2604.79
2603.91
2603.07
2602.33
2601.63
2601.05
2600.5
2600.03
2599.58
2599.14
2598.75
2598.38
2598.08
2597.81
2597.6
2597.43
2597.31
2597.26
2597.27
2597.33
2597.41
2597.54
2597.67
2597.88
2598.02
2598.46
2598.64
2599.68
2600.66
2602.65
6588.08
7481.92
7876.76
7936
7826.37
7629.97
7415.04
7222.14
7053.47
6914.44
6805.29
6723.5
6663.96
6621.65
6591.87
6570.14
6554.42
6541.39
6531.43
6522.26
6515.08
6508.84
6503.96
6500.48
6497.18
6495.38
6493.07
6491.96
6490.46
6488.92
6487.53
6485.22
6483.71
6480.94
6479.18
6476.46
6474.31
6472
6469.5
6467.75
6465.15
6463.78
6461.49
6460.27
6458.57
6457.28
6456.17
6454.82
6454.05
6452.85
6452.18
6451.28
6450.69
6450.13
6449.7
6449.4
6449.19
6449.12
6449.09
6449.3
6449.4
6449.9
6450.19
6450.87
6451.42
6452.12
6453.02
6453.73
6454.88
6455.7
6456.92
6458.06
6459.27
6460.8
6462.07
6463.84
6465.25
6467.01
6468.63
6470.28
6472.13
6473.74
6475.72
6477.44
6479.42
6481.36
6483.32
6485.45
6487.45
6489.67
6491.75
6494
6496.22
6498.46
6500.92
6503.03
6505.56
6507.34
6508.78
6508.76
5483.26
3369.93
2417.19
1949.34
1666.37
1481.54
1347.37
1246.12
1163.6
1094.85
1036.13
984.439
938.241
896.783
858.696
823.364
790.498
759.346
729.601
701.508
674.63
649.314
625.54
602.047
579.476
558.834
537.652
515.544
495.251
475.58
455.577
437.343
420.295
402.866
386.335
370.423
353.638
337.707
324.381
312.903
304.085
298.959
295.004
290.14
287.056
289.424
295.787
299.9
297.247
289.357
280.507
272.658
265.907
259.576
252.985
246.118
239.583
233.944
229.457
225.727
222.097
217.639
211.462
202.753
191.355
177.759
163.188
148.726
135.097
122.513
111.127
101.026
92.3179
84.8018
78.4209
73.2349
69.3265
66.5911
64.8571
63.8534
63.3735
63.1675
63.0855
62.9717
62.8017
62.5356
62.2348
61.9087
61.6343
61.4013
61.2487
61.1308
61.0703
61.0178
61.001
60.9749
60.9741
60.9557
60.9591
60.9437
1576.35
2577.52
2361.81
1987.63
1703.37
1502.78
1355.28
1243.84
1153.72
1080.22
1018.66
965.207
918.408
877.364
840.208
806.131
774.676
744.862
716.329
689.36
663.349
638.552
615.095
591.511
568.449
547.284
525.351
502.516
481.94
462.352
442.309
424.147
407.453
390.217
373.883
358.428
341.9
326.559
314.833
305.394
298.561
295.216
292.163
286.923
282.553
283.303
288.4
292.183
290.085
283.007
274.784
267.286
260.554
254.015
247.18
240.173
233.593
227.921
223.387
219.664
216.094
211.802
205.899
197.581
186.601
173.347
158.883
144.361
130.59
117.94
106.627
96.7481
88.2483
81.0465
75.2021
70.7165
67.4768
65.2882
63.9253
63.1671
62.8171
62.6993
62.6672
62.6129
62.4824
62.2688
62.0002
61.7179
61.4615
61.2568
61.109
61.0108
60.9476
60.9096
60.8858
60.8726
60.8636
60.8592
60.8559
60.8586
1141.58
1417.32
1804.01
1802.12
1643.46
1476.26
1336.8
1225.04
1132.95
1057.1
993.923
939.533
892.561
852.064
815.797
782.936
752.906
724.44
697.25
671.475
646.47
622.412
599.553
576.183
552.934
531.534
509.146
485.826
465.203
445.582
425.37
407.314
391.087
374.333
358.569
344.017
328.184
314.792
306.601
300.98
297.349
296.481
294.2
287.337
280.093
278.06
281.203
284.23
282.412
276.017
268.35
261.149
254.386
247.637
240.672
233.722
227.306
221.766
217.277
213.584
210.059
205.878
200.168
192.146
181.495
168.51
154.11
139.481
125.549
112.862
101.694
92.0797
83.9927
77.4725
72.4519
68.7625
66.1635
64.4349
63.3542
62.759
62.482
62.4034
62.3898
62.3671
62.2657
62.094
61.8588
61.6167
61.3805
61.1951
61.0493
60.9602
60.8935
60.8619
60.8328
60.8258
60.8115
60.8145
60.8075
60.8204
899.043
848.19
1028.13
1248.63
1339.27
1312.79
1237.72
1155.26
1078.38
1010.52
952.428
901.736
857.495
819.243
784.868
753.874
725.717
698.844
673.233
648.84
624.868
601.695
579.51
556.499
533.3
511.741
488.888
464.883
443.596
423.371
402.882
385.128
369.695
354.322
340.316
327.671
314.635
306.122
304.519
304.934
305.324
306.788
304.811
294.789
282.248
275.305
275.108
276.551
274.524
268.58
261.367
254.4
247.585
240.679
233.781
227.195
221.251
216.093
211.806
208.206
204.716
200.556
194.883
186.96
176.432
163.526
149.054
134.217
120.085
107.371
96.3861
87.2269
79.9118
74.3492
70.2518
67.3304
65.282
63.9084
63.0226
62.5223
62.2732
62.1999
62.1824
62.1729
62.0941
61.9612
61.7598
61.5539
61.3396
61.174
61.0328
60.9504
60.8802
60.8516
60.8174
60.8137
60.7951
60.8028
60.7929
60.8132
676.454
657.347
667.541
732.356
834.751
919.413
957.301
956.306
932.733
899.206
863.904
829.282
796.669
767.051
739.082
713.145
689.11
665.344
642.313
620.048
597.5
575.377
553.745
530.963
507.635
485.081
460.749
435.304
412.223
390.84
371.121
355.372
342.656
331.136
322.187
314.763
308.699
308.781
315.936
322.929
326.051
327.559
324.935
311.614
291.805
277.42
271.776
270.236
267.163
261.243
254.297
247.477
240.628
233.726
227.205
221.422
216.378
211.947
208.092
204.697
201.249
197.003
191.147
183.024
172.287
159.137
144.347
129.147
114.733
101.98
91.3111
82.8813
76.5399
71.9638
68.7051
66.4128
64.7772
63.6464
62.8743
62.4123
62.1536
62.0591
62.0192
62.0085
61.9441
61.8466
61.6787
61.507
61.3166
61.1751
61.0436
60.9696
60.897
60.8706
60.8313
60.8298
60.8069
60.8183
60.8058
60.8324
531.299
532.041
527.517
528.523
540.843
565.57
596.926
626.302
648.73
662.972
669.133
669.694
666.036
659.281
649.258
637.431
624.395
609.015
592.325
574.618
555.242
535.071
513.984
491.094
467.089
441.958
414.942
388.46
365.434
347.128
333.938
325.858
321.504
319.183
318.317
318.899
322.33
330.896
343.756
353.594
355.976
354.631
350.261
335.471
309.918
286.907
273.633
267.08
261.575
254.9
247.845
241.014
234.201
227.635
222.007
217.65
214.114
210.886
207.768
204.739
201.375
196.948
190.669
181.983
170.612
156.815
141.398
125.663
110.905
98.1515
87.8816
80.152
74.5895
70.7205
68.0091
66.0998
64.6924
63.6777
62.933
62.4517
62.1421
61.9978
61.9123
61.8825
61.8162
61.7445
61.6076
61.4769
61.3157
61.2027
61.082
61.0194
60.9447
60.9228
60.878
60.8801
60.8519
60.8682
60.852
60.8858
439.785
441.909
440.05
435.218
428.672
422.549
418.44
415.496
414.896
418.799
424.095
432.994
445.114
456.602
467.754
477.79
484.663
487.967
486.913
480.479
469.92
455.722
436.954
415.55
393.078
367.9
344.789
327.401
318.049
317.989
321.579
326.279
332.38
337.394
341.203
347.169
356.508
368.452
381.274
389.391
388.663
383.544
377
362.144
334.857
305.122
283.42
269.855
260.091
251.45
243.622
236.537
229.965
224.358
220.439
218.299
216.967
215.437
213.337
210.819
207.578
202.91
196
186.414
173.995
159.184
142.9
126.552
111.442
98.5874
88.3579
80.7356
75.2565
71.4432
68.7339
66.8033
65.3298
64.2337
63.371
62.7738
62.3346
62.0898
61.9116
61.8352
61.7368
61.6802
61.5619
61.4784
61.3415
61.2653
61.151
61.1109
61.0307
61.0247
60.9694
60.9857
60.9457
60.9768
60.9507
61.0018
369.389
371.654
371.351
367.999
361.449
352.374
342.197
330.886
319.158
308.874
298.593
290.344
285.823
282.574
283.649
288.799
294.753
303.966
313.047
317.726
320.32
318.793
312.409
305.256
297.386
294.89
300.778
312.261
327.992
343.85
355.031
363.534
371.286
376.88
382.039
390.403
401.522
413.143
422.658
425.694
420.411
411.475
402.923
389.058
363.158
330.796
302.395
281.556
266.337
254.634
245.305
237.731
231.726
227.777
226.286
226.919
228.088
228.345
227.201
225.097
221.885
216.913
209.28
198.643
184.939
168.907
151.601
134.611
119.13
106.085
95.4526
87.2288
80.9476
76.3191
72.765
70.1026
67.9371
66.2937
64.9221
63.9478
63.1473
62.6674
62.2615
62.0817
61.8698
61.8143
61.6605
61.6383
61.4932
61.4917
61.3621
61.3922
61.2821
61.3406
61.2437
61.323
61.2357
61.3335
61.2653
61.3931
309.709
309.716
308.605
305.369
299.647
291.661
282.343
272.161
262.315
253
245.437
239.539
235.704
233.964
234.002
235.641
238.435
242.402
247.462
253.409
260.321
268.667
278.796
290.484
306.009
325.848
345.524
363.895
381.375
395.55
405.491
413.411
420.046
425.295
431.435
440.33
450.375
457.803
459.001
453.163
442.394
430.739
421.579
411.365
391.4
360.828
329.399
303.35
283.26
268.32
257.208
249.09
243.853
241.826
242.843
245.961
248.992
250.293
249.432
247.29
243.779
238.351
229.957
218.362
203.362
186.051
167.512
149.791
134.002
121.296
110.839
102.549
95.5358
89.8913
84.7748
80.5225
76.5032
73.2999
70.3538
68.2628
66.3527
65.2279
64.1283
63.6881
63.0724
63.0154
62.6376
62.7839
62.5128
62.7685
62.5258
62.8328
62.5745
62.9041
62.6183
62.9739
62.6758
63.0765
62.8196
63.3097
235.931
236.754
237.139
236.704
235.481
233.943
232.692
232.548
234.017
236.996
242.019
247.714
254.496
261.868
268.816
275.44
281.924
288.294
295.393
303.709
313.122
324.275
337.598
353.055
370.449
388.35
405.99
423.782
440.508
453.502
462.814
469.885
475.204
479.278
483.843
488.891
491.384
487.351
475.904
460.894
445.612
432.605
425.152
421.583
412.636
390.488
360.898
333.237
310.554
293.51
281.048
272.567
268.052
267.577
270.215
274.45
277.749
278.624
276.999
274.181
269.961
263.974
254.909
242.765
226.989
208.959
189.452
171.295
155.253
143.223
133.652
126.761
120.354
115.31
109.576
104.628
98.587
93.538
87.677
83.4825
78.8645
76.3126
73.2386
72.2399
70.3261
70.4325
69.2702
70.1361
69.3951
70.6635
69.9741
71.3396
70.5027
71.8522
70.8492
72.2375
71.1554
72.6928
71.7459
73.616
254.809
255.255
255.934
257.675
260.729
265.447
271.544
279.283
287.568
296.483
305.26
313.48
320.755
327.212
332.863
338.212
343.694
349.696
356.847
365.428
375.534
387.644
401.915
418.232
436.123
454.519
473.429
492.329
508.52
519.842
526.579
529.816
530.69
529.897
527.485
521.809
509.609
490.019
467.52
447.419
431.396
420.406
416.408
418.417
419.735
410.651
389.276
364.189
341.841
324.382
311.454
303.026
299.156
299.626
302.823
306.73
308.565
307.465
304.063
299.971
294.83
288.572
279.556
267.69
251.867
233.977
214.688
197.473
182.106
170.812
161.642
155.964
150.511
147.28
142.867
140.102
135.019
131.481
125.263
121.417
115.324
112.666
107.88
107.086
103.825
104.892
102.973
105.542
104.351
107.575
106.272
109.483
107.732
110.754
108.616
111.645
109.341
112.691
110.667
114.801
325.97
325.288
325.261
326.659
329.678
334.214
339.992
346.849
354.058
361.672
369.355
376.596
383.65
390.504
397.026
403.55
410.393
417.667
425.853
435.252
446.259
459.109
473.851
490.046
508.035
527.982
548.969
568.421
581.94
587.961
587.518
582.182
573.642
562.209
546.252
524.403
497.449
469.385
445.537
428.103
415.965
408.913
407.882
412.377
418.131
417.894
406.398
386.936
367.22
350.859
338.66
331.248
328.807
330.785
334.736
337.729
336.984
332.809
326.828
320.846
314.505
307.598
298.319
286.277
270.676
253.932
237.169
223.052
210.709
201.12
192.674
187.035
182.383
180.116
178.017
177.696
176.4
176.378
174.679
174.448
172.472
172.559
170.881
171.776
170.656
172.576
172.04
174.838
174.4
177.452
176.484
179.451
177.805
180.707
178.519
181.627
179.175
182.846
180.588
185.421
384.837
384.357
384.655
386.491
390.103
395.423
402.265
410.388
419.279
428.567
437.751
446.492
455.042
463.248
470.948
478.487
486.071
494.082
502.75
512.5
523.974
537.067
551.911
568.923
589.089
611.722
633.239
648.313
652.259
645.592
631.274
612.219
589.87
564.226
535.156
503.928
473.763
448.07
429.237
416.943
409.13
405.281
405.781
410.403
416.658
419.513
413.83
400.151
384.289
370.711
361.204
356.818
357.887
363.1
368.525
370.119
365.8
357.629
348.259
339.376
330.631
321.444
310.408
297.463
283.087
269.337
257.3
247.689
239.813
233.584
228.305
224.103
220.862
219.118
218.713
219.472
220.931
222.763
224.64
226.533
228.1
229.637
230.677
231.962
232.665
234.08
234.683
236.391
236.628
238.388
237.93
239.804
238.619
240.731
238.918
241.532
239.316
242.741
240.557
245.366
455.318
455.226
455.974
458.416
462.85
469.252
477.396
487.074
497.608
508.966
520.355
531.454
542.438
552.772
562.185
571.017
579.409
587.728
596.072
605.293
616.101
628.082
642.303
660.356
682.217
704.338
719.074
719.292
704.636
679.248
648.149
615.598
582.451
548.641
515.519
484.685
458.408
438.671
426.016
418.702
414.526
412.747
413.471
416.672
421.098
423.456
419.839
410.201
398.844
390.228
386.177
387.666
394.951
405.017
411.802
410.691
401.447
388.212
374.43
361.567
349.319
337.057
324.2
311.391
299.887
290.798
284.336
279.767
276.571
274.257
272.812
272.043
272.083
272.592
273.578
274.788
276.383
278.053
279.911
281.571
283.113
284.372
285.359
286.354
287.05
288.246
288.877
290.399
290.61
292.256
291.747
293.63
292.305
294.566
292.514
295.478
292.869
296.908
294.265
300.03
546.965
547.388
548.861
552.425
558.544
567.228
578.298
591.387
605.782
621.171
636.371
651.014
664.904
676.979
687.078
695.526
702.33
708.01
712.942
718.496
725.616
734.332
747.024
764.998
784.622
797.636
793.487
769.839
734.021
692.871
651.078
611.552
574.376
539.405
507.975
481.45
461.024
447.759
440.924
437.95
436.599
435.92
435.895
436.676
437.816
437.591
433.821
427.026
421.377
420.673
425.531
436.259
452.387
467.772
474.202
468.051
452.368
433.095
414.122
396.964
381.352
366.719
353.413
342.645
335.483
331.891
330.945
331.335
332.491
333.971
335.842
337.975
340.412
342.956
345.501
347.893
349.959
351.731
352.994
354.086
354.645
355.38
355.628
356.526
356.898
358.336
358.783
360.54
360.539
362.362
361.683
363.695
362.134
364.673
362.236
365.776
362.505
367.58
364.063
371.428
688.184
689.294
691.805
697.133
706.039
718.577
734.488
752.992
773.124
793.69
813.133
830.619
845.319
855.805
862.495
865.557
865.17
862.829
859.661
857.635
858.673
863.39
873.907
888.342
897.394
889.381
859.113
813.282
762.389
712.645
666.778
625.264
587.939
555.12
527.417
506.075
491.712
484.566
482.88
483.663
484.469
484.189
482.784
480.532
477.511
473.518
468.62
465.182
468.074
479.725
498.123
522.142
549.105
568.232
570.611
556.394
532.985
507.225
483.081
462.146
444.118
428.587
416.72
409.835
408.118
410.312
414.554
419.449
424.311
428.845
433.044
436.941
440.471
443.616
446.228
448.353
449.869
451.001
451.67
452.228
452.497
452.937
453.194
453.939
454.448
455.61
456.128
457.414
457.522
458.866
458.372
459.956
458.6
460.952
458.505
462.41
458.531
465.088
460.201
470.572
930.615
932.681
936.699
944.861
958.34
977.063
1000.07
1025.73
1051.98
1076.36
1096.88
1111.99
1120.19
1120.86
1115.63
1104.46
1089.13
1073.02
1057.84
1046.32
1041.67
1043.19
1049.35
1053.11
1040.69
1004.31
949.787
888.122
828.118
774.144
727.318
686.301
650.78
620.883
597.27
580.988
572.36
570.728
573.607
577.732
580.313
580.044
576.932
571.345
563.654
555.244
549.635
552.857
570.494
602.134
641.129
683.485
721.298
739.216
731.711
706.562
674.721
642.784
614.408
590.952
571.933
557.409
549.176
547.994
552.662
560.607
569.532
578.158
585.74
592.15
597.395
601.696
605.053
607.651
609.471
610.722
611.44
611.89
612.111
612.342
612.524
612.896
613.277
613.992
614.602
615.544
616.112
617.034
617.28
618.186
617.955
619.065
618.093
620.121
617.913