/*--------------------------------*- C++ -*----------------------------------*\
| =========                 |                                                 |
| \\      /  F ield         | OpenFOAM: The Open Source CFD Toolbox           |
|  \\    /   O peration     | Version:  v2012                                 |
|   \\  /    A nd           | Website:  www.openfoam.com                      |
|    \\/     M anipulation  |                                                 |
\*---------------------------------------------------------------------------*/
FoamFile
{
    version     2.0;
    format      ascii;
    class       vectorField;
    location    "0.017/lagrangian/kinematicCloud";
    object      UCorrect;
}
// * * * * * * * * * * * * * * * * * * * * * * * * * * * * * * * * * * * * * //


17
(
(0 0 0)
(0 0 0)
(-1.51202e-26 2.12397e-29 0)
(-2.09877e-26 -7.42558e-29 0)
(-2.14046e-26 9.25389e-29 0)
(-1.60646e-26 3.15201e-29 0)
(0 0 0)
(0 0 0)
(-1.38989e-29 9.34761e-32 0)
(0 0 0)
(0 0 0)
(-2.69106e-26 -1.43975e-28 0)
(0 0 0)
(0 0 0)
(0 0 0)
(0 0 0)
(0 0 0)
)


// ************************************************************************* //
