/*--------------------------------*- C++ -*----------------------------------*\
| =========                 |                                                 |
| \\      /  F ield         | OpenFOAM: The Open Source CFD Toolbox           |
|  \\    /   O peration     | Version:  v2012                                 |
|   \\  /    A nd           | Website:  www.openfoam.com                      |
|    \\/     M anipulation  |                                                 |
\*---------------------------------------------------------------------------*/
FoamFile
{
    version     2.0;
    format      ascii;
    class       volScalarField;
    location    "0.339";
    object      epsilon.air;
}
// * * * * * * * * * * * * * * * * * * * * * * * * * * * * * * * * * * * * * //

dimensions      [0 2 -3 0 0 0 0];


internalField   nonuniform List<scalar> 
1900
(
112.724
141.424
210.098
257.591
369.051
443.457
614.739
724.907
971.324
1128.62
15.4676
16.4471
18.6377
20.4498
23.7576
27.727
32.0037
39.2874
45.1211
56.7568
14.7926
14.6414
14.5755
14.5063
14.5148
14.5574
14.6409
14.8308
15.0774
15.4131
14.77
14.6304
14.4634
14.3354
14.1726
14.059
13.9039
13.808
13.6653
13.5938
14.7767
14.6215
14.4705
14.3204
14.1748
14.0288
13.889
13.7472
13.6139
13.477
14.7778
14.6204
14.4715
14.3195
14.1755
14.0283
13.8892
13.7472
13.6133
13.4774
14.7778
14.6206
14.4732
14.3233
14.1843
14.0447
13.9178
13.7912
13.6808
13.5715
14.7764
14.6495
14.5641
14.5033
14.5107
14.5515
14.6367
14.8187
15.0462
15.3949
15.216
16.5935
18.285
20.669
23.6025
27.564
32.2736
38.4009
45.5692
54.8144
105.943
146.518
198.417
265.682
350.1
455.995
585.755
743.668
931.883
1154.06
4100.11
15197.4
19578.9
22449.6
21113.5
18014.6
15074.3
12777.1
11281.2
10368.5
9869.75
9698.26
9529.08
9262.48
8855.1
8355.47
7800.15
7212.4
6644.86
6126.19
5649.3
5222.53
4838.11
4487.09
4167.85
3878.49
3615.99
3378.43
3162.72
2966.86
2788.49
2625.61
2476.58
2339.87
2214.33
2098.78
1992.32
1894.01
1803.08
1718.81
1640.57
1567.77
1499.9
1436.53
1377.23
1321.66
1269.49
1220.43
1174.24
1130.68
1089.55
1050.65
1013.84
978.929
945.802
914.304
884.33
855.748
828.48
802.403
777.469
753.558
730.659
708.645
687.541
667.205
647.702
628.861
610.794
593.287
576.515
560.204
544.607
529.378
514.863
500.625
487.126
473.806
461.27
448.805
437.19
425.515
414.777
403.817
393.91
383.579
374.462
364.666
356.304
346.946
339.325
330.304
323.43
314.644
308.547
299.885
294.611
285.953
281.541
271.143
113.086
337.62
517.989
923.025
1125.85
1149.59
1121.18
1055.79
1049.28
1088.53
1193.61
1406.73
1695.45
2028.7
2379.57
2692
2971.04
3204.68
3359.01
3435.29
3427.63
3389.21
3303.53
3185.19
3056.73
2925.28
2794.21
2667.21
2543.58
2426.14
2313.98
2206.97
2105.62
2009.73
1919.41
1834.31
1754.39
1679.12
1608.31
1541.67
1478.92
1419.76
1363.96
1311.28
1261.5
1214.4
1169.79
1127.48
1087.3
1049.1
1012.75
978.101
945.066
913.524
883.389
854.552
826.947
800.473
775.082
750.679
727.237
704.66
682.953
662.011
641.874
622.418
603.719
585.625
568.255
551.412
535.267
519.568
504.555
489.904
475.942
462.257
449.281
436.493
424.455
412.503
401.36
390.182
379.896
369.422
359.95
350.098
341.4
332.081
324.124
315.243
308.008
299.47
292.959
284.663
278.9
270.739
265.764
257.622
253.476
243.718
16.4267
19.8634
22.8823
29.0969
34.8002
38.7388
41.689
43.7267
46.6249
50.6419
58.64
70.8355
95.3933
130.222
189.514
267.374
373.36
509.207
666.716
837.399
1006.25
1165.07
1305.19
1421.66
1511.8
1574.54
1612.01
1628.3
1625.36
1614.26
1591.07
1560.84
1526.54
1489.51
1451.19
1411.61
1371.95
1331.68
1291.86
1252.73
1214.28
1176.7
1140.13
1104.66
1070.33
1037.08
1004.97
973.894
943.849
914.79
886.689
859.489
833.177
807.709
783.076
759.225
736.155
713.814
692.205
671.27
651.022
631.396
612.423
594.026
576.263
559.035
542.436
526.329
510.846
495.804
481.381
467.335
453.909
440.788
428.294
416.029
404.413
392.942
382.159
371.426
361.44
351.394
342.174
332.753
324.266
315.401
307.612
299.222
292.102
284.105
277.637
269.946
264.127
256.653
251.498
244.148
239.691
232.363
228.638
219.859
13.453
13.4604
13.5461
13.8023
14.3343
15.0061
15.7202
16.3422
16.9312
17.346
17.8974
18.3597
19.2935
20.499
22.7085
26.2776
31.6785
40.7667
54.7922
76.2249
106.594
147.371
199.503
261.568
331.406
406.421
481.915
555.354
622.168
683.293
735.946
779.509
813.88
839.489
857.867
869.216
875.193
874.766
872.231
866.47
857.76
847.07
834.924
821.519
807.209
792.123
776.541
760.37
743.946
727.335
710.563
693.7
676.83
660.018
643.338
626.794
610.492
594.414
578.645
563.154
548.016
533.186
518.735
504.604
490.884
477.494
464.541
451.905
439.723
427.825
416.402
405.211
394.517
383.993
373.986
364.086
354.728
345.397
336.656
327.863
319.726
311.438
303.889
296.065
289.086
281.676
275.246
268.192
262.299
255.541
250.171
243.636
238.784
232.406
228.084
221.792
218.024
211.745
208.559
201.023
13.3297
13.1591
13.0622
13.1163
13.3049
13.7159
14.2881
14.9129
15.4577
15.883
16.2129
16.4407
16.6112
16.7609
16.8913
17.0917
17.321
17.7289
18.3242
19.3094
20.8512
23.2441
26.8167
32.1914
39.8947
50.7403
65.2619
83.8932
106.716
133.633
164.188
197.279
232.225
267.379
302.341
335.292
366.452
394.561
419.532
440.991
458.977
473.478
484.853
493.311
499.231
502.9
504.693
504.419
503.261
500.716
496.917
492.131
486.604
480.362
473.617
466.424
458.944
451.176
443.292
435.25
427.215
419.105
411.045
403.006
395.094
387.237
379.532
371.877
364.401
356.968
349.759
342.556
335.635
328.657
322.02
315.27
308.921
302.406
296.352
290.062
284.309
278.239
272.799
266.939
261.823
256.159
251.376
245.884
241.429
236.066
231.949
226.691
222.924
217.736
214.335
209.181
206.165
201.007
198.397
192.18
13.325
13.1544
13.0314
13.086
13.2954
13.7741
14.4982
15.4916
16.5068
17.6094
18.6
19.5186
20.2514
20.8615
21.2867
21.5919
21.7653
21.8517
21.8414
21.8008
21.7083
21.6072
21.5364
21.562
21.6701
21.9305
22.4799
23.3711
24.8823
27.0385
30.2971
34.6835
40.6921
48.2397
57.6082
68.7607
81.7679
96.3614
112.346
129.325
146.907
164.67
182.147
199.016
214.965
229.756
243.337
255.493
266.371
275.911
284.266
291.396
297.516
302.632
306.89
310.364
313.171
315.31
316.933
317.965
318.651
318.697
318.504
318.013
317.049
315.742
314.153
312.276
310.184
307.851
305.353
302.62
299.818
296.698
293.675
290.26
287.05
283.388
280.046
276.208
272.798
268.834
265.415
261.366
257.995
253.895
250.621
246.493
243.356
239.217
236.245
232.097
229.312
225.153
222.574
218.403
216.049
211.865
209.758
204.697
13.4657
13.3602
13.4096
13.6558
14.3031
15.6891
18.0282
21.4443
25.4011
29.7364
33.6149
37.0459
39.5776
41.5359
42.5942
43.2904
43.3637
43.2463
42.9511
42.4138
41.7945
41.1455
40.5205
39.8795
39.329
38.8397
38.4964
38.2334
38.138
38.1955
38.3717
38.7583
39.3476
40.2993
41.5322
43.2742
45.4539
48.3924
52.0121
56.6759
62.28
69.1715
77.2229
86.6424
97.275
109.129
122.02
135.753
150.121
164.822
179.669
194.374
208.763
222.651
235.875
248.368
260.031
270.87
280.824
289.928
298.139
305.511
312.022
317.763
322.736
327.003
330.559
333.497
335.739
337.529
338.626
339.421
339.467
339.261
338.747
337.623
336.458
334.533
332.87
330.384
328.315
325.382
323.025
319.748
317.218
313.695
311.093
307.403
304.807
301.012
298.484
294.631
292.214
288.336
286.058
282.181
280.066
276.217
274.31
269.741
15.909
16.8601
18.5476
21.9416
28.3811
39.4987
55.4536
75.035
95.4711
114.376
129.212
139.967
146.488
150.068
150.673
150.262
149.277
147.799
146.307
145.107
144.549
144.692
145.313
146.576
148.983
152.052
156.233
161.217
167.067
174.019
181.747
190.778
200.548
211.652
223.484
236.582
250.415
265.539
281.311
298.181
315.365
333.277
351.209
369.464
387.504
405.415
422.844
439.68
455.936
471.392
486.348
500.49
514.11
526.888
538.978
550.212
560.619
570.137
578.759
586.372
592.956
598.497
603.004
606.495
609.106
610.757
611.745
611.687
611.241
610.259
608.511
606.308
603.717
600.504
597.243
593.176
589.33
584.565
580.311
575.043
570.493
564.862
560.161
554.302
549.6
543.644
539.065
533.108
528.737
522.85
518.752
512.988
509.213
503.614
500.192
494.78
491.754
486.543
484.022
478.166
68.0163
90.4572
126.18
184.866
271.903
385.104
511.593
636.077
744.77
831.865
892.723
932.124
952.772
963.094
964.556
963.371
960.705
958.268
956.887
957.531
960.305
966.541
975.08
985.814
999.91
1016.38
1035.14
1055.46
1077.6
1101.5
1126.59
1152.8
1179.35
1206.38
1233.18
1259.88
1285.92
1311.46
1335.79
1359
1380.61
1401.03
1419.81
1437.29
1453.16
1467.53
1480.42
1491.73
1501.87
1510.41
1518.06
1524.07
1529.22
1532.64
1535.15
1535.99
1535.65
1534.44
1531.98
1527.94
1523
1516.68
1509.55
1501.21
1492.26
1482.29
1471.85
1460.83
1449.41
1437.5
1425.54
1412.97
1400.75
1387.74
1375.34
1362.03
1349.57
1336.1
1323.73
1310.32
1298.28
1285.07
1273.49
1260.6
1249.63
1237.16
1226.91
1214.92
1205.44
1193.94
1185.27
1174.28
1166.5
1156.03
1149.19
1139.23
1133.39
1123.94
1119.32
1109.07
1464.64
1897.21
2398.88
2961.7
3563.09
4171.68
4746.18
5251.3
5654.65
5950.83
6132.07
6218.95
6206.48
6159.92
6061.64
5928.61
5778.44
5619.82
5459.33
5301.58
5149.11
5003.92
4867.27
4739.51
4620.86
4510.91
4409.8
4316.83
4231.84
4154.21
4083.67
4019.91
3962.53
3911.22
3865.39
3824.92
3789.32
3758.4
3731.5
3708.3
3688.15
3671.04
3656.4
3644.19
3633.84
3625.29
3618.3
3612.59
3608.24
3604.71
3602.41
3600.62
3599.8
3599.19
3599.19
3599.33
3599.73
3600.24
3601.26
3602.11
3603.33
3604.42
3605.74
3606.85
3608.18
3608.99
3609.79
3609.85
3609.59
3608.79
3607.56
3605.07
3602.67
3598.76
3595.13
3589.75
3584.89
3578.1
3572.06
3563.91
3556.71
3547.15
3538.81
3527.85
3518.49
3506.29
3496.16
3482.94
3472.38
3458.38
3447.76
3433.15
3422.84
3407.64
3397.9
3381.92
3372.89
3355.99
3347.36
3325.62
1109.25
1064.59
1122.16
1210.02
1238.72
1121.11
818.438
1979.68
54674.5
16153.2
7357.62
6105.46
6232.88
6483.86
6554.26
8025.3
74271.5
43610.9
24816.7
18453.3
16094.7
14997.9
14625.8
19661.1
76435.5
71021.5
54235.3
41183.9
32680.1
27154.9
24544.5
34055.8
69746.9
75712.5
67748.3
55648.3
44565.4
35842.3
30864.5
42703.4
57755.9
71183.2
67955.7
59051.7
48384.4
38738.4
32786.7
45231.3
47476.4
61838.1
62500.4
56622.7
47173.2
38181.5
32455.3
44251.8
39067.9
51814.7
53585.4
49837.7
42392.9
34672.3
29587.6
39763.1
32606
42978.7
44912.5
42124.3
36292.7
30033.3
25812.3
34033
27591.5
35613.5
37247.9
35104.6
30532.2
25547
22214.6
29365.6
23480.3
29578
30815.5
29112.9
25522.2
21624.8
19150.2
26003.5
20105
24692
25569
24178.1
21334.5
18293.1
16489.3
22966.3
17371.8
20782.2
21367.4
20207.8
17936.9
15553.7
14262
20348
15141.4
17660
18024.1
17043.2
15214.4
13333.5
12428.3
18146.5
13292.4
15151.9
15357.7
14521.4
13035.3
11540.8
10929.1
16323.2
11732.1
13112.1
13209.9
12493.9
11276.9
10083.1
9696.87
14807.7
10408.6
11440.9
11466.3
10850.7
9846.51
8888.58
8676.84
13539.9
9269.54
10053.5
10035
9503.04
8670.05
7899.85
7825.04
12470.9
8286.61
8890.81
8847.67
8386.32
7692.32
7073.32
7106.02
11560.9
7443.01
7912.15
7854.37
7453.51
6872.65
6376.06
6492.3
10779.3
6716.03
7083.36
7017.36
6668.11
6179.72
5782.54
5965.31
10100.7
6089.54
6378.08
6307.73
6002.33
5589.83
5273.78
5509.82
9506.82
5547.2
5774.44
5702.45
5434.5
5084.79
4835.41
5114.36
8985.45
5073.54
5253.71
5182.32
4946.76
4649.64
4455.65
4769.57
8526.85
4657.68
4801.55
4732.28
4524.91
4272.21
4124.68
4467.36
8121.75
4290.82
4406.55
4340.4
4157.69
3942.82
3834.58
4201.15
7762.35
3965.64
4059.42
3997.05
3836.04
3653.65
3578.91
3965.52
7442.35
3676.56
3752.95
3694.66
3552.81
3398.45
3352.46
3755.97
7156.39
3418.44
3481.04
3426.98
3302.1
3172.08
3150.88
3568.75
6899.87
3187.26
3238.8
3188.96
3079.12
2970.34
2970.69
3400.71
6668.64
2979.39
3022.09
2976.4
2880.01
2789.87
2808.6
3249.46
6459.31
2791.84
2827.47
2785.83
2701.45
2627.72
2662.47
3112.72
6269.13
2622.11
2652.09
2614.35
2540.77
2481.52
2530.35
2988.71
6095.87
2467.98
2493.49
2459.51
2395.67
2349.28
2410.56
2875.91
5937.57
2327.68
2349.66
2319.27
2264.23
2229.3
2301.64
2773.08
5792.6
2199.61
2218.81
2191.86
2144.79
2120.13
2202.34
2679.12
5659.63
2082.47
2099.49
2075.81
2035.96
2020.53
2111.6
2593.1
5537.53
1975.04
1990.37
1969.78
1936.52
1929.41
2028.46
2514.2
5425.29
1876.29
1890.33
1872.66
1845.39
1845.84
1952.1
2441.67
5322.03
1785.3
1798.36
1783.46
1761.69
1768.89
1881.84
2374.89
5226.99
1701.25
1713.6
1701.31
1684.57
1697.9
1816.99
2313.26
5139.36
1623.43
1635.29
1625.45
1613.34
1632.27
1756.99
2256.26
5058.46
1551.21
1562.74
1555.23
1547.38
1571.45
1701.33
2203.41
4983.62
1484.05
1495.4
1490.08
1486.16
1514.96
1649.59
2154.32
4914.21
1421.47
1432.74
1429.5
1429.23
1462.38
1601.38
2108.6
4849.65
1363.03
1374.34
1373.07
1376.14
1413.37
1556.39
2065.95
4789.4
1308.38
1319.81
1320.41
1326.57
1367.58
1514.33
2026.07
4733.01
1257.17
1268.8
1271.18
1280.24
1324.76
1474.95
1988.75
4680.1
1209.13
1221.01
1225.09
1236.87
1284.64
1438.03
1953.77
4630.38
1163.98
1176.18
1181.89
1196.21
1247.02
1403.38
1920.97
4583.59
1121.5
1134.06
1141.33
1158.05
1211.68
1370.83
1890.19
4539.56
1081.47
1094.44
1103.2
1122.17
1178.46
1340.23
1861.3
4498.14
1043.7
1057.12
1067.32
1088.42
1147.19
1311.43
1834.17
4459.25
1008.01
1021.91
1033.49
1056.6
1117.73
1284.31
1808.72
4422.79
974.25
988.655
1001.56
1026.58
1089.93
1258.74
1784.81
4388.69
942.246
957.182
971.38
998.215
1063.67
1234.63
1762.38
4356.85
911.88
927.368
942.812
971.375
1038.84
1211.85
1741.3
4327.14
883.008
899.065
915.718
945.938
1015.32
1190.33
1721.51
4299.47
855.54
872.18
890.006
921.81
993.03
1169.96
1702.89
4273.68
829.342
846.579
865.548
898.879
971.864
1150.66
1685.39
4249.62
804.359
822.201
842.28
877.074
951.748
1132.35
1668.89
4227.15
780.46
798.917
820.079
856.286
932.593
1114.97
1653.33
4206.06
757.624
776.7
798.913
836.477
914.345
1098.43
1638.61
4186.29
735.718
755.413
778.651
817.525
896.904
1082.66
1624.68
4167.55
714.757
735.067
759.297
799.429
880.254
1067.62
1611.46
4149.92
694.588
715.507
740.698
782.042
864.262
1053.2
1598.85
4132.98
675.272
696.789
722.91
765.419
848.97
1039.42
1586.86
4117.03
656.625
678.723
705.737
749.363
834.195
1026.12
1575.32
4101.46
638.76
661.425
689.303
734.003
820.063
1013.41
1564.35
4086.87
621.447
644.655
673.356
719.078
806.313
1001.04
1553.67
4072.34
604.871
628.606
658.104
704.815
793.182
989.237
1543.56
4058.91
588.737
612.968
643.217
690.86
780.303
977.636
1533.58
4045.18
573.318
598.035
629.017
677.57
768.061
966.643
1524.22
4032.77
558.24
583.403
615.066
664.466
755.939
955.706
1514.83
4019.65
543.882
569.49
601.828
652.068
744.516
945.461
1506.16
4008.16
529.765
555.771
588.723
639.731
733.073
935.114
1497.28
3995.57
516.4
542.811
576.386
628.173
722.428
925.592
1489.3
3984.96
503.173
529.934
564.06
616.541
711.609
915.788
1480.89
3972.84
490.75
517.881
552.581
605.789
701.721
906.985
1473.61
3963.16
478.348
505.784
540.975
594.807
691.479
897.685
1465.63
3951.49
466.825
494.594
530.315
584.831
682.331
889.603
1459.09
3942.84
455.183
483.212
519.365
574.439
672.613
880.762
1451.5
3931.6
444.513
472.841
509.484
565.204
664.182
873.401
1445.74
3924.05
433.555
462.099
499.118
555.335
654.922
864.958
1438.49
3913.22
423.694
452.502
489.973
546.802
647.178
858.305
1433.52
3906.8
413.333
442.314
480.107
537.373
638.299
850.184
1426.53
3896.32
404.237
433.449
471.655
529.502
631.207
844.212
1422.33
3890.89
394.379
423.722
462.2
520.427
622.621
836.325
1415.52
3880.74
386.017
415.558
454.409
513.182
616.141
830.988
1412.01
3875.9
376.566
406.198
445.274
504.375
607.767
823.257
1405.33
3866.06
368.924
398.719
438.124
497.727
601.85
818.467
1402.24
3861.49
359.781
389.632
429.22
489.108
593.622
810.85
1395.83
3851.86
352.868
382.847
422.715
483.044
588.226
806.512
1392.95
3847.33
343.934
373.938
413.955
474.539
580.092
798.996
1386.79
3837.74
337.78
367.875
408.114
469.062
575.183
795.01
1384.01
3833.07
328.948
359.046
399.415
460.605
567.104
787.584
1377.98
3823.39
323.6
353.747
394.27
455.728
562.661
783.877
1375.25
3818.57
314.757
344.899
385.55
447.266
554.625
776.587
1369.39
3809.04
310.249
340.39
381.114
442.979
550.595
773.026
1366.62
3804.21
299.593
329.686
370.516
432.636
540.707
763.98
1358.93
3793.05
)
;

boundaryField
{
    frontAndBack
    {
        type            empty;
    }
    inlet
    {
        type            fixedValue;
        value           uniform 14.855;
    }
    outlet
    {
        type            zeroGradient;
    }
    walls
    {
        lowReCorrection 0;
        blending        stepwise;
        n               2;
        type            epsilonWallFunction;
        value           nonuniform List<scalar> 
228
(
112.724
141.424
210.098
257.591
369.051
443.457
614.739
724.907
971.324
1128.62
1109.25
1064.59
1122.16
1210.02
1238.72
1121.11
818.438
1979.68
1979.68
8025.3
19661.1
34055.8
42703.4
45231.3
44251.8
39763.1
34033
29365.6
26003.5
22966.3
20348
18146.5
16323.2
14807.7
13539.9
12470.9
11560.9
10779.3
10100.7
9506.82
8985.45
8526.85
8121.75
7762.35
7442.35
7156.39
6899.87
6668.64
6459.31
6269.13
6095.87
5937.57
5792.6
5659.63
5537.53
5425.29
5322.03
5226.99
5139.36
5058.46
4983.62
4914.21
4849.65
4789.4
4733.01
4680.1
4630.38
4583.59
4539.56
4498.14
4459.25
4422.79
4388.69
4356.85
4327.14
4299.47
4273.68
4249.62
4227.15
4206.06
4186.29
4167.55
4149.92
4132.98
4117.03
4101.46
4086.87
4072.34
4058.91
4045.18
4032.77
4019.65
4008.16
3995.57
3984.96
3972.84
3963.16
3951.49
3942.84
3931.6
3924.05
3913.22
3906.8
3896.32
3890.89
3880.74
3875.9
3866.06
3861.49
3851.86
3847.33
3837.74
3833.07
3823.39
3818.57
3809.04
3804.21
3793.05
105.943
146.518
198.417
265.682
350.1
455.995
585.755
743.668
931.883
1154.06
1464.64
1897.21
2398.88
2961.7
3563.09
4171.68
4746.18
5251.3
5654.65
5950.83
6132.07
6218.95
6206.48
6159.92
6061.64
5928.61
5778.44
5619.82
5459.33
5301.58
5149.11
5003.92
4867.27
4739.51
4620.86
4510.91
4409.8
4316.83
4231.84
4154.21
4083.67
4019.91
3962.53
3911.22
3865.39
3824.92
3789.32
3758.4
3731.5
3708.3
3688.15
3671.04
3656.4
3644.19
3633.84
3625.29
3618.3
3612.59
3608.24
3604.71
3602.41
3600.62
3599.8
3599.19
3599.19
3599.33
3599.73
3600.24
3601.26
3602.11
3603.33
3604.42
3605.74
3606.85
3608.18
3608.99
3609.79
3609.85
3609.59
3608.79
3607.56
3605.07
3602.67
3598.76
3595.13
3589.75
3584.89
3578.1
3572.06
3563.91
3556.71
3547.15
3538.81
3527.85
3518.49
3506.29
3496.16
3482.94
3472.38
3458.38
3447.76
3433.15
3422.84
3407.64
3397.9
3381.92
3372.89
3355.99
3347.36
3325.62
)
;
    }
}


// ************************************************************************* //
