/*--------------------------------*- C++ -*----------------------------------*\
| =========                 |                                                 |
| \\      /  F ield         | OpenFOAM: The Open Source CFD Toolbox           |
|  \\    /   O peration     | Version:  v2012                                 |
|   \\  /    A nd           | Website:  www.openfoam.com                      |
|    \\/     M anipulation  |                                                 |
\*---------------------------------------------------------------------------*/
FoamFile
{
    version     2.0;
    format      ascii;
    class       volVectorField;
    location    "0.339";
    object      U.air;
}
// * * * * * * * * * * * * * * * * * * * * * * * * * * * * * * * * * * * * * //

dimensions      [0 1 -1 0 0 0 0];


internalField   nonuniform List<vector> 
5600
(
(9.20612 0.00896191 0)
(8.83522 0.0172502 0)
(8.4562 0.0174868 0)
(8.07882 0.0144922 0)
(7.73099 0.00998178 0)
(7.42067 0.00527022 0)
(7.15466 0.000855961 0)
(6.93581 -0.00266996 0)
(6.75352 -0.00525032 0)
(6.60572 -0.00717349 0)
(6.48858 -0.00847272 0)
(6.39655 -0.00921776 0)
(6.32514 -0.00951474 0)
(6.26896 -0.00946769 0)
(6.22508 -0.00919366 0)
(6.18935 -0.00879135 0)
(6.16061 -0.00834062 0)
(6.1359 -0.00788027 0)
(6.11547 -0.00748036 0)
(6.09696 -0.00722089 0)
(6.08195 -0.00699333 0)
(6.0679 -0.00680962 0)
(6.05727 -0.00671241 0)
(6.04739 -0.00661931 0)
(6.04038 -0.00651782 0)
(6.03357 -0.00638359 0)
(6.02889 -0.00626626 0)
(6.0242 -0.00613846 0)
(6.0208 -0.00601885 0)
(6.01725 -0.00588192 0)
(6.0142 -0.00575127 0)
(6.01083 -0.00561751 0)
(6.00771 -0.00552194 0)
(6.00431 -0.00544901 0)
(6.00123 -0.00538521 0)
(5.99787 -0.00533085 0)
(5.99489 -0.00527842 0)
(5.99166 -0.00523258 0)
(5.98886 -0.00518702 0)
(5.98581 -0.00514583 0)
(5.98327 -0.00510469 0)
(5.9805 -0.00506349 0)
(5.97827 -0.00502039 0)
(5.9758 -0.00498823 0)
(5.97396 -0.00495623 0)
(5.9719 -0.00493993 0)
(5.97044 -0.00493249 0)
(5.96873 -0.00492926 0)
(5.96756 -0.00492102 0)
(5.96612 -0.00492703 0)
(5.96527 -0.00492848 0)
(5.96393 -0.00492887 0)
(5.96328 -0.00493508 0)
(5.96227 -0.00494283 0)
(5.96179 -0.00495195 0)
(5.96097 -0.00498707 0)
(5.96076 -0.00500896 0)
(5.96018 -0.00504406 0)
(5.96018 -0.00507877 0)
(5.95995 -0.00511832 0)
(5.96014 -0.00513918 0)
(5.9601 -0.00516884 0)
(5.96057 -0.00519412 0)
(5.96072 -0.00522593 0)
(5.96142 -0.00524931 0)
(5.96177 -0.00527917 0)
(5.96271 -0.00529546 0)
(5.96322 -0.00532264 0)
(5.96441 -0.00533537 0)
(5.96506 -0.00535825 0)
(5.96648 -0.0053717 0)
(5.96728 -0.00539311 0)
(5.96895 -0.00540504 0)
(5.96986 -0.00542377 0)
(5.97176 -0.00543579 0)
(5.97278 -0.00545223 0)
(5.97492 -0.00546301 0)
(5.97604 -0.00547697 0)
(5.97841 -0.00548636 0)
(5.97961 -0.00549774 0)
(5.98218 -0.00550636 0)
(5.98347 -0.00551221 0)
(5.98618 -0.00552263 0)
(5.98756 -0.0055209 0)
(5.9903 -0.00553529 0)
(5.99188 -0.00552502 0)
(5.9945 -0.0055548 0)
(5.9965 -0.00552508 0)
(5.99872 -0.00560358 0)
(6.00189 -0.00553392 0)
(6.00302 -0.00563479 0)
(6.00777 -0.00551621 0)
(6.00707 -0.00565558 0)
(6.01395 -0.005449 0)
(6.01033 -0.00577536 0)
(6.02198 -0.00540031 0)
(6.01298 -0.00593694 0)
(6.03334 -0.00659314 0)
(6.0377 -0.00351337 0)
(5.96893 -0.0149952 0)
(9.39288 0.0365647 0)
(9.38797 0.038187 0)
(9.35655 0.0375727 0)
(9.29944 0.0376131 0)
(9.22386 0.0368829 0)
(9.13561 0.0351032 0)
(9.03685 0.0325847 0)
(8.93108 0.0296854 0)
(8.82337 0.0268039 0)
(8.7158 0.02389 0)
(8.61166 0.0210226 0)
(8.51228 0.0184202 0)
(8.4193 0.0161292 0)
(8.33299 0.0141312 0)
(8.25432 0.0124478 0)
(8.18263 0.0110455 0)
(8.11852 0.00989073 0)
(8.06066 0.00894205 0)
(8.00969 0.00813408 0)
(7.96423 0.00738054 0)
(7.92507 0.0067349 0)
(7.8905 0.00615821 0)
(7.86083 0.00568401 0)
(7.83313 0.0052726 0)
(7.80943 0.00488377 0)
(7.78711 0.0045286 0)
(7.76811 0.00420834 0)
(7.74934 0.00394664 0)
(7.73292 0.00371136 0)
(7.71657 0.00351875 0)
(7.70234 0.00335394 0)
(7.68811 0.00320362 0)
(7.67589 0.00309772 0)
(7.66374 0.00301236 0)
(7.65336 0.00293804 0)
(7.64295 0.002862 0)
(7.63405 0.00279415 0)
(7.62508 0.00272107 0)
(7.61743 0.00265447 0)
(7.60969 0.00258026 0)
(7.60314 0.00250677 0)
(7.59652 0.00243125 0)
(7.59093 0.00235468 0)
(7.58528 0.0022636 0)
(7.58054 0.00217747 0)
(7.57569 0.00210928 0)
(7.57159 0.00206017 0)
(7.56736 0.0020153 0)
(7.5638 0.0019777 0)
(7.56012 0.00194506 0)
(7.55708 0.00192537 0)
(7.55388 0.00190659 0)
(7.55132 0.00188288 0)
(7.54861 0.00185629 0)
(7.54651 0.00185074 0)
(7.54427 0.00185546 0)
(7.54263 0.00185982 0)
(7.54083 0.00186715 0)
(7.5396 0.00187202 0)
(7.53822 0.00188694 0)
(7.5374 0.00189234 0)
(7.5364 0.00189313 0)
(7.53595 0.00190114 0)
(7.5353 0.00190822 0)
(7.53517 0.00191337 0)
(7.53492 0.00191678 0)
(7.53505 0.00191816 0)
(7.5351 0.0019177 0)
(7.53549 0.00191936 0)
(7.53585 0.00191482 0)
(7.53655 0.00191491 0)
(7.53715 0.00191 0)
(7.53815 0.00190987 0)
(7.53899 0.00190689 0)
(7.54027 0.00190179 0)
(7.54133 0.00189878 0)
(7.5429 0.00189361 0)
(7.54412 0.00189065 0)
(7.54596 0.00188305 0)
(7.54731 0.00188095 0)
(7.54941 0.00187264 0)
(7.55083 0.00187328 0)
(7.55322 0.00186269 0)
(7.55466 0.00186726 0)
(7.55738 0.00185419 0)
(7.55872 0.00186184 0)
(7.56193 0.00184217 0)
(7.56301 0.0018577 0)
(7.56696 0.00181574 0)
(7.56749 0.00185254 0)
(7.57242 0.00180331 0)
(7.57204 0.00184793 0)
(7.57835 0.00180246 0)
(7.57625 0.00185967 0)
(7.58565 0.00175107 0)
(7.5795 0.00185407 0)
(7.5968 0.00160226 0)
(7.58132 0.00119867 0)
(7.61878 0.00386889 0)
(7.57061 -0.0141045 0)
(9.40085 0.0229773 0)
(9.42975 0.030481 0)
(9.46069 0.031965 0)
(9.47753 0.0330075 0)
(9.48907 0.0320204 0)
(9.48978 0.0301468 0)
(9.48381 0.027193 0)
(9.46897 0.0241374 0)
(9.44573 0.0213462 0)
(9.41435 0.0186674 0)
(9.37568 0.0162008 0)
(9.3302 0.0139027 0)
(9.27897 0.011968 0)
(9.22316 0.0102907 0)
(9.16431 0.00882254 0)
(9.10375 0.007515 0)
(9.04303 0.00633925 0)
(8.98271 0.00525474 0)
(8.9252 0.00424763 0)
(8.86987 0.00328487 0)
(8.81887 0.00241462 0)
(8.77067 0.00159316 0)
(8.72754 0.000903308 0)
(8.68713 0.000339228 0)
(8.65143 -0.000153638 0)
(8.61776 -0.000540883 0)
(8.58822 -0.000827061 0)
(8.55967 -0.00100097 0)
(8.53458 -0.00115248 0)
(8.5103 -0.00126507 0)
(8.48922 -0.00136774 0)
(8.46866 -0.00146455 0)
(8.45103 -0.00155637 0)
(8.43367 -0.00163551 0)
(8.41879 -0.00170993 0)
(8.40398 -0.00177674 0)
(8.39131 -0.00183448 0)
(8.37862 -0.00188794 0)
(8.36781 -0.00193224 0)
(8.35695 -0.00197431 0)
(8.34773 -0.00201011 0)
(8.33848 -0.00203367 0)
(8.33064 -0.00205068 0)
(8.32277 -0.00205772 0)
(8.31591 -0.00205581 0)
(8.30893 -0.0020779 0)
(8.30289 -0.00210592 0)
(8.29673 -0.00213587 0)
(8.29146 -0.00215865 0)
(8.28608 -0.0021791 0)
(8.28155 -0.00218899 0)
(8.2769 -0.00219932 0)
(8.27305 -0.00220897 0)
(8.26909 -0.00221803 0)
(8.26589 -0.00224967 0)
(8.26259 -0.00230348 0)
(8.26 -0.00234358 0)
(8.25728 -0.00239519 0)
(8.25522 -0.00245059 0)
(8.25303 -0.00250839 0)
(8.25147 -0.00254853 0)
(8.24977 -0.00259502 0)
(8.24866 -0.00263795 0)
(8.24738 -0.00268871 0)
(8.24667 -0.00273094 0)
(8.24581 -0.00277278 0)
(8.24547 -0.00280163 0)
(8.24497 -0.00284185 0)
(8.24496 -0.00286973 0)
(8.24491 -0.00290552 0)
(8.24516 -0.00293136 0)
(8.24544 -0.00296456 0)
(8.24602 -0.00298926 0)
(8.24661 -0.00302024 0)
(8.24752 -0.0030421 0)
(8.24837 -0.00307068 0)
(8.24959 -0.00308967 0)
(8.25063 -0.00311367 0)
(8.25211 -0.00312835 0)
(8.25332 -0.00315102 0)
(8.25507 -0.00316199 0)
(8.25639 -0.00318239 0)
(8.25844 -0.00319056 0)
(8.25982 -0.00321066 0)
(8.26221 -0.00321265 0)
(8.26357 -0.00324088 0)
(8.26645 -0.00323854 0)
(8.26763 -0.00327403 0)
(8.27121 -0.00327445 0)
(8.27193 -0.00330587 0)
(8.27646 -0.00329642 0)
(8.27642 -0.00332264 0)
(8.28201 -0.00329328 0)
(8.28095 -0.00336584 0)
(8.28856 -0.00332502 0)
(8.2853 -0.00354191 0)
(8.29746 -0.00343972 0)
(8.28941 -0.00457399 0)
(8.31508 -0.00262567 0)
(8.30264 -0.0165445 0)
(9.3996 0.0218064 0)
(9.43085 0.0295975 0)
(9.46786 0.0303121 0)
(9.49944 0.0313237 0)
(9.52911 0.0312168 0)
(9.55564 0.0300525 0)
(9.58005 0.0284839 0)
(9.59928 0.0269537 0)
(9.61516 0.0255123 0)
(9.62561 0.0241778 0)
(9.63331 0.0227088 0)
(9.63468 0.0216963 0)
(9.63265 0.0206014 0)
(9.62644 0.0196089 0)
(9.61586 0.018703 0)
(9.60083 0.0178272 0)
(9.58141 0.0169777 0)
(9.55747 0.0160841 0)
(9.52935 0.0151422 0)
(9.49712 0.0141281 0)
(9.46142 0.013074 0)
(9.42258 0.0120302 0)
(9.38218 0.0110489 0)
(9.34073 0.0101127 0)
(9.30031 0.00922923 0)
(9.25988 0.0084061 0)
(9.22233 0.00768017 0)
(9.1861 0.00706065 0)
(9.15343 0.00649145 0)
(9.12224 0.00599281 0)
(9.09442 0.00555312 0)
(9.06779 0.00516456 0)
(9.04411 0.00480989 0)
(9.02064 0.00449869 0)
(9 0.00421525 0)
(8.97946 0.00395819 0)
(8.96155 0.00372056 0)
(8.9437 0.00350005 0)
(8.92828 0.00329223 0)
(8.9129 0.00309807 0)
(8.8997 0.00290762 0)
(8.88659 0.00273607 0)
(8.87529 0.00256641 0)
(8.86397 0.00242157 0)
(8.85421 0.00229739 0)
(8.84438 0.00215774 0)
(8.83591 0.00201835 0)
(8.82736 0.0018802 0)
(8.82002 0.00175218 0)
(8.8126 0.00161471 0)
(8.80629 0.0014872 0)
(8.79989 0.00136002 0)
(8.79452 0.00122873 0)
(8.78905 0.00109244 0)
(8.78454 0.000957297 0)
(8.77994 0.000830577 0)
(8.7762 0.000726613 0)
(8.77233 0.00062331 0)
(8.76924 0.000543693 0)
(8.76602 0.000463616 0)
(8.76352 0.000385717 0)
(8.76087 0.000307296 0)
(8.75889 0.000253048 0)
(8.75676 0.00019692 0)
(8.75526 0.000140213 0)
(8.75361 8.28143e-05 0)
(8.75255 2.9982e-05 0)
(8.75134 -2.78931e-05 0)
(8.75071 -8.20503e-05 0)
(8.74995 -0.000137698 0)
(8.7497 -0.000182962 0)
(8.74941 -0.000243761 0)
(8.74948 -0.000285427 0)
(8.74959 -0.000337317 0)
(8.74997 -0.000386222 0)
(8.75042 -0.000431954 0)
(8.75108 -0.000469383 0)
(8.75174 -0.000509453 0)
(8.75265 -0.000547147 0)
(8.75353 -0.000583612 0)
(8.7547 -0.000617358 0)
(8.75579 -0.000650011 0)
(8.75722 -0.000681638 0)
(8.75852 -0.000713151 0)
(8.7602 -0.000734923 0)
(8.76169 -0.000780726 0)
(8.76366 -0.000796413 0)
(8.76533 -0.000851325 0)
(8.76759 -0.000869359 0)
(8.7694 -0.000918766 0)
(8.77189 -0.000920063 0)
(8.7739 -0.000964176 0)
(8.77652 -0.000934064 0)
(8.77887 -0.00104928 0)
(8.78159 -0.00100171 0)
(8.78443 -0.00133395 0)
(8.78768 -0.00119761 0)
(8.79136 -0.00296015 0)
(8.79902 -0.000254445 0)
(8.80998 -0.018009 0)
(9.39776 0.0183347 0)
(9.42812 0.0258215 0)
(9.46491 0.0260953 0)
(9.49891 0.0271397 0)
(9.531 0.0271866 0)
(9.56238 0.0262914 0)
(9.59287 0.0248752 0)
(9.62061 0.0232826 0)
(9.64597 0.0217713 0)
(9.66895 0.0202686 0)
(9.6899 0.0189387 0)
(9.70853 0.0176986 0)
(9.72517 0.0166373 0)
(9.73983 0.0157946 0)
(9.7527 0.0151333 0)
(9.76362 0.0146019 0)
(9.77279 0.0141769 0)
(9.77967 0.0138023 0)
(9.78467 0.0134417 0)
(9.78666 0.0130461 0)
(9.78585 0.0127748 0)
(9.78228 0.0123525 0)
(9.77546 0.0118969 0)
(9.76524 0.011385 0)
(9.75165 0.0108335 0)
(9.73468 0.0102386 0)
(9.71481 0.00960301 0)
(9.69248 0.00896614 0)
(9.66842 0.00830999 0)
(9.64296 0.00763385 0)
(9.61687 0.00700195 0)
(9.59012 0.00637976 0)
(9.56424 0.00581234 0)
(9.53813 0.00528654 0)
(9.5139 0.0048006 0)
(9.48956 0.00433304 0)
(9.46752 0.00389854 0)
(9.44545 0.00348054 0)
(9.4258 0.00308966 0)
(9.40613 0.00271557 0)
(9.38884 0.00235225 0)
(9.3715 0.0020522 0)
(9.35585 0.00176326 0)
(9.34012 0.00149667 0)
(9.32627 0.00124694 0)
(9.31241 0.00102822 0)
(9.30032 0.00083475 0)
(9.28819 0.000650847 0)
(9.27768 0.000479873 0)
(9.26712 0.00030978 0)
(9.25804 0.000153513 0)
(9.24889 -3.88897e-07 0)
(9.24109 -0.000158916 0)
(9.23324 -0.000325846 0)
(9.22654 -0.000456257 0)
(9.21978 -0.000555432 0)
(9.214 -0.00063511 0)
(9.20814 -0.00071094 0)
(9.20315 -0.000750446 0)
(9.19806 -0.000791399 0)
(9.19379 -0.000823964 0)
(9.18944 -0.000876862 0)
(9.18583 -0.000951049 0)
(9.18214 -0.00103004 0)
(9.17914 -0.00109622 0)
(9.17608 -0.00116201 0)
(9.17365 -0.00121479 0)
(9.17119 -0.00128322 0)
(9.16931 -0.00134604 0)
(9.16744 -0.00140839 0)
(9.16604 -0.00146779 0)
(9.16473 -0.00152389 0)
(9.16374 -0.00157951 0)
(9.16291 -0.00163271 0)
(9.16229 -0.0016824 0)
(9.16189 -0.00173042 0)
(9.16161 -0.00177133 0)
(9.16159 -0.00180969 0)
(9.16165 -0.00184468 0)
(9.16193 -0.00188595 0)
(9.16228 -0.00191844 0)
(9.1629 -0.0019577 0)
(9.16352 -0.00198851 0)
(9.1645 -0.00202688 0)
(9.16532 -0.00205401 0)
(9.16671 -0.002097 0)
(9.16766 -0.00212285 0)
(9.16951 -0.00217333 0)
(9.1705 -0.00219718 0)
(9.17286 -0.00223789 0)
(9.17378 -0.00225578 0)
(9.17673 -0.00229126 0)
(9.17754 -0.00229285 0)
(9.1811 -0.00237794 0)
(9.18188 -0.00237967 0)
(9.18589 -0.00264196 0)
(9.18736 -0.00265394 0)
(9.19179 -0.00408736 0)
(9.19622 -0.00363068 0)
(9.20617 -0.0177154 0)
(9.39591 0.0145846 0)
(9.42524 0.021938 0)
(9.46136 0.0220245 0)
(9.49598 0.0229264 0)
(9.52805 0.0230167 0)
(9.56017 0.0222535 0)
(9.59139 0.0210443 0)
(9.62077 0.0197311 0)
(9.64783 0.018534 0)
(9.67352 0.0174182 0)
(9.69737 0.0164008 0)
(9.72003 0.0155749 0)
(9.74109 0.0148844 0)
(9.76135 0.0143347 0)
(9.78024 0.0139191 0)
(9.79871 0.0135772 0)
(9.81593 0.0133162 0)
(9.83288 0.0130677 0)
(9.84856 0.0128468 0)
(9.86394 0.0126489 0)
(9.87788 0.0123944 0)
(9.89131 0.0121172 0)
(9.90319 0.0118817 0)
(9.91421 0.0116542 0)
(9.92362 0.0114558 0)
(9.93167 0.0112548 0)
(9.93802 0.0110457 0)
(9.94234 0.0108488 0)
(9.94504 0.0105831 0)
(9.9449 0.0104016 0)
(9.94293 0.0101313 0)
(9.93878 0.00980823 0)
(9.93252 0.00948149 0)
(9.92433 0.00911414 0)
(9.91435 0.00871462 0)
(9.90277 0.0082936 0)
(9.88982 0.00785165 0)
(9.8757 0.00741201 0)
(9.86074 0.00695378 0)
(9.84506 0.00651907 0)
(9.8291 0.00605567 0)
(9.8128 0.00563343 0)
(9.79688 0.00525036 0)
(9.78072 0.00488769 0)
(9.76548 0.00454326 0)
(9.75006 0.0042114 0)
(9.7359 0.00389545 0)
(9.72163 0.0035894 0)
(9.70874 0.00330651 0)
(9.69577 0.00303402 0)
(9.68421 0.00278435 0)
(9.67259 0.00255297 0)
(9.66229 0.00233808 0)
(9.65188 0.00216218 0)
(9.64237 0.00198492 0)
(9.63281 0.00179261 0)
(9.6242 0.00162039 0)
(9.61556 0.00144675 0)
(9.60782 0.00126543 0)
(9.60013 0.00109199 0)
(9.59324 0.000946915 0)
(9.58649 0.00078332 0)
(9.58042 0.000591325 0)
(9.57457 0.000399 0)
(9.56928 0.000222114 0)
(9.5643 5.60008e-05 0)
(9.55974 -0.000103181 0)
(9.55557 -0.000241975 0)
(9.55167 -0.000378221 0)
(9.54823 -0.000505159 0)
(9.54489 -0.000631257 0)
(9.54207 -0.000746125 0)
(9.53923 -0.000857057 0)
(9.53693 -0.000955696 0)
(9.53457 -0.00105927 0)
(9.53277 -0.00114621 0)
(9.53086 -0.00123097 0)
(9.52959 -0.00131475 0)
(9.52815 -0.00139376 0)
(9.52737 -0.00146147 0)
(9.52632 -0.00153902 0)
(9.526 -0.00159963 0)
(9.52535 -0.00168 0)
(9.52543 -0.00173142 0)
(9.5252 -0.00179588 0)
(9.52572 -0.00187327 0)
(9.52567 -0.0019217 0)
(9.52674 -0.00200257 0)
(9.52685 -0.00205221 0)
(9.5284 -0.00211799 0)
(9.52868 -0.00216528 0)
(9.53069 -0.00222078 0)
(9.53118 -0.00225295 0)
(9.53354 -0.00235375 0)
(9.53443 -0.00239308 0)
(9.53691 -0.00269396 0)
(9.53879 -0.00281672 0)
(9.54179 -0.0043676 0)
(9.54601 -0.00440666 0)
(9.55231 -0.016801 0)
(9.39499 0.0113288 0)
(9.42269 0.0175896 0)
(9.45807 0.0175052 0)
(9.49304 0.018225 0)
(9.52496 0.0183647 0)
(9.55701 0.0177346 0)
(9.58823 0.0167454 0)
(9.61785 0.0156965 0)
(9.64517 0.0147338 0)
(9.67131 0.0138386 0)
(9.69568 0.0130084 0)
(9.71906 0.0123298 0)
(9.74098 0.011726 0)
(9.76234 0.0112254 0)
(9.78254 0.0108365 0)
(9.80257 0.0105215 0)
(9.82169 0.0102798 0)
(9.84081 0.0100676 0)
(9.85912 0.00988699 0)
(9.87744 0.00971802 0)
(9.89495 0.00956179 0)
(9.91249 0.00939165 0)
(9.92914 0.00925368 0)
(9.94584 0.00912097 0)
(9.96166 0.00901522 0)
(9.97755 0.00890085 0)
(9.99243 0.00880013 0)
(10.0074 0.00869902 0)
(10.0212 0.00863637 0)
(10.0351 0.00855468 0)
(10.0475 0.00846274 0)
(10.06 0.00835765 0)
(10.0706 0.00826915 0)
(10.0814 0.00815899 0)
(10.0899 0.00805046 0)
(10.0985 0.00791675 0)
(10.1046 0.00778655 0)
(10.1106 0.007615 0)
(10.114 0.00745536 0)
(10.1171 0.00722642 0)
(10.1177 0.00700702 0)
(10.1172 0.00684797 0)
(10.1155 0.00661331 0)
(10.1127 0.00634748 0)
(10.1086 0.00606478 0)
(10.1035 0.00576719 0)
(10.0974 0.00545784 0)
(10.0905 0.00514152 0)
(10.0829 0.00481665 0)
(10.0746 0.00448933 0)
(10.0659 0.00415402 0)
(10.0569 0.00383223 0)
(10.0477 0.00348785 0)
(10.0384 0.00317963 0)
(10.0292 0.00288124 0)
(10.02 0.00259979 0)
(10.0111 0.00232975 0)
(10.0022 0.00207019 0)
(9.99364 0.00182548 0)
(9.98531 0.00159382 0)
(9.9773 0.00136044 0)
(9.96965 0.00113743 0)
(9.96225 0.000942403 0)
(9.95532 0.000766928 0)
(9.94858 0.000590981 0)
(9.94236 0.000419652 0)
(9.9363 0.000239004 0)
(9.93074 0.000104779 0)
(9.92509 -2.24146e-05 0)
(9.91993 -0.000142895 0)
(9.91465 -0.000270869 0)
(9.90997 -0.000391865 0)
(9.90514 -0.000512658 0)
(9.901 -0.000629587 0)
(9.89666 -0.000753949 0)
(9.89309 -0.000861714 0)
(9.88925 -0.000968518 0)
(9.88624 -0.00107415 0)
(9.88292 -0.00118228 0)
(9.88049 -0.00128282 0)
(9.8777 -0.0013874 0)
(9.87583 -0.0014838 0)
(9.87355 -0.00158203 0)
(9.87221 -0.00167299 0)
(9.87043 -0.00177576 0)
(9.86958 -0.00184649 0)
(9.86827 -0.00195852 0)
(9.86789 -0.00203104 0)
(9.86707 -0.0021386 0)
(9.86702 -0.00219388 0)
(9.86675 -0.0022976 0)
(9.86693 -0.00234388 0)
(9.86711 -0.00241285 0)
(9.8676 -0.00252828 0)
(9.86822 -0.00261045 0)
(9.86911 -0.00292829 0)
(9.87035 -0.00315783 0)
(9.87209 -0.00472608 0)
(9.87503 -0.00541185 0)
(9.87848 -0.0164249 0)
(9.39444 0.007988 0)
(9.42062 0.0126896 0)
(9.45547 0.0125409 0)
(9.49059 0.0130641 0)
(9.52238 0.0132104 0)
(9.5543 0.0127479 0)
(9.58552 0.0120295 0)
(9.6151 0.0112629 0)
(9.64248 0.0105435 0)
(9.6686 0.00987264 0)
(9.69308 0.00924851 0)
(9.71651 0.0087383 0)
(9.73862 0.00828898 0)
(9.76009 0.00792817 0)
(9.78059 0.00765998 0)
(9.80083 0.00745634 0)
(9.82037 0.00730902 0)
(9.83981 0.00718604 0)
(9.85867 0.00707914 0)
(9.87749 0.00698292 0)
(9.89577 0.00689636 0)
(9.91401 0.00678257 0)
(9.93171 0.00668129 0)
(9.94941 0.00658412 0)
(9.96667 0.0065051 0)
(9.98394 0.00642506 0)
(10.0008 0.00635262 0)
(10.0177 0.00629075 0)
(10.0342 0.00624 0)
(10.0507 0.00621113 0)
(10.0668 0.00616469 0)
(10.083 0.00611347 0)
(10.0986 0.00606967 0)
(10.1144 0.00602737 0)
(10.1294 0.00598211 0)
(10.1446 0.00593795 0)
(10.159 0.00588984 0)
(10.1736 0.00584078 0)
(10.1871 0.00578636 0)
(10.2009 0.00574001 0)
(10.2134 0.00571517 0)
(10.2262 0.00563295 0)
(10.2374 0.00555144 0)
(10.249 0.0054689 0)
(10.2588 0.00539188 0)
(10.2689 0.00530666 0)
(10.2771 0.00522215 0)
(10.2856 0.0051222 0)
(10.292 0.00502116 0)
(10.2987 0.00489552 0)
(10.3032 0.00477365 0)
(10.3079 0.00462369 0)
(10.3105 0.0044844 0)
(10.313 0.00432682 0)
(10.3142 0.00418023 0)
(10.3148 0.00397693 0)
(10.3145 0.00383967 0)
(10.3136 0.00364313 0)
(10.312 0.00342906 0)
(10.3099 0.00321472 0)
(10.3071 0.00299115 0)
(10.304 0.00277204 0)
(10.3003 0.00254734 0)
(10.2964 0.00231877 0)
(10.2922 0.00208041 0)
(10.2878 0.00184872 0)
(10.2831 0.0016119 0)
(10.2786 0.00139153 0)
(10.2738 0.00116707 0)
(10.2693 0.000969215 0)
(10.2645 0.000759208 0)
(10.2601 0.000574731 0)
(10.2555 0.000378016 0)
(10.2513 0.000203569 0)
(10.2468 6.53298e-06 0)
(10.2429 -0.000173711 0)
(10.2387 -0.000366703 0)
(10.2352 -0.000512669 0)
(10.2313 -0.000663219 0)
(10.2281 -0.000803835 0)
(10.2246 -0.000954013 0)
(10.2218 -0.00109086 0)
(10.2188 -0.00123344 0)
(10.2164 -0.00136265 0)
(10.2137 -0.00149723 0)
(10.2116 -0.00161617 0)
(10.2094 -0.00175087 0)
(10.2077 -0.00187522 0)
(10.2058 -0.00198698 0)
(10.2044 -0.00209842 0)
(10.2029 -0.00219885 0)
(10.2017 -0.00229844 0)
(10.2006 -0.00238545 0)
(10.1996 -0.00253117 0)
(10.1988 -0.00263862 0)
(10.1981 -0.0030028 0)
(10.1978 -0.00330996 0)
(10.1976 -0.00484835 0)
(10.1985 -0.00611791 0)
(10.1986 -0.0157012 0)
(9.39406 0.00454632 0)
(9.41913 0.00728861 0)
(9.45366 0.00712332 0)
(9.48883 0.00743235 0)
(9.52054 0.00752724 0)
(9.55233 0.00723918 0)
(9.58358 0.00681006 0)
(9.6131 0.00633642 0)
(9.64053 0.00588241 0)
(9.6666 0.00547071 0)
(9.69113 0.00509237 0)
(9.71453 0.00478439 0)
(9.7367 0.00451405 0)
(9.75813 0.00429538 0)
(9.77872 0.00413173 0)
(9.79892 0.00400459 0)
(9.81856 0.00390992 0)
(9.83799 0.00382992 0)
(9.85697 0.00375831 0)
(9.87582 0.0036983 0)
(9.89425 0.00364495 0)
(9.91255 0.00356582 0)
(9.93047 0.00349522 0)
(9.9483 0.00343148 0)
(9.96583 0.00338439 0)
(9.98331 0.00333756 0)
(10.0005 0.00329553 0)
(10.0177 0.00325749 0)
(10.0347 0.00323089 0)
(10.0516 0.00322709 0)
(10.0684 0.00320332 0)
(10.0852 0.00317325 0)
(10.1017 0.00314995 0)
(10.1182 0.00313082 0)
(10.1345 0.00310908 0)
(10.1509 0.00308746 0)
(10.1669 0.00306519 0)
(10.183 0.00303957 0)
(10.1988 0.00301435 0)
(10.2146 0.00299065 0)
(10.2301 0.00297541 0)
(10.2457 0.00294304 0)
(10.2608 0.00291398 0)
(10.276 0.00288905 0)
(10.2908 0.00286521 0)
(10.3056 0.00284131 0)
(10.3199 0.00281628 0)
(10.3343 0.00279118 0)
(10.3481 0.0027647 0)
(10.362 0.00273791 0)
(10.3751 0.00271191 0)
(10.3884 0.00268769 0)
(10.4009 0.00266083 0)
(10.4135 0.00262524 0)
(10.425 0.00260034 0)
(10.4368 0.00256925 0)
(10.4474 0.00250975 0)
(10.4582 0.00244806 0)
(10.4677 0.00238897 0)
(10.4774 0.00232796 0)
(10.4857 0.00226351 0)
(10.4943 0.002191 0)
(10.5013 0.00211318 0)
(10.5085 0.00202171 0)
(10.5142 0.00192835 0)
(10.5201 0.00182431 0)
(10.5244 0.00172487 0)
(10.5289 0.0016152 0)
(10.532 0.00150826 0)
(10.5354 0.0013914 0)
(10.5375 0.00127114 0)
(10.5397 0.00113147 0)
(10.5409 0.00100918 0)
(10.5421 0.000854165 0)
(10.5426 0.000708884 0)
(10.5428 0.000568892 0)
(10.5426 0.000400939 0)
(10.5421 0.000248502 0)
(10.5413 8.7704e-05 0)
(10.5404 -7.21499e-05 0)
(10.5391 -0.000237191 0)
(10.5377 -0.000400291 0)
(10.536 -0.000562934 0)
(10.5343 -0.000722707 0)
(10.5324 -0.00088172 0)
(10.5305 -0.00103883 0)
(10.5284 -0.00119824 0)
(10.5262 -0.00136563 0)
(10.524 -0.00151137 0)
(10.5217 -0.00165832 0)
(10.5194 -0.00178663 0)
(10.5169 -0.00191045 0)
(10.5144 -0.00202518 0)
(10.5119 -0.00218094 0)
(10.5093 -0.0023365 0)
(10.5066 -0.00268573 0)
(10.504 -0.00310675 0)
(10.5012 -0.00467336 0)
(10.4992 -0.00635498 0)
(10.4959 -0.0144683 0)
(9.39387 0.000961413 0)
(9.41839 0.00131869 0)
(9.45277 0.00114292 0)
(9.48798 0.00123305 0)
(9.51963 0.00123335 0)
(9.55136 0.00113564 0)
(9.58262 0.00103094 0)
(9.61211 0.000880318 0)
(9.63957 0.000725174 0)
(9.66561 0.000602767 0)
(9.69018 0.000491651 0)
(9.71355 0.000402047 0)
(9.73575 0.00032061 0)
(9.75716 0.000251082 0)
(9.77778 0.0002014 0)
(9.79796 0.000166055 0)
(9.81762 0.000145434 0)
(9.83703 0.000133472 0)
(9.85604 0.000122426 0)
(9.87487 0.000123361 0)
(9.89333 0.000127153 0)
(9.91162 0.000105677 0)
(9.92956 8.29957e-05 0)
(9.9474 6.25975e-05 0)
(9.96497 5.10326e-05 0)
(9.98246 3.55926e-05 0)
(9.99972 1.94754e-05 0)
(10.0169 -1.23936e-06 0)
(10.034 -7.68702e-06 0)
(10.051 1.73097e-06 0)
(10.0678 -5.90891e-06 0)
(10.0847 -1.93378e-05 0)
(10.1013 -2.61675e-05 0)
(10.118 -2.74298e-05 0)
(10.1345 -3.13725e-05 0)
(10.151 -3.36577e-05 0)
(10.1673 -3.74864e-05 0)
(10.1836 -4.08507e-05 0)
(10.1997 -4.97496e-05 0)
(10.2158 -5.04177e-05 0)
(10.2318 -4.36573e-05 0)
(10.2477 -4.45328e-05 0)
(10.2634 -5.03354e-05 0)
(10.2792 -5.56409e-05 0)
(10.2947 -6.22558e-05 0)
(10.3103 -6.79831e-05 0)
(10.3256 -7.46051e-05 0)
(10.341 -8.04396e-05 0)
(10.3562 -8.65312e-05 0)
(10.3713 -9.35408e-05 0)
(10.3863 -9.87207e-05 0)
(10.4012 -0.000103251 0)
(10.416 -0.000113436 0)
(10.4307 -0.000127999 0)
(10.4452 -0.00012555 0)
(10.4597 -0.000134739 0)
(10.4738 -0.000143067 0)
(10.4881 -0.00014703 0)
(10.5019 -0.000152059 0)
(10.5158 -0.00015442 0)
(10.5293 -0.000158729 0)
(10.5428 -0.000160726 0)
(10.5558 -0.00016467 0)
(10.5689 -0.000165762 0)
(10.5814 -0.000167947 0)
(10.594 -0.000164105 0)
(10.606 -0.000163285 0)
(10.6179 -0.000168765 0)
(10.6292 -0.000186053 0)
(10.6404 -0.00019602 0)
(10.651 -0.000220871 0)
(10.6614 -0.00024083 0)
(10.6712 -0.000264817 0)
(10.6806 -0.000292424 0)
(10.6894 -0.00031617 0)
(10.6977 -0.000351375 0)
(10.7056 -0.000382546 0)
(10.7127 -0.000433255 0)
(10.7193 -0.000495529 0)
(10.7252 -0.000556399 0)
(10.7306 -0.000624716 0)
(10.7351 -0.000693202 0)
(10.7392 -0.000765535 0)
(10.7423 -0.000832865 0)
(10.745 -0.000905517 0)
(10.7466 -0.000973567 0)
(10.748 -0.00106059 0)
(10.7482 -0.00111403 0)
(10.748 -0.00118386 0)
(10.7471 -0.00126001 0)
(10.7455 -0.00132779 0)
(10.7434 -0.00139459 0)
(10.7407 -0.00145486 0)
(10.7374 -0.00155521 0)
(10.7336 -0.00166171 0)
(10.7292 -0.00194337 0)
(10.7245 -0.00236334 0)
(10.7191 -0.00373962 0)
(10.7136 -0.00567346 0)
(10.706 -0.0127245 0)
(9.39391 -0.00274662 0)
(9.41859 -0.00496303 0)
(9.45306 -0.00513896 0)
(9.48829 -0.00527017 0)
(9.51995 -0.00538288 0)
(9.55168 -0.00527957 0)
(9.58296 -0.00503901 0)
(9.61243 -0.00485182 0)
(9.6399 -0.00469201 0)
(9.66595 -0.00450955 0)
(9.69052 -0.00434249 0)
(9.71389 -0.00420207 0)
(9.73609 -0.00408557 0)
(9.7575 -0.00399696 0)
(9.77812 -0.00392438 0)
(9.7983 -0.00386078 0)
(9.81796 -0.00380276 0)
(9.83738 -0.00374568 0)
(9.85639 -0.00370017 0)
(9.87522 -0.00364299 0)
(9.89368 -0.00358747 0)
(9.91197 -0.00356008 0)
(9.92991 -0.00354308 0)
(9.94775 -0.0035271 0)
(9.96532 -0.00350598 0)
(9.98282 -0.00349034 0)
(10.0001 -0.00347748 0)
(10.0173 -0.0034776 0)
(10.0343 -0.00345887 0)
(10.0514 -0.00343069 0)
(10.0682 -0.00341648 0)
(10.085 -0.00340965 0)
(10.1017 -0.00339801 0)
(10.1184 -0.00338219 0)
(10.1348 -0.00336882 0)
(10.1513 -0.00335436 0)
(10.1676 -0.00334271 0)
(10.1839 -0.00332791 0)
(10.2 -0.00332613 0)
(10.2161 -0.0033092 0)
(10.232 -0.00328843 0)
(10.2479 -0.00327575 0)
(10.2637 -0.00326904 0)
(10.2794 -0.00326092 0)
(10.2949 -0.00325197 0)
(10.3104 -0.00324039 0)
(10.3257 -0.00322894 0)
(10.341 -0.00321533 0)
(10.3561 -0.00320222 0)
(10.3711 -0.00318761 0)
(10.386 -0.00317267 0)
(10.4008 -0.0031506 0)
(10.4155 -0.00313653 0)
(10.43 -0.0031214 0)
(10.4444 -0.00309961 0)
(10.4586 -0.00308618 0)
(10.4726 -0.00307175 0)
(10.4865 -0.00305867 0)
(10.5001 -0.00304973 0)
(10.5136 -0.0030389 0)
(10.5268 -0.00302925 0)
(10.5397 -0.0030181 0)
(10.5524 -0.00300797 0)
(10.5648 -0.00299891 0)
(10.5769 -0.00298796 0)
(10.5886 -0.00297161 0)
(10.6 -0.00294615 0)
(10.6109 -0.00292525 0)
(10.6215 -0.00289666 0)
(10.6316 -0.00287492 0)
(10.6413 -0.00283007 0)
(10.6504 -0.0027832 0)
(10.6591 -0.00272827 0)
(10.6671 -0.00268076 0)
(10.6747 -0.00262006 0)
(10.6816 -0.00255582 0)
(10.688 -0.00249079 0)
(10.6937 -0.00242192 0)
(10.6988 -0.00233832 0)
(10.7032 -0.00224561 0)
(10.707 -0.00214737 0)
(10.7102 -0.00204642 0)
(10.7126 -0.00195119 0)
(10.7146 -0.00185147 0)
(10.7158 -0.00175721 0)
(10.7167 -0.0016294 0)
(10.7167 -0.00154804 0)
(10.7163 -0.0014318 0)
(10.7154 -0.00131984 0)
(10.714 -0.00120236 0)
(10.712 -0.00107719 0)
(10.7095 -0.00096193 0)
(10.7065 -0.000852874 0)
(10.703 -0.000793186 0)
(10.6991 -0.000767778 0)
(10.6946 -0.000909278 0)
(10.6898 -0.00122037 0)
(10.6842 -0.0023993 0)
(10.678 -0.00430528 0)
(10.6694 -0.0101676 0)
(9.39419 -0.00640484 0)
(9.41974 -0.0109651 0)
(9.45454 -0.0111168 0)
(9.48976 -0.0114686 0)
(9.52147 -0.0116791 0)
(9.55329 -0.0113828 0)
(9.58458 -0.0108153 0)
(9.61405 -0.0103138 0)
(9.64151 -0.00985732 0)
(9.66758 -0.00938232 0)
(9.69213 -0.00894897 0)
(9.71552 -0.00858595 0)
(9.7377 -0.00827821 0)
(9.75913 -0.00803746 0)
(9.77972 -0.00785014 0)
(9.79993 -0.00769477 0)
(9.81957 -0.00756351 0)
(9.83901 -0.00743921 0)
(9.858 -0.00733895 0)
(9.87685 -0.00722348 0)
(9.89528 -0.00711334 0)
(9.91357 -0.00703545 0)
(9.93148 -0.00697725 0)
(9.94932 -0.00692566 0)
(9.96684 -0.00687415 0)
(9.98432 -0.00683265 0)
(10.0015 -0.00679617 0)
(10.0187 -0.00678308 0)
(10.0356 -0.00674544 0)
(10.0526 -0.00670352 0)
(10.0693 -0.00667201 0)
(10.086 -0.00664786 0)
(10.1025 -0.00661861 0)
(10.119 -0.00658538 0)
(10.1353 -0.00655149 0)
(10.1515 -0.00651602 0)
(10.1675 -0.00648213 0)
(10.1835 -0.00644299 0)
(10.1991 -0.00641714 0)
(10.2148 -0.00637138 0)
(10.2302 -0.00632515 0)
(10.2454 -0.00628763 0)
(10.2604 -0.00625534 0)
(10.2752 -0.00622394 0)
(10.2897 -0.00619129 0)
(10.304 -0.00615882 0)
(10.318 -0.00612549 0)
(10.3317 -0.00609365 0)
(10.3451 -0.00605969 0)
(10.3581 -0.00603075 0)
(10.3706 -0.00599387 0)
(10.3828 -0.00596436 0)
(10.3945 -0.00591384 0)
(10.4056 -0.00585111 0)
(10.4162 -0.0057838 0)
(10.4263 -0.00571821 0)
(10.4357 -0.00564813 0)
(10.4445 -0.00557294 0)
(10.4525 -0.00549225 0)
(10.4599 -0.00539981 0)
(10.4665 -0.00529903 0)
(10.4724 -0.00518646 0)
(10.4775 -0.0050664 0)
(10.4819 -0.00493814 0)
(10.4854 -0.00481243 0)
(10.4884 -0.00468374 0)
(10.4906 -0.0045479 0)
(10.4924 -0.00439868 0)
(10.4935 -0.0042525 0)
(10.4941 -0.00405715 0)
(10.4941 -0.00392988 0)
(10.4937 -0.00375849 0)
(10.4928 -0.00357456 0)
(10.4916 -0.00339391 0)
(10.4901 -0.00320495 0)
(10.4882 -0.00301422 0)
(10.4861 -0.00282743 0)
(10.4837 -0.00263753 0)
(10.4812 -0.00244566 0)
(10.4785 -0.00225381 0)
(10.4757 -0.00206806 0)
(10.4728 -0.00187978 0)
(10.4699 -0.00169998 0)
(10.467 -0.0015313 0)
(10.464 -0.00137217 0)
(10.4611 -0.00122098 0)
(10.4581 -0.00107002 0)
(10.4552 -0.000938908 0)
(10.4522 -0.00083311 0)
(10.4493 -0.000727959 0)
(10.4464 -0.000591227 0)
(10.4434 -0.00044449 0)
(10.4405 -0.000304532 0)
(10.4376 -0.000182307 0)
(10.4347 -0.000102018 0)
(10.4316 -0.000178095 0)
(10.4285 -0.000475641 0)
(10.4249 -0.00148993 0)
(10.4206 -0.00324355 0)
(10.414 -0.00811389 0)
(9.39466 -0.00995994 0)
(9.42161 -0.0164553 0)
(9.45695 -0.0165732 0)
(9.49209 -0.0171225 0)
(9.52391 -0.0173742 0)
(9.55584 -0.0168867 0)
(9.58718 -0.0160134 0)
(9.61662 -0.0152317 0)
(9.64409 -0.0145131 0)
(9.67017 -0.0137792 0)
(9.69473 -0.0131085 0)
(9.71809 -0.0125472 0)
(9.74026 -0.012065 0)
(9.76167 -0.0116807 0)
(9.78224 -0.0113841 0)
(9.80242 -0.0111464 0)
(9.82202 -0.0109555 0)
(9.8414 -0.0107754 0)
(9.86029 -0.0106321 0)
(9.87906 -0.0104663 0)
(9.89733 -0.0103083 0)
(9.91548 -0.0101837 0)
(9.93316 -0.0100831 0)
(9.9508 -0.00998755 0)
(9.968 -0.0098942 0)
(9.98519 -0.00981295 0)
(10.0019 -0.00974219 0)
(10.0187 -0.00970159 0)
(10.0351 -0.00963489 0)
(10.0514 -0.00956978 0)
(10.0673 -0.00951421 0)
(10.0832 -0.00946487 0)
(10.0986 -0.00941012 0)
(10.1139 -0.0093558 0)
(10.1286 -0.00929821 0)
(10.1432 -0.00924552 0)
(10.1571 -0.00918404 0)
(10.1707 -0.00913761 0)
(10.1836 -0.00908186 0)
(10.1962 -0.00900048 0)
(10.2078 -0.0089168 0)
(10.219 -0.00882938 0)
(10.2291 -0.00874001 0)
(10.2386 -0.00864183 0)
(10.247 -0.00853659 0)
(10.2547 -0.00841632 0)
(10.2611 -0.00828795 0)
(10.2668 -0.00813921 0)