/*--------------------------------*- C++ -*----------------------------------*\
| =========                 |                                                 |
| \\      /  F ield         | OpenFOAM: The Open Source CFD Toolbox           |
|  \\    /   O peration     | Version:  v2012                                 |
|   \\  /    A nd           | Website:  www.openfoam.com                      |
|    \\/     M anipulation  |                                                 |
\*---------------------------------------------------------------------------*/
FoamFile
{
    version     2.0;
    format      ascii;
    class       volScalarField;
    location    "0.156";
    object      nut.air;
}
// * * * * * * * * * * * * * * * * * * * * * * * * * * * * * * * * * * * * * //

dimensions      [0 2 -1 0 0 0 0];


internalField   nonuniform List<scalar> 
5600
(
2.45135e-05
3.47346e-05
4.04096e-05
4.24625e-05
4.2272e-05
4.09699e-05
3.92096e-05
3.75381e-05
3.61144e-05
3.49453e-05
3.40631e-05
3.34342e-05
3.30412e-05
3.27993e-05
3.27026e-05
3.26517e-05
3.26799e-05
3.26895e-05
3.27454e-05
3.27577e-05
3.28084e-05
3.28154e-05
3.28524e-05
3.28787e-05
3.29029e-05
3.2956e-05
3.2961e-05
3.30321e-05
3.30303e-05
3.30941e-05
3.31035e-05
3.31285e-05
3.31721e-05
3.31366e-05
3.32223e-05
3.31393e-05
3.32418e-05
3.31577e-05
3.32269e-05
3.31974e-05
3.31892e-05
3.32434e-05
3.31569e-05
3.3267e-05
3.31575e-05
3.32511e-05
3.32043e-05
3.31988e-05
3.32821e-05
3.31379e-05
3.33457e-05
3.31151e-05
3.33522e-05
3.31624e-05
3.32898e-05
3.32698e-05
3.31966e-05
3.33799e-05
3.31417e-05
3.34246e-05
3.31731e-05
3.33852e-05
3.32767e-05
3.33094e-05
3.33827e-05
3.32727e-05
3.3425e-05
3.33141e-05
3.33989e-05
3.34061e-05
3.33542e-05
3.34887e-05
3.33497e-05
3.35195e-05
3.34024e-05
3.35009e-05
3.34868e-05
3.34726e-05
3.35656e-05
3.34663e-05
3.36247e-05
3.34817e-05
3.36678e-05
3.35085e-05
3.36958e-05
3.35445e-05
3.36951e-05
3.35962e-05
3.36614e-05
3.36539e-05
3.36172e-05
3.37002e-05
3.35489e-05
3.38398e-05
3.32161e-05
3.45225e-05
3.18234e-05
3.71027e-05
2.64638e-05
4.6485e-05
0.00015166
0.000137398
0.000112255
9.86113e-05
9.39211e-05
9.49224e-05
0.000102134
0.000110088
0.000116524
0.000124268
0.000132788
0.000141161
0.000149566
0.000157133
0.000164575
0.00017077
0.000177006
0.000181861
0.000186968
0.000190876
0.000195132
0.000198521
0.000202102
0.000205472
0.000208263
0.000211677
0.000213644
0.000216946
0.000218502
0.00022113
0.000222803
0.000224127
0.000226505
0.000226314
0.000229428
0.000228321
0.000231385
0.000230586
0.000232412
0.000233101
0.000232896
0.000235346
0.000233561
0.000236774
0.000235007
0.000237161
0.000237426
0.000236663
0.000240097
0.000236198
0.000241973
0.000236821
0.0002422
0.000239102
0.000240916
0.000242365
0.000239293
0.00024498
0.000239006
0.000245681
0.00024075
0.000244566
0.000243703
0.00024312
0.000245969
0.000243056
0.000246477
0.000244669
0.000245647
0.00024692
0.000244913
0.000248459
0.000245296
0.000248748
0.000246797
0.000248132
0.000248624
0.000247616
0.000250109
0.000247563
0.000251213
0.000247856
0.000252082
0.000248425
0.000252633
0.000249372
0.000252564
0.000250648
0.000252123
0.000251544
0.000252212
0.000251453
0.000252472
0.000252289
0.000249439
0.000259236
0.000236734
0.000278959
0.000208544
0.000287788
0.00015652
0.000151552
0.000143061
0.000135122
0.000125319
0.00012062
0.000113908
0.000109525
0.000108939
0.000109527
0.000113022
0.000117018
0.000124153
0.000130828
0.000140862
0.000149702
0.000162194
0.000173098
0.000187745
0.000201246
0.000217312
0.000232833
0.000245904
0.00025898
0.00026928
0.000282136
0.000289404
0.000299392
0.000304816
0.000311845
0.000318309
0.000321617
0.000330369
0.000330251
0.000340271
0.000338878
0.000347338
0.00034807
0.000352052
0.000357168
0.00035597
0.000364786
0.000360879
0.000369623
0.000367833
0.000371496
0.000376262
0.000371749
0.000384127
0.00037307
0.000388825
0.000377908
0.000388998
0.000386322
0.000386258
0.000395405
0.00038444
0.000401263
0.000386975
0.000401844
0.000394003
0.000399132
0.000401867
0.000397566
0.000406482
0.00040004
0.000406866
0.000405598
0.00040542
0.000411055
0.000405384
0.000414069
0.000408099
0.000414452
0.0004126
0.000413851
0.000416766
0.000413908
0.000420024
0.000414495
0.000422908
0.0004155
0.000425344
0.000417305
0.000426762
0.000420253
0.000427009
0.000423218
0.000427793
0.000423556
0.000431303
0.00042034
0.000436312
0.00041709
0.000438162
0.000419182
0.00043325
0.00042509
0.000416416
0.000411939
0.000157821
0.000153983
0.000150121
0.000146698
0.000142817
0.000139017
0.000135911
0.000130982
0.000128939
0.000123898
0.000124304
0.000118509
0.000119135
0.000113832
0.000117563
0.000114708
0.0001218
0.000122888
0.00013268
0.00013893
0.00015037
0.000162899
0.000174985
0.000193252
0.000204554
0.000226395
0.000236512
0.000254708
0.000265547
0.00027964
0.000294817
0.000302086
0.000322401
0.00032368
0.00034621
0.000346217
0.00036506
0.000370538
0.000379539
0.000394385
0.000392824
0.000414108
0.000408576
0.00042652
0.000427378
0.000431332
0.000446465
0.000434231
0.000462598
0.000440734
0.000471129
0.000454503
0.000471161
0.000473691
0.000467513
0.000491612
0.00046787
0.000501386
0.000477262
0.000501422
0.000493418
0.000497602
0.000508392
0.000498128
0.000515807
0.000506308
0.000516264
0.000518304
0.000515284
0.000528258
0.000518014
0.000533246
0.000525333
0.000534415
0.000534417
0.000535152
0.000541818
0.000537177
0.000548003
0.000539228
0.000554053
0.000541776
0.000559059
0.000546225
0.000561755
0.000552916
0.000562713
0.000558686
0.000565745
0.000558759
0.000573424
0.000553651
0.00058142
0.000550467
0.000581699
0.000557527
0.000569706
0.00057052
0.000562695
0.000565273
0.000158121
0.000154591
0.00015168
0.000148988
0.000146898
0.000144217
0.000142913
0.000139685
0.000139457
0.000135055
0.000136652
0.000130381
0.000134159
0.000125299
0.000131499
0.00012107
0.000128366
0.000118431
0.000123131
0.000119374
0.000119167
0.000125676
0.000120139
0.000137029
0.000129696
0.000151739
0.000149732
0.000168535
0.000179416
0.000187798
0.000215017
0.000211896
0.00024539
0.000237528
0.000270183
0.000266736
0.000289465
0.000300091
0.000306067
0.000332814
0.000325305
0.000359886
0.000351294
0.000378092
0.000384454
0.000388283
0.000419923
0.000397005
0.000449156
0.000413888
0.000464834
0.000443273
0.000466464
0.000480709
0.000464742
0.000512914
0.000471917
0.000529711
0.000494667
0.000531266
0.000526746
0.000528447
0.000553273
0.00053519
0.000566092
0.000554402
0.000568386
0.000577584
0.000570537
0.000595432
0.00057945
0.000604839
0.000595281
0.000608722
0.000612456
0.000613169
0.000624284
0.000619124
0.000634997
0.000623508
0.000645824
0.000628895
0.000654344
0.00063804
0.000658835
0.000650669
0.000661271
0.000660808
0.000667684
0.000662036
0.000679362
0.000657706
0.000688348
0.000657697
0.000685034
0.000670815
0.000665069
0.00068626
0.00066196
0.000678886
0.000158191
0.000154763
0.000152086
0.000149592
0.00014788
0.000145564
0.000144773
0.000141981
0.000142487
0.000138429
0.000140929
0.000134731
0.000139943
0.000131065
0.00013889
0.000128269
0.000136464
0.000127874
0.000130674
0.000131268
0.000121091
0.000137796
0.000111248
0.000141816
0.000108101
0.000136798
0.000118149
0.000123128
0.000140331
0.000110681
0.000164252
0.000111876
0.000179081
0.000132893
0.000182897
0.000170644
0.000183898
0.000214579
0.000193163
0.000252058
0.000218166
0.000270844
0.000252492
0.000278234
0.000294517
0.000280212
0.000337817
0.00028875
0.00036829
0.000315198
0.000378791
0.000359375
0.000373614
0.000410947
0.000372745
0.000450399
0.000390012
0.000466633
0.000428582
0.000464648
0.000473897
0.000464569
0.000506562
0.000481605
0.000519993
0.000512834
0.000523712
0.000544798
0.000532506
0.000568011
0.000550743
0.000580615
0.000575352
0.000589064
0.000599247
0.000600673
0.000618411
0.000613221
0.000637248
0.000622762
0.000655894
0.000634401
0.000670107
0.000652075
0.000678226
0.000674401
0.000683792
0.00069132
0.000695368
0.000695022
0.000712057
0.00069266
0.0007221
0.00069628
0.0007158
0.000713496
0.000698016
0.000725645
0.000701183
0.000714746
0.00015821
0.000154823
0.000152201
0.000149788
0.000148146
0.000145978
0.000145258
0.00014272
0.000143239
0.000139624
0.000141948
0.000136526
0.000141132
0.000133667
0.000140104
0.000131954
0.000137495
0.000132972
0.000131643
0.000137908
0.000122325
0.000145042
0.000113469
0.000147625
0.000113847
0.000136482
0.000131906
0.000108766
0.000163744
7.68832e-05
0.000186604
6.50627e-05
0.000177416
8.9836e-05
0.000138631
0.000141627
9.68528e-05
0.000187365
8.02787e-05
0.000200728
0.000101506
0.000181319
0.000156661
0.000149148
0.000225262
0.000130213
0.000272429
0.000142155
0.000285623
0.000189483
0.000262485
0.000270813
0.000243422
0.000329054
0.000243436
0.000358164
0.000270213
0.000356595
0.000321295
0.000342107
0.000372081
0.000343962
0.000400469
0.000370735
0.000407572
0.000410075
0.000411914
0.000444575
0.000426835
0.000467379
0.00045259
0.000480863
0.000482593
0.000494398
0.000509068
0.000513138
0.000531394
0.000529857
0.000556792
0.000541933
0.000580935
0.000558815
0.000598245
0.000584288
0.000609427
0.000614579
0.000620389
0.000637
0.000639587
0.000644955
0.000660668
0.000647882
0.000673187
0.000653761
0.000670002
0.000668733
0.000658519
0.000676573
0.00066015
0.00067361
0.000158214
0.000154852
0.000152228
0.000149883
0.000148189
0.000146196
0.000145289
0.000143153
0.000143196
0.000140404
0.000141731
0.000137819
0.000140635
0.000135594
0.000139321
0.000134439
0.000136733
0.000135457
0.000131791
0.000139149
0.000124859
0.000143483
0.000119739
0.000142852
0.000123532
0.000130725
0.000140801
0.000106279
0.000164402
8.11809e-05
0.000175709
7.86777e-05
0.000158949
0.000114254
0.000113447
0.000169706
5.88176e-05
0.000206687
3.294e-05
0.000197259
7.10955e-05
0.000136085
0.000162509
5.08292e-05
0.000238715
6.395e-06
0.00023942
3.07399e-05
0.000218546
7.49941e-05
0.000126878
0.000241248
8.54372e-05
0.000287395
7.1537e-05
0.000265356
0.000128655
0.000214278
0.000213254
0.000188452
0.000264731
0.000205009
0.000272587
0.000250183
0.000273958
0.000300163
0.000288001
0.000328119
0.000304372
0.000340237
0.000330598
0.000351035
0.000358939
0.000367844
0.000379897
0.000389092
0.000400643
0.000403298
0.000428909
0.000414003
0.000453733
0.000432884
0.000470752
0.000461665
0.000483313
0.000495461
0.000499561
0.000521472
0.000524355
0.000536826
0.000547707
0.000547112
0.000564169
0.000554848
0.000567883
0.000564983
0.000565148
0.000570169
0.000562629
0.000576016
0.000158214
0.000154871
0.000152225
0.000149945
0.000148163
0.000146351
0.000145189
0.000143482
0.000142937
0.000141026
0.000141203
0.00013885
0.000139779
0.000137034
0.000138295
0.000135938
0.000136171
0.000136077
0.000132922
0.000137515
0.000128999
0.000138888
0.000126699
0.000137129
0.000129529
0.000129265
0.000138658
0.000116196
0.00014906
0.000105826
0.000151298
0.000109706
0.000138632
0.000130512
0.00011236
0.00015584
8.48698e-05
0.000168547
7.98332e-05
0.000157003
0.000112936
0.000116353
0.000163534
5.69081e-05
0.000191186
2.7916e-05
0.000180656
6.57175e-05
0.000154987
0.000128312
7.90748e-05
0.00021789
4.89419e-06
0.000212389
2.19474e-05
0.000202204
0.00011098
0.00011785
0.000181587
0.000112564
0.000195003
0.000137849
0.000157363
0.000165326
0.000146903
0.000191969
0.000163581
0.000190906
0.000178149
0.00018706
0.000202602
0.000203857
0.000223024
0.000235362
0.000231667
0.000261749
0.000252413
0.000270942
0.000285691
0.000282346
0.000312636
0.00030261
0.000336548
0.000330044
0.000357856
0.000364353
0.000382454
0.000397643
0.000407151
0.000429725
0.000426794
0.000449187
0.00045079
0.000458474
0.00046813
0.00045944
0.000478254
0.000460541
0.000472911
0.000474137
0.000158213
0.000154881
0.00015222
0.000149981
0.000148136
0.000146443
0.000145107
0.00014368
0.000142742
0.000141398
0.000140833
0.000139452
0.00013922
0.000137817
0.000137711
0.000136587
0.000136066
0.000135907
0.000134123
0.000135724
0.00013211
0.000135449
0.000130902
0.000133962
0.000131623
0.000130409
0.00013436
0.000125588
0.000137071
0.000122525
0.000136478
0.000124454
0.000130753
0.0001312
0.000121579
0.000138437
0.000114342
0.000140473
0.000115859
0.000133172
0.000128229
0.000116787
0.000143474
0.000101272
0.000147475
0.00010555
0.000134452
0.000128082
0.000114229
0.000147496
9.12335e-05
0.000158915
8.82896e-05
0.000142728
0.000120838
0.000123373
0.000143992
0.000106944
0.000146507
0.00012091
0.000129335
0.000146997
0.000109155
0.000153332
0.000109917
0.000154263
0.000124485
0.000143876
0.000136781
0.000127048
0.000153773
0.000127876
0.00015989
0.000149713
0.000152885
0.000168834
0.000156754
0.000177938
0.00016794
0.000191165
0.000181149
0.000200155
0.000204698
0.000207721
0.000231833
0.000221688
0.000261329
0.000248201
0.000277418
0.000293089
0.000285365
0.000325738
0.000303426
0.000337794
0.000327133
0.000327485
0.000353474
0.000319935
0.000350457
0.000330335
0.000158212
0.000154884
0.000152215
0.000149992
0.000148119
0.000146471
0.000145063
0.000143745
0.00014265
0.000141524
0.00014067
0.000139654
0.000138988
0.000138061
0.000137491
0.000136729
0.000136072
0.000135671
0.000134663
0.000134838
0.000133325
0.000134037
0.000132298
0.000132936
0.000131869
0.000131322
0.000132021
0.000129464
0.000132163
0.000128175
0.000131395
0.000128238
0.000129277
0.000129557
0.000126465
0.000130823
0.000124765
0.000129925
0.000126402
0.000125222
0.000131768
0.000118178
0.000136565
0.00011535
0.000133284
0.000123706
0.000119661
0.000139345
0.000105126
0.000148486
0.000101892
0.000143124
0.00011421
0.00012499
0.000134005
0.000109937
0.000143268
0.000109384
0.000137701
0.000120752
0.000125619
0.000133066
0.000120229
0.00013822
0.000118922
0.000147388
0.000116041
0.000154443
0.000120451
0.000148704
0.000141509
0.000139649
0.000164214
0.000139688
0.000177276
0.000150841
0.000182945
0.000175108
0.000180909
0.000207198
0.00018334
0.000228408
0.000203062
0.000238393
0.000237928
0.000244233
0.000280622
0.000260386
0.000306845
0.000298605
0.000315719
0.000336508
0.000322973
0.00036023
0.000334405
0.000358653
0.000356762
0.000345848
0.000368605
0.000340287
0.00015821
0.000154881
0.000152206
0.000149983
0.000148099
0.000146458
0.000145025
0.000143729
0.000142585
0.00014151
0.00014057
0.00013964
0.000138855
0.00013803
0.000137351
0.000136633
0.000135983
0.000135433
0.000134693
0.000134414
0.000133455
0.000133532
0.000132297
0.000132694
0.000131304
0.000131777
0.000130583
0.000130664
0.000130199
0.000129346
0.000130057
0.000128032
0.000129802
0.000127189
0.000128968
0.000127124
0.000127697
0.000127104
0.000127364
0.000125425
0.000129394
0.000121953
0.000132154
0.000120336
0.000130804
0.00012473
0.000124028
0.000132814
0.000118561
0.000136573
0.000120643
0.000133732
0.00012787
0.000131127
0.000133296
0.000135623
0.000134365
0.00014548
0.000137382
0.000153484
0.000149439
0.000156557
0.000169019
0.000161489
0.00018557
0.00017861
0.000194063
0.000205824
0.000202357
0.000231145
0.000220028
0.000248516
0.000248118
0.000261774
0.000281043
0.000278165
0.000310785
0.000303608
0.000331622
0.000337002
0.000348194
0.000368619
0.000368806
0.000392988
0.000390431
0.000414888
0.000419457
0.000433343
0.000450472
0.000452569
0.000473788
0.000471933
0.000486277
0.000489478
0.000489057
0.000500299
0.000490159
0.000500565
0.000491908
0.000491325
0.000158208
0.000154873
0.000152189
0.000149958
0.000148061
0.00014641
0.000144957
0.000143652
0.000142478
0.000141397
0.000140415
0.000139482
0.000138646
0.00013781
0.000137091
0.000136326
0.000135684
0.000135011
0.000134361
0.000133877
0.000133044
0.000132963
0.00013166
0.000132295
0.000130208
0.000131775
0.000128883
0.000131069
0.000128168
0.000129656
0.000128552
0.000127247
0.000129952
0.000124552
0.000131213
0.000123256
0.000130938
0.000124566
0.000129082
0.000127574
0.000127711
0.000130845
0.000128847
0.000134354
0.000132734
0.000139448
0.000139516
0.000146267
0.000150624
0.000154435
0.000166097
0.000165649
0.000183248
0.00018249
0.000199217
0.000205951
0.00021464
0.000233115
0.000233247
0.0002594
0.000258537
0.000282028
0.000290261
0.000303185
0.00032006
0.000322308
0.00034166
0.000342409
0.000359099
0.000366548
0.000375293
0.000390444
0.00039438
0.000411789
0.000417529
0.000430902
0.000442568
0.000449904
0.000465657
0.000470495
0.000485883
0.000493835
0.000505252
0.000519789
0.000526826
0.000545826
0.000551782
0.000567709
0.000576734
0.000584368
0.000595958
0.000597044
0.000606992
0.000606804
0.000610191
0.000613439
0.000609519
0.000614554
0.000608607
0.000609974
0.000158201
0.000154852
0.000152147
0.000149893
0.000147964
0.00014628
0.000144783
0.000143433
0.000142199
0.000141063
0.000140003
0.000139009
0.000138077
0.000137172
0.000136354
0.000135497
0.000134777
0.000133967
0.00013328
0.000132587
0.000131776
0.000131445
0.000130163
0.000130602
0.000128323
0.000130071
0.000126529
0.000129694
0.000125559
0.000129037
0.000126092
0.000127832
0.000129009
0.00012754
0.000134202
0.000130533
0.000141116
0.000138815
0.000149953
0.00015285
0.000161882
0.0001711
0.000177892
0.000191985
0.000198401
0.000214868
0.000223103
0.000239329
0.000251427
0.000265152
0.000280972
0.000287233
0.000303733
0.000307712
0.000325528
0.000330952
0.000345508
0.00035651
0.000364858
0.000382285
0.000385668
0.000405877
0.000409634
0.000426379
0.00043617
0.000445964
0.000462354
0.000467649
0.00048561
0.000491794
0.000505807
0.000516634
0.000525646
0.00054015
0.00054695
0.00056133
0.000569116
0.000580205
0.00059041
0.00059837
0.000610405
0.000617839
0.000629912
0.000639221
0.000649696
0.000660822
0.000669018
0.000679473
0.000686065
0.000693131
0.000698759
0.00070201
0.000706178
0.000707461
0.000709063
0.000710283
0.000709053
0.000710247
0.000707936
0.000707459
0.00015818
0.000154796
0.000152025
0.000149707
0.000147678
0.000145885
0.00014425
0.000142742
0.000141335
0.000139995
0.000138742
0.000137533
0.00013638
0.000135244
0.000134173
0.000133087
0.000132045
0.000130874
0.0001298
0.000128708
0.000127676
0.000127073
0.000125997
0.000125964
0.000124953
0.000126791
0.000126557
0.000131098
0.000132614
0.000140018
0.000144496
0.000154023
0.000162238
0.000172529
0.000184874
0.000195341
0.00021129
0.000222371
0.00024034
0.000251044
0.000264427
0.00027543
0.000287216
0.000300667
0.000310874
0.000325783
0.000335378
0.000350309
0.000360636
0.000373967
0.000386455
0.000397029
0.000412321
0.000420052
0.000436927
0.00044356
0.000459137
0.000467923
0.00047896
0.000492111
0.000498005
0.000514438
0.000518037
0.000533916
0.00053983
0.000551039
0.000561747
0.000568121
0.00058168
0.000586277
0.000599146
0.000605463
0.000615094
0.000624194
0.000631006
0.000641183
0.000646592
0.000656142
0.000661791
0.000669924
0.000676576
0.000683573
0.000691513
0.000697619
0.000706042
0.000711653
0.000718937
0.000723948
0.000729274
0.000733246
0.000736304
0.000739318
0.000740333
0.000742592
0.000742081
0.000743592
0.000742459
0.000742771
0.000742105
0.000740423
0.000158113
0.000154621
0.000151613
0.000149104
0.000146667
0.000144525
0.000142363
0.000140373
0.000138357
0.000136485
0.000134755
0.000132831
0.000131009
0.00012904
0.000127417
0.000125774
0.000124118
0.000122507
0.000121951
0.000122127
0.000123965
0.000127102
0.000132188
0.000139027
0.000147484
0.000158113
0.000169553
0.000183469
0.000197301
0.000213772
0.000228471
0.00024262
0.000255238
0.000269126
0.000282436
0.000295394
0.000309571
0.000321509
0.000336154
0.00034759
0.000361798
0.000373473
0.000386173
0.000398414
0.000408964
0.000421547
0.000430578
0.000442879
0.000451231
0.000462433
0.000471289
0.00048015
0.000490593
0.000496853
0.000508564
0.000513152
0.000524746
0.000529722
0.000538721
0.000546388
0.000551379
0.000561816
0.000564127
0.000575305
0.000577723
0.000586669
0.000591829
0.000596889
0.000604858
0.000607557
0.000616327
0.00061906
0.000626233
0.000630476
0.000634492
0.000639689
0.000642574
0.000647834
0.000650448
0.00065532
0.000658348
0.000662626
0.000666474
0.000670008
0.000674552
0.000677303
0.000681826
0.000683894
0.000687608
0.000689288
0.000691384
0.000693194
0.000693402
0.000695392
0.00069441
0.000696006
0.000695057
0.000695467
0.000695548
0.000694382
0.000157849
0.000153942
0.0001501
0.000146711
0.000142569
0.000139331
0.000135252
0.000131833
0.0001282
0.000126015
0.000123571
0.000120697
0.000118649
0.000117785
0.000118587
0.000121025
0.000125573
0.000131881
0.000140417
0.000150781
0.000163424
0.000177683
0.00019333
0.000209807
0.000227053
0.000242539
0.000257013
0.000271646
0.000285324
0.000299429
0.000312037
0.000325251
0.00033697
0.000349061
0.000360017
0.0003708
0.000381359
0.000390684
0.000400846
0.000408865
0.000418236
0.000425758
0.000433101
0.000439331
0.000444695
0.000450974
0.000455217
0.000461337
0.000465046
0.000470524
0.000474445
0.000478699
0.000483419
0.000486163
0.000491781
0.000493386
0.000499161
0.000500824
0.000505399
0.000508444
0.000510891
0.000515703
0.000516385
0.000522016
0.00052244
0.000527171
0.000528919
0.000531662
0.000535131
0.00053626
0.000540553
0.000541362
0.000545202
0.000546668
0.000549434
0.000551697
0.000553419
0.000556246
0.000557308
0.000560412
0.000561388
0.000564323
0.000565797
0.000568066
0.000570337
0.000571616
0.000574399
0.000574844
0.000577468
0.000577644
0.000579228
0.000579866
0.000579902
0.000581245
0.000580117
0.000581619
0.000580399
0.000581114
0.000580796
0.000579969
0.000156641
0.000151208
0.000143351
0.000134629
0.000126078
0.000120991
0.000115008
0.000112505
0.000112456
0.00011419
0.000117961
0.000123464
0.000130604
0.000139125
0.000149054
0.000160158
0.000172605
0.000186203
0.000201288
0.000217281
0.0002335
0.00024694
0.000259672
0.000271868
0.000283084
0.000294135
0.000302587
0.000310118
0.000316651
0.00032299
0.000328485
0.000334085
0.00033879
0.000343593
0.000347751
0.000351721
0.000355586
0.000358797
0.000362472
0.000365136
0.000368539
0.000370962
0.000373899
0.000376367
0.000378633
0.000381212
0.000382896
0.000385502
0.000386843
0.000389265
0.000390652
0.000392551
0.000394345
0.000395512
0.000397855
0.00039833
0.000400994
0.000401281
0.000403588
0.00040444
0.000405747
0.000407576
0.000407829
0.000410387
0.000410166
0.000412634
0.000412838
0.000414448
0.000415569
0.000416212
0.000418075
0.000418213
0.000420206
0.000420407
0.00042204
0.000422628
0.000423665
0.000424742
0.00042521
0.000426739
0.000426907
0.000428592
0.000428866
0.00043027
0.000431011
0.000431719
0.000432989
0.000432968
0.000434469
0.000434083
0.000435218
0.000435089
0.000435315
0.000435839
0.000435145
0.000436131
0.000435101
0.000435854
0.000435241
0.000434968
0.000151621
0.000136817
0.000113478
9.95201e-05
9.76018e-05
9.81308e-05
0.000110573
0.000115045
0.000121818
0.000129687
0.000137976
0.000146236
0.000154211
0.000161681
0.000168583
0.000174823
0.000180491
0.000185568
0.000190198
0.000194423
0.000198339
0.000202066
0.000205557
0.000208849
0.000211869
0.000214685
0.0002173
0.000219744
0.000221865
0.000223857
0.000225472
0.000227067
0.000228306
0.000229595
0.000230604
0.00023161
0.00023251
0.000233251
0.000234116
0.000234654
0.000235482
0.000235921
0.000236661
0.000237141
0.000237724
0.000238316
0.000238683
0.000239362
0.000239577
0.000240265
0.000240451
0.000241024
0.000241345
0.00024167
0.000242247
0.000242266
0.000243085
0.000242925
0.000243776
0.000243728
0.000244298
0.000244635
0.000244749
0.000245496
0.000245271
0.000246189
0.00024595
0.000246695
0.000246754
0.000247111
0.000247579
0.000247596
0.000248309
0.000248176
0.000248896
0.000248844
0.00024938
0.000249564
0.000249821
0.000250319
0.000250326
0.00025105
0.000250948
0.000251662
0.000251659
0.000252082
0.000252367
0.00025234
0.000252898
0.000252549
0.000253136
0.000252788
0.000253075
0.000253051
0.000252853
0.000253231
0.000252691
0.000253186
0.000252662
0.000252795
2.45432e-05
3.47523e-05
4.04101e-05
4.23028e-05
4.20136e-05
4.05608e-05
3.87137e-05
3.70559e-05
3.56101e-05
3.44451e-05
3.35764e-05
3.29762e-05
3.25986e-05
3.2385e-05
3.2287e-05
3.22583e-05
3.22697e-05
3.2298e-05
3.23311e-05
3.23648e-05
3.23936e-05
3.24262e-05
3.24616e-05
3.24992e-05
3.2539e-05
3.25763e-05
3.26137e-05
3.26524e-05
3.26849e-05
3.27186e-05
3.27392e-05
3.27634e-05
3.27721e-05
3.27877e-05
3.27898e-05
3.27969e-05
3.27978e-05
3.27966e-05
3.28e-05
3.27919e-05
3.27987e-05
3.27881e-05
3.27952e-05
3.27878e-05
3.27914e-05
3.27918e-05
3.27886e-05
3.27972e-05
3.27878e-05
3.28014e-05
3.27907e-05
3.28033e-05
3.27985e-05
3.28036e-05
3.28118e-05
3.28043e-05
3.28274e-05
3.28098e-05
3.28404e-05
3.28249e-05
3.28489e-05
3.28491e-05
3.28557e-05
3.28774e-05
3.28659e-05
3.29025e-05
3.28845e-05
3.29214e-05
3.29133e-05
3.29368e-05
3.29485e-05
3.29544e-05
3.2983e-05
3.29771e-05
3.30135e-05
3.30069e-05
3.304e-05
3.30435e-05
3.30652e-05
3.30847e-05
3.30919e-05
3.31259e-05
3.31217e-05
3.31592e-05
3.31531e-05
3.31788e-05
3.31823e-05
3.3186e-05
3.32049e-05
3.31874e-05
3.32149e-05
3.31904e-05
3.32104e-05
3.31978e-05
3.31967e-05
3.32069e-05
3.31841e-05
3.32094e-05
3.31822e-05
3.32026e-05
1.4294e-05
0.000654243
0.00117408
0.00155923
0.0019147
0.00218442
0.00238158
0.00244179
0.0024382
0.00243598
0.00244059
0.00243038
0.00240492
0.00234724
0.00225502
0.0021232
0.00198895
0.00185621
0.00173787
0.00163655
0.0015978
0.00153579
0.00148502
0.00149846
0.00128323
0.00101964
0.000906841
0.000612971
0.000575006
0.000689636
0.000613373
0.000796067
0.00115498
0.00145318
0.00163504
0.00172849
0.00177169
0.00180774
0.00185639
0.00189036
0.00179245
0.0016509
0.00153242
0.00140683
0.00125414
0.00109225
0.000951741
0.000841085
0.000756236
0.00065075
0.000551882
0.00046689
0.000395825
0.000338327
0.000292881
0.000257102
0.000228594
0.00020575
0.000187489
0.000173102
0.000161969
0.00015357
0.000147328
0.000142728
0.000139181
0.000136231
0.00013349
0.000130865
0.000128348
0.000126105
0.000124202
0.000122758
0.000121711
0.000121041
0.000120598
0.000120355
0.000120188
0.000120118
0.000120053
0.000120043
0.000120011
0.000120021
0.000119998
0.000120014
0.000119994
0.000120013
0.000119992
0.000120013
0.000119991
0.000120013
0.000119991
0.000120014
0.00011999
0.000120015
0.00011999
0.000120016
0.000119992
0.00012002
0.00012
0.000120042
0.000194691
0.000412986
0.000856507
0.00123952
0.00158704
0.00185875
0.00206358
0.00221602
0.00232543
0.00235491
0.00234968
0.00233232
0.00230204
0.0022404
0.00214741
0.00201247
0.00187829
0.00173943
0.00162327
0.00147668
0.00139441
0.00131105
0.00119195
0.00119326
0.000976829
0.000666877
0.000641716
0.000435781
0.000400421
0.000651006
0.000564686
0.000616204
0.000969159
0.00131279
0.00154212
0.00166802
0.00172632
0.00176408
0.00180883
0.00183911
0.00177153
0.00164179
0.00153974
0.00141724
0.0012629
0.0011033
0.000967087
0.000840779
0.000712423
0.000599622
0.000502624
0.00042132
0.000355334
0.000303596
0.000263993
0.000233819
0.000210595
0.000192473
0.000178111
0.000166672
0.000157579
0.000150474
0.000144996
0.000140834
0.000137575
0.000134877
0.000132404
0.000130056
0.000127802
0.000125791
0.000124071
0.000122745
0.000121762
0.000121126
0.0001207
0.000120465
0.000120301
0.00012023
0.000120165
0.000120154
0.000120121
0.00012013
0.000120107
0.000120124
0.000120103
0.000120122
0.000120101
0.000120122
0.0001201
0.000120123
0.000120099
0.000120123
0.000120099
0.000120124
0.000120099
0.000120126
0.000120101
0.000120132
0.000120111
0.000120157
0.00047026
0.000368148
0.000556513
0.00084804
0.00117268
0.0014444
0.00165688
0.00182414
0.00194857
0.00204399
0.00211462
0.00215223
0.00214723
0.002097
0.00198892
0.00183416
0.00165334
0.00146337
0.00129807
0.00114135
0.00104371
0.0009735
0.000824175
0.000808414
0.000642989
0.000316844
0.000437959
0.000432274
0.000376265
0.000693931
0.000687734
0.000538151
0.000783201
0.00114599
0.00142181
0.00158497
0.00166225
0.0017034
0.00174404
0.0017694
0.00174693
0.0016402
0.00154697
0.0014007
0.00123667
0.0010728
0.000918635
0.000777811
0.000651847
0.000542284
0.000450019
0.000374903
0.000315956
0.000271308
0.000238288
0.000214032
0.000195976
0.00018211
0.000171022
0.000161917
0.000154354
0.000148167
0.000143191
0.000139292
0.000136195
0.000133657
0.000131389
0.000129284
0.000127278
0.00012549
0.000123949
0.000122743
0.000121827
0.000121223
0.000120809
0.000120577
0.000120412
0.00012034
0.000120271
0.000120259
0.000120224
0.000120233
0.000120208
0.000120226
0.000120203
0.000120224
0.000120201
0.000120224
0.0001202
0.000120224
0.0001202
0.000120225
0.000120199
0.000120226
0.0001202
0.000120229
0.000120203
0.000120237
0.000120216
0.000120269
0.000582092
0.000552281
0.000543468
0.000587624
0.000767354
0.000980354
0.0011764
0.00134896
0.00148439
0.00159497
0.00167814
0.00172939
0.00173302
0.00169413
0.0015888
0.00144778
0.00126075
0.00106687
0.000895197
0.000745541
0.000631513
0.000581728
0.000411421
0.00037923
0.000378804
0.000169909
0.000424837
0.000557885
0.000501559
0.000801783
0.000916324
0.000671257
0.000662597
0.000967572
0.001273
0.0014746
0.00157452
0.00162109
0.00165764
0.00167662
0.00164916
0.00156988
0.00144975
0.00130172
0.00114209
0.000984483
0.000837126
0.000702836
0.000583455
0.000481209
0.000397133
0.000330784
0.000280453
0.000243594
0.000217264
0.000198592
0.000185002
0.000174559
0.000165965
0.000158564
0.000152072
0.000146488
0.000141806
0.000138033
0.000135002
0.000132555
0.00013044
0.00012855
0.000126779
0.000125202
0.000123823
0.000122735
0.000121891
0.000121325
0.000120923
0.000120692
0.000120522
0.000120445
0.000120372
0.000120357
0.000120319
0.000120328
0.000120302
0.000120319
0.000120296
0.000120317
0.000120293
0.000120317
0.000120292
0.000120317
0.000120292
0.000120318
0.000120291
0.00012032
0.000120292
0.000120324
0.000120297
0.000120334
0.000120313
0.000120373
0.000678833
0.000665817
0.000665609
0.000629797
0.000636696
0.000683447
0.00076538
0.000877803
0.000983819
0.00108733
0.0011699
0.00122825
0.00123614
0.00120977
0.0011043
0.000986604
0.000788549
0.000600672
0.000431728
0.000319603
0.000219873
0.000187375
3.18826e-05
0.000182899
0.000469729
0.000321186
0.000492569
0.000698121
0.000699443
0.000959719
0.00118389
0.000967978
0.000713571
0.000826126
0.00110672
0.00133515
0.00145865
0.00151248
0.00154523
0.00155646
0.00152232
0.00144041
0.00132197
0.00117953
0.00102787
0.000880144
0.000743635
0.000620661
0.000512802
0.000421956
0.000348906
0.000292795
0.000251445
0.000222076
0.000201709
0.000187572
0.00017734
0.000169346
0.000162492
0.000156261
0.000150485
0.000145276