/*--------------------------------*- C++ -*----------------------------------*\
| =========                 |                                                 |
| \\      /  F ield         | OpenFOAM: The Open Source CFD Toolbox           |
|  \\    /   O peration     | Version:  v2012                                 |
|   \\  /    A nd           | Website:  www.openfoam.com                      |
|    \\/     M anipulation  |                                                 |
\*---------------------------------------------------------------------------*/
FoamFile
{
    version     2.0;
    format      ascii;
    class       surfaceScalarField;
    location    "0.156";
    object      phi.air;
}
// * * * * * * * * * * * * * * * * * * * * * * * * * * * * * * * * * * * * * //

dimensions      [0 3 -1 0 0 0 0];
oriented        oriented;


internalField   nonuniform List<scalar> 
3672
(
0.0064006
7.14517e-06
0.00639136
8.99623e-06
0.00638142
9.68684e-06
0.00637056
1.06126e-05
0.0063586
1.17119e-05
0.00634559
1.27594e-05
0.00633129
1.40467e-05
0.00631578
1.52582e-05
0.00629637
1.91628e-05
2.80586e-05
0.00626806
0.00641089
4.26004e-06
0.00641309
6.79313e-06
0.00641555
7.2261e-06
0.00641823
7.93236e-06
0.00642104
8.90607e-06
0.00642399
9.8076e-06
0.00642694
1.10891e-05
0.00642967
1.25285e-05
0.00643129
1.75455e-05
2.48537e-05
0.0064345
0.00640988
2.38202e-06
0.00641223
4.44505e-06
0.00641473
4.71802e-06
0.00641752
5.14462e-06
0.00642056
5.87155e-06
0.00642375
6.60995e-06
0.00642716
7.68595e-06
0.00643042
9.26282e-06
0.0064346
1.3366e-05
1.8425e-05
0.00644103
0.00640936
1.0263e-06
0.00641175
2.05189e-06
0.00641429
2.17918e-06
0.00641704
2.39546e-06
0.00642008
2.82902e-06
0.00642335
3.34014e-06
0.00642686
4.1794e-06
0.00643058
5.54009e-06
0.00643542
8.5221e-06
1.19255e-05
0.00644192
0.00640916
-1.33129e-07
0.00641153
-3.17988e-07
0.00641408
-3.68049e-07
0.0064168
-3.30659e-07
0.00641985
-2.20073e-07
0.00642318
1.20093e-08
0.0064268
5.59748e-07
0.0064308
1.54158e-06
0.00643581
3.50708e-06
5.35651e-06
0.00644238
0.00640918
-1.30997e-06
0.00641156
-2.70308e-06
0.00641412
-2.9249e-06
0.00641686
-3.07022e-06
0.00641993
-3.29409e-06
0.00642331
-3.36794e-06
0.00642702
-3.15054e-06
0.00643117
-2.61079e-06
0.00643623
-1.55004e-06
-9.18179e-07
0.00644251
0.00640941
-2.72028e-06
0.00641185
-5.1427e-06
0.00641442
-5.49271e-06
0.00641721
-5.85951e-06
0.00642032
-6.40729e-06
0.00642374
-6.78915e-06
0.00642751
-6.92237e-06
0.00643175
-6.8458e-06
0.00643674
-6.54488e-06
-6.74828e-06
0.00644257
0.00640999
-4.70719e-06
0.0064124
-7.5559e-06
0.00641495
-8.04445e-06
0.00641781
-8.71403e-06
0.00642095
-9.55364e-06
0.0064244
-1.02353e-05
0.00642821
-1.0735e-05
0.00643249
-1.11202e-05
0.00643739
-1.14533e-05
-1.21458e-05
0.00644279
0.00641105
-7.76188e-06
0.00641334
-9.83865e-06
0.00641585
-1.05521e-05
0.00641858
-1.14513e-05
0.00642152
-1.24901e-05
0.00642469
-1.34058e-05
0.00642817
-1.42168e-05
0.00643204
-1.49858e-05
0.00643631
-1.57293e-05
-1.68101e-05
0.00644098
0.00640049
0.0063909
0.0063806
0.0063694
0.00635716
0.006344
0.00633004
0.0063153
0.00629982
0.00628326
0.00618912
0.000122524
-4.3588e-05
0.00598884
8.26136e-05
0.000117663
0.00572442
-0.000168607
0.000433026
0.00550756
-0.000541273
0.000758139
0.0053591
-0.000908015
0.00105647
0.00525264
-0.00120372
0.00131019
0.0051718
-0.0013793
0.00146014
0.00510266
-0.00142725
0.00149639
0.00503456
-0.00137476
0.00144286
0.00496665
-0.00125528
0.00132318
0.00489899
-0.0011028
0.00117046
0.00483222
-0.000945089
0.00101186
0.00476703
-0.000799151
0.000864343
0.00470311
-0.000670988
0.000734905
0.00464094
-0.000563862
0.000626031
0.00458116
-0.000477835
0.00053761
0.0045242
-0.000409794
0.000466757
0.00447037
-0.000355248
0.000409076
0.00442018
-0.000311486
0.00036168
0.00437425
-0.000277428
0.000323358
0.00433255
-0.000250929
0.000292627
0.00429472
-0.000229013
0.000266846
0.00426055
-0.000210128
0.000244294
0.00423018
-0.000194224
0.0002246
0.00420343
-0.000181403
0.000208146
0.00418012
-0.000170809
0.000194124
0.00416011
-0.000161377
0.00018139
0.00414292
-0.000152516
0.000169698
0.00412818
-0.000144552
0.000159295
0.00411556
-0.00013768
0.000150301
0.00410468
-0.000131617
0.000142497
0.00409527
-0.000125972
0.000135384
0.00408704
-0.000120574
0.000128799
0.00407974
-0.000115317
0.000122622
0.00407332
-0.000110451
0.000116866
0.00406776
-0.00010606
0.000111622
0.00406298
-0.000102093
0.000106872
0.00405893
-9.84354e-05
0.000102485
0.00405556
-9.49927e-05
9.83671e-05
0.0040528
-9.17062e-05
9.44661e-05
0.00405061
-8.86448e-05
9.08332e-05
0.00404893
-8.58335e-05
8.75147e-05
0.00404767
-8.3229e-05
8.44886e-05
0.00404677
-8.07777e-05
8.16805e-05
0.00404618
-7.84155e-05
7.90008e-05
0.00404588
-7.6089e-05
7.63914e-05
0.00404583
-7.38537e-05
7.39004e-05
0.00404602
-7.17724e-05
7.15805e-05
0.00404645
-6.98575e-05
6.94331e-05
0.0040471
-6.80767e-05
6.74245e-05
0.00404796
-6.63664e-05
6.55023e-05
0.00404902
-6.46898e-05
6.36377e-05
0.00405024
-6.30851e-05
6.18597e-05
0.00405163
-6.15798e-05
6.01914e-05
0.00405317
-6.01643e-05
5.86248e-05
0.00405485
-5.88271e-05
5.71427e-05
0.00405667
-5.75509e-05
5.5734e-05
0.0040586
-5.63011e-05
5.4373e-05
0.00406062
-5.50817e-05
5.30604e-05
0.00406273
-5.39123e-05
5.18069e-05
0.00406491
-5.28117e-05
5.06276e-05
0.00406717
-5.17657e-05
4.95072e-05
0.0040695
-5.07739e-05
4.84441e-05
0.00407189
-4.98074e-05
4.74156e-05
0.00407434
-4.88765e-05
4.64308e-05
0.00407683
-4.79687e-05
4.54793e-05
0.00407935
-4.71062e-05
4.45772e-05
0.00408192
-4.628e-05
4.37149e-05
0.00408452
-4.54903e-05
4.2893e-05
0.00408714
-4.47187e-05
4.20947e-05
0.00408978
-4.39697e-05
4.13256e-05
0.00409244
-4.32362e-05
4.0578e-05
0.00409511
-4.25287e-05
3.98615e-05
0.00409778
-4.1841e-05
3.91687e-05
0.00410046
-4.11787e-05
3.85037e-05
0.00410313
-4.05257e-05
3.78544e-05
0.00410579
-3.98884e-05
3.72242e-05
0.00410844
-3.92537e-05
3.66028e-05
0.00411108
-3.86366e-05
3.60015e-05
0.00411369
-3.80243e-05
3.54088e-05
0.00411629
-3.74299e-05
3.48363e-05
0.00411886
-3.6836e-05
3.42675e-05
0.0041214
-3.62565e-05
3.37153e-05
0.00412391
-3.56732e-05
3.31619e-05
0.00412639
-3.51045e-05
3.2624e-05
0.00412884
-3.45341e-05
3.20863e-05
0.00413125
-3.39811e-05
3.15664e-05
0.00413363
-3.34284e-05
3.10483e-05
0.00413598
-3.28947e-05
3.05493e-05
0.00413829
-3.23638e-05
3.00541e-05
0.00414056
-3.18597e-05
2.95852e-05
0.0041428
-3.13639e-05
2.91247e-05
0.00414501
-3.09198e-05
2.87135e-05
0.00414718
-3.04849e-05
2.83113e-05
0.00414933
-3.01963e-05
2.80482e-05
0.00415145
-2.9878e-05
2.77548e-05
0.00415358
-3.00395e-05
2.79135e-05
0.00415568
-2.99101e-05
2.78104e-05
0.00415787
-3.12131e-05
2.90182e-05
-3.11751e-05
2.92133e-05
0.00647836
7.86562e-05
0.00651174
4.92392e-05
0.00650174
-0.000158608
0.0064363
-0.00047583
0.00632498
-0.000796695
0.00617908
-0.00105783
0.00601661
-0.00121682
0.00585462
-0.00126527
0.00570352
-0.00122366
0.00556877
-0.00112052
0.00545257
-0.000986599
0.00535426
-0.000846777
0.00527099
-0.000715881
0.0051992
-0.000599206
0.00513572
-0.000500378
0.00507805
-0.000420162
0.00502388
-0.000355627
0.00497123
-0.000302594
0.00491915
-0.000259413
0.00486783
-0.000226109
0.00481787
-0.00020097
0.00476967
-0.000180812
0.00472331
-0.000163767
0.00467926
-0.000150174
0.00463811
-0.000140253
0.00459996
-0.000132657
0.00456471
-0.000126123
0.00453235
-0.000120162
0.00450287
-0.000115073
0.00447616
-0.000110962
0.00445191
-0.000107374
0.0044299
-0.000103958
0.00440989
-0.000100568
0.00439178
-9.71999e-05
0.00437541
-9.40796e-05
0.00436064
-9.12937e-05
0.00434732
-8.87696e-05
0.00433529
-8.64087e-05
0.00432443
-8.413e-05
0.00431463
-8.19104e-05
0.00430577
-7.97894e-05
0.00429769
-7.77514e-05
0.0042903
-7.58381e-05
0.00428357
-7.40464e-05
0.00427745
-7.22982e-05
0.00427191
-7.05452e-05
0.0042669
-6.88481e-05
0.0042624
-6.727e-05
0.00425837
-6.58304e-05
0.0042548
-6.44987e-05
0.00425163
-6.31962e-05
0.00424883
-6.18926e-05
0.00424639
-6.06427e-05
0.00424427
-5.94586e-05
0.00424244
-5.83427e-05
0.0042409
-5.72841e-05
0.00423959
-5.62424e-05
0.00423849
-5.51954e-05
0.00423757
-5.41676e-05
0.00423684
-5.31837e-05
0.00423629
-5.22593e-05
0.00423591
-5.13818e-05
0.00423568
-5.05481e-05
0.00423559
-4.97166e-05
0.00423562
-4.89049e-05
0.00423576
-4.81049e-05
0.00423599
-4.73442e-05
0.00423632
-4.66108e-05
0.00423674
-4.59061e-05
0.00423723
-4.52075e-05
0.00423778
-4.45223e-05
0.00423839
-4.38409e-05
0.00423904
-4.31781e-05
0.00423972
-4.25274e-05
0.00424044
-4.18962e-05
0.00424118
-4.12675e-05
0.00424194
-4.06483e-05
0.00424271
-4.00254e-05
0.00424349
-3.94155e-05
0.00424427
-3.88064e-05
0.00424506
-3.82124e-05
0.00424583
-3.76148e-05
0.00424661
-3.70296e-05
0.00424737
-3.64381e-05
0.00424813
-3.586e-05
0.00424887
-3.52788e-05
0.00424961
-3.47146e-05
0.00425033
-3.41492e-05
0.00425104
-3.36027e-05
0.00425173
-3.3058e-05
0.00425241
-3.25404e-05
0.00425308
-3.20308e-05
0.00425373
-3.15738e-05
0.00425437
-3.11261e-05
0.004255
-3.08259e-05
0.00425563
-3.05012e-05
0.00425624
-3.0651e-05
0.00425686
-3.05282e-05
0.00425752
-3.18818e-05
-3.17329e-05
0.00647001
4.96757e-05
0.00650349
1.5756e-05
0.00650081
-0.000155927
0.00644848
-0.000423501
0.00634924
-0.000697455
0.00621162
-0.000920202
0.00605283
-0.00105804
0.00589069
-0.00110313
0.00573793
-0.0010709
0.00560289
-0.000985479
0.00548875
-0.000872458
0.00539514
-0.000753166
0.00531914
-0.00063988
0.00525764
-0.000537705
0.00520808
-0.000450825
0.00516822
-0.000380296
0.00513532
-0.000322727
0.00510696
-0.000274233
0.00508193
-0.000234387
0.00505954
-0.000203716
0.00503852
-0.000179952
0.00501748
-0.000159774
0.00499563
-0.000141913
0.00497268
-0.00012723
0.00494863
-0.000116201
0.00492346
-0.000107491
0.00489705
-9.97138e-05
0.00486946
-9.25701e-05
0.00484101
-8.66237e-05
0.00481217
-8.21233e-05
0.00478359
-7.87891e-05
0.00475568
-7.6049e-05
0.00472867
-7.35618e-05
0.00470295
-7.14761e-05
0.00467876
-6.98857e-05
0.00465621
-6.87433e-05
0.00463527
-6.78377e-05
0.00461584
-6.69784e-05
0.00459779
-6.60786e-05
0.00458102
-6.51417e-05
0.00456546
-6.4221e-05
0.00455101
-6.331e-05
0.00453762
-6.24404e-05
0.00452518
-6.16052e-05
0.00451361
-6.0729e-05
0.00450287
-5.98101e-05
0.00449294
-5.89126e-05
0.00448376
-5.80948e-05
0.00447527
-5.7341e-05
0.00446736
-5.65858e-05
0.00445997
-5.58042e-05
0.00445309
-5.50187e-05
0.00444672
-5.42746e-05
0.00444082
-5.35567e-05
0.00443536
-5.28761e-05
0.0044303
-5.22303e-05
0.00442563
-5.15724e-05
0.00442132
-5.0879e-05
0.00441733
-5.0183e-05
0.00441366
-4.95109e-05
0.00441028
-4.88802e-05
0.00440717
-4.82695e-05
0.00440426
-4.76459e-05
0.00440154
-4.69967e-05
0.00439899
-4.6353e-05
0.0043966
-4.57125e-05
0.00439436
-4.51003e-05
0.00439224
-4.44989e-05
0.00439025
-4.39139e-05
0.00438836
-4.33176e-05
0.00438656
-4.27225e-05
0.00438484
-4.21167e-05
0.00438318
-4.15206e-05
0.00438158
-4.09275e-05
0.00438003
-4.03473e-05
0.00437853
-3.97611e-05
0.00437706
-3.91786e-05
0.00437562
-3.85861e-05
0.0043742
-3.80034e-05
0.00437282
-3.74173e-05
0.00437145
-3.68452e-05
0.0043701
-3.6267e-05
0.00436877
-3.56999e-05
0.00436746
-3.5125e-05
0.00436616
-3.45632e-05
0.00436488
-3.39977e-05
0.00436361
-3.34491e-05
0.00436236
-3.28988e-05
0.00436113
-3.23673e-05
0.00435991
-3.18374e-05
0.0043587
-3.13343e-05
0.00435751
-3.08401e-05
0.00435633
-3.03963e-05
0.00435517
-2.99641e-05
0.00435402
-2.96746e-05
0.00435288
-2.93658e-05
0.00435175
-2.95208e-05
0.00435065
-2.94233e-05
0.0043495
-3.07284e-05
-3.06845e-05
0.0064645
2.71009e-05
0.00648861
-8.35554e-06
0.00648172
-0.000149035
0.00642849
-0.000370269
0.00633104
-0.000600006
0.00619798
-0.000787149
0.0060446
-0.000904648
0.00588737
-0.000945902
0.00573868
-0.000922215
0.00560631
-0.000853101
0.0054936
-0.000759751
0.00540021
-0.000659781
0.0053235
-0.000563166
0.00526115
-0.000475358
0.00521137
-0.000401037
0.00517167
-0.0003406
0.00513897
-0.000290026
0.00511149
-0.000246751
0.00508914
-0.00021204
0.00507155
-0.000186122
0.00505695
-0.000165352
0.00504362
-0.000146442
0.00503159
-0.000129887
0.0050217
-0.000117337
0.00501355
-0.000108051
0.00500587
-9.98162e-05
0.00499789
-9.17364e-05
0.00498964
-8.4316e-05
0.00498124
-7.82275e-05
0.00497257
-7.34501e-05
0.0049633
-6.95182e-05
0.00495306
-6.58105e-05
0.00494153
-6.20293e-05
0.00492861
-5.85599e-05
0.0049145
-5.57694e-05
0.0048994
-5.36513e-05
0.00488351
-5.19466e-05
0.00486694
-5.04059e-05
0.00484981
-4.89511e-05
0.00483231
-4.764e-05
0.00481471
-4.66233e-05
0.00479742
-4.60175e-05
0.00478067
-4.56931e-05
0.0047645
-4.54259e-05
0.00474892
-4.51501e-05
0.00473403
-4.49244e-05
0.00471993
-4.48072e-05
0.00470662
-4.47853e-05
0.00469405
-4.47787e-05
0.00468217
-4.47011e-05
0.0046709
-4.45389e-05
0.00466023
-4.43408e-05
0.0046501
-4.41468e-05
0.0046405
-4.39569e-05
0.00463139
-4.37703e-05
0.00462274
-4.35799e-05
0.00461454
-4.33719e-05
0.00460678
-4.31216e-05
0.00459944
-4.28431e-05
0.00459249
-4.2559e-05
0.00458589
-4.22791e-05
0.00457961
-4.19901e-05
0.00457362
-4.16569e-05
0.0045679
-4.12725e-05
0.00456241
-4.08619e-05
0.00455713
-4.04305e-05
0.00455202
-3.99962e-05
0.00454707
-3.95502e-05
0.00454226
-3.91007e-05
0.00453756
-3.86202e-05
0.00453297
-3.8127e-05
0.00452846
-3.76095e-05
0.00452403
-3.70939e-05
0.00451968
-3.65732e-05
0.00451539
-3.60607e-05
0.00451117
-3.55361e-05
0.004507
-3.50135e-05
0.00450289
-3.44785e-05
0.00449884
-3.39512e-05
0.00449485
-3.3422e-05
0.00449091
-3.29052e-05
0.00448702
-3.23824e-05
0.00448319
-3.18691e-05
0.00447941
-3.13485e-05
0.00447569
-3.0841e-05
0.00447203
-3.03305e-05
0.00446841
-2.98372e-05
0.00446486
-2.93421e-05
0.00446136
-2.88664e-05
0.00445791
-2.83921e-05
0.00445452
-2.79445e-05
0.00445119
-2.75066e-05
0.00444791
-2.71155e-05
0.00444468
-2.67393e-05
0.0044415
-2.6492e-05
0.00443837
-2.62406e-05
0.00443525
-2.63967e-05
0.00443221
-2.63877e-05
0.00442904
-2.75537e-05
-2.78742e-05
0.00645963
9.85241e-06
0.00647551
-2.42332e-05
0.00646423
-0.000137754
0.00641073
-0.000316772
0.00631603
-0.000505311
0.00618842
-0.000659538
0.00604149
-0.000757713
0.00588982
-0.000794232
0.00574498
-0.000777378
0.00561485
-0.000722971
0.00550309
-0.000647987
0.00540941
-0.000566101
0.00533174
-0.000485495
0.00526872
-0.000412342
0.00521859
-0.000350908
0.00517793
-0.000299943
0.00514371
-0.000255806
0.00511549
-0.000218525
0.00509349
-0.000190039
0.00507591
-0.00016854
0.00506014
-0.000149588
0.00504579
-0.000132095
0.00503419
-0.000118285
0.00502544
-0.000108582
0.005018
-0.000100616
0.0050107
-9.25106e-05
0.00500374
-8.47766e-05
0.00499799
-7.85687e-05
0.00499369
-7.39311e-05
0.00499024
-6.99976e-05
0.00498684
-6.61184e-05
0.00498317
-6.21396e-05
0.00497965
-5.85092e-05
0.0049767
-5.56077e-05
0.00497411
-5.31844e-05
0.00497151
-5.10487e-05
0.00496857
-4.90074e-05
0.00496508
-4.6911e-05
0.004961
-4.48702e-05
0.00495642
-4.30642e-05
0.00495137
-4.15779e-05
0.00494576
-4.04056e-05
0.00493943
-3.93649e-05
0.00493227
-3.82635e-05
0.00492424
-3.7115e-05
0.0049154
-3.60853e-05
0.00490589
-3.53028e-05
0.00489586
-3.47545e-05
0.00488541
-3.43301e-05
0.00487464
-3.39297e-05
0.00486363
-3.35243e-05
0.00485245
-3.31652e-05
0.00484121
-3.29002e-05
0.00483002
-3.2768e-05
0.00481896
-3.27138e-05
0.00480804
-3.26641e-05
0.00479727
-3.25979e-05
0.00478668
-3.25288e-05
0.0047763
-3.24644e-05
0.00476614
-3.24035e-05
0.00475619
-3.23295e-05
0.00474644
-3.22385e-05
0.00473691
-3.21299e-05
0.00472762
-3.19806e-05
0.00471854
-3.17802e-05
0.00470965
-3.15387e-05
0.00470092
-3.12703e-05
0.00469236
-3.0985e-05
0.00468394
-3.06838e-05
0.00467566
-3.03437e-05
0.00466752
-2.99849e-05
0.00465951
-2.95962e-05
0.00465162
-2.92047e-05
0.00464385
-2.88047e-05
0.0046362
-2.84092e-05
0.00462866
-2.80006e-05
0.00462125
-2.75948e-05
0.00461394
-2.71748e-05
0.00460675
-2.67634e-05
0.00459968
-2.63482e-05
0.00459272
-2.59453e-05
0.00458587
-2.55355e-05
0.00457914
-2.51354e-05
0.00457252
-2.4731e-05
0.00456602
-2.43386e-05
0.00455964
-2.39458e-05
0.00455337
-2.35687e-05
0.00454722
-2.31922e-05
0.00454118
-2.28336e-05
0.00453527
-2.24779e-05
0.00452947
-2.2147e-05
0.00452379
-2.1827e-05
0.00451822
-2.15467e-05
0.00451277
-2.12865e-05
0.00450741
-2.11292e-05
0.00450216
-2.09954e-05
0.00449693
-2.11596e-05
0.00449186
-2.132e-05
0.00448653
-2.22247e-05
-2.32463e-05
0.00645566
-3.30157e-06
0.00646519
-3.37648e-05
0.00645042
-0.000122979
0.00639697
-0.000263323
0.00630461
-0.00041295
0.00618116
-0.000536095
0.00603902
-0.000615569
0.00589156
-0.000646772
0.00574988
-0.000635694
0.00562181
-0.000594901
0.00551084
-0.000537019
0.0054167
-0.000471965
0.00533841
-0.000407207
0.00527509
-0.000349014
0.00522408
-0.000299904
0.00518161
-0.000257473
0.00514594
-0.000220134
0.00511766
-0.000190247
0.00509573
-0.00016811
0.00507674
-0.000149551
0.0050592
-0.000132044
0.00504467
-0.000117568
0.00503386
-0.000107473
0.00502498
-9.97028e-05
0.00501623
-9.18621e-05
0.00500776
-8.40453e-05
0.00500078
-7.77919e-05
0.00499556
-7.3349e-05
0.00499129
-6.96686e-05
0.00498709
-6.57905e-05
0.00498268
-6.1715e-05
0.00497871
-5.81646e-05
0.00497568
-5.54804e-05
0.00497334
-5.32648e-05
0.00497123
-5.10788e-05
0.00496899
-4.88127e-05
0.00496666
-4.66679e-05
0.0049646
-4.48589e-05
0.00496299
-4.32566e-05
0.00496162
-4.16958e-05
0.00496027
-4.0225e-05
0.00495878
-3.89157e-05
0.00495714
-3.7723e-05
0.00495543
-3.65558e-05
0.00495368
-3.53698e-05
0.00495183
-3.4236e-05
0.00494977
-3.32355e-05
0.00494736
-3.23465e-05
0.00494451
-3.14805e-05
0.00494117
-3.05864e-05
0.00493732
-2.96744e-05
0.00493295
-2.87969e-05
0.00492803
-2.79808e-05
0.0049225
-2.72375e-05
0.00491631
-2.65235e-05
0.00490944
-2.58003e-05
0.00490192
-2.50759e-05
0.00489379
-2.43925e-05
0.00488508
-2.37611e-05
0.00487585
-2.31757e-05
0.00486614
-2.26177e-05
0.00485599
-2.20881e-05
0.00484546
-2.15971e-05
0.00483462
-2.11411e-05
0.00482355
-2.07099e-05
0.00481231
-2.03033e-05
0.00480097
-1.9922e-05
0.00478955
-1.95705e-05
0.0047781
-1.92339e-05
0.00476668
-1.89191e-05
0.0047553
-1.86109e-05
0.00474402
-1.83168e-05
0.00473285
-1.80315e-05
0.0047218
-1.77554e-05
0.00471089
-1.7497e-05
0.00470013
-1.72405e-05
0.00468953
-1.69978e-05
0.0046791
-1.67461e-05
0.00466885
-1.65109e-05
0.00465878
-1.62749e-05
0.00464889
-1.60568e-05
0.00463919
-1.58408e-05
0.00462969
-1.56346e-05
0.00462039
-1.54316e-05
0.00461129
-1.52375e-05
0.0046024
-1.505e-05
0.0045937
-1.48735e-05
0.00458521
-1.47034e-05
0.00457692
-1.45443e-05
0.00456884
-1.43924e-05
0.00456095
-1.42559e-05
0.00455325
-1.41298e-05
0.00454573
-1.40314e-05
0.0045384
-1.39559e-05
0.00453122
-1.39432e-05
0.00452421
-1.39889e-05
0.00451723
-1.41738e-05
0.00451048
-1.45789e-05
0.00450335
-1.50863e-05
-1.71152e-05
0.00645273
-1.34585e-05
0.00645752
-3.85542e-05
0.00643989
-0.000105347
0.00638638
-0.000209818
0.00629583
-0.000322398
0.00617559
-0.000415851
0.00603718
-0.000477157
0.00589296
-0.000502557
0.0057536
-0.000496335
0.0056266
-0.000467895
0.00551514
-0.000425563
0.00541952
-0.00037634
0.00533997
-0.000327658
0.00527551
-0.000284561
0.0052221
-0.000246489
0.00517688
-0.000212252
0.00514044
-0.000183699
0.00511202
-0.00016182
0.00508775
-0.000143843
0.00506563
-0.000127432
0.00504704
-0.000113457
0.00503261
-0.00010313
0.00502032
-9.51916e-05
0.00500834
-8.77227e-05
0.004997
-8.05156e-05
0.00498742
-7.44707e-05
0.00497958
-6.9948e-05
0.00497245
-6.6223e-05
0.00496522
-6.24315e-05
0.00495796
-5.85304e-05
0.00495134
-5.51018e-05
0.00494557
-5.23919e-05
0.00494021
-5.01224e-05
0.00493483
-4.78824e-05
0.00492924
-4.54931e-05
0.00492366
-4.32247e-05
0.00491832
-4.13365e-05
0.00491319
-3.97261e-05
0.0049081
-3.81647e-05
0.00490293
-3.65276e-05
0.00489761
-3.49065e-05
0.00489217
-3.34674e-05
0.00488666
-3.22178e-05
0.00488113
-3.10282e-05
0.00487557
-2.98053e-05
0.00486993
-2.85945e-05
0.00486416
-2.74677e-05
0.00485824
-2.64283e-05
0.00485219
-2.54261e-05
0.00484604
-2.44381e-05
0.00483983
-2.34667e-05
0.00483357
-2.25337e-05
0.00482722
-2.16378e-05
0.00482077
-2.07806e-05
0.00481418
-1.99336e-05
0.00480746
-1.90842e-05
0.00480063
-1.82474e-05
0.0047937
-1.74561e-05
0.00478663
-1.6697e-05
0.00477941
-1.59518e-05
0.00477199
-1.52032e-05
0.00476437
-1.44669e-05
0.00475654
-1.37643e-05
0.0047485
-1.31024e-05
0.00474026
-1.24675e-05
0.00473181
-1.18545e-05
0.00472315
-1.12655e-05
0.00471429
-1.07107e-05
0.00470525
-1.01895e-05
0.00469604
-9.71048e-06
0.0046867
-9.27228e-06
0.00467725
-8.87004e-06
0.00466773
-8.50243e-06
0.00465814
-8.16621e-06
0.00464851
-7.86607e-06
0.00463887
-7.60138e-06
0.00462924
-7.36699e-06
0.00461965
-7.1637e-06
0.00461013
-6.98589e-06
0.00460069
-6.837e-06
0.00459135
-6.71293e-06
0.00458212
-6.61449e-06
0.00457302
-6.53576e-06
0.00456407
-6.47699e-06
0.00455526
-6.43391e-06
0.00454662
-6.4088e-06
0.00453815
-6.39794e-06
0.00452984
-6.40136e-06
0.00452171
-6.41425e-06
0.00451376
-6.43801e-06
0.00450598
-6.47091e-06
0.00449836
-6.51301e-06
0.0044909
-6.57138e-06
0.0044836
-6.65326e-06
0.00447641
-6.75812e-06
0.00446937
-6.95126e-06
0.00446232
-7.12126e-06
0.00445547
-7.72708e-06
0.00444816
-7.77462e-06
-1.07112e-05
0.0064508
-2.14626e-05
0.00645216
-3.99198e-05
0.00643219
-8.53722e-05
0.00637824
-0.000155876
0.00628837
-0.000232521
0.0061693
-0.00029678
0.00603184
-0.000339704
0.00588761
-0.000358328
0.0057473
-0.000356018
0.00561781
-0.00033841
0.00550226
-0.00031001
0.00540298
-0.000277067
0.00531998
-0.000244653
0.00524981
-0.000214391
0.00518996
-0.000186643
0.00514034
-0.000162635
0.00509952
-0.000142878
0.00506412
-0.00012642
0.0050324
-0.000112118
0.00500488
-9.99105e-05
0.00498131
-8.98941e-05
0.00495999
-8.18017e-05
0.00493972
-7.4921e-05
0.00492078
-6.87827e-05
0.0049036
-6.33393e-05
0.00488776
-5.86331e-05
0.00487245
-5.46373e-05
0.00485736
-5.11296e-05
0.00484274
-4.78144e-05
0.00482883
-4.46176e-05
0.00481545
-4.17246e-05
0.00480229
-3.92268e-05
0.00478918
-3.70116e-05
0.00477619
-3.48989e-05
0.00476349
-3.27869e-05
0.00475106
-3.07994e-05
0.00473879
-2.90624e-05
0.00472658
-2.75154e-05
0.00471445
-2.60356e-05
0.00470248
-2.456e-05
0.00469071
-2.31351e-05
0.00467909
-2.1853e-05
0.00466759
-2.07197e-05
0.00465623
-1.96593e-05
0.00464503
-1.86054e-05
0.00463401
-1.75803e-05
0.00462317
-1.66307e-05
0.00461251
-1.57651e-05
0.00460204
-1.49497e-05
0.00459176
-1.4166e-05
0.00458171
-1.34118e-05
0.00457187
-1.26977e-05
0.00456226
-1.20225e-05
0.00455286
-1.13861e-05
0.0045437
-1.07741e-05
0.0045348
-1.01768e-05
0.00452615
-9.60092e-06
0.00451775
-9.06171e-06
0.00450961
-8.55207e-06
0.00450172
-8.05702e-06
0.00449408
-7.56512e-06
0.0044867
-7.088e-06
0.00447957
-6.63663e-06
0.00447268
-6.21455e-06
0.00446602
-5.8076e-06
0.00445958
-5.41308e-06
0.00445334
-5.02863e-06
0.0044473
-4.66602e-06
0.00444143
-4.32085e-06
0.00443572
-3.99951e-06
0.00443015
-3.70613e-06
0.00442472
-3.4319e-06
0.00441939
-3.17598e-06
0.00441416
-2.9407e-06
0.00440902
-2.72436e-06
0.00440396
-2.53532e-06
0.00439895
-2.36429e-06
0.00439401
-2.21618e-06
0.0043891
-2.08422e-06
0.00438424
-1.97129e-06
0.0043794
-1.87656e-06
0.00437459
-1.79827e-06
0.00436979
-1.73761e-06
0.004365
-1.68938e-06
0.00436022
-1.65567e-06
0.00435545
-1.63473e-06
0.00435068
-1.62828e-06
0.00434591
-1.63338e-06
0.00434115
-1.64985e-06
0.00433638
-1.67635e-06
0.00433163
-1.71365e-06
0.00432688
-1.76312e-06
0.00432213
-1.82482e-06
0.00431739
-1.91367e-06
0.00431263
-2.0002e-06
0.00430787
-2.19254e-06
0.00430301
-2.25833e-06
0.00429815
-2.8657e-06
0.00429293
-2.55759e-06
-5.63627e-06
0.00644653
-2.70128e-05
0.00644397
-3.73617e-05
0.00642001
-6.141e-05
0.00636214
-9.80092e-05
0.00626748
-0.000137856
0.00614212
-0.000171423
0.00599643
-0.000194013
0.00584217
-0.000204066
0.00568925
-0.000203099
0.00554463
-0.000193795
0.00541348
-0.000178863
0.00529761
-0.00016119
0.00519604
-0.000143081
0.00510756
-0.000125912
0.0050313
-0.00011039
0.00496547
-9.67998e-05
0.00490763
-8.50363e-05
0.00485603
-7.4825e-05
0.00480995
-6.60362e-05
0.00476867
-5.86264e-05
0.00473107
-5.23e-05
0.00469634
-4.70659e-05
0.00466404
-4.26213e-05
0.00463413
-3.88722e-05
0.00460634
-3.55571e-05
0.0045802
-3.2484e-05
0.0045553
-2.97384e-05
0.00453155
-2.73824e-05
0.00450901
-2.5274e-05
0.00448763
-2.32417e-05
0.00446724
-2.13268e-05
0.00444763
-1.96175e-05
0.00442875
-1.81315e-05
0.00441062
-1.67763e-05
0.0043933
-1.54598e-05
0.00437671
-1.42143e-05
0.00436076
-1.31081e-05
0.00434537
-1.21308e-05
0.00433057
-1.12288e-05
0.00431637
-1.03598e-05
0.00430276
-9.53024e-06
0.00428969
-8.78232e-06
0.0042771
-8.12685e-06
0.00426497
-7.53042e-06
0.00425332
-6.95378e-06
0.00424214
-6.40225e-06
0.00423141
-5.89851e-06
0.00422109
-5.44704e-06
0.00421117
-5.03245e-06
0.00420165
-4.64211e-06
0.00419251
-4.2732e-06
0.00418374
-3.93205e-06
0.00417534
-3.61727e-06
0.00416728
-3.32831e-06
0.00415956
-3.05883e-06
0.00415219
-2.80296e-06
0.00414515
-2.56133e-06
0.00413843
-2.34126e-06
0.00413202
-2.13978e-06
0.00412591
-1.9503e-06
0.00412011
-1.76489e-06
0.00411461
-1.58882e-06
0.0041094
-1.42528e-06
0.00410446
-1.27655e-06
0.00409979
-1.13358e-06
0.00409537
-9.96059e-07
0.0040912
-8.59538e-07
0.00408727
-7.32037e-07
0.00408356
-6.07289e-07
0.00408004
-4.83241e-07
0.00407671
-3.82217e-07
0.00407356
-2.78979e-07
0.00407057
-1.80684e-07
0.00406771
-8.65878e-08
0.00406498
3.83677e-09
0.00406237
8.37307e-08
0.00405984
1.57522e-07
0.00405741
2.19338e-07
0.00405505
2.75891e-07
0.00405275
3.23895e-07
0.00405051
3.63633e-07
0.00404832
3.96197e-07
0.00404616
4.18632e-07
0.00404404
4.35355e-07
0.00404193
4.466e-07
0.00403985
4.51933e-07
0.00403777
4.5217e-07
0.00403569
4.48564e-07
0.0040336
4.38619e-07
0.00403149
4.26352e-07
0.00402938
4.04565e-07
0.00402723
3.78513e-07
0.00402507
3.38409e-07
0.00402287
2.87998e-07
0.00402062
2.49212e-07
0.0040183
1.25935e-07
0.00401589
1.50938e-07
0.00401334
-3.11542e-07
0.00401062
1.59857e-07
-2.32788e-06
0.00625665
0.00621968
0.00615866
0.00606105
0.00592359
0.00575257
0.00555896
0.0053553
0.00515261
0.00495923
0.00478079
0.00462002
0.00447736
0.00435188
0.00424192
0.00414555
0.00406095
0.00398657
0.00392097
0.00386278
0.00381093
0.0037643
0.00372213
0.0036837
0.00364859
0.00361655
0.00358726
0.00356033
0.0035355
0.00351271
0.00349183
0.00347267
0.00345499
0.00343866
0.00342365
0.00340989
0.00339724
0.00338556
0.00337478
0.00336488
0.0033558
0.00334747
0.0033398
0.00333272
0.00332622
0.00332028
0.00331483
0.00330984
0.00330526
0.00330107
0.00329726
0.00329378
0.00329062
0.00328774
0.00328514
0.00328279
0.00328069
0.0032788
0.00327712
0.00327562
0.00327431
0.00327318
0.00327221
0.00327139
0.00327071
0.00327017
0.00326976
0.00326949
0.00326933
0.00326931
0.00326938
0.00326955
0.00326983
0.0032702
0.00327066
0.0032712
0.00327181
0.00327248
0.00327321
0.00327399
0.00327481
0.00327566
0.00327654
0.00327743
0.00327833
0.00327923
0.00328014
0.00328104
0.00328194
0.00328282
0.00328368
0.00328451
0.0032853
0.00328604
0.00328675
0.00328733
0.00328793
0.00328808
0.00328869
-0.000831931
0.000788343
-0.00121946
0.000387527
-0.00139906
0.000179604
-0.00140205
2.98389e-06
-0.00126096
-0.00014109
-0.000964944
-0.000296012
-0.000524487
-0.000440457
-0.000525013
-0.000754951
0.00166096
-0.00111808
0.000750658
-0.00122824
0.000289766
-0.00120009
-2.51743e-05
-0.00105429
-0.000286883
-0.00080876
-0.000541545
-0.000456447
-0.00079277
-0.000981964
-0.000156197
0.00225018
-0.000557935
0.0011524
-0.000717709
0.000449539
-0.000731038
-1.18449e-05
-0.000650844
-0.000367076
-0.000507296
-0.000685094
-0.000303369
-0.000996696
-0.00128582
0.00042966
0.00257866
9.69595e-05
0.0014851
-0.000111092
0.000657591
-0.000205852
8.29145e-05
-0.000222047
-0.000350881
-0.000187707
-0.000719434
-0.000121697
-0.00106271
-0.00140799
0.000870299
0.00276483
0.000617312
0.00173808
0.00039523
0.000879672
0.000239663
0.000238482
0.000137923
-0.000249141
7.01119e-05
-0.000651623
2.21291e-05
-0.00101472
-0.00138632
0.00119706
0.00287795
0.000996736
0.00193841
0.000781887
0.00109452
0.00059264
0.000427729
0.000428778
-8.52789e-05
0.000279858
-0.000502703
0.000137297
-0.000872162
-0.00124949
0.00139124
0.00294684
0.00123795
0.0020917
0.00104154
0.00129093
0.000835837
0.000633434
0.000631635
0.000118922
0.000426459
-0.000297527
0.000215943
-0.000661645
-0.00103401
0.00145065
0.00299259
0.00133258
0.00220978
0.00116183
0.00146168
0.000958536
0.00083673
0.000737526
0.000339932
0.00050366
-6.36607e-05
0.000257023
-0.000415008
-0.000777464
0.00141294
0.00302251
0.00131816
0.00230456
0.00116839
0.00161144
0.000977305
0.00102782
0.000758611
0.000558626
0.000520566
0.000174384
0.000266343
-0.000160785
-0.000511606
0.00130669
0.00303901
0.00123241
0.00237884
0.00110368
0.00174017
0.000930017
0.00120148
0.00072483
0.000763813
0.000498031
0.000401182
0.000254494
8.27525e-05
-0.000257607
0.00116649
0.00304297
0.00111062
0.00243471
0.00100151
0.00184928
0.000848353
0.00135464
0.000663788
0.000948378
0.000456954
0.000608017
0.000233408
0.000306299
-2.47076e-05
0.00101839
0.00303645
0.000977783
0.00247532
0.000885683
0.00194138
0.000752697
0.00148762
0.000590788
0.00111029
0.000407569
0.000791236
0.000209191
0.000504677
0.000183972
0.000878148
0.00302264
0.000849221
0.00250424
0.000772286
0.00201832
0.000657606
0.0016023
0.000516449
0.00125144
0.00035586
0.000951825
0.00018184
0.000678697
0.000365306
0.000753304
0.00300424
0.000732969
0.00252458
0.000668841
0.00208244
0.000570409
0.00170073
0.00044814
0.00137371
0.000308551
0.00109141
0.000157257
0.000829991
0.000522061
0.000646599
0.00298367
0.000631842
0.00253934
0.000578331
0.00213595
0.000494431
0.00178463
0.0003889
0.00147924
0.000267809
0.0012125
0.000136375
0.000961426
0.000657938
0.000557916
0.00296337
0.000545822
0.00255143
0.000500761
0.00218102
0.000429711
0.00185568
0.000338863
0.00157009
0.00023372
0.00131765
0.000118952
0.00107619
0.000776395
0.000485386
0.00294474
0.00047449
0.00256233
0.000435701
0.0022198
0.000374813
0.00191657
0.000296276
0.00164863
0.000204712
0.00140921
0.000103909
0.001177
0.000879812
0.000425609
0.00292821
0.000415433
0.0025725
0.000381352
0.00225388
0.000328285
0.00196964
0.000259811
0.0017171
0.000179702
0.00148932
9.09823e-05
0.00126572
0.000970305
0.000375937
0.00291395
0.000366277
0.00258216
0.000335919
0.00228424
0.000289096
0.00201646
0.000228842
0.00177736
0.000158319
0.00155984
8.01572e-05
0.00134388
0.00104997
0.000335301
0.00290201
0.000325933
0.00259153