/*--------------------------------*- C++ -*----------------------------------*\
| =========                 |                                                 |
| \\      /  F ield         | OpenFOAM: The Open Source CFD Toolbox           |
|  \\    /   O peration     | Version:  v2012                                 |
|   \\  /    A nd           | Website:  www.openfoam.com                      |
|    \\/     M anipulation  |                                                 |
\*---------------------------------------------------------------------------*/
FoamFile
{
    version     2.0;
    format      ascii;
    class       volScalarField;
    location    "0.224";
    object      k.air;
}
// * * * * * * * * * * * * * * * * * * * * * * * * * * * * * * * * * * * * * //

dimensions      [0 2 -2 0 0 0 0];


internalField   nonuniform List<scalar> 
5600
(
0.60629
0.840873
0.955001
0.978252
0.949121
0.897626
0.8396
0.787127
0.743505
0.706973
0.679662
0.657998
0.643599
0.632557
0.625219
0.620331
0.615896
0.613748
0.610509
0.609171
0.606788
0.605611
0.60415
0.603078
0.602525
0.601673
0.601491
0.601053
0.600808
0.600711
0.600259
0.600227
0.599647
0.59949
0.598959
0.598597
0.59822
0.597655
0.597445
0.596764
0.596692
0.59598
0.596017
0.595331
0.595425
0.594871
0.594941
0.594542
0.594578
0.594279
0.594327
0.594044
0.594183
0.593869
0.594124
0.593813
0.59411
0.593908
0.594151
0.594119
0.59431
0.594378
0.594629
0.594644
0.595074
0.594952
0.595587
0.595417
0.596148
0.596056
0.596751
0.596751
0.597431
0.597412
0.598215
0.59809
0.599089
0.598892
0.599998
0.599816
0.600934
0.600786
0.601883
0.601766
0.602803
0.602844
0.60362
0.604204
0.60419
0.606097
0.604172
0.609103
0.602478
0.614937
0.595697
0.629676
0.571937
0.675608
0.479634
0.842383
0.371447
0.315782
0.288699
0.275569
0.275384
0.284024
0.308129
0.344286
0.387825
0.429598
0.471796
0.508835
0.541594
0.569829
0.591246
0.610701
0.622427
0.634932
0.640804
0.648541
0.65216
0.656467
0.660266
0.66264
0.666302
0.667877
0.670309
0.671957
0.672856
0.6745
0.674277
0.675584
0.675091
0.675823
0.675694
0.675669
0.67613
0.675503
0.676373
0.675466
0.676639
0.675627
0.676968
0.676074
0.677305
0.676682
0.677657
0.677288
0.678018
0.677758
0.678544
0.678156
0.679166
0.678585
0.679841
0.679293
0.680486
0.680262
0.681118
0.681331
0.681995
0.682255
0.683239
0.683078
0.684586
0.683898
0.685766
0.685008
0.686919
0.686496
0.688209
0.68793
0.689667
0.689091
0.69121
0.690201
0.692735
0.691515
0.694235
0.693031
0.695803
0.694536
0.697405
0.695959
0.69883
0.697454
0.699921
0.699402
0.700607
0.702288
0.700245
0.707084
0.696961
0.716223
0.686994
0.735377
0.660511
0.778958
0.588662
0.880547
0.368979
0.282053
0.227841
0.192678
0.169332
0.152748
0.146912
0.14219
0.148367
0.153964
0.16768
0.181854
0.198669
0.219632
0.237565
0.262367
0.280713
0.306184
0.325191
0.34905
0.369303
0.390347
0.409619
0.425106
0.440334
0.451896
0.462871
0.472302
0.479414
0.487291
0.492101
0.498395
0.502204
0.506836
0.510526
0.513474
0.517249
0.518991
0.522829
0.523783
0.52763
0.528179
0.531829
0.532318
0.535459
0.536155
0.538683
0.539565
0.54168
0.542443
0.544643
0.545052
0.547482
0.547532
0.55009
0.550234
0.552445
0.553047
0.554636
0.555658
0.557075
0.55786
0.559797
0.559839
0.562474
0.561798
0.564684
0.564046
0.566727
0.566612
0.569037
0.56897
0.571558
0.570894
0.574005
0.572745
0.576246
0.574768
0.578401
0.576895
0.580655
0.578884
0.582976
0.580725
0.585096
0.582537
0.586891
0.584543
0.588532
0.587
0.589825
0.590382
0.589796
0.595763
0.586859
0.605073
0.578269
0.621671
0.559682
0.635167
0.369978
0.28066
0.224439
0.185386
0.15973
0.136647
0.124814
0.109428
0.104604
0.0958505
0.0938384
0.092971
0.0912875
0.0978029
0.0965425
0.108374
0.110068
0.124202
0.131372
0.145999
0.15949
0.174772
0.193169
0.209842
0.229572
0.247258
0.265301
0.282521
0.297009
0.31263
0.324366
0.337448
0.347413
0.357671
0.366893
0.374517
0.383292
0.38892
0.397323
0.401502
0.409312
0.412503
0.41938
0.422145
0.427706
0.430297
0.434734
0.437294
0.441149
0.443222
0.447191
0.448647
0.4528
0.453741
0.45776
0.45889
0.462171
0.463848
0.466257
0.468185
0.470521
0.471859
0.474922
0.47522
0.47907
0.47862
0.482457
0.482233
0.485556
0.485986
0.48911
0.489399
0.492884
0.492287
0.496341
0.495079
0.49938
0.497992
0.502333
0.500891
0.505426
0.503561
0.508578
0.506073
0.511481
0.508517
0.514038
0.51097
0.516529
0.513636
0.5189
0.51689
0.520484
0.521271
0.520582
0.527022
0.519187
0.533091
0.519286
0.529297
0.370254
0.280569
0.225024
0.184981
0.160028
0.135741
0.1236
0.106919
0.0996156
0.089612
0.0821295
0.0794086
0.0696747
0.073108
0.0624599
0.0684822
0.0606906
0.0655279
0.0634731
0.0656786
0.0695264
0.0709998
0.0785921
0.0827039
0.0917671
0.10041
0.109951
0.122645
0.132543
0.147322
0.158426
0.173482
0.186138
0.199476
0.212715
0.223875
0.237175
0.246243
0.259146
0.266608
0.278639
0.285013
0.295844
0.30186
0.310918
0.316689
0.324224
0.329636
0.336407
0.340829
0.34767
0.351071
0.357891
0.360556
0.366694
0.369531
0.374397
0.377737
0.381483
0.384773
0.388548
0.390793
0.395481
0.396377
0.401819
0.402053
0.407058
0.407731
0.411904
0.413234
0.417263
0.418184
0.422728
0.422545
0.427569
0.42677
0.431728
0.430873
0.435686
0.434781
0.439806
0.438403
0.443912
0.441888
0.447683
0.445313
0.451054
0.448597
0.454332
0.451974
0.457524
0.455838
0.460136
0.460285
0.462071
0.464694
0.464258
0.467629
0.4685
0.465892
0.3704
0.280336
0.225462
0.184804
0.16051
0.135928
0.123664
0.107684
0.0987966
0.090641
0.0802452
0.0795773
0.0666713
0.0707368
0.0581308
0.0620403
0.0538958
0.053802
0.0518429
0.0477658
0.0498505
0.0451108
0.0475055
0.0456229
0.0460509
0.0483963
0.0471496
0.0527124
0.0520424
0.0587345
0.0608525
0.0673657
0.0732627
0.0792576
0.0883651
0.0941153
0.105565
0.111165
0.123953
0.129894
0.14306
0.149709
0.162137
0.169625
0.180663
0.188619
0.198499
0.206232
0.215658
0.222119
0.231725
0.236955
0.246421
0.251005
0.259453
0.264586
0.271444
0.277097
0.28274
0.287951
0.293851
0.29748
0.304468
0.306519
0.314057
0.315712
0.32224
0.324533
0.329885
0.332669
0.337947
0.339925
0.345795
0.346541
0.35266
0.352919
0.358612
0.358976
0.364279
0.364607
0.370014
0.369874
0.375557
0.375012
0.380624
0.380027
0.385206
0.384707
0.38959
0.389325
0.393873
0.394248
0.397763
0.399228
0.401435
0.403452
0.405609
0.406547
0.409996
0.409056
0.370523
0.280112
0.225672
0.184712
0.160538
0.136307
0.123221
0.10868
0.0979241
0.0919239
0.079425
0.0803991
0.0665279
0.0703678
0.058872
0.0603179
0.0548801
0.051265
0.0516664
0.0451231
0.0472375
0.042159
0.0419735
0.0408907
0.0373652
0.0397481
0.0345989
0.0379632
0.0338791
0.0360318
0.0346287
0.0347317
0.036633
0.0347453
0.0395332
0.0366599
0.0436679
0.040545
0.0489426
0.0470391
0.055581
0.055886
0.0637461
0.0668464
0.0739675
0.0787526
0.0861418
0.0915967
0.10022
0.1049
0.114745
0.11927
0.129493
0.134348
0.143238
0.149476
0.156975
0.164101
0.170847
0.177259
0.184901
0.189441
0.198373
0.201461
0.210568
0.213794
0.221332
0.225405
0.231671
0.23604
0.242648
0.246024
0.253383
0.255643
0.262905
0.264964
0.271373
0.273672
0.279503
0.281745
0.287577
0.289414
0.295287
0.296958
0.302418
0.304235
0.308985
0.310869
0.315172
0.317158
0.321156
0.323502
0.326802
0.329556
0.332181
0.334728
0.33747
0.339404
0.341816
0.34413
0.370589
0.280047
0.225604
0.184909
0.160138
0.136926
0.122493
0.109534
0.0972534
0.0924747
0.079394
0.0801261
0.0674471
0.0692384
0.0604159
0.0589353
0.0561819
0.0505013
0.0518969
0.0454102
0.0462907
0.0430031
0.0405443
0.0412096
0.0361985
0.0387066
0.0337162
0.0354492
0.0324214
0.0322831
0.031536
0.0294083
0.0311199
0.0269514
0.0307441
0.0251917
0.0306345
0.0240832
0.030239
0.024556
0.0295475
0.0261698
0.0291254
0.0285068
0.0303726
0.0305403
0.0331875
0.0330606
0.0379505
0.0365545
0.0427917
0.0421498
0.0487496
0.0499599
0.0546044
0.058524
0.0624936
0.0678216
0.0723328
0.0765334
0.0834119
0.0861019
0.0948272
0.0971622
0.105745
0.109561
0.116438
0.121404
0.127221
0.132109
0.138912
0.142967
0.150749
0.154201
0.161551
0.165219
0.171483
0.175484
0.18125
0.185208
0.191048
0.194708
0.200485
0.204159
0.209403
0.213265
0.217788
0.221523
0.225626
0.229234
0.23317
0.236981
0.240483
0.244503
0.247499
0.251289
0.254005
0.257705
0.259507
0.263675
0.370562
0.280194
0.225285
0.185368
0.159516
0.137584
0.121889
0.109934
0.0972076
0.0921138
0.080253
0.0789259
0.0689518
0.067786
0.0617297
0.0581418
0.0565075
0.0508425
0.0511942
0.0464674
0.0453233
0.0438344
0.0401856
0.0411566
0.0367153
0.037875
0.0346133
0.0344699
0.0329951
0.0316143
0.0314173
0.029108
0.030216
0.026762
0.0291558
0.0247147
0.0283024
0.0229963
0.0270033
0.0224428
0.0250309
0.0225182
0.0231466
0.0224201
0.0223256
0.0215785
0.0222807
0.0205155
0.0229814
0.0198771
0.0230612
0.0202507
0.0230591
0.0222042
0.0224637
0.0240146
0.0234755
0.0257387
0.026443
0.0265432
0.0301655
0.0286357
0.0338317
0.0329039
0.0370641
0.0388541
0.0413814
0.0445253
0.0468745
0.0496186
0.0539133
0.0562329
0.0618499
0.064546
0.069664
0.0731298
0.0773514
0.081226
0.0854845
0.0895693
0.0944039
0.0985272
0.103495
0.107892
0.112592
0.117273
0.121573
0.126066
0.130033
0.134289
0.138266
0.14279
0.146715
0.151492
0.155167
0.159666
0.163035
0.167303
0.170201
0.174174
0.370471
0.280454
0.224895
0.185858
0.158979
0.138017
0.121646
0.109841
0.097686
0.0912414
0.0814547
0.0775748
0.0702847
0.0667481
0.0623429
0.0581181
0.0560366
0.0517245
0.0502217
0.0473485
0.0448189
0.0439519
0.0405261
0.0405542
0.0375231
0.0371205
0.0352864
0.0340369
0.0332745
0.0315515
0.0313089
0.0294662
0.0295972
0.027572
0.0281021
0.0258304
0.0268968
0.0242027
0.0256245
0.0231907
0.0240151
0.0225312
0.0225577
0.0217613
0.0214971
0.0208802
0.0206427
0.019903
0.0201849
0.0188792
0.0197289
0.0180625
0.0190478
0.0181369
0.0177931
0.0182407
0.0170513
0.0180309
0.0173388
0.0169742
0.0180506
0.0163668
0.0182861
0.017016
0.0177854
0.01836
0.0178975
0.0192508
0.0188726
0.019551
0.0206578
0.0207107
0.0226411
0.0232714
0.0247572
0.0262693
0.0273288
0.0290758
0.0303821
0.0323658
0.0345506
0.0368092
0.0393455
0.0420609
0.0447397
0.0480393
0.0509867
0.0545121
0.057483
0.0609803
0.0643146
0.0682765
0.072083
0.0764565
0.0804465
0.084776
0.0887637
0.0930139
0.0971175
0.101229
0.370389
0.280661
0.22464
0.186155
0.15872
0.138156
0.121689
0.109556
0.0982079
0.0905203
0.0822827
0.0767701
0.0709394
0.0663753
0.0623795
0.0584251
0.0554927
0.0523553
0.0496977
0.0476233
0.044858
0.0436372
0.0410035
0.0400481
0.0379415
0.0368516
0.0353958
0.0340404
0.0332238
0.0315976
0.0312606
0.0295732
0.0293656
0.0279704
0.0275219
0.0266057
0.0259613
0.0252094
0.0247152
0.0238934
0.0236176
0.0226582
0.0227042
0.0215513
0.0217208
0.0208718
0.0205394
0.0203845
0.0196361
0.0196732
0.0191987
0.0187788
0.0189165
0.0182876
0.0183864
0.0181523
0.0178746
0.0181958
0.0177923
0.0179913
0.018208
0.0179637
0.0186767
0.0186028
0.0190584
0.0197374
0.0199087
0.0210654
0.0213791
0.0224931
0.0235505
0.0244793
0.0260474
0.027403
0.0290082
0.0309875
0.0327446
0.0350145
0.0370498
0.039617
0.0422562
0.0451111
0.0481137
0.0512307
0.0544404
0.0579172
0.0614201
0.0652616
0.0688446
0.0727456
0.0765178
0.0805861
0.0846458
0.0889212
0.0931358
0.0974378
0.101661
0.105979
0.110399
0.114802
0.370344
0.280769
0.224542
0.186267
0.158671
0.138135
0.121822
0.109316
0.0985366
0.0901426
0.0826451
0.076475
0.0711002
0.066362
0.0622221
0.0586866
0.055162
0.0526222
0.0495287
0.047586
0.0450376
0.0432979
0.0413462
0.0397115
0.0381331
0.0367595
0.0353263
0.0341763
0.0330315
0.0317698
0.0311498
0.0296661
0.0293749
0.0280623
0.0275558
0.0268718
0.0258953
0.0257852
0.0246315
0.0246616
0.0238181
0.0235047
0.023397
0.0225474
0.0230291
0.0222129
0.0225416
0.0224652
0.0223222
0.0229826
0.0227568
0.0236678
0.0239198
0.0247988
0.025695
0.026597
0.0280407
0.0292947
0.0310737
0.0328328
0.0349835
0.03727
0.0398188
0.0426955
0.0456306
0.0490343
0.0523855
0.0561659
0.0599352
0.0640214
0.0681984
0.0725088
0.0770226
0.0816483
0.0864006
0.0913301
0.0962452
0.101305
0.106247
0.11135
0.116342
0.121411
0.126392
0.131285
0.136131
0.140896
0.145712
0.150492
0.155112
0.159753
0.164125
0.168539
0.172751
0.17699
0.181099
0.185186
0.189147
0.193107
0.197072
0.201
0.370324
0.280824
0.224514
0.186307
0.158682
0.138091
0.121924
0.109163
0.098709
0.0899436
0.0827939
0.0763357
0.0711314
0.066347
0.0621133
0.0587751
0.05498
0.0527188
0.0493947
0.047586
0.0450412
0.0431796
0.0414822
0.0395532
0.0383377
0.0366922
0.0355288
0.0343481
0.0332162
0.0322719
0.0314658
0.0304937
0.0301159
0.0292358
0.0290246
0.0286156
0.028303
0.0285804
0.0282376
0.0290818
0.0291
0.0301825
0.0310387
0.0321443
0.0340095
0.0353915
0.0379728
0.0401342
0.0431294
0.0463587
0.0497381
0.0539587
0.0578232
0.0626906
0.067278
0.0724829
0.0778717
0.0833459
0.0893172
0.0951078
0.10135
0.10747
0.113769
0.120145
0.126412
0.132799
0.138915
0.14517
0.151267
0.157339
0.163298
0.169169
0.174968
0.180675
0.186322
0.191859
0.197293
0.202601
0.207749
0.212834
0.217743
0.222599
0.227321
0.231974
0.236585
0.241053
0.245551
0.249863
0.254052
0.258127
0.261956
0.265762
0.269328
0.2729
0.2763
0.279661
0.282889
0.286097
0.289283
0.292453
0.370317
0.280852
0.224506
0.186322
0.158677
0.138056
0.121938
0.109066
0.098734
0.0898059
0.0828027
0.0761883
0.071116
0.0662107
0.0620899
0.0586838
0.0549632
0.0527437
0.0494131
0.0478065
0.0451918
0.0436534
0.0419705
0.0403639
0.0394573
0.0380623
0.0375772
0.0367647
0.0365482
0.0364702
0.0367203
0.0373328
0.0383509
0.0396882
0.0416229
0.0438979
0.0467545
0.0502178
0.0539974
0.0587692
0.0635525
0.0693797
0.0752298
0.0818259
0.0887583
0.0958647
0.103607
0.111118
0.119233
0.127128
0.135277
0.143433
0.151243
0.159429
0.167017
0.174897
0.182359
0.189724
0.197026
0.20389
0.210859
0.217376
0.223891
0.23016
0.236218
0.242299
0.248092
0.253901
0.259416
0.264825
0.270007
0.275049
0.279952
0.284713
0.289383
0.293894
0.298295
0.302544
0.306666
0.310716
0.314609
0.318469
0.322188
0.325832
0.329427
0.332865
0.336311
0.339532
0.342705
0.345734
0.348623
0.351496
0.354193
0.356931
0.359513
0.362102
0.364582
0.367072
0.369553
0.372055
0.370315
0.28086
0.224484
0.186289
0.158606
0.137967
0.121818
0.108922
0.0985824
0.0896415
0.0826822
0.0760729
0.0711726
0.0662717
0.0625265
0.0591508
0.0560273
0.0540376
0.0514325
0.05049
0.0487118
0.0484669
0.0479791
0.0483999
0.0494696
0.0508637
0.0535563
0.0564517
0.0607529
0.0655651
0.0715638
0.0784149
0.0860139
0.0944619
0.103439
0.112994
0.122945
0.133238
0.143773
0.154623
0.165224
0.175997
0.186269
0.196579
0.2064
0.215912
0.225201
0.233863
0.242498
0.250489
0.25832
0.265886
0.273
0.280138
0.286565
0.293102
0.299066
0.304921
0.310576
0.315844
0.321174
0.326079
0.331026
0.335722
0.340278
0.344782
0.349001
0.353178
0.357055
0.360866
0.364466
0.367978
0.371389
0.374688
0.377921
0.381012
0.384027
0.386916
0.389739
0.392502
0.395165
0.397825
0.400387
0.402933
0.405451
0.407889
0.410363
0.412652
0.414979
0.417166
0.419312
0.42144
0.423467
0.425548
0.427503
0.429501
0.431417
0.433374
0.435331
0.437349
0.3703
0.280815
0.224363
0.186129
0.158382
0.137739
0.121573
0.108806
0.0986165
0.0900524
0.0835799
0.0777757
0.0738968
0.0702283
0.0682207
0.0666469
0.0662638
0.0669336
0.0681878
0.0712301
0.0746835
0.0803641
0.0868086
0.0952254
0.104966
0.115958
0.128323
0.141135
0.15515
0.169339
0.184309
0.198932
0.213188
0.227015
0.240154
0.252744
0.264653
0.275935
0.286557
0.29664
0.306016
0.315062
0.323273
0.331187
0.338398
0.345232
0.351762
0.357744
0.36373
0.369131
0.374503
0.379505
0.384128
0.388727
0.392754
0.396943
0.40064
0.404357
0.407888
0.41118
0.414548
0.417582
0.420724
0.423651
0.426552
0.429424
0.43213
0.434883
0.437425
0.439985
0.442393
0.444778
0.447113
0.449364
0.451568
0.453664
0.455724
0.457697
0.459653
0.461563
0.463425
0.465295
0.467098
0.468921
0.470725
0.472491
0.474292
0.475955
0.477698
0.479308
0.480949
0.482553
0.484118
0.485726
0.487254
0.488823
0.490346
0.491903
0.49348
0.495162
0.370193
0.28056
0.224194
0.186101
0.158652
0.138574
0.123386
0.112338
0.104443
0.0992142
0.0969477
0.0964306
0.0985262
0.10186
0.107748
0.114942
0.124353
0.135499
0.148479
0.163543
0.180154
0.198895
0.218163
0.238355
0.258277
0.277664
0.295892
0.312586
0.328221
0.342179
0.355023
0.366553
0.377081
0.386696
0.395431
0.403547
0.411029
0.417963
0.42439
0.430318
0.435643
0.440759
0.445206
0.449465
0.453197
0.456771
0.460154
0.463215
0.466372
0.469132
0.472029
0.474694
0.477258
0.479868
0.482124
0.484605
0.486712
0.488956
0.491036
0.493021
0.495082
0.496906
0.498877
0.500663
0.502502
0.504306
0.506029
0.507823
0.509466
0.51118
0.512787
0.51442
0.516023
0.517609
0.519174
0.520673
0.522158
0.52358
0.525007
0.526389
0.527759
0.529129
0.530459
0.531816
0.533152
0.534475
0.535821
0.537071
0.538408
0.539623
0.540912
0.542147
0.543395
0.544667
0.545898
0.547165
0.548414
0.549676
0.550961
0.552374
0.369475
0.281397
0.228583
0.1931
0.170652
0.156009
0.150066
0.15048
0.156552
0.16727
0.181694
0.198718
0.218526
0.239618
0.262433
0.285571
0.309415
0.333114
0.356877
0.380377
0.403194
0.42399
0.441621
0.457417
0.47044
0.48242
0.492528
0.500964
0.508425
0.514536
0.520163
0.524923
0.529236
0.533045
0.536413
0.539506
0.54229
0.544876
0.547298
0.549586
0.551691
0.553784
0.555618
0.55754
0.559157
0.560805
0.56232
0.563702
0.565182
0.56641
0.567823
0.569057
0.570339
0.57166
0.5728
0.574163
0.575253
0.576545
0.577681
0.578836
0.580035
0.58109
0.582295
0.583336
0.584487
0.585577
0.58665
0.587783
0.588815
0.589927
0.590989
0.592095
0.593183
0.59428
0.595353
0.596391
0.597428
0.598419
0.59943
0.600394
0.601377
0.602356
0.603322
0.604312
0.605283
0.606259
0.607242
0.60817
0.609171
0.61008
0.611079
0.612024
0.613012
0.614016
0.614994
0.616028
0.617016
0.618071
0.619102
0.620274
0.372192
0.315466
0.292799
0.279554
0.286335
0.295418
0.331422
0.37364
0.418603
0.463056
0.504579
0.541557
0.573537
0.599857
0.621295
0.637734
0.650592
0.660056
0.6674
0.673111
0.677549
0.681771
0.685003
0.688231
0.690519
0.692686
0.694323
0.695559
0.696542
0.696922
0.697328
0.697317
0.69737
0.697259
0.69711
0.696977
0.696789
0.696655
0.696536
0.69647
0.69642
0.696484
0.696485
0.696654
0.696664
0.696809
0.696865
0.69693
0.697077
0.697099
0.697311
0.697402
0.697619
0.697861
0.698059
0.698448
0.698673
0.699119
0.69944
0.699865
0.700309
0.700702
0.701232
0.701639
0.702188
0.702673
0.703193
0.703748
0.704276
0.704871
0.705459
0.706102
0.706735
0.707403
0.708062
0.708721
0.70939
0.710037
0.710713
0.711357
0.712039
0.712715
0.713404
0.714109
0.714806
0.715518
0.716226
0.716918
0.71766
0.71835
0.719125
0.719866
0.720661
0.721475
0.722266
0.723135
0.723898
0.724786
0.725574
0.726419
0.606746
0.839808
0.952206
0.969547
0.937537
0.881269
0.82135
0.769017
0.724403
0.688401
0.660669
0.640134
0.6254
0.614939
0.607689
0.602356
0.59855
0.595388
0.592953
0.590784
0.588979
0.58755
0.586303
0.585513
0.5847
0.584247
0.583743
0.583414
0.5831
0.582713
0.582353
0.58186
0.581399
0.580855
0.580315
0.579755
0.579189
0.578632
0.578089
0.577569
0.577071
0.576617
0.576171
0.57581
0.575426
0.575138
0.574819
0.574564
0.574318
0.574079
0.573895
0.573685
0.573552
0.573406
0.573304
0.573241
0.573167
0.57318
0.573154
0.573211
0.573261
0.573336
0.573461
0.573568
0.573733
0.573885
0.574072
0.574276
0.574495
0.574749
0.575017
0.575319
0.57563
0.575964
0.576304
0.576659
0.577028
0.577408
0.57781
0.578215
0.578644
0.579076
0.57952
0.57997
0.580422
0.580883
0.581344
0.581813
0.582304
0.582793
0.583318
0.583836
0.584393
0.58494
0.585518
0.586052
0.586611
0.587061
0.587358
0.58735
0.144778
2.28707
2.87966
3.08385
3.23192
3.28908
3.27053
3.20217
3.10219
2.99525
2.88623
2.78076
2.68306
2.59309
2.5105
2.43425
2.36261
2.29439
2.22783
2.16147
2.09511
2.02749
1.95766
1.88689
1.81534
1.74166
1.66738
1.59387
1.52
1.44413
1.37004
1.29743
1.22406
1.15148
1.08226
1.01555
0.950565
0.88942
0.83382
0.782805
0.735142
0.691332
0.651935
0.61527
0.579331
0.545513
0.516861
0.493206
0.471455
0.451486
0.437464
0.431628
0.429528
0.425427
0.419419
0.416552
0.419416
0.425428
0.430605
0.434715
0.439531
0.444511
0.447028
0.444731
0.436515
0.423664
0.40839
0.392726
0.377276
0.36183
0.345678
0.328513
0.309824
0.289245
0.266356
0.241006
0.213432
0.18462
0.156054
0.129345
0.105636
0.0854283
0.0686412
0.0548369
0.0435466
0.034379
0.0270112
0.0212026
0.0168253
0.0136562
0.0114851
0.0100276
0.00910476
0.00847574
0.008094
0.00774472
0.00755111
0.00723775
0.0071403
0.00680405
0.362902
1.12615
2.06531
2.51402
2.74901
2.84826
2.86081
2.81327
2.73093
2.63665
2.54036
2.44935
2.36838
2.29628
2.23183
2.17404
2.12079
2.07067
2.02221
1.97338
1.9237
1.8718
1.81621
1.75795
1.69735
1.63302
1.56628
1.49902
1.43051
1.35916
1.28901
1.21913
1.14791
1.07715
1.0099
0.945622
0.883456
0.825574
0.773841
0.727066
0.683794
0.644512
0.609741
0.577523
0.545718
0.515878
0.491146
0.471226
0.453029
0.436483
0.425658
0.42267
0.422968
0.420487
0.414836
0.410856
0.411669
0.415668
0.419576
0.422901
0.426955
0.431153
0.432953
0.430095
0.421543
0.408554
0.393457
0.378304
0.363692
0.349321
0.33436
0.318329
0.300652
0.280918
0.25873
0.233974
0.206923
0.178554
0.150304
0.123781
0.100187
0.0801078
0.0635098
0.0500084
0.0391527
0.0305355
0.0237815
0.0186277
0.0148585
0.0122124
0.010437
0.00927195
0.00854041
0.00805136
0.00775622
0.00748539
0.00733504
0.00707894
0.00700038
0.00671593
0.553469
0.546235
1.01988
1.57669
1.97641
2.18952
2.28228
2.29425
2.25975
2.20128
2.1344
2.06969
2.01075
1.95813
1.91213
1.87254
1.83737
1.80509
1.77471
1.7437
1.71122
1.67592
1.636
1.59192
1.54434
1.49159
1.4346
1.37594
1.31517
1.25079
1.18605
1.12057
1.05305
0.985594
0.921799
0.861514
0.803719
0.750611
0.704262
0.663209
0.625756
0.592402
0.563611
0.537106
0.51067
0.486108
0.466584
0.451451
0.437676
0.425428
0.418606
0.418853
0.421347
0.419873
0.413842
0.407992
0.405958
0.407104
0.408937
0.41088
0.413731
0.416788
0.417578
0.413929
0.404946
0.391835
0.376985
0.362447
0.348816
0.335679
0.322075
0.307318
0.290756
0.271928
0.250464
0.226304
0.199778
0.171866
0.143983
0.117723
0.0943362
0.0744749
0.0581654
0.0450844
0.0347948
0.0268406
0.0208024
0.0163631
0.0132186
0.0110708
0.00964864
0.00872366
0.00814246
0.00775467
0.00752158
0.0073037
0.00718556
0.00697052
0.00690862
0.00666374
0.531499
0.495942
0.560037
0.766
1.07012
1.34181
1.52478
1.62127
1.65926
1.66211
1.64557
1.62259
1.59777
1.5735
1.55185
1.53433
1.51947
1.50639
1.49391
1.48
1.46403
1.44496
1.42091
1.39162
1.3583
1.31866
1.27332
1.22528
1.17352
1.11703
1.05869
0.999462
0.937634
0.875576
0.817436
0.763432
0.712196
0.665945
0.627049
0.593679
0.5639
0.538242
0.517058
0.497717
0.478044
0.460238
0.447362
0.438121
0.429618
0.422541
0.420512
0.424282
0.428511
0.426987
0.419346
0.410445
0.40443
0.401615
0.400327
0.400039
0.401062
0.402465
0.401824
0.397049
0.387445
0.374203
0.359673
0.345871
0.333369
0.321625
0.309525
0.296155
0.280765
0.262852
0.242081
0.218461
0.192402
0.164908
0.137398
0.111454
0.0883496
0.0687869
0.0528624
0.0403129
0.0306872
0.023485
0.018227
0.01451
0.0119497
0.0102287
0.00909082
0.00834653
0.00787182
0.00754976
0.00735463
0.00716967
0.00707278
0.00688816
0.006839
0.00662744
0.472804
0.463903
0.46031
0.486345
0.557609
0.666359
0.788965
0.899486
0.982097
1.0397
1.07577
1.09895
1.11583
1.12822
1.13784
1.14788
1.15742
1.16655
1.17466
1.17985
1.18173
1.1799
1.17238
1.1584
1.13972
1.11405
1.08139
1.04502
1.00346
0.955889
0.906051
0.855716
0.802577
0.749133
0.699925
0.655309
0.612971
0.576364
0.547676
0.524484
0.504636
0.4887
0.476815
0.466007
0.454382
0.44467
0.439656
0.437093
0.434382
0.433041
0.436268
0.443528
0.448743
0.445792
0.434909
0.421416
0.409972
0.401835
0.396152
0.392513
0.390827
0.389857
0.387203
0.380856
0.370348
0.356928
0.342818
0.329906
0.318697
0.308488
0.297999
0.28607
0.271837
0.254767
0.234582
0.21137
0.185641
0.158456
0.131257
0.105623
0.0828254
0.0636049
0.0481217
0.0361537
0.0272224
0.0207799
0.0162584
0.0131672
0.0110777
0.00968075
0.00874473
0.00811862
0.00770565
0.00741685
0.00723696
0.00706814
0.00698133
0.00681961
0.00677824
0.00659657
0.410969
0.41172
0.406692
0.402039
0.404194
0.414375
0.43164
0.456958
0.483997
0.515696
0.548814
0.580995
0.615286
0.649668
0.682225
0.715637
0.748111
0.779134
0.809237
0.835714
0.85757
0.875082
0.88594
0.88889
0.886235
0.876068
0.857625
0.834487
0.805765
0.770222
0.732227
0.694257
0.653654
0.613126
0.577135
0.544818
0.514918
0.491703
0.476577
0.46633
0.458717
0.45433
0.452952
0.451431
0.448527
0.447558
0.450759
0.454767
0.457591
0.461896
0.470235
0.480484
0.485757
0.480084
0.464347
0.444596
0.426132
0.411124
0.399576
0.391185
0.385584
0.381238
0.375765
0.367252
0.355479
0.341778
0.328233
0.316436
0.306719
0.298167
0.289325
0.278793
0.265592
0.249173
0.229356
0.206325
0.180708
0.153651
0.126635
0.101236
0.078709
0.0598197
0.0447555
0.0333105
0.0249679
0.0191247
0.0151348
0.0124661
0.0106711
0.0094622
0.00862694
0.00804916
0.00764753
0.00735885
0.00716918
0.00700023
0.00690945
0.00676359
0.0067236
0.00657011
0.343579
0.346146
0.344683
0.338909
0.331086
0.322265
0.312617
0.304107
0.294938
0.287508
0.283195
0.280705
0.284453
0.294831
0.309876
0.333216
0.36245
0.395293
0.433067
0.471358
0.507339
0.541267
0.569627
0.590043
0.605085
0.612453
0.610856
0.604114
0.591918
0.572781
0.550997
0.529779
0.506295
0.482987
0.464353
0.448929
0.436515
0.43054
0.431706
0.436232
0.442069
0.449685
0.458369
0.465254
0.470218
0.477008
0.486983
0.495826
0.502673
0.511608
0.52417
0.536476
0.540964
0.531934
0.510536
0.483321
0.456517
0.433221
0.414306
0.399592
0.388571
0.379532
0.370167
0.35871
0.345234
0.331153
0.318387
0.308041
0.30006
0.293224
0.285943
0.276619
0.264176
0.248068
0.228261
0.205073
0.179272
0.152103
0.125081
0.099773
0.0774017
0.0587417
0.0439495
0.0328091
0.0247436
0.0191358
0.0153019
0.0127288
0.010958
0.00974037
0.00885675
0.00822929
0.00776237
0.00742819
0.00718776
0.00699861
0.0068803
0.00674336
0.00669268
0.00656688
0.26332
0.267239
0.268262
0.265018
0.258178
0.24863
0.236878
0.224409
0.211449
0.198935
0.188185
0.178621
0.171758
0.168359
0.166913
0.170188
0.177769
0.188194
0.204902
0.225834
0.24904
0.276294
0.304077
0.329035
0.352962
0.372762
0.386044
0.395809
0.401527
0.401729
0.399757
0.397377
0.39449
0.392303
0.394287
0.398909
0.405616
0.417559
0.43435
0.452096
0.469325
0.486286
0.501815
0.513876
0.523743
0.535135
0.548187
0.558303
0.566517
0.578313
0.593658
0.606907
0.610234
0.598406
0.572268
0.537898
0.502481
0.470313
0.442963
0.420538
0.40261
0.387481
0.37303
0.357769
0.342171
0.327763
0.316178
0.30774
0.30172
0.296505
0.290477
0.281951
0.269807
0.253516
0.233215
0.20944
0.183104
0.155554
0.128295
0.102881
0.0804546
0.0618333
0.0470838
0.0359415
0.0277239
0.0218763
0.0176866
0.0147534
0.0125865
0.0110432
0.00983817
0.00898292
0.00828958
0.00782379
0.0074382
0.00719712
0.00699389
0.00686328
0.00676851
0.00668149
0.17602
0.179501
0.181541
0.180745
0.177018
0.171215
0.164017
0.156689
0.150197
0.144972
0.14204
0.140991
0.141995
0.145147
0.149239
0.154808
0.161487
0.168232
0.176494
0.185763
0.195386
0.207269
0.220585
0.234307
0.249973
0.265955
0.280825
0.296026
0.310536
0.32354
0.336564
0.349901
0.363782
0.379471
0.397948
0.417434
0.438497
0.463301
0.490076
0.515467
0.538779
0.559973
0.577586
0.590562
0.601318
0.612865
0.623856
0.630826
0.637596
0.650426
0.667204
0.680616
0.683303
0.670594
0.642507
0.603529
0.5612
0.520855
0.484881
0.454002
0.428141
0.405849
0.385346
0.365655
0.347831
0.333529
0.32375
0.317674
0.313605
0.309636
0.304278
0.295904
0.283415
0.266332
0.244946
0.220136
0.192905
0.164743
0.137035
0.111396
0.0887173
0.0700122
0.0551431
0.0439138
0.0353296
0.0289956
0.0240001
0.0202566
0.0171164
0.0147748
0.0127253
0.0113039
0.0100096
0.00923836
0.00846173
0.00811954
0.00766729
0.00757273
0.0073294
0.00736218
0.105025
0.108699
0.112105
0.11482
0.116809
0.118855
0.121416
0.125336
0.130959
0.138229
0.147365
0.157629
0.168732
0.180322
0.191538
0.202475
0.21289
0.222431
0.231693
0.24051
0.248863
0.257535
0.266462
0.275835
0.286385
0.297826
0.31038
0.324705
0.340287
0.357155
0.375687
0.395486
0.416489
0.439411
0.464226
0.490319
0.51856
0.54908
0.578858
0.605455
0.628767
0.648392
0.663262
0.673256
0.680811
0.687494
0.691264
0.69185
0.696129
0.709498
0.727378
0.741473
0.745375
0.734855
0.708817
0.669775
0.624174
0.577859
0.534288
0.495314
0.461435
0.431727
0.404932
0.380961
0.361569
0.348299
0.340982
0.337316
0.334615
0.331177
0.325621
0.316564
0.302933
0.284482
0.261498
0.235369
0.206996
0.178228
0.150108
0.124604
0.101944
0.0835779
0.0687362
0.0578592
0.0491012
0.0425839
0.0366538
0.0320672
0.0274626
0.0239855
0.0203549
0.0179673
0.0153652
0.0140593
0.0123363
0.0118841
0.0107649
0.0108879
0.0102148
0.0107303
0.119336
0.123664
0.128495
0.134334
0.141565
0.150647
0.161416
0.174053
0.187993
0.202921
0.218475
0.233852
0.248637
0.26256
0.275246
0.287008
0.297667
0.307233
0.316286
0.324721
0.33296
0.34126
0.349711
0.358804
0.368706
0.379621
0.392107
0.406212
0.421758
0.439044
0.457906
0.477974
0.499371
0.522232
0.547013
0.574806
0.605218
0.635593
0.662888
0.685598
0.703645
0.716462
0.723815
0.726557
0.726516
0.724144
0.71909
0.715068
0.71997
0.735393
0.755255
0.77184
0.779343
0.773913
0.753571
0.719033
0.674667
0.625895
0.577393
0.532374
0.492083
0.45631
0.424531
0.397974
0.378802
0.367878
0.363096
0.360807
0.358151
0.354186
0.3474
0.336827
0.321338
0.301257
0.276616
0.249439
0.220181
0.191329
0.163378
0.13927
0.118207
0.102002
0.0883026
0.0785058
0.0696672
0.0634341
0.056753
0.0519568
0.0460455
0.042009
0.0367654
0.0338103
0.029614
0.0280764
0.0250128
0.0248088
0.0226469
0.0235201
0.0221587
0.0239394
0.205162
0.209192
0.213994
0.220264
0.228608
0.239105
0.251387
0.265266
0.279938
0.294952
0.309762
0.323762
0.33694
0.349078
0.360087
0.370396
0.379853
0.388646
0.397158
0.405247
0.413351
0.421605
0.430176
0.439419
0.449215
0.460026
0.472139
0.485183
0.499266
0.514643
0.530988
0.548346
0.56713
0.587669
0.610941
0.6368
0.662316
0.68488
0.703271
0.717085
0.726241
0.730404
0.729954
0.725947
0.719506
0.711096
0.702649
0.699172
0.707131
0.72578
0.748635
0.768442
0.780191
0.780505
0.766933
0.738783
0.698377
0.650348
0.600274
0.552448
0.508767
0.469675
0.43569
0.409485
0.392808
0.384952
0.381581
0.378852
0.374864
0.369423
0.360726
0.348238
0.330748
0.309301
0.283464
0.255689
0.226298
0.19896
0.173465
0.152931
0.135273
0.122597
0.111339
0.103489
0.0952729
0.0895543
0.082497
0.0777645
0.0713119
0.0675187
0.0619211