/*--------------------------------*- C++ -*----------------------------------*\
| =========                 |                                                 |
| \\      /  F ield         | OpenFOAM: The Open Source CFD Toolbox           |
|  \\    /   O peration     | Version:  v2012                                 |
|   \\  /    A nd           | Website:  www.openfoam.com                      |
|    \\/     M anipulation  |                                                 |
\*---------------------------------------------------------------------------*/
FoamFile
{
    version     2.0;
    format      ascii;
    class       volScalarField;
    location    "0.224";
    object      p;
}
// * * * * * * * * * * * * * * * * * * * * * * * * * * * * * * * * * * * * * //

dimensions      [0 2 -2 0 0 0 0];


internalField   nonuniform List<scalar> 
5600
(
-0.694366
-1.15241
-1.53308
-1.85125
-2.16232
-2.47256
-2.77385
-3.05585
-3.31826
-3.56951
-3.80532
-4.02992
-4.24513
-4.4498
-4.65167
-4.84611
-5.03929
-5.22928
-5.41591
-5.60146
-5.78325
-5.96449
-6.14144
-6.31826
-6.4931
-6.6661
-6.83918
-7.00958
-7.18083
-7.35117
-7.52062
-7.68991
-7.85764
-8.02588
-8.19257
-8.35954
-8.52544
-8.69087
-8.85583
-9.02001
-9.18369
-9.34665
-9.50919
-9.67077
-9.83209
-9.99267
-10.1529
-10.3127
-10.4718
-10.6306
-10.789
-10.9468
-11.1042
-11.261
-11.4178
-11.5737
-11.7296
-11.8845
-12.0392
-12.1938
-12.3475
-12.5013
-12.6546
-12.8073
-12.9598
-13.1118
-13.2637
-13.4151
-13.5664
-13.7171
-13.8674
-14.0174
-14.1669
-14.3163
-14.4656
-14.6147
-14.7636
-14.9123
-15.0606
-15.2086
-15.3562
-15.5038
-15.651
-15.7981
-15.945
-16.0918
-16.2384
-16.3851
-16.5314
-16.6776
-16.8234
-16.9687
-17.1146
-17.2601
-17.4063
-17.5528
-17.7019
-17.8555
-18.0129
-18.2565
-0.753405
-1.17259
-1.54967
-1.86905
-2.18036
-2.49085
-2.79214
-3.07434
-3.33713
-3.58848
-3.82443
-4.04939
-4.2649
-4.46996
-4.67218
-4.86695
-5.06038
-5.25068
-5.43742
-5.62309
-5.80505
-5.98645
-6.16342
-6.34035
-6.51536
-6.68844
-6.86165
-7.03211
-7.20347
-7.3739
-7.54342
-7.7128
-7.88054
-8.04882
-8.21554
-8.38255
-8.54848
-8.71394
-8.87894
-9.04313
-9.20686
-9.36985
-9.53243
-9.69402
-9.85537
-10.016
-10.1762
-10.336
-10.4951
-10.6539
-10.8123
-10.9701
-11.1275
-11.2844
-11.4411
-11.597
-11.7528
-11.9078
-12.0624
-12.217
-12.3707
-12.5245
-12.6778
-12.8304
-12.9831
-13.135
-13.2869
-13.4382
-13.5895
-13.7403
-13.8905
-14.0405
-14.19
-14.3394
-14.4887
-14.6378
-14.7867
-14.9354
-15.0837
-15.2317
-15.3793
-15.5269
-15.674
-15.8212
-15.9681
-16.1149
-16.2615
-16.4082
-16.5544
-16.7007
-16.8463
-16.992
-17.1374
-17.2835
-17.4287
-17.5769
-17.723
-17.8805
-18.0329
-18.269
-0.791653
-1.18523
-1.5624
-1.88241
-2.19161
-2.4995
-2.79983
-3.0815
-3.34422
-3.59505
-3.83078
-4.05599
-4.27123
-4.47665
-4.67851
-4.87356
-5.067
-5.25711
-5.44412
-5.62955
-5.81172
-5.993
-6.17026
-6.34714
-6.52212
-6.69518
-6.86828
-7.03877
-7.21004
-7.38041
-7.54987
-7.71916
-7.88697
-8.05526
-8.22196
-8.38895
-8.55487
-8.72029
-8.88525
-9.0494
-9.21307
-9.376
-9.5385
-9.70002
-9.86128
-10.0219
-10.1822
-10.3419
-10.501
-10.6599
-10.8183
-10.9761
-11.1335
-11.2903
-11.4471
-11.6031
-11.7591
-11.9141
-12.0688
-12.2234
-12.3772
-12.5311
-12.6844
-12.8371
-12.9898
-13.1418
-13.2937
-13.4451
-13.5964
-13.7472
-13.8975
-14.0475
-14.197
-14.3465
-14.4958
-14.6449
-14.7939
-14.9426
-15.0909
-15.2389
-15.3866
-15.5342
-15.6813
-15.8285
-15.9754
-16.1222
-16.2688
-16.4155
-16.5618
-16.7081
-16.8537
-16.9994
-17.1448
-17.291
-17.4362
-17.5844
-17.7309
-17.8889
-18.0404
-18.2669
-0.840364
-1.20172
-1.57777
-1.89924
-2.20722
-2.51409
-2.81487
-3.09714
-3.36047
-3.61166
-3.84787
-4.07327
-4.28875
-4.49468
-4.69624
-4.89155
-5.0846
-5.2745
-5.46134
-5.64624
-5.82854
-6.00948
-6.18693
-6.36382
-6.5389
-6.71232
-6.88569
-7.0566
-7.22806
-7.39866
-7.56831
-7.73772
-7.90559
-8.0739
-8.2407
-8.40775
-8.57378
-8.73928
-8.90436
-9.06862
-9.23244
-9.39553
-9.55821
-9.71994
-9.88137
-10.042
-10.2023
-10.3622
-10.5213
-10.6802
-10.8387
-10.9965
-11.154
-11.3109
-11.4676
-11.6235
-11.7794
-11.9343
-12.0889
-12.2435
-12.3971
-12.551
-12.7042
-12.8568
-13.0094
-13.1613
-13.3132
-13.4645
-13.6157
-13.7665
-13.9167
-14.0667
-14.2162
-14.3656
-14.515
-14.664
-14.8129
-14.9616
-15.1099
-15.2579
-15.4055
-15.5531
-15.7003
-15.8474
-15.9943
-16.141
-16.2877
-16.4343
-16.5806
-16.7269
-16.8726
-17.0181
-17.1637
-17.3096
-17.4551
-17.6025
-17.7498
-17.9057
-18.0618
-18.266
-0.889974
-1.21886
-1.5935
-1.91745
-2.22382
-2.52984
-2.8303
-3.11246
-3.37575
-3.62678
-3.86312
-4.08847
-4.3039
-4.51032
-4.71185
-4.90752
-5.10064
-5.29059
-5.4778
-5.66254
-5.84506
-6.02581
-6.20338
-6.38007
-6.55491
-6.72834
-6.90124
-7.0722
-7.24332
-7.41378
-7.58344
-7.75268
-7.92078
-8.08903
-8.25598
-8.42297
-8.58902
-8.75452
-8.91955
-9.0838
-9.24752
-9.41053
-9.57305
-9.73473
-9.89605
-10.0567
-10.2169
-10.3767
-10.5358
-10.6947
-10.853
-11.0108
-11.1682
-11.325
-11.4817
-11.6378
-11.7937
-11.9487
-12.1035
-12.2581
-12.4118
-12.5657
-12.7191
-12.8719
-13.0246
-13.1766
-13.3285
-13.4799
-13.6312
-13.7821
-13.9324
-14.0824
-14.232
-14.3814
-14.5308
-14.6799
-14.8289
-14.9776
-15.1259
-15.2739
-15.4216
-15.5692
-15.7164
-15.8635
-16.0105
-16.1572
-16.3039
-16.4505
-16.5969
-16.7431
-16.8889
-17.0344
-17.1801
-17.3258
-17.4714
-17.6188
-17.7658
-17.9213
-18.0743
-18.2702
-0.939994
-1.2382
-1.61077
-1.93774
-2.24242
-2.54752
-2.84757
-3.12977
-3.39331
-3.64445
-3.88111
-4.10678
-4.32246
-4.52925
-4.73084
-4.92676
-5.11992
-5.30979
-5.49721
-5.68182
-5.86431
-6.04492
-6.22264
-6.39937
-6.57416
-6.74787
-6.92055
-7.09171
-7.26284
-7.43312
-7.60286
-7.77193
-7.94018
-8.10812
-8.27512
-8.44191
-8.60793
-8.77336
-8.93832
-9.10258
-9.26628
-9.42952
-9.59207
-9.75387
-9.91522
-10.076
-10.2363
-10.3962
-10.5553
-10.7142
-10.8727
-11.0306
-11.1881
-11.3449
-11.5017
-11.6577
-11.8136
-11.9687
-12.1233
-12.278
-12.4318
-12.5856
-12.7388
-12.8914
-13.0441
-13.1961
-13.348
-13.4994
-13.6506
-13.8014
-13.9516
-14.1016
-14.2512
-14.4006
-14.55
-14.6991
-14.8481
-14.9968
-15.1451
-15.2931
-15.4408
-15.5884
-15.7356
-15.8827
-16.0296
-16.1764
-16.3231
-16.4697
-16.616
-16.7623
-16.9081
-17.0536
-17.1992
-17.345
-17.4905
-17.6377
-17.7846
-17.9387
-18.0904
-18.2763
-0.989403
-1.26002
-1.62982
-1.96007
-2.26321
-2.56736
-2.86704
-3.14931
-3.41314
-3.66423
-3.90117
-4.12697
-4.34276
-4.5498
-4.75137
-4.94752
-5.14068
-5.33055
-5.51804
-5.70267
-5.88516
-6.06575
-6.24361
-6.42034
-6.59513
-6.76891
-6.94152
-7.1128
-7.28394
-7.45413
-7.62394
-7.79291
-7.96138
-8.12911
-8.29625
-8.46295
-8.62901
-8.79441
-8.9593
-9.12359
-9.28714
-9.45047
-9.61292
-9.77467
-9.93591
-10.0966
-10.2568
-10.4166
-10.5757
-10.7346
-10.893
-11.0508
-11.2083
-11.3652
-11.5219
-11.678
-11.8339
-11.989
-12.1437
-12.2983
-12.4521
-12.6059
-12.7592
-12.9119
-13.0646
-13.2167
-13.3685
-13.52
-13.6713
-13.822
-13.9723
-14.1223
-14.272
-14.4214
-14.5708
-14.7199
-14.8689
-15.0176
-15.1659
-15.3139
-15.4617
-15.6092
-15.7565
-15.9036
-16.0505
-16.1973
-16.344
-16.4906
-16.637
-16.7832
-16.929
-17.0746
-17.2202
-17.3659
-17.5114
-17.6583
-17.805
-17.9575
-18.1073
-18.2827
-1.03638
-1.28452
-1.65121
-1.98458
-2.28642
-2.58967
-2.88909
-3.17138
-3.43547
-3.68644
-3.92368
-4.14955
-4.36547
-4.57279
-4.77438
-4.97078
-5.16394
-5.35387
-5.54134
-5.72607
-5.90855
-6.08909
-6.26705
-6.44371
-6.61856
-6.79234
-6.96493
-7.13631
-7.30741
-7.47762
-7.64745
-7.81638
-7.98489
-8.15258
-8.3198
-8.48642
-8.65253
-8.81792
-8.98279
-9.14715
-9.31067
-9.47396
-9.63638
-9.79816
-9.95942
-10.1201
-10.2803
-10.44
-10.5992
-10.758
-10.9164
-11.0742
-11.2316
-11.3888
-11.5452
-11.7014
-11.8571
-12.0122
-12.167
-12.3214
-12.4753
-12.629
-12.7823
-12.935
-13.0876
-13.2397
-13.3915
-13.5432
-13.6944
-13.845
-13.9955
-14.1454
-14.2951
-14.4445
-14.5939
-14.743
-14.892
-15.0407
-15.1891
-15.337
-15.4848
-15.6323
-15.7796
-15.9267
-16.0736
-16.2204
-16.3671
-16.5137
-16.6601
-16.8063
-16.9521
-17.0978
-17.2433
-17.389
-17.5344
-17.681
-17.8273
-17.9779
-18.1253
-18.2898
-1.07936
-1.31159
-1.67552
-2.0114
-2.31229
-2.61478
-2.91403
-3.19629
-3.4606
-3.71147
-3.94898
-4.17489
-4.39093
-4.59846
-4.80004
-4.99663
-5.18976
-5.37973
-5.56715
-5.75197
-5.93443
-6.11488
-6.29296
-6.46954
-6.64448
-6.81824
-6.99083
-7.16229
-7.33336
-7.5036
-7.6734
-7.84235
-8.01083
-8.17855
-8.34577
-8.51239
-8.67849
-8.84389
-9.00874
-9.1731
-9.33667
-9.49988
-9.66233
-9.82412
-9.98539
-10.1461
-10.3063
-10.466
-10.6252
-10.784
-10.9423
-11.1002
-11.2575
-11.4148
-11.5712
-11.7275
-11.883
-12.0381
-12.1931
-12.3473
-12.5013
-12.6548
-12.808
-12.9608
-13.1133
-13.2655
-13.4173
-13.5689
-13.7202
-13.8707
-14.0212
-14.171
-14.3206
-14.4702
-14.6194
-14.7686
-14.9175
-15.0663
-15.2146
-15.3625
-15.5103
-15.6578
-15.8051
-15.9522
-16.0991
-16.2459
-16.3927
-16.5392
-16.6856
-16.8319
-16.9777
-17.1233
-17.2688
-17.4144
-17.5598
-17.706
-17.8517
-18.0004
-18.1448
-18.2977
-1.11654
-1.34078
-1.70335
-2.0407
-2.34101
-2.64311
-2.94229
-3.22446
-3.48893
-3.73973
-3.97743
-4.20334
-4.41943
-4.6271
-4.82865
-5.02538
-5.21847
-5.4085
-5.59588
-5.78078
-5.96324
-6.14359
-6.32177
-6.49828
-6.6733
-6.84704
-7.0196
-7.19112
-7.36218
-7.53245
-7.70219
-7.87117
-8.03963
-8.20739
-8.3746
-8.54123
-8.70729
-8.87274
-9.03755
-9.20193
-9.36555
-9.52867
-9.69116
-9.85294
-10.0142
-10.1749
-10.3351
-10.4948
-10.654
-10.8128
-10.9711
-11.129
-11.2864
-11.4436
-11.6
-11.7562
-11.9118
-12.0669
-12.2219
-12.3761
-12.5301
-12.6837
-12.8369
-12.9897
-13.1421
-13.2944
-13.4461
-13.5978
-13.749
-13.8995
-14.05
-14.1999
-14.3494
-14.499
-14.6482
-14.7975
-14.9463
-15.095
-15.2434
-15.3911
-15.539
-15.6864
-15.8337
-15.9808
-16.1276
-16.2744
-16.4212
-16.5677
-16.7141
-16.8603
-17.0061
-17.1518
-17.2972
-17.4427
-17.588
-17.7337
-17.8788
-18.0252
-18.1661
-18.3075
-1.1439
-1.37007
-1.73376
-2.07106
-2.37123
-2.67352
-2.97275
-3.25477
-3.5193
-3.77005
-4.00784
-4.23369
-4.44975
-4.65749
-4.85897
-5.05577
-5.2488
-5.43888
-5.6262
-5.81115
-5.99363
-6.17388
-6.3521
-6.52857
-6.70364
-6.87734
-7.04988
-7.22144
-7.3925
-7.56278
-7.73249
-7.90149
-8.06993
-8.23771
-8.40493
-8.57156
-8.73758
-8.90309
-9.06784
-9.23226
-9.39591
-9.55896
-9.72149
-9.88324
-10.0445
-10.2052
-10.3654
-10.5252
-10.6843
-10.8432
-11.0014
-11.1593
-11.3167
-11.4738
-11.6304
-11.7865
-11.9421
-12.0973
-12.2521
-12.4065
-12.5604
-12.714
-12.8672
-13.02
-13.1725
-13.3247
-13.4764
-13.628
-13.7792
-13.9299
-14.0803
-14.2302
-14.3798
-14.5293
-14.6785
-14.8277
-14.9765
-15.1252
-15.2736
-15.4215
-15.5693
-15.7167
-15.864
-16.0111
-16.158
-16.3047
-16.4515
-16.5981
-16.7444
-16.8906
-17.0365
-17.1821
-17.3275
-17.473
-17.6181
-17.7634
-17.9077
-18.0518
-18.1893
-18.3208
-1.15868
-1.39672
-1.76381
-2.09953
-2.40001
-2.70307
-3.00246
-3.28425
-3.5488
-3.79951
-4.03728
-4.26299
-4.47896
-4.68667
-4.88805
-5.08486
-5.27782
-5.46791
-5.65518
-5.84016
-6.02265
-6.2028
-6.38105
-6.55747
-6.73259
-6.90626
-7.07877
-7.25036
-7.42144
-7.59172
-7.76139
-7.9304
-8.09884
-8.26663
-8.43386
-8.60049
-8.76648
-8.93203
-9.09671
-9.26119
-9.42484
-9.58783
-9.75039
-9.91212
-10.0734
-10.2341
-10.3943
-10.5541
-10.7132
-10.8721
-11.0303
-11.1883
-11.3456
-11.5028
-11.6593
-11.8154
-11.9711
-12.1262
-12.281
-12.4354
-12.5893
-12.7429
-12.8961
-13.0489
-13.2014
-13.3536
-13.5054
-13.6569
-13.8081
-13.9588
-14.1093
-14.2592
-14.4088
-14.5583
-14.7075
-14.8567
-15.0056
-15.1543
-15.3027
-15.4507
-15.5985
-15.7459
-15.8932
-16.0403
-16.1872
-16.3339
-16.4807
-16.6273
-16.7737
-16.92
-17.0659
-17.2116
-17.357
-17.5023
-17.6473
-17.7922
-17.9358
-18.078
-18.2125
-18.3365
-1.1624
-1.42029
-1.79184
-2.12488
-2.42607
-2.73025
-3.02988
-3.31137
-3.57592
-3.82659
-4.06427
-4.28981
-4.50565
-4.71325
-4.91447
-5.11128
-5.30414
-5.49426
-5.68146
-5.86648
-6.04898
-6.22902
-6.40727
-6.58365
-6.75879
-6.93243
-7.1049
-7.27649
-7.4476
-7.61787
-7.7875
-7.95653
-8.12497
-8.29274
-8.46001
-8.62662
-8.79261
-8.95817
-9.12284
-9.28737
-9.45101
-9.61397
-9.77652
-9.93825
-10.0996
-10.2602
-10.4205
-10.5802
-10.7393
-10.8982
-11.0564
-11.2143
-11.3718
-11.5289
-11.6855
-11.8415
-11.9972
-12.1524
-12.3072
-12.4616
-12.6155
-12.7692
-12.9224
-13.0752
-13.2277
-13.3799
-13.5317
-13.6833
-13.8345
-13.9853
-14.1358
-14.2858
-14.4354
-14.5849
-14.7341
-14.8833
-15.0322
-15.1809
-15.3294
-15.4774
-15.6251
-15.7726
-15.9198
-16.0668
-16.2137
-16.3604
-16.5071
-16.6537
-16.8
-16.9462
-17.0922
-17.238
-17.3834
-17.5288
-17.6737
-17.8182
-17.9611
-18.1019
-18.2341
-18.3527
-1.15732
-1.44162
-1.81781
-2.14754
-2.44977
-2.75524
-3.05515
-3.33628
-3.60079
-3.85142
-4.08898
-4.3143
-4.53001
-4.73747
-4.93852
-5.13527
-5.32803
-5.51815
-5.70529
-5.89034
-6.07283
-6.25279
-6.43103
-6.60738
-6.78254
-6.95615
-7.12856
-7.30016
-7.47129
-7.64155
-7.81116
-7.98018
-8.14863
-8.31638
-8.48365
-8.65024
-8.81625
-8.9817
-9.14647
-9.31097
-9.47464
-9.6376
-9.80011
-9.96191
-10.1232
-10.2839
-10.4441
-10.6039
-10.7631
-10.9219
-11.0803
-11.238
-11.3957
-11.5528
-11.7094
-11.8655
-12.0212
-12.1765
-12.3313
-12.4857
-12.6397
-12.7933
-12.9466
-13.0994
-13.2519
-13.404
-13.5558
-13.7073
-13.8585
-14.0093
-14.1598
-14.3098
-14.4594
-14.6089
-14.7581
-14.9072
-15.0562
-15.2049
-15.3533
-15.5014
-15.6491
-15.7966
-15.9439
-16.091
-16.2379
-16.3847
-16.5315
-16.6782
-16.8246
-16.9708
-17.1167
-17.2623
-17.4077
-17.5529
-17.6977
-17.8421
-17.9848
-18.1239
-18.2544
-18.369
-1.14599
-1.46108
-1.84143
-2.16777
-2.47131
-2.77813
-3.07845
-3.35921
-3.62365
-3.87423
-4.1116
-4.33664
-4.55216
-4.75945
-4.96034
-5.157
-5.34965
-5.53973
-5.72682
-5.91188
-6.09434
-6.27421
-6.4524
-6.62876
-6.80387
-6.97753
-7.1498
-7.32148
-7.49261
-7.66283
-7.83243
-8.00145
-8.16994
-8.3377
-8.50499
-8.6716
-8.83767
-9.0031
-9.16805
-9.33245
-9.49618
-9.65919
-9.82175
-9.98366
-10.1449
-10.3058
-10.466
-10.6258
-10.7851
-10.9439
-11.1022
-11.2599
-11.4176
-11.5746
-11.7312
-11.8873
-12.043
-12.1983
-12.353
-12.5075
-12.6614
-12.815
-12.9683
-13.1211
-13.2735
-13.4256
-13.5775
-13.729
-13.8802
-14.031
-14.1814
-14.3314
-14.481
-14.6305
-14.7797
-14.9288
-15.0777
-15.2264
-15.3748
-15.5228
-15.6704
-15.8179
-15.965
-16.112
-16.2589
-16.4055
-16.5522
-16.6987
-16.845
-16.9912
-17.1372
-17.2829
-17.4285
-17.5737
-17.7184
-17.8626
-18.0046
-18.1438
-18.2732
-18.3849
-1.13046
-1.47906
-1.86266
-2.18595
-2.49086
-2.79891
-3.0997
-3.38012
-3.64456
-3.89508
-4.13234
-4.35712
-4.57236
-4.77943
-4.98025
-5.17677
-5.36942
-5.55937
-5.74658
-5.93163
-6.11408
-6.29385
-6.47198
-6.64829
-6.82331
-6.997
-7.16917
-7.341
-7.51208
-7.68236
-7.85199
-8.02102
-8.18964
-8.35751
-8.52489
-8.69161
-8.85775
-9.02326
-9.18825
-9.35254
-9.51623
-9.67922
-9.84176
-10.0037
-10.1649
-10.3258
-10.4859
-10.6458
-10.805
-10.9638
-11.1221
-11.2799
-11.4375
-11.5945
-11.7511
-11.9073
-12.0629
-12.2182
-12.3729
-12.5274
-12.6814
-12.835
-12.9883
-13.141
-13.2935
-13.4456
-13.5975
-13.749
-13.9002
-14.0511
-14.2015
-14.3516
-14.5012
-14.6506
-14.7999
-14.949
-15.0979
-15.2466
-15.3951
-15.5432
-15.6909
-15.8384
-15.9857
-16.1328
-16.2798
-16.4266
-16.5734
-16.72
-16.8665
-17.0127
-17.1586
-17.3043
-17.4496
-17.5947
-17.7394
-17.8836
-18.0254
-18.1625
-18.2907
-18.4005
-1.11172
-1.49575
-1.88172
-2.2028
-2.50904
-2.81798
-3.119
-3.39893
-3.66333
-3.91365
-4.15057
-4.37562
-4.59038
-4.79708
-4.99768
-5.19398
-5.38653
-5.57628
-5.76359
-5.94846
-6.13097
-6.31077
-6.48906
-6.66553
-6.84068
-7.01454
-7.18682
-7.35884
-7.52995
-7.7003
-7.8699
-8.0388
-8.20736
-8.37515
-8.54247
-8.70912
-8.87519
-9.04064
-9.20557
-9.36983
-9.53351
-9.69645
-9.85891
-10.0208
-10.182
-10.3428
-10.5029
-10.6627
-10.8219
-10.9806
-11.139
-11.2966
-11.4542
-11.6112
-11.7678
-11.9239
-12.0794
-12.2347
-12.3894
-12.5438
-12.6977
-12.8513
-13.0045
-13.1572
-13.3097
-13.4617
-13.6135
-13.765
-13.9161
-14.0669
-14.2173
-14.3672
-14.5168
-14.6662
-14.8154
-14.9644
-15.1133
-15.2619
-15.4103
-15.5583
-15.7059
-15.8533
-16.0005
-16.1475
-16.2943
-16.441
-16.5876
-16.7342
-16.8805
-17.0266
-17.1725
-17.3182
-17.4636
-17.6088
-17.7535
-17.8975
-18.0395
-18.1778
-18.3059
-18.415
-1.09086
-1.51008
-1.89731
-2.21775
-2.52592
-2.83645
-3.13782
-3.41727
-3.68169
-3.93188
-4.16854
-4.39387
-4.60827
-4.81486
-5.01545
-5.21188
-5.40463
-5.59469
-5.78235
-5.96743
-6.15019
-6.33
-6.50839
-6.68487
-6.8599
-7.03358
-7.20561
-7.37756
-7.54857
-7.71889
-7.88852
-8.05744
-8.22603
-8.39383
-8.56118
-8.72786
-8.89396
-9.05944
-9.2244
-9.38866
-9.55238
-9.71532
-9.87776
-10.0396
-10.2008
-10.3617
-10.5218
-10.6817
-10.8409
-10.9996
-11.158
-11.3157
-11.4733
-11.6303
-11.787
-11.9431
-12.0987
-12.254
-12.4087
-12.5632
-12.7172
-12.8708
-13.024
-13.1768
-13.3293
-13.4814
-13.6332
-13.7848
-13.9359
-14.0868
-14.2372
-14.3872
-14.5369
-14.6863
-14.8355
-14.9846
-15.1335
-15.2822
-15.4306
-15.5787
-15.7264
-15.8739
-16.0212
-16.1682
-16.3152
-16.4619
-16.6086
-16.7552
-16.9016
-17.0479
-17.1938
-17.3395
-17.4848
-17.63
-17.7746
-17.9186
-18.06
-18.1969
-18.3235
-18.4311
-1.07626
-1.52466
-1.90955
-2.22729
-2.53628
-2.84859
-3.15049
-3.42938
-3.69397
-3.94417
-4.18069
-4.40566
-4.61986
-4.82636
-5.02682
-5.22314
-5.41579
-5.60571
-5.79326
-5.97815
-6.16062
-6.34
-6.5182
-6.69447
-6.86937
-7.04294
-7.21476
-7.38662
-7.55753
-7.72778
-7.89733
-8.06616
-8.23466
-8.40238
-8.56965
-8.73625
-8.90228
-9.06769
-9.23258
-9.39679
-9.56044
-9.72333
-9.88573
-10.0475
-10.2087
-10.3695
-10.5296
-10.6894
-10.8486
-11.0073
-11.1656
-11.3233
-11.4808
-11.6378
-11.7944
-11.9504
-12.106
-12.2613
-12.4159
-12.5704
-12.7243
-12.8778
-13.0311
-13.1838
-13.3363
-13.4883
-13.6401
-13.7916
-13.9427
-14.0935
-14.2439
-14.3939
-14.5435
-14.6928
-14.842
-14.9911
-15.14
-15.2886
-15.437
-15.585
-15.7327
-15.8801
-16.0273
-16.1743
-16.3212
-16.4679
-16.6146
-16.7612
-16.9075
-17.0537
-17.1996
-17.3453
-17.4907
-17.6358
-17.7804
-17.9244
-18.0662
-18.2038
-18.3308
-18.439
-1.04578
-1.53949
-1.93316
-2.25144
-2.56063
-2.87344
-3.1761
-3.45404
-3.71893
-3.96925
-4.20566
-4.43045
-4.64444
-4.85065
-5.05085
-5.24693
-5.4394
-5.62917
-5.81663
-6.00143
-6.18394
-6.36338
-6.54155
-6.71781
-6.89264
-7.06621
-7.23802
-7.40984
-7.58071
-7.75091
-7.92045
-8.08926
-8.25775
-8.42547
-8.59273
-8.75933
-8.92536
-9.09077
-9.25567
-9.41987
-9.58353
-9.74642
-9.90883
-10.0706
-10.2318
-10.3926
-10.5527
-10.7125
-10.8717
-11.0304
-11.1887
-11.3464
-11.504
-11.661
-11.8175
-11.9736
-12.1292
-12.2845
-12.4391
-12.5936
-12.7475
-12.9011
-13.0543
-13.207
-13.3595
-13.5116
-13.6633
-13.8149
-13.966
-14.1168
-14.2672
-14.4172
-14.5668
-14.7162
-14.8654
-15.0144
-15.1633
-15.312
-15.4604
-15.6084
-15.7561
-15.9035
-16.0507
-16.1978
-16.3447
-16.4914
-16.6381
-16.7846
-16.931
-17.0772
-17.2231
-17.3688
-17.5141
-17.6593
-17.8039
-17.9479
-18.0895
-18.2267
-18.3535
-18.4612
-18.2228
-18.5021
-19.2301
-19.3541
-18.8113
-17.7308
-16.2749
-14.5771
-12.8219
-11.1049
-9.51417
-8.07692
-6.80955
-5.70644
-4.7544
-3.93514
-3.23252
-2.62801
-2.10627
-1.6551
-1.26283
-0.918433
-0.613671
-0.343168
-0.101142
0.116806
0.312316
0.488365
0.644482
0.783166
0.904381
1.0079
1.09411
1.16378
1.21835
1.25962
1.28838
1.30683
1.31757
1.32394
1.32844
1.33289
1.3388
1.34719
1.3577
1.36902
1.37936
1.38543
1.38631
1.3818
1.37461
1.36735
1.36035
1.35524
1.35291
1.35627
1.34917
1.32325
1.28526
1.24894
1.22216
1.19692
1.17274
1.14852
1.12763
1.10766
1.08725
1.06293
1.03226
0.992222
0.949895
0.90756
0.862932
0.820794
0.786314
0.752117
0.721818
0.695746
0.672442
0.651527
0.631994
0.612261
0.590318
0.566405
0.540764
0.514083
0.48702
0.459199
0.430557
0.401173
0.370946
0.340079
0.308194
0.275258
0.240823
0.205203
0.166982
0.126213
0.0787372
0.0316635
-18.2666
-18.4276
-19.1239
-19.2644
-18.7339
-17.6737
-16.2399
-14.5617
-12.822
-11.1164
-9.53396
-8.10136
-6.83649
-5.73443
-4.78223
-3.96209
-3.25798
-2.65168
-2.12804
-1.67502
-1.28099
-0.935037
-0.628982
-0.35742
-0.114136
0.10453
0.300804
0.477318
0.633431
0.771664
0.891572
0.993693
1.07895
1.14774
1.20133
1.2416
1.26949
1.28729
1.29763
1.30396
1.30881
1.31389
1.32057
1.32972
1.34087
1.35259
1.36274
1.36816
1.36818
1.36298
1.35555
1.34828
1.34161
1.33761
1.33731
1.34402
1.34047
1.31709
1.28148
1.24398
1.21693
1.18963
1.16377
1.13833
1.11592
1.09397
1.07243
1.04723
1.01578
0.976049
0.934064
0.89262
0.848757
0.806833
0.772601
0.739024
0.708944
0.682862
0.659312
0.638397
0.618835
0.598877
0.576888
0.55304
0.527521
0.501001
0.474059
0.446324
0.417735
0.388396
0.358241
0.327412
0.295645
0.262977
0.228944
0.193918
0.156949
0.117841
0.0732513
0.0289205
-18.2615
-18.4344
-19.0496
-19.1728
-18.6472
-17.6045
-16.1931
-14.5368
-12.8164
-11.1264
-9.55433
-8.12861
-6.86808
-5.76765
-4.81509
-3.99381
-3.28777
-2.67932
-2.15348
-1.69836
-1.3023
-0.954507
-0.646828
-0.373609
-0.129059
0.0903313
0.287881
0.464887
0.621118
0.758771
0.877329
0.978095
1.06224
1.12994
1.18236
1.22139
1.2482
1.26517
1.275
1.28125
1.28654
1.29249
1.3002
1.31039
1.32237
1.33446
1.34433
1.34902
1.34807
1.34208
1.33436
1.327
1.32065
1.31808
1.32033
1.33023
1.33111
1.31061
1.27775
1.23929
1.21162
1.18196
1.15401
1.12697
1.10315
1.0791
1.05594
1.02974
0.997359
0.957976
0.916496
0.876049
0.833116
0.791587
0.75737
0.724637
0.694824
0.668749
0.64498
0.623979
0.604302
0.584088
0.562054
0.538268
0.512916
0.486573
0.459746
0.4321
0.403565
0.374266
0.344179
0.313427
0.281803
0.249411
0.215823
0.181367
0.145836
0.108603
0.0671866
0.0259559
-18.2885
-18.4537
-18.988
-19.0892
-18.5588
-17.5291
-16.1383
-14.5069
-12.8073
-11.1352
-9.57559
-8.15872
-6.90378
-5.80553
-4.85272
-4.03021
-3.32207
-2.71141
-2.18341
-1.72582
-1.32724
-0.977138
-0.667385
-0.392115
-0.145925
0.0745639
0.27329
0.45057
0.607009
0.743814
0.861407
0.96104
1.04382
1.11021
1.16118
1.19869
1.22415
1.23996
1.24926
1.25558
1.26153
1.26859
1.2776
1.28903
1.30199
1.31448
1.32402
1.32784
1.3258
1.31894
1.31083
1.30333
1.29725
1.29649
1.30164
1.31426
1.32098
1.30386
1.27403
1.23515
1.20617
1.1739
1.14338
1.11434
1.08893
1.06314
1.03765
1.01023
0.97682
0.937711
0.897034
0.857681
0.81587
0.7749
0.740543
0.708833
0.679373
0.653308
0.629368
0.608182
0.588276
0.567797
0.545709
0.521982
0.49682
0.470659
0.443947
0.416387
0.387904
0.358641
0.328624
0.297952
0.266475
0.234383
0.201311
0.167531
0.133554
0.0983995
0.0604751
0.0227295
-18.309
-18.4638
-18.926
-19.0041
-18.4721
-17.4538
-16.0807
-14.476
-12.7986
-11.1462
-9.60077
-8.1939
-6.94464
-5.84903
-4.89634
-4.07263
-3.36231
-2.74904
-2.21851
-1.75793
-1.35621
-1.00328
-0.691048
-0.413402
-0.165206
0.0566998
0.256403
0.434071
0.590675
0.727053
0.844238
0.942457
1.02356
1.08828
1.13742
1.17303
1.19693
1.2115
1.22024
1.22672
1.23366
1.24204
1.25256
1.26539
1.2794
1.29237
1.30163
1.3045
1.30128
1.2934
1.28481
1.27715
1.27131
1.27281
1.2813
1.29635
1.30916
1.29681
1.27043
1.23183
1.20048
1.16541
1.13182
1.10036
1.07293
1.04585
1.01763
0.988485
0.953927
0.915014
0.875505
0.837333
0.796866
0.75661
0.722274
0.691314
0.662488
0.636471
0.612362
0.59093
0.570684
0.549925
0.527753
0.504073
0.4791
0.453117
0.426512
0.399027
0.370594
0.341364
0.311416
0.280827
0.249515
0.21774
0.185216
0.152275
0.119984
0.0871206
0.0530444
0.0191827
-18.3274
-18.4712
-18.8604
-18.91
-18.3784
-17.3723
-16.0217
-14.4465
-12.7929
-11.1619
-9.63188
-8.23635
-6.99322
-5.90075
-4.94838
-4.12319
-3.41029
-2.79351
-2.25936
-1.79515
-1.38971
-1.03339
-0.718248
-0.43781
-0.187188
0.0364394
0.23734
0.415843
0.572619
0.708853
0.8255
0.922167
1.0016
1.06415
1.11095
1.14424
1.16623
1.17984
1.18799
1.19458
1.20239
1.21226
1.22464
1.2392
1.25442
1.26799
1.277
1.27893
1.27449
1.26552
1.25625
1.24823
1.24272
1.24704
1.25963
1.27815
1.29437
1.28874
1.26681
1.22949
1.19442
1.15635
1.11918
1.08489
1.05499
1.02634
0.996282
0.964453
0.928463
0.889752
0.85172
0.814811
0.775937
0.736528
0.702591
0.671938
0.644073
0.618167
0.593859
0.572146
0.551497
0.530403
0.508097
0.484431
0.459628
0.433802
0.407278
0.379852
0.35147
0.322263
0.292381
0.261875
0.230749
0.199312
0.167386
0.135438
0.104962
0.0746098
0.0448019
0.0152298
-18.3443
-18.4747
-18.7907
-18.8067
-18.2752
-17.2822
-15.9559
-14.4126
-12.7875
-11.181
-9.66889
-8.28663
-7.0507
-5.96135
-5.00932
-4.18219
-3.46612
-2.84517
-2.30641
-1.83781
-1.42795
-1.06744
-0.748736
-0.464898
-0.211254
0.0145843
0.217069
0.396753
0.553791
0.689666
0.805299
0.900368
0.977789
1.03806
1.08217
1.11274
1.13225
1.14412
1.15165
1.15875
1.16763
1.1793
1.19363
1.21015
1.22687
1.24114
1.24998
1.25102
1.24541
1.23536
1.22515
1.21639
1.21145
1.21856
1.23612
1.25943
1.27777
1.27959
1.2629
1.22789
1.18789
1.14649
1.10531
1.06779
1.03511
1.00433
0.97342
0.937954
0.900174
0.861914
0.825468
0.789915
0.752885
0.714504
0.681008
0.650951
0.62413
0.59832
0.573772
0.551755
0.53065
0.509148
0.486636
0.462923
0.438251
0.412546
0.386055
0.358664
0.330324
0.301127
0.271311
0.2409
0.20999
0.178918
0.147649
0.116836
0.0883169
0.0607021
0.0356547
0.0107562
-18.3595
-18.4738
-18.7177
-18.6959
-18.1641
-17.1854
-15.8845
-14.3739
-12.7793
-11.1992
-9.70702
-8.33966
-7.11262
-6.0254
-5.07369
-4.24503
-3.52604
-2.90123
-2.35772
-1.88431
-1.46952
-1.10409
-0.781014
-0.493107
-0.235838
-0.00722705
0.197177
0.378182
0.535564
0.670927
0.785081
0.87793
0.951989
1.00867
1.04962
1.07748
1.09481
1.10461
1.11141
1.11912
1.12961
1.14326
1.15957
1.17805
1.19636
1.21135
1.22013
1.22049
1.21387
1.20289
1.19151
1.1816
1.17787
1.18735
1.20999
1.23849
1.26119
1.27007
1.25846
1.22619
1.18086
1.13563
1.09003
1.04892
1.0133
0.98102
0.947477
0.908561
0.868954
0.831643
0.796512
0.762454
0.727479
0.690363
0.657299
0.628411
0.602595
0.576833
0.551976
0.52966
0.508052
0.48608
0.46329
0.439431
0.414796
0.38915
0.362655
0.335259
0.306941
0.277748
0.247982
0.21766
0.186991
0.156308
0.125766
0.0962241
0.0698223
0.0451598
0.0254604
0.00558468
-18.3738
-18.4698
-18.6431
-18.5793
-18.0459
-17.0827
-15.8085
-14.3293
-12.7653
-11.2118
-9.74092
-8.38997
-7.17322
-6.09133
-5.14165
-4.31213
-3.59009
-2.96124
-2.41287
-1.93427
-1.51438
-1.14386
-0.815953
-0.523627
-0.262456
-0.0306677
0.17584
0.358032
0.515707
0.650451
0.762831
0.853045
0.923707
0.976364
1.01385
1.0387
1.05349
1.06137
1.06735
1.07569
1.08791
1.10357
1.12213
1.14275
1.16257
1.17821
1.18695
1.18667
1.1791
1.16761
1.15503
1.14419
1.14251
1.15439
1.18119
1.21549
1.24436
1.25953
1.25294
1.2231
1.1732
1.12357
1.07316
1.02823
0.990319
0.956035
0.917642
0.876188
0.834999
0.798938
0.764743
0.732351
0.699468
0.663916
0.631616
0.604053
0.579121
0.553671
0.528285
0.505665
0.483527
0.461002
0.437899
0.413853
0.389142
0.363442
0.336874
0.309427
0.281101
0.251877
0.222199
0.19202
0.161609
0.131304
0.101562
0.0734221
0.0492772
0.0277539
0.0140946
-0.000515129
-18.3871
-18.463
-18.5687
-18.459
-17.9216
-16.9741
-15.7266
-14.2822
-12.7522
-11.2276
-9.77896
-8.44456
-7.23777
-6.16279
-5.21514
-4.38436
-3.65879
-3.02542
-2.472
-1.98786
-1.56256
-1.18682
-0.85382
-0.556917
-0.291794
-0.0567639
0.151797
0.335082
0.493016
0.626686
0.736807
0.824173
0.891433
0.94052
0.974524
0.996719
1.00939
1.01544
1.02045
1.02923
1.04286
1.06053
1.08143
1.104
1.12512
1.1414
1.1499
1.1488
1.14033
1.12841
1.11481
1.10518
1.10588
1.12045
1.15106
1.19094
1.22615
1.24717
1.24569
1.21709
1.16443
1.10984
1.05444
1.00608
0.966413
0.927286
0.884647
0.840981
0.798839
0.763442
0.730296
0.699663
0.66871
0.635039
0.603974
0.577584
0.553328
0.528301
0.502606
0.47947
0.45691
0.433874
0.410146
0.385829
0.360974
0.335149
0.308525
0.281026
0.252663
0.223326
0.193544
0.163493
0.133424
0.103531
0.0747043
0.0480796
0.0262636
0.00806259
0.00130279
-0.00794239
-18.3998
-18.456
-18.5034
-18.3502
-17.8073
-16.875
-15.6524
-14.2424
-12.7454
-11.2483
-9.82047
-8.50116
-7.30362
-6.23304
-5.28605
-4.45372
-3.72497
-3.08751
-2.52956
-2.04046
-1.61021
-1.22967
-0.892014
-0.590796
-0.321931
-0.0839269
0.126518
0.310765
0.468737
0.601164
0.708953
0.793429
0.857321
0.902833
0.933507
0.953437
0.964767
0.970022
0.974691
0.983895
0.998612
1.01798
1.04049
1.06398
1.08577
1.10261
1.11082
1.10891
1.10037
1.08749
1.0745
1.06747
1.07052
1.08797
1.12218
1.16672
1.20744
1.23329
1.2364
1.20829
1.15406
1.09446
1.0345
0.984617
0.940883
0.895969
0.850386
0.804672
0.76246
0.727038
0.695307
0.666302
0.637012
0.605363
0.575617
0.550104
0.526505
0.501912
0.476656
0.452631
0.429336
0.405476
0.381081
0.356383
0.331221
0.305405
0.278766
0.251189
0.222865
0.193683
0.163934
0.133926
0.103936
0.0744746
0.0466038
0.0213165
0.00172693
-0.0132235
-0.0125598
-0.0168589
-18.4123
-18.4522
-18.4558
-18.2672
-17.7189
-16.7994
-15.5978
-14.2136
-12.7418
-11.2662
-9.8555
-8.54896
-7.35949
-6.29302
-5.34736
-4.5143
-3.78321
-3.14244
-2.58071
-2.0876
-1.65324
-1.26877
-0.927407
-0.622655
-0.35079
-0.110454
0.10149
0.286433
0.444291
0.575582
0.681402
0.763518
0.824785
0.867624
0.895873
0.913742
0.923643
0.928616
0.933716
0.943561
0.959294
0.979858
1.00346
1.02747
1.04926
1.06614
1.07481
1.07322
1.06427
1.05104
1.03969
1.0345
1.03979
1.06002
1.09735
1.14553
1.19041
1.21985
1.226
1.19847
1.14258
1.07851
1.0155
0.964927
0.914889
0.865701
0.81781
0.770739
0.728634
0.693646
0.6633
0.635622
0.607625
0.5778
0.549431
0.524853
0.501581
0.477356
0.452209
0.42691
0.402432
0.378021
0.353404
0.328437
0.302885
0.276993
0.250295
0.222678
0.19421
0.16512
0.135508
0.105865
0.0759584
0.0469228
0.0197598
-0.00446268
-0.0220371
-0.0342764
-0.0266022
-0.0269101
-18.425
-18.4525
-18.425
-18.2099
-17.6567
-16.7465
-15.5601
-14.1947
-12.7419
-11.2832
-9.8859
-8.58926
-7.40609
-6.3429
-5.39835
-4.56471
-3.83183
-3.18846
-2.62381
-2.12764
-1.69017
-1.30276
-0.958608
-0.651216
-0.377143
-0.135076
0.07796
0.263329
0.42098
0.551336
0.655617
0.735935
0.795274
0.836161
0.862653
0.878925
0.887828
0.892779
0.898579
0.909169
0.925687
0.946947
0.971165
0.995855
1.01817
1.03501
1.04391
1.04293
1.03338
1.02078
1.01044
1.0068
1.01427
1.03704
1.07706
1.12813
1.17609
1.20823
1.21604
1.18882
1.13077
1.06279
0.999416
0.945176
0.889988
0.837735
0.787914
0.740491
0.698581
0.664503
0.635389
0.608746
0.581813
0.553863
0.526763
0.502619
0.478977
0.454533
0.428941
0.402734
0.377642
0.352959
0.328082
0.30306
0.277507
0.251724
0.225107
0.197583
0.169204
0.13997
0.110247
0.0804475
0.0506768
0.0218928
-0.00477003
-0.0281774
-0.0440875
-0.0543009
-0.0405563
-0.0376552
-18.4381
-18.4564
-18.407
-18.1724
-17.6153
-16.7119