/*--------------------------------*- C++ -*----------------------------------*\
| =========                 |                                                 |
| \\      /  F ield         | OpenFOAM: The Open Source CFD Toolbox           |
|  \\    /   O peration     | Version:  v2012                                 |
|   \\  /    A nd           | Website:  www.openfoam.com                      |
|    \\/     M anipulation  |                                                 |
\*---------------------------------------------------------------------------*/
FoamFile
{
    version     2.0;
    format      ascii;
    class       volScalarField;
    location    "0.257";
    object      p;
}
// * * * * * * * * * * * * * * * * * * * * * * * * * * * * * * * * * * * * * //

dimensions      [0 2 -2 0 0 0 0];


internalField   nonuniform List<scalar> 
5600
(
-0.556099
-1.01421
-1.39478
-1.71323
-2.02399
-2.33442
-2.63556
-2.91744
-3.18049
-3.43054
-3.66731
-3.89178
-4.10645
-4.31259
-4.5128
-4.70878
-4.90069
-5.09078
-5.27763
-5.46286
-5.64547
-5.8258
-6.00373
-6.17982
-6.35489
-6.52826
-6.70059
-6.8718
-7.04257
-7.21282
-7.38251
-7.55146
-7.71968
-7.88736
-8.05475
-8.22125
-8.38743
-8.55275
-8.71761
-8.88185
-9.04534
-9.20852
-9.37088
-9.53261
-9.69389
-9.85456
-10.0148
-10.1744
-10.3337
-10.4925
-10.6507
-10.8085
-10.9659
-11.1228
-11.2793
-11.4354
-11.5911
-11.7463
-11.9011
-12.0554
-12.2093
-12.3629
-12.5162
-12.669
-12.8214
-12.9735
-13.1252
-13.2766
-13.4276
-13.5783
-13.7288
-13.8789
-14.0288
-14.1784
-14.3276
-14.4766
-14.6253
-14.7738
-14.9219
-15.07
-15.2177
-15.3654
-15.5126
-15.6598
-15.8066
-15.9534
-16.1
-16.2465
-16.3928
-16.5388
-16.6845
-16.8299
-16.9758
-17.1214
-17.2677
-17.4142
-17.5634
-17.7168
-17.8743
-18.1194
-0.615136
-1.03439
-1.41139
-1.73104
-2.04198
-2.35276
-2.65381
-2.93596
-3.19936
-3.44946
-3.68646
-3.91123
-4.12623
-4.33274
-4.53331
-4.72961
-4.92181
-5.11215
-5.29916
-5.48446
-5.6673
-5.84773
-6.02572
-6.20191
-6.37713
-6.55062
-6.72305
-6.89434
-7.06521
-7.23555
-7.40532
-7.57434
-7.74259
-7.9103
-8.07773
-8.24426
-8.41047
-8.57582
-8.74071
-8.90499
-9.0685
-9.23172
-9.39412
-9.55586
-9.71718
-9.87785
-10.0381
-10.1977
-10.357
-10.5158
-10.674
-10.8319
-10.9893
-11.1461
-11.3026
-11.4587
-11.6144
-11.7696
-11.9243
-12.0786
-12.2325
-12.3861
-12.5394
-12.6921
-12.8446
-12.9966
-13.1484
-13.2997
-13.4508
-13.6015
-13.7519
-13.902
-14.0519
-14.2015
-14.3507
-14.4997
-14.6484
-14.7969
-14.945
-15.0931
-15.2408
-15.3885
-15.5357
-15.6829
-15.8297
-15.9765
-16.123
-16.2696
-16.4158
-16.5619
-16.7075
-16.8532
-16.9987
-17.1449
-17.29
-17.4383
-17.5845
-17.7418
-17.8942
-18.1317
-0.653388
-1.04701
-1.42414
-1.74439
-2.05319
-2.36148
-2.66142
-2.94321
-3.20631
-3.45615
-3.69284
-3.9177
-4.13274
-4.33921
-4.53985
-4.73611
-4.92838
-5.1187
-5.30574
-5.49105
-5.67387
-5.85436
-6.03248
-6.20878
-6.38385
-6.55736
-6.7297
-6.901
-7.07176
-7.24207
-7.41175
-7.58072
-7.74902
-7.91674
-8.08415
-8.25066
-8.41685
-8.58217
-8.74703
-8.91126
-9.07471
-9.23788
-9.40019
-9.56185
-9.72311
-9.88378
-10.0441
-10.2037
-10.363
-10.5217
-10.68
-10.8378
-10.9952
-11.1521
-11.3087
-11.4648
-11.6206
-11.7758
-11.9307
-12.085
-12.239
-12.3927
-12.546
-12.6988
-12.8513
-13.0034
-13.1552
-13.3066
-13.4577
-13.6084
-13.7589
-13.909
-14.0589
-14.2085
-14.3578
-14.5068
-14.6556
-14.8041
-14.9522
-15.1003
-15.2481
-15.3957
-15.543
-15.6902
-15.837
-15.9838
-16.1304
-16.277
-16.4232
-16.5693
-16.7149
-16.8606
-17.0061
-17.1523
-17.2975
-17.4458
-17.5924
-17.7503
-17.9018
-18.1293
-0.702113
-1.06349
-1.43952
-1.76123
-2.06876
-2.37613
-2.6764
-2.95886
-3.22255
-3.47275
-3.71
-3.93487
-4.15039
-4.35705
-4.55777
-4.75391
-4.94611
-5.13611
-5.32291
-5.50785
-5.69055
-5.87094
-6.04906
-6.2255
-6.40063
-6.57447
-6.74714
-6.9188
-7.08979
-7.26033
-7.43018
-7.5993
-7.7676
-7.9354
-8.10287
-8.26948
-8.43575
-8.60117
-8.76613
-8.93049
-9.09407
-9.25741
-9.4199
-9.58176
-9.7432
-9.90388
-10.0642
-10.2239
-10.3832
-10.5421
-10.7004
-10.8583
-11.0158
-11.1727
-11.3292
-11.4852
-11.641
-11.7961
-11.9508
-12.1051
-12.259
-12.4126
-12.5658
-12.7185
-12.8709
-13.0229
-13.1747
-13.326
-13.477
-13.6277
-13.7782
-13.9283
-14.0782
-14.2277
-14.3769
-14.5259
-14.6746
-14.8231
-14.9713
-15.1193
-15.2671
-15.4147
-15.5619
-15.7091
-15.856
-16.0027
-16.1493
-16.2958
-16.442
-16.5881
-16.7337
-16.8794
-17.025
-17.1709
-17.3165
-17.4639
-17.6112
-17.7671
-17.9232
-18.1282
-0.751738
-1.08062
-1.45526
-1.77942
-2.08536
-2.3919
-2.69185
-2.97415
-3.23785
-3.48785
-3.72534
-3.94994
-4.16569
-4.37252
-4.57351
-4.76975
-4.9622
-5.15227
-5.33926
-5.52426
-5.70696
-5.88736
-6.06545
-6.24178
-6.41668
-6.59038
-6.76282
-6.93432
-7.10505
-7.27549
-7.44525
-7.61436
-7.78271
-7.95061
-8.11807
-8.28473
-8.45097
-8.61643
-8.78132
-8.94566
-9.10916
-9.2724
-9.43476
-9.59655
-9.75788
-9.91855
-10.0788
-10.2385
-10.3977
-10.5565
-10.7148
-10.8726
-11.0299
-11.1868
-11.3433
-11.4994
-11.6553
-11.8105
-11.9654
-12.1197
-12.2736
-12.4273
-12.5807
-12.7336
-12.8861
-13.0382
-13.19
-13.3414
-13.4925
-13.6433
-13.7938
-13.944
-14.0939
-14.2435
-14.3927
-14.5418
-14.6906
-14.839
-14.9873
-15.1353
-15.2831
-15.4308
-15.578
-15.7252
-15.8721
-16.0188
-16.1655
-16.312
-16.4583
-16.6043
-16.7501
-16.8956
-17.0413
-17.1872
-17.3328
-17.4802
-17.6272
-17.7827
-17.9358
-18.1323
-0.801769
-1.09995
-1.47253
-1.79968
-2.104
-2.40955
-2.70915
-2.99144
-3.2554
-3.50557
-3.74331
-3.96824
-4.18429
-4.39137
-4.59259
-4.78891
-4.9815
-5.17153
-5.35861
-5.5436
-5.72615
-5.90654
-6.08467
-6.26107
-6.436
-6.60978
-6.78224
-6.95378
-7.12456
-7.29485
-7.46464
-7.63368
-7.802
-7.9698
-8.13713
-8.30373
-8.46985
-8.63528
-8.80012
-8.96441
-9.12795
-9.29137
-9.45381
-9.61568
-9.77706
-9.93784
-10.0982
-10.2579
-10.4172
-10.5761
-10.7344
-10.8924
-11.0498
-11.2067
-11.3633
-11.5194
-11.6752
-11.8304
-11.9852
-12.1396
-12.2936
-12.4472
-12.6004
-12.7531
-12.9056
-13.0577
-13.2095
-13.3608
-13.5119
-13.6626
-13.8131
-13.9632
-14.1131
-14.2627
-14.412
-14.561
-14.7098
-14.8582
-15.0065
-15.1545
-15.3023
-15.4499
-15.5972
-15.7444
-15.8913
-16.038
-16.1846
-16.3311
-16.4774
-16.6235
-16.7692
-16.9148
-17.0605
-17.2063
-17.3519
-17.4991
-17.6459
-17.8001
-17.9518
-18.1381
-0.851183
-1.12178
-1.49158
-1.82197
-2.12484
-2.42932
-2.72868
-3.01099
-3.27516
-3.52545
-3.76328
-3.98849
-4.20459
-4.41185
-4.61318
-4.80959
-5.00229
-5.19231
-5.37947
-5.56443
-5.74699
-5.92741
-6.1056
-6.28204
-6.457
-6.63077
-6.80327
-6.97481
-7.1457
-7.31587
-7.48569
-7.65473
-7.82309
-7.99088
-8.15819
-8.32482
-8.49089
-8.65633
-8.82113
-8.98537
-9.14892
-9.31225
-9.47467
-9.63646
-9.79774
-9.95845
-10.1187
-10.2784
-10.4376
-10.5964
-10.7547
-10.9126
-11.07
-11.227
-11.3835
-11.5396
-11.6955
-11.8508
-12.0056
-12.16
-12.3139
-12.4675
-12.6208
-12.7737
-12.9262
-13.0783
-13.2301
-13.3815
-13.5326
-13.6833
-13.8338
-13.9839
-14.1339
-14.2834
-14.4327
-14.5818
-14.7306
-14.879
-15.0273
-15.1753
-15.3232
-15.4708
-15.6181
-15.7653
-15.9122
-16.0589
-16.2055
-16.3521
-16.4983
-16.6445
-16.7901
-16.9358
-17.0814
-17.2272
-17.3728
-17.5196
-17.6663
-17.8188
-17.9686
-18.1443
-0.89816
-1.14627
-1.51298
-1.84645
-2.14811
-2.45155
-2.75077
-3.03307
-3.29741
-3.5478
-3.78568
-4.01116
-4.22729
-4.43479
-4.63623
-4.83278
-5.02559
-5.21561
-5.40284
-5.5878
-5.77038
-5.95078
-6.12898
-6.30544
-6.48043
-6.65419
-6.82671
-6.99827
-7.16918
-7.33938
-7.50917
-7.67822
-7.84658
-8.01439
-8.18168
-8.34833
-8.51439
-8.67983
-8.84465
-9.00891
-9.17255
-9.33568
-9.49813
-9.65995
-9.82122
-9.98195
-10.1422
-10.3019
-10.4611
-10.6199
-10.7781
-10.936
-11.0934
-11.2504
-11.4069
-11.563
-11.7188
-11.874
-12.0288
-12.1831
-12.3371
-12.4906
-12.6439
-12.7967
-12.9492
-13.1013
-13.2531
-13.4045
-13.5557
-13.7064
-13.8569
-14.007
-14.157
-14.3065
-14.4558
-14.6049
-14.7538
-14.9022
-15.0504
-15.1985
-15.3463
-15.4939
-15.6413
-15.7884
-15.9353
-16.082
-16.2287
-16.3752
-16.5215
-16.6676
-16.8133
-16.9589
-17.1045
-17.2503
-17.3958
-17.5423
-17.6886
-17.8392
-17.9866
-18.1511
-0.941139
-1.17335
-1.5373
-1.87324
-2.17402
-2.4766
-2.77574
-3.05801
-3.32245
-3.57295
-3.81087
-4.03658
-4.25272
-4.46042
-4.66193
-4.85857
-5.05145
-5.24145
-5.42871
-5.61368
-5.79626
-5.97661
-6.15483
-6.33131
-6.50633
-6.68009
-6.85263
-7.02421
-7.19514
-7.36538
-7.53512
-7.70417
-7.87255
-8.04036
-8.20765
-8.3743
-8.54036
-8.70578
-8.87062
-9.03488
-9.19852
-9.3616
-9.52408
-9.68592
-9.84718
-10.0079
-10.1681
-10.3278
-10.4871
-10.6458
-10.8041
-10.962
-11.1193
-11.2764
-11.4329
-11.589
-11.7447
-11.8999
-12.0547
-12.209
-12.363
-12.5165
-12.6697
-12.8225
-12.975
-13.1271
-13.2788
-13.4303
-13.5814
-13.7321
-13.8826
-14.0327
-14.1826
-14.3322
-14.4814
-14.6304
-14.7792
-14.9277
-15.076
-15.224
-15.3718
-15.5194
-15.6667
-15.8139
-15.9608
-16.1075
-16.2542
-16.4007
-16.547
-16.6931
-16.8388
-16.9845
-17.13
-17.2757
-17.4211
-17.5673
-17.713
-17.8616
-18.006
-18.1588
-0.978319
-1.20255
-1.56513
-1.90251
-2.20277
-2.50488
-2.80403
-3.08621
-3.35072
-3.60131
-3.83924
-4.06509
-4.28121
-4.48903
-4.69056
-4.88727
-5.0802
-5.2702
-5.45749
-5.64247
-5.82504
-6.00535
-6.18359
-6.36009
-6.53513
-6.70887
-6.88142
-7.05302
-7.22397
-7.39424
-7.56392
-7.73298
-7.90137
-8.06919
-8.23648
-8.40311
-8.56918
-8.7346
-8.89943
-9.06372
-9.22736
-9.39043
-9.5529
-9.71476
-9.876
-10.0368
-10.197
-10.3566
-10.5159
-10.6746
-10.8329
-10.9908
-11.1481
-11.3052
-11.4617
-11.6178
-11.7735
-11.9287
-12.0835
-12.2378
-12.3918
-12.5454
-12.6986
-12.8514
-13.0038
-13.1559
-13.3077
-13.4591
-13.6102
-13.761
-13.9113
-14.0616
-14.2114
-14.361
-14.5102
-14.6592
-14.808
-14.9565
-15.1047
-15.2527
-15.4005
-15.548
-15.6953
-15.8425
-15.9894
-16.136
-16.2827
-16.4292
-16.5754
-16.7215
-16.8673
-17.0129
-17.1584
-17.304
-17.4493
-17.5951
-17.7401
-17.8865
-18.0273
-18.1684
-1.00567
-1.23185
-1.59554
-1.93285
-2.23301
-2.53526
-2.8345
-3.11652
-3.38105
-3.63171
-3.8696
-4.09547
-4.31153
-4.51939
-4.72089
-4.91762
-5.11056
-5.30056
-5.48785
-5.67285
-5.85541
-6.03566
-6.2139
-6.39039
-6.56546
-6.73917
-6.91171
-7.08331
-7.25429
-7.42458
-7.59422
-7.76329
-7.93169
-8.09951
-8.26681
-8.43342
-8.5995
-8.76492
-8.92972
-9.09407
-9.25769
-9.42076
-9.5832
-9.74508
-9.90631
-10.0671
-10.2273
-10.387
-10.5462
-10.705
-10.8633
-11.0211
-11.1784
-11.3356
-11.492
-11.6482
-11.8038
-11.959
-12.1138
-12.2682
-12.4221
-12.5757
-12.7289
-12.8817
-13.0342
-13.1863
-13.338
-13.4894
-13.6405
-13.7913
-13.9416
-14.0919
-14.2417
-14.3913
-14.5405
-14.6895
-14.8383
-14.9867
-15.1349
-15.283
-15.4307
-15.5783
-15.7257
-15.8728
-16.0197
-16.1664
-16.313
-16.4595
-16.6058
-16.7519
-16.8977
-17.0433
-17.1888
-17.3342
-17.4794
-17.6247
-17.769
-17.913
-18.0503
-18.1816
-1.02046
-1.2585
-1.6256
-1.96132
-2.2618
-2.56479
-2.86423
-3.14601
-3.41052
-3.66121
-3.89899
-4.1248
-4.34074
-4.54854
-4.74998
-4.94668
-5.1396
-5.32959
-5.51684
-5.70188
-5.88441
-6.0646
-6.24283
-6.41931
-6.5944
-6.76809
-6.94062
-7.11221
-7.28323
-7.45353
-7.62312
-7.7922
-7.96061
-8.12843
-8.29574
-8.46232
-8.62843
-8.79383
-8.9586
-9.123
-9.28661
-9.44966
-9.61208
-9.77398
-9.93522
-10.096
-10.2562
-10.4159
-10.5751
-10.7339
-10.8922
-11.0501
-11.2074
-11.3645
-11.521
-11.6771
-11.8327
-11.9879
-12.1427
-12.297
-12.451
-12.6046
-12.7577
-12.9106
-13.063
-13.2151
-13.3669
-13.5183
-13.6694
-13.8202
-13.9706
-14.1209
-14.2707
-14.4203
-14.5695
-14.7186
-14.8673
-15.0158
-15.1641
-15.3121
-15.4599
-15.6075
-15.7548
-15.9019
-16.0489
-16.1956
-16.3423
-16.4888
-16.6351
-16.7813
-16.9271
-17.0728
-17.2182
-17.3636
-17.5086
-17.6535
-17.7971
-17.9392
-18.0735
-18.1971
-1.02418
-1.28207
-1.65363
-1.98666
-2.28787
-2.59196
-2.89165
-3.17315
-3.43762
-3.68833
-3.92597
-4.15163
-4.36743
-4.5751
-4.77642
-4.97306
-5.16595
-5.35592
-5.54314
-5.72821
-5.91071
-6.09083
-6.26904
-6.4455
-6.6206
-6.79424
-6.96676
-7.13832
-7.3094
-7.47968
-7.64925
-7.81832
-7.98674
-8.15456
-8.32187
-8.48845
-8.65456
-8.81997
-8.98473
-9.14919
-9.31276
-9.47581
-9.63823
-9.8001
-9.96136
-10.1221
-10.2823
-10.442
-10.6012
-10.76
-10.9182
-11.0761
-11.2335
-11.3906
-11.5471
-11.7032
-11.8589
-12.0141
-12.1689
-12.3233
-12.4773
-12.6309
-12.7841
-12.9369
-13.0894
-13.2415
-13.3933
-13.5447
-13.6959
-13.8466
-13.9972
-14.1474
-14.2972
-14.4468
-14.5961
-14.7452
-14.894
-15.0425
-15.1907
-15.3388
-15.4866
-15.6341
-15.7814
-15.9285
-16.0754
-16.2221
-16.3687
-16.5152
-16.6614
-16.8074
-16.9534
-17.0991
-17.2446
-17.39
-17.535
-17.6795
-17.8223
-17.963
-18.0951
-18.2132
-1.0191
-1.3034
-1.67959
-2.00931
-2.31158
-2.61694
-2.91693
-3.19806
-3.46247
-3.71319
-3.95065
-4.17613
-4.39179
-4.59929
-4.80048
-4.99703
-5.18986
-5.37981
-5.56697
-5.75209
-5.93456
-6.11461
-6.29279
-6.46925
-6.64434
-6.81796
-6.99045
-7.16197
-7.3331
-7.50336
-7.67291
-7.84197
-8.0104
-8.1782
-8.34551
-8.51208
-8.67818
-8.84353
-9.00833
-9.17281
-9.33638
-9.49941
-9.66185
-9.82372
-9.985
-10.1457
-10.306
-10.4657
-10.625
-10.7838
-10.9421
-11.0999
-11.2574
-11.4145
-11.5711
-11.7272
-11.8829
-12.0382
-12.193
-12.3474
-12.5014
-12.655
-12.8083
-12.9611
-13.1135
-13.2655
-13.4173
-13.5688
-13.7199
-13.8706
-14.0212
-14.1714
-14.3212
-14.4708
-14.6201
-14.7692
-14.9179
-15.0664
-15.2147
-15.3628
-15.5106
-15.6581
-15.8055
-15.9526
-16.0996
-16.2463
-16.3931
-16.5397
-16.686
-16.8321
-16.9778
-17.1234
-17.2689
-17.4141
-17.559
-17.7034
-17.8461
-17.985
-18.1153
-18.2294
-1.00777
-1.32286
-1.70322
-2.02953
-2.33312
-2.63982
-2.94023
-3.22099
-3.48532
-3.73601
-3.97327
-4.19847
-4.41395
-4.62127
-4.82231
-5.01874
-5.21149
-5.40139
-5.5885
-5.77364
-5.95605
-6.13604
-6.31415
-6.49062
-6.66567
-6.83932
-7.0117
-7.18327
-7.35442
-7.52464
-7.69419
-7.86323
-8.03172
-8.19952
-8.36684
-8.53345
-8.69957
-8.86495
-9.02988
-9.19433
-9.3579
-9.521
-9.68352
-9.84543
-10.0068
-10.1676
-10.3279
-10.4876
-10.6469
-10.8057
-10.964
-11.1218
-11.2793
-11.4363
-11.5929
-11.749
-11.9047
-12.0599
-12.2147
-12.3691
-12.5231
-12.6767
-12.8299
-12.9828
-13.1352
-13.2872
-13.439
-13.5905
-13.7416
-13.8923
-14.0428
-14.193
-14.3428
-14.4924
-14.6417
-14.7907
-14.9394
-15.0879
-15.2361
-15.3841
-15.5319
-15.6794
-15.8267
-15.9737
-16.1206
-16.2672
-16.4137
-16.5601
-16.7064
-16.8524
-16.9984
-17.1441
-17.2897
-17.435
-17.5797
-17.7238
-17.8658
-18.0049
-18.1341
-18.2454
-0.992238
-1.34084
-1.72445
-2.0477
-2.35267
-2.66061
-2.96148
-3.24191
-3.50623
-3.75686
-3.99401
-4.21895
-4.43415
-4.64124
-4.8422
-5.03851
-5.23125
-5.42105
-5.60825
-5.79341
-5.97579
-6.15569
-6.33372
-6.51015
-6.68513
-6.85876
-7.0311
-7.20277
-7.3739
-7.54417
-7.71375
-7.88281
-8.05142
-8.21932
-8.38675
-8.55346
-8.71964
-8.88513
-9.05005
-9.21443
-9.37796
-9.54103
-9.70354
-9.86543
-10.0268
-10.1875
-10.3478
-10.5076
-10.6669
-10.8256
-10.9839
-11.1417
-11.2992
-11.4563
-11.6128
-11.7689
-11.9246
-12.0799
-12.2347
-12.3891
-12.5431
-12.6967
-12.8499
-13.0027
-13.1552
-13.3072
-13.459
-13.6105
-13.7616
-13.9124
-14.0629
-14.2131
-14.363
-14.5126
-14.6619
-14.8109
-14.9597
-15.1082
-15.2565
-15.4045
-15.5524
-15.7
-15.8473
-15.9945
-16.1414
-16.2883
-16.4349
-16.5815
-16.7279
-16.874
-17.0198
-17.1654
-17.3108
-17.456
-17.6007
-17.7449
-17.8866
-18.0236
-18.1516
-18.2609
-0.973503
-1.35753
-1.74351
-2.06455
-2.37085
-2.67969
-2.98078
-3.26071
-3.52501
-3.77543
-4.01224
-4.23744
-4.45218
-4.65889
-4.85963
-5.05573
-5.24834
-5.43798
-5.62524
-5.81025
-5.99266
-6.17262
-6.35079
-6.52739
-6.70252
-6.87627
-7.04877
-7.2206
-7.39178
-7.56211
-7.73165
-7.90059
-8.06913
-8.23697
-8.40432
-8.57097
-8.73707
-8.90252
-9.06737
-9.23172
-9.39524
-9.55825
-9.72069
-9.88252
-10.0438
-10.2045
-10.3648
-10.5245
-10.6837
-10.8425
-11.0007
-11.1585
-11.3159
-11.473
-11.6294
-11.7855
-11.9411
-12.0963
-12.2511
-12.4055
-12.5594
-12.713
-12.8662
-13.0189
-13.1713
-13.3233
-13.4751
-13.6265
-13.7775
-13.9282
-14.0787
-14.2288
-14.3786
-14.5281
-14.6773
-14.8263
-14.975
-15.1235
-15.2717
-15.4196
-15.5674
-15.7149
-15.8621
-16.0092
-16.156
-16.3027
-16.4492
-16.5956
-16.7418
-16.8879
-17.0337
-17.1794
-17.3248
-17.4701
-17.6147
-17.7588
-17.9008
-18.0389
-18.1668
-18.2754
-0.952649
-1.37186
-1.7591
-2.0795
-2.38773
-2.69817
-2.99959
-3.27905
-3.54337
-3.79366
-4.03023
-4.25567
-4.47009
-4.67666
-4.87741
-5.07363
-5.26643
-5.45642
-5.64399
-5.82924
-6.01186
-6.19187
-6.37012
-6.54672
-6.72176
-6.8953
-7.06758
-7.2393
-7.4104
-7.58071
-7.75027
-7.91924
-8.0878
-8.25565
-8.42303
-8.58971
-8.75584
-8.92132
-9.08619
-9.25055
-9.4141
-9.57713
-9.73954
-9.90137
-10.0627
-10.2234
-10.3837
-10.5435
-10.7027
-10.8615
-11.0198
-11.1775
-11.335
-11.4921
-11.6486
-11.8047
-11.9604
-12.1157
-12.2705
-12.4249
-12.5789
-12.7325
-12.8857
-13.0385
-13.1909
-13.343
-13.4948
-13.6462
-13.7973
-13.9481
-14.0986
-14.2488
-14.3987
-14.5482
-14.6975
-14.8465
-14.9953
-15.1438
-15.292
-15.4401
-15.5879
-15.7354
-15.8828
-16.0299
-16.1768
-16.3236
-16.4702
-16.6167
-16.763
-16.9091
-17.055
-17.2006
-17.346
-17.4913
-17.6359
-17.7799
-17.9212
-18.0579
-18.1844
-18.2915
-0.938048
-1.38643
-1.77134
-2.08904
-2.39808
-2.71031
-3.01225
-3.29117
-3.55565
-3.80594
-4.04239
-4.26745
-4.48169
-4.68814
-4.88879
-5.0849
-5.27758
-5.46744
-5.65489
-5.83997
-6.02228
-6.20187
-6.37992
-6.55632
-6.73124
-6.90465
-7.07674
-7.24835
-7.41936
-7.5896
-7.75908
-7.92795
-8.09643
-8.2642
-8.4315
-8.59811
-8.76416
-8.92958
-9.09438
-9.25868
-9.42216
-9.58514
-9.74751
-9.9093
-10.0706
-10.2313
-10.3915
-10.5512
-10.7104
-10.8691
-11.0273
-11.1851
-11.3425
-11.4995
-11.656
-11.8121
-11.9677
-12.1229
-12.2777
-12.432
-12.586
-12.7395
-12.8927
-13.0455
-13.1979
-13.3499
-13.5016
-13.653
-13.8041
-13.9548
-14.1053
-14.2555
-14.4052
-14.5548
-14.704
-14.853
-15.0017
-15.1502
-15.2984
-15.4464
-15.5942
-15.7417
-15.8889
-16.036
-16.1829
-16.3296
-16.4762
-16.6226
-16.7689
-16.915
-17.0608
-17.2064
-17.3519
-17.4971
-17.6417
-17.7857
-17.9274
-18.0649
-18.1917
-18.2994
-0.907574
-1.40126
-1.79496
-2.11319
-2.42243
-2.73517
-3.03786
-3.31583
-3.58062
-3.83102
-4.06737
-4.29224
-4.50628
-4.71243
-4.91281
-5.10869
-5.30119
-5.4909
-5.67826
-5.86326
-6.0456
-6.22525
-6.40327
-6.57965
-6.75451
-6.92792
-7.1
-7.27158
-7.44254
-7.61274
-7.78219
-7.95105
-8.11952
-8.28728
-8.45458
-8.62119
-8.78724
-8.95266
-9.11746
-9.28176
-9.44526
-9.60823
-9.77061
-9.9324
-10.0937
-10.2544
-10.4146
-10.5743
-10.7335
-10.8923
-11.0505
-11.2082
-11.3657
-11.5227
-11.6792
-11.8353
-11.9909
-12.1461
-12.3009
-12.4553
-12.6092
-12.7628
-12.9159
-13.0687
-13.2211
-13.3732
-13.5249
-13.6763
-13.8274
-13.9781
-14.1286
-14.2788
-14.4286
-14.5781
-14.7274
-14.8763
-15.0251
-15.1735
-15.3218
-15.4698
-15.6175
-15.7651
-15.9124
-16.0594
-16.2063
-16.3531
-16.4996
-16.6461
-16.7924
-16.9384
-17.0843
-17.2299
-17.3753
-17.5206
-17.6652
-17.8092
-17.9507
-18.0878
-18.2144
-18.3216
-18.085
-18.3539
-19.0899
-19.2148
-18.6732
-17.591
-16.1317
-14.4285
-12.6679
-10.9454
-9.35141
-7.9145
-6.65073
-5.55488
-4.61335
-3.80617
-3.1154
-2.5211
-2.00775
-1.56309
-1.17532
-0.834675
-0.534164
-0.267963
-0.0309911
0.181632
0.372262
0.543312
0.696673
0.835013
0.960343
1.0733
1.1743
1.26501
1.34686
1.41959
1.48414
1.54019
1.588
1.62749
1.65879
1.68212
1.69792
1.7069
1.70937
1.70589
1.69749
1.68517
1.66998
1.65301
1.63511
1.61706
1.59944
1.58243
1.56575
1.54902
1.53208
1.51487
1.49657
1.47667
1.45553
1.43361
1.41056
1.38648
1.36207
1.33748
1.31288
1.28654
1.25451
1.21814
1.17817
1.14053
1.10558
1.07144
1.03684
1.00115
0.965814
0.931438
0.897275
0.861246
0.822852
0.780521
0.737059
0.693784
0.649102
0.603191
0.558152
0.513094
0.469239
0.426873
0.386173
0.347695
0.309817
0.272722
0.235487
0.198266
0.159135
0.119608
0.0711996
0.030858
-18.1277
-18.2798
-18.9835
-19.1252
-18.5957
-17.5338
-16.0967
-14.4131
-12.6682
-10.9571
-9.37153
-7.93931
-6.67799
-5.58314
-4.64139
-3.83325
-3.1409
-2.54483
-2.02969
-1.58338
-1.19413
-0.852223
-0.550653
-0.283366
-0.0455055
0.167776
0.358924
0.530437
0.684083
0.822648
0.947435
1.05993
1.16122
1.25207
1.33398
1.40667
1.47116
1.52704
1.57464
1.61385
1.64485
1.66785
1.68331
1.69193
1.69406
1.69028
1.68165
1.66915
1.65387
1.6369
1.61908
1.60119
1.58382
1.56714
1.55078
1.53435
1.51763
1.50055
1.48226
1.46232
1.44114
1.41924
1.39635
1.37256
1.34856
1.32454
1.30073
1.27547
1.2443
1.20873
1.16937
1.13099
1.09579
1.06079
1.02547
0.989269
0.953296
0.917874
0.883263
0.846916
0.808234
0.766105
0.722766
0.679972
0.635794
0.589994
0.545066
0.500146
0.456488
0.414205
0.373533
0.334975
0.297124
0.260215
0.223381
0.186719
0.148813
0.110815
0.0659599
0.0267787
-18.1228
-18.2873
-18.9088
-19.0336
-18.5089
-17.4644
-16.0498
-14.3883
-12.6628
-10.9673
-9.39231
-7.9671
-6.7101
-5.61677
-4.6746
-3.86515
-3.17082
-2.57268
-2.0555
-1.60732
-1.21639
-0.87297
-0.570081
-0.30155
-0.0625954
0.151595
0.343488
0.515812
0.670167
0.809419
0.9337
1.04518
1.14672
1.23792
1.31986
1.39254
1.45695
1.51263
1.55996
1.59884
1.62947
1.65208
1.66712
1.6753
1.67701
1.67288
1.66396
1.65123
1.63581
1.61886
1.60119
1.58353
1.5665
1.5502
1.53422
1.51814
1.50168
1.4847
1.46642
1.44647
1.42523
1.40336
1.38063
1.35713
1.3336
1.31031
1.28722
1.26327
1.23307
1.19839
1.1598
1.12062
1.08508
1.04911
1.01293
0.975983
0.939522
0.902964
0.867726
0.831021
0.792011
0.750091
0.706928
0.664655
0.621094
0.575428
0.53061
0.4859
0.442449
0.400255
0.359622
0.320973
0.283156
0.246458
0.210045
0.174036
0.137484
0.101194
0.0603247
0.0223951
-18.1493
-18.3075
-18.8468
-18.95
-18.4202
-17.3889
-15.9949
-14.3585
-12.654
-10.9767
-9.41417
-7.99796
-6.74654
-5.65523
-4.71271
-3.90183
-3.2054
-2.60526
-2.08606
-1.63562
-1.24259
-0.897265
-0.592699
-0.322716
-0.0824603
0.132842
0.325671
0.498911
0.654116
0.794027
0.918141
1.029
1.13077
1.22234
1.30431
1.37723
1.44147
1.49687
1.54389
1.58238
1.61255
1.63468
1.64922
1.65685
1.65804
1.65345
1.64416
1.63119
1.61565
1.59875
1.58129
1.56393
1.54728
1.53142
1.51591
1.50021
1.48403
1.4672
1.44893
1.42894
1.40764
1.38581
1.36324
1.34004
1.31708
1.29473
1.27219
1.24958
1.22073
1.18704
1.14927
1.10948
1.07329
1.03627
0.999054
0.961184
0.92415
0.886701
0.850512
0.813384
0.774024
0.732275
0.68941
0.647668
0.604853
0.559358
0.514657
0.470239
0.427006
0.384912
0.344323
0.305577
0.267815
0.231334
0.19537
0.160125
0.125064
0.0906952
0.0542321
0.0177872
-18.1696
-18.3184
-18.7845
-18.8647
-18.3332
-17.3133
-15.9372
-14.3278
-12.6455
-10.9884
-9.44023
-8.03414
-6.78845
-5.69952
-4.75698
-3.94469
-3.24601
-2.64352
-2.12193
-1.66872
-1.27312
-0.925553
-0.61901
-0.347364
-0.10565
0.110872
0.304745
0.478901
0.63496
0.775413
0.899935
1.0111
1.11329
1.20517
1.2873
1.36047
1.42452
1.47964
1.52634
1.56441
1.59394
1.61547
1.62938
1.63631
1.63686
1.63174
1.62207
1.60886
1.59322
1.57636
1.55917
1.54216
1.52594
1.51059
1.49561
1.48038
1.46453
1.44787
1.42962
1.40959
1.38823
1.36641
1.344
1.32114
1.29893
1.27761
1.25585
1.23399
1.20699
1.1745
1.13765
1.09758
1.06025
1.02214
0.983703
0.94474
0.906911
0.868947
0.831505
0.793813
0.754076
0.712445
0.670067
0.628833
0.586887
0.541639
0.497084
0.453038
0.410034
0.368058
0.327508
0.288687
0.250995
0.21473
0.17925
0.144892
0.11147
0.0792635
0.047611
0.0130572
-18.1878
-18.3265
-18.7187
-18.7705
-18.2393
-17.2315
-15.878
-14.2984
-12.6402
-11.005
-9.47253
-8.0779
-6.83852
-5.75241
-4.80996
-3.99597
-3.29443
-2.68857
-2.16369
-1.70723
-1.3087
-0.958609
-0.649823
-0.376267
-0.132893
0.0850084
0.280115
0.455316
0.612368
0.753603
0.879174
0.991323
1.09408
1.18638
1.26877
1.34203
1.40597
1.46082
1.5071
1.54464
1.57345
1.59422
1.60736
1.6135
1.61331
1.60756
1.59748
1.58407
1.56832
1.55146
1.53448
1.51791
1.50227
1.4875
1.4731
1.45841
1.44297
1.42654
1.40834
1.38829
1.36688
1.34503
1.32275
1.30027
1.2789
1.25869
1.23824
1.2167
1.1914
1.16061
1.12481
1.08482
1.04581
1.00652
0.966692
0.926483
0.887613
0.849272
0.810749
0.772143
0.731964
0.690423
0.648749
0.607971
0.566973
0.522106
0.477779
0.434157
0.391397
0.349571
0.309049
0.270189
0.232577
0.196534
0.161575
0.128247
0.0966186
0.066827
0.0403402
0.00825277
-18.2045
-18.3309
-18.6488
-18.667
-18.1357
-17.141
-15.812
-14.2646
-12.6353
-11.0251
-9.51104
-8.1299
-6.89798
-5.81484
-4.87232
-4.05622
-3.35116
-2.74114
-2.21216
-1.75184
-1.34984
-0.996782
-0.685362
-0.40954
-0.164204
0.0553566
0.251934
0.428433
0.58677
0.729128
0.856051
0.969466
1.07294
1.16583
1.24859
1.32194
1.38582
1.44036
1.48606
1.52287
1.55089
1.57073
1.5829
1.58832
1.58734
1.58085
1.57012
1.55631
1.54049
1.52377
1.50701
1.491
1.47602
1.46191
1.44817
1.4341
1.41914
1.403
1.38489
1.36484
1.3434
1.32152
1.29931
1.27721
1.25667
1.23765
1.21872
1.19791
1.17423
1.14527
1.11054
1.07094
1.02987
0.989217
0.947829
0.906233
0.86615
0.827148
0.788275
0.748245
0.707459
0.666084
0.625262
0.584901
0.54485
0.500569
0.456614
0.413427
0.370944
0.329321
0.288809
0.249947
0.212425
0.176627
0.142232
0.110086
0.0804166
0.0532856
0.0322796
0.00341383
-18.2197
-18.3306
-18.5757
-18.5559
-18.0242
-17.0439
-15.7404
-14.2261
-12.6277
-11.0444
-9.55093
-8.18505
-6.9622
-5.88142
-4.93883
-4.12104
-3.41289
-2.79897
-2.26584
-1.80144
-1.39557
-1.03911
-0.724642
-0.446195
-0.198633
0.0228277
0.220752
0.398601
0.558416
0.702163
0.830628
0.945527
1.04992
1.14354
1.22675
1.3002
1.3639
1.41833
1.46339
1.49933
1.5264
1.5451
1.55603
1.5602
1.55821
1.55102
1.53969
1.52544
1.50956
1.49301
1.47666
1.46126
1.44698
1.43358
1.42057
1.40718
1.3928
1.37703
1.35905
1.33903
1.31761
1.29569
1.27349
1.25174
1.23205
1.21424
1.19682
1.17751
1.15567
1.12824
1.09468
1.0554
1.01235
0.970087
0.926945
0.883823
0.842432
0.802972
0.763348
0.721832
0.680365
0.639379
0.599339
0.559431
0.520268
0.476842
0.433387
0.390653
0.348507
0.307135
0.266651
0.22779
0.19038
0.15485
0.121118
0.0902737
0.0627368
0.0385098
0.0232761
-0.00145366
-18.2339
-18.3271
-18.5011
-18.439
-17.9057
-16.941
-15.6642
-14.1817
-12.6143
-11.0583
-9.58681
-8.23779
-7.02534
-5.94996
-5.00907
-4.19011
-3.47891
-2.86103
-2.32366
-1.85519
-1.4455
-1.08566
-0.768197
-0.487068
-0.237152
-0.0136518
0.186139
0.365693
0.52726
0.672703
0.802968
0.919583
1.02511
1.1196
1.20332
1.27684
1.3402
1.39396
1.43807
1.47293
1.49892
1.51652
1.52628
1.52901
1.52591
1.51792
1.50598
1.49141
1.47553
1.45915
1.44325
1.42847
1.41494
1.40232
1.39006
1.37745
1.36374
1.34843
1.33059
1.31067
1.28927
1.26729
1.24499
1.22384
1.20506
1.18845
1.17265
1.15531
1.13511
1.10918
1.07692
1.03762
0.993125
0.948961
0.903897
0.859115
0.816644
0.776917
0.735244
0.692573
0.650453
0.610247
0.570711
0.531405
0.493027
0.45072
0.407869
0.365642
0.323915
0.282786
0.242405
0.203506
0.166226
0.130936
0.0981547
0.0685419
0.0433175
0.0221932
0.0129913
-0.00660778
-18.2471
-18.3208
-18.4267
-18.3183
-17.7809
-16.8319
-15.5822
-14.1348
-12.602
-11.0755
-9.62697
-8.29497
-7.09261
-6.02402
-5.08489
-4.26423
-3.54949
-2.92729
-2.38533
-1.91254
-1.49885
-1.13546
-0.814948
-0.531125
-0.278864
-0.0534107
0.148622
0.329992
0.49323
0.640372
0.772456
0.890801
0.997558
1.093
1.17727
1.25086
1.31396
1.36676
1.40986
1.44356
1.46826
1.4846
1.4931
1.4946
1.49045
1.48159
1.46903
1.45411
1.43821
1.42208
1.40666
1.39257
1.37984
1.36803
1.3566
1.34474
1.33176
1.31699
1.29931
1.27954
1.25815
1.23588
1.21388
1.19357
1.17572
1.16038
1.14627
1.13087
1.11227
1.08786
1.05694
1.01725
0.971857
0.925557
0.878466
0.832082
0.789308
0.747695
0.703918
0.660351
0.617751
0.578248
0.539207
0.500693
0.462951
0.421971
0.37986
0.338183
0.296964
0.256014
0.215777
0.176827
0.13971
0.10458
0.0729812
0.0445687
0.0219583
0.00393931
0.00105453
-0.0126718
-18.2597
-18.3141
-18.3615
-18.2092
-17.6662
-16.7325
-15.5078
-14.0953
-12.596
-11.0975
-9.67046
-8.35403
-7.16102
-6.09678
-5.15812
-4.33556
-3.61758
-2.99152
-2.44549
-1.96884
-1.55159
-1.18493
-0.861616
-0.575297
-0.32081
-0.0935366
0.110347
0.293441
0.458229
0.606974
0.740735
0.860597
0.968452
1.06473
1.14945
1.22305
1.28584
1.33805
1.38024
1.41273
1.43612
1.45113
1.45829
1.4585
1.45324
1.44353
1.43043
1.4153
1.3995
1.38375
1.36891
1.35555
1.34361
1.33259
1.32197
1.31081
1.29847
1.28427
1.26681
1.24699
1.22557
1.20332
1.18202
1.16251
1.14568
1.13166
1.11917
1.10553
1.08841
1.06542
1.03552
0.99557
0.949311
0.900848
0.851825
0.804948
0.760893
0.716196
0.671043
0.626584
0.584098
0.544703
0.50645
0.468862
0.431598
0.391979
0.350712
0.309561
0.268861
0.22807
0.18787
0.14883
0.111991
0.0774633
0.0467974
0.0195042
-0.00070141
-0.0160653
-0.0123092
-0.0202576
-18.2721
-18.3106
-18.3139
-18.126
-17.5776
-16.6568
-15.4531
-14.0667
-12.593
-11.1166
-9.70713
-8.40384
-7.21899
-6.15879
-5.22126
-4.39778
-3.6774
-3.04826
-2.4989
-2.01909
-1.59894
-1.22964
-0.904064
-0.615792
-0.359554
-0.130879
0.0743984
0.258989
0.425084
0.575161
0.710361
0.831498
0.940275
1.0372
1.12224
1.19582
1.25836
1.31012
1.35149
1.38289
1.40512
1.41905
1.42516
1.42434
1.41809
1.40758
1.39399
1.37876
1.36306
1.3478
1.33378
1.32122
1.31001
1.29969
1.28975
1.27922
1.2673
1.2533
1.23627
1.21636
1.19501
1.17325
1.15253
1.13382
1.11803
1.10524
1.09421
1.08208
1.0662
1.04445
1.01498
0.974945
0.927563
0.877094
0.826872
0.780107
0.732801
0.68585
0.639705
0.594516
0.552266
0.513146
0.47572
0.439024
0.402118
0.363679
0.323228
0.282541
0.242148
0.201501
0.161265
0.122712
0.08612
0.0520216
0.02179
-0.00491157
-0.0233639
-0.0365547
-0.026179
-0.0293199
-18.2848
-18.311
-18.2831
-18.0684
-17.5151
-16.6037
-15.4154
-14.0479
-12.5936
-11.1344
-9.73882
-8.44569
-7.26723
-6.21023
-5.27359
-4.4494
-3.7272
-3.09565
-2.54372
-2.06148
-1.63912
-1.2678
-0.940468
-0.650696
-0.393103
-0.16328
0.0430101
0.228605
0.395593
0.546553
0.682753
0.804804
0.91423
1.01158
1.09679
1.17029
1.23259
1.28396
1.32473
1.3553
1.37663
1.38976
1.39514
1.39353
1.38649
1.37539
1.36146
1.34621
1.33089
1.3162
1.30296
1.29114
1.28059
1.27087
1.26119
1.25126
1.23981
1.22584
1.2091
1.18937
1.16824
1.14687
1.1267
1.10879
1.094
1.08234
1.0726
1.06177
1.04689
1.02618
0.996737
0.956233
0.907531
0.855307
0.805449
0.756592
0.706434
0.658047
0.611052
0.565701
0.523604
0.485053
0.448368
0.412449
0.375832
0.338324
0.298563
0.258237
0.218001
0.177567
0.137679
0.0994229
0.0627381
0.0283328
-0.00174194
-0.0278682
-0.0446472
-0.0562353
-0.0399349
-0.0393943
-18.2978
-18.3151
-18.2651
-18.0309
-17.4736
-16.569
-15.3921
-14.0386
-12.5987
-11.1525
-9.76724
-8.48158
-7.3079
-6.25329
-5.31728
-4.49245
-3.76883
-3.13541
-2.58151
-2.09746
-1.67345
-1.30063