/*--------------------------------*- C++ -*----------------------------------*\
| =========                 |                                                 |
| \\      /  F ield         | OpenFOAM: The Open Source CFD Toolbox           |
|  \\    /   O peration     | Version:  v2012                                 |
|   \\  /    A nd           | Website:  www.openfoam.com                      |
|    \\/     M anipulation  |                                                 |
\*---------------------------------------------------------------------------*/
FoamFile
{
    version     2.0;
    format      ascii;
    class       volVectorField;
    location    "0.257";
    object      U.air;
}
// * * * * * * * * * * * * * * * * * * * * * * * * * * * * * * * * * * * * * //

dimensions      [0 1 -1 0 0 0 0];


internalField   nonuniform List<vector> 
1900
(
(39.9676 0.00859687 0)
(39.9239 0.015103 0)
(39.8679 0.0180588 0)
(39.8035 0.0207993 0)
(39.73 0.0237062 0)
(39.6526 0.0267683 0)
(39.5681 0.0297565 0)
(39.4712 0.034433 0)
(39.3801 0.0347839 0)
(39.2118 0.0735029 0)
(40.0053 0.0147927 0)
(40.0212 0.0233975 0)
(40.0401 0.0257182 0)
(40.0561 0.0277458 0)
(40.0726 0.0304775 0)
(40.0898 0.0329399 0)
(40.1095 0.0364838 0)
(40.1257 0.0385578 0)
(40.1466 0.0533818 0)
(40.1568 0.0585716 0)
(40.0029 0.00824745 0)
(40.0161 0.0135856 0)
(40.0335 0.0137912 0)
(40.051 0.0145443 0)
(40.0688 0.0163129 0)
(40.0879 0.0182043 0)
(40.1087 0.0208556 0)
(40.1299 0.024805 0)
(40.1543 0.0350813 0)
(40.1844 0.0529455 0)
(40.0018 0.00414496 0)
(40.0132 0.00782145 0)
(40.0301 0.00860527 0)
(40.0479 0.00970547 0)
(40.066 0.0114323 0)
(40.0852 0.0132518 0)
(40.1064 0.0158684 0)
(40.1291 0.0197454 0)
(40.1561 0.0288802 0)
(40.1894 0.0416247 0)
(40.0015 0.00111201 0)
(40.012 0.00211928 0)
(40.0285 0.00232728 0)
(40.0464 0.00266241 0)
(40.0645 0.0032531 0)
(40.084 0.00405072 0)
(40.1056 0.00562476 0)
(40.1294 0.00842125 0)
(40.1575 0.0146682 0)
(40.1918 0.0210544 0)
(40.0016 -0.00180292 0)
(40.0122 -0.00371605 0)
(40.0288 -0.00416325 0)
(40.0468 -0.00431398 0)
(40.065 -0.00436079 0)
(40.0846 -0.00401592 0)
(40.1066 -0.00289512 0)
(40.1311 -0.000789729 0)
(40.1597 0.00317611 0)
(40.1936 0.00640822 0)
(40.0019 -0.00486279 0)
(40.0136 -0.00947526 0)
(40.0308 -0.0105123 0)
(40.0489 -0.0114613 0)
(40.0672 -0.0126727 0)
(40.0871 -0.0134371 0)
(40.1094 -0.0134428 0)
(40.1344 -0.0127054 0)
(40.163 -0.0110203 0)
(40.1957 -0.0104531 0)
(40.0032 -0.00926927 0)
(40.0168 -0.0153327 0)
(40.0348 -0.0157393 0)
(40.0527 -0.016477 0)
(40.0709 -0.01804 0)
(40.0911 -0.0194037 0)
(40.1136 -0.0202815 0)
(40.1388 -0.020797 0)
(40.1672 -0.0210301 0)
(40.1987 -0.0225688 0)
(40.0057 -0.0162088 0)
(40.0223 -0.0253699 0)
(40.042 -0.0274341 0)
(40.0582 -0.0288787 0)
(40.0751 -0.0308084 0)
(40.0938 -0.0324197 0)
(40.1145 -0.0335734 0)
(40.1374 -0.0344434 0)
(40.1628 -0.0352272 0)
(40.1893 -0.0366674 0)
(39.9675 -0.0101412 0)
(39.9214 -0.0185951 0)
(39.8645 -0.0229106 0)
(39.797 -0.0265887 0)
(39.7223 -0.0303253 0)
(39.6428 -0.0339089 0)
(39.5582 -0.0373399 0)
(39.4686 -0.0407417 0)
(39.3739 -0.044104 0)
(39.2741 -0.0480425 0)
(39.1724 -0.0392828 0)
(38.0177 -0.354716 0)
(36.4706 -0.795032 0)
(34.9649 -1.35455 0)
(33.857 -1.88883 0)
(33.1084 -2.3322 0)
(32.5393 -2.60362 0)
(32.0825 -2.66914 0)
(31.6445 -2.56951 0)
(31.2131 -2.34943 0)
(30.7874 -2.07005 0)
(30.3631 -1.77897 0)
(29.9535 -1.50947 0)
(29.5497 -1.27243 0)
(29.1561 -1.07478 0)
(28.7765 -0.91599 0)
(28.4126 -0.789709 0)
(28.0659 -0.688614 0)
(27.7402 -0.608013 0)
(27.4405 -0.545124 0)
(27.1687 -0.495849 0)
(26.9201 -0.45419 0)
(26.6955 -0.417417 0)
(26.4934 -0.385717 0)
(26.3173 -0.359518 0)
(26.1603 -0.336453 0)
(26.0258 -0.315228 0)
(25.9102 -0.29579 0)
(25.8112 -0.27868 0)
(25.7264 -0.263838 0)
(25.6539 -0.250686 0)
(25.5906 -0.238578 0)
(25.5363 -0.22739 0)
(25.4878 -0.216778 0)
(25.445 -0.206996 0)
(25.4078 -0.198184 0)
(25.3757 -0.190186 0)
(25.3482 -0.182717 0)
(25.3252 -0.175665 0)
(25.306 -0.168993 0)
(25.2907 -0.162863 0)
(25.2787 -0.157316 0)
(25.2697 -0.152249 0)
(25.263 -0.147426 0)
(25.2585 -0.142725 0)
(25.2557 -0.138124 0)
(25.2546 -0.13384 0)
(25.2551 -0.129894 0)
(25.257 -0.126209 0)
(25.2604 -0.122732 0)
(25.2652 -0.119357 0)
(25.2712 -0.116072 0)
(25.2783 -0.112967 0)
(25.2865 -0.110087 0)
(25.2956 -0.107398 0)
(25.3057 -0.104841 0)
(25.3167 -0.102378 0)
(25.3284 -0.0999749 0)
(25.3408 -0.0976528 0)
(25.3536 -0.0954523 0)
(25.367 -0.0933945 0)
(25.3809 -0.0914409 0)
(25.3952 -0.0895697 0)
(25.41 -0.0877447 0)
(25.4251 -0.0859857 0)
(25.4405 -0.0843003 0)
(25.4562 -0.0827052 0)
(25.4721 -0.0811806 0)
(25.4882 -0.0797201 0)
(25.5045 -0.0782962 0)
(25.521 -0.076916 0)
(25.5375 -0.0755741 0)
(25.5541 -0.0742858 0)
(25.5708 -0.0730424 0)
(25.5875 -0.0718446 0)
(25.6042 -0.0706692 0)
(25.6208 -0.0695225 0)
(25.6375 -0.0683877 0)
(25.6539 -0.0672894 0)
(25.6704 -0.066206 0)
(25.6866 -0.0651575 0)
(25.7028 -0.0641115 0)
(25.7186 -0.0630923 0)
(25.7345 -0.0620683 0)
(25.75 -0.0610719 0)
(25.7655 -0.0600751 0)
(25.7805 -0.0591099 0)
(25.7956 -0.0581462 0)
(25.8103 -0.0572159 0)
(25.8249 -0.0562918 0)
(25.8391 -0.055415 0)
(25.8533 -0.054554 0)
(25.867 -0.0537836 0)
(25.8809 -0.0530297 0)
(25.8941 -0.052532 0)
(25.9078 -0.0519798 0)
(25.9204 -0.0522649 0)
(25.9349 -0.0520662 0)
(25.9452 -0.0543083 0)
(25.9652 -0.054422 0)
(40.259 0.20537 0)
(40.4989 0.295872 0)
(40.6487 -0.0460585 0)
(40.4722 -0.668257 0)
(39.9271 -1.3308 0)
(39.098 -1.89413 0)
(38.1064 -2.25373 0)
(37.0575 -2.38369 0)
(36.0574 -2.32268 0)
(35.1531 -2.13296 0)
(34.3662 -1.87913 0)
(33.6978 -1.61238 0)
(33.1371 -1.36209 0)
(32.658 -1.14022 0)
(32.241 -0.953736 0)
(31.8684 -0.803181 0)
(31.524 -0.68252 0)
(31.1927 -0.584507 0)
(30.8659 -0.506059 0)
(30.5437 -0.445876 0)
(30.2274 -0.399378 0)
(29.9205 -0.361264 0)
(29.6246 -0.329544 0)
(29.3412 -0.304719 0)
(29.0757 -0.286117 0)
(28.8288 -0.271016 0)
(28.5991 -0.257515 0)
(28.388 -0.245455 0)
(28.1948 -0.235272 0)
(28.0203 -0.226679 0)
(27.8618 -0.218731 0)
(27.7179 -0.210905 0)
(27.5867 -0.203147 0)
(27.4678 -0.195462 0)
(27.3605 -0.188094 0)
(27.2637 -0.181332 0)
(27.1764 -0.175126 0)
(27.0973 -0.169269 0)
(27.0261 -0.163658 0)
(26.9616 -0.158308 0)
(26.9038 -0.153341 0)
(26.8511 -0.148759 0)
(26.8029 -0.144558 0)
(26.7589 -0.140613 0)
(26.7189 -0.136737 0)
(26.6825 -0.132908 0)
(26.6496 -0.129284 0)
(26.62 -0.125987 0)
(26.5935 -0.122987 0)
(26.5698 -0.120147 0)
(26.5488 -0.117354 0)
(26.5302 -0.114592 0)
(26.5139 -0.111978 0)
(26.4997 -0.109546 0)
(26.4874 -0.107274 0)
(26.4769 -0.105106 0)
(26.4681 -0.102957 0)
(26.4606 -0.100798 0)
(26.4543 -0.0987039 0)
(26.4492 -0.0967305 0)
(26.4452 -0.0949009 0)
(26.4423 -0.0931534 0)
(26.4404 -0.0914907 0)
(26.4395 -0.0898575 0)
(26.4393 -0.0882929 0)
(26.4398 -0.0867368 0)
(26.441 -0.0852614 0)
(26.4428 -0.0838529 0)
(26.4451 -0.0825007 0)
(26.448 -0.0811716 0)
(26.4513 -0.0798705 0)
(26.4549 -0.078593 0)
(26.4588 -0.0773565 0)
(26.463 -0.0761566 0)
(26.4674 -0.0749931 0)
(26.4719 -0.0738419 0)
(26.4766 -0.0727057 0)
(26.4814 -0.0715742 0)
(26.4863 -0.0704677 0)
(26.4911 -0.0693744 0)
(26.496 -0.0683059 0)
(26.5009 -0.0672364 0)
(26.5057 -0.0661867 0)
(26.5106 -0.0651287 0)
(26.5153 -0.0640962 0)
(26.52 -0.0630594 0)
(26.5246 -0.0620544 0)
(26.5292 -0.0610461 0)
(26.5336 -0.0600731 0)
(26.538 -0.0591013 0)
(26.5423 -0.0581808 0)
(26.5465 -0.0572722 0)
(26.5506 -0.0564603 0)
(26.5547 -0.0556621 0)
(26.5586 -0.0551294 0)
(26.5626 -0.0545473 0)
(26.5663 -0.0548242 0)
(26.5703 -0.0545623 0)
(26.5737 -0.0569858 0)
(26.5795 -0.0567944 0)
(40.2699 0.127743 0)
(40.4561 0.0177445 0)
(40.6021 -0.368698 0)
(40.4975 -0.908894 0)
(40.0434 -1.44081 0)
(39.2826 -1.86017 0)
(38.3233 -2.09979 0)
(37.2917 -2.15542 0)
(36.2761 -2.06708 0)
(35.3648 -1.88524 0)
(34.5823 -1.65796 0)
(33.9354 -1.42377 0)
(33.4105 -1.20406 0)
(32.9851 -1.00787 0)
(32.6433 -0.842191 0)
(32.3704 -0.707801 0)
(32.148 -0.597898 0)
(31.9587 -0.50602 0)
(31.7932 -0.431509 0)
(31.6486 -0.374262 0)
(31.5163 -0.329355 0)
(31.3863 -0.292035 0)
(31.2525 -0.260713 0)
(31.1127 -0.236063 0)
(30.9666 -0.217857 0)
(30.8138 -0.203706 0)
(30.6531 -0.191513 0)
(30.4839 -0.180842 0)
(30.3079 -0.172461 0)
(30.1284 -0.166353 0)
(29.9483 -0.161395 0)
(29.7723 -0.156743 0)
(29.5996 -0.152329 0)
(29.4344 -0.148545 0)
(29.2785 -0.145535 0)
(29.1328 -0.143041 0)
(28.9974 -0.140735 0)
(28.8716 -0.138444 0)
(28.7545 -0.136083 0)
(28.6459 -0.133705 0)
(28.5451 -0.131463 0)
(28.4517 -0.129268 0)
(28.365 -0.126964 0)
(28.2845 -0.124527 0)
(28.2096 -0.121941 0)
(28.1399 -0.119279 0)
(28.0755 -0.116745 0)
(28.016 -0.114464 0)
(27.9611 -0.112357 0)
(27.91 -0.110262 0)
(27.8622 -0.108133 0)
(27.8177 -0.106035 0)
(27.7765 -0.104092 0)
(27.7382 -0.102316 0)
(27.7028 -0.10069 0)
(27.67 -0.0991684 0)
(27.6397 -0.0976412 0)
(27.6116 -0.0960419 0)
(27.5858 -0.0944453 0)
(27.5619 -0.092936 0)
(27.5399 -0.0915412 0)
(27.5197 -0.0901991 0)
(27.5011 -0.0888473 0)
(27.4835 -0.0874565 0)
(27.4671 -0.0860988 0)
(27.4516 -0.0847845 0)
(27.4373 -0.0835512 0)
(27.4236 -0.0823535 0)
(27.4109 -0.0811996 0)
(27.3987 -0.0800332 0)
(27.3873 -0.0788828 0)
(27.3762 -0.0777233 0)
(27.3658 -0.0765992 0)
(27.3555 -0.0754865 0)
(27.3458 -0.0744074 0)
(27.3362 -0.0733146 0)
(27.327 -0.072235 0)
(27.3179 -0.0711369 0)
(27.3091 -0.0700663 0)
(27.3002 -0.068991 0)
(27.2917 -0.0679463 0)
(27.2832 -0.0668874 0)
(27.2749 -0.0658475 0)
(27.2666 -0.0647931 0)
(27.2585 -0.0637629 0)
(27.2504 -0.062728 0)
(27.2425 -0.0617222 0)
(27.2346 -0.0607144 0)
(27.2269 -0.0597378 0)
(27.2192 -0.0587658 0)
(27.2116 -0.0578401 0)
(27.2041 -0.0569319 0)
(27.1968 -0.0561141 0)
(27.1894 -0.0553165 0)
(27.1823 -0.0547777 0)
(27.1749 -0.0542004 0)
(27.1683 -0.0544648 0)
(27.1605 -0.0542658 0)
(27.1552 -0.0566428 0)
(27.1446 -0.0564507 0)
(40.2634 0.0673392 0)
(40.4034 0.00417022 0)
(40.4966 -0.262169 0)
(40.3657 -0.678568 0)
(39.9156 -1.11199 0)
(39.179 -1.46759 0)
(38.2537 -1.69375 0)
(37.2568 -1.77798 0)
(36.2701 -1.73986 0)
(35.3801 -1.61344 0)
(34.6111 -1.43881 0)
(33.969 -1.24974 0)
(33.4405 -1.06616 0)
(33.009 -0.899319 0)
(32.6645 -0.758133 0)
(32.3919 -0.642809 0)
(32.169 -0.546277 0)
(31.9808 -0.464195 0)
(31.827 -0.398554 0)
(31.7071 -0.349076 0)
(31.6098 -0.309308 0)
(31.5213 -0.273509 0)
(31.44 -0.242205 0)
(31.3737 -0.218147 0)
(31.3212 -0.199966 0)
(31.2726 -0.183629 0)
(31.2221 -0.167841 0)
(31.1706 -0.15356 0)
(31.1197 -0.141806 0)
(31.0677 -0.13258 0)
(31.013 -0.125276 0)
(30.9526 -0.118853 0)
(30.8842 -0.112819 0)
(30.8071 -0.107783 0)
(30.7223 -0.104263 0)
(30.6312 -0.101963 0)
(30.5348 -0.100216 0)
(30.4335 -0.0986742 0)
(30.3279 -0.0972652 0)
(30.2192 -0.0960631 0)
(30.1088 -0.0951909 0)
(29.9995 -0.0945966 0)
(29.8935 -0.0941496 0)
(29.7907 -0.0937367 0)
(29.6912 -0.0932863 0)
(29.5958 -0.0928422 0)
(29.5054 -0.0925104 0)
(29.42 -0.0922825 0)
(29.3394 -0.0920642 0)
(29.2632 -0.0917324 0)
(29.1909 -0.0911924 0)
(29.1224 -0.0905024 0)
(29.0576 -0.0897835 0)
(28.996 -0.0890502 0)
(28.9378 -0.0883244 0)
(28.8824 -0.0875804 0)
(28.8298 -0.0867353 0)
(28.7799 -0.0857751 0)
(28.7329 -0.0847881 0)
(28.6883 -0.083845 0)
(28.6462 -0.0829653 0)
(28.6059 -0.08213 0)
(28.5678 -0.0812768 0)
(28.5311 -0.0803304 0)
(28.4963 -0.0793371 0)
(28.4626 -0.0783283 0)
(28.4304 -0.0773532 0)
(28.3988 -0.0763896 0)
(28.3686 -0.075439 0)
(28.3387 -0.0744467 0)
(28.31 -0.0734438 0)
(28.2814 -0.0724154 0)
(28.2537 -0.0714065 0)
(28.2261 -0.0704006 0)
(28.1993 -0.0694139 0)
(28.1726 -0.0684071 0)
(28.1466 -0.0674038 0)
(28.1206 -0.0663815 0)
(28.0953 -0.065379 0)
(28.07 -0.0643725 0)
(28.0454 -0.0633949 0)
(28.0208 -0.0624054 0)
(27.9969 -0.0614308 0)
(27.973 -0.0604388 0)
(27.9498 -0.0594693 0)
(27.9265 -0.0584924 0)
(27.904 -0.0575453 0)
(27.8815 -0.0565933 0)
(27.8596 -0.0556746 0)
(27.8377 -0.054758 0)
(27.8166 -0.0538893 0)
(27.7954 -0.0530376 0)
(27.775 -0.0522731 0)
(27.7544 -0.051532 0)
(27.7348 -0.0510349 0)
(27.7145 -0.0505165 0)
(27.6962 -0.0507823 0)
(27.6747 -0.0506781 0)
(27.6601 -0.0528895 0)
(27.6311 -0.0531152 0)
(40.2555 0.031429 0)
(40.3567 -0.0318829 0)
(40.4022 -0.258916 0)
(40.2468 -0.617318 0)
(39.8045 -0.995505 0)
(39.098 -1.30664 0)
(38.2122 -1.50463 0)
(37.2569 -1.57705 0)
(36.3002 -1.54045 0)
(35.4292 -1.42737 0)
(34.6704 -1.27371 0)
(34.0292 -1.10774 0)
(33.4948 -0.945912 0)
(33.0581 -0.800085 0)
(32.7122 -0.678224 0)
(32.435 -0.577309 0)
(32.2013 -0.490368 0)
(32.0061 -0.417533 0)
(31.8546 -0.36172 0)
(31.7369 -0.319257 0)
(31.6321 -0.2821 0)
(31.5343 -0.248063 0)
(31.4546 -0.22121 0)
(31.3962 -0.202244 0)
(31.3475 -0.186707 0)
(31.2989 -0.171231 0)
(31.2518 -0.156537 0)
(31.2131 -0.144676 0)
(31.1848 -0.135823 0)
(31.1623 -0.12856 0)
(31.1402 -0.121628 0)
(31.1156 -0.114206 0)
(31.0923 -0.107056 0)
(31.074 -0.101136 0)
(31.0583 -0.0962502 0)
(31.0427 -0.0920749 0)
(31.0252 -0.0881452 0)
(31.0043 -0.0840263 0)
(30.98 -0.0799732 0)
(30.9532 -0.0764597 0)
(30.924 -0.0738118 0)
(30.8915 -0.0720398 0)
(30.8545 -0.0706803 0)
(30.8122 -0.0692908 0)
(30.7643 -0.0679626 0)
(30.7112 -0.0670018 0)
(30.6538 -0.0665505 0)
(30.5929 -0.0664789 0)
(30.5291 -0.066495 0)
(30.4627 -0.0663901 0)
(30.3945 -0.0661931 0)
(30.3249 -0.0660752 0)
(30.2547 -0.0661217 0)
(30.1845 -0.0663131 0)
(30.1153 -0.0665621 0)
(30.0466 -0.0667701 0)
(29.9789 -0.0669306 0)
(29.912 -0.0670281 0)
(29.8467 -0.0670871 0)
(29.7825 -0.0671276 0)
(29.72 -0.0671387 0)
(29.6583 -0.0670828 0)
(29.5982 -0.0668993 0)
(29.5393 -0.0665764 0)
(29.4822 -0.0661491 0)
(29.4259 -0.0656505 0)
(29.3712 -0.0651182 0)
(29.317 -0.064545 0)
(29.2643 -0.063934 0)
(29.2119 -0.0632364 0)
(29.161 -0.0624863 0)
(29.1102 -0.061677 0)
(29.0609 -0.0608607 0)
(29.0117 -0.0600297 0)
(28.9639 -0.0592031 0)
(28.9162 -0.0583434 0)
(28.8699 -0.0574794 0)
(28.8236 -0.05659 0)
(28.7787 -0.0557182 0)
(28.7339 -0.0548436 0)
(28.6904 -0.0539731 0)
(28.647 -0.0530863 0)
(28.6049 -0.0522229 0)
(28.5629 -0.0513539 0)
(28.5223 -0.0505112 0)
(28.4817 -0.0496677 0)
(28.4426 -0.0488546 0)
(28.4035 -0.04804 0)
(28.3658 -0.047259 0)
(28.3282 -0.0464821 0)
(28.292 -0.0457525 0)
(28.2558 -0.0450423 0)
(28.2211 -0.0444117 0)
(28.1862 -0.0438123 0)
(28.1531 -0.0434231 0)
(28.119 -0.0430501 0)
(28.0883 -0.0433164 0)
(28.0523 -0.0434256 0)
(28.0279 -0.0452807 0)
(27.9796 -0.0464647 0)
(40.2478 0.0063694 0)
(40.3189 -0.052935 0)
(40.3277 -0.234956 0)
(40.154 -0.518802 0)
(39.7188 -0.818111 0)
(39.0361 -1.06198 0)
(38.1811 -1.21596 0)
(37.2554 -1.27238 0)
(36.3234 -1.24508 0)
(35.4683 -1.16007 0)
(34.7193 -1.04306 0)
(34.077 -0.913475 0)
(33.538 -0.785672 0)
(33.1005 -0.670859 0)
(32.7511 -0.574002 0)
(32.4624 -0.491131 0)
(32.217 -0.418477 0)
(32.0203 -0.359979 0)
(31.8719 -0.317129 0)
(31.7465 -0.281979 0)
(31.6271 -0.24843 0)
(31.5265 -0.220321 0)
(31.4539 -0.200923 0)
(31.3961 -0.186358 0)
(31.3385 -0.171708 0)
(31.2806 -0.156684 0)
(31.2335 -0.14456 0)
(31.1992 -0.136004 0)
(31.1715 -0.12909 0)
(31.1441 -0.121866 0)
(31.1142 -0.113938 0)
(31.0874 -0.106922 0)
(31.0676 -0.101592 0)
(31.0526 -0.0973798 0)
(31.0391 -0.0935102 0)
(31.0245 -0.089591 0)
(31.0084 -0.0855819 0)
(30.9949 -0.0820108 0)
(30.9847 -0.0789013 0)
(30.9763 -0.0761946 0)
(30.9679 -0.0738962 0)
(30.9586 -0.0718556 0)
(30.9481 -0.069725 0)
(30.9376 -0.0674022 0)
(30.9272 -0.0649822 0)
(30.9165 -0.0628115 0)
(30.9047 -0.0610678 0)
(30.8908 -0.0596092 0)
(30.8743 -0.0581801 0)
(30.8547 -0.0566807 0)
(30.8322 -0.0551942 0)
(30.8067 -0.0538768 0)
(30.778 -0.0528113 0)
(30.7456 -0.0520247 0)
(30.7091 -0.0513763 0)
(30.6682 -0.0507335 0)
(30.6232 -0.0500617 0)
(30.5742 -0.0494597 0)
(30.5216 -0.0489505 0)
(30.4656 -0.0485201 0)
(30.4065 -0.0481294 0)
(30.3444 -0.0477604 0)
(30.2797 -0.0474141 0)
(30.2129 -0.047072 0)
(30.1444 -0.0467077 0)
(30.0747 -0.0463242 0)
(30.0042 -0.0459304 0)
(29.933 -0.0455346 0)
(29.8617 -0.045117 0)
(29.79 -0.0446581 0)
(29.7191 -0.0441633 0)
(29.648 -0.0436348 0)
(29.5783 -0.043101 0)
(29.5085 -0.0425555 0)
(29.4403 -0.042016 0)
(29.3723 -0.0414491 0)
(29.306 -0.0408803 0)
(29.24 -0.0402819 0)
(29.1758 -0.0396975 0)
(29.112 -0.0391061 0)
(29.05 -0.0385552 0)
(28.9885 -0.0379986 0)
(28.929 -0.0374439 0)
(28.8699 -0.0368781 0)
(28.8129 -0.0363261 0)
(28.7563 -0.0357759 0)
(28.7019 -0.0352487 0)
(28.6477 -0.0347246 0)
(28.5959 -0.0342269 0)
(28.5442 -0.0337366 0)
(28.495 -0.0332852 0)
(28.4457 -0.0328525 0)
(28.3989 -0.0324837 0)
(28.3518 -0.032153 0)
(28.3075 -0.0319757 0)
(28.2617 -0.0318701 0)
(28.2208 -0.0321645 0)
(28.1729 -0.0326442 0)
(28.1403 -0.033906 0)
(28.076 -0.0366341 0)
(40.2419 -0.0161657 0)
(40.2904 -0.0671902 0)
(40.2717 -0.206837 0)
(40.0832 -0.423795 0)
(39.6529 -0.656252 0)
(38.9885 -0.849185 0)
(38.1576 -0.975745 0)
(37.2546 -1.02817 0)
(36.3416 -1.01495 0)
(35.4976 -0.954799 0)
(34.7497 -0.866179 0)
(34.0997 -0.763687 0)
(33.5516 -0.661723 0)
(33.1093 -0.57194 0)
(32.7473 -0.493975 0)
(32.4372 -0.423443 0)
(32.1838 -0.364047 0)
(31.991 -0.319284 0)
(31.8305 -0.283193 0)
(31.6808 -0.249537 0)
(31.5528 -0.22055 0)
(31.4565 -0.199744 0)
(31.3771 -0.184309 0)
(31.2983 -0.169566 0)
(31.2222 -0.154723 0)
(31.1586 -0.142461 0)
(31.1081 -0.133835 0)
(31.0626 -0.127037 0)
(31.0162 -0.119935 0)
(30.9683 -0.112223 0)
(30.9256 -0.105582 0)
(30.889 -0.100695 0)
(30.8554 -0.0968021 0)
(30.8218 -0.092857 0)
(30.7864 -0.088499 0)
(30.7505 -0.0842817 0)
(30.717 -0.080865 0)
(30.6852 -0.0781002 0)
(30.6537 -0.0753979 0)
(30.6218 -0.072512 0)
(30.5887 -0.0696327 0)
(30.5546 -0.0670263 0)
(30.5203 -0.064748 0)
(30.4861 -0.062606 0)
(30.4518 -0.060467 0)
(30.4171 -0.0584357 0)
(30.3815 -0.0565824 0)
(30.3448 -0.0548151 0)
(30.3072 -0.0530208 0)
(30.269 -0.0512062 0)
(30.2305 -0.049435 0)
(30.1917 -0.0477483 0)
(30.1526 -0.0461179 0)
(30.1127 -0.0445019 0)
(30.0719 -0.0428139 0)
(30.0302 -0.0410491 0)
(29.9878 -0.0393128 0)
(29.9449 -0.0376836 0)
(29.9014 -0.0361392 0)
(29.8569 -0.0346266 0)
(29.8113 -0.0331261 0)
(29.7643 -0.0316709 0)
(29.716 -0.0303126 0)
(29.6664 -0.0290545 0)
(29.6157 -0.0278757 0)
(29.5636 -0.0267667 0)
(29.5102 -0.0257358 0)
(29.4555 -0.0247963 0)
(29.3996 -0.0239324 0)
(29.3426 -0.0231554 0)
(29.2846 -0.0224553 0)
(29.226 -0.0218232 0)
(29.1667 -0.0212537 0)
(29.107 -0.0207426 0)
(29.047 -0.0202935 0)
(28.9868 -0.0198914 0)
(28.9267 -0.0195332 0)
(28.8665 -0.0192012 0)
(28.8071 -0.0189071 0)
(28.7476 -0.0186448 0)
(28.6893 -0.0184137 0)
(28.6309 -0.0182041 0)
(28.5741 -0.0180208 0)
(28.5173 -0.0178603 0)
(28.4623 -0.0177225 0)
(28.4074 -0.0176069 0)
(28.3544 -0.0175126 0)
(28.3016 -0.0174353 0)
(28.2508 -0.0173732 0)
(28.2001 -0.0173256 0)
(28.1515 -0.0172972 0)
(28.1029 -0.017285 0)
(28.0564 -0.0173064 0)
(28.0097 -0.0173684 0)
(27.9654 -0.0175029 0)
(27.9196 -0.0177727 0)
(27.8784 -0.0181372 0)
(27.8297 -0.0191001 0)
(27.7968 -0.0196138 0)
(27.7301 -0.0241582 0)
(40.2386 -0.030009 0)
(40.2709 -0.0704533 0)
(40.2318 -0.171527 0)
(40.0308 -0.327113 0)
(39.6008 -0.494848 0)
(38.9443 -0.634489 0)
(38.1223 -0.726425 0)
(37.2224 -0.765001 0)
(36.3075 -0.757524 0)
(35.4541 -0.717853 0)
(34.6817 -0.65611 0)
(34.0069 -0.584277 0)
(33.4424 -0.51435 0)
(32.9689 -0.450181 0)
(32.5616 -0.390815 0)
(32.2229 -0.338957 0)
(31.9485 -0.297164 0)
(31.7143 -0.263243 0)
(31.5022 -0.233295 0)
(31.3183 -0.207176 0)
(31.1639 -0.186451 0)
(31.0263 -0.170705 0)
(30.8946 -0.15717 0)
(30.7709 -0.144258 0)
(30.6602 -0.132769 0)
(30.5596 -0.123621 0)
(30.4625 -0.116402 0)
(30.3661 -0.10967 0)
(30.2728 -0.102631 0)
(30.1849 -0.0959797 0)
(30.1009 -0.090544 0)
(30.0182 -0.0861836 0)
(29.9354 -0.0821413 0)
(29.8534 -0.0778135 0)
(29.7735 -0.0733836 0)
(29.6957 -0.0695418 0)
(29.6189 -0.0664479 0)
(29.5423 -0.0636761 0)
(29.4659 -0.0607863 0)
(29.3906 -0.0577278 0)
(29.3167 -0.0548064 0)
(29.2439 -0.052334 0)
(29.1718 -0.0502327 0)
(29.1003 -0.0481887 0)
(29.0298 -0.0460376 0)
(28.9605 -0.0439004 0)
(28.8923 -0.0419036 0)
(28.8252 -0.0400591 0)
(28.7591 -0.0383118 0)
(28.6944 -0.0366324 0)
(28.631 -0.0350104 0)
(28.569 -0.033451 0)
(28.5082 -0.0319406 0)
(28.4488 -0.0304878 0)
(28.3908 -0.0290708 0)
(28.3345 -0.027705 0)
(28.2797 -0.0264198 0)
(28.2266 -0.0252274 0)
(28.1749 -0.0240662 0)
(28.1249 -0.022897 0)
(28.0763 -0.0217068 0)
(28.0296 -0.0205481 0)
(27.9842 -0.0194508 0)
(27.9406 -0.018416 0)
(27.8982 -0.0173995 0)
(27.8574 -0.0163942 0)
(27.8177 -0.0154019 0)
(27.7796 -0.014455 0)
(27.7423 -0.0135513 0)
(27.7063 -0.0127085 0)
(27.671 -0.0119368 0)
(27.6368 -0.0112169 0)
(27.6031 -0.0105315 0)
(27.5703 -0.00989348 0)
(27.5379 -0.00931511 0)
(27.5061 -0.0088075 0)
(27.4747 -0.00835938 0)
(27.4436 -0.00797334 0)
(27.4129 -0.00764044 0)
(27.3824 -0.00736465 0)
(27.3522 -0.0071421 0)
(27.322 -0.00696649 0)
(27.2921 -0.00683412 0)
(27.2621 -0.00674203 0)
(27.2323 -0.00668726 0)
(27.2025 -0.00666953 0)
(27.1727 -0.00668468 0)
(27.1429 -0.00673047 0)
(27.1132 -0.00679901 0)
(27.0834 -0.00689248 0)
(27.0537 -0.00700676 0)
(27.024 -0.00714398 0)
(26.9945 -0.00730744 0)
(26.9647 -0.0075128 0)
(26.9355 -0.00772832 0)
(26.9049 -0.00811329 0)
(26.8769 -0.0083564 0)
(26.8424 -0.00948496 0)
(26.8199 -0.00918225 0)
(26.7695 -0.0145938 0)
(40.2229 -0.0441214 0)
(40.2345 -0.0683461 0)
(40.1702 -0.129278 0)
(39.943 -0.223499 0)
(39.4859 -0.326545 0)
(38.7965 -0.41377 0)
(37.9306 -0.472616 0)
(36.9718 -0.498689 0)
(35.991 -0.496221 0)
(35.0452 -0.472275 0)
(34.1779 -0.433537 0)
(33.4059 -0.388626 0)
(32.7265 -0.343671 0)
(32.1336 -0.301145 0)
(31.6225 -0.26277 0)
(31.1849 -0.230136 0)
(30.8017 -0.202811 0)
(30.4616 -0.179401 0)
(30.1578 -0.159142 0)
(29.8887 -0.142346 0)
(29.6443 -0.128284 0)
(29.4188 -0.11638 0)
(29.2095 -0.106038 0)
(29.0162 -0.0970957 0)
(28.8378 -0.0894158 0)
(28.6701 -0.0825843 0)
(28.5105 -0.0763803 0)
(28.3583 -0.0707161 0)
(28.2143 -0.0655172 0)
(28.0779 -0.0607006 0)
(27.948 -0.0562982 0)
(27.8229 -0.0522543 0)
(27.7025 -0.0484914 0)
(27.587 -0.0449231 0)
(27.4767 -0.0415496 0)
(27.3712 -0.0384824 0)
(27.2697 -0.0356953 0)
(27.1717 -0.033079 0)
(27.0773 -0.0305618 0)
(26.9869 -0.0281591 0)
(26.9003 -0.0259352 0)
(26.8172 -0.0239439 0)
(26.737 -0.022126 0)
(26.6599 -0.0203874 0)
(26.5856 -0.0186914 0)
(26.5145 -0.0171125 0)
(26.446 -0.0156946 0)
(26.3805 -0.0144099 0)
(26.3172 -0.0131964 0)
(26.2567 -0.0120393 0)
(26.1983 -0.0109508 0)
(26.1426 -0.00995338 0)
(26.0889 -0.0090383 0)
(26.0376 -0.00819395 0)
(25.9883 -0.00738995 0)
(25.9414 -0.00661433 0)
(25.8963 -0.00587859 0)
(25.8535 -0.00520151 0)
(25.8123 -0.0045694 0)
(25.7734 -0.00396368 0)
(25.7361 -0.00337219 0)
(25.701 -0.00281384 0)
(25.6675 -0.00229983 0)
(25.636 -0.00182741 0)
(25.6058 -0.0013761 0)
(25.5776 -0.000942932 0)
(25.5507 -0.000531308 0)
(25.5255 -0.000151701 0)
(25.5016 0.000198315 0)
(25.4792 0.000521689 0)
(25.4577 0.000834479 0)
(25.4376 0.00107062 0)
(25.4184 0.00127384 0)
(25.4002 0.00145826 0)
(25.3827 0.00163175 0)
(25.3662 0.00177864 0)
(25.35 0.0019145 0)
(25.3347 0.00203024 0)
(25.3196 0.00213626 0)
(25.3052 0.00222695 0)
(25.291 0.0023005 0)
(25.2772 0.00235059 0)
(25.2636 0.00239448 0)
(25.2503 0.00243753 0)
(25.2371 0.00247522 0)
(25.224 0.00250527 0)
(25.211 0.00252542 0)
(25.1981 0.00253788 0)
(25.185 0.0025394 0)
(25.172 0.00253301 0)
(25.1588 0.00251248 0)
(25.1455 0.00247948 0)
(25.1321 0.00242658 0)
(25.1184 0.00231783 0)
(25.1048 0.00222389 0)
(25.0899 0.00194263 0)
(25.0767 0.00194555 0)
(25.0582 0.00098728 0)
(25.0479 0.00151918 0)
(25.0178 -0.00294831 0)
(39.1402 -0.0539802 0)
(38.9464 -0.0675466 0)
(38.6586 -0.0934487 0)
(38.1914 -0.131021 0)
(37.4774 -0.172079 0)
(36.5128 -0.207809 0)
(35.3544 -0.233298 0)
(34.0901 -0.246422 0)
(32.7976 -0.247979 0)
(31.5412 -0.240096 0)
(30.3741 -0.225448 0)
(29.3095 -0.206775 0)
(28.3623 -0.18641 0)
(27.5262 -0.166107 0)
(26.7958 -0.147285 0)
(26.154 -0.130226 0)
(25.5935 -0.114681 0)
(25.0992 -0.100499 0)
(24.6663 -0.0882598 0)
(24.2809 -0.0777721 0)
(23.9404 -0.0685407 0)
(23.6347 -0.0606405 0)
(23.3588 -0.0542102 0)
(23.1082 -0.049089 0)
(22.879 -0.0445503 0)
(22.6704 -0.0402277 0)
(22.4797 -0.0364324 0)
(22.3047 -0.0333899 0)
(22.143 -0.0307469 0)
(21.9948 -0.0281325 0)
(21.859 -0.0256374 0)
(21.7345 -0.0235229 0)
(21.6195 -0.0218215 0)
(21.5134 -0.0202937 0)
(21.4158 -0.0187675 0)
(21.3264 -0.0173299 0)
(21.2442 -0.0161141 0)
(21.1683 -0.0151295 0)
(21.0981 -0.0142553 0)
(21.0337 -0.013387 0)
(20.9746 -0.0125332 0)
(20.9206 -0.0117876 0)
(20.8706 -0.0111829 0)
(20.8247 -0.0106624 0)
(20.7822 -0.0101512 0)
(20.7436 -0.00965046 0)
(20.708 -0.00918678 0)
(20.6756 -0.00877386 0)
(20.6457 -0.00840017 0)
(20.6185 -0.0080559 0)
(20.5934 -0.00772998 0)
(20.5708 -0.0074216 0)
(20.55 -0.00712227 0)
(20.5313 -0.00683824 0)
(20.5141 -0.00656838 0)
(20.4988 -0.00631871 0)
(20.4848 -0.0060919 0)
(20.4726 -0.00589538 0)
(20.4613 -0.00571251 0)
(20.4515 -0.0055341 0)
(20.4426 -0.00535006 0)
(20.4352 -0.00517774 0)
(20.4285 -0.00501658 0)
(20.4231 -0.00487138 0)
(20.4182 -0.00471594 0)
(20.4146 -0.00455529 0)
(20.4115 -0.00436795 0)
(20.4095 -0.00418261 0)
(20.4081 -0.00396288 0)
(20.4076 -0.00370374 0)
(20.4077 -0.00352884 0)
(20.4085 -0.00335258 0)
(20.4099 -0.0031985 0)
(20.4119 -0.00305065 0)
(20.4145 -0.00290682 0)
(20.4177 -0.00277366 0)
(20.4213 -0.00264835 0)
(20.4253 -0.00253998 0)
(20.4297 -0.00244064 0)
(20.4344 -0.00235549 0)
(20.4394 -0.00228885 0)
(20.4446 -0.00226256 0)
(20.45 -0.00225409 0)
(20.4555 -0.00225548 0)
(20.4611 -0.00226393 0)
(20.4668 -0.00227853 0)
(20.4724 -0.00229652 0)
(20.4781 -0.00231533 0)
(20.4837 -0.00233719 0)
(20.4892 -0.00235708 0)
(20.4947 -0.0023823 0)
(20.4999 -0.00240515 0)
(20.5052 -0.00243525 0)
(20.5097 -0.00249617 0)
(20.5146 -0.00253984 0)
(20.518 -0.00268034 0)
(20.5227 -0.0026241 0)
(20.524 -0.00322301 0)
(20.5277 -0.00208128 0)
(20.5227 -0.0079832 0)
(1.95437 0.421237 0)
(1.64907 2.05102 0)
(0.910905 2.40128 0)
(0.110915 2.5677 0)
(-0.665574 2.43237 0)
(-1.46651 1.98152 0)
(-2.15367 1.28401 0)
(-2.51272 0.770952 0)
(10.5778 0.318085 0)
(4.36564 1.81698 0)
(1.74411 2.17482 0)
(-0.155018 2.21102 0)
(-2.00006 2.04563 0)
(-3.87731 1.69172 0)
(-5.71493 1.11972 0)
(-6.92409 0.530807 0)
(16.8868 -0.371863 0)
(7.91511 0.751522 0)
(2.86677 1.2142 0)
(-0.3908 1.32793 0)
(-2.9925 1.24932 0)
(-5.40338 1.0588 0)
(-7.85091 0.75371 0)
(-9.97521 0.288393 0)
(20.5479 -1.17077 0)
(11.239 -0.438567 0)
(4.58037 0.0734929 0)
(0.166286 0.312111 0)
(-3.14767 0.39339 0)
(-6.02669 0.379205 0)
(-8.77042 0.303336 0)
(-11.4791 0.0760389 0)
(22.4346 -1.81034 0)
(13.5547 -1.3272 0)
(6.44274 -0.873376 0)
(1.28495 -0.548979 0)
(-2.61863 -0.328238 0)
(-5.86406 -0.179403 0)
(-8.80814 -0.0646635 0)
(-11.7951 -0.0515922 0)
(23.6384 -2.31559 0)
(15.4317 -1.97617 0)
(8.2598 -1.5757 0)
(2.74331 -1.21557 0)
(-1.47202 -0.904731 0)
(-4.91751 -0.630904 0)
(-7.98473 -0.380782 0)
(-11.1055 -0.205937 0)
(24.3328 -2.60591 0)
(16.9012 -2.37074 0)
(10.0265 -2.03616 0)
(4.44228 -1.67068 0)
(0.115655 -1.30548 0)
(-3.377 -0.946686 0)
(-6.43095 -0.597691 0)
(-9.51233 -0.307154 0)
(24.7682 -2.67802 0)
(17.9672 -2.50943 0)
(11.515 -2.23409 0)
(6.15516 -1.89315 0)
(1.91898 -1.51311 0)
(-1.51046 -1.11238 0)
(-4.49002 -0.712707 0)
(-7.52821 -0.358454 0)
(25.0647 -2.58815 0)
(18.8342 -2.46104 0)
(12.8346 -2.23092 0)
(7.79375 -1.91917 0)
(3.76294 -1.55077 0)
(0.479157 -1.14697 0)
(-2.37456 -0.740342 0)
(-5.32869 -0.369193 0)
(25.2511 -2.38127 0)
(19.5304 -2.28719 0)
(13.9918 -2.09724 0)
(9.31691 -1.82123 0)
(5.53755 -1.48041 0)
(2.42576 -1.09683 0)
(-0.297011 -0.708821 0)
(-3.17824 -0.353624 0)
(25.3301 -2.11362 0)
(20.0608 -2.05157 0)
(14.9676 -1.8973 0)
(10.6753 -1.65926 0)
(7.16901 -1.35415 0)
(4.24227 -1.00509 0)
(1.65844 -0.650532 0)
(-1.14566 -0.325734 0)
(25.3128 -1.83549 0)
(20.4566 -1.79927 0)
(15.8045 -1.67528 0)
(11.8633 -1.47239 0)
(8.60655 -1.20362 0)
(5.86485 -0.89541 0)
(3.41662 -0.580532 0)
(0.697004 -0.291757 0)
(25.222 -1.57426 0)
(20.7379 -1.55812 0)
(16.5023 -1.45923 0)
(12.8901 -1.28643 0)
(9.86477 -1.05234 0)
(7.2931 -0.78278 0)
(4.96304 -0.504899 0)
(2.30916 -0.250377 0)
(25.0836 -1.34443 0)
(20.9389 -1.34115 0)
(17.0856 -1.26254 0)
(13.7726 -1.11594 0)
(10.9568 -0.913315 0)
(8.53867 -0.679275 0)
(6.31459 -0.435952 0)
(3.71827 -0.214232 0)
(24.9167 -1.15015 0)
(21.0778 -1.1546 0)
(17.5718 -1.09131 0)
(14.5308 -0.966628 0)
(11.9024 -0.792441 0)
(9.61972 -0.589908 0)
(7.48696 -0.377245 0)
(4.93564 -0.184421 0)
(24.7435 -0.991098 0)
(21.1862 -0.997302 0)
(17.978 -0.945531 0)
(15.1712 -0.838649 0)
(12.7157 -0.689923 0)
(10.5572 -0.514785 0)
(8.50724 -0.327932 0)
(5.99372 -0.161675 0)
(24.5811 -0.862238 0)
(21.2814 -0.867351 0)
(18.3237 -0.822778 0)
(15.715 -0.730409 0)
(13.4162 -0.60273 0)
(11.3718 -0.450549 0)
(9.4002 -0.284303 0)
(6.91607 -0.1458 0)
(24.4341 -0.756083 0)
(21.3687 -0.759845 0)
(18.6248 -0.719844 0)
(16.1858 -0.639181 0)
(14.0241 -0.528262 0)
(12.0826 -0.395144 0)
(10.187 -0.246931 0)
(7.71841 -0.131295 0)
(24.3057 -0.668521 0)
(21.4507 -0.670709 0)
(18.891 -0.63421 0)
(16.5985 -0.562863 0)
(14.5563 -0.465352 0)
(12.7058 -0.348137 0)
(10.8781 -0.216781 0)
(8.4242 -0.115891 0)
(24.1975 -0.597485 0)
(21.5296 -0.598115 0)
(19.1301 -0.564191 0)
(16.9652 -0.500184 0)
(15.0272 -0.413325 0)
(13.2567 -0.30907 0)
(11.4887 -0.192274 0)
(9.0474 -0.102212 0)
(24.1083 -0.539589 0)
(21.6078 -0.539248 0)
(19.3486 -0.507205 0)
(17.2963 -0.449297 0)
(15.4495 -0.370996 0)
(13.7492 -0.277167 0)
(12.0333 -0.172296 0)
(9.60243 -0.090834 0)
(24.034 -0.490386 0)
(21.6846 -0.489523 0)
(19.5466 -0.459496 0)
(17.5968 -0.406879 0)
(15.8318 -0.335801 0)
(14.1939 -0.250659 0)
(12.5241 -0.15566 0)
(10.1015 -0.0813994 0)
(23.9715 -0.447651 0)
(21.7581 -0.446131 0)
(19.728 -0.418137 0)
(17.8705 -0.370049 0)
(16.1795 -0.305243 0)
(14.5978 -0.227661 0)
(12.9692 -0.14118 0)
(10.5531 -0.0733556 0)
(23.9204 -0.411055 0)
(21.8292 -0.408561 0)
(19.8959 -0.382455 0)
(18.1215 -0.338214 0)
(16.4972 -0.278806 0)
(14.9663 -0.207773 0)
(13.3744 -0.128639 0)
(10.9633 -0.0665254 0)
(23.8797 -0.380516 0)
(21.8972 -0.377134 0)
(20.0517 -0.352419 0)
(18.3527 -0.311312 0)
(16.7892 -0.256442 0)
(15.3046 -0.190963 0)
(13.7458 -0.118051 0)
(11.3383 -0.0608114 0)
(23.8485 -0.354495 0)
(21.9654 -0.349889 0)
(20.1992 -0.326722 0)
(18.5683 -0.288313 0)