/*--------------------------------*- C++ -*----------------------------------*\
| =========                 |                                                 |
| \\      /  F ield         | OpenFOAM: The Open Source CFD Toolbox           |
|  \\    /   O peration     | Version:  v2012                                 |
|   \\  /    A nd           | Website:  www.openfoam.com                      |
|    \\/     M anipulation  |                                                 |
\*---------------------------------------------------------------------------*/
FoamFile
{
    version     2.0;
    format      ascii;
    class       volScalarField;
    location    "0.389";
    object      nut.air;
}
// * * * * * * * * * * * * * * * * * * * * * * * * * * * * * * * * * * * * * //

dimensions      [0 2 -1 0 0 0 0];


internalField   nonuniform List<scalar> 
5600
(
2.45137e-05
3.47343e-05
4.04099e-05
4.24622e-05
4.22723e-05
4.09699e-05
3.92094e-05
3.75386e-05
3.61135e-05
3.49465e-05
3.40611e-05
3.34371e-05
3.30371e-05
3.28048e-05
3.26957e-05
3.26597e-05
3.26714e-05
3.2698e-05
3.2737e-05
3.27664e-05
3.28011e-05
3.28209e-05
3.28512e-05
3.28751e-05
3.29122e-05
3.29409e-05
3.298e-05
3.30113e-05
3.30504e-05
3.30788e-05
3.31119e-05
3.31318e-05
3.31556e-05
3.31661e-05
3.31821e-05
3.31859e-05
3.3197e-05
3.31964e-05
3.32044e-05
3.32013e-05
3.3208e-05
3.32039e-05
3.32107e-05
3.32064e-05
3.32142e-05
3.32106e-05
3.32199e-05
3.32168e-05
3.32272e-05
3.32242e-05
3.32352e-05
3.32326e-05
3.32446e-05
3.32413e-05
3.32549e-05
3.32519e-05
3.32672e-05
3.32646e-05
3.32816e-05
3.32796e-05
3.32988e-05
3.32966e-05
3.33182e-05
3.33157e-05
3.33395e-05
3.33365e-05
3.33629e-05
3.33591e-05
3.33882e-05
3.33833e-05
3.34153e-05
3.3409e-05
3.34444e-05
3.34363e-05
3.34754e-05
3.34652e-05
3.35082e-05
3.34959e-05
3.35423e-05
3.35282e-05
3.3577e-05
3.35626e-05
3.3611e-05
3.35999e-05
3.36421e-05
3.36428e-05
3.36658e-05
3.36978e-05
3.36726e-05
3.37797e-05
3.36424e-05
3.39233e-05
3.35165e-05
3.42279e-05
3.31069e-05
3.50284e-05
3.17383e-05
3.75691e-05
2.64798e-05
4.71587e-05
0.000151655
0.000137411
0.000112244
9.86284e-05
9.38992e-05
9.49506e-05
0.0001021
0.000110118
0.000116485
0.000124313
0.000132732
0.000141231
0.000149476
0.000157248
0.000164431
0.000170935
0.000176813
0.000182055
0.000186792
0.000191043
0.000195009
0.000198592
0.000202117
0.00020534
0.000208508
0.000211311
0.000214077
0.000216512
0.00021889
0.000220891
0.000222822
0.000224386
0.000225925
0.000227151
0.000228415
0.000229395
0.000230458
0.000231252
0.000232166
0.000232823
0.000233634
0.000234192
0.000234932
0.000235413
0.000236126
0.000236566
0.00023725
0.000237633
0.000238281
0.000238604
0.000239216
0.000239497
0.000240075
0.000240306
0.000240886
0.000241081
0.000241666
0.000241825
0.000242418
0.000242554
0.000243155
0.000243254
0.000243876
0.000243935
0.00024458
0.000244598
0.000245271
0.000245244
0.00024595
0.00024587
0.000246625
0.000246488
0.000247297
0.000247094
0.000247966
0.000247692
0.000248634
0.000248286
0.000249298
0.000248875
0.000249945
0.000249463
0.000250555
0.000250065
0.000251097
0.000250723
0.000251514
0.000251527
0.000251685
0.000252704
0.000251345
0.000254626
0.000249896
0.000258147
0.000245875
0.000265584
0.000235545
0.000282505
0.000210051
0.000287574
0.000156518
0.000151561
0.000143044
0.000135159
0.000125256
0.000120723
0.000113773
0.000109699
0.000108717
0.000109799
0.000112691
0.000117422
0.000123688
0.000131361
0.000140261
0.000150359
0.000161496
0.000173779
0.000187123
0.0002017
0.000217067
0.000232805
0.000246167
0.000258353
0.000270144
0.000281005
0.000290612
0.000298318
0.000305524
0.000311691
0.000317725
0.000322971
0.000328299
0.000332835
0.000337502
0.00034139
0.000345491
0.000348845
0.000352498
0.000355429
0.000358735
0.000361329
0.000364364
0.000366684
0.000369498
0.000371534
0.000374114
0.000375887
0.000378277
0.000379828
0.000382065
0.000383441
0.000385567
0.000386781
0.000388838
0.000389921
0.000391925
0.000392872
0.00039484
0.000395661
0.00039761
0.000398302
0.000400247
0.000400807
0.000402767
0.000403191
0.000405183
0.000405469
0.000407515
0.000407658
0.000409778
0.000409766
0.000411987
0.000411794
0.000414146
0.00041374
0.000416259
0.000415597
0.000418316
0.000417355
0.000420317
0.000419012
0.00042227
0.000420571
0.000424194
0.00042203
0.000426118
0.000423378
0.000428091
0.000424567
0.000430217
0.000425455
0.000432754
0.000425692
0.000436373
0.000424546
0.000442592
0.00042095
0.000431956
0.000408772
0.00015782
0.00015399
0.000150101
0.000146745
0.000142722
0.000139187
0.000135628
0.000131423
0.000128284
0.000124809
0.000123092
0.000119902
0.000117478
0.000115646
0.000115603
0.000116679
0.000119878
0.000124569
0.00013136
0.000139706
0.000150242
0.00016228
0.000176361
0.000191126
0.000207224
0.00022341
0.000238986
0.000252584
0.000266714
0.000279638
0.000293129
0.000305205
0.000317786
0.000329049
0.000340706
0.000351051
0.000361823
0.000371318
0.000381295
0.000389954
0.00039911
0.000406853
0.000415358
0.000422015
0.000428659
0.000433755
0.000439811
0.000444309
0.000449916
0.000453924
0.000459173
0.000462772
0.000467744
0.000470974
0.000475728
0.000478635
0.00048322
0.000485823
0.000490276
0.000492591
0.000496947
0.000498979
0.000503271
0.000505023
0.000509284
0.000510759
0.000515024
0.000516217
0.000520528
0.000521428
0.000525824
0.000526412
0.000530937
0.000531171
0.00053588
0.000535705
0.000540678
0.000539993
0.000545305
0.000544013
0.000549787
0.000547767
0.000554169
0.000551255
0.000558512
0.000554451
0.000562903
0.000557296
0.000567452
0.000559704
0.000572305
0.000561558
0.000577621
0.000562844
0.000583368
0.000563976
0.000588781
0.000566355
0.000592196
0.000571624
0.00015812
0.000154599
0.000151655
0.000149046
0.000146777
0.000144436
0.00014254
0.000140276
0.00013856
0.000136347
0.000134857
0.000132744
0.000131146
0.000128908
0.000127399
0.00012536
0.000124306
0.000121683
0.000121093
0.000119644
0.000120899
0.000121786
0.000125805
0.000129874
0.000137181
0.000144585
0.000155134
0.00016563
0.000178862
0.00019188
0.000207196
0.000222016
0.000235657
0.000247563
0.000261108
0.000273009
0.000286519
0.000298286
0.000311707
0.000323299
0.000336535
0.000347862
0.000360889
0.000371809
0.000384289
0.000394469
0.000406254
0.000415667
0.00042684
0.000435556
0.000446217
0.000454282
0.000464467
0.0004719
0.000481789
0.000488654
0.00049819
0.000504497
0.000513735
0.000519475
0.00052847
0.000533634
0.000542431
0.00054701
0.000555648
0.000559662
0.00056821
0.000571669
0.000580188
0.000583118
0.000591693
0.000594112
0.000602746
0.000604644
0.000613391
0.000614655
0.000622788
0.000622858
0.000631352
0.000630587
0.000639609
0.000637879
0.000647624
0.000644756
0.000655453
0.000651232
0.000663148
0.000657315
0.000670729
0.000663075
0.000678115
0.000668718
0.00068502
0.000674718
0.000690663
0.0006819
0.000694529
0.000690984
0.000696477
0.000700577
0.000158192
0.00015477
0.00015206
0.000149655
0.000147749
0.000145802
0.000144367
0.000142624
0.000141515
0.000139829
0.000138994
0.000137286
0.000136728
0.000134901
0.000134629
0.000132616
0.000132677
0.000130332
0.000130588
0.00012795
0.00012851
0.000125764
0.000126833
0.000124024
0.000125345
0.000123073
0.000125486
0.000124645
0.000128824
0.000130152
0.000136631
0.000140602
0.000149621
0.000156059
0.000167231
0.000175822
0.000188899
0.00019931
0.000214048
0.000225963
0.000242103
0.000251834
0.000264421
0.000274137
0.000287135
0.000297098
0.00031033
0.000320333
0.000333665
0.000343592
0.000356975
0.000366764
0.000380147
0.000389766
0.000403239
0.000412605
0.000425892
0.000434781
0.000447845
0.000456136
0.000468976
0.000476675
0.000489342
0.000496449
0.00050898
0.000515542
0.000527964
0.000534003
0.000546485
0.000552174
0.000564707
0.000569828
0.000582324
0.000586858
0.000599342
0.000603251
0.000615741
0.000618946
0.000631441
0.000633897
0.000646353
0.000648187
0.000660534
0.000661934
0.000674002
0.000675233
0.000686752
0.000688213
0.000698686
0.000701021
0.000709679
0.000713701
0.000720026
0.000726108
0.000730048
0.000737451
0.000740965
0.000746754
0.000755283
0.000761676
0.000158212
0.000154827
0.000152181
0.000149839
0.000148034
0.000146184
0.000144903
0.000143282
0.000142389
0.000140842
0.000140279
0.000138703
0.000138454
0.00013677
0.00013684
0.000134987
0.000135391
0.000133319
0.00013407
0.000131726
0.000132849
0.000130192
0.000131727
0.000128712
0.000130643
0.000127233
0.000129627
0.000125876
0.000128812
0.000124878
0.000128375
0.000124245
0.000128349
0.000124642
0.000129649
0.00012694
0.000133134
0.000131957
0.000139609
0.000140396
0.000149723
0.000152667
0.000163581
0.000168374
0.000180767
0.000187242
0.000201
0.000208938
0.000223909
0.000233063
0.000249081
0.000259207
0.00027544
0.000282411
0.000295179
0.00030252
0.000315687
0.000323203
0.000336658
0.000344274
0.000357974
0.000365618
0.000379504
0.000387128
0.000401185
0.00040875
0.000422953
0.000430394
0.000444836
0.00045223
0.00046679
0.000473942
0.000488459
0.000495258
0.000509659
0.000516072
0.000530327
0.000536446
0.000550495
0.000556366
0.000570081
0.000575831
0.00058912
0.000594894
0.00060763
0.000613676
0.00062545
0.000632112
0.000642632
0.000650163
0.000659239
0.000667817
0.000675516
0.000684732
0.000691711
0.000700718
0.000708295
0.000716677
0.000726372
0.000738937
0.000158218
0.00015485
0.00015222
0.000149909
0.000148123
0.000146323
0.000145064
0.000143515
0.000142643
0.000141198
0.000140649
0.000139211
0.00013896
0.000137457
0.000137498
0.000135874
0.000136212
0.000134419
0.000135068
0.000133061
0.000134044
0.000131777
0.000133122
0.000130554
0.000132294
0.000129382
0.000131548
0.000128255
0.000130887
0.000127186
0.000130318
0.000126169
0.000129821
0.000125228
0.000129438
0.00012443
0.000129234
0.000123899
0.000129327
0.00012369
0.000129649
0.000124021
0.00013064
0.000125387
0.000132753
0.000128286
0.000136502
0.000133218
0.000142395
0.000140631
0.000150882
0.000150831
0.000162228
0.00016395
0.000176338
0.000179564
0.000192912
0.000197545
0.000211803
0.000217716
0.000232804
0.000239852
0.000255664
0.000263685
0.000280105
0.000288933
0.000305851
0.000312435
0.000325185
0.000330773
0.000343543
0.000349564
0.000362489
0.000368979
0.000381911
0.000388921
0.000401785
0.000409182
0.000421921
0.000429804
0.000442314
0.000450729
0.000462907
0.000471915
0.000483662
0.000493342
0.000504576
0.000514942
0.000525672
0.000536679
0.000547062
0.000558571
0.000568636
0.000580636
0.000590522
0.00060317
0.000612912
0.000627041
0.000637431
0.000655451
0.000158218
0.000154865
0.000152228
0.000149948
0.000148143
0.000146397
0.000145098
0.000143636
0.000142694
0.000141378
0.000140721
0.000139464
0.000139056
0.000137797
0.000137621
0.000136316
0.000136362
0.000134979
0.000135247
0.000133751
0.00013425
0.000132611
0.000133352
0.000131543
0.000132537
0.000130534
0.000131794
0.000129577
0.000131114
0.000128665
0.000130493
0.000127796
0.000129927
0.000126968
0.000129419
0.000126182
0.00012897
0.000125449
0.000128591
0.000124777
0.000128276
0.00012417
0.000128048
0.000123658
0.000127933
0.000123291
0.000127965
0.000123147
0.000128207
0.000123256
0.000128633
0.000123724
0.000129451
0.000124808
0.000130928
0.000126806
0.000133362
0.000130034
0.000137084
0.000134816
0.000142422
0.000141438
0.000149662
0.000150134
0.000159041
0.000161059
0.000170687
0.000174297
0.000184534
0.000189497
0.000200251
0.000206507
0.000217763
0.000225258
0.000236982
0.00024564
0.000257781
0.000267519
0.000280003
0.000290727
0.000303474
0.000315081
0.00032801
0.000340387
0.000353435
0.000366467
0.000379583
0.000393153
0.000406292
0.000420271
0.000432826
0.000447389
0.00046005
0.000475066
0.000488205
0.000502598
0.000515537
0.000529971
0.000542447
0.000556671
0.000158216
0.000154876
0.000152225
0.000149976
0.000148138
0.000146447
0.000145089
0.000143715
0.000142679
0.000141494
0.000140698
0.000139624
0.000139022
0.000138009
0.000137573
0.000136589
0.000136299
0.000135321
0.000135165
0.000134171
0.000134145
0.000133118
0.00013322
0.000132147
0.000132373
0.000131245
0.000131592
0.000130402
0.000130865
0.000129612
0.000130186
0.000128868
0.00012955
0.000128164
0.000128953
0.000127497
0.000128391
0.000126865
0.00012786
0.000126268
0.000127361
0.000125709
0.000126895
0.000125186
0.000126464
0.00012471
0.000126066
0.000124301
0.000125705
0.000123962
0.000125392
0.000123698
0.000125153
0.000123525
0.00012501
0.000123484
0.000124998
0.000123623
0.000125168
0.000124014
0.000125603
0.000124755
0.000126418
0.000125927
0.000127701
0.000127724
0.000129705
0.000130394
0.00013271
0.000134218
0.000137006
0.000139464
0.000142858
0.000146401
0.00015054
0.000155271
0.000160273
0.000166267
0.000172239
0.000179548
0.000186567
0.000195197
0.00020332
0.000213246
0.000222497
0.000233642
0.000243998
0.000256268
0.00026769
0.000280996
0.000293431
0.000307654
0.000321054
0.000336141
0.000350383
0.00036606
0.000380914
0.000396975
0.000412267
0.000428406
0.000158213
0.000154882
0.000152218
0.000149987
0.000148123
0.000146467
0.000145065
0.000143747
0.000142642
0.000141539
0.000140645
0.000139686
0.000138952
0.00013809
0.000137483
0.000136691
0.000136186
0.000135446
0.000135027
0.000134322
0.00013398
0.000133297
0.000133025
0.000132357
0.000132145
0.000131486
0.00013133
0.000130677
0.000130569
0.000129922
0.000129854
0.000129214
0.000129182
0.000128548
0.000128549
0.000127919
0.000127953
0.000127327
0.000127392
0.000126771
0.000126866
0.000126257
0.000126378
0.000125785
0.000125937
0.000125365
0.000125544
0.000125014
0.000125205
0.00012474
0.000124943
0.000124556
0.000124788
0.000124492
0.000124772
0.000124602
0.000124943
0.000124949
0.00012538
0.000125598
0.000126126
0.000126638
0.00012735
0.000128271
0.000129272
0.00013074
0.000132169
0.000134306
0.000136312
0.000139248
0.000141987
0.000145843
0.000149455
0.000154334
0.000158948
0.00016493
0.000170638
0.000177775
0.000184644
0.000192967
0.000201031
0.000210536
0.000219803
0.000230353
0.000240629
0.000252118
0.000263358
0.00027574
0.000287914
0.000301122
0.000314182
0.000328131
0.000342
0.000356599
0.000371207
0.000386394
0.000401702
0.000417442
0.000433499
0.000449914
0.000158211
0.00015488
0.000152207
0.000149982
0.000148101
0.000146456
0.000145027
0.000143728
0.000142585
0.000141511
0.000140566
0.000139647
0.000138846
0.000138038
0.000137347
0.000136623
0.000136018
0.000135359
0.000134823
0.000134214
0.000133736
0.000133166
0.000132738
0.000132201
0.000131814
0.000131304
0.000130953
0.000130469
0.000130149
0.000129691
0.000129398
0.000128967
0.000128699
0.000128298
0.000128058
0.000127692
0.000127485
0.000127162
0.000126988
0.00012671
0.000126582
0.000126371
0.000126305
0.00012619
0.000126218
0.000126237
0.000126406
0.000126573
0.000126875
0.000127289
0.00012786
0.00012867
0.000129677
0.00013104
0.000132664
0.00013476
0.000137188
0.000140197
0.000143602
0.000147686
0.000152216
0.000157485
0.000163234
0.000169759
0.000176778
0.000184504
0.000192562
0.000201314
0.000210367
0.000220109
0.000230113
0.000240791
0.00025168
0.000263215
0.000274903
0.000287195
0.000299575
0.000312511
0.000325467
0.000338932
0.000352345
0.000366232
0.000377423
0.00038778
0.000398218
0.000408897
0.000419936
0.000431312
0.000442905
0.000454942
0.000467249
0.000479986
0.000493027
0.000506526
0.000520343
0.000534602
0.000549037
0.000563785
0.000578131
0.000592443
0.000158208
0.000154873
0.000152189
0.000149958
0.000148061
0.00014641
0.000144957
0.000143652
0.000142478
0.000141398
0.000140413
0.000139487
0.000138637
0.000137823
0.000137074
0.000136343
0.000135673
0.000135007
0.000134398
0.000133782
0.000133227
0.000132652
0.000132142
0.000131603
0.000131134
0.000130627
0.000130198
0.000129727
0.000129345
0.000128917
0.000128575
0.00012819
0.000127917
0.000127609
0.000127449
0.00012728
0.000127313
0.000127344
0.000127529
0.000127859
0.00012848
0.000129367
0.000130685
0.000132407
0.000134711
0.000137554
0.000141117
0.000145346
0.000150388
0.000156171
0.000162813
0.000170191
0.000178223
0.00018697
0.000196334
0.000206365
0.000216965
0.00022817
0.00023988
0.00025212
0.000264788
0.000277901
0.000291364
0.00030519
0.000317301
0.000326972
0.000336685
0.000346552
0.000356601
0.000366783
0.000377147
0.000387623
0.000398153
0.000408817
0.000419528
0.000430356
0.00044122
0.000452181
0.000463166
0.000474218
0.000485292
0.0004964
0.000507533
0.000518775
0.000530025
0.000541312
0.000552556
0.000563774
0.000574915
0.000586012
0.000597039
0.000608055
0.000619013
0.000629964
0.000640828
0.000651682
0.00066233
0.000672846
0.000682867
0.000692627
0.0001582
0.000154852
0.000152147
0.000149894
0.000147964
0.00014628
0.000144783
0.000143433
0.000142199
0.000141063
0.000140001
0.000139012
0.00013807
0.000137186
0.000136331
0.000135529
0.000134741
0.000134001
0.000133261
0.000132567
0.000131872
0.000131222
0.000130576
0.00012993
0.000129314
0.000128725
0.00012821
0.000127779
0.000127519
0.000127328
0.000127257
0.000127552
0.000128208
0.000129462
0.00013132
0.000134004
0.000137511
0.000142037
0.000147552
0.000154176
0.00016172
0.00017021
0.000179568
0.000189786
0.000200801
0.000212557
0.000225021
0.000238083
0.000251767
0.000265897
0.000279409
0.000289753
0.000300462
0.000311287
0.000322242
0.000333341
0.000344537
0.000355832
0.000367185
0.000378604
0.000390055
0.00040155
0.000413062
0.000424596
0.000436121
0.000447741
0.00045939
0.00047099
0.000482529
0.000493935
0.000505229
0.000516371
0.000527374
0.000538222
0.000548973
0.000559561
0.000570042
0.000580358
0.000590576
0.000600623
0.000610596
0.000620378
0.000630092
0.000639755
0.000649375
0.000658915
0.000668272
0.000677507
0.000686595
0.000695551
0.000704329
0.000712994
0.000721467
0.000729805
0.000737945
0.000745886
0.000753683
0.000761092
0.000767909
0.0007743
0.00015818
0.000154796
0.000152025
0.000149708
0.000147678
0.000145886
0.000144249
0.000142742
0.000141335
0.000139995
0.000138742
0.000137534
0.000136375
0.000135255
0.000134153
0.000133117
0.000132007
0.000130919
0.000129757
0.000128736
0.000127687
0.000126988
0.000126194
0.000125614
0.000125488
0.000126052
0.000127487
0.00013002
0.00013376
0.000138904
0.000145437
0.00015338
0.000162457
0.000172787
0.000184123
0.000196523
0.000209806
0.000223957
0.000238876
0.000252111
0.000263734
0.000275572
0.000287596
0.000299793
0.000312072
0.000324413
0.000336757
0.000349116
0.000361438
0.000373756
0.000385976
0.000398236
0.000410421
0.000422464
0.000434319
0.000445961
0.000457376
0.000468562
0.000479526
0.000490273
0.000500821
0.000511175
0.000521354
0.000531347
0.000541167
0.000550917
0.000560599
0.000570083
0.000579434
0.000588589
0.00059761
0.000606428
0.00061512
0.000623601
0.000631911
0.000639992
0.000647892
0.000655584
0.000663102
0.000670454
0.000677645
0.000684641
0.000691517
0.000698228
0.000704846
0.000711332
0.00071771
0.000723964
0.000730112
0.000736162
0.000742099
0.00074791
0.000753595
0.000759159
0.000764651
0.000769892
0.000775094
0.000779889
0.000784283
0.000788343
0.000158113
0.000154622
0.000151612
0.000149104
0.000146667
0.000144526
0.000142363
0.000140374
0.000138357
0.000136485
0.000134756
0.00013283
0.000131009
0.000129044
0.000127406
0.000125791
0.000124095
0.000122535
0.000121922
0.000122155
0.000123946
0.0001271
0.000132223
0.000138945
0.000147624
0.000157903
0.000169839
0.00018311
0.000197722
0.000213312
0.000228933
0.000242196
0.000255553
0.000268979
0.000282358
0.000295723
0.000309004
0.000322249
0.000335342
0.000348352
0.000361186
0.000373823
0.000386137
0.000398074
0.00040959
0.000420739
0.000431499
0.000441957
0.000452059
0.000461894
0.000471349
0.000480613
0.000489591
0.000498318
0.000506802
0.000515047
0.000523057
0.000530836
0.000538391
0.000545726
0.000552854
0.000559778
0.000566517
0.000573069
0.00057946
0.000585676
0.000591778
0.000597721
0.000603564
0.00060925
0.000614855
0.000620298
0.000625694
0.00063043
0.000634843
0.000639139
0.000643332
0.000647422
0.000651427
0.000655337
0.000659177
0.000662927
0.000666619
0.000670226
0.000673785
0.000677262
0.000680701
0.000684053
0.000687376
0.000690608
0.00069382
0.000696939
0.000700047
0.00070306
0.000706065
0.000708968
0.000711864
0.000714636
0.000717337
0.000719894
0.000157849
0.000153942
0.0001501
0.000146712
0.000142568
0.000139331
0.000135252
0.000131833
0.0001282
0.000126014
0.000123572
0.000120696
0.00011865
0.000117785
0.000118586
0.00012103
0.000125566
0.00013189
0.000140407
0.000150791
0.000163414
0.000177688
0.000193332
0.000209789
0.000227092
0.000242474
0.000257122
0.000271489
0.000285535
0.000299173
0.000312289
0.000324998
0.000337193
0.0003489
0.000360095
0.00037086
0.000381149
0.000391038
0.000400402
0.000409336
0.000417818
0.000426066
0.000433041
0.000439198
0.000445007
0.000450519
0.00045576
0.000460768
0.000465558
0.00047016
0.000474582
0.000478845
0.000482955
0.000486931
0.000490774
0.0004945
0.00049811
0.000501614
0.000505014
0.000508318
0.00051153
0.000514656
0.000517703
0.000520673
0.000523574
0.000526408
0.000529182
0.000531894
0.000534552
0.000537147
0.000539694
0.00054218
0.000544621
0.00054701
0.000549339
0.000551606
0.000553819
0.000555974
0.000558083
0.00056014
0.000562163
0.000564134
0.00056608
0.000567977
0.000569857
0.00057169
0.000573515
0.000575289
0.000577062
0.000578779
0.000580501
0.000582164
0.000583839
0.000585448
0.000587078
0.000588623
0.000590197
0.000591648
0.000593041
0.000594293
0.000156641
0.000151208
0.000143351
0.000134629
0.000126078
0.000120991
0.000115008
0.000112505
0.000112456
0.00011419
0.000117961
0.000123463
0.000130605
0.000139124
0.000149055
0.000160159
0.000172603
0.000186205
0.000201284
0.000217285
0.000233492
0.000246947
0.000259667
0.000271868
0.000283091
0.000294115
0.00030263
0.000310053
0.00031674
0.000322879
0.000328612
0.000333955
0.000338909
0.000343511
0.000347778
0.00035176
0.000355474
0.000358969
0.000362253
0.00036537
0.000368316
0.000371131
0.000373814
0.000376352
0.000378747
0.000381013
0.000383159
0.000385201
0.000387146
0.000389013
0.000390803
0.000392532
0.000394203
0.000395821
0.000397386
0.000398908
0.000400383
0.000401818
0.000403212
0.00040457
0.000405891
0.00040718
0.000408438
0.000409667
0.00041087
0.000412048
0.000413206
0.000414342
0.000415462
0.000416559
0.000417643
0.000418705
0.000419752
0.000420779
0.000421789
0.000422775
0.000423741
0.000424682
0.000425607
0.000426508
0.000427398
0.000428265
0.000429126
0.000429964
0.000430801
0.000431616
0.000432434
0.00043323
0.000434033
0.000434811
0.0004356
0.00043636
0.000437138
0.000437879
0.000438645
0.000439353
0.000440096
0.000440743
0.000441343
0.000441814
0.000151621
0.000136817
0.000113478
9.95201e-05
9.76017e-05
9.81308e-05
0.000110573
0.000115045
0.000121818
0.000129687
0.000137976
0.000146235
0.000154211
0.000161681
0.000168583
0.000174823
0.000180491
0.000185568
0.000190197
0.000194425
0.000198337
0.000202069
0.000205554
0.00020885
0.00021187
0.000214679
0.000217312
0.000219723
0.000221894
0.000223822
0.000225517
0.000227019
0.000228355
0.000229554
0.00023063
0.000231604
0.000232488
0.000233297
0.000234044
0.000234739
0.000235393
0.000236004
0.000236596
0.000237174
0.000237731
0.000238264
0.000238769
0.00023925
0.000239705
0.000240141
0.000240557
0.00024096
0.00024135
0.000241732
0.000242104
0.000242472
0.000242833
0.000243191
0.000243543
0.000243891
0.000244235
0.000244573
0.00024491
0.000245239
0.000245565
0.000245887
0.000246207
0.000246524
0.000246839
0.000247153
0.000247465
0.000247776
0.000248087
0.000248397
0.000248707
0.000249014
0.00024932
0.000249621
0.00024992
0.000250212
0.000250502
0.000250785
0.000251068
0.000251343
0.000251621
0.000251892
0.000252165
0.000252433
0.000252706
0.000252972
0.000253244
0.000253511
0.000253782
0.000254049
0.000254319
0.000254582
0.000254848
0.000255066
0.000255286
0.000255444
2.45432e-05
3.47523e-05
4.04101e-05
4.23028e-05
4.20136e-05
4.05608e-05
3.87137e-05
3.70559e-05
3.56101e-05
3.44451e-05
3.35764e-05
3.29762e-05
3.25986e-05
3.2385e-05
3.2287e-05
3.22583e-05
3.22697e-05
3.2298e-05
3.2331e-05
3.23649e-05
3.23935e-05
3.24264e-05
3.24614e-05
3.24994e-05
3.2539e-05
3.25762e-05
3.26142e-05
3.26515e-05
3.26862e-05
3.27167e-05
3.27415e-05
3.27608e-05
3.27749e-05
3.27852e-05
3.27918e-05
3.27959e-05
3.27977e-05
3.2798e-05
3.27971e-05
3.27957e-05
3.27941e-05
3.27925e-05
3.27911e-05
3.27904e-05
3.27903e-05
3.27907e-05
3.27914e-05
3.27924e-05
3.27936e-05
3.2795e-05
3.27966e-05
3.27986e-05
3.28009e-05
3.28039e-05
3.28074e-05
3.28116e-05
3.28164e-05
3.28219e-05
3.28281e-05
3.28348e-05
3.28422e-05
3.28501e-05
3.28587e-05
3.28677e-05
3.28773e-05
3.28872e-05
3.28977e-05
3.29087e-05
3.29202e-05
3.29321e-05
3.29447e-05
3.29577e-05
3.29712e-05
3.29852e-05
3.29996e-05
3.30144e-05
3.30297e-05
3.30451e-05
3.30609e-05
3.30767e-05
3.30929e-05
3.31091e-05
3.31255e-05
3.3142e-05
3.31588e-05
3.31756e-05
3.31928e-05
3.321e-05
3.32277e-05
3.32454e-05
3.32637e-05
3.32818e-05
3.33007e-05
3.3319e-05
3.33391e-05
3.33578e-05
3.33784e-05
3.33985e-05
3.34187e-05
3.34393e-05
2.59036e-05
0.000680927
0.00119315
0.00158375
0.00194097
0.00222137
0.00242739
0.00246851
0.00246037
0.0024454
0.00242914
0.0024201
0.00242344
0.00243702
0.00245672
0.00248192
0.002512
0.00254754
0.00259033
0.00263905
0.00269433
0.00275494
0.00281891
0.00288737
0.00296143
0.003038
0.00311405
0.00319169
0.00326493
0.00333936
0.00335834
0.00336305
0.00336531
0.00336514
0.00336276
0.00335836
0.00335219
0.00334441
0.00333513
0.00332448
0.00331251
0.00329938
0.00328511
0.00326987
0.00325361
0.0032366
0.00321867
0.00320021
0.00318085
0.00316123
0.00314069
0.00312019
0.00309867
0.00307752
0.00305524
0.00303365
0.00301076
0.00298889
0.0029656
0.0029436
0.00292013
0.00289811
0.00287471
0.00285266
0.0028295
0.00280743
0.00278451
0.00276243
0.00273962
0.00271751
0.00269441
0.00267229
0.00264833
0.00262638
0.00260062
0.00257877
0.00255052
0.00252831
0.00249715
0.00247384
0.00243937
0.00241449
0.00237678
0.00234943
0.00230912
0.00227752
0.00223723
0.00219999
0.00216263
0.00211969
0.00208557
0.00204062
0.00200873
0.00196681
0.00193655
0.00189781
0.00187288
0.00183467
0.00182072
0.00178219
0.000168231
0.000440693
0.000877774
0.00126738
0.00161555
0.00189664
0.00211058
0.00225991
0.00236363
0.00236021
0.00234109
0.00233172
0.00232941
0.00233314
0.00234288
0.0023592
0.00238203
0.00241127
0.00244824
0.00249021
0.00253604
0.00258597
0.00263983
0.00269797
0.00276236
0.00283157
0.00290381
0.00297983
0.00306361
0.00315074
0.0032383
0.00325492
0.00326321
0.00326854
0.0032713
0.00327173
0.00327016
0.00326678
0.0032617
0.00325507
0.00324694
0.0032375
0.00322676
0.00321491
0.00320189
0.00318799
0.00317303
0.00315742
0.00314078
0.00312376
0.00310571
0.00308758
0.00306834
0.00304936
0.00302915
0.00300953
0.00298853
0.00296844
0.00294686
0.00292645
0.00290452
0.0028839
0.00286186
0.00284101
0.00281904
0.00279796
0.00277604
0.00275475
0.00273273
0.00271119
0.00268868
0.00266688
0.00264336
0.00262139
0.00259597
0.00257369
0.00254572
0.00252263
0.00249174
0.00246712
0.00243288
0.00240645
0.00236894
0.00234001
0.00229992
0.00226701
0.00222707
0.00218921
0.00215234
0.00210996
0.00207638
0.0020335
0.00200242
0.00196386
0.00193498
0.00190051
0.00187719
0.00184413
0.00183132
0.0017988
0.000472734
0.000385403
0.000567316
0.000877247
0.00120409
0.00148425
0.0017064
0.00187036
0.00199065
0.00207687
0.00214189
0.00219863
0.00221585
0.00222081
0.00223195
0.00225069
0.00227667
0.00230833
0.00234318
0.00237999
0.00241902
0.00246089
0.00250686
0.00255607
0.00261032
0.00266944
0.00273409
0.00280285
0.00288322
0.00296514
0.00306985
0.00311735
0.00313326
0.00314549
0.00315461
0.003161
0.00316506
0.00316701
0.00316698
0.00316515
0.00316159
0.0031565
0.0031499
0.00314201
0.00313277
0.00312247
0.00311093
0.0030986
0.00308508
0.00307104
0.00305583
0.00304042
0.00302376
0.00300724
0.0029894
0.00297202
0.00295317
0.00293509
0.00291546
0.00289685
0.00287666
0.00285762
0.00283712
0.00281763
0.002797
0.00277705
0.00275624
0.00273583
0.0027147
0.00269378
0.00267194
0.00265044
0.00262739
0.00260532
0.00258026
0.00255736
0.00252969
0.00250543
0.0024748
0.00244853
0.0024145
0.00238614
0.00234877
0.00231799
0.00227806
0.00224374
0.00220411
0.00216581
0.00212944
0.00208811
0.00205522
0.00201505
0.00198517
0.00195069
0.00192377
0.00189437
0.00187321
0.00184628
0.00183494
0.00180957
0.000592856
0.000585004
0.000544679
0.000614127
0.000799088
0.00102242
0.00123019
0.00139986
0.00153377
0.00163839
0.00172148
0.00179479
0.00186031
0.00192253
0.00198473
0.00204888
0.00211472
0.00217419
0.0022137
0.00225341
0.0022949
0.00233865
0.00238598
0.00243505
0.00248735
0.00254287
0.00260355
0.00266726
0.00273965
0.00281098
0.00290144
0.00294117
0.0029668
0.00298787
0.00300517
0.00301918
0.00303043
0.00303912
0.00304542
0.00304955
0.00305161
0.00305182
0.00305023
0.00304707
0.00304231
0.00303626
0.00302875
0.00302023
0.00301034
0.00299973
0.0029878
0.00297548
0.00296179
0.00294807
0.00293292
0.00291806
0.00290166
0.00288584
0.00286841
0.00285182
0.00283361
0.00281632
0.00279757
0.00277959
0.00276046
0.00274174
0.00272217
0.00270272
0.00268255
0.00266228
0.00264115
0.00261989
0.00259734
0.002575
0.0025503
0.00252651
0.00249912
0.00247331
0.00244291
0.00241453
0.00238067
0.00234994
0.00231269
0.00227972
0.00223995
0.0022042
0.00216494
0.0021265
0.00209083
0.00205118
0.00201939
0.00198276
0.00195476
0.00192521
0.00190109
0.00187767
0.0018594
0.00183965
0.0018302
0.00181315
0.000699995
0.000706343
0.000689994
0.000664544
0.000665996
0.000723559
0.000821287
0.000935415
0.00104675
0.00114848
0.00123741
0.00131957
0.00139676
0.00147167
0.00154622
0.00162241
0.00170005
0.00177989
0.00185942
0.00193878
0.00201768
0.00209539
0.00217133
0.00224484
0.00231595
0.00238374
0.00244876
0.00250977
0.00256768
0.00262028
0.00267142
0.00271562
0.00275347
0.00278586
0.0028137
0.00283757
0.00285811
0.00287547
0.00288986
0.00290154
0.00291068
0.00291751
0.00292212
0.00292477
0.00292546
0.00292452
0.00292183
0.00291784
0.00291222
0.00290563
0.0028975
0.00288877
0.00287849
0.00286797
0.0028559
0.0028439
0.00283028
0.002817
0.00280207
0.00278772
0.00277173
0.00275639
0.00273957
0.00272325
0.00270576
0.00268839
0.00267016
0.00265173
0.00263257
0.00261292
0.00259251
0.00257138
0.0025493
0.00252647
0.00250207
0.00247705
0.00244986
0.00242203
0.0023918
0.00236078
0.00232706
0.00229347
0.00225637
0.00222096
0.00218149
0.00214439
0.00210582
0.0020678
0.00203334