/*--------------------------------*- C++ -*----------------------------------*\
| =========                 |                                                 |
| \\      /  F ield         | OpenFOAM: The Open Source CFD Toolbox           |
|  \\    /   O peration     | Version:  v2012                                 |
|   \\  /    A nd           | Website:  www.openfoam.com                      |
|    \\/     M anipulation  |                                                 |
\*---------------------------------------------------------------------------*/
FoamFile
{
    version     2.0;
    format      ascii;
    class       volScalarField;
    location    "0.059";
    object      epsilon.air;
}
// * * * * * * * * * * * * * * * * * * * * * * * * * * * * * * * * * * * * * //

dimensions      [0 2 -3 0 0 0 0];


internalField   nonuniform List<scalar> 
1900
(
112.724
141.424
210.097
257.591
369.051
443.457
614.739
724.907
971.318
1128.62
15.4676
16.4471
18.6373
20.4504
23.7569
27.7276
32.0035
39.2878
45.1236
56.7643
14.7926
14.6415
14.5755
14.5063
14.5148
14.5573
14.6409
14.8309
15.0773
15.4133
14.77
14.6303
14.4635
14.3353
14.1726
14.0589
13.904
13.8079
13.6654
13.5937
14.7767
14.6214
14.4706
14.3203
14.1749
14.0287
13.8891
13.747
13.6141
13.4768
14.7778
14.6204
14.4715
14.3195
14.1756
14.0282
13.8893
13.747
13.6135
13.4772
14.7777
14.6207
14.4731
14.3235
14.1841
14.045
13.9175
13.7915
13.6807
13.5716
14.7762
14.6498
14.5639
14.5034
14.5108
14.5517
14.6366
14.82
15.0457
15.3948
15.2146
16.5983
18.2803
20.6746
23.5981
27.5662
32.2729
38.3971
45.5769
54.8031
105.951
146.558
198.393
265.741
350.054
456.037
585.707
743.674
931.867
1154.05
4100.93
15203.6
19580.1
22432.8
21096.9
18002.5
15072
12781.1
11288.7
10374.6
9875.95
9701.15
9526.18
9256.92
8848.59
8348.63
7793.19
7206.15
6639.8
6121.52
5644.69
5217.98
4833.73
4482.94
4163.81
3874.54
3612.2
3374.9
3159.38
2963.77
2785.65
2623.03
2474.24
2337.72
2212.33
2096.9
1990.51
1892.21
1801.25
1716.89
1638.55
1565.63
1497.67
1434.22
1374.89
1319.31
1267.18
1218.2
1172.13
1128.69
1087.7
1048.93
1012.24
977.411
944.352
912.861
882.897
854.262
826.969
800.814
775.859
751.888
729.002
706.962
685.903
665.563
646.108
627.249
609.192
591.617
574.78
558.323
542.569
527.104
512.341
497.787
483.977
470.298
457.448
444.638
432.767
420.799
409.892
398.685
388.667
378.088
368.852
358.757
350.211
340.486
332.601
323.179
316
306.846
300.475
291.536
286.081
277.249
272.762
262.188
113.196
337.94
518.206
922.694
1124.91
1149.07
1121.14
1056.72
1050.95
1090.38
1195.73
1409.71
1697.26
2029.85
2380.14
2692.66
2970.85
3202.99
3357.35
3432.95
3424.88
3385.79
3299.56
3181.61
3053.4
2922.12
2791.36
2664.77
2541.35
2424.04
2312
2205.05
2103.73
2007.83
1917.5
1832.42
1752.51
1677.26
1606.46
1539.8
1477.01
1417.8
1361.95
1309.22
1259.39
1212.26
1167.65
1125.37
1085.25
1047.13
1010.88
976.345
943.424
911.961
881.901
853.085
825.499
798.984
773.569
749.092
725.617
702.978
681.264
660.291
640.176
620.712
602.041
583.929
566.549
549.639
533.414
517.574
502.391
487.513
473.295
459.305
446.015
432.876
420.513
408.214
396.795
385.315
374.828
364.099
354.486
344.393
335.557
325.969
317.827
308.63
301.149
292.264
285.474
276.849
270.833
262.408
257.259
248.931
244.706
234.769
16.4287
19.8699
22.8877
29.0983
34.7862
38.7323
41.6905
43.7529
46.6781
50.6984
58.7423
70.9974
95.612
130.488
189.864
267.832
374.244
509.495
666.722
837.299
1005.6
1163.33
1302.61
1418.84
1509.04
1571.91
1609.79
1626.94
1624.23
1613.39
1590.41
1560.12
1525.68
1488.41
1449.83
1410.06
1370.23
1329.9
1290.07
1250.91
1212.47
1174.91
1138.36
1102.89
1068.54
1035.26
1003.13
972.043
942.008
912.981
884.941
857.812
831.588
806.186
781.624
757.798
734.754
712.384
690.752
669.747
649.456
629.759
610.758
592.314
574.547
557.298
540.7
524.569
509.057
493.95
479.435
465.257
451.658
438.326
425.579
413.031
401.103
389.299
378.187
367.116
356.835
346.485
337.035
327.359
318.699
309.607
301.661
293.043
285.741
277.488
270.793
262.817
256.744
248.983
243.592
235.984
231.354
223.818
220.003
211.033
13.4532
13.4608
13.5469
13.8038
14.334
15.0138
15.7187
16.3468
16.9283
17.3482
17.9018
18.366
19.3098
20.5036
22.7486
26.2809
31.7718
40.8406
54.8092
76.2867
106.594
147.268
198.987
260.747
330.29
405.079
480.451
554.197
621.415
682.973
735.944
779.718
814.142
839.59
857.6
868.619
874.111
873.559
870.873
864.913
856.17
845.484
833.391
820.008
805.715
790.624
775.031
758.849
742.415
725.805
709.057
692.229
675.42
658.649
642.029
625.507
609.232
593.134
577.346
561.79
546.6
531.69
517.187
502.988
489.235
475.802
462.824
450.15
437.923
425.966
414.449
403.148
392.293
381.595
371.354
361.212
351.557
341.931
332.868
323.765
315.323
306.748
298.944
290.881
283.703
276.094
269.499
262.277
256.211
249.269
243.692
236.944
231.862
225.237
220.692
214.14
210.195
203.676
200.389
192.652
13.3301
13.1588
13.063
13.1176
13.3068
13.7224
14.2864
14.9173
15.4527
15.8859
16.2131
16.44
16.6244
16.7617
16.9122
17.0905
17.3428
17.7337
18.3306
19.3174
20.849
23.261
26.7913
32.1491
39.778
50.5941
64.9809
83.5738
106.362
133.39
164.057
197.348
232.474
267.779
302.746
335.599
366.557
394.438
419.182
440.371
458.144
472.455
483.757
492.148
498.041
501.682
503.462
503.182
502.019
499.473
495.681
490.922
485.434
479.234
472.545
465.375
457.934
450.159
442.273
434.178
426.097
417.903
409.775
401.651
393.686
385.76
378.007
370.299
362.772
355.295
348.009
340.737
333.694
326.608
319.781
312.87
306.281
299.556
293.22
286.69
280.647
274.344
268.643
262.598
257.27
251.485
246.526
240.938
236.315
230.865
226.562
221.174
217.196
211.806
208.187
202.762
199.561
194.112
191.383
184.938
13.3253
13.1542
13.032
13.0871
13.2972
13.7753
14.5031
15.4925
16.51
17.6086
18.6013
19.5252
20.2639
20.8731
21.3001
21.6057
21.7777
21.8546
21.8416
21.7989
21.7064
21.6091
21.5378
21.5635
21.6709
21.9302
22.4668
23.3691
24.8442
27.0145
30.2609
34.6624
40.7105
48.292
57.7562
68.9423
82.0321
96.6094
112.629
129.514
147.031
164.609
181.954
198.644
214.448
229.084
242.538
254.595
265.393
274.892
283.213
290.349
296.501
301.657
306.003
309.522
312.416
314.586
316.264
317.285
317.971
317.958
317.732
317.169
316.155
314.773
313.142
311.216
309.106
306.765
304.247
301.512
298.688
295.562
292.44
289.003
285.638
281.903
278.352
274.402
270.748
266.67
263.016
258.906
255.347
251.268
247.858
243.822
240.568
236.516
233.404
229.262
226.292
222.004
219.209
214.764
212.213
207.682
205.439
200.137
13.4657
13.3602
13.41
13.6568
14.3062
15.6908
18.039
21.4497
25.4119
29.7268
33.624
37.075
39.6025
41.5478
42.6165
43.3272
43.3703
43.2428
42.9242
42.4043
41.7918
41.1472
40.5065
39.8912
39.3456
38.8646
38.5017
38.2289
38.1243
38.1787
38.3549
38.7239
39.3687
40.2466
41.5806
43.2478
45.5578
48.4259
52.1584
56.76
62.4499
69.2903
77.3682
86.7198
97.3045
109.061
121.821
135.436
149.648
164.242
178.985
193.603
207.975
221.827
235.125
247.667
259.452
270.369
280.442
289.586
297.893
305.261
311.836
317.557
322.576
326.839
330.456
333.445
335.818
337.733
339.008
339.956
340.314
340.205
339.833
338.978
337.821
336.099
334.367
332.041
329.84
327.076
324.583
321.561
318.943
315.796
313.158
309.917
307.293
303.895
301.284
297.65
295.058
291.163
288.638
284.521
282.187
277.968
275.938
271.21
15.91
16.8585
18.5495
21.9353
28.4224
39.5109
55.4967
75.0535
95.492
114.331
129.264
140.082
146.491
150.08
150.725
150.314
149.263
147.69
146.226
145.098
144.491
144.651
145.275
146.665
148.981
152.166
156.184
161.167
167.019
173.906
181.732
190.601
200.521
211.45
223.516
236.524
250.637
265.652
281.548
298.259
315.496
333.34
351.306
369.53
387.498
405.375
422.673
439.617
455.828
471.454
486.408
500.574
514.182
526.92
539.007
550.302
560.673
570.269
578.826
586.449
593.018
598.56
603.168
606.793
609.591
611.613
612.808
613.509
613.363
612.885
611.878
610.335
608.31
605.709
602.888
599.451
595.808
591.643
587.508
582.833
578.336
573.387
568.762
563.768
559.194
554.266
549.811
544.889
540.553
535.467
531.278
525.91
521.908
516.349
512.606
507.077
503.771
498.352
495.83
490.178
68.0421
90.4312
126.252
184.926
272.097
385.267
511.737
636.005
744.95
831.71
892.576
932.343
952.982
963.05
964.449
963.308
960.598
957.429
956.544
957.428
960.201
966.02
974.803
986.157
1000.05
1016.28
1034.73
1055.19
1077.4
1101.18
1126.21
1152.18
1178.87
1205.87
1233.03
1259.76
1286.12
1311.49
1335.91
1359.04
1380.76
1401.08
1419.75
1437.08
1452.72
1467
1479.66
1491.1
1501.05
1509.79
1517.29
1523.35
1528.52
1531.98
1534.59
1535.66
1535.29
1534.16
1531.59
1527.78
1522.45
1516.35
1509.13
1501.15
1492.45
1483.07
1473.22
1462.98
1452.38
1441.4
1430.18
1418.6
1406.95
1394.82
1382.75
1370.26
1357.94
1345.21
1332.9
1320.35
1308.36
1296.24
1284.8
1273.28
1262.49
1251.55
1241.35
1230.72
1221.09
1210.42
1201.57
1190.64
1182.79
1171.92
1164.99
1154.91
1148.93
1139.66
1135.3
1125.87
1464.7
1897.22
2399.03
2961.83
3563.16
4171.71
4745.94
5250.85
5654.37
5949.95
6131.43
6218.22
6205.65
6158.88
6060.27
5927.14
5776.93
5618.43
5458.16
5300.49
5148.26
5003.26
4866.6
4738.75
4619.91
4509.92
4408.63
4315.64
4230.64
4153.2
4082.87
4019.32
3962.14
3910.85
3865.2
3824.64
3789
3757.71
3730.54
3707.06
3686.84
3669.73
3655.1
3642.97
3632.68
3624.37
3617.39
3611.94
3607.45
3604.01
3601.45
3599.36
3598.18
3597.21
3596.9
3597.02
3597.37
3598.23
3599.14
3600.65
3601.96
3603.4
3604.7
3605.65
3606.51
3606.57
3606.37
3605.77
3604.52
3602.73
3600.45
3597.46
3594.18
3589.99
3585.48
3579.89
3573.93
3566.64
3559.02
3549.96
3540.66
3529.88
3519.14
3507.04
3495.5
3482.66
3471.03
3457.67
3446.44
3432.29
3421.77
3406.51
3396.6
3380.37
3370.62
3353.59
3344.12
3325.87
3316.49
3292.55
1112.31
1068.2
1126.03
1214
1242.75
1124.65
820.973
1985.56
54671.9
16167.2
7377.17
6124.87
6251.26
6501.66
6571.82
8047.34
74311.4
43713.5
24895.5
18509.1
16136.4
15032
14657.6
19708
76410.4
71067
54318.2
41259.3
32739.8
27200.2
24581.1
34112.2
69713.7
75716
67780.4
55689.3
44601.7
35869.7
30885.6
42734.1
57727.9
71170.8
67951.1
59056.2
48393.4
38749
32796.7
45243.2
47460.2
61811.9
62481.3
56611.1
47167.4
38178.9
32454.4
44246.6
39060
51792.5
53561.7
49816.6
42378.4
34664.2
29583.1
39750.9
32603
42962
44893.5
42107.9
36281.8
30027.7
25810.6
34028.8
27587.9
35600.1
37232.9
35092
30524.3
25543.8
22215.9
29373.5
23473.7
29565.8
30803.2
29103
25516.4
21622.9
19152.4
26014.1
20095.7
24679.6
25557.6
24169.1
21328.9
18290.7
16490.7
22977.4
17360.3
20769.3
21355.9
20198.5
17930.4
15549.9
14261.6
20358.1
15129.7
17647.4
18012.6
17033.3
15206.5
13327.7
12425.1
18152.6
13281
15139.5
15345.9
14510.6
13025.9
11532.9
10922.9
16322.9
11721.3
13100.2
13198.1
12482.6
11266.6
10073.9
9688.65
14801.2
10398.9
11430.1
11455.2
10839.8
9836.28
8879.15
8667.79
13529.4
9261.1
10044
10025.1
9493.22
8660.75
7891.06
7816.1
12458.1
8279.63
8882.82
8839.33
8378
7684.36
7065.64
7097.85
11547.2
7436.96
7905.36
7847.34
7446.55
6866.02
6369.66
6485.35
10766
6710.52
7077.43
7011.36
6662.33
6174.35
5777.49
5959.91
10089.5
6084.47
6372.8
6302.54
5997.5
5585.51
5269.92
5505.93
9498.65
5542.48
5769.62
5697.82
5430.32
5081.2
4832.41
5111.63
8980.32
5069.03
5249.14
5177.98
4942.93
4646.45
4453.13
4767.57
8524.05
4653.25
4797.08
4728.06
4521.21
4269.18
4122.39
4465.79
8120.57
4286.47
4402.15
4336.26
4154.07
3939.87
3832.38
4199.78
7762.26
3961.41
4055.14
3993.03
3832.52
3650.75
3576.72
3964.14
7442.69
3672.54
3748.89
3690.84
3549.44
3395.63
3350.25
3754.46
7156.52
3414.68
3477.26
3423.43
3298.94
3169.38
3148.68
3567.1
6899.37
3183.82
3235.38
3185.75
3076.25
2967.84
2968.56
3398.97
6667.43
2976.32
3019.08
2973.59
2877.46
2787.62
2806.62
3247.73
6457.55
2789.14
2824.86
2783.4
2699.25
2625.74
2660.69
3111.08
6267.06
2619.74
2649.85
2612.27
2538.87
2479.8
2528.77
2987.21
6093.75
2465.9
2491.54
2457.71
2394.02
2347.76
2409.16
2874.58
5935.61
2325.8
2347.91
2317.65
2262.74
2227.92
2300.37
2771.9
5791
2197.87
2217.18
2190.33
2143.37
2118.81
2201.15
2678.07
5658.5
2080.77
2097.87
2074.26
2034.51
2019.19
2110.39
2592.1
5536.85
1973.31
1988.68
1968.14
1934.95
1927.96
2027.17
2513.15
5424.92
1874.47
1888.51
1870.88
1843.68
1844.23
1950.65
2440.48
5321.74
1783.34
1796.39
1781.5
1759.79
1767.09
1880.19
2373.47
5226.45
1699.15
1711.46
1699.17
1682.5
1695.92
1815.13
2311.57
5138.3
1621.19
1632.99
1623.17
1611.11
1630.12
1754.92
2254.26
5056.63
1548.86
1560.34
1552.84
1545.05
1569.18
1699.1
2201.13
4980.87
1481.63
1492.94
1487.64
1483.78
1512.63
1647.25
2151.79
4910.47
1419.03
1430.29
1427.08
1426.86
1460.04
1599
2105.9
4845
1360.62
1371.94
1370.72
1373.85
1411.1
1554.04
2063.18
4784.03
1306.04
1317.52
1318.18
1324.41
1365.44
1512.09
2023.36
4727.23
1254.95
1266.64
1269.1
1278.24
1322.78
1472.88
1986.2
4674.26
1207.05
1219.01
1223.19
1235.06
1282.87
1436.18
1951.5
4624.87
1162.06
1174.35
1180.16
1194.59
1245.45
1401.78
1919.02
4578.73
1119.74
1132.4
1139.78
1156.61
1210.32
1369.48
1888.62
4535.69
1079.84
1092.92
1101.79
1120.88
1177.27
1339.1
1860.1
4495.38
1042.2
1055.72
1066.03
1087.25
1146.15
1310.51
1833.35
4457.75
1006.58
1020.57
1032.26
1055.5
1116.77
1283.52
1808.16
4422.32
972.876
987.368
1000.38
1025.54
1089.04
1258.07
1784.5
4389.2
940.864
955.877
970.175
997.139
1062.77
1233.97
1762.16
4357.88
910.5
926.058
941.599
970.291
1037.93
1211.21
1741.16
4328.58
881.565
897.683
914.424
944.764
1014.32
1189.58
1721.25
4300.71
854.071
870.773
888.686
920.608
991.991
1169.16
1702.54
4274.69
827.792
845.084
864.129
897.563
970.689
1149.7
1684.78
4249.82
802.796
820.7
840.857
875.748
950.547
1131.32
1668.11
4226.72
778.835
797.347
818.575
854.859
931.256
1113.74
1652.23
4204.59
756.026
775.162
797.444
835.078
913.016
1097.16
1637.36
4184.19
734.091
753.839
777.128
816.047
895.459
1081.22
1623.14
4164.53
713.188
733.56
757.843
798.015
878.858
1066.19
1609.84
4146.6
693.01
713.979
739.208
780.57
862.773
1051.63
1597.03
4129.1
673.755
695.331
721.497
764.026
847.559
1037.92
1585.08
4113.32
655.085
677.233
704.279
747.907
832.7
1024.52
1573.44
4097.61
637.245
659.974
687.896
732.613
818.652
1011.92
1562.63
4083.57
619.86
643.125
671.862
717.592
804.802
999.455
1551.93
4069.2
603.236
627.045
656.6
703.346
791.729
987.777
1542.06
4056.51
586.954
611.255
641.557
689.237
778.706
976.072
1532.1
4043.06
571.393
596.198
627.258
675.883
766.458
965.169
1523
4031.36
556.075
581.325
613.067
662.547
754.125
954.076
1513.58
4018.41
541.481
567.19
599.631
649.992
742.611
943.852
1505.12
4007.42
527.044
553.153
586.211
637.349
730.885
933.273
1496.1
3994.66
513.379
539.907
573.613
625.569
720.082
923.7
1488.23
3984.22
499.792
526.674
560.937
613.597
708.939
913.597
1479.55
3971.48
487.068
514.335
549.197
602.621
698.885
904.718
1472.32
3961.63
474.327
501.906
537.265
591.32
688.328
895.097
1463.95
3948.9
462.568
490.501
526.416
581.19
679.078
886.993
1457.49
3939.92
450.644
478.847
515.202
570.537
669.09
877.852
1449.48
3927.38
439.832
468.358
505.231
561.249
660.664
870.585
1443.93
3919.57
428.636
457.383
494.638
551.153
651.169
861.875
1436.28
3907.41
418.691
447.728
485.464
542.635
643.508
855.422
1431.67
3900.81
408.078
437.285
475.341
532.949
634.374
847.045
1424.36
3889.21
398.884
428.342
466.837
525.067
627.343
841.267
1420.55
3883.49
388.704
418.276
457.033
515.643
618.428
833.098
1413.49
3872.28
380.163
409.94
449.084
508.266
611.865
827.774
1410.08
3866.86
370.306
400.147
439.496
499.006
603.072
819.713
1403.23
3855.82
362.389
392.386
432.062
492.073
596.88
814.681
1399.95
3850.3
352.801
382.822
422.657
482.946
588.168
806.648
1393.11
3838.93
345.562
375.694
415.789
476.498
582.358
801.858
1389.8
3832.92
336.226
366.356
406.577
467.52
573.737
793.824
1382.81
3821.2
329.778
359.979
400.398
461.67
568.398
789.323
1379.49
3814.59
320.654
350.843
391.368
452.848
559.896
781.346
1372.45
3803.27
315.115
345.339
386
447.716
555.141
777.226
1369.22
3796.74
306.099
336.309
377.076
439.002
546.76
769.405
1362.4
3786.32
301.514
331.717
372.544
434.593
542.563
765.601
1359.3
3781.34
290.669
320.802
361.695
423.932
532.249
755.978
1350.97
3770.85
)
;

boundaryField
{
    frontAndBack
    {
        type            empty;
    }
    inlet
    {
        type            fixedValue;
        value           uniform 14.855;
    }
    outlet
    {
        type            zeroGradient;
    }
    walls
    {
        lowReCorrection 0;
        blending        stepwise;
        n               2;
        type            epsilonWallFunction;
        value           nonuniform List<scalar> 
228
(
112.724
141.424
210.097
257.591
369.051
443.457
614.739
724.907
971.318
1128.62
1112.31
1068.2
1126.03
1214
1242.75
1124.65
820.973
1985.56
1985.56
8047.34
19708
34112.2
42734.1
45243.2
44246.6
39750.9
34028.8
29373.5
26014.1
22977.4
20358.1
18152.6
16322.9
14801.2
13529.4
12458.1
11547.2
10766
10089.5
9498.65
8980.32
8524.05
8120.57
7762.26
7442.69
7156.52
6899.37
6667.43
6457.55
6267.06
6093.75
5935.61
5791
5658.5
5536.85
5424.92
5321.74
5226.45
5138.3
5056.63
4980.87
4910.47
4845
4784.03
4727.23
4674.26
4624.87
4578.73
4535.69
4495.38
4457.75
4422.32
4389.2
4357.88
4328.58
4300.71
4274.69
4249.82
4226.72
4204.59
4184.19
4164.53
4146.6
4129.1
4113.32
4097.61
4083.57
4069.2
4056.51
4043.06
4031.36
4018.41
4007.42
3994.66
3984.22
3971.48
3961.63
3948.9
3939.92
3927.38
3919.57
3907.41
3900.81
3889.21
3883.49
3872.28
3866.86
3855.82
3850.3
3838.93
3832.92
3821.2
3814.59
3803.27
3796.74
3786.32
3781.34
3770.85
105.951
146.558
198.393
265.741
350.054
456.037
585.707
743.674
931.867
1154.05
1464.7
1897.22
2399.03
2961.83
3563.16
4171.71
4745.94
5250.85
5654.37
5949.95
6131.43
6218.22
6205.65
6158.88
6060.27
5927.14
5776.93
5618.43
5458.16
5300.49
5148.26
5003.26
4866.6
4738.75
4619.91
4509.92
4408.63
4315.64
4230.64
4153.2
4082.87
4019.32
3962.14
3910.85
3865.2
3824.64
3789
3757.71
3730.54
3707.06
3686.84
3669.73
3655.1
3642.97
3632.68
3624.37
3617.39
3611.94
3607.45
3604.01
3601.45
3599.36
3598.18
3597.21
3596.9
3597.02
3597.37
3598.23
3599.14
3600.65
3601.96
3603.4
3604.7
3605.65
3606.51
3606.57
3606.37
3605.77
3604.52
3602.73
3600.45
3597.46
3594.18
3589.99
3585.48
3579.89
3573.93
3566.64
3559.02
3549.96
3540.66
3529.88
3519.14
3507.04
3495.5
3482.66
3471.03
3457.67
3446.44
3432.29
3421.77
3406.51
3396.6
3380.37
3370.62
3353.59
3344.12
3325.87
3316.49
3292.55
)
;
    }
}


// ************************************************************************* //
