/*--------------------------------*- C++ -*----------------------------------*\
| =========                 |                                                 |
| \\      /  F ield         | OpenFOAM: The Open Source CFD Toolbox           |
|  \\    /   O peration     | Version:  v2012                                 |
|   \\  /    A nd           | Website:  www.openfoam.com                      |
|    \\/     M anipulation  |                                                 |
\*---------------------------------------------------------------------------*/
FoamFile
{
    version     2.0;
    format      ascii;
    class       volScalarField;
    location    "0.059";
    object      omega.air;
}
// * * * * * * * * * * * * * * * * * * * * * * * * * * * * * * * * * * * * * //

dimensions      [0 0 -1 0 0 0 0];


internalField   nonuniform List<scalar> 
1900
(
2499.97
2684.38
3045.55
3254.35
3662.2
3891.94
4339.69
4585.3
5062.83
5317.79
2750.4
2642.89
2561.79
2470.13
2405.67
2330.5
2282.39
2226.37
2195.28
2175.94
2745.4
2646.92
2552.36
2467.66
2384.83
2311.45
2238.16
2174.28
2108.88
2053.22
2745.94
2645.86
2552.72
2466.07
2385.02
2309.28
2238.13
2171.36
2108.42
2049.14
2745.97
2645.75
2552.66
2465.88
2384.89
2309.02
2237.93
2171.05
2108.16
2048.78
2745.98
2645.73
2552.68
2465.86
2384.91
2309
2237.95
2171.03
2108.19
2048.77
2746.12
2645.66
2552.92
2465.85
2385.24
2309.05
2238.37
2171.13
2108.69
2048.92
2746.92
2645.13
2554.2
2465.56
2387.01
2309.03
2240.72
2171.51
2111.83
2050.02
2748.64
2644.66
2559.97
2471.76
2404.25
2331.59
2281.91
2225.88
2195.84
2168.04
2461.67
2707.15
2994.86
3282.53
3601.28
3924.49
4270.66
4621.55
4988.27
5356.99
9252.73
12426.7
12413.5
11859.2
10683.3
9525.91
8528.17
7660.5
6918.5
6314.36
5832.73
5463.63
5176.63
4945.37
4744.39
4560.38
4385.29
4213.76
4045.98
3881.03
3723.48
3575.76
3437.04
3307.21
3185.36
3070.64
2962.82
2861.35
2766.18
2676.54
2592.67
2513.83
2439.55
2369.69
2303.95
2241.92
2183.41
2128.01
2075.6
2025.84
1978.65
1933.76
1891.04
1850.27
1811.38
1774.2
1738.68
1704.68
1672.18
1641.01
1611.18
1582.55
1555.11
1528.73
1503.44
1479.08
1455.7
1433.13
1411.43
1390.43
1370.22
1350.6
1331.72
1313.32
1295.63
1278.3
1261.67
1245.29
1229.61
1214.06
1199.28
1184.51
1170.59
1156.53
1143.4
1129.95
1117.57
1104.66
1092.95
1080.48
1069.36
1057.17
1046.52
1034.41
1024.21
1012.2
1002.66
990.744
981.782
969.648
961.084
948.467
940.137
926.815
918.693
904.701
896.902
882.335
874.797
856.223
2280.82
2619.7
3299.44
4104.37
4311.93
4216.26
3961.33
3615.08
3307.89
3070.97
2891.55
2780.38
2701.02
2684.67
2696.73
2728.12
2784.63
2844.08
2901.85
2943.44
2974.32
2974.81
2966.04
2942.72
2898.46
2842.52
2778.82
2709.46
2638.34
2566.07
2496.89
2429.93
2365.53
2304.29
2245.9
2190.11
2136.92
2085.98
2037.42
1990.85
1946.6
1904.29
1863.85
1825.18
1788.27
1752.94
1719.19
1686.84
1655.88
1626.12
1597.6
1570.1
1543.71
1518.26
1493.78
1470.12
1447.33
1425.26
1403.99
1383.34
1363.42
1344.01
1325.29
1306.97
1289.29
1271.9
1255.15
1238.56
1222.64
1206.75
1191.58
1176.33
1161.88
1147.17
1133.37
1119.11
1105.9
1092.04
1079.4
1065.87
1053.77
1040.45
1028.79
1015.51
1004.34
991.194
980.763
967.775
958.071
944.96
935.788
922.275
913.473
899.301
890.725
875.859
867.581
852.131
844.103
824.267
1983.14
1921.38
1857.94
1815.81
1793.93
1782.46
1759.48
1721.51
1673.61
1623.47
1574.15
1530.5
1492.77
1462.81
1441.31
1430.54
1433.91
1446.22
1473.3
1515.94
1572.02
1637.15
1705.89
1780.1
1856.38
1927.22
1992.52
2045
2088.19
2114.57
2132.28
2132.01
2126.39
2112.44
2088.41
2058.67
2025.13
1988.82
1951.41
1913.31
1876.31
1840.43
1805.69
1772.17
1739.98
1708.9
1678.93
1649.89
1621.84
1594.59
1568.33
1542.82
1518.42
1494.64
1471.63
1449.24
1427.59
1406.53
1386.18
1366.33
1347.11
1328.3
1310.06
1292.13
1274.76
1257.61
1241.02
1224.49
1208.52
1192.49
1177.09
1161.53
1146.7
1131.55
1117.22
1102.39
1088.54
1074
1060.58
1046.26
1033.3
1019.16
1006.57
992.394
980.243
966.273
954.941
941.3
930.896
917.37
907.675
893.91
884.792
870.53
861.81
846.933
838.634
823.295
815.369
795.853
1981.93
1909.73
1842.84
1781.25
1724.38
1671.71
1621.98
1574.32
1528.06
1482.96
1438.97
1396.22
1354.99
1315.23
1277.52
1241.31
1207.71
1175.57
1146.71
1119.46
1096.83
1076.62
1063.19
1053.36
1054.56
1060.69
1075.01
1099.52
1133.9
1174.58
1222.12
1271.87
1323.94
1376.79
1427.5
1474.29
1515.46
1550.55
1577.94
1598.69
1610.87
1617.53
1616.71
1613.09
1605.21
1592.75
1577.29
1559.43
1539.93
1519.18
1497.98
1476.56
1455.57
1435.25
1415.54
1396.3
1377.66
1359.32
1341.41
1323.67
1306.29
1288.99
1272.02
1255.17
1238.7
1222.41
1206.3
1190
1174.05
1157.96
1142.42
1126.71
1111.76
1096.51
1081.99
1067.11
1053.1
1038.61
1025.12
1010.94
997.919
983.999
971.288
957.362
945.067
931.523
920.137
907.261
896.932
884.49
874.978
862.581
853.729
841.051
832.84
819.759
812.331
798.963
792.246
775.971
1981.61
1909.21
1842.2
1780.03
1722.2
1668.3
1617.82
1570.04
1524.13
1479.61
1436.1
1393.88
1352.79
1313.36
1275.27
1239.08
1204.25
1171.37
1139.71
1109.97
1081.25
1054.41
1028.38
1004.23
980.676
959.146
938.102
919.319
901.19
885.915
871.777
861.521
853.224
850.195
851.762
856.724
867.014
883.239
903.632
928.738
956.634
987.293
1018.85
1051.03
1082.35
1112.72
1140.98
1166.75
1189.07
1207.97
1222.4
1233.1
1238.98
1242.06
1241.58
1239.64
1235.41
1228.82
1220.61
1210.79
1199.78
1187.43
1174.2
1159.72
1144.73
1128.93
1113.87
1099.41
1085.76
1072.5
1059.98
1047.7
1036.14
1024.68
1013.91
1003.03
992.822
982.25
972.217
961.694
951.87
941.535
931.868
921.57
912.325
902.657
894.273
885.311
877.564
868.879
861.377
852.631
845.245
836.427
829.548
820.688
814.881
806.298
802.391
793.706
1981.65
1909.14
1842.01
1779.54
1721.64
1667.84
1617.73
1570.42
1525.46
1482.1
1440.43
1400.3
1361.88
1325.06
1289.96
1256.44
1224.55
1194.15
1165.27
1137.78
1111.72
1086.94
1063.49
1041.24
1020.21
1000.34
981.581
963.936
947.348
931.835
917.288
903.797
891.213
879.631
868.876
859.045
849.97
841.898
834.55
828.144
822.457
817.655
813.662
810.566
808.427
807.285
807.557
808.583
810.811
814.553
819.587
826.005
833.651
842.476
852.401
863.164
874.859
886.946
899.544
911.977
924.426
936.139
947.298
957.087
965.815
972.89
979.192
984.634
989.387
993.147
996.237
998.129
999.378
999.238
998.587
997.097
994.887
992.014
988.806
985.241
981.802
978.305
975.025
972.141
970.294
969.114
968.374
967.42
966.115
964.117
961.509
958.083
954.172
950.046
946.204
942.396
939.172
937.316
937.119
938.594
1982.3
1909.21
1842.61
1779.52
1722.32
1669.02
1621.38
1579.11
1541.82
1509.45
1481.7
1457.58
1436.32
1417.14
1399.36
1382.88
1367.07
1352.43
1338.21
1325.52
1313.26
1302.95
1293.19
1285.75
1278.94
1274.8
1271.27
1270.77
1271.57
1273.72
1278.15
1284.43
1292.64
1302.57
1314.38
1327.75
1342.85
1359.2
1377.04
1395.77
1415.59
1435.97
1456.94
1478.11
1499.34
1520.39
1540.93
1560.87
1579.75
1597.64
1613.91
1628.97
1641.83
1653.45
1662.33
1670.15
1674.84
1678.71
1679.23
1678.43
1676.26
1671.95
1665.86
1658.54
1649.69
1639.91
1628.88
1617.14
1604.37
1591.16
1577
1562.34
1546.8
1530.62
1513.49
1496.23
1478.71
1461.34
1444.24
1428.34
1413.85
1401.01
1389.87
1381.51
1376.79
1375.05
1374.54
1373.93
1372.85
1370.56
1367.09
1361.86
1355.69
1349.15
1343.29
1337.67
1332.63
1329.61
1329.13
1330.74
1987.44
1911.77
1852.6
1790.81
1752.81
1718.4
1719.86
1732.67
1763.04
1813.74
1874.42
1937.16
1998.03
2051.42
2098.16
2135.08
2165.17
2187.44
2204.85
2217.06
2227.52
2237.32
2247.12
2257.9
2269.73
2283.19
2298.07
2314.49
2332.2
2351.19
2371.02
2391.53
2412.34
2433.22
2453.81
2473.88
2493.17
2511.46
2528.55
2544.36
2558.7
2571.53
2582.71
2592.3
2600.11
2606.4
2610.75
2613.77
2614.65
2614.08
2612.41
2608.96
2603.88
2597.34
2589.31
2579.89
2569.07
2556.95
2543.54
2529.02
2513.35
2496.82
2479.47
2461.66
2443.38
2424.92
2406.39
2388.06
2370
2352.42
2335.39
2318.85
2302.58
2286.39
2270.35
2254.49
2238.78
2223.19
2208.07
2193.65
2180
2167.36
2156.32
2148.46
2145.43
2145.51
2145.54
2144.67
2141.93
2135.25
2125.78
2111.7
2097.49
2081.33
2067.96
2053.43
2042.51
2030.65
2025.17
2016.87
2170.79
2194.11
2252.92
2373.3
2560.99
2806.69
3092.47
3392.7
3681.74
3938.22
4147.31
4305.45
4411.24
4474.38
4504.57
4501.31
4487.29
4457.32
4417.93
4374.9
4337.46
4309.46
4289.99
4278.39
4272.68
4273.36
4276.14
4282.11
4290.24
4299.33
4308.63
4317.62
4325.63
4332.55
4337.92
4341.63
4343.58
4343.21
4341.69
4338.35
4332.94
4325.86
4317.17
4307.03
4295.58
4283.01
4269.37
4254.87
4239.66
4223.86
4207.63
4191.06
4174.21
4157.1
4139.79
4122.27
4104.53
4086.53
4068.22
4049.5
4030.42
4011.04
3991.59
3972.32
3953.4
3934.88
3916.91
3899.56
3883.05
3867.62
3853.42
3840.06
3826.71
3812.77
3798.15
3783.07
3767.7
3752.38
3737.84
3724.09
3710.79
3699.95
3695.53
3696.04
3700.12
3713.8
3727.61
3729.63
3726.19
3713.18
3688.15
3657.16
3626.25
3592
3562.48
3532.5
3509.72
3484.99
3472.64
3449.74
5807.36
6333.91
6859.09
7365.09
7847.43
8285.4
8672.16
8990.44
9241.32
9415.98
9526.81
9572.09
9561.41
9526.83
9455
9359.3
9249.96
9132.95
9012.68
8893.19
8775.7
8663.51
8557.17
8457.29
8363.83
8276.93
8196.33
8121.91
8053.32
7990.36
7932.62
7879.87
7831.81
7788.06
7748.34
7712.33
7679.75
7650.32
7623.81
7599.95
7578.53
7559.33
7542.18
7526.87
7513.23
7501.07
7490.27
7480.66
7472.11
7464.49
7457.7
7451.64
7446.26
7441.49
7437.31
7433.69
7430.65
7428.17
7426.4
7425.14
7424.74
7424.81
7425.09
7425.72
7426.4
7427.03
7427.51
7427.7
7427.64
7427.11
7425.55
7423.84
7422.76
7422.5
7422.65
7423.32
7425.1
7426.96
7428.09
7428.23
7427.73
7425.76
7420.93
7410.09
7390.07
7363.1
7334.17
7310.2
7295.15
7289.5
7289.36
7292.58
7302.51
7312.43
7320.16
7323.97
7325.23
7324.54
7322.7
7312.15
1778.38
1682.01
1701.97
1756.4
1791.65
1755.49
1540.58
6070.65
12045.8
6374.66
3905.49
3607.77
4030.92
4750.01
6299.54
9864.87
12662.3
8944.03
6065.74
4844.88
4629.99
5115.23
6842.37
13131.4
12088
9953.62
7551.12
5993.17
5412.29
5539.17
7042.15
15683.5
11034.9
9984.6
8387.81
6926.6
6085.67
5942.99
7159.18
17048.2
10139.4
9753.14
8728.14
7429.96
6487.72
6200.46
7299.26
17613.5
9311.82
9225.16
8657.11
7570.64
6639.01
6284.28
7311.88
17742.6
8579.35
8657.63
8347.29
7480.94
6601.56
6245.49
7228.3
17554.4
7916.29
8105.18
7892.68
7203.23
6412.79
6073.37
7008.57
16914.4
7327.01
7573.32
7414.01
6822.21
6123.13
5836.96
6750.01
16146.2
6812.69
7075.64
6939.4
6414.73
5803.51
5574.25
6470.71
15325.4
6362.47
6610.84
6484.61
6014.16
5481.33
5308.68
6203.47
14642.7
5969.21
6181.88
6055.52
5630.53
5172.6
5060.45
5977.08
14178.6
5619.25
5788.22
5657.4
5272.87
4883.57
4827.1
5764.07
13733.4
5304.9
5427.95
5290.24
4943.61
4617.76
4612.96
5568.05
13321.9
5018.11
5099.83
4956.99
4644.15
4375.17
4412.18
5390.19
12946.3
4754.03
4802.62
4657.68
4374.9
4153.93
4226.48
5221.84
12591.3
4509.63
4532.92
4388.22
4134.8
3953.16
4054.46
5057.3
12256.5
4283.73
4287.95
4146.57
3920.22
3771.83
3897.51
4906.27
11956.3
4074.18
4066.03
3929.04
3727.82
3608.27
3755.26
4769.47
11686.9
3880.93
3864.3
3733.01
3554.96
3460.81
3626.62
4645.75
11444.8
3703.15
3680.63
3556.03
3398.87
3327.44
3510.18
4533.9
11227.9
3539.61
3512.96
3395.74
3257.37
3206.25
3404.36
4432.58
11033.6
3388.53
3359.12
3250.01
3128.79
3095.92
3308.01
4340.65
10859
3249.53
3218.07
3116.95
3011.32
2994.89
3219.89
4257.04
10701.8
3120.56
3088.14
2995.25
2903.85
2902.44
3139.06
4180.69
10559.7
3001.56
2968.38
2883.34
2805.22
2816.85
3065.04
4110.96
10431.2
2891.42
2857.77
2780.07
2714.18
2737.58
2996.83
4047.13
10314.7
2789.46
2755.63
2684.64
2629.87
2664.08
2933.7
3988.54
10208.8
2694.64
2661.02
2596.33
2551.62
2595.78
2875.08
3934.6
10112.2
2606.46
2573.3
2514.58
2478.93
2532.23
2820.52
3884.79
10023.9
2524.13
2491.76
2438.69
2411.3
2473
2769.66
3838.74
9942.87
2447.15
2415.88
2368.12
2348.28
2417.73
2722.19
3796.1
9868.45
2374.92
2345.02
2302.34
2289.48
2366.1
2677.82
3756.58
9800.02
2307.05
2278.67
2240.87
2234.48
2317.81
2636.34
3719.97
9737.1
2243.15
2216.39
2183.26
2183.02
2272.54
2597.51
3686.07
9679.27
2182.97
2157.86
2129.21
2134.54
2230.17
2561.18
3654.69
9626.15
2126.21
2102.72
2078.35
2088.87
2190.38
2527.15
3625.67
9577.39
2072.67
2050.76
2030.43
2045.82
2152.92
2495.24
3598.84
9532.61
2022.02
2001.71
1985.19
2005.19
2117.62
2465.29
3574.05
9491.55
1974.11
1955.39
1942.46
1966.82
2084.31
2437.15
3551.15
9453.82
1928.71
1911.57
1902.03
1930.52
2052.83
2410.7
3530.03
9419.3
1885.67
1870.11
1863.78
1896.18
2023.07
2385.8
3510.53
9387.64
1844.76
1830.79
1827.51
1863.64
1994.91
2362.37
3492.57
9358.72
1805.86
1793.5
1793.15
1832.8
1968.24
2340.31
3476.03
9332.19
1768.78
1758.05
1760.46
1803.56
1942.99
2319.54
3460.84
9308.01
1733.47
1724.35
1729.36
1775.81
1919.05
2299.97
3446.88
9285.85
1699.73
1692.23
1699.75
1749.44
1896.36
2281.54
3434.12
9265.72
1667.54
1661.64
1671.56
1724.36
1874.82
2264.17
3422.44
9247.33
1636.74
1632.42
1644.67
1700.47
1854.37
2247.82
3411.81
9230.69
1607.33
1604.55
1619.04
1677.73
1834.95
2232.4
3402.12
9215.51
1579.16
1577.88
1594.55
1656.03
1816.47
2217.88
3393.35
9201.84
1552.23
1552.41
1571.17
1635.33
1798.9
2204.18
3385.41
9189.4
1526.4
1527.99
1548.82
1615.56
1782.17
2191.28
3378.29
9178.21
1501.69
1504.62
1527.46
1596.7
1766.25
2179.12
3371.91
9168.03
1477.94
1482.2
1506.99
1578.64
1751.08
2167.66
3366.24
9158.89
1455.19
1460.73
1487.42
1561.4
1736.63
2156.88
3361.24
9150.61
1433.29
1440.09
1468.62
1544.88
1722.85
2146.73
3356.85
9143.2
1412.29
1420.32
1450.62
1529.08
1709.71
2137.15
3353.02
9136.53
1392.01
1401.27
1433.3
1513.9
1697.14
2128.11
3349.72
9130.62
1372.55
1383.01
1416.71
1499.36
1685.15
2119.57
3346.88
9125.44
1353.69
1365.34
1400.68
1485.36
1673.64
2111.5
3344.47
9120.95
1335.57
1348.39
1385.31
1471.94
1662.64
2103.86
3342.45
9117.22
1317.96
1331.94
1370.41
1458.96
1652.05
2096.6
3340.78
9114.17
1301.05
1316.15
1356.13
1446.53
1641.94
2089.77
3339.53
9111.93
1284.54
1300.77
1342.23
1434.47
1632.18
2083.27
3338.53
9110.28
1268.71
1286.03
1328.93
1422.94
1622.9
2077.18
3337.93
9109.53
1253.17
1271.6
1315.95
1411.74
1613.95
2071.48
3337.91
9109.52
1238.32
1257.83
1303.57
1401.09
1605.51
2066.23
3338.1
9109.85
1223.66
1244.28
1291.45
1390.73
1597.4
2061.34
3338.64
9110.72
1209.75
1231.44
1279.99
1380.98
1589.85
2056.99
3339.81
9112.43
1195.92
1218.75
1268.75
1371.51
1582.63
2053.03
3341.39
9114.31
1182.92
1206.84
1258.21
1362.67
1575.99
2049.58
3343.36
9116.65
1169.88
1194.98
1247.8
1354.03
1569.59
2046.36
3345.48
9119.07
1157.74
1183.94
1238.13
1346.01
1563.67
2043.47
3347.68
9121.93
1145.41
1172.82
1228.44
1338.01
1557.79
2040.56
3349.73
9124.87
1134.05
1162.55
1219.46
1330.53
1552.22
2037.72
3351.6
9128.34
1122.31
1151.99
1210.25
1322.86
1546.43
2034.59
3353.06
9132
1111.62
1142.32
1201.71
1315.61
1540.78
2031.27
3353.97
9136.49
1100.32
1132.13
1192.72
1307.94
1534.68
2027.41
3354.17
9141.52
1090.18
1122.85
1184.36
1300.57
1528.53
2023.15
3353.98
9147.89
1079.1
1112.77
1175.27
1292.51
1521.65
2018.07
3352.97
9154.96
1069.31
1103.66
1166.8
1284.67
1514.61
2012.49
3351.08
9163.27
1058.26
1093.47
1157.42
1276.08
1506.99
2006.61
3349.64
9172.01
1048.78
1084.49
1148.86
1267.98
1499.63
2001.03
3349.43
9181.87
1037.77
1074.29
1139.43
1259.4
1492.29
1996.13
3350.07
9191.97
1028.83
1065.76
1131.32
1251.9
1486.01
1992.51
3352.38
9201.88
1017.94
1055.77
1122.34
1244.21
1480.29
1990.25
3357.52
9210.56
1009.54
1047.86
1115.06
1237.95
1475.84
1989.19
3363.67
9218.81
998.52
1037.96
1106.52
1231.19
1471.56
1988.72
3370.28
9226.29
990.525
1030.56
1099.94
1225.83
1468.15
1988.52
3376.44
9233.8
979.089
1020.41
1091.39
1219.31
1464.23
1988.18
3382.18
9241.98
971.355
1013.35
1085.23
1214.37
1461.04
1987.68
3386.85
9250.31
959.299
1002.68
1076.26
1207.47
1456.66
1986.54
3390.86
9261.69
951.835
995.941
1070.41
1202.67
1453.17
1985
3393.42
9271.89
939.154
984.656
1060.76
1194.91
1447.64
1982.21
3395.19
9289.31
932.047
978.272
1055.2
1190.23
1443.89
1979.84
3396.21
9300.91
918.83
966.451
1044.93
1181.69
1437.42
1976.38
3398.25
9323.98
912.016
960.376
1039.69
1177.4
1434.32
1974.77
3400.63
9335.64
895.283
945.513
1026.93
1167.05
1427.06
1972.76
3408.61
9365.3
)
;

boundaryField
{
    frontAndBack
    {
        type            empty;
    }
    inlet
    {
        type            fixedValue;
        value           uniform 2800;
    }
    outlet
    {
        type            zeroGradient;
    }
    walls
    {
        blending        binomial2;
        n               2;
        beta1           0.075;
        type            omegaWallFunction;
        value           nonuniform List<scalar> 
228
(
2499.97
2684.38
3045.55
3254.35
3662.2
3891.94
4339.69
4585.3
5062.83
5317.79
1778.38
1682.01
1701.97
1756.4
1791.65
1755.49
1540.58
6070.65
6070.65
9864.87
13131.4
15683.5
17048.2
17613.5
17742.6
17554.4
16914.4
16146.2
15325.4
14642.7
14178.6
13733.4
13321.9
12946.3
12591.3
12256.5
11956.3
11686.9
11444.8
11227.9
11033.6
10859
10701.8
10559.7
10431.2
10314.7
10208.8
10112.2
10023.9
9942.87
9868.45
9800.02
9737.1
9679.27
9626.15
9577.39
9532.61
9491.55
9453.82
9419.3
9387.64
9358.72
9332.19
9308.01
9285.85
9265.72
9247.33
9230.69
9215.51
9201.84
9189.4
9178.21
9168.03
9158.89
9150.61
9143.2
9136.53
9130.62
9125.44
9120.95
9117.22
9114.17
9111.93
9110.28
9109.53
9109.52
9109.85
9110.72
9112.43
9114.31
9116.65
9119.07
9121.93
9124.87
9128.34
9132
9136.49
9141.52
9147.89
9154.96
9163.27
9172.01
9181.87
9191.97
9201.88
9210.56
9218.81
9226.29
9233.8
9241.98
9250.31
9261.69
9271.89
9289.31
9300.91
9323.98
9335.64
9365.3
2461.67
2707.15
2994.86
3282.53
3601.28
3924.49
4270.66
4621.55
4988.27
5356.99
5807.36
6333.91
6859.09
7365.09
7847.43
8285.4
8672.16
8990.44
9241.32
9415.98
9526.81
9572.09
9561.41
9526.83
9455
9359.3
9249.96
9132.95
9012.68
8893.19
8775.7
8663.51
8557.17
8457.29
8363.83
8276.93
8196.33
8121.91
8053.32
7990.36
7932.62
7879.87
7831.81
7788.06
7748.34
7712.33
7679.75
7650.32
7623.81
7599.95
7578.53
7559.33
7542.18
7526.87
7513.23
7501.07
7490.27
7480.66
7472.11
7464.49
7457.7
7451.64
7446.26
7441.49
7437.31
7433.69
7430.65
7428.17
7426.4
7425.14
7424.74
7424.81
7425.09
7425.72
7426.4
7427.03
7427.51
7427.7
7427.64
7427.11
7425.55
7423.84
7422.76
7422.5
7422.65
7423.32
7425.1
7426.96
7428.09
7428.23
7427.73
7425.76
7420.93
7410.09
7390.07
7363.1
7334.17
7310.2
7295.15
7289.5
7289.36
7292.58
7302.51
7312.43
7320.16
7323.97
7325.23
7324.54
7322.7
7312.15
)
;
    }
}


// ************************************************************************* //
