/*--------------------------------*- C++ -*----------------------------------*\
| =========                 |                                                 |
| \\      /  F ield         | OpenFOAM: The Open Source CFD Toolbox           |
|  \\    /   O peration     | Version:  v2012                                 |
|   \\  /    A nd           | Website:  www.openfoam.com                      |
|    \\/     M anipulation  |                                                 |
\*---------------------------------------------------------------------------*/
FoamFile
{
    version     2.0;
    format      ascii;
    class       surfaceScalarField;
    location    "0.059";
    object      phi.air;
}
// * * * * * * * * * * * * * * * * * * * * * * * * * * * * * * * * * * * * * //

dimensions      [0 3 -1 0 0 0 0];
oriented        oriented;


internalField   nonuniform List<scalar> 
10964
(
0.00133692
2.84343e-05
0.00129797
3.81542e-05
0.00125294
4.42356e-05
0.00120451
4.76326e-05
0.00115603
4.76779e-05
0.00111003
4.5195e-05
0.00106818
4.10352e-05
0.00103163
3.5748e-05
0.00100019
3.06203e-05
0.000973636
2.57433e-05
0.000951932
2.08885e-05
0.000934824
1.62904e-05
0.000921849
1.2157e-05
0.000912407
8.62381e-06
0.000905878
5.71138e-06
0.000901536
3.5235e-06
0.000898759
1.9588e-06
0.000897044
8.97165e-07
0.000896014
2.12042e-07
0.000895391
-1.94393e-07
0.000894994
-4.19937e-07
0.0008947
-5.22663e-07
0.000894464
-5.81201e-07
0.000894286
-6.38474e-07
0.000894181
-7.10546e-07
0.00089415
-7.85447e-07
0.000894198
-8.6317e-07
0.000894286
-9.04282e-07
0.000894423
-9.52622e-07
0.000894591
-9.82636e-07
0.000894757
-9.81272e-07
0.000894899
-9.5719e-07
0.000895
-9.1619e-07
0.000895025
-8.39553e-07
0.000894981
-7.71347e-07
0.000894894
-7.27232e-07
0.000894742
-6.62672e-07
0.000894569
-6.41495e-07
0.000894356
-6.01891e-07
0.000894143
-6.01046e-07
0.000893899
-5.7073e-07
0.000893665
-5.81093e-07
0.000893415
-5.64067e-07
0.000893193
-5.92681e-07
0.000892951
-5.72585e-07
0.000892759
-6.22323e-07
0.000892551
-6.06347e-07
0.000892364
-6.27171e-07
0.000892218
-6.6885e-07
0.000892007
-6.02863e-07
0.000891876
-6.84118e-07
0.0008917
-6.38389e-07
0.000891599
-7.12803e-07
0.00089145
-6.65478e-07
0.000891362
-7.26264e-07
0.000891293
-7.45338e-07
0.000891131
-6.52595e-07
0.000891041
-7.24697e-07
0.000890816
-5.88601e-07
0.000890687
-6.85559e-07
0.000890413
-5.40561e-07
0.000890223
-6.24511e-07
0.00089001
-6.01444e-07
0.000889771
-5.75464e-07
0.000889693
-7.36277e-07
0.000889451
-5.71739e-07
0.000889387
-7.51232e-07
0.000889233
-6.59552e-07
0.000889203
-7.84779e-07
0.000889146
-7.57209e-07
0.000889105
-7.73123e-07
0.000889222
-9.3164e-07
0.000889089
-6.81457e-07
0.000889223
-9.48474e-07
0.00088916
-7.50972e-07
0.000889261
-9.15743e-07
0.000889255
-8.076e-07
0.000889254
-8.13912e-07
0.000889424
-9.83992e-07
0.000889141
-5.31208e-07
0.000889417
-1.09103e-06
0.000889281
-6.77913e-07
0.000889332
-8.65543e-07
0.0008893
-7.81998e-07
0.000889216
-7.31176e-07
0.000889392
-9.8935e-07
0.000889
-4.22531e-07
0.000889278
-1.0927e-06
0.000889152
-6.87905e-07
0.000888945
-6.08344e-07
0.0008892
-1.06906e-06
0.000888506
-1.20277e-07
0.000889169
-1.47776e-06
0.000888424
-6.82031e-08
0.000888749
-1.14165e-06
0.000888015
-7.72502e-08
0.000887642
-4.44786e-07
0.000887756
-9.26025e-07
0.000881321
5.61773e-06
-5.28237e-06
0.00088579
0.00151471
2.62832e-05
0.00151419
3.86745e-05
0.00151229
4.61403e-05
0.00150786
5.2054e-05
0.00150066
5.48862e-05
0.00149085
5.50045e-05
0.00147871
5.31701e-05
0.0014647
4.97587e-05
0.0014494
4.59227e-05
0.00143336
4.17852e-05
0.00141693
3.73121e-05
0.00140047
3.27578e-05
0.0013843
2.83261e-05
0.00136877
2.4153e-05
0.00135415
2.03268e-05
0.00134059
1.70867e-05
0.00132819
1.43579e-05
0.00131701
1.20782e-05
0.00130704
1.01811e-05
0.00129822
8.62496e-06
0.00129047
7.32619e-06
0.00128373
6.2254e-06
0.0012779
5.24625e-06
0.00127294
4.31619e-06
0.00126867
3.56749e-06
0.00126493
2.94958e-06
0.00126166
2.4035e-06
0.00125882
1.94244e-06
0.00125628
1.58777e-06
0.00125392
1.37481e-06
0.00125172
1.21797e-06
0.00124965
1.11465e-06
0.00124772
1.01491e-06
0.00124592
9.62929e-07
0.00124423
9.12397e-07
0.00124267
8.32584e-07
0.00124123
7.78221e-07
0.00123991
6.83783e-07
0.00123868
6.2466e-07
0.00123755
5.31469e-07
0.00123649
4.81856e-07
0.00123552
3.88904e-07
0.00123463
3.33713e-07
0.0012338
2.32134e-07
0.00123304
1.92415e-07
0.00123233
8.24279e-08
0.00123166
6.15727e-08
0.00123102
1.58196e-08
0.00123043
-7.67643e-08
0.00122985
-2.37819e-08
0.00122932
-1.54111e-07
0.00122881
-1.27516e-07
0.00122834
-2.42136e-07
0.00122791
-2.36855e-07
0.00122748
-3.00942e-07
0.00122711
-3.71835e-07
0.00122674
-2.7802e-07
0.00122638
-3.66837e-07
0.001226
-2.06836e-07
0.00122563
-3.22161e-07
0.00122526
-1.64782e-07
0.00122487
-2.3721e-07
0.00122453
-2.63808e-07
0.00122417
-2.10632e-07
0.00122386
-4.25127e-07
0.00122361
-3.23953e-07
0.0012234
-5.46017e-07
0.00122323
-4.83631e-07
0.00122311
-6.64302e-07
0.00122304
-6.94089e-07
0.00122299
-7.18513e-07
0.00122296
-8.98578e-07
0.00122298
-7.01916e-07
0.00122299
-9.56878e-07
0.00122301
-7.73488e-07
0.00122305
-9.57189e-07
0.00122309
-8.44756e-07
0.00122308
-8.11732e-07
0.00122312
-1.01663e-06
0.00122319
-6.06684e-07
0.00122315
-1.05022e-06
0.00122316
-6.88653e-07
0.00122314
-8.42557e-07
0.00122313
-7.73093e-07
0.00122305
-6.551e-07
0.00122306
-9.96172e-07
0.00122308
-4.40585e-07
0.00122293
-9.47224e-07
0.00122291
-6.62193e-07
0.00122279
-4.93882e-07
0.0012228
-1.07919e-06
0.00122269
-1.07871e-08
0.00122243
-1.21107e-06
0.00122249
-1.32732e-07
0.00122189
-5.40391e-07
0.00122235
-5.37152e-07
0.00122137
5.4018e-07
0.00122176
-1.32081e-06
0.0012207
6.6757e-06
-5.64697e-06
0.00122107
0.00167797
2.29771e-05
0.00168095
3.5697e-05
0.00168479
4.22962e-05
0.00168871
4.81351e-05
0.00169221
5.13902e-05
0.00169502
5.2192e-05
0.00169688
5.13148e-05
0.00169741
4.92285e-05
0.0016966
4.67332e-05
0.00169455
4.3832e-05
0.00169109
4.07717e-05
0.00168614
3.77082e-05
0.0016797
3.47651e-05
0.00167182
3.20365e-05
0.00166264
2.95018e-05
0.00165233
2.73987e-05
0.00164115
2.55359e-05
0.00162943
2.38026e-05
0.00161747
2.21378e-05
0.00160562
2.04719e-05
0.0015942
1.87532e-05
0.00158343
1.69965e-05
0.00157343
1.52468e-05
0.00156428
1.3457e-05
0.00155602
1.18365e-05
0.00154862
1.03468e-05
0.00154198
9.04198e-06
0.00153604
7.88077e-06
0.00153065
6.98094e-06
0.00152574
6.28616e-06
0.00152123
5.72668e-06
0.00151711
5.23502e-06
0.00151337
4.7518e-06
0.00150997
4.36808e-06
0.00150687
4.00513e-06
0.00150405
3.6516e-06
0.00150149
3.34418e-06
0.00149914
3.03077e-06
0.00149699
2.77979e-06
0.00149501
2.50906e-06
0.00149319
2.29977e-06
0.00149152
2.06102e-06
0.00148999
1.85733e-06
0.00148857
1.65537e-06
0.00148726
1.50018e-06
0.001486
1.34294e-06
0.00148484
1.22273e-06
0.00148371
1.14404e-06
0.00148268
9.59044e-07
0.0014817
9.50063e-07
0.00148078
7.66755e-07
0.00147994
7.16465e-07
0.0014791
5.93969e-07
0.00147839
4.79373e-07
0.00147764
4.416e-07
0.00147702
2.56579e-07
0.00147641
3.30257e-07
0.00147583
2.09316e-07
0.0014753
3.27419e-07
0.00147473
2.49179e-07
0.00147424
3.17437e-07
0.00147365
3.56619e-07
0.00147318
2.09772e-07
0.0014727
2.61335e-07
0.00147227
1.16516e-08
0.00147194
7.61478e-10
0.00147164
-2.37939e-07
0.00147144
-2.88174e-07
0.00147122
-4.45236e-07
0.00147116
-6.34616e-07
0.00147106
-6.19168e-07
0.00147099
-8.31749e-07
0.00147102
-7.22178e-07
0.00147099
-9.33965e-07
0.00147105
-8.30896e-07
0.00147103
-9.34079e-07
0.00147115
-9.71698e-07
0.00147112
-7.7466e-07
0.00147113
-1.02939e-06
0.00147125
-7.28216e-07
0.00147118
-9.75236e-07
0.00147123
-7.3877e-07
0.00147113
-7.48911e-07
0.00147123
-8.68341e-07
0.00147108
-5.05827e-07
0.00147103
-9.43413e-07
0.00147111
-5.2939e-07
0.00147091
-7.4562e-07
0.00147092
-6.73962e-07
0.00147075
-3.21845e-07
0.00147075
-1.07532e-06
0.00147073
1.0133e-08
0.00147029
-7.761e-07
0.00147052
-3.60822e-07
0.00146987
1.11644e-07
0.00147016
-8.26101e-07
0.00146966
1.03452e-06
0.00146947
-1.12778e-06
0.0014706
5.54282e-06
-2.81418e-06
0.00146777
0.00185751
1.96133e-05
0.00186114
3.20679e-05
0.00186581
3.76265e-05
0.00187104
4.29007e-05
0.00187644
4.5997e-05
0.00188185
4.67818e-05
0.00188705
4.61126e-05
0.00189182
4.44562e-05
0.00189613
4.24227e-05
0.00189993
4.00337e-05
0.00190315
3.75517e-05
0.00190573
3.51226e-05
0.00190765
3.28455e-05
0.00190886
3.08265e-05
0.00190927
2.90952e-05
0.0019088
2.78664e-05
0.00190752
2.68182e-05
0.00190528
2.6039e-05
0.00190202
2.54043e-05
0.00189767
2.48189e-05
0.00189223
2.41895e-05
0.00188573
2.34967e-05
0.00187823
2.27504e-05
0.00186985
2.18352e-05
0.00186081
2.08766e-05
0.00185143
1.97269e-05
0.00184192
1.85594e-05
0.00183261
1.71875e-05
0.00182368
1.59045e-05
0.00181544
1.45314e-05
0.00180783
1.33319e-05
0.00180092
1.21525e-05
0.00179464
1.10268e-05
0.00178893
1.00781e-05
0.00178374
9.1925e-06
0.00177893
8.46502e-06
0.00177446
7.8167e-06
0.00177032
7.17167e-06
0.00176648
6.61612e-06
0.00176293
6.06158e-06
0.00175966
5.56993e-06
0.00175663
5.09059e-06
0.00175387
4.61787e-06
0.0017513
4.22714e-06
0.00174898
3.81973e-06
0.00174677
3.5518e-06
0.00174479
3.20243e-06
0.0017429
3.03514e-06
0.00174116
2.69669e-06
0.00173956
2.55254e-06
0.00173804
2.28547e-06
0.00173667
2.08338e-06
0.00173529
1.97369e-06
0.00173411
1.65868e-06
0.00173292
1.63622e-06
0.00173188
1.29473e-06
0.0017309
1.30656e-06
0.00172998
1.13619e-06
0.00172916
1.14272e-06
0.00172828
1.12851e-06
0.00172757
1.03163e-06
0.0017267
1.22939e-06
0.001726
9.02809e-07
0.00172535
9.16059e-07
0.00172475
6.07711e-07
0.0017243
4.4939e-07
0.00172387
1.92014e-07
0.00172363
-4.99362e-08
0.00172331
-1.21575e-07
0.00172321
-5.37794e-07
0.00172307
-4.7495e-07
0.00172298
-7.43655e-07
0.00172298
-7.15765e-07
0.00172294
-8.95893e-07
0.00172301
-9.06798e-07
0.00172294
-8.63325e-07
0.00172312
-1.15396e-06
0.00172308
-7.27006e-07
0.00172309
-1.04326e-06
0.0017232
-8.3765e-07
0.00172314
-9.10211e-07
0.00172321
-8.11606e-07
0.00172307
-6.06118e-07
0.00172322
-1.02612e-06
0.00172306
-3.38201e-07
0.00172297
-8.56779e-07
0.00172304
-5.97508e-07
0.00172284
-5.48669e-07
0.00172287
-7.07398e-07
0.00172264
-9.23799e-08
0.00172264
-1.07438e-06
0.00172262
3.27725e-08
0.00172218
-3.36494e-07
0.00172237
-5.48523e-07
0.00172209
3.92471e-07
0.00172203
-7.63505e-07
0.00172209
9.6761e-07
0.00172145
-4.90446e-07
0.00172269
4.30403e-06
-3.93759e-07
0.00172027
0.00205619
1.62787e-05
0.00206034
2.79272e-05
0.00206546
3.24983e-05
0.00207129
3.70706e-05
0.00207741
3.98797e-05
0.00208363
4.05671e-05
0.00208973
4.00063e-05
0.00209558
3.8607e-05
0.00210114
3.68638e-05
0.00210635
3.48227e-05
0.0021112
3.27037e-05
0.00211568
3.06417e-05
0.00211981
2.87123e-05
0.00212362
2.70242e-05
0.00212711
2.56007e-05
0.00213035
2.46252e-05
0.00213333
2.38433e-05
0.00213606
2.33097e-05
0.00213851
2.29492e-05
0.00214067
2.26613e-05
0.00214246
2.23984e-05
0.00214381
2.21439e-05
0.00214463
2.19323e-05
0.00214473
2.17311e-05
0.00214414
2.14759e-05
0.00214274
2.11257e-05
0.00214044
2.08585e-05
0.0021372
2.04289e-05
0.00213305
2.00478e-05
0.00212811
1.9477e-05
0.00212248
1.89601e-05
0.00211633
1.83002e-05
0.00210977
1.75831e-05
0.00210301
1.68385e-05
0.00209604
1.61644e-05
0.00208922
1.52883e-05
0.00208253
1.45097e-05
0.00207615
1.35469e-05
0.00207009
1.26737e-05
0.0020644
1.17537e-05
0.00205912
1.08519e-05
0.00205415
1.00636e-05
0.0020496
9.15977e-06
0.0020453
8.53532e-06
0.00204143
7.68994e-06
0.00203765
7.3305e-06
0.00203419
6.66021e-06
0.00203093
6.29531e-06
0.00202787
5.7529e-06
0.00202508
5.34579e-06
0.0020224
4.9641e-06
0.00202003
4.45211e-06
0.00201761
4.39259e-06
0.0020155
3.77064e-06
0.00201346
3.67353e-06
0.00201159
3.16739e-06
0.0020099
3.0005e-06
0.00200824
2.79305e-06
0.00200683
2.55667e-06
0.00200531
2.64155e-06
0.00200405
2.29463e-06
0.00200266
2.62276e-06
0.00200152
2.04341e-06
0.00200053
1.90619e-06
0.00199963
1.50192e-06
0.00199901
1.06856e-06
0.00199837
8.38636e-07
0.00199807
2.51002e-07
0.00199761
3.34397e-07
0.0019974
-3.24585e-07
0.00199722
-2.99683e-07
0.00199708
-5.9785e-07
0.00199707
-7.11604e-07
0.00199698
-8.01381e-07
0.00199709
-1.01885e-06
0.00199696
-7.37576e-07
0.00199712
-1.30672e-06
0.00199714
-7.49673e-07
0.00199712
-1.02859e-06
0.00199725
-9.65138e-07
0.00199716
-8.16495e-07
0.00199729
-9.47594e-07
0.00199711
-4.22525e-07
0.00199725
-1.16242e-06
0.00199721
-2.97022e-07
0.00199704
-6.90897e-07
0.00199712
-6.76117e-07
0.00199691
-3.37675e-07
0.00199696
-7.61517e-07
0.00199681
5.64975e-08
0.00199667
-9.31118e-07
0.00199683
-1.263e-07
0.00199648
9.84863e-09
0.0019966
-6.697e-07
0.00199667
3.28332e-07
0.00199647
-5.69538e-07
0.00199683
6.09931e-07
0.00199625
8.67826e-08
0.00199685
3.70251e-06
5.00932e-07
0.00199596
0.00227616
1.29905e-05
0.00228085
2.32375e-05
0.00228646
2.68907e-05
0.00229285
3.06796e-05
0.00229961
3.31142e-05
0.00230649
3.36923e-05
0.00231327
3.32213e-05
0.00231982
3.2065e-05
0.00232606
3.06212e-05
0.00233194
2.89372e-05
0.00233748
2.71717e-05
0.00234268
2.54376e-05
0.00234756
2.38324e-05
0.00235211
2.24709e-05
0.0023564
2.13096e-05
0.00236056
2.04711e-05
0.00236457
1.98275e-05
0.00236849
1.93983e-05
0.00237233
1.91069e-05
0.00237611
1.88782e-05
0.00237981
1.87018e-05
0.00238339
1.85608e-05
0.00238688
1.84444e-05
0.00239026
1.8346e-05
0.00239353
1.82067e-05
0.0023966
1.80615e-05
0.00239951
1.79475e-05
0.00240212
1.78207e-05
0.00240447
1.76976e-05
0.00240641
1.75305e-05
0.00240797
1.7408e-05
0.00240907
1.71955e-05
0.00240953
1.71185e-05
0.00240939
1.69787e-05
0.00240865
1.69095e-05
0.00240729
1.66478e-05
0.00240532
1.64836e-05
0.00240276
1.60994e-05
0.00239965
1.57886e-05
0.00239608
1.53246e-05
0.0023921
1.48294e-05
0.00238779
1.43717e-05
0.00238326
1.36948e-05
0.00237849
1.33027e-05
0.00237374
1.24439e-05
0.00236884
1.22217e-05
0.00236407
1.14388e-05
0.00235942
1.09444e-05
0.00235488
1.02925e-05
0.00235072
9.50528e-06
0.00234656
9.12356e-06
0.00234291
8.09875e-06
0.0023392
8.10846e-06
0.00233584
7.12527e-06
0.00233269
6.82362e-06
0.00232957
6.28844e-06
0.00232683
5.73866e-06
0.00232397
5.65383e-06
0.00232148
5.04459e-06
0.00231882
5.30193e-06
0.00231651
4.61021e-06
0.00231433
4.80222e-06
0.00231238
3.99401e-06
0.00231082
3.46235e-06
0.00230938
2.94417e-06
0.00230846
1.98232e-06
0.00230746
1.84705e-06
0.00230694
7.71335e-07
0.0023064
8.69691e-07
0.00230602
5.77217e-08
0.00230583
-1.06629e-07
0.00230557
-3.45112e-07
0.00230559
-7.2521e-07
0.00230539
-6.03723e-07
0.0023055
-1.13453e-06
0.00230544
-6.75329e-07
0.00230545
-1.31898e-06
0.00230557
-8.64728e-07
0.0023055
-9.59384e-07
0.00230571
-1.17035e-06
0.00230555
-6.61376e-07
0.00230575
-1.14297e-06
0.00230573
-4.02349e-07
0.00230568
-1.11247e-06
0.0023058
-4.20715e-07
0.00230561
-5.01818e-07
0.00230583
-8.97098e-07
0.00230567
-1.75041e-07
0.00230564
-7.37529e-07
0.00230583
-1.25959e-07
0.00230558
-6.79786e-07
0.00230599
-5.35974e-07
0.00230591
8.10772e-08
0.00230597
-7.21799e-07
0.00230631
-1.09515e-08
0.00230608
-3.46379e-07
0.0023067
-4.15949e-09
0.0023064
3.88057e-07
0.00230686
3.23945e-06
5.98475e-07
0.00230676
0.00251975
9.703e-06
0.002525
1.79906e-05
0.00253114
2.07471e-05
0.00253814
2.36797e-05
0.00254561
2.56464e-05
0.0025532
2.61012e-05
0.0025607
2.5724e-05
0.00256792
2.48385e-05
0.00257482
2.37235e-05
0.00258136
2.2394e-05
0.00258753
2.10057e-05
0.0025933
1.96721e-05
0.0025987
1.84313e-05
0.00260381
1.73561e-05
0.00260868
1.64363e-05
0.00261336
1.57929e-05
0.00261787
1.53158e-05
0.00262231
1.49621e-05
0.00262671
1.47043e-05
0.00263107
1.45219e-05
0.00263538
1.43948e-05
0.00263964
1.43012e-05
0.00264387
1.42145e-05
0.00264806
1.41542e-05
0.00265222
1.40491e-05
0.00265633
1.39501e-05
0.0026604
1.38705e-05
0.00266443
1.37944e-05
0.00266842
1.37079e-05
0.00267233
1.36195e-05
0.0026762
1.35364e-05
0.00267995
1.34453e-05
0.00268368
1.33941e-05
0.00268723
1.34239e-05
0.00269074
1.33986e-05
0.002694
1.33934e-05
0.00269717
1.33073e-05
0.00270001
1.32595e-05
0.00270267
1.31323e-05
0.00270496
1.3031e-05
0.0027069
1.28948e-05
0.00270852
1.27477e-05
0.00270958
1.26404e-05
0.00271038
1.25006e-05
0.00271043
1.23937e-05
0.00271027
1.23759e-05
0.0027096
1.2114e-05
0.00270859
1.19516e-05
0.00270706
1.18201e-05
0.00270521
1.13573e-05
0.00270312
1.12196e-05
0.00270064
1.05764e-05
0.00269815
1.05974e-05
0.00269527
1.00079e-05
0.00269237
9.72109e-06
0.00268906
9.60097e-06
0.00268583
8.9703e-06
0.00268239
9.09209e-06
0.00267895
8.4856e-06
0.00267566
8.58708e-06
0.0026724
7.86921e-06
0.00266969
7.51273e-06
0.00266699
6.69271e-06
0.002665
5.45298e-06
0.00266305
4.89486e-06
0.00266164
3.38999e-06
0.0026606
2.88799e-06
0.00265979
1.58656e-06
0.00265932
1.33762e-06
0.00265873
6.4326e-07
0.00265861
1.87373e-08
0.00265824
2.56133e-08
0.00265811
-5.98876e-07
0.00265801
-4.97848e-07
0.00265794
-1.06446e-06
0.00265811
-8.53919e-07
0.00265796
-1.16256e-06
0.00265827
-1.18045e-06
0.00265803
-7.11407e-07
0.00265809
-1.23305e-06
0.00265811
-6.80228e-07
0.00265815
-1.18189e-06
0.00265852
-7.72434e-07
0.00265832
-9.1376e-07
0.00265887
-9.73114e-07
0.0026587
-3.34744e-07
0.00265886
-1.05163e-06
0.00265919
-5.02642e-07
0.00265919
-7.45472e-07
0.00265983
-7.66005e-07
0.0026595
-3.51043e-07
0.00266
-1.03639e-06
0.00266038
-2.90527e-07
0.00266042
-7.60407e-07
0.00266093
-5.30273e-07
0.00266083
-2.41836e-07
0.0026613
-4.79069e-07
0.00266131
3.79262e-07
0.00266188
2.67468e-06
4.52482e-07
0.00266202
0.00278949
6.3768e-06
0.00279533
1.21454e-05
0.00280209
1.39927e-05
0.00280976
1.60069e-05
0.002818
1.74016e-05
0.0028264
1.77056e-05
0.00283467
1.74516e-05
0.00284264
1.68654e-05
0.00285028
1.60835e-05
0.00285752
1.51555e-05
0.00286433
1.41988e-05
0.00287073
1.3277e-05
0.00287673
1.24277e-05
0.00288239
1.16901e-05
0.00288779
1.10455e-05
0.00289298
1.06008e-05
0.00289803
1.02675e-05
0.00290299
9.99997e-06
0.00290788
9.81263e-06
0.00291269
9.70901e-06
0.00291745
9.63281e-06
0.0029222
9.5559e-06
0.00292692
9.48959e-06
0.00293162
9.45556e-06
0.00293628
9.38769e-06
0.00294091
9.32111e-06
0.00294552
9.26456e-06
0.00295011
9.20858e-06
0.00295467
9.14493e-06
0.0029592
9.08791e-06
0.0029637
9.03381e-06
0.00296817
8.97378e-06
0.00297263
8.93487e-06
0.00297708
8.97374e-06
0.00298152
8.96428e-06
0.00298593
8.98065e-06
0.00299032
8.91487e-06
0.00299467
8.91324e-06
0.00299897
8.83027e-06
0.00300321
8.79332e-06
0.00300739
8.7154e-06
0.0030115
8.63972e-06
0.00301549
8.64717e-06
0.00301944
8.54834e-06
0.0030232
8.63414e-06
0.00302705
8.52485e-06
0.0030306
8.56952e-06
0.00303408
8.46726e-06
0.00303737
8.53421e-06
0.00304032
8.40902e-06
0.00304326
8.27759e-06
0.00304554
8.29289e-06
0.00304816
7.97873e-06
0.00305004
8.12868e-06
0.00305182
7.93703e-06
0.00305333
8.09079e-06
0.00305424
8.06016e-06
0.00305508
8.2509e-06
0.00305516
8.40913e-06
0.0030553
8.44497e-06
0.00305481
8.36476e-06
0.00305452
7.79844e-06
0.00305384
7.37047e-06
0.00305322
6.07547e-06
0.00305268
5.43265e-06
0.00305203
4.0399e-06
0.0030518
3.12538e-06
0.00305123
2.15655e-06
0.00305132
1.24562e-06
0.0030509
1.05976e-06
0.00305089
3.31828e-08
0.00305087
3.89393e-08
0.00305083
-5.58303e-07
0.00305106
-7.25168e-07
0.00305082
-8.2382e-07
0.00305128
-1.31033e-06
0.00305083
-7.12525e-07
0.00305121
-1.5591e-06
0.00305128
-7.82829e-07
0.00305129
-1.24475e-06
0.00305158
-9.74907e-07
0.00305132
-9.23576e-07
0.00305184
-1.28903e-06
0.00305139
-4.59729e-07
0.00305181
-1.40077e-06
0.00305197
-4.91056e-07
0.00305185
-9.25454e-07
0.0030522
-8.60077e-07
0.003052
-5.46396e-07
0.00305244
-1.20033e-06
0.00305232
-2.31843e-07
0.00305232
-1.04005e-06
0.00305269
-6.59827e-07
0.0030526
-6.6575e-07
0.0030528
-7.28534e-07
0.00305283
-2.78983e-07
0.00305289
-5.34624e-07
0.00305306
2.04589e-07
0.00305349
2.24834e-06
3.0643e-07
0.00305363
0.0030882
2.9397e-06
0.00309469
5.6551e-06
0.00310214
6.5447e-06
0.00311057
7.57813e-06
0.00311968
8.29214e-06
0.00312895
8.43572e-06
0.00313809
8.3028e-06
0.00314696
8.0036e-06
0.00315541
7.62981e-06
0.00316338
7.18076e-06
0.0031709
6.6809e-06
0.00317799
6.19274e-06
0.00318465
5.76513e-06
0.00319093
5.4134e-06
0.00319689
5.08552e-06
0.00320264
4.84509e-06
0.00320826
4.65285e-06
0.00321376
4.50001e-06
0.00321915
4.42009e-06
0.00322447
4.38873e-06
0.00322976
4.33929e-06
0.00323503
4.28529e-06
0.00324026
4.25997e-06
0.00324546
4.26086e-06
0.00325061
4.23281e-06
0.00325575
4.188e-06
0.00326087
4.14315e-06
0.00326596
4.11132e-06
0.00327102
4.09328e-06
0.00327603
4.07362e-06
0.00328103
4.03395e-06
0.00328601
3.99094e-06
0.00329098
3.9641e-06
0.00329596
4.00043e-06
0.00330092
4.0043e-06
0.00330588
4.01776e-06
0.00331082
3.97817e-06
0.00331574
3.98813e-06
0.00332062
3.95147e-06
0.00332549
3.92704e-06
0.00333032
3.88476e-06
0.00333511
3.84485e-06
0.00333987
3.88573e-06
0.0033446
3.82676e-06
0.00334934
3.89091e-06
0.00335405
3.81441e-06
0.00335875
3.86526e-06
0.00336341
3.80962e-06
0.00336807
3.87036e-06
0.00337266
3.82169e-06
0.00337722
3.71637e-06
0.00338168
3.83816e-06
0.00338606
3.59515e-06
0.00339042
3.77466e-06
0.0033947
3.65146e-06
0.003399
3.79628e-06
0.00340325
3.80782e-06
0.00340757
3.93049e-06
0.00341182
4.15499e-06
0.00341611
4.1574e-06
0.00342005
4.42436e-06
0.00342397
3.87612e-06
0.00342744
3.90004e-06
0.00343038
3.13953e-06
0.00343301
2.80485e-06
0.00343493
2.11179e-06
0.00343668
1.38473e-06
0.00343769
1.14037e-06
0.00343866
2.78037e-07
0.00343931
4.05515e-07
0.00343963
-2.7878e-07
0.00344
-3.32415e-07
0.00344006
-6.22423e-07
0.00344019
-8.55734e-07
0.0034401
-7.29027e-07
0.00344009
-1.3039e-06
0.00344005
-6.74484e-07
0.0034399
-1.40747e-06
0.00343998
-8.65438e-07
0.00343983
-1.09472e-06
0.0034399
-1.04407e-06
0.00343976
-7.84795e-07
0.00343972
-1.24558e-06
0.00343971
-4.50064e-07
0.00343951
-1.20445e-06
0.00343965
-6.25453e-07
0.00343951
-7.82451e-07
0.00343955
-9.04724e-07
0.00343951
-5.08481e-07
0.00343938
-1.07179e-06
0.00343955
-3.9705e-07
0.00343937
-8.59005e-07
0.00343945
-7.46304e-07
0.00343939
-6.03445e-07
0.00343935
-6.81695e-07
0.00343942
-3.57246e-07
0.00343938
-4.89923e-07
0.00343947
1.14817e-07
0.00343992
1.80008e-06
-2.00887e-07
0.00344042
0.00341903
-7.28499e-07
0.00342623
-1.54275e-06
0.00343446
-1.68627e-06
0.00344375
-1.71185e-06
0.00345383
-1.78127e-06
0.00346409
-1.82431e-06
0.0034742
-1.80909e-06
0.00348399
-1.79312e-06
0.00349337
-1.74493e-06
0.00350222
-1.67423e-06
0.00351054
-1.63232e-06
0.00351836
-1.62915e-06
0.00352573
-1.60391e-06
0.00353268
-1.54023e-06
0.0035393
-1.53362e-06
0.00354568
-1.53132e-06
0.00355187
-1.54403e-06
0.00355795
-1.5717e-06
0.00356393
-1.56599e-06
0.00356986
-1.53538e-06
0.00357573
-1.53198e-06
0.00358155
-1.54037e-06
0.00358734
-1.52536e-06
0.0035931
-1.49582e-06
0.00359881
-1.48144e-06
0.00360448
-1.48738e-06
0.00361014
-1.50762e-06
0.00361577
-1.52096e-06
0.00362138
-1.51438e-06
0.00362695
-1.4997e-06
0.00363249
-1.50363e-06
0.00363799
-1.51762e-06
0.0036435
-1.53732e-06
0.003649
-1.50695e-06
0.0036545
-1.49622e-06
0.00366
-1.47984e-06
0.00366546
-1.48123e-06
0.0036709
-1.45472e-06
0.00367632
-1.46433e-06
0.00368172
-1.46955e-06
0.00368707
-1.46859e-06
0.00369239
-1.47451e-06
0.0036977
-1.42416e-06
0.00370297
-1.44809e-06
0.00370827
-1.40256e-06
0.00371352
-1.43687e-06
0.00371879
-1.40221e-06
0.00372402
-1.4252e-06
0.00372926
-1.37234e-06
0.00373445
-1.36551e-06
0.00373959
-1.42325e-06
0.00374472
-1.29037e-06
0.00374973
-1.41778e-06
0.0037548
-1.29087e-06
0.00375979
-1.34279e-06
0.00376486
-1.27612e-06
0.00376994
-1.2724e-06
0.00377514
-1.26517e-06
0.00378048
-1.18552e-06
0.0037859
-1.26652e-06
0.00379139
-1.06585e-06
0.00379657
-1.29552e-06
0.00380151
-1.04317e-06
0.00380583
-1.17722e-06
0.00380963
-9.94148e-07
0.00381274
-1.0028e-06
0.0038152
-1.07268e-06
0.00381713
-7.90262e-07
0.00381839
-9.79307e-07
0.00381939
-5.94438e-07
0.0038199
-7.9138e-07
0.00382025
-6.86067e-07
0.00382036
-7.32835e-07
0.00382034
-8.37566e-07
0.00382029
-6.70567e-07
0.00381998
-9.96262e-07
0.00381988
-5.81611e-07
0.00381949
-1.01086e-06
0.00381936
-7.33777e-07
0.00381909
-8.27095e-07
0.00381892
-8.75373e-07
0.00381883
-6.92877e-07
0.00381862
-1.03527e-06
0.00381869
-5.22404e-07
0.00381847
-9.88441e-07
0.00381853
-6.79212e-07
0.00381846
-7.10267e-07
0.00381843
-8.81963e-07
0.00381848
-5.57794e-07
0.00381837
-9.63845e-07
0.00381849
-5.10168e-07
0.00381841
-7.86392e-07
0.00381845
-7.80813e-07
0.00381845
-6.02502e-07
0.00381846
-6.92099e-07
0.0038185
-4.0083e-07
0.00381849
-4.77943e-07
0.00381857
3.73171e-08
0.00381918
1.19066e-06
-9.21381e-07
0.0038199
0.00341906
-4.42787e-06
0.00342627
-8.75302e-06
0.00343451
-9.91861e-06
0.0034438
-1.10071e-05
0.00345388
-1.18569e-05
0.00346414
-1.2087e-05
0.00347426
-1.19273e-05
0.00348405
-1.15841e-05
0.0034934
-1.10996e-05
0.00350227
-1.05398e-05
0.00351062
-9.97981e-06
0.00351845
-9.46115e-06
0.00352581
-8.96022e-06
0.00353275
-8.48614e-06
0.00353938
-8.16066e-06
0.00354576
-7.90723e-06
0.00355194
-7.7258e-06
0.00355799
-7.62801e-06
0.00356398
-7.55405e-06
0.00356992
-7.47804e-06
0.00357581
-7.4134e-06
0.00358161
-7.34842e-06
0.00358738
-7.28781e-06
0.00359313
-7.24832e-06
0.00359885
-7.20067e-06
0.00360453
-7.16738e-06
0.00361018
-7.16384e-06
0.00361582
-7.1543e-06
0.00362142
-7.11826e-06
0.00362699
-7.07126e-06
0.00363253
-7.04449e-06
0.00363805
-7.03202e-06
0.00364356
-7.0467e-06
0.00364906
-7.01345e-06
0.00365456
-6.98862e-06
0.00366005
-6.96943e-06
0.00366552
-6.95859e-06
0.00367098
-6.91608e-06
0.00367641
-6.88783e-06
0.0036818
-6.85948e-06
0.00368715
-6.81773e-06
0.00369246
-6.7912e-06
0.00369777
-6.72988e-06
0.00370305
-6.72732e-06
0.00370834
-6.69082e-06
0.00371359
-6.6926e-06
0.00371885
-6.66337e-06
0.00372409
-6.66653e-06
0.00372933
-6.60449e-06
0.00373451
-6.55307e-06
0.00373965
-6.56035e-06
0.00374476
-6.40191e-06
0.00374979
-6.44292e-06
0.00375483
-6.33521e-06
0.00375984
-6.34748e-06
0.00376489
-6.32867e-06
0.00376997
-6.34959e-06
0.00377515
-6.44967e-06
0.00378047
-6.50542e-06
0.0037859
-6.69454e-06
0.00379134
-6.50927e-06
0.00379652
-6.4763e-06
0.00380142
-5.93879e-06
0.00380573
-5.48521e-06
0.0038095
-4.76369e-06
0.00381259
-4.091e-06
0.00381505
-3.53343e-06
0.00381694
-2.68505e-06
0.00381822
-2.26303e-06
0.00381919
-1.55829e-06
0.00381971
-1.31743e-06
0.00382006
-1.03019e-06
0.00382017
-8.46381e-07
0.00382016
-8.29249e-07
0.00382008
-5.84188e-07
0.00381981
-7.28571e-07
0.00381965
-4.23289e-07
0.00381932
-6.80301e-07
0.00381914
-5.51908e-07
0.00381889
-5.83053e-07
0.00381874
-7.17243e-07
0.00381861
-5.62108e-07
0.00381844
-8.68977e-07
0.00381844
-5.21134e-07
0.00381829
-8.44242e-07
0.0038183
-6.87649e-07
0.00381826
-6.65269e-07
0.00381824
-8.63329e-07
0.00381825
-5.70087e-07
0.0038182
-9.09896e-07
0.00381824
-5.55298e-07
0.00381823
-7.72352e-07
0.00381822
-7.73226e-07
0.00381824
-6.26647e-07
0.00381827
-7.16235e-07
0.00381829
-4.17379e-07
0.00381834
-5.32104e-07
0.00381839
-8.98346e-09
0.00381898
6.00193e-07
-1.56247e-06
0.00381962
0.00308828
-7.94945e-06
0.0030948
-1.52741e-05
0.00310226
-1.73709e-05
0.0031107
-1.94493e-05
0.00311981
-2.09729e-05
0.00312909
-2.1366e-05
0.00313824
-2.1077e-05
0.00314709
-2.04281e-05
0.00315554
-1.95474e-05
0.00316356
-1.85616e-05
0.00317111
-1.75319e-05
0.00317817
-1.6521e-05
0.00318479
-1.55829e-05
0.00319106
-1.47515e-05
0.00319704
-1.41459e-05
0.0032028
-1.36639e-05
0.00320839
-1.3317e-05
0.00321387
-1.31075e-05
0.00321927
-1.29573e-05
0.00322462
-1.28301e-05
0.00322993
-1.27205e-05
0.0032352
-1.26129e-05
0.00324042
-1.25112e-05
0.00324562
-1.24446e-05
0.00325078
-1.236e-05
0.0032559
-1.22962e-05
0.00326102
-1.22752e-05
0.00326611
-1.22444e-05
0.00327117
-1.21794e-05
0.0032762
-1.2102e-05
0.0032812
-1.20485e-05
0.00328618
-1.20115e-05
0.00329116
-1.20239e-05
0.00329613
-1.19822e-05
0.00330108
-1.19445e-05
0.00330603
-1.19193e-05
0.00331097
-1.18988e-05
0.0033159
-1.18384e-05
0.00332079
-1.17794e-05
0.00332564
-1.17128e-05
0.00333045
-1.1628e-05
0.00333523
-1.15668e-05
0.00333999
-1.14945e-05
0.00334473
-1.14681e-05
0.00334947
-1.14281e-05
0.00335417
-1.13895e-05
0.00335884
-1.13355e-05
0.00336348
-1.13106e-05
0.0033681
-1.12264e-05
0.00337268
-1.11253e-05
0.00337716
-1.10412e-05
0.00338158
-1.08229e-05
0.00338591
-1.07711e-05
0.00339018
-1.06088e-05
0.00339439
-1.05538e-05
0.00339854
-1.04875e-05
0.0034027
-1.05035e-05
0.00340684
-1.05891e-05
0.00341099
-1.06586e-05
0.00341507
-1.07688e-05
0.00341889
-1.0334e-05
0.00342254
-1.01239e-05
0.00342573
-9.12849e-06
0.0034285
-8.26095e-06
0.00343084
-7.10541e-06
0.00343272
-5.96148e-06
0.00343423
-5.04647e-06
0.00343528
-3.74148e-06
0.00343616
-3.13735e-06
0.00343672
-2.1237e-06
0.00343708
-1.67342e-06
0.00343732
-1.2659e-06
0.00343742
-9.48174e-07
0.00343746
-8.73692e-07
0.00343744
-5.63584e-07
0.00343739
-6.74213e-07
0.00343732
-3.56298e-07
0.00343722
-5.74884e-07
0.00343713
-4.64001e-07
0.00343706
-5.15974e-07
0.00343697
-6.30415e-07
0.00343694
-5.2923e-07
0.00343688
-8.06004e-07
0.00343687
-5.09478e-07
0.00343683
-8.12461e-07
0.00343678
-6.33075e-07
0.00343684
-7.25367e-07
0.00343675
-7.72361e-07
0.00343681
-6.27831e-07
0.00343678
-8.79412e-07
0.0034368
-5.80306e-07
0.00343685
-8.23406e-07
0.00343678
-6.9687e-07
0.00343691
-7.57988e-07
0.00343678
-5.93761e-07
0.00343689
-5.18921e-07
0.00343692
-5.66048e-07
0.00343702
-1.12188e-07
0.00343757
4.84614e-08
-1.71971e-06
0.00343773
0.00278961
-1.1404e-05
0.0027955
-2.11591e-05
0.00280226
-2.4133e-05
0.00280995
-2.71421e-05
0.00281821
-2.92288e-05
0.0028266
-2.9758e-05
0.00283488
-2.93547e-05
0.00284288
-2.84318e-05
0.00285053
-2.71891e-05
0.00285776
-2.57978e-05
0.00286457
-2.43356e-05
0.00287095
-2.29062e-05
0.00287696
-2.15927e-05
0.00288263
-2.04212e-05
0.00288803
-1.95427e-05
0.0028932
-1.88376e-05
0.00289824
-1.83535e-05
0.00290318
-1.80498e-05
0.00290805
-1.78301e-05
0.00291289
-1.7668e-05
0.00291767
-1.75048e-05
0.00292241
-1.73505e-05
0.00292713
-1.72261e-05
0.00293183
-1.7143e-05
0.00293648
-1.70192e-05
0.00294112
-1.69297e-05
0.00294573
-1.68883e-05
0.00295032
-1.6833e-05
0.00295488
-1.67357e-05
0.0029594
-1.66269e-05
0.0029639
-1.65435e-05
0.00296836
-1.64754e-05
0.00297282
-1.64806e-05
0.00297725
-1.64137e-05
0.00298166
-1.63571e-05
0.00298605
-1.63091e-05
0.00299041
-1.6263e-05
0.00299474
-1.61593e-05
0.002999
-1.60487e-05
0.00300319
-1.58959e-05
0.0030073
-1.57419e-05
0.00301132
-1.55842e-05
0.00301526
-1.54397e-05
0.00301909
-1.52958e-05
0.00302282
-1.5159e-05
0.00302639