/*--------------------------------*- C++ -*----------------------------------*\
| =========                 |                                                 |
| \\      /  F ield         | OpenFOAM: The Open Source CFD Toolbox           |
|  \\    /   O peration     | Version:  v2012                                 |
|   \\  /    A nd           | Website:  www.openfoam.com                      |
|    \\/     M anipulation  |                                                 |
\*---------------------------------------------------------------------------*/
FoamFile
{
    version     2.0;
    format      ascii;
    class       surfaceScalarField;
    location    "0.177";
    object      phi.air;
}
// * * * * * * * * * * * * * * * * * * * * * * * * * * * * * * * * * * * * * //

dimensions      [0 3 -1 0 0 0 0];
oriented        oriented;


internalField   nonuniform List<scalar> 
3672
(
0.0064006
7.14517e-06
0.00639136
8.99623e-06
0.00638142
9.68684e-06
0.00637056
1.06126e-05
0.0063586
1.17119e-05
0.00634559
1.27594e-05
0.00633129
1.40467e-05
0.00631578
1.52582e-05
0.00629637
1.91628e-05
2.80585e-05
0.00626806
0.00641089
4.26004e-06
0.00641309
6.79313e-06
0.00641555
7.2261e-06
0.00641823
7.93236e-06
0.00642104
8.90607e-06
0.00642399
9.8076e-06
0.00642694
1.10891e-05
0.00642967
1.25285e-05
0.00643129
1.75455e-05
2.48537e-05
0.0064345
0.00640988
2.38202e-06
0.00641223
4.44505e-06
0.00641473
4.71802e-06
0.00641752
5.14462e-06
0.00642056
5.87155e-06
0.00642375
6.60995e-06
0.00642716
7.68595e-06
0.00643042
9.26282e-06
0.0064346
1.3366e-05
1.8425e-05
0.00644103
0.00640936
1.0263e-06
0.00641175
2.05189e-06
0.00641429
2.17918e-06
0.00641704
2.39546e-06
0.00642008
2.82902e-06
0.00642335
3.34014e-06
0.00642686
4.1794e-06
0.00643058
5.54009e-06
0.00643542
8.5221e-06
1.19255e-05
0.00644192
0.00640916
-1.3313e-07
0.00641153
-3.17989e-07
0.00641408
-3.6805e-07
0.0064168
-3.30659e-07
0.00641985
-2.20073e-07
0.00642318
1.20084e-08
0.0064268
5.59747e-07
0.0064308
1.54158e-06
0.00643581
3.50708e-06
5.35651e-06
0.00644238
0.00640918
-1.30997e-06
0.00641156
-2.70308e-06
0.00641412
-2.9249e-06
0.00641686
-3.07022e-06
0.00641993
-3.29409e-06
0.00642331
-3.36794e-06
0.00642702
-3.15054e-06
0.00643117
-2.61079e-06
0.00643623
-1.55004e-06
-9.18184e-07
0.00644251
0.00640941
-2.72028e-06
0.00641185
-5.1427e-06
0.00641442
-5.49271e-06
0.00641721
-5.85951e-06
0.00642032
-6.4073e-06
0.00642374
-6.78915e-06
0.00642751
-6.92237e-06
0.00643175
-6.8458e-06
0.00643674
-6.54488e-06
-6.74829e-06
0.00644257
0.00640999
-4.70719e-06
0.0064124
-7.5559e-06
0.00641495
-8.04445e-06
0.00641781
-8.71403e-06
0.00642095
-9.55364e-06
0.0064244
-1.02353e-05
0.00642821
-1.0735e-05
0.00643249
-1.11202e-05
0.00643739
-1.14533e-05
-1.21458e-05
0.00644279
0.00641105
-7.76188e-06
0.00641334
-9.83865e-06
0.00641585
-1.05521e-05
0.00641858
-1.14513e-05
0.00642152
-1.24901e-05
0.00642469
-1.34058e-05
0.00642817
-1.42168e-05
0.00643204
-1.49858e-05
0.00643631
-1.57293e-05
-1.68101e-05
0.00644098
0.00640049
0.0063909
0.0063806
0.0063694
0.00635716
0.006344
0.00633004
0.0063153
0.00629982
0.00628326
0.00618912
0.000122524
-4.3588e-05
0.00598884
8.26133e-05
0.000117663
0.00572442
-0.000168607
0.000433026
0.00550756
-0.000541273
0.00075814
0.00535911
-0.000908017
0.00105647
0.00525264
-0.00120372
0.00131018
0.0051718
-0.00137929
0.00146013
0.00510267
-0.00142728
0.00149641
0.00503457
-0.00137479
0.00144289
0.00496662
-0.00125517
0.00132311
0.00489899
-0.00110278
0.00117042
0.00483226
-0.000945318
0.00101204
0.00476702
-0.000799099
0.000864346
0.00470304
-0.000670666
0.000734642
0.00464094
-0.000563919
0.000626016
0.00458125
-0.000478242
0.000537937
0.00452422
-0.000409824
0.000466858
0.00447029
-0.000354807
0.000408736
0.00442014
-0.000311301
0.000361445
0.00437433
-0.000277803
0.00032362
0.00433261
-0.00025126
0.000292977
0.00429467
-0.000228812
0.000266754
0.00426048
-0.000209736
0.00024392
0.00423019
-0.000194208
0.000224502
0.00420349
-0.000181728
0.000208421
0.00418015
-0.000171001
0.00019435
0.00416008
-0.000161219
0.000181283
0.00414289
-0.000152271
0.000169461
0.00412817
-0.000144514
0.000159234
0.00411557
-0.000137822
0.000150425
0.00410469
-0.000131756
0.000142631
0.00409528
-0.000125993
0.000135411
0.00408704
-0.000120484
0.000128718
0.00407973
-0.000115215
0.000122525
0.00407331
-0.000110422
0.000116838
0.00406776
-0.000106121
0.000111678
0.00406299
-0.000102185
0.000106957
0.00405894
-9.84777e-05
0.000102523
0.00405556
-9.49527e-05
9.83287e-05
0.0040528
-9.16275e-05
9.43942e-05
0.0040506
-8.85978e-05
9.07928e-05
0.00404892
-8.5858e-05
8.75373e-05
0.00404767
-8.33041e-05
8.45551e-05
0.00404677
-8.08342e-05
8.17321e-05
0.00404619
-7.83995e-05
7.89872e-05
0.00404588
-7.60179e-05
7.63265e-05
0.00404583
-7.38007e-05
7.38533e-05
0.00404602
-7.17816e-05
7.15907e-05
0.00404645
-6.99132e-05
6.9483e-05
0.00404711
-6.81236e-05
6.74644e-05
0.00404797
-6.63663e-05
6.55004e-05
0.00404902
-6.46532e-05
6.36051e-05
0.00405024
-6.30473e-05
6.18281e-05
0.00405162
-6.15664e-05
6.01821e-05
0.00405317
-6.01809e-05
5.86398e-05
0.00405485
-5.88573e-05
5.71675e-05
0.00405668
-5.75682e-05
5.57474e-05
0.0040586
-5.62921e-05
5.43649e-05
0.00406062
-5.50574e-05
5.30401e-05
0.00406272
-5.38953e-05
5.17931e-05
0.00406491
-5.28136e-05
5.06296e-05
0.00406717
-5.17799e-05
4.95193e-05
0.0040695
-5.07853e-05
4.84536e-05
0.00407189
-4.98074e-05
4.74152e-05
0.00407434
-4.88688e-05
4.64239e-05
0.00407682
-4.79612e-05
4.5473e-05
0.00407935
-4.7104e-05
4.45759e-05
0.00408192
-4.62832e-05
4.37178e-05
0.00408452
-4.5495e-05
4.28968e-05
0.00408714
-4.47206e-05
4.2096e-05
0.00408978
-4.39674e-05
4.13234e-05
0.00409244
-4.32317e-05
4.05743e-05
0.00409511
-4.25254e-05
3.9859e-05
0.00409778
-4.1841e-05
3.91688e-05
0.00410046
-4.11809e-05
3.85053e-05
0.00410313
-4.05273e-05
3.78555e-05
0.00410579
-3.98874e-05
3.72233e-05
0.00410844
-3.92507e-05
3.66002e-05
0.00411108
-3.86336e-05
3.59988e-05
0.00411369
-3.8023e-05
3.54076e-05
0.00411629
-3.74304e-05
3.48365e-05
0.00411886
-3.68372e-05
3.42683e-05
0.0041214
-3.62572e-05
3.37158e-05
0.00412391
-3.56731e-05
3.31617e-05
0.00412639
-3.5104e-05
3.26235e-05
0.00412884
-3.45338e-05
3.20859e-05
0.00413125
-3.39813e-05
3.15664e-05
0.00413363
-3.34287e-05
3.10485e-05
0.00413598
-3.28949e-05
3.05495e-05
0.00413829
-3.23637e-05
3.0054e-05
0.00414056
-3.18594e-05
2.9585e-05
0.0041428
-3.13636e-05
2.91244e-05
0.00414501
-3.09196e-05
2.87133e-05
0.00414718
-3.04848e-05
2.83112e-05
0.00414933
-3.01964e-05
2.80483e-05
0.00415145
-2.98783e-05
2.77551e-05
0.00415358
-3.00401e-05
2.79141e-05
0.00415568
-2.9911e-05
2.78113e-05
0.00415787
-3.12144e-05
2.90195e-05
-3.11767e-05
2.92148e-05
0.00647836
7.86562e-05
0.00651174
4.9239e-05
0.00650174
-0.000158607
0.0064363
-0.00047583
0.00632498
-0.000796697
0.00617908
-0.00105783
0.00601661
-0.00121681
0.00585464
-0.00126531
0.00570351
-0.00122366
0.00556871
-0.00112037
0.0054526
-0.000986666
0.00535434
-0.000847059
0.00527097
-0.000715728
0.00519909
-0.00059879
0.0051357
-0.000500525
0.00507817
-0.000420712
0.00502394
-0.000355595
0.00497111
-0.000301976
0.00491906
-0.000259251
0.00486793
-0.000226677
0.004818
-0.000201323
0.00476962
-0.000180433
0.00472317
-0.000163293
0.00467925
-0.000150281
0.00463822
-0.000140701
0.00460004
-0.000132819
0.00456468
-0.000125862
0.00453228
-0.000119874
0.00450284
-0.000115072
0.00447618
-0.000111157
0.00445195
-0.000107532
0.00442991
-0.000103949
0.00440987
-0.000100446
0.00439176
-9.70991e-05
0.00437541
-9.40735e-05
0.00436066
-9.13696e-05
0.00434733
-8.88585e-05
0.00433529
-8.64389e-05
0.00432442
-8.408e-05
0.00431462
-8.18306e-05
0.00430577
-7.97473e-05
0.0042977
-7.77824e-05
0.00429031
-7.59192e-05
0.00428358
-7.41031e-05
0.00427746
-7.22774e-05
0.00427191
-7.04681e-05
0.0042669
-6.87913e-05
0.0042624
-6.72813e-05
0.00425838
-6.58911e-05
0.0042548
-6.4549e-05
0.00425163
-6.31966e-05
0.00424883
-6.1854e-05
0.00424638
-6.05999e-05
0.00424426
-5.94413e-05
0.00424244
-5.83615e-05
0.0042409
-5.73195e-05
0.0042396
-5.62617e-05
0.00423849
-5.51844e-05
0.00423757
-5.41406e-05
0.00423684
-5.31656e-05
0.00423629
-5.22618e-05
0.00423591
-5.13969e-05
0.00423568
-5.05601e-05
0.00423559
-4.9717e-05
0.00423562
-4.8897e-05
0.00423575
-4.80964e-05
0.00423599
-4.73412e-05
0.00423632
-4.66139e-05
0.00423674
-4.59115e-05
0.00423723
-4.52101e-05
0.00423778
-4.45199e-05
0.00423838
-4.38357e-05
0.00423903
-4.31741e-05
0.00423972
-4.25272e-05
0.00424044
-4.18989e-05
0.00424118
-4.12696e-05
0.00424194
-4.06474e-05
0.00424271
-4.00222e-05
0.00424349
-3.94122e-05
0.00424427
-3.8805e-05
0.00424505
-3.82131e-05
0.00424583
-3.76164e-05
0.00424661
-3.70306e-05
0.00424737
-3.64382e-05
0.00424813
-3.58597e-05
0.00424887
-3.52787e-05
0.00424961
-3.47149e-05
0.00425033
-3.41498e-05
0.00425104
-3.36031e-05
0.00425173
-3.30581e-05
0.00425241
-3.25402e-05
0.00425308
-3.20305e-05
0.00425373
-3.15736e-05
0.00425437
-3.1126e-05
0.004255
-3.08259e-05
0.00425563
-3.05015e-05
0.00425624
-3.06516e-05
0.00425686
-3.05291e-05
0.00425752
-3.18831e-05
-3.17344e-05
0.00647001
4.96757e-05
0.00650349
1.57559e-05
0.00650081
-0.000155926
0.00644848
-0.0004235
0.00634924
-0.000697456
0.00621162
-0.000920199
0.00605284
-0.00105803
0.0058907
-0.00110317
0.00573789
-0.00107085
0.00560286
-0.00098534
0.00548884
-0.000872648
0.0053952
-0.000753422
0.00531902
-0.000639541
0.00525751
-0.000537286
0.0052082
-0.000451213
0.00516841
-0.000380922
0.00513526
-0.000322441
0.00510673
-0.000273445
0.00508189
-0.000234416
0.00505973
-0.000204516
0.00503868
-0.00018027
0.00501744
-0.000159196
0.00499545
-0.000141301
0.00497256
-0.000127398
0.00494868
-0.000116815
0.00492359
-0.000107736
0.00489712
-9.93886e-05
0.00486942
-9.21768e-05
0.00484094
-8.65833e-05
0.00481216
-8.23822e-05
0.00478365
-7.90231e-05
0.00475571
-7.60058e-05
0.00472862
-7.33611e-05
0.00470289
-7.1368e-05
0.00467876
-6.99353e-05
0.00465625
-6.88674e-05
0.00463532
-6.79255e-05
0.00461585
-6.69732e-05
0.00459777
-6.5994e-05
0.00458099
-6.50552e-05
0.00456545
-6.42016e-05
0.00455103
-6.3367e-05
0.00453764
-6.25251e-05
0.00452518
-6.16451e-05
0.0045136
-6.0693e-05
0.00450286
-5.97333e-05
0.00449294
-5.88665e-05
0.00448377
-5.81145e-05
0.00447528
-5.73987e-05
0.00446736
-5.66286e-05
0.00445996
-5.58024e-05
0.00445309
-5.49834e-05
0.00444672
-5.42329e-05
0.00444082
-5.35374e-05
0.00443535
-5.28957e-05
0.0044303
-5.22677e-05
0.00442563
-5.15915e-05
0.00442131
-5.08664e-05
0.00441733
-5.0155e-05
0.00441366
-4.94928e-05
0.00441028
-4.88829e-05
0.00440717
-4.82848e-05
0.00440426
-4.76586e-05
0.00440154
-4.69979e-05
0.00439899
-4.63451e-05
0.0043966
-4.5703e-05
0.00439435
-4.50965e-05
0.00439224
-4.45022e-05
0.00439025
-4.392e-05
0.00438836
-4.33206e-05
0.00438656
-4.27197e-05
0.00438484
-4.21107e-05
0.00438318
-4.15163e-05
0.00438158
-4.09275e-05
0.00438003
-4.03503e-05
0.00437852
-3.97634e-05
0.00437705
-3.91776e-05
0.00437562
-3.85828e-05
0.0043742
-3.80001e-05
0.00437281
-3.74162e-05
0.00437145
-3.68463e-05
0.0043701
-3.62689e-05
0.00436877
-3.57012e-05
0.00436746
-3.51253e-05
0.00436616
-3.45631e-05
0.00436488
-3.39978e-05
0.00436362
-3.34496e-05
0.00436236
-3.28995e-05
0.00436113
-3.23678e-05
0.00435991
-3.18376e-05
0.0043587
-3.13342e-05
0.00435751
-3.08398e-05
0.00435633
-3.03961e-05
0.00435517
-2.9964e-05
0.00435402
-2.96746e-05
0.00435289
-2.93662e-05
0.00435176
-2.95214e-05
0.00435065
-2.94243e-05
0.0043495
-3.07297e-05
-3.0686e-05
0.0064645
2.71009e-05
0.00648861
-8.35562e-06
0.00648172
-0.000149035
0.00642849
-0.000370269
0.00633104
-0.000600008
0.00619798
-0.000787145
0.00604461
-0.000904657
0.00588736
-0.00094593
0.00573863
-0.000922116
0.00560633
-0.000853045
0.00549373
-0.000760047
0.00540017
-0.000659865
0.00532328
-0.000562648
0.00526116
-0.000475165
0.00521168
-0.000401733
0.00517177
-0.000341017
0.00513862
-0.000289286
0.00511122
-0.000246043
0.00508941
-0.000212612
0.00507198
-0.00018708
0.00505686
-0.000165158
0.00504312
-0.000145452
0.00503142
-0.000129602
0.00502207
-0.000118043
0.00501392
-0.000108675
0.00500582
-9.96269e-05
0.00499756
-9.11287e-05
0.00498941
-8.40271e-05
0.00498126
-7.84324e-05
0.00497276
-7.38863e-05
0.00496352
-6.97848e-05
0.00495315
-6.56328e-05
0.00494144
-6.1653e-05
0.00492846
-5.83836e-05
0.0049144
-5.58815e-05
0.00489942
-5.38898e-05
0.0048836
-5.21011e-05
0.00486701
-5.03855e-05
0.00484982
-4.88035e-05
0.00483226
-4.74959e-05
0.00481468
-4.66206e-05
0.00479745
-4.61366e-05
0.00478071
-4.57864e-05
0.00476449
-4.54227e-05
0.00474888
-4.50801e-05
0.004734
-4.48577e-05
0.00471993
-4.47973e-05
0.00470665
-4.48283e-05
0.00469408
-4.48286e-05
0.00468217
-4.47195e-05
0.00467088
-4.452e-05
0.00466021
-4.43066e-05
0.00465009
-4.41177e-05
0.0046405
-4.39493e-05
0.0046314
-4.37922e-05
0.00462274
-4.36107e-05
0.00461454
-4.33842e-05
0.00460678
-4.31083e-05
0.00459944
-4.2819e-05
0.00459249
-4.25436e-05
0.00458589
-4.2281e-05
0.00457961
-4.20037e-05
0.00457362
-4.16697e-05
0.0045679
-4.12752e-05
0.00456241
-4.08546e-05
0.00455713
-4.04205e-05
0.00455202
-3.99917e-05
0.00454707
-3.95534e-05
0.00454226
-3.91073e-05
0.00453756
-3.86234e-05
0.00453297
-3.8124e-05
0.00452846
-3.76032e-05
0.00452403
-3.70895e-05
0.00451968
-3.65733e-05
0.00451539
-3.60639e-05
0.00451117
-3.55384e-05
0.004507
-3.50126e-05
0.00450289
-3.44753e-05
0.00449884
-3.39483e-05
0.00449485
-3.34212e-05
0.00449091
-3.29066e-05
0.00448702
-3.23846e-05
0.00448319
-3.18706e-05
0.00447942
-3.1349e-05
0.00447569
-3.08411e-05
0.00447203
-3.03308e-05
0.00446842
-2.98379e-05
0.00446486
-2.9343e-05
0.00446136
-2.8867e-05
0.00445791
-2.83923e-05
0.00445452
-2.79444e-05
0.00445119
-2.75063e-05
0.00444791
-2.71152e-05
0.00444468
-2.67391e-05
0.0044415
-2.6492e-05
0.00443838
-2.62409e-05
0.00443525
-2.63973e-05
0.00443222
-2.63886e-05
0.00442904
-2.75549e-05
-2.78756e-05
0.00645963
9.85241e-06
0.00647551
-2.42332e-05
0.00646423
-0.000137754
0.00641073
-0.000316771
0.00631603
-0.000505312
0.00618842
-0.000659534
0.00604149
-0.000757728
0.00588979
-0.00079423
0.00574495
-0.000777269
0.00561495
-0.000723044
0.00550318
-0.000648276
0.00540922
-0.000565905
0.00533155
-0.000484984
0.00526898
-0.000412596
0.00521892
-0.00035167
0.00517767
-0.00029977
0.00514322
-0.000254833
0.00511563
-0.000218451
0.0050941
-0.000191087
0.005076
-0.000168974
0.00505953
-0.000148688
0.00504543
-0.000131349
0.0050346
-0.000118778
0.005026
-0.000109444
0.00501796
-0.000100635
0.00501016
-9.18227e-05
0.00500339
-8.43611e-05
0.0049982
-7.88322e-05
0.00499418
-7.4412e-05
0.00499049
-7.01998e-05
0.00498658
-6.58745e-05
0.00498274
-6.17895e-05
0.00497952
-5.84389e-05
0.00497688
-5.57387e-05
0.00497439
-5.33921e-05
0.00497169
-5.11891e-05
0.00496853
-4.89419e-05
0.00496487
-4.67274e-05
0.00496081
-4.47389e-05
0.00495637
-4.30608e-05
0.00495146
-4.17138e-05
0.0049459
-4.05755e-05
0.00493953
-3.94083e-05
0.00493226
-3.81604e-05
0.00492415
-3.69701e-05
0.00491531
-3.60129e-05
0.00490586
-3.53462e-05
0.00489589
-3.48605e-05
0.00488547
-3.44071e-05
0.00487468
-3.39285e-05
0.00486362
-3.34642e-05
0.00485241
-3.30995e-05
0.00484117
-3.28784e-05
0.00483002
-3.27944e-05
0.00481898
-3.27495e-05
0.00480805
-3.26815e-05
0.00479726
-3.25951e-05
0.00478667
-3.25157e-05
0.0047763
-3.245e-05
0.00476615
-3.23939e-05
0.0047562
-3.23292e-05
0.00474644
-3.22474e-05
0.00473691
-3.2141e-05
0.00472762
-3.19849e-05
0.00471854
-3.17751e-05
0.00470965
-3.15297e-05
0.00470092
-3.12655e-05
0.00469236
-3.09874e-05
0.00468394
-3.06897e-05
0.00467566
-3.03467e-05
0.00466752
-2.99821e-05
0.00465951
-2.95905e-05
0.00465162
-2.92005e-05
0.00464385
-2.88046e-05
0.0046362
-2.84121e-05
0.00462866
-2.80028e-05
0.00462125
-2.75942e-05
0.00461394
-2.71722e-05
0.00460675
-2.67609e-05
0.00459968
-2.63477e-05
0.00459272
-2.59469e-05
0.00458588
-2.55379e-05
0.00457914
-2.51372e-05
0.00457252
-2.47318e-05
0.00456602
-2.4339e-05
0.00455964
-2.39463e-05
0.00455337
-2.35696e-05
0.00454722
-2.31932e-05
0.00454119
-2.28343e-05
0.00453527
-2.24783e-05
0.00452948
-2.2147e-05
0.0045238
-2.18267e-05
0.00451823
-2.15464e-05
0.00451277
-2.12863e-05
0.00450741
-2.11292e-05
0.00450217
-2.09956e-05
0.00449693
-2.11602e-05
0.00449186
-2.13208e-05
0.00448653
-2.22257e-05
-2.32475e-05
0.00645566
-3.30157e-06
0.00646519
-3.37648e-05
0.00645042
-0.000122979
0.00639697
-0.000263323
0.00630461
-0.000412951
0.00618117
-0.000536092
0.00603902
-0.000615583
0.00589153
-0.000646736
0.0057499
-0.000635646
0.00562194
-0.00059508
0.00551077
-0.000537113
0.00541644
-0.000471571
0.00533847
-0.000407013
0.00527549
-0.000349618
0.00522409
-0.000300272
0.00518105
-0.000256726
0.00514577
-0.000219557
0.00511832
-0.000190995
0.00509612
-0.000168894
0.00507613
-0.000148983
0.00505857
-0.000131127
0.00504502
-0.000117793
0.00503461
-0.000108371
0.00502506
-9.98931e-05
0.0050156
-9.11778e-05
0.00500732
-8.3546e-05
0.00500101
-7.80522e-05
0.00499609
-7.39102e-05
0.00499153
-6.98521e-05
0.00498677
-6.54377e-05
0.00498224
-6.13419e-05
0.00497865
-5.82038e-05
0.00497595
-5.57357e-05
0.00497364
-5.34333e-05
0.00497129
-5.1035e-05
0.00496875
-4.86556e-05
0.00496642
-4.66063e-05
0.00496459
-4.49011e-05
0.00496313
-4.32816e-05
0.00496178
-4.17095e-05
0.00496032
-4.0255e-05
0.00495868
-3.89373e-05
0.004957
-3.77232e-05
0.00495536
-3.65215e-05
0.0049537
-3.53101e-05
0.00495191
-3.42195e-05
0.00494984
-3.32813e-05
0.00494739
-3.2405e-05
0.00494448
-3.14975e-05
0.0049411
-3.05552e-05
0.00493727
-2.9629e-05
0.00493294
-2.87726e-05
0.00492806
-2.79931e-05
0.00492253
-2.72705e-05
0.00491633
-2.65419e-05
0.00490944
-2.57922e-05
0.0049019
-2.5058e-05
0.00489377
-2.43829e-05
0.00488508
-2.37623e-05
0.00487586
-2.31799e-05
0.00486616
-2.26202e-05
0.004856
-2.20899e-05
0.00484546
-2.15993e-05
0.00483461
-2.11419e-05
0.00482355
-2.07076e-05
0.00481232
-2.02995e-05
0.00480097
-1.99202e-05
0.00478955
-1.9572e-05
0.0047781
-1.92366e-05
0.00476667
-1.89201e-05
0.0047553
-1.86091e-05
0.00474402
-1.8313e-05
0.00473285
-1.80284e-05
0.0047218
-1.77547e-05
0.00471089
-1.74985e-05
0.00470013
-1.72423e-05
0.00468953
-1.69979e-05
0.0046791
-1.67445e-05
0.00466885
-1.6509e-05
0.00465878
-1.62746e-05
0.00464889
-1.60583e-05
0.0046392
-1.58432e-05
0.0046297
-1.56366e-05
0.0046204
-1.54328e-05
0.0046113
-1.52382e-05
0.0046024
-1.50507e-05
0.0045937
-1.48745e-05
0.00458522
-1.47045e-05
0.00457693
-1.45451e-05
0.00456884
-1.43928e-05
0.00456095
-1.42559e-05
0.00455325
-1.41296e-05
0.00454574
-1.4031e-05
0.00453841
-1.39556e-05
0.00453122
-1.39432e-05
0.00452421
-1.3989e-05
0.00451723
-1.41742e-05
0.00451049
-1.45796e-05
0.00450335
-1.50871e-05
-1.71161e-05
0.00645273
-1.34585e-05
0.00645752
-3.85542e-05
0.00643989
-0.000105347
0.00638638
-0.000209818
0.00629583
-0.000322399
0.00617559
-0.000415849
0.00603717
-0.000477167
0.00589295
-0.000502509
0.00575366
-0.000496362
0.00562666
-0.000468081
0.00551494
-0.00042539
0.00541937
-0.000375998
0.00534035
-0.000327996
0.00527576
-0.000285033
0.00522157
-0.000246077
0.00517652
-0.000211674
0.00514103
-0.000184068
0.00511251
-0.000162473
0.00508723
-0.000143621
0.00506501
-0.000126764
0.00504736
-0.000113468
0.00503328
-0.000103718
0.00502032
-9.5404e-05
0.00500775
-8.73236e-05
0.0049967
-8.01306e-05
0.00498775
-7.45954e-05
0.00498005
-7.03544e-05
0.00497251
-6.63736e-05
0.00496484
-6.21784e-05
0.00495765
-5.82462e-05
0.00495141
-5.51078e-05
0.00494584
-5.26265e-05
0.0049404
-5.03033e-05
0.00493478
-4.78048e-05
0.00492904
-4.5296e-05
0.00492354
-4.31555e-05
0.00491835
-4.14177e-05
0.00491329
-3.98448e-05
0.0049082
-3.81931e-05
0.00490296
-3.64621e-05
0.00489754
-3.4841e-05
0.00489207
-3.34699e-05
0.00488661
-3.22616e-05
0.00488114
-3.10495e-05
0.00487562
-2.97905e-05
0.00486999
-2.8584e-05
0.00486418
-2.74763e-05
0.00485821
-2.64366e-05
0.00485213
-2.54182e-05
0.004846
-2.44211e-05
0.00483983
-2.34584e-05
0.0048336
-2.25413e-05
0.00482726
-2.16554e-05
0.00482078
-2.07924e-05
0.00481416
-1.99244e-05
0.00480743
-1.90627e-05
0.00480061
-1.82371e-05
0.0047937
-1.74657e-05
0.00478665
-1.67132e-05
0.00477942
-1.59574e-05
0.004772
-1.51958e-05
0.00476437
-1.4457e-05
0.00475653
-1.37616e-05
0.00474849
-1.31068e-05
0.00474026
-1.24727e-05
0.00473182
-1.18559e-05
0.00472316
-1.12634e-05
0.0047143
-1.0708e-05
0.00470525
-1.01881e-05
0.00469604
-9.71029e-06
0.0046867
-9.27242e-06
0.00467726
-8.86948e-06
0.00466773
-8.50124e-06
0.00465814
-8.16515e-06
0.00464851
-7.86565e-06
0.00463887
-7.60182e-06
0.00462924
-7.36751e-06
0.00461966
-7.16335e-06
0.00461013
-6.98516e-06
0.00460069
-6.83697e-06
0.00459135
-6.71409e-06
0.00458212
-6.61651e-06
0.00457302
-6.53779e-06
0.00456407
-6.47842e-06
0.00455527
-6.43478e-06
0.00454663
-6.40959e-06
0.00453815
-6.39894e-06
0.00452985
-6.40243e-06
0.00452172
-6.41509e-06
0.00451376
-6.43842e-06
0.00450598
-6.47092e-06
0.00449836
-6.51275e-06
0.0044909
-6.57102e-06
0.0044836
-6.65296e-06
0.00447641
-6.75798e-06
0.00446938
-6.95132e-06
0.00446232
-7.1215e-06
0.00445547
-7.72748e-06
0.00444816
-7.77508e-06
-1.07118e-05
0.0064508
-2.14626e-05
0.00645216
-3.99198e-05
0.00643219
-8.53722e-05
0.00637824
-0.000155876
0.00628837
-0.000232521
0.0061693
-0.000296782
0.00603183
-0.000339699
0.00588766
-0.000358339
0.00574738
-0.000356082
0.00561762
-0.000338322
0.00550208
-0.000309849
0.00540331
-0.000277231
0.0053202
-0.000244882
0.00524941
-0.000214243
0.00518971
-0.00018638
0.00514075
-0.000162715
0.00509981
-0.000143129
0.00506376
-0.000126423
0.00503206
-0.000111916
0.00500513
-9.98324e-05
0.00498168
-9.00203e-05
0.00495989
-8.19283e-05
0.00493937
-7.48875e-05
0.00492071
-6.86574e-05
0.00490385
-6.32763e-05
0.00488796
-5.86982e-05
0.00487236
-5.4754e-05
0.00485714
-5.11593e-05
0.00484268
-4.7719e-05
0.00482896
-4.4523e-05
0.00481559
-4.17372e-05
0.00480228
-3.93235e-05
0.00478906
-3.70833e-05
0.00477611
-3.48528e-05
0.00476351
-3.26923e-05
0.00475113
-3.07792e-05
0.00473883
-2.91121e-05
0.00472655
-2.75722e-05
0.0047144
-2.60426e-05
0.00470246
-2.45204e-05
0.00469072
-2.30991e-05
0.00467911
-2.18582e-05
0.0046676
-2.07505e-05
0.00465622
-1.96748e-05
0.00464503
-1.85942e-05
0.00463401
-1.75684e-05
0.00462317
-1.66322e-05
0.0046125
-1.57706e-05
0.00460203
-1.4948e-05
0.00459177
-1.41586e-05
0.00458172
-1.34081e-05
0.00457188
-1.27017e-05
0.00456225
-1.20307e-05
0.00455285
-1.13906e-05
0.0045437
-1.0768e-05
0.0045348
-1.01652e-05
0.00452616
-9.59681e-06
0.00451776
-9.06922e-06
0.00450961
-8.56212e-06
0.00450171
-8.05915e-06
0.00449407
-7.55882e-06
0.0044867
-7.08127e-06
0.00447957
-6.63579e-06
0.00447269
-6.21867e-06
0.00446602
-5.81147e-06
0.00445958
-5.41343e-06
0.00445334
-5.02637e-06
0.0044473
-4.6638e-06
0.00444143
-4.31997e-06
0.00443572
-3.99974e-06
0.00443016
-3.70663e-06
0.00442472
-3.43175e-06
0.00441939
-3.17504e-06
0.00441417
-2.93964e-06
0.00440902
-2.72387e-06
0.00440396
-2.53579e-06
0.00439896
-2.36512e-06
0.00439401
-2.21635e-06
0.00438911
-2.08378e-06
0.00438424
-1.97118e-06
0.00437941
-1.87744e-06
0.00437459
-1.80001e-06
0.00436979
-1.73949e-06
0.004365
-1.69077e-06
0.00436022
-1.65655e-06
0.00435545
-1.63551e-06
0.00435068
-1.62921e-06
0.00434591
-1.63436e-06
0.00434115
-1.65059e-06
0.00433639
-1.67673e-06
0.00433163
-1.71368e-06
0.00432688
-1.7629e-06
0.00432213
-1.82448e-06
0.00431739
-1.91335e-06
0.00431264
-2e-06
0.00430788
-2.19248e-06
0.00430301
-2.25837e-06
0.00429815
-2.86583e-06
0.00429293
-2.55768e-06
-5.63646e-06
0.00644653
-2.70128e-05
0.00644397
-3.73617e-05
0.00642001
-6.141e-05
0.00636214
-9.80092e-05
0.00626748
-0.000137856
0.00614212
-0.000171423
0.00599643
-0.000194014
0.00584216
-0.00020407
0.00568917
-0.000203086
0.00554464
-0.000193791
0.00541368
-0.000178891
0.00529764
-0.000161197
0.00519581
-0.000143046
0.00510746
-0.000125894
0.0050315
-0.000110424
0.00496562
-9.68321e-05
0.0049075
-8.50053e-05
0.00485586
-7.47841e-05
0.00481001
-6.60661e-05
0.00476884
-5.8669e-05
0.00473109
-5.22652e-05
0.00469618
-4.70231e-05
0.00466395
-4.26572e-05
0.00463421
-3.89184e-05
0.00460646
-3.55264e-05
0.0045802
-3.24306e-05
0.0045552
-2.9756e-05
0.00453148
-2.74419e-05
0.00450904
-2.52799e-05
0.00448771
-2.31916e-05
0.00446727
-2.12938e-05
0.00444759
-1.96437e-05
0.00442868
-1.81797e-05
0.00441061
-1.67767e-05
0.00439334
-1.54205e-05
0.00437675
-1.4194e-05
0.00436076
-1.312e-05
0.00434534
-1.21564e-05
0.00433054
-1.12394e-05
0.00431637
-1.03469e-05
0.00430278
-9.51222e-06
0.0042897
-8.7809e-06
0.00427709
-8.14015e-06
0.00426496
-7.53883e-06
0.00425331
-6.94882e-06
0.00424214
-6.39578e-06
0.00423141
-5.89898e-06
0.00422109
-5.45057e-06
0.00421117
-5.03254e-06
0.00420165
-4.63844e-06
0.00419251
-4.27065e-06
0.00418374
-3.93307e-06
0.00417533
-3.62062e-06
0.00416727
-3.3308e-06
0.00415956
-3.05711e-06
0.0041522
-2.79818e-06
0.00414516
-2.55912e-06
0.00413843
-2.34421e-06
0.00413202
-2.14431e-06
0.00412591
-1.9515e-06
0.00412011
-1.76215e-06
0.00411462
-1.58577e-06
0.0041094
-1.42481e-06
0.00410446
-1.27833e-06
0.00409979
-1.13522e-06
0.00409537
-9.96106e-07
0.0040912
-8.58536e-07
0.00408727
-7.31213e-07
0.00408356
-6.06914e-07
0.00408004
-4.83143e-07
0.00407672
-3.82366e-07
0.00407356
-2.79115e-07
0.00407057
-1.80388e-07
0.00406772
-8.60406e-08
0.00406499
4.10879e-09
0.00406237
8.33623e-08
0.00405985
1.5684e-07
0.00405741
2.19031e-07
0.00405505
2.76082e-07
0.00405276
3.24047e-07
0.00405052
3.63089e-07
0.00404832
3.94987e-07
0.00404616
4.17229e-07
0.00404404
4.34277e-07
0.00404194
4.45907e-07
0.00403985
4.51338e-07
0.00403777
4.51479e-07
0.00403569
4.47835e-07
0.0040336
4.38091e-07
0.00403149
4.26106e-07
0.00402938
4.04544e-07
0.00402724
3.78693e-07
0.00402507
3.38655e-07
0.00402287
2.88261e-07
0.00402062
2.49408e-07
0.0040183
1.26054e-07
0.00401589
1.51045e-07
0.00401334
-3.11472e-07
0.00401062
1.60041e-07
-2.32778e-06
0.00625665
0.00621968
0.00615866
0.00606105
0.00592359
0.00575257
0.00555896
0.00535529
0.00515262
0.00495924
0.00478077
0.00461999
0.00447737
0.00435191
0.00424192
0.00414552
0.00406095
0.0039866
0.00392097
0.00386275
0.00381092
0.00376434
0.00372213
0.00368366
0.00364858
0.00361659
0.00358729
0.00356029
0.00353546
0.00351272
0.00349188
0.00347268
0.00345496
0.00343863
0.00342366
0.00340992
0.00339725
0.00338555
0.00337476
0.00336487
0.00335581
0.00334748
0.0033398
0.00333271
0.00332622
0.00332028
0.00331483
0.00330984
0.00330526
0.00330108
0.00329726
0.00329378
0.00329062
0.00328774
0.00328514
0.0032828
0.00328069
0.0032788
0.00327711
0.00327562
0.00327431
0.00327318
0.00327221
0.00327139
0.00327071
0.00327017
0.00326976
0.00326949
0.00326934
0.00326931
0.00326938
0.00326956
0.00326983
0.0032702
0.00327066
0.0032712
0.00327181
0.00327248
0.00327321
0.00327399
0.00327481
0.00327566
0.00327653
0.00327742
0.00327832
0.00327923
0.00328014
0.00328104
0.00328193
0.00328281
0.00328367
0.0032845
0.0032853
0.00328604
0.00328674
0.00328732
0.00328793
0.00328807
0.00328869
-0.000831931
0.000788343
-0.00121946
0.000387527
-0.00139906
0.000179604
-0.00140205
2.98388e-06
-0.00126096
-0.00014109
-0.000964944
-0.000296012
-0.000524487
-0.000440457
-0.000525013
-0.000754951
0.00166096
-0.00111808
0.000750658
-0.00122824
0.000289766
-0.00120009
-2.51743e-05
-0.00105429
-0.000286883
-0.00080876
-0.000541545
-0.000456447
-0.00079277
-0.000981964
-0.000156197
0.00225018
-0.000557935
0.0011524
-0.000717708
0.000449539
-0.000731038
-1.18449e-05
-0.000650844
-0.000367076
-0.000507295
-0.000685094
-0.000303369
-0.000996696
-0.00128582
0.00042966
0.00257866
9.69591e-05
0.0014851
-0.000111093
0.000657591
-0.000205852
8.29145e-05
-0.000222048
-0.000350881
-0.000187707
-0.000719434
-0.000121698
-0.00106271
-0.00140799
0.000870298
0.00276483
0.000617311
0.00173808
0.00039523
0.000879672
0.000239663
0.000238481
0.000137923
-0.000249141
7.01119e-05
-0.000651623
2.21291e-05
-0.00101472
-0.00138632
0.00119707
0.00287795
0.000996738
0.00193841
0.000781889
0.00109452
0.000592641
0.000427729
0.000428779
-8.52789e-05
0.000279859
-0.000502703
0.000137298
-0.000872161
-0.00124949
0.00139124
0.00294684
0.00123795
0.0020917
0.00104153
0.00129093
0.00083583
0.000633433
0.000631629
0.000118921
0.000426455
-0.000297528
0.00021594
-0.000661646
-0.00103401
0.00145066
0.00299259
0.00133258
0.00220978
0.00116184
0.00146168
0.000958542
0.00083673
0.000737532
0.000339932
0.000503664
-6.36608e-05
0.000257025
-0.000415008
-0.000777464
0.00141297
0.00302252
0.00131818
0.00230456
0.00116842
0.00161144
0.000977327
0.00102782
0.000758628
0.00055863
0.00052058
0.000174388
0.000266351
-0.000160779
-0.000511598
0.00130664
0.00303899
0.00123236
0.00237883
0.00110364
0.00174017
0.000929985
0.00120147
0.000724802
0.000763812
0.00049801
0.000401181
0.000254481
8.275e-05
-0.000257613
0.00116645
0.00304296
0.00111058
0.0024347
0.00100148
0.00184927
0.000848326
0.00135463
0.000663767
0.000948371
0.000456939
0.000608009
0.000233401
0.000306289
-2.47196e-05
0.00101854
0.00303647
0.000977902
0.00247533
0.000885782
0.00194139
0.00075278
0.00148763
0.000590856
0.00111029
0.00040762
0.000791245
0.00020922
0.000504688
0.000183989
0.000878168
0.00302265
0.000849242
0.00250426
0.000772305
0.00201833
0.000657621
0.00160231
0.000516462
0.00125145
0.000355869
0.000951838
0.000181844
0.000678713
0.000365326
0.000753075
0.00300421
0.000732776
0.00252456
0.000668681
0.00208242
0.000570277
0.00170072
0.000448034
0.0013737
0.000308473
0.0010914
0.000157212
0.000829974
0.000522037
0.000646553
0.00298367
0.000631799
0.00253931
0.000578295
0.00213593
0.0004944
0.00178461
0.000388874
0.00147922
0.000267791
0.00121248
0.000136365
0.000961399
0.000657904
0.000558205
0.00296341
0.000546069
0.00255145
0.000500965
0.00218103
0.000429877
0.0018557
0.000338994
0.00157011
0.000233815
0.00131766
0.000119005
0.00107621
0.000776415
0.000485518
0.00294475
0.000474608
0.00256236
0.000435801
0.00221984
0.000374897
0.0019166
0.000296343
0.00164866
0.000204762
0.00140924
0.000103936
0.00117703
0.000879859
0.000425315
0.00292817
0.000415181
0.00257249
0.000381146
0.00225388
0.00032812
0.00196963
0.000259683
0.0017171
0.00017961
0.00148932
9.09309e-05
0.00126571
0.0009703
0.000375683
0.00291393
0.000366053
0.00258212
0.000335731
0.0022842
0.000288939
0.00201642
0.000228716
0.00177732
0.000158229
0.0015598
8.0108e-05
0.00134384
0.00104992
0.000335515
0.00290203
0.000326112
0.00259153
0.000298654