/*--------------------------------*- C++ -*----------------------------------*\
| =========                 |                                                 |
| \\      /  F ield         | OpenFOAM: The Open Source CFD Toolbox           |
|  \\    /   O peration     | Version:  v2012                                 |
|   \\  /    A nd           | Website:  www.openfoam.com                      |
|    \\/     M anipulation  |                                                 |
\*---------------------------------------------------------------------------*/
FoamFile
{
    version     2.0;
    format      ascii;
    class       surfaceScalarField;
    location    "0.022";
    object      phi.air;
}
// * * * * * * * * * * * * * * * * * * * * * * * * * * * * * * * * * * * * * //

dimensions      [0 3 -1 0 0 0 0];
oriented        oriented;


internalField   nonuniform List<scalar> 
10964
(
0.000657109
2.51242e-05
0.000628946
2.73222e-05
0.000601346
2.67564e-05
0.000575059
2.54407e-05
0.000551094
2.31172e-05
0.000529849
2.03947e-05
0.000511784
1.72143e-05
0.00049723
1.37013e-05
0.000486553
9.82364e-06
0.000479638
6.06076e-06
0.000475703
3.08024e-06
0.000473768
1.07941e-06
0.000472961
-4.81333e-08
0.000472696
-5.89604e-07
0.000472645
-8.04473e-07
0.000472662
-8.71632e-07
0.000472689
-8.82594e-07
0.00047271
-8.75931e-07
0.000472722
-8.66237e-07
0.000472727
-8.60403e-07
0.000472729
-8.57465e-07
0.00047273
-8.56081e-07
0.000472731
-8.55471e-07
0.000472731
-8.55211e-07
0.000472731
-8.55105e-07
0.000472731
-8.55064e-07
0.000472731
-8.55048e-07
0.000472731
-8.55043e-07
0.000472731
-8.55041e-07
0.000472731
-8.55039e-07
0.000472731
-8.55039e-07
0.000472731
-8.55039e-07
0.000472731
-8.55039e-07
0.000472731
-8.5504e-07
0.000472731
-8.5504e-07
0.000472731
-8.5504e-07
0.000472731
-8.55039e-07
0.000472731
-8.5504e-07
0.000472731
-8.5504e-07
0.000472731
-8.55039e-07
0.000472731
-8.55039e-07
0.000472731
-8.5504e-07
0.000472731
-8.55039e-07
0.000472731
-8.55039e-07
0.000472731
-8.5504e-07
0.000472731
-8.55039e-07
0.000472731
-8.55038e-07
0.000472731
-8.55038e-07
0.000472731
-8.5504e-07
0.000472731
-8.55041e-07
0.000472731
-8.5504e-07
0.000472731
-8.55039e-07
0.000472731
-8.55039e-07
0.000472731
-8.55039e-07
0.000472731
-8.55039e-07
0.000472731
-8.55039e-07
0.000472731
-8.5504e-07
0.000472731
-8.5504e-07
0.000472731
-8.55041e-07
0.000472731
-8.5504e-07
0.000472731
-8.55039e-07
0.000472732
-8.55039e-07
0.000472732
-8.55039e-07
0.000472732
-8.55039e-07
0.000472732
-8.55039e-07
0.000472732
-8.55039e-07
0.000472732
-8.5504e-07
0.000472732
-8.5504e-07
0.000472732
-8.55039e-07
0.000472732
-8.55038e-07
0.000472732
-8.55038e-07
0.000472732
-8.55039e-07
0.000472732
-8.5504e-07
0.000472732
-8.55041e-07
0.000472732
-8.55039e-07
0.000472732
-8.55043e-07
0.000472732
-8.55032e-07
0.000472732
-8.55066e-07
0.000472732
-8.5496e-07
0.000472732
-8.55272e-07
0.000472731
-8.544e-07
0.000472733
-8.567e-07
0.000472729
-8.50978e-07
0.000472738
-8.64304e-07
0.000472719
-8.35437e-07
0.000472756
-8.92907e-07
0.00047269
-7.88776e-07
0.000472791
-9.55622e-07
0.00047266
-7.24345e-07
0.000472779
-9.74093e-07
0.000472721
-7.97211e-07
0.000472632
-7.65872e-07
0.000472831
-1.05348e-06
0.000472542
-5.66323e-07
0.000472521
-8.33886e-07
0.00047318
-1.51482e-06
0.000471742
5.8415e-07
0.000468783
2.10122e-06
0.000473659
-5.72746e-06
5.90438e-05
0.000413756
0.000757086
2.43186e-05
0.00075487
2.95379e-05
0.000751203
3.04235e-05
0.000745942
3.07016e-05
0.000739391
2.96682e-05
0.00073177
2.80161e-05
0.000723083
2.59006e-05
0.000713813
2.29716e-05
0.000705419
1.82181e-05
0.00069925
1.22292e-05
0.000695429
6.90106e-06
0.000693397
3.1114e-06
0.000692461
8.88145e-07
0.000692128
-2.56612e-07
0.00069207
-7.4606e-07
0.000692114
-9.15864e-07
0.000692185
-9.53492e-07
0.000692238
-9.29453e-07
0.000692268
-8.95515e-07
0.000692282
-8.75125e-07
0.000692289
-8.64416e-07
0.000692292
-8.59195e-07
0.000692294
-8.56807e-07
0.000692294
-8.55767e-07
0.000692295
-8.55332e-07
0.000692295
-8.55159e-07
0.000692295
-8.55092e-07
0.000692295
-8.55068e-07
0.000692295
-8.55057e-07
0.000692295
-8.55052e-07
0.000692295
-8.55051e-07
0.000692295
-8.55052e-07
0.000692295
-8.55052e-07
0.000692295
-8.55053e-07
0.000692295
-8.55054e-07
0.000692295
-8.55053e-07
0.000692295
-8.55052e-07
0.000692295
-8.55053e-07
0.000692295
-8.55053e-07
0.000692295
-8.55052e-07
0.000692295
-8.55052e-07
0.000692295
-8.55053e-07
0.000692295
-8.55053e-07
0.000692295
-8.55053e-07
0.000692295
-8.55053e-07
0.000692295
-8.55051e-07
0.000692295
-8.55049e-07
0.000692295
-8.5505e-07
0.000692295
-8.55053e-07
0.000692295
-8.55054e-07
0.000692295
-8.55054e-07
0.000692295
-8.55053e-07
0.000692295
-8.55052e-07
0.000692295
-8.55053e-07
0.000692295
-8.55053e-07
0.000692295
-8.55052e-07
0.000692295
-8.55053e-07
0.000692295
-8.55054e-07
0.000692295
-8.55055e-07
0.000692295
-8.55054e-07
0.000692295
-8.55052e-07
0.000692295
-8.55051e-07
0.000692295
-8.55052e-07
0.000692295
-8.55052e-07
0.000692295
-8.55052e-07
0.000692295
-8.55053e-07
0.000692295
-8.55053e-07
0.000692295
-8.55052e-07
0.000692295
-8.5505e-07
0.000692295
-8.55049e-07
0.000692295
-8.5505e-07
0.000692295
-8.55052e-07
0.000692295
-8.55053e-07
0.000692295
-8.55054e-07
0.000692295
-8.55053e-07
0.000692295
-8.55056e-07
0.000692295
-8.5505e-07
0.000692295
-8.5507e-07
0.000692295
-8.55006e-07
0.000692295
-8.55188e-07
0.000692296
-8.54684e-07
0.000692295
-8.56009e-07
0.000692297
-8.52712e-07
0.000692293
-8.6039e-07
0.000692301
-8.43681e-07
0.000692285
-8.77144e-07
0.000692312
-8.15581e-07
0.000692272
-9.15891e-07
0.000692319
-7.71126e-07
0.000692282
-9.3684e-07
0.000692286
-8.01251e-07
0.000692338
-8.17857e-07
0.000692209
-9.24347e-07
0.000692336
-6.93613e-07
0.000692504
-1.00185e-06
0.000691557
-5.67568e-07
0.000692537
-3.96466e-07
0.000689162
5.47662e-06
0.000689769
-6.33404e-06
0.000103419
0.000645393
0.000840356
2.12956e-05
0.000842304
2.75903e-05
0.000844254
2.84734e-05
0.000845663
2.92928e-05
0.000846305
2.90259e-05
0.000846056
2.82647e-05
0.000844895
2.70619e-05
0.000842802
2.50644e-05
0.000840135
2.08851e-05
0.00083771
1.46546e-05
0.000836172
8.43875e-06
0.000835476
3.8074e-06
0.000835304
1.06018e-06
0.000835398
-3.50207e-07
0.000835645
-9.93504e-07
0.000835912
-1.18304e-06
0.000836104
-1.14558e-06
0.000836222
-1.04665e-06
0.000836288
-9.61557e-07
0.000836322
-9.09636e-07
0.000836339
-8.81382e-07
0.000836347
-8.67106e-07
0.000836351
-8.60334e-07
0.000836352
-8.57279e-07
0.000836353
-8.55963e-07
0.000836353
-8.55419e-07
0.000836353
-8.55202e-07
0.000836353
-8.55119e-07
0.000836353
-8.55086e-07
0.000836353
-8.55071e-07
0.000836353
-8.55067e-07
0.000836353
-8.55067e-07
0.000836353
-8.55068e-07
0.000836353
-8.55069e-07
0.000836353
-8.5507e-07
0.000836353
-8.5507e-07
0.000836353
-8.55069e-07
0.000836353
-8.55069e-07
0.000836353
-8.55069e-07
0.000836353
-8.55068e-07
0.000836353
-8.55068e-07
0.000836353
-8.55069e-07
0.000836353
-8.55069e-07
0.000836353
-8.55069e-07
0.000836353
-8.55069e-07
0.000836353
-8.55067e-07
0.000836353
-8.55064e-07
0.000836353
-8.55065e-07
0.000836353
-8.55068e-07
0.000836354
-8.5507e-07
0.000836354
-8.5507e-07
0.000836354
-8.55069e-07
0.000836354
-8.55069e-07
0.000836354
-8.55069e-07
0.000836354
-8.55069e-07
0.000836354
-8.55068e-07
0.000836354
-8.55069e-07
0.000836354
-8.5507e-07
0.000836354
-8.55071e-07
0.000836354
-8.5507e-07
0.000836354
-8.55068e-07
0.000836354
-8.55067e-07
0.000836354
-8.55067e-07
0.000836354
-8.55068e-07
0.000836354
-8.55069e-07
0.000836354
-8.5507e-07
0.000836354
-8.5507e-07
0.000836354
-8.55067e-07
0.000836354
-8.55064e-07
0.000836354
-8.55063e-07
0.000836354
-8.55065e-07
0.000836354
-8.55067e-07
0.000836354
-8.55068e-07
0.000836354
-8.5507e-07
0.000836354
-8.55071e-07
0.000836354
-8.55071e-07
0.000836354
-8.55073e-07
0.000836354
-8.55072e-07
0.000836354
-8.55069e-07
0.000836354
-8.55069e-07
0.000836354
-8.55071e-07
0.000836353
-8.55078e-07
0.000836356
-8.55005e-07
0.000836351
-8.55298e-07
0.000836361
-8.54285e-07
0.000836341
-8.57103e-07
0.000836375
-8.49847e-07
0.000836325
-8.65171e-07
0.000836389
-8.34972e-07
0.000836332
-8.80805e-07
0.000836357
-8.25344e-07
0.000836391
-8.51826e-07
0.0008363
-8.34255e-07
0.000836392
-7.85322e-07
0.000836421
-1.03054e-06
0.000835836
1.77627e-08
0.000836563
-1.12419e-06
0.000834675
7.36519e-06
0.000831252
-2.91094e-06
0.00011954
0.00081513
0.000930297
1.80717e-05
0.000933066
2.48212e-05
0.000936204
2.53354e-05
0.000939288
2.62088e-05
0.000942183
2.61302e-05
0.000944786
2.56617e-05
0.000946883
2.49654e-05
0.00094841
2.35372e-05
0.000949405
1.98899e-05
0.000950021
1.40384e-05
0.000950473
7.98735e-06
0.000950878
3.40195e-06
0.000951265
6.73956e-07
0.000951681
-7.66339e-07
0.000952097
-1.41018e-06
0.000952448
-1.53416e-06
0.000952695
-1.3921e-06
0.000952848
-1.19946e-06
0.000952935
-1.0492e-06
0.000952982
-9.56253e-07
0.000953005
-9.04657e-07
0.000953016
-8.78119e-07
0.000953021
-8.65309e-07
0.000953023
-8.59437e-07
0.000953024
-8.56869e-07
0.000953025
-8.55793e-07
0.000953025
-8.55359e-07
0.000953025
-8.5519e-07
0.000953025
-8.55123e-07
0.000953025
-8.55095e-07
0.000953025
-8.55086e-07
0.000953025
-8.55086e-07
0.000953025
-8.55087e-07
0.000953025
-8.55088e-07
0.000953025
-8.55088e-07
0.000953025
-8.55088e-07
0.000953025
-8.55088e-07
0.000953025
-8.55087e-07
0.000953025
-8.55088e-07
0.000953025
-8.55087e-07
0.000953025
-8.55085e-07
0.000953025
-8.55087e-07
0.000953025
-8.55087e-07
0.000953025
-8.55087e-07
0.000953025
-8.55087e-07
0.000953025
-8.55085e-07
0.000953025
-8.55082e-07
0.000953025
-8.55082e-07
0.000953025
-8.55086e-07
0.000953025
-8.55089e-07
0.000953025
-8.55089e-07
0.000953025
-8.55088e-07
0.000953025
-8.55087e-07
0.000953025
-8.55088e-07
0.000953026
-8.55088e-07
0.000953026
-8.55087e-07
0.000953026
-8.55087e-07
0.000953026
-8.55088e-07
0.000953026
-8.55089e-07
0.000953026
-8.55089e-07
0.000953026
-8.55086e-07
0.000953026
-8.55085e-07
0.000953026
-8.55085e-07
0.000953026
-8.55086e-07
0.000953026
-8.55087e-07
0.000953026
-8.55088e-07
0.000953026
-8.55088e-07
0.000953026
-8.55086e-07
0.000953026
-8.55081e-07
0.000953026
-8.5508e-07
0.000953026
-8.55083e-07
0.000953026
-8.55085e-07
0.000953026
-8.55086e-07
0.000953026
-8.55087e-07
0.000953026
-8.5509e-07
0.000953026
-8.55089e-07
0.000953026
-8.55095e-07
0.000953026
-8.55085e-07
0.000953026
-8.55101e-07
0.000953026
-8.55047e-07
0.000953026
-8.552e-07
0.000953026
-8.54819e-07
0.000953026
-8.55673e-07
0.000953025
-8.53891e-07
0.000953028
-8.57204e-07
0.000953023
-8.51732e-07
0.000953032
-8.59006e-07
0.000953018
-8.51767e-07
0.000953036
-8.52355e-07
0.000953019
-8.64364e-07
0.000953028
-8.34308e-07
0.000953031
-8.54376e-07
0.000953011
-8.1402e-07
0.000953027
-8.01936e-07
0.000952969
-9.72241e-07
0.000952845
1.41173e-07
0.000952616
-8.94428e-07
0.000951901
8.08006e-06
0.000946443
2.54655e-06
0.000117624
0.000948359
0.00102962
1.48797e-05
0.00103284
2.16063e-05
0.00103639
2.1783e-05
0.00104002
2.25805e-05
0.00104357
2.25798e-05
0.00104704
2.21862e-05
0.00105031
2.17032e-05
0.00105322
2.06214e-05
0.00105558
1.75348e-05
0.00105725
1.23643e-05
0.00105837
6.87115e-06
0.00105913
2.63933e-06
0.00105968
1.24051e-07
0.00106005
-1.13472e-06
0.00106038
-1.7374e-06
0.00106066
-1.81586e-06
0.00106086
-1.59643e-06
0.00106099
-1.33013e-06
0.00106107
-1.1268e-06
0.00106111
-9.99064e-07
0.00106113
-9.26807e-07
0.00106115
-8.88963e-07
0.00106115
-8.70371e-07
0.00106115
-8.61705e-07
0.00106115
-8.57851e-07
0.00106115
-8.56209e-07
0.00106115
-8.55537e-07
0.00106115
-8.55272e-07
0.00106115
-8.55168e-07
0.00106115
-8.55123e-07
0.00106115
-8.55108e-07
0.00106115
-8.55106e-07
0.00106115
-8.55108e-07
0.00106115
-8.55109e-07
0.00106115
-8.55109e-07
0.00106115
-8.55109e-07
0.00106115
-8.55109e-07
0.00106115
-8.55108e-07
0.00106115
-8.55109e-07
0.00106115
-8.55107e-07
0.00106115
-8.55105e-07
0.00106115
-8.55107e-07
0.00106115
-8.55107e-07
0.00106115
-8.55107e-07
0.00106115
-8.55107e-07
0.00106115
-8.55105e-07
0.00106115
-8.55103e-07
0.00106115
-8.55102e-07
0.00106115
-8.55106e-07
0.00106115
-8.55109e-07
0.00106115
-8.55109e-07
0.00106115
-8.55108e-07
0.00106115
-8.55107e-07
0.00106115
-8.55109e-07
0.00106115
-8.55109e-07
0.00106115
-8.55108e-07
0.00106115
-8.55108e-07
0.00106115
-8.55108e-07
0.00106115
-8.55109e-07
0.00106115
-8.55109e-07
0.00106115
-8.55106e-07
0.00106115
-8.55104e-07
0.00106115
-8.55105e-07
0.00106115
-8.55107e-07
0.00106115
-8.55108e-07
0.00106116
-8.55109e-07
0.00106116
-8.55109e-07
0.00106116
-8.55106e-07
0.00106116
-8.55101e-07
0.00106116
-8.551e-07
0.00106116
-8.55104e-07
0.00106116
-8.55106e-07
0.00106116
-8.55106e-07
0.00106116
-8.55107e-07
0.00106116
-8.5511e-07
0.00106116
-8.5511e-07
0.00106116
-8.55114e-07
0.00106116
-8.55106e-07
0.00106116
-8.55121e-07
0.00106116
-8.55074e-07
0.00106116
-8.55202e-07
0.00106116
-8.5488e-07
0.00106116
-8.55608e-07
0.00106116
-8.54082e-07
0.00106116
-8.5692e-07
0.00106116
-8.52189e-07
0.00106116
-8.58555e-07
0.00106116
-8.51845e-07
0.00106116
-8.53338e-07
0.00106115
-8.61617e-07
0.00106116
-8.36921e-07
0.00106115
-8.5104e-07
0.00106115
-8.14332e-07
0.00106115
-7.94456e-07
0.00106105
-8.79857e-07
0.00106107
1.28744e-07
0.00106058
-4.04196e-07
0.00106039
8.26546e-06
0.00105427
8.67116e-06
0.000104214
0.00106768
0.00113954
1.17734e-05
0.00114322
1.79262e-05
0.00114711
1.78974e-05
0.00115112
1.85712e-05
0.00115508
1.86168e-05
0.001159
1.82663e-05
0.0011628
1.79022e-05
0.00116632
1.71031e-05
0.00116926
1.45931e-05
0.00117142
1.02043e-05
0.00117283
5.46217e-06
0.00117365
1.81822e-06
0.00117407
-2.93926e-07
0.00117431
-1.37482e-06
0.00117448
-1.90502e-06
0.00117463
-1.97037e-06
0.00117475
-1.71592e-06
0.00117483
-1.40633e-06
0.00117487
-1.17115e-06
0.0011749
-1.02281e-06
0.00117491
-9.38724e-07
0.00117491
-8.94639e-07
0.00117492
-8.72962e-07
0.00117492
-8.62849e-07
0.00117492
-8.58343e-07
0.00117492
-8.56421e-07
0.00117492
-8.55634e-07
0.00117492
-8.55325e-07
0.00117492
-8.55203e-07
0.00117492
-8.55149e-07
0.00117492
-8.55131e-07
0.00117492
-8.55128e-07
0.00117492
-8.5513e-07
0.00117492
-8.55132e-07
0.00117492
-8.55131e-07
0.00117492
-8.55132e-07
0.00117492
-8.55132e-07
0.00117492
-8.55131e-07
0.00117492
-8.55131e-07
0.00117492
-8.5513e-07
0.00117492
-8.55127e-07
0.00117492
-8.55129e-07
0.00117492
-8.5513e-07
0.00117492
-8.55129e-07
0.00117492
-8.55129e-07
0.00117492
-8.55127e-07
0.00117492
-8.55125e-07
0.00117492
-8.55125e-07
0.00117492
-8.55129e-07
0.00117492
-8.55132e-07
0.00117492
-8.55132e-07
0.00117492
-8.5513e-07
0.00117492
-8.55129e-07
0.00117492
-8.55132e-07
0.00117492
-8.55133e-07
0.00117492
-8.55132e-07
0.00117492
-8.55131e-07
0.00117492
-8.55131e-07
0.00117492
-8.55131e-07
0.00117492
-8.5513e-07
0.00117492
-8.55128e-07
0.00117492
-8.55125e-07
0.00117492
-8.55126e-07
0.00117492
-8.55129e-07
0.00117492
-8.55131e-07
0.00117492
-8.55133e-07
0.00117492
-8.55132e-07
0.00117492
-8.55128e-07
0.00117492
-8.55123e-07
0.00117492
-8.55122e-07
0.00117492
-8.55127e-07
0.00117492
-8.5513e-07
0.00117492
-8.55129e-07
0.00117492
-8.5513e-07
0.00117492
-8.55132e-07
0.00117492
-8.55132e-07
0.00117492
-8.55135e-07
0.00117492
-8.55127e-07
0.00117492
-8.5514e-07
0.00117492
-8.55102e-07
0.00117492
-8.55205e-07
0.00117492
-8.54945e-07
0.00117492
-8.55537e-07
0.00117492
-8.54294e-07
0.00117492
-8.56599e-07
0.00117492
-8.52746e-07
0.00117492
-8.57907e-07
0.00117492
-8.52361e-07
0.00117492
-8.5358e-07
0.00117492
-8.59848e-07
0.00117492
-8.39289e-07
0.00117492
-8.4755e-07
0.00117492
-8.15587e-07
0.00117491
-7.82089e-07
0.00117486
-8.31737e-07
0.00117482
1.67672e-07
0.00117426
1.58057e-07
0.00117434
8.18491e-06
0.00116939
1.36164e-05
8.7128e-05
0.00118648
0.00126129
8.7141e-06
0.00126542
1.37928e-05
0.00126967
1.36491e-05
0.00127407
1.41692e-05
0.00127845
1.42415e-05
0.00128277
1.39481e-05
0.001287
1.36687e-05
0.00129099
1.31142e-05
0.00129434
1.12473e-05
0.00129674
7.8016e-06
0.00129825
3.95093e-06
0.00129909
9.82788e-07
0.00129944
-6.45874e-07
0.00129951
-1.45065e-06
0.00129952
-1.90844e-06
0.00129951
-1.96012e-06
0.0012995
-1.70517e-06
0.00129949
-1.40219e-06
0.00129949
-1.17229e-06
0.0012995
-1.0256e-06
0.0012995
-9.41437e-07
0.0012995
-8.96606e-07
0.0012995
-8.74151e-07
0.0012995
-8.63491e-07
0.0012995
-8.58667e-07
0.0012995
-8.56582e-07
0.0012995
-8.55718e-07
0.0012995
-8.55377e-07
0.0012995
-8.5524e-07
0.0012995
-8.55177e-07
0.0012995
-8.55156e-07
0.0012995
-8.55153e-07
0.0012995
-8.55155e-07
0.0012995
-8.55157e-07
0.0012995
-8.55157e-07
0.0012995
-8.55157e-07
0.0012995
-8.55158e-07
0.0012995
-8.55156e-07
0.0012995
-8.55156e-07
0.0012995
-8.55156e-07
0.0012995
-8.55153e-07
0.0012995
-8.55153e-07
0.0012995
-8.55154e-07
0.0012995
-8.55154e-07
0.0012995
-8.55153e-07
0.0012995
-8.55151e-07
0.0012995
-8.55151e-07
0.0012995
-8.55152e-07
0.0012995
-8.55155e-07
0.0012995
-8.55157e-07
0.0012995
-8.55156e-07
0.0012995
-8.55154e-07
0.0012995
-8.55153e-07
0.0012995
-8.55156e-07
0.0012995
-8.55158e-07
0.0012995
-8.55158e-07
0.0012995
-8.55158e-07
0.0012995
-8.55157e-07
0.0012995
-8.55156e-07
0.0012995
-8.55154e-07
0.0012995
-8.55151e-07
0.0012995
-8.55148e-07
0.0012995
-8.5515e-07
0.0012995
-8.55154e-07
0.0012995
-8.55157e-07
0.0012995
-8.55158e-07
0.0012995
-8.55156e-07
0.0012995
-8.55153e-07
0.0012995
-8.55149e-07
0.0012995
-8.55148e-07
0.0012995
-8.55152e-07
0.0012995
-8.55156e-07
0.0012995
-8.55155e-07
0.0012995
-8.55155e-07
0.0012995
-8.55157e-07
0.0012995
-8.55156e-07
0.0012995
-8.55158e-07
0.0012995
-8.55152e-07
0.0012995
-8.5516e-07
0.0012995
-8.55133e-07
0.0012995
-8.55207e-07
0.0012995
-8.55023e-07
0.0012995
-8.55442e-07
0.0012995
-8.54566e-07
0.0012995
-8.56168e-07
0.0012995
-8.5351e-07
0.0012995
-8.56928e-07
0.0012995
-8.53323e-07
0.0012995
-8.53332e-07
0.0012995
-8.58407e-07
0.0012995
-8.41354e-07
0.0012995
-8.44428e-07
0.0012995
-8.17155e-07
0.00129949
-7.70446e-07
0.0012994
-7.41751e-07
0.00129942
1.49907e-07
0.00129894
6.39577e-07
0.00129914
7.9811e-06
0.00129615
1.66115e-05
7.0098e-05
0.00131318
0.00139614
5.65502e-06
0.00140075
9.18618e-06
0.00140541
8.98974e-06
0.00141024
9.33061e-06
0.00141508
9.40453e-06
0.00141984
9.1853e-06
0.00142451
9.00689e-06
0.00142892
8.69742e-06
0.0014327
7.4706e-06
0.00143544
5.05548e-06
0.00143707
2.32131e-06
0.0014378
2.60315e-07
0.001438
-8.4664e-07
0.00143796
-1.4115e-06
0.00143781
-1.76197e-06
0.00143764
-1.78417e-06
0.0014375
-1.56493e-06
0.00143741
-1.31255e-06
0.00143736
-1.12233e-06
0.00143733
-1.00005e-06
0.00143732
-9.29091e-07
0.00143731
-8.90887e-07
0.00143731
-8.71596e-07
0.00143731
-8.62391e-07
0.00143731
-8.58216e-07
0.00143731
-8.56411e-07
0.00143731
-8.55663e-07
0.00143731
-8.5537e-07
0.00143731
-8.55255e-07
0.00143731
-8.55202e-07
0.00143731
-8.55182e-07
0.00143731
-8.5518e-07
0.00143731
-8.55183e-07
0.00143731
-8.55185e-07
0.00143731
-8.55185e-07
0.00143731
-8.55185e-07
0.00143731
-8.55186e-07
0.00143731
-8.55184e-07
0.00143731
-8.55184e-07
0.00143731
-8.55184e-07
0.00143731
-8.55181e-07
0.00143731
-8.5518e-07
0.00143731
-8.55182e-07
0.00143731
-8.55181e-07
0.00143731
-8.55179e-07
0.00143731
-8.55178e-07
0.00143731
-8.55178e-07
0.00143731
-8.55181e-07
0.00143731
-8.55185e-07
0.00143731
-8.55185e-07
0.00143731
-8.55182e-07
0.00143731
-8.5518e-07
0.00143731
-8.5518e-07
0.00143731
-8.55184e-07
0.00143731
-8.55187e-07
0.00143731
-8.55187e-07
0.00143731
-8.55188e-07
0.00143731
-8.55186e-07
0.00143731
-8.55183e-07
0.00143731
-8.5518e-07
0.00143731
-8.55177e-07
0.00143731
-8.55174e-07
0.00143731
-8.55176e-07
0.00143731
-8.55181e-07
0.00143731
-8.55185e-07
0.00143731
-8.55186e-07
0.00143731
-8.55184e-07
0.00143731
-8.55181e-07
0.00143731
-8.55178e-07
0.00143731
-8.55177e-07
0.00143731
-8.55181e-07
0.00143731
-8.55185e-07
0.00143731
-8.55184e-07
0.00143731
-8.55183e-07
0.00143731
-8.55184e-07
0.00143731
-8.55182e-07
0.00143731
-8.55183e-07
0.00143731
-8.55178e-07
0.00143731
-8.55184e-07
0.00143731
-8.55163e-07
0.00143731
-8.55219e-07
0.00143731
-8.55082e-07
0.00143731
-8.55401e-07
0.00143731
-8.54735e-07
0.00143731
-8.55942e-07
0.00143731
-8.53937e-07
0.00143731
-8.56464e-07
0.00143731
-8.53739e-07
0.00143731
-8.5347e-07
0.00143731
-8.57252e-07
0.00143731
-8.42932e-07
0.00143731
-8.42718e-07
0.00143731
-8.16689e-07
0.0014373
-7.6247e-07
0.00143727
-7.08563e-07
0.00143722
1.94049e-07
0.00143682
1.04675e-06
0.00143716
7.63726e-06
0.00143618
1.75883e-05
5.3947e-05
0.00145233
0.00154551
2.52677e-06
0.00155064
4.05771e-06
0.00155576
3.86591e-06
0.00156107
4.01903e-06
0.00156643
4.04323e-06
0.00157168
3.93593e-06
0.00157681
3.8781e-06
0.00158175
3.76466e-06
0.001586
3.21601e-06
0.00158901
2.04459e-06
0.00159068
6.4942e-07
0.00159136
-4.20963e-07
0.00159149
-9.75962e-07
0.00159134
-1.2584e-06
0.00159102
-1.44422e-06
0.00159068
-1.43977e-06
0.00159041
-1.30057e-06
0.00159024
-1.14387e-06
0.00159015
-1.02519e-06
0.0015901
-9.48456e-07
0.00159007
-9.03504e-07
0.00159006
-8.78964e-07
0.00159005
-8.66344e-07
0.00159005
-8.602e-07
0.00159005
-8.57354e-07
0.00159005
-8.56097e-07
0.00159005
-8.55564e-07
0.00159005
-8.5535e-07
0.00159005
-8.55266e-07
0.00159005
-8.55227e-07
0.00159005
-8.55211e-07
0.00159005
-8.55211e-07
0.00159005
-8.55214e-07
0.00159005
-8.55216e-07
0.00159005
-8.55215e-07
0.00159005
-8.55215e-07
0.00159005
-8.55217e-07
0.00159005
-8.55215e-07
0.00159005
-8.55214e-07
0.00159005
-8.55215e-07
0.00159005
-8.55212e-07
0.00159005
-8.55211e-07
0.00159005
-8.55212e-07
0.00159005
-8.55212e-07
0.00159005
-8.55209e-07
0.00159005
-8.55208e-07
0.00159005
-8.5521e-07
0.00159005
-8.55213e-07
0.00159005
-8.55216e-07
0.00159005
-8.55216e-07
0.00159005
-8.55212e-07
0.00159005
-8.5521e-07
0.00159005
-8.5521e-07
0.00159005
-8.55214e-07
0.00159005
-8.55218e-07
0.00159005
-8.55219e-07
0.00159005
-8.5522e-07
0.00159005
-8.55218e-07
0.00159005
-8.55213e-07
0.00159005
-8.55208e-07
0.00159005
-8.55206e-07
0.00159005
-8.55204e-07
0.00159005
-8.55206e-07
0.00159005
-8.55211e-07
0.00159005
-8.55216e-07
0.00159005
-8.55217e-07
0.00159005
-8.55214e-07
0.00159005
-8.55211e-07
0.00159005
-8.5521e-07
0.00159005
-8.55211e-07
0.00159005
-8.55213e-07
0.00159005
-8.55216e-07
0.00159005
-8.55216e-07
0.00159005
-8.55214e-07
0.00159005
-8.55214e-07
0.00159005
-8.55211e-07
0.00159005
-8.55211e-07
0.00159005
-8.55208e-07
0.00159005
-8.55211e-07
0.00159005
-8.55195e-07
0.00159005
-8.55236e-07
0.00159005
-8.55146e-07
0.00159005
-8.55358e-07
0.00159005
-8.54915e-07
0.00159005
-8.55705e-07
0.00159005
-8.54392e-07
0.00159005
-8.55951e-07
0.00159005
-8.54228e-07
0.00159005
-8.53592e-07
0.00159005
-8.5605e-07
0.00159005
-8.44784e-07
0.00159005
-8.40991e-07
0.00159005
-8.17489e-07
0.00159004
-7.54109e-07
0.00158997
-6.31487e-07
0.00159002
1.43486e-07
0.00158975
1.31701e-06
0.00159029
7.09199e-06
0.00159108
1.67999e-05
3.88959e-05
0.00160613
0.001711
-7.92112e-07
0.0017167
-1.6433e-06
0.00172236
-1.7889e-06
0.0017282
-1.82658e-06
0.00173415
-1.89909e-06
0.00173995
-1.86534e-06
0.00174561
-1.78043e-06
0.00175109
-1.72347e-06
0.00175586
-1.54841e-06
0.00175919
-1.29003e-06
0.00176096
-1.11772e-06
0.00176159
-1.05458e-06
0.00176166
-1.04221e-06
0.00176141
-1.01131e-06
0.00176095
-9.82056e-07
0.00176046
-9.46213e-07
0.00176008
-9.21554e-07
0.00175983
-9.00821e-07
0.00175969
-8.85e-07
0.00175962
-8.7343e-07
0.00175958
-8.65622e-07
0.00175956
-8.60815e-07
0.00175955
-8.58074e-07
0.00175955
-8.56611e-07
0.00175955
-8.55873e-07
0.00175955
-8.5552e-07
0.00175955
-8.55358e-07
0.00175955
-8.55289e-07
0.00175955
-8.55261e-07
0.00175955
-8.55247e-07
0.00175955
-8.55243e-07
0.00175955
-8.55245e-07
0.00175955
-8.55249e-07
0.00175955
-8.55251e-07
0.00175955
-8.55249e-07
0.00175955
-8.55248e-07
0.00175955
-8.55251e-07
0.00175955
-8.55249e-07
0.00175955
-8.55248e-07
0.00175955
-8.55248e-07
0.00175955
-8.55246e-07
0.00175955
-8.55245e-07
0.00175955
-8.55245e-07
0.00175955
-8.55245e-07
0.00175955
-8.55243e-07
0.00175955
-8.55241e-07
0.00175955
-8.55244e-07
0.00175955
-8.55248e-07
0.00175955
-8.55251e-07
0.00175955
-8.55249e-07
0.00175955
-8.55245e-07
0.00175955
-8.55243e-07
0.00175955
-8.55244e-07
0.00175955
-8.55248e-07
0.00175955
-8.55252e-07
0.00175955
-8.55254e-07
0.00175955
-8.55254e-07
0.00175955
-8.55252e-07
0.00175955
-8.55247e-07
0.00175955
-8.55241e-07
0.00175955
-8.55237e-07
0.00175955
-8.55237e-07
0.00175955
-8.5524e-07
0.00175955
-8.55245e-07
0.00175955
-8.55249e-07
0.00175955
-8.55251e-07
0.00175955
-8.55248e-07
0.00175955
-8.55245e-07
0.00175955
-8.55245e-07
0.00175955
-8.55247e-07
0.00175955
-8.55249e-07
0.00175955
-8.5525e-07
0.00175955
-8.55249e-07
0.00175955
-8.55248e-07
0.00175955
-8.55247e-07
0.00175955
-8.55244e-07
0.00175955
-8.55243e-07
0.00175955
-8.5524e-07
0.00175955
-8.55242e-07
0.00175955
-8.55231e-07
0.00175955
-8.5526e-07
0.00175955
-8.55201e-07
0.00175955
-8.55348e-07
0.00175955
-8.5504e-07
0.00175955
-8.55579e-07
0.00175955
-8.54675e-07
0.00175955
-8.55698e-07
0.00175955
-8.54506e-07
0.00175955
-8.53778e-07
0.00175955
-8.55355e-07
0.00175955
-8.46251e-07
0.00175955
-8.40672e-07
0.00175955
-8.17833e-07
0.00175955
-7.54482e-07
0.00175955
-6.2954e-07
0.00175954
1.58535e-07
0.00175943
1.42053e-06
0.00176022
6.30318e-06
0.00176241
1.46113e-05
2.53269e-05
0.00177598
0.00171104
-4.14528e-06
0.00171675
-7.35517e-06
0.00172241
-7.44804e-06
0.00172826
-7.67982e-06
0.00173421
-7.84528e-06
0.00174001
-7.66527e-06
0.00174567
-7.44039e-06
0.00175116
-7.21808e-06
0.00175593
-6.31348e-06
0.00175926
-4.61997e-06
0.00176101
-2.8737e-06
0.00176163
-1.67194e-06
0.00176167
-1.08342e-06
0.0017614
-7.40567e-07
0.00176094
-5.18823e-07
0.00176046
-4.72733e-07
0.0017601
-5.55886e-07
0.00175985
-6.56934e-07
0.00175971
-7.39933e-07
0.00175963
-7.9429e-07
0.00175959
-8.25343e-07
0.00175957
-8.41523e-07
0.00175956
-8.49325e-07
0.00175956
-8.5284e-07
0.00175956
-8.5433e-07
0.00175955
-8.54926e-07
0.00175955
-8.55149e-07
0.00175955
-8.55228e-07
0.00175955
-8.55256e-07
0.00175955
-8.55267e-07
0.00175955
-8.55275e-07
0.00175955
-8.5528e-07
0.00175955
-8.55283e-07
0.00175955
-8.55286e-07
0.00175955
-8.55284e-07
0.00175955
-8.55281e-07
0.00175955
-8.55284e-07
0.00175955
-8.55283e-07
0.00175955
-8.55281e-07
0.00175955
-8.55282e-07
0.00175955
-8.5528e-07
0.00175956
-8.55279e-07
0.00175956
-8.55279e-07
0.00175956
-8.55278e-07
0.00175956
-8.55276e-07
0.00175956
-8.55275e-07
0.00175956
-8.55279e-07
0.00175956
-8.55283e-07
0.00175956
-8.55284e-07
0.00175956
-8.55282e-07
0.00175956
-8.55278e-07
0.00175956
-8.55277e-07
0.00175956
-8.55278e-07
0.00175956
-8.55282e-07
0.00175956
-8.55287e-07
0.00175956
-8.55288e-07
0.00175956
-8.55288e-07
0.00175956
-8.55286e-07
0.00175956
-8.5528e-07
0.00175956
-8.55273e-07
0.00175956
-8.5527e-07
0.00175956
-8.55271e-07
0.00175956
-8.55275e-07
0.00175956
-8.55279e-07
0.00175956
-8.55282e-07
0.00175956
-8.55284e-07
0.00175956
-8.55283e-07
0.00175956
-8.5528e-07
0.00175956
-8.55279e-07
0.00175956
-8.55282e-07
0.00175956
-8.55285e-07
0.00175956
-8.55285e-07
0.00175956
-8.55283e-07
0.00175956
-8.55281e-07
0.00175956
-8.5528e-07
0.00175956
-8.55278e-07
0.00175956
-8.55275e-07
0.00175956
-8.55271e-07
0.00175956
-8.55273e-07
0.00175956
-8.55267e-07
0.00175956
-8.55287e-07
0.00175956
-8.55251e-07
0.00175956
-8.55346e-07
0.00175956
-8.55151e-07
0.00175956
-8.55482e-07
0.00175956
-8.54914e-07
0.00175956
-8.55498e-07
0.00175956
-8.54751e-07
0.00175956
-8.54005e-07
0.00175956
-8.54737e-07
0.00175956
-8.47791e-07
0.00175956
-8.40905e-07
0.00175956
-8.19897e-07
0.00175956
-7.54069e-07
0.00175952
-5.9015e-07
0.00175963
4.47824e-08
0.0017597
1.35281e-06
0.00176065
5.35387e-06
0.00176343
1.18287e-05
1.47807e-05
0.00177398
0.0015456
-7.36595e-06
0.00155076
-1.25151e-05
0.0015559
-1.25842e-05
0.00156122
-1.30044e-05
0.00156659
-1.32168e-05
0.00157184
-1.29164e-05
0.00157698
-1.25767e-05
0.00158193
-1.21661e-05
0.00158618
-1.05598e-05
0.00158917
-7.6135e-06
0.00159084
-4.54003e-06
0.00159151
-2.34508e-06
0.00159163
-1.20708e-06
0.00159147
-5.79223e-07
0.00159112
-1.70209e-07
0.00159074
-8.85849e-08
0.00159045
-2.65489e-07
0.00159027
-4.77392e-07
0.00159017
-6.39429e-07
0.00159011
-7.4143e-07
0.00159009
-7.98987e-07
0.00159008
-8.29046e-07
0.00159007
-8.43707e-07
0.00159007
-8.50432e-07
0.00159007
-8.53351e-07
0.00159007
-8.54554e-07
0.00159007
-8.55024e-07
0.00159007
-8.55197e-07
0.00159007
-8.55261e-07
0.00159007
-8.55289e-07
0.00159007
-8.55305e-07
0.00159007
-8.55312e-07
0.00159007
-8.55313e-07
0.00159007
-8.55316e-07
0.00159007
-8.55315e-07
0.00159007
-8.55312e-07
0.00159007
-8.55313e-07
0.00159007
-8.55313e-07
0.00159007
-8.55312e-07
0.00159007
-8.55312e-07
0.00159007
-8.55311e-07
0.00159007
-8.5531e-07
0.00159007
-8.5531e-07
0.00159007
-8.55308e-07
0.00159007
-8.55306e-07
0.00159007
-8.55306e-07
0.00159007
-8.55311e-07
0.00159007
-8.55315e-07
0.00159007
-8.55315e-07
0.00159007
-8.55312e-07
0.00159007
-8.55309e-07
0.00159007
-8.55308e-07
0.00159007
-8.55308e-07
0.00159007
-8.55312e-07
0.00159007
-8.55318e-07
0.00159007
-8.55319e-07
0.00159007
-8.55319e-07
0.00159007
-8.55317e-07
0.00159007
-8.5531e-07
0.00159007
-8.55303e-07
0.00159007
-8.553e-07
0.00159007
-8.55301e-07
0.00159007
-8.55305e-07
0.00159007
-8.5531e-07
0.00159007
-8.55313e-07
0.00159007
-8.55314e-07
0.00159007
-8.55313e-07
0.00159007
-8.55312e-07
0.00159007
-8.55312e-07
0.00159007
-8.55314e-07
0.00159007
-8.55316e-07
0.00159007
-8.55316e-07
0.00159007
-8.55315e-07
0.00159007
-8.55311e-07
0.00159007
-8.55309e-07
0.00159007
-8.55308e-07
0.00159007
-8.55304e-07
0.00159007
-8.553e-07
0.00159007
-8.55301e-07
0.00159007
-8.55298e-07
0.00159007
-8.55314e-07
0.00159007
-8.55291e-07
0.00159007
-8.55357e-07
0.00159007
-8.55222e-07
0.00159007
-8.55448e-07
0.00159007
-8.55053e-07
0.00159007
-8.55428e-07
0.00159007
-8.54903e-07
0.00159007
-8.54223e-07
0.00159007
-8.54509e-07
0.00159007
-8.49029e-07
0.00159007
-8.42056e-07
0.00159007
-8.22548e-07
0.00159008
-7.63585e-07
0.00159011
-6.19995e-07
0.00159016
-6.45659e-09
0.00159035
1.16786e-06
0.00159129
4.41368e-06
0.00159391
9.20564e-06
7.56465e-06
0.00160113
0.00139628
-1.05643e-05
0.00140094
-1.71739e-05
0.00140561
-1.7257e-05
0.00141046
-1.78497e-05
0.00141532
-1.80768e-05
0.00142008
-1.76833e-05
0.00142475
-1.72404e-05
0.00142919
-1.66092e-05
0.00143297
-1.43395e-05
0.00143567
-1.03106e-05
0.00143723
-6.10134e-06
0.00143792
-3.04078e-06
0.00143811
-1.3947e-06