/*--------------------------------*- C++ -*----------------------------------*\
| =========                 |                                                 |
| \\      /  F ield         | OpenFOAM: The Open Source CFD Toolbox           |
|  \\    /   O peration     | Version:  v2012                                 |
|   \\  /    A nd           | Website:  www.openfoam.com                      |
|    \\/     M anipulation  |                                                 |
\*---------------------------------------------------------------------------*/
FoamFile
{
    version     2.0;
    format      ascii;
    class       volScalarField;
    location    "0.295";
    object      k.air;
}
// * * * * * * * * * * * * * * * * * * * * * * * * * * * * * * * * * * * * * //

dimensions      [0 2 -2 0 0 0 0];


internalField   nonuniform List<scalar> 
5600
(
0.606322
0.840788
0.955152
0.978137
0.949196
0.897569
0.839566
0.787258
0.743299
0.707281
0.679347
0.658374
0.643354
0.632655
0.625318
0.620032
0.616291
0.61329
0.610955
0.608804
0.607111
0.605423
0.604254
0.603086
0.602469
0.601738
0.601456
0.601025
0.600892
0.600566
0.600424
0.600038
0.599811
0.599331
0.599047
0.59852
0.598212
0.597673
0.597369
0.596847
0.596574
0.596094
0.595879
0.595449
0.595307
0.594939
0.594871
0.594548
0.594545
0.594256
0.594294
0.594047
0.594132
0.593908
0.594045
0.593853
0.594053
0.593898
0.594154
0.594045
0.594368
0.59428
0.594672
0.594604
0.59506
0.595007
0.595532
0.595486
0.596081
0.596036
0.596707
0.596654
0.59741
0.597341
0.598186
0.598093
0.59903
0.598912
0.599931
0.599793
0.600872
0.600739
0.601825
0.601765
0.602746
0.602915
0.603555
0.604306
0.60408
0.606232
0.603959
0.609297
0.60212
0.615262
0.595199
0.630199
0.571148
0.676571
0.478245
0.841061
0.371646
0.315571
0.288638
0.275691
0.274924
0.284687
0.307321
0.344964
0.387083
0.430227
0.471442
0.50901
0.541768
0.569442
0.591929
0.609792
0.623491
0.633912
0.641755
0.647739
0.652598
0.656335
0.660068
0.662946
0.665977
0.668022
0.670347
0.671711
0.673307
0.673919
0.674905
0.674954
0.675601
0.675389
0.675891
0.675578
0.676003
0.675674
0.676087
0.675795
0.676256
0.676025
0.676568
0.676406
0.67703
0.676877
0.677519
0.677339
0.677988
0.677778
0.678478
0.678242
0.679008
0.678787
0.679644
0.679444
0.680411
0.680219
0.681303
0.681092
0.682278
0.682053
0.683341
0.683076
0.684475
0.684157
0.685668
0.685286
0.686911
0.686468
0.688234
0.687693
0.689632
0.688966
0.691106
0.69029
0.692641
0.691654
0.694199
0.693037
0.695748
0.69445
0.697247
0.695943
0.698638
0.69762
0.699797
0.699709
0.700421
0.702691
0.699725
0.707642
0.696109
0.716947
0.685864
0.736417
0.658809
0.780903
0.585166
0.884116
0.36917
0.28188
0.227748
0.19298
0.168597
0.153777
0.14562
0.1436
0.146979
0.15507
0.167045
0.181942
0.199272
0.218596
0.2391
0.260677
0.282443
0.304572
0.326383
0.348227
0.369536
0.390326
0.409314
0.425494
0.439967
0.452034
0.463015
0.471891
0.480045
0.48657
0.492844
0.497682
0.502745
0.506454
0.510619
0.513505
0.516992
0.519319
0.522354
0.52431
0.527062
0.528746
0.531299
0.532741
0.535146
0.536363
0.538585
0.539585
0.541676
0.542499
0.544525
0.545222
0.547225
0.547837
0.549854
0.55039
0.552441
0.55289
0.554979
0.555322
0.557452
0.557681
0.559869
0.559964
0.562237
0.562182
0.56456
0.564364
0.566859
0.566526
0.56916
0.568671
0.571481
0.57079
0.573813
0.572878
0.576141
0.574916
0.578427
0.576885
0.580653
0.578802
0.582806
0.580712
0.584871
0.582676
0.586788
0.584824
0.588402
0.587399
0.589391
0.590856
0.589101
0.59623
0.586044
0.605684
0.577071
0.622975
0.557546
0.636843
0.370132
0.28061
0.224145
0.186009
0.158595
0.138138
0.123016
0.11127
0.102997
0.0969085
0.0936176
0.0922519
0.0929844
0.0953401
0.099477
0.105335
0.112794
0.121942
0.132823
0.145229
0.159492
0.175076
0.192554
0.210379
0.229142
0.247341
0.265538
0.281973
0.297794
0.311755
0.325229
0.336664
0.347937
0.35735
0.366875
0.374676
0.382839
0.38945
0.3966
0.402234
0.408533
0.413231
0.418732
0.422613
0.42739
0.430478
0.4347
0.437273
0.441147
0.443347
0.446997
0.448922
0.452422
0.45413
0.45752
0.458999
0.462288
0.463537
0.466751
0.467778
0.470942
0.471754
0.47491
0.475507
0.478693
0.47908
0.482334
0.482522
0.48587
0.485851
0.489326
0.489089
0.492723
0.492215
0.496038
0.49522
0.499279
0.498106
0.502427
0.500858
0.505465
0.503494
0.508399
0.50606
0.511239
0.508601
0.513955
0.511199
0.516446
0.514006
0.518555
0.517257
0.519967
0.521488
0.520032
0.527304
0.518342
0.533819
0.518136
0.529812
0.370332
0.280728
0.224436
0.185978
0.158499
0.137548
0.121653
0.108608
0.0985076
0.0898051
0.0830915
0.0772664
0.0728983
0.0691844
0.0666282
0.0646028
0.0638257
0.0633982
0.0644773
0.0656601
0.0688027
0.072015
0.0775631
0.0833681
0.0915158
0.100089
0.110714
0.121498
0.133822
0.146024
0.15952
0.172602
0.186621
0.199237
0.212525
0.224207
0.236438
0.246999
0.258131
0.267538
0.277619
0.285884
0.295089
0.302328
0.310605
0.316809
0.324233
0.329574
0.336358
0.341029
0.347334
0.351463
0.357353
0.36098
0.366464
0.369529
0.374644
0.377247
0.382095
0.384298
0.388943
0.390794
0.39531
0.396836
0.401284
0.402516
0.406948
0.407915
0.412359
0.413051
0.417537
0.417917
0.422475
0.422518
0.42717
0.426874
0.431636
0.43092
0.435844
0.434731
0.439862
0.438366
0.443719
0.441876
0.447434
0.445321
0.450976
0.448763
0.454277
0.452312
0.457254
0.456107
0.459762
0.460316
0.461695
0.46477
0.463635
0.467984
0.467856
0.465858
0.370363
0.280757
0.224571
0.186128
0.158739
0.13778
0.121946
0.108783
0.0986152
0.0896149
0.082568
0.0761082
0.0709762
0.0661696
0.0624117
0.05865
0.056073
0.0529912
0.0514773
0.0489592
0.0483229
0.0465059
0.0466256
0.0457612
0.0467354
0.0469796
0.0490765
0.050557
0.0541113
0.0569646
0.0621688
0.0665865
0.0735029
0.0794742
0.0877419
0.0949964
0.104312
0.112434
0.122505
0.131133
0.141771
0.15069
0.161314
0.170018
0.180384
0.188636
0.198536
0.20615
0.215495
0.22242
0.231202
0.237467
0.245715
0.251389
0.259274
0.264394
0.271843
0.276387
0.283427
0.287428
0.294117
0.29763
0.30406
0.307136
0.313379
0.316067
0.322162
0.324502
0.330451
0.332427
0.338232
0.339758
0.345443
0.346572
0.352181
0.352951
0.358517
0.358926
0.364459
0.364544
0.37005
0.369881
0.375337
0.374998
0.38036
0.379954
0.385103
0.384822
0.389531
0.389651
0.393655
0.39445
0.397488
0.399149
0.401152
0.403437
0.405109
0.406697
0.409602
0.408845
0.370363
0.280758
0.224597
0.186161
0.158824
0.137856
0.122086
0.108919
0.0987799
0.0897979
0.0827164
0.076261
0.0710471
0.0661324
0.0622906
0.0582269
0.0555406
0.0519357
0.0501467
0.0469552
0.0456981
0.0430217
0.0420527
0.0398762
0.0392229
0.0373652
0.0372115
0.0355147
0.0359787
0.0345064
0.0355691
0.0345589
0.0361776
0.035831
0.0381058
0.0384845
0.0415994
0.0427692
0.0468523
0.048897
0.0540021
0.0570634
0.0630979
0.0670471
0.0739358
0.0786734
0.0863067
0.0916335
0.0998161
0.105529
0.114061
0.119968
0.128709
0.134645
0.143286
0.149067
0.157623
0.163174
0.171567
0.176803
0.18496
0.189822
0.197733
0.202197
0.209858
0.213941
0.221348
0.225094
0.232343
0.235816
0.242901
0.246038
0.252917
0.255718
0.262364
0.264856
0.271268
0.273494
0.279663
0.281683
0.287574
0.289477
0.29505
0.29692
0.30214
0.304056
0.308826
0.310912
0.315104
0.317461
0.321028
0.323655
0.326635
0.32942
0.331952
0.334667
0.337067
0.339415
0.341555
0.343882
0.370355
0.280757
0.224589
0.186167
0.158832
0.137883
0.122103
0.108983
0.0987986
0.0898999
0.0827481
0.0763747
0.0711147
0.0662215
0.0623942
0.0582765
0.0556287
0.0519595
0.0501224
0.0469502
0.0454761
0.0428951
0.0415934
0.0394304
0.038443
0.0363646
0.035879
0.0337252
0.03367
0.0315807
0.0317251
0.0298691
0.0301188
0.0284685
0.0289558
0.0273648
0.0282212
0.0266884
0.0279122
0.0265565
0.0281236
0.0270522
0.0290209
0.028271
0.0307218
0.0303558
0.0333661
0.0334705
0.0370428
0.0377224
0.0418964
0.0432098
0.0479876
0.0499483
0.0552954
0.0577965
0.0636479
0.0666659
0.0729884
0.0764678
0.0831705
0.0869818
0.093985
0.0980355
0.105219
0.109403
0.11665
0.120909
0.128052
0.132172
0.139188
0.143253
0.150164
0.154174
0.1609
0.164837
0.171317
0.175184
0.181373
0.185198
0.191025
0.194832
0.200264
0.204077
0.209104
0.21295
0.217523
0.221437
0.225533
0.229497
0.233177
0.237139
0.240444
0.244373
0.247285
0.25117
0.253651
0.257578
0.259271
0.26343
0.370344
0.280763
0.224566
0.186183
0.158803
0.137918
0.122066
0.109037
0.0987628
0.0899619
0.0827284
0.0764322
0.0711161
0.0662781
0.0624019
0.058354
0.0556125
0.052085
0.0500564
0.0471267
0.0453697
0.0430768
0.0414892
0.0395551
0.0383523
0.0364184
0.0357325
0.0337401
0.0333644
0.0315445
0.0311993
0.0296605
0.02934
0.0279143
0.0278104
0.0263094
0.0264752
0.0249432
0.0252536
0.0238052
0.02419
0.0228244
0.0233471
0.021996
0.0227081
0.0213725
0.0222693
0.0210144
0.0220509
0.020932
0.0221397
0.0211876
0.0225868
0.0218095
0.0234697
0.022943
0.0248341
0.0246081
0.0267826
0.0269138
0.0294284
0.0299024
0.0327764
0.0336914
0.0369307
0.0383289
0.0418806
0.043784
0.0476777
0.0499946
0.0541434
0.0568369
0.0612158
0.0643208
0.0688867
0.0723498
0.0770337
0.0808202
0.085568
0.0896494
0.0943713
0.0986615
0.103299
0.107735
0.112247
0.116792
0.121119
0.125731
0.129851
0.134469
0.1384
0.142997
0.146746
0.151351
0.154883
0.159391
0.162636
0.167
0.169847
0.173868
0.370335
0.280773
0.224541
0.186211
0.158761
0.137966
0.122016
0.109089
0.0987264
0.0899975
0.0827139
0.0764597
0.0711
0.0663303
0.0623506
0.0584562
0.0555146
0.0522306
0.049935
0.0472807
0.0452631
0.0432084
0.0414118
0.0396701
0.0382749
0.0365579
0.0356093
0.0339296
0.0331869
0.0317593
0.0309975
0.0298525
0.0291343
0.028068
0.0275653
0.0264445
0.0261377
0.0250541
0.0247925
0.0238394
0.0235829
0.0227119
0.0225343
0.0216667
0.0215953
0.0207377
0.0207296
0.0199301
0.0199477
0.0192075
0.0192637
0.0185821
0.0186813
0.0180388
0.0181894
0.0176363
0.017797
0.0173421
0.01754
0.0171783
0.0174639
0.0171752
0.0175385
0.0173888
0.0178361
0.0178746
0.0183831
0.0186072
0.0192712
0.0197214
0.0205337
0.0212129
0.0222029
0.0231744
0.0243894
0.0256742
0.0271044
0.0287355
0.0304282
0.0324564
0.0344373
0.0368292
0.0391149
0.0418878
0.0444861
0.0476353
0.0505401
0.0540184
0.057214
0.0609684
0.0644
0.0683983
0.0720312
0.0762154
0.0800372
0.0843249
0.0882871
0.0925834
0.0966218
0.100804
0.37033
0.280783
0.224528
0.186238
0.15873
0.138009
0.121979
0.109127
0.0987064
0.090012
0.0827146
0.0764646
0.0710916
0.0663629
0.062299
0.0585367
0.0554201
0.0523351
0.0498406
0.0473596
0.0452073
0.0432495
0.041377
0.0397162
0.0382107
0.0366508
0.0354984
0.034055
0.0330676
0.0318716
0.0309027
0.0299411
0.0290507
0.028164
0.027459
0.0265717
0.0260088
0.0251978
0.0246653
0.0239838
0.0234663
0.0228667
0.0224171
0.0218464
0.0214775
0.0209469
0.0206241
0.0201614
0.0198775
0.0194705
0.0192371
0.0188922
0.0187125
0.018426
0.0183023
0.0181142
0.0180277
0.0179517
0.0179288
0.0179657
0.0180513
0.0182053
0.0184108
0.0187144
0.0190707
0.019572
0.020086
0.0207903
0.0215213
0.022476
0.0234372
0.0246564
0.0258883
0.0274051
0.0289524
0.0307974
0.03266
0.0348491
0.0370546
0.0396153
0.0421761
0.0450803
0.0479869
0.0512015
0.054383
0.0578608
0.0613006
0.0650072
0.068693
0.0725956
0.076468
0.0805447
0.084575
0.0888022
0.0929667
0.0972622
0.101506
0.105837
0.110171
0.114612
0.370329
0.280793
0.224531
0.186256
0.158723
0.138036
0.121964
0.10915
0.0986956
0.090019
0.0827136
0.0764594
0.0710869
0.0663659
0.0622689
0.0585643
0.0553608
0.0523735
0.0497822
0.0473727
0.045178
0.0432328
0.041358
0.0397088
0.0381646
0.0366813
0.0354269
0.0341034
0.0330153
0.0319069
0.0308963
0.0299807
0.0290769
0.0282581
0.0275134
0.0267524
0.0261368
0.0254789
0.024938
0.0244121
0.0239479
0.0235371
0.0231859
0.0228809
0.0226626
0.0224925
0.0224112
0.0224167
0.0225112
0.0227076
0.0230243
0.0234599
0.0240402
0.0247546
0.0256421
0.0266976
0.0279265
0.029374
0.0309954
0.0328761
0.0349384
0.0372872
0.0398195
0.042655
0.0456868
0.0489845
0.0524198
0.0561016
0.0599243
0.0639804
0.0681528
0.0725445
0.0770211
0.0816917
0.0864175
0.0913034
0.0962006
0.101221
0.106212
0.1113
0.116317
0.121407
0.126385
0.131348
0.136162
0.140983
0.1457
0.150409
0.155021
0.159591
0.164056
0.16847
0.172769
0.177028
0.18116
0.185247
0.189213
0.193149
0.197047
0.201002
0.370329
0.280806
0.224542
0.186269
0.158729
0.138046
0.121959
0.109155
0.0986813
0.0900143
0.0826934
0.0764419
0.0710611
0.0663396
0.062231
0.0585398
0.0553076
0.0523522
0.0497301
0.0473441
0.0451491
0.0432061
0.0413543
0.0397224
0.0381893
0.0367759
0.0355197
0.034308
0.0332589
0.0322735
0.0313928
0.0306332
0.029945
0.0293873
0.0289411
0.0286009
0.0284235
0.0283705
0.0285031
0.02881
0.0293237
0.0300552
0.0310355
0.0322681
0.0337983
0.0356214
0.037773
0.04026
0.0431003
0.0462954
0.0498758
0.053786
0.0580054
0.0625342
0.0673609
0.0724634
0.0778245
0.0834193
0.0892117
0.0951869
0.101283
0.107507
0.113775
0.120125
0.126473
0.132762
0.138946
0.145123
0.151232
0.157302
0.163281
0.169197
0.175001
0.180728
0.186332
0.191851
0.197241
0.202537
0.207711
0.212785
0.217747
0.222601
0.227351
0.232045
0.236627
0.241141
0.245516
0.249803
0.253953
0.257994
0.261904
0.265704
0.269374
0.272947
0.276387
0.279739
0.28297
0.286147
0.289285
0.292483
0.370329
0.280819
0.22455
0.18627
0.158726
0.138028
0.121936
0.109117
0.0986319
0.0899594
0.08262
0.0763714
0.0709768
0.0662637
0.0621568
0.0584853
0.0552747
0.0523637
0.049796
0.0474849
0.0453997
0.0435816
0.0419128
0.0405158
0.0392622
0.0382496
0.0374344
0.0368486
0.0365155
0.0364718
0.0367218
0.0373472
0.0383173
0.0397369
0.0415792
0.0439247
0.0467688
0.0501605
0.0541006
0.0586396
0.063687
0.069258
0.0753016
0.0818065
0.0887055
0.0959589
0.103485
0.111239
0.119148
0.127173
0.135302
0.143361
0.151363
0.159294
0.167124
0.17482
0.182372
0.189749
0.196951
0.203964
0.210787
0.217432
0.223879
0.230167
0.236261
0.242267
0.24812
0.253845
0.25939
0.264787
0.270006
0.275078
0.279981
0.284757
0.289376
0.293878
0.298239
0.302496
0.306635
0.310679
0.314623
0.318471
0.322228
0.325886
0.329454
0.332913
0.336243
0.339479
0.342608
0.345647
0.348595
0.351459
0.354239
0.356948
0.35957
0.362134
0.364617
0.367074
0.369524
0.372051
0.370326
0.280826
0.224532
0.186231
0.158664
0.13793
0.121824
0.108968
0.0984826
0.0897989
0.0824853
0.076286
0.070981
0.0664028
0.0624908
0.0590695
0.0562243
0.0537471
0.051772
0.0501529
0.0489959
0.0482739
0.0480622
0.0484228
0.0493638
0.0510141
0.0533943
0.056589
0.0606502
0.0656168
0.0715449
0.0784085
0.0860331
0.0944535
0.103445
0.11301
0.122938
0.133241
0.143799
0.154573
0.165293
0.175908
0.186337
0.196525
0.206402
0.215949
0.225126
0.233961
0.242413
0.250554
0.258315
0.265851
0.273086
0.280026
0.286667
0.293016
0.299099
0.304924
0.310522
0.31591
0.321106
0.326141
0.331003
0.33574
0.340305
0.344753
0.34902
0.353122
0.357044
0.360833
0.364476
0.368006
0.371409
0.374718
0.377899
0.38099
0.383976
0.386889
0.389719
0.392485
0.395187
0.397829
0.400425
0.402964
0.405456
0.407897
0.410283
0.412617
0.414896
0.41712
0.419298
0.421425
0.423509
0.425553
0.427544
0.42951
0.43143
0.43335
0.43529
0.437328
0.370306
0.280788
0.224406
0.186072
0.158446
0.137688
0.121602
0.10882
0.098553
0.0901721
0.0834146
0.0779715
0.0736981
0.0703977
0.0681112
0.0666714
0.0663332
0.0667764
0.0684127
0.0709733
0.0749382
0.0801522
0.0869519
0.0951576
0.104959
0.11602
0.128218
0.141239
0.155047
0.169404
0.18427
0.198935
0.21321
0.226998
0.240176
0.252748
0.264652
0.275948
0.286568
0.296608
0.306069
0.314983
0.323337
0.331127
0.338414
0.345251
0.351705
0.357829
0.363649
0.369203
0.374478
0.379491
0.384187
0.388634
0.392848
0.396857
0.400686
0.404344
0.407857
0.411234
0.414489
0.417645
0.420693
0.423676
0.426561
0.429397
0.432142
0.434831
0.437426
0.43996
0.442412
0.444802
0.447123
0.44938
0.451537
0.453643
0.455683
0.457688
0.459642
0.461562
0.463449
0.465301
0.467133
0.468934
0.470717
0.472476
0.474219
0.475932
0.477628
0.479292
0.480941
0.482557
0.48416
0.485735
0.487289
0.488822
0.490347
0.491869
0.493441
0.495139
0.370195
0.280541
0.22423
0.18605
0.158716
0.138515
0.123434
0.112322
0.104419
0.0992873
0.0968314
0.09658
0.0983621
0.102012
0.107629
0.115003
0.124353
0.135439
0.148598
0.163392
0.180324
0.198735
0.218288
0.23827
0.258301
0.277678
0.295826
0.312661
0.328133
0.342249
0.354978
0.366566
0.377094
0.386681
0.395455
0.403545
0.411032
0.417976
0.424393
0.430298
0.435681
0.440693
0.445265
0.449404
0.453225
0.456775
0.460118
0.463282
0.4663
0.469203
0.47199
0.474698
0.477292
0.479797
0.482204
0.484525
0.486766
0.48893
0.491027
0.49306
0.495035
0.496965
0.49884
0.500692
0.502494
0.504285
0.506034
0.507776
0.509479
0.511163
0.512812
0.514437
0.516028
0.517606
0.519143
0.520657
0.522129
0.523582
0.525
0.5264
0.527781
0.529138
0.530487
0.531814
0.53314
0.534448
0.535759
0.537054
0.53835
0.539628
0.54091
0.54217
0.543436
0.544682
0.545928
0.547155
0.548404
0.549635
0.550926
0.552351
0.369474
0.281383
0.228613
0.193056
0.170713
0.155952
0.15012
0.150448
0.156555
0.167307
0.181626
0.198816
0.218414
0.239724
0.262344
0.285622
0.309402
0.333087
0.356948
0.380283
0.403313
0.423855
0.441747
0.457309
0.470489
0.48241
0.49249
0.50103
0.508344
0.514614
0.520108
0.524948
0.529235
0.533035
0.536433
0.539498
0.542295
0.544885
0.547295
0.549574
0.551714
0.553735
0.555667
0.557485
0.559194
0.560793
0.562306
0.563746
0.565125
0.566472
0.567777
0.569075
0.570347
0.571614
0.57286
0.574093
0.57531
0.576508
0.577692
0.578856
0.580004
0.581138
0.582256
0.583368
0.584464
0.585563
0.58665
0.587746
0.588834
0.589923
0.591014
0.5921
0.593185
0.594264
0.595329
0.596381
0.597409
0.598426
0.599426
0.600414
0.601396
0.602366
0.603339
0.604297
0.605265
0.606222
0.607192
0.608154
0.609132
0.6101
0.611085
0.612059
0.613048
0.614028
0.615014
0.616003
0.616994
0.618024
0.619068
0.620249
0.37219
0.315455
0.292825
0.279517
0.286389
0.295371
0.331467
0.37361
0.418622
0.463065
0.504554
0.541603
0.573473
0.599927
0.621216
0.637812
0.650546
0.660068
0.667426
0.673043
0.67765
0.681644
0.685134
0.688111
0.690598
0.69264
0.694326
0.6956
0.696476
0.697002
0.697264
0.697363
0.697348
0.69726
0.697121
0.696967
0.696796
0.696656
0.696532
0.696465
0.696432
0.696453
0.696523
0.69661
0.696702
0.696787
0.696868
0.696952
0.697037
0.697146
0.697266
0.697425
0.69761
0.697839
0.698098
0.698395
0.698724
0.69908
0.699464
0.699868
0.700292
0.700735
0.701193
0.701666
0.702156
0.702663
0.703188
0.703731
0.704297
0.704877
0.705479
0.706099
0.706734
0.707384
0.708044
0.708711
0.709379
0.710047
0.710715
0.711382
0.712053
0.712723
0.713405
0.714084
0.71478
0.715475
0.716189
0.716905
0.717642
0.718382
0.719142
0.719906
0.720687
0.721476
0.722265
0.723087
0.723862
0.724727
0.725532
0.72638
0.606742
0.839814
0.952197
0.969555
0.937536
0.881262
0.821358
0.769006
0.724419
0.688385
0.660681
0.640129
0.625396
0.614957
0.607661
0.602395
0.598508
0.595431
0.592915
0.590803
0.588979
0.587526
0.586347
0.585459
0.584759
0.584201
0.583767
0.583418
0.583085
0.58274
0.582333
0.581884
0.581385
0.580863
0.580311
0.579754
0.579188
0.578632
0.578087
0.577568
0.577072
0.576609
0.576181
0.575794
0.575442
0.575122
0.574828
0.57456
0.574311
0.574086
0.573879
0.573697
0.573539
0.573411
0.573307
0.573231
0.573184
0.573162
0.57317
0.5732
0.57326
0.573337
0.573444
0.57357
0.573717
0.573884
0.574072
0.57428
0.574509
0.574758
0.575028
0.575317
0.575624
0.57595
0.576294
0.576654
0.577029
0.577416
0.577816
0.578224
0.578643
0.579069
0.579505
0.579948
0.580403
0.580864
0.581337
0.581818
0.582312
0.582812
0.583326
0.583844
0.584383
0.584915
0.585486
0.586005
0.586569
0.587009
0.587307
0.587286
0.0584842
2.29857
2.88264
3.0855
3.23177
3.28884
3.26903
3.19979
3.09939
2.99213
2.88388
2.78072
2.68615
2.60097
2.52392
2.4531
2.38684
2.32346
2.26108
2.1995
2.13783
2.07582
2.01361
1.95154
1.88914
1.82715
1.76586
1.70604
1.64692
1.58895
1.53232
1.47759
1.42459
1.37328
1.32366
1.27564
1.22917
1.18414
1.14048
1.09811
1.0569
1.01684
0.977861
0.939895
0.902874
0.866729
0.831363
0.796746
0.762843
0.729692
0.697266
0.665623
0.6348
0.604953
0.576145
0.548575
0.522336
0.497636
0.474462
0.452989
0.433183
0.415191
0.398764
0.383952
0.370484
0.358498
0.347521
0.337532
0.327992
0.31917
0.31066
0.302621
0.294536
0.28663
0.279026
0.272038
0.26593
0.260198
0.255415
0.250783
0.248115
0.245524
0.245911
0.244842
0.247632
0.246999
0.251865
0.25079
0.256087
0.251709
0.255118
0.245758
0.247538
0.235016
0.236186
0.223407
0.224101
0.212589
0.212984
0.202353
0.354481
1.13231
2.06944
2.51621
2.74901
2.848
2.85918
2.81064
2.728
2.6335
2.53795
2.44934
2.37148
2.3042
2.24558
2.1936
2.14624
2.10166
2.05817
2.01497
1.97107
1.92596
1.87945
1.83171
1.78238
1.73208
1.68102
1.63026
1.57908
1.52811
1.47713
1.42701
1.37809
1.33043
1.28404
1.23888
1.19496
1.1522
1.11054
1.06991
1.03023
0.991493
0.953662
0.91668
0.880503
0.845082
0.810344
0.77627
0.742855
0.710155
0.678178
0.646992
0.616662
0.587356
0.559168
0.532292
0.506846
0.483027
0.46084
0.44043
0.421779
0.404998
0.389848
0.376309
0.364112
0.353333
0.343527
0.334598
0.326026
0.318004
0.31019
0.302705
0.295097
0.287545
0.280206
0.273399
0.267405
0.261744
0.25688
0.252004
0.248778
0.245447
0.244903
0.24297
0.244977
0.24369
0.248024
0.246417
0.251428
0.246719
0.250105
0.240671
0.242582
0.230209
0.231593
0.219095
0.220041
0.20887
0.209438
0.199197
0.551102
0.546537
1.0231
1.57977
1.977
2.18964
2.28079
2.29153
2.25681
2.19817
2.13198
2.06981
2.01382
1.96581
1.92565
1.89202
1.86301
1.83681
1.81205
1.78732
1.76155
1.73408
1.70455
1.67273
1.63843
1.60207
1.56377
1.52457
1.48399
1.44248
1.40018
1.35697
1.31382
1.27119
1.22925
1.18804
1.14765
1.10804
1.06919
1.03104
0.993558
0.956763
0.920643
0.885174
0.850336
0.816101
0.782427
0.749311
0.71678
0.684914
0.653763
0.623404
0.593935
0.565542
0.538353
0.512553
0.488288
0.465741
0.444936
0.425981
0.408875
0.393683
0.380177
0.36825
0.357638
0.348337
0.339944
0.332272
0.324837
0.317739
0.310718
0.303852
0.296775
0.28962
0.282591
0.275996
0.270143
0.264571
0.25965
0.254543
0.250757
0.246634
0.245056
0.242081
0.243084
0.240903
0.244485
0.242136
0.246689
0.241496
0.244762
0.235201
0.237229
0.22504
0.226693
0.214565
0.215849
0.205138
0.205937
0.196225
0.530894
0.495156
0.560381
0.767857
1.07064
1.34252
1.52383
1.61876
1.65657
1.65922
1.64322
1.62294
1.60092
1.58098
1.56513
1.55352
1.54488
1.53805
1.53118
1.52378
1.51509
1.50458
1.49184
1.4761
1.45744
1.43609
1.41214
1.38631
1.35839
1.32831
1.29726
1.26332
1.22794
1.19207
1.15606
1.12011
1.08446
1.04909
1.01402
0.979251
0.944801
0.910715
0.877016
0.84373
0.810855
0.778396
0.746356
0.714741
0.683617
0.653095
0.62327
0.594231
0.566118
0.539134
0.513445
0.489226
0.466652
0.445886
0.426972
0.409969
0.394898
0.381759
0.370333
0.36041
0.351729
0.344196
0.337457
0.331229
0.325075
0.318996
0.31283
0.30661
0.300088
0.293345
0.286646
0.280276
0.274579
0.269096
0.264126
0.258786
0.254446
0.249487
0.246794
0.242607
0.242388
0.239046
0.241623
0.238279
0.242156
0.236289
0.2393
0.229535
0.231653
0.219682
0.221672
0.210012
0.211741
0.201623
0.202722
0.193697
0.472682
0.463352
0.459883
0.486904
0.55698
0.666794
0.78864
0.897533
0.980164
1.03743
1.07361
1.09952
1.11899
1.13539
1.15081
1.16663
1.18229
1.19806
1.21176
1.22354
1.2331
1.24012
1.24427
1.24511
1.24266
1.2369
1.2281
1.21649
1.20195
1.18413
1.16507
1.14223
1.11681
1.0897
1.0614
1.03231
1.00285
0.973019
0.942906
0.912582
0.882154
0.851698
0.821294
0.791004
0.760863
0.730916
0.70122
0.671791
0.642741
0.614217
0.586364
0.559285
0.533168
0.508233
0.484691
0.462699
0.442465
0.424119
0.407727
0.393284
0.380826
0.370273
0.361406
0.353892
0.34748
0.341972
0.33708
0.33242
0.327624
0.322587
0.31727
0.311659
0.305657
0.299291
0.292906
0.28674
0.281185
0.275761
0.270731
0.265131
0.260233
0.254394
0.250527
0.244977
0.243339
0.238563
0.239864
0.235245
0.238194
0.231435
0.234032
0.223978
0.226161
0.214448
0.216861
0.205783
0.208076
0.198692
0.200168
0.191996
0.410925
0.411422
0.406237
0.402188
0.403512
0.41419
0.431525
0.455647
0.483159
0.51463
0.547129
0.581643
0.617771
0.655316
0.693491
0.732367
0.770906
0.80909
0.845196
0.878523
0.908625
0.935115
0.957604
0.976348
0.991182
1.00172
1.00846
1.01104
1.01044
1.00584
0.999298
0.98923
0.97601
0.959867
0.941298
0.921002
0.899546
0.876842
0.853127
0.828598
0.803451
0.77781
0.751827
0.725599
0.699208
0.672745
0.646321
0.61998
0.593886
0.568217
0.54318
0.518893
0.495609
0.473553
0.452986
0.43404
0.416958
0.401819
0.388709
0.377532
0.368333
0.360925
0.355082
0.350331
0.346442
0.343112
0.340141
0.337045
0.333555
0.329459
0.324872
0.319733
0.314129
0.308032
0.30189
0.295861
0.290396
0.284963
0.279831
0.273915
0.268444
0.26167
0.256595
0.249556
0.246345
0.239888
0.239651
0.233479
0.235239
0.227374
0.229393
0.218976
0.221222
0.20983
0.212779
0.202413
0.2054
0.196881
0.198814
0.191644
0.343492
0.345991
0.344353
0.338875
0.330702
0.321898
0.312479
0.303366
0.294487
0.287255
0.282249
0.281187
0.285659
0.297078
0.316107
0.343
0.376961
0.416867
0.460773
0.506285
0.551484
0.594776
0.634936
0.67108
0.703236
0.730466
0.753361
0.770793
0.785045
0.794853
0.801571
0.804635
0.804039
0.800132
0.793245
0.783865
0.772439
0.758601
0.742937
0.725805
0.707478
0.688129
0.667981
0.647165
0.625822
0.60408
0.582117
0.560014
0.537992
0.51626
0.495097
0.474647
0.455232
0.437074
0.420487
0.405575
0.392599
0.381563
0.372553
0.365366
0.360037
0.356239
0.353732
0.351903
0.35057
0.349344
0.348137
0.346381
0.343937
0.340502
0.336367
0.331431
0.325995
0.319971
0.31393
0.307911
0.302441
0.296887
0.291586
0.285268
0.279203
0.271436
0.265146
0.256531
0.251659
0.243344
0.241365
0.233414
0.233755
0.224621
0.225941
0.215143
0.217509
0.206548
0.210188
0.200673
0.20448
0.196925
0.199378
0.193303
0.263146
0.26712
0.268059
0.264891
0.257983
0.248311
0.236666
0.223959
0.211013
0.198735
0.187733
0.178681
0.172199
0.168604
0.168581
0.172427
0.180953
0.19447
0.213825
0.238649
0.268957
0.303383
0.340757
0.379238
0.418015
0.454835
0.489524
0.520183
0.547488
0.570551
0.5898
0.605136
0.616415
0.624325
0.628722
0.629917
0.628296
0.624088
0.617609
0.609132
0.598923
0.587165
0.574132
0.559985
0.54492
0.529094
0.512762
0.496044
0.479227
0.462543
0.446354
0.430836
0.416373
0.403172
0.391595
0.381697
0.373739
0.367611
0.363365
0.360659
0.359494
0.359388
0.360099
0.360915
0.361753
0.362171
0.36222
0.361277
0.359355
0.356083
0.351946
0.346812
0.341209
0.334985
0.32884
0.322653
0.317048
0.311242
0.305696
0.298887
0.292217
0.283421
0.275947
0.265736
0.259211
0.248988
0.245181
0.235358
0.234147
0.223712
0.224321
0.213258
0.215919
0.205586
0.210119
0.20157
0.206289
0.199732
0.202726
0.197725
0.175717
0.179301
0.181358
0.180548
0.17686
0.170938
0.163747
0.156312
0.149754
0.144713
0.141739
0.140864
0.142033
0.144884
0.149137
0.15438
0.160543
0.167432
0.175441
0.184473
0.195455
0.208112
0.223997
0.242341
0.263475
0.286501
0.311399
0.336842
0.362329
0.386844
0.40972
0.430371
0.448144
0.462886
0.474735
0.483605
0.489548
0.493441
0.495218
0.494891
0.492598
0.488452
0.482725
0.475573
0.467221
0.457834
0.44773
0.43706
0.426166
0.415285
0.404849
0.395054
0.386342
0.378885
0.373054
0.368812
0.366365
0.36543
0.365987
0.367546
0.370079
0.372984
0.376069
0.378609
0.380673
0.381818
0.38224
0.381291
0.379142
0.375369
0.370662
0.364859
0.358712
0.35199
0.345513
0.338972
0.333113
0.326952
0.321119
0.313775
0.306537
0.296736
0.288183
0.276465
0.268438
0.256451
0.250915
0.239352
0.236648
0.225121
0.225216
0.214247
0.217561
0.20815
0.213782
0.206231
0.211863
0.20622
0.209702
0.205581
0.104565
0.108352
0.111814
0.114533
0.116617
0.118587
0.121175
0.125032
0.130644
0.138072
0.147185
0.157495
0.168537
0.179733
0.190643
0.201023
0.2107
0.219662
0.228029
0.235767
0.243138
0.250242
0.25725
0.264486
0.272295
0.280854
0.29037
0.300784
0.31209
0.324157
0.336691
0.349301
0.361502
0.372762
0.383206
0.39256
0.400481
0.406945
0.411956
0.415448
0.417442
0.417916
0.417064
0.414952
0.411761
0.40761
0.402832
0.397555
0.392126
0.386747
0.381875
0.377693
0.374654
0.372831
0.372516
0.37352
0.375916
0.379229
0.383364
0.387753
0.39239
0.396653
0.400472
0.403206
0.405109
0.405767
0.405499
0.403626
0.400464
0.395544
0.389744
0.382889
0.375908
0.368462
0.361497
0.354507
0.34837
0.341853
0.335792
0.327976
0.320309
0.309649
0.300252
0.28731
0.278152
0.264807
0.257905
0.245051
0.241214
0.229181
0.229296
0.219132
0.223616
0.21545
0.222263
0.215557
0.221964
0.216965
0.220764
0.217149
0.119069
0.123487
0.128319
0.134194
0.141521
0.150572
0.161426
0.17403
0.188029
0.203048
0.218511
0.23384
0.248377
0.261829
0.274097
0.285221
0.295188
0.304112
0.312199
0.319597
0.326476
0.33277
0.33859
0.344068
0.349262
0.354401
0.359316
0.36403
0.368597
0.373102
0.377579
0.381948
0.386278
0.390368
0.393973
0.397181
0.399905
0.402023
0.403561
0.404464
0.40474
0.404333
0.403383
0.401856
0.399861
0.397449
0.394901
0.392277
0.389866
0.387785
0.386442
0.385959
0.386698
0.388579
0.391719
0.395716
0.400468
0.405402
0.410444
0.415078
0.419385
0.422822
0.425486
0.426863
0.42736
0.426575
0.424875
0.421508
0.4169
0.41057
0.403516
0.395544
0.387726
0.37961
0.37225
0.36495
0.358707
0.352026
0.345955
0.337917
0.330113
0.318964
0.309193
0.29565
0.286066
0.272147
0.264631
0.251366
0.247204
0.235758
0.236822
0.228375
0.234387
0.227484
0.235167
0.228864
0.235706
0.230888
0.234694
0.231117
0.205092
0.209207
0.21397
0.220299
0.228701
0.239187
0.25157
0.265407
0.280173
0.295183
0.309884
0.323791
0.336654
0.348366
0.359001
0.36862
0.377463
0.385568
0.393099
0.400119
0.406742
0.412916
0.418696
0.424011
0.428908
0.433249
0.437146
0.440545
0.443404
0.445729
0.447533
0.44875
0.449527
0.44969
0.448977
0.447762
0.445973
0.443631
0.440903
0.437836
0.43453
0.431018
0.427473
0.42386
0.420302
0.416867
0.413814
0.411159
0.409136
0.407803
0.407488
0.40821
0.410184
0.413143
0.416983
0.421112
0.425384
0.429299
0.432898
0.435775
0.438126
0.439517
0.440177
0.439688
0.438525
0.436239
0.433158
0.428467
0.422603
0.41514
0.407179
0.398487
0.390209
0.381814
0.374412
0.36715
0.36111
0.354595
0.348814
0.340906
0.333331
0.322216
0.312704
0.299423
0.290281
0.276751
0.269559
0.256927
0.253536
0.24391
0.246718
0.240381
0.247542
0.241333
0.249223
0.242789
0.2497
0.244637
0.248171
0.244378
0.295814
0.299253
0.303459
0.309262
0.317048
0.326713
0.337959
0.350298
0.363202
0.376011
0.388298
0.399799
0.410455
0.420318
0.429479
0.438081
0.446219
0.45398
0.461365
0.46835
0.474883
0.480875
0.4863
0.491057
0.495118
0.498375
0.500865
0.502522
0.503382
0.503466
0.502786
0.501406
0.499342