/*--------------------------------*- C++ -*----------------------------------*\
| =========                 |                                                 |
| \\      /  F ield         | OpenFOAM: The Open Source CFD Toolbox           |
|  \\    /   O peration     | Version:  v2012                                 |
|   \\  /    A nd           | Website:  www.openfoam.com                      |
|    \\/     M anipulation  |                                                 |
\*---------------------------------------------------------------------------*/
FoamFile
{
    version     2.0;
    format      ascii;
    class       volScalarField;
    location    "0.295";
    object      p;
}
// * * * * * * * * * * * * * * * * * * * * * * * * * * * * * * * * * * * * * //

dimensions      [0 2 -2 0 0 0 0];


internalField   nonuniform List<scalar> 
1900
(
-299.623
-300.722
-301.622
-302.283
-302.96
-303.727
-304.532
-305.361
-305.973
-306.577
-300.077
-300.876
-301.704
-302.379
-303.06
-303.821
-304.632
-305.47
-306.23
-307.05
-300.363
-300.928
-301.695
-302.409
-303.106
-303.867
-304.693
-305.577
-306.47
-307.715
-300.547
-300.991
-301.726
-302.468
-303.178
-303.94
-304.784
-305.709
-306.721
-308.095
-300.645
-301.039
-301.753
-302.505
-303.221
-303.986
-304.847
-305.807
-306.888
-308.277
-300.662
-301.061
-301.78
-302.535
-303.254
-304.027
-304.904
-305.889
-307.004
-308.371
-300.596
-301.056
-301.807
-302.557
-303.277
-304.06
-304.951
-305.951
-307.078
-308.402
-300.445
-301.036
-301.83
-302.557
-303.269
-304.065
-304.969
-305.979
-307.109
-308.391
-300.188
-301.03
-301.891
-302.579
-303.276
-304.077
-304.985
-305.995
-307.118
-308.36
-299.754
-300.929
-301.881
-302.562
-303.259
-304.073
-304.992
-306.009
-307.135
-308.357
-305.919
-318.28
-337.562
-339.208
-320.079
-286.053
-243.018
-198.244
-157.326
-122.524
-94.171
-71.7729
-54.3143
-40.7353
-30.1605
-21.8587
-15.2395
-9.86908
-5.4816
-1.88784
1.0968
3.62984
5.80192
7.64953
9.2186
10.5699
11.7471
12.7818
13.6782
14.4506
15.1188
15.698
16.2022
16.6353
16.9978
17.3002
17.5515
17.7577
17.9242
18.0535
18.1484
18.2106
18.241
18.2445
18.2251
18.1835
18.1195
18.0341
17.9297
17.8091
17.6735
17.5225
17.3567
17.177
16.9839
16.779
16.5638
16.3382
16.1022
15.856
15.5998
15.3346
15.0613
14.7797
14.4898
14.1915
13.8853
13.5715
13.2502
12.9218
12.5864
12.2442
11.895
11.539
11.1763
10.8072
10.4317
10.05
9.66204
9.26807
8.86795
8.46213
8.05042
7.63316
7.21015
6.78161
6.34749
5.90802
5.46327
5.01341
4.55854
4.09882
3.63413
3.16498
2.69014
2.21243
1.72483
1.24263
0.733534
0.279207
-309.337
-321.605
-333.412
-332.126
-313.079
-280.334
-239.75
-197.439
-158.327
-124.586
-96.6623
-74.257
-56.576
-42.6778
-31.7686
-23.1479
-16.2455
-10.6484
-6.08846
-2.35894
0.728971
3.33671
5.5646
7.45835
9.06499
10.4475
11.647
12.6949
13.6001
14.3795
15.0521
15.6329
16.1348
16.5649
16.9298
17.2361
17.4912
17.7015
17.8718
18.0047
18.103
18.168
18.1997
18.2044
18.186
18.145
18.0813
17.9963
17.893
17.7737
17.6391
17.4884
17.3228
17.1434
16.9507
16.7463
16.5317
16.3067
16.071
15.825
15.569
15.3041
15.0312
14.7498
14.46
14.1618
13.8559
13.5422
13.2212
12.8929
12.5577
12.2155
11.8664
11.5104
11.1478
10.7787
10.4033
10.0215
9.6336
9.23955
8.83942
8.43355
8.02181
7.60448
7.18142
6.75284
6.31872
5.87926
5.43457
4.9848
4.53008
4.07058
3.60637
3.13768
2.66449
2.18741
1.70544
1.22185
0.729548
0.25189
-310.271
-317.92
-326.263
-324.072
-306.102
-275.372
-237.269
-197.13
-159.474
-126.584
-99.0001
-76.5787
-58.6903
-44.5153
-33.3196
-24.4309
-17.2951
-11.5142
-6.81246
-2.96367
0.23587
2.94186
5.23947
7.18384
8.84291
10.2765
11.5146
12.5851
13.5085
14.3048
14.9893
15.5772
16.082
16.5135
16.8822
17.1916
17.4479
17.6594
17.8305
17.9639
18.0619
18.1246
18.1545
18.1597
18.1431
18.1035
18.0408
17.9568
17.8549
17.7379
17.6052
17.456
17.2914
17.1125
16.9203
16.7161
16.5012
16.2761
16.0404
15.7943
15.5384
15.2738
15.0014
14.7203
14.4307
14.1329
13.8273
13.5138
13.193
12.8648
12.5298
12.1876
11.8386
11.4826
11.12
10.7509
10.3755
9.99373
9.60574
9.21163
8.81145
8.40548
7.99368
7.57626
7.15314
6.72449
6.29036
5.8509
5.40625
4.95655
4.50199
4.0427
3.57898
3.11075
2.63926
2.16289
1.68653
1.20185
0.727114
0.223765
-310.492
-316.294
-321.939
-318.557
-301.089
-271.666
-235.201
-196.612
-160.109
-127.974
-100.751
-78.3847
-60.3679
-45.9925
-34.5749
-25.4683
-18.1393
-12.2049
-7.38226
-3.42958
-0.142124
2.627
4.96611
6.94037
8.6238
10.0789
11.3354
12.4159
13.349
14.1591
14.8601
15.4643
15.9835
16.4281
16.8097
17.1326
17.4001
17.6195
17.7961
17.9327
18.0317
18.0936
18.1236
18.13
18.1145
18.075
18.0119
17.9274
17.8246
17.7061
17.5725
17.4234
17.2596
17.0811
16.8891
16.6852
16.4705
16.2454
16.0101
15.7645
15.5092
15.2449
14.9719
14.6905
14.4011
14.1036
13.7982
13.4849
13.1644
12.8363
12.5015
12.1594
11.8103
11.4544
11.0918
10.7228
10.3472
9.96538
9.57726
9.18307
8.78279
8.37672
7.96481
7.54726
7.12408
6.69535
6.26123
5.82176
5.3772
4.92756
4.47319
4.0141
3.55089
3.08315
2.61336
2.13775
1.66708
1.18108
0.723991
0.196
-310.518
-314.805
-318.111
-313.455
-296.275
-267.995
-233.032
-195.926
-160.559
-129.154
-102.289
-79.9863
-61.8667
-47.3226
-35.7119
-26.414
-18.9147
-12.8427
-7.91166
-3.86375
-0.492605
2.33646
4.71486
6.72311
8.43916
9.92134
11.1993
12.2946
13.2374
14.0553
14.7653
15.378
15.9015
16.3479
16.7274
17.0507
17.321
17.5426
17.7209
17.8606
17.9639
18.0318
18.0692
18.0822
18.0715
18.0362
17.9774
17.8972
17.7975
17.68
17.5466
17.3982
17.2352
17.0574
16.8657
16.6618
16.4472
16.2222
15.9867
15.7407
15.4851
15.2201
14.9458
14.6634
14.3735
14.0756
13.7698
13.456
13.135
12.8065
12.4714
12.1289
11.7796
11.4235
11.0607
10.6916
10.316
9.93401
9.5458
9.15159
8.75146
8.34551
7.93367
7.51611
7.09298
6.66429
6.23027
5.79087
5.34647
4.89697
4.44286
3.98404
3.52136
3.05419
2.58602
2.11131
1.6459
1.15931
0.718402
0.171098
-310.4
-313.509
-315.041
-309.398
-292.508
-265.228
-231.493
-195.55
-161.046
-130.174
-103.568
-81.3011
-63.0927
-48.4151
-36.6436
-27.1815
-19.5455
-13.3673
-8.34679
-4.21852
-0.78041
2.09426
4.5033
6.54086
8.2862
9.78804
11.0773
12.1819
13.1339
13.9612
14.6784
15.2975
15.8259
16.2753
16.6587
16.9869
17.2631
17.4896
17.6699
17.8085
17.9118
17.982
18.0217
18.0348
18.0223
17.9849
17.9248
17.8445
17.7455
17.6292
17.4972
17.3502
17.1884
17.0124
16.8229
16.6214
16.4086
16.1851
15.9509
15.7061
15.4514
15.1871
14.9136
14.6319
14.3423
14.0443
13.7381
13.4239
13.1026
12.7737
12.4382
12.0953
11.7457
11.3893
11.0264
10.6572
10.2816
9.89956
9.51145
9.11731
8.71733
8.31142
7.8997
7.48221
7.05922
6.63065
6.19682
5.75758
5.31339
4.8641
4.4103
3.95184
3.4897
3.02318
2.55647
2.08289
1.62172
1.13606
0.707811
0.152308
-310.21
-312.445
-312.667
-306.232
-289.501
-262.955
-230.134
-195.078
-161.263
-130.84
-104.477
-82.279
-64.0365
-49.2725
-37.3863
-27.8015
-20.0629
-13.8079
-8.71383
-4.51243
-1.0238
1.8781
4.31294
6.38322
8.15523
9.66829
10.9622
12.0778
13.0438
13.8798
14.6022
15.2233
15.756
16.2125
16.6007
16.9309
17.2091
17.4367
17.619
17.76
17.8645
17.9366
17.9788
17.9933
17.9814
17.9449
17.8864
17.808
17.7104
17.5948
17.4624
17.3145
17.1518
16.9751
16.7851
16.5825
16.3685
16.1439
15.9086
15.663
15.4075
15.1426
14.869
14.5873
14.2975
13.9994
13.6934
13.3797
13.0588
12.7306
12.3958
12.0535
11.7045
11.3487
10.9864
10.6176
10.2427
9.86098
9.4734
9.07961
8.67997
8.27435
7.863
7.4459
7.02324
6.59505
6.16156
5.72269
5.27882
4.82989
4.37645
3.91841
3.45682
2.99099
2.52543
2.05316
1.59469
1.11177
0.690366
0.143276
-310.014
-311.622
-310.914
-303.872
-287.218
-261.198
-229.052
-194.665
-161.384
-131.32
-105.166
-83.0418
-64.7949
-49.9687
-37.9856
-28.3148
-20.5101
-14.1846
-9.01464
-4.75935
-1.24223
1.68806
4.15961
6.25762
8.03915
9.55734
10.8642
11.9964
12.9726
13.8097
14.5315
15.1578
15.6986
16.1604
16.5495
16.8781
17.1568
17.3882
17.574
17.7162
17.8202
17.8921
17.9355
17.9515
17.9402
17.9037
17.845
17.7665
17.6688
17.5529
17.4202
17.2722
17.1095
16.933
16.743
16.5404
16.3261
16.1014
15.8661
15.6205
15.3648
15.0995
14.8254
14.5432
14.2529
13.9545
13.648
13.3338
13.0125
12.6839
12.3488
12.0062
11.6569
11.3009
10.9386
10.5698
10.195
9.81345
9.42605
9.03258
8.63329
8.22819
7.81741
7.40096
6.97891
6.5514
6.11856
5.68038
5.23713
4.78882
4.33595
3.87847
3.41753
2.95242
2.48775
2.01696
1.55963
1.08118
0.660168
0.138639
-309.856
-311.036
-309.717
-302.257
-285.628
-259.948
-228.241
-194.297
-161.366
-131.533
-105.53
-83.4761
-65.2244
-50.3535
-38.3246
-28.6149
-20.7655
-14.3948
-9.1919
-4.91606
-1.37719
1.57742
4.06477
6.16941
7.95541
9.48041
10.7945
11.9314
12.9094
13.7479
14.4725
15.1024
15.6461
16.1094
16.4993
16.8291
17.1097
17.3433
17.5303
17.673
17.7776
17.8506
17.8956
17.9127
17.9019
17.8658
17.8076
17.73
17.6333
17.5183
17.3863
17.2388
17.0766
16.9005
16.7109
16.5086
16.2946
16.0701
15.8352
15.5898
15.3343
15.0692
14.7956
14.5139
14.2242
13.9263
13.6205
13.3069
12.9863
12.6585
12.3245
11.9825
11.6337
11.2782
10.9164
10.5482
10.1737
9.79268
9.40555
9.01231
8.61314
8.20797
7.79716
7.38063
6.95854
6.53096
6.09811
5.65988
5.21663
4.76828
4.31543
3.85806
3.39725
2.93226
2.46758
1.99757
1.53981
1.06572
0.639697
0.148962
-309.799
-310.776
-309.167
-301.515
-284.923
-259.447
-228.001
-194.311
-161.573
-131.867
-105.939
-83.9003
-65.6283
-50.7261
-38.6601
-28.909
-21.0211
-14.6218
-9.39742
-5.09977
-1.53686
1.44054
3.93921
6.05348
7.84952
9.38092
10.698
11.8378
12.8201
13.6623
14.3888
15.0198
15.5654
16.0311
16.4232
16.7543
17.0358
17.2705
17.4588
17.6028
17.7085
17.7824
17.8281
17.8461
17.8362
17.8008
17.7433
17.6663
17.5702
17.4557
17.3242
17.1771
17.0154
16.8398
16.6508
16.449
16.2355
16.0114
15.777
15.532
15.2769
15.0123
14.739
14.4576
14.1681
13.8703
13.5647
13.2512
12.9306
12.6028
12.2685
11.9275
11.579
11.2237
10.862
10.4939
10.1196
9.73889
9.35195
8.95897
8.56015
8.15558
7.74503
7.32873
6.90683
6.47938
6.04661
5.60843
5.16524
4.71688
4.26411
3.80675
3.34617
2.88158
2.41693
1.94791
1.48892
1.02009
0.591357
0.112922
-314.073
-315.342
-316.519
-316.763
-316.246
-314.976
-313.67
-313.762
-333.208
-334.724
-335.67
-336.006
-335.684
-334.97
-334.106
-333.757
-348.321
-351.157
-352.673
-353.239
-353.129
-352.819
-352.512
-352.172
-346.898
-350.263
-352.116
-352.862
-352.689
-352.174
-351.695
-351.057
-325.751
-328.651
-330.387
-330.946
-330.605
-329.869
-329.084
-328.157
-289.994
-292.05
-293.342
-293.795
-293.469
-292.521
-291.108
-289.508
-244.963
-246.036
-246.886
-247.287
-247.03
-246.001
-244.216
-242.158
-198.426
-198.457
-198.711
-198.926
-198.648
-197.567
-195.616
-193.373
-156.297
-155.6
-155.338
-155.242
-154.839
-153.723
-151.767
-149.561
-120.784
-119.663
-119.117
-118.845
-118.355
-117.252
-115.404
-113.361
-92.2106
-90.9849
-90.3387
-89.9455
-89.3852
-88.3418
-86.6683
-84.8427
-69.8938
-68.7395
-68.1009
-67.6355
-67.0342
-66.0745
-64.6006
-63.0171
-52.6569
-51.6457
-51.0561
-50.5893
-50.0076
-49.1423
-47.8631
-46.5007
-39.3594
-38.5238
-38.0219
-37.5929
-37.0588
-36.2988
-35.2097
-34.0553
-29.0612
-28.3826
-27.9407
-27.544
-27.0705
-26.4165
-25.4964
-24.5206
-21.013
-20.4727
-20.0679
-19.687
-19.2699
-18.7108
-17.9325
-17.0908
-14.6041
-14.177
-13.8233
-13.4786
-13.1126
-12.6319
-11.9702
-11.2126
-9.39598
-9.06238
-8.7683
-8.47306
-8.15516
-7.74188
-7.17889
-6.49989
-5.12567
-4.86398
-4.62036
-4.36874
-4.09303
-3.73565
-3.25352
-2.66524
-1.61327
-1.40241
-1.1957
-0.979262
-0.738471
-0.426023
-0.00731428
0.502692
1.3198
1.49557
1.67481
1.85874
2.06798
2.34251
2.70973
3.15595
3.81765
3.96411
4.11877
4.27528
4.4575
4.69966
5.02401
5.41803
5.95965
6.08034
6.21232
6.34887
6.51111
6.72751
7.01662
7.36754
7.78521
7.88987
8.00604
8.12851
8.27546
8.47091
8.73055
9.0453
9.33867
9.43294
9.53844
9.65049
9.7854
9.9638
10.1989
10.4833
10.6818
10.7702
10.8622
10.9628
11.0865
11.2502
11.4644
11.7235
11.8548
11.941
12.0231
12.1132
12.2259
12.3757
12.5715
12.8085
12.8787
12.9577
13.0331
13.1171
13.2221
13.3609
13.541
13.7591
13.7654
13.8379
13.9085
13.9876
14.0863
14.2157
14.3821
14.5835
14.5289
14.5957
14.6619
14.7366
14.8298
14.9509
15.1053
15.2922
15.1893
15.2508
15.3122
15.3825
15.4705
15.5843
15.7281
15.9023
15.7615
15.8178
15.8755
15.9423
16.0258
16.133
16.2674
16.4304
16.261
16.3119
16.3657
16.4289
16.5081
16.6092
16.7351
16.8879
16.6911
16.7379
16.7883
16.8481
16.9233
17.0189
17.1369
17.2806
17.0512
17.096
17.1445
17.2021
17.274
17.3649
17.476
17.6116
17.3512
17.3943
17.4413
17.4969
17.566
17.6527
17.7577
17.8859
17.6
17.6414
17.6867
17.7402
17.8067
17.8895
17.9889
18.1107
17.8039
17.8436
17.8874
17.9391
18.0031
18.0824
18.1768
18.2926
17.9684
18.0067
18.049
18.099
18.1608
18.2368
18.3265
18.4369
18.096
18.1333
18.1744
18.2229
18.2826
18.3556
18.441
18.5465
18.1893
18.2254
18.2653
18.3124
18.3702
18.4404
18.5218
18.6227
18.2497
18.2847
18.3235
18.3693
18.4253
18.4929
18.5706
18.6674
18.2789
18.313
18.3509
18.3956
18.45
18.5154
18.5898
18.6829
18.2812
18.3144
18.3515
18.3951
18.4482
18.5114
18.5829
18.6725
18.2607
18.2929
18.3291
18.3717
18.4233
18.4845
18.5531
18.6396
18.2184
18.25
18.2854
18.327
18.3772
18.4365
18.5025
18.586
18.154
18.1851
18.2199
18.2608
18.3099
18.3674
18.4309
18.5117
18.0681
18.0988
18.1332
18.1733
18.2214
18.2774
18.3386
18.4169
17.9629
17.9932
18.027
18.0664
18.1135
18.168
18.2272
18.3032
17.8415
17.8711
17.9043
17.9431
17.9891
18.0422
18.0993
18.1732
17.7052
17.7343
17.7669
17.8049
17.8499
17.9017
17.9569
18.0288
17.5539
17.5828
17.615
17.6524
17.6966
17.747
17.8006
17.8705
17.3879
17.4165
17.4484
17.4853
17.5287
17.578
17.6299
17.6982
17.2079
17.2362
17.2677
17.3041
17.3468
17.395
17.4454
17.512
17.0145
17.0424
17.0736
17.1096
17.1516
17.1988
17.2477
17.3129
16.8092
16.8369
16.8678
16.9032
16.9445
16.9908
17.0384
17.1021
16.5934
16.6207
16.6512
16.6862
16.7268
16.7721
16.8184
16.8808
16.3675
16.3945
16.4246
16.4591
16.4991
16.5435
16.5886
16.6497
16.1313
16.1581
16.1879
16.222
16.2614
16.3049
16.3489
16.4088
15.8849
15.9116
15.9411
15.9749
16.0137
16.0564
16.0992
16.1581
15.6286
15.655
15.6844
15.7177
15.756
15.7981
15.8399
15.8977
15.3631
15.3894
15.4184
15.4515
15.4892
15.5305
15.5713
15.6282
15.0894
15.1153
15.1441
15.1767
15.2139
15.2545
15.2944
15.3504
14.8076
14.8333
14.8617
14.894
14.9307
14.9706
15.0096
15.0647
14.5174
14.5429
14.5712
14.6031
14.6393
14.6787
14.7168
14.7711
14.2191
14.2445
14.2725
14.3042
14.34
14.3787
14.4161
14.4696
13.9127
13.938
13.9658
13.9972
14.0326
14.0708
14.1074
14.1603
13.5988
13.6239
13.6515
13.6826
13.7176
13.7553
13.7911
13.8433
13.2774
13.3023
13.3298
13.3606
13.3952
13.4324
13.4676
13.5191
12.9488
12.9736
13.0009
13.0315
13.0658
13.1024
13.137
13.1879
12.6133
12.638
12.6651
12.6955
12.7294
12.7656
12.7996
12.85
12.271
12.2956
12.3225
12.3526
12.3862
12.422
12.4553
12.5052
11.9217
11.9462
11.973
12.0029
12.0362
12.0716
12.1044
12.1538
11.5657
11.5901
11.6168
11.6465
11.6794
11.7144
11.7467
11.7955
11.2029
11.2272
11.2538
11.2833
11.3161
11.3507
11.3825
11.4309
10.8337
10.858
10.8844
10.9138
10.9462
10.9804
11.0117
11.0597
10.4582
10.4824
10.5088
10.5379
10.5701
10.604
10.6349
10.6825
10.0765
10.1006
10.1269
10.1559
10.1878
10.2213
10.2517
10.2989
9.68852
9.71263
9.73885
9.76771
9.79941
9.83266
9.86265
9.90952
9.29454
9.3186
9.34472
9.3734
9.40484
9.43776
9.4673
9.51381
8.89443
8.91848
8.94454
8.97311
9.00435
9.03701
9.06618
9.11237
8.48861
8.51262
8.53859
8.56699
8.59799
8.63034
8.6591
8.70494
8.07691
8.10092
8.12683
8.15513
8.18595
8.21807
8.24652
8.29209
7.65968
7.68367
7.70952
7.73769
7.7683
7.80015
7.82831
7.87365
7.23669
7.26068
7.28649
7.31456
7.34501
7.37666
7.40491
7.4507
6.80815
6.83211
6.85785
6.88579
6.91601
6.94735
6.97541
7.02131
6.37401
6.39792
6.42358
6.4514
6.48145
6.51254
6.54032
6.58598
5.93449
5.95834
5.9839
6.01158
6.04144
6.07231
6.0998
6.14522
5.48968
5.51344
5.53888
5.56638
5.59601
5.62663
5.6538
5.69888
5.03972
5.06339
5.08871
5.11606
5.14551
5.17593
5.20285
5.24772
4.58468
4.60818
4.63331
4.66041
4.68955
4.71964
4.74617
4.79062
4.12478
4.14812
4.17307
4.19999
4.22892
4.25882
4.28516
4.32952
3.65966
3.68262
3.70721
3.73374
3.76227
3.79178
3.8177
3.86165
3.19012
3.21277
3.23702
3.26319
3.29135
3.32051
3.3461
3.38981
2.7139
2.73546
2.75876
2.78412
2.81162
2.84031
2.8656
2.90919
2.23572
2.25686
2.27965
2.30442
2.33124
2.35924
2.3839
2.42681
1.74347
1.76111
1.78103
1.80359
1.8289
1.85614
1.88071
1.92464
1.26279
1.28123
1.30121
1.3231
1.34703
1.37227
1.39484
1.43516
0.739325
0.746896
0.757986
0.773181
0.792877
0.815959
0.834905
0.883324
0.302163
0.32022
0.336607
0.351739
0.36666
0.383731
0.400923
0.376905
)
;

boundaryField
{
    frontAndBack
    {
        type            empty;
    }
    inlet
    {
        type            zeroGradient;
    }
    outlet
    {
        type            fixedValue;
        value           uniform 0;
    }
    walls
    {
        type            zeroGradient;
    }
}


// ************************************************************************* //
