/*--------------------------------*- C++ -*----------------------------------*\
| =========                 |                                                 |
| \\      /  F ield         | OpenFOAM: The Open Source CFD Toolbox           |
|  \\    /   O peration     | Version:  v2012                                 |
|   \\  /    A nd           | Website:  www.openfoam.com                      |
|    \\/     M anipulation  |                                                 |
\*---------------------------------------------------------------------------*/
FoamFile
{
    version     2.0;
    format      ascii;
    class       volScalarField;
    location    "0.095";
    object      k.air;
}
// * * * * * * * * * * * * * * * * * * * * * * * * * * * * * * * * * * * * * //

dimensions      [0 2 -2 0 0 0 0];


internalField   nonuniform List<scalar> 
5600
(
0.652932
1.46933
2.41672
3.07775
3.37978
3.41816
3.31584
3.14748
2.97091
2.81198
2.67482
2.56193
2.47557
2.41382
2.37498
2.35187
2.34481
2.34191
2.34841
2.35248
2.35988
2.36456
2.36854
2.37269
2.37377
2.37752
2.37857
2.381
2.38348
2.38384
2.38814
2.38633
2.39106
2.38848
2.39147
2.39003
2.38942
2.39107
2.38643
2.39088
2.38401
2.3889
2.3829
2.38545
2.38296
2.38182
2.38298
2.37951
2.38195
2.37924
2.37972
2.38016
2.37726
2.38087
2.37591
2.38044
2.37593
2.37917
2.37695
2.37826
2.37828
2.37855
2.37946
2.37959
2.38069
2.38048
2.38236
2.38067
2.38457
2.38113
2.38694
2.38308
2.38843
2.38641
2.38933
2.38971
2.39176
2.39141
2.39676
2.39235
2.40168
2.39492
2.4039
2.39933
2.40517
2.40261
2.40908
2.40351
2.41396
2.40703
2.41314
2.41883
2.40297
2.4404
2.37913
2.49012
2.29071
2.67246
1.90085
3.37382
0.403511
0.378175
0.397522
0.451551
0.511467
0.591068
0.672899
0.794479
0.938294
1.10275
1.28373
1.47548
1.66927
1.85179
2.0244
2.16909
2.29822
2.39293
2.47373
2.52361
2.56418
2.5891
2.60338
2.62022
2.62342
2.63666
2.64025
2.64479
2.654
2.64835
2.66173
2.64907
2.66206
2.64931
2.65477
2.65202
2.64409
2.65466
2.63548
2.6547
2.63201
2.64975
2.63483
2.64136
2.64085
2.63495
2.64427
2.63425
2.64343
2.63936
2.63837
2.64588
2.63355
2.64989
2.63308
2.64976
2.63701
2.64692
2.64259
2.64547
2.64726
2.6481
2.65161
2.65254
2.65677
2.65469
2.663
2.65444
2.66964
2.65582
2.67449
2.66204
2.67538
2.67112
2.67612
2.67657
2.68294
2.67585
2.69539
2.67522
2.70451
2.68155
2.70525
2.69109
2.70704
2.69257
2.71857
2.68811
2.72883
2.69493
2.72239
2.71912
2.70498
2.74714
2.68349
2.79328
2.60532
2.95289
2.32268
3.37468
0.406374
0.344499
0.301359
0.271661
0.251073
0.240654
0.23364
0.236915
0.247142
0.266386
0.296118
0.334008
0.390294
0.448275
0.530533
0.60747
0.709443
0.802429
0.913502
1.01636
1.12387
1.23014
1.32694
1.43119
1.51785
1.60359
1.67111
1.72451
1.78237
1.80699
1.85755
1.86631
1.90784
1.91522
1.93784
1.95772
1.9572
1.99136
1.97366
2.01373
1.99338
2.02401
2.01763
2.02843
2.04098
2.03538
2.05686
2.04918
2.06462
2.06879
2.06685
2.08655
2.07
2.09788
2.07907
2.10297
2.09244
2.10544
2.10572
2.11039
2.11599
2.11942
2.12621
2.12948
2.13799
2.13511
2.15051
2.13757
2.16189
2.14363
2.1688
2.15679
2.17132
2.17097
2.17588
2.17729
2.18909
2.176
2.2064
2.17858
2.21624
2.19094
2.2176
2.20264
2.22442
2.20133
2.24236
2.19586
2.25425
2.20612
2.24945
2.22721
2.24661
2.23562
2.25665
2.24507
2.23887
2.31044
2.15082
2.38665
0.407304
0.343915
0.298226
0.262891
0.233959
0.213323
0.193635
0.180137
0.168758
0.157369
0.156573
0.144398
0.156232
0.144061
0.167781
0.161374
0.193531
0.202078
0.238986
0.270674
0.311647
0.368069
0.416667
0.491673
0.555872
0.640187
0.725236
0.804482
0.904794
0.966598
1.06553
1.11085
1.19408
1.23777
1.2888
1.34449
1.35923
1.42893
1.41995
1.49002
1.48115
1.53077
1.543
1.56206
1.59562
1.59301
1.62914
1.62815
1.64898
1.66632
1.66228
1.69752
1.67713
1.7173
1.69894
1.72939
1.72402
1.73987
1.7462
1.75345
1.76316
1.76998
1.78042
1.78614
1.80026
1.79585
1.81955
1.80217
1.83512
1.81465
1.84401
1.8358
1.84936
1.85478
1.85995
1.86142
1.88046
1.86112
1.90139
1.86958
1.91128
1.88892
1.9148
1.90218
1.92807
1.89944
1.95047
1.89738
1.96089
1.91418
1.95661
1.93485
1.96316
1.93604
1.98446
1.93846
1.98307
1.9737
1.96056
1.98074
0.407235
0.344453
0.297791
0.26348
0.23293
0.212277
0.191869
0.175349
0.165842
0.145965
0.149399
0.122526
0.137706
0.106309
0.126565
0.0991961
0.114051
0.101587
0.102335
0.111121
0.0979658
0.123558
0.109551
0.137795
0.142492
0.16066
0.198171
0.204385
0.275204
0.278177
0.365873
0.381364
0.461055
0.508288
0.561751
0.646704
0.667829
0.775676
0.777324
0.879993
0.890578
0.959835
0.998426
1.02761
1.08933
1.0955
1.15221
1.16669
1.19655
1.23624
1.23347
1.29229
1.27285
1.33063
1.31884
1.35935
1.3644
1.38615
1.40175
1.41459
1.43041
1.44297
1.45923
1.46852
1.49138
1.48591
1.52098
1.50041
1.54294
1.52354
1.556
1.55529
1.56758
1.58046
1.58779
1.58869
1.61662
1.59222
1.64023
1.60915
1.65018
1.63584
1.65802
1.65055
1.67871
1.64892
1.70352
1.65402
1.71144
1.67828
1.70913
1.69897
1.72368
1.69897
1.74933
1.70401
1.75325
1.73185
1.7486
1.73948
0.406766
0.345258
0.297136
0.264196
0.232811
0.211939
0.193209
0.17307
0.168929
0.141895
0.152931
0.118194
0.138721
0.10376
0.121733
0.0991083
0.101165
0.101388
0.0807718
0.103863
0.0681375
0.0979243
0.0704343
0.0798848
0.0867302
0.0572301
0.106582
0.0439392
0.119227
0.0515364
0.120093
0.0863069
0.112815
0.14429
0.11405
0.209003
0.145556
0.266537
0.212841
0.314459
0.310509
0.360184
0.413318
0.426891
0.508381
0.515173
0.584845
0.615614
0.649099
0.715745
0.71346
0.798208
0.784082
0.858071
0.858236
0.907406
0.926668
0.955607
0.983294
1.00535
1.02966
1.05113
1.07666
1.0913
1.12784
1.12296
1.17381
1.15347
1.20661
1.19404
1.22834
1.2406
1.25224
1.27436
1.28743
1.2886
1.32777
1.30174
1.35574
1.33139
1.36875
1.36731
1.38525
1.38582
1.41568
1.39003
1.44341
1.40641
1.45114
1.43892
1.45498
1.46051
1.47905
1.46314
1.50823
1.47477
1.5157
1.5036
1.51747
1.52036
0.406239
0.345828
0.296838
0.264288
0.233303
0.21104
0.19476
0.171317
0.170852
0.140555
0.153451
0.119264
0.135953
0.108506
0.11533
0.106546
0.0931387
0.108229
0.0745739
0.105957
0.0669436
0.0920437
0.0750734
0.0659906
0.092342
0.0405984
0.101716
0.0314671
0.0932725
0.0412849
0.0706581
0.0645739
0.0396774
0.0946451
0.0131653
0.111431
0.0149989
0.104633
0.0362128
0.0977662
0.0776665
0.0532178
0.143863
0.0919914
0.178354
0.144702
0.171663
0.205793
0.184805
0.271324
0.227146
0.323071
0.289534
0.357977
0.359723
0.402151
0.429461
0.459455
0.494206
0.523285
0.55289
0.581736
0.617018
0.635533
0.688143
0.683915
0.749964
0.733454
0.792281
0.791986
0.823278
0.851528
0.862363
0.893421
0.916049
0.917681
0.968921
0.946838
1.00276
0.99332
1.02421
1.03994
1.05562
1.06583
1.09883
1.08216
1.13177
1.11355
1.14534
1.15435
1.16193
1.17933
1.19686
1.1902
1.22948
1.21241
1.24188
1.24554
1.2515
1.26709
0.40605
0.345693
0.297206
0.263687
0.234084
0.210397
0.195163
0.171659
0.169704
0.14294
0.150034
0.123826
0.130884
0.113844
0.110699
0.110073
0.0916737
0.107412
0.07814
0.100133
0.074508
0.0843607
0.0813589
0.0628558
0.0909541
0.0462604
0.0915301
0.04358
0.0787099
0.0540111
0.0565379
0.0718453
0.0311801
0.0889315
0.0136022
0.0919168
0.0155352
0.0761832
0.0343326
0.0458593
0.070545
0.00528296
0.0930791
0.0100525
0.0721349
0.054891
0.0227001
0.102647
0.00451095
0.108209
0.0225789
0.109306
0.055441
0.0902513
0.086808
0.102718
0.116181
0.13052
0.143458
0.161758
0.170954
0.18295
0.215691
0.214234
0.276175
0.253505
0.321519
0.301461
0.34809
0.361208
0.378496
0.421655
0.431903
0.46519
0.497189
0.495838
0.5521
0.538157
0.586533
0.59598
0.617438
0.648046
0.663902
0.681146
0.716377
0.710674
0.753099
0.753641
0.775084
0.798599
0.804367
0.828115
0.84675
0.850797
0.883178
0.883927
0.904334
0.921411
0.924646
0.94817
0.406209
0.345134
0.297799
0.26304
0.234446
0.210622
0.19412
0.173853
0.16644
0.147302
0.145115
0.128948
0.126409
0.117197
0.109217
0.10947
0.0946607
0.102377
0.0848948
0.0927669
0.0814736
0.0794852
0.0830448
0.0654567
0.0842173
0.0566321
0.0792681
0.0564117
0.0673579
0.0627956
0.0519352
0.0711882
0.037988
0.0757304
0.031907
0.0704032
0.0375999
0.0551062
0.0509779
0.0359471
0.0650588
0.0217101
0.0660699
0.0300039
0.042843
0.0568532
0.0140134
0.0745041
0.0063976
0.0677508
0.0183458
0.0538876
0.0297829
0.043828
0.037763
0.0417854
0.0333628
0.050995
0.0366874
0.0495293
0.0499807
0.0422308
0.0720551
0.0331178
0.0873328
0.042013
0.0907623
0.0748295
0.0851257
0.108881
0.0896203
0.129643
0.123562
0.138202
0.165496
0.149963
0.193759
0.183607
0.20942
0.227793
0.23284
0.265316
0.276462
0.293655
0.323234
0.32454
0.355803
0.366166
0.380143
0.407335
0.412984
0.438535
0.456184
0.46846
0.49506
0.50524
0.524088
0.543344
0.552178
0.573712
0.406406
0.344713
0.298155
0.262733
0.234433
0.211102
0.193026
0.175665
0.164036
0.15017
0.142211
0.131537
0.124667
0.117763
0.110147
0.107032
0.0984836
0.0976364
0.0899231
0.0883547
0.084331
0.0790706
0.080447
0.0711326
0.0760174
0.0663218
0.0695384
0.0647579
0.0617594
0.0645666
0.0546826
0.0636572
0.0499101
0.0606848
0.0483316
0.0550894
0.0497572
0.0477697
0.052241
0.0412425
0.0528795
0.0386089
0.0483947
0.0426967
0.0381322
0.0497371
0.0300375
0.0505128
0.0304302
0.0446346
0.0344403
0.0388909
0.0357709
0.0371848
0.033405
0.0390342
0.0280739
0.0414319
0.0268444
0.037882
0.0322897
0.0288808
0.0422878
0.0190768
0.0470447
0.0192771
0.0399732
0.0334552
0.0261226
0.0484365
0.0191686
0.0500104
0.0302002
0.0402249
0.0467184
0.0329361
0.0535834
0.0422965
0.0506004
0.0597196
0.0498503
0.0716472
0.0646971
0.0756951
0.0873448
0.0822259
0.102033
0.101343
0.109802
0.12479
0.123442
0.143045
0.148646
0.16072
0.177583
0.185282
0.202562
0.214452
0.227099
0.242555
0.406498
0.344556
0.298269
0.262661
0.234363
0.211358
0.192545
0.176383
0.163151
0.151147
0.141313
0.132221
0.124379
0.117562
0.110908
0.10576
0.100156
0.0957867
0.0916661
0.0870422
0.0848858
0.0794947
0.0789386
0.0735901
0.0729001
0.0695954
0.0665847
0.0668168
0.0609094
0.063833
0.0569844
0.0597989
0.0548199
0.0552421
0.0532721
0.0513316
0.0512757
0.0485688
0.0487837
0.0465041
0.0463485
0.0446736
0.0439584
0.043471
0.0410603
0.0429762
0.038322
0.0419475
0.0369083
0.0396424
0.037132
0.0358854
0.0388378
0.0316946
0.0397831
0.030263
0.0367289
0.0336283
0.0300102
0.0389022
0.024881
0.0393952
0.0276055
0.0319435
0.0365457
0.0234877
0.0414908
0.0246488
0.0357168
0.0361735
0.0258398
0.0462128
0.0252244
0.0458337
0.0363829
0.0396494
0.0494777
0.040508
0.0555655
0.0526412
0.0566348
0.0685179
0.064091
0.0798023
0.0815373
0.089374
0.101263
0.105449
0.119125
0.128027
0.13778
0.152968
0.161116
0.177678
0.190175
0.203671
0.220656
0.232757
0.250392
0.264929
0.406537
0.344509
0.298296
0.262665
0.234312
0.211473
0.192379
0.176594
0.162944
0.151311
0.141263
0.132114
0.124684
0.117066
0.111554
0.10505
0.100805
0.0953241
0.0918077
0.0872892
0.0842147
0.0805032
0.0777153
0.0747921
0.071923
0.0701095
0.0666305
0.0661499
0.0620713
0.0623311
0.0585315
0.0584877
0.0555519
0.0553826
0.0520155
0.0538423
0.0476177
0.0531475
0.0439591
0.0510297
0.0432267
0.0460768
0.0453522
0.0400535
0.0471086
0.036842
0.0450821
0.038476
0.0394797
0.0425608
0.0347009
0.0439743
0.0355374
0.0402296
0.0418195
0.0350538
0.0479213
0.0353456
0.0487714
0.0439987
0.0462749
0.056164
0.0481943
0.0649699
0.059641
0.0703995
0.0775769
0.0795133
0.095692
0.0976171
0.112712
0.122867
0.13283
0.150525
0.159125
0.178447
0.191363
0.208025
0.226827
0.241658
0.262704
0.279641
0.299078
0.319632
0.337679
0.359353
0.378154
0.398639
0.419042
0.438327
0.459494
0.478684
0.497623
0.518034
0.535339
0.554636
0.57254
0.589507
0.607875
0.624573
0.40657
0.344482
0.298309
0.262685
0.234258
0.211576
0.192245
0.176747
0.162818
0.151355
0.141364
0.131795
0.125255
0.116204
0.112641
0.103791
0.102038
0.094255
0.0924445
0.0871985
0.0835747
0.0818067
0.0757904
0.0770253
0.069641
0.0720211
0.0653879
0.0664849
0.062805
0.0607063
0.0611044
0.0556497
0.0588908
0.0528167
0.0546929
0.0532001
0.0484562
0.0557288
0.0426135
0.0572549
0.0408525
0.0550491
0.0449749
0.0499498
0.0527954
0.0466519
0.0600517
0.0501019
0.0646602
0.0615274
0.0693671
0.0780337
0.0795182
0.096308
0.0987197
0.115987
0.126804
0.140271
0.160392
0.172139
0.196368
0.212186
0.234642
0.257517
0.277505
0.304676
0.325822
0.352712
0.377456
0.402314
0.429413
0.453931
0.480918
0.505577
0.53053
0.555816
0.578916
0.603557
0.626204
0.648657
0.671362
0.691848
0.71351
0.733692
0.75333
0.773449
0.791738
0.810596
0.828848
0.845624
0.863683
0.880083
0.896336
0.913516
0.927909
0.944234
0.958812
0.972872
0.988163
1.00188
0.406595
0.344455
0.298335
0.262677
0.23424
0.211629
0.192132
0.1769
0.162589
0.151588
0.141089
0.13197
0.125136
0.116075
0.112945
0.103127
0.102919
0.0930669
0.0937224
0.0859047
0.0847019
0.0811273
0.0761448
0.0775696
0.0690239
0.0738864
0.0643277
0.0692763
0.062408
0.0640036
0.0627587
0.059465
0.0642401
0.0579091
0.0657662
0.061573
0.0676737
0.0713567
0.0725184
0.0866106
0.0843645
0.106226
0.106701
0.130615
0.140959
0.162342
0.184978
0.203689
0.235484
0.255809
0.290305
0.316818
0.348741
0.382273
0.411186
0.448671
0.478571
0.514901
0.547131
0.57847
0.612683
0.640423
0.672944
0.700396
0.728525
0.756822
0.781412
0.808788
0.832318
0.856789
0.879931
0.901663
0.923728
0.944398
0.964954
0.984782
1.00368
1.02242
1.04012
1.05728
1.07425
1.09
1.10608
1.12138
1.13617
1.15125
1.1652
1.17938
1.19322
1.20573
1.21911
1.23099
1.24279
1.2553
1.26537
1.27746
1.28766
1.29789
1.30926
1.31916
0.406586
0.344458
0.298342
0.262644
0.234251
0.211568
0.192104
0.176879
0.162434
0.151728
0.140703
0.132385
0.124512
0.11677
0.112306
0.103926
0.102778
0.0937072
0.0947689
0.0863765
0.0875307
0.0820945
0.0811756
0.0806387
0.0769079
0.0817119
0.0768682
0.0857263
0.0836182
0.0947249
0.0996053
0.112041
0.126745
0.141929
0.167029
0.188175
0.220952
0.250456
0.287238
0.326081
0.363498
0.409976
0.4475
0.499084
0.539393
0.588807
0.631218
0.67397
0.718106
0.754169
0.796666
0.829387
0.866303
0.898907
0.928809
0.961256
0.986204
1.01579
1.0401
1.06471
1.08943
1.10967
1.13316
1.1519
1.17226
1.1915
1.20898
1.22823
1.24458
1.26228
1.27809
1.29355
1.30832
1.32225
1.33594
1.34879
1.36147
1.37342
1.38518
1.39625
1.4073
1.4177
1.42806
1.43822
1.44779
1.45767
1.46689
1.47608
1.48544
1.4938
1.50317
1.51132
1.51967
1.52856
1.53549
1.54446
1.55148
1.55911
1.56756
1.57488
0.406522
0.34451
0.298259
0.262612
0.234176
0.211474
0.192122
0.176863
0.162588
0.152086
0.141105
0.133707
0.125565
0.119951
0.114962
0.110241
0.109
0.105169
0.108114
0.106443
0.113599
0.116891
0.128372
0.140358
0.157601
0.182111
0.208532
0.247581
0.28615
0.337161
0.386165
0.444083
0.502472
0.564979
0.630288
0.691662
0.755392
0.812091
0.869605
0.921837
0.970313
1.01902
1.05831
1.10259
1.13448
1.17215
1.20091
1.23024
1.25836
1.28056
1.30752
1.32644
1.35022
1.3695
1.38852
1.40851
1.42336
1.44198
1.45577
1.47112
1.48549
1.49745
1.51172
1.52229
1.53492
1.5459
1.55653
1.568
1.57762
1.58853
1.59786
1.60774
1.61674
1.62566
1.63439
1.64254
1.65098
1.65856
1.66651
1.67372
1.68118
1.68821
1.69513
1.70214
1.70857
1.71541
1.72174
1.72805
1.73467
1.74041
1.74724
1.75295
1.75911
1.76555
1.77057
1.77741
1.78247
1.78848
1.79494
1.80085
0.406309
0.344619
0.297984
0.26287
0.234617
0.21292
0.194578
0.180705
0.168698
0.161087
0.154455
0.153089
0.152598
0.158051
0.165636
0.179442
0.198021
0.222752
0.255564
0.294319
0.343403
0.397981
0.462742
0.534008
0.613969
0.700525
0.788908
0.881762
0.967296
1.05127
1.12409
1.19438
1.25464
1.30937
1.35776
1.39875
1.43863
1.47042
1.50286
1.53024
1.5561
1.58242
1.60203
1.62632
1.64063
1.6606
1.67296
1.68785
1.70096
1.71101
1.7247
1.73248
1.7449
1.75317
1.76287
1.77296
1.78029
1.79089
1.79774
1.80693
1.81466
1.82166
1.83011
1.83599
1.84394
1.85013
1.85689
1.86376
1.86967
1.8766
1.88212
1.88867
1.89425
1.90042
1.90619
1.91176
1.91764
1.92272
1.92853
1.93341
1.9389
1.94386
1.94882
1.95401
1.95856
1.96373
1.96829
1.97297
1.97794
1.98211
1.98734
1.9915
1.99629
2.00106
2.00493
2.01027
2.01407
2.01907
2.02404
2.02912
0.405206
0.345688
0.300643
0.272994
0.251958
0.243126
0.237232
0.242521
0.255861
0.278435
0.310889
0.357019
0.413719
0.484207
0.564519
0.656171
0.755722
0.862095
0.972485
1.08364
1.19457
1.30215
1.40736
1.50867
1.60036
1.67775
1.74274
1.79781
1.84167
1.88085
1.9097
1.93812
1.9587
1.97855
1.99526
2.00879
2.02307
2.0322
2.04364
2.05119
2.05936
2.06781
2.07311
2.08262
2.08633
2.09565
2.09925
2.10653
2.11147
2.11578
2.1223
2.12486
2.13129
2.13411
2.13918
2.14365
2.14705
2.15274
2.1557
2.16111
2.1648
2.16899
2.17372
2.17702
2.18203
2.18545
2.18994
2.19392
2.19774
2.20211
2.20549
2.20979
2.21315
2.21734
2.22086
2.22465
2.2284
2.23172
2.23575
2.23883
2.24278
2.24602
2.24955
2.25323
2.25638
2.26022
2.2634
2.26689
2.2705
2.27354
2.27749
2.28048
2.28422
2.28768
2.29072
2.29485
2.29762
2.30185
2.30558
2.31002
0.402028
0.380581
0.399053
0.460042
0.520908
0.609939
0.694891
0.833808
0.985954
1.1596
1.35045
1.54953
1.74663
1.93391
2.10322
2.25033
2.37164
2.4672
2.53871
2.58901
2.62394
2.64605
2.66293
2.67268
2.68323
2.68979
2.6963
2.70144
2.70372
2.70762
2.70641
2.70797
2.70475
2.70388
2.70105
2.69828
2.69696
2.69325
2.69266
2.68944
2.68828
2.68702
2.68487
2.68565
2.68314
2.68487
2.68271
2.68408
2.68318
2.68311
2.68398
2.68275
2.68434
2.68329
2.68456
2.68476
2.68512
2.68673
2.68671
2.68872
2.68924
2.69088
2.69239
2.6935
2.69582
2.69699
2.69929
2.70088
2.70283
2.70487
2.70657
2.70886
2.71055
2.71302
2.71477
2.71715
2.71915
2.72115
2.7236
2.72535
2.72799
2.72988
2.73232
2.73473
2.73686
2.73957
2.74167
2.74424
2.74673
2.74898
2.75186
2.75404
2.75693
2.75942
2.76188
2.76502
2.76705
2.7706
2.77323
2.7767
0.65169
1.46968
2.41444
3.07076
3.36114
3.3927
3.2809
3.10738
2.92917
2.76998
2.63155
2.51961
2.43482
2.37615
2.33909
2.32002
2.31262
2.31371
2.31822
2.32455
2.33054
2.3353
2.33965
2.34209
2.34518
2.34712
2.34955
2.35163
2.35338
2.35556
2.35661
2.35844
2.35874
2.35949
2.35926
2.35892
2.35844
2.3573
2.35666
2.35517
2.35423
2.3529
2.3516
2.35071
2.34916
2.34874
2.34722
2.34694
2.34577
2.34531
2.34473
2.34394
2.3438
2.34293
2.34291
2.34231
2.34213
2.34199
2.34164
2.34188
2.34162
2.34197
2.34214
2.34247
2.34305
2.34343
2.34418
2.34468
2.34542
2.34611
2.34687
2.34779
2.34863
2.34974
2.35065
2.35184
2.35289
2.35405
2.35533
2.3565
2.35799
2.35926
2.36078
2.36223
2.36368
2.36526
2.36669
2.36832
2.36988
2.37146
2.3732
2.37477
2.37662
2.37823
2.38009
2.38182
2.3835
2.38529
2.38629
2.38675
0.198391
8.99815
11.5408
12.3105
12.861
13.0309
12.9359
12.6309
12.2334
11.7855
11.3704
10.9921
10.6578
10.3665
10.1068
9.87851
9.66301
9.44457
9.19614
8.85677
8.43663
7.97795
7.44904
6.85856
6.28659
5.72215
5.176
4.74978
4.39436
4.00045
3.66029
3.40648
3.09512
2.72789
2.3853
2.04087
1.74947
1.64168
1.65513
1.71643
1.8854
2.11113
2.27626
2.34853
2.34
2.27571
2.20956
2.18189
2.18426
2.18627
2.16214
2.09983
2.00409
1.89043
1.76846
1.63823
1.49724
1.34428
1.18094
1.01196
0.843688
0.683384
0.538477
0.414264
0.312487
0.232245
0.170999
0.125242
0.091588
0.0673105
0.0502457
0.0386339
0.0309927
0.0261147
0.0230948
0.0213026
0.0203096
0.0198009
0.0195223
0.0192754
0.0189444
0.0184959
0.0179549
0.0173793
0.0168388
0.0163853
0.0160396
0.0157942
0.0156297
0.0155238
0.0154582
0.015418
0.0153944
0.0153799
0.0153717
0.0153663
0.0153635
0.015361
0.0153602
0.0153582
1.42057
4.17461
8.0962
9.92471
10.8638
11.2295
11.2818
11.0747
10.7634
10.3768
10.0155
9.70009
9.43627
9.21789
9.03026
8.87364
8.7282
8.57472
8.39089
8.10733
7.72542
7.29714
6.79442
6.22003
5.66511
5.12382
4.59271
4.18572
3.86676
3.4974
3.16973
2.94203
2.64926
2.28306
1.97697
1.69953
1.46159
1.43248
1.54188
1.62681
1.75672
1.96536
2.15131
2.25568
2.27316
2.22393
2.16129
2.12954
2.12465
2.11819
2.08497
2.0144
1.91307
1.79777
1.67781
1.55274
1.41882
1.27376
1.11874
0.957846
0.79673
0.642262
0.501797
0.381151
0.282686
0.205995
0.148531
0.106686
0.0770371
0.0565794
0.0428363
0.0338282
0.0280251
0.0243319
0.0220171
0.0206134
0.0198162
0.0194018
0.019177
0.0189775
0.0186952
0.0182976
0.0178093
0.0172854
0.0167861
0.0163607
0.0160308
0.0157942
0.0156333
0.0155284
0.0154616
0.0154203
0.0153946
0.0153792
0.0153696
0.0153639
0.0153603
0.0153582
0.0153568
0.0153557
2.13053
1.99987
3.82609
6.04298
7.6837
8.54136
8.94537
8.99091
8.88865
8.65639
8.41538
8.21209
8.03926
7.89804
7.78188
7.69343
7.61591
7.52709
7.40672
7.1875
6.85472
6.46871
6.00739
5.46313
4.93773
4.43485
3.9283
3.53995
3.2588
2.91598
2.60063
2.40608
2.1453
1.79525
1.55516
1.39155
1.25213
1.32542
1.55146
1.66782
1.71553
1.84938
2.0219
2.14674
2.18941
2.15735
2.09935
2.06308
2.04982
2.0336
1.99045
1.91182
1.80635
1.69103
1.57438
1.45547
1.32942
1.19311
1.04737
0.895589
0.742749
0.595338
0.460638
0.344925
0.251237
0.179424
0.126772
0.0896997
0.0645162
0.0479178
0.0372145
0.0303757
0.0259894
0.0231519
0.0213154
0.0201573
0.0194706
0.0190996
0.0188964
0.0187254
0.0184835
0.0181347
0.0176988
0.0172303
0.0167778
0.0163816
0.0160618
0.0158261
0.0156608
0.0155515
0.0154792
0.0154341
0.0154044
0.0153871
0.0153751
0.015369
0.0153641
0.0153624
0.0153604
0.0153606
2.0077
1.84944
2.08878
2.8154
4.01003
5.09402
5.8865
6.28176
6.48917
6.51192
6.47391
6.44725
6.41528
6.38676
6.36544
6.35965
6.35976
6.33563
6.27514
6.12131
5.84453
5.50961
5.10273
4.59553
4.1023
3.64389
3.16621
2.79994
2.5597
2.24946
1.95885
1.81824
1.61443
1.31368
1.19097
1.20445
1.21171
1.38806
1.7227
1.88562
1.82925
1.81636
1.91626
2.03261
2.09097
2.07484
2.02231
1.98164
1.95925
1.93209
1.87821
1.7923
1.68482
1.57185
1.46058
1.34913
1.23168
1.10456
0.968311
0.825908
0.681923
0.542585
0.415152
0.306179
0.219097
0.153593
0.106902
0.0752097
0.0545518
0.0414652
0.0332631
0.0280723
0.0246948
0.022431
0.0208918
0.019869
0.0192274
0.0188611
0.0186555
0.0185006
0.0182995
0.0180087
0.0176331
0.0172206
0.0168121
0.0164433
0.0161316
0.015893
0.0157188
0.0156007
0.0155193
0.015468
0.0154324
0.0154119
0.0153966
0.0153895
0.0153827
0.0153812
0.0153784
0.0153798
1.77034
1.72868
1.72814
1.79101
2.05688
2.43669
2.9583
3.38328
3.78018
4.02372
4.19215
4.35934
4.49836
4.61714
4.72148
4.82031
4.9127
4.96653
4.97604
4.89233
4.67795
4.4005
4.05289
3.58786
3.13248
2.72417
2.28596
1.96194
1.78346
1.53216
1.30178
1.25564
1.16002
0.981328
1.02841
1.23484
1.3839
1.63149
2.04014
2.26388
2.13202
1.92537
1.87962
1.93748
1.98817
1.97987
1.93146
1.88623
1.85423
1.81549
1.75116
1.66012
1.55425
1.44734
1.34473
1.24286
1.13494
1.01689
0.889189
0.754977
0.619055
0.487793
0.368529
0.26772
0.188583
0.130459
0.0902833
0.0639242
0.0472972
0.0370342
0.0306851
0.0266433
0.0239359
0.0220329
0.0206621
0.0196957
0.0190509
0.0186591
0.0184323
0.0182825
0.0181206
0.0178959
0.0175904
0.0172347
0.0168633
0.0165176
0.0162172
0.01598
0.0157987
0.0156709
0.0155788
0.0155188
0.0154757
0.0154503
0.0154308
0.0154215
0.0154127
0.0154106
0.015407
0.0154088
1.53007
1.52748
1.52243
1.48963
1.50717
1.52012
1.6127
1.67553
1.8296
1.94997
2.08019
2.27102
2.46427
2.66463
2.8663
3.05409
3.22782
3.36402
3.45515
3.44991
3.30797
3.09761
2.81405
2.40856
2.02047
1.69147
1.34357
1.12422
1.05969
0.936952
0.850542
0.938944
0.982537
0.966114
1.155
1.4753
1.71092
2.00123
2.45859
2.7526
2.5975
2.21355
1.96595
1.90286
1.90499
1.88478
1.83362
1.78199
1.73962
1.68948
1.6169
1.52499
1.42627
1.33116
1.24205
1.15311
1.05611
0.946457
0.824879
0.695648
0.564869
0.439774
0.32786
0.235018
0.163675
0.112585
0.0781975
0.0561822
0.0425598
0.034251
0.0291181
0.025807
0.0235189
0.0218352
0.0205544
0.0195974
0.0189176
0.0184761
0.0182086
0.018045
0.017905
0.0177336
0.0174948
0.0171984
0.0168716
0.0165582
0.0162786
0.0160498
0.0158672
0.0157321
0.0156309
0.015562
0.0155116
0.0154804
0.0154569
0.0154445
0.015434
0.0154304
0.0154263
0.0154273
1.26895
1.27601
1.28074
1.25346
1.23357
1.19375
1.17118
1.12651
1.11163
1.07925
1.05235
1.06658
1.08632
1.14333
1.24501
1.3669
1.50563
1.64597
1.77718
1.83528
1.77464
1.64833
1.45091
1.16773
0.934544
0.786671
0.675887
0.681903
0.771202
0.81117
0.879656
1.03926
1.14384
1.21543
1.46517
1.82746
2.11525
2.44923
2.94646
3.30626
3.17327
2.67275
2.21863
1.98297
1.88473
1.81927
1.74933
1.68554
1.6311
1.57104
1.49525
1.40955
1.32551
1.24951
1.17974
1.10723
1.02218
0.919262
0.799705
0.669876
0.538452
0.414427
0.305623
0.217126
0.150326
0.103287
0.0720878
0.0523385
0.0402114
0.0328457
0.0283006
0.0253578
0.0232981
0.0217424
0.0205125
0.0195462
0.0188174
0.0183074
0.0179741
0.0177643
0.0176105
0.0174605
0.0172725
0.0170391
0.0167721
0.0165052
0.0162572
0.0160454
0.0158703
0.015736
0.0156334
0.0155613
0.0155085
0.0154743
0.0154493
0.0154349
0.0154238
0.0154188
0.0154147
0.0154146
0.948567
0.965929
0.97722
0.964988
0.945133
0.910364
0.868482
0.821535
0.771802
0.718969
0.66994
0.628339
0.589275
0.564521
0.549538
0.544768
0.555768
0.570774
0.598858
0.618432
0.604264
0.567473
0.516151
0.491872
0.546326
0.654412
0.767748
0.896947
1.01906
1.09562
1.19787
1.34425
1.4429
1.5563
1.84382
2.22593
2.55481
2.94333
3.47299
3.87742
3.79896
3.25797
2.64479
2.22271
1.98358
1.83531
1.72383
1.63737
1.56741
1.49978
1.42737
1.35539
1.29253
1.24095
1.19335
1.1374
1.06212
0.961992
0.838678
0.700919
0.560725
0.429471
0.315731
0.224101
0.155187
0.106555
0.0741332
0.0534925
0.0407664
0.0330406
0.0283158
0.0253171
0.0232714
0.0217488
0.0205345
0.019548
0.0187626
0.01817
0.0177464
0.0174567
0.0172507
0.0170856
0.0169222
0.0167409
0.0165349
0.0163207
0.0161135
0.0159313
0.0157783
0.0156596
0.0155686
0.0155042
0.0154572
0.0154265
0.0154043
0.0153911
0.0153813
0.0153765
0.015373
0.0153723
0.581428
0.599827
0.612332
0.61007
0.599392
0.574792
0.545107
0.513194
0.477884
0.451159
0.428151
0.412154
0.407733
0.405364
0.406815
0.417753
0.426973
0.436255
0.459712
0.488144
0.520975
0.57933
0.67085
0.787343
0.913555
1.03149
1.13893
1.25269
1.35598
1.43479
1.54176
1.67278
1.77374
1.93544
2.25922
2.63777
2.98165
3.40621
3.94741
4.3756
4.3885
3.9015
3.20667
2.6302
2.24631
1.99421
1.82258
1.70169
1.61018
1.53359
1.46522
1.40725
1.36444
1.33326
1.30095
1.25262
1.17829
1.07348
0.940233
0.788465
0.632952
0.487373
0.361388
0.259739
0.182532
0.126741
0.088298
0.0629307
0.0467609
0.0367032
0.0305039
0.0266343
0.0241055
0.0223221
0.0209483
0.0198329
0.0189165
0.0181877
0.0176295
0.0172225
0.0169275
0.0167118
0.016536
0.0163772
0.0162134
0.0160498
0.0158899
0.0157514
0.015634
0.0155459
0.0154771
0.0154313
0.015396
0.0153757
0.0153585
0.0153512
0.0153429
0.0153416
0.0153378
0.0153399
0.253797
0.269152
0.28087
0.290667
0.297098
0.301452
0.308561
0.319608
0.33726
0.363752
0.397107
0.436359
0.478777
0.520012
0.561864
0.602679
0.639108
0.680748
0.729356
0.783424
0.85504
0.943947
1.04338
1.15682
1.27923
1.3911
1.49728
1.60559
1.69596
1.77759
1.88543
2.00118
2.12059
2.32623
2.63874
2.96325
3.2981
3.74161
4.27568
4.70413
4.80731
4.48002
3.82974
3.16611
2.67035
2.32994
2.09808
1.93326
1.80911
1.71188
1.63446
1.57529
1.53448
1.50437
1.46819
1.41116
1.32547
1.2081
1.06187
0.896232
0.726604
0.567771
0.430222
0.318833
0.233143
0.169394
0.123164
0.0903919
0.0676037
0.0521082
0.0417127
0.034749
0.0299737
0.0265702
0.0239997
0.0219929
0.0203847
0.0191307
0.0181652
0.0174683
0.0169601
0.0166154
0.0163569
0.0161789
0.0160204
0.0159047
0.0157892
0.0157166
0.0156418
0.0156096
0.015566
0.0155603
0.0155333
0.0155418
0.0155215
0.0155371
0.0155193
0.0155402
0.0155252
0.0155529
0.28099
0.298992
0.3162
0.34183
0.371673
0.409956
0.457806
0.511187
0.57319
0.638533
0.706076
0.771664
0.831276
0.885812
0.936533
0.980662
1.02211
1.06664
1.11375
1.17023
1.24214
1.32558
1.41904
1.522
1.62477
1.72292
1.82232
1.9166
1.99508
2.07636
2.17814
2.28966
2.4241
2.61576
2.84954
3.10606
3.43493
3.88566
4.39739
4.80686
4.9657
4.80677
4.33571
3.71512
3.16812
2.78053
2.50223
2.28551
2.1134
1.9753
1.86424
1.77772
1.71436
1.66315
1.60534
1.52825
1.4244
1.29199
1.13689
0.968851
0.799682
0.641776
0.504638
0.392865
0.305902
0.240366
0.191206
0.153803
0.124735
0.102202
0.0844402
0.0702484
0.0585366
0.0489122
0.040923
0.0345539
0.02948
0.0257094
0.0228575
0.0209262
0.0195058
0.0186539
0.0180011
0.0177255
0.0174875
0.0175353
0.0175054
0.0176987
0.017725
0.017943
0.0179409
0.0181361
0.0180849
0.0182603
0.0181676
0.0183388
0.018222
0.0184127
0.018298
0.0185397
0.642879
0.660865
0.68217
0.710711
0.748181
0.794676
0.848594
0.908392
0.971377
1.03482
1.0961
1.15201
1.20268
1.24824
1.28919
1.32589
1.3618
1.40016
1.44327
1.49525
1.55782
1.62954
1.71028
1.79892
1.89253
1.98751
2.0781
2.1543
2.21852
2.29232
2.38293
2.4779
2.57717
2.69492
2.85073
3.07596
3.40742
3.85292
4.3319
4.7112
4.89059
4.84092
4.55238
4.07875
3.58207
3.1782
2.85508
2.58159
2.35581
2.16853
2.01446
1.89423
1.80401
1.72821
1.64751
1.55012
1.43124
1.29321
1.1415
0.98415
0.830007
0.689101
0.568509
0.471263
0.39491
0.335885
0.289682
0.253271
0.223197
0.197877
0.174901
0.153763
0.133189
0.114208
0.096385
0.0811446
0.067871
0.0577506
0.0495095
0.0440371
0.0397014
0.0374732
0.0356499
0.035596
0.0354783
0.0367933
0.0374554
0.0391711
0.0397809
0.0412899
0.0415026
0.0426749
0.0425063
0.0434631
0.0430308
0.0439044
0.0433424
0.0442718
0.0437227
0.0448672
1.01733
1.03285
1.05176
1.07779
1.11146
1.15248
1.19937
1.25008
1.30266
1.35454
1.40328
1.44722
1.48735
1.52298
1.55595
1.58716
1.6175
1.65154
1.69173
1.73902
1.79468
1.85931
1.93267
2.01501
2.10379
2.18761
2.25632
2.30684
2.35206
2.40819
2.46913
2.51479
2.54764
2.60385
2.72468
2.94088
3.27617
3.70663
4.1457
4.48824
4.66715
4.67469
4.50852
4.17967
3.77459
3.38606
3.02911
2.71305
2.44771
2.22481
2.04264
1.9038
1.79883
1.7068
1.60919
1.49797
1.37299
1.23823
1.09823
0.959453
0.828315
0.71268
0.616287
0.540408
0.481068
0.435245
0.397853
0.367164
0.339443
0.314347
0.28917
0.265145
0.240501
0.217598
0.19509
0.175869
0.158158
0.144625
0.132873
0.125467
0.119491
0.117457
0.115996
0.118032
0.119654
0.123914
0.126433
0.13078
0.132552
0.135979
0.136585
0.139085
0.138777
0.140753
0.13987
0.141647
0.1405
0.142388
0.141263
0.14362
1.33112
1.34321
1.35837
1.37979
1.40704
1.44016
1.47771
1.51783
1.55915
1.6003
1.63892
1.67487
1.70872
1.73941
1.76989
1.79896
1.82677
1.85933
1.89667
1.93784
1.98612
2.04283
2.10781
2.18026
2.25121
2.30623
2.34106
2.3614
2.38252
2.40815
2.42039
2.40679
2.392
2.42064
2.5318
2.74905
3.07874
3.48202
3.87596
4.17885
4.34807
4.38602
4.29276
4.06668
3.74195
3.37914
3.01363
2.68285
2.40195
2.16584
1.97788
1.83889
1.7315
1.63117
1.52387
1.40733
1.28453
1.15988
1.03631
0.919081
0.812845
0.723249
0.650972
0.5956
0.552663
0.520004
0.493085
0.47075
0.449317
0.42892
0.406966