/*--------------------------------*- C++ -*----------------------------------*\
| =========                 |                                                 |
| \\      /  F ield         | OpenFOAM: The Open Source CFD Toolbox           |
|  \\    /   O peration     | Version:  v2012                                 |
|   \\  /    A nd           | Website:  www.openfoam.com                      |
|    \\/     M anipulation  |                                                 |
\*---------------------------------------------------------------------------*/
FoamFile
{
    version     2.0;
    format      ascii;
    class       scalarField;
    location    "0.12/lagrangian/kinematicCloud";
    object      age;
}
// * * * * * * * * * * * * * * * * * * * * * * * * * * * * * * * * * * * * * //


54
(
0.1192
0.1182
0.1171
0.116
0.115
0.114
0.113
0.112
0.1109
0.1098
0.109725
0.1087
0.1076
0.1065
0.1054
0.1043
0.1032
0.1021
0.101
0.100925
0.0999
0.0988
0.0977
0.0966
0.096525
0.0955
0.0944
0.094325
0.0933
0.093225
0.0922
0.0911
0.09
0.0889
0.088825
0.0879
0.0869
0.0859
0.0849
0.0839
0.0829
0.0819
0.0809
0.0799
0.0789
0.0779
0.0769
0.0759
0.0749
0.0739
0.0729
0.0719
0.0709
0.0699
)


// ************************************************************************* //
