/*--------------------------------*- C++ -*----------------------------------*\
| =========                 |                                                 |
| \\      /  F ield         | OpenFOAM: The Open Source CFD Toolbox           |
|  \\    /   O peration     | Version:  v2012                                 |
|   \\  /    A nd           | Website:  www.openfoam.com                      |
|    \\/     M anipulation  |                                                 |
\*---------------------------------------------------------------------------*/
FoamFile
{
    version     2.0;
    format      ascii;
    class       vectorField;
    location    "0.12/lagrangian/kinematicCloud";
    object      UCorrect;
}
// * * * * * * * * * * * * * * * * * * * * * * * * * * * * * * * * * * * * * //


54
(
(2.90781e-32 2.35173e-35 0)
(-2.71412e-28 3.10042e-31 0)
(0 0 0)
(4.96278e-28 1.02445e-30 0)
(5.97516e-28 -5.41213e-31 0)
(-2.23612e-28 -7.87816e-32 0)
(0 0 0)
(1.40151e-27 -3.14692e-30 0)
(1.21955e-27 -3.02891e-30 0)
(0 0 0)
(-2.91805e-28 8.76234e-31 0)
(3.86478e-32 1.96962e-34 0)
(1.26992e-10 1.37097e-13 0)
(0 0 0)
(-1.2576e-10 -1.38693e-13 0)
(0 0 0)
(0 0 0)
(0 0 0)
(0 0 0)
(0 0 0)
(1.12501e-31 -1.61712e-33 0)
(0 0 0)
(0 0 0)
(0 0 0)
(0 0 0)
(0 0 0)
(1.50628e-27 7.66538e-30 0)
(8.16123e-28 -5.77154e-30 0)
(0 0 0)
(0 0 0)
(0 0 0)
(0 0 0)
(0 0 0)
(-2.24018e-28 7.20133e-31 0)
(0 0 0)
(0 0 0)
(-1.54114e-30 7.81986e-31 0)
(0 0 0)
(0 0 0)
(2.03132e-27 3.43564e-30 0)
(0 0 0)
(0 0 0)
(0 0 0)
(8.43582e-28 5.80829e-30 0)
(0 0 0)
(0 0 0)
(0 0 0)
(-1.40883e-28 1.33356e-31 0)
(-1.05923e-28 -9.13991e-31 0)
(4.44483e-28 -1.2896e-30 0)
(0 0 0)
(-8.67841e-29 -1.20647e-30 0)
(1.65589e-27 -6.37007e-30 0)
(0 0 0)
)


// ************************************************************************* //
