/*--------------------------------*- C++ -*----------------------------------*\
| =========                 |                                                 |
| \\      /  F ield         | OpenFOAM: The Open Source CFD Toolbox           |
|  \\    /   O peration     | Version:  v2012                                 |
|   \\  /    A nd           | Website:  www.openfoam.com                      |
|    \\/     M anipulation  |                                                 |
\*---------------------------------------------------------------------------*/
FoamFile
{
    version     2.0;
    format      ascii;
    class       volScalarField;
    location    "0.171";
    object      epsilon.air;
}
// * * * * * * * * * * * * * * * * * * * * * * * * * * * * * * * * * * * * * //

dimensions      [0 2 -3 0 0 0 0];


internalField   nonuniform List<scalar> 
1900
(
112.724
141.424
210.097
257.591
369.051
443.457
614.739
724.909
971.32
1128.62
15.4676
16.4471
18.6375
20.4502
23.7573
27.7275
32.0033
39.2882
45.1243
56.7659
14.7926
14.6415
14.5755
14.5063
14.5148
14.5574
14.6409
14.8309
15.0773
15.4134
14.77
14.6304
14.4634
14.3354
14.1726
14.059
13.9039
13.8079
13.6654
13.5937
14.7766
14.6216
14.4704
14.3205
14.1747
14.029
13.8889
13.7473
13.6138
13.477
14.7777
14.6206
14.4713
14.3197
14.1754
14.0285
13.8891
13.7473
13.6133
13.4774
14.7776
14.6208
14.473
14.3236
14.184
14.045
13.9175
13.7915
13.6807
13.5716
14.7756
14.6501
14.5637
14.5034
14.5108
14.5518
14.6367
14.8201
15.0461
15.3948
15.2064
16.6073
18.2732
20.6811
23.5948
27.5688
32.2722
38.3961
45.578
54.8017
105.861
146.669
198.299
265.85
349.973
456.109
585.65
743.692
931.841
1154.04
4102.01
15200.9
19565.1
22424.9
21095.4
18015.4
15091.6
12806.6
11310.7
10390.9
9887.06
9706.58
9526.92
9255.98
8849.33
8351.06
7796.6
7210.08
6644.4
6126.5
5649.48
5222.35
4837.87
4486.99
4167.61
3878
3615.39
3377.93
3162.27
2966.58
2788.43
2625.83
2477.06
2340.56
2215.16
2099.7
1993.22
1894.81
1803.7
1719.17
1640.65
1567.57
1499.48
1435.92
1376.52
1320.91
1268.78
1219.83
1173.78
1130.39
1089.43
1050.69
1014.01
979.2
946.132
914.661
884.687
856.082
828.777
802.652
777.668
753.703
730.751
708.681
687.521
667.125
647.565
628.667
610.553
593.014
576.227
559.927
544.362
529.194
514.754
500.608
487.198
473.97
461.504
449.093
437.502
425.822
415.054
404.034
394.06
383.637
374.442
364.556
356.135
346.718
339.072
330.039
323.177
314.426
308.365
299.772
294.543
285.968
281.594
271.278
113.218
337.76
517.734
921.647
1124.14
1149.84
1122.53
1059.52
1053.79
1093.06
1198.03
1411.33
1697.93
2028.57
2378.55
2692.07
2970.89
3202.58
3357.34
3434.01
3426.16
3387.14
3301.09
3183.7
3055.84
2924.64
2793.91
2667.48
2544.05
2426.69
2314.59
2207.58
2106.18
2010.22
1919.83
1834.71
1754.77
1679.5
1608.65
1541.92
1479.05
1419.75
1363.82
1311
1261.1
1213.9
1169.26
1126.96
1086.85
1048.75
1012.52
978.021
945.114
913.679
883.619
854.827
827.235
800.748
775.326
750.879
727.391
704.768
683.021
662.041
641.87
622.379
603.647
585.517
568.113
551.241
535.076
519.372
504.367
489.748
475.83
462.21
449.3
436.586
424.609
412.708
401.595
390.423
380.123
369.608
360.087
350.164
341.403
332.01
324.001
315.07
307.811
299.261
292.757
284.487
278.754
270.647
265.709
257.632
253.515
243.821
16.4291
19.8691
22.8835
29.0835
34.7743
38.731
41.7083
43.7959
46.7465
50.7667
58.817
71.0689
95.7504
130.353
189.723
267.344
374.247
508.971
665.772
836.256
1004.71
1161.94
1301.01
1417.67
1508.71
1572.26
1610.68
1628.68
1626.22
1615.63
1592.84
1562.4
1527.84
1490.39
1451.65
1411.76
1371.84
1331.52
1291.72
1252.58
1214.16
1176.61
1140.08
1104.59
1070.2
1036.87
1004.69
973.572
943.513
914.487
886.451
859.351
833.147
807.782
783.232
759.439
736.397
714.051
692.415
671.433
651.133
631.456
612.442
594.011
576.226
558.982
542.37
526.249
510.75
495.692
481.254
467.199
453.772
440.665
428.197
415.974
404.407
392.993
382.263
371.577
361.626
351.594
342.374
332.927
324.406
315.485
307.643
299.19
292.022
283.978
277.481
269.774
263.953
256.496
251.361
244.053
239.625
232.351
228.652
219.928
13.4532
13.4608
13.5467
13.803
14.3339
15.0058
15.7153
16.3366
16.921
17.3417
17.8991
18.3647
19.3189
20.4885
22.7721
26.215
31.8034
40.799
54.7271
76.0659
106.358
146.866
198.283
259.77
329.275
404.202
479.782
554.018
621.859
684.013
737.425
781.409
815.949
841.311
859.166
869.948
875.224
874.628
871.915
865.951
857.266
846.653
834.664
821.344
807.098
792.006
776.401
760.199
743.745
727.13
710.384
693.582
676.803
660.08
643.487
627.011
610.747
594.671
578.881
563.337
548.14
533.245
518.736
504.563
490.812
477.406
464.444
451.8
439.611
427.706
416.273
405.078
394.38
383.867
373.877
364.009
354.692
345.411
336.721
327.976
319.879
311.616
304.081
296.247
289.249
281.799
275.327
268.219
262.279
255.474
250.066
243.508
238.637
232.263
227.944
221.679
217.929
211.692
208.528
201.044
13.3298
13.159
13.0628
13.117
13.3054
13.7165
14.2832
14.9064
15.4434
15.8786
16.2079
16.4388
16.6236
16.7654
16.9167
17.0844
17.3484
17.7229
18.3287
19.2922
20.8319
23.2328
26.7403
32.0567
39.6105
50.416
64.734
83.3415
106.157
133.378
164.243
197.808
233.166
268.707
303.771
336.667
367.534
395.35
420.004
441.119
458.831
473.103
484.448
492.882
498.856
502.527
504.36
504.092
502.949
500.441
496.672
491.976
486.529
480.415
473.777
466.672
459.26
451.523
443.649
435.567
427.489
419.305
411.174
403.076
395.11
387.211
379.466
371.776
364.271
356.81
349.577
342.356
335.421
328.445
321.821
315.098
308.787
302.323
296.329
290.098
284.405
278.38
272.979
267.135
262.026
256.346
251.539
246.007
241.507
236.1
231.934
226.642
222.835
217.632
214.208
209.058
206.04
200.902
198.306
192.128
13.325
13.1543
13.0318
13.0866
13.2959
13.7723
14.4969
15.4816
16.5006
17.5978
18.5935
19.523
20.2675
20.8776
21.3003
21.6065
21.7774
21.8474
21.8321
21.7871
21.6939
21.6014
21.5315
21.5571
21.6631
21.9211
22.4494
23.3631
24.8011
27.0036
30.2227
34.692
40.7419
48.4317
57.9506
69.2687
82.4181
97.0839
113.143
130.051
147.557
165.073
182.369
198.998
214.769
229.368
242.795
254.852
265.647
275.203
283.553
290.798
297.011
302.306
306.737
310.382
313.341
315.607
317.335
318.414
319.15
319.163
318.959
318.436
317.407
316.025
314.349
312.379
310.204
307.77
305.198
302.379
299.512
296.359
293.315
289.893
286.712
283.095
279.823
276.059
272.736
268.849
265.509
261.52
258.201
254.131
250.869
246.74
243.579
239.414
236.391
232.203
229.357
225.158
222.526
218.32
215.933
211.726
209.615
204.557
13.4657
13.3602
13.4098
13.6562
14.3042
15.6865
18.0268
21.4287
25.3968
29.6954
33.6076
37.0844
39.6249
41.5489
42.6117
43.3409
43.3683
43.2348
42.8871
42.3874
41.7808
41.1583
40.4965
39.8979
39.3589
38.8927
38.5155
38.2299
38.1087
38.1609
38.3347
38.7219
39.3284
40.2533
41.5626
43.2673
45.5958
48.4894
52.268
56.8658
62.6026
69.4307
77.5233
86.8476
97.3985
109.114
121.803
135.369
149.5
164.095
178.785
193.479
207.829
221.806
235.128
247.821
259.671
270.734
280.875
290.154
298.527
306.031
312.655
318.481
323.498
327.754
331.28
334.098
336.244
337.855
338.84
339.373
339.301
338.972
338.312
337.008
335.828
333.896
332.279
329.86
327.895
325.08
322.857
319.714
317.308
313.898
311.375
307.755
305.182
301.409
298.852
294.975
292.494
288.556
286.204
282.246
280.069
276.132
274.189
269.548
15.91
16.8588
18.5484
21.9337
28.4103
39.4898
55.4393
74.9732
95.4307
114.223
129.244
140.189
146.556
150.084
150.757
150.362
149.3
147.639
146.133
145.144
144.496
144.664
145.284
146.737
149
152.311
156.201
161.188
166.924
173.899
181.656
190.6
200.457
211.396
223.487
236.481
250.754
265.71
281.756
298.257
315.576
333.252
351.322
369.468
387.462
405.261
422.569
439.514
455.812
471.575
486.553
500.857
514.275
527.028
538.878
550.055
560.273
569.733
578.209
585.805
592.448
598.143
602.941
606.745
609.688
611.635
612.869
612.866
612.461
611.432
609.539
607.042
604.111
600.552
596.93
592.553
588.524
583.59
579.282
574.023
569.561
564.074
559.553
553.907
549.399
543.648
539.217
533.417
529.133
523.342
519.276
513.543
509.757
504.123
500.663
495.156
492.077
486.722
484.127
478.085
68.0419
90.4336
126.229
184.92
271.976
385.084
511.462
635.55
744.889
831.647
892.584
932.619
953.558
963.378
964.579
963.505
960.933
957.12
956.345
957.535
960.621
966.152
974.751
986.642
1000.63
1016.72
1034.83
1055.18
1077.51
1101.38
1126.33
1152.24
1178.81
1205.85
1233.21
1260.06
1286.67
1311.94
1336.45
1359.37
1381.22
1401.38
1420.16
1437.31
1452.91
1467.06
1479.74
1491.18
1501.25
1510.1
1517.62
1523.84
1528.74
1532.33
1534.7
1535.58
1535.19
1533.91
1531.23
1527.14
1522.29
1516.03
1509.4
1501.3
1492.94
1483.43
1473.26
1462.41
1451.18
1439.22
1427.12
1414.22
1401.55
1388.04
1375.19
1361.43
1348.65
1334.96
1322.49
1309.05
1297.06
1283.98
1272.55
1259.86
1249.06
1236.8
1226.68
1214.88
1205.53
1194.21
1185.68
1174.84
1167.19
1156.79
1150.04
1140.06
1134.23
1124.63
1119.91
1109.35
1464.72
1897.23
2399.05
2961.95
3563.13
4171.89
4746.03
5251.13
5655.22
5950.74
6132.49
6219.54
6206.95
6160.03
6061.12
5927.87
5777.67
5619.26
5459.22
5301.58
5149.43
5004.55
4867.78
4739.82
4620.69
4510.63
4409.11
4316.1
4231.04
4153.76
4083.62
4020.33
3963.19
3912
3866.35
3825.8
3790.11
3758.57
3731.23
3707.45
3687.39
3670.2
3655.9
3643.77
3633.86
3625.57
3618.87
3613.28
3608.82
3605.18
3602.37
3600.21
3598.75
3597.83
3597.81
3598.05
3598.72
3599.83
3601.31
3602.67
3604.45
3605.72
3607.34
3608.33
3609.44
3610.03
3610.33
3610.24
3609.88
3608.97
3607.8
3605.45
3603.13
3599.19
3595.48
3589.87
3584.73
3577.53
3571.05
3562.46
3554.91
3545.16
3536.78
3526.04
3517.02
3505.37
3495.8
3483.23
3473.22
3459.72
3449.41
3434.95
3424.61
3409.18
3399.16
3382.75
3373.39
3356.03
3347.22
3325.14
1109.34
1064.67
1122.19
1210.08
1238.83
1121.19
818.488
1979.88
54643.1
16135
7358.63
6109.22
6235.27
6485.68
6556.45
8030.59
74284.8
43681.2
24864.3
18479.8
16108.3
15005.5
14632.7
19679.1
76413.2
71051
54282.9
41218.4
32700
27164.8
24549.2
34071.7
69724
75707.1
67752.2
55652.5
44566.2
35839.7
30859.6
42696.6
57757
71171.2
67936.9
59030.6
48367.1
38725.4
32775.7
45211.2
47496
61829
62480.8
56601.8
47156.6
38170.1
32446.3
44229
39102.8
51822.3
53582.2
49832.6
42391
34674.5
29592.5
39761.9
32639.9
42994.3
44922.4
42133.9
36304.1
30046.7
25828
34054.4
27615.2
35629.5
37262.8
35120.5
30549.6
25565
22233.8
29393.4
23493.4
29591.1
30831
29130.1
25540.5
21642.9
19169.6
26036.8
20109.1
24699.6
25580.5
24191.6
21348.8
18307.1
16505
22998
17369.4
20784.5
21373.6
20215.7
17945.3
15562
14272.1
20374.7
15136.5
17658.8
18025.6
17045.7
15216.8
13335.7
12431.5
18163.2
13287.3
15148.7
15355.6
14519.3
13032.5
11537.3
10925.5
16326.4
11727.3
13107.7
13205.5
12488.7
11270.7
10075.9
9688.5
14798.2
10404.9
11436.8
11461.2
10844.5
9839.22
8880.16
8666.5
13522.5
9267.11
10050.3
10030.8
9497.61
8663.61
7892.19
7814.91
12450.2
8285.96
8889.31
8845.2
8382.75
7687.76
7067.46
7097.54
11539.9
7443.33
7911.87
7853.33
7451.62
6869.97
6372.28
6486.14
10760.5
6716.59
7083.68
7017.24
6667.53
6178.7
5780.88
5961.96
10086.7
6090.01
6378.58
6308.11
6002.65
5590.11
5273.9
5509.14
9499.29
5547.6
5774.95
5703.04
5435.29
5085.83
4836.69
5115.62
8984.03
5073.73
5253.99
5182.77
4947.56
4650.86
4457.38
4771.86
8529.78
4657.45
4801.38
4732.32
4525.36
4273.2
4126.35
4470.02
8127.32
4290.19
4405.94
4340.02
4157.74
3943.45
3835.97
4203.75
7769.36
3964.75
4058.52
3996.38
3835.79
3653.94
3579.92
3967.73
7449.55
3675.65
3752.01
3693.92
3552.42
3398.5
3353.08
3757.59
7162.59
3417.63
3480.22
3426.34
3301.74
3172.03
3151.2
3569.77
6904.27
3186.72
3238.31
3188.61
3078.97
2970.37
2970.9
3401.3
6671.19
2979.23
3022.03
2976.48
2880.2
2790.12
2808.89
3249.87
6460.41
2792.12
2827.9
2786.37
2702.04
2628.28
2662.96
3113.16
6269.42
2622.78
2652.95
2615.3
2541.72
2482.38
2531.09
2989.32
6095.96
2468.98
2494.68
2460.75
2396.87
2350.36
2411.52
2876.78
5938.03
2328.86
2351
2320.64
2265.53
2230.48
2302.73
2774.17
5793.84
2200.85
2220.16
2193.19
2146.03
2121.26
2203.44
2680.35
5661.78
2083.61
2100.67
2076.92
2036.97
2021.46
2112.53
2594.31
5540.43
1975.96
1991.25
1970.56
1937.18
1930
2029.1
2515.19
5428.55
1876.9
1890.83
1873.02
1845.64
1846.03
1952.34
2442.27
5325.16
1785.54
1798.45
1783.39
1761.5
1768.64
1881.63
2374.97
5229.35
1701.13
1713.29
1700.84
1683.99
1697.25
1816.33
2312.73
5140.46
1622.99
1634.65
1624.66
1612.44
1631.29
1755.93
2255.13
5057.91
1550.53
1561.87
1554.23
1546.27
1570.24
1699.97
2201.75
4981.27
1483.21
1494.4
1488.98
1484.97
1513.65
1648.05
2152.24
4910.12
1420.56
1431.73
1428.41
1428.07
1461.08
1599.79
2106.29
4844.12
1362.16
1373.41
1372.1
1375.11
1412.19
1554.9
2063.6
4782.96
1307.61
1319.04
1319.63
1325.75
1366.63
1513.05
2023.9
4726.28
1256.57
1268.23
1270.63
1279.68
1324.09
1473.98
1986.95
4673.77
1208.72
1220.67
1224.8
1236.58
1284.28
1437.43
1952.47
4625.07
1163.78
1176.06
1181.84
1196.2
1246.98
1403.2
1920.29
4579.84
1121.5
1134.15
1141.5
1158.28
1211.94
1371.05
1890.16
4537.71
1081.63
1094.7
1103.56
1122.62
1178.98
1340.82
1861.93
4498.39
1043.99
1057.51
1067.81
1089.02
1147.92
1312.34
1835.4
4461.52
1008.39
1022.38
1034.07
1057.31
1118.61
1285.47
1810.44
4426.85
974.673
989.167
1002.18
1027.35
1090.9
1260.07
1786.9
4394.13
942.683
957.702
972.006
998.99
1064.68
1236.03
1764.67
4363.15
912.306
927.868
943.411
972.12
1039.82
1213.25
1743.65
4333.8
883.403
899.523
916.264
946.615
1016.22
1191.63
1723.74
4305.89
855.889
872.581
890.478
922.391
993.802
1171.09
1704.88
4279.44
829.633
846.907
865.923
899.331
972.462
1151.56
1687
4254.24
804.586
822.448
842.547
877.382
952.15
1132.98
1670.04
4230.44
780.616
799.069
820.22
856.424
932.761
1115.25
1653.93
4207.79
757.707
776.753
798.925
836.443
914.282
1098.38
1638.66
4186.51
735.719
755.358
778.521
817.307
896.592
1082.26
1624.15
4166.26
714.677
734.909
759.036
799.044
879.721
1066.9
1610.41
4147.34
694.424
715.243
740.309
781.499
863.524
1052.19
1597.34
4129.31
675.032
696.436
722.417
764.752
848.074
1038.18
1584.98
4112.56
656.317
678.295
705.166
748.611
833.194
1024.74
1573.2
4096.5
638.403
660.952
688.692
733.212
819.015
1011.95
1562.08
4081.66
621.065
644.169
672.747
718.306
805.297
999.608
1551.44
4067.28
604.49
628.141
657.538
704.108
792.25
987.904
1541.43
4054.11
588.393
612.566
642.745
690.284
779.543
976.528
1531.76
4041.11
573.034
597.722
628.667
677.151
767.499
965.783
1522.73
4029.37
558.05
583.217
614.881
664.259
755.651
955.21
1513.86
4017.42
543.796
569.436
601.807
652.064
744.484
945.3
1505.67
4006.9
529.803
555.869
588.889
639.962
733.346
935.371
1497.41
3995.66
516.548
543.039
576.706
628.592
722.943
926.184
1489.94
3986.15
503.43
530.289
564.531
617.148
712.376
916.744
1482.1
3975.27
491.083
518.318
553.146
606.514
702.652
908.196
1475.27
3966.62
478.737
506.28
541.606
595.617
692.537
899.104
1467.66
3955.75
467.23
495.101
530.956
585.659
683.436
891.144
1461.41
3947.82
455.57
483.69
519.968
575.224
673.679
882.289
1453.86
3936.71
444.855
473.26
510.015
565.91
665.177
874.898
1448.19
3929.39
433.815
462.413
499.518
555.878
655.717
866.209
1440.61
3917.89
423.868
452.712
490.248
547.2
647.809
859.388
1435.51
3911.11
413.39
442.379
480.2
537.536
638.62
850.844
1427.88
3899.3
404.199
433.4
471.609
529.492
631.309
844.594
1423.34
3893.01
394.23
423.534
461.974
520.178
622.393
836.226
1415.75
3881.13
385.796
415.28
454.066
512.773
615.682
830.545
1411.73
3875.29
376.27
405.825
444.803
503.786
607.046
822.407
1404.32
3863.7
368.597
398.303
437.588
497.031
600.943
817.297
1400.8
3858.26
359.437
389.189
428.64
488.337
592.586
809.436
1393.73
3847.28
352.535
382.412
422.129
482.237
587.089
804.881
1390.59
3842.28
343.642
373.55
413.423
473.787
579.002
797.356
1384.11
3832.15
337.531
367.534
407.628
468.348
574.098
793.312
1381.31
3827.58
328.786
358.814
399.069
460.071
566.246
786.15
1375.44
3818.42
323.495
353.584
394.007
455.288
561.904
782.542
1372.91
3814.05
314.762
344.88
385.479
447.086
554.22
775.722
1367.61
3806.01
310.306
340.441
381.139
442.932
550.376
772.421
1365.23
3802.04
299.765
329.896
370.766
432.913
540.962
764.085
1358.66
3793.13
)
;

boundaryField
{
    frontAndBack
    {
        type            empty;
    }
    inlet
    {
        type            fixedValue;
        value           uniform 14.855;
    }
    outlet
    {
        type            zeroGradient;
    }
    walls
    {
        lowReCorrection 0;
        blending        stepwise;
        n               2;
        type            epsilonWallFunction;
        value           nonuniform List<scalar> 
228
(
112.724
141.424
210.097
257.591
369.051
443.457
614.739
724.909
971.32
1128.62
1109.34
1064.67
1122.19
1210.08
1238.83
1121.19
818.488
1979.88
1979.88
8030.59
19679.1
34071.7
42696.6
45211.2
44229
39761.9
34054.4
29393.4
26036.8
22998
20374.7
18163.2
16326.4
14798.2
13522.5
12450.2
11539.9
10760.5
10086.7
9499.29
8984.03
8529.78
8127.32
7769.36
7449.55
7162.59
6904.27
6671.19
6460.41
6269.42
6095.96
5938.03
5793.84
5661.78
5540.43
5428.55
5325.16
5229.35
5140.46
5057.91
4981.27
4910.12
4844.12
4782.96
4726.28
4673.77
4625.07
4579.84
4537.71
4498.39
4461.52
4426.85
4394.13
4363.15
4333.8
4305.89
4279.44
4254.24
4230.44
4207.79
4186.51
4166.26
4147.34
4129.31
4112.56
4096.5
4081.66
4067.28
4054.11
4041.11
4029.37
4017.42
4006.9
3995.66
3986.15
3975.27
3966.62
3955.75
3947.82
3936.71
3929.39
3917.89
3911.11
3899.3
3893.01
3881.13
3875.29
3863.7
3858.26
3847.28
3842.28
3832.15
3827.58
3818.42
3814.05
3806.01
3802.04
3793.13
105.861
146.669
198.299
265.85
349.973
456.109
585.65
743.692
931.841
1154.04
1464.72
1897.23
2399.05
2961.95
3563.13
4171.89
4746.03
5251.13
5655.22
5950.74
6132.49
6219.54
6206.95
6160.03
6061.12
5927.87
5777.67
5619.26
5459.22
5301.58
5149.43
5004.55
4867.78
4739.82
4620.69
4510.63
4409.11
4316.1
4231.04
4153.76
4083.62
4020.33
3963.19
3912
3866.35
3825.8
3790.11
3758.57
3731.23
3707.45
3687.39
3670.2
3655.9
3643.77
3633.86
3625.57
3618.87
3613.28
3608.82
3605.18
3602.37
3600.21
3598.75
3597.83
3597.81
3598.05
3598.72
3599.83
3601.31
3602.67
3604.45
3605.72
3607.34
3608.33
3609.44
3610.03
3610.33
3610.24
3609.88
3608.97
3607.8
3605.45
3603.13
3599.19
3595.48
3589.87
3584.73
3577.53
3571.05
3562.46
3554.91
3545.16
3536.78
3526.04
3517.02
3505.37
3495.8
3483.23
3473.22
3459.72
3449.41
3434.95
3424.61
3409.18
3399.16
3382.75
3373.39
3356.03
3347.22
3325.14
)
;
    }
}


// ************************************************************************* //
