/*--------------------------------*- C++ -*----------------------------------*\
| =========                 |                                                 |
| \\      /  F ield         | OpenFOAM: The Open Source CFD Toolbox           |
|  \\    /   O peration     | Version:  v2012                                 |
|   \\  /    A nd           | Website:  www.openfoam.com                      |
|    \\/     M anipulation  |                                                 |
\*---------------------------------------------------------------------------*/
FoamFile
{
    version     2.0;
    format      ascii;
    class       volVectorField;
    location    "0.171";
    object      U.air;
}
// * * * * * * * * * * * * * * * * * * * * * * * * * * * * * * * * * * * * * //

dimensions      [0 1 -1 0 0 0 0];


internalField   nonuniform List<vector> 
1900
(
(39.9676 0.00859687 0)
(39.9239 0.015103 0)
(39.8679 0.0180588 0)
(39.8035 0.0207993 0)
(39.73 0.0237062 0)
(39.6526 0.0267683 0)
(39.5681 0.0297565 0)
(39.4712 0.034433 0)
(39.3801 0.0347839 0)
(39.2118 0.0735029 0)
(40.0053 0.0147927 0)
(40.0212 0.0233975 0)
(40.0401 0.0257182 0)
(40.0561 0.0277458 0)
(40.0726 0.0304775 0)
(40.0898 0.0329399 0)
(40.1095 0.0364838 0)
(40.1257 0.0385578 0)
(40.1466 0.0533817 0)
(40.1568 0.0585715 0)
(40.0029 0.00824745 0)
(40.0161 0.0135856 0)
(40.0335 0.0137912 0)
(40.051 0.0145443 0)
(40.0688 0.0163129 0)
(40.0879 0.0182043 0)
(40.1087 0.0208556 0)
(40.1299 0.0248049 0)
(40.1543 0.0350812 0)
(40.1844 0.0529454 0)
(40.0018 0.00414496 0)
(40.0132 0.00782145 0)
(40.0301 0.00860527 0)
(40.0479 0.00970547 0)
(40.066 0.0114323 0)
(40.0852 0.0132518 0)
(40.1064 0.0158683 0)
(40.1291 0.0197454 0)
(40.1561 0.0288801 0)
(40.1894 0.0416246 0)
(40.0015 0.001112 0)
(40.012 0.00211928 0)
(40.0285 0.00232728 0)
(40.0464 0.00266241 0)
(40.0645 0.00325309 0)
(40.084 0.00405071 0)
(40.1056 0.00562475 0)
(40.1294 0.00842124 0)
(40.1575 0.0146682 0)
(40.1918 0.0210543 0)
(40.0016 -0.00180292 0)
(40.0122 -0.00371605 0)
(40.0288 -0.00416325 0)
(40.0468 -0.00431399 0)
(40.065 -0.00436079 0)
(40.0846 -0.00401592 0)
(40.1066 -0.00289513 0)
(40.1311 -0.000789743 0)
(40.1597 0.00317609 0)
(40.1936 0.00640819 0)
(40.0019 -0.00486279 0)
(40.0136 -0.00947526 0)
(40.0308 -0.0105123 0)
(40.0489 -0.0114613 0)
(40.0672 -0.0126727 0)
(40.0871 -0.0134371 0)
(40.1094 -0.0134428 0)
(40.1344 -0.0127054 0)
(40.163 -0.0110203 0)
(40.1957 -0.0104531 0)
(40.0032 -0.00926927 0)
(40.0168 -0.0153327 0)
(40.0348 -0.0157394 0)
(40.0527 -0.016477 0)
(40.0709 -0.01804 0)
(40.0911 -0.0194037 0)
(40.1136 -0.0202815 0)
(40.1388 -0.020797 0)
(40.1672 -0.0210301 0)
(40.1987 -0.0225689 0)
(40.0057 -0.0162088 0)
(40.0223 -0.0253699 0)
(40.042 -0.0274341 0)
(40.0582 -0.0288787 0)
(40.0751 -0.0308085 0)
(40.0938 -0.0324197 0)
(40.1145 -0.0335734 0)
(40.1374 -0.0344434 0)
(40.1628 -0.0352272 0)
(40.1893 -0.0366674 0)
(39.9675 -0.0101412 0)
(39.9214 -0.0185951 0)
(39.8645 -0.0229106 0)
(39.797 -0.0265887 0)
(39.7223 -0.0303253 0)
(39.6428 -0.0339089 0)
(39.5582 -0.0373399 0)
(39.4686 -0.0407417 0)
(39.3739 -0.044104 0)
(39.2741 -0.0480425 0)
(39.1724 -0.039283 0)
(38.0177 -0.354716 0)
(36.4706 -0.795028 0)
(34.9649 -1.35456 0)
(33.8571 -1.88882 0)
(33.1084 -2.3322 0)
(32.5392 -2.60363 0)
(32.0829 -2.66924 0)
(31.6445 -2.56943 0)
(31.2126 -2.34911 0)
(30.7873 -2.07035 0)
(30.3643 -1.77958 0)
(29.9528 -1.50855 0)
(29.5485 -1.27184 0)
(29.1569 -1.07595 0)
(28.7781 -0.91689 0)
(28.4121 -0.788588 0)
(28.0641 -0.687276 0)
(27.7403 -0.608704 0)
(27.4423 -0.546758 0)
(27.1691 -0.495871 0)
(26.9186 -0.452698 0)
(26.6947 -0.416713 0)
(26.4943 -0.386638 0)
(26.3183 -0.360544 0)
(26.1602 -0.336245 0)
(26.0251 -0.314322 0)
(25.9098 -0.295426 0)
(25.8113 -0.279105 0)
(25.7266 -0.26438 0)
(25.654 -0.250816 0)
(25.5906 -0.238298 0)
(25.5362 -0.227014 0)
(25.4877 -0.216643 0)
(25.445 -0.207204 0)
(25.4078 -0.198518 0)
(25.3758 -0.190314 0)
(25.3482 -0.182537 0)
(25.3252 -0.17539 0)
(25.306 -0.168886 0)
(25.2906 -0.162982 0)
(25.2787 -0.157549 0)
(25.2698 -0.152393 0)
(25.2631 -0.147318 0)
(25.2584 -0.142459 0)
(25.2556 -0.137999 0)
(25.2545 -0.133988 0)
(25.255 -0.13011 0)
(25.2571 -0.126314 0)
(25.2605 -0.122634 0)
(25.2653 -0.119168 0)
(25.2712 -0.115973 0)
(25.2782 -0.113021 0)
(25.2864 -0.11022 0)
(25.2956 -0.1075 0)
(25.3058 -0.10484 0)
(25.3168 -0.102284 0)
(25.3284 -0.0998712 0)
(25.3407 -0.0976266 0)
(25.3536 -0.0955152 0)
(25.367 -0.09348 0)
(25.3809 -0.0914737 0)
(25.3953 -0.0895334 0)
(25.41 -0.0876845 0)
(25.4251 -0.0859534 0)
(25.4405 -0.0843117 0)
(25.4561 -0.0827394 0)
(25.4721 -0.0812066 0)
(25.4882 -0.0797209 0)
(25.5045 -0.0782762 0)
(25.521 -0.0768933 0)
(25.5375 -0.0755658 0)
(25.5541 -0.0742951 0)
(25.5708 -0.0730578 0)
(25.5875 -0.0718521 0)
(25.6042 -0.0706641 0)
(25.6208 -0.0695119 0)
(25.6375 -0.068382 0)
(25.6539 -0.0672926 0)
(25.6704 -0.0662137 0)
(25.6866 -0.0651629 0)
(25.7028 -0.0641116 0)
(25.7186 -0.0630894 0)
(25.7345 -0.0620665 0)
(25.75 -0.061073 0)
(25.7655 -0.060078 0)
(25.7805 -0.0591122 0)
(25.7956 -0.058147 0)
(25.8103 -0.0572159 0)
(25.8249 -0.0562922 0)
(25.8391 -0.0554164 0)
(25.8533 -0.0545558 0)
(25.867 -0.0537848 0)
(25.8809 -0.05303 0)
(25.8941 -0.0525318 0)
(25.9078 -0.0519797 0)
(25.9204 -0.0522652 0)
(25.9349 -0.0520665 0)
(25.9452 -0.0543084 0)
(25.9652 -0.054422 0)
(40.259 0.20537 0)
(40.4989 0.295871 0)
(40.6487 -0.0460553 0)
(40.4722 -0.668258 0)
(39.9271 -1.3308 0)
(39.098 -1.89411 0)
(38.1063 -2.25374 0)
(37.058 -2.38382 0)
(36.057 -2.32247 0)
(35.152 -2.13256 0)
(34.3673 -1.8799 0)
(33.6992 -1.61288 0)
(33.136 -1.36081 0)
(32.6561 -1.13957 0)
(32.2414 -0.955308 0)
(31.8706 -0.804262 0)
(31.5243 -0.680988 0)
(31.1903 -0.582878 0)
(30.8649 -0.507125 0)
(30.5459 -0.447891 0)
(30.2288 -0.399066 0)
(29.9187 -0.359247 0)
(29.6225 -0.329056 0)
(29.3419 -0.306282 0)
(29.0778 -0.28723 0)
(28.8294 -0.270296 0)
(28.5981 -0.256277 0)
(28.387 -0.245273 0)
(28.1947 -0.235986 0)
(28.0209 -0.227268 0)
(27.8623 -0.21874 0)
(27.7178 -0.21056 0)
(27.5862 -0.202792 0)
(27.4677 -0.195355 0)
(27.3608 -0.1883 0)
(27.264 -0.181649 0)
(27.1764 -0.175247 0)
(27.0972 -0.169093 0)
(27.0259 -0.163389 0)
(26.9615 -0.158206 0)
(26.9039 -0.153461 0)
(26.8512 -0.148992 0)
(26.803 -0.144708 0)
(26.759 -0.140509 0)
(26.7188 -0.136467 0)
(26.6824 -0.132756 0)
(26.6496 -0.129404 0)
(26.62 -0.126246 0)
(26.5935 -0.123122 0)
(26.5698 -0.120045 0)
(26.5488 -0.117142 0)
(26.5302 -0.114473 0)
(26.5138 -0.112027 0)
(26.4996 -0.109698 0)
(26.4874 -0.107403 0)
(26.477 -0.105111 0)
(26.4682 -0.102844 0)
(26.4606 -0.100673 0)
(26.4543 -0.0986744 0)
(26.4492 -0.0968053 0)
(26.4452 -0.094999 0)
(26.4423 -0.0931885 0)
(26.4405 -0.0914463 0)
(26.4395 -0.0897896 0)
(26.4393 -0.0882589 0)
(26.4398 -0.0867481 0)
(26.441 -0.0852997 0)
(26.4428 -0.083885 0)
(26.4452 -0.0825045 0)
(26.448 -0.0811493 0)
(26.4513 -0.0798427 0)
(26.4549 -0.0785815 0)
(26.4588 -0.077367 0)
(26.463 -0.0761759 0)
(26.4674 -0.0750031 0)
(26.4719 -0.0738364 0)
(26.4766 -0.0726931 0)
(26.4814 -0.0715673 0)
(26.4863 -0.0704715 0)
(26.4911 -0.0693835 0)
(26.496 -0.0683123 0)
(26.5009 -0.0672365 0)
(26.5058 -0.0661834 0)
(26.5106 -0.0651266 0)
(26.5153 -0.0640973 0)
(26.52 -0.0630625 0)
(26.5246 -0.062057 0)
(26.5292 -0.0610469 0)
(26.5336 -0.060073 0)
(26.538 -0.0591019 0)
(26.5423 -0.0581824 0)
(26.5465 -0.057274 0)
(26.5506 -0.0564615 0)
(26.5547 -0.0556623 0)
(26.5586 -0.0551291 0)
(26.5626 -0.0545471 0)
(26.5663 -0.0548245 0)
(26.5703 -0.0545627 0)
(26.5737 -0.0569859 0)
(26.5795 -0.0567943 0)
(40.2699 0.127743 0)
(40.4561 0.0177442 0)
(40.6021 -0.368696 0)
(40.4975 -0.908897 0)
(40.0434 -1.44081 0)
(39.2826 -1.86015 0)
(38.3233 -2.09984 0)
(37.2921 -2.15554 0)
(36.2753 -2.06669 0)
(35.3643 -1.88508 0)
(34.5843 -1.65906 0)
(33.9362 -1.4239 0)
(33.4077 -1.20213 0)
(32.9835 -1.00753 0)
(32.6463 -0.844737 0)
(32.3732 -0.70882 0)
(32.1457 -0.595267 0)
(31.9547 -0.504145 0)
(31.7941 -0.433549 0)
(31.6525 -0.376687 0)
(31.5173 -0.328558 0)
(31.3844 -0.289717 0)
(31.2498 -0.260058 0)
(31.1119 -0.23764 0)
(30.9683 -0.219319 0)
(30.8159 -0.203263 0)
(30.6536 -0.190107 0)
(30.4828 -0.180418 0)
(30.3067 -0.173247 0)
(30.1284 -0.167093 0)
(29.9495 -0.161288 0)
(29.7724 -0.156134 0)
(29.5987 -0.152021 0)
(29.4339 -0.148735 0)
(29.279 -0.145909 0)
(29.1337 -0.14326 0)
(28.9978 -0.140647 0)
(28.8713 -0.138151 0)
(28.754 -0.135853 0)
(28.6455 -0.133723 0)
(28.5453 -0.131666 0)
(28.4521 -0.129503 0)
(28.3652 -0.127067 0)
(28.2844 -0.124371 0)
(28.2093 -0.121648 0)
(28.1399 -0.119144 0)
(28.0757 -0.116901 0)
(28.0162 -0.114733 0)
(27.9611 -0.112481 0)
(27.9099 -0.110156 0)
(27.8621 -0.107925 0)
(27.8177 -0.105911 0)
(27.7765 -0.104126 0)
(27.7382 -0.102467 0)
(27.7028 -0.100839 0)
(27.67 -0.0991828 0)
(27.6397 -0.0975167 0)
(27.6116 -0.0959042 0)
(27.5858 -0.0944143 0)
(27.5619 -0.0930179 0)
(27.5399 -0.0916455 0)
(27.5197 -0.0902373 0)
(27.5011 -0.0888058 0)
(27.4835 -0.0873857 0)
(27.4671 -0.0860554 0)
(27.4516 -0.0847926 0)
(27.4372 -0.083593 0)
(27.4236 -0.0823912 0)
(27.4109 -0.0812057 0)
(27.3987 -0.0800079 0)
(27.3873 -0.0788505 0)
(27.3762 -0.0777102 0)
(27.3658 -0.0766118 0)
(27.3555 -0.0755088 0)
(27.3458 -0.0744187 0)
(27.3362 -0.0733083 0)
(27.327 -0.0722211 0)
(27.3179 -0.0711296 0)
(27.3091 -0.0700707 0)
(27.3002 -0.0690012 0)
(27.2917 -0.0679534 0)
(27.2832 -0.0668875 0)
(27.2749 -0.0658437 0)
(27.2666 -0.0647907 0)
(27.2585 -0.0637642 0)
(27.2504 -0.0627313 0)
(27.2425 -0.0617247 0)
(27.2346 -0.0607152 0)
(27.2269 -0.0597377 0)
(27.2192 -0.0587664 0)
(27.2117 -0.0578418 0)
(27.2041 -0.0569337 0)
(27.1968 -0.0561152 0)
(27.1894 -0.0553166 0)
(27.1823 -0.0547774 0)
(27.1749 -0.0542003 0)
(27.1683 -0.054465 0)
(27.1605 -0.0542662 0)
(27.1552 -0.056643 0)
(27.1446 -0.0564507 0)
(40.2634 0.0673391 0)
(40.4034 0.00416997 0)
(40.4966 -0.262167 0)
(40.3657 -0.678569 0)
(39.9156 -1.11199 0)
(39.179 -1.46757 0)
(38.2536 -1.69381 0)
(37.2571 -1.77797 0)
(36.2688 -1.73941 0)
(35.3807 -1.61373 0)
(34.6137 -1.43997 0)
(33.9676 -1.24897 0)
(33.4364 -1.06411 0)
(33.0103 -0.900258 0)
(32.6704 -0.761156 0)
(32.3921 -0.642405 0)
(32.1619 -0.54248 0)
(31.9777 -0.463393 0)
(31.8336 -0.402387 0)
(31.7134 -0.35142 0)
(31.6058 -0.306505 0)
(31.5128 -0.269956 0)
(31.44 -0.243009 0)
(31.3815 -0.221602 0)
(31.3254 -0.201221 0)
(31.2687 -0.181834 0)
(31.2166 -0.165786 0)
(31.169 -0.15319 0)
(31.1215 -0.142953 0)
(31.0714 -0.134015 0)
(31.0155 -0.125575 0)
(30.9522 -0.117835 0)
(30.8816 -0.111818 0)
(30.8048 -0.107823 0)
(30.7219 -0.104984 0)
(30.6325 -0.102523 0)
(30.5363 -0.100209 0)
(30.4341 -0.0982426 0)
(30.3274 -0.0968665 0)
(30.2183 -0.0960465 0)
(30.1086 -0.0954721 0)
(30.0003 -0.0948426 0)
(29.8939 -0.0941728 0)
(29.7902 -0.0935537 0)
(29.6905 -0.0930811 0)
(29.5957 -0.0928265 0)
(29.5059 -0.0926862 0)
(29.4206 -0.0924515 0)
(29.3395 -0.0920747 0)
(29.2628 -0.0916026 0)
(29.1905 -0.0910509 0)
(29.1222 -0.0904561 0)
(29.0577 -0.0898395 0)
(28.9962 -0.089171 0)
(28.938 -0.0884367 0)
(28.8823 -0.0875799 0)
(28.8297 -0.0866156 0)
(28.7799 -0.0856489 0)
(28.733 -0.0847642 0)
(28.6884 -0.0839274 0)
(28.6462 -0.083069 0)
(28.6059 -0.0821696 0)
(28.5678 -0.0812351 0)
(28.5311 -0.0802545 0)
(28.4963 -0.0792886 0)
(28.4626 -0.078336 0)
(28.4304 -0.0774 0)
(28.3988 -0.0764329 0)
(28.3686 -0.0754461 0)
(28.3388 -0.0744179 0)
(28.31 -0.073408 0)
(28.2814 -0.0724023 0)
(28.2537 -0.0714217 0)
(28.2261 -0.0704247 0)
(28.1993 -0.0694249 0)
(28.1726 -0.0683998 0)
(28.1466 -0.0673896 0)
(28.1206 -0.0663749 0)
(28.0953 -0.0653842 0)
(28.07 -0.064383 0)
(28.0454 -0.0634019 0)
(28.0208 -0.0624053 0)
(27.9969 -0.061427 0)
(27.973 -0.0604366 0)
(27.9498 -0.0594705 0)
(27.9266 -0.0584955 0)
(27.904 -0.0575476 0)
(27.8815 -0.0565939 0)
(27.8596 -0.0556746 0)
(27.8377 -0.0547587 0)
(27.8166 -0.0538909 0)
(27.7954 -0.0530392 0)
(27.775 -0.0522739 0)
(27.7544 -0.051532 0)
(27.7348 -0.0510345 0)
(27.7145 -0.0505163 0)
(27.6962 -0.0507826 0)
(27.6747 -0.0506785 0)
(27.6601 -0.0528897 0)
(27.6311 -0.0531152 0)
(40.2555 0.031429 0)
(40.3567 -0.0318831 0)
(40.4022 -0.258915 0)
(40.2468 -0.61732 0)
(39.8045 -0.995505 0)
(39.098 -1.30663 0)
(38.2122 -1.5047 0)
(37.2569 -1.57692 0)
(36.2991 -1.54009 0)
(35.4311 -1.42811 0)
(34.672 -1.27451 0)
(34.0253 -1.10602 0)
(33.4919 -0.944511 0)
(33.064 -0.802665 0)
(32.7174 -0.680484 0)
(32.4284 -0.574492 0)
(32.1932 -0.487001 0)
(32.0114 -0.41966 0)
(31.8654 -0.366063 0)
(31.7352 -0.318667 0)
(31.6202 -0.277515 0)
(31.5312 -0.246873 0)
(31.4644 -0.22478 0)
(31.4037 -0.20492 0)
(31.3431 -0.185204 0)
(31.2898 -0.168275 0)
(31.2495 -0.15583 0)
(31.2192 -0.146363 0)
(31.1918 -0.137785 0)
(31.1628 -0.12899 0)
(31.1337 -0.120193 0)
(31.1105 -0.11267 0)
(31.0933 -0.106792 0)
(31.0781 -0.10197 0)
(31.0621 -0.0974239 0)
(31.0433 -0.0925534 0)
(31.0225 -0.0875917 0)
(31.001 -0.0831093 0)
(30.9786 -0.0795077 0)
(30.9541 -0.0767831 0)
(30.9262 -0.0745761 0)
(30.8933 -0.0724438 0)
(30.8549 -0.070368 0)
(30.8111 -0.0686974 0)
(30.7627 -0.0676658 0)
(30.7103 -0.0672102 0)
(30.654 -0.0670061 0)
(30.5939 -0.0667502 0)
(30.5299 -0.0663963 0)
(30.4629 -0.0660812 0)
(30.3941 -0.0659542 0)
(30.3243 -0.0660606 0)
(30.2545 -0.0662903 0)
(30.1849 -0.0665064 0)
(30.1156 -0.0666411 0)
(30.0465 -0.0667064 0)
(29.9787 -0.0667998 0)
(29.9119 -0.0669322 0)
(29.8468 -0.0670805 0)
(29.7826 -0.0671964 0)
(29.7199 -0.0672243 0)
(29.6582 -0.067124 0)
(29.5981 -0.0668722 0)
(29.5393 -0.0665089 0)
(29.4822 -0.0660963 0)
(29.426 -0.06565 0)
(29.3712 -0.0651618 0)
(29.317 -0.0645908 0)
(29.2642 -0.0639447 0)
(29.2119 -0.0632089 0)
(29.161 -0.0624497 0)
(29.1102 -0.061663 0)
(29.0609 -0.0608759 0)
(29.0117 -0.0600545 0)
(28.9639 -0.0592143 0)
(28.9162 -0.0583355 0)
(28.8699 -0.057465 0)
(28.8236 -0.056584 0)
(28.7787 -0.0557243 0)
(28.7339 -0.0548544 0)
(28.6904 -0.0539795 0)
(28.647 -0.0530857 0)
(28.6049 -0.052219 0)
(28.5629 -0.0513518 0)
(28.5223 -0.0505125 0)
(28.4817 -0.0496705 0)
(28.4426 -0.0488565 0)
(28.4035 -0.0480405 0)
(28.3658 -0.0472591 0)
(28.3282 -0.046483 0)
(28.292 -0.045754 0)
(28.2558 -0.0450437 0)
(28.2211 -0.0444123 0)
(28.1862 -0.0438121 0)
(28.1531 -0.0434226 0)
(28.119 -0.0430499 0)
(28.0883 -0.0433167 0)
(28.0523 -0.043426 0)
(28.0279 -0.0452809 0)
(27.9796 -0.0464646 0)
(40.2478 0.00636938 0)
(40.3189 -0.0529351 0)
(40.3277 -0.234955 0)
(40.154 -0.518803 0)
(39.7188 -0.818109 0)
(39.0361 -1.06198 0)
(38.1811 -1.216 0)
(37.2553 -1.27217 0)
(36.323 -1.24509 0)
(35.4711 -1.16092 0)
(34.7178 -1.04272 0)
(34.072 -0.911765 0)
(33.5401 -0.786062 0)
(33.108 -0.673702 0)
(32.7498 -0.574069 0)
(32.4518 -0.487167 0)
(32.2161 -0.417542 0)
(32.0335 -0.364491 0)
(31.8761 -0.319258 0)
(31.7328 -0.277776 0)
(31.6189 -0.245239 0)
(31.5368 -0.223038 0)
(31.4654 -0.204663 0)
(31.3925 -0.185667 0)
(31.3266 -0.168255 0)
(31.2772 -0.155529 0)
(31.2406 -0.146565 0)
(31.2071 -0.138254 0)
(31.1716 -0.128955 0)
(31.1366 -0.119889 0)
(31.1093 -0.112806 0)
(31.0895 -0.107453 0)
(31.073 -0.102808 0)
(31.0561 -0.0981744 0)
(31.037 -0.0932213 0)
(31.0197 -0.0887212 0)
(31.0066 -0.0850207 0)
(30.9968 -0.0819454 0)
(30.9877 -0.0792756 0)
(30.9781 -0.0768166 0)
(30.9669 -0.0742966 0)
(30.9561 -0.0717636 0)
(30.9467 -0.0692106 0)
(30.9378 -0.0668047 0)
(30.9285 -0.0648287 0)
(30.9179 -0.0632101 0)
(30.9052 -0.0616238 0)
(30.8902 -0.0598553 0)
(30.8731 -0.0579897 0)
(30.8539 -0.0562902 0)
(30.8322 -0.054929 0)
(30.8074 -0.0538981 0)
(30.7787 -0.0530535 0)
(30.7459 -0.0522525 0)
(30.7089 -0.0514044 0)
(30.6677 -0.0506066 0)
(30.6228 -0.0499329 0)
(30.5742 -0.0494152 0)
(30.5219 -0.0489796 0)
(30.4659 -0.0485783 0)
(30.4066 -0.0481816 0)
(30.3443 -0.0477818 0)
(30.2795 -0.0473921 0)
(30.2128 -0.0470211 0)
(30.1444 -0.0466665 0)
(30.0748 -0.0463238 0)
(30.0042 -0.0459666 0)
(29.933 -0.0455731 0)
(29.8616 -0.0451266 0)
(29.79 -0.0446362 0)
(29.7191 -0.0441329 0)
(29.6481 -0.043621 0)
(29.5783 -0.0431105 0)
(29.5085 -0.0425762 0)
(29.4403 -0.0420296 0)
(29.3723 -0.0414461 0)
(29.306 -0.0408676 0)
(29.24 -0.0402743 0)
(29.1758 -0.0397015 0)
(29.112 -0.0391162 0)
(29.05 -0.0385625 0)
(28.9885 -0.037999 0)
(28.929 -0.0374403 0)
(28.8699 -0.0368758 0)
(28.8129 -0.0363269 0)
(28.7563 -0.0357782 0)
(28.7019 -0.0352503 0)
(28.6477 -0.034725 0)
(28.5959 -0.034227 0)
(28.5442 -0.0337374 0)
(28.495 -0.0332865 0)
(28.4457 -0.0328535 0)
(28.3989 -0.032484 0)
(28.3518 -0.0321527 0)
(28.3075 -0.0319752 0)
(28.2617 -0.0318698 0)
(28.2208 -0.0321647 0)
(28.1729 -0.0326446 0)
(28.1403 -0.0339062 0)
(28.076 -0.0366341 0)
(40.2419 -0.0161657 0)
(40.2904 -0.0671903 0)
(40.2717 -0.206836 0)
(40.0832 -0.423797 0)
(39.6529 -0.65625 0)
(38.9885 -0.849187 0)
(38.1576 -0.975769 0)
(37.2544 -1.02798 0)
(36.3422 -1.01519 0)
(35.4992 -0.95552 0)
(34.7462 -0.865047 0)
(34.0968 -0.762371 0)
(33.5593 -0.664005 0)
(33.1134 -0.573709 0)
(32.736 -0.490855 0)
(32.4318 -0.421261 0)
(32.1969 -0.367352 0)
(31.998 -0.322023 0)
(31.8181 -0.280374 0)
(31.6717 -0.246353 0)
(31.5621 -0.222244 0)
(31.4672 -0.203077 0)
(31.3727 -0.184149 0)
(31.2876 -0.166655 0)
(31.2207 -0.153495 0)
(31.1665 -0.144185 0)
(31.1144 -0.135914 0)
(31.06 -0.126825 0)
(31.0089 -0.118044 0)
(30.966 -0.111316 0)
(30.9291 -0.106426 0)
(30.8937 -0.101957 0)
(30.8568 -0.0970494 0)
(30.8185 -0.0919909 0)
(30.7829 -0.0877049 0)
(30.7503 -0.0844046 0)
(30.7189 -0.0815298 0)
(30.6874 -0.0784842 0)
(30.6546 -0.075239 0)
(30.6206 -0.0721171 0)
(30.5869 -0.06945 0)
(30.5537 -0.067155 0)
(30.5206 -0.0648822 0)
(30.4871 -0.0625989 0)
(30.4529 -0.0604791 0)
(30.4175 -0.0585322 0)
(30.3809 -0.0566328 0)
(30.3438 -0.054721 0)
(30.3065 -0.0528556 0)
(30.2691 -0.0511253 0)
(30.2312 -0.0495072 0)
(30.1925 -0.0479055 0)
(30.1528 -0.0462341 0)
(30.1123 -0.0444767 0)
(30.0713 -0.0426729 0)
(30.0298 -0.040941 0)
(29.9879 -0.0393298 0)
(29.9454 -0.0377737 0)
(29.9018 -0.0361996 0)
(29.857 -0.0346189 0)
(29.8111 -0.0330869 0)
(29.764 -0.0316466 0)
(29.7158 -0.0303124 0)
(29.6665 -0.0290615 0)
(29.6159 -0.0278777 0)
(29.5638 -0.0267663 0)
(29.5103 -0.0257388 0)
(29.4554 -0.0248011 0)
(29.3995 -0.0239336 0)
(29.3425 -0.0231514 0)
(29.2847 -0.0224491 0)
(29.2261 -0.0218187 0)
(29.1668 -0.0212539 0)
(29.107 -0.0207485 0)
(29.047 -0.0203009 0)
(28.9867 -0.0198933 0)
(28.9267 -0.0195284 0)
(28.8665 -0.0191965 0)
(28.8071 -0.0189086 0)
(28.7476 -0.0186513 0)
(28.6893 -0.0184195 0)
(28.6309 -0.0182053 0)
(28.5741 -0.0180185 0)
(28.5173 -0.017858 0)
(28.4623 -0.0177226 0)
(28.4074 -0.0176086 0)
(28.3544 -0.0175139 0)
(28.3016 -0.0174355 0)
(28.2508 -0.0173732 0)
(28.2001 -0.0173262 0)
(28.1515 -0.0172982 0)
(28.1029 -0.0172857 0)
(28.0564 -0.0173065 0)
(28.0097 -0.017368 0)
(27.9654 -0.0175024 0)
(27.9196 -0.0177724 0)
(27.8784 -0.0181374 0)
(27.8297 -0.0191004 0)
(27.7968 -0.0196141 0)
(27.7301 -0.0241582 0)
(40.2386 -0.030009 0)
(40.2709 -0.0704533 0)
(40.2318 -0.171527 0)
(40.0309 -0.327113 0)
(39.6008 -0.494846 0)
(38.9444 -0.634497 0)
(38.1223 -0.7264 0)
(37.2221 -0.765019 0)
(36.3099 -0.757896 0)
(35.4509 -0.717346 0)
(34.678 -0.655153 0)
(34.014 -0.585508 0)
(33.4462 -0.51577 0)
(32.96 -0.44869 0)
(32.5578 -0.389092 0)
(32.2322 -0.340199 0)
(31.9526 -0.299032 0)
(31.7058 -0.262533 0)
(31.4973 -0.231446 0)
(31.325 -0.207223 0)
(31.1694 -0.188091 0)
(31.0222 -0.171311 0)
(30.8887 -0.155956 0)
(30.7721 -0.143138 0)
(30.6654 -0.13323 0)
(30.5611 -0.124954 0)
(30.4591 -0.11678 0)
(30.3631 -0.10868 0)
(30.2737 -0.10168 0)
(30.1877 -0.0961878 0)
(30.102 -0.0915276 0)
(30.0167 -0.0867376 0)
(29.9335 -0.0816412 0)
(29.8533 -0.0769803 0)
(29.7748 -0.0732277 0)
(29.6968 -0.0700862 0)
(29.6187 -0.066999 0)
(29.5413 -0.0636708 0)
(29.4654 -0.0602993 0)
(29.3909 -0.0573433 0)
(29.3173 -0.054921 0)
(29.2441 -0.0527283 0)
(29.1715 -0.050439 0)
(29.1001 -0.0480675 0)
(29.0298 -0.0458204 0)
(28.9606 -0.0437977 0)
(28.8922 -0.0419352 0)
(28.8251 -0.0401402 0)
(28.7592 -0.0383733 0)
(28.6945 -0.0366616 0)
(28.6311 -0.0350148 0)
(28.5689 -0.0334309 0)
(28.508 -0.0318997 0)
(28.4487 -0.030435 0)
(28.3908 -0.0290364 0)
(28.3347 -0.0277344 0)
(28.2798 -0.0265018 0)
(28.2266 -0.0252863 0)
(28.1747 -0.0240457 0)
(28.1248 -0.0228224 0)
(28.0763 -0.0216519 0)
(28.0296 -0.0205559 0)
(27.9842 -0.0194999 0)
(27.9406 -0.0184547 0)
(27.8982 -0.0173994 0)
(27.8574 -0.0163674 0)
(27.8177 -0.0153775 0)
(27.7796 -0.0144499 0)
(27.7423 -0.013562 0)
(27.7063 -0.012722 0)
(27.671 -0.0119423 0)
(27.6368 -0.0112126 0)
(27.6032 -0.0105238 0)
(27.5703 -0.00989065 0)
(27.5379 -0.00931877 0)
(27.5061 -0.00881242 0)
(27.4747 -0.00836064 0)
(27.4436 -0.0079715 0)
(27.4129 -0.0076399 0)
(27.3824 -0.00736755 0)
(27.3522 -0.00714614 0)
(27.322 -0.00696813 0)
(27.2921 -0.00683279 0)
(27.2621 -0.00673992 0)
(27.2323 -0.00668679 0)
(27.2025 -0.00667066 0)
(27.1727 -0.00668561 0)
(27.1429 -0.0067304 0)
(27.1132 -0.00679883 0)
(27.0834 -0.00689292 0)
(27.0537 -0.00700745 0)
(27.024 -0.00714432 0)
(26.9945 -0.00730735 0)
(26.9647 -0.00751246 0)
(26.9355 -0.00772796 0)
(26.9049 -0.00811315 0)
(26.8769 -0.00835655 0)
(26.8424 -0.0094853 0)
(26.8199 -0.00918255 0)
(26.7695 -0.0145938 0)
(40.2229 -0.0441214 0)
(40.2345 -0.0683461 0)
(40.1702 -0.129278 0)
(39.943 -0.223499 0)
(39.4859 -0.326545 0)
(38.7965 -0.413773 0)
(37.9306 -0.472598 0)
(36.9721 -0.4988 0)
(35.9896 -0.496176 0)
(35.045 -0.471918 0)
(34.1817 -0.433743 0)
(33.4059 -0.389185 0)
(32.7217 -0.343421 0)
(32.1327 -0.300496 0)
(31.627 -0.262928 0)
(31.1869 -0.230767 0)
(30.7984 -0.202769 0)
(30.4589 -0.178858 0)
(30.1597 -0.159087 0)
(29.8917 -0.142761 0)
(29.6436 -0.128415 0)
(29.416 -0.116104 0)
(29.2089 -0.105879 0)
(29.0183 -0.0972203 0)
(28.8393 -0.0895507 0)
(28.6692 -0.0825853 0)
(28.5088 -0.0763244 0)
(28.3579 -0.0706575 0)
(28.2154 -0.0654868 0)
(28.079 -0.0607472 0)
(27.9478 -0.0563835 0)
(27.8219 -0.0522846 0)
(27.7018 -0.0483907 0)
(27.5874 -0.0448144 0)
(27.4775 -0.0415924 0)
(27.3715 -0.0386013 0)
(27.2692 -0.0357514 0)
(27.1711 -0.0330229 0)
(27.0772 -0.0304536 0)
(26.9873 -0.0281226 0)
(26.9007 -0.0260118 0)
(26.8172 -0.0240386 0)
(26.7367 -0.0221243 0)
(26.6597 -0.0202993 0)
(26.5856 -0.0186369 0)
(26.5146 -0.0171468 0)
(26.4461 -0.0157612 0)
(26.3804 -0.0144321 0)
(26.3172 -0.0131612 0)
(26.2567 -0.011995 0)
(26.1983 -0.0109416 0)
(26.1426 -0.00997823 0)
(26.0888 -0.00906893 0)
(26.0376 -0.00820084 0)
(25.9883 -0.00736794 0)
(25.9414 -0.00659369 0)
(25.8963 -0.00588348 0)
(25.8534 -0.00521856 0)
(25.8122 -0.00457262 0)
(25.7734 -0.00395073 0)
(25.7361 -0.00336309 0)
(25.7011 -0.00282109 0)
(25.6675 -0.00231373 0)
(25.6359 -0.00183097 0)
(25.6058 -0.00136578 0)
(25.5776 -0.000930278 0)
(25.5507 -0.000528355 0)
(25.5256 -0.000158888 0)
(25.5016 0.000190159 0)
(25.4792 0.000519073 0)
(25.4577 0.000836834 0)
(25.4376 0.0010752 0)
(25.4184 0.00127726 0)
(25.4002 0.00145721 0)
(25.3827 0.00162656 0)
(25.3662 0.0017739 0)
(25.35 0.00191441 0)
(25.3347 0.00203386 0)
(25.3197 0.00213866 0)
(25.3052 0.00222507 0)
(25.291 0.00229729 0)
(25.2772 0.00234899 0)
(25.2636 0.00239545 0)
(25.2503 0.00243945 0)
(25.2371 0.00247593 0)
(25.224 0.00250453 0)
(25.211 0.00252475 0)
(25.198 0.00253811 0)
(25.185 0.00253972 0)
(25.172 0.0025328 0)
(25.1588 0.00251211 0)
(25.1455 0.00247943 0)
(25.1321 0.00242689 0)
(25.1184 0.00231815 0)
(25.1048 0.00222398 0)
(25.0899 0.00194252 0)
(25.0766 0.00194533 0)
(25.0582 0.000987003 0)
(25.0478 0.00151896 0)
(25.0178 -0.00294833 0)
(39.1402 -0.0539802 0)
(38.9464 -0.0675466 0)
(38.6586 -0.0934486 0)
(38.1914 -0.131021 0)
(37.4774 -0.172079 0)
(36.5128 -0.207807 0)
(35.3544 -0.233313 0)
(34.0901 -0.246408 0)
(32.7978 -0.247898 0)
(31.5413 -0.24019 0)
(30.3738 -0.225625 0)
(29.3093 -0.206595 0)
(28.3626 -0.186126 0)
(27.5266 -0.166285 0)
(26.7955 -0.147657 0)
(26.1535 -0.13013 0)
(25.5936 -0.114281 0)
(25.0998 -0.10051 0)
(24.6663 -0.0886431 0)
(24.2803 -0.0778015 0)
(23.9405 -0.0681675 0)
(23.6354 -0.0605724 0)
(23.3587 -0.0545736 0)
(23.1076 -0.0492186 0)
(22.8791 -0.0442357 0)
(22.6711 -0.0400408 0)
(22.4798 -0.0366731 0)
(22.304 -0.0336285 0)
(22.1427 -0.0306168 0)
(21.9954 -0.0278675 0)
(21.8596 -0.0256294 0)
(21.7343 -0.0237539 0)
(21.6189 -0.0219457 0)
(21.5132 -0.0201727 0)
(21.4162 -0.018597 0)
(21.3268 -0.0173126 0)
(21.2441 -0.0162444 0)
(21.1679 -0.0152356 0)
(21.0979 -0.0142177 0)
(21.0339 -0.013273 0)
(20.9749 -0.0124864 0)
(20.9207 -0.0118473 0)
(20.8704 -0.0112594 0)
(20.8245 -0.0106719 0)
(20.7822 -0.0101077 0)
(20.7437 -0.00961024 0)
(20.7081 -0.00917971 0)
(20.6756 -0.00879118 0)
(20.6456 -0.00842093 0)
(20.6185 -0.0080693 0)
(20.5934 -0.00773283 0)
(20.5708 -0.0074129 0)
(20.55 -0.00710769 0)
(20.5313 -0.00682566 0)
(20.5141 -0.00656339 0)
(20.4989 -0.00632737 0)
(20.4849 -0.00611147 0)
(20.4725 -0.00590925 0)
(20.4612 -0.00570679 0)
(20.4515 -0.00551474 0)
(20.4426 -0.00533626 0)
(20.4352 -0.00518061 0)
(20.4285 -0.00503021 0)
(20.423 -0.00488159 0)
(20.4182 -0.00471505 0)
(20.4146 -0.00454723 0)
(20.4115 -0.0043614 0)
(20.4095 -0.00418133 0)
(20.4081 -0.00396489 0)
(20.4076 -0.00370759 0)
(20.4077 -0.00353285 0)
(20.4085 -0.00335334 0)
(20.4099 -0.00319586 0)
(20.412 -0.00304845 0)
(20.4145 -0.00290792 0)
(20.4176 -0.00277653 0)
(20.4212 -0.00264968 0)
(20.4253 -0.00253891 0)
(20.4297 -0.00243947 0)
(20.4344 -0.00235639 0)
(20.4394 -0.00228968 0)
(20.4446 -0.00226291 0)
(20.45 -0.00225378 0)
(20.4555 -0.00225487 0)
(20.4611 -0.00226373 0)
(20.4668 -0.00227886 0)
(20.4724 -0.00229666 0)
(20.4781 -0.00231499 0)
(20.4837 -0.00233693 0)
(20.4892 -0.00235715 0)
(20.4947 -0.00238242 0)
(20.4999 -0.00240506 0)
(20.5052 -0.00243493 0)
(20.5097 -0.00249598 0)
(20.5146 -0.00253999 0)
(20.518 -0.00268065 0)
(20.5227 -0.00262436 0)
(20.524 -0.00322321 0)
(20.5276 -0.00208139 0)
(20.5227 -0.00798313 0)
(1.95437 0.421237 0)
(1.64907 2.05102 0)
(0.910905 2.40128 0)
(0.110914 2.5677 0)
(-0.665574 2.43237 0)
(-1.46651 1.98152 0)
(-2.15367 1.28401 0)
(-2.51272 0.770952 0)
(10.5778 0.318085 0)
(4.36564 1.81698 0)
(1.74411 2.17481 0)
(-0.155018 2.21102 0)
(-2.00006 2.04563 0)
(-3.87731 1.69172 0)
(-5.71493 1.11972 0)
(-6.92409 0.530807 0)
(16.8868 -0.371864 0)
(7.91511 0.751521 0)
(2.86677 1.2142 0)
(-0.390799 1.32792 0)
(-2.9925 1.24932 0)
(-5.40338 1.0588 0)
(-7.85091 0.75371 0)
(-9.97521 0.288393 0)
(20.5479 -1.17077 0)
(11.239 -0.438563 0)
(4.58036 0.0734968 0)
(0.166283 0.312115 0)
(-3.14767 0.393393 0)
(-6.02669 0.379207 0)
(-8.77042 0.303337 0)
(-11.4791 0.0760391 0)
(22.4346 -1.81034 0)
(13.5547 -1.3272 0)
(6.44275 -0.873378 0)
(1.28496 -0.548983 0)
(-2.61863 -0.328242 0)
(-5.86405 -0.179406 0)
(-8.80813 -0.0646665 0)
(-11.7951 -0.0515936 0)
(23.6383 -2.31559 0)
(15.4317 -1.97617 0)
(8.25978 -1.5757 0)
(2.7433 -1.21557 0)
(-1.47202 -0.904728 0)
(-4.91752 -0.6309 0)
(-7.98474 -0.380779 0)
(-11.1055 -0.205935 0)
(24.3327 -2.60589 0)
(16.9012 -2.37072 0)
(10.0265 -2.03613 0)
(4.44226 -1.67065 0)
(0.115629 -1.30546 0)
(-3.37702 -0.946672 0)
(-6.43097 -0.597682 0)
(-9.51235 -0.307152 0)
(24.7684 -2.67811 0)
(17.9673 -2.50951 0)
(11.5151 -2.23416 0)
(6.15521 -1.89321 0)
(1.91902 -1.51317 0)
(-1.51041 -1.11243 0)
(-4.48998 -0.712742 0)
(-7.52817 -0.358468 0)
(25.0648 -2.58812 0)
(18.8342 -2.46103 0)
(12.8346 -2.23092 0)
(7.79377 -1.91917 0)
(3.76298 -1.55077 0)
(0.479206 -1.14697 0)
(-2.37451 -0.740333 0)
(-5.32865 -0.369181 0)
(25.2507 -2.381 0)
(19.5301 -2.28697 0)
(13.9916 -2.09704 0)
(9.31679 -1.82105 0)
(5.53744 -1.48026 0)
(2.42564 -1.0967 0)
(-0.297136 -0.708731 0)
(-3.17836 -0.353591 0)
(25.33 -2.11391 0)
(20.0607 -2.05176 0)
(14.9676 -1.89745 0)
(10.6753 -1.65939 0)
(7.16897 -1.35427 0)
(4.24223 -1.00519 0)
(1.65839 -0.650608 0)
(-1.14573 -0.325779 0)
(25.3135 -1.83602 0)
(20.4571 -1.79967 0)
(15.8049 -1.67564 0)
(11.8635 -1.4727 0)
(8.60681 -1.20388 0)
(5.86512 -0.895612 0)
(3.4169 -0.580672 0)
(0.697314 -0.291805 0)
(25.2218 -1.57349 0)
(20.7379 -1.55761 0)
(16.5024 -1.45878 0)
(12.8902 -1.28605 0)
(9.86485 -1.05203 0)
(7.29318 -0.782535 0)
(4.96314 -0.504718 0)
(2.30929 -0.250274 0)
(25.0828 -1.34378 0)
(20.9383 -1.34056 0)
(17.085 -1.26202 0)
(13.7721 -1.11551 0)
(10.9563 -0.912964 0)
(8.53822 -0.679006 0)
(6.31412 -0.435771 0)
(3.71777 -0.214181 0)
(24.9172 -1.15113 0)
(21.0776 -1.15531 0)
(17.5715 -1.09191 0)
(14.5306 -0.967139 0)
(11.9022 -0.792851 0)
(9.61948 -0.590222 0)
(7.48669 -0.37747 0)
(4.93532 -0.18455 0)
(24.7445 -0.992075 0)
(21.1868 -0.998218 0)
(17.9787 -0.946334 0)
(15.1718 -0.839309 0)
(12.7163 -0.690451 0)
(10.5577 -0.515187 0)
(8.50778 -0.328203 0)
(5.9943 -0.161769 0)
(24.5806 -0.861377 0)
(21.2818 -0.866703 0)
(18.3243 -0.822265 0)
(15.7155 -0.729972 0)
(13.4167 -0.602385 0)
(11.3723 -0.450292 0)
(9.40075 -0.284122 0)
(6.9167 -0.14568 0)
(24.4329 -0.754695 0)
(21.3681 -0.758584 0)
(18.6242 -0.718745 0)
(16.1852 -0.638276 0)
(14.0237 -0.527541 0)
(12.0822 -0.394597 0)
(10.1865 -0.246561 0)
(7.71798 -0.131146 0)
(24.3058 -0.668936 0)
(21.45 -0.670954 0)
(18.8901 -0.634369 0)
(16.5977 -0.563 0)
(14.5555 -0.465449 0)
(12.705 -0.348204 0)
(10.8773 -0.21683 0)
(8.4233 -0.11596 0)
(24.1986 -0.599092 0)
(21.5299 -0.599538 0)
(19.1304 -0.565419 0)
(16.9655 -0.501199 0)
(15.0274 -0.41413 0)
(13.2569 -0.309677 0)
(11.4887 -0.192684 0)
(9.04746 -0.102396 0)
(24.1086 -0.539866 0)
(21.6086 -0.539618 0)
(19.3495 -0.507562 0)
(17.2972 -0.449599 0)
(15.4504 -0.371251 0)
(13.75 -0.277367 0)
(12.0342 -0.172425 0)
(9.6034 -0.090847 0)
(24.0334 -0.488978 0)
(21.6847 -0.488311 0)
(19.5468 -0.458457 0)
(17.597 -0.406022 0)
(15.8321 -0.335124 0)
(14.1942 -0.250152 0)
(12.5245 -0.155317 0)
(10.1019 -0.0812295 0)
(23.9711 -0.446742 0)
(21.7574 -0.445227 0)
(19.7272 -0.417335 0)
(17.8698 -0.369373 0)
(16.1788 -0.304689 0)
(14.5972 -0.227239 0)
(12.9685 -0.140903 0)
(10.5524 -0.0732656 0)
(23.9207 -0.41187 0)
(21.8287 -0.409218 0)
(19.8954 -0.383017 0)
(18.121 -0.33867 0)
(16.4967 -0.279159 0)
(14.9657 -0.208035 0)
(13.3737 -0.128819 0)
(10.9626 -0.0666341 0)
(23.8802 -0.381682 0)
(21.8976 -0.378228 0)
(20.0521 -0.353384 0)
(18.3531 -0.312122 0)
(16.7895 -0.257098 0)
(15.3049 -0.191458 0)
(13.7461 -0.118378 0)
(11.3386 -0.0609403 0)
(23.8485 -0.35439 0)
(21.9658 -0.349882 0)
(20.1998 -0.326723 0)
(18.5689 -0.288325 0)
(17.0604 -0.237299 0)