/*--------------------------------*- C++ -*----------------------------------*\
| =========                 |                                                 |
| \\      /  F ield         | OpenFOAM: The Open Source CFD Toolbox           |
|  \\    /   O peration     | Version:  v2012                                 |
|   \\  /    A nd           | Website:  www.openfoam.com                      |
|    \\/     M anipulation  |                                                 |
\*---------------------------------------------------------------------------*/
FoamFile
{
    version     2.0;
    format      ascii;
    class       vectorField;
    location    "0.039/lagrangian/kinematicCloud";
    object      UCorrect;
}
// * * * * * * * * * * * * * * * * * * * * * * * * * * * * * * * * * * * * * //


42
(
(0 0 0)
(-9.93889e-27 -3.96524e-30 0)
(0 0 0)
(0 0 0)
(-1.40611e-26 2.30847e-29 0)
(-1.06324e-26 8.34927e-30 0)
(-3.54872e-27 2.29805e-29 0)
(0 0 0)
(-1.59854e-26 2.36314e-29 0)
(-1.26405e-26 -1.33826e-29 0)
(0 0 0)
(-1.52262e-29 -2.9603e-32 0)
(-6.71183e-27 -2.54301e-29 0)
(-6.99279e-27 2.42773e-29 0)
(-1.14061e-26 -3.13499e-29 0)
(-1.13918e-26 -4.02152e-31 0)
(0 0 0)
(0 0 0)
(0 0 0)
(0 0 0)
(0 0 0)
(0 0 0)
(0 0 0)
(0 0 0)
(0 0 0)
(-8.97686e-30 2.71294e-32 0)
(0 0 0)
(0 0 0)
(-2.40228e-26 -1.4871e-28 0)
(0 0 0)
(3.55296e-26 -1.17466e-29 0)
(-2.84176e-26 -1.926e-28 0)
(-1.83804e-26 1.93677e-28 0)
(0 0 0)
(0 0 0)
(0 0 0)
(0 0 0)
(0 0 0)
(0 0 0)
(-2.40581e-26 -1.73679e-28 0)
(0 0 0)
(0 0 0)
)


// ************************************************************************* //
