/*--------------------------------*- C++ -*----------------------------------*\
| =========                 |                                                 |
| \\      /  F ield         | OpenFOAM: The Open Source CFD Toolbox           |
|  \\    /   O peration     | Version:  v2012                                 |
|   \\  /    A nd           | Website:  www.openfoam.com                      |
|    \\/     M anipulation  |                                                 |
\*---------------------------------------------------------------------------*/
FoamFile
{
    version     2.0;
    format      ascii;
    class       volScalarField;
    location    "0.119";
    object      omega.air;
}
// * * * * * * * * * * * * * * * * * * * * * * * * * * * * * * * * * * * * * //

dimensions      [0 0 -1 0 0 0 0];


internalField   nonuniform List<scalar> 
5600
(
6586.26
7485.53
7886.76
7965.21
7866.35
7687.52
7480.91
7290.13
7125.23
6987.9
6878.77
6796.46
6736.08
6693.6
6663.45
6642.52
6626.84
6615.07
6605.08
6596.74
6589.35
6582.91
6577.6
6573.33
6570.32
6567.72
6566.29
6564.63
6564.15
6562.58
6562.33
6560.32
6560.07
6557.13
6557.25
6553.45
6554.22
6549.39
6551.24
6545.37
6548.5
6541.83
6545.84
6539.41
6542.63
6538.83
6538.42
6540.27
6533.65
6542.22
6530.37
6541.86
6531.07
6536.78
6537.02
6528.14
6545.27
6521.29
6549.87
6521.67
6546.04
6530.14
6534.57
6542.21
6521.56
6550.41
6515.33
6547.93
6521.89
6531.81
6541.32
6507.81
6562.61
6492.02
6567.76
6499.6
6546.47
6531.79
6508.09
6568.6
6481.71
6578.93
6490.42
6552.01
6528.16
6510.27
6560.15
6495.59
6550.23
6525.56
6500.98
6582.72
6441.63
6628.95
6409.45
6636.04
6390.12
6697.09
6093.72
7307.47
2450.53
2296.57
2571.64
2795.1
2928.18
2998.05
3010.29
2968.13
2969.05
3017.12
3073.6
3118.81
3147.35
3158.29
3155.07
3140.41
3118.28
3091.23
3062.18
3032.52
3003.25
2973.98
2945.02
2916.54
2889.2
2863.31
2839.67
2817.45
2797.61
2778.51
2762.08
2745.84
2732.04
2718.63
2707.14
2695.88
2686.39
2676.97
2669.04
2661.06
2654.38
2647.63
2641.96
2636.41
2631.25
2626.66
2621.54
2617.67
2612.96
2609.91
2605.42
2603.09
2599.46
2596.51
2594.12
2590.57
2589.45
2585.31
2586.03
2581.77
2582.66
2579.94
2579.67
2578.31
2576.7
2577.61
2573.88
2576.37
2572.72
2574.18
2572.49
2571.69
2573.79
2568.49
2575.51
2567.78
2573.75
2569.95
2571.24
2573.01
2567.63
2576.47
2566.88
2574.38
2569.97
2571.13
2572.75
2568.64
2573.27
2571.33
2567.86
2578.73
2558
2593.3
2541.44
2614.81
2508.22
2680.82
2368.17
2935.27
2358.55
1859.91
1592.16
1427.77
1346.16
1273.69
1280.06
1309.04
1352.03
1412.31
1482.42
1549.34
1611.3
1663.75
1705.03
1733.27
1749.24
1752.3
1744.46
1726.32
1702.53
1676.65
1653.67
1634.89
1619.49
1605.77
1593.26
1581.75
1571.26
1560.94
1551.24
1540.89
1531.34
1521.58
1512.96
1504.01
1496.53
1488.46
1482.11
1474.89
1469.52
1463.04
1458.44
1452.65
1448.42
1443.76
1439.38
1435.99
1431.18
1429.26
1424.09
1423.08
1418.58
1416.84
1414.55
1410.42
1411.43
1404.79
1408.3
1401.35
1404.31
1399.92
1399.95
1399.78
1395.48
1399.79
1392.67
1398.28
1392.54
1394.68
1395.3
1389.37
1399.1
1385.38
1400.14
1386.63
1395.66
1392.92
1388.12
1400.28
1382.87
1402.17
1385.21
1396.26
1393.37
1388.08
1399.12
1387.09
1394.88
1396.34
1381.78
1412.02
1365.8
1426.8
1355.07
1430.92
1355.39
1440.59
1318.87
1508.1
2345.17
1822.36
1493.24
1267.62
1111.21
992.525
906.964
846.804
802.815
776.521
760.645
769.285
791.836
823.887
861.144
902.043
941.52
978.392
1011.46
1039.4
1061.6
1078.98
1091.75
1100.88
1105.77
1107.17
1103.5
1097.26
1087.39
1078.26
1068.23
1060.92
1053.73
1048.22
1042.38
1037.4
1032.49
1027.74
1023.7
1019.05
1015.31
1010.43
1006.42
1001.2
997.169
992.338
988.296
984.55
979.889
977.629
972.507
971.088
966.486
964.659
962.122
957.955
958.701
951.904
954.588
947.533
949.445
944.962
943.795
943.764
938.65
942.702
935.875
940.661
935.912
936.79
939.122
931.574
942.688
928.719
942.409
931.225
937.19
938.145
929.595
944.713
926.178
944.321
930.581
937.221
939.268
929.964
942.997
931.888
936.378
942.768
923.723
956.256
913.172
961.423
917.614
948.063
938.121
932.253
939.791
943.478
2341.97
1815.97
1479.83
1247.91
1079.75
952.531
853.241
774.553
710.721
658.806
616.199
581.848
556.35
536.014
523.768
514.576
514.021
520.701
532.494
548.992
568.76
591.732
616.278
642.103
667.088
692.294
713.557
733.761
747.611
761.624
768.826
778.489
780.905
787.49
785.643
789.523
784.003
785.319
777.96
776.905
770.613
767.772
764.482
760.533
759.473
754.434
753.98
750.059
747.849
746.496
742.31
742.366
737.993
737.528
734.654
731.569
732.126
725.569
728.16
720.891
722.423
717.783
715.912
715.847
710.435
714.043
707.574
711.609
708.085
707.378
711.789
702.361
715.017
701.038
713.215
705.47
706.792
713.045
699.791
717.918
698.926
714.781
706.293
705.725
715.341
700.62
715.603
706.47
706.343
717.962
696.298
726.143
693.737
721.756
708.045
702.858
727.413
692.476
725.994
703.589
2341.13
1814.12
1476.76
1243.88
1074.18
945.317
844.342
763.123
696.61
640.998
594.218
553.984
519.73
489.799
464.231
441.816
422.724
406.818
393.666
383.294
375.385
370.256
367.43
368.927
373.158
381.394
391.313
405.679
419.517
438.525
453.538
475.249
489.053
511.63
521.864
543.385
549.02
567.45
569.489
582.749
584.321
590.733
595.467
594.13
603.592
595.046
606.645
596.265
603.28
598.877
595.239
599.834
588.349
595.517
586.72
588.45
587.518
582.172
586.809
578.601
582.672
577.481
577.069
577.123
572.377
576.314
570.245
573.929
571.907
569.614
576.614
564.892
580.095
565.697
576.07
572.909
568.107
581.073
562.131
584.636
564.521
577.2
576.253
564.935
585.48
562.791
580.628
573.635
568.397
584.497
561.504
587.214
564.86
577.782
580.028
563.624
589.731
561.468
587.703
565.641
2340.86
1813.44
1475.75
1242.6
1072.61
943.44
842.127
760.558
693.57
637.526
590.043
549.232
513.873
482.89
455.603
431.362
409.761
390.377
373.037
357.353
343.37
330.624
319.483
309.232
300.979
292.965
287.64
281.769
279.596
275.995
277.576
277.271
282.885
286.211
294.959
302.216
313.077
323.709
336.026
347.679
362.292
371.029
390.131
392.235
416.404
412.677
436.474
434.196
447.311
455.791
451.981
471.711
457.853
477.111
467.795
475.133
478.228
472.161
484.814
471.825
485.853
473.247
482.268
475.864
475.427
479.627
468.801
480.445
470.657
474.52
479.776
467.775
484.946
466.848
481.8
475.218
471.638
488.388
463.499
492.151
465.573
481.851
481.957
463.429
495.059
460.817
485.574
475.778
469.244
488.069
460.873
490.989
464.744
479.333
480.875
466.845
485.54
466.418
489.725
461.31
2340.75
1813.13
1475.32
1242.07
1071.99
942.74
841.332
759.693
692.597
636.476
588.869
547.958
512.453
481.319
453.841
429.358
407.486
387.724
369.942
353.637
338.972
325.234
313.087
301.208
291.29
280.64
272.931
262.871
257.599
247.428
245.119
234.1
235.492
222.932
228.666
214.187
224.45
208.736
222.259
208.585
221.502
215.371
221.824
228.63
224.843
245.526
233.589
261.72
250.197
274.471
274.355
284.695
301.829
295.205
325.826
309.218
340.833
328.545
348.596
350.097
354.982
368.149
361.451
380.057
367.889
383.692
378.165
376.691
395.532
362.392
409.608
357.903
403.452
374.653
380.734
401.326
356.362
419.145
349.37
409.819
370.21
380.081
401.745
355.455
411.495
361.872
393.437
382.802
375.802
395.15
368.485
396.839
374.122
386.635
382.937
384.767
380.309
384.351
386.275
377.969
2340.71
1812.97
1475.11
1241.82
1071.69
942.417
840.979
759.315
692.189
636.045
588.407
547.472
511.932
480.772
453.253
428.742
406.812
387.023
369.154
352.824
338.018
324.269
311.87
300.043
289.646
279.193
270.595
261.001
254.181
244.913
240.035
230.487
227.89
217.419
217.495
205.626
208.373
195.571
199.454
188.554
189.098
186.177
176.269
188.221
163.163
190.236
156.685
184.514
164.391
167.674
184.422
148.19
203.174
141.759
207.14
157.718
195.856
188.435
180.874
220.471
174.031
244.4
184.181
251.298
216.742
236.482
264.058
209.736
302.803
194.901
307.476
213.986
274.782
258.711
228.699
299.402
199.002
306.34
211.245
274.301
250.688
238.153
273.876
231.87
266.609
244.372
256.892
250.69
252.392
254.21
253.977
247.87
260.686
249.721
250.653
259.153
248.756
258.271
248.12
255.89
2340.68
1812.9
1475.01
1241.7
1071.56
942.272
840.822
759.148
692.011
635.86
588.21
547.268
511.715
480.55
453.015
428.502
406.551
386.766
368.863
352.553
337.685
323.995
311.469
299.788
289.131
278.997
269.885
260.926
253.156
245.051
238.514
230.962
225.627
218.352
214.21
207.04
203.93
197.05
194.303
188.628
184.762
182.012
175.104
176.783
166.178
171.343
159.969
163.526
158.042
152.813
159.104
142.27
158.925
136.769
153.779
138.231
143.682
144.355
131.872
151.61
122.608
156.116
122.333
151.677
136.108
136.107
158.076
120.235
170.406
119.294
163.187
133.12
143.689
150.472
124.597
160.062
118.544
153.444
129.191
136.471
140.543
130.25
136.562
137.419
130.264
136.569
135.476
131.688
135.583
133.808
135.655
131.042
135.424
138.141
128.86
136.972
137.543
129.864
140.465
123.881
2340.68
1812.91
1475.02
1241.72
1071.58
942.289
840.838
759.165
692.027
635.876
588.224
547.283
511.729
480.566
453.027
428.517
406.562
386.782
368.872
352.573
337.687
324.023
311.459
299.834
289.097
279.076
269.807
261.067
253.002
245.292
238.239
231.358
225.176
218.96
213.544
207.872
203.109
197.948
193.648
189.104
184.977
181.266
177.007
174.279
169.806
167.888
163.552
161.884
158.368
156.242
154.153
151.137
150.786
146.878
148.16
143.896
145.687
142.837
142.73
143.97
140.407
146.501
141.478
148.738
146.777
149.769
154.076
149.377
160.46
147.717
163.608
146.703
161.37
149.417
153.303
155.897
142.397
162.787
133.459
166.283
131.374
162.198
139.668
147.994
156.496
129.555
171.336
119.97
171.576
128.403
155.004
150.436
130.566
171.891
115.071
174.464
124.467
155.221
148.112
131.934
2340.71
1813
1475.15
1241.86
1071.74
942.467
841.028
759.364
692.236
636.093
588.45
547.519
511.972
480.82
453.288
428.792
406.843
387.079
369.174
352.897
338.016
324.38
311.822
300.235
289.501
279.541
270.27
261.625
253.551
245.995
238.917
232.282
226.062
220.224
214.772
209.632
204.907
200.399
196.42
192.544
189.34
186.108
183.686
181.245
179.527
178.32
176.96
177.807
176.397
179.723
178.38
183.74
184.061
189.582
193.706
196.837
205.658
205.87
217.994
218.495
230.362
235.825
242.524
255.246
253.582
271.663
263.498
280.505
273.72
280.6
284.854
274.562
294.566
268.787
297.831
269.836
291.977
278.523
280.365
289.669
269.43
297.594
263.607
298.989
266.259
291.372
278.265
276.581
293.538
262.907
302.2
259.396
299.362
268.694
284.968
287.68
264.698
303.393
255.81
303.586
2340.76
1813.17
1475.39
1242.15
1072.07
942.821
841.416
759.774
692.677
636.555
588.947
548.037
512.528
481.403
453.913
429.456
407.554
387.852
370.007
353.824
339.03
325.535
313.112
301.741
291.227
281.609
272.694
264.57
257.072
250.337
244.22
238.883
234.156
230.282
227.046
224.77
223.201
222.799
223.513
225.29
228.336
232.224
237.57
243.522
251.039
258.837
267.881
276.904
286.492
296.453
305.746
316.568
324.576
335.551
341.912
351.736
357.534
364.725
371.913
375.298
384.15
384.258
391.868
392.022
394.414
398.381
394.261
402.823
394.374
404.388
396.429
403.07
400.556
399.504
405.696
395.693
409.469
394.044
410.294
395.087
408.269
398.902
402.834
406.09
394.779
413.637
389.46
415.431
392.122
408.892
402.04
397.02
413.77
387.092
419.213
387.966
412.158
400.052
398.644
412.789
2340.87
1813.49
1475.85
1242.7
1072.73
943.557
842.25
760.68
693.695
637.652
590.185
549.369
514.052
483.065
455.854
431.629
410.133
390.849
373.64
358.172
344.354
332.004
321.106
311.735
303.658
297.152
291.931
288.421
286.326
286.451
288.57
292.772
298.89
306.938
316.625
327.793
340.074
353.173
366.635
380.404
393.762
406.925
419.284
431.069
441.812
451.361
460.052
466.827
473.575
477.772
482.64
485.083
488.051
490.103
491.091
493.509
492.893
495.256
494.204
494.764
494.528
492.152
493.109
489.12
490.024
487.523
486.664
487.689
484.328
488.462
483.499
488.978
484.103
488.448
486.226
486.621
489.325
484.315
492.007
482.578
493.263
482.51
491.973
485.554
487.429
491.316
481.817
495.9
479.307
495.711
482.131
490.489
489.06
483.04
495.948
478.362
497.355
480.437
492.5
487.644
2341.15
1814.19
1476.91
1243.99
1074.37
945.464
844.556
763.344
696.864
641.368
594.593
554.616
520.508
490.953
465.77
443.824
425.824
410.633
398.925
389.608
383.735
380.091
380.94
385.401
393.436
404.672
418.826
435.256
453.413
472.41
491.919
511.212
529.571
546.642
561.817
575.038
585.949
594.953
601.962
607.612
612.104
615.786
618.392
620.259
621.079
621.191
620.612
619.24
617.813
615.343
613.495
610.708
608.968
606.883
605.049
603.791
601.618
600.77
598.557
597.116
595.539
593.141
592.615
589.912
589.89
588.235
587.653
587.672
586.064
587.846
585.203
588.159
585.204
587.989
586.115
586.955
587.642
585.496
589.166
584.356
590.037
584.157
589.631
585.498
587.463
588.16
584.531
590.78
582.656
591.531
583.329
589.615
586.261
585.984
589.916
582.7
592.186
581.951
591.456
584.094
2342.03
1815.98
1480.11
1247.96
1080.28
952.707
854.157
775.21
712.342
660.619
619.072
586.937
562.594
545.507
534.583
530.079
534.452
545.064
561.028
581.076
604.567
630.619
657.64
684.802
711.038
734.72
754.97
771.341
784.168
794.177
801.843
807.313
810.765
812.23
811.885
809.919
806.645
802.648
798.205
794.141
790.653
787.486
784.443
781.459
778.492
775.639
772.861
770.238
767.7
765.203
762.818
760.294
757.695
755.053
752.285
749.77
746.92
744.534
741.664
739.219
736.761
734.155
732.521
730.012
729.161
727.249
726.706
725.846
724.959
725.384
723.871
725.32
723.367
725.223
723.509
724.636
724.259
723.668
725.271
722.797
726
722.43
726.047
722.923
725.062
724.349
723.382
726.022
721.952
726.991
721.661
726.596
722.748
724.943
724.778
722.705
726.933
720.944
728.222
720.473
2345.25
1822.39
1493.86
1268.16
1113.23
994.178
912.591
852.025
814.502
787.873
783.654
800.128
829.073
866.045
907.628
950.237
990.285
1026.98
1058.27
1083.61
1103.44
1118.45
1129.08
1135.74
1137.46
1134.74
1127.99
1118.69
1108.64
1099.46
1091.81
1085.13
1079.04
1073.28
1067.83
1062.63
1057.74
1052.99
1048.39
1043.53
1038.49
1033.31
1028.21
1023.21
1018.44
1013.87
1009.53
1005.45
1001.51
997.885
994.361
991.2
988.054
985.253
982.272
979.702
976.876
974.465
971.892
969.676
967.602
965.496
964.122
962.191
961.404
959.768
959.301
958.271
957.678
957.535
956.471
957.227
955.748
957.061
955.542
956.678
955.919
955.964
956.684
955.259
957.335
954.878
957.542
955.06
957.059
955.939
955.969
957.13
954.88
957.991
954.358
958.138
954.658
957.413
955.791
955.964
957.433
954.331
959.167
953.015
2358.73
1860.91
1594.77
1434.02
1353.99
1289
1305.25
1337.3
1392.11
1465.15
1539.73
1610.28
1672.37
1723.07
1760.08
1783.38
1792.54
1788.85
1773.31
1750.18
1724.15
1700.71
1682.17
1666.52
1652.51
1639.48
1627.39
1615.94
1604.93
1593.83
1582.73
1571.92
1561.58
1551.73
1542.45
1533.71
1525.55
1517.92
1510.82
1504.16
1497.93
1491.98
1486.46
1481.26
1476.44
1471.83
1467.52
1463.43
1459.59
1456.08
1452.68
1449.73
1446.7
1444.12
1441.31
1439.06
1436.5
1434.55
1432.5
1430.86
1429.45
1427.98
1427.13
1425.72
1425.24
1423.87
1423.45
1422.44
1421.9
1421.51
1420.59
1421.07
1419.76
1420.83
1419.42
1420.53
1419.63
1419.95
1420.3
1419.34
1420.95
1418.95
1421.22
1419.05
1420.93
1419.69
1420.1
1420.67
1419.17
1421.46
1418.64
1421.71
1418.67
1421.38
1419.39
1420.34
1420.66
1419.08
1422.21
1417.84
2454.74
2305.68
2580.45
2808.66
2934.22
3010.02
2994.57
2967.45
3014.83
3085.64
3150.03
3196.61
3222.4
3229.88
3222.22
3203.95
3178.36
3148.8
3117.79
3086.34
3054.82
3023.05
2991.97
2961.67
2933.61
2907.2
2882.91
2860.48
2839.9
2820.97
2803.65
2787.83
2773.4
2760.22
2748.19
2737.2
2727.14
2717.95
2709.48
2701.74
2694.59
2688.01
2682
2676.28
2670.95
2665.78
2660.95
2656.34
2652.03
2648.16
2644.35
2641.04
2637.67
2634.73
2631.71
2629.11
2626.54
2624.36
2622.51
2620.83
2619.58
2618.34
2617.37
2616.36
2615.39
2614.45
2613.48
2612.64
2611.8
2611.16
2610.59
2610.42
2609.79
2610.08
2609.38
2609.87
2609.3
2609.72
2609.53
2609.55
2609.94
2609.3
2610.23
2609.29
2610.24
2609.46
2610.1
2609.75
2609.73
2610.25
2609.34
2610.52
2609.19
2610.61
2609.26
2610.47
2609.59
2610.11
2610.42
2609.89
6588.08
7481.92
7876.77
7935.99
7826.38
7629.93
7415.08
7222.08
7053.54
6914.35
6805.39
6723.41
6664.04
6621.62
6591.85
6570.23
6554.28
6541.58
6531.21
6522.47
6514.92
6508.91
6504.01
6500.33
6497.42
6495.1
6493.31
6491.84
6490.47
6489.03
6487.34
6485.47
6483.39
6481.22
6478.92
6476.61
6474.24
6471.93
6469.65
6467.48
6465.43
6463.51
6461.79
6460.13
6458.73
6457.27
6456.18
6454.97
6454.1
6453.21
6452.32
6451.88
6450.73
6450.98
6449.53
6450.64
6449.2
6450.89
6449.98
6451.01
6451.27
6450.28
6451.95
6448.74
6451.28
6447.37
6449.22
6446.87
6446.5
6447.16
6443.92
6447.82
6442.28
6448.03
6442.3
6446.91
6444.32
6444.3
6447.51
6441.46
6450
6440.17
6450.33
6441.37
6447.99
6444.92
6443.87
6449.24
6440.22
6451.89
6439.16
6451.53
6441.1
6448.44
6445.38
6443.53
6450.62
6438.96
6453.82
6436.65
5430.9
3394.68
2408.72
1951.47
1681.92
1498.29
1357.71
1252.6
1165.81
1096.7
1048.18
990.485
922.136
904.709
904.504
797.064
509.327
308.225
158.011
147.476
192.576
81.3476
275.945
441.589
502.182
505.151
483.462
453.467
422.047
388.683
350.905
309.146
267.624
230.68
200.16
175.675
156.322
141.475
130.45
122.458
116.648
112.303
108.931
106.256
104.146
102.549
101.434
100.75
100.395
100.209
100.032
99.7738
99.4381
99.0805
98.7535
98.4964
98.3233
98.2224
98.168
98.1413
98.1277
98.1218
98.1182
98.1171
98.1158
98.1159
98.115
98.1155
98.1147
98.1154
98.1146
98.1154
98.1145
98.1155
98.1145
98.1155
98.1144
98.1156
98.1144
98.1156
98.1143
98.1157
98.1142
98.1158
98.1142
98.1158
98.1141
98.1158
98.1141
98.1159
98.1139
98.1158
98.1137
98.1155
98.1132
98.1147
98.112
98.1128
98.1101
98.1131
1870.19
2682.3
2406.84
2016.48
1729.94
1526.02
1368.99
1255.62
1161.19
1088.26
1039.43
975.482
904.281
902.163
886.53
684.119
361.013
176.449
154.945
143.157
232.488
99.9366
161.853
362.846
460.377
482.081
468.582
442.135
412.056
377.983
337.215
291.338
246.884
209.552
180.887
159.47
143.588
132.034
123.819
118
113.753
110.484
107.83
105.612
103.773
102.318
101.259
100.58
100.206
100.009
99.844
99.6187
99.3256
99.0118
98.721
98.4805
98.3089
98.2047
98.1467
98.1169
98.1008
98.0934
98.0887
98.0872
98.0853
98.0855
98.0842
98.085
98.0839
98.085
98.0837
98.085
98.0835
98.0851
98.0834
98.0852
98.0833
98.0854
98.0831
98.0855
98.083
98.0857
98.0828
98.0858
98.0827
98.086
98.0825
98.0862
98.0823
98.0863
98.0821
98.0864
98.0819
98.0865
98.0815
98.0863
98.0809
98.0861
98.0812
98.0911
1239.43
1494.32
1854.85
1838.41
1667.68
1497.93
1349.62
1241.79
1146.62
1074.59
1026.21
954.552
886.466
903.187
821.293
483.563
202.877
133.825
166.762
174.524
271.702
185.722
96.0909
269.199
401.453
448.578
447.161
426.036
397.931
362.351
316.702
265.893
220.048
185.13
160.919
144.348
132.846
124.786
119.086
114.951
111.808
109.267
107.095
105.186
103.53
102.166
101.136
100.445
100.042
99.826
99.6717
99.4851
99.2401
98.9682
98.7067
98.4825
98.3143
98.2062
98.1423
98.1074
98.0874
98.0776
98.0711
98.0689
98.0663
98.0664
98.0647
98.0658
98.0641
98.0657
98.0639
98.0658
98.0637
98.066
98.0634
98.0662
98.0632
98.0664
98.063
98.0667
98.0627
98.0669
98.0625
98.0672
98.0622
98.0675
98.0619
98.0678
98.0615
98.0682
98.0612
98.0686
98.0609
98.0691
98.0607
98.0698
98.0611
98.0719
98.0646
98.0834
938.221
915.045
1087.89
1272.49
1313.58
1290.52
1229.45
1168.65
1096.95
1041.76
994.895
917.162
868.509
885.154
614.231
242.368
114.772
139.097
210.121
252.156
326.766
307.793
125.02
179.022
324.835
400.08
415.497
402.461
376.873
337.531
285.167
231.946
189.77
161.591
144.021
132.877
125.399
120.082
116.122
113.06
110.589
108.492
106.623
104.918
103.386
102.081
101.058
100.342
99.9031
99.6632
99.5159
99.3681
99.1741
98.9429
98.7073
98.5003
98.3404
98.2312
98.1613
98.1201
98.095
98.0817
98.0728
98.0693
98.0656
98.0656
98.0633
98.0646
98.0625
98.0645
98.0621
98.0646
98.0618
98.0648
98.0615
98.0651
98.0612
98.0654
98.0608
98.0658
98.0605
98.0661
98.0601
98.0666
98.0597
98.067
98.0592
98.0675
98.0587
98.068
98.0583
98.0687
98.0579
98.0697
98.058
98.0714
98.0596
98.0761
98.0667
98.0948
721.016
707.016
734.495
784.851
805.254
829.972
888.222
928.643
939.739
945.708
900.902
834.929
842.666
681.643
257.444
108.867
123.418
181.998
286.75
354.429
408.231
427.016
255.306
139.514
239.044
332.833
367.226
365.759
341.862
296.353
241.108
194.067
162.524
143.794
132.824
125.952
121.155
117.466
114.471
111.978
109.863
108.011
106.327
104.76
103.317
102.052
101.026
100.276
99.7933
99.5202
99.3681
99.2482
99.1
98.9117
98.7109
98.5304
98.3847
98.2779
98.2032
98.1554
98.1243
98.1067
98.0947
98.0895
98.0845
98.084
98.0811
98.0824
98.0799
98.0821
98.0793
98.0823
98.0789
98.0826
98.0786
98.0829
98.0782
98.0833
98.0778
98.0837
98.0774
98.0841
98.0769
98.0846
98.0764
98.0852
98.0758
98.0858
98.0753
98.0865
98.0747
98.0874
98.0744
98.0887
98.0747
98.0913
98.0774
98.0983
98.0876
98.1233
585.596
572.38
589.036
585.024
568.225
545.004
546.71
557.587
617.481
667.921
648.518
638.928
604.924
196.335
61.295
122.332
175.638
253.108
389.308
472.668
510.421
533.19
417.922
220.181
178.121
248.023
296.763
307.202
283.406
238.034
193.74
163.044
144.813
134.116
127.435
122.83
119.277
116.292
113.692
111.428
109.46
107.728
106.153
104.682
103.31
102.078
101.046
100.259
99.7233
99.4023
99.225
99.1125
99.0012
98.8624
98.7071
98.5603
98.4333
98.3321
98.2558
98.2034
98.1674
98.1458
98.1308
98.1238
98.1175
98.1164
98.113
98.1142
98.1114
98.1137
98.1107
98.1138
98.1103
98.1141
98.1099
98.1145
98.1095
98.1149
98.109
98.1153
98.1086
98.1158
98.1081
98.1163
98.1075
98.1169
98.1069
98.1176
98.1064
98.1183
98.1058
98.1192
98.1055
98.1207
98.1061
98.1238
98.1094
98.132
98.1214
98.1606
490.12
469.755
493.493
475.003
459.96
443.122
411.237
389.488
407.756
315.744
401.38
236.395
52.4412
31.6754
141.572
176.72
240.213
361.066
508.501
596.477
613.308
618.583
554.1
385.045
231.014
196.764
222.736
232.564
213.327
184.643
162.791
149.059
139.68
132.549
127.017
122.697
119.187
116.189
113.564
111.276
109.302
107.59
106.065
104.659
103.344
102.145
101.111
100.287
99.694
99.3112
99.088
98.9611
98.8717
98.7791
98.6708
98.5576
98.4504
98.3592
98.2867
98.235
98.1983
98.1757
98.1598
98.1519
98.145
98.1435
98.1398
98.1409
98.138
98.1403
98.1373
98.1404
98.1368
98.1406
98.1364
98.141
98.136
98.1414
98.1356
98.1418
98.1351
98.1423
98.1347
98.1428
98.1341
98.1433
98.1336
98.144
98.133
98.1447
98.1326
98.1455
98.1323
98.147
98.1329
98.15
98.1363
98.1581
98.1483
98.1867
389.288
375.612
397.702
364.993
373.962
335.904
296.749
317.327
239.943
248.528
208.987
126.718
114.6
176.425
191.985
222.827
334.521
498.05
636.95
703.628
702.11
684.486
640.729
530.653
382.782
270.978
220.535
197.583
181.91
172.206
165.654
158.214
149.16
140.028
132.204
126.054
121.278
117.454
114.3
111.672
109.49
107.668
106.109
104.719
103.442
102.269
101.232
100.373
99.7206
99.2698
98.9883
98.8277
98.7365
98.6685
98.5944
98.5103
98.4251
98.3501
98.2894
98.2455
98.2139
98.1943
98.1802
98.1734
98.1672
98.166
98.1626
98.1637
98.1609
98.1632
98.1602
98.1633
98.1598
98.1636
98.1594
98.1639
98.159
98.1643
98.1586
98.1647
98.1582
98.1652
98.1577
98.1657
98.1572
98.1663
98.1566
98.1669
98.1561
98.1675
98.1556
98.1684
98.1553
98.1697
98.1558
98.1724
98.1588
98.1797
98.1698
98.206
254.359
256.725
242.872
249.548
230.038
207.037
199.024
150.487
157.289
141.866
105.431
115.742
131.221
166.109
228.109
326.583
488.693
655.504
758.32
789.327
772.72
741.124
698.5
622.608
514.443
408.544
331.819
284.836
256.55
237.285
219.836
200.91
181.12
162.867
147.909
136.552
128.169
121.934
117.191
113.523
110.672
108.439
106.644
105.135
103.803
102.597
101.516
100.595
99.8654
99.336
98.9856
98.7748
98.6571
98.5867
98.5277
98.4659
98.4036
98.3497
98.3068
98.2771
98.2559
98.2435
98.234
98.2301
98.2255
98.2254
98.2224
98.2241
98.2212
98.2239
98.2206
98.2241
98.2201
98.2245
98.2197
98.2249
98.2192
98.2254
98.2187
98.226
98.2181
98.2266
98.2175
98.2272
98.2168
98.2279
98.2161
98.2287
98.2154
98.2296
98.2147
98.2306
98.2142
98.2321
98.2144
98.2349
98.2169
98.2419
98.2275
98.2668
147.935
128.81
133.481
138.139
109.346
146.647
95.4877
128.951
130.565
102.671
168.718
165.736
209.965
308.053
377.706
493.491
661.478
801.14
856.159
856.401
832.098
796.083
752.992
689.917
606.005
521.664
453.839
406.219
371.615
341.052
309.659
276.627
243.376
212.441
185.973
164.795
148.579
136.449
127.452
120.815
115.952
112.369
109.649
107.473
105.634
104.017
102.594
101.389
100.432
99.728
99.2494
98.9486
98.7725
98.6731
98.6112
98.5654
98.5282
98.5011
98.4819
98.4712
98.4637
98.4616
98.4584
98.4594
98.4568
98.4593
98.456
98.4598
98.4554
98.4604
98.4547
98.4611
98.4539
98.4619
98.4529
98.4629
98.4519
98.4641
98.4507
98.4654
98.4493
98.4668
98.4478
98.4684
98.4461
98.4702
98.4443
98.4721
98.4424
98.4743
98.4404
98.477
98.4386
98.4804
98.4381
98.486
98.4417
98.4986
98.4593
98.536
166.782
119.174
175.076
125.608
174.996
165.796
170.199
225.478
187.018
256.814
264.092
282.374
388.937
437.423
491.898
646.527
827.929
926.883
926.152
899.501
874.653
844.864
807.48
750.787
678.336
606.671
546.04
498.502
460.315
424.947
388.142
350.452
313.582
278.828
247.271
219.461
195.639
175.801
159.764
147.233
137.715
130.462
124.673
119.739
115.333
111.364
107.938
105.171
103.096
101.638
100.669
100.06
99.7038
99.517
99.4368
99.4197
99.4349
99.4672
99.501
99.534
99.5567
99.5774
99.5862
99.5988
99.5978
99.6084
99.6006
99.6134
99.5999
99.6166
99.5979
99.6195
99.5952
99.6228
99.5916
99.6267
99.5875
99.6312
99.5826
99.6366
99.5765
99.6433
99.5694
99.6509
99.5614
99.6593
99.5529
99.6684
99.5439
99.679
99.534
99.6921
99.5252
99.7088
99.5221
99.7356
99.5365
99.7939
99.6096
99.943
264.554
291.979
283.909
278.071
319.74
292.494
350.278
338.615
358.265
401.882
385.848
455.671
515.21
525.861
640.377
845.108
1002.48
1014.12
944.846
900.761
884.569
872.629
850.152
803.934
739.318
674.874
618.87
571.526
529.616
490.213
451.113
412.039
374.528
340.049
308.933
280.911
255.666
233.442
214.607
198.984
185.968
174.922
165.164
155.979
146.807
137.616
128.908
121.408
115.583
111.397
108.557
106.754
105.724
105.271
105.215
105.398
105.686
105.997
106.267
106.488
106.638
106.753
106.811
106.869
106.874
106.917
106.889
106.941
106.886
106.955
106.877
106.967
106.867
106.98
106.852
106.996
106.835
107.015
106.814
107.039
106.786
107.071
106.751
107.11
106.71
107.153
106.666
107.201
106.619
107.256
106.568
107.323
106.523
107.409
106.509
107.546
106.589
107.845
106.961
108.6
389.34
417.851
392.234
419.416
418.588
426.47
458.078
440.234
479.937
486.338
491.414
566.579
580.553
624.55
825.821
1050.13
1130.1
1026.82
907.379
860.824
859.692
870.354
868.818
839.872
787.444
730.312
677.338
628.77
582.694
538.911
498.04
459.135
422.517
389.372
359.78
333.116
308.763
286.856
267.785
251.368
236.827
223.672
211.922
201.656
192.496
183.596
174.343
164.989
156.312
148.992
143.439
139.76
137.848
137.437
138.063
139.237
140.546
141.781
142.773
143.533
144.033
144.398
144.583
144.758
144.778
144.902
144.822
144.973
144.81
145.019
144.784
145.053
144.755
145.087
144.718
145.128
144.675
145.175
144.622
145.238
144.545
145.33
144.44
145.447
144.315
145.582
144.174
145.737
144.017
145.92
143.847
146.141
143.694
146.426
143.627
146.875
143.869
147.783
145.072
150.067
484.944
495.29
483.251
505.134
499.212
520.497
531.138
531.585
566.661
558.511
597.628
655.99
658.801
803.571
1081.32
1255.58
1178.57
972.434
842.256
810.703
821.278
844.466
858.573
847.295
810.298
761.71
711.257
660.009
609.283
561.981
519.647
482.261
449.33
420.504
395.311
372.864
352.394
333.523
316.088
300.078
285.33
271.585
259.213
249.148
242.213
238.156
235.557
233.128
230.543
228.087
226.215
225.381
225.828
227.447
229.741
232.165
234.342
236.16
237.519
238.509
239.129
239.568
239.781
239.976
240.002
240.13
240.051
240.206
240.034
240.26
239.998
240.303
239.964
240.338
239.928
240.377
239.887
240.42
239.84
240.475
239.774
240.558
239.672
240.678
239.538
240.829
239.375
241.018
239.175
241.266
238.93
241.611
238.662
242.103
238.477
242.894
238.718
244.418
240.443
248.035
588.607
588.89
588.318
601.976
600.258
627.793
626.49
648.461
667.927
667.691
733.47
758.806
822.378
1089.62
1369.96
1384.81
1128.4
891.96
797.855
781.802
791.598
811.623
827.604
825.257
799.962
757.435
706.992
653.979
603.383
559.094
521.508
490.033
463.89
441.712
422.524
405.563
390.324
376.5
364.02
352.92
343.003
333.74
324.698
316.493
311.044
310.079
313.12
318.151
323.456
328.28
332.47
336.139
339.469
342.543
345.239
347.447
349.167
350.45
351.343
351.943
352.309
352.543
352.664
352.749
352.781
352.813
352.813
352.838
352.813
352.858
352.798
352.877
352.783
352.891
352.773
352.9
352.763
352.91
352.754
352.917
352.747
352.928
352.73
352.957
352.69
353.015
352.62
353.117
352.499
353.308
352.291
353.667
351.981
354.275
351.68
355.311
351.703
357.35
353.227
361.772
728.312
723.513
730.679
738.31
746.959
774.024
775.148
812.905
815.441
848.661
909.457
930.911
1121.52
1464.67
1626.48
1385.46
1030.07
846.14
794.117
785.147
784.614
790.402
796.229
791.274
769.12
730.417
683.217
636.053
594.903
562.129
536.116
515.037
497.743
482.973
470.12
458.958
449.484
441.682
435.526
430.897
427.514
425.04
423.285
422.366
422.524
423.977
427.189
432.182
438.075
443.837
448.924
453.228
456.834
459.808
462.191
464.048
465.478
466.531
467.268
467.74
468.035
468.204
468.305
468.353
468.392
468.392
468.423
468.398
468.434
468.399
468.435
468.403
468.432
468.405
468.433
468.403
468.436
468.401
468.439
468.395
468.448
468.385
468.459
468.382
468.454
468.404
468.423
468.47
468.34
468.638
468.16
469.007
467.832
469.737
467.419
471.142
467.227
474.001
468.799
479.997
960.824
955.355
966.867
973.465
995.058
1021.82
1036.7
1079.05
1077.35
1144.87
1173.15
1254.25
1588.14
1896.51
1767.75
1299.21
975.59
862.779
844.663
837.564
821.809
806.804
795.637
780.374
755.452
720.839
683.428
650.921
627.999
614.485
605.892
598.907
592.434
586.289
580.771
576.529
574.201
573.965
575.642
578.831
582.996
587.779
592.955
598.309
603.757
609.245
614.574
619.376
623.454
626.951
630.169
633.325
636.449
639.398
641.968
644.052
645.675
646.881
647.72
648.259
648.589
648.782
648.889
648.952
648.982
649.004
649.009
649.021
649.013
649.029
649.008
649.038
649.001
649.045
648.996
649.049
648.993
649.053
648.989
649.057
648.986
649.062
648.978
649.078
648.955
649.118
648.907
649.203
648.813
649.387
648.64
649.774
648.337