/*--------------------------------*- C++ -*----------------------------------*\
| =========                 |                                                 |
| \\      /  F ield         | OpenFOAM: The Open Source CFD Toolbox           |
|  \\    /   O peration     | Version:  v2012                                 |
|   \\  /    A nd           | Website:  www.openfoam.com                      |
|    \\/     M anipulation  |                                                 |
\*---------------------------------------------------------------------------*/
FoamFile
{
    version     2.0;
    format      ascii;
    class       volScalarField;
    location    "0.119";
    object      p;
}
// * * * * * * * * * * * * * * * * * * * * * * * * * * * * * * * * * * * * * //

dimensions      [0 2 -2 0 0 0 0];


internalField   nonuniform List<scalar> 
5600
(
-1.01993
-1.47806
-1.85844
-2.17702
-2.48793
-2.7982
-3.09949
-3.3812
-3.64432
-3.89445
-4.13102
-4.3557
-4.57016
-4.77642
-4.97667
-5.17245
-5.36485
-5.55449
-5.74169
-5.92662
-6.10943
-6.28976
-6.46747
-6.64383
-6.81853
-6.99229
-7.16429
-7.33579
-7.50631
-7.67668
-7.84642
-8.01535
-8.18349
-8.35137
-8.51853
-8.68526
-8.85112
-9.01671
-9.1815
-9.34577
-9.50967
-9.67227
-9.8355
-9.99561
-10.1582
-10.3179
-10.4791
-10.6388
-10.7977
-10.9578
-11.1136
-11.2741
-11.4287
-11.5885
-11.7442
-11.9
-12.057
-12.2097
-12.3671
-12.5176
-12.6755
-12.8269
-12.9825
-13.136
-13.289
-13.4455
-13.5936
-13.751
-13.8971
-14.0521
-14.199
-14.3488
-14.5004
-14.6436
-14.7989
-14.9386
-15.0937
-15.2358
-15.3857
-15.535
-15.677
-15.8322
-15.9724
-16.1257
-16.2695
-16.4182
-16.5688
-16.7112
-16.8654
-17.0064
-17.1596
-17.3059
-17.4516
-17.6036
-17.7482
-17.9015
-18.0445
-18.2011
-18.3489
-18.5381
-1.07896
-1.49825
-1.87505
-2.19484
-2.50592
-2.81653
-3.11775
-3.39971
-3.6632
-3.91337
-4.15017
-4.37514
-4.58994
-4.79657
-4.99718
-5.19328
-5.38597
-5.57586
-5.76322
-5.94823
-6.13124
-6.31169
-6.48945
-6.66593
-6.84076
-7.01465
-7.18674
-7.35833
-7.52895
-7.69941
-7.86924
-8.03823
-8.2064
-8.37429
-8.54151
-8.70826
-8.87418
-9.03977
-9.20461
-9.36888
-9.53286
-9.69545
-9.85876
-10.0188
-10.1815
-10.3412
-10.5024
-10.6621
-10.8209
-10.9812
-11.1369
-11.2975
-11.452
-11.6117
-11.7677
-11.9231
-12.0805
-12.2328
-12.3904
-12.5408
-12.6986
-12.8504
-13.0055
-13.1596
-13.312
-13.4691
-13.6169
-13.7742
-13.9206
-14.0749
-14.2228
-14.3716
-14.5241
-14.6666
-14.8221
-14.9621
-15.1162
-15.2599
-15.4082
-15.5587
-15.7001
-15.8553
-15.9961
-16.1481
-16.2937
-16.4409
-16.5922
-16.7348
-16.8878
-17.0308
-17.1817
-17.3303
-17.4744
-17.6271
-17.772
-17.9236
-18.0685
-18.2253
-18.3685
-18.5597
-1.11721
-1.51087
-1.88779
-2.20821
-2.51713
-2.82524
-3.12537
-3.40694
-3.67017
-3.92004
-4.15656
-4.38162
-4.59645
-4.80306
-5.00369
-5.19981
-5.39253
-5.58242
-5.76979
-5.95482
-6.13783
-6.3183
-6.49626
-6.67274
-6.84753
-7.02136
-7.19341
-7.36498
-7.5355
-7.70594
-7.87566
-8.0446
-8.21285
-8.38073
-8.54793
-8.71466
-8.88057
-9.04611
-9.21093
-9.37514
-9.53908
-9.7016
-9.86483
-10.0248
-10.1874
-10.3472
-10.5083
-10.6681
-10.8268
-10.9872
-11.1429
-11.3033
-11.458
-11.6176
-11.7738
-11.9292
-12.0866
-12.2391
-12.3967
-12.5472
-12.7049
-12.8568
-13.0117
-13.1658
-13.3182
-13.4752
-13.6231
-13.7804
-13.9271
-14.0812
-14.2294
-14.3781
-14.5307
-14.6734
-14.8287
-14.9692
-15.1227
-15.2669
-15.4148
-15.5656
-15.7069
-15.8619
-16.0031
-16.1546
-16.3005
-16.4474
-16.5989
-16.7415
-16.8942
-17.0377
-17.188
-17.3372
-17.4805
-17.6336
-17.7786
-17.9297
-18.0756
-18.2319
-18.3748
-18.5678
-1.16593
-1.52736
-1.90317
-2.22507
-2.53269
-2.83988
-3.14037
-3.42258
-3.68643
-3.93664
-4.17371
-4.3988
-4.61409
-4.82092
-5.02158
-5.21766
-5.4102
-5.59986
-5.78693
-5.97163
-6.1545
-6.33487
-6.51287
-6.68941
-6.86435
-7.03843
-7.21088
-7.38278
-7.55354
-7.72419
-7.89408
-8.06318
-8.23145
-8.39939
-8.56666
-8.73347
-8.89948
-9.0651
-9.23004
-9.39437
-9.55844
-9.72114
-9.88453
-10.0448
-10.2075
-10.3674
-10.5283
-10.6884
-10.847
-11.0075
-11.1633
-11.3238
-11.4787
-11.6379
-11.7945
-11.9494
-12.1073
-12.2594
-12.4167
-12.5676
-12.7247
-12.8774
-13.0315
-13.1866
-13.3384
-13.4958
-13.6439
-13.8003
-13.9481
-14.1008
-14.2502
-14.3977
-14.5507
-14.6935
-14.8478
-14.9898
-15.1415
-15.2876
-15.4338
-15.5853
-15.7271
-15.8807
-16.024
-16.1732
-16.3212
-16.4671
-16.6181
-16.7625
-16.9128
-17.059
-17.207
-17.3574
-17.5017
-17.652
-17.8009
-17.9477
-18.0975
-18.2497
-18.3951
-18.5784
-1.21555
-1.54449
-1.91891
-2.24326
-2.54929
-2.85564
-3.15583
-3.43785
-3.70173
-3.95174
-4.18904
-4.41388
-4.62937
-4.83643
-5.03729
-5.23354
-5.42626
-5.61605
-5.80327
-5.98806
-6.1709
-6.35129
-6.52928
-6.70565
-6.88047
-7.05429
-7.2266
-7.39825
-7.56882
-7.73935
-7.90914
-8.07825
-8.24656
-8.41459
-8.58187
-8.74871
-8.91472
-9.08033
-9.24524
-9.40954
-9.57351
-9.73615
-9.8993
-10.0597
-10.2221
-10.3822
-10.5428
-10.7031
-10.8615
-11.0218
-11.1778
-11.3378
-11.4934
-11.6517
-11.8089
-11.9635
-12.1214
-12.2739
-12.431
-12.5825
-12.7389
-12.8921
-13.0458
-13.201
-13.3529
-13.5098
-13.6587
-13.8145
-13.9633
-14.1151
-14.2656
-14.4129
-14.5659
-14.7094
-14.8624
-15.0063
-15.1562
-15.3038
-15.4493
-15.6008
-15.7432
-15.8953
-16.0405
-16.1881
-16.337
-16.4827
-16.6332
-16.7785
-16.9276
-17.075
-17.2221
-17.3728
-17.5169
-17.6666
-17.8163
-17.9628
-18.1121
-18.2655
-18.4097
-18.591
-1.26558
-1.56381
-1.9362
-2.26352
-2.56791
-2.8733
-3.17311
-3.45515
-3.71927
-3.96946
-4.20701
-4.43219
-4.64796
-4.85528
-5.05635
-5.25272
-5.44553
-5.63533
-5.8226
-6.00743
-6.19008
-6.37045
-6.54852
-6.72492
-6.89983
-7.07364
-7.24606
-7.41769
-7.58836
-7.75869
-7.92856
-8.09755
-8.26589
-8.43373
-8.60099
-8.76765
-8.93365
-9.09914
-9.264
-9.42834
-9.59219
-9.75524
-9.9182
-10.079
-10.2411
-10.4017
-10.562
-10.7225
-10.881
-11.0412
-11.1979
-11.3572
-11.5136
-11.6712
-11.829
-11.9835
-12.1411
-12.2942
-12.4503
-12.6031
-12.7583
-12.9126
-13.0655
-13.2214
-13.3733
-13.5296
-13.6801
-13.8339
-13.9847
-14.1348
-14.2861
-14.4332
-14.5851
-14.7306
-14.8808
-15.0276
-15.1749
-15.3243
-15.4691
-15.6197
-15.7646
-15.9133
-16.0618
-16.2072
-16.3571
-16.5033
-16.6518
-16.7998
-16.9463
-17.0958
-17.2421
-17.3921
-17.5383
-17.6854
-17.8374
-17.9827
-18.1322
-18.2841
-18.4305
-18.6055
-1.31499
-1.58563
-1.95527
-2.28581
-2.58873
-2.8931
-3.19261
-3.47472
-3.73903
-3.98933
-4.227
-4.45242
-4.66827
-4.87575
-5.07695
-5.27341
-5.46629
-5.65613
-5.84344
-6.02826
-6.21092
-6.39131
-6.56946
-6.74588
-6.92084
-7.09462
-7.26711
-7.4387
-7.60952
-7.7797
-7.94964
-8.11857
-8.28703
-8.45475
-8.62213
-8.78866
-8.95476
-9.12016
-9.28496
-9.44941
-9.61296
-9.77639
-9.93879
-10.1002
-10.2615
-10.4225
-10.5824
-10.7428
-10.9017
-11.061
-11.2191
-11.3768
-11.5343
-11.6911
-11.8491
-12.004
-12.1609
-12.3155
-12.4699
-12.6243
-12.7779
-12.9331
-13.0857
-13.2413
-13.3945
-13.5489
-13.702
-13.8533
-14.006
-14.1548
-14.3068
-14.4546
-14.6048
-14.7532
-14.9003
-15.0501
-15.1952
-15.3455
-15.491
-15.6395
-15.7874
-15.9329
-16.0838
-16.2282
-16.3776
-16.5252
-16.672
-16.8216
-16.9669
-17.1171
-17.2634
-17.4124
-17.56
-17.7063
-17.8578
-18.004
-18.1526
-18.3043
-18.4513
-18.6213
-1.36197
-1.61011
-1.9767
-2.31027
-2.61198
-2.91536
-3.21466
-3.49684
-3.76127
-4.01166
-4.24943
-4.47507
-4.691
-4.89867
-5.10002
-5.2966
-5.48956
-5.67946
-5.86678
-6.05164
-6.23431
-6.41467
-6.59285
-6.76928
-6.94427
-7.11803
-7.29056
-7.46215
-7.63302
-7.8032
-7.97311
-8.14205
-8.31053
-8.47824
-8.64565
-8.81215
-8.97829
-9.14366
-9.30848
-9.47301
-9.63643
-9.80003
-9.96201
-10.124
-10.2847
-10.4461
-10.6059
-10.766
-10.9256
-11.0838
-11.2433
-11.3998
-11.5579
-11.7145
-11.8721
-12.0279
-12.1835
-12.3396
-12.4923
-12.6481
-12.8005
-12.9562
-13.109
-13.2638
-13.4187
-13.5709
-13.7267
-13.8757
-14.03
-14.1787
-14.3304
-14.4796
-14.6271
-14.7783
-14.9225
-15.0744
-15.219
-15.3686
-15.5157
-15.6617
-15.8122
-15.9557
-16.1074
-16.2525
-16.4005
-16.5491
-16.6952
-16.8453
-16.9906
-17.1404
-17.2875
-17.4353
-17.5838
-17.7306
-17.8804
-18.028
-18.1761
-18.3269
-18.4743
-18.6388
-1.40495
-1.63718
-2.00104
-2.33705
-2.63788
-2.94043
-3.23961
-3.5218
-3.78631
-4.03679
-4.27465
-4.50046
-4.71647
-4.92428
-5.12574
-5.32239
-5.51539
-5.70532
-5.89264
-6.07753
-6.26017
-6.4405
-6.6187
-6.79516
-6.97018
-7.14393
-7.31648
-7.48808
-7.65899
-7.82921
-7.99904
-8.16802
-8.33648
-8.50423
-8.67159
-8.83813
-9.00424
-9.16963
-9.33445
-9.49895
-9.66241
-9.82593
-9.98795
-10.15
-10.3107
-10.4721
-10.632
-10.7919
-10.9517
-11.1096
-11.2695
-11.4257
-11.584
-11.7406
-11.8978
-12.0541
-12.2091
-12.3658
-12.5181
-12.6743
-12.8263
-12.9821
-13.1351
-13.289
-13.445
-13.596
-13.7528
-13.9015
-14.0555
-14.2052
-14.3552
-14.5062
-14.6524
-14.8044
-14.9486
-15.1001
-15.2458
-15.3939
-15.5422
-15.6874
-15.8381
-15.9823
-16.1326
-16.2792
-16.4263
-16.575
-16.7216
-16.871
-17.017
-17.166
-17.314
-17.4611
-17.6096
-17.7571
-17.9058
-18.054
-18.2018
-18.352
-18.499
-18.6583
-1.44213
-1.66637
-2.0289
-2.36632
-2.66662
-2.96873
-3.26787
-3.55002
-3.81457
-4.06514
-4.30304
-4.52894
-4.74498
-4.95287
-5.15439
-5.35109
-5.54412
-5.73408
-5.92141
-6.10633
-6.28895
-6.46925
-6.64746
-6.82395
-6.99898
-7.17272
-7.34527
-7.51688
-7.68782
-7.85808
-8.02783
-8.19684
-8.36529
-8.53308
-8.70039
-8.86698
-9.03304
-9.19848
-9.36328
-9.52778
-9.6913
-9.85467
-10.0168
-10.1788
-10.3397
-10.5008
-10.6609
-10.8207
-10.9805
-11.1387
-11.298
-11.4547
-11.6128
-11.7695
-11.9265
-12.083
-12.238
-12.3944
-12.5473
-12.7028
-12.8555
-13.0107
-13.1642
-13.3178
-13.4738
-13.6251
-13.7811
-13.9313
-14.0836
-14.2348
-14.3836
-14.535
-14.6817
-14.8324
-14.9785
-15.1283
-15.2752
-15.4224
-15.5709
-15.7168
-15.8663
-16.0121
-16.1608
-16.3083
-16.4553
-16.6036
-16.7508
-16.8995
-17.0462
-17.1946
-17.343
-17.49
-17.6384
-17.7862
-17.9345
-18.0828
-18.2303
-18.3797
-18.5261
-18.6802
-1.46948
-1.69566
-2.05933
-2.39667
-2.69685
-2.99911
-3.29833
-3.58035
-3.84489
-4.09553
-4.33341
-4.55931
-4.77533
-4.9832
-5.18473
-5.38145
-5.57447
-5.76444
-5.95176
-6.13672
-6.31931
-6.49956
-6.67776
-6.85426
-7.0293
-7.20302
-7.37557
-7.54717
-7.71816
-7.88842
-8.05812
-8.22715
-8.39559
-8.56341
-8.73069
-8.89731
-9.06335
-9.22881
-9.39359
-9.5581
-9.72167
-9.88491
-10.0472
-10.209
-10.3701
-10.5311
-10.6912
-10.8511
-11.0107
-11.1691
-11.3281
-11.4852
-11.643
-11.8
-11.9569
-12.1132
-12.2684
-12.4244
-12.5779
-12.7328
-12.8861
-13.0408
-13.1947
-13.3482
-13.5038
-13.6559
-13.8108
-13.962
-14.1137
-14.2653
-14.4139
-14.5651
-14.7124
-14.8622
-15.0093
-15.1581
-15.3056
-15.4527
-15.6011
-15.7475
-15.8961
-16.0429
-16.1908
-16.3386
-16.4857
-16.6337
-16.7814
-16.9296
-17.0768
-17.2248
-17.3731
-17.5205
-17.6685
-17.8167
-17.9647
-18.1129
-18.2602
-18.4087
-18.5544
-18.7033
-1.48427
-1.72231
-2.08939
-2.42513
-2.72563
-3.02864
-3.32804
-3.60985
-3.87436
-4.12503
-4.36282
-4.58862
-4.80456
-5.01235
-5.21383
-5.41051
-5.60351
-5.79347
-5.98076
-6.16575
-6.3483
-6.5285
-6.70668
-6.88319
-7.05824
-7.23194
-7.40449
-7.57606
-7.7471
-7.91737
-8.08703
-8.25606
-8.42451
-8.59234
-8.75961
-8.92624
-9.09227
-9.25773
-9.42249
-9.58701
-9.75061
-9.91377
-10.0761
-10.2379
-10.399
-10.56
-10.7202
-10.88
-11.0396
-11.1981
-11.3569
-11.5143
-11.6719
-11.8289
-11.9858
-12.1421
-12.2974
-12.4531
-12.607
-12.7615
-12.9151
-13.0696
-13.2234
-13.3772
-13.5322
-13.6852
-13.8393
-13.9911
-14.1428
-14.294
-14.4433
-14.5935
-14.7416
-14.8908
-15.0384
-15.1869
-15.3343
-15.4819
-15.6296
-15.7767
-15.9246
-16.072
-16.2195
-16.3675
-16.5147
-16.6623
-16.8105
-16.9581
-17.106
-17.2534
-17.402
-17.5494
-17.6972
-17.8457
-17.9932
-18.1419
-18.2885
-18.4367
-18.5811
-18.7255
-1.48798
-1.74587
-2.11743
-2.45048
-2.75169
-3.05581
-3.35546
-3.637
-3.90145
-4.15215
-4.3898
-4.61544
-4.83126
-5.0389
-5.24027
-5.43689
-5.62986
-5.8198
-6.00705
-6.19208
-6.3746
-6.55473
-6.73288
-6.90939
-7.08443
-7.2581
-7.43063
-7.60216
-7.77326
-7.94352
-8.11315
-8.28218
-8.45063
-8.61847
-8.78573
-8.95237
-9.1184
-9.28387
-9.44863
-9.61318
-9.77679
-9.93989
-10.1023
-10.264
-10.4252
-10.5861
-10.7463
-10.9061
-11.0656
-11.2243
-11.3828
-11.5404
-11.698
-11.8552
-12.0119
-12.1682
-12.3236
-12.4791
-12.6333
-12.7875
-12.9415
-13.0958
-13.2497
-13.4038
-13.5582
-13.7118
-13.8653
-14.0175
-14.1692
-14.3199
-14.4698
-14.6193
-14.7679
-14.9166
-15.0647
-15.2127
-15.3604
-15.5078
-15.6556
-15.8028
-15.9504
-16.0982
-16.2453
-16.3937
-16.5405
-16.6886
-16.8365
-16.984
-17.1323
-17.2792
-17.4283
-17.5752
-17.7236
-17.8715
-18.0192
-18.168
-18.3139
-18.4623
-18.605
-18.7464
-1.48291
-1.7672
-2.1434
-2.47313
-2.77539
-3.0808
-3.38073
-3.66192
-3.92629
-4.17701
-4.41449
-4.63994
-4.85563
-5.0631
-5.26433
-5.46086
-5.65376
-5.84368
-6.03088
-6.21596
-6.39844
-6.57852
-6.75663
-6.93314
-7.10817
-7.28182
-7.45432
-7.62581
-7.79696
-7.9672
-8.13681
-8.30583
-8.47429
-8.64211
-8.80938
-8.976
-9.14203
-9.30742
-9.47224
-9.63681
-9.8004
-9.96349
-10.1259
-10.2876
-10.4489
-10.6097
-10.7701
-10.9298
-11.0894
-11.2481
-11.4066
-11.5643
-11.7219
-11.8792
-12.0358
-12.1923
-12.3476
-12.5031
-12.6575
-12.8115
-12.9658
-13.1198
-13.274
-13.428
-13.5822
-13.7357
-13.889
-14.0412
-14.1929
-14.3435
-14.4934
-14.643
-14.7915
-14.9401
-15.0883
-15.236
-15.3841
-15.5312
-15.6793
-15.8263
-15.9741
-16.1217
-16.2689
-16.4173
-16.5639
-16.7124
-16.8597
-17.0079
-17.1557
-17.3029
-17.4519
-17.5986
-17.7474
-17.8948
-18.0431
-18.1911
-18.3375
-18.4851
-18.6268
-18.7659
-1.47158
-1.78666
-2.16703
-2.49336
-2.79693
-3.10369
-3.40402
-3.68485
-3.94914
-4.19982
-4.43711
-4.66227
-4.87779
-5.08507
-5.28616
-5.48258
-5.67538
-5.86527
-6.05241
-6.23752
-6.41993
-6.59994
-6.778
-6.95451
-7.12951
-7.30317
-7.47558
-7.64711
-7.81829
-7.98849
-8.15808
-8.3271
-8.49559
-8.66343
-8.83072
-8.99736
-9.16343
-9.32884
-9.49379
-9.65832
-9.82192
-9.98508
-10.1475
-10.3094
-10.4707
-10.6315
-10.792
-10.9517
-11.1114
-11.2701
-11.4285
-11.5862
-11.7437
-11.901
-12.0575
-12.2141
-12.3693
-12.5249
-12.6793
-12.8333
-12.9876
-13.1414
-13.2958
-13.4495
-13.6039
-13.7573
-13.9105
-14.0626
-14.2142
-14.3649
-14.5146
-14.6642
-14.8126
-14.9613
-15.1093
-15.2572
-15.4052
-15.5523
-15.7005
-15.8472
-15.9954
-16.1426
-16.2902
-16.4383
-16.5851
-16.7336
-16.8807
-17.0292
-17.1765
-17.3243
-17.4728
-17.6199
-17.7685
-17.9158
-18.0644
-18.2118
-18.3588
-18.5055
-18.6471
-18.7837
-1.45604
-1.80464
-2.18826
-2.51153
-2.81648
-3.12446
-3.42528
-3.70577
-3.97005
-4.22068
-4.45785
-4.68275
-4.89799
-5.10505
-5.30605
-5.50235
-5.69513
-5.88493
-6.07215
-6.25729
-6.43967
-6.6196
-6.79757
-6.97404
-7.14898
-7.32261
-7.49497
-7.66661
-7.83777
-8.00801
-8.17763
-8.34669
-8.51528
-8.68324
-8.85062
-9.01736
-9.18351
-9.34902
-9.51398
-9.67842
-9.84198
-10.0051
-10.1676
-10.3294
-10.4907
-10.6515
-10.8119
-10.9716
-11.1313
-11.2899
-11.4484
-11.6062
-11.7637
-11.921
-12.0774
-12.234
-12.3892
-12.5449
-12.6992
-12.8533
-13.0076
-13.1614
-13.3157
-13.4693
-13.6237
-13.7769
-13.9302
-14.0822
-14.2338
-14.3845
-14.5341
-14.6838
-14.8321
-14.981
-15.129
-15.277
-15.4249
-15.5721
-15.7202
-15.8669
-16.0153
-16.1622
-16.3102
-16.4578
-16.605
-16.7532
-16.9004
-17.0491
-17.1961
-17.3443
-17.4923
-17.6399
-17.7881
-17.9356
-18.0841
-18.2314
-18.3787
-18.5244
-18.6664
-18.8003
-1.43731
-1.82133
-2.20732
-2.52838
-2.83466
-3.14354
-3.44458
-3.72457
-3.98883
-4.23925
-4.47608
-4.70125
-4.91601
-5.1227
-5.32348
-5.51957
-5.71223
-5.90186
-6.08914
-6.27414
-6.45653
-6.63653
-6.81463
-6.99127
-7.16638
-7.34011
-7.51265
-7.68443
-7.85565
-8.02596
-8.19553
-8.36448
-8.53299
-8.70089
-8.8682
-9.03487
-9.20096
-9.36641
-9.5313
-9.6957
-9.85926
-10.0223
-10.1847
-10.3465
-10.5077
-10.6685
-10.8289
-10.9885
-11.1482
-11.3068
-11.4652
-11.623
-11.7804
-11.9376
-12.094
-12.2506
-12.4057
-12.5613
-12.7156
-12.8697
-13.0239
-13.1777
-13.3321
-13.4856
-13.64
-13.7931
-13.9465
-14.0984
-14.2499
-14.4005
-14.5501
-14.6998
-14.8479
-14.9968
-15.1446
-15.2927
-15.4405
-15.5878
-15.7358
-15.8825
-16.0309
-16.1777
-16.3259
-16.4733
-16.6207
-16.7688
-16.9161
-17.0647
-17.2116
-17.36
-17.5078
-17.6557
-17.8036
-17.9513
-18.0997
-18.247
-18.3944
-18.5399
-18.6822
-18.8149
-1.41645
-1.83566
-2.22291
-2.54333
-2.85153
-3.16202
-3.4634
-3.74291
-4.00719
-4.25747
-4.49406
-4.71949
-4.93392
-5.14047
-5.34125
-5.53747
-5.73031
-5.9203
-6.10788
-6.29314
-6.47572
-6.65578
-6.83397
-7.0106
-7.18562
-7.35913
-7.53146
-7.70313
-7.87428
-8.04456
-8.21414
-8.38313
-8.55166
-8.71958
-8.88691
-9.05361
-9.21972
-9.38521
-9.55012
-9.71454
-9.87813
-10.0412
-10.2036
-10.3653
-10.5266
-10.6874
-10.8478
-11.0075
-11.1672
-11.3258
-11.4843
-11.6421
-11.7995
-11.9568
-12.1132
-12.2698
-12.425
-12.5807
-12.735
-12.8892
-13.0433
-13.1971
-13.3514
-13.5049
-13.6593
-13.8123
-13.9657
-14.1175
-14.2692
-14.4198
-14.5695
-14.7192
-14.8673
-15.0164
-15.1641
-15.3124
-15.46
-15.6076
-15.7554
-15.9023
-16.0506
-16.1973
-16.3457
-16.4929
-16.6406
-16.7883
-16.9359
-17.0843
-17.2313
-17.3798
-17.5273
-17.6755
-17.8231
-17.9712
-18.1192
-18.2667
-18.4139
-18.559
-18.701
-18.832
-1.40184
-1.85024
-2.23515
-2.55288
-2.86189
-3.17416
-3.47606
-3.75502
-4.01948
-4.26975
-4.50623
-4.73127
-4.94552
-5.15196
-5.35263
-5.54874
-5.74146
-5.93133
-6.11879
-6.30386
-6.48614
-6.66579
-6.84377
-7.02019
-7.1951
-7.36849
-7.54062
-7.71218
-7.88324
-8.05344
-8.22295
-8.39184
-8.56029
-8.72812
-8.89538
-9.06201
-9.22804
-9.39346
-9.55831
-9.72266
-9.88619
-10.0492
-10.2115
-10.3733
-10.5345
-10.6952
-10.8556
-11.0152
-11.1749
-11.3334
-11.4918
-11.6496
-11.807
-11.9642
-12.1206
-12.2771
-12.4323
-12.5879
-12.7421
-12.8963
-13.0504
-13.2043
-13.3586
-13.5121
-13.6665
-13.8195
-13.9729
-14.1247
-14.2763
-14.4269
-14.5765
-14.7262
-14.8742
-15.0233
-15.1709
-15.3192
-15.4668
-15.6143
-15.7622
-15.909
-16.0574
-16.2041
-16.3524
-16.4996
-16.6474
-16.795
-16.9427
-17.0911
-17.2381
-17.3865
-17.534
-17.6823
-17.8298
-17.978
-18.1259
-18.2735
-18.4207
-18.5659
-18.7082
-18.8394
-1.37137
-1.86507
-2.25876
-2.57703
-2.88624
-3.19902
-3.50167
-3.77968
-4.04445
-4.29483
-4.5312
-4.75606
-4.9701
-5.17625
-5.37665
-5.57253
-5.76507
-5.95479
-6.14215
-6.32715
-6.50946
-6.68916
-6.86712
-7.04353
-7.21837
-7.39175
-7.56389
-7.73541
-7.90641
-8.07658
-8.24606
-8.41494
-8.58338
-8.75121
-8.91846
-9.08509
-9.25112
-9.41654
-9.58139
-9.74574
-9.90928
-10.0723
-10.2346
-10.3964
-10.5576
-10.7183
-10.8787
-11.0383
-11.198
-11.3566
-11.515
-11.6727
-11.8301
-11.9873
-12.1438
-12.3003
-12.4555
-12.6111
-12.7653
-12.9196
-13.0736
-13.2275
-13.3817
-13.5354
-13.6897
-13.8427
-13.9961
-14.1478
-14.2995
-14.45
-14.5997
-14.7493
-14.8974
-15.0465
-15.1941
-15.3425
-15.4899
-15.6376
-15.7853
-15.9323
-16.0806
-16.2273
-16.3757
-16.5228
-16.6707
-16.8182
-16.966
-17.1142
-17.2614
-17.4098
-17.5573
-17.7056
-17.853
-18.0014
-18.149
-18.2968
-18.4438
-18.5891
-18.731
-18.8619
-18.5316
-19.1773
-20.0558
-20.3693
-19.7144
-18.1742
-16.1734
-14.1931
-12.4857
-11.033
-9.76956
-8.6253
-7.50535
-6.44128
-5.41599
-4.36648
-3.41291
-2.85661
-2.77971
-3.00504
-3.26878
-3.31954
-2.89429
-2.00999
-1.24736
-0.787361
-0.443814
-0.117024
0.220875
0.564679
0.893769
1.20779
1.46099
1.64169
1.7702
1.85464
1.9075
1.94243
1.96481
1.97696
1.9802
1.97597
1.9652
1.94867
1.92763
1.90322
1.87658
1.84756
1.81563
1.78153
1.74716
1.71153
1.6772
1.64438
1.61248
1.57983
1.54533
1.51173
1.47818
1.4444
1.41056
1.37667
1.34269
1.30866
1.27461
1.24055
1.20647
1.17239
1.1383
1.10421
1.07012
1.03603
1.00194
0.967846
0.933757
0.899668
0.865577
0.831487
0.797398
0.76331
0.729221
0.695131
0.661038
0.626943
0.592844
0.558741
0.524631
0.490507
0.456357
0.422159
0.387882
0.353469
0.318818
0.283779
0.248024
0.211191
0.172133
0.130659
0.082157
0.0338567
-18.6165
-19.1095
-19.9484
-20.2646
-19.629
-18.1124
-16.1322
-14.1733
-12.4787
-11.028
-9.75989
-8.60817
-7.48595
-6.4289
-5.40908
-4.39967
-3.48061
-2.99614
-2.96888
-3.23594
-3.51022
-3.53945
-3.08079
-2.11028
-1.26833
-0.767779
-0.403712
-0.0748085
0.25062
0.580738
0.900089
1.20881
1.4495
1.62496
1.75212
1.83774
1.89192
1.9281
1.95114
1.9636
1.967
1.96286
1.95217
1.9357
1.91468
1.89029
1.86367
1.83454
1.80253
1.76846
1.73416
1.6988
1.66478
1.63191
1.59964
1.56685
1.53268
1.49904
1.46547
1.43169
1.39783
1.36392
1.32992
1.2959
1.26184
1.22778
1.1937
1.15961
1.12553
1.09144
1.05734
1.02325
0.989161
0.955072
0.920983
0.886894
0.852804
0.818713
0.784624
0.750536
0.716448
0.682358
0.648266
0.614171
0.580074
0.545973
0.511867
0.477751
0.443613
0.409439
0.375201
0.340855
0.306321
0.27148
0.236071
0.199806
0.161766
0.121786
0.0761687
0.0306017
-18.6098
-19.0981
-19.8725
-20.1538
-19.5258
-18.0346
-16.0821
-14.1479
-12.465
-11.0145
-9.74027
-8.57591
-7.45545
-6.40225
-5.39822
-4.43071
-3.55158
-3.14198
-3.17528
-3.49048
-3.77883
-3.78575
-3.28437
-2.22873
-1.28904
-0.738945
-0.353658
-0.0216729
0.288596
0.601898
0.911302
1.20916
1.43645
1.60661
1.73263
1.81893
1.87483
1.91233
1.93608
1.94888
1.95242
1.94836
1.93777
1.92139
1.90037
1.87601
1.84941
1.82019
1.78806
1.75404
1.71971
1.68469
1.65103
1.61815
1.58561
1.55234
1.51864
1.48502
1.45138
1.4176
1.38372
1.3498
1.3158
1.28176
1.24771
1.21364
1.17956
1.14547
1.11138
1.07729
1.0432
1.00911
0.975019
0.940929
0.90684
0.872751
0.838661
0.804571
0.770482
0.736394
0.702305
0.668216
0.634124
0.600031
0.565935
0.531837
0.497736
0.463628
0.429505
0.395356
0.361161
0.326891
0.292489
0.257869
0.222846
0.187216
0.150312
0.112005
0.0695899
0.027051
-18.6525
-19.1051
-19.8025
-20.0471
-19.4126
-17.9443
-16.0286
-14.1216
-12.4485
-10.9928
-9.70726
-8.52509
-7.40781
-6.35809
-5.38705
-4.44541
-3.62313
-3.294
-3.40011
-3.77006
-4.07619
-4.0618
-3.50252
-2.37202
-1.31078
-0.698943
-0.289569
0.0439647
0.336786
0.630321
0.928224
1.20811
1.42228
1.58673
1.71141
1.79814
1.85604
1.89497
1.9195
1.93263
1.93632
1.93235
1.92187
1.90558
1.88457
1.86023
1.83364
1.80435
1.77213
1.73811
1.7037
1.66897
1.63573
1.60292
1.56996
1.53644
1.50315
1.46951
1.43578
1.402
1.36811
1.33417
1.30015
1.26611
1.23205
1.19798
1.1639
1.12981
1.09572
1.06163
1.02754
0.993451
0.95936
0.92527
0.891181
0.857092
0.823002
0.788912
0.754823
0.720735
0.686647
0.652558
0.618467
0.584375
0.550281
0.516187
0.482091
0.447992
0.413885
0.379764
0.345618
0.311432
0.277176
0.242804
0.208212
0.173291
0.137651
0.101213
0.0623451
0.0231749
-18.6886
-19.1002
-19.7255
-19.9282
-19.2904
-17.8519
-15.9784
-14.0974
-12.4312
-10.9652
-9.65612
-8.45506
-7.33413
-6.297
-5.35427
-4.43379
-3.70741
-3.45878
-3.64262
-4.0737
-4.40033
-4.36702
-3.73395
-2.53208
-1.34084
-0.647684
-0.203854
0.123796
0.397326
0.668512
0.949686
1.20609
1.40708
1.56543
1.68795
1.77534
1.83535
1.8758
1.90121
1.91471
1.91854
1.91466
1.9043
1.88812
1.86713
1.84279
1.81621
1.78686
1.75455
1.72053
1.68603
1.65145
1.61872
1.586
1.55252
1.51906
1.48599
1.4523
1.41855
1.38474
1.35082
1.31687
1.28284
1.24878
1.21472
1.18064
1.14656
1.11248
1.07839
1.0443
1.01021
0.976116
0.942025
0.907935
0.873845
0.839756
0.805666
0.771576
0.737488
0.7034
0.669312
0.635223
0.601133
0.567042
0.53295
0.498859
0.464769
0.43068
0.396592
0.362502
0.328411
0.294318
0.260224
0.226128
0.192016
0.157883
0.123647
0.0892905
0.0543455
0.0189298
-18.7212
-19.0913
-19.6401
-19.794
-19.1528
-17.7506
-15.9256
-14.0761
-12.4173
-10.928
-9.58757
-8.36337
-7.22296
-6.20185
-5.28871
-4.42361
-3.81003
-3.63336
-3.89795
-4.39768
-4.74492
-4.69448
-3.97902
-2.68912
-1.38452
-0.589237
-0.0952724
0.222991
0.472649
0.717233
0.973625
1.20422
1.39074
1.54211
1.66202
1.75033
1.8125
1.85464
1.88104
1.89496
1.89893
1.89513
1.88492
1.86886
1.84786
1.82351
1.79693
1.76753
1.73515
1.70113
1.66657
1.632
1.59981
1.56707
1.53334
1.49993
1.46692
1.43327
1.39951
1.36564
1.33168
1.2977
1.26364
1.22959
1.19552
1.16145
1.12737
1.09328
1.05919
1.0251
0.991009
0.956917
0.922827
0.888736
0.854647
0.820557
0.786468
0.752378
0.71829
0.684202
0.650114
0.616026
0.581937
0.547847
0.513758
0.479671
0.445587
0.41151
0.377441
0.343386
0.309355
0.275366
0.241452
0.20766
0.174079
0.14082
0.108137
0.07609
0.0454788
0.0142501
-18.7506
-19.0769
-19.5453
-19.6454
-19.0012
-17.6383
-15.8639
-14.0513
-12.3942
-10.8759
-9.50256
-8.24077
-7.07883
-6.07397
-5.20824
-4.43154
-3.91352
-3.80965
-4.16028
-4.7326
-5.0984
-5.03285
-4.22783
-2.83034
-1.43796
-0.526398
0.0291912
0.342828
0.56187
0.773512
0.997828
1.20149
1.37233
1.51605
1.6335
1.72283
1.78726
1.83125
1.85879
1.87319
1.87733
1.87362
1.86355
1.8476
1.82657
1.80219
1.7756
1.74616
1.71372
1.6797
1.64513
1.61047
1.57869
1.54601
1.51221
1.47874
1.44578
1.41221
1.37842
1.34451
1.31052
1.27653
1.24248
1.20837
1.17429
1.14021
1.10613
1.07204
1.03795
1.00386
0.969769
0.935677
0.901587
0.867496
0.833406
0.799317
0.765228
0.731138
0.69705
0.662962
0.628875
0.594787
0.560698
0.52661
0.492523
0.458441
0.424365
0.390299
0.356252
0.322235
0.288269
0.254394
0.220677
0.187219
0.15422
0.121922
0.090949
0.0614474
0.035619
0.00904951
-18.7773
-19.0596
-19.4419
-19.4838
-18.8372
-17.5157
-15.7953
-14.0197
-12.3559
-10.8112
-9.39341
-8.08651
-6.91545
-5.93283
-5.11919
-4.4325
-4.01157
-3.98302
-4.41891
-5.0563
-5.44813
-5.36839
-4.46679
-2.95799
-1.48626
-0.451156
0.16675
0.480151
0.661959
0.834069
1.02075
1.19675
1.35119
1.48714
1.60226
1.69266
1.75946
1.80546
1.83428
1.84925
1.85357
1.84994
1.84001
1.82414
1.80303
1.77858
1.75199
1.72252
1.69003
1.65603
1.6215
1.58689
1.55511
1.52268
1.48883
1.45527
1.42235
1.38888
1.35503
1.32106
1.287
1.25299
1.21885
1.18481
1.15073
1.11665
1.08257
1.04848
1.01439
0.9803
0.946209
0.912117
0.878027
0.843936
0.809846
0.775756
0.741668
0.707578
0.67349
0.639403
0.605316
0.571228
0.537141
0.503054
0.46897
0.434892
0.400824
0.366773
0.33275
0.298775
0.264883
0.231134
0.197634
0.164543
0.132183
0.100935
0.0718375
0.0451223
0.0245752
0.00317456
-18.8012
-19.0391
-19.3328
-19.3127
-18.663
-17.3837
-15.7188
-13.9759
-12.3048
-10.731
-9.26295
-7.91291
-6.73811
-5.77896
-5.01589
-4.42836
-4.105
-4.145
-4.65168
-5.34768
-5.78065
-5.67976
-4.68923
-3.07848
-1.50914
-0.357365
0.319474
0.629367
0.770764
0.89487
1.04095
1.18993
1.32748
1.45525
1.5682
1.65972
1.72895
1.77709
1.80733
1.82294
1.82748
1.82395
1.81411
1.79822
1.77696
1.75246
1.72588
1.69638
1.66382
1.62988
1.59542
1.56092
1.52891
1.49682
1.46297
1.42932
1.39643
1.3631
1.32922
1.29522
1.26113
1.22714
1.19302
1.15886
1.12477
1.09068
1.05659
1.0225
0.988408
0.954316
0.920226
0.886134
0.852043
0.817952
0.783862
0.749772
0.715684
0.681594
0.647507
0.613419
0.579333
0.545246
0.511159
0.477075
0.442993
0.40892
0.374859
0.340822
0.306823
0.272891
0.239073
0.205453
0.172179
0.139476
0.107799
0.077678
0.0506154
0.0269083
0.0121935
-0.00353855
-18.8218
-19.0158
-19.2233
-19.1401
-18.4858
-17.2467
-15.6362
-13.9235
-12.2462
-10.6389
-9.11679
-7.72142
-6.54005
-5.6092
-4.90708
-4.42192
-4.19083
-4.29053
-4.84024
-5.59166
-6.07116
-5.94006
-4.88468
-3.17868
-1.50507
-0.253896
0.470152
0.77471
0.884165
0.957631
1.05807
1.18036
1.3017
1.42091
1.53155
1.6241
1.69574
1.746
1.7778
1.79416
1.79895
1.79547
1.7856
1.76956
1.74814
1.72355
1.69693
1.66745
1.63484
1.60094
1.56659
1.53225
1.49988
1.46809
1.43434
1.40056
1.3676
1.33435
1.30038
1.2663
1.23213
1.19807
1.16395
1.12987
1.09579
1.0617
1.02761
0.993524
0.959434
0.925344
0.891253
0.857161
0.82307
0.788979
0.754889
0.720799
0.686711
0.652622
0.618535
0.584448
0.550361
0.516275
0.48219
0.448107
0.41403
0.379962
0.345912
0.311892
0.277923
0.244044
0.210315
0.176847
0.143832
0.111558
0.0806244
0.0517132
0.0268565
0.00635733
-0.00188695
-0.0114765
-18.8391
-18.9938
-19.1254
-18.9835
-18.3233
-17.1207
-15.5607
-13.8739
-12.1897
-10.5468
-8.9663
-7.52087
-6.33596
-5.4424
-4.8064
-4.41819
-4.26605
-4.4098
-4.96993
-5.76358
-6.28304
-6.1197
-5.0198
-3.23958
-1.48385
-0.162231
0.591329
0.894666
0.982761
1.01855
1.07234
1.16608
1.27531
1.38737
1.49524
1.58804
1.6618
1.71414
1.7473
1.76432
1.76937
1.76588
1.75581
1.73949
1.71793
1.6932
1.66648
1.63704
1.60447
1.57058
1.53641
1.50228
1.46955
1.43791
1.40435
1.37058
1.33759
1.30446
1.27052
1.23645
1.20223
1.16816
1.13394
1.09982
1.06572
1.03162
0.997522
0.96343
0.929337
0.895245
0.861154
0.827062
0.792971
0.75888
0.72479
0.6907
0.656612
0.622523
0.588436
0.554348
0.520262
0.486177
0.452093
0.418011
0.383936
0.349873
0.315828
0.281821
0.247872
0.21403
0.180368
0.147022
0.114229
0.0823445
0.0521201
0.0243778
0.00173575
-0.0156259
-0.0170529
-0.0205419
-18.854
-18.9769
-19.0494
-18.8592
-18.193
-17.0208
-15.5
-13.8325
-12.1403
-10.4634
-8.82981
-7.34107
-6.16014
-5.30682
-4.73226
-4.42493
-4.33087
-4.49591
-5.05231
-5.86105
-6.40296
-6.20974
-5.07906
-3.25961
-1.45459
-0.0950016
0.674482
0.976138
1.04796
1.06056
1.08496
1.15228
1.24989
1.35765
1.46344
1.55569
1.62976
1.68428
1.71889
1.7364
1.74153
1.73797
1.72764
1.71106
1.68932
1.66434
1.63734
1.60801
1.57561
1.54166
1.50754
1.47364
1.44055
1.40893
1.37553
1.34172
1.30855
1.27533
1.24131
1.20723
1.17298
1.13874
1.10472
1.07064
1.03655
1.00246
0.96837
0.934278
0.900188
0.866096
0.832006
0.797913
0.763822
0.729731
0.695641
0.661551
0.627463
0.593375
0.559288
0.525201
0.491115
0.45703
0.422948
0.388869
0.354797
0.320741
0.286707
0.252719
0.218802
0.185017
0.151447
0.118255
0.0857122
0.0542236
0.0246761
-0.00200919
-0.0226111
-0.0372538
-0.032145
-0.0303581
-18.8673
-18.967
-18.9956
-18.7689
-18.0973
-16.947
-15.4541
-13.8006
-12.1012
-10.3962
-8.71762
-7.19534
-6.02257
-5.20611
-4.68421
-4.44171
-4.39327
-4.56006
-5.11002
-5.90828
-6.45498
-6.23647
-5.08537
-3.25198
-1.42534
-0.0508586
0.725517
1.02362
1.08404
1.08114
1.0911
1.14119
1.22861
1.33215
1.43647
1.52807
1.60177
1.65761
1.69337
1.71131
1.71644
1.71268
1.70209
1.68539
1.66364
1.63858
1.6115
1.58198
1.54964
1.51583
1.48193
1.44817
1.41491
1.38319
1.35004
1.31639
1.28325
1.25007
1.21606
1.1819
1.14768
1.11335
1.07922
1.04508
1.01097
0.976858
0.942764
0.908669
0.874576
0.840483
0.806392
0.7723
0.738209
0.704116
0.670027
0.635937
0.60185
0.56776
0.533674
0.499586
0.465502
0.431416
0.397335
0.363255
0.329185
0.295128
0.261097
0.227112
0.193199
0.159429
0.125881
0.0927442
0.0603235
0.0290699
1.16685e-06
-0.0258877
-0.0447943
-0.0573114
-0.0463119
-0.0404301
-18.8803
-18.9634
-18.9599
-18.707
-18.0309
-16.8956
-15.4226
-13.7786
-12.0732
-10.3456
-8.62967
-7.07976
-5.917
-5.13517
-4.659
-4.4718
-4.45364
-4.61971
-5.15425
-5.93148
-6.46898
-6.2307