/*--------------------------------*- C++ -*----------------------------------*\
| =========                 |                                                 |
| \\      /  F ield         | OpenFOAM: The Open Source CFD Toolbox           |
|  \\    /   O peration     | Version:  v2012                                 |
|   \\  /    A nd           | Website:  www.openfoam.com                      |
|    \\/     M anipulation  |                                                 |
\*---------------------------------------------------------------------------*/
FoamFile
{
    version     2.0;
    format      ascii;
    class       volScalarField;
    location    "0.006";
    object      p;
}
// * * * * * * * * * * * * * * * * * * * * * * * * * * * * * * * * * * * * * //

dimensions      [0 2 -2 0 0 0 0];


internalField   nonuniform List<scalar> 
1900
(
-373.434
-373.87
-374.074
-374.008
-373.823
-373.25
-372.168
-368.659
-362.145
-338.529
-373.495
-373.971
-374.14
-374.087
-373.918
-373.461
-372.441
-369.756
-364.98
-356.389
-373.554
-374.029
-374.185
-374.158
-374.047
-373.734
-373.021
-371.415
-369.331
-369.183
-373.62
-374.063
-374.237
-374.257
-374.228
-374.103
-373.798
-373.275
-373.315
-377.065
-373.719
-374.09
-374.292
-374.365
-374.428
-374.504
-374.623
-375.01
-376.564
-382.075
-373.721
-374.129
-374.354
-374.479
-374.636
-374.907
-375.411
-376.515
-379.108
-385.435
-373.79
-374.156
-374.41
-374.583
-374.827
-375.271
-376.095
-377.733
-381.017
-387.629
-373.759
-374.176
-374.46
-374.676
-374.993
-375.573
-376.641
-378.657
-382.374
-389.021
-373.791
-374.184
-374.508
-374.75
-375.119
-375.792
-377.016
-379.27
-383.238
-389.859
-373.705
-374.172
-374.543
-374.807
-375.206
-375.942
-377.236
-379.605
-383.687
-390.314
-345.041
-550.589
-654.512
-569.431
-310.897
-132.49
-48.6413
-13.9764
-2.17003
1.89719
3.86319
5.03609
5.73936
6.14954
6.29987
6.31243
6.35579
6.49199
6.62412
6.69848
6.68444
6.61934
6.55367
6.48532
6.41067
6.33213
6.25123
6.16949
6.08591
6.00253
5.91847
5.83406
5.74977
5.66539
5.58093
5.49642
5.41187
5.32732
5.24275
5.15817
5.07359
4.98901
4.90443
4.81984
4.73526
4.65068
4.56609
4.48151
4.39693
4.31235
4.22777
4.14319
4.0586
3.97403
3.88945
3.80487
3.72029
3.63571
3.55113
3.46656
3.38198
3.2974
3.21283
3.12825
3.04368
2.9591
2.87453
2.78995
2.70538
2.62081
2.53623
2.45166
2.36709
2.28252
2.19795
2.11338
2.0288
1.94423
1.85966
1.7751
1.69053
1.60596
1.52139
1.43682
1.35225
1.26769
1.18312
1.09854
1.01396
0.929361
0.844738
0.760065
0.675289
0.590318
0.50497
0.41898
0.331677
0.242529
0.148899
0.0537337
-374.752
-522.692
-596.815
-514.541
-302.153
-142.15
-61.6349
-24.3353
-8.77379
-2.0289
1.53123
3.63682
4.88307
5.62189
5.95683
6.08056
6.21228
6.38417
6.51884
6.61501
6.63101
6.57685
6.51901
6.45467
6.3819
6.30433
6.22385
6.14198
6.05837
5.97329
5.88922
5.80478
5.72067
5.63632
5.55184
5.46729
5.38271
5.29812
5.21353
5.12894
5.04435
4.95977
4.87518
4.7906
4.70601
4.62143
4.53685
4.45227
4.36768
4.2831
4.19852
4.11394
4.02936
3.94478
3.86021
3.77563
3.69104
3.60646
3.52189
3.43731
3.35274
3.26816
3.18358
3.09901
3.01443
2.92986
2.84528
2.76071
2.67614
2.59156
2.50699
2.42241
2.33784
2.25327
2.1687
2.08413
1.99956
1.91499
1.83042
1.74585
1.66129
1.57672
1.49215
1.40758
1.32301
1.23845
1.15388
1.06931
0.984741
0.900168
0.815594
0.731014
0.646413
0.561769
0.477029
0.392109
0.306769
0.220812
0.13331
0.0453778
-388.394
-487.233
-543.316
-473.788
-295.971
-149.433
-72.1247
-33.2204
-14.6968
-5.64826
-0.651468
2.32038
4.08512
5.11737
5.62757
5.86381
6.07273
6.28504
6.42819
6.52937
6.58142
6.53794
6.48682
6.42577
6.35413
6.27723
6.19721
6.11561
6.03269
5.94971
5.86692
5.7816
5.69719
5.61265
5.52808
5.44351
5.35893
5.27435
5.18977
5.10519
5.0206
4.93602
4.85144
4.76686
4.68227
4.59769
4.51311
4.42853
4.34394
4.25936
4.17478
4.0902
4.00562
3.92104
3.83646
3.75188
3.6673
3.58272
3.49815
3.41357
3.32899
3.24442
3.15984
3.07527
2.99069
2.90612
2.82154
2.73697
2.65239
2.56782
2.48325
2.39867
2.3141
2.22953
2.14496
2.06039
1.97582
1.89125
1.80668
1.72211
1.63754
1.55297
1.4684
1.38384
1.29927
1.21471
1.13014
1.04558
0.961011
0.876448
0.79189
0.707343
0.622811
0.53831
0.453886
0.369622
0.285763
0.202497
0.120765
0.0394092
-394.318
-462.838
-504.209
-442.614
-289.373
-155.147
-80.7801
-40.869
-19.9553
-8.9179
-2.63931
1.12328
3.36897
4.66292
5.32823
5.6664
5.93346
6.18663
6.34773
6.43802
6.51434
6.49603
6.45299
6.39594
6.3255
6.24917
6.16932
6.08749
6.00416
5.91988
5.83333
5.7489
5.66553
5.58137
5.49699
5.4125
5.32795
5.24339
5.15881
5.07422
4.98964
4.90506
4.82047
4.73589
4.6513
4.56672
4.48214
4.39755
4.31297
4.22839
4.14381
4.05923
3.97465
3.89007
3.80549
3.72091
3.63633
3.55175
3.46718
3.3826
3.29802
3.21345
3.12887
3.0443
2.95972
2.87515
2.79057
2.706
2.62142
2.53685
2.45228
2.3677
2.28313
2.19856
2.11399
2.02942
1.94485
1.86028
1.77571
1.69114
1.60657
1.52201
1.43744
1.35287
1.2683
1.18374
1.09918
1.01462
0.930074
0.845541
0.761041
0.676604
0.592282
0.508166
0.424447
0.341396
0.25967
0.179784
0.104283
0.0303536
-397.987
-446.395
-473.311
-416.818
-283.3
-159.995
-87.7685
-47.2398
-24.4778
-11.7843
-4.40087
0.0616866
2.73757
4.26153
5.06465
5.49582
5.81671
6.12655
6.30032
6.38364
6.44421
6.45557
6.42453
6.36865
6.29947
6.22383
6.14445
6.06306
5.98045
5.89757
5.81619
5.73233
5.64643
5.5615
5.47683
5.3922
5.3076
5.22301
5.13842
5.05383
4.96925
4.88467
4.80008
4.7155
4.63091
4.54633
4.46175
4.37717
4.29259
4.20801
4.12342
4.03884
3.95426
3.86968
3.78511
3.70053
3.61595
3.53137
3.44679
3.36221
3.27764
3.19306
3.10848
3.02391
2.93933
2.85476
2.77018
2.68561
2.60104
2.51646
2.43189
2.34732
2.26275
2.17818
2.09361
2.00904
1.92446
1.83989
1.75532
1.67075
1.58619
1.50162
1.41705
1.33248
1.24792
1.16335
1.07879
0.994237
0.909687
0.825153
0.740652
0.656213
0.571894
0.487805
0.404198
0.321487
0.240809
0.163048
0.0929462
0.0251463
-399.866
-433.942
-449.361
-396.761
-278.407
-163.911
-93.2104
-52.3943
-28.2611
-14.2123
-5.8955
-0.837454
2.1922
3.89911
4.8093
5.31153
5.67298
6.0033
6.23339
6.31958
6.36261
6.40619
6.38955
6.33587
6.26871
6.19366
6.11418
6.03228
5.94886
5.86453
5.77759
5.69374
5.60897
5.5252
5.44092
5.35646
5.27193
5.18737
5.10279
5.01821
4.93363
4.84905
4.76447
4.67988
4.5953
4.51072
4.42613
4.34155
4.25697
4.17239
4.08781
4.00323
3.91865
3.83407
3.74949
3.66491
3.58033
3.49575
3.41117
3.3266
3.24202
3.15744
3.07287
2.98829
2.90372
2.81914
2.73457
2.64999
2.56542
2.48085
2.39627
2.3117
2.22713
2.14256
2.05799
1.97342
1.88884
1.80427
1.7197
1.63514
1.55057
1.466
1.38143
1.29687
1.2123
1.12774
1.04319
0.95864
0.874109
0.789611
0.705181
0.620876
0.536809
0.45318
0.370409
0.28908
0.210769
0.136517
0.0726825
0.0129162
-400.526
-424.862
-431.686
-381.554
-274.405
-166.899
-97.3757
-56.47
-31.3303
-16.1789
-7.08457
-1.52781
1.79373
3.65206
4.65041
5.20899
5.6002
5.97447
6.19722
6.27292
6.3211
6.37976
6.36806
6.31626
6.24885
6.17349
6.09402
6.01245
5.92984
5.84721
5.76597
5.68142
5.59695
5.51144
5.42657
5.34189
5.25726
5.17266
5.08807
5.00348
4.9189
4.83432
4.74973
4.66515
4.58056
4.49598
4.4114
4.32682
4.24224
4.15765
4.07307
3.98849
3.90391
3.81933
3.73475
3.65018
3.5656
3.48102
3.39644
3.31186
3.22729
3.14271
3.05813
2.97356
2.88898
2.80441
2.71983
2.63526
2.55068
2.46611
2.38154
2.29697
2.2124
2.12783
2.04326
1.95868
1.87411
1.78954
1.70497
1.6204
1.53583
1.45127
1.3667
1.28213
1.19757
1.11301
1.02845
0.9439
0.859364
0.774855
0.690402
0.606056
0.521919
0.438175
0.355246
0.273798
0.195738
0.122474
0.0629973
0.00808566
-400.588
-418.437
-419.206
-370.513
-271.331
-169.067
-100.408
-59.5421
-33.7367
-17.7645
-8.0862
-2.15551
1.3835
3.35963
4.43321
5.04615
5.46899
5.85991
6.10637
6.20567
6.27693
6.33833
6.33211
6.28198
6.21451
6.13874
6.05867
5.9763
5.89263
5.80776
5.72129
5.63728
5.55283
5.46853
5.3842
5.2997
5.21515
5.13059
5.04601
4.96143
4.87685
4.79227
4.70769
4.62311
4.53852
4.45394
4.36936
4.28477
4.20019
4.11561
4.03103
3.94645
3.86187
3.77729
3.69271
3.60813
3.52355
3.43897
3.35439
3.26982
3.18524
3.10067
3.01609
2.93151
2.84694
2.76236
2.67779
2.59321
2.50864
2.42407
2.33949
2.25492
2.17035
2.08578
2.00121
1.91664
1.83207
1.7475
1.66293
1.57836
1.49379
1.40922
1.32466
1.24009
1.15553
1.07097
0.986415
0.901874
0.817355
0.73288
0.648492
0.564269
0.480364
0.397043
0.314907
0.234733
0.159051
0.0887455
0.0354356
-0.0105174
-400.434
-414.249
-411.191
-363.198
-269.009
-170.153
-102.024
-61.2717
-35.1272
-18.6287
-8.5659
-2.40547
1.25011
3.28059
4.38232
5.01096
5.44657
5.82819
6.08422
6.19158
6.26317
6.32477
6.32097
6.27084
6.20302
6.12693
6.04667
5.96431
5.88172
5.79843
5.71502
5.63083
5.54639
5.46161
5.37675
5.29209
5.20748
5.12289
5.0383
4.95371
4.86913
4.78454
4.69996
4.61538
4.53079
4.44621
4.36163
4.27705
4.19246
4.10788
4.0233
3.93872
3.85414
3.76956
3.68498
3.6004
3.51582
3.43124
3.34667
3.26209
3.17752
3.09294
3.00836
2.92379
2.83921
2.75464
2.67006
2.58549
2.50091
2.41634
2.33177
2.2472
2.16262
2.07805
1.99348
1.90891
1.82434
1.73977
1.6552
1.57063
1.48606
1.4015
1.31693
1.23236
1.1478
1.06324
0.978685
0.894142
0.809616
0.725129
0.640718
0.556452
0.472466
0.389006
0.306625
0.226124
0.15008
0.0795294
0.0287622
-0.0153833
-400.388
-412.182
-407.306
-359.688
-268.097
-171.064
-103.2
-62.4802
-36.1424
-19.3241
-9.01155
-2.70142
1.03165
3.11071
4.25247
4.91608
5.37998
5.72475
6.02352
6.13576
6.21375
6.28004
6.27641
6.2262
6.15809
6.08159
6.00096
5.91834
5.83342
5.74865
5.66486
5.58068
5.49627
5.41165
5.32714
5.24257
5.15798
5.07341
4.98882
4.90424
4.81966
4.73508
4.65049
4.56591
4.48133
4.39674
4.31216
4.22758
4.14299
4.05841
3.97383
3.88925
3.80467
3.72009
3.63551
3.55093
3.46635
3.38178
3.2972
3.21262
3.12805
3.04347
2.95889
2.87432
2.78974
2.70517
2.62059
2.53602
2.45144
2.36687
2.2823
2.19773
2.11316
2.02859
1.94402
1.85944
1.77487
1.6903
1.60573
1.52116
1.43659
1.35203
1.26746
1.18289
1.09833
1.01377
0.929221
0.844681
0.760163
0.67569
0.591307
0.507092
0.423209
0.339931
0.257917
0.177967
0.103252
0.0334042
-0.0121857
-0.0491056
-353.694
-365.875
-377.344
-382.95
-376.257
-357.652
-337.105
-331.316
-574.059
-590.81
-603.788
-608.883
-605.61
-594.656
-578.621
-566.972
-685.618
-697.035
-712.299
-716.409
-713.265
-705.267
-694.39
-682.248
-607.436
-617.73
-621.141
-619.785
-612.593
-600.387
-586.753
-576.207
-323.568
-332.632
-334.398
-329.794
-320.914
-310.653
-299.335
-291.309
-123.184
-114.716
-104.92
-93.8338
-82.3856
-71.7031
-63.52
-58.8604
-35.3583
-22.9136
-9.31484
4.26737
16.2766
25.7067
31.8579
34.9529
-3.62351
5.67315
15.1867
24.8163
33.6295
40.5716
45.0583
47.0353
4.21603
9.92672
15.7053
21.4096
26.5942
30.6823
33.2882
34.4229
5.57948
8.83909
12.1203
15.333
18.2881
20.6527
22.1662
22.8448
6.00131
7.86359
9.73087
11.5873
13.2995
14.6568
15.5465
15.9794
6.30347
7.39874
8.50311
9.59128
10.5368
11.2842
11.802
12.0815
6.5158
7.18776
7.8318
8.43373
8.95916
9.41076
9.73467
9.93157
6.61094
7.00783
7.37766
7.74029
8.08358
8.394
8.61087
8.76388
6.60124
6.86103
7.10579
7.35745
7.60191
7.82815
7.9777
8.10345
6.52029
6.69973
6.8744
7.06351
7.28436
7.49646
7.60096
7.70478
6.48348
6.60673
6.76089
6.93732
7.0914
7.23923
7.33004
7.41753
6.59616
6.70681
6.82527
6.93716
7.03083
7.12566
7.1953
7.26173
6.72093
6.80364
6.88261
6.96194
7.02256
7.08439
7.13386
7.18716
6.76415
6.81783
6.86986
6.91912
6.96025
7.01098
7.04768
7.09507
6.72841
6.76546
6.80143
6.83763
6.87494
6.91534
6.94042
6.98454
6.65503
6.6856
6.71732
6.75004
6.78248
6.818
6.83693
6.87824
6.58406
6.61066
6.63817
6.66636
6.6936
6.72589
6.74083
6.77998
6.5125
6.53627
6.56034
6.58565
6.60921
6.63954
6.65181
6.68945
6.43609
6.45841
6.48037
6.50441
6.52534
6.55465
6.56547
6.60217
6.35647
6.37815
6.39866
6.42229
6.44084
6.46945
6.47952
6.51569
6.27491
6.29621
6.3157
6.33934
6.35593
6.38413
6.39369
6.42962
6.19137
6.21285
6.23169
6.25562
6.27099
6.29928
6.3083
6.3442
6.10827
6.12978
6.14789
6.17205
6.18651
6.21516
6.22354
6.25954
6.02441
6.04619
6.06372
6.08827
6.10198
6.13116
6.13892
6.17513
5.94004
5.96211
5.97911
6.00413
6.01719
6.04697
6.05419
6.09062
5.85549
5.87791
5.89445
5.91994
5.93242
5.96272
5.96948
6.00612
5.77097
5.79362
5.80977
5.83563
5.84764
5.87836
5.88479
5.92157
5.68642
5.70927
5.72511
5.75125
5.76291
5.79393
5.80013
5.83701
5.60183
5.62483
5.64046
5.6668
5.67824
5.70943
5.7155
5.75245
5.51722
5.54033
5.55583
5.58229
5.5936
5.6249
5.63089
5.66788
5.43261
5.45579
5.47121
5.49775
5.50899
5.54034
5.54629
5.58329
5.34801
5.37123
5.3866
5.41319
5.42439
5.45578
5.4617
5.49871
5.26342
5.28665
5.302
5.32861
5.33979
5.37119
5.3771
5.41413
5.17882
5.20208
5.2174
5.24403
5.25519
5.28661
5.29251
5.32954
5.09423
5.1175
5.13282
5.15945
5.17061
5.20203
5.20793
5.24495
5.00964
5.03291
5.04823
5.07487
5.08602
5.11744
5.12334
5.16037
4.92507
4.94833
4.96364
4.99029
5.00144
5.03286
5.03875
5.07578
4.84047
4.86374
4.87906
4.9057
4.91685
4.94827
4.95417
4.9912
4.75589
4.77916
4.79447
4.82112
4.83227
4.86369
4.86959
4.90661
4.67131
4.69458
4.70989
4.73654
4.74768
4.77911
4.785
4.82203
4.58673
4.61
4.62531
4.65195
4.6631
4.69452
4.70042
4.73745
4.50214
4.52542
4.54072
4.56737
4.57852
4.60994
4.61584
4.65287
4.41756
4.44083
4.45614
4.48279
4.49394
4.52536
4.53126
4.56829
4.33298
4.35625
4.37156
4.39821
4.40935
4.44078
4.44668
4.4837
4.2484
4.27167
4.28698
4.31363
4.32477
4.3562
4.36209
4.39912
4.16382
4.18709
4.2024
4.22905
4.24019
4.27162
4.27751
4.31454
4.07924
4.10251
4.11782
4.14447
4.15561
4.18704
4.19293
4.22996
3.99466
4.01793
4.03324
4.05989
4.07103
4.10246
4.10835
4.14538
3.91008
3.93335
3.94866
3.97531
3.98645
4.01788
4.02377
4.0608
3.8255
3.84877
3.86408
3.89073
3.90187
3.9333
3.93919
3.97622
3.74092
3.76419
3.7795
3.80615
3.81729
3.84872
3.85461
3.89164
3.65634
3.67961
3.69492
3.72157
3.73272
3.76414
3.77004
3.80707
3.57177
3.59504
3.61035
3.637
3.64814
3.67957
3.68547
3.72249
3.48719
3.51046
3.52577
3.55242
3.56357
3.59499
3.60089
3.63792
3.40261
3.42589
3.44119
3.46784
3.47899
3.51041
3.51631
3.55333
3.31803
3.34131
3.35661
3.38326
3.39441
3.42583
3.43173
3.46875
3.23346
3.25673
3.27204
3.29869
3.30983
3.34126
3.34715
3.38418
3.14888
3.17216
3.18746
3.21411
3.22526
3.25668
3.26258
3.29961
3.06431
3.08758
3.10289
3.12954
3.14069
3.17211
3.17801
3.21504
2.97973
3.00301
3.01832
3.04496
3.05611
3.08754
3.09343
3.13046
2.89516
2.91843
2.93374
2.96039
2.97153
3.00296
3.00885
3.04588
2.81058
2.83386
2.84917
2.87581
2.88696
2.91838
2.92428
2.96131
2.72601
2.74929
2.76459
2.79124
2.80239
2.83381
2.83971
2.87674
2.64144
2.66471
2.68002
2.70667
2.71781
2.74924
2.75513
2.79216
2.55686
2.58014
2.59545
2.6221
2.63324
2.66467
2.67056
2.70759
2.47229
2.49557
2.51087
2.53752
2.54867
2.58009
2.58599
2.62302
2.38772
2.41099
2.4263
2.45295
2.46409
2.49552
2.50141
2.53844
2.30315
2.32642
2.34173
2.36838
2.37952
2.41095
2.41684
2.45387
2.21858
2.24185
2.25716
2.28381
2.29495
2.32638
2.33227
2.3693
2.13401
2.15728
2.17259
2.19924
2.21038
2.24181
2.2477
2.28473
2.04944
2.07271
2.08802
2.11466
2.12581
2.15724
2.16313
2.20016
1.96487
1.98814
2.00345
2.03009
2.04124
2.07267
2.07856
2.11559
1.8803
1.90357
1.91888
1.94553
1.95667
1.9881
1.99399
2.03102
1.79573
1.819
1.83431
1.86096
1.87211
1.90353
1.90943
1.94645
1.71116
1.73444
1.74974
1.77639
1.78754
1.81896
1.82486
1.86189
1.62659
1.64987
1.66517
1.69182
1.70297
1.73439
1.74029
1.77732
1.54202
1.56529
1.5806
1.60725
1.6184
1.64982
1.65572
1.69275
1.45745
1.48073
1.49603
1.52268
1.53383
1.56525
1.57115
1.60818
1.37289
1.39616
1.41147
1.43811
1.44926
1.48068
1.48658
1.52361
1.28832
1.31159
1.3269
1.35354
1.36469
1.39611
1.40201
1.43903
1.20375
1.22702
1.24232
1.26897
1.28011
1.31153
1.31743
1.35446
1.11917
1.14243
1.15774
1.18438
1.19553
1.22694
1.23284
1.26986
1.03458
1.05784
1.07314
1.09977
1.11092
1.14233
1.14823
1.18525
0.949979
0.973211
0.98852
1.01512
1.02628
1.05767
1.06358
1.10059
0.865343
0.888537
0.903847
0.930408
0.941579
0.972928
0.97885
1.01585
0.780644
0.803766
0.819075
0.845556
0.85675
0.888029
0.893975
0.930942
0.695814
0.718798
0.734104
0.760432
0.771667
0.802812
0.808803
0.845713
0.610731
0.633463
0.648752
0.674804
0.686105
0.717007
0.723078
0.759884
0.525137
0.547398
0.562624
0.588156
0.599563
0.629988
0.63621
0.672797
0.438634
0.460086
0.475122
0.499794
0.511304
0.540979
0.5474
0.583689
0.350141
0.370132
0.384529
0.407642
0.419073
0.447201
0.453924
0.48936
0.258829
0.276517
0.289648
0.310504
0.321607
0.348028
0.355105
0.39021
0.160287
0.17349
0.182855
0.199345
0.207493
0.229639
0.235164
0.266953
0.0594006
0.067069
0.0719508
0.0825517
0.0874919
0.103321
0.108099
0.13537
)
;

boundaryField
{
    frontAndBack
    {
        type            empty;
    }
    inlet
    {
        type            zeroGradient;
    }
    outlet
    {
        type            fixedValue;
        value           uniform 0;
    }
    walls
    {
        type            zeroGradient;
    }
}


// ************************************************************************* //
