/*--------------------------------*- C++ -*----------------------------------*\
| =========                 |                                                 |
| \\      /  F ield         | OpenFOAM: The Open Source CFD Toolbox           |
|  \\    /   O peration     | Version:  v2012                                 |
|   \\  /    A nd           | Website:  www.openfoam.com                      |
|    \\/     M anipulation  |                                                 |
\*---------------------------------------------------------------------------*/
FoamFile
{
    version     2.0;
    format      ascii;
    class       volScalarField;
    location    "0.358";
    object      omega.air;
}
// * * * * * * * * * * * * * * * * * * * * * * * * * * * * * * * * * * * * * //

dimensions      [0 0 -1 0 0 0 0];


internalField   nonuniform List<scalar> 
5600
(
6586.29
7485.5
7886.8
7965.17
7866.41
7687.44
7480.98
7290.03
7125.34
6987.77
6878.92
6796.29
6736.28
6693.39
6663.68
6642.28
6627.09
6614.79
6605.37
6596.45
6589.64
6582.63
6577.88
6573.09
6570.52
6567.58
6566.37
6564.61
6564.08
6562.72
6562.16
6560.56
6559.63
6557.66
6556.48
6554.33
6553.04
6550.83
6549.57
6547.42
6546.3
6544.32
6543.43
6541.66
6541.07
6539.57
6539.26
6537.98
6537.91
6536.75
6536.91
6535.86
6536.19
6535.31
6535.85
6535.09
6535.89
6535.27
6536.31
6535.88
6537.18
6536.85
6538.44
6538.18
6540.05
6539.85
6541.99
6541.82
6544.25
6544.08
6546.83
6546.63
6549.73
6549.45
6552.92
6552.55
6556.4
6555.93
6560.11
6559.56
6563.98
6563.45
6567.9
6567.66
6571.69
6572.39
6575.02
6578.11
6577.16
6586.01
6576.66
6598.57
6569.1
6622.95
6540.57
6683.56
6440.56
6868.24
6038.61
7492.59
2450.54
2296.55
2571.65
2795.1
2928.2
2998.04
3010.26
2968.22
2968.91
3017.27
3073.44
3119
3147.16
3158.49
3154.9
3140.53
3118.26
3091.29
3062.13
3032.56
3003.22
2973.99
2945.02
2916.51
2889.21
2863.29
2839.67
2817.46
2797.58
2778.6
2761.96
2745.94
2732.07
2718.69
2707.18
2696
2686.39
2677.03
2668.96
2661.1
2654.29
2647.66
2641.88
2636.28
2631.28
2626.33
2621.88
2617.45
2613.47
2609.56
2606.02
2602.6
2599.56
2596.5
2593.88
2591.24
2588.99
2586.7
2584.8
2582.73
2581.11
2579.33
2577.93
2576.38
2575.18
2573.82
2572.79
2571.63
2570.71
2569.77
2568.97
2568.19
2567.52
2566.89
2566.35
2565.86
2565.42
2565.06
2564.68
2564.45
2564.06
2564.03
2563.57
2563.84
2563.14
2563.98
2562.67
2564.68
2561.81
2566.36
2559.4
2570.77
2552.86
2582.37
2534.77
2614.63
2478.42
2715.66
2278.34
3070.02
2358.54
1859.93
1592.13
1427.82
1346.08
1273.82
1279.96
1309.15
1351.9
1412.45
1482.27
1549.53
1611.13
1663.94
1704.86
1733.43
1749.09
1752.48
1744.29
1726.49
1702.37
1676.78
1653.6
1634.9
1619.45
1605.79
1593.23
1581.77
1571.23
1561
1551.15
1540.95
1531.32
1521.67
1512.9
1504.19
1496.4
1488.69
1481.88
1475.16
1469.22
1463.35
1458.13
1452.88
1448.27
1443.65
1439.6
1435.5
1431.93
1428.31
1425.17
1421.97
1419.25
1416.43
1414.07
1411.58
1409.54
1407.33
1405.55
1403.55
1401.98
1400.16
1398.78
1397.11
1395.91
1394.36
1393.32
1391.9
1391
1389.73
1388.94
1387.81
1387.13
1386.12
1385.53
1384.64
1384.09
1383.34
1382.76
1382.21
1381.5
1381.3
1380.25
1380.68
1378.9
1380.52
1377.22
1381.14
1374.73
1383.23
1370.37
1388.33
1361.8
1400.03
1343.7
1425.81
1304.88
1478.71
1228.91
1556.83
2345.16
1822.38
1493.22
1267.66
1111.15
992.612
906.861
846.934
802.648
776.732
760.405
769.457
791.623
824.101
860.911
902.278
941.249
978.662
1011.2
1039.65
1061.38
1079.17
1091.62
1100.98
1105.7
1107.17
1103.57
1097.11
1087.59
1078.02
1068.45
1060.71
1053.94
1048.04
1042.52
1037.34
1032.49
1027.85
1023.56
1019.24
1015.12
1010.64
1006.17
1001.44
996.999
992.456
988.341
984.181
980.476
976.736
973.446
970.121
967.222
964.271
961.704
959.011
956.662
954.156
951.989
949.643
947.645
945.449
943.62
941.57
939.908
938.002
936.504
934.744
933.407
931.787
930.589
929.117
928.023
926.68
925.652
924.437
923.437
922.423
921.385
920.648
919.422
919.126
917.48
917.933
915.457
917.2
913.173
917.142
910.31
918.136
906.347
920.829
900.496
926.192
891.808
934.57
880.794
942.131
875.293
926.731
2341.97
1815.97
1479.81
1247.93
1079.72
952.57
853.193
774.613
710.644
658.901
616.092
581.964
556.198
536.188
523.57
514.784
513.792
520.899
532.266
549.212
568.532
591.935
616.094
642.246
667.061
692.205
713.803
733.357
748.184
760.891
769.72
777.428
782.149
786.061
787.263
787.764
785.849
783.564
779.518
775.79
771.221
767.609
764.176
761.322
758.408
755.73
753.026
750.455
747.967
745.574
743.339
741.144
739.064
736.961
734.804
732.431
730.122
727.684
725.392
723.001
720.802
718.509
716.439
714.273
712.355
710.339
708.582
706.723
705.119
703.398
701.917
700.289
698.867
697.327
695.924
694.504
693.081
691.838
690.352
689.384
687.741
687.178
685.214
685.269
682.71
683.731
680.15
682.614
677.432
681.996
674.472
681.903
671.325
682.083
668.519
681.426
667.696
677.162
671.806
664.964
2341.13
1814.12
1476.76
1243.88
1074.17
945.326
844.331
763.137
696.591
641.021
594.191
554.016
519.69
489.845
464.18
441.874
422.651
406.903
393.56
383.412
375.254
370.387
367.302
368.998
373.099
381.377
391.417
405.412
419.971
437.799
454.607
473.781
490.926
509.294
524.579
540.271
552.269
564.146
572.371
580.454
585.552
590.729
593.885
597.311
598.936
600.764
600.934
601.293
600.188
599.324
597.305
595.618
593.223
591.221
589.084
587.472
585.726
584.282
582.706
581.302
579.832
578.44
577.071
575.713
574.464
573.171
572.029
570.808
569.698
568.5
567.3
565.929
564.593
563.19
561.776
560.433
558.949
557.72
556.137
555.105
553.392
552.651
550.734
550.392
548.161
548.348
545.672
546.514
543.265
544.846
540.98
543.234
538.94
541.425
537.391
539.047
536.591
535.859
535.99
532.425
2340.86
1813.43
1475.76
1242.6
1072.62
943.433
842.137
760.548
693.582
637.511
590.06
549.213
513.894
482.867
455.628
431.337
409.783
390.357
373.052
357.345
343.366
330.649
319.418
309.354
300.766
293.282
287.195
282.343
278.878
276.857
276.534
278.447
281.701
287.358
293.956
303.05
312.458
324.2
335.448
348.565
360.511
374.021
385.573
398.383
408.863
420.298
429.172
438.693
445.603
452.909
457.796
462.934
466.094
469.462
471.442
473.822
475.085
476.672
477.311
478.182
478.253
478.473
478.041
477.697
476.859
476.067
474.966
473.874
472.739
471.568
470.534
469.567
468.669
467.802
466.926
466.128
465.208
464.485
463.472
462.854
461.719
461.254
459.972
459.7
458.249
458.176
456.542
456.657
454.832
455.083
453.1
453.382
451.329
451.466
449.445
449.382
447.354
447.299
444.538
445.252
2340.76
1813.12
1475.33
1242.06
1072
942.723
841.353
759.668
692.627
636.441
588.911
547.909
512.509
481.256
453.911
429.281
407.568
387.638
370.029
353.553
339.045
325.185
313.093
301.27
291.125
280.948
272.43
263.624
256.521
248.917
243.117
236.716
232.204
227.015
223.808
219.934
218.121
215.726
215.447
215.054
216.679
218.394
221.92
225.779
231.144
237.03
244.021
251.608
259.823
268.519
277.408
286.648
295.679
304.877
313.429
322.033
329.857
337.616
344.537
351.26
357.148
362.708
367.492
371.833
375.519
378.669
381.362
383.453
385.367
386.692
388.074
388.988
390.039
390.615
391.34
391.627
392.01
392.059
392.097
391.948
391.64
391.341
390.7
390.305
389.357
388.912
387.691
387.236
385.781
385.33
383.679
383.237
381.422
381.045
379.059
378.756
376.458
376.299
373.405
373.317
2340.71
1812.97
1475.12
1241.81
1071.71
942.399
841.001
759.287
692.222
636.006
588.454
547.417
511.995
480.702
453.332
428.654
406.909
386.918
369.266
352.707
338.134
324.158
311.965
299.976
289.669
279.236
270.459
261.262
253.754
245.555
239.118
231.739
226.23
219.538
214.858
208.751
204.831
199.246
196.04
190.968
188.483
183.928
182.167
178.173
177.167
173.813
173.615
171.015
171.701
170.125
171.863
171.432
174.25
175.071
179.001
181.096
186.091
189.399
195.34
199.714
206.417
211.628
218.85
224.57
232.026
237.979
245.385
251.289
258.317
263.845
270.287
275.316
281.094
285.579
290.627
294.534
298.805
302.112
305.58
308.282
310.934
313.047
314.899
316.465
317.564
318.646
319.068
319.749
319.591
319.954
319.332
319.471
318.491
318.541
317.244
317.103
315.457
315.102
313.101
312.281
2340.68
1812.9
1475.02
1241.7
1071.57
942.26
840.837
759.13
692.034
635.833
588.241
547.231
511.757
480.504
453.067
428.444
406.615
386.696
368.938
352.473
337.768
323.91
311.553
299.708
289.202
278.94
269.92
260.923
253.118
245.145
238.348
231.216
225.267
218.83
213.606
207.751
203.151
197.789
193.733
188.794
185.222
180.649
177.513
173.265
170.527
166.573
164.209
160.53
158.524
155.121
153.473
150.357
149.067
146.259
145.34
142.878
142.349
140.284
140.168
138.563
138.894
137.817
138.632
138.235
139.581
139.884
141.765
142.79
145.189
146.922
149.783
152.171
155.415
158.374
161.916
165.34
169.087
172.856
176.702
180.691
184.532
188.613
192.347
196.394
199.933
203.831
207.095
210.742
213.664
216.965
219.487
222.336
224.41
226.688
228.4
230.31
231.756
233.221
234.383
235.267
2340.68
1812.91
1475.03
1241.71
1071.58
942.284
840.844
759.157
692.036
635.865
588.236
547.27
511.744
480.548
453.046
428.496
406.584
386.758
368.897
352.546
337.715
323.995
311.487
299.807
289.121
279.055
269.824
261.055
253.007
245.298
238.221
231.391
225.124
219.034
213.449
207.987
202.983
198.065
193.563
189.123
185.06
181.048
177.376
173.757
170.442
167.194
164.212
161.333
158.688
156.18
153.879
151.761
149.829
148.133
146.607
145.379
144.315
143.61
143.076
143.002
143.13
143.743
144.583
145.927
147.527
149.63
151.995
154.819
157.895
161.358
165.053
169.04
173.226
177.596
182.114
186.71
191.389
196.049
200.721
205.283
209.788
214.113
218.321
222.254
226.014
229.478
232.751
235.748
238.536
241.07
243.391
245.479
247.35
249.017
250.445
251.684
252.681
253.532
254.165
254.742
2340.71
1813
1475.15
1241.86
1071.74
942.466
841.029
759.363
692.237
636.092
588.452
547.517
511.975
480.817
453.292
428.788
406.847
387.075
369.179
352.892
338.02
324.376
311.824
300.233
289.501
279.541
270.269
261.627
253.549
245.995
238.916
232.284
226.059
220.231
214.759
209.652
204.873
200.446
196.361
192.623
189.237
186.215
183.578
181.339
179.534
178.179
177.322
177.083
177.426
178.418
180.042
182.358
185.325
188.967
193.243
198.121
203.569
209.502
215.888
222.58
229.581
236.715
244.002
251.236
258.471
265.443
272.232
278.66
284.859
290.646
296.17
301.246
306.032
310.353
314.365
317.908
321.132
323.904
326.358
328.397
330.129
331.505
332.6
333.436
334.047
334.47
334.772
334.91
334.933
334.808
334.559
334.176
333.663
333.031
332.267
331.405
330.42
329.383
328.283
327.243
2340.76
1813.17
1475.39
1242.15
1072.07
942.822
841.415
759.775
692.675
636.558
588.944
548.04
512.524
481.406
453.91
429.459
407.552
387.854
370.005
353.825
339.028
325.539
313.106
301.747
291.222
281.613
272.687
264.58
257.063
250.34
244.219
238.886
234.157
230.277
227.045
224.765
223.202
222.817
223.49
225.321
228.241
232.325
237.48
243.716
250.896
258.951
267.702
276.958
286.61
296.424
306.333
316.027
325.444
334.474
343.074
351.155
358.693
365.616
371.917
377.551
382.53
386.84
390.518
393.588
396.112
398.168
399.86
401.302
402.537
403.552
404.386
405.011
405.477
405.75
405.879
405.831
405.655
405.324
404.886
404.323
403.677
402.941
402.144
401.333
400.47
399.633
398.809
397.988
397.148
396.291
395.397
394.475
393.501
392.495
391.433
390.342
389.203
388.067
386.942
385.924
2340.87
1813.49
1475.85
1242.71
1072.73
943.558
842.249
760.682
693.692
637.656
590.18
549.374
514.045
483.073
455.847
431.635
410.129
390.851
373.64
358.172
344.353
332.008
321.098
311.741
303.657
297.151
291.93
288.43
286.31
286.459
288.568
292.782
298.884
306.929
316.616
327.792
340.095
353.153
366.646
380.344
393.806
406.909
419.348
431.062
441.761
451.452
459.897
467.211
473.25
478.259
482.205
485.39
488.037
490.206
491.942
493.26
494.188
494.74
494.944
494.821
494.404
493.725
492.829
491.758
490.569
489.344
488.135
487.051
486.033
485.06
484.104
483.158
482.212
481.269
480.321
479.373
478.427
477.49
476.564
475.654
474.762
473.881
473.022
472.147
471.291
470.376
469.404
468.4
467.362
466.316
465.247
464.182
463.095
462.022
460.928
459.859
458.778
457.746
456.782
455.976
2341.15
1814.19
1476.91
1243.99
1074.37
945.465
844.556
763.344
696.862
641.371
594.589
554.62
520.503
490.959
465.765
443.829
425.819
410.635
398.924
389.606
383.741
380.084
380.942
385.399
393.44
404.669
418.831
435.246
453.415
472.412
491.919
511.213
529.564
546.64
561.813
575.036
585.951
594.933
601.976
607.592
612.152
615.742
618.424
620.209
621.133
621.253
620.628
619.39
617.624
615.554
613.244
611.018
609.053
607.253
605.538
603.877
602.236
600.621
599.017
597.45
595.91
594.428
592.986
591.61
590.257
588.947
587.59
586.137
584.601
583.039
581.445
579.859
578.27
576.701
575.138
573.602
572.092
570.619
569.186
567.794
566.446
565.145
563.892
562.68
561.51
560.376
559.263
558.177
557.102
556.055
555.01
554.001
552.986
552.019
551.038
550.119
549.202
548.373
547.654
547.153
2342.03
1815.98
1480.11
1247.96
1080.28
952.707
854.159
775.206
712.345
660.618
619.074
586.932
562.599
545.504
534.587
530.075
534.45
545.064
561.027
581.077
604.568
630.61
657.65
684.795
711.041
734.719
754.97
771.335
784.178
794.173
801.84
807.312
810.765
812.231
811.876
809.914
806.643
802.65
798.215
794.142
790.649
787.47
784.452
781.473
778.553
775.676
772.905
770.233
767.704
765.258
762.9
760.508
757.931
755.277
752.584
749.907
747.251
744.654
742.107
739.643
737.242
734.939
732.708
730.582
728.532
726.585
724.699
722.89
721.108
719.383
717.677
716.026
714.395
712.814
711.265
709.773
708.327
706.939
705.598
704.312
703.073
701.888
700.748
699.661
698.615
697.621
696.663
695.748
694.859
694.015
693.182
692.398
691.612
690.885
690.146
689.479
688.822
688.273
687.88
687.786
2345.25
1822.39
1493.86
1268.16
1113.23
994.179
912.591
852.017
814.511
787.869
783.659
800.118
829.082
866.04
907.634
950.23
990.289
1026.98
1058.27
1083.61
1103.44
1118.45
1129.08
1135.73
1137.46
1134.74
1127.99
1118.69
1108.64
1099.46
1091.81
1085.13
1079.05
1073.28
1067.82
1062.62
1057.75
1052.99
1048.38
1043.52
1038.47
1033.33
1028.23
1023.24
1018.46
1013.89
1009.56
1005.45
1001.59
997.954
994.541
991.334
988.274
985.353
982.538
979.836
977.226
974.723
972.304
969.989
967.754
965.622
963.568
961.616
959.741
957.965
956.261
954.649
953.098
951.622
950.194
948.829
947.506
946.246
945.041
943.894
942.789
941.739
940.724
939.761
938.84
937.962
937.122
936.325
935.565
934.85
934.169
933.531
932.919
932.354
931.802
931.304
930.799
930.364
929.906
929.545
929.188
928.983
928.984
929.415
2358.73
1860.91
1594.77
1434.01
1353.99
1288.99
1305.25
1337.29
1392.12
1465.15
1539.73
1610.28
1672.38
1723.06
1760.08
1783.38
1792.55
1788.85
1773.31
1750.18
1724.15
1700.71
1682.17
1666.51
1652.51
1639.48
1627.39
1615.94
1604.93
1593.83
1582.73
1571.92
1561.57
1551.73
1542.45
1533.71
1525.55
1517.91
1510.81
1504.16
1497.94
1492.03
1486.48
1481.29
1476.42
1471.85
1467.55
1463.51
1459.72
1456.17
1452.85
1449.75
1446.84
1444.13
1441.57
1439.17
1436.9
1434.76
1432.72
1430.8
1428.96
1427.22
1425.57
1424
1422.51
1421.1
1419.76
1418.5
1417.31
1416.18
1415.12
1414.12
1413.19
1412.29
1411.45
1410.64
1409.85
1409.11
1408.41
1407.74
1407.11
1406.52
1405.97
1405.45
1404.97
1404.53
1404.13
1403.76
1403.42
1403.14
1402.86
1402.64
1402.41
1402.27
1402.07
1402.06
1401.95
1402.22
1402.69
1403.85
2454.74
2305.68
2580.44
2808.67
2934.22
3010.01
2994.58
2967.45
3014.83
3085.64
3150.03
3196.61
3222.41
3229.88
3222.23
3203.95
3178.36
3148.8
3117.79
3086.34
3054.82
3023.05
2991.97
2961.67
2933.61
2907.2
2882.91
2860.48
2839.9
2820.98
2803.65
2787.82
2773.39
2760.22
2748.2
2737.21
2727.14
2717.94
2709.48
2701.76
2694.61
2688.06
2682
2676.3
2670.91
2665.81
2660.99
2656.44
2652.17
2648.16
2644.41
2640.9
2637.62
2634.57
2631.73
2629.08
2626.6
2624.29
2622.12
2620.1
2618.18
2616.4
2614.71
2613.13
2611.67
2610.28
2609.01
2607.8
2606.71
2605.68
2604.74
2603.89
2603.1
2602.38
2601.71
2601.1
2600.53
2600.01
2599.52
2599.09
2598.69
2598.35
2598.05
2597.8
2597.6
2597.44
2597.33
2597.27
2597.24
2597.27
2597.33
2597.44
2597.55
2597.76
2597.92
2598.33
2598.52
2599.46
2600.42
2602.42
6588.08
7481.92
7876.77
7936
7826.39
7629.93
7415.07
7222.08
7053.54
6914.35
6805.38
6723.41
6664.03
6621.63
6591.85
6570.23
6554.28
6541.58
6531.21
6522.48
6514.92
6508.91
6504.01
6500.33
6497.42
6495.11
6493.31
6491.84
6490.47
6489.03
6487.34
6485.47
6483.4
6481.23
6478.93
6476.61
6474.25
6471.94
6469.66
6467.49
6465.43
6463.49
6461.71
6460.09
6458.62
6457.29
6456.06
6454.94
6453.9
6452.96
6452.1
6451.33
6450.67
6450.13
6449.7
6449.38
6449.18
6449.09
6449.12
6449.25
6449.5
6449.83
6450.27
6450.8
6451.42
6452.11
6452.9
6453.77
6454.73
6455.77
6456.89
6458.1
6459.38
6460.74
6462.18
6463.67
6465.24
6466.85
6468.52
6470.22
6471.97
6473.74
6475.57
6477.41
6479.3
6481.22
6483.19
6485.19
6487.25
6489.32
6491.46
6493.61
6495.85
6498.05
6500.43
6502.58
6504.92
6506.74
6507.98
6507.89
5500.12
3367.69
2415.16
1948.3
1665.32
1480.79
1346.87
1246
1163.93
1095.61
1037.2
985.887
940.036
898.604
860.797
825.751
793.042
762.102
732.468
704.055
676.674
650.283
624.901
600.527
577.095
554.657
533.183
512.695
493.158
474.547
456.863
440.142
424.352
409.44
395.346
382.003
369.36
357.365
345.973
335.141
324.829
315.005
305.64
296.704
288.176
280.03
272.25
264.811
257.704
250.897
244.392
238.147
232.179
226.431
220.941
215.622
210.555
205.604
200.909
196.267
191.903
187.517
183.443
179.271
175.448
171.464
167.848
164.045
160.596
156.99
153.691
150.28
147.142
143.919
140.974
137.947
135.218
132.403
129.942
127.356
125.225
122.844
121.075
118.89
117.527
115.492
114.537
112.576
112.014
110.168
109.889
108.214
107.946
106.557
106.161
105.242
104.73
104.11
103.651
102.816
1520.58
2571.12
2357.81
1985.58
1701.95
1501.9
1354.86
1243.74
1154.1
1081.11
1019.83
966.816
920.524
879.588
842.859
809.249
778.142
748.882
720.988
694.31
668.631
643.837
619.875
596.738
574.301
552.656
531.749
511.723
492.409
473.947
456.187
439.412
423.616
408.712
394.623
381.275
368.616
356.596
345.167
334.288
323.922
314.037
304.607
295.605
287.011
278.8
270.956
263.456
256.29
249.427
242.869
236.574
230.56
224.768
219.239
213.882
208.781
203.797
199.075
194.406
190.021
185.615
181.525
177.341
173.509
169.521
165.903
162.106
158.663
155.076
151.794
148.416
145.307
142.134
139.234
136.273
133.606
130.871
128.484
125.993
123.939
121.663
119.958
117.884
116.555
114.628
113.665
111.794
111.18
109.396
109.036
107.39
107.025
105.612
105.133
104.109
103.568
102.756
102.315
101.262
1128.6
1419.5
1804.44
1801.39
1642.45
1475.67
1336.85
1225.26
1133.65
1058.3
995.298
941.388
895.031
854.655
818.918
786.625
757.047
729.406
703.318
678.511
654.693
631.705
609.424
587.807
566.708
546.24
526.295
507.123
488.451
470.543
453.105
436.539
420.927
406.181
392.223
378.981
366.41
354.459
343.079
332.232
321.885
312.009
302.579
293.573
284.971
276.749
268.894
261.381
254.202
247.328
240.758
234.453
228.43
222.628
217.091
211.727
206.622
201.633
196.91
192.239
187.856
183.454
179.371
175.196
171.377
167.408
163.81
160.044
156.63
153.088
149.849
146.534
143.484
140.393
137.573
134.715
132.148
129.534
127.261
124.906
122.966
120.838
119.227
117.304
116.029
114.244
113.282
111.525
110.865
109.155
108.72
107.1
106.652
105.199
104.656
103.505
102.958
101.938
101.527
100.255
895.207
846.65
1029.38
1250.62
1340.44
1313.67
1239.07
1156.53
1080.03
1012.59
954.455
904.229
860.596
822.402
788.637
758.257
730.535
704.726
680.493
657.534
635.528
614.329
593.78
573.743
554.11
535.016
516.312
498.294
480.644
463.636
447.033
431.06
415.875
401.463
387.773
374.754
362.379
350.594
339.353
328.621
318.373
308.584
299.232
290.297
281.76
273.599
265.801
258.343
251.216
244.39
237.867
231.607
225.626
219.865
214.368
209.041
203.973
199.02
194.332
189.697
185.351
180.986
176.942
172.811
169.036
165.119
161.572
157.872
154.522
151.062
147.904
144.694
141.745
138.784
136.091
133.387
130.971
128.533
126.423
124.261
122.478
120.551
119.067
117.339
116.138
114.529
113.575
111.956
111.246
109.618
109.107
107.505
106.98
105.469
104.878
103.574
103.04
101.791
101.422
99.9267
675.165
655.962
666.736
732.664
836.401
921.89
960.619
959.762
936.403
903.186
867.523
833.226
801.18
771.586
744.364
719.135
695.471
673.103
651.68
631.127
611.237
591.967
573.19
554.834
536.788
519.206
501.956
485.308
468.906
452.992
437.531
422.484
408.023
394.17
380.925
368.277
356.229
344.718
333.708
323.178
313.112
303.492
294.302
285.521
277.133
269.117
261.458
254.134
247.137
240.437
234.033
227.888
222.018
216.361
210.965
205.734
200.76
195.895
191.295
186.745
182.481
178.202
174.242
170.2
166.512
162.694
159.245
155.659
152.422
149.097
146.072
143.025
140.238
137.471
134.97
132.491
130.292
128.1
126.217
124.315
122.744
121.074
119.752
118.264
117.15
115.748
114.794
113.328
112.553
111.007
110.404
108.804
108.198
106.604
105.971
104.487
103.974
102.477
102.152
100.431
530.552
531.092
526.78
527.672
540.659
566.664
598.756
629.811
653.25
668.131
674.713
675.739
672.694
666.544
657.878
647.3
635.082
621.737
607.334
592.296
576.753
560.994
545.027
529.166
513.303
497.632
482.092
466.892
451.959
437.372
423.252
409.501
396.188
383.241
370.722
358.697
347.195
336.124
325.486
315.291
305.537
296.217
287.316
278.819
270.706
262.96
255.562
248.491
241.737
235.271
229.091
223.159
217.493
212.031
206.819
201.765
196.959
192.257
187.812
183.415
179.298
175.168
171.352
167.461
163.922
160.267
156.979
153.574
150.518
147.401
144.587
141.782
139.24
136.755
134.535
132.371
130.477
128.621
127.042
125.476
124.172
122.816
121.685
120.471
119.439
118.257
117.271
115.96
115.075
113.601
112.865
111.247
110.532
108.826
108.14
106.448
105.951
104.184
103.899
101.946
439.296
441.192
439.564
434.495
427.954
422.572
418.229
416.343
416.706
420.689
427.73
437.888
450.452
464.6
478.78
491.957
502.662
510.317
514.13
514.286
510.895
504.912
496.601
486.758
475.77
464.058
451.8
439.152
426.594
414.059
401.71
389.551
377.521
365.909
354.648
343.77
333.257
322.953
313.003
303.461
294.336
285.627
277.316
269.389
261.824
254.601
247.699
241.098
234.788
228.738
222.949
217.384
212.061
206.921
202.012
197.245
192.709
188.266
184.068
179.912
176.026
172.128
168.537
164.882
161.572
158.164
155.123
151.99
149.21
146.399
143.899
141.446
139.264
137.178
135.354
133.622
132.138
130.719
129.528
128.373
127.381
126.377
125.437
124.5
123.508
122.527
121.437
120.255
119.175
117.748
116.801
115.135
114.254
112.41
111.631
109.706
109.196
107.142
106.88
104.686
369.17
371.218
371.07
367.563
360.886
352.132
341.78
330.738
319.454
308.883
299.41
291.892
287.107
285.894
288.854
296.285
307.876
322.815
339.616
356.805
372.23
385.517
394.171
399.254
401.176
400.274
397.094
391.923
385.433
377.884
369.587
360.767
351.371
341.996
332.361
322.723
313.142
304.048
295.374
287.093
279.181
271.624
264.395
257.478
250.849
244.491
238.385
232.517
226.879
221.448
216.228
211.189
206.351
201.663
197.174
192.803
188.639
184.554
180.695
176.873
173.307
169.735
166.46
163.136
160.153
157.098
154.413
151.668
149.286
146.911
144.863
142.907
141.23
139.691
138.403
137.235
136.276
135.391
134.652
133.947
133.269
132.597
131.788
131.063
130.004
129.145
127.816
126.7
125.283
123.865
122.575
120.84
119.689
117.693
116.742
114.578
113.993
111.646
111.373
108.938
309.707
309.589
308.543
305.203
299.411
291.476
282.163
272.06
262.274
253.041
245.436
239.547
235.683
233.663
233.469
234.482
236.932
240.112
244.902
250.221
257.665
265.1
275.434
286.405
296.961
306.189
313.706
319.029
322.154
323.114
322.064
319.225
314.699
308.646
302.157
295.474
288.497
281.812
275.369
269.134
263.082
257.202
251.478
245.907
240.481
235.2
230.058
225.057
220.199
215.476
210.899
206.449
202.153
197.97
193.952
190.028
186.288
182.617
179.156
175.734
172.558
169.391
166.518
163.623
161.071
158.487
156.284
154.069
152.237
150.462
149.036
147.749
146.751
145.923
145.317
144.831
144.474
144.158
143.854
143.538
143.062
142.579
141.726
141.034
139.706
138.804
137.03
135.871
133.915
132.465
130.642
128.843
127.258
125.136
123.877
121.507
120.743
118.133
117.793
115.139
235.953
236.737
237.138
236.705
235.497
233.947
232.743
232.514
233.871
236.759
241.382
246.94
253.335
259.947
266.041
271.315
275.554
278.866
281.407
283.088
284.195
285.086
285.778
286.6
287.629
288.813
290.057
291.162
292.027
292.427
292.282
291.35
289.644
286.875
283.501
279.741
275.583
271.17
266.591
261.909
257.167
252.4
247.63
242.881
238.169
233.512
228.923
224.417
220.005
215.692
211.495
207.405
203.45
199.599
195.906
192.311
188.9
185.573
182.461
179.415
176.626
173.885
171.454
169.054
167.02
165.018
163.428
161.895
160.779
159.783
159.165
158.724
158.567
158.57
158.717
158.913
159.085
159.186
159.097
158.887
158.298
157.66
156.43
155.44
153.543
152.337
149.864
148.515
145.787
144.281
141.687
139.893
137.638
135.496
133.717
131.271
130.152
127.399
126.892
124.121
255.235
255.711
256.43
258.121
261.058
265.607
271.55
278.932
287.002
295.639
304.132
312.191
319.118
324.759
329.276
332.782
335.432
337.467
339.005
340.122
340.944
341.257
341.156
340.647
339.82
338.659
337.178
335.379
333.27
330.793
327.98
324.721
321.12
317.003
312.387
307.396
302.067
296.477
290.701
284.819
278.899
272.999
267.157
261.413
255.79
250.305
244.975
239.814
234.828
230.02
225.405
220.969
216.734
212.673
208.831
205.156
201.722
198.442
195.431
192.563
190.004
187.581
185.52
183.588
182.077
180.699
179.787
179.022
178.721
178.594
178.859
179.288
179.936
180.633
181.303
181.828
182.092
182.082
181.649
180.959
179.711
178.39
176.348
174.644
171.889
170.1
166.754
165.084
161.446
159.909
156.351
154.719
151.527
149.624
147.047
144.83
143.095
140.51
139.666
137.052
326.402
325.738
325.71
327.012
329.863
334.197
339.762
346.309
353.347
360.741
368.106
375.092
381.469
387.114
392
396.078
399.469
402.05
403.922
405.189
405.943
406.219
406.051
405.431
404.362
402.8
400.741
398.231
395.168
391.628
387.479
382.826
377.572
371.791
365.59
359.009
352.037
344.771
337.296
329.705
322.076
314.484
306.977
299.619
292.443
285.481
278.761
272.31
266.132
260.237
254.642
249.336
244.333
239.613
235.211
231.085
227.29
223.76
220.589
217.674
215.156
212.897
211.088
209.533
208.478
207.67
207.389
207.332
207.763
208.364
209.311
210.291
211.334
212.163
212.723
212.836
212.458
211.592
210.163
208.393
206.027
203.618
200.52
197.87
194.205
191.715
187.579
185.545
181.105
179.573
175.052
173.765
169.498
168.19
164.565
163.043
160.387
158.502
157.067
155.135
385.165
384.675
384.952
386.679
390.147
395.276
401.94
409.787
418.518
427.481
436.202
444.402
451.818
458.381
463.968
468.644
472.379
475.283
477.326
478.619
479.124
478.922
477.99
476.384
474.056
471.08
467.439
463.167
458.269
452.812
446.741
440.201
433.124
425.678
417.958
409.914
401.682
393.346
384.947
376.537
368.157
359.847
351.632
343.571
335.689
328.011
320.577
313.426
306.56
299.998
293.774
287.886
282.349
277.155
272.337
267.868
263.797
260.079
256.797
253.876
251.437
249.372
247.844
246.684
246.091
245.822
246.107
246.625
247.591
248.614
249.84
250.826
251.639
251.868
251.597
250.574
248.957
246.702
243.913
240.768
237.145
233.553
229.436
225.858
221.447
218.308
213.624
211.242
206.249
204.706
199.419
198.579
193.291
192.885
188.061
187.739
183.874
183.365
181.009
180.544
455.5
455.36
456.07
458.395
462.703
468.942
476.91
486.304
496.62
507.465
518.202
528.464
537.886
546.182
553.138
558.692
562.755
565.402
566.589
566.454
564.952
562.252
558.41
553.515
547.705
541.109
533.915
526.211
518.173
509.806
501.279
492.608
483.909
475.172
466.354
457.487
448.698
440.006
431.402
422.911
414.543
406.302
398.196
390.266
382.521
374.962
367.642
360.597
353.813
347.309
341.139
335.307
329.825
324.692
319.944
315.568
311.617
308.071
305.011
302.384
300.3
298.672
297.639
297.037
297.022
297.33
298.141
299.085
300.333
301.39
302.399
302.776
302.706
301.661
299.99
297.34
294.168
290.277
286.04
281.475
276.674
271.984
267.029
262.664
257.733
254.059
249.093
246.367
241.106
239.5
233.79
233.387
227.321
228.002
221.985
223.369
218.041
219.76
216.054
218.253
547.075
547.435
548.856
552.293
558.284
566.785
577.617
590.332
604.37
619.001
633.386
646.86
658.783
668.54
675.875
680.577
682.642
682.159
679.3
674.335
667.483
659.132
649.537
638.982
627.846
616.298
604.655
593.008
581.55
570.344
559.528
549.089
539.07
529.443
520.137
511.169
502.455
493.958
485.657
477.552
469.639
461.91
454.363
447.031
439.91
432.973
426.289
419.893
413.733
407.837
402.289
397.075
392.192
387.64
383.464
379.664
376.306
373.385
370.985
369.065
367.723
366.873
366.629
366.804
367.498
368.407
369.653
370.804
371.983
372.6
372.819
371.97
370.427
367.608
364.197
359.683
354.867
349.311
343.722
337.841
332.055
326.431
320.87
315.913
310.715
306.638
301.611
298.557
293.37
291.662
286.003
285.941
279.592
281.378
274.499
277.997
271.135
276.102
270.59
277.256
688.255
689.312
691.756
696.936
705.675
717.962
733.508
751.511
771.085
790.676
809.198
825.149
837.596
845.692
849.313
848.337
843.236
834.454
822.743
808.755
793.172
776.628
759.595
742.559
725.858
709.598
694.092
679.241
665.221
652.037
639.693
628.164
617.386
607.31
597.882
589.039
580.653
572.633
564.934
557.511
550.349
543.428
536.739
530.312
524.132
518.14
512.429
507.059
501.918
496.985
492.446
488.297
484.452
480.909
477.741
474.962
472.649
470.806
469.512
468.72
468.502
468.756
469.544
470.64
472.057
473.452
474.863
475.834
476.412
475.993
474.764
472.1
468.607
463.718
458.403
451.982
445.576
438.471
431.713
424.714
418.204
411.884
405.976
400.633
395.409
391.068
386.228
382.985
378.303
376.551
371.569
371.757
365.962
368.706
361.842
367.595
359.673
368.934
361.312
375.043
930.65
932.685
936.613
944.584
957.81
976.171
998.647
1023.69
1049.15
1072.49
1092.03
1105.2
1111.25
1109.64
1101.08
1086.23
1066.68
1043.58
1018.46
992.422
966.373
941.058
916.692
893.811
872.351
852.443
834.225
817.385
802.012
787.93
775.025
763.192
752.344
742.424
733.33
724.983
717.263
710.06
703.293
696.897
690.843
685.093
679.626
674.466
669.596
664.924
660.556
656.61
652.914
649.387
646.297
643.627
641.245
639.146
637.438
636.148
635.352
635.047
635.288
636.004
637.206
638.753
640.62
642.545
644.405
645.87
646.848
646.968
646.134
643.918
640.491
635.509
629.703
622.617
615.339
607.127
599.275
590.868
583.202
575.392
568.478
561.82
555.955
550.551
545.564
541.25
537.011
533.983
530.388
528.925
525.449
526.026
522.018
525.509
520.276