/*--------------------------------*- C++ -*----------------------------------*\
| =========                 |                                                 |
| \\      /  F ield         | OpenFOAM: The Open Source CFD Toolbox           |
|  \\    /   O peration     | Version:  v2012                                 |
|   \\  /    A nd           | Website:  www.openfoam.com                      |
|    \\/     M anipulation  |                                                 |
\*---------------------------------------------------------------------------*/
FoamFile
{
    version     2.0;
    format      ascii;
    class       surfaceScalarField;
    location    "0.358";
    object      phi.air;
}
// * * * * * * * * * * * * * * * * * * * * * * * * * * * * * * * * * * * * * //

dimensions      [0 3 -1 0 0 0 0];
oriented        oriented;


internalField   nonuniform List<scalar> 
3672
(
0.0064006
7.14517e-06
0.00639136
8.99623e-06
0.00638142
9.68684e-06
0.00637056
1.06126e-05
0.0063586
1.17119e-05
0.00634559
1.27594e-05
0.00633129
1.40467e-05
0.00631578
1.52582e-05
0.00629637
1.91628e-05
2.80585e-05
0.00626806
0.00641089
4.26003e-06
0.00641309
6.79313e-06
0.00641555
7.2261e-06
0.00641823
7.93235e-06
0.00642104
8.90607e-06
0.00642399
9.8076e-06
0.00642694
1.10891e-05
0.00642967
1.25285e-05
0.00643129
1.75455e-05
2.48537e-05
0.0064345
0.00640988
2.38202e-06
0.00641223
4.44505e-06
0.00641473
4.71802e-06
0.00641752
5.14462e-06
0.00642056
5.87155e-06
0.00642375
6.60995e-06
0.00642716
7.68595e-06
0.00643042
9.26282e-06
0.0064346
1.3366e-05
1.8425e-05
0.00644103
0.00640936
1.0263e-06
0.00641175
2.05189e-06
0.00641429
2.17918e-06
0.00641704
2.39546e-06
0.00642008
2.82902e-06
0.00642335
3.34014e-06
0.00642686
4.1794e-06
0.00643058
5.54009e-06
0.00643542
8.52209e-06
1.19255e-05
0.00644192
0.00640916
-1.33129e-07
0.00641153
-3.17988e-07
0.00641408
-3.68049e-07
0.0064168
-3.30659e-07
0.00641985
-2.20073e-07
0.00642318
1.20092e-08
0.0064268
5.59748e-07
0.0064308
1.54158e-06
0.00643581
3.50708e-06
5.3565e-06
0.00644238
0.00640918
-1.30997e-06
0.00641156
-2.70308e-06
0.00641412
-2.9249e-06
0.00641686
-3.07022e-06
0.00641993
-3.29409e-06
0.00642331
-3.36794e-06
0.00642702
-3.15054e-06
0.00643117
-2.61079e-06
0.00643623
-1.55004e-06
-9.18187e-07
0.00644251
0.00640941
-2.72028e-06
0.00641185
-5.1427e-06
0.00641442
-5.49271e-06
0.00641721
-5.85951e-06
0.00642032
-6.40729e-06
0.00642374
-6.78915e-06
0.00642751
-6.92237e-06
0.00643175
-6.8458e-06
0.00643674
-6.54488e-06
-6.74829e-06
0.00644257
0.00640999
-4.70719e-06
0.0064124
-7.5559e-06
0.00641495
-8.04444e-06
0.00641781
-8.71403e-06
0.00642095
-9.55364e-06
0.0064244
-1.02353e-05
0.00642821
-1.0735e-05
0.00643249
-1.11202e-05
0.00643739
-1.14533e-05
-1.21458e-05
0.00644279
0.00641105
-7.76188e-06
0.00641334
-9.83865e-06
0.00641585
-1.05521e-05
0.00641858
-1.14513e-05
0.00642152
-1.24901e-05
0.00642469
-1.34058e-05
0.00642817
-1.42168e-05
0.00643204
-1.49858e-05
0.00643631
-1.57293e-05
-1.68101e-05
0.00644098
0.00640049
0.0063909
0.0063806
0.0063694
0.00635716
0.006344
0.00633004
0.0063153
0.00629982
0.00628326
0.00618912
0.000122524
-4.35879e-05
0.00598884
8.26131e-05
0.000117663
0.00572442
-0.000168606
0.000433026
0.00550756
-0.000541273
0.00075814
0.00535911
-0.000908017
0.00105647
0.00525264
-0.00120372
0.00131018
0.0051718
-0.00137929
0.00146013
0.00510267
-0.00142728
0.00149641
0.00503457
-0.00137479
0.0014429
0.00496662
-0.00125514
0.00132309
0.00489899
-0.00110279
0.00117042
0.00483227
-0.000945371
0.00101208
0.00476701
-0.000799069
0.000864333
0.00470303
-0.000670595
0.000734581
0.00464095
-0.000563955
0.000626031
0.00458127
-0.000478333
0.000538014
0.00452421
-0.000409804
0.000466858
0.00447026
-0.000354701
0.000408649
0.00442014
-0.000311289
0.000361413
0.00437435
-0.000277904
0.000323697
0.00433262
-0.000251311
0.000293041
0.00429465
-0.000228744
0.00026671
0.00426047
-0.000209661
0.000243842
0.0042302
-0.000194232
0.000224506
0.00420351
-0.000181801
0.000208489
0.00418015
-0.000171019
0.000194379
0.00416007
-0.00016117
0.000181243
0.00414289
-0.00015223
0.000169418
0.00412817
-0.000144524
0.000159238
0.00411557
-0.000137855
0.000150456
0.0041047
-0.000131775
0.00014265
0.00409528
-0.000125985
0.000135405
0.00408704
-0.000120462
0.000128698
0.00407973
-0.000115201
0.000122511
0.00407331
-0.000110427
0.000116842
0.00406776
-0.000106138
0.000111695
0.00406299
-0.000102198
0.000106969
0.00405894
-9.84736e-05
0.000102519
0.00405556
-9.49365e-05
9.83134e-05
0.0040528
-9.16161e-05
9.43838e-05
0.0040506
-8.86009e-05
9.07959e-05
0.00404892
-8.58712e-05
8.75492e-05
0.00404767
-8.33157e-05
8.45655e-05
0.00404678
-8.08328e-05
8.1731e-05
0.00404619
-7.83848e-05
7.89739e-05
0.00404588
-7.60052e-05
7.6315e-05
0.00404582
-7.38043e-05
7.38568e-05
0.00404602
-7.17967e-05
7.16042e-05
0.00404645
-6.99248e-05
6.94928e-05
0.00404711
-6.81201e-05
6.74609e-05
0.00404797
-6.63522e-05
6.5488e-05
0.00404902
-6.46428e-05
6.35963e-05
0.00405024
-6.30489e-05
6.183e-05
0.00405162
-6.15766e-05
6.01912e-05
0.00405317
-6.01909e-05
5.8648e-05
0.00405486
-5.88593e-05
5.71685e-05
0.00405668
-5.75611e-05
5.57411e-05
0.0040586
-5.62827e-05
5.43571e-05
0.00406062
-5.5054e-05
5.30377e-05
0.00406272
-5.39004e-05
5.17976e-05
0.00406491
-5.28218e-05
5.06365e-05
0.00406717
-5.17836e-05
4.95222e-05
0.0040695
-5.07821e-05
4.84506e-05
0.00407189
-4.98013e-05
4.74099e-05
0.00407434
-4.88653e-05
4.6421e-05
0.00407682
-4.79619e-05
4.54739e-05
0.00407935
-4.71075e-05
4.45789e-05
0.00408192
-4.62864e-05
4.37203e-05
0.00408452
-4.54958e-05
4.28972e-05
0.00408714
-4.4719e-05
4.20946e-05
0.00408978
-4.39651e-05
4.13216e-05
0.00409244
-4.32307e-05
4.05737e-05
0.00409511
-4.25266e-05
3.986e-05
0.00409778
-4.18433e-05
3.91706e-05
0.00410046
-4.11826e-05
3.85067e-05
0.00410313
-4.05273e-05
3.78556e-05
0.00410579
-3.98865e-05
3.72226e-05
0.00410844
-3.92503e-05
3.65999e-05
0.00411108
-3.86344e-05
3.59996e-05
0.00411369
-3.80247e-05
3.54091e-05
0.00411629
-3.74318e-05
3.48378e-05
0.00411886
-3.68375e-05
3.42687e-05
0.0041214
-3.62566e-05
3.37153e-05
0.00412391
-3.56724e-05
3.31611e-05
0.00412639
-3.51039e-05
3.26234e-05
0.00412884
-3.45343e-05
3.20864e-05
0.00413125
-3.39819e-05
3.1567e-05
0.00413363
-3.34289e-05
3.10488e-05
0.00413598
-3.28946e-05
3.05492e-05
0.00413829
-3.23631e-05
3.00535e-05
0.00414056
-3.18589e-05
2.95845e-05
0.0041428
-3.13632e-05
2.91241e-05
0.00414501
-3.09193e-05
2.8713e-05
0.00414718
-3.04844e-05
2.83108e-05
0.00414933
-3.01957e-05
2.80477e-05
0.00415145
-2.98776e-05
2.77544e-05
0.00415358
-3.00395e-05
2.79135e-05
0.00415568
-2.99106e-05
2.78109e-05
0.00415787
-3.12141e-05
2.90192e-05
-3.11764e-05
2.92145e-05
0.00647836
7.86562e-05
0.00651174
4.92389e-05
0.00650174
-0.000158607
0.0064363
-0.00047583
0.00632498
-0.000796697
0.00617908
-0.00105783
0.00601661
-0.00121681
0.00585464
-0.00126532
0.0057035
-0.00122366
0.0055687
-0.00112034
0.00545261
-0.000986694
0.00535436
-0.000847121
0.00527096
-0.000715672
0.00519907
-0.000598703
0.0051357
-0.000500588
0.0050782
-0.00042083
0.00502395
-0.000355551
0.00497108
-0.000301834
0.00491905
-0.000259256
0.00486796
-0.000226819
0.00481802
-0.000201367
0.0047696
-0.000180324
0.00472315
-0.000163212
0.00467925
-0.000150338
0.00463825
-0.000140794
0.00460005
-0.000132823
0.00456467
-0.000125791
0.00453227
-0.000119831
0.00450284
-0.000115093
0.00447618
-0.0001112
0.00445196
-0.00010755
0.00442991
-0.000103934
0.00440987
-0.00010042
0.00439175
-9.70888e-05
0.00437541
-9.40837e-05
0.00436066
-9.13878e-05
0.00434733
-8.88688e-05
0.00433529
-8.64315e-05
0.00432441
-8.40628e-05
0.00431462
-8.1821e-05
0.00430577
-7.97527e-05
0.0042977
-7.77967e-05
0.00429031
-7.59307e-05
0.00428358
-7.41004e-05
0.00427746
-7.22611e-05
0.00427191
-7.04548e-05
0.0042669
-6.87956e-05
0.0042624
-6.72981e-05
0.00425838
-6.59032e-05
0.0042548
-6.45448e-05
0.00425163
-6.31816e-05
0.00424883
-6.1843e-05
0.00424638
-6.06011e-05
0.00424426
-5.94521e-05
0.00424244
-5.83728e-05
0.0042409
-5.7322e-05
0.0042396
-5.62536e-05
0.00423849
-5.51738e-05
0.00423757
-5.41369e-05
0.00423684
-5.31712e-05
0.00423629
-5.22706e-05
0.00423591
-5.14009e-05
0.00423568
-5.05569e-05
0.00423559
-4.97107e-05
0.00423562
-4.8893e-05
0.00423575
-4.80969e-05
0.00423599
-4.7345e-05
0.00423632
-4.66178e-05
0.00423674
-4.59128e-05
0.00423723
-4.52083e-05
0.00423778
-4.4517e-05
0.00423838
-4.38342e-05
0.00423903
-4.31754e-05
0.00423972
-4.25301e-05
0.00424044
-4.1901e-05
0.00424118
-4.12697e-05
0.00424194
-4.06462e-05
0.00424271
-4.00215e-05
0.00424349
-3.94131e-05
0.00424427
-3.88069e-05
0.00424506
-3.82147e-05
0.00424583
-3.76166e-05
0.00424661
-3.70298e-05
0.00424737
-3.64373e-05
0.00424813
-3.58595e-05
0.00424887
-3.52793e-05
0.00424961
-3.47156e-05
0.00425033
-3.41499e-05
0.00425104
-3.36026e-05
0.00425173
-3.30574e-05
0.00425241
-3.25396e-05
0.00425308
-3.20302e-05
0.00425373
-3.15733e-05
0.00425437
-3.11256e-05
0.004255
-3.08253e-05
0.00425563
-3.05008e-05
0.00425624
-3.0651e-05
0.00425686
-3.05288e-05
0.00425752
-3.18829e-05
-3.17341e-05
0.00647001
4.96757e-05
0.00650349
1.57558e-05
0.00650081
-0.000155926
0.00644848
-0.0004235
0.00634924
-0.000697457
0.00621162
-0.000920198
0.00605284
-0.00105804
0.0058907
-0.00110318
0.00573788
-0.00107084
0.00560286
-0.000985313
0.00548887
-0.000872704
0.00539521
-0.00075347
0.00531898
-0.000639441
0.00525749
-0.00053721
0.00520824
-0.000451333
0.00516845
-0.000381043
0.00513523
-0.000322333
0.00510668
-0.000273278
0.0050819
-0.000234476
0.00505978
-0.000204701
0.0050387
-0.000180291
0.00501742
-0.000159039
0.0049954
-0.0001412
0.00497255
-0.000127481
0.0049487
-0.000116944
0.00492362
-0.00010775
0.00489713
-9.92982e-05
0.00486941
-9.21119e-05
0.00484092
-8.66022e-05
0.00481216
-8.24415e-05
0.00478367
-7.90519e-05
0.00475571
-7.59776e-05
0.00472861
-7.33226e-05
0.00470289
-7.13632e-05
0.00467876
-6.99593e-05
0.00465626
-6.88909e-05
0.00463533
-6.79298e-05
0.00461585
-6.69562e-05
0.00459776
-6.59717e-05
0.00458099
-6.5049e-05
0.00456545
-6.42149e-05
0.00455104
-6.33847e-05
0.00453764
-6.25333e-05
0.00452518
-6.1637e-05
0.00451359
-6.06754e-05
0.00450286
-5.97234e-05
0.00449294
-5.88748e-05
0.00448377
-5.81315e-05
0.00447528
-5.74074e-05
0.00446735
-5.66219e-05
0.00445996
-5.57883e-05
0.00445309
-5.49746e-05
0.00444673
-5.42347e-05
0.00444082
-5.35478e-05
0.00443536
-5.29069e-05
0.0044303
-5.22699e-05
0.00442563
-5.15828e-05
0.00442131
-5.08554e-05
0.00441733
-5.01516e-05
0.00441366
-4.94989e-05
0.00441028
-4.8892e-05
0.00440717
-4.82889e-05
0.00440426
-4.76554e-05
0.00440154
-4.69913e-05
0.00439899
-4.63404e-05
0.0043966
-4.57033e-05
0.00439435
-4.51009e-05
0.00439224
-4.45069e-05
0.00439025
-4.39217e-05
0.00438836
-4.33185e-05
0.00438656
-4.27162e-05
0.00438484
-4.2109e-05
0.00438318
-4.15178e-05
0.00438158
-4.09308e-05
0.00438003
-4.03527e-05
0.00437853
-3.97634e-05
0.00437706
-3.91763e-05
0.00437562
-3.8582e-05
0.0043742
-3.8001e-05
0.00437282
-3.74181e-05
0.00437145
-3.68478e-05
0.0043701
-3.6269e-05
0.00436877
-3.57002e-05
0.00436746
-3.51244e-05
0.00436616
-3.45629e-05
0.00436488
-3.39983e-05
0.00436362
-3.34502e-05
0.00436236
-3.28995e-05
0.00436113
-3.23672e-05
0.00435991
-3.18368e-05
0.0043587
-3.13335e-05
0.00435751
-3.08394e-05
0.00435633
-3.03958e-05
0.00435517
-2.99636e-05
0.00435402
-2.9674e-05
0.00435289
-2.93655e-05
0.00435176
-2.95208e-05
0.00435065
-2.94239e-05
0.0043495
-3.07294e-05
-3.06857e-05
0.0064645
2.71009e-05
0.00648861
-8.35566e-06
0.00648172
-0.000149035
0.00642849
-0.000370269
0.00633104
-0.000600008
0.00619798
-0.000787144
0.00604461
-0.000904661
0.00588736
-0.000945933
0.00573861
-0.00092209
0.00560634
-0.000853042
0.00549376
-0.000760122
0.00540015
-0.000659863
0.00532323
-0.000562515
0.00526118
-0.000475157
0.00521175
-0.000401911
0.00517178
-0.000341067
0.00513853
-0.000289083
0.00511117
-0.000245924
0.0050895
-0.000212798
0.00507206
-0.000187265
0.00505681
-0.000165044
0.00504301
-0.000145235
0.00503142
-0.000129606
0.00502216
-0.000118229
0.00501399
-0.000108768
0.00500577
-9.95356e-05
0.00499748
-9.10024e-05
0.00498937
-8.40054e-05
0.00498127
-7.85037e-05
0.00497281
-7.39746e-05
0.00496356
-6.98057e-05
0.00495315
-6.55668e-05
0.00494141
-6.1581e-05
0.00492842
-5.8377e-05
0.00491439
-5.59293e-05
0.00489944
-5.39369e-05
0.00488362
-5.21122e-05
0.00486702
-5.03573e-05
0.00484981
-4.87647e-05
0.00483225
-4.74836e-05
0.00481468
-4.66455e-05
0.00479746
-4.61654e-05
0.00478072
-4.57885e-05
0.00476448
-4.54023e-05
0.00474887
-4.50601e-05
0.004734
-4.48572e-05
0.00471994
-4.48154e-05
0.00470665
-4.48459e-05
0.00469408
-4.483e-05
0.00468216
-4.47059e-05
0.00467088
-4.4505e-05
0.00466021
-4.43018e-05
0.00465009
-4.4124e-05
0.00464051
-4.39609e-05
0.0046314
-4.38015e-05
0.00462274
-4.36104e-05
0.00461453
-4.33749e-05
0.00460678
-4.30985e-05
0.00459944
-4.28166e-05
0.00459249
-4.25494e-05
0.00458589
-4.22894e-05
0.00457961
-4.20078e-05
0.00457362
-4.1667e-05
0.0045679
-4.12685e-05
0.00456241
-4.08493e-05
0.00455712
-4.04204e-05
0.00455202
-3.99963e-05
0.00454707
-3.95588e-05
0.00454226
-3.91094e-05
0.00453756
-3.86212e-05
0.00453297
-3.812e-05
0.00452846
-3.76014e-05
0.00452403
-3.70912e-05
0.00451968
-3.65769e-05
0.00451539
-3.60664e-05
0.00451117
-3.55385e-05
0.004507
-3.50112e-05
0.00450289
-3.44745e-05
0.00449884
-3.39491e-05
0.00449485
-3.34231e-05
0.00449091
-3.29079e-05
0.00448702
-3.23845e-05
0.00448319
-3.18695e-05
0.00447942
-3.1348e-05
0.00447569
-3.0841e-05
0.00447203
-3.03313e-05
0.00446841
-2.98384e-05
0.00446486
-2.93429e-05
0.00446136
-2.88664e-05
0.00445791
-2.83914e-05
0.00445452
-2.79437e-05
0.00445119
-2.75059e-05
0.00444791
-2.71148e-05
0.00444468
-2.67387e-05
0.0044415
-2.64914e-05
0.00443838
-2.62403e-05
0.00443525
-2.63967e-05
0.00443222
-2.63883e-05
0.00442904
-2.75547e-05
-2.78753e-05
0.00645963
9.85241e-06
0.00647551
-2.42333e-05
0.00646423
-0.000137754
0.00641073
-0.000316771
0.00631603
-0.000505312
0.00618842
-0.000659533
0.00604149
-0.000757731
0.00588979
-0.000794228
0.00574494
-0.000777245
0.00561497
-0.000723072
0.00550319
-0.00064834
0.00540916
-0.000565836
0.00533152
-0.000484875
0.00526906
-0.000412695
0.00521898
-0.000351831
0.00517759
-0.000299676
0.00514312
-0.000254613
0.0051157
-0.000218501
0.00509424
-0.000191345
0.00507597
-0.000168996
0.00505938
-0.000148448
0.00504539
-0.000131242
0.00503473
-0.000118946
0.00502611
-0.000109612
0.00501791
-0.000100572
0.00501004
-9.16617e-05
0.00500335
-8.43171e-05
0.00499827
-7.89266e-05
0.00499428
-7.45081e-05
0.0049905
-7.0201e-05
0.0049865
-6.57985e-05
0.00498266
-6.17307e-05
0.00497953
-5.84471e-05
0.00497693
-5.57838e-05
0.00497445
-5.34416e-05
0.00497171
-5.11959e-05
0.0049685
-4.89037e-05
0.00496482
-4.66823e-05
0.00496078
-4.47219e-05
0.00495638
-4.30837e-05
0.0049515
-4.17616e-05
0.00494593
-4.06029e-05
0.00493953
-3.93905e-05
0.00493225
-3.81175e-05
0.00492413
-3.69402e-05
0.00491529
-3.60197e-05
0.00490586
-3.53808e-05
0.0048959
-3.48906e-05
0.00488548
-3.44089e-05
0.00487468
-3.39056e-05
0.00486362
-3.34391e-05
0.0048524
-3.30914e-05
0.00484117
-3.28908e-05
0.00483002
-3.28132e-05
0.00481898
-3.2758e-05
0.00480805
-3.26767e-05
0.00479726
-3.25849e-05
0.00478667
-3.25086e-05
0.0047763
-3.24494e-05
0.00476615
-3.23984e-05
0.00475619
-3.23354e-05
0.00474644
-3.2251e-05
0.00473691
-3.21394e-05
0.00472762
-3.19792e-05
0.00471854
-3.17698e-05
0.00470965
-3.1529e-05
0.00470092
-3.12696e-05
0.00469236
-3.09929e-05
0.00468394
-3.06922e-05
0.00467566
-3.03449e-05
0.00466752
-2.99784e-05
0.00465951
-2.95885e-05
0.00465162
-2.92019e-05
0.00464385
-2.88079e-05
0.0046362
-2.84147e-05
0.00462866
-2.80032e-05
0.00462125
-2.75929e-05
0.00461394
-2.71713e-05
0.00460676
-2.67615e-05
0.00459968
-2.63493e-05
0.00459272
-2.5948e-05
0.00458587
-2.55377e-05
0.00457914
-2.51361e-05
0.00457252
-2.47308e-05
0.00456602
-2.43387e-05
0.00455964
-2.39467e-05
0.00455337
-2.357e-05
0.00454722
-2.3193e-05
0.00454119
-2.28336e-05
0.00453527
-2.24774e-05
0.00452947
-2.21463e-05
0.00452379
-2.18263e-05
0.00451823
-2.15461e-05
0.00451277
-2.12859e-05
0.00450741
-2.11287e-05
0.00450217
-2.09951e-05
0.00449693
-2.11597e-05
0.00449186
-2.13205e-05
0.00448653
-2.22255e-05
-2.32472e-05
0.00645566
-3.30157e-06
0.00646519
-3.37649e-05
0.00645042
-0.000122979
0.00639697
-0.000263323
0.00630461
-0.000412951
0.00618117
-0.000536091
0.00603902
-0.000615586
0.00589152
-0.000646726
0.00574991
-0.000635639
0.00562197
-0.000595127
0.00551075
-0.00053712
0.00541638
-0.000471468
0.0053385
-0.000406998
0.00527559
-0.000349777
0.00522407
-0.000300313
0.00518091
-0.000256523
0.00514578
-0.000219475
0.00511849
-0.000191214
0.00509617
-0.000169021
0.00507596
-0.00014879
0.00505847
-0.000130962
0.00504515
-0.000117914
0.00503476
-0.000108562
0.00502501
-9.98604e-05
0.00501544
-9.10044e-05
0.00500727
-8.34895e-05
0.00500111
-7.81525e-05
0.00499621
-7.40269e-05
0.00499154
-6.98374e-05
0.00498667
-6.53347e-05
0.00498216
-6.12943e-05
0.00497868
-5.82444e-05
0.00497603
-5.57949e-05
0.00497369
-5.34522e-05
0.00497125
-5.10015e-05
0.00496868
-4.86204e-05
0.00496639
-4.66132e-05
0.00496462
-4.49142e-05
0.00496318
-4.32846e-05
0.00496181
-4.17107e-05
0.00496031
-4.02576e-05
0.00495864
-3.89406e-05
0.00495698
-3.77236e-05
0.00495537
-3.65068e-05
0.00495372
-3.52968e-05
0.00495193
-3.42269e-05
0.00494985
-3.33012e-05
0.00494738
-3.24165e-05
0.00494446
-3.14908e-05
0.00494109
-3.05389e-05
0.00493727
-2.96182e-05
0.00493295
-2.87749e-05
0.00492807
-2.80052e-05
0.00492254
-2.72808e-05
0.00491632
-2.65413e-05
0.00490943
-2.57841e-05
0.00490189
-2.50517e-05
0.00489377
-2.43828e-05
0.00488508
-2.3766e-05
0.00487587
-2.31834e-05
0.00486616
-2.26217e-05
0.00485599
-2.20896e-05
0.00484545
-2.15974e-05
0.00483461
-2.1139e-05
0.00482355
-2.07052e-05
0.00481232
-2.02995e-05
0.00480097
-1.99228e-05
0.00478955
-1.95754e-05
0.0047781
-1.92382e-05
0.00476667
-1.89193e-05
0.0047553
-1.86071e-05
0.00474403
-1.83117e-05
0.00473285
-1.80288e-05
0.0047218
-1.77567e-05
0.00471089
-1.75009e-05
0.00470013
-1.72434e-05
0.00468953
-1.69973e-05
0.0046791
-1.67435e-05
0.00466885
-1.65091e-05
0.00465878
-1.62755e-05
0.00464889
-1.60592e-05
0.0046392
-1.58431e-05
0.00462969
-1.56355e-05
0.0046204
-1.54317e-05
0.00461129
-1.52378e-05
0.0046024
-1.5051e-05
0.0045937
-1.48747e-05
0.00458522
-1.47043e-05
0.00457693
-1.45444e-05
0.00456884
-1.43919e-05
0.00456095
-1.42553e-05
0.00455325
-1.41292e-05
0.00454574
-1.40307e-05
0.00453841
-1.39553e-05
0.00453122
-1.39428e-05
0.00452421
-1.39886e-05
0.00451723
-1.41739e-05
0.00451049
-1.45793e-05
0.00450335
-1.50869e-05
-1.71159e-05
0.00645273
-1.34585e-05
0.00645752
-3.85542e-05
0.00643989
-0.000105347
0.00638638
-0.000209818
0.00629583
-0.000322399
0.00617559
-0.000415849
0.00603717
-0.000477169
0.00589294
-0.000502497
0.00575368
-0.000496374
0.00562667
-0.00046812
0.00551488
-0.000425333
0.00541935
-0.000375934
0.00534045
-0.000328101
0.00527579
-0.000285118
0.00522143
-0.000245945
0.00517647
-0.00021157
0.00514119
-0.000184195
0.00511258
-0.000162597
0.00508708
-0.000143521
0.00506491
-0.000126628
0.00504748
-0.000113525
0.00503341
-0.000103852
0.00502026
-9.54053e-05
0.00500761
-8.72088e-05
0.00499668
-8.00769e-05
0.00498785
-7.46663e-05
0.00498014
-7.04405e-05
0.00497248
-6.63599e-05
0.00496474
-6.20966e-05
0.00495761
-5.82102e-05
0.00495146
-5.51482e-05
0.00494591
-5.26891e-05
0.00494043
-5.03123e-05
0.00493473
-4.7754e-05
0.00492898
-4.52547e-05
0.00492353
-4.317e-05
0.00491838
-4.146e-05
0.00491333
-3.98651e-05
0.00490822
-3.81742e-05
0.00490294
-3.6429e-05
0.00489751
-3.48327e-05
0.00489206
-3.34899e-05
0.00488662
-3.22812e-05
0.00488116
-3.10474e-05
0.00487564
-2.97772e-05
0.00486999
-2.85777e-05
0.00486417
-2.74794e-05
0.00485819
-2.64415e-05
0.00485212
-2.54191e-05
0.004846
-2.44191e-05
0.00483984
-2.34574e-05
0.00483361
-2.25427e-05
0.00482726
-2.16578e-05
0.00482077
-2.07922e-05
0.00481415
-1.99205e-05
0.00480743
-1.906e-05
0.00480062
-1.82397e-05
0.00479371
-1.74709e-05
0.00478665
-1.67151e-05
0.00477943
-1.59543e-05
0.00477199
-1.51915e-05
0.00476436
-1.44557e-05
0.00475653
-1.37634e-05
0.0047485
-1.31089e-05
0.00474026
-1.24729e-05
0.00473182
-1.18547e-05
0.00472316
-1.12626e-05
0.00471429
-1.07086e-05
0.00470524
-1.01894e-05
0.00469604
-9.71137e-06
0.0046867
-9.2727e-06
0.00467726
-8.86909e-06
0.00466773
-8.50082e-06
0.00465814
-8.16547e-06
0.00464851
-7.86679e-06
0.00463887
-7.60305e-06
0.00462924
-7.36801e-06
0.00461966
-7.16306e-06
0.00461013
-6.98488e-06
0.00460069
-6.83722e-06
0.00459135
-6.71443e-06
0.00458212
-6.61638e-06
0.00457302
-6.53709e-06
0.00456407
-6.47752e-06
0.00455527
-6.43431e-06
0.00454662
-6.40969e-06
0.00453815
-6.39911e-06
0.00452985
-6.40215e-06
0.00452172
-6.41437e-06
0.00451376
-6.43763e-06
0.00450598
-6.47035e-06
0.00449836
-6.51243e-06
0.0044909
-6.57081e-06
0.0044836
-6.65276e-06
0.00447641
-6.75776e-06
0.00446938
-6.95111e-06
0.00446232
-7.12131e-06
0.00445547
-7.72733e-06
0.00444816
-7.77494e-06
-1.07116e-05
0.0064508
-2.14626e-05
0.00645216
-3.99198e-05
0.00643219
-8.53722e-05
0.00637824
-0.000155876
0.00628837
-0.000232521
0.0061693
-0.000296782
0.00603183
-0.000339697
0.00588768
-0.000358345
0.0057474
-0.000356095
0.00561757
-0.000338291
0.00550206
-0.000309819
0.0054034
-0.000277281
0.00532023
-0.000244926
0.0052493
-0.000214193
0.00518968
-0.000186327
0.00514086
-0.00016275
0.00509985
-0.000143182
0.00506366
-0.000126408
0.00503201
-0.00011187
0.00500521
-9.98294e-05
0.00498174
-9.00559e-05
0.00495984
-8.19457e-05
0.0049393
-7.48702e-05
0.00492072
-6.86314e-05
0.00490392
-6.32729e-05
0.00488797
-5.87199e-05
0.00487231
-5.47755e-05
0.0048571
-5.11523e-05
0.0048427
-4.76921e-05
0.004829
-4.45123e-05
0.0048156
-4.17528e-05
0.00480226
-3.93477e-05
0.00478904
-3.70861e-05
0.00477611
-3.48302e-05
0.00476353
-3.26757e-05
0.00475115
-3.07869e-05
0.00473882
-2.91312e-05
0.00472654
-2.75818e-05
0.0047144
-2.60324e-05
0.00470247
-2.45021e-05
0.00469073
-2.30946e-05
0.00467911
-2.18706e-05
0.00466759
-2.07631e-05
0.00465622
-1.96736e-05
0.00464503
-1.85847e-05
0.00463401
-1.75631e-05
0.00462317
-1.6634e-05
0.0046125
-1.57748e-05
0.00460203
-1.49499e-05
0.00459177
-1.41579e-05
0.00458172
-1.3407e-05
0.00457188
-1.27016e-05
0.00456225
-1.20314e-05
0.00455285
-1.13907e-05
0.0045437
-1.07666e-05
0.0045348
-1.01643e-05
0.00452616
-9.59835e-06
0.00451776
-9.07169e-06
0.00450961
-8.56241e-06
0.00450171
-8.05672e-06
0.00449407
-7.5563e-06
0.0044867
-7.08112e-06
0.00447957
-6.63762e-06
0.00447269
-6.22013e-06
0.00446602
-5.81118e-06
0.00445958
-5.41212e-06
0.00445334
-5.02566e-06
0.0044473
-4.66443e-06
0.00444143
-4.32127e-06
0.00443572
-4.00073e-06
0.00443016
-3.70683e-06
0.00442472
-3.43126e-06
0.00441939
-3.17444e-06
0.00441417
-2.93966e-06
0.00440902
-2.72478e-06
0.00440396
-2.53702e-06
0.00439896
-2.36575e-06
0.00439401
-2.21607e-06
0.00438911
-2.08325e-06
0.00438424
-1.9711e-06
0.0043794
-1.87772e-06
0.00437459
-1.80002e-06
0.00436979
-1.73895e-06
0.004365
-1.68995e-06
0.00436022
-1.65601e-06
0.00435545
-1.6355e-06
0.00435068
-1.62932e-06
0.00434591
-1.6341e-06
0.00434115
-1.64998e-06
0.00433639
-1.67609e-06
0.00433163
-1.71329e-06
0.00432688
-1.76272e-06
0.00432213
-1.82438e-06
0.00431739
-1.91327e-06
0.00431264
-1.99993e-06
0.00430788
-2.19242e-06
0.00430301
-2.25831e-06
0.00429815
-2.86576e-06
0.00429293
-2.5576e-06
-5.63635e-06
0.00644653
-2.70128e-05
0.00644397
-3.73617e-05
0.00642001
-6.141e-05
0.00636214
-9.80092e-05
0.00626748
-0.000137856
0.00614212
-0.000171423
0.00599643
-0.000194015
0.00584216
-0.00020407
0.00568915
-0.000203084
0.00554465
-0.000193791
0.00541372
-0.000178895
0.00529764
-0.000161196
0.00519575
-0.000143041
0.00510745
-0.000125892
0.00503155
-0.00011043
0.00496564
-9.68365e-05
0.00490746
-8.49989e-05
0.00485583
-7.47786e-05
0.00481003
-6.6073e-05
0.00476888
-5.86742e-05
0.00473108
-5.22567e-05
0.00469615
-4.70185e-05
0.00466395
-4.26678e-05
0.00463424
-3.89231e-05
0.00460648
-3.55155e-05
0.00458019
-3.24238e-05
0.00455518
-2.97662e-05
0.00453148
-2.74517e-05
0.00450906
-2.52732e-05
0.00448773
-2.31799e-05
0.00446727
-2.12934e-05
0.00444757
-1.96555e-05
0.00442867
-1.81869e-05
0.00441061
-1.67696e-05
0.00439335
-1.54107e-05
0.00437676
-1.41936e-05
0.00436075
-1.31277e-05
0.00434533
-1.2163e-05
0.00433054
-1.12367e-05
0.00431637
-1.03383e-05
0.00430279
-9.5087e-06
0.0042897
-8.78617e-06
0.00427709
-8.14674e-06
0.00426495
-7.53881e-06
0.00425331
-6.94408e-06
0.00424214
-6.39282e-06
0.00423141
-5.89977e-06
0.00422109
-5.45278e-06
0.00421117
-5.03357e-06
0.00420165
-4.63809e-06
0.00419251
-4.27012e-06
0.00418374
-3.93306e-06
0.00417533
-3.62109e-06
0.00416727
-3.33113e-06
0.00415956
-3.05661e-06
0.0041522
-2.79747e-06
0.00414516
-2.55931e-06
0.00413843
-2.34505e-06
0.00413201
-2.14452e-06
0.00412591
-1.95061e-06
0.00412011
-1.76118e-06
0.00411462
-1.58575e-06
0.0041094
-1.42564e-06
0.00410446
-1.27895e-06
0.00409979
-1.13508e-06
0.00409537
-9.95545e-07
0.0040912
-8.5833e-07
0.00408727
-7.31622e-07
0.00408356
-6.07436e-07
0.00408004
-4.83451e-07
0.00407672
-3.82507e-07
0.00407356
-2.79005e-07
0.00407057
-1.8005e-07
0.00406772
-8.59235e-08
0.00406499
3.6694e-09
0.00406237
8.26086e-08
0.00405984
1.56379e-07
0.00405741
2.19197e-07
0.00405505
2.76555e-07
0.00405275
3.24242e-07
0.00405051
3.62882e-07
0.00404832
3.9487e-07
0.00404616
4.17561e-07
0.00404404
4.34945e-07
0.00404194
4.46443e-07
0.00403985
4.51408e-07
0.00403777
4.51359e-07
0.00403569
4.48005e-07
0.0040336
4.38529e-07
0.00403149
4.26515e-07
0.00402938
4.04719e-07
0.00402723
3.78691e-07
0.00402507
3.38644e-07
0.00402287
2.88267e-07
0.00402062
2.49384e-07
0.0040183
1.26e-07
0.00401589
1.5101e-07
0.00401334
-3.11454e-07
0.00401062
1.60076e-07
-2.32773e-06
0.00625665
0.00621968
0.00615866
0.00606105
0.00592359
0.00575257
0.00555896
0.00535529
0.00515262
0.00495924
0.00478077
0.00461999
0.00447738
0.00435191
0.00424191
0.00414551
0.00406095
0.00398661
0.00392097
0.00386274
0.00381093
0.00376435
0.00372213
0.00368365
0.00364858
0.0036166
0.00358729
0.00356028
0.00353546
0.00351273
0.00349189
0.00347268
0.00345495
0.00343863
0.00342367
0.00340993
0.00339725
0.00338554
0.00337476
0.00336487
0.00335582
0.00334749
0.00333979
0.00333271
0.00332622
0.00332028
0.00331484
0.00330984
0.00330526
0.00330108
0.00329726
0.00329378
0.00329062
0.00328774
0.00328514
0.0032828
0.00328069
0.0032788
0.00327711
0.00327562
0.00327431
0.00327318
0.00327221
0.00327139
0.00327071
0.00327017
0.00326976
0.00326949
0.00326934
0.00326931
0.00326938
0.00326956
0.00326983
0.0032702
0.00327066
0.0032712
0.00327181
0.00327248
0.00327321
0.00327399
0.00327481
0.00327566
0.00327653
0.00327742
0.00327832
0.00327923
0.00328014
0.00328104
0.00328193
0.00328281
0.00328367
0.00328451
0.0032853
0.00328604
0.00328674
0.00328733
0.00328793
0.00328807
0.00328869
-0.000831931
0.000788343
-0.00121946
0.000387527
-0.00139906
0.000179604
-0.00140205
2.98388e-06
-0.00126096
-0.00014109
-0.000964944
-0.000296012
-0.000524487
-0.000440457
-0.000525013
-0.000754951
0.00166096
-0.00111808
0.000750658
-0.00122824
0.000289766
-0.00120009
-2.51743e-05
-0.00105429
-0.000286883
-0.00080876
-0.000541545
-0.000456447
-0.00079277
-0.000981964
-0.000156197
0.00225018
-0.000557935
0.0011524
-0.000717708
0.000449539
-0.000731038
-1.18448e-05
-0.000650844
-0.000367076
-0.000507295
-0.000685094
-0.000303369
-0.000996696
-0.00128582
0.00042966
0.00257866
9.6959e-05
0.0014851
-0.000111093
0.000657591
-0.000205852
8.29145e-05
-0.000222048
-0.000350881
-0.000187708
-0.000719434
-0.000121698
-0.00106271
-0.00140799
0.000870298
0.00276483
0.00061731
0.00173808
0.000395229
0.000879672
0.000239663
0.000238481
0.000137923
-0.000249141
7.0112e-05
-0.000651623
2.21292e-05
-0.00101472
-0.00138632
0.00119707
0.00287795
0.000996738
0.00193841
0.000781889
0.00109452
0.000592642
0.000427729
0.00042878
-8.52789e-05
0.00027986
-0.000502703
0.000137298
-0.000872161
-0.00124949
0.00139124
0.00294684
0.00123794
0.0020917
0.00104153
0.00129093
0.000835828
0.000633433
0.000631628
0.000118921
0.000426453
-0.000297529
0.000215939
-0.000661647
-0.00103402
0.00145066
0.00299259
0.00133258
0.00220978
0.00116184
0.00146168
0.000958543
0.00083673
0.000737533
0.000339932
0.000503665
-6.36607e-05
0.000257026
-0.000415008
-0.000777464
0.00141297
0.00302252
0.00131819
0.00230456
0.00116842
0.00161145
0.000977331
0.00102782
0.000758632
0.000558631
0.000520582
0.000174389
0.000266352
-0.000160778
-0.000511596
0.00130662
0.00303899
0.00123235
0.00237883
0.00110363
0.00174017
0.000929977
0.00120147
0.000724796
0.000763812
0.000498005
0.00040118
0.000254478
8.27492e-05
-0.000257614
0.00116645
0.00304296
0.00111058
0.0024347
0.00100148
0.00184927
0.000848323
0.00135463
0.000663765
0.00094837
0.000456938
0.000608007
0.0002334
0.000306287
-2.47217e-05
0.00101857
0.00303647
0.000977931
0.00247534
0.000885806
0.0019414
0.0007528
0.00148763
0.000590872
0.0011103
0.000407632
0.000791247
0.000209226
0.000504692
0.000183993
0.000878161
0.00302264
0.000849237
0.00250426
0.000772302
0.00201833
0.000657619
0.00160232
0.000516459
0.00125146
0.000355867
0.00095184
0.000181843
0.000678716
0.000365329
0.000753021
0.0030042
0.00073273
0.00252455
0.000668644
0.00208242
0.000570246
0.00170071
0.000448011
0.00137369
0.000308456
0.00109139
0.000157203
0.000829969
0.00052203
0.000646559
0.00298368
0.000631803
0.00253931
0.000578298
0.00213592
0.000494402
0.00178461
0.000388876
0.00147922
0.000267792
0.00121248
0.000136367
0.000961395
0.000657899
0.000558275
0.00296342
0.000546129
0.00255145
0.000501014
0.00218104
0.000429916
0.00185571
0.000339024
0.00157011
0.000233837
0.00131767
0.000119017
0.00107621
0.000776422
0.000485529
0.00294475
0.000474618
0.00256236
0.000435809
0.00221985
0.000374904
0.00191661
0.000296349
0.00164867
0.000204765
0.00140925
0.000103937
0.00117704
0.000879867
0.000425237
0.00292816
0.000415114
0.00257249
0.000381091
0.00225387
0.000328076
0.00196963
0.000259649
0.00171709
0.000179587
0.00148931
9.09179e-05
0.00126571
0.000970296
0.000375643
0.00291393
0.000366018
0.00258211
0.000335701
0.00228419
0.000288914
0.00201641
0.000228697
0.00177731
0.000158216
0.00155979
8.01014e-05
0.00134383
0.00104991
0.000335582
0.00290204