/*--------------------------------*- C++ -*----------------------------------*\
| =========                 |                                                 |
| \\      /  F ield         | OpenFOAM: The Open Source CFD Toolbox           |
|  \\    /   O peration     | Version:  v2012                                 |
|   \\  /    A nd           | Website:  www.openfoam.com                      |
|    \\/     M anipulation  |                                                 |
\*---------------------------------------------------------------------------*/
FoamFile
{
    version     2.0;
    format      ascii;
    class       surfaceScalarField;
    location    "0.358";
    object      phi.air;
}
// * * * * * * * * * * * * * * * * * * * * * * * * * * * * * * * * * * * * * //

dimensions      [0 3 -1 0 0 0 0];
oriented        oriented;


internalField   nonuniform List<scalar> 
10964
(
0.000657106
2.51273e-05
0.000628902
2.73627e-05
0.000601317
2.6741e-05
0.000575027
2.54447e-05
0.000551118
2.30604e-05
0.000530162
2.01067e-05
0.000512502
1.68086e-05
0.000497901
1.37487e-05
0.000485909
1.11383e-05
0.000476267
8.78748e-06
0.000468659
6.75301e-06
0.000462713
5.09051e-06
0.000458072
3.78553e-06
0.000454434
2.78281e-06
0.00045154
2.03748e-06
0.000449195
1.48953e-06
0.000447253
1.08547e-06
0.000445611
7.86833e-07
0.000444195
5.59569e-07
0.000442977
3.62213e-07
0.000441919
2.01332e-07
0.000441019
4.46305e-08
0.000440275
-1.1241e-07
0.000439661
-2.41206e-07
0.000439158
-3.53396e-07
0.00043874
-4.37358e-07
0.000438398
-5.14424e-07
0.000438106
-5.63121e-07
0.000437852
-6.02351e-07
0.000437613
-6.16417e-07
0.000437379
-6.21193e-07
0.000437142
-6.19075e-07
0.000436906
-6.19149e-07
0.00043667
-6.20354e-07
0.000436435
-6.20364e-07
0.000436206
-6.25975e-07
0.000435979
-6.28591e-07
0.00043576
-6.36866e-07
0.000435547
-6.42079e-07
0.000435344
-6.52802e-07
0.000435151
-6.62706e-07
0.000434969
-6.73727e-07
0.000434797
-6.83687e-07
0.000434641
-6.99433e-07
0.000434499
-7.13286e-07
0.000434371
-7.27908e-07
0.000434255
-7.39451e-07
0.000434151
-7.51629e-07
0.000434055
-7.59316e-07
0.00043397
-7.70274e-07
0.000433893
-7.78211e-07
0.000433822
-7.84321e-07
0.000433758
-7.92396e-07
0.000433706
-8.03044e-07
0.000433659
-8.08567e-07
0.000433623
-8.19193e-07
0.000433593
-8.25279e-07
0.000433572
-8.34986e-07
0.000433563
-8.46238e-07
0.000433563
-8.54979e-07
0.000433568
-8.60724e-07
0.000433584
-8.71196e-07
0.000433606
-8.77346e-07
0.000433637
-8.86666e-07
0.000433674
-8.93035e-07
0.000433722
-9.02666e-07
0.000433774
-9.07691e-07
0.000433836
-9.17685e-07
0.000433903
-9.21473e-07
0.000433978
-9.31104e-07
0.000434059
-9.35762e-07
0.000434149
-9.44966e-07
0.000434242
-9.49182e-07
0.000434344
-9.56886e-07
0.000434452
-9.6263e-07
0.000434566
-9.69468e-07
0.000434685
-9.74858e-07
0.000434811
-9.80722e-07
0.000434942
-9.86391e-07
0.000435078
-9.91093e-07
0.00043522
-9.96737e-07
0.000435363
-9.98562e-07
0.000435514
-1.00573e-06
0.000435662
-1.00353e-06
0.00043582
-1.01308e-06
0.000435972
-1.00679e-06
0.000436141
-1.02407e-06
0.000436294
-1.00814e-06
0.00043649
-1.05047e-06
0.000436647
-1.01213e-06
0.000436858
-1.06616e-06
0.00043701
-1.00645e-06
0.00043723
-1.07515e-06
0.000437353
-9.77128e-07
0.000437638
-1.14051e-06
0.000437738
-9.54002e-07
0.000438153
-1.27065e-06
0.000438868
-1.56847e-06
0.000437463
5.48082e-07
-1.12383e-05
0.000447849
0.000757085
2.43227e-05
0.000754877
2.95708e-05
0.000751202
3.04158e-05
0.000745928
3.07184e-05
0.000739361
2.96277e-05
0.000731832
2.76355e-05
0.000723576
2.50645e-05
0.000714971
2.23543e-05
0.000706311
1.97974e-05
0.000697783
1.73163e-05
0.000689587
1.49488e-05
0.00068184
1.28376e-05
0.00067462
1.10057e-05
0.000667976
9.42609e-06
0.000661923
8.09083e-06
0.000656454
6.95866e-06
0.000651544
5.99509e-06
0.000647161
5.17043e-06
0.000643277
4.44286e-06
0.000639871
3.76829e-06
0.000636901
3.17127e-06
0.000634312
2.63371e-06
0.000632004
2.19564e-06
0.000629934
1.82931e-06
0.00062808
1.49989e-06
0.000626416
1.22705e-06
0.000624894
1.00724e-06
0.000623478
8.52735e-07
0.000622158
7.17657e-07
0.000620928
6.14168e-07
0.000619781
5.25559e-07
0.000618715
4.46586e-07
0.000617735
3.61692e-07
0.000616828
2.86552e-07
0.00061599
2.17545e-07
0.000615213
1.50935e-07
0.000614493
9.16744e-08
0.000613824
3.1747e-08
0.000613204
-2.17077e-08
0.000612629
-7.79545e-08
0.000612098
-1.32035e-07
0.000611606
-1.81885e-07
0.000611153
-2.30671e-07
0.000610736
-2.81802e-07
0.000610349
-3.26655e-07
0.000609989
-3.6802e-07
0.000609653
-4.03305e-07
0.00060934
-4.38673e-07
0.000609048
-4.66934e-07
0.000608777
-4.99535e-07
0.000608526
-5.26854e-07
0.000608294
-5.5279e-07
0.000608081
-5.79705e-07
0.000607888
-6.09649e-07
0.000607713
-6.33675e-07
0.000607558
-6.63949e-07
0.000607419
-6.86008e-07
0.000607297
-7.13326e-07
0.000607192
-7.40951e-07
0.000607103
-7.66663e-07
0.00060703
-7.87219e-07
0.000606972
-8.13256e-07
0.000606927
-8.32636e-07
0.000606896
-8.56034e-07
0.00060688
-8.77012e-07
0.000606876
-8.98133e-07
0.000606882
-9.13873e-07
0.000606901
-9.36324e-07
0.00060693
-9.5084e-07
0.000606973
-9.7395e-07
0.000607025
-9.88073e-07
0.00060709
-1.00977e-06
0.000607164
-1.02303e-06
0.000607249
-1.04206e-06
0.000607344
-1.05738e-06
0.000607449
-1.07473e-06
0.000607562
-1.08814e-06
0.000607685
-1.10308e-06
0.000607814
-1.11561e-06
0.000607952
-1.12914e-06
0.000608095
-1.13996e-06
0.000608247
-1.15056e-06
0.000608403
-1.16114e-06
0.000608568
-1.16934e-06
0.000608733
-1.17785e-06
0.000608915
-1.18868e-06
0.00060909
-1.19863e-06
0.00060929
-1.20876e-06
0.000609473
-1.23275e-06
0.00060969
-1.22943e-06
0.000609876
-1.25196e-06
0.000610112
-1.24242e-06
0.000610286
-1.24961e-06
0.00061057
-1.26111e-06
0.000610717
-1.28776e-06
0.000611135
-1.37136e-06
0.000611259
-1.39506e-06
0.000611965
-2.2747e-06
0.000612198
3.15285e-07
-1.52799e-05
0.00061624
0.000840343
2.13132e-05
0.000842332
2.75816e-05
0.000844302
2.84453e-05
0.000845633
2.93883e-05
0.000846212
2.90477e-05
0.000845985
2.78627e-05
0.000845037
2.60131e-05
0.000843329
2.40618e-05
0.000840904
2.22227e-05
0.000837777
2.04435e-05
0.000834026
1.86996e-05
0.000829712
1.71514e-05
0.00082494
1.57781e-05
0.000819829
1.45371e-05
0.000814506
1.34132e-05
0.000809098
1.2367e-05
0.000803704
1.13893e-05
0.000798449
1.04251e-05
0.000793418
9.47378e-06
0.000788679
8.50788e-06
0.000784255
7.59501e-06
0.000780181
6.70782e-06
0.000776458
5.918e-06
0.000773064
5.22348e-06
0.000769972
4.59226e-06
0.000767153
4.04636e-06
0.000764562
3.59765e-06
0.000762171
3.24373e-06
0.00075997
2.91872e-06
0.000757948
2.6364e-06
0.000756091
2.38257e-06
0.000754388
2.14948e-06
0.000752828
1.92157e-06
0.000751391
1.72346e-06
0.000750067
1.54197e-06
0.000748842
1.37573e-06
0.000747711
1.22291e-06
0.000746664
1.07893e-06
0.000745697
9.45082e-07
0.000744802
8.16578e-07
0.000743979
6.91601e-07
0.000743216
5.80388e-07
0.000742515
4.70239e-07
0.000741859
3.74217e-07
0.000741242
2.90257e-07
0.000740662
2.12311e-07
0.000740117
1.41396e-07
0.000739608
7.04048e-08
0.000739133
8.11858e-09
0.000738692
-5.78684e-08
0.000738282
-1.16887e-07
0.000737903
-1.74303e-07
0.000737554
-2.30979e-07
0.000737236
-2.90814e-07
0.000736945
-3.43378e-07
0.000736683
-4.01739e-07
0.000736446
-4.4855e-07
0.000736233
-5.01102e-07
0.000736044
-5.51016e-07
0.000735877
-5.99931e-07
0.000735731
-6.41736e-07
0.000735606
-6.88035e-07
0.0007355
-7.26079e-07
0.000735412
-7.68071e-07
0.000735341
-8.06371e-07
0.000735287
-8.44694e-07
0.00073525
-8.76055e-07
0.000735228
-9.14477e-07
0.000735224
-9.47282e-07
0.000735233
-9.82996e-07
0.000735256
-1.01118e-06
0.000735295
-1.04847e-06
0.000735347
-1.07517e-06
0.000735414
-1.10835e-06
0.000735493
-1.13645e-06
0.000735584
-1.16656e-06
0.000735686
-1.18972e-06
0.000735798
-1.2151e-06
0.000735919
-1.23617e-06
0.00073605
-1.26009e-06
0.000736188
-1.27795e-06
0.000736336
-1.29939e-06
0.000736491
-1.31537e-06
0.000736658
-1.33638e-06
0.000736826
-1.34602e-06
0.000737013
-1.3763e-06
0.000737196
-1.38137e-06
0.000737407
-1.41929e-06
0.0007376
-1.42626e-06
0.000737832
-1.46072e-06
0.000738034
-1.45465e-06
0.000738279
-1.48706e-06
0.000738486
-1.45677e-06
0.000738768
-1.54327e-06
0.000738976
-1.49604e-06
0.000739346
-1.74046e-06
0.000739578
-1.62767e-06
0.000740209
-2.90527e-06
0.000741381
-8.57008e-07
-1.59399e-05
0.000742041
0.000930296
1.80904e-05
0.000933078
2.47989e-05
0.000936234
2.52898e-05
0.000939314
2.63085e-05
0.00094213
2.62312e-05
0.000944657
2.53359e-05
0.000946786
2.38845e-05
0.000948508
2.2339e-05
0.000949817
2.09136e-05
0.000950712
1.95489e-05
0.000951157
1.82544e-05
0.000951127
1.7182e-05
0.000950718
1.61864e-05
0.000949891
1.53646e-05
0.000948629
1.46755e-05
0.000946927
1.40683e-05
0.000944789
1.35274e-05
0.000942218
1.2996e-05
0.000939239
1.24532e-05
0.000935888
1.18591e-05
0.000932207
1.12756e-05
0.000928293
1.06215e-05
0.000924255
9.95663e-06
0.000920212
9.26637e-06
0.000916222
8.58196e-06
0.000912372
7.89681e-06
0.00090873
7.23967e-06
0.000905329
6.64479e-06
0.000902176
6.071e-06
0.000899264
5.54908e-06
0.000896575
5.07097e-06
0.000894091
4.6342e-06
0.000891765
4.24763e-06
0.000889587
3.90073e-06
0.000887553
3.576e-06
0.000885656
3.27298e-06
0.00088389
2.98842e-06
0.000882249
2.72049e-06
0.000880728
2.46612e-06
0.000879317
2.22705e-06
0.000878019
1.99043e-06
0.000876813
1.78557e-06
0.000875696
1.58716e-06
0.000874656
1.41419e-06
0.000873689
1.25791e-06
0.000872786
1.11477e-06
0.000871945
9.82366e-07
0.000871162
8.54265e-07
0.000870432
7.37278e-07
0.000869755
6.19682e-07
0.000869127
5.11033e-07
0.000868546
4.06402e-07
0.000868011
3.04099e-07
0.000867518
2.02081e-07
0.000867068
1.06708e-07
0.000866657
9.13151e-09
0.000866281
-7.22317e-08
0.000865938
-1.57928e-07
0.000865626
-2.39285e-07
0.000865344
-3.17866e-07
0.00086509
-3.87365e-07
0.000864862
-4.60169e-07
0.000864658
-5.22828e-07
0.00086448
-5.89379e-07
0.000864324
-6.50295e-07
0.00086419
-7.11287e-07
0.000864078
-7.63683e-07
0.000863987
-8.23732e-07
0.000863918
-8.78212e-07
0.000863869
-9.33819e-07
0.000863842
-9.83739e-07
0.000863831
-1.03772e-06
0.00086384
-1.08401e-06
0.000863864
-1.13249e-06
0.000863905
-1.17794e-06
0.000863959
-1.22073e-06
0.000864025
-1.25545e-06
0.000864102
-1.292e-06
0.000864191
-1.32522e-06
0.000864291
-1.36046e-06
0.000864404
-1.39032e-06
0.000864527
-1.42279e-06
0.000864663
-1.45107e-06
0.000864809
-1.48266e-06
0.000864966
-1.50328e-06
0.000865137
-1.54657e-06
0.000865317
-1.56153e-06
0.00086551
-1.61257e-06
0.000865711
-1.62748e-06
0.000865922
-1.67163e-06
0.000866145
-1.6777e-06
0.000866374
-1.71543e-06
0.00086662
-1.70345e-06
0.000866866
-1.78888e-06
0.000867148
-1.77773e-06
0.000867431
-2.02383e-06
0.000867801
-1.99802e-06
0.000868272
-3.37567e-06
0.000869616
-2.20077e-06
-1.57108e-05
0.000869387
0.00102962
1.48958e-05
0.00103284
2.15826e-05
0.0010364
2.1732e-05
0.00104004
2.26631e-05
0.00104357
2.27019e-05
0.00104697
2.194e-05
0.00105012
2.07322e-05
0.00105301
1.94472e-05
0.00105566
1.82634e-05
0.00105807
1.71461e-05
0.00106022
1.60978e-05
0.00106216
1.52488e-05
0.00106386
1.44791e-05
0.00106537
1.38586e-05
0.00106667
1.33734e-05
0.00106777
1.29699e-05
0.00106865
1.26481e-05
0.0010693
1.23474e-05
0.00106968
1.20705e-05
0.00106975
1.17933e-05
0.00106951
1.15159e-05
0.00106894
1.11918e-05
0.00106801
1.08857e-05
0.0010667
1.05689e-05
0.00106504
1.0251e-05
0.00106302
9.91128e-06
0.00106071
9.54554e-06
0.00105818
9.18083e-06
0.00105547
8.77611e-06
0.00105266
8.36709e-06
0.00104977
7.95916e-06
0.00104689
7.51217e-06
0.00104405
7.08807e-06
0.0010413
6.6527e-06
0.00103864
6.23081e-06
0.00103611
5.80729e-06
0.0010337
5.39894e-06
0.00103142
5.00054e-06
0.00102927
4.61545e-06
0.00102725
4.24722e-06
0.00102536
3.8824e-06
0.00102355
3.58906e-06
0.00102184
3.30209e-06
0.00102022
3.03083e-06
0.00101871
2.7727e-06
0.00101729
2.53261e-06
0.00101596
2.30638e-06
0.00101473
2.09107e-06
0.00101358
1.8894e-06
0.0010125
1.6931e-06
0.00101151
1.50786e-06
0.00101058
1.33247e-06
0.00100972
1.15994e-06
0.00100893
9.96782e-07
0.00100819
8.42383e-07
0.00100751
6.93787e-07
0.00100687
5.65032e-07
0.00100628
4.34371e-07
0.00100573
3.12126e-07
0.00100522
1.93183e-07
0.00100474
8.41505e-08
0.00100431
-2.54431e-08
0.00100391
-1.2315e-07
0.00100354
-2.24192e-07
0.00100321
-3.18697e-07
0.00100291
-4.11634e-07
0.00100265
-4.95982e-07
0.00100241
-5.86619e-07
0.0010022
-6.72944e-07
0.00100203
-7.55361e-07
0.00100188
-8.35545e-07
0.00100175
-9.12247e-07
0.00100165
-9.84752e-07
0.00100157
-1.05298e-06
0.00100152
-1.12247e-06
0.00100148
-1.18297e-06
0.00100146
-1.23891e-06
0.00100147
-1.29414e-06
0.00100148
-1.34462e-06
0.00100152
-1.39451e-06
0.00100157
-1.44392e-06
0.00100164
-1.48951e-06
0.00100173
-1.5394e-06
0.00100182
-1.58028e-06
0.00100195
-1.62408e-06
0.00100207
-1.67451e-06
0.00100223
-1.71425e-06
0.00100238
-1.76835e-06
0.00100256
-1.80992e-06
0.00100274
-1.85048e-06
0.00100295
-1.88898e-06
0.00100316
-1.92127e-06
0.0010034
-1.94355e-06
0.00100363
-2.02178e-06
0.0010039
-2.047e-06
0.00100418
-2.30416e-06
0.00100454
-2.35638e-06
0.00100493
-3.76079e-06
0.00100612
-3.39667e-06
-1.54337e-05
0.00100585
0.00113955
1.17858e-05
0.00114322
1.79105e-05
0.00114711
1.78446e-05
0.00115114
1.86309e-05
0.00115511
1.87343e-05
0.00115895
1.80907e-05
0.00116259
1.70992e-05
0.00116599
1.60431e-05
0.00116919
1.50633e-05
0.00117219
1.4146e-05
0.001175
1.32906e-05
0.00117765
1.25978e-05
0.00118015
1.19814e-05
0.00118252
1.1488e-05
0.00118478
1.11114e-05
0.00118694
1.08097e-05
0.00118901
1.05783e-05
0.00119098
1.03732e-05
0.00119286
1.01907e-05
0.00119464
1.00193e-05
0.0011963
9.85865e-06
0.00119782
9.66331e-06
0.00119921
9.49794e-06
0.00120045
9.33309e-06
0.00120151
9.19295e-06
0.00120238
9.04105e-06
0.00120302
8.89975e-06
0.00120345
8.75659e-06
0.0012036
8.62043e-06
0.00120347
8.4939e-06
0.0012031
8.33066e-06
0.00120247
8.14256e-06
0.0012016
7.96181e-06
0.0012005
7.7521e-06
0.00119919
7.53609e-06
0.00119771
7.29155e-06
0.00119607
7.03689e-06
0.00119431
6.76037e-06
0.00119246
6.46916e-06
0.00119054
6.16195e-06
0.00118859
5.83227e-06
0.00118664
5.54097e-06
0.0011847
5.24244e-06
0.0011828
4.9312e-06
0.00118095
4.62758e-06
0.00117916
4.32238e-06
0.00117744
4.02765e-06
0.00117579
3.73487e-06
0.00117423
3.45403e-06
0.00117274
3.17752e-06
0.00117134
2.91091e-06
0.00117001
2.65893e-06
0.00116876
2.41266e-06
0.00116756
2.20168e-06
0.0011664
1.99583e-06
0.0011653
1.79239e-06
0.00116426
1.60981e-06
0.00116327
1.42505e-06
0.00116233
1.24684e-06
0.00116145
1.07474e-06
0.00116063
9.10573e-07
0.00115985
7.50962e-07
0.00115913
5.98779e-07
0.00115845
4.49235e-07
0.00115783
3.03616e-07
0.00115725
1.65267e-07
0.00115672
3.34425e-08
0.00115624
-9.94623e-08
0.00115579
-2.28671e-07
0.00115538
-3.45347e-07
0.00115501
-4.62615e-07
0.00115467
-5.70124e-07
0.00115436
-6.74274e-07
0.00115408
-7.70625e-07
0.00115382
-8.70725e-07
0.0011536
-9.5849e-07
0.00115341
-1.04657e-06
0.00115324
-1.12984e-06
0.00115311
-1.2102e-06
0.001153
-1.28342e-06
0.00115291
-1.36132e-06
0.00115286
-1.43047e-06
0.00115282
-1.50577e-06
0.00115281
-1.57058e-06
0.00115283
-1.64193e-06
0.00115286
-1.70297e-06
0.00115292
-1.77595e-06
0.00115299
-1.83987e-06
0.00115309
-1.91046e-06
0.0011532
-1.96016e-06
0.00115334
-2.02816e-06
0.00115349
-2.07237e-06
0.00115367
-2.11705e-06
0.00115386
-2.21316e-06
0.00115407
-2.25917e-06
0.00115431
-2.54872e-06
0.00115464
-2.68672e-06
0.00115499
-4.10467e-06
0.00115602
-4.42509e-06
-1.50537e-05
0.00115564
0.0012613
8.7211e-06
0.00126542
1.37888e-05
0.00126966
1.36041e-05
0.00127409
1.42035e-05
0.00127848
1.43382e-05
0.00128274
1.38305e-05
0.00128678
1.30623e-05
0.00129058
1.22417e-05
0.00129417
1.14734e-05
0.00129756
1.07593e-05
0.00130075
1.00977e-05
0.00130379
9.55864e-06
0.00130669
9.08421e-06
0.00130947
8.70234e-06
0.00131217
8.41374e-06
0.00131479
8.18593e-06
0.00131736
8.01421e-06
0.00131986
7.86594e-06
0.00132232
7.73594e-06
0.00132472
7.61853e-06
0.00132707
7.51007e-06
0.00132936
7.37542e-06
0.00133159
7.26158e-06
0.00133377
7.15496e-06
0.0013359
7.06775e-06
0.00133796
6.98041e-06
0.00133996
6.90015e-06
0.00134188
6.82944e-06
0.00134374
6.76628e-06
0.0013455
6.72991e-06
0.00134717
6.66317e-06
0.00134872
6.59206e-06
0.00135015
6.52827e-06
0.00135145
6.46028e-06
0.00135259
6.38882e-06
0.00135358
6.30818e-06
0.00135439
6.22713e-06
0.00135502
6.1279e-06
0.00135545
6.03491e-06
0.0013557
5.91789e-06
0.00135571
5.81907e-06
0.00135557
5.68475e-06
0.00135526
5.54668e-06
0.0013548
5.39459e-06
0.00135418
5.24156e-06
0.00135343
5.07243e-06
0.00135256
4.90017e-06
0.00135158
4.71158e-06
0.00135052
4.51874e-06
0.00134939
4.31097e-06
0.0013482
4.09709e-06
0.00134698
3.87938e-06
0.00134574
3.6517e-06
0.0013445
3.44142e-06
0.00134327
3.22922e-06
0.00134205
3.00709e-06
0.00134086
2.80441e-06
0.00133969
2.59233e-06
0.00133856
2.37748e-06
0.00133747
2.16902e-06
0.00133642
1.96102e-06
0.00133541
1.75938e-06
0.00133445
1.55983e-06
0.00133353
1.36551e-06
0.00133266
1.17315e-06
0.00133184
9.88192e-07
0.00133106
8.12275e-07
0.00133031
6.50759e-07
0.00132958
4.95817e-07
0.00132889
3.53629e-07
0.00132822
2.04556e-07
0.00132758
6.5817e-08
0.00132698
-7.33141e-08
0.00132641
-2.02689e-07
0.00132588
-3.40779e-07
0.00132539
-4.62041e-07
0.00132493
-5.87238e-07
0.0013245
-7.0626e-07
0.00132412
-8.24586e-07
0.00132377
-9.33432e-07
0.00132346
-1.0486e-06
0.00132318
-1.15282e-06
0.00132294
-1.26319e-06
0.00132273
-1.36084e-06
0.00132255
-1.46676e-06
0.00132241
-1.55801e-06
0.00132229
-1.66358e-06
0.00132221
-1.75851e-06
0.00132215
-1.85262e-06
0.00132213
-1.93786e-06
0.00132213
-2.02368e-06
0.00132215
-2.09497e-06
0.0013222
-2.16369e-06
0.00132227
-2.28236e-06
0.00132237
-2.36763e-06
0.0013225
-2.67388e-06
0.00132273
-2.92066e-06
0.00132296
-4.33195e-06
0.00132376
-5.22452e-06
-1.45216e-05
0.00132323
0.00139614
5.65798e-06
0.00140075
9.18439e-06
0.00140539
8.95879e-06
0.00141024
9.35366e-06
0.00141511
9.47384e-06
0.00141982
9.11936e-06
0.00142428
8.59741e-06
0.00142849
8.03213e-06
0.00143247
7.49568e-06
0.00143623
7.00351e-06
0.00143977
6.54993e-06
0.00144315
6.17784e-06
0.00144639
5.85261e-06
0.0014495
5.58795e-06
0.00145252
5.38959e-06
0.00145548
5.23488e-06
0.00145837
5.12053e-06
0.00146121
5.02435e-06
0.00146401
4.94019e-06
0.00146676
4.86713e-06
0.00146947
4.80091e-06
0.00147213
4.71144e-06
0.00147476
4.63365e-06
0.00147735
4.56191e-06
0.00147991
4.50561e-06
0.00148245
4.44957e-06
0.00148495
4.39799e-06
0.00148742
4.35303e-06
0.00148987
4.31736e-06
0.0014923
4.30545e-06
0.00149469
4.27018e-06
0.00149705
4.23293e-06
0.00149938
4.20166e-06
0.00150166
4.17439e-06
0.00150391
4.143e-06
0.0015061
4.11227e-06
0.00150825
4.07982e-06
0.00151034
4.0434e-06
0.00151236
4.0083e-06
0.00151431
3.96899e-06
0.00151619
3.94378e-06
0.00151797
3.90317e-06
0.00151966
3.85548e-06
0.00152124
3.80898e-06
0.00152272
3.76165e-06
0.00152408
3.71229e-06
0.00152532
3.66144e-06
0.00152643
3.60548e-06
0.0015274
3.5487e-06
0.00152823
3.48221e-06
0.00152891
3.41816e-06
0.00152945
3.33978e-06
0.00152983
3.26785e-06
0.0015301
3.16848e-06
0.00153024
3.09539e-06
0.00153026
2.98873e-06
0.00153017
2.89115e-06
0.00152999
2.77491e-06
0.00152971
2.65494e-06
0.00152935
2.53042e-06
0.00152891
2.39962e-06
0.00152841
2.26268e-06
0.00152785
2.11986e-06
0.00152724
1.97025e-06
0.0015266
1.81441e-06
0.00152593
1.65798e-06
0.00152525
1.49621e-06
0.00152455
1.3434e-06
0.00152386
1.18736e-06
0.00152317
1.04268e-06
0.00152249
8.85023e-07
0.00152182
7.36213e-07
0.00152117
5.83459e-07
0.00152052
4.38037e-07
0.00151991
2.78534e-07
0.00151931
1.37647e-07
0.00151873
-1.07729e-08
0.00151818
-1.56487e-07
0.00151766
-3.0133e-07
0.00151716
-4.3925e-07
0.0015167
-5.82727e-07
0.00151626
-7.1759e-07
0.00151585
-8.55793e-07
0.00151548
-9.84034e-07
0.00151513
-1.11677e-06
0.00151481
-1.23813e-06
0.00151451
-1.37074e-06
0.00151425
-1.49613e-06
0.00151401
-1.60895e-06
0.00151379
-1.72221e-06
0.00151359
-1.82324e-06
0.00151342
-1.9216e-06
0.00151327
-2.01058e-06
0.00151313
-2.14574e-06
0.00151303
-2.2661e-06
0.00151293
-2.57915e-06
0.00151293
-2.91797e-06
0.00151291
-4.30898e-06
0.00151332
-5.64264e-06
-1.3714e-05
0.00151252
0.00154551
2.52714e-06
0.00155064
4.05342e-06
0.00155576
3.84617e-06
0.00156107
4.03759e-06
0.00156645
4.0919e-06
0.00157167
3.90617e-06
0.0015766
3.65931e-06
0.00158126
3.37237e-06
0.00158567
3.09145e-06
0.00158983
2.84506e-06
0.00159376
2.6196e-06
0.0015975
2.43402e-06
0.00160108
2.27146e-06
0.00160453
2.13647e-06
0.00160789
2.03731e-06
0.00161116
1.96215e-06
0.00161437
1.90996e-06
0.00161752
1.8691e-06
0.00162063
1.83266e-06
0.00162369
1.80605e-06
0.00162671
1.78362e-06
0.00162968
1.73879e-06
0.00163262
1.69628e-06
0.00163552
1.65787e-06
0.0016384
1.63007e-06
0.00164125
1.60113e-06
0.00164407
1.5738e-06
0.00164688
1.54675e-06
0.00164967
1.5313e-06
0.00165244
1.53325e-06
0.00165519
1.51811e-06
0.00165792
1.49845e-06
0.00166064
1.48468e-06
0.00166334
1.47544e-06
0.00166602
1.4631e-06
0.00166868
1.45214e-06
0.00167132
1.43946e-06
0.00167394
1.42631e-06
0.00167654
1.41003e-06
0.00167911
1.39817e-06
0.00168165
1.3952e-06
0.00168417
1.38325e-06
0.00168667
1.36391e-06
0.00168913
1.34883e-06
0.00169156
1.33277e-06
0.00169395
1.31949e-06
0.00169631
1.3043e-06
0.00169862
1.29078e-06
0.00170089
1.27553e-06
0.00170312
1.25976e-06
0.00170529
1.24432e-06
0.0017074
1.22745e-06
0.00170946
1.21066e-06
0.00171144
1.18602e-06
0.00171336
1.17754e-06
0.00171519
1.15376e-06
0.00171695
1.134e-06
0.00171862
1.10672e-06
0.0017202
1.07676e-06
0.00172168
1.04866e-06
0.00172306
1.01723e-06
0.00172434
9.84611e-07
0.00172551
9.48871e-07
0.00172657
9.08679e-07
0.00172752
8.65889e-07
0.00172836
8.20434e-07
0.00172908
7.73625e-07
0.00172971
7.17031e-07
0.00173024
6.55787e-07
0.00173068
5.97117e-07
0.00173104
5.25947e-07
0.00173133
4.54674e-07
0.00173152
3.8598e-07
0.00173166
3.0113e-07
0.00173172
2.22726e-07
0.00173171
1.38902e-07
0.00173166
3.98318e-08
0.00173156
-5.52216e-08
0.00173142
-1.54816e-07
0.00173123
-2.54053e-07
0.00173101
-3.61691e-07
0.00173076
-4.68149e-07
0.00173048
-5.79358e-07
0.00173019
-6.8689e-07
0.00172987
-8.00026e-07
0.00172954
-9.05224e-07
0.00172919
-1.02663e-06
0.00172884
-1.1387e-06
0.00172846
-1.23676e-06
0.00172808
-1.33919e-06
0.00172769
-1.42995e-06
0.00172728
-1.51784e-06
0.00172687
-1.59849e-06
0.00172644
-1.71849e-06
0.00172601
-1.83707e-06
0.00172557
-2.13159e-06
0.00172516
-2.51181e-06
0.0017247
-3.8454e-06
0.00172456
-5.50414e-06
-1.24266e-05
0.00172327
0.001711
-7.93983e-07
0.00171671
-1.64987e-06
0.00172235
-1.79973e-06
0.0017282
-1.81416e-06
0.00173416
-1.86632e-06
0.00173993
-1.86479e-06
0.0017454
-1.80352e-06
0.00175056
-1.78647e-06
0.00175543
-1.78558e-06
0.00176004
-1.75899e-06
0.00176439
-1.73332e-06
0.00176853
-1.71086e-06
0.0017725
-1.6945e-06
0.00177632
-1.68566e-06
0.00178003
-1.67487e-06
0.00178366
-1.66206e-06
0.00178721
-1.64518e-06
0.00179071
-1.62476e-06
0.00179415
-1.60919e-06
0.00179754
-1.58394e-06
0.00180088
-1.55761e-06
0.00180417
-1.5549e-06
0.00180743
-1.55865e-06
0.00181065
-1.56138e-06
0.00181384
-1.5582e-06
0.001817
-1.55851e-06
0.00182013
-1.56058e-06
0.00182325
-1.56981e-06
0.00182634
-1.56486e-06
0.00182943
-1.54831e-06
0.00183249
-1.54501e-06
0.00183553
-1.54779e-06
0.00183856
-1.54538e-06
0.00184158
-1.53893e-06
0.00184458
-1.53447e-06
0.00184756
-1.5291e-06
0.00185052
-1.52547e-06
0.00185347
-1.52056e-06
0.0018564
-1.52373e-06
0.00185932
-1.51555e-06
0.00186222
-1.50297e-06
0.0018651
-1.49767e-06
0.00186796
-1.49835e-06
0.0018708
-1.49664e-06
0.00187363
-1.49503e-06
0.00187644
-1.49143e-06
0.00187924
-1.48899e-06
0.00188201
-1.48489e-06
0.00188477
-1.48227e-06
0.00188751
-1.47881e-06
0.00189023
-1.4763e-06
0.00189293
-1.4702e-06
0.00189561
-1.47145e-06
0.00189826
-1.46794e-06
0.0019009
-1.45646e-06
0.0019035
-1.45231e-06
0.00190608
-1.44755e-06
0.00190864
-1.44466e-06
0.00191116
-1.44418e-06
0.00191364
-1.43933e-06
0.0019161
-1.43617e-06
0.00191851
-1.43018e-06
0.00192089
-1.42637e-06
0.00192322
-1.42149e-06
0.0019255
-1.41754e-06
0.00192773
-1.41045e-06
0.00192991
-1.4023e-06
0.00193202
-1.39768e-06
0.00193407
-1.39261e-06
0.00193605
-1.38455e-06
0.00193796
-1.38085e-06
0.00193979
-1.37494e-06
0.00194153
-1.35826e-06
0.00194319
-1.35587e-06
0.00194475
-1.33933e-06
0.00194622
-1.32809e-06
0.00194758
-1.319e-06
0.00194883
-1.30901e-06
0.00194997
-1.29325e-06
0.001951
-1.27896e-06
0.0019519
-1.26327e-06
0.00195268
-1.24899e-06
0.00195333
-1.23129e-06
0.00195386
-1.21415e-06
0.00195426
-1.19778e-06
0.00195453
-1.17546e-06
0.00195467
-1.17126e-06
0.00195467
-1.13855e-06
0.00195456
-1.13011e-06
0.00195434
-1.11935e-06
0.00195401
-1.0978e-06
0.00195357
-1.07579e-06
0.00195302
-1.05378e-06
0.00195237
-1.06858e-06
0.00195164
-1.10239e-06
0.0019508
-1.29344e-06
0.00194992
-1.62692e-06
0.00194887
-2.79956e-06
0.00194791
-4.54489e-06
-1.03351e-05
0.00194582
0.00171104
-4.14954e-06
0.00171675
-7.36517e-06
0.0017224
-7.44967e-06
0.00172826
-7.67161e-06
0.00173422
-7.82874e-06
0.00174
-7.63658e-06
0.00174546
-7.26424e-06
0.00175062
-6.94629e-06
0.00175549
-6.66377e-06
0.0017601
-6.36281e-06
0.00176445
-6.08684e-06
0.0017686
-5.85565e-06
0.00177256
-5.66057e-06
0.00177638
-5.50823e-06
0.0017801
-5.38741e-06
0.00178372
-5.28677e-06
0.00178728
-5.20071e-06
0.00179077
-5.1187e-06
0.00179421
-5.052e-06
0.0017976
-4.97399e-06
0.00180094
-4.89803e-06
0.00180424
-4.84904e-06
0.00180749
-4.81367e-06
0.00181071
-4.78123e-06
0.0018139
-4.74635e-06
0.00181706
-4.7184e-06
0.0018202
-4.69468e-06
0.00182331
-4.68738e-06
0.00182641
-4.66123e-06
0.00182949
-4.6291e-06
0.00183255
-4.60808e-06
0.0018356
-4.59397e-06
0.00183863
-4.57502e-06
0.00184164
-4.55254e-06
0.00184464
-4.53118e-06
0.00184762
-4.50887e-06
0.00185058
-4.48878e-06
0.00185353
-4.46472e-06
0.00185646
-4.45526e-06
0.00185937
-4.42626e-06
0.00186226
-4.39668e-06
0.00186514
-4.37396e-06
0.001868
-4.3551e-06
0.00187083
-4.33542e-06
0.00187365
-4.31511e-06
0.00187646
-4.29333e-06
0.00187924
-4.27167e-06
0.001882
-4.24834e-06
0.00188475
-4.22561e-06
0.00188747
-4.20098e-06
0.00189017
-4.17759e-06
0.00189284
-4.14535e-06
0.0018955
-4.12729e-06
0.00189813
-4.09359e-06
0.00190072
-4.05509e-06
0.00190329
-4.02055e-06
0.00190583
-3.98346e-06
0.00190833
-3.94581e-06
0.00191079
-3.9065e-06
0.00191322
-3.86207e-06
0.00191559
-3.81404e-06
0.00191792
-3.76163e-06
0.0019202
-3.70577e-06
0.00192243
-3.64635e-06
0.00192459
-3.58149e-06
0.00192669
-3.51064e-06
0.00192872
-3.43387e-06
0.00193068
-3.35571e-06
0.00193256
-3.2739e-06
0.00193436
-3.18042e-06
0.00193607
-3.09356e-06
0.00193769
-2.99173e-06
0.00193921
-2.88184e-06
0.00194063
-2.7756e-06
0.00194195
-2.6572e-06
0.00194316
-2.53686e-06
0.00194426
-2.4162e-06
0.00194524
-2.29063e-06
0.0019461
-2.16016e-06
0.00194685
-2.02606e-06
0.00194748
-1.89317e-06
0.00194799
-1.75754e-06
0.00194839
-1.63184e-06
0.00194868
-1.50736e-06
0.00194887
-1.38857e-06
0.00194896
-1.25901e-06
0.00194893
-1.14065e-06
0.00194881
-1.02032e-06
0.00194859
-9.12884e-07
0.00194828
-8.05375e-07
0.00194787
-6.90178e-07
0.00194737
-5.7643e-07
0.00194678
-4.67287e-07
0.00194611
-3.92997e-07
0.00194536
-3.48229e-07
0.0019445
-4.41245e-07
0.00194358
-7.03843e-07
0.00194248
-1.69515e-06
0.00194129
-3.3581e-06
-8.16037e-06
0.00193911
0.0015456
-7.37359e-06
0.00155077
-1.2526e-05
0.00155589
-1.25734e-05
0.00156122
-1.30026e-05
0.00156661
-1.32211e-05
0.00157183
-1.28526e-05
0.00157676
-1.21968e-05
0.00158142
-1.16086e-05
0.00158583
-1.10711e-05
0.00158999
-1.05205e-05
0.00159392
-1.00189e-05
0.00159766
-9.59902e-06
0.00160125
-9.24203e-06
0.0016047
-8.96068e-06
0.00160805
-8.74063e-06
0.00161133
-8.56068e-06
0.00161454
-8.41232e-06
0.00161769
-8.27386e-06
0.0016208
-8.1621e-06
0.00162386
-8.03471e-06
0.00162688
-7.91299e-06
0.00162985
-7.82221e-06
0.00163279
-7.75082e-06
0.00163569
-7.68559e-06
0.00163857
-7.6204e-06
0.00164141
-7.56535e-06
0.00164423
-7.5159e-06
0.00164704
-7.4933e-06
0.00164982
-7.44418e-06
0.00165259
-7.39517e-06
0.00165534
-7.35524e-06
0.00165806
-7.32215e-06
0.00166077
-7.28397e-06
0.00166346
-7.24206e-06
0.00166613
-7.19978e-06
0.00166878
-7.15549e-06
0.0016714
-7.11298e-06
0.001674
-7.06168e-06
0.00167658
-7.03202e-06
0.00167912
-6.97047e-06
0.00168164
-6.91162e-06
0.00168412
-6.85679e-06
0.00168657
-6.80175e-06
0.00168897
-6.74448e-06
0.00169134
-6.68284e-06
0.00169367
-6.61716e-06
0.00169594
-6.54656e-06
0.00169816
-6.47078e-06
0.00170033
-6.38975e-06
0.00170243
-6.30186e-06
0.00170446
-6.2097e-06
0.00170641
-6.09944e-06
0.00170829
-6.00507e-06
0.00171008
-5.88011e-06
0.00171177
-5.75069e-06
0.00171337
-5.6173e-06
0.00171486
-5.47675e-06
0.00171625
-5.32911e-06
0.00171752
-5.17539e-06
0.00171867
-5.01198e-06
0.00171969
-4.84206e-06
0.0017206
-4.66426e-06
0.00172137
-4.48246e-06
0.00172202
-4.29598e-06
0.00172256
-4.11426e-06
0.00172298
-3.93919e-06
0.00172331
-3.76317e-06
0.00172355
-3.58792e-06
0.00172369
-3.41427e-06
0.00172374
-3.23083e-06
0.0017237
-3.05885e-06
0.0017236
-2.88971e-06
0.00172343
-2.7158e-06
0.00172321
-2.54734e-06
0.00172292
-2.37613e-06
0.0017226
-2.20898e-06
0.00172223
-2.04761e-06
0.00172183
-1.88894e-06
0.0017214
-1.73133e-06
0.00172095
-1.57624e-06
0.00172048
-1.42728e-06
0.00172001
-1.28178e-06
0.00171953
-1.15079e-06
0.00171904
-1.02424e-06
0.00171856
-9.02866e-07
0.00171807
-7.75696e-07
0.00171759
-6.56087e-07
0.00171711
-5.37416e-07
0.00171662
-4.29274e-07
0.00171614
-3.22218e-07
0.00171566
-2.08669e-07
0.00171518
-9.72549e-08
0.0017147
1.15131e-08
0.00171422
8.92105e-08
0.00171373
1.36743e-07
0.00171322
6.81606e-08
0.00171269
-1.68979e-07
0.00171203
-1.03446e-06
0.00171123
-2.55983e-06
-6.57851e-06
0.00170965
0.00139628
-1.05773e-05
0.00140093
-1.71734e-05
0.00140559
-1.72371e-05
0.00141046
-1.78706e-05
0.00141534
-1.80988e-05
0.00142006
-1.75694e-05
0.00142451
-1.6653e-05
0.00142873
-1.58222e-05
0.00143271
-1.50531e-05
0.00143646
-1.42749e-05
0.00144001
-1.35692e-05
0.00144339
-1.29787e-05
0.00144663
-1.24739e-05
0.00144974
-1.20757e-05
0.00145277
-1.17656e-05
0.00145572
-1.15119e-05
0.00145861
-1.13058e-05
0.00146145
-1.1112e-05
0.00146424
-1.09586e-05
0.00146699
-1.07808e-05
0.00146969
-1.06139e-05
0.00147235
-1.04803e-05
0.00147497
-1.03716e-05
0.00147756
-1.02702e-05
0.00148011
-1.01708e-05
0.00148262
-1.0083e-05
0.00148511
-1.00005e-05
0.00148757
-9.95354e-06