/*--------------------------------*- C++ -*----------------------------------*\
| =========                 |                                                 |
| \\      /  F ield         | OpenFOAM: The Open Source CFD Toolbox           |
|  \\    /   O peration     | Version:  v2012                                 |
|   \\  /    A nd           | Website:  www.openfoam.com                      |
|    \\/     M anipulation  |                                                 |
\*---------------------------------------------------------------------------*/
FoamFile
{
    version     2.0;
    format      ascii;
    class       volScalarField;
    location    "0.159";
    object      omega.air;
}
// * * * * * * * * * * * * * * * * * * * * * * * * * * * * * * * * * * * * * //

dimensions      [0 0 -1 0 0 0 0];


internalField   nonuniform List<scalar> 
5600
(
6586.27
7485.52
7886.79
7965.17
7866.42
7687.4
7481.06
7289.89
7125.56
6987.45
6879.38
6795.68
6737.05
6692.45
6664.74
6641.16
6628.15
6613.88
6606.07
6595.91
6589.75
6582.91
6577.01
6574.43
6568.84
6569.35
6564.67
6565.88
6563.35
6562.56
6563.24
6558.48
6562.4
6554.29
6559.71
6551.4
6554.72
6550.35
6548.36
6550.08
6542.44
6548.67
6539.25
6544.76
6539.69
6538.59
6542.83
6532.14
6545.41
6528.57
6544.61
6530.02
6539.11
6535.97
6531.51
6542.68
6526.41
6545.44
6527.27
6542.67
6533.59
6537.22
6540.87
6534.14
6544.36
6536.48
6543.35
6542.77
6540.76
6549.07
6540.59
6552.28
6544.36
6552.44
6550.89
6551.59
6557.39
6551.94
6562.68
6553.73
6567.11
6556.7
6570.82
6560.88
6573.27
6566.25
6574.14
6571.42
6574.72
6574.09
6575.79
6576.41
6570.42
6591.94
6537.28
6652.46
6424.79
6837.36
6027.11
7432.89
2450.5
2296.66
2571.58
2795.22
2928.03
2998.27
3009.91
2968.59
2968.57
3017.76
3072.82
3119.77
3146.29
3159.41
3154.05
3141.18
3117.74
3091.33
3062.08
3032.81
3002.76
2974.76
2944.32
2916.99
2888.93
2863.48
2839.46
2817.59
2797.79
2778.26
2762.16
2745.82
2732.09
2718.64
2707.12
2696.17
2686.05
2677.53
2668.37
2661.35
2653.96
2647.82
2641.81
2636.2
2631.48
2625.89
2622.12
2616.8
2614.02
2608.6
2606.57
2602.28
2599.46
2596.68
2593.21
2591.8
2587.94
2587.67
2583.86
2583.38
2580.85
2579.43
2578.01
2576.23
2575.54
2573.67
2572.96
2571.62
2570.76
2570.04
2568.66
2568.61
2567.21
2567.03
2566.24
2565.94
2565.41
2564.86
2564.93
2563.78
2564.36
2563.19
2563.94
2563.19
2563.92
2563.9
2564.08
2565.38
2564.05
2567.6
2562.75
2571.3
2557.81
2580.73
2541.58
2609.49
2488.89
2701.78
2305.11
3025.02
2358.54
1859.96
1592.08
1427.95
1345.83
1274.25
1279.51
1309.65
1351.29
1413.27
1481.26
1551.01
1609.48
1665.74
1703.04
1735.14
1747.62
1753.43
1743.81
1726.36
1702.9
1676.07
1654.24
1634.4
1619.69
1605.77
1593.1
1581.74
1571.46
1560.75
1551.24
1540.82
1531.49
1521.32
1513.09
1504.12
1496.23
1488.94
1481.49
1475.58
1468.63
1463.98
1457.58
1453.25
1448.13
1443.37
1440.18
1434.44
1433.19
1426.77
1426.43
1421.05
1419.56
1416.61
1413.05
1413
1407.59
1409.12
1403.87
1404.57
1401.38
1399.98
1399.26
1396.26
1396.63
1393.83
1393.38
1392.17
1390.26
1390.71
1387.81
1388.83
1386.28
1386.58
1385.44
1384.41
1384.61
1382.67
1383.64
1381.22
1382.55
1380.17
1381.5
1379.67
1380.7
1380.19
1379.85
1381.66
1378.93
1383.82
1377.19
1387.82
1371.37
1398.28
1355.04
1423.29
1317.96
1472.35
1250.7
1539.47
2345.16
1822.38
1493.2
1267.72
1111.04
992.819
906.53
847.475
801.804
777.961
758.785
770.649
790.094
825.593
859.327
903.721
940.171
979.093
1011.74
1038.14
1063.79
1076.11
1094.89
1097.81
1108.25
1105.57
1103.83
1098.03
1085.59
1080.25
1066.29
1062.07
1053.1
1048.2
1042.81
1036.8
1033.01
1027.43
1023.63
1019.34
1014.72
1011.07
1005.47
1001.92
996.451
992.442
988.581
983.254
981.541
975.379
974.504
969.201
967.539
964.411
960.766
960.325
954.856
955.659
950.474
950.343
947.126
944.996
944.082
940.615
940.369
937.463
936.26
935.088
932.368
932.682
929.343
929.84
927.222
926.776
925.708
923.853
924.186
921.532
922.386
919.628
920.604
918
918.912
916.851
917.308
916.663
915.819
917.3
914.697
918.302
913.556
920.628
909.973
926.739
901.581
937.506
889.996
945.956
888.234
927.202
2341.97
1815.98
1479.8
1247.95
1079.68
952.638
853.081
774.788
710.392
659.237
615.68
582.369
555.683
536.644
523.256
514.665
514.629
519.26
534.61
545.86
572.656
587.175
620.94
638.008
669.598
692.279
710.931
738.994
740.65
768.914
762.015
783.22
778.148
787.247
788.37
784.214
790.522
778.063
783.755
772.744
771.945
768.092
762.17
763.714
755.462
757.69
751.667
750.274
748.853
743.864
744.842
739.59
739.751
736.55
734.093
733.407
728.358
728.957
723.902
723.409
720.457
717.724
716.974
713.199
712.567
709.931
708.022
707.241
703.905
704.156
700.683
700.622
698.329
697.013
696.284
693.7
693.94
690.906
691.37
688.462
688.914
686.254
686.575
684.424
684.306
683.268
682.392
682.606
681.385
682.168
680.853
682.844
679.102
685.717
675.647
689.215
674.302
686.379
682.831
670.91
2341.13
1814.12
1476.77
1243.87
1074.19
945.297
844.376
763.07
696.692
640.869
594.419
553.678
520.177
489.133
465.181
440.495
424.45
404.67
396.161
380.487
378.188
367.913
368.577
370.143
369.973
387.058
383.36
415.571
408.841
449.258
445.525
480.773
490.358
505.856
533.649
528.615
565.571
552.016
581.636
575.433
585.829
594.721
585.894
607.391
587.335
610.635
592.242
605.406
599.015
595.53
602.653
588.624
598.574
587.226
590.501
587.572
583.925
586.303
580.729
582.28
579.836
577.58
578.156
574.687
574.717
573.367
571.164
571.881
568.485
569.392
566.375
566.066
564.691
562.632
562.742
559.628
560.064
556.97
557.273
554.437
554.649
552.128
552.021
550.085
549.524
548.184
547.617
546.335
546.833
544.851
546.3
544.988
544.723
547.083
542.423
548.993
542.905
545.795
548.728
539.651
2340.87
1813.42
1475.78
1242.56
1072.68
943.335
842.285
760.331
693.886
637.097
590.604
548.521
514.741
481.868
456.742
430.172
410.876
389.503
373.443
357.664
342.079
333.072
315.742
314.083
295.305
298.869
282.072
286.254
277.166
275.863
281.291
269.664
291.909
274.271
307.306
289.501
325.108
315.806
341.035
351.527
352.905
390.304
367.543
420.154
392.287
436.089
421.83
444.611
450.732
441.096
476.967
449.697
478.446
459.493
473.448
473.932
471.059
482.363
473.241
482.127
478.058
478.291
480.519
476.235
478.935
476.145
474.952
475.317
471.842
473.07
470.657
470
470.174
467.067
468.869
465.368
466.679
464.085
464.845
462.572
463.116
461.402
461.129
460.245
459.421
458.484
458.437
456.156
458.215
454.45
457.257
455.011
455.028
457.277
452.715
458.694
453.823
455.816
457.835
453.422
2340.76
1813.11
1475.35
1242.02
1072.08
942.604
841.532
759.411
692.978
635.981
589.484
547.232
513.256
480.504
454.562
428.878
407.541
388.288
368.587
355.863
335.922
328.816
309.43
304.178
289.79
279.814
276.632
255.968
266.975
236.056
255.675
224.895
239.451
223.464
220.969
226.61
205.944
228.824
199.101
227.753
204.352
223.844
218.803
221.91
238.272
224.848
257.444
236.213
274.794
252.222
292.993
278.032
300.835
306.798
310.78
332.797
319.965
346.892
342.432
353.444
360.49
357.928
371.223
369.21
377.669
380.163
379.348
385.544
382.643
388.882
388.6
389.441
392.834
388.697
393.691
389.973
393.054
391.366
393.098
391.637
392.573
391.828
391.356
391.311
390.221
389.516
389.588
386.13
389.345
383.453
387.056
383.762
383.253
385.689
380.25
386.16
381.799
382.829
385.011
381.491
2340.71
1812.96
1475.13
1241.78
1071.76
942.313
841.13
759.105
692.467
635.695
588.823
547.012
512.391
480.387
453.463
428.832
406.292
388.081
367.521
354.953
335.628
326.501
310.368
300.171
291.503
274.981
277.134
252.626
263.206
236.689
245.585
229.216
223.671
227.577
201.662
225.259
186.535
215.149
184.247
193.931
194.822
165.23
209.317
140.936
212.586
136.107
196.843
152.177
167.993
184.617
136.271
199.739
133.138
202.953
152.473
187.275
180.363
176.381
200.912
180.826
211.657
199.282
216.673
221.151
224.179
239.566
235.997
253.01
250.566
264.135
267.333
272.938
281.705
280.946
291.492
289.935
299.862
297.781
307.378
305.303
311.289
312.708
313.515
317.912
315.971
319.922
319.761
318.114
323.261
316.854
322.582
318.371
319.374
321.208
316.198
322.196
317.44
319.499
319.726
318.415
2340.69
1812.89
1475.02
1241.68
1071.59
942.222
840.893
759.051
692.138
635.705
588.387
547.084
511.878
480.449
453.002
428.686
406.142
387.429
367.963
353.609
336.641
324.79
311.222
299.208
290.76
276.28
273.529
256.821
257.126
242.106
239.804
232.108
221.956
224.615
206.17
216.084
195.629
203.524
191.871
186.405
193.183
168.238
193.752
156.519
186.38
156.108
169.586
164.114
148.221
173.572
132.092
172.402
131.824
159.344
140.843
141.747
150.298
131.477
148.32
133.691
140.204
140.855
135.642
142.741
135.797
141.336
141.31
143.31
146.75
146.1
148.388
152.454
151.567
160.527
160.505
165.02
171.802
169.758
180.24
177.514
186.889
186.564
192.511
195.907
198.714
203.841
206.373
210.996
214.039
217.389
220.959
222.656
225.707
227.008
228.913
229.147
231.37
230.546
231.951
231.971
2340.68
1812.9
1475.03
1241.71
1071.59
942.273
840.861
759.134
692.066
635.829
588.277
547.232
511.77
480.548
453.004
428.6
406.405
387.02
368.562
352.925
337.347
324.28
311.372
299.675
289.556
278.317
270.816
259.941
254.094
244.46
238.663
231.525
224.4
220.367
211.717
209.97
201.199
199.451
193.103
188.613
186.833
178.397
180.874
170.317
173.876
164.81
166.006
160.921
158.521
157.615
152.337
154.581
147.237
151.969
143.44
149.066
142.209
145.167
144.268
140.543
147.985
138.776
149.72
142.561
149.369
150.521
149.403
158.655
153.365
165.135
162.859
169.643
174.615
174.819
184.721
183.308
193.276
193.812
201.421
204.892
208.446
215.43
215.21
224.089
222.896
230.277
232.007
234.242
240.553
238.418
245.596
243.652
247.232
249.118
246.954
252.673
248.363
252.358
251.558
250.827
2340.71
1813
1475.15
1241.86
1071.74
942.463
841.033
759.357
692.245
636.082
588.463
547.506
511.984
480.813
453.286
428.808
406.807
387.139
369.088
353.012
337.874
324.545
311.64
300.422
289.32
279.696
270.166
261.645
253.658
245.724
239.382
231.633
226.852
219.405
215.477
209.23
204.851
201.051
195.177
194.314
187.286
188.121
182.164
181.917
180.195
176.217
180.562
173.023
181.854
174.298
183.281
180.488
185.572
190.199
190.891
201.061
200.455
212.316
213.487
224.232
228.525
236.848
244.773
249.146
261.498
261.589
275.703
275.717
286.142
290.578
294.711
303.44
303.022
312.997
311.719
319.128
320.687
322.547
328.077
325.496
332.105
329.195
333.214
333.361
332.512
336.46
332.568
336.247
334.193
334.19
335.414
332.44
335.441
332.332
333.788
333.814
332.413
334.788
332.62
335.076
2340.76
1813.17
1475.39
1242.15
1072.07
942.822
841.416
759.774
692.677
636.555
588.948
548.036
512.53
481.4
453.917
429.45
407.56
387.848
370.004
353.84
338.99
325.613
312.979
301.942
290.944
281.976
272.252
265.048
256.626
250.653
244.133
238.67
234.718
229.405
228.13
223.643
224.126
222.342
223.363
226.047
226.983
233.812
235.993
244.867
250.246
258.993
268.151
276.168
287.477
295.58
307.117
315.201
326.335
333.376
344.305
349.835
359.796
364.938
371.949
378.224
381.191
388.514
388.868
394.672
395.809
397.535
401.195
399.586
404.168
402.173
404.968
404.945
404.652
406.874
404.294
407.099
404.486
405.503
404.815
403.228
404.555
401.446
403.142
400.575
400.454
400.128
397.711
398.783
396.229
396.693
395.747
394.843
395.669
394.014
395.227
394.473
394.749
395.327
394.943
396.278
2340.87
1813.49
1475.85
1242.71
1072.73
943.558
842.249
760.682
693.692
637.656
590.18
549.374
514.046
483.07
455.852
431.625
410.144
390.827
373.675
358.124
344.412
331.942
321.162
311.689
303.679
297.182
291.818
288.654
285.951
286.947
288.015
293.406
298.274
307.481
316.235
327.973
340.156
352.865
367.102
379.799
394.369
406.423
419.744
430.815
441.886
451.514
459.626
467.713
472.593
478.968
481.61
485.788
487.944
489.935
492.565
492.381
495.158
493.904
495.513
494.645
494.139
494.33
491.988
492.543
490.039
489.447
488.454
486.417
486.749
484.265
484.56
482.87
482.032
481.584
479.613
479.863
477.704
477.573
476.299
475.2
475.012
473.2
473.392
471.608
471.347
470.173
469.105
468.722
467.319
467.328
466.424
466.339
466.229
465.906
466.268
466.042
466.416
466.481
466.868
467.303
2341.15
1814.19
1476.91
1243.99
1074.37
945.465
844.556
763.344
696.862
641.373
594.588
554.623
520.5
490.963
465.762
443.83
425.823
410.622
398.955
389.547
383.842
379.929
381.134
385.147
393.753
404.312
419.202
434.912
453.66
472.323
491.77
511.616
528.915
547.436
560.986
575.764
585.422
595.194
601.969
607.392
612.489
615.317
618.845
619.822
621.389
621.123
620.6
619.559
617.327
615.919
612.927
611.236
608.954
607.204
605.726
603.571
602.584
600.349
599.154
597.479
595.713
594.722
592.628
591.936
590.008
589.005
587.578
585.905
584.835
582.666
581.691
579.585
578.278
576.634
574.851
573.642
571.665
570.652
568.875
567.715
566.362
564.938
563.939
562.384
561.64
560.26
559.573
558.693
558.038
557.705
557.232
557.263
556.989
557.173
557.076
557.264
557.374
557.477
557.937
558.115
2342.03
1815.98
1480.11
1247.96
1080.28
952.708
854.158
775.206
712.345
660.62
619.072
586.935
562.593
545.513
534.576
530.087
534.441
545.07
561.029
581.059
604.613
630.531
657.796
684.59
711.318
734.393
755.319
770.995
784.477
793.944
801.957
807.314
810.622
812.476
811.536
810.281
806.315
802.873
798.119
794.15
790.684
787.387
784.533
781.38
778.57
775.695
772.873
770.256
767.679
765.31
762.854
760.524
757.963
755.206
752.678
749.806
747.369
744.552
742.161
739.652
737.141
735.073
732.542
730.739
728.344
726.652
724.611
722.799
721.18
719.187
717.786
715.776
714.409
712.612
711.119
709.653
708.09
706.916
705.342
704.338
702.872
701.871
700.662
699.632
698.876
697.877
697.536
696.756
696.658
696.257
696.237
696.231
696.068
696.396
696.116
696.522
696.377
696.639
696.974
697.243
2345.25
1822.39
1493.86
1268.16
1113.23
994.179
912.591
852.017
814.511
787.87
783.658
800.12
829.079
866.045
907.626
950.241
990.274
1027
1058.25
1083.62
1103.44
1118.43
1129.13
1135.67
1137.56
1134.61
1128.14
1118.53
1108.78
1099.36
1091.86
1085.08
1079.08
1073.22
1067.86
1062.6
1057.76
1052.98
1048.4
1043.53
1038.45
1033.39
1028.16
1023.29
1018.4
1013.96
1009.5
1005.47
1001.6
997.938
994.556
991.293
988.334
985.262
982.646
979.743
977.311
974.663
972.343
969.986
967.682
965.72
963.43
961.722
959.586
958.009
956.162
954.607
953.111
951.471
950.218
948.595
947.502
946.007
944.982
943.755
942.682
941.716
940.535
939.834
938.633
938.064
937.078
936.603
936.071
935.608
935.582
935.16
935.43
935.132
935.429
935.38
935.387
935.698
935.384
935.875
935.561
935.994
936.21
936.791
2358.73
1860.91
1594.77
1434.01
1353.99
1288.99
1305.25
1337.29
1392.12
1465.15
1539.73
1610.28
1672.38
1723.07
1760.08
1783.38
1792.54
1788.86
1773.3
1750.19
1724.14
1700.72
1682.16
1666.54
1652.48
1639.51
1627.34
1616
1604.86
1593.91
1582.66
1571.95
1561.58
1551.66
1542.57
1533.58
1525.68
1517.82
1510.9
1504.12
1497.94
1492.07
1486.39
1481.39
1476.34
1471.94
1467.46
1463.58
1459.69
1456.16
1452.9
1449.67
1446.92
1444.03
1441.7
1439.04
1437.01
1434.71
1432.75
1430.81
1428.89
1427.32
1425.4
1424.11
1422.35
1421.12
1419.69
1418.45
1417.29
1416.04
1415.12
1413.93
1413.19
1412.11
1411.48
1410.56
1409.89
1409.14
1408.36
1407.85
1407.04
1406.75
1406.12
1406.07
1405.82
1405.83
1406.01
1405.98
1406.43
1406.34
1406.8
1406.75
1406.92
1407.13
1406.91
1407.38
1407.03
1407.63
1407.84
1408.99
2454.74
2305.68
2580.44
2808.67
2934.22
3010.01
2994.58
2967.45
3014.83
3085.64
3150.03
3196.61
3222.41
3229.88
3222.23
3203.95
3178.36
3148.8
3117.79
3086.34
3054.82
3023.06
2991.95
2961.71
2933.55
2907.28
2882.79
2860.63
2839.71
2821.2
2803.47
2787.98
2773.32
2760.23
2748.29
2737.06
2727.32
2717.79
2709.6
2701.68
2694.64
2688.1
2681.9
2676.43
2670.8
2665.87
2660.95
2656.49
2652.17
2648.14
2644.51
2640.78
2637.71
2634.53
2631.78
2629.06
2626.64
2624.35
2622.08
2620.17
2618.09
2616.43
2614.58
2613.16
2611.59
2610.2
2609.04
2607.77
2606.68
2605.68
2604.72
2603.9
2603.08
2602.42
2601.86
2601.27
2600.82
2600.22
2599.82
2599.32
2599.03
2598.72
2598.64
2598.68
2598.81
2599.11
2599.35
2599.75
2600.12
2600.37
2600.71
2600.8
2601.03
2601.06
2601.13
2601.31
2601.15
2601.72
2602.05
2603.78
6588.08
7481.93
7876.77
7936
7826.38
7629.93
7415.08
7222.09
7053.55
6914.35
6805.38
6723.41
6664.03
6621.63
6591.85
6570.23
6554.28
6541.58
6531.22
6522.46
6514.94
6508.89
6504.01
6500.34
6497.37
6495.19
6493.16
6492.03
6490.25
6489.27
6487.1
6485.71
6483.23
6481.32
6478.94
6476.49
6474.49
6471.62
6470.03
6467.14
6465.75
6463.31
6461.83
6460.18
6458.42
6457.64
6455.65
6455.4
6453.49
6453.3
6451.92
6451.33
6450.98
6449.65
6450.45
6448.56
6450.08
6448.38
6449.62
6449.17
6449.31
6450.47
6449.53
6451.83
6450.57
6453.04
6452.5
6454.14
6454.98
6455.56
6457.68
6457.69
6460.43
6460.53
6463.12
6463.87
6465.81
6467.56
6468.68
6471.41
6471.99
6475.22
6475.88
6478.67
6480.02
6481.55
6483.78
6483.83
6486.39
6485.67
6487.55
6487.15
6487.53
6488.17
6486.92
6488.29
6486.31
6486.92
6484.82
6482.11
5444.66
3361.23
2410.03
1943.82
1662.94
1479.35
1347.65
1246.91
1166.17
1098.85
1041.27
989.739
943.308
899.311
858.177
818.222
780.822
746.414
713.941
685.958
665.073
638.154
615.895
588.558
555.482
545.908
516.573
464.608
432.814
402.959
381.463
396.341
425.583
440.302
439.015
427.919
410.155
388.786
369.24
354.061
342.926
334.959
327.5
318.83
309.569
299
285.324
267.372
245.884
222.814
200.199
179.137
160.079
143.177
128.436
115.786
105.21
96.6949
90.1495
85.2902
81.7949
79.3782
77.7952
76.8499
76.368
76.1861
76.1348
76.0744
75.9217
75.6697
75.3527
75.0287
74.744
74.5297
74.3838
74.2949
74.2415
74.2132
74.1961
74.1887
74.183
74.1817
74.1792
74.1797
74.178
74.1791
74.1777
74.1789
74.1775
74.1788
74.1774
74.1788
74.1772
74.1785
74.1767
74.1778
74.1758
74.1764
74.1746
74.1787
1626.23
2575.86
2356.69
1984.01
1701.86
1502.48
1357.75
1246.9
1158.91
1086.92
1026.73
973.496
926.411
881.656
840.451
799.638
761.957
727.436
695.486
666.243
646.981
619.222
595.903
572.187
537.744
523.112
487.217
418.254
373.572
359.493
357.295
361.242
396.418
422.708
429.125
421.974
405.99
385.405
366.012
350.684
339.112
330.086
321.192
311.602
302.103
291.586
277.881
259.877
238.477
215.581
192.977
171.856
152.754
135.861
121.356
109.356
99.8158
92.5682
87.2338
83.3665
80.5946
78.6529
77.3484
76.5473
76.1236
75.959
75.9145
75.873
75.7486
75.5323
75.252
74.9634
74.6987
74.4938
74.3481
74.2605
74.2049
74.1772
74.1576
74.1512
74.1432
74.1435
74.1388
74.1413
74.1374
74.1407
74.1368
74.1406
74.1366
74.1407
74.1364
74.1407
74.1362
74.1408
74.136
74.1407
74.1357
74.141
74.137
74.1477
1166.95
1410.74
1791.4
1797.2
1643.64
1478.06
1341.94
1230.97
1141.39
1067.49
1005.99
951.672
904.597
859.459
818.762
777.159
739.618
704.935
673.992
642.575
623.095
593.171
565.969
546.608
510.538
475.161
410.145
341.914
333.034
345.651
374.083
371.636
372.5
400.275
415.046
413.518
400.43
381.109
361.998
346.535
334.507
324.266
313.939
303.607
293.955
283.453
269.66
251.597
230.147
207.166
184.485
163.281
144.09
127.394
113.597
102.792
94.7475
88.9762
84.859
81.8937
79.7271
78.1551
77.0507
76.3406
75.9413
75.7712
75.7167
75.6826
75.5839
75.4067
75.1656
74.9143
74.6733
74.4806
74.3357
74.248
74.1885
74.1599
74.1368
74.1306
74.1198
74.1213
74.1143
74.1186
74.1124
74.1179
74.1117
74.1179
74.1113
74.118
74.111
74.1183
74.1108
74.1187
74.1108
74.1194
74.1115
74.1215
74.1153
74.1332
913.952
852.894
1023.94
1244.39
1339.71
1315.66
1244.97
1164.06
1090.74
1025.74
969.852
918.595
874.065
830.221
790.74
748.342
711.089
675.032
644
607.09
580.708
544.24
508.495
490.642
443.486
355.161
274.228
291.748
362.673
391.976
410.409
422.674
388.113
383.127
397.56
401.687
392.693
375.38
356.835
341.318
328.806
317.35
305.797
294.886
285.122
274.603
260.686
242.381
220.631
197.395
174.506
153.111
134.102
118.246
105.886
96.8546
90.543
86.1888
83.1179
80.8693
79.1564
77.8473
76.8733
76.2103
75.8083
75.6159
75.5398
75.5051
75.4296
75.2943
75.0937
74.8758
74.6579
74.4824
74.3433
74.2572
74.1937
74.1633
74.1357
74.1289
74.115
74.1173
74.1078
74.1136
74.1052
74.1127
74.1042
74.1127
74.1037
74.1129
74.1033
74.1134
74.1031
74.1141
74.1033
74.1156
74.105
74.1197
74.1117
74.1368
691.617
665.273
676.482
739.524
837.968
922.373
962.615
964.507
947.54
919.201
887.653
851.946
816.881
779.937
742.548
699.987
663.303
621.899
583.54
530.16
470.102
414.806
357.286
287.098
242.528
242.236
296.293
348.837
414.739
445.072
447.198
461.54
436.995
390.354
383.12
386.978
381.974
367.51
350.009
334.612
321.577
308.964
296.473
285.309
275.706
265.454
251.611
232.928
210.498
186.612
163.252
141.92
123.841
109.698
99.4144
92.3323
87.5618
84.3139
81.9964
80.2412
78.8331
77.6953
76.7974
76.1488
75.7237
75.4953
75.3873
75.3423
75.2818
75.1834
75.0228
74.8403
74.6504
74.4978
74.3695
74.2874
74.2208
74.1881
74.1559
74.1477
74.1304
74.1328
74.121
74.1279
74.1175
74.1265
74.116
74.1264
74.1153
74.1267
74.1149
74.1273
74.1147
74.1284
74.1152
74.1306
74.1177
74.1366
74.1271
74.1587
547.642
542.713
539.693
542.848
551.619
576.059
602.814
631.365
659.153
680.348
691.814
694.652
682.19
667.64
631.351
593.312
555.847
497.023
389.594
298.983
225.642
185.212
159.19
205.826
262.038
312.563
365.998
410.779
461.376
488.726
483.262
488.211
481.297
426.76
384.635
374.236
368.745
356.802
340.806
325.773
312.19
298.681
286.006
275.698
267.435
258.726
245.958
227.134
203.413
177.898
153.579
132.567
115.952
103.787
95.3678
89.7156
85.9247
83.321
81.4263
79.9508
78.7209
77.6835
76.8229
76.1656
75.7016
75.4237
75.2708
75.2002
75.1392
75.0666
74.9459
74.8071
74.6531
74.5269
74.4118
74.3352
74.2674
74.2331
74.1972
74.1874
74.1671
74.1692
74.1553
74.1628
74.1508
74.1609
74.149
74.1606
74.1481
74.161
74.1476
74.1617
74.1475
74.1629
74.1482
74.1656
74.1514
74.1729
74.1626
74.1987
455.438
454.744
453.868
451.325
443.9
438.873
432.95
427.924
427.865
432.831
435.422
447.299
442.965
438.714
405.272
370.117
311.481
199.942
137.932
167.162
211.415
253.628
309.608
347.067
355.102
376.524
421.074
465.904
506.184
527.441
519.709
514.286
512.912
472.969
411.697
375.013
358.377
344.512
329.091
314.396
300.522
287.551
277.534
271.335
267.687
263.33
253.704
235.635
209.962
181.071
153.886
131.486
114.671
102.821
94.7678
89.3753
85.7408
83.2359
81.4176
80.0116
78.8391
77.8354
76.9744
76.2845
75.7628
75.4173
75.2005
75.0848
75.0048
74.9445
74.859
74.7655
74.6489
74.5493
74.4484
74.3803
74.3148
74.2822
74.2449
74.2354
74.2132
74.2158
74.2001
74.2085
74.1949
74.2062
74.1928
74.2059
74.1918
74.2062
74.1913
74.2069
74.1911
74.2083
74.1919
74.2112
74.1955
74.2191
74.2078
74.2466
383.67
384.834
386.022
383.957
377.649
369.612
359.505
346.388
336.124
323.627
309.685
296.637
285.441
248.032
239.851
202.355
166.231
213.835
276.569
309.209
328.109
349.012
365.53
375.421
387.513
421.95
475.602
522.277
552.473
564.575
555.567
542.937
539.869
515.274
456.703
400.333
363.865
339.629
320.78
305.501
293.059
285.33
284.035
287.011
290.699
291.073
283.858
265.638
236.941
203.08
170.659
143.781
123.457
108.979
99.0249
92.3101
87.7804
84.6832
82.4805
80.833
79.5073
78.3969
77.4381
76.6452
76.0107
75.5554
75.2391
75.0503
74.9253
74.8557
74.7845
74.7237
74.6365
74.5646
74.4803
74.4287
74.3699
74.3468
74.3102
74.3069
74.2825
74.2901
74.2707
74.2839
74.2657
74.2822
74.2634
74.2822
74.2622
74.2828
74.2614
74.2839
74.261
74.2856
74.2618
74.2892
74.2659
74.2983
74.2804
74.3287
319.342
318.986
319.574
317.154
310.35
303.631
291.402
279.214
268.669
253.372
243.195
234.537
219.496
221.935
223.478
238.818
279.966
318.895
342.083
361.04
381.009
398.265
410.078
421.217
445.182
491.126
546.034
584.426
597.421
595.815
584.203
569.618
564.277
552.147
506.808
447.096
396.047
358.706
333.948
319.1
313.001
315.621
324.12
332.603
337.069
334.809
323.43
301.088
268.919
231.909
196.194
165.859
142.053
124.147
111.06
101.736
95.1514
90.4823
87.0596
84.45
82.341
80.6018
79.1284
77.9179
76.9276
76.1928
75.6515
75.3101
75.0735
74.9518
74.8504
74.8039
74.729
74.6963
74.6298
74.6174
74.5667
74.5751
74.5345
74.5568
74.5194
74.5503
74.512
74.5492
74.5078
74.5503
74.5048
74.5523
74.5022
74.5549
74.5
74.5581
74.4984
74.5628
74.4988
74.571
74.506
74.5899
74.5349
74.6434
230.97
232.238
230.934
229.871
227.191
223.415
221.105
218.364
219.382
221.285
228.891
239.638
254.5
277.838
304.978
335.506
367.5
393.27
412.42
429.492
444.263
453.852
462.826
483.748
525.023
579.043
624.024
637.32
625.058
609.198
596.064
585.333
582.422
580.956
555.018
504.303
451.398
409.092
383.932
374.322
375.207
380.961
385.837
387.183
383.789
373.781
355.398
328.559
295.114
258.765
223.743
193.258
168.71
149.789
135.24
124.072
115.382
108.557
102.912
98.0513
93.6269
89.6764
86.1825
83.2972
80.9204
79.1634
77.8368
76.998
76.3821
76.0806
75.8293
75.7963
75.7057
75.7919
75.7494
75.8756
75.8226
75.9544
75.871
76.0044
75.8914
76.0328
75.8947
76.0501
75.8898
76.0633
75.8808
76.076
75.8703
76.089
75.8603
76.1044
75.8519
76.1268
75.8518
76.1656
75.879
76.2506
75.9959
76.4613
254.481
251.545
255.83
256.8
261.006
269.414
276.038
290.051
302.537
316.227
333.152
346.921
364.337
383.593
400.889
421.129
441.047
457.357
474.071
490.598
502.855
512.667
532.486
571.744
624.11
669.156
680.17
654.389
619.714
595.952
584.542
581.591
586.722
596.548
591.162
558.102
514.537
479.064
459.169
450.177
446.113
442.349
435.69
426.655
414.571
397.214
373.813
345.642
314.773
283.116
252.34
224.484
201.201
183.197
169.479
158.942
150.271
143.045
136.453
130.275
123.748
117.068
110.041
103.544
97.6113
93.0045
89.2473
86.8363
84.934
84.0903
83.3635
83.5183
83.4428
84.082
84.1543
84.8693
84.7911
85.4339
85.1451
85.7464
85.2879
85.9084
85.3212
85.998
85.306
86.0618
85.2659
86.1237
85.2153
86.1866
85.1686
86.2559
85.1353
86.3516
85.1449
86.5228
85.278
86.9108
85.8093
87.8565
334.972
335.874
338.551
340.789
347.603
353.755
363.074
373.156
382.296
393.202
403.191
414.119
427.235
441.205
457.722
477.067
497.308
520.04
543.229
560.878
573.82
593.227
630.204
678.822
718.849
724.373
685.748
629.671
587.602
567.09
561.933
566.328
578.072
595.403
605.484
592.215
564.677
540.583
521.517
504.79
488.754
472.251
456.113
440.483
423.121
402.312
378.714
353.88
328.591
303.08
277.909
254.768
234.819
218.633
205.676
195.553
187.009
180.123
174.09
169.217
164.281
159.456
153.539
147.596
141.035
135.616
130.445
127.165
124.239
123.397
122.621
123.77
124.263
126.197
126.724
128.538
128.522
130.024
129.437
130.795
129.782
131.182
129.855
131.397
129.811
131.551
129.706
131.708
129.57
131.873
129.445
132.042
129.371
132.252
129.423
132.628
129.776
133.54
131.043
135.843
396.391
397.927
399.643
403.123
408.605
415.147
424.064
433.082
443.097
453.765
464.282
476.597
490.005
506.717
526.629
549.288
577.801
609.422
634.233
651.393
671.075
703.954
746.362
778.762
775.133
723.212
648.741
589.577
557.861
546.334
546.236
553.442
566.494
584.434
599.552
600.119
586.01
564.885
539.262
514.253
492.417
473.003
455.814
438.926
419.846
398.832
377.679
357.297
337.112
316.939
297.456
280.075
265.282
252.918
242.047
232.566
224.156
217.462
212.144
208.777
206.616
205.769
204.896
204.359
203.217
202.543
201.545
201.462
201.265
202.285
203.168
205.168
206.516
208.559
209.493
211.043
211.314
212.42
212.158
213.08
212.455
213.402
212.5
213.593
212.435
213.751
212.31
213.925
212.146
214.136
211.965
214.391
211.812
214.732
211.783
215.302
212.125
216.533
213.601
219.534
467.983
469.243
470.976
474.873
480.211
487.723
497.129
507.129
518.685
530.254
543.076
557.485
574.123
596.218
620.896
652.4
692.858
727.779
749.913
769.918
797.992
831.385
852.271
835.733
769.186
679.8
606.634
563.673
545.377
540.758
542.496
548.653
558.791
572.364
585.042
589.347
579.76
557.662
530.354
506.222
487.836
473.252
459.734
443.659
423.724
402.533
382.47
363.926
346.327
330.027
315.84
304.36
295.134
287.559
281.098
275.546
270.549
266.109
262.364
260.03
259.474
260.788
263.298
266.418
269.561
272.465
274.951
277.075
278.941
280.686
282.422
284.059
285.526
286.715
287.678
288.364
288.868
289.184
289.389
289.542
289.571
289.702
289.594
289.806
289.539
289.916
289.439
290.057
289.299
290.257
289.107
290.555
288.878
291.016
288.697
291.775
288.863
293.204
290.241
296.459
559.167
560.296
562.628
567.118
573.714
583.314
595.015
608.34
623.24
638.601
655.475
673.918
696.274
724.181
756.001
799.451
845.515
873.44
891.993
913.901
936.668
941.763
907.814
827.871
726.789
640.665
586.553
561.511
554.133
553.629
554.667
557.029
561.286
567.781
574.435
575.789
565.866
545.825
524.321
508.565
499.317
493.199
484.723
469.412
448.188
425.814
405.096
386.423
369.978
356.798
347.49
341.634
338.017
335.706
334.239
333.327
332.929
333.005
333.66
334.765
336.252
338.053
340.313
342.868
345.608
348.087
350.357
352.166
353.916
355.452
357.182
358.64
360.079
361.115
362.08
362.661
363.197
363.435
363.691
363.771
363.867
363.917
363.891
364.012
363.84
364.12
363.74
364.269
363.589
364.495
363.373
364.853
363.092
365.428
362.838
366.419
362.938
368.28
364.506
372.396
698.588
699.959
703.212
708.995
718.247
731.491
747.723
766.415
786.573
807.043
828.266
851.293
878.022
910.454
949.734
997.915
1034.27
1047.29
1059.37
1068.58
1055.31
1002.87
910.885
800.159
700.929
633.368
599.78
590.091
591.04
592.708
591.521
588.393
584.896
582.644
581.344
577.384
567.044
553.495
544.513
543.222
547.384
551.874
548.023
531.951
508.329
483.785
461.352
441.828
426.465
416.735
412.618
412.612
414.851
418.133
421.863
425.672
429.569
433.441
437.331
441.057
444.585
447.776
450.622
453.016
454.972
456.511
457.819
459.035
460.377
461.868
463.479
464.982
466.286
467.332
468.132
468.723
469.109
469.385
469.522
469.656
469.66
469.767
469.678
469.839
469.639
469.926
469.557
470.054
469.426
470.263
469.224
470.635
468.931
471.312
468.597
472.631
468.53
475.276
470.21
480.861
938.546
940.578
945.209
953.531
967.33
986.565
1009.79
1035.44
1061.27
1085.24
1108.08
1131.18
1155.96
1189.14
1227.15
1260.47
1272.29
1265.55
1255.93
1223.17
1150.98
1046.27
925.062
811.703
727.351
679.923
664.242
667.428
675.186
678.231
674.314
664.97
652.711
640.511
629.998
620.294
612.323
612.049
623.971
644.446
667.362
684.323
682.787
662.746
635.023
607.537
583.116
562.927
549.716
544.93
547.346
554.112
562.803
571.909
580.584
588.382
595.291
601.28
606.434
610.686
614.096
616.687
618.647
620.093
621.23
622.188
623.121
624.146
625.333
626.673
627.99
629.229
630.228
631.078
631.674
632.155
632.425
632.642
632.726
632.818
632.82
632.882
632.839
632.922
632.825
632.972
632.783
633.057