/*--------------------------------*- C++ -*----------------------------------*\
| =========                 |                                                 |
| \\      /  F ield         | OpenFOAM: The Open Source CFD Toolbox           |
|  \\    /   O peration     | Version:  v2012                                 |
|   \\  /    A nd           | Website:  www.openfoam.com                      |
|    \\/     M anipulation  |                                                 |
\*---------------------------------------------------------------------------*/
FoamFile
{
    version     2.0;
    format      ascii;
    class       Cloud<basicKinematicParcel>;
    location    "0.038/lagrangian/kinematicCloud";
    object      coordinates;
}
// * * * * * * * * * * * * * * * * * * * * * * * * * * * * * * * * * * * * * //

41
(
(0.120379 0.373073 0.0667375 0.43981) 200 191 2
(0.37589 0.214621 0.312055 0.0974334) 400 79 1
(0.294029 0.142828 0.210158 0.352985) 59 119 1
(0.198671 0.400665 0.154463 0.246202) 29 38 1
(0.419473 0.0990252 0.290263 0.191238) 78 157 2
(0.423287 0.265723 0.288357 0.0226337) 68 134 1
(0.394249 0.302876 0.00993192 0.292944) 5 8 2
(0.427101 0.28645 0.105386 0.181063) 87 172 2
(0.412613 0.101872 0.293693 0.191822) 86 173 2
(0.555044 0.222478 0.0741741 0.148304) 36 70 2
(0.264921 0.367539 0.34257 0.0249692) 36 70 2
(0.0997823 0.219363 0.450109 0.230746) 15 31 2
(0.093483 0.453259 0.41206 0.0411987) 91 7619 1
(0.0445715 0.0217674 0.455947 0.477714) 0 7500 1
(0.439639 0.205117 0.075064 0.280181) 92 182 1
(0.158577 0.308812 0.420711 0.1119) 44 86 1
(0.0554636 0.156045 0.472268 0.316224) 3 7 2
(0.259183 0.370408 0.263564 0.106845) 93 167 1
(0.209401 0.175679 0.395299 0.21962) 13 24 1
(0.220382 0.389809 0.262072 0.127738) 83 164 2
(0.495588 0.252206 0.0627959 0.18941) 72 144 2
(0.642545 0.178728 0.0490864 0.129641) 91 7619 1
(0.347147 0.169821 0.326427 0.156605) 72 142 1
(0.293853 0.353073 0.158526 0.194547) 11 22 2
(0.431098 0.0309132 0.253538 0.284451) 31 43 2
(0.719814 0.102363 0.140093 0.0377305) 71 143 2
(0.657809 0.171096 0.0589687 0.112127) 11 20 2
(0.252794 0.373603 0.246835 0.126768) 81 143 1
(0.0698785 0.465061 0.39384 0.0712204) 0 0 2
(0.298717 0.185822 0.350642 0.16482) 81 160 1
(0.12874 0.43563 0.309357 0.126273) 0 7500 2
(0.469272 0.032166 0.265364 0.233198) 0 1 2
(0.575604 0.212198 0.177759 0.0344387) 90 7618 1
(0.805849 0.0970756 0.0337597 0.0633159) 50 101 1
(0.312261 0.34387 0.282789 0.0610808) 20 21 1
(0.209249 0.395375 0.0549411 0.340434) 60 121 1
(0.370497 0.314752 0.226164 0.0885881) 30 61 1
(0.35534 0.32233 0.17664 0.14569) 30 61 1
(0.0592836 0.470358 0.305937 0.164421) 60 121 1
(0.193513 0.403244 0.262421 0.140823) 0 7472 1
(0.509265 0.079694 0.245368 0.165674) 20 7474 2
)


// ************************************************************************* //
