/*--------------------------------*- C++ -*----------------------------------*\
| =========                 |                                                 |
| \\      /  F ield         | OpenFOAM: The Open Source CFD Toolbox           |
|  \\    /   O peration     | Version:  v2012                                 |
|   \\  /    A nd           | Website:  www.openfoam.com                      |
|    \\/     M anipulation  |                                                 |
\*---------------------------------------------------------------------------*/
FoamFile
{
    version     2.0;
    format      ascii;
    class       volScalarField;
    location    "0.129";
    object      k.air;
}
// * * * * * * * * * * * * * * * * * * * * * * * * * * * * * * * * * * * * * //

dimensions      [0 2 -2 0 0 0 0];


internalField   nonuniform List<scalar> 
5600
(
0.653005
1.47016
2.41654
3.0786
3.37877
3.4189
3.31514
3.14808
2.97061
2.81226
2.67467
2.562
2.47537
2.41424
2.37429
2.35315
2.34323
2.34369
2.34693
2.3535
2.35943
2.36464
2.36906
2.37181
2.37487
2.37648
2.37924
2.38061
2.3833
2.38445
2.38701
2.38777
2.38961
2.38978
2.39062
2.39014
2.39032
2.38928
2.38917
2.38772
2.3875
2.38577
2.38557
2.38381
2.38367
2.38204
2.3821
2.3806
2.38091
2.37945
2.38
2.37855
2.37929
2.37788
2.37879
2.37739
2.37853
2.37711
2.37854
2.37717
2.37884
2.37755
2.37946
2.37821
2.38047
2.37913
2.38183
2.38032
2.38346
2.3818
2.38536
2.38356
2.38746
2.38556
2.38978
2.38774
2.3924
2.39016
2.39541
2.39285
2.39872
2.39571
2.4021
2.39873
2.40534
2.40203
2.40818
2.40595
2.41
2.41147
2.40933
2.42116
2.40242
2.44216
2.37581
2.49904
2.27952
2.68592
1.89457
3.36832
0.402604
0.37893
0.397474
0.451439
0.512598
0.589692
0.674796
0.792775
0.939507
1.10188
1.28367
1.47612
1.66771
1.85393
2.02186
2.17197
2.29547
2.39585
2.47086
2.52589
2.56353
2.58787
2.60618
2.61639
2.6276
2.63291
2.6424
2.64468
2.65204
2.65223
2.65686
2.65482
2.65668
2.65323
2.65351
2.64966
2.64979
2.64578
2.64655
2.64233
2.64374
2.63972
2.64153
2.63815
2.64045
2.63761
2.64042
2.63754
2.64088
2.63776
2.64151
2.63823
2.64226
2.63889
2.64336
2.63978
2.64499
2.64106
2.64714
2.64302
2.64973
2.64558
2.65278
2.64851
2.6565
2.65163
2.66064
2.65492
2.66487
2.65847
2.66923
2.66237
2.67385
2.66643
2.6785
2.67016
2.68322
2.67374
2.68848
2.67754
2.69434
2.68171
2.70043
2.68612
2.70633
2.6909
2.71166
2.69656
2.71526
2.705
2.71443
2.72023
2.70278
2.7515
2.66615
2.82196
2.56431
2.99223
2.27824
3.39954
0.405065
0.345445
0.301094
0.271553
0.252054
0.239616
0.23512
0.235933
0.247722
0.266841
0.294522
0.336765
0.386385
0.452909
0.525349
0.612592
0.704994
0.806181
0.911099
1.01741
1.12451
1.22774
1.33043
1.42701
1.52191
1.60051
1.67231
1.72602
1.77794
1.81372
1.84956
1.87452
1.9009
1.91879
1.93857
1.95173
1.96787
1.97679
1.99061
1.99628
2.00854
2.01251
2.02374
2.02709
2.03767
2.04054
2.05089
2.05265
2.06286
2.0635
2.0735
2.07337
2.08311
2.08235
2.09231
2.0908
2.10142
2.09913
2.11036
2.10766
2.11918
2.11619
2.12804
2.12435
2.13711
2.13216
2.14611
2.13974
2.15458
2.14727
2.16279
2.1549
2.171
2.16237
2.17913
2.16921
2.18711
2.1754
2.19542
2.18155
2.20424
2.18791
2.21321
2.19418
2.22208
2.20025
2.23073
2.20635
2.23847
2.21352
2.244
2.22383
2.24461
2.24131
2.23447
2.27502
2.20064
2.34052
2.12653
2.39107
0.405853
0.344567
0.298391
0.262188
0.235491
0.212084
0.194847
0.180378
0.167292
0.161129
0.15086
0.152331
0.146637
0.154674
0.156922
0.171279
0.185333
0.207696
0.236291
0.270263
0.314679
0.362795
0.422902
0.485231
0.560952
0.637326
0.72511
0.808074
0.897964
0.976059
1.0546
1.12102
1.18628
1.24046
1.29234
1.33377
1.37601
1.40747
1.44324
1.46753
1.4989
1.51906
1.54705
1.56393
1.58807
1.60052
1.6215
1.63026
1.64945
1.65557
1.67335
1.67779
1.69455
1.69761
1.71429
1.71596
1.73307
1.73342
1.75058
1.75016
1.76703
1.76586
1.78275
1.78017
1.79791
1.79348
1.81226
1.80619
1.82553
1.81845
1.83814
1.83044
1.85054
1.8421
1.86286
1.85291
1.87484
1.8627
1.88682
1.87221
1.89903
1.88178
1.91113
1.89098
1.92301
1.8996
1.93459
1.90803
1.94528
1.9171
1.95415
1.92804
1.95987
1.94304
1.95997
1.96484
1.95269
1.98996
1.95127
1.97486
0.406217
0.344057
0.298904
0.261826
0.234856
0.211519
0.191535
0.178566
0.160264
0.155106
0.137718
0.136854
0.122138
0.122144
0.112048
0.110897
0.106481
0.104046
0.105248
0.103236
0.109476
0.110183
0.122281
0.127764
0.147735
0.161062
0.191532
0.21624
0.258586
0.296087
0.347522
0.394989
0.452522
0.507464
0.570718
0.628779
0.692323
0.745886
0.806333
0.853576
0.908577
0.949761
0.99857
1.03401
1.07696
1.10553
1.1441
1.1667
1.20154
1.21946
1.25109
1.26583
1.29522
1.30724
1.33581
1.3452
1.37304
1.3794
1.40563
1.4102
1.43498
1.43789
1.46207
1.46255
1.48722
1.48519
1.5104
1.50657
1.53165
1.52689
1.55158
1.54634
1.57079
1.56464
1.58914
1.58118
1.60645
1.5961
1.62302
1.6103
1.63917
1.62431
1.65483
1.63771
1.66993
1.65034
1.68436
1.66283
1.69759
1.67598
1.70899
1.69032
1.71813
1.70646
1.72486
1.72393
1.73123
1.73716
1.74638
1.73118
0.406731
0.343465
0.299099
0.262038
0.234062
0.212996
0.189689
0.180693
0.158219
0.156521
0.136356
0.136402
0.121226
0.119387
0.110125
0.105408
0.101416
0.0942516
0.0942312
0.0856709
0.0884714
0.0789292
0.0846771
0.0739837
0.0826158
0.0721608
0.082499
0.0746865
0.0859329
0.0832702
0.0956437
0.0994094
0.115545
0.124983
0.148422
0.163522
0.195872
0.216168
0.256052
0.282244
0.326635
0.357876
0.40487
0.439478
0.489825
0.525953
0.577023
0.610611
0.660421
0.691035
0.738024
0.765415
0.809506
0.832651
0.874855
0.893562
0.934097
0.948932
0.986808
0.999666
1.03529
1.04572
1.08026
1.08722
1.1217
1.12555
1.15975
1.16177
1.19486
1.196
1.22772
1.22829
1.25873
1.25793
1.28745
1.28469
1.31392
1.30871
1.33828
1.33117
1.36117
1.35297
1.38294
1.37379
1.40357
1.39354
1.42287
1.41299
1.44061
1.43258
1.45677
1.45205
1.47159
1.47096
1.48579
1.48848
1.50082
1.50249
1.5178
1.51297
0.407176
0.343281
0.29874
0.262817
0.232634
0.214714
0.187812
0.18238
0.157114
0.157042
0.136752
0.135554
0.122649
0.117958
0.11153
0.104079
0.102293
0.0928518
0.0946898
0.0834807
0.0885651
0.0752838
0.0836304
0.0686271
0.0784327
0.0644749
0.0726409
0.0619119
0.0675735
0.0597874
0.0644214
0.0571092
0.0644355
0.0543899
0.0666562
0.0542745
0.0704016
0.0585967
0.0762381
0.0684166
0.0867655
0.0832617
0.104437
0.104365
0.130595
0.133472
0.164982
0.171922
0.206915
0.218501
0.256206
0.271575
0.312398
0.328849
0.372474
0.389428
0.434509
0.453332
0.498169
0.516747
0.56045
0.577479
0.621034
0.634912
0.678363
0.689488
0.7318
0.741492
0.781462
0.7903
0.827631
0.835823
0.871127
0.878488
0.912698
0.918787
0.951887
0.955978
0.987989
0.990902
1.02167
1.02462
1.05381
1.05689
1.08439
1.08759
1.11312
1.11737
1.14011
1.1462
1.16562
1.17313
1.1893
1.19779
1.21177
1.22056
1.23329
1.24156
1.25269
1.26144
0.407214
0.34373
0.298018
0.263762
0.231551
0.215524
0.187269
0.182259
0.157743
0.155842
0.13826
0.134005
0.124104
0.116915
0.112355
0.103646
0.10275
0.0924603
0.0953508
0.0826974
0.0894418
0.0745158
0.0838292
0.0688738
0.0770098
0.0660007
0.0698514
0.0634177
0.0648107
0.0591771
0.0626384
0.0532066
0.0624086
0.0475296
0.0611937
0.0446561
0.0580918
0.0438286
0.0549493
0.0429209
0.0540982
0.0406788
0.0554117
0.0391128
0.0572129
0.040128
0.0588785
0.0443052
0.0626532
0.0499965
0.0702968
0.0580091
0.0823055
0.0701811
0.0972644
0.0885293
0.116403
0.112769
0.141227
0.141318
0.172354
0.17414
0.208802
0.211724
0.24873
0.254116
0.291571
0.300287
0.336971
0.348263
0.383679
0.396717
0.431608
0.446475
0.480558
0.495196
0.528126
0.541739
0.572947
0.586409
0.615737
0.630194
0.657754
0.672744
0.698422
0.71345
0.736889
0.752441
0.773338
0.789534
0.807978
0.824159
0.840462
0.856701
0.871235
0.8877
0.900129
0.917112
0.926277
0.944158
0.40688
0.344402
0.297557
0.264085
0.231736
0.214739
0.188586
0.180379
0.159727
0.153818
0.139834
0.132884
0.124609
0.116911
0.112029
0.104227
0.102199
0.0930729
0.0948738
0.0833405
0.0886174
0.0759101
0.0818716
0.0714889
0.0740387
0.069132
0.0669504
0.0658553
0.0630951
0.0601094
0.0622114
0.0534228
0.0615848
0.0488503
0.0584494
0.0475829
0.053647
0.0469212
0.0504592
0.0440575
0.0501539
0.0396619
0.0501882
0.0369424
0.048168
0.0365806
0.0451621
0.0361846
0.0442066
0.033651
0.0453371
0.031026
0.0459536
0.0309238
0.0445886
0.0331703
0.0438259
0.0351371
0.0458364
0.0363321
0.0503113
0.0391779
0.0554166
0.0452706
0.0611978
0.0545259
0.0693574
0.0664477
0.0808281
0.081246
0.0956329
0.0991833
0.114264
0.120755
0.137299
0.145752
0.163556
0.173598
0.191536
0.203795
0.22201
0.237178
0.256501
0.273865
0.293788
0.312387
0.331922
0.351643
0.370526
0.391018
0.409157
0.429876
0.447183
0.467309
0.483269
0.503012
0.517954
0.537134
0.550892
0.568721
0.406584
0.344685
0.297727
0.26356
0.232941
0.213047
0.190669
0.178152
0.161699
0.152201
0.140768
0.132456
0.124465
0.117368
0.1113
0.105174
0.101064
0.0945125
0.0932219
0.0853312
0.0864406
0.0783249
0.0794474
0.0738241
0.0720205
0.0707945
0.0656266
0.0669964
0.0619923
0.0613814
0.0606368
0.0555084
0.0590311
0.051854
0.0553181
0.0507269
0.0507457
0.0495683
0.0480377
0.0463936
0.0475285
0.0425385
0.0466556
0.0405622
0.043892
0.0402891
0.0408771
0.0392258
0.0398756
0.0363453
0.0400731
0.0338502
0.0389623
0.0334652
0.0362479
0.0338543
0.0343314
0.0327932
0.0342168
0.0307655
0.0343652
0.0297222
0.0334572
0.029924
0.0322149
0.0303207
0.0316969
0.0306085
0.03178
0.0313074
0.0322058
0.0325741
0.0334289
0.0343459
0.0358028
0.0370474
0.0391528
0.0411
0.0434351
0.0464374
0.0492063
0.0534978
0.0575071
0.0632245
0.0685289
0.0756525
0.0820172
0.0906525
0.0984424
0.10863
0.118033
0.12965
0.140406
0.153
0.164786
0.178215
0.19136
0.205598
0.220009
0.23468
0.406494
0.344608
0.298118
0.262916
0.233962
0.21186
0.191971
0.176944
0.162681
0.151477
0.141175
0.132217
0.124526
0.117374
0.111135
0.105563
0.100337
0.095656
0.0917345
0.0870741
0.0847007
0.0798718
0.0783363
0.0743884
0.0720038
0.0704026
0.0661219
0.0666842
0.0618211
0.0621252
0.0593259
0.0571746
0.0572708
0.0534084
0.0541636
0.0514424
0.0503299
0.0499312
0.0474445
0.0474008
0.0460514
0.044317
0.0448062
0.0421898
0.0426023
0.0411954
0.0401511
0.0400053
0.0387425
0.0379203
0.0381227
0.0359631
0.0369932
0.035091
0.0351453
0.034683
0.0337193
0.0337016
0.0331862
0.0324365
0.0328223
0.0317334
0.0321839
0.0316406
0.0316904
0.0317699
0.0317614
0.0321447
0.0323869
0.0330897
0.0335884
0.0348014
0.0356638
0.0373949
0.0388598
0.0411753
0.0433876
0.0464965
0.0495955
0.0535996
0.0576843
0.0626932
0.0679438
0.0742203
0.080764
0.0884839
0.0963715
0.105549
0.114958
0.125598
0.136634
0.148608
0.161005
0.174231
0.187741
0.201925
0.216497
0.23167
0.247496
0.263811
0.40648
0.344485
0.298385
0.262543
0.234467
0.211372
0.19244
0.17663
0.162857
0.151448
0.141124
0.132251
0.124556
0.117221
0.111344
0.105363
0.10039
0.0958368
0.0912676
0.0877928
0.0838429
0.0806938
0.0777354
0.0745885
0.0722584
0.0696997
0.0670616
0.0657087
0.0625123
0.0618567
0.0590541
0.057847
0.0563755
0.0542233
0.053655
0.0515416
0.0506347
0.0494964
0.0478931
0.0473727
0.0458761
0.0450762
0.0442738
0.0431057
0.0426257
0.0417091
0.0410206
0.0406205
0.0398769
0.039641
0.0393199
0.0390287
0.0392147
0.039165
0.0396541
0.0401822
0.0410686
0.0422254
0.0438317
0.045725
0.0482155
0.0511436
0.0546749
0.0588703
0.0637589
0.0693923
0.0759135
0.083228
0.0915497
0.1008
0.111074
0.122386
0.13458
0.147631
0.161561
0.176387
0.192015
0.208531
0.225681
0.243491
0.261762
0.280472
0.299574
0.319018
0.338719
0.35864
0.378565
0.398635
0.418568
0.438984
0.458979
0.478918
0.498388
0.517757
0.53652
0.555154
0.573209
0.591239
0.608957
0.626775
0.406405
0.344535
0.298424
0.262462
0.234657
0.211166
0.192681
0.17645
0.162956
0.151467
0.140982
0.132459
0.124306
0.117402
0.11124
0.10531
0.100536
0.095594
0.0914783
0.0876381
0.0838277
0.0808313
0.0774602
0.0748465
0.0720753
0.0696673
0.0673183
0.065276
0.0630676
0.0614553
0.0594171
0.0579794
0.0563794
0.0548748
0.0537826
0.0523295
0.0515203
0.050434
0.0497435
0.0491832
0.0487387
0.0487118
0.0488007
0.049365
0.0503034
0.0516875
0.0537832
0.0563423
0.0598903
0.0641183
0.0694231
0.0758029
0.083307
0.0921502
0.10238
0.113901
0.127278
0.141704
0.157846
0.175022
0.193698
0.213476
0.234458
0.256445
0.27941
0.303041
0.32746
0.352127
0.377431
0.402678
0.428506
0.45448
0.480216
0.505516
0.530572
0.555231
0.579489
0.603313
0.626537
0.649206
0.671197
0.692608
0.713451
0.733766
0.753625
0.77298
0.791858
0.810309
0.828307
0.8459
0.863143
0.880249
0.896874
0.913278
0.929067
0.944645
0.959641
0.974548
0.989088
1.00376
0.40633
0.34468
0.298298
0.262599
0.234577
0.211175
0.192739
0.176305
0.163099
0.151301
0.141032
0.132452
0.124145
0.117576
0.110965
0.10548
0.100385
0.095564
0.091579
0.0874424
0.0840643
0.0807331
0.0776503
0.075076
0.0722785
0.0702517
0.0679033
0.0662396
0.064488
0.0632068
0.0621337
0.0614562
0.0612021
0.0614811
0.0623874
0.0640762
0.0667314
0.0704127
0.0754839
0.081942
0.090103
0.100171
0.112118
0.126545
0.143188
0.16216
0.183312
0.206577
0.231954
0.259065
0.287847
0.317921
0.348982
0.380904
0.41332
0.446589
0.480521
0.513985
0.547044
0.57931
0.611004
0.641801
0.671781
0.70088
0.729017
0.75628
0.782619
0.808082
0.83276
0.856589
0.879658
0.901812
0.923455
0.94442
0.964867
0.984684
1.0039
1.02249
1.04039
1.05768
1.07432
1.09045
1.10612
1.12138
1.13632
1.1509
1.16515
1.17918
1.19276
1.20593
1.21869
1.23115
1.24323
1.25503
1.26639
1.2776
1.2884
1.29917
1.30969
1.32045
0.406309
0.344781
0.29815
0.26277
0.234353
0.211309
0.192576
0.176283
0.163085
0.151132
0.141099
0.132301
0.124153
0.11764
0.110894
0.105853
0.100458
0.0962701
0.0922257
0.0886662
0.0857953
0.0830685
0.0811453
0.0796807
0.0787901
0.079099
0.0799112
0.0826075
0.0864152
0.0925665
0.100828
0.111827
0.12595
0.14349
0.165024
0.190276
0.219188
0.251567
0.287068
0.325132
0.365338
0.407184
0.450596
0.496071
0.541908
0.587245
0.63159
0.674727
0.716385
0.756324
0.794559
0.830959
0.865625
0.89865
0.929992
0.959803
0.98788
1.01476
1.04051
1.06495
1.08842
1.11072
1.13213
1.15265
1.17235
1.1914
1.2098
1.22768
1.24505
1.26194
1.27814
1.29349
1.30821
1.32226
1.33585
1.34892
1.36155
1.37371
1.38537
1.39661
1.40743
1.41792
1.42814
1.43807
1.44786
1.45737
1.46679
1.47598
1.48513
1.49407
1.50291
1.51155
1.52008
1.52836
1.53648
1.54449
1.55228
1.56009
1.56776
1.57577
0.406304
0.344817
0.298011
0.262848
0.234079
0.211441
0.192341
0.17647
0.163115
0.151477
0.141684
0.133254
0.125768
0.120094
0.114408
0.111247
0.107588
0.106938
0.106152
0.108447
0.111757
0.118372
0.127393
0.140701
0.157883
0.18128
0.209821
0.246038
0.28777
0.335589
0.387366
0.443264
0.502699
0.565293
0.629551
0.692829
0.754205
0.813134
0.868997
0.921716
0.971133
1.01739
1.06051
1.1002
1.13675
1.17056
1.2017
1.23052
1.25728
1.28222
1.30575
1.328
1.34928
1.36969
1.38918
1.40751
1.42467
1.44094
1.45637
1.47095
1.48494
1.49817
1.51091
1.52309
1.53478
1.5461
1.55702
1.56763
1.57802
1.58809
1.59805
1.60755
1.61676
1.62565
1.63434
1.64276
1.65099
1.65894
1.66661
1.67404
1.68127
1.68829
1.69521
1.70191
1.70861
1.71511
1.72166
1.728
1.73445
1.74071
1.74707
1.75322
1.75947
1.76545
1.77154
1.7774
1.78332
1.78914
1.795
1.8013
0.406174
0.344841
0.29777
0.263105
0.234439
0.213018
0.194603
0.180527
0.169018
0.160638
0.15497
0.152572
0.153024
0.1578
0.165655
0.179721
0.197482
0.223576
0.254575
0.295404
0.342276
0.398963
0.461899
0.534534
0.613823
0.700387
0.789468
0.880956
0.968304
1.05017
1.12505
1.1936
1.25506
1.30944
1.35724
1.39975
1.43753
1.47146
1.50213
1.53042
1.55661
1.58127
1.60375
1.62432
1.64257
1.65902
1.67396
1.6877
1.70039
1.71219
1.72332
1.73382
1.74391
1.75364
1.7631
1.77235
1.78124
1.78995
1.79838
1.80651
1.81447
1.82207
1.82953
1.83671
1.84368
1.85048
1.85711
1.86356
1.86995
1.87615
1.88234
1.88839
1.89444
1.90037
1.90625
1.91197
1.91762
1.9231
1.92849
1.93372
1.93889
1.94388
1.94889
1.95373
1.95864
1.96338
1.96825
1.97291
1.97775
1.98239
1.98721
1.99179
1.99658
2.00106
2.00583
2.01019
2.01492
2.01936
2.02395
2.02903
0.405145
0.345814
0.300501
0.273159
0.251792
0.243251
0.237165
0.242491
0.256007
0.278185
0.311227
0.356629
0.414077
0.483913
0.564689
0.656209
0.755563
0.8625
0.971939
1.08427
1.19381
1.30283
1.40667
1.50927
1.60001
1.67788
1.74302
1.79712
1.8426
1.87981
1.91073
1.93721
1.95933
1.97839
1.99499
2.00953
2.02212
2.03317
2.04284
2.05159
2.05955
2.0671
2.07428
2.08115
2.08787
2.09427
2.1003
2.10603
2.11139
2.11647
2.12131
2.12591
2.13039
2.13475
2.13905
2.1434
2.14765
2.15198
2.15627
2.16056
2.16489
2.16912
2.17341
2.17759
2.18176
2.18585
2.18992
2.19388
2.19789
2.20175
2.20567
2.20952
2.21342
2.21724
2.22104
2.22475
2.22845
2.232
2.23561
2.23913
2.24265
2.24604
2.24953
2.25292
2.25644
2.25984
2.26339
2.26678
2.27038
2.27377
2.2774
2.28078
2.28441
2.28774
2.2914
2.29466
2.29833
2.30175
2.3053
2.30938
0.402021
0.380633
0.398961
0.460121
0.520762
0.610054
0.694817
0.833868
0.986039
1.1595
1.35063
1.54928
1.74687
1.93368
2.10341
2.25027
2.37164
2.46737
2.53837
2.58951
2.62331
2.64676
2.66213
2.67344
2.68255
2.6902
2.69631
2.70103
2.70443
2.70671
2.70739
2.70704
2.70551
2.70352
2.70105
2.69867
2.69626
2.69405
2.69187
2.68996
2.68816
2.68671
2.68554
2.68471
2.68419
2.68383
2.6836
2.68347
2.68338
2.68337
2.6834
2.68348
2.68365
2.68389
2.68424
2.68476
2.68537
2.68619
2.68712
2.68822
2.68949
2.69083
2.69236
2.69391
2.6956
2.6973
2.69912
2.70092
2.70282
2.70472
2.7067
2.7087
2.71081
2.7129
2.71503
2.71712
2.71925
2.7213
2.72344
2.72554
2.72772
2.72988
2.73215
2.7344
2.7368
2.73915
2.74167
2.74407
2.74668
2.74913
2.75179
2.75427
2.75695
2.75945
2.76214
2.76471
2.76735
2.77009
2.77272
2.77561
0.651827
1.46961
2.41428
3.07066
3.36111
3.39276
3.28083
3.10741
2.92907
2.77005
2.63149
2.51966
2.4348
2.37615
2.33914
2.31996
2.3127
2.31365
2.31821
2.32462
2.33039
2.33554
2.33936
2.34239
2.34496
2.34724
2.3495
2.35158
2.35352
2.35535
2.35687
2.35818
2.35895
2.35935
2.35931
2.35895
2.3583
2.35746
2.35645
2.35534
2.35414
2.35291
2.3517
2.35051
2.34943
2.34842
2.34751
2.3467
2.34595
2.34527
2.34465
2.34409
2.34357
2.34311
2.3427
2.34236
2.34207
2.34189
2.34177
2.34176
2.34183
2.34198
2.34223
2.34256
2.34298
2.34347
2.34404
2.34466
2.34536
2.34611
2.34693
2.34779
2.34873
2.34971
2.35074
2.3518
2.35291
2.35404
2.35523
2.35647
2.35779
2.35914
2.36057
2.36202
2.36354
2.36505
2.36664
2.3682
2.36982
2.37141
2.37306
2.37466
2.37633
2.37797
2.37966
2.38134
2.38298
2.38455
2.38563
2.38594
0.0552624
9.05171
11.5244
12.3031
12.8531
13.0449
12.9447
12.6611
12.2628
11.845
11.4338
11.0477
10.6999
10.3897
10.11
9.85152
9.60528
9.3654
9.12574
8.88639
8.64481
8.40099
8.15408
7.9078
7.66036
7.41287
7.16761
6.92547
6.68826
6.45299
6.22096
5.99262
5.76847
5.5482
5.33248
5.12042
4.91137
4.70627
4.50406
4.30188
4.09878
3.89638
3.69535
3.49435
3.29388
3.09878
2.91315
2.73753
2.57333
2.42369
2.28818
2.16274
2.04402
1.93247
1.83079
1.74087
1.66099
1.58754
1.52035
1.46641
1.43221
1.41324
1.39433
1.36432
1.32592
1.29182
1.27158
1.26582
1.26929
1.27934
1.2961
1.31713
1.33591
1.34586
1.34173
1.32279
1.29194
1.25438
1.21382
1.17284
1.13142
1.08972
1.04705
1.00306
0.956187
0.905391
0.850102
0.789416
0.724278
0.653912
0.581748
0.507579
0.436804
0.36753
0.306938
0.247056
0.202358
0.151114
0.127076
0.0799401
1.36376
4.21592
8.10279
9.93607
10.8673
11.2488
11.2863
11.0984
10.7809
10.4228
10.0673
9.74277
9.46439
9.22746
9.02279
8.84026
8.66895
8.50459
8.33987
8.17252
7.99962
7.82031
7.63294
7.44044
7.2421
7.03867
6.8322
6.62393
6.41602
6.20648
5.99691
5.78669
5.57669
5.36836
5.16266
4.95873
4.75592
4.55537
4.35631
4.156
3.95359
3.75122
3.55021
3.34953
3.15013
2.95757
2.77642
2.60698
2.45038
2.3098
2.18439
2.0693
1.96092
1.85989
1.76879
1.68888
1.61829
1.55401
1.49657
1.45256
1.42727
1.41531
1.40138
1.37408
1.33529
1.29695
1.26944
1.25557
1.2524
1.25767
1.27057
1.28824
1.30411
1.31167
1.30586
1.28587
1.25466
1.21748
1.17809
1.13887
1.09974
1.06051
1.02024
0.978364
0.93328
0.883952
0.829799
0.770106
0.705697
0.636182
0.564481
0.49095
0.420229
0.351463
0.290647
0.23182
0.186918
0.138015
0.113706
0.0703187
2.11934
2.00016
3.82992
6.07357
7.70127
8.5687
8.94576
9.00814
8.89314
8.68816
8.45616
8.24186
8.05348
7.89438
7.76421
7.65463
7.55594
7.46601
7.37553
7.2807
7.17838
7.06683
6.94418
6.81213
6.6705
6.52036
6.36249
6.19813
6.02887
5.85501
5.67729
5.49616
5.30948
5.11944
4.92884
4.73742
4.54475
4.35219
4.1594
3.96384
3.76485
3.5651
3.36672
3.16912
2.97376
2.78684
2.61344
2.45354
2.30792
2.17982
2.06791
1.96647
1.87168
1.78445
1.70714
1.64018
1.58139
1.52859
1.48318
1.45116
1.43618
1.43166
1.42226
1.39665
1.35631
1.31246
1.27611
1.25222
1.24019
1.23853
1.24573
1.25845
1.27017
1.27438
1.26626
1.24493
1.21328
1.17657
1.13858
1.1015
1.06513
1.02888
0.991526
0.952174
0.909205
0.861563
0.80871
0.750071
0.686445
0.617731
0.54652
0.473567
0.402983
0.334689
0.27385
0.216111
0.171393
0.125029
0.100935
0.0616991
2.00388
1.84818
2.07308
2.83698
4.02566
5.12616
5.87944
6.29168
6.47819
6.52795
6.50461
6.46416
6.41581
6.37055
6.33823
6.31649
6.30189
6.28467
6.26357
6.23659
6.20126
6.15487
6.09634
6.02627
5.94442
5.85259
5.74941
5.63617
5.51314
5.38365
5.24609
5.10417
4.95008
4.78621
4.61714
4.4438
4.26622
4.08622
3.90383
3.71692
3.52512
3.3317
3.13969
2.94913
2.7621
2.58526
2.42416
2.27843
2.14842
2.03736
1.9433
1.85959
1.78232
1.71275
1.65293
1.60216
1.55786
1.51887
1.48771
1.46966
1.46627
1.46933
1.46348
1.43792
1.39426
1.34332
1.29646
1.26054
1.23723
1.22607
1.22527
1.23102
1.23687
1.23631
1.22477
1.20143
1.16907
1.1328
1.09643
1.06189
1.02878
0.996072
0.96216
0.925746
0.885182
0.839374
0.78788
0.730255
0.66736
0.599318
0.528547
0.456065
0.385643
0.317761
0.257058
0.200442
0.156285
0.112607
0.0892047
0.0542935
1.76601
1.72867
1.71251
1.79884
2.04846
2.45906
2.93702
3.38669
3.75006
4.02111
4.21283
4.3632
4.48658
4.59049
4.686
4.77499
4.86259
4.93395
4.99279
5.04023
5.07536
5.09775
5.10647
5.10139
5.08233
5.05024
5.00351
4.94422
4.87205
4.79087
4.69726
4.59789
4.48299
4.35385
4.21416
4.06595
3.90993
3.74843
3.58195
3.40904
3.22973
3.04799
2.86781
2.69007
2.51754
2.35706
2.21449
2.08913
1.9808
1.89255
1.82155
1.76022
1.70475
1.65681
1.61795
1.58611
1.55841
1.5349
1.51943
1.51636
1.52495
1.53515
1.53157
1.50414
1.45504
1.39508
1.33593
1.28594
1.24887
1.22535
1.21376
1.21001
1.20778
1.20061
1.1842
1.15789
1.12441
1.08854
1.05406
1.02253
0.993277
0.964696
0.934768
0.901701
0.863794
0.819902
0.769733
0.712996
0.65068
0.583113
0.512639
0.440438
0.370078
0.302428
0.241881
0.186257
0.142889
0.101768
0.0794032
0.0484716
1.525
1.52739
1.51008
1.49291
1.49348
1.52824
1.58925
1.6799
1.79466
1.93316
2.08941
2.26168
2.44706
2.63632
2.82795
3.01326
3.19557
3.36347
3.51433
3.64823
3.76407
3.86444
3.94795
4.01383
4.06208
4.09241
4.1048
4.10294
4.08587
4.0571
4.01227
3.95852
3.88937
3.80393
3.70254
3.58833
3.46258
3.32767
3.18462
3.03316
2.87405
2.71195
2.55178
2.3955
2.24636
2.11107
1.9957
1.89904
1.82029
1.76191
1.7198
1.68558
1.65598
1.63295
1.61733
1.6057
1.59513
1.58726
1.58726
1.59868
1.61844
1.63463
1.63189
1.60094
1.54449
1.47356
1.40035
1.33436
1.28112
1.24224
1.21667
1.20041
1.18742
1.17137
1.14835
1.11787
1.08278
1.04739
1.01522
0.987335
0.962614
0.938751
0.913295
0.883912
0.848814
0.80679
0.757767
0.701657
0.639645
0.572271
0.501866
0.42968
0.359182
0.291451
0.230917
0.175902
0.133258
0.0940831
0.0727404
0.0447226
1.26461
1.27524
1.27207
1.25393
1.22476
1.19275
1.15847
1.12441
1.09353
1.06769
1.0523
1.05338
1.07853
1.13405
1.22639
1.35216
1.51094
1.69272
1.88555
2.08001
2.26684
2.44098
2.59928
2.7392
2.85924
2.95881
3.03764
3.1003
3.14462
3.17446
3.18512
3.18202
3.16252
3.12554
3.07133
3.00164
2.91733
2.81979
2.71024
2.59054
2.4626
2.33171
2.20352
2.08091
1.96724
1.86902
1.79204
1.7342
1.69393
1.67262
1.66437
1.66054
1.65888
1.66145
1.66823
1.67481
1.67889
1.68394
1.69664
1.72008
1.74885
1.76923
1.76607
1.73082
1.66614
1.58296
1.4943
1.41097
1.33953
1.28248
1.23965
1.2076
1.18085
1.15339
1.12182
1.08601
1.04895
1.01439
0.98532
0.961953
0.94252
0.923891
0.903233
0.877679
0.84535
0.804955
0.756723
0.70084
0.638755
0.571244
0.500655
0.428215
0.357371
0.289154
0.228344
0.173187
0.130746
0.0921117
0.0711608
0.0440968
0.946223
0.964678
0.972249
0.964091
0.940968
0.906622
0.86381
0.815223
0.764515
0.713891
0.665788
0.624281
0.590144
0.567223
0.558033
0.564539
0.591693
0.643017
0.71976
0.824669
0.954269
1.10257
1.26404
1.43088
1.59398
1.74908
1.88858
2.01282
2.11852
2.20795
2.27699
2.3283
2.36164
2.37657
2.37368
2.35301
2.31452
2.26066
2.1949
2.11891
2.0353
1.94959
1.8677
1.79257
1.72739
1.67831
1.65028
1.63984
1.6442
1.66281
1.68816
1.71258
1.73545
1.7586
1.78131
1.79891
1.81051
1.82188
1.84185
1.87306
1.90771
1.93036
1.92642
1.88785
1.81633
1.72155
1.61769
1.51673
1.42597
1.34874
1.28607
1.23542
1.1922
1.15099
1.10925
1.06736
1.02857
0.995904
0.971333
0.953637
0.94019
0.927031
0.91111
0.889114
0.859167
0.819895
0.771896
0.715714
0.653131
0.585162
0.514208
0.44133
0.370103
0.300993
0.239728
0.18341
0.140416
0.100018
0.0785112
0.0492818
0.57904
0.596866
0.608669
0.608502
0.595713
0.572178
0.5415
0.507288
0.474235
0.445841
0.42432
0.411859
0.407738
0.411993
0.423315
0.439899
0.46122
0.487228
0.516767
0.552975
0.595679
0.648092
0.712213
0.788961
0.876372
0.975377
1.08031
1.18858
1.29545
1.39865
1.49277
1.57591
1.64585
1.69853
1.73608
1.75879
1.76454
1.75628
1.73919
1.71424
1.68382
1.65287
1.62668
1.6075
1.59814
1.60401
1.628
1.66456
1.70917
1.75971
1.80888
1.85134
1.888
1.92014
1.94661
1.96311
1.97114
1.98005
2.00115
2.03586
2.07352
2.09747
2.09415
2.05554
1.98137
1.87893
1.76278
1.64562
1.53578
1.43784
1.35418
1.28345
1.22216
1.16587
1.11329
1.06579
1.0269
0.998373
0.980312
0.969427
0.962198
0.954166
0.942231
0.922889
0.894377
0.855401
0.806824
0.749757
0.686231
0.61753
0.546182
0.472742
0.40155
0.331274
0.270027
0.211409
0.168247
0.123716
0.101909
0.0669354
0.248641
0.262818
0.275966
0.28563
0.291789
0.296205
0.302077
0.312252
0.32965
0.355262
0.389023
0.429825
0.474936
0.522386
0.569768
0.615791
0.659244
0.700718
0.739147
0.775445
0.809636
0.841186
0.87251
0.90442
0.937082
0.973149
1.01218
1.05523
1.10204
1.15304
1.20565
1.25863
1.31093
1.35719
1.3988
1.43596
1.46634
1.49007
1.50903
1.52451
1.53857
1.55461
1.57604
1.60385
1.64026
1.6893
1.75087
1.81707
1.8827
1.94591
2.00112
2.04549
2.08062
2.10673
2.12204
2.12361
2.11743
2.11778
2.13699
2.1734
2.21312
2.23949
2.24032
2.20702
2.13665
2.03371
1.91108
1.78151
1.65496
1.53797
1.43438
1.34428
1.26543
1.19472
1.1328
1.08248
1.04703
1.02598
1.01629
1.01245
1.01059
1.0064
0.996683
0.97837
0.949648
0.909899
0.859714
0.801356
0.736476
0.667013
0.595623
0.52174
0.451937
0.380787
0.321657
0.259996
0.22008
0.171082
0.151981
0.110483
0.280631
0.297273
0.315991
0.338823
0.368052
0.404666
0.449742
0.502688
0.562376
0.626627
0.693601
0.759493
0.821887
0.879782
0.932555
0.980165
1.02324
1.06238
1.09747
1.12994
1.15932
1.18718
1.21334
1.23805
1.26141
1.28469
1.30745
1.33043
1.3534
1.37754
1.40078
1.42387
1.44766
1.47114
1.49456
1.51832
1.54197
1.5658
1.59023
1.61609
1.64437
1.67672
1.71513
1.76015
1.81371
1.8778
1.94823
2.01589
2.07743
2.13169
2.17479
2.20602
2.22646
2.23447
2.22836
2.20838
2.18685
2.18133
2.20179
2.2416
2.28477
2.31647
2.32569
2.30304
2.24314
2.14753
2.02602
1.89057
1.75316
1.62242
1.5039
1.3991
1.30684
1.22611
1.16011
1.11285
1.08575
1.07469
1.07273
1.07377
1.07452
1.07151
1.06119
1.04175
1.01077
0.969373
0.916762
0.857437
0.791235
0.721925
0.651486
0.578647
0.512603
0.443104
0.390544
0.329931
0.296799
0.246958
0.232546
0.189937
0.644633
0.662256
0.682546
0.709202
0.744492
0.788596
0.84051
0.898348
0.959598
1.02142
1.08126
1.13764
1.18938
1.23637
1.27886
1.31745
1.35323
1.38616
1.41658
1.44535
1.47228
1.49795
1.52265
1.54614
1.56835
1.58948
1.60924
1.62723
1.64364
1.65879
1.67273
1.68565
1.69812
1.71015
1.72205
1.73422
1.747
1.76111
1.77681
1.79531
1.81733
1.84434
1.87846
1.92022
1.97004
2.02623
2.08226
2.13258
2.17642
2.21215
2.2367
2.25061
2.25349
2.24256
2.21725
2.1828
2.156
2.1537
2.18065
2.22578
2.27411
2.31303
2.33231
2.32215
2.27558
2.19151
2.07662
1.94214
1.80151
1.66503
1.53967
1.42772
1.3291
1.2459
1.18372
1.14592
1.1299
1.12715
1.12861
1.13044
1.1301
1.12529
1.11192
1.08966
1.05529
1.01217
0.957509
0.898449
0.831624
0.763756
0.694942
0.627684
0.568757
0.508491
0.46567
0.414171
0.388434
0.344168
0.332976
0.293165
1.01844
1.03332
1.0511
1.07499
1.10649
1.14529
1.18997
1.23875
1.28939
1.33934
1.38685
1.431
1.47153
1.50894
1.54358
1.57622
1.6072
1.63689
1.6653
1.69271
1.71866
1.74348
1.76684
1.7884
1.80805
1.82555
1.84077
1.85334
1.86352
1.87172
1.87743
1.88118
1.88371
1.88527
1.88631
1.88731
1.88893
1.89206
1.89754
1.90632
1.91896
1.93717
1.96304
1.99612
2.03445
2.07337
2.10829
2.13755
2.16156
2.17876
2.18743
2.1875
2.1768
2.15251
2.11681
2.07895
2.05679
2.06355
2.09825
2.14878
2.20235
2.24796
2.27615
2.27716
2.24306
2.17081
2.06482
1.93601
1.79856
1.6638
1.53914
1.42696
1.32894
1.25106
1.19962
1.17461
1.16798
1.16841
1.1686
1.16775
1.16382
1.15535
1.138
1.11227
1.07478
1.03037
0.974942
0.916204
0.849825
0.786206
0.722578
0.66447
0.613781
0.565405
0.53152
0.491939
0.473027
0.438652
0.430728
0.398337
1.33133
1.34269
1.3567
1.37586
1.40115
1.43214
1.46744
1.50575
1.545
1.5843
1.62188
1.65775
1.69194
1.72485
1.75645
1.78706
1.81641
1.84453
1.87106
1.89586
1.91821
1.93841
1.95566
1.96979
1.98089
1.98873
1.99351
1.99534
1.99463
1.99166
1.9865
1.97994
1.97253
1.96446
1.95615
1.94812
1.94114
1.93606
1.93357
1.93451
1.93949
1.95046
1.96839
1.99013
2.01136
2.02974
2.04465
2.05567
2.06352
2.06663
2.06422
2.05543
2.03679
2.00595
1.96737
1.93343
1.92038
1.93656
1.97762
2.03235
2.0897
2.14018
2.17509
2.18495
2.16125
2.0996
2.00319
1.88322
1.75401
1.62712
1.50906
1.4021
1.3111
1.24561
1.20923
1.19624
1.19402
1.19227
1.18829
1.18292
1.17446
1.1617
1.14052
1.11155
1.07194
1.02667
0.971183
0.913789
0.851219
0.794171
0.738547
0.690913
0.649674
0.613181
0.5873
0.558508
0.544764
0.519602
0.513774
0.489127
1.58397
1.59282
1.60416
1.62001
1.64091
1.66638
1.69535
1.72683
1.75939
1.79242
1.82439
1.85618
1.88761
1.91837
1.94779
1.97559
2.00113
2.02404
2.0438
2.06006
2.07233
2.0811
2.08559
2.08623
2.08348
2.07743
2.06871
2.05762
2.04484
2.02998
2.0139
1.99754
1.98112
1.96469
1.94869
1.93366
1.92039
1.90961
1.90172
1.89721
1.89672
1.90178
1.91127
1.91928
1.92191
1.92202
1.92142
1.9198
1.91675
1.91087
1.90186
1.88799
1.86527
1.83245
1.79578
1.76879
1.76497
1.78845
1.83364