/*--------------------------------*- C++ -*----------------------------------*\
| =========                 |                                                 |
| \\      /  F ield         | OpenFOAM: The Open Source CFD Toolbox           |
|  \\    /   O peration     | Version:  v2012                                 |
|   \\  /    A nd           | Website:  www.openfoam.com                      |
|    \\/     M anipulation  |                                                 |
\*---------------------------------------------------------------------------*/
FoamFile
{
    version     2.0;
    format      ascii;
    class       volScalarField;
    location    "0.129";
    object      nut.air;
}
// * * * * * * * * * * * * * * * * * * * * * * * * * * * * * * * * * * * * * //

dimensions      [0 2 -1 0 0 0 0];


internalField   nonuniform List<scalar> 
5600
(
2.45134e-05
3.47347e-05
4.04095e-05
4.24626e-05
4.22716e-05
4.09706e-05
3.92087e-05
3.75394e-05
3.61126e-05
3.49475e-05
3.40601e-05
3.34383e-05
3.30356e-05
3.28063e-05
3.26941e-05
3.26614e-05
3.26697e-05
3.26997e-05
3.27354e-05
3.27678e-05
3.28001e-05
3.28213e-05
3.28516e-05
3.2874e-05
3.29143e-05
3.29376e-05
3.29844e-05
3.30057e-05
3.30574e-05
3.30699e-05
3.3123e-05
3.31182e-05
3.31711e-05
3.3148e-05
3.32024e-05
3.31645e-05
3.32176e-05
3.31784e-05
3.32159e-05
3.31982e-05
3.31983e-05
3.32278e-05
3.31727e-05
3.32562e-05
3.31582e-05
3.32624e-05
3.31811e-05
3.32298e-05
3.32481e-05
3.3166e-05
3.33286e-05
3.31149e-05
3.33698e-05
3.31254e-05
3.33381e-05
3.32128e-05
3.32479e-05
3.33383e-05
3.3155e-05
3.34312e-05
3.31307e-05
3.34295e-05
3.32256e-05
3.33139e-05
3.34283e-05
3.31367e-05
3.36356e-05
3.3026e-05
3.36944e-05
3.3102e-05
3.35218e-05
3.33686e-05
3.32051e-05
3.3674e-05
3.29682e-05
3.37798e-05
3.3004e-05
3.35845e-05
3.32862e-05
3.32538e-05
3.35648e-05
3.30817e-05
3.3573e-05
3.32266e-05
3.32958e-05
3.35622e-05
3.29639e-05
3.38088e-05
3.28512e-05
3.37422e-05
3.30617e-05
3.34163e-05
3.33473e-05
3.32859e-05
3.31147e-05
3.39836e-05
3.17483e-05
3.62338e-05
2.71245e-05
4.51796e-05
0.000151656
0.000137408
0.000112246
9.86259e-05
9.39028e-05
9.49454e-05
0.000102103
0.000110122
0.000116482
0.000124316
0.000132729
0.000141238
0.000149467
0.000157259
0.000164418
0.000170951
0.0001768
0.000182065
0.000186781
0.000191051
0.000195007
0.000198586
0.000202135
0.000205306
0.000208562
0.000211231
0.000214186
0.000216375
0.000219064
0.000220673
0.000223095
0.000224054
0.000226313
0.000226715
0.000228888
0.000228916
0.000230885
0.000230925
0.000232309
0.000232932
0.00023322
0.000234943
0.000233881
0.00023665
0.000234853
0.000237586
0.000236711
0.000237466
0.000239361
0.000236728
0.000241803
0.000236566
0.000242891
0.000238012
0.000242164
0.000241064
0.000240347
0.000244426
0.000238958
0.000246373
0.000239523
0.00024574
0.000242968
0.000242487
0.00024835
0.000238747
0.000252713
0.0002377
0.000252696
0.00024148
0.000247551
0.000248968
0.000240524
0.000255322
0.000237084
0.000255617
0.00024023
0.000249498
0.000247645
0.0002424
0.000252501
0.00024072
0.000250431
0.000245714
0.000243376
0.000252992
0.00023741
0.000256185
0.000237493
0.000252142
0.000244008
0.000244462
0.000249933
0.000242194
0.000246839
0.000249465
0.000237638
0.000257396
0.000228964
0.000259641
0.000156515
0.000151568
0.000143033
0.000135175
0.000125238
0.000120745
0.000113753
0.000109721
0.000108698
0.000109817
0.000112675
0.000117442
0.000123672
0.000131374
0.000140251
0.000150369
0.000161488
0.000173785
0.000187124
0.000201688
0.000217099
0.00023275
0.000246254
0.000258216
0.000270357
0.000280743
0.000290987
0.000297862
0.000306089
0.000311002
0.000318556
0.000322004
0.000329388
0.000331648
0.000338705
0.000340265
0.000346377
0.000348378
0.000352354
0.000356318
0.000357014
0.00036381
0.000361327
0.000369835
0.000366797
0.000373128
0.000374215
0.00037371
0.000382559
0.000373776
0.000389156
0.000376381
0.000391405
0.000383185
0.00038939
0.000392661
0.000386051
0.000401203
0.000385338
0.000404803
0.000390574
0.000401246
0.000402277
0.000392705
0.000416078
0.000385908
0.000424031
0.000388712
0.000419656
0.000403422
0.000405212
0.000422633
0.000391199
0.000433592
0.000389463
0.000428024
0.00040271
0.000411141
0.000419497
0.000398379
0.000425081
0.000400224
0.000415829
0.000413688
0.000400906
0.000425985
0.000393114
0.000426418
0.000399443
0.000413991
0.000414053
0.000400658
0.00042293
0.000396297
0.000423721
0.000395341
0.000430547
0.000382444
0.000444617
0.000373186
0.000157813
0.000154005
0.00015008
0.000146778
0.00014268
0.000139244
0.000135558
0.00013151
0.000128184
0.000124922
0.00012297
0.000120018
0.000117365
0.000115747
0.00011551
0.000116758
0.00011982
0.000124602
0.000131366
0.00013965
0.000150363
0.000162086
0.000176654
0.00019071
0.00020779
0.000222668
0.000239789
0.000251581
0.000267914
0.000278192
0.00029482
0.000303289
0.000320007
0.000326722
0.000343037
0.000348917
0.000363424
0.000370609
0.000380706
0.000392298
0.000395093
0.000412369
0.000409092
0.000427798
0.000424525
0.000435083
0.000442221
0.000437794
0.000460162
0.000441135
0.000472821
0.000450563
0.000476468
0.000467415
0.000473096
0.000487369
0.000469267
0.000503248
0.000472326
0.000508117
0.000487344
0.000499505
0.00051297
0.000484052
0.000538518
0.000476377
0.000548786
0.000489592
0.000535805
0.000522661
0.000508715
0.000557463
0.000488968
0.000570442
0.000495155
0.000553168
0.000524302
0.000522457
0.000550964
0.000506317
0.000553069
0.000516146
0.000533278
0.000539515
0.0005108
0.000554511
0.000504712
0.000548503
0.0005198
0.000527971
0.000538873
0.000514227
0.000545491
0.000511355
0.00054689
0.000507348
0.000555782
0.000497193
0.000556806
0.000512612
0.000158111
0.000154619
0.000151626
0.000149091
0.000146718
0.000144517
0.000142439
0.000140404
0.000138409
0.000136528
0.000134652
0.000132975
0.000130897
0.000129169
0.000127139
0.000125597
0.000124128
0.000121762
0.000121147
0.000119412
0.000121343
0.000121095
0.000126787
0.000128566
0.00013886
0.000142519
0.000157664
0.000162651
0.000182356
0.000187954
0.000211607
0.000217336
0.000239798
0.000243382
0.000264879
0.000270013
0.00028814
0.00029865
0.000308988
0.000328745
0.0003287
0.000357633
0.000350719
0.000380739
0.000378906
0.000394832
0.000412818
0.000402454
0.000445909
0.000413262
0.000468607
0.000435776
0.000476177
0.00047017
0.000473413
0.000506954
0.000472331
0.000534716
0.000484496
0.000542951
0.000517523
0.000528672
0.00056557
0.000506285
0.000608806
0.000501317
0.000622731
0.000533652
0.000597323
0.000595974
0.000553565
0.000652882
0.000529134
0.000662529
0.000549681
0.000628341
0.000602559
0.000580774
0.00064064
0.000562769
0.000634106
0.000585634
0.000600275
0.000622774
0.000568213
0.000636228
0.000565369
0.000622011
0.000591052
0.000594896
0.000613898
0.000582328
0.000615685
0.000583047
0.000614425
0.000578112
0.00062558
0.000564684
0.000621383
0.000584186
0.00015818
0.000154795
0.000152026
0.000149709
0.000147678
0.000145898
0.000144248
0.000142775
0.000141336
0.000140045
0.000138747
0.000137569
0.00013642
0.000135233
0.000134294
0.00013293
0.000132434
0.000130443
0.0001307
0.00012751
0.000129409
0.000124263
0.000129103
0.00012088
0.000129573
0.000117694
0.000132155
0.000116799
0.000137906
0.000120205
0.000147431
0.000129723
0.000160256
0.000146768
0.000174318
0.000172062
0.000188213
0.000205161
0.000203007
0.000242164
0.000223277
0.000269055
0.000248791
0.00028534
0.000283681
0.00029112
0.000326724
0.000295382
0.000365228
0.000311319
0.000386731
0.000346832
0.000388772
0.000396426
0.000382847
0.000445198
0.000385661
0.000477455
0.000411432
0.000481018
0.000465763
0.000456177
0.000534885
0.000430007
0.000586802
0.000438283
0.000592602
0.000499306
0.000550172
0.000589078
0.000498565
0.000656921
0.000485699
0.000658704
0.000532135
0.000602507
0.000602962
0.000546786
0.000637715
0.000540877
0.000617383
0.000575617
0.000574152
0.000613677
0.000545842
0.000622767
0.000553481
0.000598273
0.000582676
0.000573374
0.000593088
0.000572909
0.000589577
0.000571731
0.00059399
0.000559765
0.000609371
0.000548462
0.000601113
0.000572943
0.0001582
0.000154853
0.000152145
0.000149895
0.00014796
0.000146285
0.000144779
0.000143439
0.000142203
0.000141067
0.000140021
0.000138999
0.000138128
0.000137126
0.000136474
0.000135345
0.000135086
0.000133519
0.000134058
0.000131455
0.000133534
0.000128929
0.000133758
0.000125647
0.000134983
0.000121216
0.000137488
0.000115685
0.000141131
0.000110066
0.000144522
0.000106942
0.000144233
0.000111419
0.000136639
0.000127954
0.000121728
0.000154664
0.000107715
0.000180055
0.000109246
0.00018882
0.000138071
0.000176094
0.000192843
0.000155846
0.000251579
0.000151521
0.000285438
0.000180632
0.000285541
0.000242877
0.0002681
0.000306056
0.000254651
0.000356971
0.000258172
0.000378431
0.000296672
0.00036163
0.00037178
0.000320153
0.000454728
0.000294111
0.000499043
0.000321561
0.000481383
0.00041027
0.000421471
0.000519382
0.000373938
0.000581794
0.000385382
0.0005618
0.000458286
0.000492588
0.000534257
0.000447253
0.000550623
0.000460352
0.000517014
0.000498119
0.00047826
0.000524789
0.00046298
0.000520708
0.000480204
0.000494146
0.000501655
0.000487281
0.000492435
0.000498694
0.000488806
0.000493034
0.000498765
0.000477208
0.000516915
0.000468023
0.000507778
0.000488998
0.000158207
0.000154873
0.000152188
0.000149959
0.000148058
0.000146412
0.000144954
0.000143654
0.000142478
0.000141397
0.000140419
0.000139477
0.000138664
0.000137787
0.000137149
0.000136237
0.000135864
0.000134727
0.000134848
0.000133143
0.000134175
0.00013134
0.000133977
0.000129122
0.000134441
0.000126253
0.000135733
0.000122632
0.000137706
0.000118756
0.000139302
0.00011662
0.000137656
0.000120417
0.000128367
0.000134239
0.000108678
0.000155563
8.50834e-05
0.00017019
7.92257e-05
0.000159092
0.000113316
0.000114137
0.000175141
5.63776e-05
0.000221917
3.23544e-05
0.000221804
7.22895e-05
0.000178069
0.000154308
0.00012189
0.000231588
8.67122e-05
0.000273301
9.88815e-05
0.000263224
0.000172307
0.000208624
0.000285043
0.000147585
0.000370744
0.000134628
0.000380592
0.000204056
0.000332501
0.000316207
0.000271397
0.000422338
0.000239608
0.000459174
0.00027646
0.000415506
0.000363034
0.000350552
0.000421583
0.000331837
0.000413172
0.000359452
0.000378598
0.000385716
0.000357295
0.000392917
0.000356643
0.000378085
0.000377976
0.000357862
0.000381276
0.000372676
0.00035774
0.000387112
0.000357241
0.000380606
0.000366777
0.000364915
0.000387107
0.000356143
0.000382616
0.000364592
0.00015821
0.000154882
0.000152205
0.000149985
0.000148096
0.000146461
0.00014502
0.000143735
0.000142577
0.000141519
0.000140558
0.000139654
0.000138843
0.000138037
0.000137361
0.000136596
0.000136075
0.000135267
0.000134976
0.000133991
0.00013407
0.000132702
0.000133393
0.000131319
0.000133001
0.00012975
0.000132946
0.000127965
0.000133138
0.000126203
0.000133089
0.000125316
0.000131597
0.000126888
0.000126993
0.000132121
0.000118652
0.000139379
0.00011008
0.000142896
0.000110537
0.000135392
0.000126799
0.00011279
0.000150303
8.26267e-05
0.000164348
7.29018e-05
0.000159417
0.000102086
0.000132341
0.000146116
8.55807e-05
0.000181093
4.38124e-05
0.000194857
5.57184e-05
0.000172635
0.000129921
0.000105929
0.000206389
3.28947e-05
0.000235273
4.12345e-05
0.000212106
0.000134444
0.000163505
0.000215161
0.000125021
0.000252507
0.000139243
0.000248464
0.000209342
0.00022442
0.000258533
0.000221709
0.000254021
0.000253338
0.000229581
0.000272829
0.000225227
0.000260005
0.000235594
0.000244225
0.000249362
0.000220063
0.000269056
0.00021117
0.000252163
0.000239757
0.000224262
0.000253075
0.00021587
0.000261701
0.000213883
0.000246617
0.000236668
0.000234562
0.000237409
0.000225032
0.000158211
0.000154886
0.000152212
0.000149996
0.000148112
0.000146482
0.000145047
0.000143768
0.000142617
0.000141569
0.000140612
0.000139724
0.000138911
0.000138135
0.000137437
0.000136738
0.000136144
0.000135484
0.000135
0.000134337
0.000133987
0.000133266
0.000133095
0.00013224
0.00013233
0.000131224
0.000131695
0.000130203
0.000131158
0.000129244
0.000130566
0.00012858
0.000129581
0.000128607
0.000127811
0.000129546
0.000125294
0.000130841
0.000123143
0.000130913
0.000123374
0.000128072
0.000126949
0.000122354
0.000131707
0.000117019
0.000133666
0.000116762
0.000130766
0.000122172
0.000123856
0.000129589
0.00011542
0.000135099
0.000110986
0.000134614
0.000118717
0.000123807
0.00013671
0.000104435
0.000146795
0.000101172
0.000136236
0.000135793
0.000110777
0.000167082
8.98036e-05
0.00016653
0.000103491
0.000144825
0.000152991
0.000117928
0.000189101
0.000107364
0.000184263
0.000135218
0.000154518
0.000172181
0.00012842
0.000186644
0.000120726
0.000187711
0.000120593
0.00018022
0.000136589
0.000150251
0.000168379
0.000122028
0.000181169
0.000122464
0.000174219
0.000136877
0.000147669
0.000171254
0.000117327
0.000185021
0.000114752
0.000184773
0.000117682
0.000159957
0.000158211
0.000154886
0.000152212
0.000149996
0.000148113
0.000146482
0.000145047
0.000143768
0.000142617
0.000141569
0.000140612
0.000139725
0.000138908
0.000138139
0.000137431
0.000136747
0.000136128
0.000135506
0.000134965
0.000134386
0.000133915
0.000133364
0.00013296
0.000132419
0.00013209
0.000131531
0.000131301
0.000130686
0.000130581
0.000129895
0.000129882
0.000129217
0.000129107
0.000128751
0.000128161
0.00012854
0.000127079
0.00012842
0.000126157
0.000127982
0.000125868
0.000126828
0.000126416
0.000125056
0.0001273
0.000123544
0.000127434
0.000123436
0.000125987
0.000125137
0.000123123
0.000127875
0.00012029
0.000129306
0.000121002
0.000125273
0.000129604
0.000113635
0.000143584
0.00010257
0.000148669
0.000109494
0.00013244
0.000139003
0.00010377
0.000170356
8.76324e-05
0.000177798
0.000101351
0.000158847
0.000140629
0.000133399
0.00018006
0.0001234
0.000192638
0.000132756
0.000182326
0.000147049
0.000169362
0.000160278
0.000153416
0.000182291
0.000129698
0.000201285
0.000114874
0.000192821
0.000128036
0.000165403
0.000165577
0.000129872
0.000205874
9.82961e-05
0.000208967
0.000108694
0.000175701
0.00015613
0.000131215
0.000217132
8.19119e-05
0.000230742
0.00015821
0.000154882
0.000152205
0.000149985
0.000148097
0.000146461
0.000145021
0.000143735
0.000142577
0.000141521
0.000140555
0.000139659
0.000138833
0.000138053
0.000137333
0.000136638
0.000136003
0.000135374
0.000134807
0.000134231
0.000133718
0.000133186
0.000132718
0.000132222
0.000131792
0.000131324
0.00013094
0.000130472
0.000130159
0.000129668
0.000129433
0.00012893
0.000128721
0.000128314
0.000127975
0.000127876
0.000127167
0.000127646
0.000126311
0.00012758
0.000125531
0.000127546
0.000125099
0.000127242
0.000125501
0.000126365
0.000127094
0.000125045
0.000129206
0.000124529
0.0001303
0.000127186
0.000129518
0.000133111
0.000129574
0.000137691
0.000136095
0.000137481
0.000150472
0.000137524
0.000165024
0.00014634
0.000172204
0.000164883
0.00017514
0.000187974
0.000182626
0.000211498
0.000199085
0.000233852
0.000222139
0.00025302
0.000244778
0.000268344
0.000261368
0.000275879
0.000276678
0.000269198
0.000295261
0.00025438
0.000304359
0.000251596
0.000290179
0.000270955
0.000261311
0.000298756
0.000237015
0.000311536
0.000234212
0.000294547
0.000262215
0.000257856
0.000300127
0.000231939
0.000314003
0.000229246
0.000299844
0.000255553
0.00026053
0.000302076
0.000158207
0.000154873
0.000152189
0.000149958
0.000148061
0.00014641
0.000144957
0.000143653
0.000142477
0.000141399
0.00014041
0.00013949
0.000138634
0.000137826
0.000137073
0.000136344
0.000135674
0.000135005
0.000134399
0.000133783
0.000133225
0.000132654
0.000132139
0.00013161
0.000131122
0.000130641
0.000130187
0.000129726
0.000129361
0.00012888
0.000128643
0.000128088
0.000128049
0.000127456
0.000127606
0.00012716
0.000127332
0.00012752
0.000127027
0.000128825
0.000126917
0.000131639
0.000127713
0.000135873
0.000131042
0.0001409
0.000138723
0.000146216
0.000151354
0.00015318
0.00016731
0.000164846
0.000183557
0.00018286
0.000198601
0.000205807
0.000215204
0.000230393
0.000237121
0.000254679
0.000263596
0.000278828
0.000290881
0.000302991
0.000316221
0.000321884
0.000340539
0.000338445
0.000366231
0.000360274
0.000386244
0.000385741
0.000396304
0.000409951
0.00039757
0.00042677
0.00039766
0.000429988
0.000404667
0.000418431
0.000418419
0.000401986
0.000428533
0.00039377
0.000426921
0.000398929
0.000414853
0.000412424
0.000400354
0.000424302
0.000392421
0.000426115
0.000396364
0.000416637
0.000409637
0.000401624
0.000424456
0.000389918
0.00042837
0.000393552
0.000158201
0.000154852
0.000152148
0.000149893
0.000147966
0.000146278
0.000144785
0.000143431
0.000142202
0.000141061
0.000140002
0.000139012
0.000138069
0.000137185
0.000136334
0.000135523
0.000134749
0.000133993
0.000133269
0.000132562
0.000131876
0.000131217
0.000130583
0.000129928
0.000129307
0.00012874
0.000128195
0.000127784
0.000127527
0.000127304
0.00012731
0.000127458
0.000128339
0.000129294
0.000131526
0.000133781
0.000137708
0.000141913
0.000147522
0.000154458
0.000161122
0.000171223
0.000178062
0.000191743
0.000198514
0.000215079
0.000222695
0.000239805
0.000250864
0.000265473
0.000280751
0.000287386
0.00030393
0.000307443
0.000325674
0.00033035
0.00034564
0.000355989
0.000365615
0.000381928
0.000386406
0.000405651
0.000408192
0.000426453
0.000432359
0.000446208
0.000461036
0.000466033
0.000491761
0.000486548
0.000516547
0.000508033
0.000529198
0.000528838
0.000530212
0.000545664
0.000526448
0.000553779
0.00052617
0.000550304
0.000533532
0.000538332
0.000544048
0.000527136
0.000550087
0.000523921
0.000547714
0.00052904
0.000539186
0.000538767
0.000529263
0.000547281
0.000524017
0.000548234
0.0005271
0.000541199
0.000537033
0.000529514
0.000547402
0.000521677
0.00015818
0.000154796
0.000152026
0.000149706
0.00014768
0.000145882
0.000144253
0.000142738
0.00014134
0.000139991
0.000138744
0.000137533
0.000136376
0.000135254
0.000134156
0.00013311
0.000132016
0.000130909
0.000129766
0.000128731
0.00012769
0.000126981
0.000126207
0.000125603
0.000125489
0.000126063
0.00012747
0.000130031
0.000133756
0.000138904
0.000145444
0.000153354
0.000162501
0.000172733
0.0001842
0.000196421
0.000209911
0.000223859
0.00023895
0.000252107
0.000263622
0.000275833
0.0002871
0.000300571
0.000311073
0.000325678
0.000335325
0.000350436
0.000360307
0.000374332
0.000386278
0.000397242
0.000412373
0.000419764
0.00043698
0.000443088
0.000459344
0.00046772
0.000479369
0.000492083
0.000497954
0.000514299
0.000516423
0.000534044
0.000536618
0.000552278
0.000560153
0.000568752
0.000585115
0.000582834
0.000606242
0.000596065
0.000617755
0.00060933
0.000618939
0.000621583
0.000613903
0.0006302
0.000609717
0.000631921
0.000611488
0.000625886
0.000618654
0.00061684
0.000625949
0.000610554
0.000629181
0.000609781
0.000626905
0.000614368
0.000620328
0.000621885
0.000613002
0.000627891
0.000609269
0.000628491
0.00061184
0.000622644
0.000619775
0.000612142
0.000158114
0.000154621
0.000151613
0.000149103
0.000146669
0.000144522
0.000142367
0.00014037
0.000138361
0.00013648
0.000134759
0.000132829
0.000131009
0.000129044
0.000127407
0.000125788
0.0001241
0.00012253
0.000121926
0.000122152
0.000123947
0.000127099
0.000132228
0.000138939
0.000147626
0.000157908
0.000169831
0.000183118
0.000197717
0.000213315
0.00022893
0.000242194
0.000255566
0.000268961
0.000282386
0.000295677
0.000309062
0.000322189
0.000335408
0.000348314
0.000361177
0.000373896
0.000385951
0.000398455
0.000409065
0.000421446
0.000430596
0.000442875
0.000451128
0.000462656
0.000471136
0.000480333
0.000490529
0.000496686
0.000508558
0.000512884
0.000524956
0.00052962
0.000539045
0.00054627
0.000551229
0.000561525
0.000562914
0.000575517
0.000575595
0.000588068
0.000590393
0.000598232
0.000606185
0.000605585
0.000619831
0.000611444
0.000627849
0.000617873
0.000628898
0.000625245
0.000624658
0.000631886
0.000619933
0.000635323
0.000618562
0.000633529
0.000622225
0.000627801
0.000628097
0.000621928
0.000632609
0.000618772
0.000633898
0.000619536
0.000630949
0.000624202
0.00062508
0.000630341
0.000619537
0.000634503
0.000617436
0.000633555
0.000621141
0.00062605
0.000157849
0.000153941
0.0001501
0.000146711
0.00014257
0.000139328
0.000135255
0.000131831
0.000128203
0.00012601
0.000123575
0.000120696
0.00011865
0.000117785
0.000118585
0.00012103
0.000125567
0.000131889
0.000140408
0.000150791
0.000163415
0.000177689
0.000193333
0.000209786
0.000227094
0.000242474
0.000257119
0.000271493
0.000285531
0.000299176
0.000312287
0.000325001
0.000337195
0.000348893
0.000360104
0.000370842
0.000381176
0.000391008
0.000400439
0.000409301
0.000417831
0.000426087
0.000432935
0.000439405
0.000444708
0.000450929
0.000455231
0.000461336
0.000464997
0.000470641
0.00047436
0.000478794
0.000483355
0.000486104
0.000491781
0.000493252
0.000499296
0.00050075
0.000505566
0.00050835
0.000510829
0.000515549
0.000515792
0.000522171
0.000521333
0.000528011
0.00052798
0.000532491
0.000535481
0.000535398
0.000542325
0.000537516
0.000546531
0.000540086
0.000547145
0.000543617
0.000544896
0.000547435
0.000541808
0.000549968
0.000540324
0.000549718
0.000541687
0.000546875
0.000544942
0.000543262
0.000548081
0.000540715
0.000549606
0.000540279
0.000548711
0.000542422
0.00054547
0.000546314
0.000541478
0.000549819
0.000539027
0.00055063
0.000540132
0.000547044
0.000156641
0.000151207
0.000143351
0.000134629
0.000126078
0.000120989
0.00011501
0.000112505
0.000112456
0.000114188
0.000117963
0.000123463
0.000130604
0.000139124
0.000149054
0.00016016
0.000172603
0.000186205
0.000201284
0.000217285
0.000233494
0.000246946
0.000259667
0.000271867
0.000283092
0.000294115
0.000302629
0.000310055
0.000316738
0.000322881
0.000328611
0.000333955
0.00033891
0.000343506
0.000347784
0.000351749
0.000355489
0.000358953
0.000362272
0.000365354
0.000368322
0.000371145
0.000373774
0.00037644
0.000378613
0.000381201
0.000382906
0.000385493
0.000386841
0.000389313
0.000390608
0.000392601
0.000394296
0.000395502
0.000397841
0.000398288
0.000401066
0.000401245
0.000403667
0.000404371
0.000405702
0.000407478
0.000407547
0.000410473
0.000409665
0.000413137
0.000412314
0.000415068
0.000415482
0.000416039
0.000418609
0.000416389
0.000420765
0.00041689
0.000421279
0.000418113
0.000420219
0.000419917
0.000418398
0.000421609
0.000417004
0.000422212
0.000417011
0.000421317
0.000418391
0.000419492
0.000420279
0.000417684
0.000421763
0.000416673
0.00042212
0.000417064
0.000420936
0.000418909
0.000418661
0.000421303
0.000416482
0.000422862
0.000415709
0.000422086
0.000151621
0.000136816
0.000113478
9.95215e-05
9.76007e-05
9.81303e-05
0.000110574
0.000115045
0.000121817
0.000129686
0.000137977
0.000146235
0.000154211
0.000161681
0.000168583
0.000174824
0.000180491
0.000185568
0.000190197
0.000194425
0.000198337
0.000202068
0.000205555
0.00020885
0.000211871
0.000214679
0.000217311
0.000219724
0.000221893
0.000223823
0.000225516
0.000227019
0.000228355
0.000229553
0.000230632
0.000231601
0.000232493
0.000233291
0.000234051
0.000234731
0.000235399
0.000236003
0.000236592
0.000237193
0.000237693
0.000238321
0.000238685
0.000239357
0.000239587
0.000240274
0.000240439
0.000241038
0.000241314
0.000241678
0.000242234
0.000242269
0.000243108
0.000242917
0.000243794
0.000243687
0.000244273
0.000244572
0.00024467
0.000245528
0.00024515
0.000246414
0.000245786
0.000247026
0.000246613
0.000247205
0.000247566
0.000247
0.000248328
0.000246761
0.000248627
0.000246842
0.000248356
0.000247355
0.000247629
0.000248109
0.000246851
0.000248675
0.000246484
0.000248706
0.000246737
0.000248182
0.000247449
0.000247377
0.000248263
0.00024665
0.000248816
0.000246366
0.000248776
0.000246766
0.000248045
0.000247723
0.000246979
0.000248754
0.00024603
0.00024917
2.45432e-05
3.47523e-05
4.04101e-05
4.23028e-05
4.20136e-05
4.05609e-05
3.87137e-05
3.70559e-05
3.56101e-05
3.44451e-05
3.35764e-05
3.29762e-05
3.25987e-05
3.2385e-05
3.22871e-05
3.22583e-05
3.22698e-05
3.2298e-05
3.23311e-05
3.23649e-05
3.23935e-05
3.24263e-05
3.24614e-05
3.24994e-05
3.2539e-05
3.25762e-05
3.26142e-05
3.26515e-05
3.26861e-05
3.27168e-05
3.27414e-05
3.27608e-05
3.27749e-05
3.27852e-05
3.27919e-05
3.27957e-05
3.27979e-05
3.27976e-05
3.27974e-05
3.27952e-05
3.27946e-05
3.27921e-05
3.27912e-05
3.27909e-05
3.27891e-05
3.27931e-05
3.27884e-05
3.27973e-05
3.27886e-05
3.28017e-05
3.27906e-05
3.2804e-05
3.27979e-05
3.28051e-05
3.28122e-05
3.28067e-05
3.28298e-05
3.2812e-05
3.2843e-05
3.28258e-05
3.28517e-05
3.28508e-05
3.28593e-05
3.2885e-05
3.28693e-05
3.29185e-05
3.28826e-05
3.29385e-05
3.29007e-05
3.29355e-05
3.29251e-05
3.29129e-05
3.29492e-05
3.28854e-05
3.29608e-05
3.28728e-05
3.29519e-05
3.28839e-05
3.2923e-05
3.29141e-05
3.28851e-05
3.29468e-05
3.28583e-05
3.29611e-05
3.28582e-05
3.29485e-05
3.28839e-05
3.29159e-05
3.29223e-05
3.28781e-05
3.29575e-05
3.28524e-05
3.29709e-05
3.28562e-05
3.29516e-05
3.28911e-05
3.29079e-05
3.29439e-05
3.28581e-05
3.29905e-05
2.52897e-05
0.00058576
0.00110279
0.00152139
0.00193714
0.0022356
0.00237917
0.00236767
0.00229238
0.00219378
0.00216155
0.00220254
0.00222825
0.00217879
0.00208918
0.00198446
0.00168648
0.00105174
0.000607669
0.000318401
0.000338225
0.000103974
0.000333538
0.00028091
4.08841e-05
0.000499351
0.000930412
0.00122829
0.00139433
0.0014673
0.00147704
0.00141489
0.00127578
0.00107636
0.000880919
0.000707846
0.000599658
0.000494146
0.000414339
0.000353876
0.000307051
0.000270591
0.000242527
0.000221059
0.0002044
0.000191042
0.00017989
0.000170319
0.000162055
0.000155024
0.000149213
0.00014455
0.000140841
0.000137779
0.000135043
0.000132456
0.000130007
0.000127817
0.000125984
0.000124583
0.000123595
0.000122966
0.000122579
0.000122363
0.000122234
0.000122172
0.000122129
0.000122116
0.0001221
0.000122101
0.000122091
0.000122097
0.000122088
0.000122096
0.000122087
0.000122096
0.000122086
0.000122097
0.000122086
0.000122097
0.000122085
0.000122097
0.000122085
0.000122098
0.000122085
0.000122098
0.000122084
0.000122099
0.000122084
0.000122099
0.000122083
0.0001221
0.000122083
0.0001221
0.000122082
0.000122101
0.000122082
0.000122103
0.000122087
0.000122116
0.000231225
0.000363821
0.00078272
0.00119492
0.0015993
0.00190434
0.00206134
0.002044
0.00203832
0.00197465
0.00197859
0.00208217
0.00210198
0.00204336
0.00194873
0.00174957
0.00127125
0.000676708
0.000332959
0.00023414
0.000264812
0.000149283
0.000247224
0.000366842
4.54488e-05
0.000323431
0.000762903
0.0010933
0.00128681
0.00137642
0.00139279
0.00132927
0.0011864
0.00100136
0.000816296
0.000655448
0.000526892
0.000429586
0.000359055
0.00030812
0.000270449
0.000242144
0.000220811
0.000204679
0.000192242
0.000182205
0.000173623
0.000165958
0.00015902
0.000152835
0.000147513
0.000143105
0.000139536
0.000136601
0.000134036
0.000131667
0.000129451
0.000127479
0.000125829
0.000124552
0.000123629
0.00012303
0.000122656
0.000122444
0.000122315
0.000122253
0.000122208
0.000122195
0.000122176
0.000122178
0.000122167
0.000122173
0.000122164
0.000122173
0.000122163
0.000122173
0.000122162
0.000122173
0.000122162
0.000122173
0.000122161
0.000122174
0.000122161
0.000122174
0.00012216
0.000122175
0.00012216
0.000122175
0.000122159
0.000122176
0.000122159
0.000122176
0.000122158
0.000122177
0.000122158
0.000122178
0.000122159
0.000122182
0.000122165
0.0001222
0.00045326
0.000369056
0.000490585
0.000794586
0.00116956
0.00147679
0.00165482
0.00163207
0.00164009
0.00157923
0.00157009
0.00170801
0.00170218
0.00167653
0.00163017
0.00128695
0.000779421
0.000350674
0.000115417
0.000249849
0.000231343
0.000216754
0.000252617
0.00033687
5.83798e-05
0.000148596
0.000579293
0.000933591
0.00115362
0.00126089
0.00128455
0.00121953
0.00107332
0.000890068
0.00071314
0.000564111
0.000449057
0.000365877
0.000308509
0.000268989
0.000240889
0.000220191
0.000204623
0.000192779
0.000183529
0.000175895
0.000169134
0.000162807
0.000156789
0.000151178
0.000146167
0.000141903
0.000138401
0.000135539
0.000133107
0.000130936
0.000128945
0.000127183
0.000125699
0.000124538
0.000123679
0.000123109
0.000122743
0.000122531
0.000122398
0.000122332
0.000122284
0.000122269
0.000122249
0.00012225
0.000122238
0.000122245
0.000122234
0.000122244
0.000122233
0.000122244
0.000122233
0.000122244
0.000122232
0.000122245
0.000122231
0.000122245
0.000122231
0.000122246
0.00012223
0.000122247
0.00012223
0.000122247
0.000122229
0.000122248
0.000122228
0.000122249
0.000122228
0.00012225
0.000122228
0.000122252
0.00012223
0.000122258
0.00012224
0.000122284
0.000531748
0.000525774
0.000500853
0.000527993
0.000733231
0.000980368
0.00117082
0.00113743
0.001161
0.00110575
0.00107415
0.00123123
0.00121242
0.00120786
0.00115618
0.000714799
0.000311631
0.000134345
5.79134e-05
0.000319407
0.000247357
0.000255793
0.000346974
0.000370305
0.000249459
7.4443e-06
0.000384801
0.000750434
0.000992286
0.00111652
0.00114722
0.00108014
0.00093251
0.000756445
0.000595047
0.000466791
0.000373432
0.000309637
0.000267549
0.000239423
0.00021968
0.000204997
0.000193669
0.000184775
0.000177619
0.000171545
0.000165979
0.00016055
0.000155156
0.000149925
0.000145101
0.000140899
0.000137409
0.00013458
0.000132249
0.000130254
0.000128478
0.000126916
0.000125584
0.000124531
0.00012374
0.000123201
0.000122842
0.000122628
0.000122488
0.000122416
0.000122363
0.000122345
0.000122322
0.000122323
0.000122309
0.000122316
0.000122304
0.000122315
0.000122303
0.000122315
0.000122302
0.000122315
0.000122301
0.000122316
0.000122301
0.000122316
0.0001223
0.000122317
0.000122299
0.000122318
0.000122299
0.000122318
0.000122298
0.000122319
0.000122298
0.00012232
0.000122297
0.000122322
0.000122298
0.000122325
0.000122301
0.000122334
0.000122315
0.000122368
0.000600361
0.000596671
0.000585581
0.000575992
0.000559187
0.000613013
0.000736584
0.000656512
0.000681505
0.000631039
0.000540245
0.000703083
0.00065756
0.000660085
0.000561285
0.000135314
8.76354e-05
0.000268942
0.000178208
0.000303529
0.00029848
0.000318089
0.000507122
0.000511607
0.000395348
5.70955e-05
0.000195668
0.000546994
0.000801658
0.000940492
0.000976635
0.000907059
0.000763425
0.000605345
0.000472223
0.000374927
0.000309119
0.000266306
0.000238392
0.00021954
0.000205919
0.000195301
0.000186647
0.000179522
0.000173604
0.000168481
0.000163691
0.000158882
0.000153933
0.00014897
0.000144258
0.000140063
0.000136543
0.000133708
0.000131439
0.000129585