/*--------------------------------*- C++ -*----------------------------------*\
| =========                 |                                                 |
| \\      /  F ield         | OpenFOAM: The Open Source CFD Toolbox           |
|  \\    /   O peration     | Version:  v2012                                 |
|   \\  /    A nd           | Website:  www.openfoam.com                      |
|    \\/     M anipulation  |                                                 |
\*---------------------------------------------------------------------------*/
FoamFile
{
    version     2.0;
    format      ascii;
    class       Cloud<basicKinematicParcel>;
    location    "0.154/lagrangian/kinematicCloud";
    object      positions;
}
// * * * * * * * * * * * * * * * * * * * * * * * * * * * * * * * * * * * * * //

54
(
(1.49184 0.00408482 0.03) 399
(1.56289 0.0157188 0.03) 2804
(1.5551 0.0237629 0.03) 3103
(1.52905 0.0093885 0.03) 2502
(1.51527 0.0306875 0.03) 3401
(1.52393 0.0241997 0.03) 3101
(1.06941 0.000501056 0.03) 71
(1.44084 0.0345522 0.03) 1696
(1.43562 0.0341873 0.03) 1595
(1.47902 0.0129882 0.03) 798
(1.48078 0.016583 0.03) 898
(1.44206 0.00778985 0.03) 596
(1.2456 0.0383435 0.03) 1883
(1.23733 0.00148264 0.03) 182
(1.27051 0.0378848 0.03) 1884
(1.42739 0.0188085 0.03) 995
(1.34316 0.00446825 0.03) 389
(1.2791 0.0371496 0.03) 1785
(1.37295 0.00862404 0.03) 591
(1.34172 0.0340307 0.03) 1589
(1.37415 0.028329 0.03) 1391
(1.27474 0.0363197 0.03) 1784
(1.34937 0.0290595 0.03) 1389
(1.3134 0.00679638 0.03) 487
(1.34429 0.0150746 0.03) 889
(1.3274 0.0284231 0.03) 1388
(1.27352 0.00533064 0.03) 384
(1.30207 0.0315332 0.03) 1486
(1.18138 0.00224524 0.03) 178
(1.28454 0.032391 0.03) 1485
(0.587196 4.32443e-05 0.03) 39
(1.20465 0.00328045 0.03) 280
(1.05761 0.0386457 0.03) 1870
(1.26701 0.0216168 0.03) 1084
(1.25537 0.00971001 0.03) 683
(1.25395 0.0274482 0.03) 1283
(1.24316 0.0125849 0.03) 782
(1.23696 0.0149503 0.03) 882
(1.22253 0.0276397 0.03) 1281
(1.01253 0.000966817 0.03) 67
(1.20327 0.0114219 0.03) 680
(1.19357 0.0266492 0.03) 1279
(1.17558 0.00938064 0.03) 578
(1.16132 0.00798226 0.03) 577
(1.16263 0.0120711 0.03) 777
(1.15412 0.0251978 0.03) 1176
(1.12568 0.0324462 0.03) 1475
(1.13426 0.0185185 0.03) 975
(1.12239 0.0146274 0.03) 874
(1.10624 0.0301265 0.03) 1373
(1.06175 0.00444839 0.03) 370
(1.09232 0.0142165 0.03) 772
(1.05659 0.0340684 0.03) 1570
(0.998352 0.00262154 0.03) 266
)


// ************************************************************************* //
