/*--------------------------------*- C++ -*----------------------------------*\
| =========                 |                                                 |
| \\      /  F ield         | OpenFOAM: The Open Source CFD Toolbox           |
|  \\    /   O peration     | Version:  v2012                                 |
|   \\  /    A nd           | Website:  www.openfoam.com                      |
|    \\/     M anipulation  |                                                 |
\*---------------------------------------------------------------------------*/
FoamFile
{
    version     2.0;
    format      ascii;
    class       volScalarField;
    location    "0.091";
    object      omega.air;
}
// * * * * * * * * * * * * * * * * * * * * * * * * * * * * * * * * * * * * * //

dimensions      [0 0 -1 0 0 0 0];


internalField   nonuniform List<scalar> 
5600
(
6774.52
9484.5
11876.2
13294.1
13893.6
13967.9
13769.4
13434.2
13076.6
12742.3
12451
12201.6
12010.6
11870.9
11780.9
11731.2
11709.9
11708.6
11719.7
11730.1
11749.1
11755.6
11771
11772.8
11782.9
11785.4
11790.8
11797.2
11798.2
11806.9
11806.6
11813.4
11814.8
11814.9
11820.3
11812.7
11821.9
11809.6
11818.6
11808.3
11810.6
11809.4
11800.4
11810.2
11792.2
11808.3
11789.2
11802.3
11791.1
11794.1
11795
11787.3
11795.7
11785.5
11791.8
11789.2
11786.2
11794.8
11782.8
11797.6
11783.7
11796.6
11787.8
11794.1
11792.5
11793.7
11796.2
11796.5
11799.5
11800.5
11804.3
11802.7
11812.5
11804.1
11822.2
11808.2
11828.2
11817.5
11829
11828.6
11831.5
11833.6
11843.4
11831.5
11858.4
11834.3
11862.8
11849.5
11858
11865.9
11859.6
11874.3
11861.2
11907.3
11802.8
12045.6
11563.7
12467.6
10627.5
13859.3
2506.66
2660.1
3498.88
4408.78
5079.14
5504.36
5762.5
5919.9
5998.13
6001.64
6087.67
6225.08
6349.59
6440.19
6482.68
6478.77
6437.46
6365.69
6274.87
6171.69
6066.22
5959.8
5863.47
5770.25
5685.96
5605.27
5527.35
5459.29
5392.74
5336.04
5282.34
5234.19
5191.63
5150.54
5116.86
5083.47
5056.1
5029.34
5006.79
4985.75
4965.87
4949.72
4932.68
4919.38
4905.09
4894.22
4881.81
4871.92
4861.94
4851.93
4843.96
4835.22
4828.07
4820.4
4813.45
4807.48
4800.87
4796.65
4790.62
4787.69
4782.14
4779.59
4775.03
4771.72
4768.17
4764.99
4761.86
4759.36
4756.69
4754.41
4752.49
4750.2
4748.47
4746.3
4745.26
4743.15
4742.79
4741.28
4740.43
4739.35
4738.35
4737.03
4736.21
4735.39
4734.48
4734.37
4732.64
4735.42
4729.34
4738.53
4723.52
4746.64
4708.98
4769.63
4668.4
4842.22
4538.19
5068.78
4107.26
5787.42
2556.65
2212.05
1999.39
1891.98
1864.29
1938.77
2041.8
2169.83
2320.72
2455.17
2600.46
2763.04
2937.74
3108.93
3265.63
3401.73
3504.33
3585.66
3625.61
3650.74
3632.23
3603.88
3537.41
3466.01
3386.99
3319.12
3262.93
3213.72
3167.88
3127.05
3088.67
3054.77
3025
2993.56
2966.44
2938.39
2915.27
2890.22
2869.69
2849
2829.42
2812.94
2794.81
2782.16
2765.23
2755.64
2740.69
2731.85
2720.33
2710.69
2702.63
2692.73
2686.54
2677.6
2671.31
2664.88
2657.86
2654.29
2646.81
2644.96
2637.75
2635.71
2630.12
2626.9
2622.96
2619.4
2616.21
2613.05
2610.17
2607.23
2605.06
2601.64
2600.58
2596.42
2596.97
2592.21
2593.27
2589.57
2588.76
2587.32
2584.71
2583.66
2582.39
2579.62
2580.22
2577.88
2575.63
2580.18
2568.33
2583.96
2560.67
2590.25
2545.71
2612.21
2506.56
2669.34
2423
2777.47
2280.18
2913.91
2552.49
2195.55
1926.62
1721.73
1562.37
1440.39
1351.61
1279.95
1236.46
1200.83
1189.96
1197.52
1226.4
1281.67
1344.88
1445.29
1531.6
1661.6
1752.51
1885.85
1969.41
2075.76
2140.94
2200.71
2244.38
2267
2292.57
2292.64
2296.06
2278.95
2257.33
2232.07
2196.45
2175.89
2146.68
2128.3
2105.55
2085.75
2067.81
2048.1
2032.81
2015.91
2001.49
1988.55
1972.96
1961.94
1946.43
1935.67
1922.49
1911.42
1901.25
1889.8
1881.71
1871.42
1863.46
1855.65
1847.34
1842.38
1833.82
1830.44
1822.26
1818.17
1811.39
1806.56
1801.41
1796.72
1792.54
1788.22
1784.32
1779.9
1776.59
1771.55
1769.8
1764.07
1764.02
1758.31
1758.11
1754.02
1751.63
1749.79
1746.05
1744.14
1742.41
1738.48
1738.48
1735.87
1731.8
1736.7
1724.06
1737
1718.29
1737.43
1708.73
1746.93
1688.23
1766.87
1664.68
1778.55
1663.84
1737.63
2551.19
2191.38
1920.79
1708.43
1541.45
1401.25
1290.92
1191.95
1115.15
1044.33
986.219
940.125
891.121
869.77
825.503
827.368
792.233
811.266
802.218
833.498
858.444
896.926
959.783
1000.26
1093.57
1136.07
1238.98
1291.84
1374.94
1440.14
1481.53
1547.31
1552.02
1606.82
1599.12
1632.08
1626.56
1631.81
1635.41
1616.31
1624.71
1593.9
1597.5
1573.76
1567.63
1555.74
1542.08
1536.13
1521.16
1514.68
1503.38
1493.17
1486.21
1475.65
1469.62
1461.53
1454.26
1448.23
1439.59
1434.87
1426.18
1420.42
1412.85
1406.79
1400.98
1395.38
1390.51
1385.33
1380.52
1375.01
1370.71
1364.58
1362.08
1355.42
1354.18
1348.14
1346.07
1341.83
1337.8
1335.03
1330.8
1327.15
1325.26
1320.11
1319
1315.93
1310.95
1313.53
1304.06
1309.24
1300.1
1304.58
1294.04
1304.95
1284.17
1305.79
1281.57
1293.71
1295.91
1265.73
2551.04
2189.89
1919.48
1705.84
1538.47
1397.22
1284.34
1184.6
1102.37
1030.57
965.066
914.677
858.376
823.611
775.865
747.821
714.397
682.125
670.25
627.568
638.002
588.408
613.702
569.041
597.413
574.625
594.45
610.248
612.244
675.339
664.283
756.933
754.427
845.862
866.13
935.979
984.234
1013.39
1096.4
1078.81
1170.81
1135.33
1209.72
1191.12
1214.74
1226.23
1218.47
1246.71
1230.06
1247.56
1238.53
1235.9
1237.44
1222.3
1228.02
1211.37
1211.61
1202.12
1195.66
1189.8
1181.83
1177.24
1171.48
1166.46
1162.53
1157.2
1153.02
1148.39
1143.52
1139.26
1135.34
1130.43
1128.22
1122.14
1120.36
1114.36
1111.17
1106.87
1102.22
1098.7
1095.05
1090.08
1088.55
1082.76
1080.75
1077.45
1072.37
1072.02
1066.66
1064.73
1062.96
1058.49
1056.92
1056.08
1049.56
1051.82
1048.36
1040.97
1051.44
1032.34
2551.01
2189.44
1918.83
1705.35
1537
1396.99
1281.93
1184.36
1099.45
1029.03
962.876
909.758
858.22
813.603
777.253
733.105
713.453
665.446
660.1
611.144
611.005
571.101
562.938
543.423
517.306
522.203
480.46
499.378
459.754
471.278
455.841
443.711
462.087
427.036
473.48
432.371
491.5
461.556
521.866
511.573
566.075
579.214
623.367
653.37
674.202
743.118
723.164
815.662
792.604
854.314
878.549
877.69
927.436
908.771
956.645
940.529
966.774
966.801
969.902
972.398
970.952
975.865
979.563
979.638
982.444
978.592
976.175
973.67
966.685
967.706
961.22
960.932
958.124
953.25
952.655
945.995
944.107
939.7
936.384
933.794
932.121
928.228
928.165
923.676
921.946
919.674
915.88
913.78
912.324
907.193
908.843
903.1
902.854
901.272
896.862
896.215
894.944
887.835
892.54
883.279
2550.85
2189.51
1918.24
1705.57
1535.98
1397.31
1280.77
1184.28
1098.91
1027.61
963.956
906.171
861.213
808.267
780.669
728.419
713.979
664.913
654.459
616.669
598.711
580.454
547.566
550.199
505.385
518.099
477.958
478.01
466.71
431.764
463.019
390.566
452.75
367.09
426.39
367.308
382.874
388.142
332.262
408.691
302.796
412.002
298.144
390.46
334.941
373.919
376.823
370.558
407.106
382.095
437.683
417.452
475.428
470.71
505.355
525.732
546.133
578.042
592.745
623.269
645.036
660.061
687.351
693.979
717.045
726.82
736.518
752.254
750.268
769.253
768.433
778.629
784.437
781.981
792.094
786.504
792.101
790.559
790.647
792.273
793.463
792.631
795.902
793.055
794.376
792.789
791.796
789.013
789.669
784.152
785.72
781.986
780.402
780.508
777.179
775.915
775.713
770.337
771.963
766.78
2550.65
2189.71
1917.86
1705.7
1535.62
1397.17
1280.71
1183.65
1099.3
1026.53
964.49
905.293
860.91
808.839
778.207
731.623
708.664
670.706
647.271
623.013
592.534
583.75
546.266
546.826
511.749
507.071
490.312
463.813
477.411
423.469
462.53
396.502
435.513
389.23
394.022
397.861
345.951
409.021
307.05
404.734
294.196
374.464
308.524
326.753
335.739
278.135
354.423
255.483
333.424
279.531
282.93
311.885
253.301
325.148
245.703
319.3
265.605
300.141
293.561
306.529
325.974
322.592
340.642
341.424
357.638
371.643
388.188
410.07
426.452
443.66
462.675
470.446
494.398
497.144
522.905
529.038
550.18
558.342
574.083
581.024
595.131
600.883
611.742
618.585
626.303
632.039
640.539
640.903
649.705
648.374
652.578
655.445
654.293
658.795
658.128
658.139
660.483
657.511
658.786
656.933
2550.54
2189.79
1917.74
1705.65
1535.64
1396.89
1280.9
1183.24
1099.4
1026.47
963.845
906.328
858.827
811.437
774.657
735.22
704.87
673.471
645.436
622.703
594.521
579.341
551.936
539.939
517.913
502.255
491.429
466.666
468.939
436.475
445.246
415.462
416.849
404.052
384.917
397.717
355.368
388.691
335.779
370.371
329.792
342.413
332.904
312.311
334.767
290.812
325.448
286.143
300.766
295.023
271.849
299.757
255.573
291.489
252.357
275.564
253.761
261.508
249.406
257.274
240.12
256.276
233.902
249.382
238.635
235.11
251.103
223.416
262.241
225.907
257.493
241.794
247.016
264.691
248.608
276.179
267.64
281.041
295.811
291.096
313.697
309.798
322.354
332.359
334.203
350.264
353.302
364.83
375.139
381.432
393.27
400.072
407.225
416.88
420.804
430.354
435.267
441.903
448.662
452.913
2550.52
2189.81
1917.76
1705.62
1535.73
1396.8
1281.02
1183.18
1099.38
1026.68
963.415
907.059
857.835
812.663
773.368
736.402
704.059
673.695
645.991
621.307
596.682
576.678
554.673
537.671
519.064
502.734
488.869
471.302
462.489
443.874
437.901
421.199
413.732
403.017
390.23
387.588
368.997
372.585
351.56
356.572
338.126
339.636
327.652
322.847
318.727
307.352
310.043
294.251
300.067
284.777
287.805
279.253
273.862
275.986
261.134
270.504
254.545
259.036
255.53
243.669
258.969
232.566
255.894
233.352
243.754
243.72
230.709
252.92
228.644
252.915
241.036
248.493
258.792
249.778
272.222
263.65
281.698
285.049
292.024
306.828
309.22
326.324
332.594
344.158
357.7
363.736
380.625
386.329
399.302
409.442
416.427
429.111
434.892
444.251
452.701
457.703
466.795
471.199
477.988
483.865
2550.53
2189.84
1917.84
1705.67
1535.85
1396.87
1281.16
1183.31
1099.47
1026.93
963.382
907.464
857.692
813.123
773.32
736.614
704.475
673.281
647.168
620.159
598.441
575.328
556.121
537.306
518.888
504.563
486.263
475.461
458.206
448.68
434.442
423.706
414.053
400.882
395.661
380.964
377.932
364.603
359.96
351.963
341.687
342.219
324.459
333.168
310.995
322.063
303.76
308.042
302.306
294.103
302.709
285.789
301.083
286.972
297.945
296.775
297.427
312.056
304.477
329.348
322.885
347.114
352.807
366.449
389.706
391.794
425.615
427.397
455.541
470.713
482.864
512.214
514.998
543.549
552.552
566.92
587.651
589.948
612.96
615.418
629.458
639.036
642.749
655.271
656.392
663.67
668.396
668.722
674.789
673.727
676.713
677.69
677.42
679.411
678.239
678.766
678.309
676.918
676.74
675.058
2550.56
2189.92
1917.97
1705.82
1536.06
1397.06
1281.42
1183.54
1099.74
1027.25
963.604
907.938
857.799
813.783
773.326
737.373
704.572
673.852
647.751
620.112
599.937
574.394
558.599
535.813
521.705
503.615
488.209
476.464
458.332
452.377
433.057
429.581
412.981
407.65
397.552
387.736
385.448
371.741
375.751
361.402
368.758
358.251
366.068
363.745
369.947
378.982
382.98
403.977
407.595
436.811
445.109
474.96
493.365
517.056
546.648
563.382
597.85
613.711
642.464
663.806
681.535
707.803
717.883
741.676
751.443
765.86
778.68
783.825
796.685
798.327
806.175
809.83
811.727
816.99
816.105
819.553
819.47
819.28
820.704
818.215
819.236
817.025
815.692
814.856
811.647
810.772
807.902
805.464
803.813
800.698
799.295
796.749
794.767
792.978
790.453
788.721
786.254
784.076
782.033
780.042
2550.6
2190.1
1918.21
1706.15
1536.44
1397.5
1281.93
1184.05
1100.4
1027.82
964.414
908.626
858.686
814.794
774.117
739.027
705.099
676.441
648.124
623.651
600.89
578.469
561.57
539.913
528.46
508.121
500.319
483.618
477.083
466.825
460.517
458.366
453.795
460.642
461.225
477.05
485.992
510.121
529.554
559.027
590.019
619.753
661.102
687.837
734.774
759.394
802.559
828.435
860.728
888.374
908.482
934.143
945.727
964.295
972.512
982.193
990.225
993.436
999.949
1000.48
1003.4
1003.88
1002.73
1003.19
999.715
998.627
995.174
991.547
989.057
984.001
981.55
977.441
974.086
971.266
967.105
964.545
960.669
957.384
954.434
950.492
947.934
944.253
941.169
938.329
934.79
932.283
929.119
926.475
923.825
920.954
918.498
915.696
913.132
910.457
907.755
905.174
902.505
900.126
897.845
896.218
2550.73
2190.52
1918.76
1706.95
1537.31
1398.65
1283.17
1185.63
1102.23
1030.01
967.193
911.749
862.876
819.505
780.321
746.546
714.22
688.909
662.159
644.634
623.543
612.999
599.508
595.198
593.208
596.962
610.22
624.803
655.687
683.718
730.316
770.433
825.56
874.287
930.282
982.602
1031.37
1080.24
1117.75
1156.55
1182.54
1207.37
1225.08
1238.59
1251.36
1256.31
1264.23
1263.95
1266.25
1263.5
1260.15
1256.16
1248.96
1243.85
1235.69
1229.83
1223.41
1216.96
1211.61
1205.14
1199.84
1194.01
1188.18
1183.02
1177.1
1172.17
1166.91
1161.93
1157.57
1152.92
1148.81
1144.12
1139.73
1135.37
1130.74
1126.6
1122.11
1117.96
1113.92
1109.76
1106.03
1102.07
1098.38
1094.78
1091.13
1087.79
1084.44
1081.31
1078.3
1075.42
1072.65
1070
1067.38
1064.83
1062.37
1059.95
1057.74
1055.74
1054.06
1053.14
2551.14
2191.62
1920.43
1709.24
1540.45
1402.95
1289.42
1194.36
1114.29
1046.26
988.434
939.824
899.486
866.716
841.569
824.528
814.746
818.076
829.011
855.939
888.557
939.787
992.779
1063.07
1130.75
1210.81
1285.6
1363.33
1433.3
1493.14
1544.59
1580.35
1612.13
1632.03
1648.97
1656.86
1661.13
1660.08
1654.34
1646.17
1633.82
1621.19
1607.79
1595.97
1584.52
1573.06
1562.57
1551.38
1541.2
1530.89
1520.81
1511.56
1502.55
1494.3
1486.47
1478.69
1471.02
1463.32
1455.99
1448.74
1441.73
1434.98
1428.3
1422.05
1415.77
1409.82
1404.01
1398.4
1393.17
1387.99
1383.25
1378.52
1374.06
1369.8
1365.56
1361.68
1357.74
1354.09
1350.56
1347.11
1343.87
1340.64
1337.55
1334.54
1331.63
1328.8
1326.14
1323.55
1321.1
1318.83
1316.5
1314.47
1312.34
1310.42
1308.57
1306.85
1305.4
1304.15
1303.42
1303.4
2552.73
2195.24
1926.99
1721.97
1562.92
1442.92
1354.02
1286.23
1243.1
1212.65
1204.51
1219.68
1257.41
1316.11
1396.18
1491.72
1601.29
1715.51
1832.86
1944.69
2047.1
2134.91
2203.01
2255.68
2290.7
2316.46
2329.17
2332.37
2323.18
2304.4
2277.95
2246.66
2218.85
2193.38
2170.37
2148.33
2127.36
2107.32
2088.23
2070.06
2053.53
2037.95
2023.03
2007.95
1993.53
1979.84
1966.44
1954.25
1942.08
1931.16
1920.14
1910.29
1900.75
1891.7
1883.55
1875.52
1868.26
1861.03
1854.45
1848.1
1841.99
1836.36
1830.77
1825.66
1820.55
1815.73
1811.06
1806.46
1802.26
1798.07
1794.26
1790.5
1786.98
1783.68
1780.4
1777.43
1774.46
1771.76
1769.13
1766.69
1764.34
1762.1
1759.94
1757.81
1755.86
1753.85
1752.09
1750.3
1748.65
1747.15
1745.56
1744.29
1742.85
1741.73
1740.62
1739.72
1739.12
1738.77
1739.03
1739.99
2556.97
2211.44
2002.1
1894.93
1875.21
1959.45
2066.14
2207.54
2362.18
2500.67
2657.89
2832.84
3015.49
3190.87
3348.95
3479.18
3581.08
3649.46
3688.69
3695.91
3676.19
3627.47
3558.51
3478.24
3403.05
3341.22
3288.45
3239.7
3195.26
3154.12
3117.22
3084.25
3051.88
3021.84
2992.56
2966.43
2940.85
2917.85
2895.93
2875.37
2856.83
2838.78
2823.02
2807.52
2793.87
2781.05
2769.05
2758.44
2747.75
2738.59
2729.21
2721.19
2713.14
2705.81
2699.16
2692.45
2686.67
2680.71
2675.6
2670.53
2665.86
2661.66
2657.42
2653.75
2649.94
2646.56
2643.21
2639.87
2636.97
2633.98
2631.4
2628.77
2626.29
2623.95
2621.59
2619.41
2617.3
2615.38
2613.51
2611.89
2610.26
2608.8
2607.35
2605.99
2604.75
2603.47
2602.44
2601.33
2600.41
2599.54
2598.66
2598.03
2597.26
2596.81
2596.42
2596.26
2596.34
2597
2598.14
2600.28
2508.49
2665.08
3511.45
4424.63
5100.72
5522.83
5790.71
5943.94
6009.46
6036.89
6165.09
6318.29
6450.43
6536.75
6572.29
6559.36
6508.54
6428.37
6330.59
6222.68
6112.28
6005.76
5906.49
5813.82
5727.05
5643.87
5567.71
5496.13
5433.06
5374.02
5321.54
5273.64
5229.99
5191.58
5155.39
5124.76
5095.45
5070.56
5047.13
5026.35
5007.65
4989.97
4974.82
4960.21
4947.24
4934.96
4923.31
4912.92
4902.41
4893.29
4884.21
4876.13
4868.31
4861.05
4854.55
4847.82
4842.16
4836.42
4831.36
4826.61
4822.11
4818.23
4814.2
4810.84
4807.31
4804.18
4801.22
4798.27
4795.81
4793.27
4791.06
4788.91
4786.87
4785
4783.12
4781.34
4779.75
4778.22
4776.97
4775.78
4774.73
4773.77
4772.78
4772.03
4771.23
4770.63
4770.12
4769.64
4769.37
4769.04
4768.87
4768.74
4768.7
4768.73
4769.12
4769.5
4770.26
4771.92
4773.69
4777.02
6770.93
9485.11
11871.4
13279.7
13857.4
13918.8
13700.3
13354.2
12989.2
12654.3
12355.7
12108.6
11918.4
11784.6
11699.8
11655.3
11638.5
11640.8
11651.1
11666.3
11679.3
11691.5
11700.1
11707.1
11713.4
11717.9
11724.1
11727.6
11733.5
11736.4
11741
11743.4
11745.1
11746.6
11745.5
11745.9
11743.2
11742.4
11739.2
11737.1
11734.4
11731.1
11729.1
11725.3
11723.9
11720.8
11719.1
11717.4
11714.9
11714.6
11711.6
11712.1
11709.2
11709.4
11707.7
11706.8
11706.9
11705.3
11706.4
11705.2
11706.3
11706.4
11706.7
11708.1
11708.2
11710
11710.6
11712.4
11714
11715.5
11717.7
11719.2
11721.8
11723.6
11726.3
11728.8
11731.4
11734.6
11737
11740.6
11743.2
11746.6
11749.8
11752.8
11756.7
11759.5
11763.5
11766.9
11770.5
11774.4
11777.8
11782.1
11785.7
11789.9
11794.1
11797.8
11802.3
11804.7
11807.1
11806.7
10943.6
6804.33
4851.82
3897.94
3326.07
2953.1
2684.82
2481.14
2316.39
2179.74
2064.46
1966.38
1878.48
1799.47
1726.21
1657.42
1593.84
1534.59
1478.65
1424.46
1372.77
1324.82
1276.31
1229.02
1187.29
1144.63
1102.92
1066.68
1020.83
972.294
939.674
896.805
834.223
780.154
737.285
708.476
694.089
692.38
702.733
710.72
711.211
702.583
681.506
652.336
624.773
603.248
587.471
576.02
565.891
554.109
541.481
529.661
518.23
505.189
488.021
465.078
436.432
403.664
369.149
335.113
303.067
273.807
247.554
223.861
202.44
183.559
167.697
155.209
146.021
139.656
135.501
133.016
131.787
131.464
131.686
132.054
132.231
132.039
131.468
130.618
129.664
128.783
128.088
127.598
127.284
127.094
126.989
126.931
126.903
126.886
126.88
126.874
126.873
126.87
126.871
126.867
126.868
126.864
126.865
126.859
2691.81
5030.51
4708.63
3969.55
3399.72
2997.01
2703.21
2480.09
2300.88
2154.83
2033.81
1933.26
1844.73
1767.74
1697.65
1631.28
1569.8
1512
1456.48
1401.76
1349.37
1301.54
1252.71
1203.81
1162.45
1120.88
1079.04
1044.02
999.244
949.957
916.48
868.366
796.372
739.019
701.479
691.125
690.239
681.292
684.764
694.001
697.686
691.464
672.199
644.291
617.349
596.031
580.09
567.671
555.625
541.946
528.149
515.815
504.372
491.613
474.909
452.662
424.846
392.81
358.615
324.356
291.692
261.781
234.86
210.815
189.96
172.705
159.234
149.304
142.278
137.448
134.248
132.292
131.315
131.092
131.349
131.752
131.978
131.844
131.335
130.558
129.669
128.823
128.133
127.634
127.304
127.1
126.979
126.909
126.87
126.847
126.835
126.827
126.822
126.819
126.818
126.816
126.815
126.814
126.813
126.812
2130.13
2642.99
3519.26
3574.83
3276.06
2945.22
2669.5
2447.36
2264.95
2114.8
1990.25
1889.1
1800.12
1725.56
1658.81
1594.37
1534.78
1479.13
1424.67
1370.07
1318.03
1271.35
1223.1
1173.25
1132.2
1091.3
1048.3
1013.31
969.262
918.335
879.919
818.619
736.136
693.71
686.183
701.353
718.732
699.213
677.807
677.985
682.163
678.36
661.452
635.118
608.79
587.561
571.289
557.717
543.856
528.621
513.853
501.04
489.522
476.934
460.617
439.022
411.994
380.594
346.556
311.89
278.565
247.889
220.372
196.72
177.517
162.877
152.301
144.88
139.679
136.015
133.474
131.849
131.005
130.812
131.06
131.471
131.742
131.679
131.249
130.566
129.771
128.99
128.307
127.781
127.412
127.175
127.023
126.934
126.876
126.845
126.823
126.813
126.803
126.801
126.795
126.796
126.793
126.795
126.793
126.797
1719.26
1587.91
1946.13
2422.82
2644.64
2611.19
2471.51
2312.57
2162.49
2030.66
1916.19
1824.26
1739.78
1671.14
1609.89
1548.39
1491.15
1438.62
1385.8
1331.88
1281.1
1235.71
1187.8
1137.36
1095.65
1053.51
1006.78
967.625
921.836
866.885
811.498
727.236
663.704
684.469
724.443
747.008
769.51
751.188
696.915
670.44
667.015
663.562
648.913
624.423
598.817
577.653
560.912
546.05
530.558
514.221
498.934
485.938
474.421
461.942
445.86
424.647
398.055
366.907
332.709
297.509
263.482
232.189
205.024
183.093
166.683
155.158
147.313
141.924
138.063
135.191
133.063
131.614
130.809
130.586
130.786
131.185
131.507
131.555
131.254
130.693
129.994
129.276
128.602
128.049
127.632
127.35
127.158
127.04
126.959
126.914
126.879
126.865
126.848
126.846
126.836
126.839
126.833
126.839
126.835
126.845
1306.44
1258.75
1277.53
1401.55
1615.65
1800.99
1892.13
1907.49
1872.58
1817.78
1752.51
1695.94
1633.92
1584.33
1537.89
1485.69
1435.01
1387.93
1337.55
1284.93
1236.09
1190.1
1139.57
1087.05
1040.81
991.793
935.869
882.461
826.029
761.416
682.242
630.853
658.193
735.629
792.844
806.066
819.45
811.711
745.278
682.048
657.84
648.916
634.913
612.151
587.385
566.303
548.963
532.75
515.987
499.316
484.406
471.987
460.967
448.815
432.854
411.511
384.55
352.778
317.74
281.665
247.011
216.074
190.758
171.809
158.641
149.914
144.147
140.161
137.174
134.799
132.908
131.529
130.69
130.387
130.502
130.864
131.232
131.417
131.291
130.882
130.275
129.6
128.939
128.38
127.932
127.61
127.375
127.223
127.111
127.047
126.996
126.973
126.948
126.943
126.929
126.932
126.923
126.931
126.926
126.94
1041.39
1036.98
1030.08
1030.7
1054.21
1105.09
1166.88
1232.86
1291.42
1339.78
1373.77
1391.79
1393.32
1396.59
1391.11
1368.28
1338.58
1304.37
1258.8
1209.7
1164.06
1110.82
1048.03
986.006
918.986
842.981
771.299
694.356
631.389
597.959
606.248
668.035
738.943
811.017
858.999
863.308
865.415
864.409
807.203
718.737
663.708
639.385
621.35
598.852
574.682
553.577
535.465
518.045
500.868
485.411
472.756
462.671
453.563
442.673
427.059
404.936
376.225
342.183
304.903
267.2
232.249
202.787
180.215
164.308
153.734
146.898
142.399
139.234
136.761
134.687
132.932
131.562
130.644
130.215
130.204
130.485
130.854
131.13
131.158
130.903
130.408
129.81
129.201
128.664
128.208
127.859
127.588
127.401
127.26
127.173
127.105
127.07
127.038
127.027
127.01
127.011
127.001
127.008
127.003
127.018
882.843
881.507
878.794
869.19
857.535
846.607
841.357
834.539
839.851
848.381
888.172
905.605
951.558
997.557
1038.37
1077.99
1103.47
1100.02
1068.43
1032.65
987.813
897.194
787.356
681.566
579.114
531.239
525.685
552.691
607.855
653.462
703.111
765.463
826.263
883.18
919.296
918.119
910.547
910.935
868.438
775.378
692.79
644.067
613.745
587.135
561.985
540.255
521.303
503.825
488.815
478.01
471.22
466.673
461.936
454.007
439.559
416.342
384.402
345.932
304.364
263.659
227.5
198.34
176.793
161.956
152.207
145.931
141.811
138.925
136.675
134.763
133.092
131.712
130.696
130.105
129.91
130.026
130.291
130.551
130.654
130.536
130.193
129.722
129.205
128.717
128.281
127.929
127.648
127.446
127.293
127.194
127.119
127.077
127.041
127.027
127.009
127.007
126.998
127.003
126.999
127.01
764.494
765.046
763.5
756.649
745.081
727.411
712.207
688.789
671.792
648.341
640.667
614.069
617.494
612.606
608.373
631.946
652.309
650.821
633.991
598.537
530.975
453.212
427.713
476.021
564.968
638.826
687.997
726.782
747.576
760.466
792.407
848.804
909.049
954.757
975.148
966.563
951.476
951.239
926.356
843.016
745.865
672.704
622.976
585.944
556.457
532.85
513.88
499.877
492.226
491.056
494.002
497.372
498.067
493.383
480.132
455.726
420.125
376.335
329.185
283.623
243.335
210.353
185.313
167.571
155.664
147.939
142.936
139.583
137.146
135.2
133.53
132.105
130.963
130.166
129.716
129.57
129.615
129.738
129.817
129.779
129.577
129.248
128.842
128.436
128.06
127.752
127.504
127.326
127.19
127.103
127.036
126.999
126.967
126.954
126.939
126.937
126.929
126.933
126.929
126.939
653.9
654.829
651.216
645.353
632.909
616.024
597.41
573.774
552.894
532.294
508.934
498.011
478.32
468.136
464.805
454.324
453.528
455.179
461.354
488.124
544.528
627.766
701.157
742.074
760.105
771.879
785.461
800.376
813.139
833.609
878.346
942.132
996.308
1018.64
1014.67
995.981
977.438
978.036
975.083
916.552
818.214
728.497
660.308
609.876
573.843
548.264
532.117
526.483
530.294
540.141
551.157
558.79
560.442
554.721
539.535
512.558
473.558
425.666
374.266
324.776
280.679
243.018
212.085
188.032
170.357
158.024
149.692
144.134
140.338
137.594
135.427
133.621
132.097
130.892
130.014
129.464
129.162
129.035
128.972
128.912
128.772
128.556
128.269
127.982
127.707
127.493
127.315
127.199
127.103
127.052
127.003
126.987
126.96
126.96
126.943
126.951
126.938
126.95
126.941
126.96
458.774
461.642
466.677
464.893
464.409
459.875
453.938
454.885
451.56
459.17
468.894
479.46
501.812
519.645
540.134
566.437
589.998
621.837
663.48
704.21
740.182
770.094
794.46
816.07
834.958
851.964
866.861
879.645
896.575
930.569
987.203
1045.13
1068.4
1051.37
1021.92
995.365
977.88
983.081
1002.68
984.368
905.128
810.668
730.11
670.886
631.816
607.804
597.604
600.208
610.18
621.642
630.386
633.354
629.137
617.617
597.746
567.786
527.181
478.443
426.304
376.191
332.236
295.688
264.81
238.277
215.487
196.493
181.147
169.16
159.874
152.693
146.96
142.345
138.518
135.468
133.082
131.398
130.217
129.503
129.018
128.759
128.523
128.388
128.204
128.124
127.998
127.992
127.92
127.963
127.913
127.976
127.925
127.996
127.937
128.012
127.944
128.028
127.956
128.055
127.989
128.116
488.214
494.761
498.659
507.827
517.431
531.374
550.547
569.947
594.741
618.432
642.297
666.586
687.212
704.284
720.926
736.468
753.508
773.817
796.298
819.563
843.506
867.324
890.036
911.418
930.448
946.277
959.348
974.463
1001.96
1048.44
1099.77
1120.9
1091.67
1037.54
992.229
964.694
954.046
966.436
1001.59
1023.37
986.659
907.962
827.773
767.766
730.36
708.793
699.673
699.216
701.295
702.315
700.462
693.984
682.055
664.515
640.529
609.572
571.215
526.672
478.967
433.258
393.71
362.805
339.034
319.736
302.176
285.713
269.368
253.271
236.744
220.409
204.081
189.003
175.265
164.036
154.798
148.189
143.116
140.009
137.612
136.616
135.836
136.202
136.385
137.455
137.931
139.104
139.398
140.383
140.374
141.163
140.907
141.585
141.167
141.809
141.291
141.966
141.402
142.179
141.669
142.645
674.661
674.349
675.446
680.086
687.418
698.635
712.084
726.871
743.241
758.484
774.074
788.892
801.33
812.674
824.002
835.853
850.575
868.453
889.376
913.231
938.888
967.237
998.329
1025.92
1045
1057.18
1068.67
1089.24
1125.15
1165.51
1177.82
1136.06
1059.7
991.05
950.201
932.193
930.275
947.155
985.415
1026.99
1030.78
984.918
923.7
870.462
830.468
802.961
785.045
772.74
762.476
752.444
740.906
726.27
707.839
686.066
661.048
632.912
600.315
563.668
525.106
489.307
458.553
434.267
415.59
402.009
390.637
381.191
371.663
362.227
350.613
337.728
321.532
304.387
285.217
267.842
250.945
238.209
226.971
220.475
215.179
214.58
214.578
218.507
221.398
226.884
229.75
234.587
236.048
239.667
239.744
242.46
241.613
243.851
242.488
244.524
242.908
244.955
243.266
245.525
244.048
246.813
778.853
778.167
779.472
783.344
790.611
800.919
813.761
828.754
844.884
860.929
876.965
891.733
905.085
917.342
929.191
942.472
959.081
979.886
1005.34
1034.66
1067.76
1106.57
1144.39
1168.59
1179.02
1184.16
1194.42
1216.72
1243.12
1243.72
1188.87
1095.36
1008.54
952.569
926.124
917.67
920.537
937.18
970.686
1012.34
1035.28
1019.64
978.931
932.306
888.358
853.964
828.818
810.039
795.314
781.552
764.91
743.891
719.69
694.64
669.664
644.548
617.612
589.466
561.79
537.683
517.635
501.688
488.278
477.467
468.493
461.826
456.474
452.381
448.131
444.153
439.23
433.966
427.311
420.988
414.535
409.826
405.875
404.329
403.821
406.063
409.165
414.336
418.885
424.25
427.772
431.82
433.607
436.333
436.728
438.676
438.188
439.842
438.814
440.441
439.079
440.892
439.347
441.569
440.089
443.1
895.114
895.019
896.831
901.503
910.074
921.904
936.886
954.311
972.769
991.959
1010.85
1028.86
1045.6
1060.49
1074.85
1091.08
1111.46
1137.44
1168.17
1203.9
1246.43
1291.14
1320.88
1327.94
1323.31
1319.46
1323.91
1332.17
1317.65
1252.53
1148.32
1047.35
976.968
940.72
927.892
925.846
929.451
941.64
965.827
997.939
1021.38
1019.2
990.526
949.237
908.064
875.436
852.992
838.725
828.955
817.329
798.023
771.221
741.5
712.802
686.295
661.445
637.495
615.592
597.111
582.949
572.321
564.455
558.6
554.368
551.27
548.905
547.122
546.096
545.908
546.315
547.507
548.829
550.186
550.979
551.674
551.879
552.245
552.521
553.72
555.644
558.797
562.242
565.828
568.903
571.483
573.556
574.94
576.223
576.698
577.608
577.478
578.361
577.761
578.798
577.834
579.19
577.963
579.799
578.542
581.163
1052.75
1053.7
1056.64
1063.4
1074.89
1090.72
1110.92
1134.13
1159.16
1184.99
1210.07
1234.23
1255.45
1272.83
1288.76
1306.24
1328.4
1356.58
1389.11
1428.86
1473.68
1505.18
1507.05
1489.15
1467.86
1451.72
1437.5
1406.57
1334.66
1224.98
1112.78
1028.3
980.947
963.492
961.597
963.125
964.516
969.144
980.962
999.268
1014.1
1011.97
988.911
955.345
924.26
903.081
893.301
892.546
893.179
885.041
862.373
829.192
793.398
760.036
730.434
704.123
681.634
664.546
653.549
647.615
644.995
644.406
645.353
647.35
650.314
653.95
658.229
662.568
666.627
669.634
671.502
672.215
672.413
671.939
671.247
670.174
669.368
668.921
669.702
671.59
674.676
678.094
681.451
684.451
686.831
688.878
690.102
691.407
691.763
692.742
692.511
693.482
692.756
693.931
692.797
694.376
692.895
695.073
693.514
696.598
1304.1
1306.39
1311.08
1321.08
1337.35
1360.01
1388.64
1421.2
1456.04
1490.58
1523.35
1552.87
1574.79
1589.46
1600.85
1612.94
1629.76
1653.08
1681.44
1715.75
1742.3
1736.74
1702.28
1660.51
1622.4
1585.88
1536.89
1457.12
1343.63
1220.83
1120.75
1059.33
1034.78
1034.13
1041.14
1044.56
1042.17
1037.51
1035.15
1037.41
1039.25
1031.52
1012.41
991.376
978.746
978.261
989.851
1008.96
1021.16
1013.47
984.048
942.855
900.01
861.256
828.003
800.113
779.44
767.62
764.124
766.251
771.295
777.566
784.443
791.537
798.82
806.011
812.92
819.024
824.015
827.545
829.73
830.69
830.81
830.262
829.41
828.486
827.988
828.292
829.719
832.185
835.206
838.33
841.077
843.552
845.39
847.017
847.926
848.927
849.159
849.92
849.678
850.481
849.778
850.914
849.71
851.481
849.689
852.45
850.301
854.426
1742.07
1745.99
1753.26
1768.27
1792.47
1826.12
1867.2
1912.52
1957.87
1999.6
2035.71
2061.12
2071.4
2070.19
2064.06
2058.44
2059.17
2069.04
2083.14
2092.12
2074.5
2020.75
1953.63
1889.56
1828.73
1759.93
1668.09
1546.99
1412.25
1293.1
1211.79
1173.64
1170.28
1185.32
1200.79
1206.09
1200.03
1185.92
1168.85
1153.89
1140.58
1125.75
1113.68
1114.61
1132.3
1163.49
1206.28
1249.87
1269.96
1254.91
1213.12
1161.32
1110.57
1066.49
1030.15
1002.01
985.324
981.01
986.647
997.812
1010.99
1024.08
1036.18
1046.99
1056.57
1064.81
1071.63
1076.88
1080.58
1082.79
1083.86
1084.14
1083.99
1083.67
1083.35
1083.29
1083.77
1085.11
1087.25
1090.09
1093.02
1095.88
1098.24
1100.34
1101.86
1103.16
1103.9
1104.63
1104.84
1105.36
1105.2
1105.78
1105.21