/*--------------------------------*- C++ -*----------------------------------*\
| =========                 |                                                 |
| \\      /  F ield         | OpenFOAM: The Open Source CFD Toolbox           |
|  \\    /   O peration     | Version:  v2012                                 |
|   \\  /    A nd           | Website:  www.openfoam.com                      |
|    \\/     M anipulation  |                                                 |
\*---------------------------------------------------------------------------*/
FoamFile
{
    version     2.0;
    format      ascii;
    class       volVectorField;
    location    "0.091";
    object      U.air;
}
// * * * * * * * * * * * * * * * * * * * * * * * * * * * * * * * * * * * * * //

dimensions      [0 1 -1 0 0 0 0];


internalField   nonuniform List<vector> 
5600
(
(18.5968 0.0138584 0)
(18.1353 0.0315893 0)
(17.5525 0.0442273 0)
(16.8973 0.0496796 0)
(16.2208 0.0480215 0)
(15.5614 0.0414918 0)
(14.955 0.0328436 0)
(14.4108 0.0234995 0)
(13.9511 0.0153247 0)
(13.5478 0.00858987 0)
(13.2206 0.00289016 0)
(12.9514 -0.00191895 0)
(12.7495 -0.00573217 0)
(12.5963 -0.00842408 0)
(12.4893 -0.0101092 0)
(12.417 -0.0107835 0)
(12.3689 -0.0107368 0)
(12.3397 -0.0101255 0)
(12.3232 -0.00931571 0)
(12.3103 -0.00852372 0)
(12.3067 -0.00795917 0)
(12.2995 -0.00720539 0)
(12.2982 -0.00676182 0)
(12.2935 -0.00631349 0)
(12.2929 -0.00608252 0)
(12.2916 -0.00599518 0)
(12.2917 -0.00585875 0)
(12.2932 -0.00579888 0)
(12.294 -0.00573895 0)
(12.2972 -0.00561972 0)
(12.2985 -0.0055954 0)
(12.3015 -0.00541398 0)
(12.303 -0.00529462 0)
(12.3032 -0.00507704 0)
(12.3043 -0.00484228 0)
(12.3013 -0.004695 0)
(12.3021 -0.00449372 0)
(12.2973 -0.00440245 0)
(12.2971 -0.00424438 0)
(12.2925 -0.0041774 0)
(12.2901 -0.00409087 0)
(12.2878 -0.00398174 0)
(12.2818 -0.00396142 0)
(12.2821 -0.00386429 0)
(12.2746 -0.00389244 0)
(12.2756 -0.00381768 0)
(12.2694 -0.00387896 0)
(12.2698 -0.00383319 0)
(12.2657 -0.00381708 0)
(12.264 -0.00391341 0)
(12.2632 -0.00375231 0)
(12.259 -0.00386302 0)
(12.2596 -0.00379086 0)
(12.256 -0.00383829 0)
(12.2559 -0.00384001 0)
(12.2548 -0.0037827 0)
(12.2527 -0.00390943 0)
(12.2542 -0.00382594 0)
(12.2512 -0.00390406 0)
(12.2532 -0.00388124 0)
(12.2508 -0.00394259 0)
(12.2524 -0.00395315 0)
(12.2514 -0.00393681 0)
(12.252 -0.00399119 0)
(12.252 -0.00397084 0)
(12.252 -0.00406011 0)
(12.2533 -0.00412849 0)
(12.2541 -0.00415143 0)
(12.2558 -0.00423864 0)
(12.2574 -0.0042159 0)
(12.2596 -0.00422141 0)
(12.2605 -0.00431798 0)
(12.2649 -0.00425843 0)
(12.2643 -0.00438418 0)
(12.2708 -0.00434442 0)
(12.27 -0.00439453 0)
(12.2767 -0.00439275 0)
(12.277 -0.00431863 0)
(12.2814 -0.00444212 0)
(12.2843 -0.00431585 0)
(12.2869 -0.00437145 0)
(12.2899 -0.00447724 0)
(12.2957 -0.0043174 0)
(12.2946 -0.00449113 0)
(12.3041 -0.00441337 0)
(12.3018 -0.0043985 0)
(12.3104 -0.00448374 0)
(12.3105 -0.00428477 0)
(12.3151 -0.00450272 0)
(12.319 -0.00442374 0)
(12.3231 -0.00434964 0)
(12.3246 -0.0045538 0)
(12.3333 -0.00450887 0)
(12.3337 -0.00414865 0)
(12.3354 -0.00487022 0)
(12.3509 -0.00408346 0)
(12.3367 -0.00458635 0)
(12.3663 -0.00648377 0)
(12.3842 -7.87109e-05 0)
(12.2275 -0.0171277 0)
(18.7901 0.0365821 0)
(18.8039 0.048278 0)
(18.7962 0.0516571 0)
(18.7578 0.055858 0)
(18.6851 0.0583553 0)
(18.5782 0.0586807 0)
(18.4416 0.0574877 0)
(18.2775 0.0549946 0)
(18.0939 0.0510136 0)
(17.898 0.0468374 0)
(17.6958 0.0420527 0)
(17.4899 0.0369766 0)
(17.2871 0.0316351 0)
(17.0888 0.0266655 0)
(16.9004 0.0219475 0)
(16.725 0.017914 0)
(16.5639 0.0146041 0)
(16.4164 0.0117992 0)
(16.2885 0.00971338 0)
(16.1673 0.00785409 0)
(16.0709 0.00656662 0)
(15.9745 0.00558101 0)
(15.9023 0.00477063 0)
(15.8312 0.00410039 0)
(15.7775 0.00361394 0)
(15.7269 0.00321154 0)
(15.683 0.00294229 0)
(15.6474 0.0026459 0)
(15.6119 0.00243441 0)
(15.5835 0.00231508 0)
(15.5544 0.00215844 0)
(15.528 0.00214236 0)
(15.5042 0.00206359 0)
(15.4787 0.00207649 0)
(15.4595 0.00208038 0)
(15.437 0.00195285 0)
(15.4208 0.0020138 0)
(15.4021 0.0018707 0)
(15.3874 0.00191762 0)
(15.3728 0.00180096 0)
(15.3579 0.00174235 0)
(15.3477 0.00174774 0)
(15.3331 0.00159885 0)
(15.3252 0.00162201 0)
(15.3126 0.00146778 0)
(15.3057 0.00146585 0)
(15.2962 0.00131012 0)
(15.2885 0.00131125 0)
(15.2816 0.00130374 0)
(15.2729 0.00113779 0)
(15.2681 0.00126044 0)
(15.2603 0.00110078 0)
(15.2556 0.0011334 0)
(15.2498 0.0010498 0)
(15.2439 0.000975141 0)
(15.2407 0.000978706 0)
(15.2347 0.000880739 0)
(15.2334 0.000912318 0)
(15.2286 0.000867801 0)
(15.2274 0.000882218 0)
(15.2243 0.000862637 0)
(15.2227 0.0008554 0)
(15.2209 0.000865665 0)
(15.2185 0.000845983 0)
(15.2171 0.000869472 0)
(15.2154 0.000837951 0)
(15.2148 0.000817944 0)
(15.2146 0.000822004 0)
(15.2148 0.000759764 0)
(15.2151 0.000784139 0)
(15.2163 0.000777582 0)
(15.2161 0.000708605 0)
(15.2186 0.00077148 0)
(15.2184 0.000661675 0)
(15.2218 0.000689577 0)
(15.223 0.000654665 0)
(15.2259 0.000636857 0)
(15.2287 0.000708576 0)
(15.2309 0.000590992 0)
(15.2336 0.000683614 0)
(15.2366 0.000648402 0)
(15.2379 0.000553744 0)
(15.2431 0.000678944 0)
(15.2432 0.00055011 0)
(15.2492 0.00058572 0)
(15.2503 0.000616979 0)
(15.2551 0.000536168 0)
(15.257 0.000678651 0)
(15.2632 0.000527225 0)
(15.2628 0.00054998 0)
(15.2717 0.000624854 0)
(15.269 0.000442911 0)
(15.2807 0.000517239 0)
(15.2753 0.000707447 0)
(15.2913 0.000281927 0)
(15.2793 0.000627592 0)
(15.3102 0.00027085 0)
(15.2773 -0.000950072 0)
(15.3494 0.00483545 0)
(15.2472 -0.0272932 0)
(18.7905 0.025969 0)
(18.8273 0.0395242 0)
(18.8714 0.0482494 0)
(18.9166 0.0560228 0)
(18.9578 0.0605413 0)
(18.9946 0.0615508 0)
(19.0213 0.0601759 0)
(19.0364 0.0562371 0)
(19.0336 0.0532194 0)
(19.0183 0.0489891 0)
(18.9879 0.0442931 0)
(18.9409 0.0396317 0)
(18.877 0.0351074 0)
(18.7962 0.0310801 0)
(18.7 0.0275281 0)
(18.5896 0.0241643 0)
(18.4687 0.021469 0)
(18.3387 0.0188298 0)
(18.2068 0.0168534 0)
(18.0693 0.0147623 0)
(17.9429 0.0129777 0)
(17.8127 0.0113507 0)
(17.7009 0.00954546 0)
(17.5892 0.00804359 0)
(17.4937 0.0063817 0)
(17.4064 0.00523163 0)
(17.3253 0.00403171 0)
(17.2592 0.00313592 0)
(17.1922 0.00249049 0)
(17.1374 0.00199217 0)
(17.0832 0.00169746 0)
(17.0345 0.00148487 0)
(16.9928 0.00135529 0)
(16.949 0.00122105 0)
(16.9162 0.00108016 0)
(16.8801 0.000856787 0)
(16.853 0.000720681 0)
(16.8237 0.000482629 0)
(16.7996 0.000358504 0)
(16.7772 0.000219436 0)
(16.7533 9.69154e-06 0)
(16.7372 -3.98462e-05 0)
(16.7154 -0.000253588 0)
(16.7023 -0.000283788 0)
(16.6842 -0.000473414 0)
(16.6718 -0.000512541 0)
(16.658 -0.000643112 0)
(16.6445 -0.000672187 0)
(16.6342 -0.000668046 0)
(16.6206 -0.000844192 0)
(16.6124 -0.000785839 0)
(16.6011 -0.0009195 0)
(16.5928 -0.000919249 0)
(16.5845 -0.000962599 0)
(16.5746 -0.00104202 0)
(16.5696 -0.00103883 0)
(16.5607 -0.00116839 0)
(16.5575 -0.00118415 0)
(16.5508 -0.00125585 0)
(16.5476 -0.00131744 0)
(16.5433 -0.00138317 0)
(16.5397 -0.00142437 0)
(16.5366 -0.00138427 0)
(16.5324 -0.0014376 0)
(16.5297 -0.00147283 0)
(16.5268 -0.00158502 0)
(16.5247 -0.0017514 0)
(16.5236 -0.00180574 0)
(16.5227 -0.00192497 0)
(16.5218 -0.00194176 0)
(16.5222 -0.00195335 0)
(16.5211 -0.00207115 0)
(16.5224 -0.00204057 0)
(16.5219 -0.00219833 0)
(16.524 -0.00223888 0)
(16.5252 -0.00228051 0)
(16.5267 -0.00235306 0)
(16.5297 -0.00227997 0)
(16.5309 -0.00235457 0)
(16.5329 -0.00230767 0)
(16.5356 -0.00227973 0)
(16.5358 -0.0024406 0)
(16.5403 -0.00231804 0)
(16.5406 -0.00244622 0)
(16.5445 -0.0024602 0)
(16.5469 -0.00241036 0)
(16.55 -0.00248595 0)
(16.5527 -0.00246856 0)
(16.5579 -0.00247322 0)
(16.5579 -0.00255063 0)
(16.5655 -0.00243074 0)
(16.5645 -0.00263798 0)
(16.5726 -0.00252327 0)
(16.5716 -0.00251693 0)
(16.5816 -0.00268191 0)
(16.5771 -0.00285008 0)
(16.596 -0.00262286 0)
(16.5809 -0.00476758 0)
(16.6219 0.00061183 0)
(16.5969 -0.0251651 0)
(18.7889 0.0234414 0)
(18.8253 0.0378449 0)
(18.8727 0.045043 0)
(18.924 0.0511745 0)
(18.9776 0.0546227 0)
(19.0337 0.0552208 0)
(19.0866 0.0542042 0)
(19.1392 0.0523551 0)
(19.1847 0.0496612 0)
(19.2258 0.0469481 0)
(19.2621 0.0442369 0)
(19.2905 0.0417457 0)
(19.3147 0.039243 0)
(19.3294 0.0372902 0)
(19.3389 0.035151 0)
(19.3377 0.0340143 0)
(19.3293 0.0327206 0)
(19.3118 0.0313239 0)
(19.2841 0.0303103 0)
(19.2457 0.0289063 0)
(19.1963 0.0274371 0)
(19.1357 0.0259491 0)
(19.0643 0.0239609 0)
(18.9835 0.022331 0)
(18.8936 0.0201679 0)
(18.8009 0.0185807 0)
(18.7021 0.0166011 0)
(18.61 0.0148714 0)
(18.5139 0.0133755 0)
(18.4296 0.0118266 0)
(18.3486 0.0107938 0)
(18.2722 0.00947728 0)
(18.2105 0.00865205 0)
(18.1435 0.00780503 0)
(18.0938 0.00696264 0)
(18.0396 0.00633704 0)
(17.9962 0.0058286 0)
(17.9512 0.00542512 0)
(17.9103 0.00494962 0)
(17.8758 0.00473 0)
(17.8365 0.00430587 0)
(17.8094 0.00401109 0)
(17.7753 0.00370822 0)
(17.7524 0.00343422 0)
(17.7247 0.0030995 0)
(17.7041 0.00281964 0)
(17.6832 0.00261786 0)
(17.6621 0.00243658 0)
(17.6462 0.00236658 0)
(17.6264 0.00205925 0)
(17.613 0.0019813 0)
(17.597 0.00178417 0)
(17.5838 0.00165795 0)
(17.5717 0.00162075 0)
(17.5572 0.00138951 0)
(17.5491 0.00128566 0)
(17.5366 0.00096218 0)
(17.5304 0.000809321 0)
(17.5212 0.000649826 0)
(17.5153 0.000449496 0)
(17.5088 0.000325099 0)
(17.5027 0.000207683 0)
(17.4974 0.000278774 0)
(17.4909 0.000165404 0)
(17.4861 1.79325e-05 0)
(17.4814 -0.000135266 0)
(17.4773 -0.000393364 0)
(17.4746 -0.000505379 0)
(17.4721 -0.000677905 0)
(17.4692 -0.000748111 0)
(17.4685 -0.000780048 0)
(17.4654 -0.000966957 0)
(17.4656 -0.000946376 0)
(17.464 -0.00121414 0)
(17.4643 -0.0013035 0)
(17.465 -0.00137085 0)
(17.465 -0.00149958 0)
(17.4669 -0.00142023 0)
(17.467 -0.00147741 0)
(17.4677 -0.00145877 0)
(17.4692 -0.00140672 0)
(17.4686 -0.00161407 0)
(17.4712 -0.00153257 0)
(17.4716 -0.00164845 0)
(17.4734 -0.001778 0)
(17.4763 -0.00170137 0)
(17.4775 -0.00179562 0)
(17.4807 -0.00185013 0)
(17.4834 -0.00179718 0)
(17.4853 -0.00192643 0)
(17.4888 -0.00183449 0)
(17.4918 -0.0020221 0)
(17.4933 -0.001976 0)
(17.4997 -0.00200368 0)
(17.4998 -0.0020536 0)
(17.5068 -0.00258818 0)
(17.5092 -0.00193713 0)
(17.5155 -0.00501276 0)
(17.5244 0.000265419 0)
(17.543 -0.0286124 0)
(18.7873 0.0198347 0)
(18.8224 0.0334105 0)
(18.8695 0.0389918 0)
(18.9212 0.0442366 0)
(18.9758 0.0475337 0)
(19.0327 0.0484158 0)
(19.089 0.0478472 0)
(19.1454 0.0461565 0)
(19.1967 0.044068 0)
(19.2462 0.0416841 0)
(19.2927 0.0392261 0)
(19.3344 0.036745 0)
(19.3751 0.0342716 0)
(19.4102 0.0322191 0)
(19.4438 0.0305274 0)
(19.4755 0.0290278 0)
(19.5021 0.0279731 0)
(19.5309 0.0270913 0)
(19.5517 0.0268228 0)
(19.5763 0.0263987 0)
(19.5908 0.0261847 0)
(19.6086 0.0260361 0)
(19.6162 0.0257717 0)
(19.6213 0.0255706 0)
(19.619 0.025087 0)
(19.6102 0.0247501 0)
(19.5937 0.0239103 0)
(19.5682 0.0230052 0)
(19.5349 0.022284 0)
(19.4923 0.0209988 0)
(19.4452 0.0202198 0)
(19.3888 0.0186993 0)
(19.3329 0.0176195 0)
(19.2669 0.0164202 0)
(19.208 0.0149781 0)
(19.1413 0.0138057 0)
(19.082 0.0125266 0)
(19.023 0.0117952 0)
(18.9613 0.0104499 0)
(18.9151 0.00984262 0)
(18.856 0.00883545 0)
(18.8171 0.00797471 0)
(18.7665 0.00723755 0)
(18.7322 0.00644144 0)
(18.6931 0.00592376 0)
(18.6594 0.0052875 0)
(18.6284 0.00499321 0)
(18.5936 0.00455877 0)
(18.5681 0.00428253 0)
(18.5376 0.00384009 0)
(18.5146 0.00353143 0)
(18.4904 0.00327894 0)
(18.4675 0.00293279 0)
(18.4493 0.0028637 0)
(18.4265 0.00240926 0)
(18.4124 0.00206898 0)
(18.394 0.00160757 0)
(18.3823 0.0012582 0)
(18.3688 0.0010439 0)
(18.3579 0.000753419 0)
(18.3473 0.000637427 0)
(18.3359 0.000515615 0)
(18.326 0.000568127 0)
(18.315 0.000464424 0)
(18.3058 0.000212275 0)
(18.298 5.54455e-05 0)
(18.2903 -0.000236708 0)
(18.2844 -0.000418866 0)
(18.2791 -0.000566785 0)
(18.2725 -0.000694273 0)
(18.2688 -0.000723866 0)
(18.2621 -0.000920607 0)
(18.2596 -0.00101329 0)
(18.2554 -0.00128317 0)
(18.2532 -0.00149754 0)
(18.2524 -0.0015609 0)
(18.2499 -0.00173236 0)
(18.2501 -0.00168172 0)
(18.2484 -0.00167585 0)
(18.2472 -0.00169673 0)
(18.2467 -0.0016004 0)
(18.2446 -0.00185659 0)
(18.2448 -0.00183865 0)
(18.2447 -0.00191988 0)
(18.2442 -0.00213273 0)
(18.2463 -0.00208959 0)
(18.2458 -0.00216971 0)
(18.2484 -0.00228608 0)
(18.2487 -0.0022029 0)
(18.2511 -0.00234453 0)
(18.2517 -0.00233591 0)
(18.2556 -0.00241887 0)
(18.2545 -0.00250384 0)
(18.2609 -0.00251099 0)
(18.2594 -0.00260205 0)
(18.2667 -0.00317575 0)
(18.2672 -0.00272984 0)
(18.2738 -0.00560595 0)
(18.279 -0.00285097 0)
(18.2947 -0.0268785 0)
(18.7859 0.0160629 0)
(18.8196 0.0284059 0)
(18.8663 0.0329916 0)
(18.9179 0.0375742 0)
(18.9722 0.0405615 0)
(19.0288 0.0413539 0)
(19.0855 0.0407652 0)
(19.1418 0.0392214 0)
(19.1942 0.0374997 0)
(19.2444 0.0354191 0)
(19.2918 0.033326 0)
(19.3358 0.0312149 0)
(19.3777 0.0291732 0)
(19.4163 0.0275997 0)
(19.4529 0.0261343 0)
(19.4885 0.0251441 0)
(19.5214 0.0244011 0)
(19.5549 0.0238117 0)
(19.586 0.0236267 0)
(19.6183 0.0233394 0)
(19.6481 0.0231598 0)
(19.6789 0.0230296 0)
(19.708 0.022896 0)
(19.736 0.0227757 0)
(19.7655 0.0224203 0)
(19.789 0.0223019 0)
(19.817 0.0219717 0)
(19.8366 0.0218097 0)
(19.8598 0.0217903 0)
(19.8759 0.0215244 0)
(19.8903 0.0214583 0)
(19.9039 0.021117 0)
(19.9062 0.0210249 0)
(19.9108 0.0207803 0)
(19.905 0.0200648 0)
(19.8985 0.0197274 0)
(19.8825 0.0189571 0)
(19.8653 0.0187133 0)
(19.8403 0.0176352 0)
(19.8142 0.0169497 0)
(19.7819 0.0161323 0)
(19.7502 0.0151003 0)
(19.7104 0.0143019 0)
(19.6742 0.0128242 0)
(19.6378 0.0121379 0)
(19.5956 0.0110575 0)
(19.5611 0.010802 0)
(19.5133 0.0100664 0)
(19.4809 0.00924227 0)
(19.4397 0.00852191 0)
(19.4059 0.00756179 0)
(19.3749 0.00715569 0)
(19.3396 0.0063612 0)
(19.316 0.0060558 0)
(19.2835 0.00533066 0)
(19.2629 0.00459128 0)
(19.2371 0.00397713 0)
(19.2173 0.00330761 0)
(19.1981 0.00303865 0)
(19.1791 0.0027096 0)
(19.1617 0.00262093 0)
(19.1417 0.00250822 0)
(19.1235 0.00245851 0)
(19.1055 0.00230891 0)
(19.0891 0.00188493 0)
(19.0764 0.00152102 0)
(19.0638 0.00106297 0)
(19.0528 0.000704632 0)
(19.043 0.000554636 0)
(19.0305 0.000348093 0)
(19.0216 0.000274204 0)
(19.0098 -5.49696e-06 0)
(19.002 -0.000283067 0)
(18.9943 -0.000610061 0)
(18.9872 -0.00105126 0)
(18.9834 -0.00117495 0)
(18.9771 -0.00135564 0)
(18.9736 -0.00139445 0)
(18.9687 -0.00131132 0)
(18.9634 -0.00137008 0)
(18.9597 -0.00128272 0)
(18.9543 -0.00151091 0)
(18.9506 -0.00168623 0)
(18.9486 -0.00174911 0)
(18.9441 -0.00207719 0)
(18.9441 -0.00208842 0)
(18.941 -0.00219706 0)
(18.9411 -0.00234667 0)
(18.9395 -0.00230041 0)
(18.9397 -0.00241282 0)
(18.9384 -0.00252677 0)
(18.9398 -0.00251717 0)
(18.9379 -0.00270804 0)
(18.9406 -0.00278425 0)
(18.9397 -0.00289538 0)
(18.9424 -0.00350779 0)
(18.9442 -0.00332991 0)
(18.948 -0.00597023 0)
(18.9528 -0.00471826 0)
(18.9629 -0.0257149 0)
(18.7853 0.0126029 0)
(18.8172 0.0228371 0)
(18.8634 0.0264565 0)
(18.9148 0.0301697 0)
(18.969 0.0326515 0)
(19.0252 0.033288 0)
(19.082 0.0327645 0)
(19.1378 0.0315296 0)
(19.1904 0.0301611 0)
(19.2406 0.0284521 0)
(19.2879 0.0267645 0)
(19.3324 0.0250752 0)
(19.3742 0.0234288 0)
(19.4134 0.0221802 0)
(19.4505 0.0209591 0)
(19.4862 0.0201721 0)
(19.5204 0.0195397 0)
(19.554 0.0189792 0)
(19.5867 0.018771 0)
(19.6194 0.0185039 0)
(19.6514 0.0183446 0)
(19.6834 0.0182164 0)
(19.7153 0.0181626 0)
(19.7465 0.017992 0)
(19.7783 0.0177837 0)
(19.8085 0.0177595 0)
(19.8397 0.0175272 0)
(19.8692 0.0174683 0)
(19.8991 0.017449 0)
(19.9293 0.0173166 0)
(19.9568 0.0172453 0)
(19.988 0.0171343 0)
(20.0128 0.0172853 0)
(20.0439 0.0171726 0)
(20.0665 0.0169825 0)
(20.0949 0.0169928 0)
(20.1165 0.016866 0)
(20.1382 0.0169387 0)
(20.1638 0.0166456 0)
(20.1742 0.0166467 0)
(20.1996 0.0165789 0)
(20.2023 0.0162228 0)
(20.2213 0.0159693 0)
(20.2204 0.0154093 0)
(20.225 0.0151756 0)
(20.2223 0.0148118 0)
(20.2189 0.0147904 0)
(20.2146 0.0145741 0)
(20.2063 0.0137816 0)
(20.1965 0.0135528 0)
(20.1798 0.0125117 0)
(20.1676 0.0121189 0)
(20.1459 0.0114099 0)
(20.1287 0.0109074 0)
(20.1058 0.0103237 0)
(20.0842 0.00924589 0)
(20.0609 0.00853198 0)
(20.0356 0.0073906 0)
(20.0141 0.00670208 0)
(19.9902 0.00618953 0)
(19.9678 0.00611192 0)
(19.9429 0.00619744 0)
(19.9178 0.00590188 0)
(19.8972 0.00539243 0)
(19.8759 0.00443253 0)
(19.8599 0.0035403 0)
(19.8444 0.00290333 0)
(19.8286 0.00237267 0)
(19.8151 0.00234794 0)
(19.7972 0.00219607 0)
(19.7834 0.00203137 0)
(19.7674 0.00166898 0)
(19.7538 0.00108459 0)
(19.7431 0.000669502 0)
(19.7295 3.98246e-05 0)
(19.7209 -0.000198004 0)
(19.7092 -0.000333952 0)
(19.6997 -0.000445276 0)
(19.69 -0.000261874 0)
(19.6789 -0.000325063 0)
(19.67 -0.000334474 0)
(19.6609 -0.000525496 0)
(19.6508 -0.000921666 0)
(19.6454 -0.00103459 0)
(19.6361 -0.00141626 0)
(19.6317 -0.0015954 0)
(19.6251 -0.00170793 0)
(19.6206 -0.00195402 0)
(19.6159 -0.00196869 0)
(19.6128 -0.00208582 0)
(19.6077 -0.00228797 0)
(19.6064 -0.00229068 0)
(19.6018 -0.00256904 0)
(19.6005 -0.0026827 0)
(19.5986 -0.00290004 0)
(19.597 -0.00363164 0)
(19.5969 -0.00363068 0)
(19.5984 -0.00626471 0)
(19.5998 -0.00609429 0)
(19.6054 -0.0249413 0)
(18.7848 0.00894252 0)
(18.8152 0.0166356 0)
(18.861 0.0192853 0)
(18.9123 0.0220239 0)
(18.9663 0.0239027 0)
(19.0223 0.0243825 0)
(19.079 0.0239943 0)
(19.1345 0.0231017 0)
(19.1872 0.022103 0)
(19.2374 0.0208448 0)
(19.2846 0.0196033 0)
(19.3293 0.0183607 0)
(19.3709 0.0171348 0)
(19.4102 0.016194 0)
(19.4475 0.015271 0)
(19.4829 0.0146695 0)
(19.5175 0.0141869 0)
(19.551 0.0137593 0)
(19.5839 0.0136151 0)
(19.6166 0.0134491 0)
(19.649 0.0133459 0)
(19.681 0.0132759 0)
(19.7132 0.0132711 0)
(19.7448 0.0131496 0)
(19.7765 0.0130305 0)
(19.8077 0.01302 0)
(19.8389 0.0128444 0)
(19.8696 0.0128097 0)
(19.9003 0.0127501 0)
(19.9311 0.0126931 0)
(19.9613 0.0126073 0)
(19.9919 0.0125468 0)
(20.0217 0.0126673 0)
(20.0523 0.0125725 0)
(20.0819 0.0124529 0)
(20.1119 0.0123701 0)
(20.1416 0.0124101 0)
(20.1702 0.0123006 0)
(20.2007 0.0122242 0)
(20.2274 0.0122024 0)
(20.2585 0.0120465 0)
(20.2834 0.0120721 0)
(20.3147 0.0120465 0)
(20.3383 0.0119137 0)
(20.3649 0.0119531 0)
(20.3909 0.0119134 0)
(20.4113 0.0119829 0)
(20.4418 0.011905 0)
(20.4577 0.0115707 0)
(20.485 0.0116272 0)
(20.5029 0.0114646 0)
(20.5184 0.0113906 0)
(20.5388 0.0112798 0)
(20.5467 0.0110215 0)
(20.5672 0.0107738 0)
(20.571 0.0103849 0)
(20.5842 0.0100757 0)
(20.5854 0.00971564 0)
(20.5878 0.00939251 0)
(20.5856 0.00927143 0)
(20.5826 0.0092442 0)
(20.5805 0.00934697 0)
(20.5774 0.00904744 0)
(20.5745 0.00847221 0)
(20.5691 0.00765893 0)
(20.5612 0.00672259 0)
(20.5515 0.00618131 0)
(20.5389 0.00565286 0)
(20.5271 0.00557589 0)
(20.514 0.0054803 0)
(20.5016 0.0050943 0)
(20.4908 0.00464841 0)
(20.4775 0.00370191 0)
(20.4681 0.00316053 0)
(20.4532 0.00245968 0)
(20.4419 0.00201402 0)
(20.4279 0.0018507 0)
(20.4151 0.0015493 0)
(20.4037 0.0016646 0)
(20.3913 0.0016148 0)
(20.3801 0.00143545 0)
(20.3708 0.00119578 0)
(20.3587 0.000617036 0)
(20.3508 0.000341966 0)
(20.3401 -0.000104813 0)
(20.3317 -0.000486854 0)
(20.3227 -0.000731481 0)
(20.315 -0.0010901 0)
(20.307 -0.00125734 0)
(20.3015 -0.00138006 0)
(20.2937 -0.0016241 0)
(20.2892 -0.00172895 0)
(20.2829 -0.0019368 0)
(20.2777 -0.00221333 0)
(20.2733 -0.00245285 0)
(20.2682 -0.00317609 0)
(20.2647 -0.00352148 0)
(20.2617 -0.00624022 0)
(20.2608 -0.00703312 0)
(20.2601 -0.0233936 0)
(18.7845 0.00518047 0)
(18.8138 0.00981153 0)
(18.8592 0.0114077 0)
(18.9105 0.0130917 0)
(18.9643 0.0142638 0)
(19.0201 0.0145591 0)
(19.0768 0.0143192 0)
(19.1322 0.0137697 0)
(19.1849 0.0131608 0)
(19.2351 0.0123898 0)
(19.2822 0.0116242 0)
(19.3269 0.0108629 0)
(19.3686 0.0101004 0)
(19.4078 0.00951812 0)
(19.4452 0.00894428 0)
(19.4806 0.0085699 0)
(19.5152 0.00827599 0)
(19.5487 0.00800567 0)
(19.5817 0.00791864 0)
(19.6143 0.00781463 0)
(19.6467 0.00774235 0)
(19.6788 0.00769851 0)
(19.7109 0.00769468 0)
(19.7427 0.00760873 0)
(19.7742 0.00752012 0)
(19.8056 0.00750488 0)
(19.8367 0.00738662 0)
(19.8676 0.00735275 0)
(19.8984 0.00731502 0)
(19.9291 0.00729086 0)
(19.9596 0.00721479 0)
(19.99 0.00719569 0)
(20.0204 0.00727298 0)
(20.0509 0.00723655 0)
(20.0811 0.00715466 0)
(20.1111 0.00708917 0)
(20.1412 0.00717884 0)
(20.1711 0.00706461 0)
(20.201 0.00709253 0)
(20.2305 0.0070613 0)
(20.26 0.00700391 0)
(20.2891 0.00701943 0)
(20.3186 0.00691045 0)
(20.3476 0.00704278 0)
(20.3765 0.00688474 0)
(20.4056 0.00691321 0)
(20.4335 0.00684288 0)
(20.4629 0.00673736 0)
(20.4901 0.00673727 0)
(20.5187 0.00660719 0)
(20.5466 0.00662028 0)
(20.5729 0.00662611 0)
(20.602 0.00669476 0)
(20.6264 0.00660638 0)
(20.6552 0.00644291 0)
(20.679 0.00632838 0)
(20.7066 0.00629677 0)
(20.7298 0.00630028 0)
(20.7539 0.00632119 0)
(20.7761 0.00650558 0)
(20.7985 0.00674424 0)
(20.8197 0.00686088 0)
(20.8428 0.00661955 0)
(20.862 0.006267 0)
(20.8828 0.00585892 0)
(20.899 0.00561768 0)
(20.9141 0.00560431 0)
(20.9288 0.00563919 0)
(20.9382 0.00572146 0)
(20.9537 0.00570915 0)
(20.9614 0.00545558 0)
(20.9752 0.00508055 0)
(20.9811 0.0046223 0)
(20.9888 0.00431616 0)
(20.9932 0.00414908 0)
(20.9944 0.00397749 0)
(20.9963 0.00391584 0)
(20.9956 0.00372356 0)
(20.9947 0.0037388 0)
(20.9948 0.00358247 0)
(20.9933 0.00325295 0)
(20.9937 0.00310349 0)
(20.9917 0.00258817 0)
(20.9899 0.00227037 0)
(20.9871 0.0019095 0)
(20.9829 0.00157233 0)
(20.9781 0.0012938 0)
(20.973 0.000878678 0)
(20.9665 0.000559195 0)
(20.9617 0.000316917 0)
(20.9554 2.66799e-05 0)
(20.9501 -0.000246064 0)
(20.9452 -0.000518471 0)
(20.9391 -0.000920763 0)
(20.9346 -0.001256 0)
(20.929 -0.00204647 0)
(20.9239 -0.00265814 0)
(20.9187 -0.00519186 0)
(20.9153 -0.00715645 0)
(20.9106 -0.0210398 0)
(18.7843 0.00122898 0)
(18.8131 0.00226355 0)
(18.8583 0.00269771 0)
(18.9096 0.00325087 0)
(18.9633 0.00360997 0)
(19.019 0.0036893 0)
(19.0756 0.00361334 0)
(19.131 0.00343064 0)
(19.1837 0.00326388 0)
(19.2338 0.0030295 0)
(19.2811 0.00279882 0)
(19.3256 0.00257572 0)
(19.3674 0.00232558 0)
(19.4066 0.00215671 0)
(19.4439 0.00195104 0)
(19.4795 0.00183207 0)
(19.514 0.00173864 0)
(19.5475 0.00162228 0)
(19.5805 0.00160166 0)
(19.6131 0.00156022 0)
(19.6455 0.00153337 0)
(19.6777 0.00152688 0)
(19.7097 0.00155075 0)
(19.7415 0.00153028 0)
(19.773 0.00149464 0)
(19.8044 0.00150896 0)
(19.8355 0.00145723 0)
(19.8664 0.00145185 0)
(19.8972 0.00145322 0)
(19.9279 0.00145601 0)
(19.9584 0.00141435 0)
(19.9888 0.0014051 0)
(20.0193 0.00145334 0)
(20.0497 0.00145737 0)
(20.08 0.00141249 0)
(20.11 0.00136992 0)
(20.1401 0.00143942 0)
(20.17 0.00134714 0)
(20.1998 0.00137541 0)
(20.2297 0.00136315 0)
(20.2592 0.00138684 0)
(20.2886 0.0013892 0)
(20.3177 0.00130568 0)
(20.3472 0.0013848 0)
(20.3762 0.00124688 0)
(20.4052 0.00137394 0)
(20.4341 0.00133553 0)
(20.4629 0.0013522 0)
(20.4916 0.00134995 0)
(20.5199 0.00117583 0)
(20.5483 0.00136232 0)
(20.5764 0.00130893 0)
(20.6047 0.00134715 0)
(20.6327 0.00127019 0)
(20.6607 0.00109752 0)
(20.6883 0.00107297 0)
(20.7159 0.000945073 0)
(20.7431 0.00109722 0)
(20.7703 0.00115352 0)
(20.7972 0.00127259 0)
(20.8244 0.00136824 0)
(20.8512 0.0013693 0)
(20.8786 0.00125433 0)
(20.9048 0.00115586 0)
(20.9315 0.000990244 0)
(20.957 0.000978146 0)
(20.9825 0.00100393 0)
(21.0082 0.00114524 0)
(21.0322 0.0011806 0)
(21.0586 0.00113319 0)
(21.0818 0.0010042 0)
(21.1074 0.000900431 0)
(21.1299 0.00081788 0)
(21.1521 0.000791934 0)
(21.1756 0.000968487 0)
(21.1951 0.00105935 0)
(21.2179 0.00125705 0)
(21.2362 0.00133906 0)
(21.2559 0.00141928 0)
(21.2751 0.00141176 0)
(21.2922 0.00120839 0)
(21.312 0.00105456 0)
(21.3272 0.000902115 0)
(21.3437 0.000764738 0)
(21.3589 0.000730899 0)
(21.371 0.000699284 0)
(21.3857 0.000688937 0)
(21.3947 0.00067857 0)
(21.4046 0.000500159 0)
(21.4127 0.000414126 0)
(21.4181 0.000234322 0)
(21.4255 -4.55724e-05 0)
(21.4289 -0.000116867 0)
(21.4328 -0.000440676 0)
(21.4358 -0.000723771 0)
(21.4355 -0.0011312 0)
(21.4356 -0.00178118 0)
(21.4336 -0.00401865 0)
(21.4311 -0.00668266 0)
(21.4257 -0.0183437 0)
(18.7843 -0.00286833 0)
(18.8133 -0.00567345 0)
(18.8586 -0.0064491 0)
(18.9099 -0.00706987 0)
(18.9636 -0.00757577 0)
(19.0193 -0.00772445 0)
(19.0759 -0.00762637 0)
(19.1313 -0.00742896 0)
(19.184 -0.00712176 0)
(19.2341 -0.00680071 0)
(19.2814 -0.00646586 0)
(19.3259 -0.0061254 0)
(19.3677 -0.00584878 0)
(19.4069 -0.00557829 0)
(19.4442 -0.00541739 0)
(19.4798 -0.00526095 0)
(19.5143 -0.00514589 0)
(19.5479 -0.00510979 0)
(19.5808 -0.00504315 0)
(19.6135 -0.00502079 0)
(19.6459 -0.00498927 0)
(19.678 -0.00495124 0)
(19.71 -0.00489491 0)
(19.7418 -0.0048601 0)
(19.7733 -0.00484764 0)
(19.8047 -0.0048016 0)
(19.8358 -0.00480741 0)
(19.8667 -0.00479255 0)
(19.8975 -0.00477369 0)
(19.9282 -0.00475015 0)
(19.9587 -0.00476473 0)
(19.9892 -0.00477205 0)
(20.0196 -0.0047323 0)
(20.05 -0.00470165 0)
(20.0803 -0.00471255 0)
(20.1104 -0.0047287 0)
(20.1405 -0.00464795 0)
(20.1704 -0.00468742 0)
(20.2001 -0.00465381 0)
(20.2299 -0.00463102 0)
(20.2594 -0.00458015 0)
(20.289 -0.00454539 0)
(20.3183 -0.00459726 0)
(20.3476 -0.0045229 0)
(20.3766 -0.00456089 0)
(20.4056 -0.0044659 0)
(20.4346 -0.00449062 0)
(20.4633 -0.00447301 0)
(20.4919 -0.00447685 0)
(20.5203 -0.00455678 0)
(20.5485 -0.00440291 0)
(20.5768 -0.00447431 0)
(20.6049 -0.00441264 0)
(20.6331 -0.00446007 0)
(20.661 -0.00456118 0)
(20.6885 -0.00455624 0)
(20.7159 -0.00458418 0)
(20.7431 -0.0044362 0)
(20.7703 -0.00436378 0)
(20.7974 -0.00422518 0)
(20.8243 -0.00404012 0)
(20.8516 -0.00395301 0)
(20.8782 -0.00401368 0)
(20.905 -0.00413188 0)
(20.9312 -0.00435788 0)
(20.9567 -0.00439364 0)
(20.9829 -0.00440635 0)
(21.0075 -0.00419077 0)
(21.0331 -0.0041533 0)
(21.0577 -0.0041246 0)
(21.0816 -0.00416109 0)
(21.1064 -0.00430311 0)
(21.1284 -0.0043016 0)
(21.152 -0.00444372 0)
(21.1733 -0.00433801 0)
(21.1943 -0.00423504 0)
(21.2162 -0.00409451 0)
(21.2345 -0.00383026 0)
(21.2555 -0.00376759 0)
(21.2726 -0.00366991 0)
(21.2907 -0.00379843 0)
(21.3072 -0.00381466 0)
(21.3213 -0.00374773 0)
(21.337 -0.00378742 0)
(21.3482 -0.00358203 0)
(21.3603 -0.00345234 0)
(21.3707 -0.00325408 0)
(21.3785 -0.00290533 0)
(21.3875 -0.00278676 0)
(21.3923 -0.00251927 0)
(21.3977 -0.00239466 0)
(21.4012 -0.00238399 0)
(21.4035 -0.00214243 0)
(21.4054 -0.00209892 0)
(21.4052 -0.0019852 0)
(21.4041 -0.00206198 0)
(21.4019 -0.00243461 0)
(21.3979 -0.00418241 0)
(21.393 -0.00669873 0)
(21.3839 -0.0164228 0)
(18.7846 -0.00688466 0)
(18.8144 -0.0132486 0)
(18.86 -0.0151579 0)
(18.9113 -0.0169171 0)
(18.9651 -0.0182374 0)
(19.021 -0.0185959 0)
(19.0776 -0.0183347 0)
(19.1331 -0.0177794 0)
(19.1858 -0.0170153 0)
(19.2359 -0.01617 0)
(19.2832 -0.0152899 0)
(19.3277 -0.0144064 0)
(19.3695 -0.0136267 0)
(19.4087 -0.012924 0)
(19.446 -0.0124197 0)
(19.4816 -0.0119896 0)
(19.516 -0.0116766 0)
(19.5496 -0.0115042 0)
(19.5826 -0.0113548 0)
(19.6152 -0.0112874 0)
(19.6476 -0.0112069 0)
(19.6797 -0.0111297 0)
(19.7118 -0.0110482 0)
(19.7436 -0.0109654 0)
(19.7751 -0.0109035 0)
(19.8065 -0.0108146 0)
(19.8376 -0.0107683 0)
(19.8685 -0.0107215 0)
(19.8993 -0.010675 0)
(19.93 -0.0106298 0)
(19.9605 -0.0106093 0)
(19.991 -0.0106132 0)
(20.0214 -0.0105693 0)
(20.0517 -0.0105239 0)
(20.082 -0.0105135 0)
(20.1121 -0.0105076 0)
(20.1422 -0.0104295 0)
(20.1721 -0.0104201 0)
(20.2017 -0.0103875 0)
(20.2313 -0.0103371 0)
(20.2608 -0.0103016 0)
(20.2903 -0.0102351 0)
(20.3196 -0.0102467 0)
(20.3484 -0.0101715 0)
(20.3773 -0.0101231 0)
(20.4058 -0.010058 0)
(20.4346 -0.010019 0)
(20.4628 -0.00996799 0)
(20.4909 -0.00992643 0)
(20.5188 -0.00993331 0)
(20.5459 -0.00980018 0)
(20.5736 -0.00981412 0)
(20.6001 -0.00975101 0)
(20.627 -0.00975502 0)
(20.6529 -0.00980746 0)
(20.6781 -0.00982329 0)
(20.7039 -0.00981144 0)
(20.7271 -0.00971612 0)
(20.7514 -0.00960193 0)
(20.7736 -0.00944528 0)
(20.7956 -0.00929904 0)
(20.8177 -0.00923348 0)
(20.8364 -0.00926587 0)
(20.8571 -0.00932232 0)
(20.8732 -0.00935288 0)
(20.8902 -0.00924641 0)
(20.9041 -0.00912518 0)
(20.9171 -0.00882383 0)
(20.9299 -0.00865262 0)
(20.9382 -0.00843292 0)
(20.9483 -0.00832588 0)
(20.9533 -0.00825647 0)
(20.9594 -0.00796131 0)
(20.9621 -0.00791093 0)
(20.9642 -0.00739651 0)
(20.9653 -0.00713865 0)
(20.9642 -0.00668258 0)
(20.9634 -0.00621315 0)
(20.9606 -0.00594772 0)
(20.9576 -0.00551359 0)
(20.9536 -0.00536965 0)
(20.9482 -0.00501961 0)
(20.943 -0.00471428 0)
(20.936 -0.00446264 0)
(20.9292 -0.0039263 0)
(20.922 -0.00360771 0)
(20.9138 -0.00309884 0)
(20.9069 -0.00259896 0)
(20.8986 -0.00228194 0)
(20.8914 -0.00181268 0)
(20.8842 -0.00155976 0)
(20.8766 -0.00135917 0)
(20.87 -0.00105605 0)
(20.8625 -0.000909666 0)
(20.8557 -0.000673395 0)
(20.8487 -0.000623345 0)
(20.8415 -0.000912845 0)
(20.8341 -0.00241857 0)
(20.8262 -0.00490356 0)
(20.8151 -0.0130334 0)
(18.785 -0.0107613 0)
(18.8161 -0.0201343 0)
(18.8623 -0.0230461 0)
(18.9137 -0.0258614 0)
(18.9676 -0.0278836 0)
(19.0237 -0.0284134 0)
(19.0804 -0.0280026 0)
(19.136 -0.0271216 0)
(19.1887 -0.0259451 0)
(19.2389 -0.0246381 0)
(19.2861 -0.0232738 0)
(19.3307 -0.0219072 0)
(19.3724 -0.0206814 0)
(19.4117 -0.0195828 0)
(19.4488 -0.0187705 0)
(19.4845 -0.0180799 0)
(19.5189 -0.0175719 0)
(19.5524 -0.0172629 0)
(19.5854 -0.0170212 0)
(19.618 -0.016906 0)
(19.6504 -0.0167767 0)
(19.6826 -0.0166614 0)
(19.7146 -0.0165633 0)
(19.7464 -0.0164458 0)
(19.7779 -0.016352 0)
(19.8092 -0.0162367 0)
(19.8402 -0.0161632 0)
(19.8711 -0.0160884 0)
(19.9019 -0.0160134 0)
(19.9323 -0.0159545 0)
(19.9628 -0.0159031 0)
(19.993 -0.0159092 0)
(20.0233 -0.0158477 0)
(20.0532 -0.0157871 0)
(20.0832 -0.0157455 0)
(20.1128 -0.0157011 0)
(20.1421 -0.0156117 0)
(20.1716 -0.0155388 0)
(20.2 -0.0154872 0)
(20.2288 -0.0154016 0)
(20.2566 -0.015362 0)
(20.2843 -0.0152692 0)
(20.3115 -0.015208 0)
(20.3371 -0.0151871 0)
(20.364 -0.0151099 0)
(20.3871 -0.01503 0)
(20.4122 -0.0149493 0)
(20.433 -0.014856 0)
(20.455 -0.0147794 0)
(20.4736 -0.0147034 0)
(20.4913 -0.0145622 0)
(20.5081 -0.0144231 0)
(20.52 -0.0142816 0)
(20.534 -0.0141239 0)
(20.5413 -0.013945 0)
(20.5494 -0.0137003 0)
(20.5527 -0.0134582 0)
(20.555 -0.0129644 0)
(20.5548 -0.0127278 0)
(20.5522 -0.0122605 0)
(20.5487 -0.0118609 0)
(20.5424 -0.0113741 0)
(20.5353 -0.0110186 0)
(20.5258 -0.010697 0)
(20.5149 -0.0102685 0)
(20.503 -0.00984719 0)