/*--------------------------------*- C++ -*----------------------------------*\
| =========                 |                                                 |
| \\      /  F ield         | OpenFOAM: The Open Source CFD Toolbox           |
|  \\    /   O peration     | Version:  v2012                                 |
|   \\  /    A nd           | Website:  www.openfoam.com                      |
|    \\/     M anipulation  |                                                 |
\*---------------------------------------------------------------------------*/
FoamFile
{
    version     2.0;
    format      ascii;
    class       volScalarField;
    location    "0.018";
    object      p;
}
// * * * * * * * * * * * * * * * * * * * * * * * * * * * * * * * * * * * * * //

dimensions      [0 2 -2 0 0 0 0];


internalField   nonuniform List<scalar> 
1900
(
-306.193
-307.29
-308.188
-308.841
-309.499
-310.215
-310.945
-311.509
-311.822
-310.934
-306.648
-307.445
-308.271
-308.939
-309.602
-310.32
-311.057
-311.698
-312.173
-312.319
-306.935
-307.498
-308.264
-308.972
-309.655
-310.384
-311.154
-311.912
-312.653
-313.715
-307.119
-307.563
-308.297
-309.035
-309.737
-310.481
-311.294
-312.163
-313.143
-314.601
-307.217
-307.612
-308.328
-309.078
-309.791
-310.553
-311.41
-312.376
-313.523
-315.158
-307.234
-307.635
-308.358
-309.114
-309.837
-310.619
-311.518
-312.56
-313.819
-315.537
-307.169
-307.633
-308.388
-309.142
-309.871
-310.676
-311.611
-312.709
-314.041
-315.785
-307.017
-307.615
-308.414
-309.146
-309.873
-310.7
-311.665
-312.803
-314.182
-315.93
-306.758
-307.611
-308.477
-309.172
-309.888
-310.726
-311.707
-312.864
-314.265
-316
-306.322
-307.513
-308.468
-309.156
-309.874
-310.729
-311.726
-312.9
-314.319
-316.054
-310.26
-330.099
-350.037
-348.684
-325.585
-292.672
-265.602
-248.114
-236.111
-222.147
-196.446
-152.516
-98.1201
-49.7746
-14.6624
7.89327
20.7961
27.5246
30.9829
32.758
33.6633
34.1135
34.3192
34.3879
34.3721
34.2925
34.1573
33.9761
33.76
33.5183
33.2588
32.9932
32.7305
32.4734
32.2203
31.9675
31.705
31.4224
31.1114
30.7683
30.3972
30.0057
29.5989
29.1859
28.7717
28.3472
27.9068
27.4553
26.9982
26.5431
26.0875
25.6334
25.1755
24.7058
24.2201
23.7236
23.2196
22.7092
22.1929
21.6718
21.1471
20.6196
20.0899
19.5589
19.0266
18.4943
17.9617
17.4274
16.8923
16.3574
15.8226
15.2878
14.7529
14.2181
13.6832
13.1483
12.6134
12.0785
11.5436
11.0088
10.4739
9.93896
9.40407
8.86917
8.33426
7.79935
7.26442
6.72949
6.19454
5.65956
5.12454
4.58943
4.05417
3.51864
2.98266
2.44595
1.90788
1.36822
0.82424
0.280278
-314.912
-332.168
-346.509
-342.577
-321.223
-291.323
-265.184
-246.999
-233.283
-217.478
-191.064
-148.879
-96.8319
-51.5756
-18.2123
4.05364
17.4271
24.8963
29.0628
31.4049
32.7308
33.4806
33.8941
34.1046
34.1821
34.1604
34.0599
33.9004
33.6989
33.4677
33.2153
32.9535
32.6929
32.4362
32.1824
31.9276
31.6631
31.3793
31.068
30.7268
30.3583
29.969
29.5651
29.1546
28.7407
28.3136
27.8716
27.421
26.9653
26.511
26.0574
25.6034
25.1455
24.6766
24.1919
23.696
23.1922
22.6818
22.1654
21.6441
21.119
20.5911
20.0611
19.5295
18.9966
18.4632
17.9276
17.3928
16.8594
16.3252
15.7907
15.2561
14.7213
14.1865
13.6517
13.1168
12.582
12.0471
11.5122
10.9773
10.4424
9.9075
9.37261
8.83771
8.30281
7.7679
7.23298
6.69807
6.16315
5.62823
5.09331
4.55839
4.02345
3.48847
2.95339
2.41814
1.88247
1.34634
0.808548
0.271149
-316.834
-328.518
-338.521
-335.655
-317.063
-290.422
-265.857
-246.931
-230.892
-212.451
-184.624
-143.808
-95.4838
-53.129
-21.2244
0.707752
14.4123
22.5152
27.2964
30.1414
31.8494
32.8767
33.4859
33.8307
33.9967
34.0304
33.9643
33.8261
33.6384
33.4168
33.1712
32.913
32.654
32.3976
32.1431
31.8869
31.6211
31.337
31.0259
30.6866
30.3203
29.9331
29.5323
29.1246
28.7117
28.2829
27.8392
27.3893
26.9353
26.4818
26.0292
25.5754
25.1178
24.65
24.1662
23.671
23.1675
22.6574
22.141
21.6197
21.0948
20.567
20.0372
19.506
18.9738
18.4412
17.9084
17.3746
16.8402
16.3048
15.7699
15.235
14.7001
14.1653
13.6304
13.0955
12.5606
12.0257
11.4908
10.9559
10.421
9.88615
9.35125
8.81635
8.28145
7.74654
7.21163
6.67671
6.1418
5.60688
5.07197
4.53707
4.00218
3.46732
2.93255
2.39798
1.86387
1.33049
0.798364
0.266852
-317.682
-326.352
-334.252
-331.277
-314.38
-289.792
-265.993
-246.141
-228.15
-207.636
-179.027
-139.734
-94.4657
-54.2519
-23.6461
-2.1471
11.7684
20.3659
25.6614
28.9561
31.0177
32.3053
33.0997
33.5726
33.8228
33.9094
33.8758
33.7575
33.5822
33.3687
33.1287
32.8737
32.616
32.36
32.105
31.848
31.5812
31.297
30.986
30.6484
30.2837
29.8976
29.4985
29.0925
28.6802
28.2499
27.8046
27.3553
26.9024
26.4497
25.9989
25.5452
25.0878
24.6207
24.1376
23.6436
23.1404
22.6303
22.1135
21.5916
21.0662
20.538
20.0076
19.4758
18.9428
18.4091
17.8743
17.3386
16.8041
16.2707
15.7364
15.2018
14.6671
14.1323
13.5974
13.0626
12.5277
11.9928
11.4579
10.923
10.3882
9.85326
9.31837
8.78347
8.24857
7.71367
7.17877
6.64387
6.109
5.57415
5.03936
4.50466
3.97013
3.43588
2.90213
2.36914
1.83755
1.30785
0.782064
0.257733
-318.163
-324.854
-330.559
-327.055
-311.445
-288.59
-265.537
-245.129
-225.801
-203.79
-174.585
-136.385
-93.4193
-55.0485
-25.6404
-4.58559
9.46218
18.459
24.1936
27.8782
30.253
31.7765
32.7419
33.3338
33.6619
33.7974
33.7935
33.693
33.5285
33.3219
33.0866
32.8342
32.5775
32.3218
32.0668
31.8095
31.5425
31.2591
30.9483
30.6128
30.2501
29.8647
29.4672
29.0631
28.6515
28.2209
27.7758
27.327
26.8755
26.4233
25.9741
25.5204
25.063
24.5954
24.115
23.6218
23.1186
22.6078
22.0908
21.569
21.0437
20.5156
19.9856
19.4542
18.9218
18.3892
17.8564
17.3225
16.788
16.2527
15.7177
15.1828
14.6479
14.113
13.5782
13.0433
12.5084
11.9735
11.4386
10.9037
10.3688
9.8339
9.29901
8.76411
8.22921
7.6943
7.1594
6.62451
6.08963
5.55477
5.01997
4.48526
3.95072
3.41649
2.88288
2.35034
1.82003
1.2927
0.772446
0.254169
-318.407
-323.629
-327.563
-323.693
-309.226
-287.781
-265.288
-244.425
-223.985
-200.702
-170.941
-133.583
-92.4473
-55.6016
-27.1757
-6.53311
7.54827
16.8151
22.8966
26.9105
29.5592
31.2942
32.415
33.1159
33.5154
33.6957
33.7181
33.6328
33.4769
33.2758
33.0446
32.7942
32.5381
32.2824
32.0273
31.77
31.5032
31.2209
30.9101
30.5756
30.2122
29.8272
29.4305
29.0272
28.6149
28.1841
27.7392
27.2925
26.8422
26.3914
25.9443
25.4903
25.0315
24.5658
24.0867
23.593
23.0895
22.5784
22.061
21.5388
21.013
20.4845
19.9538
19.4218
18.8884
18.3546
17.8182
17.2842
16.7495
16.2159
15.6816
15.147
14.6122
14.0774
13.5426
13.0077
12.4729
11.938
11.4031
10.8682
10.3333
9.7984
9.26351
8.72861
8.19371
7.65882
7.12393
6.58906
6.05422
5.51943
4.98476
4.45027
3.91612
3.38254
2.85001
2.31909
1.79139
1.26768
0.753893
0.243573
-318.493
-322.654
-325.289
-321.113
-307.442
-286.99
-264.87
-243.637
-222.337
-198.098
-167.951
-131.261
-91.497
-55.8479
-28.2773
-8.09594
5.92986
15.3851
21.7514
26.055
28.9498
30.8737
32.1323
32.9297
33.3921
33.6116
33.6565
33.5833
33.4333
33.2356
33.0073
32.759
32.5035
32.2484
31.9947
31.7385
31.4723
31.1923
30.881
30.5488
30.1854
29.8002
29.4044
29.0017
28.5891
28.1592
27.7165
27.27
26.8204
26.3704
25.9248
25.474
25.0123
24.5462
24.0672
23.5744
23.0711
22.56
22.0425
21.5202
20.9943
20.4658
19.9354
19.4038
18.8711
18.3385
17.8052
17.271
16.7365
16.2011
15.6661
15.1312
14.5963
14.0614
13.5266
12.9917
12.4568
11.9219
11.387
10.8521
10.3172
9.7823
9.24741
8.71251
8.17762
7.64272
7.10783
6.57295
6.0381
5.50329
4.96859
4.43405
3.89982
3.36613
2.83352
2.30268
1.7757
1.25342
0.744982
0.240392
-318.496
-321.92
-323.639
-319.205
-306.068
-286.338
-264.508
-243.019
-221.089
-196.121
-165.616
-129.313
-90.5179
-55.812
-28.9772
-9.26638
4.65147
14.2364
20.8297
25.3665
28.4585
30.534
31.9044
32.7806
33.2914
33.5399
33.6
33.5345
33.3885
33.193
32.9661
32.7185
32.464
32.2087
31.9549
31.7022
31.4392
31.1518
30.8439
30.5095
30.1486
29.7647
29.3686
28.9641
28.5494
28.119
27.6779
27.2331
26.7858
26.3377
25.8895
25.4389
24.9793
24.5143
24.0358
23.5426
23.0389
22.5271
22.0089
21.486
20.9596
20.4305
19.8989
19.3668
18.8334
18.2985
17.7641
17.2294
16.6952
16.1607
15.6261
15.0914
14.5567
14.0219
13.487
12.9521
12.4173
11.8824
11.3475
10.8126
10.2777
9.74282
9.20792
8.67303
8.13813
7.60324
7.06836
6.5335
5.99869
5.46395
4.92936
4.39502
3.86114
3.32804
2.79645
2.26709
1.74268
1.22336
0.721373
0.227343
-318.46
-321.444
-322.513
-317.888
-305.092
-285.837
-264.189
-242.508
-220.126
-194.637
-163.854
-127.787
-89.6537
-55.5992
-29.2848
-9.94906
3.83775
13.4625
20.1906
24.8813
28.106
30.2846
31.7338
32.672
33.2214
33.4922
33.563
33.4996
33.3544
33.1613
32.9383
32.6912
32.4371
32.1831
31.934
31.6833
31.4288
31.1565
30.8567
30.5229
30.1637
29.7828
29.3886
28.9833
28.5651
28.1304
27.6854
27.2355
26.7831
26.3319
25.8822
25.4304
24.9696
24.5021
24.0228
23.5297
23.026
22.5147
21.9965
21.4737
20.9473
20.4182
19.888
19.3555
18.8227
18.2889
17.7554
17.2209
16.6863
16.1513
15.6164
15.0815
14.5466
14.0117
13.4768
12.9419
12.4071
11.8722
11.3373
10.8024
10.2675
9.73258
9.19769
8.66279
8.1279
7.59301
7.05812
6.52326
5.98843
5.45368
4.91905
4.38465
3.85068
3.31746
2.78566
2.25614
1.7319
1.21244
0.714344
0.221555
-318.453
-321.256
-322.004
-317.285
-304.672
-285.668
-264.128
-242.365
-219.775
-194.073
-163.238
-127.394
-89.6657
-55.968
-29.8816
-10.6381
3.18449
12.9057
19.7641
24.5765
27.891
30.1292
31.6146
32.5803
33.1589
33.4298
33.5014
33.4419
33.298
33.1042
32.8809
32.6386
32.385
32.1326
31.8864
31.6389
31.3865
31.1165
30.8178
30.4881
30.1407
29.7635
29.3707
28.9653
28.5466
28.1112
27.6595
27.2058
26.7529
26.2991
25.8461
25.3911
24.9286
24.4597
23.9796
23.4853
22.9807
22.4676
21.9494
21.4264
20.8999
20.3708
19.8399
19.3075
18.7742
18.24
17.706
17.1713
16.6367
16.102
15.5673
15.0326
14.4978
13.9629
13.4281
12.8932
12.3583
11.8234
11.2885
10.7537
10.2188
9.68386
9.14897
8.61408
8.07918
7.54429
7.00941
6.47455
5.93974
5.40501
4.87043
4.33612
3.8023
3.26931
2.73799
2.20898
1.68629
1.16671
0.674008
0.169703
-318.08
-319.886
-321.45
-322.008
-321.51
-319.908
-318.22
-318.395
-344.569
-346.625
-347.944
-348.525
-348.297
-347.496
-346.421
-345.871
-360.532
-362.967
-364.262
-364.726
-364.611
-364.305
-363.976
-363.541
-355.984
-359.163
-360.84
-361.467
-361.267
-360.695
-360.113
-359.384
-330.014
-332.636
-334.667
-335.83
-336.109
-335.806
-335.263
-334.566
-294.923
-296.972
-299.117
-300.773
-301.642
-301.817
-301.497
-300.905
-266.675
-267.652
-269.094
-270.466
-271.339
-271.697
-271.64
-271.299
-248.824
-249.379
-250.125
-250.724
-251.053
-251.172
-251.086
-250.772
-237.467
-238.067
-238.239
-237.955
-237.452
-236.919
-236.329
-235.583
-224.287
-224.988
-224.709
-223.62
-222.144
-220.561
-218.898
-217.165
-198.482
-198.895
-198.07
-196.148
-193.574
-190.712
-187.671
-184.732
-153.076
-152.66
-151.332
-149.033
-146.048
-142.705
-139.054
-135.372
-97.8969
-96.5751
-94.5357
-92.0283
-89.2526
-86.2478
-82.6545
-79.0887
-47.4897
-45.0259
-42.4835
-40.0004
-37.6812
-35.3288
-32.2984
-29.0378
-10.943
-7.62349
-4.68982
-2.21188
-0.248833
1.55605
3.90652
6.60599
11.6572
14.9322
17.7933
20.0625
21.7126
23.1319
24.9071
27.0416
23.896
26.5664
28.9922
30.8867
32.2548
33.4108
34.7373
36.312
29.9348
31.9849
33.8372
35.2776
36.3669
37.2952
38.2635
39.3762
32.7462
34.2355
35.5753
36.6373
37.4664
38.1647
38.8542
39.6342
33.9983
35.0393
35.9752
36.7436
37.3598
37.869
38.3568
38.9066
34.5163
35.2298
35.8733
36.4148
36.8579
37.2264
37.5761
37.9712
34.6925
35.1769
35.616
35.9925
36.3075
36.575
36.8294
37.1204
34.7096
35.0373
35.3372
35.5997
35.8245
36.0204
36.2094
36.4309
34.6503
34.8727
35.0795
35.2644
35.4265
35.5724
35.7166
35.8918
34.5482
34.7007
34.8465
34.9795
35.0993
35.211
35.3245
35.4684
34.4139
34.521
34.6278
34.7282
34.8212
34.9107
35.0034
35.1256
34.2471
34.3267
34.4087
34.4895
34.5666
34.6428
34.7222
34.8288
34.0469
34.1102
34.176
34.2433
34.3101
34.3781
34.4493
34.546
33.8167
33.8687
33.9236
33.9801
34.0378
34.0985
34.165
34.2581
33.5635
33.6065
33.6538
33.7017
33.7518
33.8054
33.8679
33.9581
33.2964
33.3326
33.3741
33.4167
33.462
33.5106
33.569
33.6542
33.0271
33.0586
33.096
33.1363
33.1791
33.2254
33.2815
33.3632
32.763
32.7925
32.828
32.8674
32.9091
32.9545
33.01
33.0897
32.5058
32.5344
32.5691
32.6088
32.6504
32.6962
32.7519
32.8298
32.2539
32.2835
32.319
32.3602
32.4031
32.4499
32.5062
32.582
32.0034
32.0351
32.0728
32.1163
32.1612
32.2093
32.2666
32.3402
31.7432
31.7772
31.817
31.8623
31.9086
31.9572
32.0147
32.0863
31.4618
31.4968
31.5372
31.5833
31.6295
31.6775
31.734
31.8035
31.1509
31.1856
31.2247
31.2699
31.3148
31.3626
31.418
31.4848
30.8063
30.8397
30.876
30.9185
30.9615
31.0094
31.0618
31.1304
30.433
30.4653
30.4996
30.5398
30.5829
30.6333
30.686
30.7435
30.0394
30.0698
30.1017
30.1389
30.1814
30.2339
30.2904
30.3479
29.6292
29.6559
29.6839
29.7154
29.7543
29.8068
29.8637
29.921
29.2127
29.2361
29.2601
29.2869
29.32
29.3679
29.4198
29.476
28.7975
28.8226
28.8455
28.8692
28.8974
28.9386
28.9825
29.0369
28.376
28.4027
28.4253
28.4474
28.4733
28.5104
28.5481
28.6013
27.9367
27.9639
27.9887
28.0108
28.036
28.0715
28.1047
28.1566
27.4858
27.513
27.5399
27.5635
27.5877
27.6225
27.6519
27.7014
27.0277
27.0524
27.0824
27.1121
27.1339
27.168
27.1935
27.2428
26.5714
26.5959
26.6225
26.6522
26.675
26.7091
26.7329
26.7785
26.113
26.1371
26.1586
26.189
26.2185
26.2496
26.2714
26.3127
25.6578
25.6819
25.7033
25.7281
25.7535
25.7839
25.804
25.8431
25.2003
25.2234
25.2451
25.2684
25.2901
25.3198
25.3375
25.3747
24.73
24.7523
24.7733
24.7967
24.817
24.8464
24.8623
24.8987
24.2434
24.2652
24.2859
24.3093
24.3291
24.3582
24.3731
24.4088
23.7464
23.7678
23.788
23.811
23.8306
23.8591
23.8729
23.908
23.2423
23.2635
23.2833
23.3061
23.3252
23.3529
23.366
23.4007
22.7317
22.7529
22.7722
22.795
22.8135
22.8405
22.853
22.8877
22.2152
22.2365
22.2555
22.2784
22.2963
22.3227
22.3348
22.3695
21.6939
21.7153
21.7341
21.7571
21.7744
21.8006
21.8123
21.8471
21.169
21.1908
21.2087
21.232
21.2489
21.2749
21.2863
21.3212
20.6412
20.6631
20.6808
20.7043
20.7207
20.7467
20.7578
20.7929
20.1113
20.1332
20.1509
20.1745
20.1906
20.2166
20.2274
20.2627
19.5799
19.602
19.6193
19.6431
19.6589
19.6851
19.6956
19.7311
19.0468
19.0702
19.0867
19.1109
19.1262
19.1526
19.1629
19.1985
18.5128
18.5369
18.553
18.5776
18.5926
18.6192
18.6293
18.6651
17.9791
18.0034
18.0193
18.0439
18.0588
18.0855
18.0954
18.1312
17.4454
17.4695
17.4854
17.51
17.5247
17.5514
17.5613
17.5972
16.9109
16.9349
16.9509
16.9755
16.9902
17.017
17.0268
17.0627
16.3764
16.4001
16.4163
16.4408
16.4555
16.4823
16.4921
16.5281
15.8418
15.8654
15.8816
15.9061
15.9208
15.9476
15.9573
15.9933
15.3071
15.3306
15.3468
15.3713
15.386
15.4128
15.4225
15.4585
14.7723
14.7958
14.812
14.8365
14.8512
14.878
14.8877
14.9237
14.2375
14.2609
14.2772
14.3016
14.3164
14.3431
14.3529
14.3889
13.7027
13.7261
13.7424
13.7668
13.7815
13.8083
13.818
13.854
13.1678
13.1912
13.2075
13.2319
13.2466
13.2734
13.2831
13.3191
12.6329
12.6563
12.6726
12.697
12.7118
12.7385
12.7482
12.7842
12.098
12.1214
12.1377
12.1621
12.1769
12.2036
12.2133
12.2494
11.5631
11.5865
11.6028
11.6272
11.642
11.6687
11.6784
11.7145
11.0282
11.0516
11.0679
11.0923
11.1071
11.1338
11.1436
11.1796
10.4933
10.5167
10.533
10.5574
10.5722
10.5989
10.6087
10.6447
9.95845
9.98183
9.99815
10.0225
10.0373
10.064
10.0738
10.1098
9.42356
9.44694
9.46325
9.48763
9.50239
9.52913
9.53886
9.57488
8.88866
8.91203
8.92835
8.95273
8.96749
8.99422
9.00396
9.03997
8.35375
8.37712
8.39344
8.41782
8.43257
8.45931
8.46904
8.50506
7.81883
7.84221
7.85852
7.88289
7.89765
7.92438
7.93412
7.97013
7.28391
7.30727
7.32358
7.34795
7.36271
7.38944
7.39918
7.43519
6.74897
6.77232
6.78864
6.81299
6.82775
6.85447
6.86421
6.90021
6.21402
6.23735
6.25366
6.27799
6.29276
6.31946
6.3292
6.3652
5.67903
5.70233
5.71863
5.74293
5.7577
5.78436
5.79411
5.8301
5.14399
5.16722
5.18351
5.20775
5.22252
5.24913
5.25889
5.29485
4.60885
4.63196
4.64824
4.67236
4.68713
4.71364
4.72342
4.75934
4.07353
4.09642
4.11266
4.13659
4.15136
4.17768
4.1875
4.22334
3.53787
3.5604
3.57656
3.60014
3.6149
3.64091
3.65078
3.68649
3.00159
3.0235
3.03946
3.06246
3.07716
3.10263
3.11257
3.14806
2.46426
2.48517
2.50071
2.52276
2.53727
2.56185
2.57189
2.60695
1.92482
1.94406
1.9586
1.97907
1.99288
2.01606
2.0257
2.06055
1.38284
1.39963
1.41244
1.4306
1.4433
1.46379
1.47368
1.50568
0.833952
0.846221
0.855059
0.868832
0.878058
0.895617
0.898849
0.932967
0.285356
0.293428
0.29926
0.310137
0.318361
0.335531
0.349773
0.314722
)
;

boundaryField
{
    frontAndBack
    {
        type            empty;
    }
    inlet
    {
        type            zeroGradient;
    }
    outlet
    {
        type            fixedValue;
        value           uniform 0;
    }
    walls
    {
        type            zeroGradient;
    }
}


// ************************************************************************* //
