/*--------------------------------*- C++ -*----------------------------------*\
| =========                 |                                                 |
| \\      /  F ield         | OpenFOAM: The Open Source CFD Toolbox           |
|  \\    /   O peration     | Version:  v2012                                 |
|   \\  /    A nd           | Website:  www.openfoam.com                      |
|    \\/     M anipulation  |                                                 |
\*---------------------------------------------------------------------------*/
FoamFile
{
    version     2.0;
    format      ascii;
    class       volScalarField;
    location    "0.031";
    object      p;
}
// * * * * * * * * * * * * * * * * * * * * * * * * * * * * * * * * * * * * * //

dimensions      [0 2 -2 0 0 0 0];


internalField   nonuniform List<scalar> 
1900
(
-399.385
-400.539
-400.762
-400.53
-400.094
-398.54
-395.643
-387.283
-373.016
-325.631
-399.555
-400.543
-400.794
-400.659
-400.269
-398.991
-396.279
-389.781
-377.575
-354.685
-399.833
-400.527
-400.797
-400.84
-400.549
-399.607
-397.69
-393.447
-386.506
-380.033
-399.975
-400.56
-400.807
-401.029
-400.993
-400.47
-399.536
-397.756
-395.762
-398.977
-400.093
-400.62
-400.927
-401.314
-401.428
-401.444
-401.578
-402.042
-404.17
-413.683
-400.128
-400.689
-401.153
-401.525
-401.841
-402.411
-403.584
-405.989
-411.419
-425.404
-400.054
-400.803
-401.371
-401.747
-402.236
-403.333
-405.42
-409.351
-417.338
-434.429
-399.854
-400.926
-401.595
-401.944
-402.632
-404.132
-406.877
-411.97
-421.812
-440.969
-399.759
-401.013
-401.723
-402.051
-402.939
-404.708
-407.872
-413.772
-424.814
-445.225
-399.667
-400.999
-401.846
-402.212
-403.11
-404.989
-408.391
-414.709
-426.341
-447.352
-300.275
-540.193
-796.411
-941.277
-997.687
-980.359
-899.271
-765.525
-579.457
-375.932
-225.61
-131.813
-78.7103
-51.294
-37.266
-29.8824
-25.8097
-23.3307
-21.6466
-20.398
-19.3874
-18.5027
-17.6926
-16.9367
-16.222
-15.5365
-14.8705
-14.2171
-13.5724
-12.9348
-12.3031
-11.6768
-11.0568
-10.4453
-9.84487
-9.25773
-8.68502
-8.12861
-7.58982
-7.06926
-6.56725
-6.08417
-5.61982
-5.17361
-4.74451
-4.33144
-3.93328
-3.54922
-3.17881
-2.8218
-2.47812
-2.14772
-1.8305
-1.52666
-1.23675
-0.961584
-0.701967
-0.458537
-0.231918
-0.0219555
0.171656
0.349109
0.510587
0.656158
0.785746
0.899302
0.997009
1.07906
1.14552
1.19647
1.23234
1.25462
1.26641
1.27156
1.27259
1.27239
1.26624
1.25059
1.22677
1.19854
1.16877
1.13199
1.08843
1.04569
1.02073
0.979652
0.93841
0.896109
0.848062
0.793722
0.732989
0.66831
0.601204
0.531467
0.459075
0.384187
0.308618
0.229601
0.145837
0.0501458
-355.874
-556.449
-783.866
-920.038
-975.029
-957.691
-876.049
-742.938
-565.205
-376.186
-235.052
-143.98
-89.5056
-59.4816
-42.9723
-33.6562
-28.2289
-24.8641
-22.6163
-21.0104
-19.7744
-18.749
-17.853
-17.0462
-16.301
-15.5962
-14.9177
-14.2565
-13.6073
-12.9673
-12.3345
-11.7083
-11.0892
-10.4789
-9.8798
-9.29394
-8.72258
-8.16729
-7.62936
-7.10947
-6.60804
-6.12521
-5.66075
-5.21416
-4.78458
-4.37099
-3.9724
-3.58807
-3.21752
-2.86049
-2.5168
-2.18636
-1.86929
-1.56585
-1.27654
-1.00208
-0.743123
-0.500247
-0.273953
-0.0641803
0.129335
0.306788
0.468339
0.614069
0.743879
0.85761
0.955371
1.03744
1.10401
1.15535
1.19152
1.21355
1.22507
1.23038
1.23194
1.23174
1.22687
1.2114
1.18753
1.15899
1.12813
1.09109
1.04887
1.00543
0.959803
0.938982
0.901906
0.859672
0.81192
0.757365
0.696851
0.632348
0.565124
0.49497
0.422483
0.347869
0.27206
0.193698
0.11471
0.0323581
-394.822
-562.9
-762.148
-889.004
-941.216
-924.551
-845.33
-716.078
-550.073
-377.242
-243.535
-154.503
-99.1058
-66.8069
-48.109
-37.0916
-30.456
-26.2873
-23.5215
-21.5843
-20.1384
-18.9824
-18.0072
-17.1523
-16.3768
-15.6524
-14.9613
-14.292
-13.6376
-12.9944
-12.3599
-11.7329
-11.1139
-10.5042
-9.90585
-9.32066
-8.75003
-8.19543
-7.65797
-7.1383
-6.63677
-6.15357
-5.68859
-5.24141
-4.81127
-4.39721
-3.9983
-3.61379
-3.24319
-2.8862
-2.54263
-2.21243
-1.8957
-1.59268
-1.30387
-1.02993
-0.771482
-0.529015
-0.302959
-0.0932989
0.100198
0.277707
0.439369
0.585294
0.715415
0.829492
0.927523
1.00976
1.07652
1.12818
1.16435
1.18549
1.19607
1.20116
1.2029
1.2026
1.19769
1.18336
1.16048
1.13264
1.10239
1.06731
1.02747
0.984738
0.945769
0.92019
0.882731
0.839436
0.792313
0.738475
0.67849
0.614613
0.548427
0.479353
0.408095
0.334939
0.262212
0.189359
0.117774
0.0409122
-422.224
-560.594
-736.724
-855.515
-906.868
-892.391
-816.786
-693.19
-537.657
-377.639
-250.259
-163.322
-107.351
-73.1964
-52.6545
-40.1763
-32.4796
-27.5902
-24.3545
-22.115
-20.4775
-19.2028
-18.1558
-17.2571
-16.4546
-15.7136
-15.0125
-14.3372
-13.6794
-13.0343
-12.3992
-11.7723
-11.1538
-10.5449
-9.94746
-9.36311
-8.79337
-8.23957
-7.70269
-7.18335
-6.68194
-6.19865
-5.73338
-5.28577
-4.85513
-4.44057
-4.04124
-3.6564
-3.28559
-2.92849
-2.58488
-2.25468
-1.93801
-1.63515
-1.34663
-1.07306
-0.815007
-0.572883
-0.34702
-0.137421
0.0561052
0.233714
0.395541
0.541716
0.672161
0.78652
0.884726
0.967144
1.03428
1.08662
1.12297
1.1432
1.1531
1.15817
1.15983
1.1591
1.15453
1.14159
1.11868
1.09033
1.0601
1.02565
0.987617
0.941335
0.91202
0.884622
0.847271
0.803324
0.755288
0.701406
0.642698
0.579087
0.512801
0.442999
0.371442
0.298466
0.226275
0.153328
0.0850913
0.0182001
-443.911
-560.671
-717.192
-828.73
-878.2
-865.223
-792.928
-674.299
-527.224
-377.472
-255.825
-170.714
-114.323
-78.6776
-56.6042
-42.8875
-34.2742
-28.7521
-25.0988
-22.5883
-20.7772
-19.3937
-18.2789
-17.3377
-16.5082
-15.7502
-15.0383
-14.3566
-13.6947
-13.0472
-12.411
-11.7839
-11.1658
-10.5577
-9.96113
-9.37778
-8.80911
-8.25629
-7.72017
-7.20137
-6.70027
-6.21705
-5.75166
-5.30384
-4.873
-4.45828
-4.05887
-3.67405
-3.30337
-2.9465
-2.60317
-2.27329
-1.95698
-1.65456
-1.3665
-1.09341
-0.835799
-0.594082
-0.368545
-0.1592
0.0341459
0.211692
0.373614
0.520077
0.650975
0.765789
0.864347
0.947049
1.01444
1.0669
1.10222
1.12052
1.12925
1.13398
1.13547
1.13454
1.13082
1.11987
1.09771
1.07007
1.04123
1.00749
0.97225
0.935519
0.899263
0.869424
0.831896
0.786442
0.735748
0.682753
0.625786
0.563464
0.497784
0.428706
0.358333
0.286737
0.217292
0.149306
0.0884492
0.0313801
-460.349
-562.869
-703.135
-808.171
-854.49
-842.709
-773.465
-659.182
-518.964
-377.242
-260.302
-176.664
-119.993
-83.2025
-59.8997
-45.1728
-35.8042
-29.7567
-25.7553
-23.0198
-21.066
-19.5941
-18.4253
-17.4504
-16.5995
-15.8278
-15.107
-14.4195
-13.7537
-13.1036
-12.4656
-11.8376
-11.2189
-10.6105
-10.0138
-9.43036
-8.86182
-8.30909
-7.7729
-7.25386
-6.75236
-6.2686
-5.80254
-5.35401
-4.92249
-4.50715
-4.1072
-3.72194
-3.35093
-2.99387
-2.65043
-2.32049
-2.00415
-1.70171
-1.41365
-1.14058
-0.883032
-0.641424
-0.416021
-0.20682
-0.0135864
0.163957
0.326059
0.472932
0.604431
0.719839
0.81891
0.902126
0.970081
1.023
1.05768
1.07455
1.08222
1.08643
1.08744
1.08605
1.08283
1.07299
1.04963
1.02252
0.995603
0.961743
0.926019
0.895546
0.861434
0.832086
0.792941
0.746933
0.696293
0.644653
0.587777
0.525323
0.459343
0.389974
0.31936
0.247895
0.178836
0.111104
0.0532157
0.00431981
-472.278
-565.12
-692.541
-792.239
-835.619
-824.961
-758.385
-647.636
-512.669
-376.984
-263.758
-181.326
-124.493
-86.832
-62.551
-47.0073
-37.0215
-30.5385
-26.2457
-23.3195
-21.2437
-19.6962
-18.4814
-17.4786
-16.6111
-15.8299
-15.104
-14.4142
-13.7478
-13.0978
-12.4605
-11.8336
-11.2164
-10.6094
-10.0141
-9.43216
-8.8651
-8.3137
-7.77856
-7.26032
-6.75943
-6.27607
-5.81025
-5.36189
-4.93051
-4.51533
-4.11558
-3.73055
-3.35985
-3.00319
-2.66018
-2.33069
-2.0148
-1.71278
-1.42511
-1.15239
-0.895196
-0.653975
-0.428994
-0.220221
-0.0273586
0.149968
0.312094
0.459287
0.591365
0.707379
0.807006
0.89074
0.958951
1.01129
1.04397
1.05834
1.06436
1.06819
1.06922
1.06818
1.067
1.05995
1.03532
1.00813
0.98331
0.947207
0.915472
0.883676
0.851461
0.818784
0.778708
0.733764
0.684896
0.632715
0.57604
0.51405
0.448525
0.379568
0.309525
0.23927
0.171962
0.108855
0.0579368
0.0159512
-480.549
-567.018
-685.047
-780.714
-821.537
-811.772
-747.314
-639.208
-508.048
-376.716
-266.286
-184.815
-127.925
-89.6665
-64.6762
-48.5295
-38.0825
-31.2688
-26.7518
-23.677
-21.5035
-19.8926
-18.6363
-17.6056
-16.7188
-15.9241
-15.1887
-14.4922
-13.8211
-13.1675
-12.5273
-11.8983
-11.2797
-10.6716
-10.0754
-9.49281
-8.92538
-8.37357
-7.83795
-7.31912
-6.81753
-6.33339
-5.86677
-5.41765
-4.98561
-4.56982
-4.16951
-3.78402
-3.41297
-3.05608
-2.71292
-2.3833
-2.06729
-1.76512
-1.47727
-1.20434
-0.946992
-0.705745
-0.480865
-0.272269
-0.0795569
0.0977725
0.260149
0.407896
0.540784
0.657589
0.757976
0.84255
0.911436
0.963778
0.995399
1.00778
1.01185
1.01437
1.01412
1.0123
1.01199
1.00614
0.980375
0.95776
0.919152
0.898956
0.869286
0.838088
0.806821
0.773978
0.736261
0.691854
0.642533
0.589738
0.533025
0.471099
0.405384
0.336013
0.26601
0.195696
0.127961
0.0654991
0.018515
-0.01089
-485.765
-568.376
-680.304
-773.387
-812.188
-802.859
-739.889
-633.484
-504.69
-376.1
-267.497
-186.696
-129.828
-91.2441
-65.8358
-49.3245
-38.5953
-31.5797
-26.9284
-23.7684
-21.5432
-19.9029
-18.6308
-17.5919
-16.7014
-15.9056
-15.1706
-14.4753
-13.8059
-13.1538
-12.515
-11.8875
-11.2703
-10.6635
-10.0685
-9.48717
-8.92103
-8.37026
-7.83552
-7.31739
-6.81632
-6.33256
-5.86618
-5.41727
-4.9855
-4.56997
-4.16991
-3.78463
-3.41382
-3.05726
-2.71447
-2.38525
-2.06961
-1.76774
-1.48006
-1.20727
-0.950131
-0.709264
-0.484913
-0.276906
-0.0847061
0.0923306
0.254728
0.40288
0.536521
0.654079
0.755266
0.840705
0.909597
0.960594
0.989526
0.998391
1.00036
1.00304
1.00299
1.00033
1.00297
0.997698
0.981755
0.945512
0.911253
0.890091
0.864427
0.833267
0.799443
0.768278
0.731276
0.686352
0.637405
0.585207
0.528298
0.466075
0.400249
0.331138
0.260898
0.191684
0.124986
0.0656334
0.0189907
-0.00971415
-488.324
-569.134
-678.054
-769.907
-807.775
-798.266
-736.178
-630.798
-503.325
-376.216
-268.592
-188.122
-131.218
-92.4091
-66.7286
-49.9815
-39.0699
-31.9221
-27.1802
-23.9592
-21.6932
-20.0258
-18.7354
-17.6838
-16.7842
-15.9817
-15.242
-14.5434
-13.8717
-13.2178
-12.5775
-11.9488
-11.3308
-10.7235
-10.1279
-9.54621
-8.97986
-8.42884
-7.89378
-7.3753
-6.87383
-6.38966
-5.92288
-5.47369
-5.04169
-4.62591
-4.22561
-3.84014
-3.46918
-3.11249
-2.76959
-2.44028
-2.12459
-1.82263
-1.53478
-1.26176
-1.00447
-0.763594
-0.539343
-0.331463
-0.139341
0.0377332
0.200328
0.348878
0.482959
0.600756
0.7022
0.788044
0.857374
0.909515
0.938962
0.946059
0.945706
0.94684
0.946581
0.944122
0.947198
0.942349
0.928605
0.893627
0.860879
0.836313
0.81184
0.781855
0.750639
0.719812
0.682623
0.63796
0.588745
0.536091
0.479015
0.416923
0.350958
0.281886
0.211859
0.141748
0.0764204
0.0165268
-0.0261998
-0.0457873
-307.582
-319.683
-328.08
-330.295
-321.335
-303.313
-286.307
-283.975
-553.26
-564.596
-572.162
-572.922
-564.551
-547.713
-527.962
-518.35
-807.997
-816.487
-820.921
-819.266
-811.802
-799.639
-785.419
-775.449
-956.013
-965.266
-968.293
-966.841
-961.901
-954.474
-946.448
-940.018
-1011.78
-1020.09
-1022.97
-1021.99
-1018.24
-1012.22
-1005.9
-1000.77
-991.701
-998.563
-1001.14
-999.772
-996.118
-991.181
-987.018
-984.559
-909.515
-914.954
-917.229
-916.217
-912.687
-908.025
-903.74
-900.758
-776.208
-781.278
-782.743
-780.762
-776.051
-769.998
-764.3
-760.579
-585.365
-586.308
-584.679
-580.351
-573.989
-566.566
-560.018
-555.922
-374.263
-370.688
-365.617
-359.479
-352.792
-346.404
-341.09
-338.014
-216.618
-208.059
-199.488
-191.622
-184.759
-179.133
-175.089
-173.141
-119.934
-109.431
-99.5574
-90.9658
-84.0536
-79.103
-76.0821
-74.891
-68.5156
-59.5483
-50.9854
-43.5247
-37.6987
-33.7341
-31.5709
-30.7492
-43.6514
-36.9999
-30.5824
-24.9182
-20.491
-17.4934
-15.855
-15.3177
-31.9506
-27.3446
-22.8859
-18.8956
-15.7266
-13.5448
-12.3026
-11.8666
-26.3901
-23.381
-20.4767
-17.8789
-15.8279
-14.4492
-13.6999
-13.4776
-23.5897
-21.6884
-19.8584
-18.2228
-16.9292
-16.0583
-15.5766
-15.4251
-21.9319
-20.7391
-19.5902
-18.5585
-17.7344
-17.1731
-16.8533
-16.7432
-20.7653
-20.0176
-19.2974
-18.6492
-18.1277
-17.7706
-17.5615
-17.4812
-19.842
-19.3727
-18.9215
-18.5157
-18.1867
-17.9596
-17.8215
-17.7599
-19.0344
-18.7368
-18.4506
-18.1935
-17.9822
-17.8337
-17.7387
-17.6882
-18.2771
-18.085
-17.8986
-17.7318
-17.5921
-17.4912
-17.4235
-17.3785
-17.5469
-17.4207
-17.2954
-17.1839
-17.0879
-17.0156
-16.966
-16.9241
-16.839
-16.7538
-16.667
-16.5897
-16.5207
-16.4653
-16.4277
-16.3875
-16.1524
-16.0926
-16.0304
-15.9743
-15.9223
-15.8775
-15.8481
-15.8089
-15.4843
-15.4401
-15.3935
-15.3506
-15.31
-15.2718
-15.2482
-15.2097
-14.8293
-14.7946
-14.758
-14.7238
-14.6908
-14.6568
-14.6368
-14.5985
-14.1829
-14.1541
-14.1238
-14.0949
-14.067
-14.0356
-14.0177
-13.9791
-13.5426
-13.5174
-13.4909
-13.4651
-13.4404
-13.4103
-13.3936
-13.3549
-12.9075
-12.8844
-12.8602
-12.8359
-12.8131
-12.7834
-12.7674
-12.7287
-12.2771
-12.2548
-12.2318
-12.2081
-12.1864
-12.1565
-12.1407
-12.102
-11.6511
-11.6288
-11.6059
-11.5819
-11.5606
-11.5301
-11.5143
-11.4754
-11.0305
-11.0074
-10.9839
-10.959
-10.9373
-10.9059
-10.8899
-10.8508
-10.4178
-10.3935
-10.369
-10.3429
-10.3202
-10.2878
-10.2714
-10.2321
-9.81632
-9.79079
-9.76542
-9.73787
-9.71383
-9.68028
-9.66339
-9.62397
-9.22834
-9.20173
-9.17528
-9.14588
-9.12094
-9.08643
-9.06919
-9.02961
-8.65477
-8.62699
-8.5998
-8.5694
-8.54389
-8.50865
-8.49121
-8.45147
-8.0977
-8.06902
-8.04116
-8.00992
-7.98395
-7.94814
-7.93063
-7.89077
-7.5584
-7.52903
-7.50067
-7.46871
-7.44237
-7.40608
-7.3885
-7.34855
-7.03755
-7.00771
-6.97906
-6.94658
-6.92006
-6.88345
-6.86583
-6.82579
-6.53553
-6.50564
-6.47688
-6.44413
-6.41761
-6.38084
-6.36329
-6.32316
-6.05261
-6.02291
-5.99423
-5.96149
-5.93517
-5.89838
-5.88097
-5.84078
-5.58873
-5.55931
-5.53095
-5.49848
-5.47252
-5.43584
-5.41861
-5.37838
-5.14322
-5.11411
-5.08629
-5.05424
-5.0288
-4.99233
-4.97533
-4.93502
-4.71484
-4.68609
-4.65896
-4.62744
-4.6026
-4.56643
-4.54968
-4.50928
-4.30243
-4.27405
-4.2476
-4.21658
-4.19236
-4.1565
-4.14004
-4.09953
-3.90479
-3.87669
-3.85082
-3.82018
-3.79649
-3.76088
-3.74467
-3.70407
-3.52109
-3.49314
-3.46766
-3.43721
-3.41389
-3.37841
-3.36236
-3.32165
-3.15092
-3.12295
-3.09773
-3.06731
-3.0442
-3.00868
-2.99268
-2.95185
-2.79408
-2.76598
-2.74092
-2.71045
-2.68741
-2.65176
-2.63568
-2.59473
-2.45034
-2.42203
-2.39723
-2.36662
-2.34359
-2.30777
-2.29155
-2.25046
-2.11964
-2.09106
-2.06654
-2.03568
-2.01264
-1.97666
-1.96031
-1.91907
-1.80215
-1.77324
-1.74868
-1.71743
-1.69433
-1.65818
-1.64171
-1.60031
-1.498
-1.46865
-1.44372
-1.41199
-1.38871
-1.35227
-1.33564
-1.29412
-1.20768
-1.17781
-1.1523
-1.11997
-1.09638
-1.0595
-1.04265
-1.00103
-0.932067
-0.90165
-0.875518
-0.842528
-0.818461
-0.781027
-0.763877
-0.722188
-0.672034
-0.641123
-0.614503
-0.580885
-0.556189
-0.518256
-0.500768
-0.459068
-0.428315
-0.39694
-0.370032
-0.335828
-0.310314
-0.272048
-0.254131
-0.212312
-0.201725
-0.170028
-0.142913
-0.108186
-0.0818003
-0.0434211
-0.0251353
0.0168288
0.00802786
0.0401121
0.0676544
0.101954
0.128325
0.166786
0.185257
0.22723
0.201345
0.233694
0.261392
0.295232
0.321535
0.359952
0.378399
0.420333
0.378544
0.410922
0.438444
0.472083
0.498271
0.536593
0.554954
0.596866
0.539796
0.572068
0.599213
0.632798
0.658735
0.696948
0.715168
0.757064
0.68512
0.717145
0.743858
0.777459
0.803042
0.841165
0.859191
0.901082
0.814397
0.846117
0.872451
0.906041
0.931243
0.969305
0.987105
1.029
0.927621
0.959147
0.985126
1.01867
1.04352
1.08156
1.09912
1.14103
1.02511
1.05662
1.08222
1.11569
1.1402
1.17827
1.19557
1.23751
1.1071
1.13855
1.16404
1.19738
1.22154
1.25969
1.2767
1.31864
1.17346
1.20476
1.23014
1.2635
1.28724
1.32558
1.34226
1.38418
1.22424
1.25519
1.28028
1.31348
1.33664
1.37533
1.39175
1.43365
1.26015
1.29078
1.31585
1.34868
1.37145
1.41025
1.42649
1.46827
1.28292
1.31356
1.33883
1.37139
1.39423
1.43272
1.44888
1.49037
1.29515
1.32591
1.3511
1.38319
1.40641
1.44432
1.46061
1.50169
1.30048
1.33139
1.35612
1.38833
1.41168
1.4488
1.46514
1.50577
1.30141
1.33223
1.35612
1.39055
1.41515
1.45148
1.4673
1.50739
1.30059
1.33051
1.35643
1.39085
1.41285
1.44938
1.46427
1.50402
1.2936
1.32386
1.34793
1.38003
1.40078
1.43784
1.45192
1.49159
1.27699
1.30666
1.32948
1.36154
1.38148
1.41772
1.43124
1.47085
1.25272
1.28224
1.30448
1.33639
1.3562
1.3918
1.40466
1.44415
1.22394
1.25354
1.27497
1.3064
1.32495
1.36036
1.37251
1.41206
1.19367
1.2229
1.24274
1.27437
1.29174
1.32662
1.33758
1.37721
1.15655
1.1874
1.20658
1.23771
1.25388
1.28949
1.29933
1.339
1.10992
1.14058
1.15824
1.18913
1.20731
1.24773
1.25899
1.29816
1.06497
1.09515
1.1145
1.15001
1.16594
1.20186
1.21157
1.25105
1.03696
1.06558
1.08066
1.11389
1.12644
1.1619
1.16976
1.20926
1.0007
1.03437
1.03691
1.07111
1.0834
1.11953
1.12691
1.16679
0.955795
0.984804
0.998125
1.03677
1.04654
1.0807
1.08696
1.12645
0.913425
0.942756
0.956523
0.987884
0.998417
1.0329
1.03927
1.07879
0.864815
0.893551
0.906492
0.937565
0.947064
0.981351
0.987255
1.02662
0.8102
0.838902
0.850927
0.881888
0.890847
0.925512
0.931161
0.970162
0.748716
0.777359
0.78869
0.819848
0.828448
0.863849
0.86961
0.908359
0.683264
0.71195
0.72305
0.754342
0.762827
0.797761
0.802857
0.84152
0.615301
0.644017
0.654458
0.685441
0.693565
0.728026
0.732671
0.77127
0.544729
0.573795
0.58355
0.614451
0.622064
0.656515
0.661012
0.699264
0.471395
0.500332
0.509054
0.540742
0.547304
0.581512
0.585496
0.623778
0.394859
0.423937
0.431329
0.463571
0.470028
0.50403
0.507704
0.545281
0.316568
0.345648
0.352071
0.381136
0.38678
0.419516
0.422831
0.459945
0.233425
0.261495
0.263851
0.292219
0.296989
0.328743
0.331723
0.368207
0.143061
0.169305
0.168689
0.191321
0.192719
0.219034
0.219679
0.253232
0.0478279
0.0590504
0.0597089
0.0760246
0.0775483
0.0999989
0.102509
0.130997
)
;

boundaryField
{
    frontAndBack
    {
        type            empty;
    }
    inlet
    {
        type            zeroGradient;
    }
    outlet
    {
        type            fixedValue;
        value           uniform 0;
    }
    walls
    {
        type            zeroGradient;
    }
}


// ************************************************************************* //
