/*--------------------------------*- C++ -*----------------------------------*\
| =========                 |                                                 |
| \\      /  F ield         | OpenFOAM: The Open Source CFD Toolbox           |
|  \\    /   O peration     | Version:  v2012                                 |
|   \\  /    A nd           | Website:  www.openfoam.com                      |
|    \\/     M anipulation  |                                                 |
\*---------------------------------------------------------------------------*/
FoamFile
{
    version     2.0;
    format      ascii;
    class       volScalarField;
    location    "0.046";
    object      p;
}
// * * * * * * * * * * * * * * * * * * * * * * * * * * * * * * * * * * * * * //

dimensions      [0 2 -2 0 0 0 0];


internalField   nonuniform List<scalar> 
5600
(
-0.593515
-1.0517
-1.43217
-1.75069
-2.06134
-2.37177
-2.67317
-2.95441
-3.21782
-3.46861
-3.70424
-3.92779
-4.14304
-4.35089
-4.55171
-4.74666
-4.93779
-5.12575
-5.31123
-5.49536
-5.67551
-5.85022
-6.0199
-6.18449
-6.34441
-6.50081
-6.6554
-6.80912
-6.9614
-7.11277
-7.26426
-7.41596
-7.5679
-7.72012
-7.87248
-8.02491
-8.17739
-8.32991
-8.48244
-8.63498
-8.78753
-8.94008
-9.09263
-9.24518
-9.39773
-9.55029
-9.70284
-9.8554
-10.008
-10.1605
-10.3131
-10.4656
-10.6182
-10.7707
-10.9233
-11.0758
-11.2284
-11.381
-11.5335
-11.6861
-11.8386
-11.9912
-12.1437
-12.2963
-12.4489
-12.6014
-12.754
-12.9065
-13.059
-13.2117
-13.3641
-13.5168
-13.6691
-13.822
-13.9741
-14.1272
-14.2793
-14.4322
-14.5845
-14.7373
-14.8894
-15.043
-15.1933
-15.3493
-15.4974
-15.6539
-15.8063
-15.9538
-16.1164
-16.2523
-16.4251
-16.5626
-16.716
-16.8784
-17.0038
-17.1724
-17.2357
-17.2908
-17.1842
-16.2423
-0.652549
-1.07188
-1.44878
-1.7685
-2.07933
-2.39011
-2.69141
-2.97291
-3.23672
-3.48755
-3.72337
-3.94721
-4.16281
-4.37104
-4.57223
-4.7675
-4.95892
-5.14713
-5.3327
-5.51711
-5.69751
-5.87247
-6.04239
-6.20737
-6.36742
-6.52407
-6.67873
-6.83223
-6.98448
-7.13581
-7.2873
-7.43902
-7.59096
-7.7432
-7.89557
-8.04801
-8.20049
-8.35301
-8.50554
-8.65808
-8.81063
-8.96318
-9.11573
-9.26829
-9.42084
-9.57339
-9.72594
-9.8785
-10.0311
-10.1836
-10.3362
-10.4887
-10.6413
-10.7938
-10.9464
-11.099
-11.2515
-11.4041
-11.5566
-11.7092
-11.8617
-12.0143
-12.1668
-12.3194
-12.472
-12.6245
-12.7771
-12.9296
-13.0822
-13.2348
-13.3872
-13.5399
-13.6923
-13.8451
-13.9973
-14.1502
-14.3024
-14.4552
-14.6076
-14.7603
-14.9125
-15.0659
-15.2168
-15.3718
-15.5214
-15.6762
-15.8297
-15.9777
-16.1376
-16.2779
-16.4451
-16.5885
-16.7391
-16.899
-17.0306
-17.1866
-17.2671
-17.3074
-17.2173
-16.3536
-0.690794
-1.08451
-1.46153
-1.78186
-2.09054
-2.39883
-2.699
-2.98017
-3.24374
-3.4941
-3.72972
-3.95381
-4.16942
-4.37751
-4.57866
-4.77397
-4.96541
-5.15352
-5.33913
-5.52365
-5.70418
-5.87928
-6.04931
-6.21385
-6.37411
-6.53019
-6.68488
-6.8391
-6.99162
-7.14294
-7.29447
-7.44615
-7.59805
-7.75025
-7.90259
-8.05501
-8.20749
-8.36
-8.51252
-8.66506
-8.81761
-8.97016
-9.12271
-9.27526
-9.42781
-9.58037
-9.73292
-9.88548
-10.038
-10.1906
-10.3431
-10.4957
-10.6483
-10.8008
-10.9534
-11.1059
-11.2585
-11.411
-11.5636
-11.7162
-11.8687
-12.0213
-12.1738
-12.3264
-12.4789
-12.6315
-12.784
-12.9366
-13.0891
-13.2417
-13.3942
-13.5469
-13.6993
-13.852
-14.0043
-14.1571
-14.3095
-14.4622
-14.6146
-14.7673
-14.9195
-15.0728
-15.2238
-15.3785
-15.5286
-15.6829
-15.837
-15.9845
-16.1437
-16.2868
-16.4503
-16.5965
-16.7455
-16.9038
-17.0464
-17.1878
-17.2873
-17.325
-17.2472
-16.518
-0.739526
-1.10098
-1.47691
-1.79871
-2.10612
-2.41346
-2.71398
-2.99585
-3.26001
-3.51061
-3.74688
-3.97113
-4.1871
-4.39525
-4.59647
-4.79182
-4.98318
-5.17101
-5.35618
-5.54037
-5.7208
-5.89632
-6.06703
-6.23249
-6.39339
-6.55091
-6.70595
-6.85884
-7.01101
-7.16234
-7.31391
-7.46565
-7.61764
-7.76989
-7.92227
-8.07472
-8.22721
-8.37973
-8.53227
-8.68481
-8.83736
-8.98991
-9.14246
-9.29501
-9.44756
-9.60012
-9.75267
-9.90522
-10.0578
-10.2103
-10.3629
-10.5154
-10.668
-10.8206
-10.9731
-11.1257
-11.2782
-11.4308
-11.5833
-11.7359
-11.8885
-12.041
-12.1936
-12.3461
-12.4987
-12.6512
-12.8038
-12.9563
-13.1089
-13.2614
-13.414
-13.5665
-13.7191
-13.8716
-14.0242
-14.1767
-14.3293
-14.4819
-14.6344
-14.787
-14.9395
-15.092
-15.2448
-15.3969
-15.5499
-15.7025
-15.8554
-16.0087
-16.1581
-16.3129
-16.4659
-16.6172
-16.77
-16.9192
-17.0731
-17.2013
-17.31
-17.3571
-17.2978
-16.7421
-0.789166
-1.1181
-1.49265
-1.81689
-2.12273
-2.42921
-2.72939
-3.01119
-3.27535
-3.52559
-3.76214
-3.98638
-4.2025
-4.41072
-4.61203
-4.80757
-4.99923
-5.18727
-5.37251
-5.55667
-5.73712
-5.91244
-6.08285
-6.24802
-6.40846
-6.56494
-6.71892
-6.87397
-7.02627
-7.17771
-7.32923
-7.48089
-7.6328
-7.78498
-7.93731
-8.08973
-8.24221
-8.39471
-8.54724
-8.69978
-8.85233
-9.00488
-9.15743
-9.30998
-9.46253
-9.61508
-9.76764
-9.92019
-10.0727
-10.2253
-10.3779
-10.5304
-10.683
-10.8355
-10.9881
-11.1406
-11.2932
-11.4458
-11.5983
-11.7509
-11.9034
-12.056
-12.2085
-12.3611
-12.5137
-12.6662
-12.8188
-12.9713
-13.1239
-13.2764
-13.429
-13.5815
-13.7341
-13.8866
-14.0392
-14.1917
-14.3443
-14.4968
-14.6495
-14.8018
-14.9546
-15.1068
-15.2599
-15.4117
-15.5649
-15.7173
-15.87
-16.0235
-16.172
-16.3285
-16.4806
-16.6329
-16.7822
-16.9332
-17.0895
-17.2172
-17.3326
-17.3944
-17.365
-17.0054
-0.839211
-1.13742
-1.50993
-1.83713
-2.14139
-2.44686
-2.74663
-3.02856
-3.29293
-3.54319
-3.78006
-4.00484
-4.22118
-4.42954
-4.63095
-4.82665
-5.01843
-5.20663
-5.39207
-5.57598
-5.75618
-5.93135
-6.10193
-6.26755
-6.42855
-6.58585
-6.74152
-6.8946
-7.04683
-7.19819
-7.34973
-7.5015
-7.65349
-7.80571
-7.95807
-8.11051
-8.26299
-8.41551
-8.56805
-8.72059
-8.87313
-9.02568
-9.17824
-9.33079
-9.48334
-9.63589
-9.78845
-9.941
-10.0936
-10.2461
-10.3987
-10.5512
-10.7038
-10.8563
-11.0089
-11.1615
-11.314
-11.4666
-11.6191
-11.7717
-11.9242
-12.0768
-12.2294
-12.3819
-12.5345
-12.687
-12.8396
-12.9921
-13.1447
-13.2972
-13.4498
-13.6023
-13.7549
-13.9074
-14.06
-14.2125
-14.3651
-14.5176
-14.6702
-14.8227
-14.9754
-15.1276
-15.2807
-15.4327
-15.5857
-15.7384
-15.8907
-16.0445
-16.1937
-16.3497
-16.5017
-16.6536
-16.8058
-16.9565
-17.1113
-17.2416
-17.3594
-17.4378
-17.4497
-17.2864
-0.888632
-1.15924
-1.52899
-1.85942
-2.16223
-2.46664
-2.76608
-3.04819
-3.31273
-3.56297
-3.80003
-4.02518
-4.24158
-4.44999
-4.65146
-4.84725
-5.03912
-5.22749
-5.41303
-5.59685
-5.77697
-5.95204
-6.12244
-6.28784
-6.44865
-6.60531
-6.76027
-6.91452
-7.06705
-7.21849
-7.37002
-7.52176
-7.67368
-7.82583
-7.97816
-8.13057
-8.28304
-8.43555
-8.58807
-8.74061
-8.89316
-9.0457
-9.19825
-9.35081
-9.50336
-9.65591
-9.80847
-9.96102
-10.1136
-10.2661
-10.4187
-10.5712
-10.7238
-10.8764
-11.0289
-11.1815
-11.334
-11.4866
-11.6391
-11.7917
-11.9443
-12.0968
-12.2494
-12.4019
-12.5545
-12.707
-12.8596
-13.0121
-13.1647
-13.3172
-13.4698
-13.6223
-13.7749
-13.9274
-14.08
-14.2325
-14.3851
-14.5376
-14.6902
-14.8427
-14.9954
-15.1477
-15.3007
-15.4527
-15.6057
-15.7582
-15.9108
-16.0641
-16.2139
-16.3693
-16.5215
-16.6737
-16.824
-16.9746
-17.1306
-17.2666
-17.3913
-17.4868
-17.5472
-17.5672
-0.935609
-1.18373
-1.55039
-1.88388
-2.1855
-2.48889
-2.78812
-3.07033
-3.33499
-3.58524
-3.82243
-4.04788
-4.26438
-4.47291
-4.67447
-4.87036
-5.06233
-5.25085
-5.4365
-5.6203
-5.80031
-5.97522
-6.14555
-6.31108
-6.47216
-6.6304
-6.78493
-6.9389
-7.09131
-7.24274
-7.39435
-7.54618
-7.69815
-7.85032
-8.00265
-8.15508
-8.30756
-8.46007
-8.6126
-8.76514
-8.91768
-9.07023
-9.22278
-9.37534
-9.52789
-9.68044
-9.833
-9.98555
-10.1381
-10.2907
-10.4432
-10.5958
-10.7483
-10.9009
-11.0534
-11.206
-11.3586
-11.5111
-11.6637
-11.8162
-11.9688
-12.1213
-12.2739
-12.4265
-12.579
-12.7316
-12.8841
-13.0367
-13.1892
-13.3418
-13.4943
-13.6469
-13.7994
-13.952
-14.1045
-14.2571
-14.4096
-14.5622
-14.7148
-14.8673
-15.0199
-15.1723
-15.3251
-15.4774
-15.6302
-15.7829
-15.9353
-16.0885
-16.2392
-16.3936
-16.5464
-16.6984
-16.8508
-17.0036
-17.1575
-17.296
-17.4279
-17.5438
-17.6563
-17.8376
-0.978588
-1.2108
-1.57472
-1.91066
-2.21141
-2.51395
-2.81305
-3.0953
-3.36003
-3.61035
-3.84764
-4.0733
-4.28988
-4.49853
-4.70016
-4.8961
-5.08811
-5.27674
-5.46246
-5.64624
-5.82615
-6.00092
-6.17119
-6.33675
-6.4978
-6.65461
-6.80976
-6.96392
-7.1166
-7.26802
-7.41959
-7.57143
-7.72339
-7.87554
-8.02786
-8.18027
-8.33274
-8.48525
-8.63777
-8.79031
-8.94286
-9.0954
-9.24796
-9.40051
-9.55306
-9.70561
-9.85817
-10.0107
-10.1633
-10.3158
-10.4684
-10.6209
-10.7735
-10.9261
-11.0786
-11.2312
-11.3837
-11.5363
-11.6888
-11.8414
-11.994
-12.1465
-12.2991
-12.4516
-12.6042
-12.7567
-12.9093
-13.0618
-13.2144
-13.3669
-13.5195
-13.672
-13.8246
-13.9771
-14.1297
-14.2822
-14.4348
-14.5874
-14.7399
-14.8924
-15.0451
-15.1975
-15.3502
-15.5026
-15.6553
-15.808
-15.9605
-16.1135
-16.2645
-16.4186
-16.5714
-16.7236
-16.8752
-17.0265
-17.1815
-17.3277
-17.4686
-17.6072
-17.7738
-18.0905
-1.01577
-1.24
-1.60257
-1.93993
-2.24015
-2.54225
-2.84131
-3.12353
-3.3883
-3.63869
-3.87604
-4.10179
-4.31842
-4.52713
-4.72881
-4.92478
-5.11682
-5.30551
-5.49129
-5.67508
-5.85493
-6.02963
-6.19987
-6.36541
-6.52666
-6.68431
-6.83957
-6.99341
-7.14623
-7.29771
-7.44933
-7.60119
-7.75313
-7.90525
-8.05756
-8.20997
-8.36244
-8.51495
-8.66747
-8.82001
-8.97256
-9.12511
-9.27766
-9.43021
-9.58276
-9.73531
-9.88787
-10.0404
-10.193
-10.3455
-10.4981
-10.6506
-10.8032
-10.9558
-11.1083
-11.2609
-11.4134
-11.566
-11.7185
-11.8711
-12.0237
-12.1762
-12.3288
-12.4813
-12.6339
-12.7864
-12.939
-13.0915
-13.2441
-13.3966
-13.5492
-13.7017
-13.8543
-14.0068
-14.1594
-14.312
-14.4645
-14.6171
-14.7696
-14.9222
-15.0748
-15.2272
-15.3799
-15.5323
-15.685
-15.8377
-15.9902
-16.1431
-16.2947
-16.4483
-16.6013
-16.7536
-16.9064
-17.0604
-17.2158
-17.364
-17.5148
-17.6777
-17.8978
-18.3246
-1.04313
-1.26929
-1.63298
-1.97028
-2.27039
-2.57263
-2.87177
-3.15387
-3.41863
-3.66907
-3.90641
-4.13216
-4.34877
-4.55748
-4.75916
-4.95516
-5.14722
-5.33588
-5.52169
-5.7055
-5.8853
-6.05998
-6.23021
-6.39573
-6.55681
-6.71411
-6.86915
-7.02292
-7.17564
-7.32698
-7.47857
-7.63051
-7.78253
-7.93469
-8.08701
-8.23942
-8.39189
-8.5444
-8.69692
-8.84946
-9.002
-9.15455
-9.3071
-9.45966
-9.61221
-9.76476
-9.91731
-10.0699
-10.2224
-10.375
-10.5275
-10.6801
-10.8326
-10.9852
-11.1378
-11.2903
-11.4429
-11.5954
-11.748
-11.9005
-12.0531
-12.2057
-12.3582
-12.5108
-12.6633
-12.8159
-12.9684
-13.121
-13.2735
-13.4261
-13.5786
-13.7312
-13.8838
-14.0363
-14.1889
-14.3414
-14.494
-14.6465
-14.7991
-14.9516
-15.1042
-15.2567
-15.4093
-15.5618
-15.7144
-15.8671
-16.0197
-16.1724
-16.3243
-16.4776
-16.6307
-16.7831
-16.9358
-17.0888
-17.2445
-17.4006
-17.562
-17.7489
-18.0173
-18.5261
-1.05792
-1.29594
-1.66303
-1.99874
-2.29917
-2.60216
-2.90148
-3.18338
-3.4481
-3.69857
-3.93582
-4.16146
-4.37799
-4.58663
-4.78828
-4.98429
-5.17636
-5.3649
-5.55072
-5.73454
-5.91428
-6.08902
-6.2593
-6.42484
-6.58595
-6.74342
-6.8986
-7.05272
-7.20548
-7.35702
-7.5086
-7.66036
-7.81226
-7.96439
-8.11669
-8.2691
-8.42157
-8.57407
-8.7266
-8.87914
-9.03168
-9.18423
-9.33678
-9.48933
-9.64189
-9.79444
-9.94699
-10.0995
-10.2521
-10.4047
-10.5572
-10.7098
-10.8623
-11.0149
-11.1674
-11.32
-11.4726
-11.6251
-11.7777
-11.9302
-12.0828
-12.2353
-12.3879
-12.5405
-12.693
-12.8456
-12.9981
-13.1507
-13.3032
-13.4558
-13.6083
-13.7609
-13.9134
-14.066
-14.2185
-14.3711
-14.5236
-14.6762
-14.8287
-14.9813
-15.1339
-15.2864
-15.439
-15.5915
-15.7441
-15.8968
-16.0494
-16.2021
-16.3542
-16.5073
-16.6605
-16.8132
-16.9664
-17.1213
-17.279
-17.4367
-17.607
-17.814
-18.1207
-18.6838
-1.06163
-1.31951
-1.69107
-2.02409
-2.32522
-2.62933
-2.9289
-3.21051
-3.4752
-3.7257
-3.96281
-4.18825
-4.40465
-4.61318
-4.81478
-5.01079
-5.20284
-5.3912
-5.577
-5.76087
-5.9406
-6.11545
-6.28576
-6.45124
-6.6122
-6.76941
-6.92425
-7.07822
-7.23053
-7.38177
-7.53335
-7.68532
-7.83736
-7.98954
-8.14188
-8.2943
-8.44677
-8.59928
-8.75181
-8.90435
-9.0569
-9.20944
-9.362
-9.51455
-9.6671
-9.81965
-9.97221
-10.1248
-10.2773
-10.4299
-10.5824
-10.735
-10.8875
-11.0401
-11.1927
-11.3452
-11.4978
-11.6503
-11.8029
-11.9554
-12.108
-12.2606
-12.4131
-12.5657
-12.7182
-12.8708
-13.0233
-13.1759
-13.3284
-13.481
-13.6335
-13.7861
-13.9386
-14.0912
-14.2437
-14.3963
-14.5488
-14.7014
-14.854
-15.0065
-15.1591
-15.3116
-15.4642
-15.6167
-15.7693
-15.922
-16.0746
-16.2272
-16.3795
-16.5325
-16.6857
-16.8385
-16.9916
-17.146
-17.3033
-17.4675
-17.6457
-17.8689
-18.2042
-18.8024
-1.05655
-1.34084
-1.71704
-2.04674
-2.34891
-2.65433
-2.95418
-3.2354
-3.50006
-3.75061
-3.98751
-4.21267
-4.42897
-4.63739
-4.8389
-5.03488
-5.22688
-5.41503
-5.6008
-5.78472
-5.96448
-6.13949
-6.30989
-6.47533
-6.63626
-6.79356
-6.94857
-7.10276
-7.25528
-7.40686
-7.55842
-7.71002
-7.86192
-8.01406
-8.16637
-8.31878
-8.47125
-8.62375
-8.77628
-8.92882
-9.08136
-9.23391
-9.38646
-9.53901
-9.69156
-9.84412
-9.99667
-10.1492
-10.3018
-10.4543
-10.6069
-10.7594
-10.912
-11.0646
-11.2171
-11.3697
-11.5222
-11.6748
-11.8273
-11.9799
-12.1325
-12.285
-12.4376
-12.5901
-12.7427
-12.8952
-13.0478
-13.2003
-13.3529
-13.5054
-13.658
-13.8106
-13.9631
-14.1157
-14.2682
-14.4208
-14.5733
-14.7259
-14.8784
-15.031
-15.1835
-15.3361
-15.4887
-15.6412
-15.7938
-15.9465
-16.099
-16.2517
-16.4041
-16.557
-16.7102
-16.8632
-17.0168
-17.1725
-17.3321
-17.4961
-17.6801
-17.9158
-18.2724
-18.8934
-1.04522
-1.36029
-1.74068
-2.06697
-2.37042
-2.67725
-2.9775
-3.25826
-3.52291
-3.77353
-4.01013
-4.2349
-4.45106
-4.65941
-4.86084
-5.05675
-5.24863
-5.43654
-5.62229
-5.80627
-5.98601
-6.16112
-6.33164
-6.49704
-6.6577
-6.81461
-6.96914
-7.123
-7.27521
-7.42642
-7.57787
-7.72977
-7.88184
-8.03406
-8.18642
-8.33885
-8.49134
-8.64385
-8.79638
-8.94892
-9.10147
-9.25402
-9.40657
-9.55912
-9.71167
-9.86423
-10.0168
-10.1693
-10.3219
-10.4744
-10.627
-10.7796
-10.9321
-11.0847
-11.2372
-11.3898
-11.5423
-11.6949
-11.8475
-12
-12.1526
-12.3051
-12.4577
-12.6102
-12.7628
-12.9153
-13.0679
-13.2205
-13.373
-13.5256
-13.6781
-13.8307
-13.9832
-14.1358
-14.2883
-14.4409
-14.5934
-14.746
-14.8985
-15.0511
-15.2036
-15.3562
-15.5088
-15.6613
-15.8139
-15.9666
-16.1192
-16.2718
-16.4242
-16.5771
-16.7304
-16.8833
-17.0368
-17.192
-17.3506
-17.5202
-17.7092
-17.9549
-18.3273
-18.9637
-1.02969
-1.37827
-1.76191
-2.08514
-2.38994
-2.69807
-2.99877
-3.2791
-3.5438
-3.79452
-4.03087
-4.25525
-4.47115
-4.67945
-4.88082
-5.07671
-5.26851
-5.45612
-5.6419
-5.82605
-6.00595
-6.18123
-6.3517
-6.51711
-6.67783
-6.83488
-6.98979
-7.14374
-7.29612
-7.4477
-7.59922
-7.75081
-7.90269
-8.05485
-8.20717
-8.35958
-8.51205
-8.66456
-8.81708
-8.96962
-9.12217
-9.27472
-9.42727
-9.57982
-9.73237
-9.88492
-10.0375
-10.19
-10.3426
-10.4951
-10.6477
-10.8003
-10.9528
-11.1054
-11.2579
-11.4105
-11.563
-11.7156
-11.8682
-12.0207
-12.1733
-12.3258
-12.4784
-12.6309
-12.7835
-12.936
-13.0886
-13.2412
-13.3937
-13.5463
-13.6988
-13.8514
-14.0039
-14.1565
-14.309
-14.4616
-14.6141
-14.7667
-14.9192
-15.0718
-15.2243
-15.3769
-15.5295
-15.682
-15.8346
-15.9873
-16.1399
-16.2925
-16.445
-16.5978
-16.7511
-16.9042
-17.0582
-17.2142
-17.3751
-17.5434
-17.7354
-17.9881
-18.3718
-19.0191
-1.01096
-1.39495
-1.78098
-2.102
-2.40809
-2.71719
-3.0181
-3.29782
-3.56258
-3.81321
-4.04909
-4.2736
-4.48909
-4.69718
-4.8984
-5.09408
-5.28556
-5.47303
-5.65885
-5.84291
-6.0228
-6.19823
-6.36856
-6.53368
-6.69408
-6.85082
-7.0055
-7.15885
-7.31092
-7.46213
-7.61366
-7.76547
-7.91752
-8.06979
-8.22216
-8.3746
-8.52709
-8.67961
-8.83214
-8.98468
-9.13723
-9.28978
-9.44233
-9.59488
-9.74744
-9.89999
-10.0525
-10.2051
-10.3577
-10.5102
-10.6628
-10.8153
-10.9679
-11.1204
-11.273
-11.4256
-11.5781
-11.7307
-11.8832
-12.0358
-12.1883
-12.3409
-12.4934
-12.646
-12.7986
-12.9511
-13.1037
-13.2562
-13.4088
-13.5613
-13.7139
-13.8664
-14.019
-14.1715
-14.3241
-14.4766
-14.6292
-14.7817
-14.9343
-15.0868
-15.2394
-15.3919
-15.5445
-15.6971
-15.8497
-16.0023
-16.1549
-16.3076
-16.46
-16.6129
-16.7661
-16.9191
-17.0731
-17.2282
-17.3888
-17.56
-17.7573
-18.0148
-18.4068
-19.0617
-0.990102
-1.40929
-1.79657
-2.11695
-2.42496
-2.73568
-3.03693
-3.31611
-3.58095
-3.83152
-4.06705
-4.29173
-4.50695
-4.71502
-4.9163
-5.11203
-5.3037
-5.49157
-5.67777
-5.86221
-6.04223
-6.21749
-6.38771
-6.55276
-6.71319
-6.87003
-7.02484
-7.1785
-7.33095
-7.48235
-7.63386
-7.78552
-7.93742
-8.08961
-8.24193
-8.39435
-8.54682
-8.69933
-8.85186
-9.0044
-9.15694
-9.30949
-9.46204
-9.6146
-9.76715
-9.9197
-10.0723
-10.2248
-10.3774
-10.5299
-10.6825
-10.835
-10.9876
-11.1401
-11.2927
-11.4453
-11.5978
-11.7504
-11.9029
-12.0555
-12.208
-12.3606
-12.5132
-12.6657
-12.8183
-12.9708
-13.1234
-13.2759
-13.4285
-13.581
-13.7336
-13.8861
-14.0387
-14.1912
-14.3438
-14.4963
-14.6489
-14.8014
-14.954
-15.1066
-15.2591
-15.4117
-15.5642
-15.7168
-15.8694
-16.022
-16.1746
-16.3273
-16.4797
-16.6327
-16.7857
-16.9392
-17.0931
-17.249
-17.4114
-17.581
-17.7782
-18.0372
-18.4347
-19.0931
-0.9755
-1.42386
-1.8088
-2.1265
-2.43531
-2.74781
-3.04962
-3.32817
-3.59324
-3.8439
-4.0792
-4.30339
-4.51854
-4.72659
-4.92773
-5.12326
-5.31482
-5.50265
-5.6887
-5.87277
-6.05218
-6.2268
-6.39652
-6.56111
-6.72113
-6.87764
-7.0322
-7.18558
-7.33776
-7.4891
-7.64054
-7.79227
-7.94426
-8.0965
-8.24886
-8.40129
-8.55377
-8.70629
-8.85882
-9.01136
-9.16391
-9.31646
-9.46901
-9.62156
-9.77411
-9.92666
-10.0792
-10.2318
-10.3843
-10.5369
-10.6894
-10.842
-10.9946
-11.1471
-11.2997
-11.4522
-11.6048
-11.7573
-11.9099
-12.0625
-12.215
-12.3676
-12.5201
-12.6727
-12.8252
-12.9778
-13.1303
-13.2829
-13.4354
-13.588
-13.7405
-13.8931
-14.0457
-14.1982
-14.3508
-14.5033
-14.6559
-14.8084
-14.961
-15.1135
-15.2661
-15.4186
-15.5712
-15.7238
-15.8764
-16.029
-16.1816
-16.3342
-16.4866
-16.6397
-16.7927
-16.9461
-17.0998
-17.2555
-17.4173
-17.5881
-17.7889
-18.0502
-18.4517
-19.1114
-0.945027
-1.43869
-1.83241
-2.15066
-2.45965
-2.77265
-3.07527
-3.35283
-3.61817
-3.86899
-4.10422
-4.3282
-4.54308
-4.75084
-4.95176
-5.1471
-5.33847
-5.52613
-5.71201
-5.89596
-6.07535
-6.24991
-6.41955
-6.58408
-6.7441
-6.90064
-7.05522
-7.20868
-7.3609
-7.51229
-7.66375
-7.81546
-7.96742
-8.11964
-8.27199
-8.42442
-8.5769
-8.72941
-8.88194
-9.03448
-9.18703
-9.33958
-9.49213
-9.64468
-9.79723
-9.94978
-10.1023
-10.2549
-10.4074
-10.56
-10.7126
-10.8651
-11.0177
-11.1702
-11.3228
-11.4753
-11.6279
-11.7805
-11.933
-12.0856
-12.2381
-12.3907
-12.5432
-12.6958
-12.8484
-13.0009
-13.1535
-13.306
-13.4586
-13.6111
-13.7637
-13.9162
-14.0688
-14.2213
-14.3739
-14.5264
-14.679
-14.8315
-14.9841
-15.1366
-15.2892
-15.4417
-15.5943
-15.7469
-15.8995
-16.0521
-16.2047
-16.3574
-16.5097
-16.6629
-16.8157
-16.9694
-17.123
-17.279
-17.4409
-17.6114
-17.8117
-18.0719
-18.4733
-19.1319
-16.9797
-24.3663
-31.0007
-34.4785
-33.1286
-23.3463
-9.83435
-2.79517
0.559901
1.92246
2.47639
2.78943
2.9971
3.13195
3.21577
3.25634
3.26734
3.2619
3.24338
3.21079
3.17344
3.14071
3.10876
3.07502
3.0358
2.99725
2.96003
2.92132
2.88233
2.84318
2.80396
2.76463
2.72525
2.68584
2.64642
2.60698
2.56754
2.5281
2.48865
2.4492
2.40975
2.37031
2.33086
2.29141
2.25196
2.21251
2.17306
2.13361
2.09417
2.05472
2.01528
1.97584
1.9364
1.89696
1.85752
1.81809
1.77865
1.73921
1.69977
1.66034
1.6209
1.58147
1.54204
1.5026
1.46317
1.42373
1.3843
1.34487
1.30544
1.266
1.22657
1.18714
1.14771
1.10829
1.06886
1.02943
0.989998
0.950572
0.911147
0.871719
0.832288
0.792856
0.753425
0.713994
0.674562
0.635124
0.59568
0.556226
0.516753
0.477247
0.437682
0.398015
0.358159
0.317976
0.277164
0.235346
0.191413
0.144951
0.0913478
0.0372025
-17.1323
-24.2757
-30.7607
-34.044
-32.6527
-22.8625
-9.89153
-3.07652
0.27324
1.69994
2.33327
2.70297
2.94518
3.09963
3.19444
3.2403
3.25345
3.24863
3.22972
3.1974
3.16088
3.12886
3.09655
3.06149
3.02307
2.98481
2.94724
2.90865
2.86964
2.83046
2.79122
2.75188
2.71249
2.67308
2.63365
2.59421
2.55477
2.51532
2.47588
2.43643
2.39698
2.35753
2.31808
2.27863
2.23919
2.19974
2.16029
2.12084
2.0814
2.04195
2.00251
1.96306
1.92363
1.88419
1.84475
1.80531
1.76587
1.72644
1.687
1.64756
1.60813
1.56869
1.52926
1.48983
1.4504
1.41096
1.37153
1.33209
1.29266
1.25323
1.21379
1.17437
1.13494
1.09551
1.05608
1.01665
0.977225
0.937798
0.898373
0.858945
0.819515
0.780083
0.740652
0.701222
0.661789
0.622354
0.582912
0.543462
0.503997
0.464506
0.424968
0.385349
0.345581
0.305554
0.265028
0.223704
0.180698
0.135676
0.08496
0.0337331
-17.409
-24.1648
-30.4186
-33.456
-32.0097
-22.2024
-10.005
-3.37128
-0.0418314
1.45834
2.17727
2.60861
2.88848
3.0643
3.17105
3.22273
3.23826
3.23413
3.21492
3.18264
3.14672
3.11565
3.08303
3.04672
3.00904
2.9711
2.93309
2.89459
2.85559
2.81638
2.77712
2.73775
2.69836
2.65894
2.61951
2.58007
2.54062
2.50118
2.46173
2.42229
2.38284
2.34339
2.30394
2.26449
2.22504
2.1856
2.14615
2.1067
2.06725
2.02781
1.98836
1.94892
1.90948
1.87005
1.83061
1.79117
1.75173
1.71229
1.67286
1.63342
1.59399
1.55455
1.51512
1.47569
1.43625
1.39682
1.35738
1.31795
1.27852
1.23909
1.19965
1.16022
1.1208
1.08137
1.04194
1.00251
0.963082
0.923656
0.88423
0.844802
0.805372
0.765941
0.72651
0.68708
0.647649
0.608214
0.568776
0.52933
0.489875
0.4504
0.410892
0.371327
0.331657
0.291805
0.2516
0.21083
0.168861
0.125453
0.0779518
0.0299505
-17.6926
-24.0016
-29.9378
-32.6776
-31.0935
-21.4937
-10.1325
-3.6849
-0.382462
1.19652
2.00735
2.50588
2.82674
3.02591
3.14557
3.20353
3.22167
3.21828
3.19885
3.16653
3.13082
3.10079
3.06804
3.03065
2.99356
2.95586
2.9175
2.87901
2.84002
2.80079
2.76149
2.72211
2.68271
2.64329
2.60385
2.56441
2.52497
2.48552
2.44608
2.40663
2.36718
2.32773
2.28828
2.24883
2.20938
2.16994
2.13049
2.09104
2.05159
2.01215
1.97271
1.93326
1.89383
1.85439
1.81495
1.77551
1.73607
1.69664
1.6572
1.61776
1.57833
1.53889
1.49946
1.46003
1.42059
1.38116
1.34173
1.30229
1.26286
1.22343
1.18399
1.14456
1.10514
1.06571
1.02628
0.986853
0.947424
0.907997
0.868572
0.829144
0.789714
0.750283
0.710852
0.671423
0.631992
0.59256
0.553124
0.513684
0.474239
0.434783
0.395308
0.355804
0.316244
0.276587
0.236741
0.19659
0.155778
0.114172
0.0702389
0.0258138
-17.9776
-23.792
-29.3142
-31.7054
-29.8937
-20.8025
-10.2548
-4.02567
-0.749017
0.913025
1.82282
2.39454
2.75983
2.98446
3.11798
3.18264
3.20359
3.20096
3.18135
3.14898
3.11319
3.08393
3.05147
3.01316
2.97643
2.93885
2.90036
2.8618
2.82277
2.78352
2.74422
2.70482
2.66539
2.62596
2.58652
2.54708
2.50763
2.46819
2.42874
2.38929
2.34984
2.3104
2.27095
2.2315
2.19205
2.1526
2.11315
2.0737
2.03426
1.99481
1.95537
1.91593
1.87649
1.83705
1.79761
1.75818
1.71874
1.6793
1.63986
1.60043
1.56099
1.52156
1.48213
1.44269
1.40326
1.36382
1.32439
1.28496
1.24552
1.20609
1.16666
1.12723
1.0878
1.04838
1.00895
0.969517
0.930089
0.890662
0.851236
0.811808
0.772378
0.732948
0.693518
0.654088
0.614659
0.575228
0.535796
0.496363
0.456929
0.417493
0.378056
0.338619
0.299181
0.259742
0.220293
0.180831
0.141303
0.101703
0.0617128
0.0212727
-18.311
-23.5266
-28.5575
-30.5839
-28.5391
-20.1181
-10.366
-4.38951
-1.14165
0.606282
1.62286
2.2743
2.68766
2.94004
3.08832
3.16003
3.18395
3.18205
3.16226
3.12984
3.09384
3.06476
3.03307
2.99409
2.95742
2.91991
2.88147
2.84279
2.80369
2.76439
2.72502
2.68558
2.64619
2.60676
2.56732
2.52788
2.48843
2.44899
2.40954
2.37009
2.33064
2.29119
2.25175
2.2123
2.17285
2.1334
2.09395
2.0545
2.01506
1.97561
1.93617
1.89673
1.85729
1.81785
1.77841
1.73897
1.69954
1.6601
1.62066
1.58123
1.54179
1.50236
1.46292
1.42349
1.38406
1.34462
1.30519
1.26576
1.22632
1.18689
1.14746
1.10803
1.0686
1.02917
0.989746
0.950316
0.910888
0.871461
0.832034
0.792607
0.753177
0.713747
0.674317
0.634889
0.59546
0.556031
0.516603
0.477177
0.437755
0.398343
0.358947
0.319585
0.280282
0.241084
0.202075
0.163376
0.125266
0.0878892
0.0522439
0.0162571
-18.6654
-23.2152
-27.7226
-29.3956
-27.1718
-19.4244
-10.4655
-4.77364
-1.56167
0.275484
1.40755
2.14547
2.61058
2.89285
3.05674
3.13571
3.16269
3.16145
3.14141
3.10892
3.07277
3.04317
3.01251
2.97326
2.93632
2.89895
2.86055
2.82175
2.78258
2.74326
2.70394
2.66454
2.62502
2.58557
2.54611
2.50666
2.46721
2.42776
2.38832
2.34887
2.30942
2.26997
2.23052
2.19107
2.15162
2.11218
2.07273
2.03328
1.99383
1.95439
1.91495
1.87551
1.83607
1.79663
1.75719
1.71775
1.67831
1.63888
1.59944
1.56
1.52057
1.48113
1.4417
1.40227
1.36283
1.3234
1.28397
1.24453
1.2051
1.16567
1.12624
1.08681
1.04738
1.00795
0.968522
0.929093
0.889665
0.850238
0.810811
0.771383
0.731954
0.692524
0.653095
0.613667
0.57424
0.534813
0.495389
0.45597
0.416562
0.377173
0.337822
0.298539
0.259381
0.220443
0.181914
0.144048
0.107494
0.0725587
0.0416917
0.0106758
-18.9875
-22.8991
-26.8693
-28.1963
-25.8304
-18.7264
-10.558
-5.1801
-2.01347
-0.0815978
1.17664
2.00849
2.5292
2.84368
3.02354
3.10982
3.13979
3.13902
3.11858
3.08599
3.04976
3.01918
2.98958
2.95031
2.91292
2.87574
2.83737
2.79844
2.75915
2.7197
2.68023
2.64065
2.60135
2.56192
2.52249
2.48304
2.44359
2.40415
2.3647
2.32525
2.2858
2.24636
2.20691
2.16746
2.12801
2.08856
2.04911
2.00967
1.97022
1.93078
1.89133
1.85189
1.81245
1.77301
1.73358
1.69414
1.6547
1.61526
1.57582
1.53639
1.49695
1.45752
1.41809
1.37865
1.33922
1.29978
1.26035
1.22092
1.18148
1.14205
1.10262
1.06319
1.02376
0.984335
0.944907
0.905478
0.86605
0.826623
0.787196
0.747768
0.708339
0.66891
0.629481
0.590054
0.550628
0.511204
0.471785
0.432375
0.392983
0.353625
0.314327
0.27514
0.23615
0.197509
0.159513
0.122563
0.0877129
0.055448
0.0298379
0.0043689
-19.2687
-22.6013
-26.0284
-27.0118
-24.5236
-18.0295
-10.6449
-5.61563
-2.50413
-0.468169
0.929739
1.86398
2.44481
2.7933
2.98918
3.08255
3.11529
3.11468
3.09362
3.06082
3.02453
2.99287
2.96396
2.92489
2.88701
2.84998
2.81167
2.77266
2.73339
2.69403
2.6547
2.61531
2.57564
2.53615
2.49668
2.45721
2.41776
2.37831
2.33886
2.29941
2.25996
2.22051
2.18106
2.14161
2.10216
2.06271
2.02327
1.98382
1.94437
1.90493
1.86548
1.82604
1.7866
1.74717
1.70773
1.66829
1.62885
1.58941
1.54998
1.51054
1.47111
1.43167
1.39224
1.35281
1.31337
1.27394
1.2345
1.19507
1.15564
1.1162
1.07677
1.03734
0.997916
0.958488
0.91906
0.879631
0.840203
0.800776
0.761349
0.721921
0.682492
0.643063
0.603635
0.564208
0.524783
0.485361
0.445945
0.406542
0.367162
0.327826
0.28857
0.249461
0.210622
0.172264
0.134808
0.098814
0.0657844
0.0363793
0.0165257
-0.00281583
-19.5092
-22.3275
-25.2126
-25.8581
-23.2719
-17.3425
-10.7257
-6.08497
-3.0406
-0.885073
0.66815
1.71368
2.3592
2.74319
2.95456
3.05423
3.08916
3.08824
3.06629
3.03317
2.99681
2.96427
2.9352
2.89672
2.85841
2.8214
2.78316
2.74394
2.70441
2.66474
2.62509
2.58547
2.54624
2.50682
2.46738
2.42794
2.38849
2.34905
2.3096
2.27015
2.2307
2.19125
2.1518
2.11236
2.07291
2.03346
1.99401
1.95456
1.91512
1.87567
1.83623
1.79679
1.75735
1.71791
1.67847
1.63904
1.5996
1.56016
1.52072
1.48129
1.44185
1.40242
1.36298
1.32355
1.28412
1.24468
1.20525
1.16582
1.12638
1.08695
1.04752
1.00809
0.968662
0.929234
0.889806
0.850377
0.810949
0.771522
0.732094
0.692667
0.653238
0.61381
0.574382
0.534957
0.495534
0.456116
0.416708
0.377319
0.337964
0.298672
0.259494
0.220518
0.181905
0.14392
0.107108
0.0721819
0.0411384
0.0147906
0.00126066
-0.0113162
-19.6968
-22.0847
-24.4722
-24.8075
-22.1417
-16.6925
-10.7883
-6.55814
-3.59456
-1.3071
0.40926
1.56914
2.27945
2.69763
2.92255
3.02683
3.06281
3.06095
3.03782
3.00426
2.96783
2.93479
2.90469
2.86706
2.82846
2.79131
2.75326
2.71413
2.67484
2.63545
2.59644
2.55659
2.51685
2.47732
2.43783
2.39836
2.3589
2.31944
2.27999
2.24054
2.20109
2.16164
2.12219
2.08275
2.0433
2.00385
1.9644
1.92495
1.88551
1.84606
1.80662
1.76718
1.72774
1.6883
1.64886
1.60942
1.56999
1.53055
1.49111
1.45168
1.41224
1.37281
1.33337
1.29394
1.25451
1.21507
1.17564
1.1362
1.09677
1.05734
1.01791
0.978479
0.939051
0.899622
0.860195
0.820766
0.781338
0.741911
0.702483
0.663056
0.623627
0.584199
0.544771
0.505346
0.465923
0.426506
0.387099
0.347711
0.308358
0.269074
0.229913
0.190976
0.152461
0.1147
0.0783789
0.044379
0.0152289
-0.00819503
-0.0152192
-0.0209085
-19.8302
-21.8906
-23.8734
-23.947
-21.2082
-16.1146
-10.8208
-6.99386
-4.1157
-1.69356
0.18077
1.44662
2.2148
2.6619
2.89676
3.00328
3.03887
3.03549
3.01105
2.97695
2.94041
2.90721
2.87557
2.8388
2.80009
2.76262
2.72444
2.68496
2.64521
2.60523
2.56492
2.52617
2.48681
2.44737
2.40792
2.36847
2.32903
2.28958
2.25013
2.21068
2.17123
2.13178
2.09233
2.05289
2.01344
1.97399
1.93454
1.89509
1.85565
1.8162
1.77676
1.73732
1.69788
1.65844
1.619
1.57956
1.54012
1.50069
1.46125
1.42182
1.38238
1.34295
1.30351
1.26408
1.22464
1.18521
1.14578
1.10634
1.06691
1.02748
0.988048
0.948618
0.90919
0.869761
0.830334
0.790905
0.751478
0.71205
0.672622
0.633195
0.593767
0.554339
0.514913
0.475489
0.436069
0.396657
0.35726
0.317891
0.27857
0.239342
0.20028
0.161508
0.123259
0.0859055
0.0502363
0.0172181
-0.0101135
-0.0309527
-0.0318757
-0.0312583
-19.9225
-21.7416
-23.4121
-23.271
-20.4546
-15.6116
-10.8437
-7.39737
-4.58217
-2.0277
-0.00717665
1.3504
2.16725
2.63658
2.8776
2.98413
3.01801
3.01276
2.98702
2.95238
2.91574
2.88238
2.84961
2.81322
2.7746
2.73704
2.69909
2.65999
2.62073
2.5813
2.54226
2.50201
2.46236
2.42282
2.38332
2.34385
2.30439
2.26493
2.22548
2.18603
2.14658
2.10713
2.06768
2.02823
1.98878
1.94934
1.90989
1.87044
1.83099
1.79155
1.75211
1.71267
1.67323
1.63379
1.59435
1.55491
1.51547
1.47603
1.4366
1.39716
1.35773
1.31829
1.27886
1.23943
1.19999
1.16056
1.12112
1.08169
1.04226
1.00283
0.963395
0.923965
0.884536
0.845108
0.805681
0.766252
0.726825
0.687397
0.647969
0.608542
0.569113
0.529686
0.490259
0.450834
0.411414
0.372
0.332599
0.293224
0.253893
0.214648
0.17556
0.136754
0.0984803
0.0611609
0.0256892
-0.00681625
-0.0328457
-0.0517852
-0.0474431
-0.0416009
-19.9888
-21.6271
-23.0572
-22.7376
-19.8362
-15.1788
-10.8693
-7.76081
-4.96939
-2.30112
-0.156191
1.27516
2.13402
2.61957
2.8634
2.96842
2.99962
2.9923
2.96547
2.93016
2.89329
2.85997
2.82662
2.79005
2.75117
2.71316
2.67471
2.63503
2.59511
2.55502
2.51526
2.47614
2.43675
2.39729
2.35784
2.31838
2.27893
2.23948
2.20003
2.16058
2.12113
2.08168
2.04223
2.00279
1.96334
1.92389
1.88444
1.84499
1.80555
1.7661
1.72666
1.68722
1.64778
1.60834
1.5689
1.52946
1.49003
1.45059
1.41115
1.37172
1.33228
1.29285
1.25341
1.21398
1.17455
1.13511
1.09568