/*--------------------------------*- C++ -*----------------------------------*\
| =========                 |                                                 |
| \\      /  F ield         | OpenFOAM: The Open Source CFD Toolbox           |
|  \\    /   O peration     | Version:  v2012                                 |
|   \\  /    A nd           | Website:  www.openfoam.com                      |
|    \\/     M anipulation  |                                                 |
\*---------------------------------------------------------------------------*/
FoamFile
{
    version     2.0;
    format      ascii;
    class       volVectorField;
    location    "0.046";
    object      U.air;
}
// * * * * * * * * * * * * * * * * * * * * * * * * * * * * * * * * * * * * * //

dimensions      [0 1 -1 0 0 0 0];


internalField   nonuniform List<vector> 
1900
(
(39.9676 0.00859737 0)
(39.9239 0.0151003 0)
(39.8679 0.0180551 0)
(39.8035 0.0207951 0)
(39.7301 0.0237029 0)
(39.6526 0.0267679 0)
(39.5681 0.029758 0)
(39.4713 0.034432 0)
(39.3801 0.0347823 0)
(39.2119 0.0735036 0)
(40.0053 0.014781 0)
(40.0212 0.0233871 0)
(40.0402 0.0257153 0)
(40.0561 0.0277448 0)
(40.0726 0.0304752 0)
(40.0899 0.0329334 0)
(40.1096 0.0364783 0)
(40.1258 0.0385603 0)
(40.1466 0.0533632 0)
(40.1569 0.0585506 0)
(40.0029 0.00823095 0)
(40.0161 0.0135546 0)
(40.0336 0.0137641 0)
(40.0511 0.0145357 0)
(40.0689 0.0163209 0)
(40.088 0.0182135 0)
(40.1087 0.020858 0)
(40.13 0.0248091 0)
(40.1544 0.0350906 0)
(40.1843 0.0529482 0)
(40.0018 0.00414766 0)
(40.013 0.0078278 0)
(40.0298 0.00858743 0)
(40.0477 0.0096639 0)
(40.0658 0.0114004 0)
(40.0852 0.0132329 0)
(40.1064 0.0158525 0)
(40.1291 0.0197299 0)
(40.1562 0.0288907 0)
(40.1895 0.04167 0)
(40.0015 0.00112097 0)
(40.0121 0.00215318 0)
(40.0286 0.00234581 0)
(40.0462 0.00265262 0)
(40.0643 0.00322692 0)
(40.0837 0.00401829 0)
(40.1053 0.00558819 0)
(40.1292 0.00839358 0)
(40.1574 0.0146746 0)
(40.1917 0.0210818 0)
(40.0016 -0.00179588 0)
(40.0122 -0.00370407 0)
(40.0288 -0.0041414 0)
(40.0468 -0.00428663 0)
(40.065 -0.00435973 0)
(40.0847 -0.00403102 0)
(40.1067 -0.0029298 0)
(40.1312 -0.000842759 0)
(40.1598 0.0031433 0)
(40.1937 0.00640052 0)
(40.0019 -0.0048594 0)
(40.0137 -0.00946449 0)
(40.0309 -0.0104901 0)
(40.0489 -0.0114482 0)
(40.0672 -0.0127018 0)
(40.0872 -0.0134807 0)
(40.1096 -0.0134641 0)
(40.1342 -0.012713 0)
(40.1628 -0.0110209 0)
(40.1955 -0.0104433 0)
(40.0032 -0.00926353 0)
(40.0168 -0.01533 0)
(40.0348 -0.0157235 0)
(40.0527 -0.0164547 0)
(40.071 -0.0180705 0)
(40.0911 -0.019472 0)
(40.1137 -0.0203013 0)
(40.1389 -0.0207731 0)
(40.1674 -0.0210132 0)
(40.1988 -0.02256 0)
(40.0057 -0.0162112 0)
(40.0223 -0.0253632 0)
(40.042 -0.0274223 0)
(40.0583 -0.0288704 0)
(40.0751 -0.0308185 0)
(40.0935 -0.0324412 0)
(40.1143 -0.0335807 0)
(40.1372 -0.0344447 0)
(40.1625 -0.0352383 0)
(40.1891 -0.0366768 0)
(39.9675 -0.0101376 0)
(39.9214 -0.0185897 0)
(39.8646 -0.022914 0)
(39.797 -0.0266012 0)
(39.7224 -0.030321 0)
(39.6428 -0.0338831 0)
(39.5583 -0.0373132 0)
(39.4687 -0.0407234 0)
(39.374 -0.0440936 0)
(39.2742 -0.048036 0)
(39.1725 -0.0392869 0)
(38.0178 -0.354757 0)
(36.4708 -0.795104 0)
(34.9651 -1.3546 0)
(33.8569 -1.88883 0)
(33.1081 -2.33212 0)
(32.539 -2.6035 0)
(32.0825 -2.66906 0)
(31.6441 -2.56932 0)
(31.2127 -2.34939 0)
(30.7876 -2.07056 0)
(30.3639 -1.77946 0)
(29.9529 -1.50919 0)
(29.5499 -1.27295 0)
(29.1574 -1.07586 0)
(28.7775 -0.916065 0)
(28.4119 -0.78858 0)
(28.0649 -0.687917 0)
(27.7401 -0.608338 0)
(27.44 -0.545053 0)
(27.1661 -0.49436 0)
(26.9165 -0.452332 0)
(26.6925 -0.416635 0)
(26.4914 -0.385844 0)
(26.3152 -0.359519 0)
(26.1583 -0.336138 0)
(26.0249 -0.315418 0)
(25.9111 -0.29711 0)
(25.8138 -0.280852 0)
(25.7307 -0.2663 0)
(25.6595 -0.253135 0)
(25.5975 -0.24099 0)
(25.5442 -0.229765 0)
(25.4961 -0.218966 0)
(25.4529 -0.208546 0)
(25.4143 -0.198572 0)
(25.3797 -0.189067 0)
(25.3488 -0.180068 0)
(25.3217 -0.171701 0)
(25.298 -0.163958 0)
(25.2783 -0.157163 0)
(25.2626 -0.151458 0)
(25.2503 -0.146636 0)
(25.242 -0.142644 0)
(25.2381 -0.139642 0)
(25.2376 -0.137195 0)
(25.2404 -0.134768 0)
(25.2462 -0.132306 0)
(25.2543 -0.129594 0)
(25.2638 -0.126723 0)
(25.274 -0.123929 0)
(25.2846 -0.121442 0)
(25.2952 -0.119487 0)
(25.3056 -0.118357 0)
(25.3157 -0.118387 0)
(25.3261 -0.120079 0)
(25.337 -0.123925 0)
(25.3495 -0.130626 0)
(25.3653 -0.141692 0)
(25.3889 -0.157264 0)
(25.4235 -0.172909 0)
(25.4674 -0.182867 0)
(25.5168 -0.183641 0)
(25.5674 -0.172112 0)
(25.6107 -0.152002 0)
(25.6445 -0.131982 0)
(25.6737 -0.118051 0)
(25.7043 -0.112649 0)
(25.7388 -0.116281 0)
(25.7819 -0.128081 0)
(25.838 -0.146275 0)
(25.9093 -0.168358 0)
(25.9963 -0.19102 0)
(26.0976 -0.20974 0)
(26.2089 -0.22031 0)
(26.3244 -0.220197 0)
(26.4364 -0.20935 0)
(26.5414 -0.190382 0)
(26.6352 -0.167192 0)
(26.718 -0.142952 0)
(26.7891 -0.120361 0)
(26.851 -0.100619 0)
(26.9042 -0.0844835 0)
(26.9512 -0.0717203 0)
(26.9922 -0.0621694 0)
(27.0295 -0.0552155 0)
(27.0629 -0.0503564 0)
(27.094 -0.0470852 0)
(27.1225 -0.0451054 0)
(27.1498 -0.0440953 0)
(27.1757 -0.04384 0)
(27.2012 -0.0440677 0)
(27.2264 -0.0446171 0)
(27.2519 -0.0452965 0)
(27.2777 -0.0461091 0)
(27.3053 -0.046771 0)
(27.3328 -0.0478638 0)
(27.3672 -0.0485405 0)
(27.3912 -0.0506039 0)
(27.4435 -0.0517754 0)
(40.2591 0.20536 0)
(40.4988 0.295869 0)
(40.6485 -0.0460965 0)
(40.4717 -0.668288 0)
(39.9267 -1.33076 0)
(39.0976 -1.89404 0)
(38.1061 -2.25366 0)
(37.0577 -2.38364 0)
(36.0566 -2.32241 0)
(35.1527 -2.13302 0)
(34.367 -1.8799 0)
(33.6981 -1.61268 0)
(33.1356 -1.36162 0)
(32.6572 -1.14086 0)
(32.2415 -0.955031 0)
(31.8691 -0.803176 0)
(31.5229 -0.681073 0)
(31.1907 -0.583728 0)
(30.8656 -0.506577 0)
(30.5441 -0.445689 0)
(30.2259 -0.397371 0)
(29.917 -0.359077 0)
(29.6218 -0.328997 0)
(29.34 -0.305163 0)
(29.0747 -0.286113 0)
(28.8271 -0.270683 0)
(28.5981 -0.258117 0)
(28.389 -0.247513 0)
(28.1983 -0.238151 0)
(28.0261 -0.229624 0)
(27.869 -0.22153 0)
(27.7265 -0.213609 0)
(27.5962 -0.205677 0)
(27.4778 -0.197542 0)
(27.3699 -0.189249 0)
(27.271 -0.181037 0)
(27.1803 -0.173049 0)
(27.0969 -0.165427 0)
(27.0205 -0.158329 0)
(26.9504 -0.15187 0)
(26.8873 -0.146362 0)
(26.8298 -0.141862 0)
(26.778 -0.138348 0)
(26.7324 -0.135851 0)
(26.6933 -0.134151 0)
(26.6604 -0.132875 0)
(26.6332 -0.131736 0)
(26.6107 -0.130317 0)
(26.5923 -0.128384 0)
(26.5765 -0.126022 0)
(26.5624 -0.123536 0)
(26.5494 -0.121266 0)
(26.5374 -0.119434 0)
(26.526 -0.118318 0)
(26.5147 -0.118405 0)
(26.5042 -0.120252 0)
(26.4943 -0.124376 0)
(26.4853 -0.131638 0)
(26.4799 -0.144188 0)
(26.4833 -0.162571 0)
(26.4993 -0.181429 0)
(26.525 -0.193673 0)
(26.5549 -0.195249 0)
(26.5841 -0.182459 0)
(26.6055 -0.159485 0)
(26.6169 -0.13777 0)
(26.6237 -0.124038 0)
(26.6329 -0.119418 0)
(26.6487 -0.125146 0)
(26.6749 -0.140307 0)
(26.7155 -0.162665 0)
(26.772 -0.189202 0)
(26.8443 -0.216154 0)
(26.9296 -0.238247 0)
(27.0224 -0.250468 0)
(27.116 -0.250125 0)
(27.2047 -0.237667 0)
(27.2857 -0.216172 0)
(27.3565 -0.189949 0)
(27.4175 -0.162689 0)
(27.4694 -0.137406 0)
(27.5148 -0.115434 0)
(27.5546 -0.0974954 0)
(27.5909 -0.0832972 0)
(27.6241 -0.072667 0)
(27.6559 -0.064896 0)
(27.6857 -0.0593616 0)
(27.7146 -0.0554992 0)
(27.7419 -0.0530377 0)
(27.7688 -0.051675 0)
(27.7946 -0.0511973 0)
(27.8204 -0.0513328 0)
(27.846 -0.0519017 0)
(27.872 -0.0527137 0)
(27.8983 -0.0538123 0)
(27.9264 -0.0548955 0)
(27.9541 -0.056688 0)
(27.988 -0.0575932 0)
(28.0125 -0.0607486 0)
(28.0625 -0.0608163 0)
(40.2697 0.127755 0)
(40.456 0.0177712 0)
(40.602 -0.368674 0)
(40.4974 -0.908871 0)
(40.0432 -1.44078 0)
(39.2825 -1.86009 0)
(38.3232 -2.09972 0)
(37.2917 -2.1553 0)
(36.2755 -2.06677 0)
(35.3652 -1.88552 0)
(34.5836 -1.65879 0)
(33.935 -1.42366 0)
(33.4084 -1.20338 0)
(32.9851 -1.00891 0)
(32.6449 -0.843866 0)
(32.37 -0.70736 0)
(32.1447 -0.595826 0)
(31.9564 -0.505489 0)
(31.7945 -0.432639 0)
(31.6502 -0.373992 0)
(31.5155 -0.326932 0)
(31.3848 -0.289756 0)
(31.2517 -0.260125 0)
(31.1137 -0.236643 0)
(30.9687 -0.218114 0)
(30.8154 -0.203521 0)
(30.6537 -0.192159 0)
(30.4846 -0.183183 0)
(30.3101 -0.175953 0)
(30.1327 -0.16996 0)
(29.9546 -0.164718 0)
(29.7792 -0.159925 0)
(29.6079 -0.155367 0)
(29.4439 -0.150832 0)
(29.2881 -0.146281 0)
(29.1404 -0.141736 0)
(29.001 -0.13725 0)
(28.87 -0.132955 0)
(28.7469 -0.128981 0)
(28.6319 -0.125523 0)
(28.5248 -0.122914 0)
(28.4255 -0.121136 0)
(28.3348 -0.120042 0)
(28.2525 -0.119728 0)
(28.1787 -0.120126 0)
(28.1134 -0.120861 0)
(28.0563 -0.121404 0)
(28.0061 -0.12129 0)
(27.9614 -0.120231 0)
(27.9199 -0.118371 0)
(27.8806 -0.116217 0)
(27.843 -0.114223 0)
(27.807 -0.112639 0)
(27.7722 -0.111689 0)
(27.7378 -0.111929 0)
(27.7047 -0.114011 0)
(27.6721 -0.118499 0)
(27.6404 -0.126713 0)
(27.6131 -0.141378 0)
(27.5967 -0.16306 0)
(27.5947 -0.184585 0)
(27.6023 -0.198202 0)
(27.6135 -0.2006 0)
(27.6223 -0.186839 0)
(27.6211 -0.161369 0)
(27.6084 -0.13694 0)
(27.5917 -0.122967 0)
(27.5782 -0.119945 0)
(27.5705 -0.128176 0)
(27.5745 -0.147164 0)
(27.5935 -0.173975 0)
(27.6283 -0.204914 0)
(27.6778 -0.235557 0)
(27.7374 -0.260406 0)
(27.7998 -0.273601 0)
(27.8594 -0.272236 0)
(27.913 -0.257746 0)
(27.9578 -0.233847 0)
(27.9934 -0.205035 0)
(28.0211 -0.175603 0)
(28.0436 -0.1485 0)
(28.0631 -0.125296 0)
(28.0816 -0.106501 0)
(28.1002 -0.0918301 0)
(28.1198 -0.0807822 0)
(28.1408 -0.0727519 0)
(28.1628 -0.0671001 0)
(28.1856 -0.0632329 0)
(28.209 -0.0607204 0)
(28.233 -0.0592947 0)
(28.2567 -0.0587715 0)
(28.2809 -0.058896 0)
(28.3043 -0.0595272 0)
(28.3283 -0.0604815 0)
(28.3511 -0.0617998 0)
(28.3751 -0.0631049 0)
(28.3967 -0.0652308 0)
(28.4213 -0.0661346 0)
(28.439 -0.0701777 0)
(28.4697 -0.0687668 0)
(40.2635 0.0673821 0)
(40.4035 0.00418164 0)
(40.4967 -0.262171 0)
(40.3658 -0.678573 0)
(39.9156 -1.11199 0)
(39.1791 -1.46754 0)
(38.2539 -1.69371 0)
(37.2571 -1.77783 0)
(36.2697 -1.73966 0)
(35.3815 -1.614 0)
(34.6123 -1.43942 0)
(33.9673 -1.2491 0)
(33.4388 -1.06575 0)
(33.0111 -0.900996 0)
(32.6664 -0.759462 0)
(32.3887 -0.641325 0)
(32.164 -0.544101 0)
(31.9812 -0.464845 0)
(31.8316 -0.400443 0)
(31.708 -0.34813 0)
(31.6052 -0.305815 0)
(31.5185 -0.271421 0)
(31.4445 -0.24313 0)
(31.38 -0.219437 0)
(31.3233 -0.199601 0)
(31.2711 -0.182692 0)
(31.2221 -0.168451 0)
(31.1736 -0.15622 0)
(31.1238 -0.145695 0)
(31.0711 -0.13662 0)
(31.0142 -0.128735 0)
(30.9517 -0.121839 0)
(30.8826 -0.115768 0)
(30.8064 -0.110342 0)
(30.7225 -0.105251 0)
(30.6313 -0.10039 0)
(30.533 -0.0958687 0)
(30.4285 -0.0918167 0)
(30.3188 -0.0883888 0)
(30.2056 -0.0858468 0)
(30.0904 -0.0844986 0)
(29.9755 -0.0845088 0)
(29.8641 -0.085903 0)
(29.758 -0.0885535 0)
(29.6588 -0.0921863 0)
(29.5676 -0.0962513 0)
(29.4851 -0.0999083 0)
(29.4105 -0.102368 0)
(29.3414 -0.103312 0)
(29.2761 -0.102968 0)
(29.2137 -0.101884 0)
(29.1533 -0.100651 0)
(29.0944 -0.0996124 0)
(29.0366 -0.0989963 0)
(28.9791 -0.0994626 0)
(28.922 -0.101803 0)
(28.8659 -0.106377 0)
(28.8104 -0.11497 0)
(28.7569 -0.131953 0)
(28.7149 -0.158058 0)
(28.6917 -0.184217 0)
(28.6839 -0.19918 0)
(28.681 -0.200694 0)
(28.6706 -0.184396 0)
(28.6458 -0.155726 0)
(28.6059 -0.1296 0)
(28.5588 -0.115185 0)
(28.5149 -0.113589 0)
(28.4793 -0.124214 0)
(28.4548 -0.146689 0)
(28.4441 -0.177936 0)
(28.4472 -0.213523 0)
(28.461 -0.248173 0)
(28.4784 -0.273553 0)
(28.492 -0.285174 0)
(28.5003 -0.282862 0)
(28.5001 -0.26601 0)
(28.4885 -0.239075 0)
(28.4688 -0.207724 0)
(28.4452 -0.176478 0)
(28.4224 -0.149023 0)
(28.4029 -0.126164 0)
(28.3879 -0.108007 0)
(28.3778 -0.0942166 0)
(28.3726 -0.0843833 0)
(28.3714 -0.0774992 0)
(28.3739 -0.0723424 0)
(28.3796 -0.068849 0)
(28.3876 -0.0666744 0)
(28.3972 -0.0654153 0)
(28.4066 -0.0649226 0)
(28.4153 -0.0649289 0)
(28.4219 -0.0653746 0)
(28.4265 -0.0660212 0)
(28.4287 -0.0669454 0)
(28.4288 -0.0678622 0)
(28.4264 -0.0696258 0)
(28.4205 -0.0698925 0)
(28.4149 -0.0733989 0)
(28.3948 -0.070453 0)
(40.2555 0.031443 0)
(40.3567 -0.0318772 0)
(40.4023 -0.258907 0)
(40.2469 -0.617312 0)
(39.8046 -0.995497 0)
(39.0981 -1.3066 0)
(38.2124 -1.50459 0)
(37.2569 -1.57685 0)
(36.3002 -1.54037 0)
(35.4309 -1.42805 0)
(34.6702 -1.27386 0)
(34.0265 -1.10673 0)
(33.4949 -0.946221 0)
(33.0621 -0.802233 0)
(32.7118 -0.678395 0)
(32.4286 -0.574818 0)
(32.1989 -0.489433 0)
(32.0117 -0.419695 0)
(31.8583 -0.362847 0)
(31.7315 -0.316544 0)
(31.6261 -0.27885 0)
(31.5375 -0.248184 0)
(31.4626 -0.223007 0)
(31.3987 -0.202209 0)
(31.344 -0.184951 0)
(31.2968 -0.170531 0)
(31.2558 -0.158471 0)
(31.22 -0.148189 0)
(31.1885 -0.139247 0)
(31.1604 -0.131259 0)
(31.1352 -0.12393 0)
(31.1126 -0.117034 0)
(31.0916 -0.110296 0)
(31.0716 -0.103603 0)
(31.0522 -0.0968056 0)
(31.0327 -0.0898545 0)
(31.0125 -0.0829898 0)
(30.991 -0.0765218 0)
(30.9676 -0.0707828 0)
(30.9415 -0.0660585 0)
(30.9122 -0.0626397 0)
(30.8792 -0.0609911 0)
(30.8421 -0.0613689 0)
(30.8008 -0.0635225 0)
(30.7555 -0.0670994 0)
(30.7066 -0.0715757 0)
(30.6549 -0.0759834 0)
(30.6007 -0.0791524 0)
(30.5437 -0.080461 0)
(30.4841 -0.0802727 0)
(30.4217 -0.0794062 0)
(30.3571 -0.0784712 0)
(30.2904 -0.0777365 0)
(30.2219 -0.0773082 0)
(30.1515 -0.0778891 0)
(30.0792 -0.0804437 0)
(30.0058 -0.0852894 0)
(29.932 -0.0940014 0)
(29.8558 -0.112831 0)
(29.7848 -0.144231 0)
(29.736 -0.175644 0)
(29.7092 -0.194598 0)
(29.6873 -0.196597 0)
(29.6572 -0.175766 0)
(29.6084 -0.141264 0)
(29.5401 -0.111007 0)
(29.4601 -0.09588 0)
(29.3792 -0.0964602 0)
(29.3055 -0.110968 0)
(29.2425 -0.13741 0)
(29.1899 -0.171765 0)
(29.1432 -0.2091 0)
(29.0957 -0.243605 0)
(29.0413 -0.268731 0)
(28.9768 -0.2795 0)
(28.8998 -0.274219 0)
(28.8107 -0.254767 0)
(28.7146 -0.225701 0)
(28.6179 -0.193341 0)
(28.5274 -0.162866 0)
(28.445 -0.136493 0)
(28.3719 -0.115159 0)
(28.3091 -0.0988802 0)
(28.256 -0.086979 0)
(28.2112 -0.0785147 0)
(28.1731 -0.0726593 0)
(28.14 -0.0688152 0)
(28.1104 -0.0664029 0)
(28.0828 -0.0648936 0)
(28.056 -0.0638631 0)
(28.0287 -0.0630869 0)
(27.9996 -0.0623254 0)
(27.968 -0.0617962 0)
(27.9334 -0.0614019 0)
(27.8965 -0.0613437 0)
(27.856 -0.0612913 0)
(27.8168 -0.0618848 0)
(27.7704 -0.0615784 0)
(27.7372 -0.0633001 0)
(27.673 -0.0611543 0)
(40.2479 0.00636488 0)
(40.319 -0.0529375 0)
(40.3278 -0.23495 0)
(40.1541 -0.518795 0)
(39.7189 -0.81811 0)
(39.0361 -1.06197 0)
(38.1811 -1.21591 0)
(37.2552 -1.27221 0)
(36.3238 -1.24523 0)
(35.4696 -1.16051 0)
(34.717 -1.04259 0)
(34.075 -0.912982 0)
(33.5408 -0.786887 0)
(33.103 -0.672373 0)
(32.7464 -0.57281 0)
(32.4565 -0.48893 0)
(32.2203 -0.419481 0)
(32.0272 -0.362498 0)
(31.8683 -0.315993 0)
(31.7368 -0.278184 0)
(31.6275 -0.247412 0)
(31.5357 -0.22226 0)
(31.4578 -0.201562 0)
(31.3913 -0.184381 0)
(31.3341 -0.17002 0)
(31.2846 -0.157888 0)
(31.2414 -0.147589 0)
(31.2033 -0.138655 0)
(31.1696 -0.130731 0)
(31.1396 -0.123555 0)
(31.1127 -0.116952 0)
(31.0885 -0.110695 0)
(31.0667 -0.1046 0)
(31.0469 -0.0985797 0)
(31.0287 -0.0924771 0)
(31.0124 -0.0863852 0)
(30.9979 -0.0804821 0)
(30.985 -0.0748774 0)
(30.9735 -0.0698016 0)
(30.9636 -0.0656713 0)
(30.9559 -0.0629861 0)
(30.9508 -0.0618244 0)
(30.9471 -0.0619854 0)
(30.9438 -0.0634836 0)
(30.9406 -0.066159 0)
(30.9369 -0.0695123 0)
(30.932 -0.0725543 0)
(30.9246 -0.0740755 0)
(30.9132 -0.0735492 0)
(30.8964 -0.0714986 0)
(30.8732 -0.0687672 0)
(30.8433 -0.0660332 0)
(30.8072 -0.0636601 0)
(30.765 -0.0616888 0)
(30.7168 -0.0607808 0)
(30.6626 -0.062015 0)
(30.6027 -0.0658327 0)
(30.538 -0.0732674 0)
(30.468 -0.0900116 0)
(30.3885 -0.123131 0)
(30.3146 -0.161231 0)
(30.2634 -0.185378 0)
(30.2217 -0.187943 0)
(30.1781 -0.164233 0)
(30.1234 -0.124815 0)
(30.0538 -0.0890257 0)
(29.9718 -0.069651 0)
(29.8798 -0.0683841 0)
(29.7796 -0.0835393 0)
(29.6745 -0.112261 0)
(29.5646 -0.148675 0)
(29.4441 -0.186137 0)
(29.3057 -0.218551 0)
(29.146 -0.23963 0)
(28.965 -0.245057 0)
(28.7659 -0.234784 0)
(28.5572 -0.212011 0)
(28.3565 -0.18295 0)
(28.1729 -0.153222 0)
(28.0105 -0.126354 0)
(27.8695 -0.104191 0)
(27.749 -0.0871488 0)
(27.6459 -0.0746961 0)
(27.5572 -0.0660225 0)
(27.4789 -0.0602011 0)
(27.4089 -0.0564165 0)
(27.3439 -0.0538878 0)
(27.2831 -0.0521556 0)
(27.2242 -0.0508337 0)
(27.1676 -0.0496973 0)
(27.1116 -0.0486879 0)
(27.0571 -0.047711 0)
(27.0044 -0.0469004 0)
(26.9517 -0.0462857 0)
(26.9025 -0.0460148 0)
(26.8518 -0.0460605 0)
(26.8063 -0.0467133 0)
(26.7542 -0.0472117 0)
(26.7179 -0.0484022 0)
(26.6518 -0.0491027 0)
(40.2417 -0.0161542 0)
(40.2902 -0.0671834 0)
(40.2715 -0.206833 0)
(40.0831 -0.42379 0)
(39.6527 -0.656231 0)
(38.9881 -0.849148 0)
(38.1573 -0.975678 0)
(37.2543 -1.02805 0)
(36.3422 -1.01521 0)
(35.4978 -0.954986 0)
(34.7469 -0.865304 0)
(34.0998 -0.763767 0)
(33.5562 -0.663556 0)
(33.1072 -0.57191 0)
(32.7393 -0.491706 0)
(32.4385 -0.423507 0)
(32.1918 -0.366413 0)
(31.9888 -0.319154 0)
(31.8207 -0.280207 0)
(31.6802 -0.248226 0)
(31.5614 -0.222007 0)
(31.4599 -0.200458 0)
(31.372 -0.182619 0)
(31.2952 -0.167738 0)
(31.2272 -0.155252 0)
(31.1663 -0.144717 0)
(31.1111 -0.13577 0)
(31.0604 -0.128015 0)
(31.0133 -0.121135 0)
(30.9691 -0.114929 0)
(30.9273 -0.109208 0)
(30.8874 -0.103735 0)
(30.8489 -0.0983137 0)
(30.8118 -0.0928589 0)
(30.7759 -0.0873024 0)
(30.7411 -0.0816622 0)
(30.7074 -0.0760514 0)
(30.6748 -0.07068 0)
(30.6434 -0.0659143 0)
(30.6137 -0.0621827 0)
(30.5857 -0.0597802 0)
(30.5589 -0.0587763 0)
(30.5326 -0.0591216 0)
(30.5063 -0.0607452 0)
(30.4792 -0.0634659 0)
(30.4507 -0.0667512 0)
(30.4204 -0.0695707 0)
(30.3876 -0.0705774 0)
(30.3511 -0.0691336 0)
(30.31 -0.0657999 0)
(30.2636 -0.0615694 0)
(30.2121 -0.0572718 0)
(30.1564 -0.0532834 0)
(30.0972 -0.0495283 0)
(30.035 -0.0467976 0)
(29.9701 -0.0462182 0)
(29.903 -0.0482406 0)
(29.8343 -0.0542217 0)
(29.7638 -0.0693139 0)
(29.6834 -0.100234 0)
(29.5942 -0.140222 0)
(29.5258 -0.167731 0)
(29.4736 -0.171368 0)
(29.4248 -0.146563 0)
(29.3734 -0.106057 0)
(29.3205 -0.0710144 0)
(29.2655 -0.0504966 0)
(29.2021 -0.0452914 0)
(29.1198 -0.054965 0)
(29.0085 -0.0771671 0)
(28.861 -0.105872 0)
(28.6734 -0.134666 0)
(28.448 -0.158357 0)
(28.194 -0.171727 0)
(27.923 -0.171482 0)
(27.6524 -0.159166 0)
(27.3978 -0.139404 0)
(27.1691 -0.117056 0)
(26.9708 -0.0955362 0)
(26.8029 -0.0769831 0)
(26.6626 -0.0623401 0)
(26.5457 -0.0516298 0)
(26.4464 -0.0442916 0)
(26.3605 -0.0395105 0)
(26.2843 -0.0365227 0)
(26.2153 -0.0346815 0)
(26.1509 -0.0335001 0)
(26.0903 -0.0327521 0)
(26.0318 -0.0323153 0)
(25.9758 -0.032053 0)
(25.9222 -0.0318513 0)
(25.8714 -0.031762 0)
(25.8244 -0.0317655 0)
(25.7787 -0.0320093 0)
(25.7375 -0.0324729 0)
(25.6957 -0.0331469 0)
(25.6593 -0.034096 0)
(25.6174 -0.0350903 0)
(25.5893 -0.036076 0)
(25.535 -0.0385935 0)
(40.2387 -0.0299991 0)
(40.271 -0.0704429 0)
(40.2319 -0.171521 0)
(40.0309 -0.327102 0)
(39.6009 -0.494812 0)
(38.9445 -0.634451 0)
(38.1224 -0.726371 0)
(37.2226 -0.765055 0)
(36.3087 -0.757677 0)
(35.4515 -0.717393 0)
(34.682 -0.656015 0)
(34.0119 -0.58545 0)
(33.4412 -0.514669 0)
(32.9629 -0.448966 0)
(32.5627 -0.390516 0)
(32.2286 -0.340197 0)
(31.9469 -0.297568 0)
(31.7083 -0.26195 0)
(31.5027 -0.232156 0)
(31.3241 -0.207411 0)
(31.1656 -0.186897 0)
(31.0237 -0.170033 0)
(30.8947 -0.155951 0)
(30.7761 -0.143992 0)
(30.6655 -0.133756 0)
(30.5613 -0.124946 0)
(30.462 -0.117298 0)
(30.3666 -0.110519 0)
(30.2742 -0.104365 0)
(30.1843 -0.0986637 0)
(30.0963 -0.0932707 0)
(30.01 -0.0880199 0)
(29.9254 -0.0827857 0)
(29.8425 -0.077511 0)
(29.7615 -0.0721635 0)
(29.6827 -0.0667666 0)
(29.6063 -0.0614531 0)
(29.5324 -0.0564926 0)
(29.4613 -0.0522575 0)
(29.3931 -0.0491404 0)
(29.3276 -0.0473597 0)
(29.2639 -0.0468134 0)
(29.2008 -0.0473245 0)
(29.1376 -0.0488727 0)
(29.0734 -0.0513236 0)
(29.0078 -0.0541312 0)
(28.9402 -0.0561671 0)
(28.8706 -0.0559724 0)
(28.7985 -0.0529847 0)
(28.7234 -0.0479636 0)
(28.6453 -0.042121 0)
(28.5647 -0.0366598 0)
(28.4831 -0.032236 0)
(28.4022 -0.028462 0)
(28.3234 -0.0260447 0)
(28.2477 -0.0260332 0)
(28.1733 -0.0283794 0)
(28.0987 -0.0342805 0)
(28.0222 -0.0481714 0)
(27.9344 -0.0775356 0)
(27.8322 -0.120843 0)
(27.7494 -0.154775 0)
(27.6857 -0.160845 0)
(27.6246 -0.133134 0)
(27.5577 -0.0890338 0)
(27.4843 -0.0512902 0)
(27.4079 -0.0298003 0)
(27.3232 -0.0220393 0)
(27.2201 -0.0258813 0)
(27.0918 -0.0388216 0)
(26.9357 -0.0554339 0)
(26.75 -0.0716497 0)
(26.5369 -0.0851148 0)
(26.3038 -0.0928205 0)
(26.0646 -0.0925913 0)
(25.8363 -0.0855817 0)
(25.6281 -0.0742536 0)
(25.4474 -0.0613561 0)
(25.2965 -0.0491225 0)
(25.1737 -0.0389792 0)
(25.0744 -0.0314195 0)
(24.993 -0.0262049 0)
(24.925 -0.0228436 0)
(24.8665 -0.0208667 0)
(24.8145 -0.0198471 0)
(24.7669 -0.0193927 0)
(24.7223 -0.0192437 0)
(24.6802 -0.0192809 0)
(24.6399 -0.0194716 0)
(24.6014 -0.0198376 0)
(24.5649 -0.0203458 0)
(24.5296 -0.0210685 0)
(24.4963 -0.0217826 0)
(24.4635 -0.0226485 0)
(24.4326 -0.0235924 0)
(24.4007 -0.0246334 0)
(24.372 -0.0258305 0)
(24.3373 -0.0269984 0)
(24.3142 -0.0278528 0)
(24.2649 -0.030852 0)
(40.2227 -0.0441239 0)
(40.2343 -0.068346 0)
(40.1701 -0.129278 0)
(39.9429 -0.223494 0)
(39.4858 -0.326528 0)
(38.7965 -0.413749 0)
(37.9307 -0.472595 0)
(36.9721 -0.498733 0)
(35.9902 -0.496131 0)
(35.0463 -0.472163 0)
(34.1799 -0.433833 0)
(33.4043 -0.388871 0)
(32.7238 -0.343386 0)
(32.1346 -0.300947 0)
(31.6249 -0.263089 0)
(31.184 -0.23035 0)
(30.7989 -0.202436 0)
(30.4612 -0.178933 0)
(30.1602 -0.159025 0)
(29.8907 -0.14226 0)
(29.6445 -0.127895 0)
(29.4198 -0.115903 0)
(29.213 -0.105859 0)
(29.0208 -0.0972269 0)
(28.8411 -0.0897022 0)
(28.6717 -0.0830838 0)
(28.5114 -0.0771953 0)
(28.3585 -0.0718449 0)
(28.2125 -0.0668978 0)
(28.0727 -0.0622259 0)
(27.939 -0.0577424 0)
(27.8108 -0.0533549 0)
(27.6884 -0.0489899 0)
(27.572 -0.0446196 0)
(27.4617 -0.0402397 0)
(27.3577 -0.0358734 0)
(27.2603 -0.0316136 0)
(27.1694 -0.0276856 0)
(27.0845 -0.0244459 0)
(27.005 -0.0222232 0)
(26.9297 -0.0210539 0)
(26.857 -0.020696 0)
(26.785 -0.021054 0)
(26.7127 -0.0222239 0)
(26.6388 -0.0241223 0)
(26.5628 -0.0264161 0)
(26.4849 -0.0282613 0)
(26.406 -0.0281874 0)
(26.3268 -0.0254161 0)
(26.2486 -0.0205228 0)
(26.1725 -0.0146662 0)
(26.1004 -0.00903433 0)
(26.0334 -0.00424319 0)
(25.971 -0.0011362 0)
(25.9133 0.00037664 0)
(25.8601 -2.97417e-05 0)
(25.8079 -0.0026451 0)
(25.7532 -0.00775281 0)
(25.6905 -0.0181223 0)
(25.6087 -0.0400414 0)
(25.4954 -0.0774582 0)
(25.3595 -0.117828 0)
(25.2296 -0.133559 0)
(25.1031 -0.113286 0)
(24.9805 -0.0726875 0)
(24.8752 -0.0345972 0)
(24.7867 -0.00861056 0)
(24.7021 0.0053605 0)
(24.6123 0.00902112 0)
(24.5117 0.00332978 0)
(24.3943 -0.00643746 0)
(24.2519 -0.0161713 0)
(24.0818 -0.0249716 0)
(23.8937 -0.0306808 0)
(23.7089 -0.0320763 0)
(23.5404 -0.029429 0)
(23.3945 -0.0242362 0)
(23.2739 -0.0186043 0)
(23.1781 -0.0137266 0)
(23.1043 -0.0099891 0)
(23.0479 -0.00741988 0)
(23.0041 -0.00586844 0)
(22.9688 -0.00510617 0)
(22.9388 -0.00489981 0)
(22.9117 -0.00504375 0)
(22.8861 -0.0053622 0)
(22.8613 -0.00575034 0)
(22.8368 -0.00619006 0)
(22.8124 -0.00670859 0)
(22.7879 -0.00734839 0)
(22.7629 -0.008055 0)
(22.7374 -0.0088706 0)
(22.7113 -0.00966536 0)
(22.6844 -0.0105323 0)
(22.6569 -0.0114424 0)
(22.6276 -0.0123795 0)
(22.5995 -0.0134344 0)
(22.5641 -0.0142822 0)
(22.5403 -0.0150325 0)
(22.4866 -0.0168895 0)
(39.1403 -0.0539769 0)
(38.9465 -0.067548 0)
(38.6586 -0.0934541 0)
(38.1914 -0.131028 0)
(37.4775 -0.172083 0)
(36.5128 -0.207812 0)
(35.3545 -0.233308 0)
(34.0902 -0.246395 0)
(32.798 -0.247966 0)
(31.5412 -0.240201 0)
(30.374 -0.225494 0)
(29.3094 -0.206623 0)
(28.3624 -0.186368 0)
(27.5258 -0.166339 0)
(26.7951 -0.147422 0)
(26.1533 -0.130002 0)
(25.5937 -0.114438 0)
(25.0996 -0.100564 0)
(24.6669 -0.0883485 0)
(24.2821 -0.0775236 0)
(23.943 -0.0682356 0)
(23.6379 -0.0606688 0)
(23.3621 -0.054413 0)
(23.1115 -0.0491049 0)
(22.8826 -0.044532 0)
(22.6729 -0.0405668 0)
(22.4798 -0.0370775 0)
(22.3021 -0.0339696 0)
(22.1379 -0.0311669 0)
(21.9865 -0.0285962 0)
(21.847 -0.0261972 0)
(21.719 -0.0239174 0)
(21.6022 -0.0217314 0)
(21.4965 -0.0196178 0)
(21.4017 -0.0175752 0)
(21.3177 -0.015631 0)
(21.2442 -0.0138494 0)
(21.1807 -0.0123622 0)
(21.1256 -0.01136 0)
(21.0765 -0.0109804 0)
(21.0301 -0.0111475 0)
(20.9844 -0.0116475 0)
(20.9378 -0.0124411 0)
(20.8884 -0.0136366 0)
(20.834 -0.0152084 0)
(20.7728 -0.0168502 0)
(20.7047 -0.0176961 0)
(20.6336 -0.0165374 0)
(20.5694 -0.0131764 0)
(20.5191 -0.00860728 0)
(20.4864 -0.00411452 0)
(20.4703 -0.000768812 0)
(20.4662 0.00106754 0)
(20.4703 0.00191438 0)
(20.4815 0.00135839 0)
(20.4898 6.84029e-05 0)
(20.4926 -0.00188202 0)
(20.4873 -0.00641023 0)
(20.4626 -0.0161685 0)
(20.3926 -0.0360805 0)
(20.2266 -0.0659831 0)
(19.9231 -0.0915784 0)
(19.5163 -0.0902805 0)
(19.1582 -0.0594449 0)
(18.9354 -0.0222282 0)
(18.8459 0.00281655 0)
(18.8388 0.0143043 0)
(18.8871 0.0231999 0)
(18.9643 0.0242154 0)
(19.0272 0.0195849 0)
(19.0631 0.0153344 0)
(19.0741 0.0134883 0)
(19.0677 0.00944537 0)
(19.0415 0.00440228 0)
(19.0004 -0.000292588 0)
(18.9524 -0.00332659 0)
(18.9081 -0.00473133 0)
(18.8709 -0.00556029 0)
(18.8412 -0.00631553 0)
(18.8171 -0.00709061 0)
(18.7969 -0.00783359 0)
(18.7788 -0.00849096 0)
(18.7617 -0.00902056 0)
(18.7445 -0.00942716 0)
(18.7269 -0.00974634 0)
(18.7085 -0.0100054 0)
(18.6892 -0.0102274 0)
(18.6689 -0.01046 0)
(18.6475 -0.0107435 0)
(18.6248 -0.011109 0)
(18.6003 -0.0115242 0)
(18.5738 -0.0120123 0)
(18.5453 -0.0125064 0)
(18.5146 -0.0130474 0)
(18.4818 -0.0135975 0)
(18.4455 -0.0141344 0)
(18.4098 -0.014657 0)
(18.3635 -0.0150869 0)
(18.3341 -0.014738 0)
(18.2625 -0.0187155 0)
(1.95436 0.421237 0)
(1.64905 2.05103 0)
(0.910904 2.40129 0)
(0.110907 2.56772 0)
(-0.665592 2.43239 0)
(-1.46654 1.98154 0)
(-2.15373 1.28403 0)
(-2.51278 0.77096 0)
(10.5779 0.318076 0)
(4.36568 1.81698 0)
(1.74414 2.17482 0)
(-0.154995 2.21102 0)
(-2.00005 2.04564 0)
(-3.87732 1.69173 0)
(-5.71497 1.11972 0)
(-6.92415 0.530805 0)
(16.887 -0.371902 0)
(7.91516 0.751497 0)
(2.86677 1.21418 0)
(-0.390826 1.32791 0)
(-2.99253 1.2493 0)
(-5.4034 1.05879 0)
(-7.85093 0.753701 0)
(-9.97525 0.288388 0)
(20.5482 -1.17086 0)
(11.2392 -0.438663 0)
(4.58046 0.0734091 0)
(0.16634 0.312039 0)
(-3.14762 0.393333 0)
(-6.02664 0.379163 0)
(-8.77036 0.303311 0)
(-11.4791 0.0760296 0)
(22.4347 -1.81038 0)
(13.5548 -1.32727 0)
(6.44285 -0.873461 0)
(1.28506 -0.549057 0)
(-2.61851 -0.328301 0)
(-5.86392 -0.179449 0)
(-8.808 -0.0646948 0)
(-11.795 -0.051604 0)
(23.6382 -2.31554 0)
(15.4317 -1.97614 0)
(8.25986 -1.57569 0)
(2.74343 -1.21557 0)
(-1.47185 -0.904733 0)
(-4.91733 -0.630905 0)
(-7.98455 -0.380782 0)
(-11.1054 -0.205932 0)
(24.3326 -2.60579 0)
(16.9011 -2.37064 0)
(10.0265 -2.03606 0)
(4.44233 -1.6706 0)
(0.115766 -1.30541 0)
(-3.37687 -0.946634 0)
(-6.43081 -0.597654 0)
(-9.51222 -0.307135 0)
(24.7681 -2.67794 0)
(17.9671 -2.50935 0)
(11.515 -2.23401 0)
(6.15524 -1.89307 0)
(1.91908 -1.51305 0)
(-1.51037 -1.11233 0)
(-4.48998 -0.712677 0)
(-7.52824 -0.358437 0)
(25.0645 -2.58799 0)
(18.834 -2.46088 0)
(12.8345 -2.23076 0)
(7.79365 -1.91901 0)
(3.76285 -1.55063 0)
(0.479043 -1.14686 0)
(-2.37472 -0.740259 0)
(-5.32889 -0.369155 0)
(25.2508 -2.38121 0)
(19.5302 -2.28711 0)
(13.9917 -2.09713 0)
(9.31684 -1.82111 0)
(5.53739 -1.4803 0)
(2.42551 -1.09674 0)
(-0.297335 -0.708766 0)
(-3.17862 -0.353618 0)
(25.3303 -2.11408 0)
(20.0611 -2.05189 0)
(14.9678 -1.89754 0)
(10.6753 -1.65946 0)
(7.16892 -1.35432 0)
(4.24208 -1.00522 0)
(1.65818 -0.65063 0)
(-1.14596 -0.32579 0)
(25.3135 -1.83589 0)
(20.4574 -1.79961 0)
(15.805 -1.67556 0)
(11.8636 -1.47262 0)
(8.6067 -1.2038 0)
(5.8649 -0.895549 0)
(3.41662 -0.580624 0)
(0.697037 -0.291797 0)
(25.2223 -1.57401 0)
(20.7384 -1.55799 0)
(16.5027 -1.45911 0)
(12.8903 -1.28634 0)
(9.86487 -1.05227 0)
(7.29311 -0.782726 0)
(4.96303 -0.504858 0)
(2.30919 -0.250371 0)
(25.0842 -1.34482 0)
(20.9394 -1.34144 0)
(17.0859 -1.26281 0)
(13.7727 -1.11619 0)
(10.9568 -0.913529 0)
(8.53871 -0.679441 0)
(6.31465 -0.43607 0)
(3.71841 -0.214316 0)
(24.9181 -1.15117 0)
(21.0788 -1.1555 0)
(17.5726 -1.09213 0)
(14.5316 -0.967343 0)
(11.9032 -0.793029 0)
(9.62047 -0.590358 0)
(7.48778 -0.377552 0)
(4.93658 -0.184561 0)
(24.7444 -0.991331 0)
(21.1873 -0.997646 0)
(17.9792 -0.9459 0)
(15.1724 -0.838983 0)
(12.7169 -0.690211 0)
(10.5585 -0.51501 0)
(8.50865 -0.328075 0)
(5.99533 -0.161717 0)
(24.5808 -0.861324 0)
(21.2818 -0.866639 0)
(18.3244 -0.822236 0)
(15.7157 -0.729988 0)
(13.4171 -0.602415 0)
(11.3729 -0.450317 0)
(9.40154 -0.284137 0)
(6.91758 -0.145714 0)
(24.4335 -0.7554 0)
(21.3683 -0.759256 0)
(18.6246 -0.719357 0)
(16.1859 -0.63881 0)
(14.0245 -0.527979 0)
(12.0832 -0.394933 0)
(10.1878 -0.24679 0)
(7.71937 -0.131243 0)
(24.3055 -0.668887 0)
(21.4503 -0.671032 0)
(18.8908 -0.634495 0)
(16.5987 -0.563108 0)
(14.5568 -0.465542 0)
(12.7065 -0.348274 0)
(10.879 -0.216872 0)
(8.42516 -0.115924 0)
(24.1969 -0.597648 0)
(21.5294 -0.598349 0)
(19.1304 -0.564413 0)
(16.9659 -0.500363 0)
(15.0282 -0.413461 0)
(13.2579 -0.309167 0)
(11.49 -0.192334 0)
(9.04871 -0.102188 0)
(24.1065 -0.538376 0)
(21.6071 -0.538256 0)
(19.3484 -0.50635 0)
(17.2966 -0.448573 0)
(15.4501 -0.370408 0)
(13.75 -0.276717 0)
(12.0343 -0.171988 0)
(9.60324 -0.0906368 0)
(24.0315 -0.488571 0)
(21.6829 -0.487865 0)
(19.5454 -0.458022 0)
(17.596 -0.405617 0)
(15.8314 -0.334763 0)
(14.1936 -0.249863 0)
(12.5238 -0.155127 0)
(10.1008 -0.08114 0)
(23.9691 -0.446725 0)
(21.7559 -0.445203 0)
(19.7261 -0.417261 0)
(17.869 -0.369262 0)
(16.1781 -0.304572 0)
(14.5964 -0.227142 0)
(12.9675 -0.140844 0)
(10.551 -0.073217 0)
(23.9183 -0.411132 0)
(21.8272 -0.408522 0)
(19.8943 -0.382352 0)
(18.12 -0.338069 0)
(16.4957 -0.278657 0)
(14.9646 -0.207655 0)
(13.3723 -0.128573 0)
(10.9607 -0.0665045 0)
(23.8778 -0.380478 0)
(21.8958 -0.377038 0)
(20.0504 -0.352263 0)
(18.3513 -0.31113 0)
(16.7876 -0.256276 0)
(15.3027 -0.190839 0)
(13.7436 -0.117981 0)
(11.3356 -0.0607832 0)
(23.8468 -0.353975 0)
(21.964 -0.349322 0)
(20.1978 -0.326141 0)
(18.5667 -0.287778 0)
(17.0578 -0.236832 0)
(15.6148 -0.176208 0)
(14.0856 -0.108739 0)
(11.6802 -0.0558421 0)
(23.8232 -0.330286 0)
(22.0271 -0.32505 0)
(20.3357 -0.303384 0)
(18.7674 -0.267561 0)
(17.3089 -0.220037 0)
(15.9045 -0.163581 0)
(14.4025 -0.100747 0)
(11.9984 -0.0515968 0)