/*--------------------------------*- C++ -*----------------------------------*\
| =========                 |                                                 |
| \\      /  F ield         | OpenFOAM: The Open Source CFD Toolbox           |
|  \\    /   O peration     | Version:  v2012                                 |
|   \\  /    A nd           | Website:  www.openfoam.com                      |
|    \\/     M anipulation  |                                                 |
\*---------------------------------------------------------------------------*/
FoamFile
{
    version     2.0;
    format      ascii;
    class       vectorField;
    location    "0.035/lagrangian/kinematicCloud";
    object      UCorrect;
}
// * * * * * * * * * * * * * * * * * * * * * * * * * * * * * * * * * * * * * //


38
(
(1.8e-27 3.27715e-30 0)
(0 0 0)
(4.68649e-28 6.29059e-31 0)
(6.48705e-28 3.05751e-30 0)
(0 0 0)
(0 0 0)
(0 0 0)
(0 0 0)
(0 0 0)
(0 0 0)
(0 0 0)
(0 0 0)
(8.32589e-27 -5.73819e-30 0)
(0 0 0)
(6.6117e-27 2.37016e-30 0)
(0 0 0)
(1.77841e-27 -2.36188e-29 0)
(0 0 0)
(1.00316e-27 -2.01692e-29 0)
(0 0 0)
(9.438e-28 1.87505e-29 0)
(0 0 0)
(0 0 0)
(1.34224e-27 -3.59367e-29 0)
(8.95824e-28 -7.72231e-30 0)
(0 0 0)
(1.66136e-27 -5.06256e-29 0)
(1.31196e-27 3.86176e-29 0)
(0 0 0)
(1.5232e-27 4.83868e-29 0)
(0 0 0)
(2.31716e-27 -7.24494e-29 0)
(6.97629e-27 1.1856e-28 0)
(1.11717e-27 6.25546e-30 0)
(1.67219e-27 -3.38136e-29 0)
(1.41628e-27 2.51027e-29 0)
(1.48116e-27 -1.79649e-29 0)
(0 0 0)
)


// ************************************************************************* //
