/*--------------------------------*- C++ -*----------------------------------*\
| =========                 |                                                 |
| \\      /  F ield         | OpenFOAM: The Open Source CFD Toolbox           |
|  \\    /   O peration     | Version:  v2012                                 |
|   \\  /    A nd           | Website:  www.openfoam.com                      |
|    \\/     M anipulation  |                                                 |
\*---------------------------------------------------------------------------*/
FoamFile
{
    version     2.0;
    format      ascii;
    class       volScalarField;
    location    "0.067";
    object      nut.air;
}
// * * * * * * * * * * * * * * * * * * * * * * * * * * * * * * * * * * * * * //

dimensions      [0 2 -1 0 0 0 0];


internalField   nonuniform List<scalar> 
5600
(
2.45137e-05
3.47344e-05
4.04094e-05
4.24629e-05
4.22722e-05
4.09694e-05
3.9209e-05
3.75399e-05
3.61135e-05
3.49458e-05
3.40599e-05
3.34386e-05
3.30371e-05
3.28056e-05
3.26934e-05
3.26616e-05
3.26709e-05
3.27024e-05
3.27369e-05
3.27683e-05
3.2797e-05
3.28228e-05
3.28495e-05
3.28771e-05
3.29075e-05
3.29424e-05
3.29828e-05
3.3026e-05
3.30662e-05
3.30981e-05
3.31184e-05
3.31273e-05
3.31283e-05
3.31245e-05
3.3119e-05
3.31132e-05
3.3109e-05
3.31066e-05
3.31059e-05
3.31066e-05
3.31088e-05
3.31124e-05
3.31162e-05
3.31193e-05
3.31216e-05
3.31233e-05
3.31245e-05
3.31253e-05
3.31258e-05
3.31261e-05
3.31263e-05
3.31264e-05
3.31266e-05
3.31263e-05
3.3127e-05
3.31258e-05
3.3128e-05
3.31242e-05
3.31306e-05
3.31202e-05
3.31365e-05
3.31118e-05
3.31477e-05
3.30976e-05
3.31648e-05
3.30783e-05
3.31858e-05
3.30561e-05
3.32105e-05
3.30262e-05
3.32514e-05
3.29688e-05
3.33299e-05
3.28766e-05
3.34183e-05
3.28346e-05
3.33662e-05
3.30276e-05
3.30063e-05
3.3522e-05
3.24898e-05
3.39212e-05
3.24102e-05
3.35837e-05
3.31804e-05
3.2449e-05
3.44736e-05
3.13615e-05
3.52413e-05
3.11676e-05
3.49553e-05
3.16903e-05
3.41439e-05
3.2439e-05
3.30376e-05
3.30688e-05
3.40213e-05
2.8109e-05
4.49184e-05
4.07974e-06
0.000151648
0.00013743
0.000112244
9.8596e-05
9.39391e-05
9.4947e-05
0.000102043
0.000110149
0.00011653
0.000124289
0.000132698
0.000141248
0.000149495
0.000157247
0.00016439
0.000170964
0.000176825
0.000182081
0.000186771
0.000191013
0.000194899
0.000198609
0.00020217
0.000205495
0.000208522
0.000211298
0.000213943
0.000216493
0.000218872
0.000220997
0.000222803
0.00022425
0.000225356
0.000226164
0.000226708
0.000227059
0.000227261
0.00022737
0.000227429
0.000227466
0.000227494
0.000227531
0.00022758
0.000227619
0.000227646
0.000227668
0.000227685
0.000227696
0.000227705
0.000227709
0.000227714
0.000227713
0.00022772
0.00022771
0.000227731
0.000227693
0.000227761
0.000227645
0.000227836
0.000227532
0.000228
0.000227308
0.00022829
0.000226952
0.000228704
0.000226495
0.000229192
0.00022597
0.000229806
0.000225172
0.000230929
0.000223617
0.000232911
0.000221533
0.000234426
0.000221652
0.000231494
0.000228158
0.000221436
0.000240151
0.000210928
0.000245701
0.000213773
0.000232632
0.000235678
0.000205308
0.000262772
0.0001854
0.000271937
0.000186645
0.000258189
0.000203373
0.000234505
0.000229793
0.000200978
0.000255873
0.000206924
0.000204453
0.000300451
7.50861e-05
0.000156513
0.000151574
0.000143038
0.000135145
0.000125264
0.000120756
0.000113721
0.0001097
0.000108772
0.000109801
0.000112626
0.000117437
0.000123711
0.000131405
0.000140168
0.000150361
0.000161527
0.000173842
0.000187121
0.00020166
0.000216696
0.000232735
0.000246234
0.000258868
0.000270368
0.000280966
0.000290173
0.000297936
0.000305138
0.000311892
0.000318126
0.000323734
0.000328506
0.00033231
0.000335127
0.000337054
0.000338267
0.000338956
0.0003393
0.000339444
0.000339493
0.000339511
0.00033953
0.000339557
0.00033959
0.000339621
0.000339647
0.000339667
0.000339684
0.000339693
0.000339707
0.0003397
0.000339726
0.000339686
0.000339763
0.000339629
0.000339861
0.000339477
0.000340093
0.000339141
0.00034056
0.000338525
0.000341329
0.000337616
0.000342347
0.000336517
0.000343531
0.000335165
0.000345241
0.000332804
0.000348539
0.000328504
0.000353367
0.000324419
0.000354432
0.000328937
0.000341889
0.00034984
0.000315257
0.00037664
0.00029682
0.000377875
0.000316838
0.000336194
0.000372571
0.000276753
0.000420395
0.000246414
0.0004185
0.000267071
0.000371446
0.000324145
0.000303396
0.000410734
0.000212326
0.000477444
0.000204412
0.000376462
0.00033559
0.000175249
0.000157814
0.000154005
0.000150085
0.000146761
0.000142695
0.00013924
0.000135566
0.000131471
0.000128233
0.000124905
0.000122974
0.000119993
0.000117347
0.000115832
0.000115446
0.000116756
0.000119777
0.000124692
0.000131297
0.000139931
0.000149827
0.000162138
0.000176218
0.000191733
0.000207761
0.000223847
0.000238155
0.000251615
0.00026556
0.000279993
0.000294309
0.000307858
0.000319963
0.000329873
0.000337366
0.00034256
0.000345828
0.000347627
0.000348445
0.000348721
0.000348732
0.000348669
0.000348592
0.000348538
0.000348533
0.000348558
0.000348596
0.000348628
0.00034866
0.000348674
0.000348705
0.000348686
0.000348747
0.000348653
0.000348829
0.000348528
0.00034904
0.000348204
0.000349526
0.000347513
0.000350465
0.000346306
0.000351938
0.000344611
0.000353804
0.000342615
0.000355996
0.000340008
0.000359464
0.000335153
0.000366179
0.000326904
0.000374692
0.000321271
0.000372936
0.000334813
0.000343786
0.000378005
0.000294492
0.000422406
0.000272428
0.000408958
0.000323227
0.000322319
0.000426161
0.000226615
0.000491766
0.00019833
0.000455148
0.000252364
0.000370251
0.000353218
0.000250558
0.000491246
0.000123212
0.000545065
0.000141951
0.000387061
0.000382631
4.72768e-05
0.000158112
0.000154618
0.00015163
0.000149083
0.000146727
0.000144511
0.000142447
0.000140387
0.000138423
0.000136523
0.000134655
0.000132979
0.000130851
0.000129248
0.000127049
0.000125744
0.000123891
0.000122057
0.000120671
0.000120218
0.000120445
0.00012205
0.000125199
0.000130311
0.000137328
0.000145597
0.000154617
0.000164874
0.000176951
0.00019144
0.000207865
0.00022564
0.000239119
0.00025056
0.000259515
0.000265724
0.000269475
0.000271371
0.000272056
0.000272028
0.000271629
0.000271091
0.000270586
0.000270244
0.000270056
0.000270003
0.000269978
0.000269976
0.000269996
0.000269997
0.000270039
0.000269997
0.000270101
0.000269934
0.000270236
0.00026973
0.000270573
0.000269224
0.000271312
0.000268201
0.000272661
0.000266519
0.000274651
0.000264284
0.000277071
0.000261658
0.000280088
0.000257807
0.000285431
0.000250327
0.000295256
0.000239224
0.00030475
0.000235985
0.000294955
0.000263395
0.000247648
0.000325713
0.000186135
0.000370687
0.000176144
0.000329127
0.000260564
0.000211902
0.000383105
0.000119296
0.000428126
0.000117902
0.000369758
0.000194499
0.00026703
0.000314568
0.000133417
0.000447886
3.78868e-05
0.000450344
9.4068e-05
0.000309139
0.000369362
1.78663e-05
0.000158181
0.000154794
0.000152028
0.000149705
0.000147683
0.000145895
0.00014425
0.000142772
0.000141335
0.00014005
0.000138735
0.000137595
0.000136365
0.000135317
0.000134167
0.000133145
0.000132093
0.000130964
0.000129852
0.000128791
0.000127689
0.000126665
0.000125793
0.000124874
0.000124377
0.000124371
0.000124723
0.000125498
0.000127051
0.000130195
0.000135497
0.000143126
0.000151806
0.000160279
0.000167504
0.000172856
0.000176206
0.000177808
0.000178109
0.000177571
0.000176584
0.000175455
0.000174408
0.000173576
0.000172988
0.000172604
0.00017237
0.000172231
0.000172166
0.000172115
0.000172127
0.000172069
0.000172164
0.000171994
0.000172288
0.000171799
0.00017259
0.00017136
0.000173204
0.000170539
0.000174232
0.000169292
0.000175633
0.000167712
0.000177338
0.000165652
0.000179913
0.000161887
0.000185053
0.000154488
0.000193281
0.000145547
0.000197897
0.000148474
0.000183238
0.000180358
0.000138092
0.00022812
8.59417e-05
0.000245934
9.81387e-05
0.000203346
0.000183383
0.000113251
0.000243851
4.68646e-05
0.000243206
7.06006e-05
0.000223515
0.000133451
0.00018794
0.000199139
6.98773e-05
0.000253203
4.44617e-05
0.000289837
3.12974e-05
0.000282588
0.000199564
4.36185e-05
0.0001582
0.000154852
0.000152146
0.000149894
0.000147962
0.000146283
0.00014478
0.00014344
0.0001422
0.000141074
0.000140007
0.000139026
0.000138081
0.000137201
0.000136354
0.00013554
0.000134773
0.000134012
0.000133291
0.000132597
0.000131914
0.000131235
0.000130573
0.000129916
0.000129288
0.000128732
0.000128166
0.000127596
0.000126911
0.00012649
0.000126194
0.000126354
0.00012698
0.000127842
0.000128598
0.000128959
0.000128801
0.000128166
0.000127192
0.000126042
0.000124854
0.000123734
0.000122763
0.000121988
0.000121414
0.000121012
0.000120744
0.000120571
0.000120468
0.000120399
0.000120374
0.000120334
0.000120359
0.000120291
0.000120393
0.000120222
0.000120486
0.000120087
0.000120661
0.000119863
0.000120921
0.000119562
0.000121245
0.000119178
0.000121713
0.000118467
0.000122762
0.000116695
0.00012512
0.000113108
0.000128592
0.000109274
0.000130128
0.000112026
0.00012315
0.000126875
0.000100007
0.000144768
7.27531e-05
0.000150598
9.08552e-05
0.00013258
0.000132174
8.88618e-05
0.000145618
8.5593e-05
0.000133484
0.00011737
0.000138376
8.89885e-05
0.000177827
9.18553e-05
0.000135495
0.000145621
9.91001e-06
0.000182514
1.27845e-05
0.000218271
6.90659e-05
0.000171828
0.000158207
0.000154873
0.000152188
0.000149959
0.000148059
0.000146411
0.000144954
0.000143654
0.000142476
0.000141401
0.00014041
0.000139493
0.000138636
0.000137833
0.000137074
0.000136354
0.000135674
0.000135024
0.000134403
0.000133805
0.000133227
0.00013267
0.000132138
0.000131631
0.000131139
0.000130664
0.000130187
0.000129723
0.000129259
0.000128846
0.000128476
0.000128166
0.000127895
0.000127616
0.000127287
0.000126886
0.000126426
0.000125949
0.000125505
0.000125134
0.000124855
0.000124664
0.000124546
0.00012448
0.00012445
0.000124441
0.000124443
0.000124449
0.000124457
0.00012446
0.000124469
0.000124463
0.000124479
0.000124455
0.000124497
0.000124432
0.000124529
0.000124392
0.000124574
0.000124348
0.00012461
0.000124327
0.000124614
0.000124321
0.000124665
0.000124136
0.000125085
0.000123314
0.000126327
0.000121471
0.000128297
0.000119375
0.000129387
0.000120073
0.000126176
0.000127048
0.000115252
0.00013736
0.000103318
0.000141032
0.000109504
0.00012872
0.000129463
0.000111986
0.000131607
0.000126265
0.000111846
0.000140549
0.000120922
0.000100551
0.000166828
7.70108e-05
0.000156419
0.000131901
6.46635e-05
0.000163693
7.00588e-05
0.000144645
0.000117103
0.000113271
0.00015821
0.000154882
0.000152205
0.000149984
0.000148097
0.00014646
0.00014502
0.000143735
0.000142576
0.000141521
0.000140553
0.00013966
0.000138832
0.000138057
0.000137329
0.000136643
0.000135997
0.000135387
0.000134806
0.000134246
0.000133706
0.000133192
0.000132709
0.000132252
0.000131805
0.000131359
0.00013091
0.000130476
0.000130075
0.00012972
0.000129402
0.000129091
0.000128755
0.000128372
0.000127945
0.000127503
0.000127093
0.000126761
0.000126543
0.00012645
0.000126473
0.000126582
0.000126743
0.00012692
0.000127088
0.000127232
0.000127346
0.000127429
0.000127489
0.000127526
0.000127556
0.000127562
0.000127588
0.000127564
0.000127615
0.00012754
0.000127656
0.000127492
0.000127713
0.000127434
0.00012776
0.000127414
0.00012774
0.000127482
0.000127636
0.000127577
0.000127628
0.00012739
0.000128117
0.000126522
0.000129301
0.000125196
0.000130334
0.000125026
0.000129055
0.000128224
0.000123982
0.00013397
0.000118823
0.000135949
0.000121522
0.000129145
0.000130246
0.000123204
0.000129264
0.000131802
0.000117793
0.000138226
0.000123794
0.000119532
0.00014434
0.000109904
0.000134564
0.000136307
0.000108852
0.000138347
0.000133098
0.000109121
0.000155571
9.22819e-05
0.000158211
0.000154886
0.000152212
0.000149996
0.000148112
0.000146482
0.000145047
0.000143768
0.000142617
0.00014157
0.00014061
0.000139726
0.000138907
0.000138143
0.000137426
0.000136751
0.000136118
0.000135522
0.000134955
0.000134409
0.000133884
0.000133385
0.00013292
0.000132481
0.000132053
0.000131622
0.000131189
0.00013077
0.00013039
0.000130058
0.000129762
0.000129466
0.000129133
0.000128744
0.000128307
0.00012786
0.000127457
0.000127146
0.000126961
0.000126912
0.000126982
0.00012714
0.000127346
0.000127562
0.000127762
0.000127931
0.000128062
0.000128158
0.000128226
0.000128267
0.0001283
0.000128309
0.000128334
0.000128315
0.000128358
0.000128298
0.000128389
0.000128263
0.000128432
0.00012822
0.000128468
0.0001282
0.000128464
0.000128235
0.0001284
0.000128316
0.000128319
0.000128374
0.000128305
0.000128332
0.000128411
0.000128157
0.000128647
0.000127906
0.000128799
0.000128058
0.000128122
0.000129336
0.000126485
0.000130642
0.00012636
0.000129147
0.000129037
0.000126747
0.000129551
0.000128634
0.000126623
0.000130188
0.000128176
0.000126458
0.000130544
0.000128887
0.00012305
0.000136985
0.000120578
0.000128139
0.000141615
0.000104408
0.000164376
8.35491e-05
0.000158211
0.000154886
0.000152212
0.000149996
0.000148113
0.000146482
0.000145047
0.000143769
0.000142617
0.00014157
0.00014061
0.000139726
0.000138907
0.000138143
0.000137426
0.000136751
0.000136118
0.000135521
0.000134954
0.000134408
0.000133883
0.000133384
0.000132919
0.000132479
0.000132051
0.000131621
0.000131187
0.000130768
0.000130388
0.000130056
0.000129759
0.000129464
0.000129132
0.000128744
0.000128308
0.000127863
0.00012746
0.000127149
0.000126963
0.000126913
0.000126983
0.00012714
0.000127344
0.00012756
0.000127759
0.000127927
0.000128058
0.000128153
0.000128221
0.000128263
0.000128295
0.000128305
0.000128328
0.000128313
0.000128348
0.000128302
0.000128371
0.000128279
0.000128396
0.000128259
0.000128407
0.000128265
0.000128382
0.000128306
0.000128334
0.000128343
0.000128329
0.000128305
0.000128402
0.000128228
0.000128433
0.000128286
0.000128277
0.0001285
0.000128087
0.000128589
0.000128125
0.000128471
0.000128235
0.000128422
0.000128254
0.000128335
0.000128517
0.000127839
0.000129282
0.000126788
0.000130422
0.00012605
0.000129552
0.000129904
0.00012233
0.000140064
0.000112134
0.000145571
0.000113891
0.000133257
0.000137369
0.000105617
0.000178468
6.64075e-05
0.00015821
0.000154882
0.000152205
0.000149985
0.000148097
0.000146461
0.00014502
0.000143735
0.000142577
0.000141522
0.000140554
0.000139661
0.000138831
0.000138057
0.000137328
0.000136642
0.000135995
0.000135385
0.000134803
0.000134242
0.000133702
0.000133187
0.000132703
0.000132245
0.000131799
0.000131352
0.000130905
0.000130471
0.00013007
0.000129714
0.000129398
0.000129094
0.000128769
0.000128399
0.000127983
0.000127549
0.000127142
0.000126808
0.000126584
0.000126482
0.000126494
0.000126593
0.000126743
0.00012691
0.000127071
0.000127209
0.000127319
0.0001274
0.000127458
0.000127494
0.000127522
0.00012753
0.000127549
0.000127537
0.000127566
0.000127529
0.000127584
0.000127514
0.0001276
0.000127504
0.0001276
0.000127519
0.000127567
0.000127565
0.000127519
0.000127598
0.000127521
0.000127549
0.000127614
0.000127435
0.00012771
0.000127396
0.00012767
0.000127512
0.000127502
0.00012771
0.000127278
0.000127967
0.000127008
0.000128171
0.000126997
0.000127845
0.00012777
0.00012652
0.000129923
0.000123387
0.000133773
0.000119777
0.00013409
0.000125193
0.000121915
0.000144593
0.000102433
0.000160512
9.53059e-05
0.000153879
0.000113015
0.000122709
0.000164005
7.63804e-05
0.000158207
0.000154873
0.000152189
0.000149959
0.00014806
0.000146411
0.000144955
0.000143654
0.000142475
0.000141401
0.000140408
0.000139492
0.000138632
0.000137831
0.000137067
0.00013635
0.000135664
0.000135015
0.000134393
0.000133794
0.000133215
0.000132657
0.000132126
0.000131614
0.00013113
0.000130658
0.000130201
0.00012973
0.000129286
0.000128868
0.000128522
0.000128266
0.000128075
0.000127886
0.000127631
0.000127275
0.000126826
0.000126327
0.000125834
0.000125396
0.000125035
0.000124762
0.000124567
0.000124437
0.000124358
0.000124312
0.000124289
0.000124278
0.000124275
0.000124272
0.000124275
0.000124271
0.00012428
0.000124266
0.000124287
0.000124258
0.000124298
0.000124246
0.000124308
0.000124241
0.000124304
0.000124257
0.000124276
0.000124294
0.000124239
0.000124317
0.000124243
0.000124276
0.000124319
0.000124179
0.000124415
0.000124106
0.000124453
0.000124107
0.0001244
0.000124254
0.000124086
0.00012482
0.000123255
0.000125833
0.000122268
0.00012641
0.000122436
0.000124843
0.000126253
0.000118616
0.000135286
0.000108755
0.000140884
0.000109422
0.000128956
0.000133551
0.00010324
0.000161865
8.59744e-05
0.000170032
8.74018e-05
0.000152912
0.000112015
0.000113976
0.0001582
0.000154852
0.000152147
0.000149894
0.000147964
0.000146281
0.000144782
0.000143434
0.000142198
0.000141066
0.00014
0.000139014
0.000138064
0.000137193
0.000136325
0.000135536
0.000134738
0.000133993
0.000133261
0.000132578
0.000131886
0.000131227
0.000130548
0.000129881
0.000129305
0.000128796
0.00012835
0.000127789
0.000127372
0.000126963
0.000127011
0.000127752
0.000129099
0.000130691
0.000132071
0.000132901
0.000133049
0.000132575
0.00013165
0.000130476
0.000129221
0.000128017
0.000126961
0.000126117
0.000125492
0.000125055
0.000124765
0.000124579
0.000124466
0.000124398
0.000124362
0.000124337
0.000124331
0.000124317
0.000124326
0.000124306
0.000124331
0.000124299
0.000124336
0.000124297
0.000124331
0.000124309
0.000124311
0.000124335
0.000124284
0.000124354
0.000124282
0.000124334
0.000124324
0.000124277
0.00012439
0.000124197
0.0001245
0.000124037
0.00012471
0.000123827
0.000124787
0.000124079
0.00012398
0.000125653
0.000121598
0.000128664
0.000118284
0.000130733
0.000118524
0.000126014
0.00012967
0.000111256
0.000145511
9.91324e-05
0.000144656
0.000111057
0.000124868
0.000136536
0.000106244
0.000153394
9.38675e-05
0.000163237
8.46418e-05
0.000155699
0.00015818
0.000154798
0.000152024
0.000149709
0.000147677
0.000145889
0.000144246
0.000142745
0.000141329
0.000140006
0.000138737
0.000137535
0.000136365
0.000135269
0.000134144
0.000133138
0.000131995
0.000130882
0.000129768
0.000128782
0.000127725
0.00012699
0.000126049
0.000125477
0.000125618
0.000126389
0.000127738
0.000129656
0.000132773
0.00013777
0.000145402
0.000155001
0.000165363
0.000175155
0.000183322
0.000189312
0.000193076
0.000194936
0.000195385
0.000194924
0.000193974
0.00019286
0.000191815
0.000190976
0.000190376
0.000189979
0.000189732
0.000189587
0.000189507
0.000189465
0.000189446
0.000189435
0.000189435
0.000189429
0.000189437
0.000189426
0.000189442
0.000189422
0.000189446
0.000189421
0.000189443
0.00018943
0.000189427
0.000189452
0.0001894
0.000189479
0.000189379
0.000189492
0.000189376
0.000189485
0.000189393
0.000189444
0.000189497
0.000189219
0.000189909
0.000188588
0.000190693
0.00018786
0.000190966
0.000188581
0.000188651
0.000192962
0.000182297
0.000200409
0.000175594
0.000202945
0.00017966
0.000190461
0.000199564
0.000169745
0.000215593
0.000163299
0.000210083
0.000174639
0.000196089
0.000190105
0.000178656
0.000213709
0.000152088
0.000233242
0.000158112
0.000154625
0.000151609
0.000149105
0.000146664
0.000144538
0.000142349
0.000140382
0.000138344
0.000136512
0.000134742
0.000132819
0.000131002
0.000129072
0.00012739
0.00012583
0.000124043
0.000122485
0.000121986
0.000122294
0.000123875
0.000126964
0.000131905
0.000139109
0.000148285
0.000158434
0.000169512
0.000181773
0.000196059
0.000212455
0.000230054
0.000244834
0.000258387
0.000269961
0.000278832
0.000284933
0.000288634
0.0002905
0.00029112
0.00029102
0.000290633
0.000290121
0.000289611
0.000289229
0.000289046
0.000288962
0.000288929
0.000288922
0.000288928
0.000288937
0.000288947
0.000288954
0.000288961
0.000288963
0.000288968
0.000288965
0.000288973
0.000288963
0.000288976
0.000288962
0.000288977
0.000288965
0.000288969
0.000288979
0.000288948
0.000289006
0.000288918
0.000289036
0.000288891
0.000289059
0.000288874
0.000289065
0.000288897
0.00028897
0.000289133
0.000288507
0.000289884
0.000287495
0.000290966
0.000286765
0.000290709
0.000288726
0.000286486
0.000295238
0.000278608
0.000302703
0.000274234
0.000301307
0.000282627
0.000286655
0.000300101
0.000271182
0.000310616
0.00026632
0.000310672
0.000269996
0.000301841
0.000286695
0.000278701
0.000313503
0.000157847
0.000153948
0.000150094
0.000146708
0.00014257
0.000139354
0.000135219
0.000131841
0.000128203
0.000126046
0.000123548
0.000120645
0.000118704
0.000117805
0.000118552
0.000121034
0.000125528
0.000131896
0.000140589
0.000150797
0.000163119
0.000177434
0.00019332
0.000210313
0.000227771
0.000242566
0.000256415
0.000270326
0.000284683
0.00029925
0.000313467
0.000326892
0.000338558
0.000348008
0.000355076
0.000359922
0.000362929
0.000364573
0.000365318
0.000365548
0.000365525
0.000365439
0.00036535
0.000365281
0.000365254
0.000365262
0.000365283
0.000365304
0.000365323
0.000365338
0.000365349
0.000365356
0.000365361
0.000365363
0.000365367
0.000365365
0.000365369
0.000365364
0.000365372
0.000365363
0.000365373
0.000365363
0.00036537
0.000365371
0.000365357
0.000365389
0.000365335
0.000365414
0.000365311
0.000365435
0.000365294
0.000365446
0.000365295
0.000365413
0.000365398
0.000365181
0.000365822
0.000364532
0.000366646
0.00036374
0.000367028
0.000364278
0.000365049
0.000367976
0.000359869
0.000373823
0.000354972
0.000375898
0.000357355
0.000368563
0.000368334
0.000356386
0.000379215
0.000348433
0.000384296
0.000346574
0.000381962
0.00035491
0.000366849
0.000375339
0.000156638
0.00015122
0.000143341
0.000134612
0.000126101
0.000121013
0.00011495
0.000112516
0.000112509
0.000114185
0.000117906
0.000123457
0.000130682
0.000139101
0.000149004
0.000160166
0.000172618
0.00018628
0.00020138
0.000217134
0.000233228
0.000246847
0.000259853
0.000272273
0.000283341
0.000293986
0.000302281
0.000309599
0.000316445
0.00032292
0.000328939
0.000334264
0.000338729
0.000342243
0.000344815
0.000346555
0.000347638
0.000348238
0.000348521
0.000348627
0.000348653
0.000348653
0.000348654
0.000348666
0.000348685
0.000348704
0.000348721
0.000348736
0.000348747
0.000348755
0.000348761
0.000348764
0.000348767
0.000348768
0.000348769
0.000348768
0.00034877
0.000348768
0.000348772
0.000348767
0.000348772
0.000348767
0.000348771
0.00034877
0.000348766
0.000348779
0.000348754
0.000348792
0.00034874
0.000348805
0.000348729
0.000348813
0.000348727
0.000348803
0.000348765
0.000348711
0.000348945
0.000348416
0.000349352
0.000347966
0.000349688
0.000347992
0.000349011
0.00034954
0.000346576
0.000352569
0.000343638
0.000354487
0.000343699
0.000351871
0.000348628
0.000345603
0.000355007
0.000340181
0.000359127
0.000337541
0.000359769
0.000340513
0.000353139
0.000353681
0.000151616
0.00013684
0.000113463
9.94985e-05
9.76465e-05
9.81142e-05
0.000110528
0.000115083
0.000121849
0.000129661
0.00013795
0.000146256
0.000154233
0.000161656
0.000168567
0.000174836
0.000180509
0.000185591
0.0001902
0.000194357
0.000198259
0.000202077
0.000205656
0.00020897
0.000211921
0.000214638
0.000217224
0.000219653
0.000221863
0.000223795
0.000225399
0.000226669
0.000227632
0.000228324
0.000228788
0.000229074
0.000229234
0.000229315
0.000229353
0.000229375
0.000229392
0.000229414
0.000229451
0.000229483
0.000229504
0.000229521
0.000229534
0.000229543
0.00022955
0.000229554
0.000229556
0.000229558
0.000229559
0.000229559
0.00022956
0.000229559
0.00022956
0.000229559
0.00022956
0.000229559
0.000229561
0.000229559
0.000229561
0.000229559
0.000229559
0.000229562
0.000229555
0.000229567
0.000229549
0.000229574
0.000229543
0.000229578
0.000229541
0.000229578
0.000229547
0.000229558
0.000229592
0.000229474
0.000229727
0.000229293
0.000229921
0.000229162
0.000229879
0.000229496
0.000229167
0.000230574
0.000227886
0.000231766
0.000227176
0.000231651
0.000228308
0.000229597
0.000230931
0.000226856
0.00023349
0.000224723
0.000235358
0.00022426
0.000235124
0.000227845
2.45431e-05
3.47524e-05
4.04098e-05
4.23035e-05
4.20133e-05
4.05605e-05
3.87135e-05
3.70572e-05
3.56099e-05
3.44442e-05
3.35757e-05
3.29775e-05
3.25992e-05
3.23839e-05
3.22863e-05
3.2258e-05
3.22709e-05
3.22996e-05
3.23317e-05
3.23621e-05
3.23909e-05
3.24263e-05
3.24629e-05
3.2501e-05
3.25403e-05
3.25806e-05
3.2625e-05
3.26697e-05
3.27092e-05
3.27381e-05
3.27542e-05
3.27594e-05
3.27579e-05
3.27525e-05
3.27459e-05
3.27394e-05
3.27344e-05
3.27312e-05
3.27297e-05
3.27298e-05
3.27313e-05
3.27342e-05
3.27374e-05
3.274e-05
3.2742e-05
3.27434e-05
3.27444e-05
3.27451e-05
3.27455e-05
3.27458e-05
3.2746e-05
3.27461e-05
3.27461e-05
3.27461e-05
3.27462e-05
3.27462e-05
3.27462e-05
3.27462e-05
3.27462e-05
3.27461e-05
3.27462e-05
3.27461e-05
3.27462e-05
3.27461e-05
3.27462e-05
3.27462e-05
3.2746e-05
3.27465e-05
3.27458e-05
3.27468e-05
3.27455e-05
3.2747e-05
3.27453e-05
3.27471e-05
3.27454e-05
3.27466e-05
3.27467e-05
3.27439e-05
3.27515e-05
3.27367e-05
3.27606e-05
3.2728e-05
3.27646e-05
3.27344e-05
3.27429e-05
3.2774e-05
3.2688e-05
3.28351e-05
3.26379e-05
3.28573e-05
3.26579e-05
3.27919e-05
3.2763e-05
3.26657e-05
3.28958e-05
3.25416e-05
3.30055e-05
3.24694e-05
3.30389e-05
3.25544e-05
0.00033537
0.000533354
0.0013268
0.001703
0.00206939
0.00260166
0.00178963
0.00092323
0.00048733
0.000280617
0.000202846
0.000190785
0.000196316
0.000189375
0.000185378
0.000187855
0.000188711
0.000185484
0.000180529
0.000176102
0.000172641
0.000169455
0.000165774
0.000161277
0.00015616
0.00015093
0.000146112
0.000141991
0.000138573
0.000135763
0.000133524
0.000131848
0.000130682
0.00012994
0.000129518
0.000129299
0.00012919
0.000129139
0.000129114
0.000129103
0.000129097
0.000129094
0.000129093
0.000129093
0.000129092
0.000129092
0.000129092
0.000129092
0.000129092
0.000129092
0.000129092
0.000129092
0.000129092
0.000129092
0.000129092
0.000129092
0.000129092
0.000129092
0.000129092
0.000129092
0.000129092
0.000129092
0.000129092
0.000129092
0.000129092
0.000129092
0.000129092
0.000129092
0.000129092
0.000129092
0.000129092
0.000129092
0.000129092
0.000129092
0.000129092
0.000129091
0.000129092
0.000129092
0.000129092
0.000129092
0.000129091
0.000129093
0.000129091
0.000129093
0.000129091
0.000129093
0.000129091
0.000129093
0.00012909
0.000129093
0.00012909
0.000129093
0.00012909
0.000129093
0.000129089
0.000129092
0.000129087
0.000129088
0.000129083
0.000129083
0.000383111
0.000458438
0.00110915
0.00141841
0.00181439
0.00230446
0.00139981
0.00069323
0.000353179
0.000204608
0.000164885
0.000166951
0.000184882
0.000189346
0.000186933
0.00018648
0.000185742
0.000182674
0.000178267
0.000174072
0.000170628
0.000167518
0.00016406
0.000159869
0.000155034
0.000150006
0.000145316
0.0001413
0.000138016
0.000135371
0.000133293
0.000131742
0.000130656
0.000129951
0.000129538
0.000129316
0.000129204
0.000129148
0.000129121
0.000129108
0.000129102
0.000129099
0.000129097
0.000129097
0.000129096
0.000129096
0.000129096
0.000129096
0.000129096
0.000129096
0.000129096
0.000129096
0.000129096
0.000129096
0.000129096
0.000129096
0.000129096
0.000129096
0.000129096
0.000129096
0.000129096
0.000129096
0.000129096
0.000129096
0.000129096
0.000129096
0.000129096
0.000129096
0.000129096
0.000129096
0.000129096
0.000129096
0.000129096
0.000129096
0.000129096
0.000129096
0.000129096
0.000129096
0.000129096
0.000129097
0.000129095
0.000129098
0.000129094
0.000129098
0.000129094
0.000129098
0.000129094
0.000129098
0.000129093
0.000129099
0.000129093
0.000129099
0.000129093
0.000129099
0.000129092
0.000129098
0.000129091
0.000129097
0.00012909
0.000129099
0.000426353
0.00024448
0.000855115
0.00108954
0.00151747
0.00183144
0.00098335
0.000459281
0.000225163
0.00017744
0.000179187
0.000174634
0.000185256
0.000191688
0.000189582
0.000186585
0.000184
0.000180574
0.000176381
0.000172306
0.000168847
0.000165768
0.000162474
0.000158532
0.000153944
0.000149106
0.000144542
0.000140635
0.000137492
0.000135025
0.000133114
0.000131683
0.000130667
0.000129992
0.000129582
0.000129352
0.00012923
0.000129167
0.000129135
0.000129119
0.000129111
0.000129107
0.000129106
0.000129105
0.000129104
0.000129104
0.000129104
0.000129104
0.000129104
0.000129104
0.000129104
0.000129104
0.000129104
0.000129104
0.000129104
0.000129104
0.000129104
0.000129104
0.000129104
0.000129104
0.000129104
0.000129104
0.000129104
0.000129104
0.000129104
0.000129104
0.000129104
0.000129104
0.000129104
0.000129104
0.000129104
0.000129104
0.000129104
0.000129103
0.000129104
0.000129103
0.000129104
0.000129104
0.000129103
0.000129105
0.000129102
0.000129106
0.000129101
0.000129106
0.000129101
0.000129106
0.000129101
0.000129107
0.0001291
0.000129108
0.000129099
0.000129108
0.000129099
0.000129109
0.000129098
0.00012911
0.000129099
0.000129113
0.000129102
0.000129126
0.000580765
0.000112801
0.000586962
0.000671729
0.00115337
0.00122699
0.000569744
0.000234131
0.000156644
0.000168757
0.000169734
0.000160271
0.000170343
0.000184516
0.000188257
0.000186064
0.000182607
0.00017876
0.000174617
0.000170632
0.000167181
0.00016413
0.000160964
0.000157232
0.000152868
0.000148209
0.000143772
0.000139974
0.000136968
0.000134676
0.000132937
0.000131634
0.000130696
0.000130059
0.000129655
0.000129415
0.000129281
0.000129208
0.00012917
0.00012915
0.00012914
0.000129135
0.000129132
0.000129131
0.00012913
0.00012913
0.000129129
0.000129129
0.000129129
0.000129129
0.000129129
0.000129129
0.000129129
0.000129129
0.000129129
0.000129129
0.000129129
0.000129129
0.000129129
0.000129129
0.000129129
0.000129129
0.000129129
0.000129129
0.000129129
0.000129129
0.000129129
0.000129129
0.000129129
0.000129129
0.000129129
0.000129129
0.000129129
0.000129129
0.00012913
0.000129129
0.000129129
0.000129129
0.000129128
0.000129131
0.000129127
0.000129132
0.000129126
0.000129133
0.000129126
0.000129133
0.000129125
0.000129134
0.000129124
0.000129135
0.000129124
0.000129136
0.000129123
0.000129137
0.000129123
0.00012914
0.000129124
0.000129147
0.000129134
0.000129171
0.000607219
4.98381e-05
0.000522184
0.000252167
0.000740088
0.000568985
0.000194295
9.21777e-05
0.000162365
0.000177432
0.000183681
0.00017207
0.00016787
0.000178444
0.000185267
0.000184872
0.000181334
0.00017712
0.000172892
0.000168959
0.000165554
0.000162561
0.00015952
0.000155977
0.000151817
0.00014733
0.000143015
0.000139313
0.000136419
0.000134276
0.0001327
0.000131534
0.000130693
0.000130111
0.000129727
0.000129485
0.00012934
0.000129257
0.000129212
0.000129187
0.000129175
0.000129168
0.000129164
0.000129163
0.000129162
0.000129161
0.000129161
0.000129161
0.000129161
0.000129161
0.000129161
0.000129161