/*--------------------------------*- C++ -*----------------------------------*\
| =========                 |                                                 |
| \\      /  F ield         | OpenFOAM: The Open Source CFD Toolbox           |
|  \\    /   O peration     | Version:  v2012                                 |
|   \\  /    A nd           | Website:  www.openfoam.com                      |
|    \\/     M anipulation  |                                                 |
\*---------------------------------------------------------------------------*/
FoamFile
{
    version     2.0;
    format      ascii;
    class       surfaceScalarField;
    location    "0.067";
    object      phi.air;
}
// * * * * * * * * * * * * * * * * * * * * * * * * * * * * * * * * * * * * * //

dimensions      [0 3 -1 0 0 0 0];
oriented        oriented;


internalField   nonuniform List<scalar> 
10964
(
0.00133691
2.84443e-05
0.00129798
3.81383e-05
0.00125297
4.42126e-05
0.00120455
4.76185e-05
0.00115606
4.76912e-05
0.00111002
4.5228e-05
0.00106816
4.10554e-05
0.0010316
3.57473e-05
0.00100019
3.0604e-05
0.000973643
2.57299e-05
0.000951931
2.08959e-05
0.000934814
1.62999e-05
0.000921846
1.21505e-05
0.00091242
8.60776e-06
0.000905884
5.71734e-06
0.00090153
3.53526e-06
0.000898735
1.97654e-06
0.00089702
8.97664e-07
0.000896001
2.01621e-07
0.000895384
-2.01098e-07
0.000894999
-4.31693e-07
0.000894695
-5.12385e-07
0.000894462
-5.84079e-07
0.000894282
-6.3648e-07
0.000894197
-7.31429e-07
0.000894171
-7.89375e-07
0.000894207
-8.516e-07
0.000894307
-9.16146e-07
0.000894432
-9.39913e-07
0.000894609
-9.92823e-07
0.000894769
-9.75219e-07
0.000894895
-9.40734e-07
0.000894988
-9.07674e-07
0.000895017
-8.44245e-07
0.000894955
-7.53262e-07
0.000894879
-7.3798e-07
0.00089473
-6.65608e-07
0.000894568
-6.5292e-07
0.000894373
-6.19512e-07
0.000894143
-5.84478e-07
0.000893928
-6.00188e-07
0.000893659
-5.45352e-07
0.000893441
-5.96071e-07
0.000893175
-5.48186e-07
0.000892971
-6.11121e-07
0.000892782
-6.25549e-07
0.000892552
-5.84362e-07
0.00089239
-6.5225e-07
0.000892197
-6.21888e-07
0.00089207
-6.86636e-07
0.000891882
-6.26712e-07
0.000891789
-7.21175e-07
0.000891646
-6.71633e-07
0.000891546
-7.1448e-07
0.000891495
-7.63171e-07
0.000891365
-6.84676e-07
0.000891341
-7.90583e-07
0.000891197
-6.70109e-07
0.000891187
-8.04164e-07
0.00089109
-7.17539e-07
0.000891098
-8.2193e-07
0.000891124
-8.40543e-07
0.000891041
-7.3103e-07
0.000891152
-9.2583e-07
0.000891104
-7.65614e-07
0.000891214
-9.24651e-07
0.000891167
-7.66496e-07
0.000891203
-8.50848e-07
0.000891201
-8.11332e-07
0.000891055
-6.6811e-07
0.000891131
-8.90611e-07
0.00089091
-5.92416e-07
0.000890885
-7.89922e-07
0.000890687
-6.16091e-07
0.000890589
-7.16112e-07
0.000890507
-7.31943e-07
0.000890316
-6.22763e-07
0.000890421
-9.19478e-07
0.000890182
-5.75078e-07
0.000890197
-8.29206e-07
0.000890165
-7.81677e-07
0.00089009
-7.39652e-07
0.000890231
-9.54791e-07
0.000889981
-5.64401e-07
0.000890165
-9.98569e-07
0.000890094
-7.42676e-07
0.000890082
-8.02941e-07
0.000890108
-8.3945e-07
0.000889966
-6.72182e-07
0.000890115
-9.62648e-07
0.000889837
-5.366e-07
0.000889965
-9.4252e-07
0.00088991
-7.58424e-07
0.000889503
-4.07566e-07
0.000890043
-1.3545e-06
0.00088933
-1.00882e-07
0.000889489
-9.74452e-07
0.000890912
-2.23511e-06
0.000885948
4.1477e-06
-1.70029e-05
0.000902139
0.00151471
2.62926e-05
0.00151419
3.86591e-05
0.00151229
4.6115e-05
0.00150787
5.20397e-05
0.00150066
5.49026e-05
0.00149085
5.5034e-05
0.00147872
5.31862e-05
0.0014647
4.97631e-05
0.0014494
4.59069e-05
0.00143337
4.17641e-05
0.00141695
3.73123e-05
0.00140048
3.27715e-05
0.00138429
2.83361e-05
0.00136876
2.41458e-05
0.00135413
2.0346e-05
0.00134056
1.71011e-05
0.00132816
1.43796e-05
0.001317
1.20589e-05
0.00130703
1.01657e-05
0.00129823
8.59951e-06
0.00129048
7.32365e-06
0.00128373
6.23001e-06
0.00127789
5.25852e-06
0.00127294
4.31285e-06
0.00126868
3.53451e-06
0.00126493
2.95727e-06
0.00126168
2.39375e-06
0.00125882
1.95055e-06
0.00125628
1.59816e-06
0.00125392
1.36622e-06
0.00125171
1.22994e-06
0.00124964
1.13452e-06
0.00124771
1.02614e-06
0.0012459
9.5936e-07
0.00124423
9.22321e-07
0.00124268
8.09196e-07
0.00124125
7.66119e-07
0.00123992
6.76328e-07
0.00123871
5.93139e-07
0.00123756
5.59721e-07
0.00123651
4.51796e-07
0.00123554
4.25904e-07
0.00123465
2.96488e-07
0.00123381
2.83155e-07
0.00123304
1.60198e-07
0.00123234
8.21059e-08
0.00123165
1.05224e-07
0.00123101
-2.05755e-08
0.00123041
-1.68114e-08
0.00122986
-1.33127e-07
0.00122933
-1.02561e-07
0.00122886
-2.46875e-07
0.00122842
-2.3116e-07
0.00122798
-2.73895e-07
0.0012276
-3.86174e-07
0.00122724
-3.23559e-07
0.00122693
-4.85236e-07
0.00122661
-3.51787e-07
0.00122636
-5.47016e-07
0.00122612
-4.82552e-07
0.00122591
-6.08575e-07
0.00122572
-6.51741e-07
0.00122556
-5.71009e-07
0.00122545
-8.16095e-07
0.00122531
-6.29702e-07
0.00122525
-8.58157e-07
0.00122515
-6.64562e-07
0.00122507
-7.71804e-07
0.00122499
-7.31229e-07
0.00122486
-5.37735e-07
0.00122469
-7.27137e-07
0.0012245
-3.9933e-07
0.00122432
-6.08415e-07
0.00122411
-4.07017e-07
0.00122391
-5.15959e-07
0.00122378
-5.97807e-07
0.0012236
-4.49023e-07
0.00122344
-7.59524e-07
0.00122334
-4.72473e-07
0.00122324
-7.31276e-07
0.00122319
-7.28839e-07
0.00122312
-6.6898e-07
0.00122311
-9.46153e-07
0.00122312
-5.78367e-07
0.00122306
-9.36414e-07
0.00122307
-7.56358e-07
0.00122303
-7.59407e-07
0.00122308
-8.84553e-07
0.001223
-5.96135e-07
0.00122298
-9.42679e-07
0.00122298
-5.3561e-07
0.00122291
-8.76949e-07
0.00122288
-7.20428e-07
0.00122286
-3.93512e-07
0.00122264
-1.13637e-06
0.00122295
-4.03224e-07
0.00122238
-4.11635e-07
0.0012232
-3.04845e-06
0.00122266
4.68679e-06
-2.09841e-05
0.00122664
0.00167797
2.29852e-05
0.00168095
3.56837e-05
0.00168479
4.22736e-05
0.00168871
4.81233e-05
0.00169221
5.14038e-05
0.00169502
5.22173e-05
0.00169688
5.13303e-05
0.00169741
4.92334e-05
0.0016966
4.67152e-05
0.00169456
4.38057e-05
0.0016911
4.0769e-05
0.00168615
3.77217e-05
0.00167971
3.47808e-05
0.00167181
3.20382e-05
0.00166262
2.95366e-05
0.0016523
2.74236e-05
0.00164112
2.55613e-05
0.00162941
2.37689e-05
0.00161745
2.21263e-05
0.00160565
2.03974e-05
0.00159421
1.87641e-05
0.00158344
1.69989e-05
0.00157341
1.52867e-05
0.00156429
1.34396e-05
0.00155601
1.18063e-05
0.00154861
1.03659e-05
0.00154199
9.00642e-06
0.00153602
7.92152e-06
0.00153065
6.97333e-06
0.00152572
6.29126e-06
0.00152122
5.73322e-06
0.00151709
5.26341e-06
0.00151336
4.7558e-06
0.00150995
4.36572e-06
0.00150688
3.99513e-06
0.00150406
3.62731e-06
0.00150153
3.30072e-06
0.00149915
3.05162e-06
0.00149702
2.72627e-06
0.00149504
2.54365e-06
0.00149321
2.28063e-06
0.00149155
2.08641e-06
0.00149
1.84109e-06
0.00148861
1.67164e-06
0.00148725
1.52112e-06
0.00148601
1.32959e-06
0.00148481
1.29893e-06
0.0014837
1.0911e-06
0.00148267
1.01643e-06
0.00148168
8.49727e-07
0.00148081
7.75053e-07
0.00147995
6.13682e-07
0.00147919
5.25039e-07
0.00147842
4.99153e-07
0.00147775
2.78142e-07
0.00147715
2.81223e-07
0.00147659
7.46542e-08
0.00147609
1.4634e-07
0.00147559
-4.33571e-08
0.00147519
-9.12604e-08
0.00147477
-1.81322e-07
0.00147442
-3.00716e-07
0.00147412
-2.70861e-07
0.00147385
-5.51825e-07
0.00147362
-3.97189e-07
0.0014734
-6.40618e-07
0.00147329
-5.50101e-07
0.00147307
-5.55759e-07
0.00147291
-5.6955e-07
0.00147272
-3.46535e-07
0.00147247
-4.81129e-07
0.00147224
-1.69084e-07
0.00147195
-3.11955e-07
0.00147175
-2.11284e-07
0.00147143
-1.94932e-07
0.00147124
-4.09794e-07
0.00147104
-2.49717e-07
0.0014708
-5.1659e-07
0.00147069
-3.68645e-07
0.00147052
-5.59459e-07
0.00147049
-6.97597e-07
0.00147038
-5.56066e-07
0.00147031
-8.80033e-07
0.00147036
-6.26609e-07
0.00147026
-8.32972e-07
0.00147029
-7.92862e-07
0.0014702
-6.6971e-07
0.00147025
-9.3048e-07
0.00147025
-5.93238e-07
0.00147017
-8.6478e-07
0.00147022
-5.87211e-07
0.0014701
-7.55167e-07
0.00147014
-7.62202e-07
0.00147013
-3.8414e-07
0.00146987
-8.70989e-07
0.00147016
-6.98719e-07
0.00146983
-7.64673e-08
0.00147
-3.22309e-06
0.00147134
3.34488e-06
-1.97013e-05
0.00147006
0.00185751
1.96201e-05
0.00186114
3.2057e-05
0.0018658
3.76068e-05
0.00187104
4.28905e-05
0.00187643
4.6007e-05
0.00188184
4.68091e-05
0.00188704
4.61308e-05
0.00189183
4.44428e-05
0.00189616
4.23903e-05
0.00189994
4.00203e-05
0.00190315
3.7566e-05
0.00190574
3.51318e-05
0.00190767
3.28483e-05
0.00190887
3.0836e-05
0.00190926
2.91508e-05
0.00190878
2.79016e-05
0.00190749
2.68493e-05
0.00190526
2.59946e-05
0.00190201
2.53807e-05
0.00189767
2.47338e-05
0.00189225
2.41901e-05
0.00188575
2.35e-05
0.00187823
2.27983e-05
0.00186985
2.18251e-05
0.00186078
2.08735e-05
0.00185142
1.97294e-05
0.00184186
1.85664e-05
0.00183259
1.71869e-05
0.0018237
1.58701e-05
0.00181544
1.45459e-05
0.00180786
1.33176e-05
0.00180091
1.22128e-05
0.00179466
1.1003e-05
0.00178892
1.0106e-05
0.00178377
9.14892e-06
0.00177892
8.4754e-06
0.00177452
7.69532e-06
0.00177033
7.24071e-06
0.0017665
6.5652e-06
0.00176297
6.07053e-06
0.00175967
5.57588e-06
0.00175668
5.07707e-06
0.00175385
4.67154e-06
0.00175133
4.18983e-06
0.00174893
3.92642e-06
0.00174676
3.49895e-06
0.00174475
3.31075e-06
0.00174288
2.96272e-06
0.00174116
2.7283e-06
0.00173953
2.48772e-06
0.00173808
2.22071e-06
0.00173664
2.05599e-06
0.00173537
1.78918e-06
0.00173412
1.7578e-06
0.001733
1.39127e-06
0.00173201
1.27788e-06
0.00173106
1.02096e-06
0.00173024
9.68239e-07
0.00172937
8.19868e-07
0.00172869
5.88795e-07
0.00172795
5.59947e-07
0.00172734
3.10258e-07
0.0017268
2.73081e-07
0.0017263
-5.25051e-08
0.00172587
3.04275e-08
0.00172543
-2.03656e-07
0.00172521
-3.22518e-07
0.00172478
-1.30511e-07
0.00172446
-2.4468e-07
0.00172412
-9.92833e-09
0.00172374
-1.0055e-07
0.00172339
1.83287e-07
0.00172295
1.28447e-07
0.0017227
3.29693e-08
0.00172226
2.50474e-07
0.00172197
-1.25516e-07
0.00172173
-7.58046e-09
0.00172143
-2.1442e-07
0.00172127
-2.15031e-07
0.00172104
-3.26603e-07
0.001721
-6.59618e-07
0.00172088
-4.27952e-07
0.00172076
-7.62299e-07
0.00172077
-6.39593e-07
0.00172065
-7.16059e-07
0.00172068
-8.15229e-07
0.0017206
-5.93298e-07
0.00172061
-9.42042e-07
0.00172067
-6.47549e-07
0.00172061
-8.05699e-07
0.00172069
-6.67478e-07
0.00172054
-6.1265e-07
0.0017206
-8.22135e-07
0.00172058
-3.64621e-07
0.00172042
-7.04234e-07
0.00172052
-8.04437e-07
0.00172048
-3.24572e-08
0.00172027
-3.01489e-06
0.00172196
1.65201e-06
-1.73184e-05
0.00171958
0.0020562
1.62841e-05
0.00206033
2.79186e-05
0.00206546
3.24816e-05
0.00207129
3.7062e-05
0.00207741
3.98876e-05
0.00208363
4.05902e-05
0.00208974
4.00218e-05
0.00209558
3.85948e-05
0.00210114
3.68339e-05
0.00210635
3.48139e-05
0.00211119
3.27191e-05
0.00211567
3.06527e-05
0.00211981
2.87149e-05
0.00212361
2.70365e-05
0.00212711
2.56454e-05
0.00213035
2.46659e-05
0.00213333
2.38612e-05
0.00213605
2.32754e-05
0.00213852
2.291e-05
0.00214067
2.25885e-05
0.00214246
2.2398e-05
0.00214382
2.21395e-05
0.00214462
2.19971e-05
0.00214473
2.17141e-05
0.00214413
2.14803e-05
0.00214273
2.11278e-05
0.00214042
2.08777e-05
0.0021372
2.04089e-05
0.00213305
2.00142e-05
0.00212813
1.94691e-05
0.00212251
1.89374e-05
0.00211635
1.83767e-05
0.0021098
1.75523e-05
0.00210295
1.69507e-05
0.00209606
1.60379e-05
0.00208913
1.54128e-05
0.00208253
1.42906e-05
0.00207612
1.36482e-05
0.00207005
1.2633e-05
0.00206444
1.16824e-05
0.00205909
1.0924e-05
0.00205426
9.91193e-06
0.00204951
9.4251e-06
0.00204527
8.4246e-06
0.0020413
7.89981e-06
0.0020376
7.20127e-06
0.00203415
6.75182e-06
0.00203089
6.2266e-06
0.00202793
5.68606e-06
0.00202504
5.38151e-06
0.0020225
4.76315e-06
0.00201992
4.62823e-06
0.00201765
4.0654e-06
0.0020155
3.90316e-06
0.0020135
3.39649e-06
0.00201172
3.05482e-06
0.00200999
2.75566e-06
0.00200852
2.43084e-06
0.00200696
2.37884e-06
0.00200568
1.87765e-06
0.00200436
1.87919e-06
0.00200319
1.47478e-06
0.00200213
1.33114e-06
0.00200108
1.00029e-06
0.00200029
8.25958e-07
0.0019993
7.81035e-07
0.00199863
3.43328e-07
0.00199778
7.23799e-07
0.00199704
4.92518e-07
0.00199641
6.25304e-07
0.00199572
5.86362e-07
0.00199518
7.2494e-07
0.00199449
8.14093e-07
0.00199413
3.92077e-07
0.00199353
8.51935e-07
0.00199307
3.40884e-07
0.00199274
3.20097e-07
0.00199233
1.92175e-07
0.00199216
-4.08297e-08
0.00199185
-2.14282e-08
0.00199175
-5.6027e-07
0.00199162
-2.9065e-07
0.00199145
-5.94727e-07
0.00199147
-6.62491e-07
0.00199137
-6.09712e-07
0.00199141
-8.55804e-07
0.00199139
-5.72751e-07
0.00199135
-9.0832e-07
0.00199142
-7.16906e-07
0.00199135
-7.34172e-07
0.00199146
-7.76939e-07
0.0019914
-5.50122e-07
0.00199139
-8.19288e-07
0.00199146
-4.29701e-07
0.00199133
-5.79068e-07
0.00199146
-9.31794e-07
0.0019916
-1.74189e-07
0.0019913
-2.71684e-06
0.00199277
1.83164e-07
-1.56856e-05
0.00199114
0.00227616
1.29947e-05
0.00228085
2.32309e-05
0.00228645
2.68771e-05
0.00229284
3.06725e-05
0.00229961
3.31211e-05
0.00230649
3.37061e-05
0.00231328
3.32359e-05
0.00231981
3.20631e-05
0.00232605
3.05946e-05
0.00233194
2.89205e-05
0.00233748
2.71817e-05
0.00234266
2.54737e-05
0.00234752
2.38561e-05
0.0023521
2.24601e-05
0.00235644
2.13003e-05
0.0023606
2.05042e-05
0.00236462
1.98452e-05
0.00236852
1.9372e-05
0.00237237
1.90612e-05
0.00237614
1.8822e-05
0.00237984
1.86994e-05
0.00238339
1.85811e-05
0.0023869
1.84863e-05
0.00239027
1.83471e-05
0.00239356
1.81871e-05
0.00239662
1.80771e-05
0.00239955
1.7941e-05
0.00240216
1.7802e-05
0.00240452
1.76503e-05
0.00240647
1.75267e-05
0.00240797
1.74285e-05
0.00240908
1.72753e-05
0.00240941
1.72163e-05
0.00240931
1.70545e-05
0.00240856
1.67838e-05
0.00240722
1.67537e-05
0.00240523
1.62786e-05
0.00240271
1.61728e-05
0.0023996
1.57391e-05
0.00239608
1.52089e-05
0.00239208
1.49203e-05
0.00238784
1.41535e-05
0.00238314
1.41195e-05
0.00237846
1.31122e-05
0.00237358
1.27804e-05
0.00236871
1.20707e-05
0.00236401
1.14516e-05
0.0023593
1.09299e-05
0.00235501
9.98394e-06
0.00235057
9.81955e-06
0.00234672
8.60689e-06
0.00234278
8.57525e-06
0.00233924
7.60656e-06
0.00233598
7.15734e-06
0.00233267
6.70323e-06
0.00232974
5.98507e-06
0.00232671
5.78621e-06
0.00232423
4.9121e-06
0.00232165
4.9585e-06
0.00231935
4.1785e-06
0.0023171
4.1297e-06
0.00231488
3.69403e-06
0.00231293
3.28534e-06
0.00231082
3.1046e-06
0.00230915
2.49957e-06
0.00230715
2.78452e-06
0.00230556
1.93324e-06
0.00230393
2.35323e-06
0.00230242
1.99718e-06
0.00230126
1.79224e-06
0.00229993
1.90972e-06
0.00229909
1.56947e-06
0.00229792
1.98364e-06
0.00229717
1.13944e-06
0.00229644
1.58045e-06
0.00229573
1.04946e-06
0.0022953
7.55151e-07
0.00229474
7.50592e-07
0.00229455
1.5422e-07
0.00229418
3.44531e-07
0.00229393
-3.12953e-07
0.00229383
-1.89145e-07
0.00229362
-3.79635e-07
0.00229368
-7.30524e-07
0.00229359
-5.16792e-07
0.0022936
-8.60565e-07
0.00229369
-6.63909e-07
0.00229365
-8.71732e-07
0.00229378
-8.43082e-07
0.0022937
-6.56034e-07
0.00229379
-8.73746e-07
0.00229389
-6.44379e-07
0.00229386
-7.89297e-07
0.00229408
-6.46055e-07
0.002294
-5.0252e-07
0.00229413
-1.06037e-06
0.00229453
-5.7934e-07
0.00229421
-2.39664e-06
0.00229565
-1.2562e-06
-1.46637e-05
0.00229463
0.00251975
9.70609e-06
0.002525
1.79858e-05
0.00253114
2.07367e-05
0.00253813
2.36743e-05
0.0025456
2.56514e-05
0.0025532
2.61088e-05
0.0025607
2.57411e-05
0.00256792
2.48349e-05
0.00257483
2.36889e-05
0.00258136
2.2392e-05
0.0025875
2.10361e-05
0.00259328
1.97015e-05
0.0025987
1.84318e-05
0.00260382
1.73461e-05
0.00260867
1.64409e-05
0.00261336
1.58142e-05
0.00261792
1.52913e-05
0.00262237
1.49204e-05
0.00262675
1.4677e-05
0.00263109
1.44879e-05
0.0026354
1.43923e-05
0.00263966
1.43139e-05
0.0026439
1.4245e-05
0.00264808
1.41664e-05
0.00265221
1.40583e-05
0.00265631
1.39797e-05
0.0026604
1.38502e-05
0.00266443
1.37762e-05
0.00266842
1.36608e-05
0.00267233
1.36172e-05
0.00267619
1.35616e-05
0.00267997
1.34978e-05
0.00268366
1.35228e-05
0.00268728
1.34412e-05
0.00269064
1.34238e-05
0.00269406
1.33271e-05
0.00269706
1.32805e-05
0.00270003
1.32011e-05
0.00270265
1.31215e-05
0.00270491
1.29547e-05
0.00270695
1.28733e-05
0.00270835
1.27612e-05
0.00270974
1.27266e-05
0.0027103
1.25547e-05
0.00271051
1.25627e-05
0.00271015
1.24388e-05
0.00270952
1.20766e-05
0.00270852
1.19313e-05
0.00270693
1.15739e-05
0.00270527
1.14821e-05
0.00270329
1.05855e-05
0.00270111
1.07524e-05
0.00269853
1.01851e-05
0.00269585
9.84259e-06
0.0026926
9.94578e-06
0.00268918
9.41119e-06
0.00268554
9.41999e-06
0.00268244
8.01855e-06
0.00267945
7.94893e-06
0.00267646
7.16471e-06
0.00267354
7.04724e-06
0.00267034
6.90156e-06
0.00266753
6.09001e-06
0.00266435
6.28595e-06
0.00266172
5.12601e-06
0.00265894
5.5706e-06
0.00265638
4.49566e-06
0.00265407
4.65542e-06
0.00265165
4.42313e-06
0.00264984
3.59598e-06
0.00264762
4.1284e-06
0.0026461
3.09824e-06
0.00264461
3.47382e-06
0.00264329
2.45081e-06
0.0026424
2.47597e-06
0.0026414
2.0526e-06
0.00264094
1.20925e-06
0.00264023
1.46369e-06
0.00263976
6.26114e-07
0.00263949
6.15282e-07
0.00263913
4.73668e-08
0.00263914
-2.02234e-07
0.00263888
-1.20473e-07
0.00263886
-7.0707e-07
0.00263889
-5.53056e-07
0.00263885
-8.17523e-07
0.002639
-8.19586e-07
0.00263894
-8.04124e-07
0.00263913
-1.04005e-06
0.00263919
-7.14709e-07
0.00263926
-9.36687e-07
0.00263948
-8.66112e-07
0.00263942
-7.33194e-07
0.00263973
-9.50195e-07
0.00263985
-6.24187e-07
0.0026399
-1.11068e-06
0.00264048
-1.16405e-06
0.00264025
-2.16713e-06
0.00264145
-2.45529e-06
-1.40595e-05
0.00264085
0.00278949
6.37888e-06
0.00279533
1.21423e-05
0.00280208
1.39857e-05
0.00280975
1.60026e-05
0.002818
1.74037e-05
0.00282639
1.77171e-05
0.00283467
1.74594e-05
0.00284267
1.68385e-05
0.0028503
1.60561e-05
0.00285752
1.51724e-05
0.00286433
1.42288e-05
0.00287074
1.32949e-05
0.00287675
1.24212e-05
0.0028824
1.16963e-05
0.00288777
1.10693e-05
0.00289297
1.0614e-05
0.00289802
1.02366e-05
0.00290298
9.96492e-06
0.00290786
9.79576e-06
0.00291267
9.67572e-06
0.00291745
9.61776e-06
0.0029222
9.56321e-06
0.00292693
9.51761e-06
0.00293162
9.4683e-06
0.00293629
9.38927e-06
0.00294095
9.32695e-06
0.00294555
9.2474e-06
0.00295011
9.21373e-06
0.00295463
9.14167e-06
0.00295915
9.09266e-06
0.00296366
9.05388e-06
0.00296815
9.01252e-06
0.00297263
9.04021e-06
0.00297708
8.98658e-06
0.00298151
8.99905e-06
0.00298593
8.9033e-06
0.00299031
8.90611e-06
0.00299466
8.84927e-06
0.00299896
8.81816e-06
0.00300317
8.74343e-06
0.00300738
8.66272e-06
0.00301142
8.72213e-06
0.00301558
8.57235e-06
0.00301947
8.65976e-06
0.00302343
8.61026e-06
0.00302717
8.69065e-06
0.00303078
8.46781e-06
0.00303422
8.49277e-06
0.00303741
8.38705e-06
0.0030407
8.1944e-06
0.00304301
8.27413e-06
0.00304582
7.94167e-06
0.00304785
8.15591e-06
0.00304974
7.94971e-06
0.00305164
8.04896e-06
0.00305302
8.0318e-06
0.00305444
7.99642e-06
0.00305469
7.76969e-06
0.00305511
7.53116e-06
0.00305476
7.5084e-06
0.00305456
7.24519e-06
0.003054
7.47033e-06
0.00305328
6.80333e-06
0.00305259
6.97318e-06
0.0030514
6.32242e-06
0.00305055
6.42046e-06
0.00304846
6.5842e-06
0.00304695
6.16775e-06
0.00304478
6.59285e-06
0.00304258
5.792e-06
0.00304073
5.98038e-06
0.0030388
5.03091e-06
0.00303755
4.72016e-06
0.00303586
4.14478e-06
0.0030351
3.2304e-06
0.00303397
3.1887e-06
0.00303316
2.01581e-06
0.00303274
1.88697e-06
0.00303214
1.22039e-06
0.0030321
6.53474e-07
0.0030317
4.51501e-07
0.00303179
-2.9091e-07
0.00303177
-9.8606e-08
0.00303166
-5.96982e-07
0.0030318
-6.97319e-07
0.00303173
-7.49159e-07
0.00303191
-1.00104e-06
0.00303188
-7.71906e-07
0.00303198
-1.13811e-06
0.00303212
-8.50905e-07
0.00303211
-9.28592e-07
0.00303228
-1.04182e-06
0.00303225
-6.98141e-07
0.00303237
-1.06674e-06
0.00303257
-8.29525e-07
0.00303252
-1.05527e-06
0.00303292
-1.56696e-06
0.00303297
-2.21525e-06
0.00303371
-3.19602e-06
-1.34256e-05
0.00303307
0.0030882
2.94082e-06
0.00309469
5.65378e-06
0.00310213
6.54121e-06
0.00311056
7.57566e-06
0.00311967
8.29257e-06
0.00312895
8.43752e-06
0.0031381
8.30851e-06
0.00314694
7.99859e-06
0.00315539
7.60684e-06
0.0031634
7.16357e-06
0.00317093
6.69296e-06
0.003178
6.23218e-06
0.00318464
5.7836e-06
0.00319093
5.40227e-06
0.00319693
5.06784e-06
0.00320269
4.85654e-06
0.00320825
4.67763e-06
0.0032137
4.50747e-06
0.00321911
4.39048e-06
0.00322446
4.32421e-06
0.00322976
4.31546e-06
0.00323502
4.31147e-06
0.00324024
4.29331e-06
0.00324546
4.25221e-06
0.00325064
4.20187e-06
0.00325579
4.18007e-06
0.00326087
4.16369e-06
0.00326593
4.15482e-06
0.00327098
4.09828e-06
0.00327601
4.05611e-06
0.00328102
4.04528e-06
0.00328601
4.02797e-06
0.003291
4.05078e-06
0.00329596
4.01747e-06
0.00330094
4.02201e-06
0.00330589
3.95446e-06
0.00331083
3.9707e-06
0.00331571
3.96164e-06
0.0033206
3.93567e-06
0.00332544
3.8949e-06
0.00333027
3.83538e-06
0.00333509
3.90556e-06
0.00333985
3.80597e-06
0.00334464
3.87454e-06
0.00334938
3.86765e-06
0.00335414
3.93605e-06
0.00335881
3.79931e-06
0.00336348
3.8157e-06
0.00336809
3.77565e-06
0.00337269
3.59769e-06
0.00337718
3.78574e-06
0.00338163
3.49141e-06
0.00338603
3.74986e-06
0.00339034
3.6409e-06
0.00339472
3.67591e-06
0.00339903
3.7149e-06
0.00340341
3.62058e-06
0.00340733
3.84489e-06
0.00341141
3.46064e-06
0.00341511
3.79974e-06
0.0034189
3.46053e-06
0.00342262
3.7484e-06
0.003426
3.41996e-06
0.0034295
3.47726e-06
0.00343211
3.71539e-06
0.00343536
3.16389e-06
0.00343803
3.92114e-06
0.00344094
3.25934e-06
0.00344355
3.97735e-06
0.00344564
3.70213e-06
0.00344784
3.77857e-06
0.00344917
3.70225e-06
0.00345081
3.08044e-06
0.00345157
3.3838e-06
0.00345266
2.14397e-06
0.00345354
2.30374e-06
0.00345399
1.56863e-06
0.00345463
1.24709e-06
0.00345486
9.95246e-07
0.00345529
2.1983e-07
0.00345542
3.2401e-07
0.00345559
-4.59943e-07
0.00345586
-3.7416e-07
0.00345587
-6.02643e-07
0.003456
-8.31402e-07
0.00345599
-7.42487e-07
0.00345601
-1.02127e-06
0.00345606
-8.13449e-07
0.00345597
-1.05523e-06
0.00345604
-9.18873e-07
0.00345597
-8.55712e-07
0.00345596
-1.03354e-06
0.00345596
-6.98176e-07
0.00345583
-9.41078e-07
0.00345592
-9.11695e-07
0.00345581
-9.53886e-07
0.00345584
-1.59344e-06
0.0034559
-2.27862e-06
0.00345628
-3.57429e-06
-1.2412e-05
0.00345527
0.00341903
-7.28319e-07
0.00342623
-1.54228e-06
0.00343446
-1.68597e-06
0.00344375
-1.71254e-06
0.00345382
-1.78265e-06
0.00346409
-1.8295e-06
0.00347421
-1.81257e-06
0.00348399
-1.78644e-06
0.00349334
-1.74106e-06
0.0035022
-1.69838e-06
0.00351055
-1.65545e-06
0.00351838
-1.59771e-06
0.00352573
-1.56321e-06
0.00353268
-1.54623e-06
0.00353932
-1.57521e-06
0.00354572
-1.54653e-06
0.00355191
-1.50631e-06
0.00355794
-1.52453e-06
0.0035639
-1.57397e-06
0.00356982
-1.59461e-06
0.00357569
-1.55582e-06
0.00358152
-1.51526e-06
0.00358731
-1.50041e-06
0.00359308
-1.51109e-06
0.0035988
-1.51881e-06
0.00360449
-1.51051e-06
0.00361014
-1.49025e-06
0.00361577
-1.46808e-06
0.00362135
-1.48916e-06
0.00362692
-1.51156e-06
0.00363247
-1.5006e-06
0.00363799
-1.49445e-06
0.00364351
-1.47455e-06
0.00364902
-1.48428e-06
0.00365452
-1.47682e-06
0.00365999
-1.51921e-06
0.00366547
-1.50689e-06
0.00367091
-1.48329e-06
0.00367633
-1.48196e-06
0.0036817
-1.47996e-06
0.00368705
-1.50973e-06
0.0036924
-1.44424e-06
0.0036977
-1.49602e-06
0.00370303
-1.45387e-06
0.00370831
-1.41693e-06
0.00371359
-1.34427e-06
0.00371881
-1.41734e-06
0.00372406
-1.43538e-06
0.00372926
-1.42116e-06
0.00373439
-1.5333e-06
0.00373956
-1.38854e-06
0.00374461
-1.5551e-06
0.00374974
-1.38169e-06
0.00375478
-1.39258e-06
0.00375985
-1.39393e-06
0.00376489
-1.33133e-06
0.00376992
-1.41134e-06
0.003775
-1.22866e-06
0.00377992
-1.45947e-06
0.00378494
-1.22277e-06
0.00378979
-1.38648e-06
0.00379473
-1.1901e-06
0.00379948
-1.33016e-06
0.00380426
-1.30603e-06
0.00380904
-1.06327e-06
0.00381371
-1.50408e-06
0.00381864
-1.01245e-06
0.00382341
-1.5156e-06
0.00382855
-1.15614e-06
0.00383356
-1.31509e-06
0.00383863
-1.28841e-06
0.00384342
-1.08698e-06
0.00384797
-1.46671e-06
0.00385221
-8.53518e-07
0.00385565
-1.29978e-06
0.00385889
-9.37716e-07
0.00386127
-8.14131e-07
0.00386335
-8.2472e-07
0.0038649
-5.57338e-07
0.00386593
-8.07339e-07
0.00386683
-5.78294e-07
0.0038672
-8.2784e-07
0.00386757
-7.50813e-07
0.00386767
-6.98141e-07
0.0038677
-8.65064e-07
0.00386766
-6.97602e-07
0.0038675
-8.68018e-07
0.00386742
-7.31493e-07
0.00386719
-8.19327e-07
0.00386708
-8.14795e-07
0.00386689
-6.69409e-07
0.00386676
-9.00841e-07
0.00386671
-6.4304e-07
0.00386658
-8.14674e-07
0.00386656
-8.89412e-07
0.00386652
-9.12902e-07
0.00386647
-1.54244e-06
0.00386641
-2.22514e-06
0.00386667
-3.83508e-06
-1.11697e-05
0.00386543
0.00341907
-4.42862e-06
0.00342627
-8.75074e-06
0.0034345
-9.9145e-06
0.0034438
-1.10057e-05
0.00345387
-1.18611e-05
0.00346414
-1.20976e-05
0.00347426
-1.19322e-05
0.00348405
-1.15763e-05
0.0034934
-1.10924e-05
0.00350226
-1.05557e-05
0.0035106
-9.99451e-06
0.00351843
-9.43076e-06
0.0035258
-8.92783e-06
0.00353275
-8.49765e-06
0.00353937
-8.19919e-06
0.00354575
-7.92532e-06
0.00355195
-7.70408e-06
0.00355802
-7.59289e-06
0.00356399
-7.55102e-06
0.0035699
-7.50352e-06
0.00357577
-7.41939e-06
0.0035816
-7.34724e-06
0.0035874
-7.29896e-06
0.00359315
-7.2675e-06
0.00359886
-7.22453e-06
0.00360454
-7.19163e-06
0.0036102
-7.1537e-06
0.00361584
-7.10606e-06
0.00362143
-7.07776e-06
0.00362697
-7.05575e-06
0.0036325
-7.02847e-06
0.00363803
-7.01906e-06
0.00364356
-7.00399e-06
0.00364906
-6.99052e-06
0.00365456
-6.97648e-06
0.00366004
-6.99736e-06
0.00366552
-6.98148e-06
0.00367096
-6.92846e-06
0.00367638
-6.89965e-06
0.00368176
-6.86104e-06
0.00368711
-6.86293e-06
0.00369246
-6.79016e-06
0.00369776
-6.79694e-06
0.00370307
-6.76683e-06
0.00370836
-6.70863e-06
0.00371366
-6.63817e-06
0.0037189
-6.65975e-06
0.00372414
-6.67263e-06
0.00372933
-6.61201e-06
0.00373446
-6.66542e-06
0.00373962
-6.54457e-06
0.00374468
-6.61716e-06
0.00374979
-6.49121e-06
0.00375484
-6.44181e-06
0.00375989
-6.44783e-06
0.00376492
-6.36482e-06
0.00376994
-6.43121e-06
0.003775
-6.28363e-06
0.00377993
-6.39345e-06
0.00378492
-6.20955e-06
0.00378977
-6.24085e-06
0.00379466
-6.0787e-06
0.00379941
-6.07313e-06
0.00380415
-6.04578e-06
0.00380891
-5.82866e-06
0.00381356
-6.15123e-06
0.00381841
-5.86451e-06
0.00382316
-6.26093e-06
0.00382816
-6.15556e-06
0.00383305
-6.21312e-06
0.00383804
-6.27736e-06
0.00384277
-5.81335e-06
0.00384712
-5.81942e-06
0.00385125
-4.98436e-06
0.00385467
-4.71916e-06
0.00385773
-3.99947e-06
0.00386016
-3.2392e-06
0.00386214
-2.80352e-06
0.00386363
-2.04964e-06
0.0038647
-1.87945e-06
0.00386549
-1.36891e-06
0.00386597
-1.30295e-06
0.00386627
-1.04971e-06
0.00386641
-8.37811e-07
0.00386643
-8.9226e-07
0.00386639
-6.51343e-07
0.00386629
-7.69452e-07
0.00386611
-5.51962e-07
0.00386599
-7.03679e-07
0.00386579
-6.15956e-07
0.00386567
-5.48688e-07
0.00386554
-7.71272e-07
0.00386545
-5.50765e-07
0.00386541
-7.72432e-07
0.00386527
-7.46156e-07
0.00386533
-9.79734e-07
0.00386521
-1.41695e-06
0.0038651
-2.11718e-06
0.00386517
-3.90281e-06
-9.9052e-06
0.0038639
0.00308828
-7.95111e-06
0.0030948
-1.527e-05
0.00310225
-1.73632e-05
0.00311069
-1.9446e-05
0.00311981
-2.09801e-05
0.00312909
-2.13798e-05
0.00313824
-2.10822e-05
0.00314709
-2.04269e-05
0.00315554
-1.95413e-05
0.00316354
-1.85549e-05
0.00317107
-1.75245e-05
0.00317815
-1.65082e-05
0.00318481
-1.5584e-05
0.00319108
-1.47699e-05
0.00319705
-1.41718e-05
0.00320281
-1.368e-05
0.00320841
-1.33129e-05
0.00321391
-1.30873e-05
0.0032193
-1.29399e-05
0.00322462
-1.28209e-05
0.00322991
-1.27108e-05
0.00323518
-1.26171e-05
0.00324041
-1.25354e-05
0.00324562
-1.24729e-05
0.00325078
-1.23874e-05
0.00325592
-1.23263e-05
0.00326102
-1.22589e-05
0.0032661
-1.21828e-05
0.00327115
-1.21271e-05
0.00327617
-1.2082e-05
0.00328118
-1.20342e-05
0.00328616
-1.20045e-05
0.00329115
-1.19939e-05
0.00329612
-1.19586e-05
0.00330109
-1.19399e-05
0.00330603
-1.1944e-05
0.00331097
-1.19166e-05
0.00331588
-1.18386e-05
0.00332076
-1.17811e-05
0.00332561
-1.17067e-05
0.00333042
-1.16814e-05
0.00333523
-1.1597e-05
0.00333999
-1.1557e-05
0.00334475
-1.15267e-05
0.00334949
-1.14455e-05
0.0033542
-1.13548e-05
0.00335889
-1.13424e-05
0.00336352
-1.13068e-05
0.00336811
-1.12051e-05
0.00337264
-1.11879e-05
0.00337713
-1.10341e-05
0.00338154
-1.10291e-05
0.0033859
-1.08564e-05
0.00339024
-1.07746e-05
0.00339447
-1.06865e-05
0.00339862
-1.05139e-05
0.00340268
-1.04898e-05
0.00340666
-1.02568e-05
0.00341052
-1.02605e-05
0.00341419
-9.87963e-06
0.00341772
-9.76444e-06
0.0034211
-9.46443e-06
0.00342425
-9.22358e-06
0.00342722
-9.01125e-06
0.00343003
-8.64531e-06
0.00343257
-8.69166e-06
0.003435
-8.28966e-06
0.00343716
-8.42189e-06
0.00343908
-8.07412e-06
0.00344084
-7.97811e-06
0.00344222
-7.656e-06
0.00344351
-7.09853e-06
0.00344445
-6.75955e-06
0.00344534
-5.87816e-06
0.00344603
-5.40712e-06
0.00344653
-4.49543e-06
0.00344707
-3.78475e-06
0.00344731
-3.04352e-06
0.00344773
-2.46398e-06
0.00344791
-2.0661e-06
0.00344811
-1.5641e-06
0.00344825
-1.44782e-06
0.00344831
-1.10348e-06
0.00344844
-9.73778e-07
0.00344837
-8.21943e-07
0.00344848
-7.56469e-07
0.00344843
-7.22643e-07
0.00344842
-5.42932e-07
0.00344842
-7.04182e-07
0.00344833
-5.21958e-07
0.0034484
-6.21858e-07
0.00344823
-5.97427e-07
0.00344828
-6.00543e-07
0.00344826
-7.52053e-07
0.0034482
-6.87287e-07
0.00344825
-1.02791e-06
0.00344806
-1.23438e-06
0.00344806
-2.11223e-06
0.00344784
-3.68026e-06
-8.7437e-06
0.00344667
0.00278962
-1.14067e-05
0.0027955
-2.11532e-05
0.00280226
-2.41219e-05
0.00280995
-2.7137e-05
0.00281821
-2.92387e-05
0.0028266
-2.97762e-05
0.00283488
-2.93631e-05
0.00284289
-2.84289e-05
0.00285052
-2.71757e-05
0.00285775
-2.57865e-05
0.00286456
-2.43292e-05
0.00287094
-2.28949e-05
0.00287695
-2.15869e-05
0.00288261
-2.04324e-05
0.00288802
-1.95786e-05
0.00289321
-1.88789e-05
0.00289826
-1.83602e-05
0.00290321
-1.80308e-05
0.00290808
-1.78131e-05
0.00291291
-1.76509e-05
0.0029177
-1.75062e-05
0.00292246
-1.73741e-05
0.00292717
-1.72459e-05
0.00293186
-1.71589e-05
0.00293651
-1.70413e-05
0.00294113
-1.6948e-05
0.00294573
-1.686e-05
0.00295031
-1.67586e-05
0.00295484
-1.66584e-05
0.00295935
-1.6589e-05
0.00296385
-1.65336e-05
0.00296832
-1.64812e-05
0.0029728
-1.64701e-05
0.00297724
-1.63995e-05
0.00298167
-1.63653e-05
0.00298606
-1.63354e-05
0.00299042
-1.62774e-05
0.00299473
-1.61494e-05
0.00299898
-1.60362e-05
0.00300318
-1.59003e-05
0.00300727
-1.57768e-05
0.00301134
-1.56605e-05
0.00301527
-1.54864e-05
0.00301912
-1.53751e-05
0.00302284
-1.51671e-05
0.0030264
-1.49228e-05
0.00302985