/*--------------------------------*- C++ -*----------------------------------*\
| =========                 |                                                 |
| \\      /  F ield         | OpenFOAM: The Open Source CFD Toolbox           |
|  \\    /   O peration     | Version:  v2012                                 |
|   \\  /    A nd           | Website:  www.openfoam.com                      |
|    \\/     M anipulation  |                                                 |
\*---------------------------------------------------------------------------*/
FoamFile
{
    version     2.0;
    format      ascii;
    class       volScalarField;
    location    "0.24";
    object      k.air;
}
// * * * * * * * * * * * * * * * * * * * * * * * * * * * * * * * * * * * * * //

dimensions      [0 2 -2 0 0 0 0];


internalField   nonuniform List<scalar> 
5600
(
0.606399
0.840683
0.955297
0.978042
0.949216
0.8976
0.839426
0.787474
0.743006
0.707618
0.67901
0.658713
0.643139
0.632792
0.625286
0.619995
0.616312
0.613274
0.610925
0.60887
0.606972
0.605602
0.604045
0.60327
0.60232
0.60184
0.601427
0.601011
0.600947
0.600496
0.600498
0.599959
0.599896
0.599257
0.599119
0.598463
0.598256
0.597646
0.59739
0.596843
0.596596
0.596093
0.595915
0.595437
0.595349
0.594925
0.594907
0.594551
0.594539
0.5943
0.59426
0.594102
0.594099
0.59394
0.594049
0.593845
0.594089
0.593876
0.59419
0.594039
0.594372
0.5943
0.594655
0.594629
0.595055
0.59501
0.595544
0.59547
0.596092
0.596026
0.59671
0.596657
0.597399
0.597329
0.598164
0.598064
0.599027
0.5989
0.599965
0.599816
0.600945
0.600771
0.601916
0.60177
0.602835
0.60289
0.603638
0.60427
0.604184
0.606172
0.604108
0.609199
0.602313
0.615109
0.595436
0.629923
0.571607
0.675985
0.479122
0.8416
0.37175
0.315589
0.288376
0.276049
0.274275
0.285363
0.306619
0.345427
0.386645
0.430425
0.471411
0.508917
0.542006
0.569233
0.592194
0.609599
0.623604
0.633967
0.641522
0.648055
0.65218
0.656757
0.659696
0.663251
0.665813
0.668091
0.670424
0.671552
0.673548
0.673649
0.675183
0.674686
0.675867
0.675149
0.676085
0.675421
0.676107
0.675613
0.676124
0.675764
0.676301
0.675965
0.676669
0.676303
0.677157
0.676794
0.677565
0.677356
0.677906
0.67792
0.678315
0.678377
0.67892
0.678811
0.67968
0.679348
0.680505
0.680109
0.68136
0.681084
0.682222
0.682108
0.683263
0.683105
0.684462
0.684121
0.685698
0.68522
0.686909
0.686428
0.688209
0.68771
0.689622
0.68895
0.691064
0.690178
0.692563
0.691523
0.69418
0.693
0.695867
0.69447
0.697458
0.69592
0.698827
0.69752
0.699934
0.699548
0.700612
0.702481
0.700081
0.707401
0.696558
0.716653
0.686385
0.735803
0.659758
0.779627
0.587063
0.882373
0.369247
0.281969
0.227386
0.193559
0.167687
0.154767
0.144561
0.144526
0.146244
0.155487
0.166947
0.181761
0.199651
0.218242
0.239481
0.260524
0.282477
0.304719
0.326089
0.348594
0.369079
0.390717
0.408944
0.425764
0.439868
0.452005
0.463235
0.471606
0.480424
0.48617
0.493264
0.497301
0.503098
0.506136
0.510852
0.513323
0.517097
0.519267
0.522398
0.524265
0.527141
0.528639
0.531453
0.532581
0.535298
0.536277
0.538599
0.539669
0.541488
0.542733
0.544303
0.545373
0.547146
0.547808
0.549954
0.550226
0.552567
0.55276
0.555
0.555361
0.557337
0.55776
0.559767
0.559963
0.562244
0.562104
0.564604
0.564284
0.566832
0.566485
0.569092
0.568682
0.571468
0.57077
0.573785
0.572741
0.57604
0.574746
0.578366
0.576808
0.58076
0.578802
0.583046
0.580696
0.585076
0.582596
0.586913
0.584667
0.588569
0.587184
0.589681
0.590683
0.589432
0.596088
0.586437
0.605232
0.577781
0.62204
0.558548
0.636181
0.370125
0.280882
0.223555
0.186889
0.157386
0.139438
0.121677
0.112382
0.1022
0.0972721
0.0936605
0.0919075
0.0934994
0.0948576
0.0998095
0.105279
0.112592
0.122351
0.132241
0.14589
0.15881
0.175603
0.192167
0.210588
0.229135
0.247225
0.265846
0.2816
0.298282
0.311258
0.325767
0.336163
0.348388
0.356977
0.367151
0.374494
0.382944
0.389418
0.396661
0.402174
0.408666
0.413067
0.418961
0.422403
0.427557
0.43042
0.434648
0.437458
0.440851
0.443653
0.446751
0.449062
0.452385
0.454023
0.457705
0.458777
0.462433
0.463422
0.466704
0.467886
0.470772
0.471849
0.474811
0.475458
0.478735
0.478965
0.482388
0.482451
0.485812
0.485822
0.48922
0.489086
0.492716
0.492193
0.496041
0.49508
0.499165
0.497915
0.50233
0.500743
0.505553
0.503474
0.508653
0.506066
0.511452
0.508559
0.514073
0.51106
0.516594
0.513803
0.518771
0.517153
0.52019
0.521454
0.520358
0.526976
0.518865
0.533262
0.51848
0.5297
0.370192
0.281255
0.223583
0.187139
0.157091
0.138932
0.120391
0.109469
0.0980672
0.0897643
0.0834828
0.0766852
0.0734843
0.0688043
0.066693
0.064936
0.0631369
0.0643479
0.0633736
0.0667557
0.0678344
0.0726967
0.0771933
0.0834375
0.0917313
0.0996831
0.111336
0.120801
0.134619
0.145262
0.160274
0.171953
0.187158
0.198816
0.212813
0.22405
0.236531
0.246989
0.258223
0.267451
0.277837
0.285645
0.29541
0.302082
0.310787
0.316808
0.324117
0.329866
0.335987
0.341395
0.347101
0.351577
0.357411
0.360779
0.366756
0.369273
0.374796
0.377186
0.381973
0.384485
0.388749
0.390899
0.395251
0.396737
0.401381
0.402382
0.407013
0.407878
0.412284
0.413047
0.417417
0.417903
0.422482
0.422501
0.427208
0.426766
0.431533
0.430729
0.43572
0.434574
0.439931
0.438318
0.443974
0.441909
0.447649
0.445327
0.451096
0.448644
0.454415
0.452127
0.457405
0.456055
0.459907
0.460336
0.461998
0.464549
0.464017
0.46771
0.467891
0.465907
0.37007
0.281538
0.223516
0.187451
0.157324
0.139005
0.121022
0.109169
0.098683
0.0891205
0.0832377
0.0754698
0.0713722
0.0661757
0.0619732
0.0595284
0.0548839
0.0543582
0.0501144
0.0501407
0.047443
0.0469639
0.046587
0.0453779
0.0474774
0.0459578
0.0502858
0.0492627
0.055416
0.0557428
0.0632364
0.0657348
0.0741275
0.0790466
0.0879854
0.0949086
0.104358
0.112413
0.122675
0.130944
0.142115
0.150352
0.161736
0.169758
0.18054
0.188735
0.198337
0.206563
0.215074
0.222819
0.231033
0.237515
0.245934
0.251073
0.25968
0.264149
0.271978
0.276423
0.283237
0.287694
0.293942
0.297734
0.304083
0.307001
0.313534
0.315947
0.32223
0.324526
0.330376
0.332466
0.338124
0.339735
0.345475
0.346565
0.35227
0.352899
0.358462
0.358766
0.364342
0.364353
0.370111
0.3698
0.375584
0.375055
0.380579
0.379999
0.385241
0.384712
0.389675
0.389483
0.393762
0.394432
0.397593
0.399186
0.401449
0.403302
0.405392
0.406598
0.409526
0.408866
0.36995
0.281687
0.2235
0.187439
0.157636
0.13872
0.121645
0.108795
0.0992841
0.0890273
0.0834216
0.0758226
0.0710388
0.0666437
0.061351
0.0595033
0.0541271
0.0533319
0.0489556
0.047806
0.0452609
0.0429893
0.0425144
0.0389895
0.0404347
0.0359002
0.0387904
0.0338929
0.0375361
0.0330824
0.0367169
0.0337285
0.0366564
0.0355782
0.0381577
0.038498
0.0416073
0.0425842
0.047242
0.0483779
0.0546028
0.0564617
0.0635998
0.0668392
0.0738512
0.079017
0.085826
0.0922624
0.0992794
0.105852
0.114042
0.119845
0.129109
0.134173
0.143744
0.148887
0.157679
0.163341
0.171276
0.177122
0.184836
0.189886
0.197855
0.202023
0.210042
0.213856
0.221388
0.225197
0.232273
0.235892
0.242825
0.245986
0.25298
0.25572
0.26251
0.264885
0.271276
0.273384
0.279568
0.281455
0.287611
0.289362
0.295269
0.297012
0.302367
0.304149
0.309002
0.310828
0.31525
0.317334
0.321085
0.323666
0.326715
0.32947
0.332241
0.334639
0.337274
0.339427
0.341472
0.343831
0.369916
0.281637
0.223667
0.187166
0.158051
0.138306
0.122099
0.108536
0.0994632
0.0891737
0.0832148
0.0763039
0.0706922
0.0670812
0.0612508
0.0595578
0.0544114
0.0529978
0.0493961
0.0473084
0.0455041
0.0424798
0.0423442
0.0383539
0.0397494
0.0348925
0.0373872
0.0322326
0.0350531
0.03038
0.0325962
0.0293672
0.0302617
0.0285145
0.0288116
0.0274337
0.0283132
0.0262781
0.0285754
0.0257241
0.0289353
0.0263477
0.0293731
0.028381
0.0301445
0.0311583
0.0324239
0.0343486
0.0364838
0.0377091
0.0422545
0.0426479
0.0487148
0.0492301
0.0556159
0.0578529
0.0634257
0.0670444
0.0724837
0.0767216
0.0831803
0.0868896
0.0942172
0.0977536
0.105348
0.109363
0.116607
0.121058
0.127974
0.13223
0.139128
0.143117
0.150202
0.154158
0.16107
0.164955
0.171375
0.175098
0.181251
0.184883
0.190966
0.194663
0.200433
0.20423
0.209384
0.213145
0.217782
0.221433
0.225685
0.229432
0.233185
0.23716
0.240508
0.244441
0.247567
0.251286
0.253851
0.257678
0.259246
0.263326
0.369992
0.2814
0.223975
0.186774
0.158446
0.138006
0.12227
0.108588
0.0992605
0.089547
0.0828419
0.0766657
0.0705255
0.0671118
0.061481
0.0592411
0.054892
0.0525989
0.0498097
0.0471133
0.045634
0.0425861
0.0421681
0.0386965
0.0393325
0.0353565
0.0368012
0.0326967
0.0343287
0.0307352
0.0317453
0.0294293
0.0293024
0.0280804
0.027637
0.0263715
0.026595
0.0245677
0.025835
0.0231161
0.0248314
0.0223599
0.023458
0.0223297
0.0219856
0.0222857
0.0213426
0.0217077
0.0218461
0.0205418
0.0228651
0.0203242
0.0234225
0.0212536
0.02342
0.0233879
0.0242715
0.0251946
0.0262858
0.0269351
0.0296969
0.0295929
0.0331327
0.0333754
0.0369251
0.0384141
0.0417214
0.0439578
0.047618
0.050002
0.0541415
0.0566184
0.0611767
0.0642556
0.0690221
0.0725691
0.0771515
0.0807702
0.0853852
0.0892069
0.0941025
0.0983783
0.103383
0.10799
0.112677
0.117201
0.121549
0.125889
0.130035
0.134482
0.138397
0.143006
0.146795
0.151452
0.15516
0.159686
0.162947
0.167228
0.169947
0.173781
0.370129
0.281105
0.224279
0.186448
0.158678
0.137923
0.122183
0.108859
0.0989118
0.0899215
0.0825893
0.0767682
0.0706382
0.0668516
0.061862
0.0588565
0.0552541
0.0523569
0.0499623
0.0471214
0.0455407
0.0428456
0.0418247
0.0392232
0.0387305
0.0360976
0.0360666
0.0334661
0.0336541
0.0313323
0.0313235
0.0296839
0.0291649
0.0281219
0.0274933
0.0264977
0.0261391
0.0249634
0.0249937
0.0235516
0.0239091
0.0224461
0.0226432
0.0218094
0.0212282
0.02126
0.0202042
0.0203096
0.0198909
0.018932
0.0197611
0.0180258
0.0191712
0.0178325
0.018013
0.0180707
0.0173365
0.0177536
0.0173299
0.0170788
0.0177698
0.0168739
0.0178284
0.0172485
0.0177567
0.0180557
0.0182247
0.018732
0.0192766
0.0196897
0.0206245
0.0210764
0.0222134
0.023132
0.02442
0.0258531
0.0271983
0.0287745
0.030374
0.0322164
0.0342226
0.0365854
0.0391076
0.042092
0.0448854
0.0480775
0.0509879
0.0542365
0.0573894
0.0610373
0.0644646
0.0684383
0.0720785
0.0763188
0.0802399
0.0846786
0.0886893
0.0929579
0.09689
0.100849
0.370241
0.280905
0.224454
0.186295
0.158736
0.137981
0.122025
0.109101
0.0986828
0.090097
0.0825546
0.0766725
0.0708584
0.0665821
0.0621204
0.0586644
0.0553572
0.0523341
0.0499241
0.0471968
0.0454386
0.0429877
0.0416211
0.0395269
0.0383205
0.0366098
0.0354995
0.034045
0.0331275
0.0317517
0.0310668
0.0297697
0.0292112
0.0280322
0.0275496
0.0265481
0.0259585
0.0252999
0.024566
0.0240303
0.0235014
0.0227749
0.0225198
0.0218021
0.0214406
0.0210752
0.0204574
0.0203114
0.0198297
0.0194035
0.0194072
0.018683
0.0189026
0.0183691
0.0181986
0.0183329
0.0178093
0.0181355
0.0178582
0.0179136
0.0182015
0.0180565
0.0185547
0.018668
0.0190257
0.0196818
0.0200103
0.0208435
0.0215395
0.0224603
0.0234946
0.0246111
0.0259237
0.0273797
0.0289525
0.0308532
0.0326925
0.0349149
0.0370874
0.0396502
0.0421447
0.0450129
0.0479435
0.0512132
0.0544835
0.0580094
0.0614781
0.0651006
0.0687857
0.0726448
0.0765644
0.0805862
0.0845901
0.0888027
0.0929528
0.0973658
0.101651
0.106059
0.110375
0.11473
0.370301
0.280823
0.224521
0.186266
0.15872
0.138059
0.121919
0.109226
0.098596
0.0901289
0.0826069
0.076546
0.0710248
0.0664045
0.0622438
0.058587
0.0553417
0.0523782
0.0498181
0.0472785
0.0453324
0.0430442
0.0415353
0.039589
0.0381919
0.0367504
0.0352831
0.0342745
0.0328682
0.0319899
0.0308972
0.0298982
0.0292275
0.0280694
0.0276992
0.026621
0.026175
0.0255427
0.0248008
0.0245734
0.0238099
0.0236273
0.0231483
0.0228798
0.022691
0.0224553
0.0224521
0.0223783
0.0225538
0.0226663
0.0230655
0.0234266
0.024059
0.0247828
0.0255714
0.0267896
0.0278542
0.0294267
0.0309821
0.0328582
0.0349782
0.0372525
0.0398616
0.0426461
0.045684
0.049007
0.0524087
0.0561144
0.0599294
0.0639847
0.0681641
0.0725363
0.0770269
0.0816561
0.0864074
0.091292
0.0962391
0.101286
0.10629
0.111393
0.11633
0.121392
0.126312
0.13128
0.136125
0.140994
0.145754
0.150454
0.155087
0.159626
0.16412
0.16846
0.172739
0.17695
0.181054
0.185212
0.1892
0.193248
0.19715
0.201113
0.370331
0.280795
0.224553
0.186267
0.15871
0.1381
0.121869
0.109276
0.0985501
0.0901336
0.0826096
0.0764775
0.0710731
0.0662944
0.0622864
0.0584956
0.0553296
0.0523464
0.0497383
0.0473111
0.0452187
0.0431052
0.0414625
0.0396383
0.0382188
0.0368158
0.0354122
0.0344605
0.0330931
0.0324175
0.0312992
0.0306578
0.0299959
0.0292717
0.029096
0.0284469
0.0285381
0.0283244
0.0284752
0.0288986
0.0292
0.0301897
0.0309124
0.0323621
0.0337473
0.0356239
0.0378113
0.040192
0.0431762
0.0462277
0.0499212
0.0537645
0.0580085
0.0625587
0.0673225
0.07251
0.0777872
0.0834503
0.0891969
0.0951835
0.101293
0.107496
0.113795
0.120121
0.126482
0.132761
0.138948
0.145122
0.151232
0.157306
0.163276
0.16919
0.174984
0.180691
0.186323
0.191839
0.197299
0.202598
0.207793
0.212853
0.217743
0.222577
0.227269
0.231982
0.236585
0.241152
0.245563
0.249849
0.254013
0.258021
0.261946
0.265671
0.269338
0.272861
0.2763
0.279709
0.282956
0.286231
0.289352
0.29258
0.370346
0.280788
0.224576
0.186255
0.158713
0.138079
0.121844
0.109245
0.0984901
0.0900936
0.0825203
0.0764216
0.0709815
0.0662137
0.0622326
0.0584054
0.0553401
0.052319
0.0498228
0.0474636
0.0454258
0.0435447
0.0419567
0.040475
0.0392852
0.0382562
0.0373909
0.036925
0.0364146
0.0365809
0.0366223
0.0374185
0.0382892
0.0397189
0.04164
0.0438381
0.0468652
0.0500813
0.054151
0.0586319
0.0636571
0.069322
0.0752187
0.0818938
0.0886301
0.0960035
0.10347
0.111214
0.119192
0.127114
0.135353
0.143326
0.151382
0.159301
0.167104
0.174854
0.182342
0.189776
0.196931
0.203968
0.210789
0.217428
0.223894
0.230161
0.236274
0.242263
0.248123
0.253843
0.259389
0.26479
0.269997
0.27507
0.279961
0.284728
0.289377
0.293881
0.298304
0.302548
0.306705
0.310716
0.314607
0.318444
0.32216
0.325853
0.329437
0.332939
0.336286
0.339521
0.342656
0.34566
0.348619
0.351417
0.354216
0.356884
0.359537
0.362143
0.36464
0.36717
0.369583
0.37214
0.370346
0.280787
0.224568
0.1862
0.158671
0.137957
0.121757
0.109074
0.0983531
0.0899356
0.0823663
0.0763702
0.070944
0.0663916
0.0625409
0.0589946
0.0563054
0.0536735
0.0518289
0.0501139
0.0490197
0.048261
0.04807
0.0484174
0.0493669
0.0510149
0.0533835
0.0566088
0.0606143
0.0656645
0.0714891
0.0784655
0.0859888
0.0944796
0.103445
0.112985
0.122989
0.133183
0.143859
0.154536
0.165308
0.175929
0.186293
0.196588
0.206333
0.216
0.225091
0.233956
0.242438
0.250506
0.258364
0.265811
0.273112
0.280025
0.286654
0.293046
0.299071
0.304952
0.310501
0.31592
0.321104
0.326141
0.331015
0.335733
0.34032
0.344744
0.349025
0.35312
0.357041
0.360835
0.364467
0.367997
0.371393
0.3747
0.377912
0.381008
0.384039
0.386924
0.389767
0.392488
0.395162
0.397806
0.400382
0.402963
0.40546
0.407929
0.410314
0.412645
0.414926
0.417122
0.419307
0.421381
0.423497
0.425506
0.427548
0.429537
0.431472
0.433444
0.435339
0.437401
0.370326
0.280749
0.224446
0.186032
0.15847
0.13769
0.121566
0.108895
0.0984498
0.0902946
0.0832924
0.0780768
0.0736243
0.0704294
0.0681209
0.0666258
0.0664012
0.0667012
0.0684831
0.0709194
0.0749735
0.0801393
0.0869505
0.0951667
0.104946
0.116028
0.12821
0.14124
0.155037
0.169422
0.184243
0.198972
0.213173
0.227028
0.24016
0.252743
0.264681
0.275905
0.286623
0.296569
0.306095
0.314993
0.323305
0.331179
0.338348
0.345302
0.351662
0.357833
0.363664
0.369162
0.374526
0.379449
0.384219
0.388625
0.392842
0.39688
0.40066
0.404371
0.407835
0.411248
0.414484
0.417649
0.420701
0.423669
0.426575
0.429385
0.432148
0.434828
0.437424
0.439959
0.442402
0.444793
0.447113
0.449373
0.451561
0.453668
0.455736
0.457706
0.459668
0.461545
0.463426
0.465283
0.46711
0.468948
0.470727
0.472506
0.474238
0.475951
0.477644
0.479285
0.48094
0.482515
0.484155
0.485701
0.487314
0.488855
0.490398
0.49195
0.493477
0.49519
0.370211
0.280507
0.224269
0.186007
0.15875
0.138501
0.123422
0.112369
0.104343
0.0993876
0.0967214
0.0966843
0.0982752
0.102066
0.107612
0.114983
0.124399
0.13538
0.148661
0.163342
0.180362
0.198717
0.218289
0.238276
0.258284
0.277686
0.295817
0.312662
0.328128
0.342262
0.354957
0.366598
0.377059
0.386712
0.395432
0.403548
0.411051
0.417942
0.424445
0.430257
0.435714
0.44069
0.445244
0.449445
0.453166
0.456824
0.460071
0.463297
0.466305
0.469173
0.472033
0.474659
0.477326
0.479782
0.482206
0.48454
0.486745
0.488954
0.491006
0.493077
0.495027
0.496971
0.498845
0.500686
0.502505
0.504274
0.506041
0.507772
0.509476
0.51116
0.512804
0.514431
0.516022
0.517614
0.519171
0.520683
0.522168
0.523588
0.525009
0.526373
0.527765
0.529121
0.530476
0.531829
0.533149
0.534475
0.535773
0.537067
0.538355
0.539615
0.540901
0.542134
0.543436
0.54466
0.545966
0.547189
0.548461
0.549695
0.550945
0.552378
0.369486
0.281354
0.228648
0.193015
0.17075
0.15593
0.150122
0.150475
0.156503
0.167381
0.181541
0.1989
0.218341
0.239773
0.262322
0.285615
0.309436
0.333039
0.357
0.38024
0.40335
0.423828
0.441757
0.457305
0.47048
0.482416
0.492485
0.501031
0.508342
0.514623
0.520091
0.524976
0.5292
0.533068
0.536405
0.53951
0.542304
0.544861
0.547338
0.549535
0.551749
0.55372
0.555659
0.55751
0.559147
0.560837
0.56226
0.56377
0.565119
0.566458
0.567809
0.569042
0.570381
0.571594
0.57287
0.574099
0.575296
0.576528
0.577673
0.578875
0.579994
0.581148
0.582257
0.583364
0.584471
0.585555
0.586655
0.587742
0.588833
0.589917
0.59101
0.592099
0.593185
0.594283
0.595354
0.596402
0.597432
0.598424
0.599424
0.600383
0.601383
0.602349
0.603337
0.604311
0.605277
0.606248
0.607202
0.608162
0.609126
0.610084
0.611073
0.612033
0.613054
0.614023
0.615056
0.61604
0.617053
0.618061
0.619072
0.620252
0.3722
0.31543
0.292853
0.279482
0.286422
0.29535
0.331478
0.373619
0.418602
0.463106
0.504508
0.541654
0.573422
0.599972
0.621181
0.637835
0.650552
0.660046
0.66746
0.673
0.677688
0.68161
0.685153
0.688099
0.690599
0.692639
0.694325
0.695599
0.696476
0.697006
0.697254
0.697383
0.697318
0.697293
0.697091
0.696987
0.696794
0.696646
0.69656
0.696433
0.696462
0.696432
0.696524
0.696622
0.69667
0.696822
0.69683
0.69698
0.697025
0.697145
0.697286
0.697402
0.697639
0.697817
0.698112
0.698394
0.698717
0.699095
0.699449
0.699886
0.700282
0.700747
0.701191
0.701664
0.70216
0.702659
0.703192
0.70373
0.704298
0.704872
0.70548
0.706103
0.706743
0.707404
0.708065
0.708726
0.709386
0.710037
0.710701
0.711348
0.712038
0.712707
0.713411
0.714099
0.714796
0.715498
0.716196
0.716909
0.71763
0.718366
0.71913
0.719893
0.720699
0.721489
0.722309
0.723126
0.723913
0.724741
0.725526
0.726367
0.606739
0.839817
0.952196
0.969552
0.937547
0.881248
0.821373
0.768991
0.724433
0.688375
0.660685
0.640131
0.625384
0.614976
0.607639
0.602418
0.598484
0.595452
0.5929
0.590806
0.588983
0.587514
0.586361
0.585442
0.584771
0.584193
0.58377
0.583416
0.583085
0.58274
0.582332
0.581888
0.581378
0.580872
0.580299
0.579764
0.579179
0.578636
0.578087
0.577562
0.577079
0.576599
0.576188
0.575791
0.57544
0.575131
0.574819
0.574573
0.574303
0.574095
0.573878
0.573697
0.573545
0.573404
0.573315
0.573226
0.573188
0.573164
0.57317
0.573207
0.573256
0.573343
0.573444
0.573571
0.573718
0.573884
0.574075
0.574282
0.574513
0.574761
0.575033
0.575322
0.575632
0.575958
0.576298
0.576652
0.577018
0.577399
0.577798
0.578205
0.578635
0.579066
0.579515
0.579961
0.580415
0.580873
0.581338
0.581817
0.582307
0.582811
0.583329
0.583852
0.584399
0.584932
0.585507
0.586019
0.586584
0.58701
0.587308
0.587291
0.116898
2.2929
2.88151
3.08455
3.23179
3.28903
3.26931
3.20055
3.10066
2.9939
2.8865
2.78369
2.68917
2.60358
2.52531
2.45242
2.38352
2.31665
2.25043
2.1846
2.11849
2.05236
1.9857
1.91938
1.85282
1.78585
1.71861
1.65182
1.58507
1.5177
1.45078
1.38508
1.31984
1.25507
1.19167
1.13002
1.0697
1.01076
0.954045
0.899957
0.84828
0.799255
0.753767
0.712212
0.673841
0.63827
0.605762
0.576232
0.548581
0.521894
0.496611
0.474115
0.454407
0.436095
0.418624
0.403982
0.393916
0.387271
0.380751
0.37334
0.367226
0.365392
0.367862
0.372452
0.376978
0.381644
0.386656
0.391076
0.392811
0.390444
0.383417
0.373035
0.360774
0.348167
0.335635
0.323334
0.310868
0.29816
0.284675
0.270039
0.253716
0.235497
0.215197
0.193106
0.169926
0.146741
0.124714
0.104596
0.086885
0.0714046
0.0582444
0.0468729
0.0375829
0.0295528
0.023404
0.0182226
0.0148389
0.0119237
0.0105512
0.00881688
0.358808
1.12939
2.06781
2.51484
2.74876
2.84815
2.85944
2.81145
2.72938
2.63531
2.54058
2.4523
2.37443
2.30673
2.24683
2.19267
2.14249
2.09409
2.04627
1.99829
1.94926
1.89927
1.84761
1.79487
1.74061
1.68453
1.62671
1.56772
1.5077
1.44602
1.38384
1.32153
1.25895
1.19628
1.13455
1.07443
1.01555
0.957977
0.902687
0.850249
0.800505
0.75369
0.710754
0.672095
0.636852
0.604562
0.575446
0.549274
0.524853
0.501232
0.478857
0.459076
0.441917
0.426015
0.410783
0.398107
0.389767
0.384663
0.379386
0.372497
0.365809
0.362316
0.362652
0.365364
0.368663
0.372453
0.376727
0.380483
0.381703
0.378996
0.371826
0.361461
0.349453
0.337306
0.325434
0.313919
0.302296
0.290367
0.277566
0.263478
0.247584
0.229699
0.209684
0.187849
0.164867
0.141806
0.119803
0.0996835
0.081969
0.0665872
0.0536008
0.0425691
0.0336683
0.0261799
0.0205601
0.0160097
0.013072
0.0106677
0.00951872
0.00817317
0.5521
0.546365
1.02207
1.57779
1.97619
2.18955
2.2809
2.29229
2.25822
2.19997
2.13459
2.07274
2.01663
1.96821
1.92677
1.89093
1.85905
1.82885
1.79946
1.76959
1.73814
1.7051
1.66974
1.63219
1.5921
1.5491
1.50308
1.45435
1.40354
1.34996
1.29514
1.23808
1.17968
1.12043
1.06156
1.00407
0.94773
0.89256
0.839729
0.790009
0.74329
0.699784
0.660499
0.625823
0.594764
0.566796
0.542089
0.52022
0.499898
0.480178
0.461525
0.445183
0.431164
0.418173
0.405667
0.395393
0.389053
0.385529
0.381369
0.374806
0.367306
0.361818
0.359538
0.359753
0.361183
0.363574
0.366681
0.369414
0.369824
0.366549
0.359126
0.348742
0.337014
0.325402
0.314314
0.303729
0.293104
0.282085
0.270065
0.256582
0.241155
0.223613
0.203874
0.182278
0.159494
0.136568
0.114624
0.094536
0.0768632
0.0616217
0.0488901
0.0382794
0.0298809
0.0230297
0.0180262
0.0141231
0.0116539
0.00970587
0.0087741
0.00772839
0.531143
0.495213
0.560897
0.766569
1.06966
1.34223
1.52365
1.61932
1.6579
1.66089
1.64574
1.62581
1.60354
1.5832
1.56609
1.55227
1.54073
1.53005
1.51848
1.50583
1.49122
1.47465
1.45556
1.43362
1.4084
1.37963
1.34693
1.31044
1.27092
1.22747
1.18122
1.13134
1.07897
1.02488
0.970482
0.9172
0.864905
0.813604
0.764714
0.719217
0.677038
0.638346
0.604186
0.574917
0.549393
0.527042
0.507977
0.491502
0.47624
0.461318
0.44725
0.435093
0.424774
0.415128
0.405766
0.398276
0.394142
0.39212
0.388764
0.382115
0.373402
0.365475
0.360031
0.357063
0.35586
0.35616
0.357517
0.358725
0.357904
0.353723
0.345843
0.335368
0.323935
0.312934
0.302763
0.293261
0.28379
0.273809
0.262653
0.249813
0.234858
0.217635
0.198135
0.176732
0.15412
0.131325
0.109462
0.0894293
0.0718315
0.0567714
0.0443566
0.0342286
0.0264035
0.0202521
0.0159048
0.0126276
0.0105999
0.00902463
0.00827511
0.00743584
0.472806
0.463231
0.460506
0.486632
0.556612
0.666992
0.788383
0.897801
0.981254
1.03871
1.07581
1.1022
1.12132
1.1374
1.15158
1.16519
1.17799
1.18999
1.19897
1.20551
1.20907
1.2098
1.20742
1.20136
1.19157
1.17766
1.15903
1.13565
1.10837
1.07613
1.03949
0.998701
0.954537
0.907843
0.860168
0.813297
0.767163
0.721796
0.678957
0.639782
0.604209
0.572351
0.545257
0.523197
0.504845
0.489622
0.477538
0.467542
0.458229
0.448876
0.440096
0.432666
0.426367
0.420238
0.414184
0.409635
0.40772
0.406944
0.4039
0.396562
0.386061
0.375152
0.365947
0.359077
0.354403
0.351765
0.350623
0.349644
0.347034
0.341502
0.332879
0.32221
0.311094
0.300801
0.291694
0.283431
0.275255
0.266417
0.256176
0.243981
0.229459
0.21249
0.193151
0.171869
0.149371
0.126679
0.104891
0.0849206
0.0674104
0.0525511
0.0404716
0.0308402
0.0235962
0.0181173
0.0143682
0.0116114
0.00993081
0.00861606
0.00799598
0.00727244
0.411049
0.411263
0.406601
0.402283
0.4034
0.414624
0.431522
0.455772
0.483953
0.51519
0.548513
0.583705
0.619418
0.656961
0.694124
0.730916
0.766772
0.80124
0.832559
0.8607
0.88477
0.904845
0.920875
0.932107
0.939007
0.941054
0.937487
0.928042
0.913787
0.893756
0.868465
0.838797
0.805257
0.768723
0.730718
0.693294
0.656252
0.619719
0.585886
0.555923
0.529716
0.507326
0.489767
0.477089
0.467764
0.461239
0.457365
0.454666
0.451848
0.448439
0.445194
0.442524
0.440042
0.437113
0.434101
0.432292
0.432334
0.432357
0.429017
0.420312
0.40736
0.392877
0.379297
0.367807
0.358795
0.352251
0.347694
0.343707
0.338612
0.331192
0.321482
0.310501
0.299765
0.290334
0.282468
0.275593
0.268816
0.26117
0.251839
0.240223
0.226021
0.209177
0.189871
0.168599
0.146132
0.123495
0.101756
0.0818402
0.0644163
0.0497531
0.0379718
0.0287661
0.0219885
0.0170035
0.0136502
0.0112119
0.0097246
0.0085274
0.0079654
0.00725773
0.343596
0.345888
0.344509
0.339048
0.33068
0.322204
0.31264
0.303448
0.295012
0.28747
0.282771
0.28228
0.286178
0.297943
0.316602
0.342025
0.374327
0.411296
0.450759
0.491526
0.530797
0.567486
0.601159
0.630043
0.654051
0.672925
0.685663
0.691765
0.692415
0.686717
0.675089
0.658977
0.638959
0.615943
0.590982
0.565661
0.540491
0.516386
0.495233
0.477927
0.464229
0.454193
0.448715
0.447474
0.448718
0.451931
0.45671
0.461201
0.464499
0.466469
0.468036
0.469174
0.469394
0.468587
0.467745
0.468019
0.469445
0.469663
0.465425
0.454807
0.438868
0.420288
0.401851
0.385124
0.370957
0.359533
0.350557
0.342631
0.334259
0.324363
0.313239
0.30188
0.291695
0.283384
0.276979
0.271609
0.266255
0.259752
0.251225
0.240021
0.225936
0.209013
0.189555
0.168157
0.145624
0.122996
0.101272
0.0814095
0.064058
0.0495655
0.0379769
0.0290045
0.022388
0.0175427
0.0142264
0.0117864
0.0102493
0.00895949
0.00834427
0.00751029
0.263178
0.26706
0.268096
0.265045
0.258025
0.248523
0.236892
0.224117
0.211401
0.19901
0.188019
0.179258
0.172353
0.168932
0.168917
0.172132
0.180413
0.193146
0.210279
0.233047
0.259547
0.289003
0.321187
0.353232
0.383986
0.412807
0.437671
0.457338
0.47258
0.481982
0.485582
0.484882
0.480614
0.472551
0.462713
0.452533
0.442592
0.434096
0.428383
0.425993
0.426719
0.43068
0.438475
0.449139
0.460681
0.472683
0.484518
0.494254
0.501659
0.506955
0.511155
0.513779
0.514448
0.51387
0.513785
0.515126
0.517161
0.516997
0.511546
0.498943
0.480035
0.457311
0.433902
0.411638
0.391753
0.374698
0.36046
0.347763
0.335388
0.322523
0.309812
0.298243
0.289002
0.282218
0.277502
0.273648
0.269584
0.264014
0.256024
0.244939
0.230657
0.213386
0.193548
0.171887
0.149186
0.126558
0.104834
0.0850501
0.0677382
0.0534182
0.0418565
0.0328741
0.0260087
0.0208628
0.0170871
0.0141974
0.0122251
0.0105031
0.00963613
0.00842721
0.175668
0.179227
0.181333
0.180663
0.176961
0.171167
0.16404
0.156589
0.150137
0.145029
0.142004
0.141193
0.142152
0.145033
0.149373
0.154514
0.160895
0.168061
0.17582
0.185178
0.195593
0.207438
0.221646
0.237529
0.255
0.274073
0.293304
0.311438
0.328366
0.343486
0.355777
0.365866
0.374345
0.379892
0.38474
0.390191
0.396003
0.402684
0.411402
0.422516
0.436038
0.452211
0.471036
0.490735
0.509235
0.526359
0.541431
0.552759
0.560864
0.566254
0.569724
0.570495
0.568731
0.566293
0.565609
0.567116
0.569122
0.568367
0.562
0.548117
0.527126
0.501132
0.473298
0.445682
0.419967
0.397013
0.37709
0.359166
0.342399
0.326439
0.312385
0.301214
0.293597
0.288828
0.285881
0.283356
0.280214
0.275161
0.267237
0.255858
0.24096
0.223047
0.202571
0.180551
0.157566
0.135007
0.113302
0.0937618
0.076416
0.0623278
0.0506268
0.0416618
0.0342982
0.0286784
0.0239864
0.020247
0.0173285
0.0147034
0.0132444
0.0112422
0.10455
0.108288
0.111792
0.114623
0.116738
0.118822
0.121437
0.125293
0.130917
0.138247
0.147293
0.157551
0.168489
0.179714
0.190751
0.20128
0.211305
0.220752
0.229569
0.238075
0.246151
0.253923
0.261864
0.269851
0.278156
0.287308
0.297193
0.307659
0.318867
0.330643
0.342443
0.354575
0.367222
0.37965
0.392667
0.406602
0.421115
0.436411
0.453248
0.471903
0.492677
0.515616
0.53978
0.562805
0.582807
0.599935
0.613533
0.622358
0.627493
0.629559
0.628768
0.624507
0.618169
0.612883
0.611285
0.612745
0.614707
0.613932
0.607772
0.594146
0.572865
0.5454
0.514491
0.482408
0.45147
0.423071
0.397736
0.374804
0.353921
0.335496
0.321078
0.311437
0.30625
0.303742
0.302225
0.300544
0.297671
0.292519
0.284009
0.271868
0.255882
0.237124
0.215768
0.193434
0.170109
0.147885
0.126357
0.10763
0.0903747
0.0768883
0.0650738
0.0566591
0.0487526
0.0430733
0.0372533
0.0328396
0.0286039
0.0249261
0.0225095
0.019404
0.119143
0.123495
0.128331
0.134211
0.141524
0.15061
0.16143
0.174036
0.188005
0.202945
0.218374
0.23364
0.248161
0.261683
0.274115
0.285481
0.295833
0.305268
0.313966
0.322107
0.329889
0.337154
0.344179
0.351043
0.357886
0.365024
0.372588
0.380646
0.389453
0.399088
0.409353
0.420509
0.432552
0.445166
0.458866
0.473717
0.489347
0.505996
0.524322
0.544488
0.566481
0.58936
0.611612
0.631298
0.647429
0.660128
0.668597
0.672178
0.67219
0.668917
0.662467
0.652918
0.642925
0.636408
0.635089
0.63727
0.640126
0.640629
0.63625
0.624742
0.605296
0.578566
0.546589
0.511892
0.477488
0.445251
0.415929
0.38934
0.365797
0.346753
0.333803
0.327021
0.324481
0.323552
0.322486
0.320792
0.317304
0.311346
0.301604
0.288353
0.27102
0.251479
0.229298
0.207006
0.183654
0.162371
0.141515
0.124669
0.108719
0.097173
0.0857256
0.0783091
0.0698085
0.064706
0.057907
0.05381
0.0484604
0.0448042
0.0415325
0.0383362
0.20517
0.209227
0.213962
0.220237
0.228604
0.239085
0.251425
0.265286
0.280013
0.295001
0.309683
0.32355
0.336442
0.348226
0.359026
0.368923
0.378142
0.386771
0.394908
0.402665
0.41017
0.417327
0.424322
0.431139
0.4378
0.444513
0.451299
0.458207
0.465539
0.47334
0.481537
0.490472
0.500029
0.510125
0.52145
0.534029
0.547639
0.562743
0.579817
0.598313
0.617267
0.635262
0.651002
0.663473
0.672668
0.678919
0.681488
0.680179
0.676031
0.668777
0.658541
0.646379
0.636008
0.630808
0.631317
0.635338
0.640106
0.642841
0.641144
0.632731
0.616271
0.591688
0.560405
0.525316
0.489851
0.45617
0.425097
0.39704
0.373262
0.356117
0.3464
0.342806
0.341791
0.340919
0.33916
0.336589
0.331832
0.324592
0.3134
0.299029
0.280664
0.260731
0.238242
0.216288
0.193712
0.174505
0.156038
0.142205
0.128774
0.119919
0.109955
0.104056
0.0957995
0.0915165
0.0843199
0.0810009
0.07513
0.0725819
0.0689471
0.0672015
0.295863
0.299267
0.303434
0.309185
0.316942
0.326597
0.337814
0.350189
0.363043
0.375868
0.388124
0.399609
0.41032