/*--------------------------------*- C++ -*----------------------------------*\
| =========                 |                                                 |
| \\      /  F ield         | OpenFOAM: The Open Source CFD Toolbox           |
|  \\    /   O peration     | Version:  v2012                                 |
|   \\  /    A nd           | Website:  www.openfoam.com                      |
|    \\/     M anipulation  |                                                 |
\*---------------------------------------------------------------------------*/
FoamFile
{
    version     2.0;
    format      ascii;
    class       scalarField;
    location    "0.096/lagrangian/kinematicCloud";
    object      age;
}
// * * * * * * * * * * * * * * * * * * * * * * * * * * * * * * * * * * * * * //


54
(
0.0952
0.0942
0.0931
0.092
0.091
0.09
0.089
0.088
0.0869
0.0858
0.085725
0.0847
0.0836
0.0825
0.0814
0.0803
0.0792
0.0781
0.077
0.076925
0.0759
0.0748
0.0737
0.0726
0.072525
0.0715
0.0704
0.070325
0.0693
0.069225
0.0682
0.0671
0.066
0.0649
0.064825
0.0639
0.0629
0.0619
0.0609
0.0599
0.0589
0.0579
0.0569
0.0559
0.0549
0.0539
0.0529
0.0519
0.0509
0.0499
0.0489
0.0479
0.0469
0.0459
)


// ************************************************************************* //
