/*--------------------------------*- C++ -*----------------------------------*\
| =========                 |                                                 |
| \\      /  F ield         | OpenFOAM: The Open Source CFD Toolbox           |
|  \\    /   O peration     | Version:  v2012                                 |
|   \\  /    A nd           | Website:  www.openfoam.com                      |
|    \\/     M anipulation  |                                                 |
\*---------------------------------------------------------------------------*/
FoamFile
{
    version     2.0;
    format      ascii;
    class       Cloud<basicKinematicParcel>;
    location    "0.096/lagrangian/kinematicCloud";
    object      coordinates;
}
// * * * * * * * * * * * * * * * * * * * * * * * * * * * * * * * * * * * * * //

54
(
(0.220414 0.220375 0.389793 0.169418) 392 782 1
(0.167149 0.198428 0.217998 0.416426) 896 1792 1
(0.243161 0.100139 0.278281 0.37842) 1195 2191 2
(0.683059 0.15847 0.151012 0.00745783) 693 1384 2
(0.095951 0.251943 0.200081 0.452024) 1391 2782 1
(0.189084 0.405458 0.195348 0.21011) 1191 2382 2
(0.513266 0.0683069 0.243367 0.17506) 65 128 1
(0.568209 0.0738345 0.215895 0.142061) 1585 3171 2
(0.476221 0.215407 0.046483 0.26189) 1584 3168 1
(0.645386 0.0144772 0.177307 0.16283) 786 1573 2
(0.115405 0.326959 0.442298 0.115339) 886 1773 2
(0.200766 0.399617 0.342313 0.0573038) 583 1166 2
(0.332337 0.333831 0.0511494 0.282682) 1871 3740 2
(0.0166428 0.491679 0.0571339 0.434545) 170 338 2
(0.0595971 0.105714 0.364488 0.470201) 1871 3543 2
(0.338693 0.205819 0.330653 0.124835) 980 1958 1
(0.208646 0.361413 0.395677 0.0342642) 375 748 1
(0.360699 0.258392 0.0612582 0.319651) 1770 3540 1
(0.563218 0.159199 0.218391 0.0591922) 575 1151 2
(0.0686026 0.330151 0.135548 0.465699) 1573 3146 1
(0.0836886 0.125586 0.458156 0.33257) 1274 2549 2
(0.08563 0.457185 0.0094525 0.447732) 1768 3536 2
(0.42506 0.28747 0.211522 0.0759479) 1372 2742 2
(0.367998 0.0220025 0.293998 0.316001) 469 938 1
(0.162663 0.418668 0.262416 0.156253) 870 1740 2
(0.0522743 0.350682 0.123181 0.473863) 1369 2539 2
(0.0529846 0.473508 0.0534199 0.420088) 366 733 1
(0.289173 0.355414 0.277263 0.0781505) 1467 2934 2
(0.164944 0.272869 0.417528 0.144659) 160 321 2
(0.31924 0.34038 0.14585 0.19453) 1466 2933 1
(0.176455 0.411773 0.372219 0.0395536) 31 22251 2
(0.0774816 0.229559 0.2317 0.461259) 260 520 1
(0.19992 0.40004 0.246603 0.153437) 1852 3705 1
(0.367752 0.274937 0.316124 0.041187) 1062 2122 1
(0.175497 0.412252 0.0710404 0.341211) 661 1322 2
(0.24294 0.216354 0.37853 0.162175) 1261 2520 1
(0.183257 0.408372 0.280126 0.128246) 759 1518 2
(0.145616 0.427192 0.211834 0.215358) 858 1716 2
(0.503387 0.0331479 0.248306 0.215158) 1257 2515 2
(0.0387579 0.243333 0.237288 0.480621) 147 95 2
(0.222862 0.276969 0.388569 0.1116) 655 1311 2
(0.723144 0.138428 0.0572306 0.0811976) 1254 2309 1
(0.0398891 0.480055 0.307613 0.172443) 553 1107 1
(0.207474 0.396263 0.195435 0.200828) 552 1102 2
(0.290134 0.354933 0.0114367 0.343496) 751 1303 1
(0.134205 0.124721 0.432897 0.308176) 1150 2298 1
(0.0938695 0.233632 0.453065 0.219434) 1448 2897 2
(0.215968 0.370611 0.0214046 0.392016) 947 1894 1
(0.299257 0.0972735 0.253098 0.350372) 846 1493 2
(0.2814 0.170337 0.3593 0.188963) 1345 2691 2
(0.457511 0.271244 0.118937 0.152307) 343 686 2
(0.0115561 0.382803 0.494222 0.111419) 743 1487 2
(0.320733 0.339634 0.253608 0.0860259) 1542 3085 1
(0.197029 0.401485 0.385663 0.015822) 239 279 1
)


// ************************************************************************* //
