/*--------------------------------*- C++ -*----------------------------------*\
| =========                 |                                                 |
| \\      /  F ield         | OpenFOAM: The Open Source CFD Toolbox           |
|  \\    /   O peration     | Version:  v2012                                 |
|   \\  /    A nd           | Website:  www.openfoam.com                      |
|    \\/     M anipulation  |                                                 |
\*---------------------------------------------------------------------------*/
FoamFile
{
    version     2.0;
    format      ascii;
    class       vectorField;
    location    "0.096/lagrangian/kinematicCloud";
    object      UCorrect;
}
// * * * * * * * * * * * * * * * * * * * * * * * * * * * * * * * * * * * * * //


54
(
(0 0 0)
(0 0 0)
(-1.85804e-28 6.72264e-32 0)
(4.36648e-28 1.53391e-30 0)
(0 0 0)
(0 0 0)
(1.35413e-27 3.80385e-30 0)
(1.76155e-27 -4.37673e-30 0)
(1.67849e-27 -4.54131e-30 0)
(0 0 0)
(-7.57507e-35 4.72349e-37 0)
(8.47522e-28 5.01959e-30 0)
(1.22046e-10 1.17284e-13 0)
(0 0 0)
(-1.2035e-10 -1.19343e-13 0)
(-1.56405e-28 4.87603e-31 0)
(2.02767e-27 7.40191e-30 0)
(0 0 0)
(3.47356e-31 2.66151e-33 0)
(1.59265e-27 -6.72084e-30 0)
(1.56176e-28 -1.0601e-30 0)
(0 0 0)
(0 0 0)
(6.30447e-31 3.71796e-33 0)
(0 0 0)
(1.63946e-28 1.16881e-30 0)
(0 0 0)
(8.49117e-28 -3.18228e-30 0)
(0 0 0)
(5.821e-31 -2.10846e-33 0)
(0 0 0)
(3.0678e-27 8.71151e-30 0)
(0 0 0)
(0 0 0)
(0 0 0)
(5.61335e-29 3.02176e-30 0)
(2.26025e-29 -2.04774e-30 0)
(-1.44254e-29 -1.29998e-30 0)
(3.60811e-32 1.76968e-33 0)
(1.28516e-32 2.01611e-35 0)
(0 0 0)
(0 0 0)
(0 0 0)
(7.39417e-28 2.43454e-31 0)
(1.28356e-32 -4.00891e-34 0)
(6.87051e-33 3.78223e-34 0)
(1.07925e-27 1.64434e-30 0)
(7.2756e-29 1.55808e-31 0)
(0 0 0)
(1.77742e-31 3.39965e-33 0)
(1.23105e-30 2.99881e-33 0)
(0 0 0)
(0 0 0)
(0 0 0)
)


// ************************************************************************* //
