/*--------------------------------*- C++ -*----------------------------------*\
| =========                 |                                                 |
| \\      /  F ield         | OpenFOAM: The Open Source CFD Toolbox           |
|  \\    /   O peration     | Version:  v2012                                 |
|   \\  /    A nd           | Website:  www.openfoam.com                      |
|    \\/     M anipulation  |                                                 |
\*---------------------------------------------------------------------------*/
FoamFile
{
    version     2.0;
    format      ascii;
    class       Cloud<basicKinematicParcel>;
    location    "0.147/lagrangian/kinematicCloud";
    object      positions;
}
// * * * * * * * * * * * * * * * * * * * * * * * * * * * * * * * * * * * * * //

54
(
(2.19372 0.00106249 0.03) 2049
(2.37795 0.0122102 0.03) 2762
(2.35262 0.0202303 0.03) 3060
(2.28875 0.00655014 0.03) 2456
(2.24941 0.0279605 0.03) 3253
(2.2984 0.0211948 0.03) 3057
(1.55484 0.00078737 0.03) 2003
(2.10887 0.0327197 0.03) 3543
(2.10226 0.0323805 0.03) 3443
(2.22129 0.0107876 0.03) 2651
(2.23516 0.0142882 0.03) 2852
(2.1333 0.00576477 0.03) 2445
(1.77862 0.0377463 0.03) 3819
(1.75877 0.000973398 0.03) 2018
(1.82082 0.0371011 0.03) 3722
(2.14321 0.0169359 0.03) 2845
(1.94683 0.00314904 0.03) 2231
(1.83161 0.0362901 0.03) 3723
(2.01882 0.00727046 0.03) 2437
(1.94879 0.0327229 0.03) 3532
(2.02762 0.0267603 0.03) 3237
(1.82641 0.0354341 0.03) 3623
(1.9826 0.027626 0.03) 3234
(1.90844 0.00603489 0.03) 2429
(1.99511 0.0139225 0.03) 2735
(1.9493 0.0270932 0.03) 3232
(1.83241 0.00493338 0.03) 2323
(1.89278 0.0303266 0.03) 3328
(1.65411 0.00250101 0.03) 2111
(1.85984 0.0312571 0.03) 3425
(0.675363 9.22837e-05 0.03) 45
(1.70228 0.0035542 0.03) 2214
(1.44146 0.0384012 0.03) 1896
(1.8606 0.0207659 0.03) 3025
(1.82009 0.00951557 0.03) 2522
(1.82443 0.026474 0.03) 3223
(1.80857 0.0123727 0.03) 2722
(1.80192 0.0146623 0.03) 2821
(1.76891 0.0268084 0.03) 3219
(1.37249 0.00137282 0.03) 191
(1.73164 0.0115809 0.03) 2616
(1.72001 0.0259766 0.03) 3215
(1.67687 0.0098024 0.03) 2612
(1.64497 0.00853642 0.03) 2510
(1.66146 0.0124168 0.03) 2711
(1.65179 0.02474 0.03) 3110
(1.58207 0.0317359 0.03) 3405
(1.61948 0.0185449 0.03) 2908
(1.59544 0.0149355 0.03) 2806
(1.55498 0.0294995 0.03) 3303
(1.45727 0.00511549 0.03) 397
(1.54017 0.0145654 0.03) 2802
(1.45508 0.0333569 0.03) 1597
(1.33752 0.00311325 0.03) 289
)


// ************************************************************************* //
