/*--------------------------------*- C++ -*----------------------------------*\
| =========                 |                                                 |
| \\      /  F ield         | OpenFOAM: The Open Source CFD Toolbox           |
|  \\    /   O peration     | Version:  v2012                                 |
|   \\  /    A nd           | Website:  www.openfoam.com                      |
|    \\/     M anipulation  |                                                 |
\*---------------------------------------------------------------------------*/
FoamFile
{
    version     2.0;
    format      ascii;
    class       Cloud<basicKinematicParcel>;
    location    "0.013/lagrangian/kinematicCloud";
    object      positions;
}
// * * * * * * * * * * * * * * * * * * * * * * * * * * * * * * * * * * * * * //

13
(
(0.19579 0.000552423 0.03) 113
(0.179215 0.00860861 0.03) 412
(0.158835 0.0149428 0.03) 609
(0.137653 0.00575543 0.03) 307
(0.118431 0.0208181 0.03) 805
(0.100527 0.0174521 0.03) 703
(0.0748143 0.00132201 0.03) 100
(0.0669903 0.0224055 0.03) 900
(0.050132 0.0234745 0.03) 87
(0.0350326 0.00914179 0.03) 35
(0.0332677 0.00842627 0.03) 34
(0.0201522 0.00520282 0.03) 13
(0.00715062 0.0265753 0.03) 91
)


// ************************************************************************* //
