/*--------------------------------*- C++ -*----------------------------------*\
| =========                 |                                                 |
| \\      /  F ield         | OpenFOAM: The Open Source CFD Toolbox           |
|  \\    /   O peration     | Version:  v2012                                 |
|   \\  /    A nd           | Website:  www.openfoam.com                      |
|    \\/     M anipulation  |                                                 |
\*---------------------------------------------------------------------------*/
FoamFile
{
    version     2.0;
    format      ascii;
    class       Cloud<basicKinematicParcel>;
    location    "0.013/lagrangian/kinematicCloud";
    object      positions;
}
// * * * * * * * * * * * * * * * * * * * * * * * * * * * * * * * * * * * * * //

13
(
(0.141085 0.00416145 0.03) 309
(0.12886 0.0158207 0.03) 808
(0.118052 0.0238512 0.03) 1107
(0.104696 0.00936698 0.03) 506
(0.091893 0.0308855 0.03) 1406
(0.0803851 0.0243434 0.03) 1105
(0.0667561 0.000625149 0.03) 4
(0.0567386 0.0349543 0.03) 1603
(0.0440534 0.0346476 0.03) 1602
(0.0328238 0.0128065 0.03) 702
(0.0303166 0.0165438 0.03) 802
(0.0195645 0.0074146 0.03) 401
(0.00821723 0.0387249 0.03) 1800
)


// ************************************************************************* //
