/*--------------------------------*- C++ -*----------------------------------*\
| =========                 |                                                 |
| \\      /  F ield         | OpenFOAM: The Open Source CFD Toolbox           |
|  \\    /   O peration     | Version:  v2012                                 |
|   \\  /    A nd           | Website:  www.openfoam.com                      |
|    \\/     M anipulation  |                                                 |
\*---------------------------------------------------------------------------*/
FoamFile
{
    version     2.0;
    format      ascii;
    class       scalarField;
    location    "0.071/lagrangian/kinematicCloud";
    object      age;
}
// * * * * * * * * * * * * * * * * * * * * * * * * * * * * * * * * * * * * * //


35
(
0.0586
0.0575
0.0564
0.0498
0.0476
0.047525
0.0465
0.0454
0.045325
0.0443
0.044225
0.0432
0.0421
0.041
0.0399
0.039825
0.0389
0.0379
0.0369
0.0359
0.0349
0.0339
0.0329
0.0319
0.0309
0.0299
0.0289
0.0279
0.0269
0.0259
0.0249
0.0239
0.0229
0.0219
0.0209
)


// ************************************************************************* //
