/*--------------------------------*- C++ -*----------------------------------*\
| =========                 |                                                 |
| \\      /  F ield         | OpenFOAM: The Open Source CFD Toolbox           |
|  \\    /   O peration     | Version:  v2012                                 |
|   \\  /    A nd           | Website:  www.openfoam.com                      |
|    \\/     M anipulation  |                                                 |
\*---------------------------------------------------------------------------*/
FoamFile
{
    version     2.0;
    format      ascii;
    class       Cloud<basicKinematicParcel>;
    location    "0.071/lagrangian/kinematicCloud";
    object      positions;
}
// * * * * * * * * * * * * * * * * * * * * * * * * * * * * * * * * * * * * * //

35
(
(0.466567 0.0263339 0.03) 1042
(0.798699 -0.0145175 0.03) 1731
(0.892962 0.0241963 0.03) 1088
(0.679287 0.0249485 0.03) 1065
(0.948884 -0.00705332 0.03) 1855
(0.995861 7.22458e-05 0.03) 199
(0.988434 0.0166638 0.03) 798
(0.907341 -0.00598562 0.03) 1814
(0.949218 0.0185942 0.03) 794
(0.74771 -0.0108386 0.03) 1681
(0.902214 0.0207547 0.03) 889
(0.598591 -0.0127604 0.03) 1554
(0.788378 -0.008097 0.03) 1720
(0.523113 0.0253158 0.03) 1048
(0.833143 0.010062 0.03) 482
(0.802244 -0.00226499 0.03) 1725
(0.808768 0.0146702 0.03) 679
(0.775956 0.00416469 0.03) 275
(0.752928 0.00436093 0.03) 273
(0.734962 0.0152636 0.03) 671
(0.514065 -0.00880694 0.03) 1480
(0.674922 0.000790069 0.03) 165
(0.663521 0.0141895 0.03) 663
(0.609915 -0.00298201 0.03) 1565
(0.601758 -0.000559629 0.03) 1556
(0.586195 0.00285859 0.03) 255
(0.568578 0.0131956 0.03) 553
(0.537272 0.0206255 0.03) 850
(0.521326 0.0085018 0.03) 448
(0.497393 0.0069479 0.03) 346
(0.472466 0.0194947 0.03) 843
(0.432782 -0.00181433 0.03) 1412
(0.428937 0.0049667 0.03) 238
(0.398942 0.0226207 0.03) 935
(0.284872 -0.00310848 0.03) 1285
)


// ************************************************************************* //
