/*--------------------------------*- C++ -*----------------------------------*\
| =========                 |                                                 |
| \\      /  F ield         | OpenFOAM: The Open Source CFD Toolbox           |
|  \\    /   O peration     | Version:  v2012                                 |
|   \\  /    A nd           | Website:  www.openfoam.com                      |
|    \\/     M anipulation  |                                                 |
\*---------------------------------------------------------------------------*/
FoamFile
{
    version     2.0;
    format      ascii;
    class       volScalarField;
    location    "0.086";
    object      nut.air;
}
// * * * * * * * * * * * * * * * * * * * * * * * * * * * * * * * * * * * * * //

dimensions      [0 2 -1 0 0 0 0];


internalField   nonuniform List<scalar> 
5600
(
2.45136e-05
3.47344e-05
4.04098e-05
4.24625e-05
4.22716e-05
4.09706e-05
3.9209e-05
3.75392e-05
3.61124e-05
3.49475e-05
3.40604e-05
3.34383e-05
3.30353e-05
3.28066e-05
3.26942e-05
3.26613e-05
3.26694e-05
3.27002e-05
3.2735e-05
3.27686e-05
3.27988e-05
3.28229e-05
3.28484e-05
3.28788e-05
3.29112e-05
3.29444e-05
3.2978e-05
3.30128e-05
3.30468e-05
3.30795e-05
3.31096e-05
3.31356e-05
3.31559e-05
3.31704e-05
3.31799e-05
3.31863e-05
3.31913e-05
3.31954e-05
3.31989e-05
3.32008e-05
3.32013e-05
3.31989e-05
3.31941e-05
3.31868e-05
3.31804e-05
3.31712e-05
3.31675e-05
3.31574e-05
3.31606e-05
3.31472e-05
3.31611e-05
3.31392e-05
3.31692e-05
3.3133e-05
3.31834e-05
3.31256e-05
3.32009e-05
3.31125e-05
3.32225e-05
3.3091e-05
3.3251e-05
3.30621e-05
3.32793e-05
3.30456e-05
3.32732e-05
3.30895e-05
3.31803e-05
3.32346e-05
3.29957e-05
3.3427e-05
3.28506e-05
3.34758e-05
3.29457e-05
3.32212e-05
3.33361e-05
3.27584e-05
3.37835e-05
3.2446e-05
3.39191e-05
3.25361e-05
3.36145e-05
3.29931e-05
3.30361e-05
3.35903e-05
3.2484e-05
3.40019e-05
3.23587e-05
3.37027e-05
3.3157e-05
3.23625e-05
3.48317e-05
3.08376e-05
3.59502e-05
3.05531e-05
3.54878e-05
3.10765e-05
3.50188e-05
2.94443e-05
4.07392e-05
1.16148e-05
0.000151656
0.000137413
0.000112232
9.86384e-05
9.39037e-05
9.49309e-05
0.000102112
0.000110134
0.000116472
0.000124307
0.000132732
0.000141249
0.000149461
0.000157255
0.000164421
0.000170953
0.000176794
0.000182075
0.000186769
0.000191063
0.000194982
0.000198626
0.00020208
0.000205373
0.000208481
0.000211352
0.000214041
0.000216534
0.000218816
0.000220894
0.000222773
0.000224451
0.000225949
0.000227253
0.000228384
0.000229383
0.000230297
0.000231159
0.000231993
0.000232791
0.000233553
0.00023423
0.000234824
0.000235266
0.000235671
0.00023587
0.00023613
0.000236088
0.000236343
0.00023606
0.00023649
0.000235909
0.000236685
0.000235691
0.00023698
0.000235438
0.000237366
0.000235061
0.000237889
0.000234487
0.000238577
0.000233819
0.000239103
0.000233724
0.00023847
0.000235404
0.000235549
0.000239422
0.000231067
0.000243404
0.000228918
0.000242631
0.000233293
0.000234691
0.000243604
0.000224193
0.000252242
0.000219581
0.000252048
0.000224573
0.000242463
0.00023682
0.000228627
0.000250151
0.000217737
0.0002564
0.000219316
0.000243683
0.000243435
0.000209911
0.000280177
0.000181734
0.000292213
0.000187119
0.000263618
0.000225041
0.000212626
0.00027744
0.000174565
0.000305922
0.000156516
0.00015157
0.000143024
0.000135183
0.000125242
0.000120732
0.000113755
0.000109735
0.00010869
0.000109814
0.000112657
0.000117476
0.000123669
0.000131348
0.000140257
0.00015039
0.000161456
0.000173828
0.000187077
0.000201737
0.000217005
0.000232882
0.00024605
0.000258404
0.000270043
0.000281122
0.000290541
0.000298417
0.000305385
0.000311697
0.000317527
0.000323063
0.000328285
0.000333115
0.000337513
0.000341503
0.000345183
0.000348648
0.000352023
0.000355348
0.000358635
0.000361717
0.000364587
0.000366956
0.000369076
0.000370408
0.000371815
0.000372089
0.000373199
0.000372486
0.000373875
0.000372171
0.000374399
0.000371551
0.000375075
0.000370753
0.000376039
0.000369641
0.000377433
0.000368092
0.000379092
0.000366733
0.000379648
0.000367772
0.000376245
0.000374048
0.000367251
0.000384727
0.00035708
0.000391497
0.000356666
0.00038339
0.000373239
0.000360573
0.000398119
0.000338869
0.000411488
0.000336134
0.000401891
0.000355323
0.000374753
0.000386417
0.00034306
0.000414392
0.000322985
0.000418749
0.000339549
0.000375737
0.000404905
0.000297342
0.000473709
0.000250236
0.000470975
0.000293674
0.000383019
0.000414399
0.000248588
0.000555101
0.000162995
0.000506615
0.000157814
0.000154006
0.000150076
0.000146781
0.000142683
0.000139237
0.000135559
0.000131516
0.000128171
0.000124952
0.000122918
0.000120052
0.000117371
0.000115733
0.000115479
0.000116836
0.000119715
0.000124729
0.00013122
0.000139829
0.000150092
0.000162439
0.000176221
0.000191253
0.000207005
0.000223555
0.000238834
0.000252871
0.00026648
0.000279708
0.000292659
0.000305276
0.000317685
0.000329633
0.000340895
0.000351406
0.000361278
0.000370812
0.000380252
0.000389792
0.000399145
0.000408078
0.000416564
0.000423261
0.00042877
0.000432413
0.000436099
0.000437143
0.000439858
0.000438549
0.00044156
0.000438067
0.000442563
0.000436763
0.000443726
0.000435047
0.000445531
0.000432723
0.000448216
0.000429755
0.000451032
0.000427951
0.000450602
0.00043206
0.000441564
0.000446425
0.000423096
0.000466096
0.000407142
0.000472596
0.000414258
0.000449398
0.00045093
0.000405572
0.00049299
0.000372751
0.000505002
0.000377176
0.000477401
0.000419773
0.000425914
0.000477711
0.00037247
0.000520393
0.000344684
0.000512253
0.000391393
0.000422497
0.000513368
0.000283371
0.00061119
0.000224957
0.000576548
0.000324939
0.000417648
0.000539073
0.000195477
0.000698144
0.000136937
0.00052482
0.000158112
0.000154619
0.000151625
0.000149092
0.00014672
0.000144513
0.000142439
0.000140407
0.000138398
0.000136552
0.000134616
0.000133004
0.000130873
0.000129219
0.000127026
0.000125793
0.000123842
0.000122137
0.000120657
0.00012007
0.000120453
0.000122221
0.000125381
0.000130317
0.000136732
0.000144921
0.000154729
0.000166124
0.000178563
0.000192193
0.000206553
0.00022212
0.000235233
0.000248316
0.000261302
0.00027386
0.000285962
0.000297869
0.000310055
0.00032279
0.000336138
0.000349568
0.000363044
0.000374817
0.000385661
0.000392933
0.000400177
0.000402336
0.000407459
0.000405185
0.000410468
0.000404379
0.000411788
0.0004021
0.000413426
0.000399079
0.000416247
0.000395248
0.000420531
0.000390803
0.00042445
0.000389164
0.000421878
0.000398163
0.000404744
0.000423091
0.000375119
0.000452302
0.000355503
0.000454507
0.00037595
0.000409419
0.000438189
0.000342133
0.000497422
0.000306016
0.000502097
0.000329814
0.000448433
0.000397553
0.000368029
0.000478952
0.000294455
0.000532609
0.000273557
0.000498094
0.000361968
0.000350097
0.000540332
0.000181645
0.00065339
0.000147193
0.00057109
0.000295393
0.000344198
0.000558915
9.64267e-05
0.000688281
0.000111119
0.000462413
0.000158181
0.000154795
0.000152026
0.000149708
0.00014768
0.000145896
0.000144249
0.000142777
0.000141328
0.000140061
0.000138724
0.000137598
0.000136377
0.000135311
0.000134152
0.000133168
0.000132057
0.000131011
0.000129853
0.000128758
0.000127628
0.000126702
0.000125836
0.000125041
0.000124331
0.000124097
0.000124369
0.000125705
0.00012788
0.000131214
0.000135591
0.00014135
0.000148461
0.000156988
0.000166813
0.000177368
0.000188439
0.000199566
0.000211898
0.000225167
0.000240598
0.00025342
0.000266544
0.000278198
0.000289903
0.000297517
0.000306173
0.000307993
0.000314526
0.000310819
0.000317658
0.000309057
0.000318807
0.000305293
0.000320303
0.000300718
0.000323792
0.000295318
0.000329102
0.000289939
0.000332561
0.000290462
0.000325062
0.000307111
0.000298278
0.000342345
0.000261339
0.000373313
0.00024735
0.000360438
0.000288515
0.000292487
0.000370198
0.00021735
0.000425072
0.000194827
0.000407567
0.000240203
0.000335276
0.000324989
0.0002443
0.000415163
0.000171136
0.000460745
0.000169448
0.000394227
0.000289949
0.000222396
0.000474252
7.7169e-05
0.00054837
7.39064e-05
0.000458947
0.000219723
0.000254511
0.000444829
4.46562e-05
0.000509952
0.00012565
0.000369482
0.0001582
0.000154852
0.000152145
0.000149895
0.000147962
0.000146283
0.00014478
0.000143441
0.000142198
0.000141077
0.000140005
0.000139025
0.000138085
0.0001372
0.000136348
0.000135553
0.000134754
0.000134032
0.000133279
0.000132609
0.000131878
0.000131255
0.000130569
0.000129966
0.000129295
0.000128711
0.000128021
0.000127552
0.000127039
0.000126783
0.000126476
0.000126239
0.000126218
0.000126581
0.000127624
0.00012924
0.000131524
0.000133963
0.000137295
0.000141209
0.000147027
0.000154238
0.00016369
0.000172879
0.000183388
0.00019056
0.000199174
0.000201532
0.000207924
0.000205021
0.000210955
0.000203345
0.000211235
0.000199016
0.000211528
0.000193482
0.000213765
0.000187414
0.000217378
0.000183135
0.000217494
0.000187652
0.000205631
0.000208504
0.000177355
0.00023917
0.00014647
0.000253403
0.000149222
0.000227399
0.000202088
0.000166368
0.000257878
0.000113678
0.000270445
0.000120639
0.000247756
0.000168209
0.000212117
0.000218274
0.000149721
0.000275387
7.27145e-05
0.000307746
8.05866e-05
0.000267165
0.000191267
0.000136784
0.00027721
2.34396e-05
0.000299989
4.43322e-05
0.00030263
0.000134625
0.000213041
0.000256872
5.57349e-05
0.000273528
0.000179522
0.00018645
0.000158207
0.000154873
0.000152188
0.000149959
0.000148059
0.000146411
0.000144955
0.000143654
0.000142475
0.000141402
0.00014041
0.000139493
0.000138636
0.000137833
0.000137072
0.00013636
0.000135669
0.000135029
0.000134394
0.000133811
0.000133221
0.000132682
0.000132138
0.000131632
0.000131128
0.000130656
0.000130171
0.000129736
0.000129299
0.000128908
0.000128502
0.000128135
0.000127723
0.000127404
0.000127095
0.000126919
0.00012678
0.000126665
0.000126559
0.00012635
0.000126418
0.000126731
0.000127871
0.000129115
0.000131204
0.000132411
0.000134356
0.000134304
0.000135548
0.000133889
0.000134856
0.000131803
0.000133434
0.000128909
0.00013247
0.000125655
0.000132726
0.000122452
0.000133636
0.000120811
0.000132723
0.000124069
0.00012635
0.000133734
0.000112932
0.000144192
0.000101115
0.000146297
0.000109775
0.000134371
0.000132831
0.000111168
0.000144952
0.000102059
0.000141698
0.000116363
0.000138519
0.000118056
0.000144395
0.000120486
0.000128386
0.000146389
6.85348e-05
0.000169607
6.72065e-05
0.000162354
0.000123465
0.000124111
0.000145037
9.40301e-05
0.000142187
0.00012368
0.000143004
0.0001365
0.000125422
0.000173711
7.56978e-05
0.000138899
0.000231553
1.46971e-05
0.00015821
0.000154882
0.000152205
0.000149984
0.000148097
0.00014646
0.00014502
0.000143735
0.000142576
0.000141521
0.000140554
0.000139661
0.000138831
0.000138057
0.000137329
0.000136646
0.000135997
0.000135386
0.0001348
0.000134245
0.00013371
0.000133202
0.000132712
0.000132242
0.000131785
0.000131345
0.00013092
0.000130515
0.000130121
0.000129739
0.00012936
0.000128999
0.00012864
0.000128315
0.000128001
0.000127708
0.000127422
0.000127126
0.000126838
0.000126534
0.00012631
0.000126093
0.000126055
0.000125935
0.000126024
0.000125797
0.000125824
0.000125334
0.00012525
0.00012459
0.000124496
0.000123868
0.00012393
0.000123305
0.000123827
0.000122727
0.000124268
0.000121993
0.000124938
0.000121547
0.000124885
0.000122559
0.000122874
0.000125676
0.000118819
0.00012923
0.000115747
0.000129567
0.00011836
0.000125072
0.000124433
0.000120269
0.000125633
0.000123045
0.000120779
0.000126939
0.000121978
0.000118783
0.000133226
0.000111597
0.000132117
0.000124369
0.000110974
0.000134538
0.000114589
0.000119285
0.00013946
0.00010232
0.000135765
0.000124626
0.000107201
0.000163638
7.80017e-05
0.00018651
6.03482e-05
0.000173968
8.95005e-05
0.000105237
0.000204796
1.77398e-05
0.000158211
0.000154886
0.000152212
0.000149996
0.000148112
0.000146482
0.000145047
0.000143768
0.000142617
0.00014157
0.000140611
0.000139726
0.000138906
0.000138142
0.000137426
0.000136754
0.000136119
0.00013552
0.00013495
0.000134407
0.000133889
0.000133396
0.000132924
0.00013247
0.00013203
0.000131607
0.000131202
0.000130814
0.000130439
0.000130072
0.000129709
0.000129357
0.00012902
0.000128704
0.000128403
0.000128105
0.000127803
0.000127486
0.000127182
0.000126879
0.000126644
0.000126401
0.000126258
0.000126005
0.000125872
0.000125487
0.000125314
0.000124802
0.000124663
0.000124189
0.000124184
0.000123922
0.000124072
0.000124028
0.000124333
0.000124269
0.000124846
0.000124406
0.000125397
0.000124484
0.000125634
0.000124877
0.000125147
0.000125941
0.000123878
0.00012736
0.000122749
0.000127776
0.000123404
0.000126088
0.000125746
0.000123991
0.000126617
0.000124782
0.000124598
0.00012678
0.000124102
0.000125346
0.000126249
0.000124682
0.000123893
0.000128962
0.000121291
0.00012455
0.000136312
0.000103318
0.000157943
8.91721e-05
0.000153168
0.000111869
0.000114483
0.000172294
5.87244e-05
0.000227966
2.90563e-05
0.000205031
8.12083e-05
0.000115767
0.000201494
3.44836e-05
0.000158211
0.000154886
0.000152212
0.000149996
0.000148113
0.000146482
0.000145047
0.000143768
0.000142617
0.00014157
0.000140611
0.000139726
0.000138906
0.000138142
0.000137426
0.000136753
0.000136119
0.000135519
0.000134949
0.000134406
0.000133888
0.000133395
0.000132923
0.000132468
0.000132029
0.000131605
0.0001312
0.000130812
0.000130437
0.000130069
0.000129708
0.000129354
0.000129018
0.000128701
0.000128402
0.000128105
0.000127806
0.000127491
0.000127188
0.000126889
0.000126653
0.000126423
0.000126279
0.000126054
0.000125912
0.000125575
0.000125367
0.000124923
0.00012471
0.000124321
0.000124212
0.000124042
0.000124078
0.000124131
0.000124296
0.000124403
0.000124697
0.000124672
0.000125053
0.000124923
0.000125186
0.000125224
0.000125073
0.000125567
0.000124842
0.000125848
0.000124698
0.000125859
0.000124955
0.000125305
0.00012581
0.000124304
0.000126719
0.000123749
0.000126649
0.000124623
0.000124734
0.000128024
0.000119812
0.000134265
0.000113646
0.000136946
0.000116957
0.000124773
0.000139832
9.78566e-05
0.000171232
7.35899e-05
0.000182165
7.67145e-05
0.000149961
0.000134768
8.13141e-05
0.000231278
2.33937e-05
0.000267068
2.53139e-05
0.000206425
8.81115e-05
0.000117772
0.00015821
0.000154882
0.000152205
0.000149985
0.000148097
0.000146461
0.00014502
0.000143735
0.000142576
0.000141522
0.000140554
0.000139661
0.000138831
0.000138055
0.000137329
0.000136643
0.000135997
0.000135382
0.000134799
0.00013424
0.000133707
0.000133197
0.000132707
0.000132235
0.00013178
0.000131337
0.000130914
0.000130506
0.000130117
0.000129733
0.000129364
0.000128997
0.000128653
0.000128321
0.000128028
0.000127748
0.000127486
0.000127213
0.000126938
0.00012666
0.000126457
0.000126318
0.000126337
0.000126375
0.00012652
0.000126502
0.000126498
0.000126201
0.000125914
0.000125429
0.000125011
0.000124579
0.000124203
0.000123938
0.000123711
0.000123538
0.000123532
0.000123327
0.000123508
0.000123286
0.000123453
0.000123404
0.000123295
0.000123621
0.000123075
0.000123859
0.000122873
0.000123975
0.000122955
0.00012355
0.000123884
0.000122072
0.000125931
0.000119771
0.000127897
0.000118799
0.000126374
0.000123858
0.000117797
0.00013649
0.000105106
0.000145501
0.000102333
0.000136371
0.000122431
0.000109401
0.000160231
7.81461e-05
0.000193346
5.87056e-05
0.000187763
7.69267e-05
0.000136028
0.000152451
7.35043e-05
0.000235325
3.61661e-05
0.000262141
2.67299e-05
0.00022928
0.000158207
0.000154873
0.000152189
0.000149959
0.00014806
0.000146412
0.000144955
0.000143654
0.000142476
0.000141402
0.000140408
0.000139492
0.000138633
0.000137827
0.000137071
0.000136347
0.000135669
0.00013501
0.000134395
0.000133788
0.000133219
0.00013266
0.000132132
0.000131613
0.000131129
0.000130637
0.00013018
0.000129732
0.000129336
0.000128939
0.000128583
0.000128201
0.00012788
0.000127563
0.000127427
0.000127342
0.000127426
0.000127457
0.000127467
0.000127559
0.000128017
0.000129067
0.000130891
0.000133271
0.000135983
0.000138456
0.000140493
0.000141718
0.000142263
0.000142087
0.000141445
0.000140502
0.000139345
0.000138249
0.00013714
0.000136248
0.000135566
0.000134945
0.000134728
0.000134255
0.000134346
0.000133955
0.000134166
0.000133907
0.000133946
0.00013419
0.000133381
0.000134975
0.000132385
0.000135917
0.000131782
0.000135612
0.000133483
0.000132294
0.000138579
0.000126466
0.000143282
0.000124377
0.000139661
0.000134316
0.000126116
0.000150548
0.000113907
0.000155471
0.000115655
0.000144929
0.00013147
0.000126207
0.000158287
0.000103096
0.000185011
8.44463e-05
0.000185472
8.89046e-05
0.000160102
0.000122701
0.000128003
0.000170384
9.42982e-05
0.000215906
0.0001582
0.000154852
0.000152146
0.000149894
0.000147963
0.000146281
0.000144782
0.000143433
0.000142199
0.000141066
0.000139996
0.000139017
0.000138069
0.000137182
0.00013634
0.000135519
0.000134749
0.000133992
0.000133275
0.000132554
0.000131883
0.00013121
0.000130579
0.000129924
0.000129347
0.000128702
0.0001282
0.000127752
0.000127551
0.000127361
0.000127314
0.000127495
0.00012808
0.000129312
0.000131426
0.000134326
0.000137851
0.000141968
0.000146771
0.000152789
0.000160473
0.000169977
0.000180904
0.000192304
0.000203222
0.000212683
0.000220224
0.00022555
0.000228904
0.000230544
0.00023093
0.000230496
0.000229485
0.000228372
0.000227119
0.00022618
0.000225335
0.000224792
0.000224442
0.000224072
0.00022415
0.00022366
0.00022421
0.000223346
0.00022435
0.000223314
0.000223976
0.000224265
0.000222254
0.000226776
0.000219204
0.000229704
0.000217302
0.000229254
0.000221048
0.00022191
0.000231394
0.000211205
0.000239368
0.000208543
0.000234422
0.000219531
0.000220609
0.000233738
0.00020967
0.000242038
0.00020317
0.000245392
0.000203418
0.000236033
0.000222752
0.000209787
0.000252375
0.000182765
0.000276874
0.000171486
0.000272339
0.000184543
0.000241711
0.000222214
0.00015818
0.000154797
0.000152024
0.000149709
0.000147677
0.000145888
0.000144247
0.000142743
0.000141336
0.000140002
0.000138726
0.000137549
0.000136373
0.000135243
0.000134177
0.000133091
0.000132021
0.000130908
0.00012978
0.000128707
0.00012772
0.000126944
0.000126218
0.000125614
0.000125539
0.000125969
0.00012747
0.000130024
0.000133903
0.000138945
0.000145373
0.000153072
0.000162251
0.000172824
0.000184673
0.000197128
0.000209885
0.0002231
0.000237158
0.000250466
0.000262944
0.000276242
0.000289599
0.00030215
0.000313242
0.000322244
0.000328943
0.000333437
0.000336109
0.000337344
0.00033761
0.000337304
0.000336662
0.000335997
0.000335248
0.000334807
0.000334391
0.000334337
0.000334163
0.000334177
0.000334201
0.000334037
0.000334423
0.000333771
0.000334792
0.000333434
0.000335022
0.000333576
0.000334263
0.000335235
0.000331597
0.000338774
0.000327737
0.000342022
0.000326362
0.000340282
0.000331846
0.000331366
0.000342653
0.000321276
0.000349615
0.000319079
0.000346681
0.000325917
0.000337212
0.000337162
0.000324222
0.00035191
0.000309531
0.000363344
0.000305402
0.000356739
0.000321777
0.000333034
0.000349058
0.000307252
0.000371873
0.000291581
0.000378826
0.000295557
0.000158113
0.000154621
0.000151611
0.000149106
0.000146665
0.000144529
0.000142358
0.000140376
0.000138359
0.000136495
0.000134721
0.00013287
0.000130993
0.000129029
0.000127444
0.000125749
0.000124111
0.000122542
0.000121924
0.000122141
0.000123954
0.000127076
0.00013227
0.000138953
0.000147591
0.000157829
0.000169882
0.000183236
0.000197841
0.000213221
0.000228653
0.000241916
0.000255567
0.000269341
0.000282901
0.000295999
0.000308668
0.000321193
0.000333979
0.000347277
0.000360988
0.000374743
0.000387822
0.000399489
0.000409263
0.000416921
0.000422555
0.000426297
0.000428567
0.000429718
0.000430135
0.000430088
0.000429823
0.000429606
0.000429298
0.000429151
0.000428931
0.00042898
0.000428872
0.000428961
0.000428932
0.000428908
0.000429089
0.000428736
0.000429373
0.000428435
0.00042967
0.00042831
0.000429452
0.000429116
0.000427878
0.000431506
0.000424872
0.000434629
0.000422531
0.000435192
0.000424577
0.000430177
0.000431989
0.000421786
0.000439621
0.000416737
0.000441074
0.00041883
0.000435992
0.00042617
0.000426355
0.000438048
0.000412848
0.000451375
0.000403321
0.000454094
0.000408615
0.000440632
0.000427248
0.00041867
0.000450348
0.000397927
0.000466878
0.00038828
0.00015785
0.000153941
0.000150098
0.000146715
0.000142568
0.000139332
0.000135244
0.000131839
0.000128208
0.000126011
0.000123535
0.000120756
0.000118619
0.000117775
0.000118613
0.000121002
0.000125578
0.000131904
0.000140395
0.000150782
0.000163419
0.000177705
0.000193352
0.000209758
0.000227051
0.000242481
0.000257211
0.000271584
0.000285539
0.000299027
0.000312066
0.000324894
0.000337354
0.000349253
0.000360425
0.000370858
0.000380692
0.000390198
0.000399577
0.000408839
0.00041794
0.000426708
0.000433702
0.000439544
0.000444362
0.000448096
0.000450822
0.000452655
0.000453786
0.000454377
0.000454618
0.000454644
0.000454558
0.000454463
0.000454338
0.000454299
0.000454211
0.000454236
0.00045417
0.000454216
0.000454185
0.000454185
0.000454258
0.000454085
0.000454417
0.000453897
0.00045462
0.000453761
0.000454589
0.000454102
0.000453805
0.000455409
0.000452032
0.000457407
0.00045027
0.000458326
0.000450784
0.000456004
0.000454807
0.000450916
0.000459947
0.000446888
0.000462034
0.00044698
0.000459866
0.000450835
0.00045437
0.000458086
0.000445658
0.000467328
0.000437741
0.00047166
0.000438284
0.000465428
0.000449139
0.000451135
0.000465433
0.00043432
0.000481613
0.000422618
0.000156643
0.000151204
0.000143347
0.000134635
0.000126079
0.000120984
0.000115003
0.000112523
0.000112454
0.000114171
0.000117961
0.000123497
0.000130576
0.000139123
0.000149066
0.000160148
0.000172612
0.000186212
0.000201273
0.000217282
0.00023351
0.000246958
0.000259659
0.000271835
0.000283088
0.000294151
0.000302672
0.00031008
0.000316716
0.000322798
0.000328544
0.000333966
0.000339022
0.000343658
0.000347869
0.000351707
0.000355247
0.000358605
0.000361892
0.000365139
0.000368299
0.000371272
0.000373941
0.00037621
0.00037804
0.000379428
0.000380409
0.000381051
0.000381435
0.000381624
0.000381691
0.000381688
0.000381663
0.000381646
0.000381619
0.000381628
0.000381608
0.00038164
0.000381615
0.000381652
0.000381631
0.000381649
0.000381665
0.00038161
0.000381739
0.000381517
0.000381855
0.000381411
0.000381912
0.000381474
0.000381651
0.000382001
0.000380837
0.000383043
0.00037974
0.000383918
0.000379425
0.000383372
0.000380959
0.000380992
0.000383788
0.00037828
0.000385846
0.000377241
0.000385726
0.000378451
0.00038344
0.000381855
0.000378936
0.000387185
0.000373542
0.000391534
0.00037129
0.000390925
0.000374714
0.000385031
0.000382631
0.000376073
0.000392806
0.000367512
0.000151625
0.00013681
0.000113472
9.95296e-05
9.76008e-05
9.81176e-05
0.000110582
0.000115057
0.000121806
0.00012968
0.000137985
0.00014624
0.000154202
0.000161683
0.000168584
0.000174821
0.000180494
0.000185569
0.000190193
0.000194424
0.000198342
0.000202069
0.000205551
0.000208846
0.000211874
0.000214688
0.000217319
0.000219718
0.000221873
0.000223796
0.000225517
0.00022706
0.000228422
0.000229603
0.000230621
0.000231533
0.000232359
0.000233145
0.00023391
0.000234652
0.000235348
0.000235965
0.000236497
0.000236929
0.000237254
0.000237476
0.000237614
0.00023769
0.000237723
0.000237726
0.00023772
0.000237713
0.00023771
0.000237714
0.000237726
0.000237748
0.000237752
0.000237771
0.000237766
0.000237786
0.000237775
0.000237791
0.000237785
0.000237782
0.000237809
0.000237751
0.000237853
0.000237701
0.000237899
0.00023768
0.000237868
0.000237799
0.000237632
0.000238157
0.000237184
0.000238619
0.000236831
0.000238726
0.000237085
0.000238063
0.000238098
0.000236869
0.000239243
0.000235993
0.000239721
0.000235971
0.000239267
0.000236935
0.000237753
0.000238975
0.000235348
0.000241384
0.000233412
0.00024248
0.000233411
0.00024147
0.000235447
0.000238739
0.000239188
0.000235414
2.45431e-05
3.47523e-05
4.04102e-05
4.23028e-05
4.20135e-05
4.05609e-05
3.87139e-05
3.70558e-05
3.56099e-05
3.44452e-05
3.35767e-05
3.29759e-05
3.25985e-05
3.23852e-05
3.2287e-05
3.22581e-05
3.22698e-05
3.2298e-05
3.2331e-05
3.23649e-05
3.23935e-05
3.24259e-05
3.24613e-05
3.24998e-05
3.25395e-05
3.25764e-05
3.26139e-05
3.26505e-05
3.26849e-05
3.27159e-05
3.27426e-05
3.2764e-05
3.27795e-05
3.27889e-05
3.2794e-05
3.27967e-05
3.27984e-05
3.27998e-05
3.28013e-05
3.28024e-05
3.28019e-05
3.27991e-05
3.27941e-05
3.27877e-05
3.27804e-05
3.27731e-05
3.27662e-05
3.27602e-05
3.27558e-05
3.27527e-05
3.27508e-05
3.27501e-05
3.27504e-05
3.27517e-05
3.27535e-05
3.27554e-05
3.27565e-05
3.27579e-05
3.27582e-05
3.27594e-05
3.27591e-05
3.276e-05
3.27596e-05
3.27598e-05
3.27604e-05
3.27588e-05
3.27622e-05
3.27567e-05
3.27645e-05
3.27548e-05
3.27649e-05
3.27574e-05
3.27578e-05
3.27701e-05
3.27396e-05
3.27917e-05
3.27192e-05
3.28051e-05
3.27191e-05
3.27877e-05
3.27548e-05
3.2738e-05
3.28104e-05
3.26873e-05
3.28478e-05
3.26695e-05
3.28443e-05
3.26962e-05
3.27927e-05
3.27748e-05
3.26898e-05
3.28921e-05
3.25795e-05
3.29778e-05
3.25373e-05
3.29748e-05
3.25931e-05
3.28819e-05
3.27377e-05
3.2739e-05
0.000322004
0.000710493
0.00102487
0.00139585
0.00205151
0.00234245
0.00239955
0.00252311
0.00226773
0.00126451
0.00063674
0.000359901
0.000216085
0.000195099
0.000239747
0.000219531
0.000203837
0.000208906
0.000215044
0.000215143
0.000212924
0.000210662
0.000207518
0.00020247
0.000195838
0.000188842
0.000182538
0.000177206
0.000172463
0.000167751
0.000162738
0.000157455
0.000152203
0.000147357
0.000143162
0.000139624
0.000136591
0.000133946
0.000131694
0.000129894
0.000128559
0.000127651
0.000127095
0.000126784
0.000126619
0.000126535
0.000126493
0.000126472
0.000126462
0.000126457
0.000126454
0.000126453
0.000126453
0.000126452
0.000126452
0.000126452
0.000126452
0.000126452
0.000126452
0.000126452
0.000126452
0.000126452
0.000126452
0.000126452
0.000126452
0.000126452
0.000126452
0.000126452
0.000126452
0.000126452
0.000126452
0.000126452
0.000126451
0.000126453
0.00012645
0.000126453
0.00012645
0.000126453
0.00012645
0.000126453
0.00012645
0.000126454
0.00012645
0.000126454
0.00012645
0.000126454
0.000126449
0.000126455
0.000126449
0.000126455
0.000126449
0.000126455
0.000126448
0.000126455
0.000126447
0.000126454
0.000126446
0.000126452
0.000126444
0.000126452
0.000171221
0.000512295
0.000849105
0.00111482
0.00173723
0.00201563
0.00211927
0.00242489
0.00180147
0.000898679
0.000429867
0.000269092
0.000210208
0.000199326
0.000212276
0.000212044
0.000204237
0.000203106
0.000203573
0.000202141
0.000200735
0.000199946
0.000198392
0.000194977
0.000189882
0.000184131
0.000178718
0.000174024
0.000169808
0.000165579
0.000161001
0.000156066
0.000151055
0.000146352
0.000142244
0.000138798
0.000135905
0.000133441
0.000131374
0.000129731
0.000128508
0.000127659
0.000127125
0.000126819
0.000126653
0.000126566
0.000126522
0.000126499
0.000126487
0.000126482
0.000126479
0.000126477
0.000126476
0.000126476
0.000126476
0.000126476
0.000126476
0.000126476
0.000126476
0.000126476
0.000126476
0.000126476
0.000126476
0.000126476
0.000126476
0.000126475
0.000126476
0.000126475
0.000126476
0.000126476
0.000126475
0.000126476
0.000126475
0.000126477
0.000126474
0.000126477
0.000126474
0.000126477
0.000126474
0.000126478
0.000126473
0.000126478
0.000126473
0.000126479
0.000126473
0.000126479
0.000126472
0.000126479
0.000126472
0.00012648
0.000126471
0.00012648
0.000126471
0.00012648
0.00012647
0.00012648
0.00012647
0.00012648
0.00012647
0.000126487
0.000241226
0.000320442
0.000622
0.00076135
0.00134325
0.00159767
0.00173083
0.0019687
0.00124934
0.000548361
0.00024131
0.000215053
0.000189622
0.000184361
0.000207715
0.000208864
0.000204962
0.000202031
0.000199489
0.000196881
0.000195429
0.000194812
0.000193532
0.000190595
0.000186104
0.000180911
0.000175922
0.000171557
0.00016765
0.000163749
0.000159493
0.000154831
0.000150013
0.000145425
0.00014139
0.000138029
0.000135276
0.000132999
0.000131119
0.000129622
0.000128492
0.000127696
0.00012718
0.000126872
0.000126699
0.000126605
0.000126555
0.000126529
0.000126515
0.000126508
0.000126505
0.000126503
0.000126502
0.000126501
0.000126501
0.000126501
0.000126501
0.000126501
0.000126501
0.000126501
0.000126501
0.000126501
0.000126501
0.000126501
0.000126501
0.000126501
0.000126501
0.000126501
0.000126501
0.000126501
0.0001265
0.000126502
0.000126499
0.000126503
0.000126499
0.000126503
0.000126498
0.000126503
0.000126498
0.000126504
0.000126498
0.000126504
0.000126497
0.000126505
0.000126497
0.000126505
0.000126496
0.000126506
0.000126495
0.000126507
0.000126495
0.000126507
0.000126494
0.000126508
0.000126494
0.000126509
0.000126495
0.000126513
0.0001265
0.000126529
0.000382647
0.000273428
0.000536816
0.000376459
0.000883218
0.00107453
0.00126204
0.00135545
0.000669446
0.000232486
0.000141595
0.0002656
0.000190746
0.000170404
0.000175754
0.000188501
0.000195385
0.000197308
0.000195984
0.000193905
0.000192747
0.000192123
0.000190768
0.000187891
0.000183588
0.000178601
0.000173775
0.000169551
0.000165821
0.000162151
0.000158149
0.000153714
0.000149057
0.000144563
0.000140584
0.000137297
0.000134675
0.000132581
0.000130886
0.000129533
0.000128498
0.000127756
0.00012726
0.00012695
0.000126767
0.000126663
0.000126605
0.000126573
0.000126557
0.000126548
0.000126543
0.000126541
0.00012654
0.000126539
0.000126539
0.000126538
0.000126538
0.000126538
0.000126538
0.000126538
0.000126538
0.000126538
0.000126538
0.000126538
0.000126538
0.000126538
0.000126538
0.000126538
0.000126538
0.000126538
0.000126538
0.000126539
0.000126537
0.000126541
0.000126536
0.000126541
0.000126535
0.000126541
0.000126535
0.000126542
0.000126534
0.000126543
0.000126533
0.000126543
0.000126533
0.000126544
0.000126532
0.000126545
0.000126531
0.000126546
0.000126531
0.000126547
0.00012653
0.000126548
0.00012653
0.000126551
0.000126532
0.000126558
0.000126543
0.000126585
0.000394875
0.000332394
0.000503847
0.000244504
0.000547703
0.000539305
0.000763273
0.000612546
0.000165786
0.000117774
0.000214146
0.000309411
0.000184293
0.000135585
0.00014621
0.000164894
0.000179921
0.000188442
0.000190842
0.000190622
0.000190235
0.000189816
0.000188509
0.000185724
0.00018156
0.000176695
0.000171947
0.000167798
0.000164194
0.00016072
0.000156949
0.00015272
0.000148204
0.000143782
0.000139837
0.000136595
0.00013407
0.00013213
0.000130611
0.000129407
0.000128483
0.000127809
0.000127343
0.000127036
0.000126843
0.000126728
0.000126661
0.000126623
0.000126603
0.000126592