/*--------------------------------*- C++ -*----------------------------------*\
| =========                 |                                                 |
| \\      /  F ield         | OpenFOAM: The Open Source CFD Toolbox           |
|  \\    /   O peration     | Version:  v2012                                 |
|   \\  /    A nd           | Website:  www.openfoam.com                      |
|    \\/     M anipulation  |                                                 |
\*---------------------------------------------------------------------------*/
FoamFile
{
    version     2.0;
    format      ascii;
    class       volScalarField;
    location    "0.086";
    object      p;
}
// * * * * * * * * * * * * * * * * * * * * * * * * * * * * * * * * * * * * * //

dimensions      [0 2 -2 0 0 0 0];


internalField   nonuniform List<scalar> 
5600
(
-1.07655
-1.53469
-1.91508
-2.23365
-2.54455
-2.85481
-3.1561
-3.43782
-3.70097
-3.95105
-4.18765
-4.41234
-4.62679
-4.83303
-5.0333
-5.22911
-5.42148
-5.61115
-5.79829
-5.98326
-6.1661
-6.34638
-6.52423
-6.7004
-6.87507
-7.04869
-7.22098
-7.39227
-7.56298
-7.73334
-7.90313
-8.07207
-8.24016
-8.40781
-8.57481
-8.7413
-8.90711
-9.0722
-9.23693
-9.40103
-9.56449
-9.72758
-9.89008
-10.052
-10.2124
-10.3713
-10.528
-10.6831
-10.8359
-10.9874
-11.1377
-11.2869
-11.4357
-11.5839
-11.7313
-11.8791
-12.0261
-12.1741
-12.3214
-12.4697
-12.6173
-12.7652
-12.9139
-13.0607
-13.2111
-13.3564
-13.5076
-13.6532
-13.8027
-13.9519
-14.0965
-14.2501
-14.3917
-14.547
-14.6895
-14.8405
-14.9896
-15.1341
-15.2883
-15.4291
-15.5861
-15.7245
-15.8814
-16.0249
-16.1731
-16.3281
-16.4642
-16.6296
-16.7559
-16.9246
-17.0617
-17.2108
-17.3721
-17.498
-17.6731
-17.7846
-17.9602
-18.0672
-18.1727
-18.1749
-1.13559
-1.55487
-1.93169
-2.25146
-2.56254
-2.87314
-3.17436
-3.45634
-3.71985
-3.96997
-4.2068
-4.43178
-4.64658
-4.85319
-5.05381
-5.24994
-5.4426
-5.63252
-5.81983
-6.00487
-6.18791
-6.36831
-6.54621
-6.7225
-6.89731
-7.07105
-7.24344
-7.41481
-7.58561
-7.75606
-7.92593
-8.09495
-8.26307
-8.43075
-8.59779
-8.76431
-8.93016
-9.09527
-9.26003
-9.42415
-9.58765
-9.75075
-9.91329
-10.0752
-10.2357
-10.3946
-10.5514
-10.7065
-10.8593
-11.0108
-11.161
-11.3101
-11.459
-11.6071
-11.7545
-11.9022
-12.0493
-12.1972
-12.3446
-12.4928
-12.6406
-12.7884
-12.9372
-13.0839
-13.2343
-13.3797
-13.5306
-13.6767
-13.8256
-13.9754
-14.1196
-14.2733
-14.4154
-14.5695
-14.7134
-14.863
-15.0132
-15.1572
-15.3114
-15.4528
-15.6086
-15.7487
-15.9037
-16.0489
-16.1959
-16.3516
-16.488
-16.6514
-16.7812
-16.9455
-17.0872
-17.2336
-17.3954
-17.5222
-17.6945
-17.8097
-17.9814
-18.0894
-18.2001
-18.1886
-1.17383
-1.5675
-1.94443
-2.26483
-2.57375
-2.88185
-3.18198
-3.46357
-3.72682
-3.97664
-4.21318
-4.43826
-4.65308
-4.85967
-5.06032
-5.25647
-5.44916
-5.63908
-5.82639
-6.01146
-6.19449
-6.37493
-6.55302
-6.72929
-6.90408
-7.07778
-7.25011
-7.42146
-7.59219
-7.76257
-7.93238
-8.10131
-8.2695
-8.4372
-8.60422
-8.77073
-8.93654
-9.10162
-9.26635
-9.43042
-9.59387
-9.75695
-9.91944
-10.0814
-10.2417
-10.4006
-10.5574
-10.7124
-10.8654
-11.0171
-11.1675
-11.3168
-11.4657
-11.6139
-11.7614
-11.9091
-12.0562
-12.2041
-12.3515
-12.4996
-12.6474
-12.7952
-12.944
-13.0907
-13.2411
-13.3866
-13.5373
-13.6836
-13.8323
-13.9822
-14.1265
-14.28
-14.4223
-14.5761
-14.7205
-14.8696
-15.0201
-15.1639
-15.3181
-15.4596
-15.6151
-15.7558
-15.9102
-16.0559
-16.2023
-16.3582
-16.4947
-16.6576
-16.7886
-16.951
-17.0945
-17.2388
-17.4019
-17.53
-17.6996
-17.8198
-17.9844
-18.1045
-18.2004
-18.2373
-1.22255
-1.58398
-1.95981
-2.28169
-2.58931
-2.89649
-3.19699
-3.4792
-3.74308
-3.99324
-4.23034
-4.45543
-4.67073
-4.87753
-5.07822
-5.27431
-5.46682
-5.65652
-5.84354
-6.02829
-6.21116
-6.39151
-6.56963
-6.74596
-6.92091
-7.09486
-7.26757
-7.43925
-7.61023
-7.78081
-7.9508
-8.11988
-8.28808
-8.45585
-8.62296
-8.78955
-8.95545
-9.12064
-9.28545
-9.44961
-9.61318
-9.77638
-9.93903
-10.1011
-10.2618
-10.4209
-10.5779
-10.7332
-10.8861
-11.0376
-11.1875
-11.3367
-11.4855
-11.6335
-11.781
-11.9286
-12.0757
-12.2237
-12.3711
-12.5192
-12.6671
-12.8148
-12.9636
-13.1105
-13.2605
-13.4066
-13.5565
-13.7038
-13.8517
-14.0019
-14.1466
-14.2988
-14.4432
-14.5946
-14.7411
-14.8889
-15.0398
-15.1843
-15.3368
-15.4809
-15.6333
-15.7769
-15.9288
-16.0765
-16.2223
-16.3771
-16.5173
-16.6741
-16.813
-16.9681
-17.1164
-17.2613
-17.4187
-17.5547
-17.7135
-17.8449
-17.9994
-18.128
-18.2288
-18.2829
-1.27218
-1.60111
-1.97556
-2.29988
-2.6059
-2.91225
-3.21245
-3.49448
-3.75837
-4.00834
-4.24567
-4.47052
-4.68601
-4.89304
-5.09393
-5.29019
-5.48287
-5.67271
-5.85987
-6.04473
-6.22754
-6.40794
-6.58601
-6.76221
-6.93702
-7.11076
-7.28325
-7.45475
-7.62553
-7.79599
-7.96589
-8.13489
-8.30317
-8.47103
-8.63821
-8.80484
-8.97072
-9.13588
-9.30066
-9.46474
-9.62826
-9.7914
-9.95404
-10.1161
-10.2767
-10.4356
-10.5925
-10.7476
-10.9004
-11.0521
-11.2026
-11.3521
-11.5009
-11.6491
-11.7968
-11.9442
-12.0915
-12.2393
-12.3868
-12.5348
-12.6827
-12.8304
-12.9791
-13.1263
-13.2757
-13.4226
-13.5716
-13.7196
-13.8671
-14.0173
-14.1626
-14.3135
-14.4596
-14.6093
-14.7573
-14.9042
-15.0552
-15.2003
-15.3513
-15.4973
-15.6476
-15.7935
-15.9435
-16.0925
-16.2378
-16.3913
-16.5338
-16.6869
-16.831
-16.9817
-17.1327
-17.2762
-17.4316
-17.5733
-17.7236
-17.8674
-18.0113
-18.1487
-18.2575
-18.3271
-1.3222
-1.62043
-1.99284
-2.32014
-2.62452
-2.92991
-3.22974
-3.51178
-3.77591
-4.02607
-4.26364
-4.48882
-4.70459
-4.9119
-5.11299
-5.30937
-5.50214
-5.692
-5.87919
-6.06411
-6.24671
-6.42711
-6.60523
-6.78149
-6.95636
-7.13016
-7.30267
-7.4742
-7.64504
-7.81537
-7.98526
-8.15422
-8.32247
-8.49021
-8.65727
-8.82382
-8.98964
-9.15477
-9.31953
-9.48346
-9.64698
-9.81026
-9.97301
-10.1352
-10.296
-10.4552
-10.6125
-10.7679
-10.921
-11.073
-11.2228
-11.372
-11.5209
-11.6689
-11.8167
-11.9639
-12.1113
-12.259
-12.4067
-12.5545
-12.7025
-12.8504
-12.9987
-13.1467
-13.2949
-13.4432
-13.5908
-13.7398
-13.8872
-14.0364
-14.184
-14.3316
-14.4812
-14.6279
-14.7776
-14.9246
-15.074
-15.222
-15.3693
-15.5195
-15.6656
-15.8148
-15.9627
-16.1122
-16.2595
-16.4086
-16.5588
-16.7026
-16.8545
-17.0003
-17.1522
-17.3007
-17.4476
-17.6001
-17.7385
-17.8923
-18.0315
-18.1685
-18.2919
-18.3793
-1.37162
-1.64225
-2.01192
-2.34243
-2.64535
-2.9497
-3.24923
-3.53136
-3.79566
-4.04595
-4.28363
-4.50906
-4.72491
-4.93237
-5.13358
-5.33006
-5.5229
-5.7128
-5.90002
-6.08494
-6.26755
-6.44798
-6.62615
-6.80245
-6.97738
-7.15115
-7.32369
-7.49524
-7.66617
-7.83641
-8.0063
-8.17529
-8.34355
-8.51128
-8.67834
-8.8449
-9.0107
-9.17581
-9.34061
-9.50445
-9.66787
-9.83121
-9.99393
-10.156
-10.3167
-10.4757
-10.6331
-10.7883
-10.9415
-11.093
-11.2436
-11.3928
-11.542
-11.6899
-11.8378
-11.9849
-12.1325
-12.28
-12.4278
-12.5756
-12.7235
-12.8716
-13.0193
-13.1682
-13.3154
-13.4647
-13.6117
-13.7608
-13.9086
-14.0565
-14.2061
-14.3515
-14.503
-14.6488
-14.7985
-14.9462
-15.0941
-15.2438
-15.3892
-15.5415
-15.6857
-15.8368
-15.9833
-16.133
-16.2814
-16.4274
-16.5818
-16.7217
-16.8768
-17.0211
-17.1729
-17.3213
-17.4665
-17.6217
-17.7576
-17.9165
-18.0543
-18.1896
-18.3284
-18.4406
-1.41859
-1.66674
-2.03334
-2.36689
-2.6686
-2.97196
-3.27129
-3.55347
-3.81789
-4.06828
-4.30606
-4.53169
-4.74763
-4.9553
-5.15665
-5.35325
-5.54618
-5.73612
-5.92339
-6.10831
-6.29093
-6.47135
-6.64952
-6.82587
-7.00081
-7.17457
-7.34714
-7.51872
-7.68966
-7.85991
-8.02976
-8.19877
-8.36705
-8.53478
-8.70187
-8.86839
-9.0342
-9.19932
-9.36408
-9.52803
-9.6915
-9.85478
-10.0175
-10.1794
-10.3401
-10.4992
-10.6566
-10.8118
-10.9654
-11.1169
-11.2674
-11.4166
-11.5655
-11.7137
-11.8613
-12.0086
-12.1561
-12.3036
-12.4515
-12.5992
-12.7471
-12.8953
-13.0429
-13.1919
-13.339
-13.4883
-13.6354
-13.7842
-13.9325
-14.0799
-14.2299
-14.3754
-14.5264
-14.6728
-14.8218
-14.97
-15.1176
-15.2672
-15.4132
-15.5649
-15.7096
-15.8606
-16.0072
-16.1564
-16.3052
-16.451
-16.6052
-16.7466
-16.9002
-17.0458
-17.1958
-17.3449
-17.491
-17.6448
-17.7843
-17.9402
-18.0816
-18.2173
-18.3677
-18.5067
-1.46157
-1.6938
-2.05769
-2.39367
-2.6945
-2.99703
-3.29623
-3.57844
-3.84292
-4.09342
-4.33128
-4.55709
-4.77309
-4.98091
-5.18236
-5.37904
-5.57201
-5.76198
-5.94926
-6.13418
-6.3168
-6.49718
-6.67536
-6.85175
-7.02673
-7.20047
-7.37305
-7.54466
-7.71563
-7.88592
-8.05571
-8.22472
-8.39302
-8.56075
-8.72785
-8.89435
-9.06016
-9.22531
-9.39004
-9.55406
-9.71751
-9.88072
-10.0435
-10.2054
-10.366
-10.5251
-10.6824
-10.8377
-10.991
-11.1427
-11.2931
-11.4425
-11.5914
-11.7397
-11.8872
-12.0346
-12.1821
-12.3296
-12.4775
-12.6252
-12.7731
-12.9212
-13.069
-13.2178
-13.3652
-13.5141
-13.6616
-13.8101
-13.9584
-14.106
-14.2555
-14.4018
-14.5519
-14.699
-14.8476
-14.9959
-15.1437
-15.2929
-15.4397
-15.5903
-15.7361
-15.8862
-16.0334
-16.1822
-16.3309
-16.4775
-16.6301
-16.7736
-16.9251
-17.0721
-17.2214
-17.3707
-17.5176
-17.6699
-17.812
-17.9652
-18.111
-18.2517
-18.4092
-18.573
-1.49875
-1.72299
-2.08554
-2.42294
-2.72324
-3.02532
-3.32449
-3.60666
-3.87118
-4.12177
-4.35966
-4.58557
-4.80161
-5.0095
-5.21101
-5.40773
-5.60074
-5.79073
-5.97803
-6.16298
-6.34558
-6.52592
-6.70412
-6.88055
-7.05553
-7.22926
-7.40185
-7.57346
-7.74446
-7.91478
-8.08451
-8.25352
-8.42185
-8.58958
-8.7567
-8.92317
-9.08899
-9.25417
-9.41885
-9.58293
-9.74639
-9.90955
-10.0724
-10.2343
-10.3948
-10.5539
-10.7112
-10.8665
-11.02
-11.1718
-11.3221
-11.4714
-11.6202
-11.7686
-11.9161
-12.0635
-12.211
-12.3585
-12.5063
-12.6541
-12.802
-12.9501
-13.098
-13.2465
-13.3942
-13.5428
-13.6906
-13.839
-13.9873
-14.1351
-14.2842
-14.4312
-14.5805
-14.7281
-14.8765
-15.0248
-15.1728
-15.3216
-15.4689
-15.6187
-15.7655
-15.9148
-16.0626
-16.2111
-16.3598
-16.5069
-16.6583
-16.8034
-16.9536
-17.1014
-17.2504
-17.3998
-17.5472
-17.6983
-17.843
-17.9958
-18.1439
-18.2898
-18.4541
-18.6396
-1.52611
-1.75228
-2.11596
-2.45329
-2.75347
-3.0557
-3.35495
-3.63699
-3.90151
-4.15216
-4.39003
-4.61594
-4.83195
-5.03984
-5.24136
-5.43809
-5.6311
-5.82109
-6.00839
-6.19336
-6.37594
-6.55623
-6.73441
-6.91086
-7.08586
-7.25957
-7.43215
-7.60376
-7.77479
-7.94513
-8.11482
-8.28383
-8.45217
-8.61989
-8.78703
-8.95349
-9.11932
-9.28453
-9.44915
-9.6133
-9.77675
-9.93987
-10.1027
-10.2646
-10.4251
-10.5842
-10.7415
-10.8968
-11.0502
-11.2019
-11.3523
-11.5016
-11.6505
-11.7988
-11.9464
-12.0937
-12.2412
-12.3888
-12.5366
-12.6844
-12.8323
-12.9803
-13.1283
-13.2767
-13.4246
-13.573
-13.7209
-13.8692
-14.0175
-14.1654
-14.3142
-14.4616
-14.6105
-14.7585
-14.9067
-15.055
-15.2031
-15.3517
-15.4994
-15.6486
-15.7959
-15.9449
-16.0929
-16.2413
-16.39
-16.5375
-16.6879
-16.8341
-16.9835
-17.1318
-17.2807
-17.4299
-17.5777
-17.7281
-17.8743
-18.0264
-18.1776
-18.3292
-18.5
-18.7023
-1.5409
-1.77893
-2.14603
-2.48176
-2.78225
-3.08523
-3.38467
-3.66649
-3.93097
-4.18167
-4.41944
-4.64526
-4.86118
-5.06899
-5.27045
-5.46716
-5.66014
-5.85011
-6.03739
-6.22239
-6.40494
-6.58517
-6.76333
-6.93978
-7.1148
-7.28851
-7.46107
-7.63265
-7.80373
-7.97407
-8.14374
-8.31275
-8.48109
-8.64881
-8.81598
-8.98241
-9.14825
-9.31348
-9.47804
-9.64226
-9.80568
-9.96874
-10.1316
-10.2935
-10.4541
-10.6132
-10.7704
-10.9257
-11.0792
-11.2309
-11.3812
-11.5305
-11.6794
-11.8278
-11.9754
-12.1227
-12.2701
-12.4177
-12.5654
-12.7133
-12.8612
-13.0092
-13.1572
-13.3055
-13.4535
-13.6018
-13.7499
-13.8981
-14.0464
-14.1944
-14.343
-14.4907
-14.6393
-14.7874
-14.9356
-15.0839
-15.2321
-15.3805
-15.5285
-15.6774
-15.825
-15.9738
-16.1218
-16.2702
-16.4188
-16.5667
-16.7164
-16.8634
-17.0123
-17.1608
-17.3098
-17.4587
-17.6072
-17.757
-17.9048
-18.0574
-18.2097
-18.3661
-18.5425
-18.7564
-1.54461
-1.8025
-2.17407
-2.50711
-2.80831
-3.1124
-3.41209
-3.69363
-3.95806
-4.20878
-4.44642
-4.67208
-4.88787
-5.09554
-5.29689
-5.49355
-5.68648
-5.87644
-6.06368
-6.24873
-6.43124
-6.6114
-6.78953
-6.96597
-7.14099
-7.31469
-7.48722
-7.65876
-7.82988
-8.00022
-8.16987
-8.33889
-8.50722
-8.67492
-8.84213
-9.00854
-9.17441
-9.33965
-9.50417
-9.66844
-9.83186
-9.99485
-10.1577
-10.3196
-10.4803
-10.6394
-10.7967
-10.952
-11.1054
-11.2571
-11.4073
-11.5566
-11.7054
-11.8538
-12.0014
-12.1487
-12.2961
-12.4437
-12.5914
-12.7393
-12.8872
-13.0352
-13.1832
-13.3315
-13.4795
-13.6278
-13.7759
-13.9241
-14.0724
-14.2205
-14.3689
-14.5168
-14.6652
-14.8134
-14.9616
-15.1098
-15.2582
-15.4063
-15.5546
-15.7032
-15.8511
-15.9998
-16.1478
-16.2963
-16.4446
-16.593
-16.742
-16.8898
-17.0381
-17.1868
-17.3359
-17.4844
-17.6336
-17.7827
-17.9316
-18.0832
-18.2386
-18.3986
-18.5797
-18.8011
-1.53953
-1.82382
-2.20004
-2.52976
-2.83201
-3.13737
-3.43736
-3.71856
-3.98291
-4.23363
-4.47112
-4.69658
-4.91224
-5.11974
-5.32094
-5.51752
-5.71038
-5.90031
-6.08752
-6.27261
-6.45508
-6.63519
-6.81328
-6.98972
-7.16474
-7.33841
-7.51091
-7.6824
-7.85357
-8.0239
-8.19354
-8.36256
-8.53088
-8.69855
-8.86579
-9.03215
-9.19807
-9.36325
-9.52779
-9.69206
-9.85544
-10.0184
-10.1813
-10.3433
-10.504
-10.6631
-10.8204
-10.9757
-11.129
-11.2807
-11.431
-11.5802
-11.7291
-11.8774
-12.025
-12.1724
-12.3198
-12.4673
-12.615
-12.7629
-12.9108
-13.0588
-13.2068
-13.3551
-13.5032
-13.6514
-13.7995
-13.9477
-14.096
-14.2441
-14.3924
-14.5405
-14.6888
-14.8371
-14.9852
-15.1335
-15.2818
-15.4299
-15.5784
-15.7266
-15.875
-16.0232
-16.1715
-16.3199
-16.4681
-16.6168
-16.7653
-16.9138
-17.0615
-17.2108
-17.3593
-17.5082
-17.6574
-17.8063
-17.9567
-18.1076
-18.2658
-18.4265
-18.6129
-18.8382
-1.5282
-1.84328
-2.22367
-2.54999
-2.85355
-3.16026
-3.46066
-3.74149
-4.00577
-4.25644
-4.49374
-4.71892
-4.9344
-5.14172
-5.34277
-5.53924
-5.73201
-5.9219
-6.10905
-6.29417
-6.47656
-6.65661
-6.83464
-7.01108
-7.18608
-7.35977
-7.53217
-7.7037
-7.8749
-8.04519
-8.21482
-8.38384
-8.55219
-8.71988
-8.88712
-9.05355
-9.21949
-9.38464
-9.54933
-9.71357
-9.87697
-10.04
-10.2029
-10.3651
-10.5258
-10.6848
-10.842
-10.9971
-11.1504
-11.302
-11.4521
-11.6014
-11.7501
-11.8984
-12.0459
-12.1933
-12.3407
-12.4883
-12.636
-12.7839
-12.9318
-13.0799
-13.2279
-13.3761
-13.5242
-13.6724
-13.8206
-13.9687
-14.117
-14.2651
-14.4135
-14.5615
-14.7098
-14.8582
-15.0061
-15.1547
-15.3027
-15.4511
-15.5994
-15.7475
-15.8962
-16.044
-16.1927
-16.3408
-16.4893
-16.6377
-16.7864
-16.9348
-17.0824
-17.2321
-17.38
-17.5297
-17.678
-17.8279
-17.9774
-18.128
-18.2884
-18.4505
-18.6414
-18.8688
-1.51267
-1.86126
-2.2449
-2.56816
-2.8731
-3.18104
-3.48191
-3.7624
-4.02669
-4.27729
-4.51448
-4.7394
-4.9546
-5.16168
-5.36267
-5.55901
-5.75177
-5.94155
-6.12879
-6.31394
-6.4963
-6.67626
-6.85422
-7.03061
-7.20554
-7.37922
-7.55157
-7.72321
-7.89437
-8.06471
-8.23437
-8.40343
-8.5719
-8.7397
-8.90704
-9.07358
-9.23953
-9.40476
-9.56952
-9.73372
-9.89711
-10.0601
-10.223
-10.385
-10.5456
-10.7045
-10.8617
-11.0167
-11.17
-11.3216
-11.4718
-11.6211
-11.7699
-11.9182
-12.0658
-12.2132
-12.3607
-12.5082
-12.6559
-12.8037
-12.9517
-13.0997
-13.2477
-13.3959
-13.5441
-13.6923
-13.8404
-13.9885
-14.1369
-14.2849
-14.4334
-14.5813
-14.7297
-14.878
-15.026
-15.1746
-15.3224
-15.4711
-15.619
-15.7675
-15.9159
-16.0639
-16.2126
-16.3605
-16.5094
-16.6573
-16.8065
-16.9543
-17.1026
-17.2517
-17.3999
-17.5498
-17.6975
-17.8485
-17.9973
-18.151
-18.3096
-18.4731
-18.6653
-18.8945
-1.49393
-1.87795
-2.26396
-2.58501
-2.89128
-3.20013
-3.5012
-3.78121
-4.04547
-4.29585
-4.53271
-4.75789
-4.97263
-5.17933
-5.38009
-5.57623
-5.76886
-5.95848
-6.14577
-6.3308
-6.51316
-6.69319
-6.87129
-7.04784
-7.22292
-7.39673
-7.56927
-7.74103
-7.91224
-8.08264
-8.25228
-8.42124
-8.58963
-8.75734
-8.92458
-9.09106
-9.25693
-9.42212
-9.58684
-9.75101
-9.9144
-10.0773
-10.2401
-10.402
-10.5625
-10.7213
-10.8782
-11.0331
-11.1862
-11.3376
-11.4877
-11.6368
-11.7855
-11.9338
-12.0814
-12.2287
-12.3761
-12.5237
-12.6714
-12.8193
-12.9672
-13.1153
-13.2633
-13.4115
-13.5596
-13.7078
-13.856
-14.0041
-14.1525
-14.3005
-14.449
-14.5969
-14.7453
-14.8935
-15.0416
-15.1902
-15.3379
-15.4868
-15.6345
-15.7832
-15.9314
-16.0795
-16.2282
-16.376
-16.5251
-16.6727
-16.8223
-16.9697
-17.1184
-17.2671
-17.4155
-17.5654
-17.7128
-17.8643
-18.0121
-18.1656
-18.3237
-18.492
-18.6849
-18.916
-1.47307
-1.89229
-2.27955
-2.59996
-2.90815
-3.21861
-3.52002
-3.79955
-4.06383
-4.31408
-4.55069
-4.77613
-4.99054
-5.1971
-5.39787
-5.59413
-5.78695
-5.97692
-6.16452
-6.3498
-6.53235
-6.71243
-6.89062
-7.06717
-7.24217
-7.41575
-7.58809
-7.75972
-7.93086
-8.10123
-8.27091
-8.43992
-8.60833
-8.77604
-8.94328
-9.10981
-9.2757
-9.44096
-9.60572
-9.76992
-9.93334
-10.0962
-10.2589
-10.4208
-10.5813
-10.7401
-10.8971
-11.0521
-11.2053
-11.3569
-11.5071
-11.6563
-11.8051
-11.9534
-12.1011
-12.2485
-12.3959
-12.5434
-12.6911
-12.839
-12.9869
-13.1349
-13.283
-13.4312
-13.5793
-13.7275
-13.8757
-14.0238
-14.1721
-14.3201
-14.4687
-14.6165
-14.765
-14.9131
-15.0613
-15.2098
-15.3576
-15.5065
-15.654
-15.803
-15.9509
-16.0993
-16.2478
-16.3957
-16.5448
-16.6923
-16.842
-16.9892
-17.1383
-17.2865
-17.4354
-17.585
-17.7326
-17.8843
-18.0321
-18.1875
-18.3447
-18.5128
-18.7041
-18.9357
-1.45847
-1.90687
-2.29179
-2.6095
-2.91851
-3.23075
-3.53267
-3.81166
-4.07611
-4.32636
-4.56286
-4.78791
-5.00214
-5.20859
-5.40925
-5.6054
-5.7981
-5.98794
-6.17542
-6.36053
-6.54277
-6.72244
-6.90043
-7.07677
-7.25164
-7.42511
-7.59725
-7.76877
-7.93982
-8.11012
-8.27972
-8.44862
-8.61693
-8.78456
-8.95173
-9.11818
-9.28399
-9.44916
-9.61385
-9.77799
-9.94134
-10.1042
-10.2668
-10.4287
-10.5891
-10.7478
-10.9047
-11.0595
-11.2126
-11.364
-11.5141
-11.6633
-11.812
-11.9602
-12.1079
-12.2552
-12.4026
-12.5501
-12.6979
-12.8457
-12.9937
-13.1417
-13.2898
-13.438
-13.5861
-13.7343
-13.8825
-14.0306
-14.1789
-14.3269
-14.4755
-14.6233
-14.7718
-14.9199
-15.0681
-15.2166
-15.3644
-15.5134
-15.6608
-15.8098
-15.9577
-16.1061
-16.2546
-16.4025
-16.5516
-16.6991
-16.8489
-16.9959
-17.1452
-17.2932
-17.4423
-17.5917
-17.7394
-17.891
-18.0384
-18.1936
-18.3503
-18.5205
-18.713
-18.9466
-1.428
-1.9217
-2.3154
-2.63365
-2.94286
-3.25561
-3.55829
-3.83631
-4.10108
-4.35144
-4.58783
-4.8127
-5.02672
-5.23287
-5.43327
-5.62919
-5.82171
-6.0114
-6.19878
-6.38382
-6.56609
-6.74582
-6.92378
-7.1001
-7.27491
-7.44837
-7.62051
-7.792
-7.96299
-8.13326
-8.30284
-8.47173
-8.64002
-8.80764
-8.9748
-9.14125
-9.30706
-9.47225
-9.63695
-9.80108
-9.96445
-10.1273
-10.2899
-10.4518
-10.6121
-10.7708
-10.9277
-11.0826
-11.2357
-11.3871
-11.5372
-11.6864
-11.8351
-11.9834
-12.1311
-12.2784
-12.4259
-12.5734
-12.7211
-12.869
-13.0169
-13.165
-13.313
-13.4612
-13.6093
-13.7575
-13.9057
-14.0538
-14.2021
-14.3502
-14.4987
-14.6465
-14.795
-14.9431
-15.0914
-15.2398
-15.3876
-15.5366
-15.684
-15.8331
-15.9808
-16.1294
-16.2778
-16.4257
-16.5748
-16.7223
-16.8721
-17.0191
-17.1685
-17.3163
-17.4657
-17.6148
-17.7628
-17.9141
-18.0619
-18.2171
-18.3739
-18.5439
-18.7354
-18.9684
-18.298
-19.6237
-20.9455
-21.4335
-21.7481
-21.6834
-21.2286
-20.0968
-18.17
-14.5481
-9.96277
-6.10715
-4.0894
-3.27631
-2.92736
-2.44627
-1.55306
-0.496377
0.36019
0.989406
1.4522
1.78498
2.01434
2.17292
2.28182
2.35682
2.40754
2.44011
2.45819
2.46349
2.45821
2.44492
2.42598
2.40244
2.37327
2.33869
2.30308
2.26602
2.23209
2.19976
2.16806
2.13347
2.09793
2.06357
2.02876
1.99373
1.95862
1.92339
1.88808
1.85272
1.81734
1.78194
1.74652
1.71111
1.67569
1.64027
1.60485
1.56943
1.53401
1.49859
1.46317
1.42775
1.39233
1.35691
1.32149
1.28607
1.25065
1.21523
1.17981
1.14439
1.10897
1.07355
1.03813
1.00271
0.967297
0.93188
0.896461
0.86104
0.825619
0.790199
0.75478
0.719359
0.683936
0.648511
0.613085
0.577655
0.542221
0.506774
0.471303
0.43579
0.400205
0.364499
0.328576
0.292287
0.255314
0.217284
0.177076
0.134395
0.0846646
0.0347695
-18.3647
-19.571
-20.8546
-21.353
-21.6472
-21.5999
-21.1195
-19.9626
-17.9876
-14.4519
-9.95936
-6.29092
-4.38248
-3.61672
-3.23181
-2.66652
-1.68157
-0.548223
0.354578
1.00245
1.46631
1.79302
2.0162
2.1696
2.27484
2.34736
2.39647
2.42806
2.44563
2.45073
2.44531
2.43192
2.41298
2.38935
2.35998
2.32541
2.2899
2.25341
2.21984
2.18735
2.1549
2.12058
2.08538
2.05082
2.01606
1.98102
1.94588
1.91065
1.87532
1.83995
1.80457
1.76916
1.73375
1.69834
1.66292
1.6275
1.59208
1.55666
1.52124
1.48582
1.4504
1.41498
1.37956
1.34414
1.30872
1.2733
1.23787
1.20246
1.16704
1.13162
1.0962
1.06078
1.02536
0.98994
0.954523
0.919106
0.883687
0.848266
0.812845
0.777425
0.742006
0.706586
0.671164
0.635739
0.600314
0.564886
0.529455
0.494014
0.458554
0.423061
0.38751
0.351863
0.316045
0.279937
0.243286
0.205796
0.16657
0.125362
0.078511
0.0314359
-18.4276
-19.5347
-20.7548
-21.2782
-21.5218
-21.4773
-20.9602
-19.7736
-17.7462
-14.3448
-9.91542
-6.48243
-4.70065
-3.99496
-3.57457
-2.91502
-1.82369
-0.603874
0.350489
1.01888
1.48339
1.80285
2.01876
2.16625
2.26734
2.33705
2.38432
2.41477
2.43177
2.43666
2.43111
2.41759
2.39864
2.37492
2.34531
2.31078
2.27531
2.23935
2.2063
2.17363
2.14046
2.10627
2.07149
2.03675
2.00197
1.96694
1.93179
1.89653
1.86119
1.82582
1.79043
1.75502
1.71961
1.68419
1.64878
1.61336
1.57794
1.54251
1.50709
1.47167
1.43625
1.40083
1.36541
1.33
1.29458
1.25915
1.22373
1.18831
1.15289
1.11748
1.08206
1.04664
1.01122
0.975797
0.940381
0.904963
0.869544
0.834123
0.798703
0.763283
0.727864
0.692444
0.657022
0.621598
0.586174
0.550749
0.515322
0.479887
0.444439
0.408967
0.373455
0.337875
0.302174
0.266269
0.229978
0.193092
0.154962
0.115405
0.0717558
0.0277976
-18.4965
-19.5181
-20.6816
-21.1953
-21.3873
-21.3094
-20.745
-19.5115
-17.4487
-14.164
-9.84662
-6.68404
-5.048
-4.41678
-3.96275
-3.19585
-1.98221
-0.665089
0.346455
1.03792
1.50319
1.81447
2.02207
2.16288
2.25927
2.32581
2.37098
2.40013
2.41649
2.42116
2.41547
2.40182
2.38284
2.35901
2.32917
2.2947
2.25916
2.22362
2.19124
2.15841
2.12449
2.09056
2.05611
2.02118
1.98638
1.95135
1.91617
1.8809
1.84554
1.81017
1.77477
1.73936
1.70395
1.66854
1.63312
1.5977
1.56228
1.52686
1.49144
1.45602
1.4206
1.38517
1.34976
1.31434
1.27892
1.2435
1.20807
1.17265
1.13724
1.10182
1.0664
1.03098
0.995557
0.960139
0.924722
0.889305
0.853885
0.818465
0.783044
0.747624
0.712205
0.676785
0.641364
0.605942
0.570519
0.535096
0.499673
0.464247
0.428812
0.393364
0.357894
0.322389
0.286819
0.251141
0.215252
0.17904
0.142132
0.104419
0.0643189
0.0238226
-18.5688
-19.5107
-20.605
-21.0996
-21.2449
-21.1017
-20.4675
-19.1624
-17.0655
-13.8475
-9.80325
-6.90526
-5.42691
-4.88733
-4.40414
-3.51427
-2.1602
-0.732984
0.342148
1.05975
1.52613
1.82827
2.02638
2.15956
2.25059
2.31354
2.35634
2.38402
2.39965
2.40408
2.39825
2.38444
2.36541
2.34145
2.31142
2.27699
2.24137
2.20605
2.1744
2.14154
2.10694
2.07327
2.03899
2.004
1.96916
1.93409
1.89889
1.86361
1.82824
1.79285
1.75744
1.72203
1.68662
1.6512
1.61578
1.58036
1.54494
1.50952
1.4741
1.43868
1.40326
1.36784
1.33242
1.297
1.26158
1.22616
1.19074
1.15532
1.1199
1.08448
1.04906
1.01364
0.978223
0.942804
0.907387
0.871969
0.83655
0.80113
0.765709
0.73029
0.694871
0.659451
0.62403
0.588609
0.553188
0.517768
0.48235
0.446932
0.411512
0.37609
0.340668
0.305246
0.269822
0.234395
0.198954
0.163492
0.12794
0.0922803
0.0561057
0.0194659
-18.6464
-19.503
-20.5121
-20.986
-21.081
-20.8563
-20.1304
-18.7257
-16.5627
-13.4507
-9.78661
-7.13853
-5.83683
-5.40921
-4.90341
-3.87476
-2.36031
-0.807886
0.33856
1.08548
1.55307
1.84475
2.03192
2.15633
2.24124
2.30014
2.34027
2.3663
2.38111
2.38529
2.37931
2.36532
2.34618
2.32207
2.29186
2.25748
2.22183
2.18652
2.15556
2.12276
2.08773
2.05414
2.01994
1.98503
1.95013
1.91499
1.87974
1.84442
1.80901
1.77364
1.73824
1.70283
1.66741
1.632
1.59658
1.56116
1.52574
1.49032
1.4549
1.41948
1.38406
1.34864
1.31322
1.2778
1.24238
1.20696
1.17154
1.13612
1.1007
1.06528
1.02986
0.99444
0.95902
0.923601
0.888184
0.852766
0.817347
0.781927
0.746507
0.711087
0.675668
0.640249
0.604828
0.569408
0.533989
0.498573
0.46316
0.427751
0.392347
0.356955
0.321587
0.286257
0.250994
0.215847
0.1809
0.14627
0.112219
0.0788361
0.0469953
0.0146593
-18.7216
-19.4938
-20.4105
-20.8546
-20.8885
-20.5663
-19.7322
-18.2145
-15.9828
-13.0427
-9.74871
-7.36612
-6.27628
-5.99047
-5.4679
-4.28039
-2.5841
-0.889701
0.337058
1.11669
1.58522
1.86463
2.03905
2.15329
2.23117
2.28548
2.32264
2.34683
2.36073
2.36464
2.35848
2.34425
2.32496
2.30066
2.27029
2.23595
2.20036
2.16501
2.13445
2.10177
2.06664
2.03292
1.99886
1.96403
1.92907
1.89387
1.8586
1.82329
1.7879
1.75245
1.71703
1.68161
1.64619
1.61078
1.57536
1.53994
1.50452
1.46909
1.43367
1.39825
1.36283
1.32741
1.29199
1.25657
1.22115
1.18573
1.15031
1.11489
1.07947
1.04406
1.00864
0.973216
0.937795
0.902377
0.866959
0.831541
0.796122
0.760702
0.725282
0.689862
0.654444
0.619024
0.583605
0.548186
0.512769
0.477356
0.441948
0.40655
0.371163
0.335803
0.300491
0.26526
0.230173
0.195329
0.160924
0.127205
0.0948025
0.0639251
0.0368592
0.00931791
-18.7965
-19.4875
-20.3039
-20.7052
-20.6706
-20.2417
-19.287
-17.6567
-15.3809
-12.6139
-9.67175
-7.58586
-6.75578
-6.64404
-6.10659
-4.73428
-2.83238
-0.977391
0.339108
1.15493
1.62408
1.88883
2.0482
2.15056
2.22029
2.2694
2.30327
2.32546
2.33838
2.34197
2.33558
2.32101
2.30151
2.27701
2.24648
2.21221
2.17673
2.14142
2.11083
2.07848
2.04336
2.00942
1.97552
1.94075
1.90569
1.8704
1.83505
1.79966
1.76416
1.72882
1.69342
1.65801
1.62259
1.58718
1.55176
1.51634
1.48092
1.4455
1.41008
1.37466
1.33923
1.30381
1.26839
1.23297
1.19755
1.16213
1.12671
1.09129
1.05587
1.02046
0.985037
0.949617
0.914197
0.878778
0.84336
0.807943
0.772524
0.737104
0.701684
0.666264
0.630846
0.595427
0.560008
0.524591
0.489177
0.453767
0.418366
0.38298
0.347614
0.312292
0.277046
0.24193
0.207041
0.172538
0.13873
0.106011
0.0754175
0.0472833
0.0254809
0.00327739
-18.8708
-19.4828
-20.1956
-20.5435
-20.4393
-19.9002
-18.8167
-17.0712
-14.7514
-12.155
-9.54848
-7.80064
-7.27724
-7.36693
-6.80761
-5.23291
-3.10655
-1.06903
0.348243
1.2011
1.67038
1.91803
2.05972
2.1482
2.20844
2.25172
2.28197
2.302
2.31388
2.31713
2.31039
2.29539
2.27557
2.25085
2.22016
2.18599
2.15069
2.1155
2.08452
2.05268
2.01758
1.98342
1.94965
1.915
1.87991
1.84462
1.8093
1.77397
1.73853
1.70299
1.66755
1.63212
1.5967
1.56128
1.52586
1.49043
1.45501
1.41959
1.38417
1.34875
1.31333
1.27791
1.24249
1.20707
1.17165
1.13623
1.10081
1.06539
1.02997
0.994552
0.959133
0.923713
0.888293
0.852874
0.817456
0.782038
0.746619
0.711199
0.67578
0.64036
0.604942
0.569523
0.534105
0.498689
0.463277
0.427871
0.392475
0.357099
0.321751
0.28646
0.251274
0.216265
0.18157
0.14741
0.114226
0.0825684
0.0539242
0.0287412
0.0127273
-0.00360043
-18.9407
-19.4798
-20.0914
-20.3779
-20.2013
-19.5501
-18.3292
-16.4556
-14.0782
-11.6501
-9.37972
-8.00215
-7.81061
-8.11969
-7.51399
-5.73968
-3.39463
-1.17058
0.368237
1.25985
1.72425
1.95273
2.07411
2.14645
2.19541
2.23205
2.25861
2.2764
2.28712
2.28985
2.28257
2.26706
2.24691
2.22196
2.19108
2.157
2.12195
2.08693
2.05538
2.02406
1.98907
1.95468
1.92089
1.88629
1.85104
1.81558
1.78013
1.74469
1.70916
1.67381
1.6384
1.60299
1.56757
1.53215
1.49674
1.46132
1.4259
1.39047
1.35505
1.31963
1.28421
1.24879
1.21337
1.17795
1.14253
1.10711
1.07169
1.03627
1.00085
0.965435
0.930016
0.894596
0.859176
0.823757
0.788339
0.752921
0.717502
0.682082
0.646663
0.611244
0.575825
0.540408
0.504991
0.469576
0.434168
0.398767
0.363381
0.328022
0.292702
0.257462
0.222364
0.187502
0.153054
0.119303
0.0868247
0.056324
0.0297987
0.00776764
-0.00185477
-0.0117561
-19.0022
-19.48
-19.9992
-20.2215
-19.9737
-19.2137
-17.851
-15.8381
-13.3992
-11.1139
-9.18502
-8.1605
-8.27376
-8.75854
-8.11947
-6.17263
-3.62415
-1.26981
0.39147
1.32896
1.78131
1.98891
2.0897
2.14557
2.18222
2.2109
2.23373
2.24979
2.25954
2.26153
2.25347
2.2373
2.21675
2.19151
2.16058
2.12659
2.0918
2.057
2.02492
1.99389
1.95916
1.92465
1.89088
1.85647
1.82132
1.78593
1.75059
1.71528
1.67954
1.64403
1.60858
1.57314
1.53771
1.50229
1.46687
1.43144
1.39602
1.3606
1.32518
1.28976
1.25434
1.21892
1.1835
1.14808
1.11266
1.07724
1.04182
1.0064
0.97098
0.935562
0.900142
0.864722
0.829303
0.793884
0.758465
0.723047
0.687628
0.652208
0.616789
0.58137
0.545952
0.510534
0.475118
0.439704
0.404297
0.368898
0.333515
0.298161
0.262851
0.227634
0.192579
0.157802
0.123521
0.0900901
0.0582335
0.0288117
0.004375
-0.0145961
-0.0175507
-0.0209854
-19.053
-19.4837
-19.9266
-20.091
-19.7812
-18.9252
-17.4327
-15.2824
-12.7762
-10.6065
-8.99014
-8.24672
-8.58528
-9.17148
-8.53849
-6.47064
-3.76594
-1.3234
0.423665
1.39489
1.8348
2.02167
2.10334
2.1444
2.17067
2.19192
2.21016
2.22426
2.23327
2.2346
2.22594
2.20923
2.18808
2.16254
2.1316
2.09768
2.06313
2.02856
1.99605
1.965
1.93054
1.89588
1.86186
1.82731
1.79196
1.75634
1.72086
1.68502
1.6499
1.61451
1.57909
1.54367
1.50825
1.47283
1.43741
1.40199
1.36657
1.33115
1.29572
1.2603
1.22488
1.18946
1.15404
1.11862
1.0832
1.04778
1.01236
0.976943
0.941524
0.906105
0.870686
0.835266
0.799847
0.764428
0.729009
0.69359
0.658172
0.622752
0.587334
0.551914
0.516497
0.48108
0.445665
0.410253
0.37485
0.339458
0.304087
0.268755
0.233477
0.198318
0.163363
0.12875
0.0947306
0.061704
0.0305119
0.00212118
-0.0203667
-0.0366652
-0.0332816
-0.0309482
-19.0945
-19.4896
-19.8731
-19.9893
-19.6282
-18.6926
-17.0904
-14.812
-12.2428
-10.1774
-8.81944
-8.28649
-8.74846
-9.3917
-8.77253
-6.64661
-3.84243
-1.32668
0.46339
1.44718
1.87857
2.04851
2.11325
2.14135
2.15923
2.17504
2.18963
2.2019
2.20985
2.21039
2.20122
2.18394
2.16206
2.13627
2.10552
2.07171
2.03733
2.0031
1.97025
1.93917
1.90506
1.87053
1.83657
1.80221
1.7671
1.73153
1.69607
1.66041
1.62491
1.58939
1.55392
1.51848
1.48305
1.44762
1.4122
1.37678
1.34136
1.30593
1.27051
1.23509
1.19967
1.16425
1.12883
1.09341
1.05799
1.02257
0.98715
0.951732
0.916313
0.880894
0.845474
0.810055
0.774635
0.739216
0.703797
0.668379
0.63296
0.597541
0.562122
0.526702
0.491285
0.455868
0.420453
0.38504
0.349637
0.314244
0.278871
0.243535
0.208253
0.173092
0.138138
0.103538
0.0695709
0.0366954
0.00587111
-0.0218208
-0.042754
-0.0570046
-0.0480021
-0.0410561
-19.1298
-19.4974
-19.8353
-19.9133
-19.5104
-18.5113
-16.8179
-14.4263
-11.804
-9.83661
-8.68411
-8.31414
-8.81615
-9.48901
-8.89333
-6.72657
-3.86342
-1.30958
0.494447
1.48285
1.90814
2.06531
2.11734
2.13559
2.1466
2.15815
2.17052
2.18159
2.18853
2.18835
2.17885
2.1613
2.13905
2.11276
2.08183
2.04822
2.01387
1.9797
1.94658
1.91525
1.88122
1.84642
1.81214
1.77739