/*--------------------------------*- C++ -*----------------------------------*\
| =========                 |                                                 |
| \\      /  F ield         | OpenFOAM: The Open Source CFD Toolbox           |
|  \\    /   O peration     | Version:  v2012                                 |
|   \\  /    A nd           | Website:  www.openfoam.com                      |
|    \\/     M anipulation  |                                                 |
\*---------------------------------------------------------------------------*/
FoamFile
{
    version     2.0;
    format      ascii;
    class       vectorField;
    location    "0.112/lagrangian/kinematicCloud";
    object      U;
}
// * * * * * * * * * * * * * * * * * * * * * * * * * * * * * * * * * * * * * //


54
(
(16.3303 -0.0414231 0)
(18.6807 -0.0648033 0)
(18.6132 -0.0532627 0)
(17.8881 -0.0527687 0)
(17.734 -0.0290602 0)
(18.6355 -0.0396464 0)
(11.2495 -1.70063e-05 0)
(16.6518 -0.00977563 0)
(16.7495 -0.00960908 0)
(18.3828 -0.0103735 0)
(18.7085 -0.014299 0)
(17.3796 0.00643214 0)
(13.8989 -0.00465631 0)
(13.8347 0.00387874 0)
(14.5615 -0.00538587 0)
(18.611 1.00004e-05 0)
(16.1136 0.00715525 0)
(15.0749 -0.00712397 0)
(17.3805 0.00870686 0)
(16.558 -0.0101396 0)
(17.8748 -0.0101782 0)
(15.4948 -0.00877968 0)
(17.6952 -0.010816 0)
(16.8175 0.00921683 0)
(18.1596 0.00533444 0)
(17.7385 -0.0108596 0)
(16.2875 0.00897405 0)
(17.1238 -0.0116488 0)
(14.4728 0.00616839 0)
(16.8923 -0.0117579 0)
(4.20708 -0.000254656 0)
(15.3218 0.00717723 0)
(12.7623 -0.0053985 0)
(17.9148 -0.0038949 0)
(17.3052 0.0102344 0)
(17.6188 -0.0111813 0)
(17.6129 0.00883382 0)
(17.7122 0.00623988 0)
(17.4905 -0.0115953 0)
(12.7628 0.00301696 0)
(17.354 0.0102955 0)
(17.4433 -0.0109195 0)
(17.0137 0.0116804 0)
(16.723 0.0118753 0)
(17.2457 0.0100665 0)
(17.3025 -0.00910776 0)
(16.4869 -0.0142416 0)
(17.2157 0.00103081 0)
(17.1386 0.00694118 0)
(16.7976 -0.014359 0)
(15.5164 0.0110508 0)
(16.9648 0.00750516 0)
(15.9032 -0.0143721 0)
(14.4494 0.00902511 0)
)


// ************************************************************************* //
