/*--------------------------------*- C++ -*----------------------------------*\
| =========                 |                                                 |
| \\      /  F ield         | OpenFOAM: The Open Source CFD Toolbox           |
|  \\    /   O peration     | Version:  v2012                                 |
|   \\  /    A nd           | Website:  www.openfoam.com                      |
|    \\/     M anipulation  |                                                 |
\*---------------------------------------------------------------------------*/
FoamFile
{
    version     2.0;
    format      ascii;
    class       Cloud<basicKinematicParcel>;
    location    "0.03/lagrangian/kinematicCloud";
    object      coordinates;
}
// * * * * * * * * * * * * * * * * * * * * * * * * * * * * * * * * * * * * * //

32
(
(0.424842 0.287579 0.281545 0.00603436) 324 449 1
(0.706659 0.044078 0.102593 0.146671) 823 1646 1
(0.429286 0.285357 0.0586669 0.22669) 1122 2244 2
(0.00355135 0.251845 0.498224 0.246379) 521 1043 2
(0.242422 0.126589 0.2522 0.378789) 1420 2641 2
(0.321746 0.339127 0.293956 0.0451711) 1119 2238 2
(0.343195 0.256931 0.0714712 0.328402) 16 32 1
(0.071561 0.46422 0.23972 0.2245) 1617 3234 2
(0.0880546 0.455973 0.0553286 0.400644) 1616 3232 2
(0.0749894 0.462505 0.0483883 0.414117) 716 1430 2
(0.287477 0.00100146 0.35526 0.356262) 815 1630 1
(0.0193937 0.0105922 0.479711 0.490303) 514 829 2
(0.279033 0.168284 0.360484 0.192199) 1813 3627 2
(0.186445 0.180387 0.226391 0.406778) 112 25 2
(0.0625043 0.468748 0.00322458 0.465523) 1812 3622 2
(0.41313 0.181432 0.293435 0.112003) 911 1820 1
(0.0379646 0.481018 0.381751 0.0992669) 310 421 1
(0.158839 0.420581 0.367588 0.0529927) 1809 3419 1
(0.600294 0.131263 0.0685901 0.199853) 508 817 2
(0.415602 0.256481 0.0357178 0.292199) 1608 3017 2
(0.6003 0.0545107 0.145339 0.19985) 1307 2415 2
(0.35352 0.168838 0.154402 0.32324) 1706 3412 1
(0.184416 0.257516 0.150276 0.407792) 1305 2610 1
(0.00581654 0.497092 0.309587 0.187504) 404 808 2
(0.288323 0.355838 0.0726886 0.28315) 804 1608 2
(0.170983 0.414508 0.143254 0.271254) 1304 2606 2
(0.548885 0.225557 0.0557885 0.169769) 303 604 2
(0.257952 0.371024 0.223174 0.147851) 1403 2807 1
(0.819955 0.0900223 0.0217712 0.0682511) 102 204 2
(0.667087 0.166457 0.11132 0.0551364) 1502 2805 1
(0.128878 0.24914 0.186421 0.435561) 1 22221 1
(0.239663 0.380169 0.114993 0.265176) 200 400 2
)


// ************************************************************************* //
