/*--------------------------------*- C++ -*----------------------------------*\
| =========                 |                                                 |
| \\      /  F ield         | OpenFOAM: The Open Source CFD Toolbox           |
|  \\    /   O peration     | Version:  v2012                                 |
|   \\  /    A nd           | Website:  www.openfoam.com                      |
|    \\/     M anipulation  |                                                 |
\*---------------------------------------------------------------------------*/
FoamFile
{
    version     2.0;
    format      ascii;
    class       vectorField;
    location    "0.03/lagrangian/kinematicCloud";
    object      U;
}
// * * * * * * * * * * * * * * * * * * * * * * * * * * * * * * * * * * * * * //


32
(
(20.824 -0.550536 0)
(22.0312 -0.391048 0)
(22.1544 -0.278197 0)
(21.9236 -0.490276 0)
(21.7155 -0.167335 0)
(22.478 -0.282586 0)
(18.3321 -0.253538 0)
(22.0289 -0.176357 0)
(21.7689 -0.114297 0)
(22.4137 -0.0914335 0)
(22.2901 -0.0865019 0)
(21.3753 -0.118169 0)
(8.5916 -0.00349156 0)
(13.3282 -0.393274 0)
(15.3048 -0.0289096 0)
(20.82 -0.209108 0)
(19.6642 -0.302475 0)
(19.3765 -0.0484873 0)
(19.7125 -0.220685 0)
(19.6655 -0.0673756 0)
(19.2695 -0.0731569 0)
(12.6618 -0.00527702 0)
(17.934 -0.0223122 0)
(17.0212 0.00598947 0)
(17.0264 0.000291824 0)
(16.1419 -0.00397268 0)
(15.1355 0.00431278 0)
(15.0782 -0.00370783 0)
(12.1446 0.0012647 0)
(14.0111 -0.00301347 0)
(10.3508 7.41463e-05 0)
(11.6711 0.000515767 0)
)


// ************************************************************************* //
