/*--------------------------------*- C++ -*----------------------------------*\
| =========                 |                                                 |
| \\      /  F ield         | OpenFOAM: The Open Source CFD Toolbox           |
|  \\    /   O peration     | Version:  v2012                                 |
|   \\  /    A nd           | Website:  www.openfoam.com                      |
|    \\/     M anipulation  |                                                 |
\*---------------------------------------------------------------------------*/
FoamFile
{
    version     2.0;
    format      ascii;
    class       vectorField;
    location    "0.03/lagrangian/kinematicCloud";
    object      UCorrect;
}
// * * * * * * * * * * * * * * * * * * * * * * * * * * * * * * * * * * * * * //


32
(
(0 0 0)
(0 0 0)
(5.61835e-28 1.16846e-31 0)
(0 0 0)
(0 0 0)
(5.90701e-28 1.89562e-31 0)
(0 0 0)
(0 0 0)
(0 0 0)
(0 0 0)
(0 0 0)
(2.50505e-31 -3.54866e-33 0)
(0 0 0)
(8.13225e-27 -7.2096e-30 0)
(5.87978e-27 2.02038e-29 0)
(0 0 0)
(4.61714e-31 -9.94566e-33 0)
(0 0 0)
(0 0 0)
(1.55366e-27 4.97365e-29 0)
(0 0 0)
(2.30117e-27 7.06617e-29 0)
(0 0 0)
(0 0 0)
(0 0 0)
(0 0 0)
(0 0 0)
(0 0 0)
(3.05967e-27 -9.19954e-29 0)
(2.89907e-32 8.28642e-34 0)
(0 0 0)
(3.67317e-33 -9.67358e-35 0)
)


// ************************************************************************* //
