/*--------------------------------*- C++ -*----------------------------------*\
| =========                 |                                                 |
| \\      /  F ield         | OpenFOAM: The Open Source CFD Toolbox           |
|  \\    /   O peration     | Version:  v2012                                 |
|   \\  /    A nd           | Website:  www.openfoam.com                      |
|    \\/     M anipulation  |                                                 |
\*---------------------------------------------------------------------------*/
FoamFile
{
    version     2.0;
    format      ascii;
    class       surfaceScalarField;
    location    "0.36";
    object      phi.air;
}
// * * * * * * * * * * * * * * * * * * * * * * * * * * * * * * * * * * * * * //

dimensions      [0 3 -1 0 0 0 0];
oriented        oriented;


internalField   nonuniform List<scalar> 
3672
(
0.0064006
7.14517e-06
0.00639136
8.99623e-06
0.00638142
9.68684e-06
0.00637056
1.06126e-05
0.0063586
1.17119e-05
0.00634559
1.27593e-05
0.00633129
1.40467e-05
0.00631578
1.52582e-05
0.00629637
1.91628e-05
2.80585e-05
0.00626806
0.00641089
4.26003e-06
0.00641309
6.79313e-06
0.00641555
7.2261e-06
0.00641823
7.93235e-06
0.00642104
8.90607e-06
0.00642399
9.8076e-06
0.00642694
1.10891e-05
0.00642967
1.25285e-05
0.00643129
1.75455e-05
2.48537e-05
0.0064345
0.00640988
2.38202e-06
0.00641223
4.44505e-06
0.00641473
4.71802e-06
0.00641752
5.14462e-06
0.00642056
5.87155e-06
0.00642375
6.60995e-06
0.00642716
7.68595e-06
0.00643042
9.26281e-06
0.0064346
1.33659e-05
1.84249e-05
0.00644103
0.00640936
1.0263e-06
0.00641175
2.05189e-06
0.00641429
2.17918e-06
0.00641704
2.39546e-06
0.00642008
2.82902e-06
0.00642335
3.34014e-06
0.00642686
4.1794e-06
0.00643058
5.54008e-06
0.00643542
8.52208e-06
1.19254e-05
0.00644192
0.00640916
-1.33129e-07
0.00641153
-3.17987e-07
0.00641408
-3.68048e-07
0.0064168
-3.30658e-07
0.00641985
-2.20072e-07
0.00642318
1.20089e-08
0.0064268
5.59745e-07
0.0064308
1.54157e-06
0.00643581
3.50706e-06
5.35648e-06
0.00644238
0.00640918
-1.30997e-06
0.00641156
-2.70308e-06
0.00641412
-2.92489e-06
0.00641686
-3.07022e-06
0.00641993
-3.29409e-06
0.00642331
-3.36794e-06
0.00642702
-3.15054e-06
0.00643117
-2.6108e-06
0.00643623
-1.55006e-06
-9.18204e-07
0.00644251
0.00640941
-2.72028e-06
0.00641185
-5.1427e-06
0.00641442
-5.49271e-06
0.00641721
-5.85951e-06
0.00642032
-6.40729e-06
0.00642374
-6.78915e-06
0.00642751
-6.92237e-06
0.00643175
-6.8458e-06
0.00643674
-6.54489e-06
-6.7483e-06
0.00644257
0.00640999
-4.70719e-06
0.0064124
-7.5559e-06
0.00641495
-8.04444e-06
0.00641781
-8.71402e-06
0.00642095
-9.55364e-06
0.0064244
-1.02353e-05
0.00642821
-1.0735e-05
0.00643249
-1.11202e-05
0.00643739
-1.14533e-05
-1.21458e-05
0.00644279
0.00641105
-7.76188e-06
0.00641334
-9.83864e-06
0.00641585
-1.05521e-05
0.00641858
-1.14513e-05
0.00642152
-1.24901e-05
0.00642469
-1.34058e-05
0.00642817
-1.42168e-05
0.00643204
-1.49858e-05
0.00643631
-1.57293e-05
-1.68101e-05
0.00644098
0.00640049
0.0063909
0.0063806
0.0063694
0.00635716
0.006344
0.00633004
0.0063153
0.00629982
0.00628326
0.00618912
0.000122524
-4.35877e-05
0.00598884
8.2613e-05
0.000117663
0.00572442
-0.000168605
0.000433026
0.00550756
-0.000541276
0.000758141
0.00535911
-0.000908015
0.00105646
0.00525263
-0.00120371
0.00131019
0.0051718
-0.0013793
0.00146013
0.00510269
-0.00142734
0.00149645
0.00503454
-0.0013747
0.00144285
0.00496657
-0.001255
0.00132297
0.00489906
-0.00110311
0.00117062
0.00483231
-0.000945515
0.00101226
0.00476689
-0.000798463
0.000863882
0.00470299
-0.000670503
0.000734398
0.00464111
-0.00056473
0.00062662
0.00458133
-0.000478566
0.000538337
0.00452405
-0.000408975
0.000466255
0.00447016
-0.000354201
0.000408095
0.00442028
-0.000311974
0.000361857
0.00437449
-0.000278659
0.000324448
0.00433253
-0.000250971
0.000292928
0.0042945
-0.000227914
0.000265946
0.00426049
-0.00020958
0.00024359
0.00423033
-0.000194895
0.000225055
0.00420356
-0.000182193
0.000208961
0.00418008
-0.000170686
0.000194162
0.00416
-0.000160689
0.000180769
0.00414288
-0.000152203
0.000169326
0.00412821
-0.000144847
0.000159522
0.0041156
-0.000138089
0.000150697
0.0041047
-0.000131738
0.000142635
0.00409526
-0.000125798
0.000135234
0.00408703
-0.000120304
0.000128544
0.00407972
-0.000115197
0.000122503
0.00407331
-0.000110567
0.000116973
0.00406777
-0.000106283
0.00011183
0.004063
-0.000102207
0.000106977
0.00405894
-9.83513e-05
0.000102404
0.00405556
-9.48182e-05
9.82039e-05
0.00405279
-9.16065e-05
9.43776e-05
0.0040506
-8.86881e-05
9.08775e-05
0.00404893
-8.59793e-05
8.76454e-05
0.00404769
-8.33507e-05
8.45964e-05
0.00404678
-8.07481e-05
8.16562e-05
0.00404618
-7.8261e-05
7.88617e-05
0.00404586
-7.5978e-05
7.62905e-05
0.00404582
-7.38989e-05
7.39432e-05
0.00404603
-7.1907e-05
7.17009e-05
0.00404646
-6.99473e-05
6.95094e-05
0.00404712
-6.80416e-05
6.73906e-05
0.00404797
-6.62583e-05
6.54075e-05
0.00404901
-6.46185e-05
6.35787e-05
0.00405023
-6.30994e-05
6.18767e-05
0.00405162
-6.16486e-05
6.02523e-05
0.00405318
-6.02285e-05
5.8676e-05
0.00405487
-5.88369e-05
5.71467e-05
0.00405668
-5.75006e-05
5.56905e-05
0.00405859
-5.62378e-05
5.43217e-05
0.00406061
-5.50613e-05
5.30455e-05
0.00406272
-5.39464e-05
5.18365e-05
0.00406491
-5.28615e-05
5.0669e-05
0.00406717
-5.1785e-05
4.95221e-05
0.0040695
-5.0752e-05
4.84244e-05
0.00407189
-4.97722e-05
4.73857e-05
0.00407433
-4.88593e-05
4.64172e-05
0.00407682
-4.79771e-05
4.54878e-05
0.00407935
-4.71277e-05
4.45958e-05
0.00408192
-4.62961e-05
4.37274e-05
0.00408452
-4.54903e-05
4.28916e-05
0.00408714
-4.47051e-05
4.2083e-05
0.00408978
-4.39544e-05
4.13135e-05
0.00409244
-4.32308e-05
4.05744e-05
0.00409511
-4.25357e-05
3.98674e-05
0.00409778
-4.18525e-05
3.91777e-05
0.00410046
-4.11843e-05
3.8508e-05
0.00410313
-4.05218e-05
3.78511e-05
0.00410579
-3.98799e-05
3.72173e-05
0.00410844
-3.92483e-05
3.65982e-05
0.00411108
-3.86375e-05
3.6002e-05
0.00411369
-3.80288e-05
3.54125e-05
0.00411629
-3.74332e-05
3.4839e-05
0.00411886
-3.68357e-05
3.42672e-05
0.0041214
-3.62541e-05
3.37132e-05
0.00412391
-3.56717e-05
3.31605e-05
0.00412639
-3.51052e-05
3.26245e-05
0.00412884
-3.45361e-05
3.2088e-05
0.00413125
-3.39825e-05
3.15676e-05
0.00413363
-3.3428e-05
3.1048e-05
0.00413598
-3.28932e-05
3.0548e-05
0.00413829
-3.23625e-05
3.0053e-05
0.00414056
-3.18593e-05
2.95848e-05
0.0041428
-3.13641e-05
2.91249e-05
0.00414501
-3.09199e-05
2.87136e-05
0.00414718
-3.04844e-05
2.83109e-05
0.00414933
-3.01954e-05
2.80474e-05
0.00415145
-2.98772e-05
2.77541e-05
0.00415358
-3.00394e-05
2.79134e-05
0.00415568
-2.99107e-05
2.7811e-05
0.00415787
-3.12141e-05
2.90192e-05
-3.11762e-05
2.92144e-05
0.00647836
7.8656e-05
0.00651174
4.92387e-05
0.00650174
-0.000158606
0.0064363
-0.000475832
0.00632498
-0.000796697
0.00617908
-0.00105782
0.00601662
-0.00121684
0.00585464
-0.00126536
0.00570342
-0.00122348
0.00556871
-0.00112029
0.00545278
-0.000987176
0.00535436
-0.000847097
0.00527075
-0.000714855
0.00519899
-0.000598739
0.00513592
-0.00050166
0.00507836
-0.000421008
0.00502375
-0.000354368
0.00497085
-0.0003013
0.00491919
-0.000260307
0.00486822
-0.000227692
0.00481794
-0.000200692
0.00476932
-0.000179291
0.0047231
-0.000163367
0.00467948
-0.000151268
0.0046384
-0.000141115
0.00459997
-0.000132256
0.00456452
-0.000125238
0.00453222
-0.000119907
0.0045029
-0.000115526
0.00447626
-0.000111447
0.00445197
-0.000107448
0.00442986
-0.000103693
0.00440983
-0.000100273
0.00439177
-9.71304e-05
0.00437545
-9.42468e-05
0.00436068
-9.15158e-05
0.00434732
-8.88466e-05
0.00433526
-8.62951e-05
0.0043244
-8.39558e-05
0.00431462
-8.18315e-05
0.00430578
-7.98483e-05
0.00429771
-7.7904e-05
0.00429032
-7.596e-05
0.00428357
-7.40039e-05
0.00427744
-7.21294e-05
0.0042719
-7.04308e-05
0.0042669
-6.89012e-05
0.00426241
-6.74173e-05
0.00425838
-6.59236e-05
0.0042548
-6.44592e-05
0.00425163
-6.30823e-05
0.00424882
-6.18156e-05
0.00424638
-6.06523e-05
0.00424426
-5.9532e-05
0.00424245
-5.84187e-05
0.00424091
-5.72974e-05
0.00423959
-5.61841e-05
0.00423848
-5.51239e-05
0.00423757
-5.41465e-05
0.00423684
-5.32225e-05
0.00423629
-5.23133e-05
0.00423591
-5.14018e-05
0.00423568
-5.0525e-05
0.00423559
-4.96793e-05
0.00423562
-4.88848e-05
0.00423575
-4.81122e-05
0.00423599
-4.73679e-05
0.00423633
-4.66303e-05
0.00423674
-4.59077e-05
0.00423723
-4.51922e-05
0.00423778
-4.45038e-05
0.00423838
-4.38338e-05
0.00423903
-4.31862e-05
0.00423972
-4.25411e-05
0.00424044
-4.19032e-05
0.00424118
-4.12632e-05
0.00424194
-4.06384e-05
0.00424271
-4.00192e-05
0.00424349
-3.94167e-05
0.00424427
-3.88118e-05
0.00424506
-3.82163e-05
0.00424583
-3.76146e-05
0.00424661
-3.70269e-05
0.00424737
-3.64365e-05
0.00424813
-3.5861e-05
0.00424887
-3.52812e-05
0.00424961
-3.47162e-05
0.00425033
-3.41489e-05
0.00425104
-3.36011e-05
0.00425173
-3.30567e-05
0.00425241
-3.254e-05
0.00425308
-3.20311e-05
0.00425373
-3.15739e-05
0.00425437
-3.11256e-05
0.004255
-3.08249e-05
0.00425563
-3.05004e-05
0.00425624
-3.06509e-05
0.00425686
-3.05288e-05
0.00425752
-3.18829e-05
-3.1734e-05
0.00647001
4.96756e-05
0.00650349
1.57557e-05
0.00650081
-0.000155926
0.00644848
-0.000423502
0.00634924
-0.000697458
0.00621162
-0.000920189
0.00605285
-0.00105807
0.00589067
-0.00110319
0.00573781
-0.00107062
0.00560297
-0.000985444
0.00548903
-0.000873235
0.00539504
-0.000753104
0.00531871
-0.00063853
0.00525765
-0.000537679
0.00520863
-0.00045264
0.0051684
-0.000380774
0.00513477
-0.00032074
0.00510655
-0.000273077
0.00508229
-0.000236053
0.00506008
-0.000205483
0.00503855
-0.000179155
0.00501705
-0.000157795
0.00499522
-0.00014154
0.0049727
-0.000128747
0.00494898
-0.000117396
0.00492374
-0.000107015
0.00489703
-9.85194e-05
0.00486925
-9.21324e-05
0.00484088
-8.71513e-05
0.00481226
-8.2834e-05
0.00478373
-7.89163e-05
0.00475563
-7.55914e-05
0.00472852
-7.31678e-05
0.00470291
-7.15172e-05
0.00467886
-7.02001e-05
0.00465633
-6.89865e-05
0.00463531
-6.78202e-05
0.00461578
-6.67663e-05
0.0045977
-6.58815e-05
0.00458099
-6.51206e-05
0.0045655
-6.43517e-05
0.00455107
-6.34785e-05
0.00453763
-6.25207e-05
0.00452514
-6.15162e-05
0.00451357
-6.05586e-05
0.00450287
-5.9731e-05
0.00449297
-5.89923e-05
0.00448378
-5.82335e-05
0.00447526
-5.74053e-05
0.00446734
-5.65349e-05
0.00445996
-5.57028e-05
0.0044531
-5.49555e-05
0.00444673
-5.42824e-05
0.00444082
-5.3625e-05
0.00443536
-5.2954e-05
0.0044303
-5.22429e-05
0.00442563
-5.15093e-05
0.00442131
-5.08054e-05
0.00441733
-5.01644e-05
0.00441366
-4.95529e-05
0.00441028
-4.89354e-05
0.00440717
-4.82899e-05
0.00440427
-4.76229e-05
0.00440154
-4.69574e-05
0.00439899
-4.63299e-05
0.0043966
-4.5719e-05
0.00439435
-4.51265e-05
0.00439225
-4.45216e-05
0.00439025
-4.3916e-05
0.00438836
-4.33e-05
0.00438656
-4.27014e-05
0.00438484
-4.21092e-05
0.00438318
-4.15303e-05
0.00438158
-4.09429e-05
0.00438003
-4.03544e-05
0.00437853
-3.97559e-05
0.00437705
-3.9168e-05
0.00437562
-3.85798e-05
0.0043742
-3.80051e-05
0.00437282
-3.74233e-05
0.00437145
-3.68494e-05
0.0043701
-3.62668e-05
0.00436877
-3.56972e-05
0.00436746
-3.51236e-05
0.00436616
-3.45645e-05
0.00436488
-3.40003e-05
0.00436362
-3.34507e-05
0.00436236
-3.28984e-05
0.00436113
-3.23657e-05
0.00435991
-3.18362e-05
0.0043587
-3.1334e-05
0.00435751
-3.08403e-05
0.00435633
-3.03964e-05
0.00435517
-2.99635e-05
0.00435402
-2.96736e-05
0.00435289
-2.93651e-05
0.00435176
-2.95207e-05
0.00435065
-2.9424e-05
0.0043495
-3.07295e-05
-3.06856e-05
0.0064645
2.71008e-05
0.00648861
-8.35578e-06
0.00648172
-0.000149034
0.00642849
-0.00037027
0.00633104
-0.000600008
0.00619799
-0.000787139
0.00604461
-0.000904693
0.0058873
-0.000945874
0.0057386
-0.000921927
0.00560655
-0.000853391
0.00549378
-0.000760466
0.00539977
-0.000659093
0.00532314
-0.000561897
0.00526172
-0.000476261
0.00521205
-0.000402972
0.00517118
-0.000339899
0.00513793
-0.000287494
0.00511162
-0.000246767
0.00509036
-0.000214789
0.00507198
-0.000187109
0.00505587
-0.000163041
0.00504263
-0.00014456
0.00503215
-0.000131061
0.0050229
-0.000119493
0.00501377
-0.000108271
0.00500507
-9.83069e-05
0.00499712
-9.05719e-05
0.00498954
-8.455e-05
0.00498172
-7.93337e-05
0.00497319
-7.43022e-05
0.00496359
-6.932e-05
0.00495286
-6.48637e-05
0.00494109
-6.13916e-05
0.00492831
-5.87416e-05
0.00491452
-5.64053e-05
0.00489964
-5.41143e-05
0.00488373
-5.19118e-05
0.00486698
-5.00163e-05
0.0048497
-4.85959e-05
0.00483219
-4.76138e-05
0.00481474
-4.68954e-05
0.00479753
-4.62676e-05
0.00478069
-4.56823e-05
0.0047644
-4.52281e-05
0.00474883
-4.49922e-05
0.00473405
-4.49482e-05
0.00472001
-4.49578e-05
0.00470668
-4.49006e-05
0.00469404
-4.4767e-05
0.00468211
-4.46009e-05
0.00467085
-4.44462e-05
0.00466022
-4.432e-05
0.00465012
-4.41887e-05
0.00464053
-4.4028e-05
0.0046314
-4.38269e-05
0.00462273
-4.3571e-05
0.00461452
-4.33063e-05
0.00460678
-4.30595e-05
0.00459945
-4.28333e-05
0.00459249
-4.25996e-05
0.00458589
-4.23296e-05
0.00457961
-4.20106e-05
0.00457362
-4.16372e-05
0.0045679
-4.12338e-05
0.00456241
-4.0836e-05
0.00455712
-4.04352e-05
0.00455202
-4.00235e-05
0.00454707
-3.95753e-05
0.00454226
-3.91037e-05
0.00453756
-3.86013e-05
0.00453297
-3.81044e-05
0.00452846
-3.76019e-05
0.00452403
-3.71046e-05
0.00451968
-3.65893e-05
0.00451539
-3.60678e-05
0.00451117
-3.55305e-05
0.004507
-3.50027e-05
0.00450289
-3.44725e-05
0.00449884
-3.39534e-05
0.00449485
-3.34283e-05
0.00449091
-3.29094e-05
0.00448702
-3.23822e-05
0.00448319
-3.18665e-05
0.00447942
-3.13473e-05
0.00447569
-3.08425e-05
0.00447203
-3.03332e-05
0.00446841
-2.98388e-05
0.00446486
-2.93417e-05
0.00446136
-2.8865e-05
0.00445791
-2.8391e-05
0.00445452
-2.79443e-05
0.00445119
-2.75068e-05
0.00444791
-2.71154e-05
0.00444468
-2.67386e-05
0.0044415
-2.6491e-05
0.00443838
-2.624e-05
0.00443525
-2.63966e-05
0.00443222
-2.63884e-05
0.00442904
-2.75547e-05
-2.78752e-05
0.00645963
9.85235e-06
0.00647551
-2.42334e-05
0.00646423
-0.000137754
0.00641073
-0.000316772
0.00631603
-0.000505311
0.00618843
-0.000659533
0.00604148
-0.000757749
0.00588973
-0.000794125
0.00574503
-0.000777219
0.00561516
-0.000723524
0.00550296
-0.000648268
0.00540877
-0.000564897
0.00533187
-0.000484996
0.00526974
-0.000414139
0.00521866
-0.00035189
0.0051766
-0.000297841
0.00514321
-0.000254098
0.00511688
-0.000220437
0.00509458
-0.000192487
0.00507484
-0.000167371
0.00505858
-0.000146781
0.00504615
-0.000132131
0.00503584
-0.000120752
0.005026
-0.000109649
0.00501686
-9.91365e-05
0.00500946
-9.08992e-05
0.00500385
-8.497e-05
0.00499919
-7.98913e-05
0.00499457
-7.47109e-05
0.00498987
-6.96021e-05
0.00498575
-6.51946e-05
0.00498259
-6.1703e-05
0.00498001
-5.88164e-05
0.00497747
-5.62e-05
0.00497462
-5.35533e-05
0.00497142
-5.09217e-05
0.00496806
-4.85505e-05
0.00496458
-4.6534e-05
0.00496084
-4.48599e-05
0.00495665
-4.34184e-05
0.00495176
-4.20035e-05
0.00494602
-4.05295e-05
0.00493942
-3.90873e-05
0.00493205
-3.78538e-05
0.00492399
-3.69322e-05
0.0049153
-3.62534e-05
0.00490597
-3.56337e-05
0.00489602
-3.4953e-05
0.00488552
-3.42674e-05
0.00487463
-3.37115e-05
0.00486354
-3.33471e-05
0.00485236
-3.31463e-05
0.0048412
-3.30234e-05
0.00483007
-3.29015e-05
0.00481899
-3.27447e-05
0.00480802
-3.2608e-05
0.00479725
-3.25268e-05
0.00478668
-3.24921e-05
0.00477631
-3.24692e-05
0.00476615
-3.24345e-05
0.00475618
-3.23653e-05
0.00474643
-3.2257e-05
0.00473691
-3.21186e-05
0.00472763
-3.19491e-05
0.00471855
-3.17547e-05
0.00470965
-3.15396e-05
0.00470092
-3.12941e-05
0.00469236
-3.10092e-05
0.00468394
-3.0688e-05
0.00467566
-3.03269e-05
0.00466752
-2.99635e-05
0.00465951
-2.95883e-05
0.00465162
-2.92141e-05
0.00464385
-2.88198e-05
0.0046362
-2.84166e-05
0.00462866
-2.79959e-05
0.00462125
-2.75846e-05
0.00461394
-2.7169e-05
0.00460676
-2.67655e-05
0.00459968
-2.63544e-05
0.00459272
-2.59497e-05
0.00458587
-2.55356e-05
0.00457914
-2.51333e-05
0.00457252
-2.47301e-05
0.00456602
-2.43401e-05
0.00455964
-2.39484e-05
0.00455337
-2.35703e-05
0.00454722
-2.31919e-05
0.00454119
-2.28324e-05
0.00453527
-2.2477e-05
0.00452947
-2.21468e-05
0.0045238
-2.1827e-05
0.00451823
-2.15465e-05
0.00451277
-2.12859e-05
0.00450741
-2.11283e-05
0.00450217
-2.09948e-05
0.00449693
-2.11596e-05
0.00449186
-2.13206e-05
0.00448653
-2.22256e-05
-2.32471e-05
0.00645566
-3.30161e-06
0.00646519
-3.3765e-05
0.00645042
-0.000122979
0.00639697
-0.000263324
0.00630461
-0.000412949
0.00618117
-0.000536093
0.00603901
-0.000615593
0.00589152
-0.000646636
0.00575008
-0.000635775
0.00562196
-0.000595408
0.00551031
-0.000536612
0.00541633
-0.000470924
0.00533921
-0.000407872
0.0052758
-0.000350733
0.00522312
-0.000299205
0.00518039
-0.000255112
0.00514687
-0.000220579
0.00511943
-0.000192995
0.00509516
-0.000168223
0.00507463
-0.000146839
0.00505904
-0.000131193
0.00504665
-0.000119734
0.0050349
-0.000109005
0.00502375
-9.84997e-05
0.00501464
-9.00287e-05
0.00500783
-8.40856e-05
0.00500215
-7.92942e-05
0.00499649
-7.42325e-05
0.0049908
-6.90196e-05
0.0049859
-6.47001e-05
0.00498221
-6.15006e-05
0.0049793
-5.87951e-05
0.00497655
-5.60708e-05
0.0049736
-5.32457e-05
0.00497069
-5.06472e-05
0.00496833
-4.8559e-05
0.00496653
-4.67534e-05
0.00496501
-4.50089e-05
0.00496346
-4.33119e-05
0.00496175
-4.17035e-05
0.00496
-4.02591e-05
0.00495843
-3.89573e-05
0.00495699
-3.76438e-05
0.00495552
-3.63922e-05
0.00495391
-3.53172e-05
0.00495202
-3.43634e-05
0.00494979
-3.34058e-05
0.00494723
-3.2393e-05
0.00494434
-3.13789e-05
0.00494108
-3.04481e-05
0.00493735
-2.96177e-05
0.00493305
-2.88499e-05
0.00492812
-2.80869e-05
0.00492251
-2.72976e-05
0.00491626
-2.64887e-05
0.00490938
-2.5727e-05
0.00490189
-2.50389e-05
0.0048938
-2.4406e-05
0.00488512
-2.37921e-05
0.00487588
-2.31948e-05
0.00486614
-2.26214e-05
0.00485597
-2.20838e-05
0.00484544
-2.15879e-05
0.00483462
-2.11288e-05
0.00482356
-2.07014e-05
0.00481233
-2.03062e-05
0.00480097
-1.99352e-05
0.00478954
-1.95827e-05
0.00477809
-1.92349e-05
0.00476667
-1.89089e-05
0.00475531
-1.85985e-05
0.00474403
-1.8311e-05
0.00473285
-1.80351e-05
0.0047218
-1.77653e-05
0.00471089
-1.75048e-05
0.00470013
-1.72395e-05
0.00468953
-1.699e-05
0.00467911
-1.674e-05
0.00466885
-1.65116e-05
0.00465878
-1.62801e-05
0.00464889
-1.60614e-05
0.0046392
-1.58418e-05
0.0046297
-1.5633e-05
0.0046204
-1.54307e-05
0.00461129
-1.52388e-05
0.0046024
-1.50524e-05
0.0045937
-1.48751e-05
0.00458521
-1.47034e-05
0.00457693
-1.45433e-05
0.00456884
-1.43916e-05
0.00456095
-1.42557e-05
0.00455325
-1.41298e-05
0.00454574
-1.40311e-05
0.00453841
-1.39552e-05
0.00453122
-1.39425e-05
0.00452421
-1.39883e-05
0.00451723
-1.41738e-05
0.00451049
-1.45794e-05
0.00450335
-1.5087e-05
-1.71159e-05
0.00645273
-1.34586e-05
0.00645752
-3.85543e-05
0.00643989
-0.000105347
0.00638638
-0.000209819
0.00629583
-0.000322397
0.00617559
-0.000415853
0.00603716
-0.000477165
0.00589298
-0.000502455
0.00575379
-0.000496587
0.00562646
-0.00046808
0.00551453
-0.00042468
0.00541983
-0.00037622
0.00534111
-0.000329149
0.00527505
-0.000284676
0.00522048
-0.00024464
0.00517734
-0.000211967
0.00514237
-0.000185616
0.00511181
-0.000162434
0.00508573
-0.000142137
0.00506535
-0.000126459
0.00504886
-0.000114701
0.00503348
-0.000104357
0.00501907
-9.45995e-05
0.00500702
-8.64502e-05
0.00499738
-8.03864e-05
0.00498877
-7.54791e-05
0.00498012
-7.06377e-05
0.00497166
-6.57732e-05
0.00496422
-6.15865e-05
0.00495789
-5.83682e-05
0.00495207
-5.56799e-05
0.0049462
-5.29238e-05
0.00494014
-5.00081e-05
0.00493426
-4.73637e-05
0.00492884
-4.52351e-05
0.00492373
-4.34488e-05
0.00491868
-4.1696e-05
0.00491348
-3.98158e-05
0.00490811
-3.79372e-05
0.00490271
-3.63025e-05
0.00489738
-3.49325e-05
0.00489208
-3.36529e-05
0.00488674
-3.23096e-05
0.00488131
-3.09576e-05
0.0048757
-2.97135e-05
0.00486993
-2.85888e-05
0.00486404
-2.75166e-05
0.0048581
-2.64522e-05
0.00485212
-2.54033e-05
0.00484609
-2.44096e-05
0.00483994
-2.34696e-05
0.00483365
-2.25622e-05
0.00482722
-2.16618e-05
0.0048207
-2.07684e-05
0.0048141
-1.98899e-05
0.00480743
-1.90616e-05
0.00480067
-1.8274e-05
0.00479376
-1.74975e-05
0.00478667
-1.67063e-05
0.0047794
-1.59247e-05
0.00477196
-1.51744e-05
0.00476434
-1.44645e-05
0.00475653
-1.37833e-05
0.00474852
-1.3119e-05
0.00474029
-1.24679e-05
0.00473183
-1.18441e-05
0.00472315
-1.12572e-05
0.00471428
-1.07102e-05
0.00470523
-1.01937e-05
0.00469604
-9.71369e-06
0.00468671
-9.27167e-06
0.00467727
-8.86669e-06
0.00466773
-8.49977e-06
0.00465813
-8.1673e-06
0.0046485
-7.86962e-06
0.00463886
-7.60331e-06
0.00462924
-7.36532e-06
0.00461966
-7.16045e-06
0.00461013
-6.98497e-06
0.00460069
-6.83968e-06
0.00459135
-6.71646e-06
0.00458212
-6.61622e-06
0.00457302
-6.53548e-06
0.00456407
-6.47635e-06
0.00455527
-6.43474e-06
0.00454662
-6.41085e-06
0.00453815
-6.3995e-06
0.00452985
-6.40148e-06
0.00452172
-6.41354e-06
0.00451376
-6.43742e-06
0.00450598
-6.47072e-06
0.00449836
-6.51293e-06
0.0044909
-6.57107e-06
0.0044836
-6.65269e-06
0.00447641
-6.75748e-06
0.00446938
-6.95085e-06
0.00446232
-7.12121e-06
0.00445547
-7.72739e-06
0.00444816
-7.77505e-06
-1.07116e-05
0.0064508
-2.14627e-05
0.00645216
-3.99198e-05
0.00643219
-8.53722e-05
0.00637824
-0.000155876
0.00628837
-0.000232521
0.0061693
-0.000296785
0.00603182
-0.000339684
0.0058878
-0.000358437
0.00574726
-0.000356052
0.00561717
-0.00033798
0.00550246
-0.000309972
0.00540403
-0.000277792
0.00531966
-0.000244779
0.00524858
-0.000213598
0.0051903
-0.000186359
0.00514164
-0.000163304
0.0050993
-0.000143282
0.00506285
-0.000125983
0.00503238
-0.000111666
0.00500601
-0.000100084
0.00498162
-9.03111e-05
0.00495913
-8.18685e-05
0.00493916
-7.46311e-05
0.00492125
-6.85435e-05
0.00490428
-6.34094e-05
0.00488771
-5.89174e-05
0.00487188
-5.48014e-05
0.00485707
-5.09642e-05
0.00484302
-4.75329e-05
0.00482922
-4.45745e-05
0.0048155
-4.19555e-05
0.00480201
-3.94372e-05
0.00478895
-3.69446e-05
0.00477624
-3.46594e-05
0.00476369
-3.26847e-05
0.00475117
-3.09259e-05
0.00473871
-2.92387e-05
0.00472644
-2.75458e-05
0.00471441
-2.59034e-05
0.00470254
-2.44379e-05
0.00469077
-2.31588e-05
0.00467909
-2.19708e-05
0.00466756
-2.07799e-05
0.00465621
-1.96113e-05
0.00464503
-1.85357e-05
0.00463401
-1.75683e-05
0.00462316
-1.6665e-05
0.0046125
-1.57912e-05
0.00460204
-1.49435e-05
0.00459178
-1.41481e-05
0.00458172
-1.34076e-05
0.00457186
-1.27077e-05
0.00456223
-1.20324e-05
0.00455285
-1.13809e-05
0.00454371
-1.07545e-05
0.00453482
-1.01683e-05
0.00452616
-9.61777e-06
0.00451775
-9.08385e-06
0.0045096
-8.55299e-06
0.00450171
-8.03726e-06
0.00449408
-7.5483e-06
0.00448671
-7.09084e-06
0.00447958
-6.65234e-06
0.00447268
-6.22511e-06
0.00446602
-5.80447e-06
0.00445958
-5.40292e-06
0.00445334
-5.02255e-06
0.0044473
-4.66773e-06
0.00444143
-4.326e-06
0.00443572
-4.0028e-06
0.00443016
-3.70541e-06
0.00442472
-3.42819e-06
0.00441939
-3.17257e-06
0.00441416
-2.94087e-06
0.00440902
-2.72787e-06
0.00440396
-2.5385e-06
0.00439896
-2.36397e-06
0.00439401
-2.21321e-06
0.00438911
-2.08246e-06
0.00438424
-1.97297e-06
0.0043794
-1.87994e-06
0.00437459
-1.80028e-06
0.00436979
-1.73759e-06
0.004365
-1.68874e-06
0.00436022
-1.65617e-06
0.00435545
-1.6365e-06
0.00435068
-1.62975e-06
0.00434591
-1.63354e-06
0.00434115
-1.64934e-06
0.00433639
-1.67601e-06
0.00433163
-1.71359e-06
0.00432688
-1.76303e-06
0.00432213
-1.8245e-06
0.00431739
-1.91319e-06
0.00431263
-1.99975e-06
0.00430788
-2.19226e-06
0.00430301
-2.25825e-06
0.00429815
-2.86582e-06
0.00429293
-2.55772e-06
-5.6364e-06
0.00644653
-2.70128e-05
0.00644397
-3.73618e-05
0.00642001
-6.141e-05
0.00636214
-9.80093e-05
0.00626748
-0.000137856
0.00614211
-0.000171423
0.00599645
-0.000194018
0.00584207
-0.000204059
0.00568909
-0.000203075
0.00554494
-0.000193826
0.00541388
-0.00017891
0.00529723
-0.000161144
0.00519546
-0.000143011
0.0051078
-0.00012594
0.00503193
-0.000110485
0.00496543
-9.68027e-05
0.00490707
-8.49238e-05
0.00485589
-7.48021e-05
0.00481038
-6.61555e-05
0.00476894
-5.86425e-05
0.0047308
-5.21699e-05
0.00469599
-4.70613e-05
0.00466412
-4.27588e-05
0.00463446
-3.88832e-05
0.00460646
-3.54166e-05
0.00458
-3.2451e-05
0.00455507
-2.98759e-05
0.00453156
-2.74566e-05
0.0045092
-2.51707e-05
0.00448776
-2.31279e-05
0.00446716
-2.13651e-05
0.00444747
-1.97411e-05
0.00442869
-1.81623e-05
0.00441071
-1.6686e-05
0.00439341
-1.53839e-05
0.00437673
-1.42397e-05
0.00436067
-1.3187e-05
0.00434529
-1.21662e-05
0.00433057
-1.11835e-05
0.00431644
-1.02987e-05
0.0043028
-9.528e-06
0.00428967
-8.83319e-06
0.00427705
-8.16086e-06
0.00426495
-7.51197e-06
0.00425333
-6.91922e-06
0.00424216
-6.39434e-06
0.00423141
-5.91574e-06
0.00422108
-5.46143e-06
0.00421117
-5.02933e-06
0.00420165
-4.63158e-06
0.00419251
-4.26961e-06
0.00418374
-3.93632e-06
0.00417533
-3.62305e-06
0.00416728
-3.32827e-06
0.00415957
-3.05094e-06
0.0041522
-2.7974e-06
0.00414515
-2.567e-06
0.00413842
-2.35137e-06
0.00413201
-2.14166e-06
0.00412591
-1.94235e-06
0.00412012
-1.75715e-06
0.00411462
-1.58946e-06
0.0041094
-1.43178e-06
0.00410446
-1.28098e-06
0.00409978
-1.13208e-06
0.00409537
-9.91721e-07
0.00409121
-8.57495e-07
0.00408727
-7.33359e-07
0.00408356
-6.09064e-07
0.00408004
-4.84156e-07
0.00407671
-3.82306e-07
0.00407356
-2.77631e-07
0.00407057
-1.78564e-07
0.00406772
-8.61469e-08
0.00406499
1.7474e-09
0.00406237
8.12001e-08
0.00405984
1.57129e-07
0.00405741
2.21214e-07
0.00405505
2.77528e-07
0.00405275
3.23151e-07
0.00405051
3.60985e-07
0.00404832
3.94484e-07
0.00404616
4.18635e-07
0.00404404
4.36069e-07
0.00404194
4.46417e-07
0.00403985
4.50503e-07
0.00403777
4.50935e-07
0.00403569
4.48516e-07
0.0040336
4.39028e-07
0.00403149
4.26469e-07
0.00402938
4.0444e-07
0.00402723
3.7855e-07
0.00402507
3.38697e-07
0.00402287
2.88372e-07
0.00402062
2.4943e-07
0.0040183
1.26022e-07
0.00401589
1.51012e-07
0.00401334
-3.11504e-07
0.00401062
1.59991e-07
-2.32778e-06
0.00625665
0.00621968
0.00615866
0.00606105
0.00592359
0.00575257
0.00555895
0.0053553
0.00515264
0.00495922
0.00478073
0.00462001
0.00447743
0.00435191
0.00424186
0.00414549
0.004061
0.00398664
0.00392092
0.00386272
0.00381099
0.00376437
0.00372206
0.00368362
0.00364865
0.00361665
0.00358722
0.00356021
0.00353549
0.00351281
0.0034919
0.00347261
0.0034549
0.00343866
0.00342373
0.00340994
0.00339721
0.0033855
0.00337477
0.00336492
0.00335585
0.00334747
0.00333976
0.0033327
0.00332624
0.0033203
0.00331484
0.00330983
0.00330525
0.00330108
0.00329726
0.00329378
0.00329061
0.00328774
0.00328514
0.0032828
0.00328069
0.00327879
0.00327711
0.00327562
0.00327432
0.00327318
0.00327221
0.00327138
0.00327071
0.00327017
0.00326977
0.00326949
0.00326933
0.00326931
0.00326938
0.00326956
0.00326983
0.0032702
0.00327066
0.00327119
0.00327181
0.00327248
0.00327322
0.00327399
0.00327481
0.00327566
0.00327653
0.00327742
0.00327832
0.00327923
0.00328014
0.00328104
0.00328193
0.00328281
0.00328367
0.0032845
0.0032853
0.00328604
0.00328674
0.00328733
0.00328793
0.00328807
0.00328869
-0.000831931
0.000788343
-0.00121946
0.000387527
-0.00139906
0.000179604
-0.00140205
2.9839e-06
-0.00126096
-0.00014109
-0.000964944
-0.000296012
-0.000524487
-0.000440457
-0.000525013
-0.000754951
0.00166096
-0.00111808
0.000750658
-0.00122824
0.000289766
-0.00120009
-2.51742e-05
-0.00105429
-0.000286883
-0.00080876
-0.000541545
-0.000456447
-0.00079277
-0.000981964
-0.000156196
0.00225018
-0.000557935
0.0011524
-0.000717708
0.000449539
-0.000731037
-1.18447e-05
-0.000650844
-0.000367076
-0.000507295
-0.000685094
-0.000303369
-0.000996696
-0.00128582
0.000429659
0.00257866
9.69573e-05
0.0014851
-0.000111094
0.000657591
-0.000205854
8.29145e-05
-0.000222049
-0.000350881
-0.000187708
-0.000719434
-0.000121698
-0.00106271
-0.00140799
0.000870297
0.00276483
0.000617312
0.00173808
0.000395232
0.000879671
0.000239665
0.000238481
0.000137925
-0.000249141
7.01137e-05
-0.000651623
2.21303e-05
-0.00101472
-0.00138632
0.00119707
0.00287795
0.000996737
0.00193841
0.000781887
0.00109452
0.000592639
0.000427729
0.000428777
-8.52789e-05
0.000279857
-0.000502703
0.000137296
-0.000872162
-0.00124949
0.00139123
0.00294685
0.00123794
0.00209171
0.00104152
0.00129093
0.000835822
0.000633432
0.000631623
0.00011892
0.00042645
-0.00029753
0.000215937
-0.000661649
-0.00103402
0.0014507
0.0029926
0.00133262
0.00220978
0.00116188
0.00146168
0.000958576
0.000836732
0.00073756
0.000339935
0.000503686
-6.36561e-05
0.000257038
-0.000415001
-0.000777454
0.00141294
0.00302251
0.00131817
0.00230455
0.0011684
0.00161144
0.000977314
0.00102782
0.000758617
0.000558633
0.00052057
0.000174391
0.000266344
-0.000160776
-0.000511595
0.00130652
0.00303896
0.00123226
0.00237881
0.00110355
0.00174016
0.000929904
0.00120146
0.000724735
0.000763802
0.000497958
0.000401168
0.000254451
8.27321e-05
-0.00025764
0.0011666
0.00304298
0.0011107
0.00243471
0.00100158
0.00184928
0.000848411
0.00135463
0.000663839
0.000948374
0.000456995
0.000608012
0.000233433
0.000306293
-2.47144e-05
0.00101874
0.0030365
0.000978075
0.00247538
0.000885929
0.00194143
0.000752903
0.00148766
0.000590956
0.00111032
0.000407694
0.000791274
0.000209263
0.000504725
0.000184037
0.000877791
0.0030226
0.000848936
0.00250423
0.000772054
0.00201831
0.000657413
0.0016023
0.000516294
0.00125144
0.000355743
0.000951824
0.00018177
0.000678698
0.000365301
0.00075281
0.00300418
0.000732543
0.0025245
0.000668486
0.00208237
0.000570116
0.00170067
0.000447907
0.00137365
0.000308381
0.00109135
0.000157163
0.000829916
0.000521962
0.000647055
0.00298375
0.000632221
0.00253933
0.000578643
0.00213594
0.000494683
0.00178463
0.000389097
0.00147924
0.000267954
0.00121249
0.00013646
0.00096141
0.000657924
0.000558638
0.00296345
0.000546451
0.00255152
0.000501282
0.00218111
0.000430137
0.00185577
0.0003392
0.00157017
0.000233964
0.00131773
0.000119086
0.00107629
0.000776515
0.000485029
0.00294467
0.000474194
0.00256236
0.000435461
0.00221985
0.000374627
0.00191661
0.000296134
0.00164867
0.000204611
0.00140925
0.00010385
0.00117705
0.000879873
0.000424661
0.00292811
0.000414608
0.00257241
0.000380669
0.00225379
0.00032773
0.00196955
0.000259375
0.00171702
0.000179389
0.00148924
9.08107e-05
0.00126563
0.000970194
0.000375981
0.00291398
0.000366297
0.00258209
0.000335924
0.00228416
0.000289086
0.00201639
0.000228827
0.00177728
0.000158307
0.00155976
8.01537e-05
0.00134378
0.00104986
0.000336318
0.00290211
0.000326809
0.0025916
0.000299237
0.00231173