/*--------------------------------*- C++ -*----------------------------------*\
| =========                 |                                                 |
| \\      /  F ield         | OpenFOAM: The Open Source CFD Toolbox           |
|  \\    /   O peration     | Version:  v2012                                 |
|   \\  /    A nd           | Website:  www.openfoam.com                      |
|    \\/     M anipulation  |                                                 |
\*---------------------------------------------------------------------------*/
FoamFile
{
    version     2.0;
    format      ascii;
    class       volScalarField;
    location    "0.205";
    object      omega.air;
}
// * * * * * * * * * * * * * * * * * * * * * * * * * * * * * * * * * * * * * //

dimensions      [0 0 -1 0 0 0 0];


internalField   nonuniform List<scalar> 
5600
(
6586.13
7485.58
7886.92
7964.83
7866.88
7686.73
7481.89
7289.13
7126.33
6987.18
6879.21
6796.58
6735.34
6694.66
6662.23
6643.32
6626.64
6614.48
6606.33
6594.87
6591.48
6580.63
6579.47
6571.95
6570.79
6568.11
6564.92
6566.62
6561.62
6565.19
6559.8
6562.36
6558.39
6558.2
6556.59
6553.9
6553.69
6550.37
6549.88
6547.66
6545.84
6545.26
6542.42
6542.89
6540.06
6540.51
6538.81
6538.41
6538.09
6536.65
6537.58
6535.34
6537.16
6534.55
6536.84
6534.38
6536.61
6534.91
6536.77
6535.98
6537.45
6537.04
6538.74
6538.1
6540.58
6539.42
6542.74
6541.52
6544.85
6544.4
6546.83
6547.48
6549.17
6550.09
6552.49
6552.35
6556.86
6555.17
6561.11
6559.15
6564.58
6563.76
6567.83
6567.97
6571.72
6571.91
6575.65
6576.88
6578
6584.63
6577.34
6597.06
6570.26
6620.43
6542.88
6679.23
6445.29
6861.2
6047.63
7478.68
2450.08
2298.03
2570.85
2796.32
2926.77
2999.4
3008.87
2969.04
2967.94
3017.66
3073.42
3118.4
3148.17
3157.27
3156.13
3139.67
3118.98
3090.6
3062.57
3032.27
3003.4
2974.01
2944.95
2917.08
2888.41
2864.09
2839.1
2817.79
2797.17
2779
2761.61
2746.18
2732.05
2718.6
2707.23
2696.01
2686.3
2677.16
2668.74
2661.43
2654.01
2647.85
2641.83
2636.32
2631.23
2626.36
2621.9
2617.36
2613.47
2609.52
2606.06
2602.57
2599.58
2596.47
2593.96
2591.16
2589.02
2586.59
2584.76
2582.72
2581.13
2579.4
2578.02
2576.38
2575.2
2573.76
2572.69
2571.56
2570.66
2569.79
2569.08
2568.34
2567.75
2567.09
2566.5
2565.82
2565.28
2564.88
2564.49
2564.35
2564.11
2564.12
2563.86
2564.04
2563.44
2564.06
2562.79
2564.61
2562
2566.17
2559.78
2570.34
2553.42
2581.65
2535.89
2613.13
2480.72
2712.21
2285.9
3054.72
2358.39
1860.37
1591.47
1428.97
1344.62
1275.18
1279.72
1308.95
1352.5
1411.52
1483.75
1547.43
1612.98
1662.66
1705.11
1734.39
1746.89
1755.68
1740.48
1729.94
1700.01
1677.73
1653.47
1634.89
1619.53
1605.6
1593.06
1582.02
1570.81
1561.31
1550.94
1541.03
1531.31
1521.61
1512.82
1504.15
1496.33
1488.76
1481.63
1475.34
1469
1463.5
1457.89
1453.05
1448.08
1443.69
1439.54
1435.47
1431.89
1428.2
1425.2
1421.82
1419.33
1416.22
1414.16
1411.36
1409.54
1407.16
1405.49
1403.51
1401.99
1400.18
1398.84
1397.02
1395.94
1394.15
1393.27
1391.73
1390.93
1389.72
1388.89
1387.96
1387.11
1386.26
1385.54
1384.51
1384.03
1383
1382.74
1381.98
1381.56
1381.32
1380.41
1380.79
1379.19
1380.42
1377.58
1380.85
1375.19
1382.81
1370.96
1387.72
1362.76
1398.98
1345.42
1423.86
1307.97
1474.98
1234.8
1550.12
2345.1
1822.51
1493.04
1267.85
1111.09
992.365
907.66
845.63
804.631
774.234
763.037
768.756
791.933
825.052
858.792
905.612
936.192
984.954
1005.21
1044.57
1058.2
1080.24
1092.49
1098.51
1109.23
1102.97
1107.33
1093.81
1089.27
1077.25
1068.39
1060.84
1053.5
1048.28
1042.2
1037.24
1032.46
1027.7
1023.41
1019.11
1014.97
1010.58
1005.88
1001.47
996.784
992.38
988.166
984.107
980.35
976.532
973.348
969.874
967.196
963.999
961.641
958.685
956.491
953.91
951.827
949.558
947.664
945.474
943.699
941.446
939.865
937.714
936.377
934.522
933.257
931.729
930.45
929.189
927.923
926.687
925.618
924.198
923.396
922.037
921.383
920.389
919.439
919.107
917.578
917.932
915.722
917.009
913.563
916.822
910.788
917.773
906.931
920.322
901.367
925.394
893.161
933.318
882.774
940.297
877.884
924.957
2341.96
1815.98
1479.87
1247.74
1080.12
951.911
854.127
773.523
711.719
658.165
616.138
583.061
554.046
539.795
518.563
521.032
507.824
524.749
528.974
550.278
569.513
588.644
621.921
634.403
676.373
683.571
721.228
728.557
750.587
760.519
768.652
778.99
780.233
787.465
786.232
787.755
786.228
782.427
780.368
774.631
771.565
767.08
764.091
761.136
758.15
755.686
752.687
750.406
747.698
745.399
743.113
740.868
738.897
736.664
734.632
732.042
729.849
727.366
725.195
722.855
720.785
718.482
716.495
714.107
712.275
710.016
708.411
706.467
704.959
703.284
701.741
700.258
698.702
697.192
695.861
694.212
693.061
691.496
690.353
689.185
687.731
687.139
685.257
685.174
682.894
683.504
680.459
682.385
677.826
681.818
674.948
681.674
671.966
681.751
669.365
681.004
668.659
676.768
672.681
664.89
2341.15
1814.05
1476.92
1243.59
1074.63
944.747
844.959
762.632
696.775
641.384
593.12
555.86
517.169
492.821
461.195
444.321
421.51
406.2
396.141
378.513
382.236
361.537
377.109
360.442
380.096
376.222
393.971
405.727
417.691
441.862
450.121
478.459
487.964
511.238
525.047
538.924
554.983
561.606
575.131
578.472
586.982
590.099
594.236
597.367
598.568
601.376
600.32
601.865
599.311
599.961
596.67
595.885
592.698
591.082
588.994
587.196
585.756
584.083
582.741
581.207
579.615
578.205
576.81
575.454
574.365
572.96
571.989
570.644
569.62
568.388
567.113
565.801
564.339
562.923
561.644
560.162
559.025
557.568
556.253
555.066
553.411
552.58
550.705
550.188
548.206
548.095
545.827
546.378
543.532
544.842
541.338
543.259
539.394
541.441
537.9
539.106
537.065
536.029
536.439
532.651
2340.9
1813.33
1475.93
1242.34
1072.92
943.151
842.297
760.637
693.141
638.361
588.841
550.649
512.509
483.847
455.465
430.326
412.23
386.453
378.101
351.597
348.936
325.989
322.277
308.965
298.611
297.737
280.623
289.755
271.085
283.197
272.453
279.713
282.374
284.519
298.136
298.74
316.323
321.445
337.878
347.263
361.453
374.677
385.453
399.31
408.08
422.192
428.365
440.346
443.86
455.007
457.151
464.331
465.399
469.469
471.873
473.819
475.889
476.873
477.809
478.489
477.638
478.114
476.901
477.372
476.571
475.99
475.306
473.758
472.989
471.428
470.403
469.343
468.259
467.467
466.635
465.907
465.407
464.649
463.862
463.053
461.813
461.084
459.769
459.3
458.058
457.852
456.472
456.52
454.901
455.107
453.308
453.488
451.626
451.587
449.713
449.538
447.575
447.517
444.904
445.465
2340.8
1813.03
1475.45
1241.94
1072.07
942.781
841.1
760.153
691.933
637.243
588.184
548.314
512.699
480.228
455.919
426.294
411.286
383.587
373.719
350.885
339.95
326.473
309.399
307.023
283.805
288.569
265.229
268.892
253.382
249.07
245.153
232.545
236.603
222.476
226.476
218.665
216.863
217.809
211.862
217.948
213.616
220.133
220.151
226.313
230.497
236.911
243.227
252.321
258.195
269.737
276.328
287.512
295.372
304.231
314.309
321.605
330.747
337.655
344.996
351.833
356.421
362.534
365.957
371.503
375.199
378.654
382.084
383.393
385.944
386.427
387.882
388.755
389.481
390.42
390.925
391.383
392.158
392.205
392.67
392.174
391.764
391.029
390.2
389.701
388.874
388.482
387.399
386.954
385.609
385.185
383.659
383.224
381.505
381.019
378.994
378.68
376.346
376.254
373.564
373.398
2340.74
1812.91
1475.16
1241.81
1071.6
942.649
840.591
759.816
691.676
636.403
588.411
546.9
513.224
478.714
455.959
425.663
409.794
384.685
370.255
353.425
335.455
328.697
305.956
306.601
283.294
284.222
267.508
261.719
255.46
242.214
242.963
228.129
228.513
218.855
213.465
211.589
200.818
203.258
191.998
194.029
186.085
184.884
181.663
177.386
178.478
171.354
175.367
168.221
174.467
166.876
173.28
168.707
175.54
174.388
178.429
180.71
184.899
188.478
194.736
198.097
207.165
211.399
220.038
224.927
231.798
238.093
244.545
251.22
258.024
263.275
270.051
274.743
281.007
285.49
290.614
294.382
298.493
301.87
305.607
308.035
310.72
312.382
314.16
315.69
317.004
318.251
318.685
319.349
319.138
319.527
318.98
319.16
318.309
318.261
316.878
316.754
315.05
314.785
312.982
312.178
2340.7
1812.87
1475.01
1241.75
1071.44
942.478
840.54
759.45
691.781
635.896
588.495
546.562
512.881
478.984
454.816
426.739
407.941
386.107
368.519
354.055
335.09
327.425
307.667
303.42
286.274
280.689
269.634
259.93
255.071
242.907
240.362
229.987
225.588
219.548
212.152
209.73
201.165
199.605
192.351
189.876
184.581
180.983
177.631
172.799
171.516
165.215
166.054
158.145
161.438
152.345
155.785
148.499
150.057
146.52
144.521
143.681
141.511
140.538
140.198
137.309
140.317
136.544
140.984
137.708
140.167
140.236
140.317
143.782
143.486
147.75
149.727
151.971
156.687
157.588
163.156
165.331
169.232
173.06
175.73
180.544
184.075
188.646
192.923
196.675
200.565
204.112
207.357
211.018
213.733
217.101
219.513
222.277
224.409
226.625
228.332
230.25
231.663
233.147
234.325
235.216
2340.69
1812.9
1475.02
1241.74
1071.52
942.381
840.719
759.282
691.951
635.86
588.383
546.949
512.247
479.899
453.768
427.819
407.088
386.562
368.7
353.174
336.708
325.277
310.116
301.104
288.107
279.699
269.647
260.844
253.553
244.617
238.957
230.782
225.606
218.811
213.467
208.271
202.529
198.739
192.87
189.84
184.587
181.271
177.61
173.244
171.243
166.471
164.81
161.174
158.503
156.875
153.019
152.737
149.118
148.664
146.586
145.115
144.972
142.917
143.835
142.63
143.163
144.217
143.821
146.822
146.804
150.053
152.052
154.5
158.593
160.703
165.413
168.785
172.979
177.884
181.653
186.916
191.147
196.03
201.002
205.198
209.858
213.799
217.879
221.882
225.624
229.31
232.532
235.524
238.293
240.794
243.162
245.275
247.155
248.794
250.12
251.324
252.3
253.152
253.862
254.502
2340.71
1812.99
1475.15
1241.87
1071.73
942.483
841.003
759.392
692.211
636.106
588.461
547.474
512.062
480.681
453.478
428.563
407.095
386.831
369.392
352.739
338.095
324.396
311.71
300.446
289.208
279.91
269.861
262.052
253.168
246.287
238.795
232.196
226.398
219.68
215.469
208.914
205.518
200.056
196.42
192.932
188.647
186.971
182.864
181.866
179.357
178.04
177.723
176.616
177.854
178.086
180.213
182.4
184.998
189.525
192.531
198.838
203.064
209.637
216.155
222.052
230.189
236.136
244.238
251.221
258.128
265.935
271.752
278.953
284.817
290.449
296.29
300.918
306.07
310.208
314.271
317.966
320.941
323.946
326.405
328.319
330.112
331.295
332.366
333.21
333.872
334.39
334.665
334.764
334.772
334.6
334.362
334.001
333.497
332.845
331.984
331.106
330.075
329.041
327.989
326.991
2340.76
1813.17
1475.39
1242.14
1072.07
942.81
841.43
759.759
692.688
636.556
588.929
548.075
512.474
481.462
453.869
429.461
407.609
387.725
370.207
353.562
339.333
325.213
313.428
301.452
291.466
281.447
272.743
264.665
256.815
250.744
243.711
239.427
233.672
230.595
226.975
224.521
223.716
222.128
224.139
224.806
228.443
232.461
237.044
244.313
250.321
259.394
267.497
276.901
286.926
295.918
306.918
315.483
325.767
334.376
342.917
351.477
358.313
365.941
371.718
377.599
382.605
386.621
390.729
393.372
396.235
398.173
399.788
401.417
402.416
403.6
404.327
404.955
405.476
405.654
405.903
405.812
405.658
405.379
404.903
404.332
403.657
402.883
402.078
401.272
400.439
399.621
398.795
397.955
397.115
396.233
395.342
394.416
393.438
392.413
391.298
390.202
389.025
387.891
386.777
385.779
2340.87
1813.5
1475.85
1242.71
1072.73
943.548
842.268
760.652
693.729
637.618
590.209
549.366
514.025
483.123
455.773
431.718
410.052
390.908
373.611
358.168
344.394
331.918
321.265
311.489
304.021
296.669
292.505
287.809
286.877
286.105
288.731
292.874
298.558
307.415
316.076
328.254
339.777
353.26
366.743
380.131
394.046
406.735
419.42
431.101
441.641
451.624
459.752
467.299
473.256
478.164
482.361
485.192
488.192
490.089
491.981
493.3
494.103
494.854
494.841
494.891
494.368
493.681
492.89
491.666
490.666
489.319
488.158
487.081
485.983
485.078
484.059
483.136
482.188
481.224
480.33
479.383
478.467
477.553
476.592
475.667
474.741
473.835
472.98
472.118
471.28
470.381
469.414
468.414
467.386
466.324
465.261
464.169
463.078
461.992
460.879
459.821
458.717
457.693
456.726
455.912
2341.15
1814.19
1476.91
1244
1074.36
945.469
844.56
763.327
696.895
641.322
594.651
554.554
520.563
490.917
465.776
443.856
425.748
410.743
398.762
389.832
383.445
380.435
380.673
385.624
393.343
404.602
419.084
434.796
454.012
471.684
492.612
510.667
529.91
546.538
561.732
575.254
585.687
595.165
601.821
607.674
612.126
615.716
618.451
620.181
621.139
621.273
620.606
619.414
617.614
615.544
613.268
610.964
609.089
607.207
605.566
603.87
602.241
600.634
599.01
597.459
595.892
594.412
592.987
591.603
590.292
588.966
587.614
586.14
584.586
583.021
581.428
579.824
578.253
576.677
575.149
573.647
572.14
570.678
569.198
567.788
566.411
565.105
563.868
562.67
561.508
560.387
559.279
558.198
557.132
556.067
555.028
553.979
552.969
551.985
551.005
550.092
549.161
548.348
547.625
547.104
2342.02
1815.99
1480.1
1247.97
1080.27
952.725
854.14
775.22
712.341
660.603
619.116
586.86
562.699
545.368
534.739
529.934
534.502
545.034
560.988
581.194
604.355
630.922
657.214
685.261
710.61
735.039
754.808
771.338
784.31
793.938
802.12
807.02
811.035
812.032
811.987
809.896
806.591
802.734
798.142
794.204
790.594
787.503
784.418
781.494
778.544
775.679
772.913
770.214
767.724
765.239
762.899
760.506
757.911
755.293
752.575
749.916
747.268
744.644
742.138
739.617
737.245
734.918
732.703
730.602
728.541
726.621
724.703
722.897
721.09
719.359
717.664
715.975
714.393
712.791
711.299
709.83
708.378
706.988
705.595
704.29
703.024
701.842
700.716
699.65
698.612
697.636
696.681
695.768
694.883
694.016
693.187
692.361
691.58
690.832
690.104
689.436
688.778
688.248
687.847
687.728
2345.25
1822.39
1493.86
1268.16
1113.21
994.21
912.547
852.077
814.433
787.941
783.618
800.107
829.107
865.959
907.748
950.081
990.474
1026.83
1058.38
1083.57
1103.4
1118.54
1128.93
1135.94
1137.22
1134.97
1127.8
1118.81
1108.57
1099.48
1091.78
1085.14
1079.06
1073.26
1067.84
1062.59
1057.78
1052.95
1048.43
1043.49
1038.48
1033.34
1028.21
1023.28
1018.43
1013.9
1009.55
1005.43
1001.61
997.929
994.543
991.329
988.259
985.381
982.518
979.866
977.231
974.725
972.332
969.955
967.767
965.587
963.578
961.632
959.75
958.009
956.245
954.67
953.059
951.6
950.168
948.775
947.514
946.237
945.097
943.95
942.847
941.775
940.713
939.727
938.777
937.903
937.074
936.313
935.568
934.876
934.192
933.552
932.937
932.345
931.793
931.257
930.752
930.304
929.854
929.494
929.146
928.966
928.948
929.352
2358.74
1860.9
1594.77
1434.02
1353.95
1289.08
1305.17
1337.35
1392.04
1465.23
1539.65
1610.35
1672.35
1723.05
1760.15
1783.28
1792.65
1788.73
1773.41
1750.09
1724.24
1700.64
1682.24
1666.45
1652.56
1639.45
1627.41
1615.93
1604.91
1593.87
1582.64
1572.04
1561.46
1551.82
1542.39
1533.73
1525.57
1517.87
1510.88
1504.08
1498
1491.99
1486.49
1481.31
1476.39
1471.87
1467.52
1463.51
1459.72
1456.15
1452.85
1449.74
1446.84
1444.15
1441.55
1439.21
1436.89
1434.78
1432.74
1430.76
1428.98
1427.18
1425.6
1424
1422.53
1421.14
1419.73
1418.53
1417.24
1416.16
1415.09
1414.08
1413.2
1412.31
1411.51
1410.7
1409.92
1409.14
1408.39
1407.68
1407.03
1406.45
1405.92
1405.45
1404.99
1404.58
1404.16
1403.79
1403.44
1403.13
1402.85
1402.6
1402.36
1402.23
1402.03
1402.03
1401.94
1402.23
1402.67
1403.81
2454.75
2305.66
2580.42
2808.69
2934.18
3010.06
2994.5
2967.46
3014.8
3085.7
3149.95
3196.71
3222.3
3229.98
3222.15
3204.04
3178.24
3148.9
3117.73
3086.35
3054.87
3022.96
2992.1
2961.51
2933.77
2907.05
2883.05
2860.33
2840.04
2820.94
2803.62
2787.95
2773.23
2760.4
2748.05
2737.32
2727.1
2717.93
2709.54
2701.66
2694.71
2687.99
2682.03
2676.3
2670.89
2665.83
2660.95
2656.46
2652.15
2648.16
2644.41
2640.9
2637.63
2634.6
2631.72
2629.13
2626.6
2624.31
2622.13
2620.05
2618.2
2616.35
2614.77
2613.13
2611.69
2610.32
2608.96
2607.82
2606.64
2605.65
2604.72
2603.88
2603.12
2602.42
2601.79
2601.18
2600.59
2600.02
2599.48
2598.99
2598.59
2598.27
2598.03
2597.84
2597.67
2597.53
2597.4
2597.32
2597.28
2597.29
2597.33
2597.43
2597.55
2597.79
2597.91
2598.42
2598.6
2599.59
2600.51
2602.48
6588.07
7481.94
7876.74
7936.03
7826.34
7629.96
7415.06
7222.1
7053.56
6914.31
6805.46
6723.31
6664.16
6621.5
6591.94
6570.17
6554.28
6541.63
6531.08
6522.65
6514.72
6509.07
6503.92
6500.32
6497.55
6494.86
6493.61
6491.56
6490.69
6488.9
6487.37
6485.54
6483.23
6481.45
6478.68
6476.84
6474.08
6472.04
6469.64
6467.46
6465.53
6463.38
6461.84
6460
6458.68
6457.26
6456.06
6454.94
6453.9
6452.96
6452.1
6451.35
6450.67
6450.2
6449.64
6449.48
6449.09
6449.15
6449.07
6449.23
6449.55
6449.77
6450.39
6450.75
6451.46
6452.1
6452.82
6453.82
6454.62
6455.86
6456.88
6458.19
6459.47
6460.79
6462.27
6463.63
6465.25
6466.76
6468.47
6470.19
6471.96
6473.84
6475.65
6477.58
6479.42
6481.37
6483.3
6485.29
6487.38
6489.42
6491.63
6493.75
6496.06
6498.31
6500.69
6502.97
6505.27
6507.21
6508.47
6508.47
5484.87
3370.09
2417.46
1949.55
1666.19
1481.28
1347.34
1246.28
1163.95
1095.44
1036.66
985.001
938.884
897.077
858.791
823.426
790.274
758.929
729.132
700.474
672.863
646.653
621.612
597.73
575.42
554.061
533.219
513.576
494.758
475.547
456.701
438.967
421.488
404.626
388.988
373.843
359.136
345.459
331.975
318.272
305.901
295.46
286.074
278.459
273.763
269.863
264.32
259.378
259.726
265.842
272.596
274.284
269.97
262.902
255.729
249.091
242.858
236.639
230.374
224.277
218.754
214.05
210.299
207.185
204.394
201.216
196.932
190.652
182.085
171.315
159.217
146.624
134.327
122.579
111.711
101.825
93.2574
85.8181
79.2955
73.5863
69.0121
65.577
63.2773
61.8403
61.086
60.6984
60.5435
60.3941
60.2417
59.9809
59.6982
59.3494
59.0552
58.7681
58.583
58.4152
58.3367
58.2451
58.2244
58.1621
1569.94
2577.35
2361.35
1987.71
1703.35
1502.66
1355.45
1244.11
1154.1
1080.9
1019.2
965.771
919.149
877.764
840.426
806.403
774.672
744.779
716.424
689.102
662.584
637.295
612.952
589.411
567.232
545.814
524.638
504.486
485.194
465.425
446.323
428.408
410.746
393.728
378.2
363.303
348.845
335.542
322.521
309.292
297.742
288.721
280.946
274.678
271.147
268.143
262.654
256.568
254.926
259.115
264.827
266.569
262.949
256.607
249.961
243.59
237.4
231.163
224.907
218.906
213.477
208.812
205.041
201.921
199.127
196.026
191.895
185.892
177.639
167.172
155.196
142.589
130.178
118.387
107.543
97.8056
89.3465
81.9682
75.6253
70.4247
66.4777
63.6804
61.8625
60.7814
60.2297
59.9922
59.9158
59.8569
59.7545
59.5664
59.3194
59.0328
58.7623
58.5248
58.3497
58.2197
58.1403
58.0805
58.0538
58.025
1139.39
1418.35
1803.52
1802.37
1643.94
1476.57
1337.47
1225.65
1133.49
1057.94
994.518
940.087
893.408
852.573
816.14
783.406
753.054
724.605
697.744
671.9
646.706
622.508
599.022
576.055
554.267
533.098
511.889
491.569
472.039
451.922
432.533
414.478
396.861
379.945
364.752
350.353
336.528
324.038
312.004
299.972
290.205
283.693
278.534
274.32
272.297
270.116
264.12
256.05
251.586
253.156
257.269
258.639
255.456
249.722
243.541
237.404
231.25
225.051
218.948
213.215
208.046
203.545
199.821
196.715
193.912
190.844
186.801
180.997
172.987
162.761
150.877
138.215
125.656
113.782
102.969
93.4127
85.1296
78.0786
72.319
67.8795
64.6401
62.4205
60.9941
60.1672
59.747
59.5897
59.5491
59.5343
59.463
59.3229
59.1089
58.8704
58.6251
58.4188
58.2499
58.1377
58.0566
58.0107
57.9805
57.9671
898.173
848.079
1027.9
1248.96
1340.74
1314.24
1239.47
1156.72
1079.38
1011.68
953.145
902.256
858.44
819.872
785.372
754.589
726.027
699.22
674.052
649.785
626.037
603.08
580.515
558.233
537.01
516.202
495.037
474.7
455.112
434.712
415.035
396.911
379.569
363.172
348.812
335.362
322.766
312.006
301.996
292.495
286.091
283.562
282.138
280.535
279.986
278.239
270.936
259.707
251.166
249.01
250.65
251.008
247.86
242.539
236.729
230.79
224.69
218.63
212.892
207.675
202.994
198.827
195.253
192.205
189.39
186.292
182.229
176.479
168.563
158.428
146.526
133.715
120.929
108.909
98.1044
88.7451
80.8596
74.4949
69.5789
65.9592
63.3795
61.6328
60.4943
59.8301
59.4779
59.3499
59.3129
59.3126
59.2584
59.1554
58.9742
58.7762
58.5561
58.3763
58.2159
58.1155
58.0329
57.9938
57.9607
57.9553
676.13
656.823
667.605
732.014
835.749
921.936
960.571
959.376
934.782
900.905
864.807
829.649
797.549
767.755
739.826
714.295
689.837
666.16
643.798
621.783
599.859
578.504
557.077
535.562
514.939
494.394
473.169
452.621
432.668
411.852
391.934
373.92
357.439
342.799
330.488
319.633
310.303
303.059
296.768
291.721
290.46
292.987
295.605
296.181
296.052
293.811
284.534
269.228
255.367
248.177
246.183
244.64
240.936
235.708
230.104
224.315
218.335
212.583
207.487
203.115
199.21
195.594
192.308
189.384
186.556
183.353
179.124
173.227
165.177
154.904
142.789
129.685
116.564
104.315
93.4925
84.4293
77.1758
71.6594
67.5942
64.6982
62.6409
61.2321
60.2733
59.6908
59.3512
59.2128
59.1523
59.1457
59.0957
59.0224
58.8719
58.7108
58.5155
58.3641
58.2167
58.13
58.0474
58.0138
57.9778
57.978
531.279
531.493
527.593
528.302
540.572
567.009
599.029
629.088
651.498
664.611
669.901
669.608
666.052
659.568
650.171
639.283
626.196
611.105
595.488
578.638
560.583
542.21
522.881
502.736
482.836
462.449
441.181
420.19
399.409
378.432
359.582
343.81
330.809
321.441
314.906
310.255
307.074
305.154
304.089
304.727
308.885
315.5
320.382
320.993
319.278
315.402
304.331
285.299
265.718
252.455
245.499
240.869
235.753
230.103
224.43
218.719
212.988
207.836
203.763
200.675
197.932
195.146
192.314
189.594
186.757
183.372
178.811
172.538
164.082
153.401
140.849
127.31
113.788
101.295
90.4866
81.7639
75.0812
70.2213
66.7383
64.2932
62.5224
61.2745
60.366
59.7774
59.3862
59.1949
59.077
59.0415
58.9746
58.9185
58.7898
58.6699
58.5026
58.3858
58.2519
58.1837
58.1007
58.0765
58.0363
58.0454
439.964
441.561
440.077
435.225
428.238
422.977
418.854
415.903
416.296
418.921
423.88
432.889
443.465
455.516
468.2
479.444
487.999
492.574
493.338
490.062
482.904
472.541
459.12
443.43
426.1
407.22
387.726
368.629
350.403
334.535
322.463
316.694
315.426
316.715
319.233
322.216
324.618
326.843
330.004
334.693
341.459
348.958
353.039
351.264
346.388
340.11
328.044
307.127
283.031
263.629
250.699
241.725
234.156
227.366
221.215
215.494
210.237
206.134
203.598
202.3
201.145
199.479
197.251
194.808
191.961
188.33
183.287
176.426
167.299
155.97
142.8
128.791
114.95
102.351
91.5391
82.9091
76.298
71.4808
67.9521
65.4384
63.5337
62.1498
61.0597
60.3125
59.7423
59.4216
59.1729
59.072
58.9426
58.8907
58.7588
58.6886
58.5375
58.4708
58.3403
58.3097
58.2176
58.224
58.1713
58.2114
369.67
371.595
371.435
368.104
361.228
352.427
342.215
330.609
319.329
308.492
297.945
290.499
284.639
281.642
283.861
288.576
296.855
308.373
319.183
329.398
338.191
342.366
342.563
339.702
332.847
324.565
316.071
308.348
305.899
308.34
314.993
325.709
336.755
345.644
353.112
358.98
362.566
365.688
370.343
376.226
382.46
387.614
388.019
382.458
373.823
364.634
352.095
331.713
305.992
282.036
263.485
249.688
238.947
230.378
223.326
217.499
212.94
210.308
209.75
210.612
211.253
210.788
209.134
206.941
204.037
200.131
194.52
186.989
177.024
164.921
150.996
136.538
122.493
110.107
99.4441
90.7584
83.6652
78.1858
73.7325
70.3448
67.4972
65.3539
63.5005
62.2072
61.0925
60.4451
59.847
59.6015
59.2742
59.2156
58.989
59.0009
58.8043
58.8554
58.6827
58.7744
58.6283
58.7585
58.649
58.8262
309.931
309.835
308.784
305.501
299.653
291.66
282.304
272.044
262.098
252.771
245.093
239.202
235.422
233.59
233.586
234.92
237.297
240.874
245.094
250.016
255.75
261.643
267.714
274.166
281.151
289.102
298.52
310.83
325.861
341.648
357.809
373.506
386.415
396.118
403.681
408.819
411.693
414.372
418.207
422.398
425.074
423.872
417.462
407.05
395.15
384.006
372.151
354.909
331.222
305.85
283.662
265.931
252.143
241.612
233.456
227.49
223.785
222.905
224.531
227.512
229.645
229.985
228.536
226.389
223.291
219.107
212.898
204.759
193.926
181.057
166.185
151.21
136.823
125.002
115.032
107.156
100.016
94.2646
88.6353
83.9591
79.1347
75.3145
71.4447
68.7638
66.0909
64.6171
62.9738
62.3946
61.4055
61.3655
60.7276
61.0068
60.5492
61.0204
60.633
61.1975
60.8128
61.448
61.0992
61.8619
235.951
236.775
237.18
236.724
235.535
233.918
232.678
232.426
233.731
236.723
241.584
247.266
254.247
261.362
267.947
273.97
279.02
283.423
287.745
291.794
296.091
301.487
308.117
316.369
326.569
338.765
353.25
369.558
386.451
403.392
420.204
435.372
447.174
455.459
460.696
463.276
464.082
464.255
463.792
461.471
455.059
443.606
429.273
414.428
400.901
390.691
382.474
371.423
353.662
330.974
308.321
288.764
273.106
261.161
252.188
246.349
243.795
244.88
248.503
252.947
255.561
255.72
253.786
251.285
247.762
243.351
236.657
228.124
216.577
203.273
187.691
172.556
157.756
146.356
136.786
130.51
124.3
120.025
114.525
110.333
104.247
99.6311
93.2307
89.0715
83.4795
80.7648
76.635
75.6055
72.8133
73.1144
71.2919
72.6012
71.3862
73.3091
72.2698
74.3843
73.2605
75.5037
74.4283
77.0348
255.036
255.571
256.242
257.926
260.819
265.294
271.205
278.62
286.766
295.74
304.488
312.987
320.412
326.484
331.507
335.728
339.277
342.755
346.404
350.327
355.32
361.753
369.86
379.95
391.901
405.833
421.517
438.105
455.196
472.741
489.584
503.348
512.021
515.35
514.617
511.395
506.258
499.335
489.809
476.087
457.785
437.639
419.119
403.538
391.789
385.053
381.964
378
368.081
351.338
331.447
312.664
296.978
284.846
276.052
271.215
270.544
273.868
279.074
283.765
285.231
283.818
280.512
277.082
272.891
268.317
261.655
253.379
241.77
228.595
213.125
198.7
184.397
173.509
163.859
158.316
152.892
150.415
146.459
144.884
140.597
138.579
133.187
130.788
125.075
123.416
118.508
118.392
114.768
116.291
113.957
116.924
115.404
119.151
117.664
121.502
119.687
123.675
121.855
126.558
326.199
325.575
325.525
326.823
329.64
333.912
339.5
346.109
353.297
361.031
368.697
376.098
383.005
389.079
394.562
399.548
404.154
408.66
413.245
418.276
424.459
432.041
441.191
452.209
464.846
478.817
494.072
510.433
527.91
545.547
559.964
567.825
568.281
562.173
551.927
539.546
524.806
507.203
486.465
463.094
439.418
418.754
402.541
390.247
382.035
378.431
378.507
378.928
374.887
364.057
348.309
331.981
317.879
307.128
300.111
297.789
300.278
306.384
312.719
316.186
314.881
310.63
305.175
300.183
295.092
290.051
283.352
274.887
263.264
250.303
236.222
223.706
212.117
203.014
194.682
189.02
184.427
182.426
180.681
180.923
180.353
181.244
180.466
181.269
180.091
181.087
179.855
181.375
180.261
182.494
181.647
184.611
183.768
187.105
185.829
189.213
187.432
191.158
189.299
194.048
385.02
384.549
384.79
386.511
389.938
395.026
401.758
409.715
418.674
428.029
437.057
445.722
453.661
460.645
467.047
472.82
478.261
483.606
489.056
495
501.745
509.555
518.663
529.136
540.752
553.751
568.762
585.647
603.139
617.608
623.354
618.419
604.934
585.926
564.369
541.807
518.139
493.242
467.792
443.206
421.759
405.105
393.029
384.572
379.469
377.789
378.957
380.79
379.494
372.461
360.431
347.244
336.142
328.628
325.383
327.529
334.728
344.042
350.648
351.286
345.893
337.891
329.678
322.484
315.734
308.939
300.739
290.851
279.266
267.614
256.795
247.804
240.332
234.494
229.721
226.134
223.369
221.899
221.554
222.413
223.9
225.892
227.691
229.704
231.016
232.791
233.422
235.046
235.105
236.993
236.816
239.18
238.584
241.272
240
242.907
241.074
244.547
242.624
247.305
455.413
455.263
455.93
458.26
462.527
468.784
476.857
486.416
497.044
508.304
519.374
530.227
540.163
549.041
557.097
564.119
570.443
576.138
581.499
586.789
592.133
598.136
605.126
613.095
622.478
634.266
649.014
665.087
677.847
680.394
669.201
646.844
618.562
588.943
559.865
531.663
504.458
478.284
453.861
432.378
415.454
403.591
395.691
390.655
387.839
387.04
387.888
389.095
388.06
382.657
373.411
363.98
357.658
355.703
358.648
367.557
380.839
393.008
398.156
394.112
383.535
371.049
359.372
349.189
339.679
330.042
319.742
309.135
299.186
290.914
284.733
280.279
277.204
275.121
273.95
273.562
273.933
274.936
276.213
277.777
279.172
280.809
281.988
283.489
284.192
285.497
285.62
286.95
286.696
288.551
288.175
290.69
289.887
292.86
291.221
294.616
292.284
296.52
294.047
299.829
546.996
547.327
548.713
552.159
558.121
566.684
577.646
590.594
605.048
620.15
635.022
649.231
661.718
672.354
681.12
687.69
692.526
695.66
697.448
698.357
698.838
699.982
702.371
706.391
713.315
723.852
736.651
746.764
745.432
727.94
698.256
662.156
625.015
590.327
558.466
528.981
501.958
477.442
456.028
438.887
426.848
419.568
415.504
413.272
411.98
411.266
410.875
410.19
407.768
402.502
395.6
391.16
392.167
398.783
410.861
428.972
448.859
462.096
463.004
452.39
435.826
418.344
402.548
388.861
376.325
364.296
353.173
343.946
337.523
334.014
332.793
332.906
333.82
335.217
337.004
339.172
341.547
344.11
346.456
348.737
350.432
352.052
352.925
353.983
354.201
355.028
354.88
355.954
355.758
357.523
357.152
359.552
358.607
361.551
359.551
363.321
360.336
365.521
362.137
369.505
688.163
689.173
691.6
696.794
705.523
717.907
733.619
751.967
772.081
792.255
811.501
828.221
841.393
850.669
855.936
857.18
855.165
850.233
843.22
835.457
827.94
822.181
819.283
819.9
825.028
833.233
839.39
835.092
812.773
775.804
732.58
688.824
648.082
611.781
579.57
550.901
525.525
503.548
485.668
472.923
465.554
462.503
461.8
461.81
461.455
460.271
458.084
454.749
449.934
444.176
440.374
443.617
456.042
475.563
500.575
530.11
555.316
565.843
558.911
540.234
517.246
494.674
474.717
457.737
442.967
430.089
420.206
414.427
412.879
414.604
418.044
422.176
426.329
430.351
434.057
437.602
440.738
443.589
445.812
447.652
448.799
449.731
450.107
450.583
450.59
451.053
450.998
451.863
451.926
453.395
453.221
455.252
454.385
457.068
454.945
459.059
455.392
462.073
457.259
467.687
930.545
932.517
936.451
944.446
957.696
976.192
998.913
1024.47
1050.62
1074.72
1095.13
1108.99
1115.99
1115.58
1108.71
1096.37
1079.78
1060.35
1040.07
1021.14
1004.56
992.28
985.811
984.674
987.529
989.475
981.425
955.322
912.008
860.146
807.891
759.953
717.935
681.631
650.313
623.047
599.509
580.203
565.918
557.302
554.138
554.877
557.139
558.999
559.197
557.206
552.952
546.565
538.821
533.081
535.553
552.345
583.496
622.754
665.651
707.159
733.019
734.676
716.365
688.897
659.622
632.486
609.283
590.23
574.688
563.021
556.659
556.098
560.228
566.991
574.424
581.65
587.998
593.457
597.884
601.579
604.418
606.638
608.096
609.087
609.554
609.846
609.888
610.032
610.052
610.398
610.57
611.326
611.642
612.796
612.89
614.472
613.861
616.155