/*--------------------------------*- C++ -*----------------------------------*\
| =========                 |                                                 |
| \\      /  F ield         | OpenFOAM: The Open Source CFD Toolbox           |
|  \\    /   O peration     | Version:  v2012                                 |
|   \\  /    A nd           | Website:  www.openfoam.com                      |
|    \\/     M anipulation  |                                                 |
\*---------------------------------------------------------------------------*/
FoamFile
{
    version     2.0;
    format      ascii;
    class       surfaceScalarField;
    location    "0.017";
    object      phi.air;
}
// * * * * * * * * * * * * * * * * * * * * * * * * * * * * * * * * * * * * * //

dimensions      [0 3 -1 0 0 0 0];
oriented        oriented;


internalField   nonuniform List<scalar> 
3672
(
0.00640059
7.1715e-06
0.00639133
9.01056e-06
0.00638135
9.7266e-06
0.00637036
1.07379e-05
0.00635822
1.18933e-05
0.00634447
1.34963e-05
0.00632939
1.4835e-05
0.00631009
1.90438e-05
0.00628535
2.44858e-05
5.55349e-05
0.00622957
0.00641088
4.28668e-06
0.00641306
6.83599e-06
0.00641549
7.30037e-06
0.00641808
8.14384e-06
0.00642069
9.28517e-06
0.00642327
1.09162e-05
0.00642507
1.30352e-05
0.00642617
1.7942e-05
0.00642194
2.87115e-05
5.34292e-05
0.00642405
0.00640988
2.41028e-06
0.00641221
4.50118e-06
0.00641468
4.82834e-06
0.00641741
5.42161e-06
0.00642025
6.44317e-06
0.00642319
7.97049e-06
0.0064258
1.04266e-05
0.00642814
1.56044e-05
0.00642999
2.68564e-05
4.63359e-05
0.00643709
0.00640935
1.05727e-06
0.00641174
2.11479e-06
0.00641426
2.31079e-06
0.00641696
2.71698e-06
0.00641989
3.51388e-06
0.00642301
4.85455e-06
0.00642612
7.3147e-06
0.0064295
1.22263e-05
0.00643404
2.23154e-05
3.7855e-05
0.00644252
0.00640916
-9.80462e-08
0.0064115
-2.28968e-07
0.00641402
-2.08922e-07
0.00641673
4.55624e-09
0.00641975
4.93951e-07
0.00642306
1.54154e-06
0.00642666
3.7173e-06
0.00643088
8.00671e-06
0.00643685
1.63459e-05
2.83976e-05
0.00644631
0.00640917
-1.26726e-06
0.00641156
-2.6206e-06
0.00641413
-2.78093e-06
0.00641689
-2.7526e-06
0.00642
-2.61752e-06
0.00642349
-1.94978e-06
0.00642748
-2.68397e-07
0.00643234
3.14894e-06
0.00643916
9.52662e-06
1.84079e-05
0.00644915
0.0064094
-2.66354e-06
0.00641185
-5.07463e-06
0.00641445
-5.38037e-06
0.00641729
-5.58984e-06
0.00642051
-5.83766e-06
0.00642418
-5.61993e-06
0.00642844
-4.53507e-06
0.00643379
-2.20104e-06
0.00644112
2.20044e-06
8.24302e-06
0.00645129
0.00640996
-4.62168e-06
0.0064124
-7.5183e-06
0.006415
-7.97635e-06
0.00641793
-8.5175e-06
0.00642123
-9.14483e-06
0.00642503
-9.41412e-06
0.00642952
-9.02745e-06
0.00643522
-7.89756e-06
0.00644284
-5.42104e-06
-1.93516e-06
0.00645302
0.00641101
-7.63025e-06
0.00641334
-9.85082e-06
0.00641589
-1.05295e-05
0.00641873
-1.13497e-05
0.00642186
-1.22823e-05
0.00642546
-1.30079e-05
0.00642975
-1.33159e-05
0.00643526
-1.34152e-05
0.00644253
-1.2689e-05
-1.15572e-05
0.00645215
0.00640062
0.00639102
0.00638074
0.00636964
0.00635761
0.00634485
0.00633179
0.00631862
0.00630618
0.00629488
0.00612786
0.000266131
-0.000164418
0.00589415
0.000215984
1.77253e-05
0.0055952
-5.45247e-05
0.00035347
0.00530461
-0.000296505
0.000587092
0.0050439
-0.000427114
0.000687831
0.00486343
-0.000488206
0.000668675
0.00480055
-0.000576502
0.000639379
0.00482814
-0.000801879
0.000774293
0.00491767
-0.00129005
0.00120052
0.00500214
-0.0019763
0.00189183
0.00502471
-0.00252738
0.00250481
0.0049783
-0.00269635
0.00274276
0.00486886
-0.00250193
0.00261138
0.00474028
-0.0020562
0.00218478
0.00463699
-0.00155119
0.00165448
0.00456894
-0.0011211
0.00118915
0.00452594
-0.000790819
0.000833817
0.00449807
-0.000552138
0.000580012
0.00447868
-0.000385995
0.000405388
0.00446403
-0.000273356
0.000288002
0.0044521
-0.000198624
0.000210554
0.00444174
-0.00014992
0.00016028
0.00443233
-0.000118478
0.000127886
0.00442364
-9.81784e-05
0.000106869
0.00441562
-8.50157e-05
9.30431e-05
0.00440816
-7.64176e-05
8.3869e-05
0.00440106
-7.08265e-05
7.79292e-05
0.00439403
-6.73907e-05
7.44259e-05
0.00438682
-6.55683e-05
7.2775e-05
0.00437921
-6.48327e-05
7.24398e-05
0.004371
-6.45849e-05
7.27976e-05
0.00436204
-6.41999e-05
7.31572e-05
0.00435227
-6.31131e-05
7.28894e-05
0.00434166
-6.09629e-05
7.15696e-05
0.00433035
-5.78652e-05
6.9178e-05
0.00431869
-5.4615e-05
6.62679e-05
0.00430721
-5.253e-05
6.40162e-05
0.00429632
-5.26679e-05
6.35509e-05
0.0042864
-5.51093e-05
6.50327e-05
0.00427765
-5.88834e-05
6.76374e-05
0.00427004
-6.22568e-05
6.98644e-05
0.00426333
-6.32187e-05
6.99323e-05
0.00425716
-6.03034e-05
6.64684e-05
0.00425123
-5.33928e-05
5.93213e-05
0.00424522
-4.32803e-05
4.92953e-05
0.00423883
-3.11116e-05
3.74972e-05
0.00423209
-1.83114e-05
2.505e-05
0.00422525
-6.35125e-06
1.31976e-05
0.00421855
3.60399e-06
3.09577e-06
0.00421211
1.07702e-05
-4.33382e-06
0.00420603
1.48598e-05
-8.78034e-06
0.00420044
1.6228e-05
-1.06386e-05
0.00419551
1.56338e-05
-1.0697e-05
0.00419132
1.3879e-05
-9.6893e-06
0.00418788
1.15925e-05
-8.15718e-06
0.00418514
9.21883e-06
-6.48264e-06
0.00418302
7.02263e-06
-4.89906e-06
0.00418141
5.13613e-06
-3.52805e-06
0.00418022
3.59808e-06
-2.40598e-06
0.00417936
2.40315e-06
-1.54033e-06
0.00417875
1.50628e-06
-8.97296e-07
0.00417833
8.53297e-07
-4.34476e-07
0.00417805
3.98003e-07
-1.21483e-07
0.00417787
8.34464e-08
1.03162e-07
0.00417774
-1.18689e-07
2.46674e-07
0.00417765
-2.4882e-07
3.34412e-07
0.0041776
-3.34677e-07
3.90423e-07
0.00417756
-3.88201e-07
4.24139e-07
0.00417754
-4.20979e-07
4.43835e-07
0.00417752
-4.4055e-07
4.54902e-07
0.00417752
-4.51951e-07
4.60865e-07
0.00417751
-4.58398e-07
4.63891e-07
0.00417751
-4.61915e-07
4.65286e-07
0.0041775
-4.63743e-07
4.65816e-07
0.0041775
-4.64643e-07
4.65934e-07
0.0041775
-4.65038e-07
4.6586e-07
0.0041775
-4.65178e-07
4.65724e-07
0.0041775
-4.65194e-07
4.65581e-07
0.0041775
-4.65168e-07
4.65468e-07
0.0041775
-4.65135e-07
4.6539e-07
0.0041775
-4.65132e-07
4.65364e-07
0.0041775
-4.6516e-07
4.65376e-07
0.0041775
-4.65239e-07
4.65445e-07
0.0041775
-4.65374e-07
4.65576e-07
0.0041775
-4.65618e-07
4.65812e-07
0.0041775
-4.66026e-07
4.66201e-07
0.0041775
-4.66734e-07
4.66871e-07
0.0041775
-4.67976e-07
4.68043e-07
0.0041775
-4.70203e-07
4.70148e-07
0.0041775
-4.74215e-07
4.73944e-07
0.0041775
-4.81484e-07
4.80824e-07
0.0041775
-4.94594e-07
4.93232e-07
0.0041775
-5.18378e-07
5.15783e-07
0.00417751
-5.61143e-07
5.56388e-07
0.00417752
-6.38781e-07
6.30461e-07
0.00417753
-7.78604e-07
7.63954e-07
0.00417756
-1.02403e-06
1.00051e-06
0.0041776
-1.49914e-06
1.45606e-06
0.00417765
-2.09006e-06
2.03522e-06
-4.24144e-06
4.09044e-06
0.00649174
0.000198445
0.00652936
0.000178362
0.00649798
-2.31437e-05
0.00643027
-0.000228798
0.00633239
-0.000329235
0.00621545
-0.000371271
0.00609832
-0.00045937
0.00600574
-0.000709297
0.0059194
-0.00120372
0.00578519
-0.00184209
0.00557876
-0.00232095
0.00532118
-0.00243877
0.00505558
-0.00223634
0.00484257
-0.00184319
0.00470004
-0.00140866
0.00460916
-0.00103022
0.00455182
-0.000733486
0.00451446
-0.000514778
0.0044887
-0.000360237
0.00446979
-0.000254439
0.004455
-0.00018384
0.00444276
-0.000137681
0.00443218
-0.000107894
0.00442279
-8.87939e-05
0.00441436
-7.65817e-05
0.00440668
-6.87418e-05
0.00439951
-6.36508e-05
0.00439251
-6.03966e-05
0.00438544
-5.84894e-05
0.00437805
-5.74464e-05
0.00437014
-5.66781e-05
0.00436157
-5.56254e-05
0.00435228
-5.38286e-05
0.00434237
-5.10505e-05
0.00433205
-4.75477e-05
0.0043216
-4.41639e-05
0.00431118
-4.21061e-05
0.00430087
-4.23633e-05
0.00429083
-4.50627e-05
0.00428115
-4.92032e-05
0.00427185
-5.29621e-05
0.00426286
-5.42234e-05
0.00425403
-5.14768e-05
0.00424529
-4.46474e-05
0.00423667
-3.4667e-05
0.00422841
-2.28459e-05
0.00422074
-1.0649e-05
0.00421381
5.84798e-07
0.00420762
9.78814e-06
0.00420212
1.62714e-05
0.00419721
1.97721e-05
0.00419286
2.05814e-05
0.00418911
1.93797e-05
0.004186
1.69924e-05
0.00418349
1.41017e-05
0.00418152
1.11916e-05
0.00418
8.53936e-06
0.00417886
6.27757e-06
0.00417801
4.44191e-06
0.0041774
3.01638e-06
0.00417696
1.94697e-06
0.00417664
1.16972e-06
0.00417642
6.24723e-07
0.00417625
2.47493e-07
0.00417615
-1.21344e-08
0.00417608
-1.84548e-07
0.00417604
-2.93724e-07
0.00417602
-3.62781e-07
0.004176
-4.05225e-07
0.00417599
-4.30787e-07
0.00417598
-4.45884e-07
0.00417598
-4.54614e-07
0.00417598
-4.59542e-07
0.00417598
-4.62246e-07
0.00417598
-4.63672e-07
0.00417597
-4.64381e-07
0.00417597
-4.64701e-07
0.00417597
-4.64834e-07
0.00417597
-4.64877e-07
0.00417597
-4.64888e-07
0.00417597
-4.64896e-07
0.00417597
-4.64925e-07
0.00417597
-4.64995e-07
0.00417597
-4.65138e-07
0.00417597
-4.65387e-07
0.00417597
-4.65805e-07
0.00417597
-4.6651e-07
0.00417597
-4.6775e-07
0.00417597
-4.69979e-07
0.00417597
-4.74011e-07
0.00417597
-4.81317e-07
0.00417597
-4.94491e-07
0.00417597
-5.18417e-07
0.00417597
-5.61527e-07
0.00417597
-6.39969e-07
0.00417598
-7.81693e-07
0.00417598
-1.02929e-06
0.00417599
-1.51331e-06
0.00417601
-2.10362e-06
-4.28688e-06
0.00648996
0.000145571
0.00652825
0.000140079
0.0065315
-2.63955e-05
0.00649859
-0.000195893
0.00646336
-0.000294003
0.00643509
-0.000343001
0.00640887
-0.000433147
0.00636027
-0.000660697
0.0062397
-0.00108315
0.0060101
-0.00161248
0.00569699
-0.00200784
0.00536671
-0.00210849
0.00507868
-0.00194831
0.00486528
-0.00162979
0.00472136
-0.00126474
0.00462743
-0.000936287
0.00456627
-0.000672321
0.00452538
-0.000473894
0.00449687
-0.000331729
0.00447601
-0.000233571
0.00445992
-0.00016775
0.00444686
-0.000124627
0.00443585
-9.6885e-05
0.00442634
-7.92851e-05
0.00441797
-6.82057e-05
0.00441041
-6.11835e-05
0.00440334
-5.65867e-05
0.00439645
-5.35052e-05
0.00438948
-5.15191e-05
0.00438222
-5.01867e-05
0.00437448
-4.89314e-05
0.00436611
-4.72622e-05
0.00435712
-4.48379e-05
0.00434765
-4.15736e-05
0.00433795
-3.78494e-05
0.0043282
-3.44135e-05
0.00431833
-3.22419e-05
0.00430815
-3.218e-05
0.00429744
-3.43516e-05
0.0042861
-3.78621e-05
0.00427424
-4.11018e-05
0.00426212
-4.21046e-05
0.00425007
-3.94269e-05
0.00423849
-3.30653e-05
0.00422776
-2.39449e-05
0.00421821
-1.32895e-05
0.00421003
-2.47364e-06
0.00420327
7.34876e-06
0.00419779
1.52668e-05
0.00419335
2.07144e-05
0.00418966
2.34549e-05
0.00418656
2.36864e-05
0.00418399
2.19533e-05
0.00418192
1.90615e-05
0.0041803
1.57209e-05
0.00417905
1.24383e-05
0.0041781
9.48616e-06
0.00417739
6.9873e-06
0.00417687
4.96824e-06
0.00417648
3.40124e-06
0.00417621
2.22306e-06
0.00417601
1.3617e-06
0.00417589
7.50874e-07
0.00417581
3.21835e-07
0.00417576
3.96474e-08
0.00417572
-1.42973e-07
0.00417569
-2.61838e-07
0.00417567
-3.40462e-07
0.00417565
-3.90028e-07
0.00417564
-4.20685e-07
0.00417563
-4.39257e-07
0.00417563
-4.50301e-07
0.00417563
-4.56745e-07
0.00417563
-4.60427e-07
0.00417562
-4.62477e-07
0.00417562
-4.6358e-07
0.00417562
-4.64148e-07
0.00417562
-4.64434e-07
0.00417562
-4.64565e-07
0.00417562
-4.64622e-07
0.00417562
-4.64655e-07
0.00417562
-4.64694e-07
0.00417562
-4.64768e-07
0.00417562
-4.64908e-07
0.00417562
-4.65152e-07
0.00417562
-4.65565e-07
0.00417562
-4.66269e-07
0.00417562
-4.67509e-07
0.00417562
-4.69736e-07
0.00417562
-4.73756e-07
0.00417562
-4.81032e-07
0.00417562
-4.94137e-07
0.00417562
-5.17897e-07
0.00417562
-5.60576e-07
0.00417562
-6.38055e-07
0.00417561
-7.77447e-07
0.0041756
-1.02113e-06
0.00417559
-1.49758e-06
0.00417556
-2.07883e-06
-4.28548e-06
0.00648239
0.0001057
0.0065209
0.000101569
0.00652308
-2.85743e-05
0.00649539
-0.000168205
0.00645934
-0.000257952
0.0064262
-0.000309864
0.00639076
-0.000397706
0.00632728
-0.000597221
0.00619241
-0.000948273
0.00596131
-0.00138139
0.00566317
-0.0017097
0.00535865
-0.00180397
0.00509473
-0.00168439
0.00489329
-0.00142834
0.00475184
-0.0011233
0.00465556
-0.00084
0.00459018
-0.000606941
0.00454497
-0.000428691
0.0045128
-0.000299552
0.00448908
-0.000209851
0.00447085
-0.000149521
0.00445623
-0.00011001
0.00444414
-8.47957e-05
0.00443395
-6.90863e-05
0.00442516
-5.94163e-05
0.00441734
-5.33631e-05
0.00441006
-4.93134e-05
0.00440297
-4.64158e-05
0.00439581
-4.43572e-05
0.00438837
-4.27427e-05
0.00438046
-4.10229e-05
0.00437199
-3.87898e-05
0.00436297
-3.58185e-05
0.00435355
-3.2157e-05
0.00434398
-2.82818e-05
0.00433435
-2.47825e-05
0.00432445
-2.23439e-05
0.00431389
-2.16157e-05
0.00430223
-2.26963e-05
0.00428921
-2.48373e-05
0.00427488
-2.67736e-05
0.0042597
-2.69213e-05
0.00424448
-2.42118e-05
0.00423015
-1.87347e-05
0.00421737
-1.11635e-05
0.00420656
-2.48293e-06
0.00419794
6.14807e-06
0.00419145
1.38423e-05
0.00418679
1.99211e-05
0.00418355
2.39556e-05
0.00418126
2.57525e-05
0.00417955
2.53932e-05
0.0041783
2.32047e-05
0.00417743
1.99261e-05
0.00417687
1.62828e-05
0.00417651
1.27996e-05
0.00417627
9.72427e-06
0.00417611
7.15118e-06
0.00417599
5.08669e-06
0.0041759
3.49001e-06
0.00417583
2.29188e-06
0.00417578
1.41781e-06
0.00417572
8.01539e-07
0.00417567
3.75103e-07
0.00417563
8.34093e-08
0.0041756
-1.14889e-07
0.00417559
-2.49673e-07
0.00417558
-3.34111e-07
0.00417558
-3.86543e-07
0.00417558
-4.18409e-07
0.00417557
-4.37618e-07
0.00417557
-4.4907e-07
0.00417557
-4.55806e-07
0.00417557
-4.59707e-07
0.00417557
-4.61922e-07
0.00417557
-4.63147e-07
0.00417557
-4.63803e-07
0.00417557
-4.6415e-07
0.00417557
-4.64316e-07
0.00417557
-4.64388e-07
0.00417557
-4.64426e-07
0.00417557
-4.64465e-07
0.00417557
-4.64535e-07
0.00417557
-4.64664e-07
0.00417557
-4.64891e-07
0.00417557
-4.6528e-07
0.00417557
-4.65943e-07
0.00417557
-4.67109e-07
0.00417557
-4.69199e-07
0.00417557
-4.72967e-07
0.00417556
-4.79792e-07
0.00417556
-4.92091e-07
0.00417556
-5.14479e-07
0.00417555
-5.5473e-07
0.00417554
-6.28366e-07
0.00417553
-7.60826e-07
0.0041755
-9.93705e-07
0.00417545
-1.45226e-06
0.00417538
-2.00692e-06
-4.18037e-06
0.00647845
7.35573e-05
0.0065106
6.9418e-05
0.00651234
-3.03093e-05
0.00648778
-0.00014365
0.00645251
-0.000222676
0.00641585
-0.000273213
0.00637204
-0.000353893
0.00629874
-0.000523923
0.00616115
-0.00081068
0.00594048
-0.00116071
0.00566129
-0.00143052
0.00537484
-0.00151752
0.00512252
-0.00143207
0.00492433
-0.00123016
0.00477974
-0.00097871
0.00467734
-0.000737595
0.00460526
-0.000534862
0.00455425
-0.000377683
0.00451776
-0.000263059
0.00449104
-0.000183137
0.00447077
-0.000129244
0.00445479
-9.4033e-05
0.00444186
-7.18658e-05
0.00443119
-5.84174e-05
0.00442217
-5.03926e-05
0.00441424
-4.5433e-05
0.0044069
-4.19782e-05
0.00439977
-3.92806e-05
0.00439258
-3.71688e-05
0.00438513
-3.52981e-05
0.00437726
-3.31528e-05
0.00436889
-3.04135e-05
0.00436003
-2.69637e-05
0.00435084
-2.29654e-05
0.00434154
-1.89821e-05
0.00433215
-1.53881e-05
0.00432234
-1.25348e-05
0.00431156
-1.0841e-05
0.00429923
-1.03601e-05
0.00428491
-1.05236e-05
0.0042687
-1.05582e-05
0.00425127
-9.49671e-06
0.0042339
-6.83515e-06
0.00421782
-2.66053e-06
0.00420385
2.81118e-06
0.0041925
8.86846e-06
0.00418392
1.47213e-05
0.00417804
1.97289e-05
0.00417442
2.35357e-05
0.00417252
2.58616e-05
0.00417167
2.65946e-05
0.00417147
2.55927e-05
0.00417177
2.29089e-05
0.00417238
1.93168e-05
0.00417307
1.55967e-05
0.00417369
1.21783e-05
0.0041742
9.21243e-06
0.0041746
6.75366e-06
0.00417489
4.79248e-06
0.0041751
3.2807e-06
0.00417525
2.14679e-06
0.00417535
1.31643e-06
0.00417542
7.25244e-07
0.00417549
3.11011e-07
0.00417553
3.93558e-08
0.00417556
-1.41183e-07
0.00417557
-2.58647e-07
0.00417557
-3.35417e-07
0.00417557
-3.8465e-07
0.00417556
-4.15927e-07
0.00417556
-4.35385e-07
0.00417556
-4.47288e-07
0.00417556
-4.54457e-07
0.00417556
-4.58709e-07
0.00417556
-4.61187e-07
0.00417556
-4.626e-07
0.00417556
-4.63388e-07
0.00417555
-4.63827e-07
0.00417555
-4.64046e-07
0.00417555
-4.64147e-07
0.00417555
-4.64199e-07
0.00417555
-4.64245e-07
0.00417555
-4.64315e-07
0.00417555
-4.64436e-07
0.00417555
-4.64648e-07
0.00417555
-4.65012e-07
0.00417555
-4.65634e-07
0.00417555
-4.6673e-07
0.00417555
-4.6869e-07
0.00417555
-4.72219e-07
0.00417555
-4.78607e-07
0.00417555
-4.90098e-07
0.00417554
-5.10985e-07
0.00417554
-5.4833e-07
0.00417553
-6.1674e-07
0.0041755
-7.38334e-07
0.00417547
-9.55205e-07
0.00417539
-1.3772e-06
0.00417528
-1.89495e-06
-4.03917e-06
0.00647579
4.69106e-05
0.00650251
4.26986e-05
0.00650498
-3.27784e-05
0.00648263
-0.000121296
0.00644765
-0.000187696
0.00640762
-0.000233187
0.00635674
-0.000303007
0.00627538
-0.000442572
0.00613543
-0.000670728
0.00592242
-0.000947704
0.00565712
-0.00116522
0.00538365
-0.00124405
0.00513866
-0.00118707
0.00493997
-0.00103147
0.00478947
-0.00082821
0.00467974
-0.000627865
0.00460115
-0.000456265
0.00454493
-0.000321468
0.00450438
-0.000222508
0.00447457
-0.000153328
0.004452
-0.000106671
0.00443436
-7.63995e-05
0.00442026
-5.77654e-05
0.00440877
-4.69219e-05
0.00439913
-4.07522e-05
0.00439067
-3.69759e-05
0.00438282
-3.41291e-05
0.00437517
-3.16322e-05
0.0043675
-2.9498e-05
0.00435963
-2.74276e-05
0.00435143
-2.49482e-05
0.00434284
-2.18259e-05
0.0043339
-1.80268e-05
0.00432476
-1.38224e-05
0.00431566
-9.88651e-06
0.00430658
-6.30164e-06
0.00429712
-3.0777e-06
0.00428668
-4.03397e-07
0.00427461
1.716e-06
0.00426044
3.64437e-06
0.00424432
5.56525e-06
0.00422713
7.69173e-06
0.0042103
9.98893e-06
0.00419509
1.25569e-05
0.00418229
1.56066e-05
0.00417236
1.8802e-05
0.0041654
2.16784e-05
0.00416122
2.39055e-05
0.00415926
2.54978e-05
0.00415883
2.62908e-05
0.00415966
2.57651e-05
0.00416156
2.36893e-05
0.00416399
2.04823e-05
0.0041664
1.69065e-05
0.00416852
1.34813e-05
0.00417028
1.0415e-05
0.00417169
7.79911e-06
0.00417279
5.65816e-06
0.00417361
3.96928e-06
0.00417421
2.68077e-06
0.00417463
1.72405e-06
0.00417492
1.03185e-06
0.0041751
5.44005e-07
0.0041752
2.06809e-07
0.00417527
-3.04579e-08
0.00417532
-1.86037e-07
0.00417535
-2.93484e-07
0.00417538
-3.59168e-07
0.00417539
-4.00289e-07
0.0041754
-4.25726e-07
0.00417541
-4.41314e-07
0.00417541
-4.50759e-07
0.00417541
-4.56405e-07
0.00417542
-4.59738e-07
0.00417542
-4.61676e-07
0.00417542
-4.62782e-07
0.00417542
-4.63396e-07
0.00417542
-4.63733e-07
0.00417542
-4.63895e-07
0.00417542
-4.63968e-07
0.00417542
-4.64005e-07
0.00417542
-4.6404e-07
0.00417542
-4.64098e-07
0.00417542
-4.64202e-07
0.00417542
-4.64387e-07
0.00417541
-4.64704e-07
0.00417541
-4.65243e-07
0.00417541
-4.66188e-07
0.00417541
-4.67872e-07
0.00417541
-4.70902e-07
0.00417541
-4.76402e-07
0.00417541
-4.86289e-07
0.0041754
-5.04407e-07
0.00417539
-5.36658e-07
0.00417537
-5.97067e-07
0.00417533
-7.02858e-07
0.00417527
-8.9791e-07
0.00417517
-1.27294e-06
0.00417501
-1.72933e-06
-3.77789e-06
0.00647417
2.40227e-05
0.00649682
2.00517e-05
0.00649946
-3.54182e-05
0.00647861
-0.000100449
0.00644364
-0.000152726
0.00640084
-0.00019038
0.00634457
-0.000246737
0.00625734
-0.000355346
0.00611578
-0.000529173
0.00590795
-0.000739865
0.00565122
-0.000908494
0.00538291
-0.000975741
0.00513602
-0.00094017
0.00493014
-0.000825592
0.00477036
-0.000668435
0.00465062
-0.00050812
0.00456226
-0.000367911
0.00449756
-0.000256763
0.00445012
-0.000175069
0.00441491
-0.000118125
0.00438814
-7.99004e-05
0.00436715
-5.54054e-05
0.00435024
-4.08578e-05
0.0043363
-3.2984e-05
0.00432443
-2.88778e-05
0.00431383
-2.6373e-05
0.00430388
-2.418e-05
0.00429419
-2.19496e-05
0.0042846
-1.99028e-05
0.00427497
-1.77936e-05
0.00426521
-1.51978e-05
0.00425529
-1.19057e-05
0.00424536
-8.09252e-06
0.00423582
-4.28181e-06
0.00422706
-1.12911e-06
0.00421898
1.78356e-06
0.00421125
4.6521e-06
0.00420356
7.28858e-06
0.00419537
9.89787e-06
0.00418633
1.26909e-05
0.00417644
1.545e-05
0.00416631
1.78225e-05
0.00415675
1.95458e-05
0.00414847
2.08389e-05
0.00414204
2.20395e-05
0.00413775
2.30939e-05
0.00413552
2.39028e-05
0.00413501
2.44204e-05
0.00413616
2.43413e-05
0.00413913
2.33285e-05
0.00414354
2.1353e-05
0.00414861
1.86174e-05
0.00415354
1.55563e-05
0.0041579
1.25474e-05
0.00416158
9.79444e-06
0.00416459
7.41005e-06
0.00416696
5.42747e-06
0.00416878
3.83913e-06
0.00417014
2.60864e-06
0.00417114
1.68474e-06
0.00417185
1.00672e-06
0.00417237
5.19583e-07
0.00417273
1.82538e-07
0.00417297
-3.79011e-08
0.00417313
-1.92394e-07
0.00417324
-2.87699e-07
0.0041733
-3.53642e-07
0.00417333
-3.95385e-07
0.00417335
-4.21715e-07
0.00417337
-4.38231e-07
0.00417337
-4.4847e-07
0.00417338
-4.54743e-07
0.00417338
-4.58537e-07
0.00417338
-4.60815e-07
0.00417338
-4.62167e-07
0.00417338
-4.62958e-07
0.00417338
-4.63391e-07
0.00417338
-4.6362e-07
0.00417338
-4.63734e-07
0.00417338
-4.63791e-07
0.00417338
-4.6382e-07
0.00417338
-4.63851e-07
0.00417338
-4.63904e-07
0.00417338
-4.63995e-07
0.00417338
-4.64154e-07
0.00417338
-4.64426e-07
0.00417338
-4.64887e-07
0.00417338
-4.65694e-07
0.00417338
-4.67129e-07
0.00417338
-4.69709e-07
0.00417337
-4.74396e-07
0.00417337
-4.82806e-07
0.00417336
-4.98217e-07
0.00417335
-5.2538e-07
0.00417333
-5.76867e-07
0.00417329
-6.6392e-07
0.00417323
-8.33938e-07
0.00417309
-1.13789e-06
0.00417289
-1.51972e-06
-3.4805e-06
0.00647342
3.61754e-06
0.00649329
1.82293e-07
0.00649557
-3.7696e-05
0.00647571
-8.05885e-05
0.00644047
-0.00011749
0.00639522
-0.000145124
0.00633437
-0.000185893
0.00624142
-0.000262394
0.00609525
-0.000383001
0.00588454
-0.000529154
0.00562393
-0.000647884
0.00534711
-0.000698927
0.00508636
-0.000679419
0.00486174
-0.000600968
0.00468003
-0.000486732
0.00453893
-0.000367019
0.00443217
-0.000261147
0.00435268
-0.000177274
0.00429405
-0.000116435
0.00425058
-7.46606e-05
0.0042177
-4.7017e-05
0.00419207
-2.97714e-05
0.00417148
-2.02695e-05
0.00415449
-1.59953e-05
0.00413997
-1.43608e-05
0.00412695
-1.33526e-05
0.00411475
-1.19795e-05
0.00410311
-1.03086e-05
0.00409194
-8.72764e-06
0.00408105
-6.91235e-06
0.00407041
-4.5491e-06
0.00406011
-1.60651e-06
0.00405073
1.28288e-06
0.00404281
3.63901e-06
0.00403666
5.01693e-06
0.0040326
5.84268e-06
0.0040306
6.65203e-06
0.00403018
7.71398e-06
0.00403096
9.11231e-06
0.00403296
1.06969e-05
0.00403602
1.23869e-05
0.0040399
1.39438e-05
0.00404431
1.51393e-05
0.00404911
1.60397e-05
0.0040544
1.67508e-05
0.00406039
1.70987e-05
0.00406734
1.6956e-05
0.0040754
1.63534e-05
0.0040845
1.52475e-05
0.00409413
1.36994e-05
0.00410356
1.19215e-05
0.00411218
9.99242e-06
0.0041197
8.03796e-06
0.00412601
6.23819e-06
0.00413114
4.66925e-06
0.00413518
3.36501e-06
0.00413829
2.3172e-06
0.00414062
1.5075e-06
0.00414233
9.04035e-07
0.00414354
4.71424e-07
0.00414439
1.62225e-07
0.00414496
-5.13808e-08
0.00414533
-1.9439e-07
0.00414558
-2.85668e-07
0.00414574
-3.53385e-07
0.00414585
-3.95063e-07
0.00414592
-4.23505e-07
0.00414596
-4.40305e-07
0.00414599
-4.50106e-07
0.00414601
-4.55856e-07
0.00414602
-4.59197e-07
0.00414603
-4.61125e-07
0.00414603
-4.62228e-07
0.00414603
-4.62856e-07
0.00414603
-4.63211e-07
0.00414603
-4.63428e-07
0.00414603
-4.63541e-07
0.00414603
-4.63585e-07
0.00414603
-4.63577e-07
0.00414603
-4.63563e-07
0.00414603
-4.63567e-07
0.00414603
-4.63592e-07
0.00414603
-4.6364e-07
0.00414603
-4.6372e-07
0.00414603
-4.63844e-07
0.00414603
-4.64045e-07
0.00414603
-4.6438e-07
0.00414603
-4.64965e-07
0.00414603
-4.65996e-07
0.00414603
-4.67851e-07
0.00414603
-4.71238e-07
0.00414602
-4.77301e-07
0.00414601
-4.88591e-07
0.00414599
-5.07961e-07
0.00414596
-5.47386e-07
0.00414591
-6.08064e-07
0.00414582
-7.47546e-07
0.00414565
-9.67306e-07
0.00414533
-1.19607e-06
-3.00055e-06
0.00647007
-1.42939e-05
0.00648759
-1.73413e-05
0.00648751
-3.76139e-05
0.00646583
-5.89157e-05
0.00642704
-7.86973e-05
0.006376
-9.40803e-05
0.00630641
-0.000116306
0.00620082
-0.000156805
0.00603758
-0.000219765
0.00580428
-0.000295851
0.00551448
-0.000358079
0.00520056
-0.000385014
0.00489459
-0.000373447
0.00462236
-0.00032874
0.00439898
-0.000263346
0.00422644
-0.00019448
0.00409865
-0.000133356
0.00400688
-8.55045e-05
0.00394256
-5.21221e-05
0.0038979
-2.99975e-05
0.00386661
-1.57265e-05
0.00384404
-7.20152e-06
0.00382697
-3.19342e-06
0.00381326
-2.28866e-06
0.00380164
-2.74039e-06
0.00379131
-3.02838e-06
0.00378177
-2.43907e-06
0.00377281
-1.34859e-06
0.00376442
-3.36978e-07
0.00375656
9.55038e-07
0.00374952
2.48533e-06
0.00374387
4.04777e-06
0.00373994
5.20514e-06
0.00373787
5.71466e-06
0.00373742
5.46147e-06
0.00373872
4.55029e-06
0.00374211
3.25762e-06
0.00374772
2.10264e-06
0.00375554
1.29562e-06
0.00376546
7.78369e-07
0.00377729
5.51896e-07
0.00379069
5.46407e-07
0.00380517
6.55334e-07
0.00382034
8.68899e-07
0.00383592
1.17792e-06
0.00385151
1.50259e-06
0.0038667
1.76684e-06
0.00388114
1.92153e-06
0.00389447
1.91531e-06
0.00390641
1.75867e-06
0.0039168
1.53073e-06
0.00392554
1.25092e-06
0.00393262
9.5747e-07
0.00393817
6.93376e-07
0.00394238
4.5543e-07
0.00394549
2.5857e-07
0.00394771
9.13491e-08
0.00394927
-4.89029e-08
0.00395034
-1.63951e-07
0.00395106
-2.53506e-07
0.00395154
-3.21376e-07
0.00395186
-3.70527e-07
0.00395207
-4.03216e-07
0.00395221
-4.22783e-07
0.00395229
-4.38457e-07
0.00395235
-4.47391e-07
0.00395238
-4.53581e-07
0.00395239
-4.57167e-07
0.0039524
-4.59369e-07
0.00395241
-4.60823e-07
0.00395241
-4.61747e-07
0.00395241
-4.62317e-07
0.00395241
-4.62666e-07
0.00395241
-4.62849e-07
0.00395241
-4.62921e-07
0.00395241
-4.62957e-07
0.00395241
-4.62991e-07
0.00395241
-4.63049e-07
0.00395241
-4.63055e-07
0.00395241
-4.63052e-07
0.00395241
-4.63084e-07
0.00395241
-4.63116e-07
0.00395241
-4.63184e-07
0.00395241
-4.63284e-07
0.00395241
-4.63382e-07
0.00395241
-4.63499e-07
0.00395241
-4.63704e-07
0.00395241
-4.64041e-07
0.0039524
-4.64625e-07
0.0039524
-4.65679e-07
0.0039524
-4.67619e-07
0.00395239
-4.71065e-07
0.00395238
-4.77574e-07
0.00395236
-4.88322e-07
0.00395232
-5.11328e-07
0.00395226
-5.44667e-07
0.00395214
-6.22465e-07
0.00395192
-7.53449e-07
0.00395149
-7.62575e-07
-2.2857e-06
0.00628098
0.00626403
0.00622681
0.00616829
0.00608999
0.0059963
0.0058804
0.00572399
0.00550463
0.00520919
0.00485152
0.00446693
0.00409391
0.00376561
0.00350271
0.00330868
0.00317578
0.00309073
0.00303907
0.00300953
0.00299427
0.00298753
0.0029848
0.00298298
0.0029807
0.00297814
0.00297616
0.00297527
0.0029754
0.00297682
0.00297977
0.00298428
0.00298995
0.00299613
0.00300205
0.00300706
0.00301078
0.00301335
0.00301511
0.00301635
0.00301737
0.00301838
0.00301949
0.00302083
0.00302247
0.00302443
0.00302666
0.00302905
0.00303143
0.00303365
0.00303565
0.00303736
0.00303878
0.00303994
0.00304086
0.00304158
0.00304213
0.00304255
0.00304285
0.00304306
0.0030432
0.00304329
0.00304335
0.00304339
0.00304342
0.00304343
0.00304344
0.00304345
0.00304345
0.00304346
0.00304346
0.00304346
0.00304346
0.00304346
0.00304346
0.00304346
0.00304346
0.00304346
0.00304346
0.00304346
0.00304346
0.00304346
0.00304346
0.00304346
0.00304346
0.00304346
0.00304346
0.00304346
0.00304346
0.00304346
0.00304345
0.00304345
0.00304343
0.00304341
0.00304336
0.00304328
0.00304312
0.00304283
0.00304253
-0.000950585
0.000786167
-0.00140884
0.000458251
-0.0016524
0.00024356
-0.00168553
3.31341e-05
-0.00153215
-0.000153378
-0.00118273
-0.000349426
-0.000647933
-0.000534793
-0.000648452
-0.000775168
0.00157906
-0.00109775
0.000780835
-0.00120761
0.000353422
-0.00120363
2.91508e-05
-0.00108032
-0.000276684
-0.00084959
-0.000580161
-0.000495202
-0.000889181
-0.00114415
-0.000188555
0.00212109
-0.000502774
0.00109505
-0.000600725
0.000451372
-0.000585703
1.41293e-05
-0.000514193
-0.000348195
-0.000405739
-0.000688614
-0.000253406
-0.00104151
-0.00139803
0.000343068
0.00236511
0.00010847
0.00132965
-3.13385e-05
0.00059118
-9.84653e-05
8.1256e-05
-0.000121841
-0.000324819
-0.000113123
-0.000697332
-8.178e-05
-0.00107286
-0.00148028
0.000603197
0.00244974
0.000451083
0.00148177
0.000300438
0.000741825
0.000181069
0.000200626
9.46899e-05
-0.00023844
3.76464e-05
-0.000640289
4.42574e-06
-0.00103964
-0.00147632
0.000619481
0.00249894
0.000496236
0.00160501
0.000352382
0.000885678
0.00022836
0.000324648
0.000134699
-0.00014478
6.8536e-05
-0.000574125
2.45978e-05
-0.000995697
-0.00145218
0.000561809
0.00257651
0.00042676
0.00174006
0.000284291
0.00102815
0.000171503
0.000437436
9.55116e-05
-6.87891e-05
4.76941e-05
-0.000526308
1.93593e-05
-0.000967362
-0.00143329
0.000651515
0.00269929
0.00048241
0.00190916
0.000318765
0.00119179
0.000194668
0.000561533
0.000117163
8.71593e-06
6.3838e-05
-0.000472983
2.73735e-05
-0.000930898
-0.00140637
0.00103575
0.00286405
0.000825027
0.00211989
0.000615425
0.0014014
0.000439927
0.000737031
0.000299724
0.000148919
0.000191821
-0.000365081
9.39796e-05
-0.000833056
-0.00131285
0.00170893
0.00304695
0.00145947
0.00236935
0.0011865
0.00167437
0.000922887
0.00100065
0.000686232
0.000385574
0.000464925
-0.000143774
0.000239745
-0.000607877
-0.00107357
0.00234858
0.00320318
0.0021007
0.00261723
0.00179363
0.00198144
0.00145585
0.00133843
0.00111469
0.000726731
0.000770117
0.0002008
0.000400283
-0.000238043
-0.000673764
0.00263791
0.00330803
0.00243003
0.00282512
0.00213723
0.00227424
0.00177936
0.0016963
0.00138071
0.00112538
0.000953901
0.000627608
0.000494984
0.000220875
-0.000179274
0.0025576
0.00336181
0.00239597
0.00298674
0.00214095
0.00252925
0.001811
0.00202625
0.00142014
0.00151624
0.000982969
0.00106478
0.000508526
0.000695318
0.000328749
0.00217347
0.00337311
0.00206328
0.00309694
0.00186447
0.00272806
0.00159287
0.00229785
0.0012575
0.0018516
0.00087008
0.0014522
0.000445126
0.00112027
0.00077338
0.00166538
0.0033622
0.00160049
0.00316183
0.00146365
0.0028649
0.00126293
0.00249858
0.00100203
0.0021125
0.000692471
0.00176177
0.000350827
0.00146192
0.00112372
0.00120217
0.00334919
0.00116588
0.00319812
0.00107831
0.00295247
0.000939467
0.00263743
0.000749429
0.00230253
0.00051782
0.00199338
0.000260733
0.001719
0.00138398
0.000843442
0.00333956
0.000823093
0.00321847
0.000768634
0.00300692
0.000675079
0.00273098
0.000540914
0.0024367
0.000374166
0.00216012
0.000187354
0.00190582
0.00157086
0.000586862
0.00333271
0.000575401
0.00322993
0.000541827
0.0030405
0.000479285
0.00279352
0.000385332
0.00253065
0.000266573
0.00227888
0.000132419
0.00203997
0.00170281
0.000410904
0.0033272
0.000404851
0.00323598
0.000383999
0.00306135
0.000341822
0.0028357
0.000275709
0.00259676
0.000190417
0.00236418
9.35956e-05
0.00213679
0.00179593
0.000293064
0.00332214
0.000290549
0.0032385
0.000277409
0.00307449
0.000248124
0.00286499
0.000200654
0.00264423
0.000138243
0.00242659
6.71201e-05
0.00220791
0.00186258
0.000215513
0.00331718
0.000215213
0.0032388
0.000206726
0.00308298
0.000185533
0.00288618