/*--------------------------------*- C++ -*----------------------------------*\
| =========                 |                                                 |
| \\      /  F ield         | OpenFOAM: The Open Source CFD Toolbox           |
|  \\    /   O peration     | Version:  v2012                                 |
|   \\  /    A nd           | Website:  www.openfoam.com                      |
|    \\/     M anipulation  |                                                 |
\*---------------------------------------------------------------------------*/
FoamFile
{
    version     2.0;
    format      ascii;
    class       volScalarField;
    location    "0.174";
    object      omega.air;
}
// * * * * * * * * * * * * * * * * * * * * * * * * * * * * * * * * * * * * * //

dimensions      [0 0 -1 0 0 0 0];


internalField   nonuniform List<scalar> 
5600
(
6586.39
7485.36
7887.06
7964.89
7866.79
7686.93
7481.57
7289.32
7126.13
6987.01
6879.59
6795.83
6736.36
6693.77
6662.83
6643.52
6625.67
6616.15
6604.27
6597.02
6589.65
6581.85
6579.31
6571.14
6572.53
6565.55
6567.84
6563.72
6563.97
6563.7
6560.28
6562.99
6556.96
6560.01
6554.82
6554.74
6554.08
6548.27
6553.39
6542.57
6551.26
6539.76
6546.57
6540.3
6540.24
6542.66
6534.54
6543.92
6531.86
6542.25
6532.78
6538.26
6535.81
6534.32
6538
6532.97
6537.79
6534.61
6535.99
6537.56
6534.76
6539.98
6535.57
6541.05
6538.24
6541.16
6541.78
6541.37
6545.39
6542.39
6548.85
6544.16
6552.16
6546.84
6555.02
6550.57
6557.4
6554.84
6559.98
6558.68
6563.95
6561.24
6569.48
6563.5
6574.3
6567.92
6575.72
6576.34
6573.46
6587.05
6571.84
6596.03
6571.11
6610.63
6551.58
6665.23
6453.04
6850.54
6051.8
7471.73
2450.38
2297.04
2571.42
2795.59
2927.67
2998.73
3009.34
2969.17
2967.94
3018.13
3072.75
3119.38
3147.15
3158.12
3155.53
3139.91
3118.65
3090.79
3062.61
3031.83
3004.3
2973.17
2945.39
2916.43
2889.21
2863.34
2839.49
2817.97
2796.8
2779.16
2761.41
2746.29
2731.74
2718.92
2707.27
2695.77
2686.62
2676.82
2669.05
2660.96
2654.35
2647.63
2641.74
2636.61
2630.78
2626.53
2621.4
2617.82
2612.97
2609.94
2605.86
2602.54
2599.55
2596.46
2593.95
2591.12
2589.04
2586.81
2584.69
2582.99
2580.86
2579.63
2577.69
2576.66
2575.16
2573.98
2572.82
2571.77
2570.71
2569.72
2569.07
2568.01
2567.7
2566.7
2566.42
2565.71
2565.43
2564.95
2564.72
2564.29
2564.11
2563.76
2563.59
2563.54
2563.32
2563.67
2562.74
2564.4
2561.82
2565.95
2559.39
2570.18
2554.12
2580.19
2538.46
2610.58
2485.52
2708.02
2297.19
3041.22
2358.47
1860.16
1591.76
1428.5
1345.11
1275.07
1279.16
1309.8
1351.45
1412.73
1482.42
1548.65
1612.58
1662.01
1706.98
1731.39
1750.71
1751.55
1744.08
1727.62
1700.78
1678.29
1652.52
1635.51
1619.2
1605.61
1593.25
1581.99
1570.94
1561.22
1550.93
1541.18
1530.99
1521.79
1512.89
1504
1496.55
1488.27
1482.35
1474.54
1469.8
1462.88
1458.41
1452.8
1447.92
1444.16
1438.7
1436.48
1430.89
1429.21
1424.57
1422.23
1419.17
1416.22
1414.41
1411.24
1409.73
1407.2
1405.34
1403.84
1401.45
1400.72
1398.26
1397.58
1395.66
1394.51
1393.33
1391.74
1391.13
1389.33
1389.18
1387.28
1387.47
1385.58
1385.85
1384.21
1384.29
1383.05
1382.89
1381.95
1381.74
1380.8
1380.79
1379.91
1379.77
1379.82
1377.88
1381.03
1374.87
1383.3
1370.94
1387.11
1365
1396.3
1350.18
1420.79
1314.18
1472
1244.53
1544.38
2345.13
1822.46
1493.07
1267.88
1110.87
992.918
906.667
847.001
802.931
775.886
762.059
767.749
793.585
821.924
862.867
900.706
941.87
979.616
1008.45
1043.91
1056.11
1084.48
1086.8
1104.54
1103.5
1107.48
1104.54
1094.84
1090.22
1075.67
1069.87
1060
1053.88
1048.43
1041.63
1037.99
1031.82
1027.79
1023.78
1018.66
1015.63
1009.98
1006.68
1000.91
996.938
992.653
987.514
984.948
979.438
977.447
972.873
970.425
967.15
963.969
961.971
958.655
956.762
953.899
951.559
949.744
947.011
945.917
943.208
941.975
939.732
938.016
936.504
934.356
933.518
931.209
930.794
928.441
928.254
926.02
925.9
923.929
923.623
922.049
921.504
920.235
919.741
918.466
918.205
917.056
916.41
916.613
913.75
917.284
910.445
918.282
907.332
919.367
903.91
922.921
896.984
931.844
886.401
940.512
882.976
925.684
2341.96
1815.98
1479.8
1247.92
1079.76
952.459
853.426
774.209
711.285
657.993
617.25
580.719
557.444
535.225
523.751
515.859
510.936
525.139
526.905
555.584
561.953
598.207
611.452
645.287
667.916
688.833
720.201
725.661
755.861
754.43
773.838
775.678
780.963
789.486
781.467
794.158
778.652
788.667
775.681
776.472
771.968
765.148
766.761
758.32
760.186
754.54
752.75
750.884
746.634
746.337
742.501
741.364
739.029
736.449
734.986
731.83
730.145
727.248
724.757
722.941
720.076
718.805
716.092
714.502
712.288
710.129
708.603
706.168
705.239
702.794
702.155
699.635
699.079
696.708
696.144
694.073
693.273
691.479
690.511
688.874
688.142
686.468
685.997
684.575
683.513
683.546
680.469
683.104
677.559
682.252
675.669
680.696
674.228
680.136
671.605
681.101
670.09
678.465
675.515
667.126
2341.14
1814.09
1476.82
1243.78
1074.33
945.094
844.65
762.733
697.061
640.543
594.578
553.87
519.413
490.761
462.42
444.563
419.058
411.051
389.295
387.282
372.735
370.993
369.709
362.85
380.783
371.364
401.788
394.999
428.886
432.251
456.615
477.914
482.425
522.556
509.513
555.984
538.877
574.163
567.596
580.104
591.053
581.573
604.279
586.948
606.621
594.949
602.995
600.801
597.842
601.885
593.972
596.715
592.341
590.5
589.752
586.003
586.141
583.633
582.566
581.524
579.325
578.647
576.621
575.47
574.38
572.618
572.142
570.288
569.927
568.165
567.657
565.604
564.997
562.867
562.161
560.252
559.322
557.51
556.556
554.645
554.073
552.061
551.609
550.116
548.725
548.739
545.737
547.336
543.506
545.117
542.451
542.363
541.316
540.764
538.976
540.046
537.639
537.62
538.607
534.697
2340.89
1813.38
1475.84
1242.47
1072.78
943.233
842.349
760.362
693.682
637.576
589.742
549.866
512.852
484.287
453.925
433.099
408.293
391.141
373.455
355.354
347.18
325.005
326.346
301.56
307.932
287.111
290.983
281.225
276.539
282.808
266.982
289.878
269.254
299.353
284.131
310.707
310.07
324.966
341.312
339.537
378.939
353.438
407.817
383.075
421.336
416.752
430.182
445.363
441.526
461.401
452.354
463.413
465.93
468.029
474.528
470.971
477.088
476.093
478.884
479.508
478.601
479.027
477.332
476.924
476.27
475.295
474.895
474.044
472.759
472.055
470.809
469.837
469.362
468.008
467.576
466.178
465.81
464.368
464.366
462.553
462.987
460.966
460.982
459.998
458.414
459.125
456.3
457.583
455.283
455.095
454.882
452.787
453.283
451.763
450.302
450.806
448.149
448.703
446.6
447.082
2340.78
1813.07
1475.4
1241.97
1072.11
942.629
841.392
759.735
692.391
636.898
588.204
548.842
511.447
482.258
453.238
429.298
408.532
385.442
373.511
348.917
344.286
319.965
317.243
298.958
290.738
284.254
266.078
272.002
246.655
257.926
235.648
239.935
233.408
219.671
235.642
202.362
236.332
194.767
231.122
201.224
221.384
215.951
217.32
232.203
219.788
248.047
231.387
261.45
251.93
272.4
278.645
281.942
301.259
300.167
318.132
320.114
331.686
339.299
343.617
352.951
356.13
363.48
367.383
370.158
375.352
377.324
381.659
384.363
384.947
387.078
387.361
388.702
390.225
390.661
391.583
391.187
392.17
391.359
393.013
391.382
393.292
391.104
391.602
390.912
388.879
390.072
386.9
387.965
386.185
384.786
385.598
382.628
382.949
381.856
379.671
380.203
377.195
377.365
374.809
374.436
2340.72
1812.93
1475.16
1241.76
1071.74
942.401
840.925
759.478
691.882
636.509
587.811
548.116
511.39
481.001
453.585
427.62
408.866
384.049
372.806
348.946
341.441
322.049
312.18
302.136
285.037
285.939
262.468
269.115
247.443
248.552
240.681
224.595
238.81
201.944
234.607
188.342
221.075
188.064
197.935
197.989
169.666
209.673
149.672
205.425
151.408
185.67
165.504
164.84
177.242
153.034
181.723
161.779
176.805
170.932
172.186
184.059
177.826
192.234
185.854
198.943
200.186
209.911
218.233
222.006
233.546
234.762
246.308
248.452
258.479
260.238
269.423
272.602
279.279
285.102
288.248
293.692
296.938
300.041
306.037
305.586
313
311.245
315.249
316.543
315.705
319.744
316.931
320.271
319.302
318.699
320.864
318.293
319.544
318.893
317.636
318.283
315.84
316.112
313.843
313.031
2340.69
1812.88
1475.03
1241.68
1071.57
942.29
840.757
759.277
691.807
636.134
587.896
547.557
511.549
480.472
453.46
427.602
407.923
385.013
370.789
350.786
338.922
323.69
310.589
301.982
285.8
283.091
265.719
264.437
251.253
244.745
241.655
225.09
233.905
208.909
223.614
199.763
208.187
197.553
189.533
198.027
172.768
195.328
164.045
184.6
164.575
168.823
167.161
155.592
165.583
149.374
157.474
150.705
147.576
149.681
141.711
146.703
139.83
141.968
139.102
139.264
138.18
138.689
137.402
140.326
139.709
140.201
143.842
138.309
149.373
142.743
154.015
150.528
156.626
158.016
161.271
166.564
168.783
173.739
177.057
179.725
184.915
186.927
192.744
195.51
199.853
204.275
206.526
211.454
213.5
216.924
219.798
221.855
224.603
226.331
228.523
230.25
231.859
233.64
234.718
235.902
2340.69
1812.9
1475.03
1241.71
1071.58
942.301
840.806
759.222
691.942
635.985
588.104
547.39
511.671
480.532
453.191
428.198
407.036
386.193
369.503
352.011
338.064
323.95
311.16
300.532
288.069
280.319
268.575
262.082
252.499
245.124
239.258
229.56
227.669
216.199
216.323
205.703
204.563
197.661
193.022
190.791
182.841
183.955
174.665
176.65
168.328
169.182
163.279
161.942
159.412
155.044
156.306
149.316
152.962
145.951
148.292
145.558
143.352
146.163
140.494
145.715
141.612
144.324
145.715
144.043
149.983
147.434
153.501
154.508
157.559
162.205
163.42
170.361
171.419
178.998
180.875
186.77
191.036
194.84
201.467
203.859
210.831
213.456
218.093
222.523
224.616
229.972
231.355
235.727
238.075
240.069
243.614
244.331
247.262
248.452
249.944
251.785
252.078
253.724
253.959
254.589
2340.71
1813
1475.15
1241.86
1071.74
942.471
841.018
759.383
692.207
636.133
588.401
547.574
511.917
480.868
453.256
428.8
406.864
387.024
369.267
352.768
338.181
324.185
312.034
300.028
289.669
279.461
270.219
261.852
253.146
246.56
238.273
232.899
225.637
220.329
215.15
208.728
206.383
198.479
198.664
190.297
191.347
184.717
184.299
181.665
178.278
180.278
174.843
179.585
175.317
179.915
179.391
182.139
186.392
187.242
195.453
195.563
205.995
207.574
216.77
222.728
228.305
238.533
241.821
253.134
256.86
266.204
272.119
277.884
286.237
288.735
297.696
299.921
306.37
310.546
313.417
318.868
319.727
324.514
325.874
327.881
330.779
330.485
333.121
332.836
333.8
334.514
333.794
335.171
333.984
334.488
334.316
333.54
333.819
332.623
332.448
331.41
330.281
329.46
328.019
327.306
2340.76
1813.17
1475.39
1242.15
1072.07
942.822
841.414
759.778
692.67
636.566
588.93
548.064
512.489
481.459
453.836
429.556
407.431
387.991
369.867
353.939
338.974
325.494
313.281
301.428
291.664
281.102
273.172
264.238
257.137
250.619
243.565
239.823
233.082
231.249
226.363
224.972
223.504
222.058
224.512
224.164
229.328
231.305
238.393
242.828
251.76
258.036
268.581
276.229
286.963
296.587
305.569
317.234
324.065
335.7
342.348
351.165
359.344
364.488
373.144
376.489
383.174
386.688
390.164
394.239
395.236
398.979
399.238
401.531
402.637
403.052
404.977
404.307
405.99
405.405
405.908
406.003
405.208
405.721
404.438
404.403
403.667
402.607
402.364
400.918
400.518
399.418
398.436
397.959
396.598
396.194
395.14
394.296
393.551
392.339
391.536
390.257
389.186
388.108
387.06
386.384
2340.87
1813.49
1475.85
1242.71
1072.73
943.557
842.251
760.679
693.697
637.649
590.19
549.364
514.053
483.072
455.833
431.673
410.054
390.972
373.467
358.393
344.102
332.258
320.896
311.855
303.656
297.005
292.208
288.039
286.737
286.082
288.814
292.609
298.947
306.896
316.577
327.872
339.931
353.452
366.141
381.073
392.959
407.735
418.74
431.331
441.952
450.812
460.892
466.08
474.296
477.526
482.507
485.51
487.583
490.826
491.29
493.723
493.983
494.657
495.247
494.414
494.824
493.426
492.928
491.83
490.335
489.658
487.831
487.246
485.945
484.96
484.273
482.897
482.443
481.08
480.376
479.38
478.269
477.602
476.372
475.669
474.719
473.73
473.029
471.939
471.184
470.17
469.192
468.281
467.14
466.256
465.154
464.133
463.118
461.998
460.978
459.913
458.995
458.181
457.625
457.34
2341.15
1814.19
1476.91
1243.99
1074.37
945.465
844.557
763.34
696.87
641.358
594.612
554.586
520.552
490.896
465.84
443.75
425.886
410.591
398.916
389.692
383.551
380.397
380.549
385.846
392.935
405.135
418.43
435.507
453.314
472.317
492.235
510.737
530.166
546.032
562.354
574.651
586.138
594.964
601.733
607.996
611.612
616.319
617.893
620.599
620.956
621.205
620.885
618.988
618.09
615.151
613.476
610.957
608.965
607.417
605.297
604.06
602.126
600.607
599.115
597.318
596.067
594.307
593.028
591.614
590.203
589.023
587.526
586.221
584.542
583.053
581.458
579.812
578.305
576.624
575.131
573.546
572.039
570.586
569.132
567.741
566.397
565.043
563.801
562.55
561.345
560.239
559.09
558.093
557.007
556.022
555.008
553.981
553.059
552.093
551.235
550.483
549.804
549.372
549.208
549.345
2342.03
1815.98
1480.11
1247.96
1080.28
952.708
854.158
775.205
712.35
660.606
619.098
586.89
562.669
545.398
534.739
529.879
534.628
544.864
561.208
580.928
604.663
630.604
657.512
685.087
710.624
735.213
754.479
771.765
783.863
794.351
801.815
807.206
810.97
811.961
812.17
809.644
806.832
802.563
798.201
794.208
790.526
787.61
784.314
781.548
778.538
775.648
772.942
770.195
767.761
765.197
762.93
760.518
757.891
755.314
752.54
749.942
747.207
744.652
742.131
739.617
737.282
734.901
732.73
730.547
728.546
726.584
724.706
722.9
721.089
719.398
717.66
716.026
714.356
712.783
711.205
709.719
708.286
706.864
705.586
704.209
703.036
701.768
700.636
699.546
698.452
697.543
696.517
695.714
694.806
694.012
693.226
692.426
691.789
691.106
690.615
690.216
689.895
689.881
690.068
690.617
2345.25
1822.39
1493.86
1268.16
1113.23
994.181
912.588
852.019
814.51
787.864
783.673
800.093
829.124
865.974
907.732
950.09
990.488
1026.76
1058.5
1083.4
1103.62
1118.33
1129.14
1135.75
1137.36
1134.92
1127.78
1118.9
1108.47
1099.58
1091.73
1085.18
1078.99
1073.32
1067.79
1062.64
1057.73
1053
1048.38
1043.49
1038.52
1033.27
1028.28
1023.18
1018.52
1013.82
1009.59
1005.47
1001.56
997.976
994.519
991.38
988.22
985.405
982.514
979.837
977.218
974.712
972.32
969.977
967.784
965.607
963.565
961.59
959.754
957.951
956.277
954.638
953.098
951.618
950.173
948.829
947.441
946.229
944.965
943.852
942.746
941.656
940.713
939.651
938.812
937.835
937.025
936.23
935.442
934.831
934.067
933.561
932.903
932.403
931.9
931.43
931.135
930.8
930.721
930.665
930.761
931.144
931.668
932.661
2358.73
1860.91
1594.77
1434.01
1353.99
1289
1305.24
1337.3
1392.12
1465.15
1539.73
1610.27
1672.4
1723.03
1760.13
1783.31
1792.64
1788.73
1773.45
1750.05
1724.28
1700.62
1682.24
1666.44
1652.58
1639.42
1627.46
1615.87
1605
1593.77
1582.77
1571.92
1561.51
1551.83
1542.33
1533.83
1525.45
1517.98
1510.77
1504.15
1498
1491.94
1486.58
1481.19
1476.51
1471.76
1467.63
1463.48
1459.7
1456.24
1452.78
1449.82
1446.77
1444.21
1441.52
1439.19
1436.92
1434.72
1432.76
1430.78
1429.01
1427.19
1425.56
1423.99
1422.49
1421.09
1419.76
1418.5
1417.3
1416.17
1415.1
1414.12
1413.12
1412.29
1411.38
1410.61
1409.81
1409.05
1408.4
1407.65
1407.11
1406.41
1405.93
1405.41
1404.94
1404.6
1404.13
1403.89
1403.51
1403.29
1403.07
1402.92
1402.94
1402.97
1403.21
1403.46
1403.98
1404.74
1405.61
1407.23
2454.74
2305.68
2580.44
2808.67
2934.22
3010.01
2994.57
2967.45
3014.82
3085.64
3150.02
3196.62
3222.4
3229.88
3222.22
3203.98
3178.32
3148.85
3117.75
3086.39
3054.79
3023.07
2991.97
2961.62
2933.7
2907.1
2883.05
2860.31
2840.12
2820.77
2803.84
2787.72
2773.41
2760.3
2748.06
2737.37
2726.99
2718.05
2709.41
2701.78
2694.65
2687.96
2682.14
2676.19
2670.97
2665.77
2661.05
2656.44
2652.14
2648.28
2644.3
2640.99
2637.58
2634.61
2631.73
2629.07
2626.68
2624.22
2622.21
2620.08
2618.22
2616.35
2614.69
2613.14
2611.61
2610.31
2609
2607.82
2606.72
2605.67
2604.75
2603.89
2603.08
2602.39
2601.68
2601.12
2600.52
2600.04
2599.56
2599.11
2598.75
2598.38
2598.14
2597.91
2597.78
2597.69
2597.62
2597.59
2597.61
2597.63
2597.76
2597.94
2598.21
2598.7
2599.11
2599.7
2600.7
2601.69
2602.86
2605.12
6588.08
7481.92
7876.77
7936
7826.38
7629.92
7415.07
7222.08
7053.55
6914.35
6805.39
6723.41
6664.04
6621.62
6591.84
6570.26
6554.22
6541.67
6531.07
6522.66
6514.68
6509.17
6503.74
6500.56
6497.28
6495.13
6493.42
6491.62
6490.76
6488.72
6487.61
6485.25
6483.54
6481.22
6478.84
6476.81
6473.99
6472.24
6469.39
6467.74
6465.31
6463.56
6461.83
6459.88
6459
6456.87
6456.53
6454.51
6454.24
6452.79
6452.09
6451.56
6450.3
6450.65
6449.17
6449.89
6448.84
6449.31
6449.14
6449.11
6449.76
6449.55
6450.58
6450.61
6451.65
6452.08
6452.98
6453.82
6454.7
6455.91
6456.78
6458.32
6459.25
6461
6462.16
6463.87
6465.45
6466.94
6468.95
6470.25
6472.53
6473.92
6476.13
6477.91
6479.75
6482.04
6483.52
6486.13
6487.63
6490.16
6492.2
6494.29
6496.93
6498.65
6501.34
6502.96
6504.82
6505.98
6506.28
6505.07
5476.08
3367.37
2415.22
1947.85
1665.61
1480.81
1346.91
1245.44
1163.19
1094.72
1036.78
986.347
941.487
900.368
862.438
827.052
793.699
762.437
731.44
701.085
674.252
644.991
616.902
596.283
572.085
548.335
532.152
509.924
485.169
467.19
444.184
416.984
395.715
378.425
365.196
359.922
362.245
366.607
369.096
369.762
366.479
356.352
341.856
328.141
317.284
309.197
302.548
295.36
287.369
279.985
273.612
267.312
259.464
248.618
234.256
216.871
197.767
178.513
160.342
143.855
129.284
116.556
105.529
96.1409
88.4278
82.3756
77.8431
74.6172
72.4585
71.1259
70.3996
70.0799
69.9816
69.941
69.8481
69.658
69.3833
69.0655
68.7575
68.4994
68.3095
68.1816
68.102
68.054
68.0268
68.011
68.0028
67.9977
67.9955
67.9937
67.9933
67.9923
67.9924
67.9916
67.9917
67.9905
67.9903
67.9885
67.9882
67.9894
1596.01
2574.28
2359.5
1986.09
1702.57
1502.35
1355.51
1243.9
1154.19
1081.04
1020.21
968.143
922.723
881.988
844.985
810.579
777.925
747.021
716.001
684.969
657.744
628.317
599.148
579.273
555.31
530.145
515.086
493.592
467.429
449.276
425.284
395.537
374.403
360.237
352.286
349.557
350.949
356.009
360.4
362.474
360.151
350.972
337.18
323.803
313.041
304.688
297.236
289.035
280.437
272.725
266.252
260.043
252.385
241.845
227.906
210.981
192.198
173.014
154.71
138.088
123.529
110.979
100.363
91.6672
84.8623
79.7521
76.0389
73.4427
71.7071
70.6315
70.0383
69.7818
69.71
69.6959
69.6313
69.4782
69.2372
68.9574
68.6746
68.4351
68.2496
68.1282
68.0473
68.0033
67.9731
67.9606
67.9487
67.947
67.9409
67.9429
67.9385
67.9417
67.9376
67.9413
67.9371
67.9411
67.9368
67.9412
67.9378
67.9476
1154.73
1414.78
1797.98
1798.63
1641.72
1475.61
1337.62
1225.94
1134.54
1059.2
996.683
943.855
898.313
858.209
822.255
788.747
756.974
726.76
696.025
664.785
637.369
608.308
578.182
558.035
533.787
506.048
490.162
468.449
439.835
419.341
392.487
362.93
349.205
345.678
348.96
351.73
347.535
347.029
350.763
353.893
352.752
344.743
331.753
318.712
308.007
299.303
291.038
282.007
272.928
265.01
258.493
252.361
244.849
234.556
220.957
204.384
185.814
166.614
148.175
131.511
117.019
104.821
94.9449
87.3205
81.6688
77.5789
74.6542
72.6032
71.2013
70.3091
69.7969
69.5671
69.4958
69.4876
69.4405
69.3211
69.1158
68.8756
68.6229
68.4047
68.2247
68.1071
68.0233
67.9804
67.9461
67.935
67.9194
67.9199
67.9104
67.9151
67.9074
67.9138
67.9064
67.9137
67.9061
67.9142
67.9067
67.9162
67.9105
67.9277
905.125
852.773
1026.77
1245.16
1336.04
1310.94
1238.62
1156.99
1081.48
1014.55
956.985
907.962
865.086
827.392
793.635
761.303
730.919
701.782
671.459
640.38
612.272
583.231
551.508
527.012
499.413
467.226
446.098
421.402
391.69
367.978
341.263
328.391
341.152
356.048
366.656
373.84
363.532
347.601
343.099
344.679
344.247
337.462
325.399
312.745
302.078
292.943
283.892
274.301
265.048
257.198
250.826
244.844
237.457
227.271
213.766
197.254
178.64
159.295
140.749
124.085
109.886
98.4655
89.7899
83.514
79.0687
75.9281
73.6718
72.0481
70.8879
70.1138
69.6394
69.4081
69.3189
69.3029
69.265
69.1779
69.0111
68.8096
68.5849
68.3903
68.2212
68.1103
68.0244
67.9815
67.9426
67.9315
67.9119
67.9137
67.9009
67.9078
67.897
67.9062
67.8957
67.9062
67.8956
67.9074
67.8971
67.9113
67.9037
67.9279
680.597
661.713
671.121
734.102
834.733
918.272
957.646
958.57
937.725
906.239
871.343
838.323
806.406
777.348
750.239
721.67
694.412
667.14
637.066
606.075
574.823
542.905
506.916
467.294
427.539
392.963
361.415
337.386
323.52
313.542
313.058
332.56
367.812
392.013
399.367
404.608
396.078
366.043
343.762
337.358
335.334
329.209
318.064
305.869
295.228
285.621
275.934
266.235
257.437
250.234
244.459
238.905
231.717
221.432
207.558
190.521
171.353
151.558
132.785
116.315
102.923
92.8043
85.5926
80.6333
77.2225
74.8266
73.0627
71.7384
70.7353
70.0252
69.5544
69.299
69.1769
69.1409
69.1027
69.0413
68.9112
68.7484
68.5533
68.3863
68.2342
68.1339
68.0482
68.0054
67.9619
67.9501
67.9263
67.9287
67.9126
67.9212
67.9076
67.919
67.9059
67.9191
67.9059
67.9209
67.9083
67.9266
67.9174
67.9479
534.622
535.615
531.673
532.284
544.557
569.397
598.977
629.862
654.867
672.686
679.942
681.876
677.014
670.5
661.031
644.45
625.613
602.234
572.121
540.242
500.542
455.158
403.284
338.483
300.112
288.066
287.393
299.244
309.628
324.115
347.287
375.169
408.922
431.107
433.544
434.04
429.186
398.9
359.291
337.351
328.523
320.869
310.011
298.187
287.509
277.488
267.657
258.801
251.686
246.286
242.019
237.518
230.815
220.262
205.373
186.884
166.269
145.423
126.261
110.227
97.9017
89.0755
83.0342
78.989
76.2357
74.2911
72.8189
71.668
70.7465
70.0544
69.5576
69.257
69.085
69.0136
68.9596
68.9098
68.8094
68.6884
68.5314
68.3977
68.2653
68.1775
68.0937
68.0522
68.005
67.9928
67.9652
67.968
67.9489
67.9587
67.9425
67.9559
67.9404
67.9559
67.9404
67.9581
67.9434
67.9652
67.9546
67.9904
442.251
444.554
443.721
438.998
432.653
427.946
422.962
421.347
421.704
427.338
434.793
443.861
452.659
462.971
470.611
473.336
468.585
450.278
421.741
384.86
331.028
273.361
244.183
259.271
288.811
310.656
333.263
348.313
353.201
367.024
393.158
421.622
450.138
467.795
466.953
462.542
458.806
434.352
389.281
350.99
329.373
315.637
302.877
290.681
279.77
269.836
261.36
255.442
252.068
250.184
248.546
245.765
239.887
229.034
212.612
191.735
168.639
145.921
125.773
109.497
97.3201
88.7391
82.9027
79.0027
76.3481
74.4774
73.055
71.929
70.9966
70.2635
69.6981
69.3201
69.0702
68.9394
68.8471
68.792
68.71
68.6295
68.5116
68.4132
68.3001
68.2277
68.1478
68.1122
68.0629
68.0539
68.0225
68.0282
68.005
68.0181
67.9978
68.0149
67.9953
68.0149
67.9954
68.0176
67.999
68.0258
68.0122
68.054
371.073
373.291
374.09
371.123
364.656
357.002
346.896
336.517
326.162
315.666
306.898
297.544
290.392
284.159
277.721
274.655
264.08
250.684
237.948
219.306
227.222
269.884
314.449
345.482
361.277
370.045
379.857
387.725
394.568
412.793
442.467
471.579
493.484
503.243
498.239
489.395
485.492
468.638
426.613
379.549
344.419
320.4
302.461
288.298
276.994
268.715
264.349
263.949
265.985
268.214
269.022
267.398
261.781
250.259
232.061
208.529
182.533
157.299
135.17
117.269
103.617
93.7105
86.7517
81.9688
78.6376
76.2713
74.4774
73.0733
71.9035
70.9671
70.2059
69.6611
69.2594
69.0209
68.8462
68.7596
68.666
68.6128
68.517
68.4571
68.3595
68.3161
68.24
68.2255
68.1714
68.1791
68.1378
68.1588
68.1225
68.1512
68.1158
68.1493
68.1131
68.1505
68.1134
68.1549
68.1187
68.1669
68.1382
68.2046
310.806
310.644
310.252
307.464
301.648
294.72
285.421
275.59
266.498
256.779
248.431
242.791
236.621
234.783
235.37
235.878
243.992
256.011
275.321
308.004
340.175
363.109
380.729
395.7
406.279
413.997
421.966
430.816
444.788
470.037
501.159
524.675
533.162
530.329
519.891
508.508
505.062
498.884
467.274
419.159
375.444
341.968
317.737
301.03
290.231
285.678
286.925
291.721
297.122
300.716
301.255
298.415
291.232
277.998
257.832
232.072
203.779
176.501
152.703
133.43
118.342
106.837
98.1815
91.7672
86.8737
83.0998
80.0051
77.4771
75.3026
73.5585
72.1033
71.0541
70.2291
69.7252
69.3231
69.1396
68.9473
68.9069
68.7874
68.7981
68.6992
68.7405
68.6526
68.7169
68.631
68.7103
68.6201
68.7109
68.6131
68.7145
68.6079
68.72
68.6046
68.7283
68.6061
68.7435
68.62
68.779
68.6731
68.8736
236.749
237.483
238.091
237.619
236.307
234.946
233.227
233.213
234.431
237.616
243.21
251.044
261.126
272.421
285.188
299.468
315.58
335.049
356.249
377.198
397.163
416.164
433.942
448.025
457.467
465.261
475.171
489.255
510.463
538.071
560.806
565.459
553.867
538.251
523.738
512.646
511.563
516.713
504.992
466.079
420.546
381.693
354.267
337.529
328.89
327.437
330.524
334.723
337.822
338.48
335.85
329.902
319.909
304.647
283.24
256.837
228.047
200.244
175.946
156.657
141.917
130.759
121.882
114.787
108.538
103.026
97.5982
92.579
87.6715
83.5215
79.8305
77.1696
74.9338
73.5925
72.4024
71.9175
71.328
71.3405
71.0713
71.3563
71.2021
71.5899
71.4085
71.8092
71.55
71.9481
71.6161
72.0262
71.6349
72.0735
71.6315
72.1112
71.6239
72.1542
71.6329
72.2262
71.6946
72.392
71.9243
72.8045
255.287
255.352
256.766
258.388
261.852
267.369
274.159
283.601
293.851
304.925
317.618
329.469
341.068
352.366
363.362
375.316
388.693
404.187
421.202
439.194
457.867
477.652
496.215
509.951
520.154
530.812
545.041
563.472
584.189
599.288
597.103
574.832
545.675
522.613
507.725
500.336
503.4
516.673
524.675
507.422
470.977
434.502
408.314
392.334
383.407
379.3
377.309
375.558
373.158
369.222
362.834
353.752
341.131
324.546
303.569
278.975
252.189
226.343
203.599
185.671
172.011
162.223
154.303
148.12
142.274
137.257
131.533
125.922
119.137
112.898
106.15
100.98
95.8418
92.8206
89.6679
88.6381
87.0493
87.556
87.016
88.4207
88.1791
89.8118
89.32
90.884
90.0029
91.4997
90.3085
91.8214
90.405
92.0021
90.4053
92.1393
90.384
92.2912
90.4248
92.5391
90.663
93.114
91.4999
94.546
326.362
326.133
326.732
328.727
332.831
338.555
346.042
354.916
364.439
374.617
385.144
395.58
405.626
415.507
425.844
437.275
450.425
466.126
483.499
503.25
526.792
552.059
572.841
587.259
599.534
612.179
625.608
637.314
640.86
626.716
592.633
551.123
517.744
497.849
488.073
485.725
491.825
507.183
524.016
525.534
506.252
480.53
457.233
438.456
424.912
415.059
407.34
400.943
394.669
387.077
377.161
365.06
350.725
334.448
315.475
294.093
271.268
250.02
231.604
216.889
204.645
195.34
187.579
181.9
176.99
173.771
170.418
167.935
164.215
161.024
156.491
153.245
149.125
147.121
144.386
144.241
143.158
144.838
144.949
147.561
147.72
150.313
149.833
152.155
150.959
153.143
151.42
153.645
151.549
153.929
151.529
154.156
151.481
154.425
151.531
154.882
151.907
155.93
153.294
158.446
385.922
386.112
387.146
389.972
394.686
401.434
409.797
419.525
430.248
441.127
452.351
463.018
473.241
483.353
494.142
506.363
521.338
539.562
560.736
587.383
618.653
647.573
667.836
681.095
690.9
696.395
695.669
684.608
656.129
610.401
560.369
520.122
494.997
482.455
477.629
478.228
484.851
498.484
514.994
523.831
517.499
500.265
478.949
458.83
443.364
432.254
424.324
417.866
410.127
399.187
385.237
369.963
354.293
338.413
321.275
303.324
285.624
270.277
257.502
247.27
238.441
230.922
224.092
218.837
214.919
212.898
211.997
212.462
213.222
214.475
215.345
216.444
217.081
218.076
218.72
219.987
220.96
222.695
223.852
225.625
226.363
227.789
227.908
229.047
228.622
229.698
228.845
230.063
228.827
230.328
228.706
230.595
228.578
230.935
228.543
231.492
228.841
232.664
230.161
235.537
457.494
458.205
459.809
463.347
468.867
476.583
485.971
496.818
508.557
520.68
533.454
545.601
557.673
569.631
582.491
597.659
615.987
638.238
665.642
699.963
735.391
761.785
776.056
780.598
775.342
759.268
730.373
687.129
632.495
577.186
532.205
502.643
487.435
481.393
479.771
481.07
485.918
495.47
507.682
515.936
513.729
500.532
482.381
465.761
454.226
447.96
444.963
441.162
432.271
417.266
398.935
380.465
363.037
346.458
330.25
315.397
302.964
293.619
286.624
281.272
276.93
273.424
270.579
268.375
266.749
265.892
266.118
267.481
269.953
272.799
275.843
278.393
280.745
282.471
284.175
285.485
287.035
288.312
289.697
290.711
291.62
292.278
292.704
293.13
293.17
293.573
293.28
293.845
293.192
294.098
293.015
294.407
292.814
294.83
292.677
295.514
292.868
296.834
294.179
299.986
550.008
551.227
553.535
558.114
565.153
574.916
586.864
600.681
615.791
631.441
647.821
663.2
678.124
692.136
706.909
724.134
744.233
769.901
802.336
839.297
870.326
884.323
881.738
863.425
829.239
783.224
727.568
665.961
606.412
557.5
524.134
506.153
499.548
498.426
498.434
498.699
500.041
503.926
509.896
514.027
511.174
500.604
488.341
480.102
477.805
481.015
485.606
484.444
472.892
452.813
429.899
408.067
388.472
370.808
355.559
344.054
336.919
333.442
332.147
331.931
332.334
333.083
334.235
335.706
337.624
339.823
342.251
344.547
346.71
348.598
350.327
351.719
352.963
353.951
355.022
356.111
357.464
358.844
360.159
361.353
362.203
363.066
363.398
364.029
363.927
364.53
364.061
364.832
363.979
365.116
363.788
365.486
363.542
366.029
363.341
366.957
363.489
368.751
365.067
372.76
691.775
693.584
696.818
703.007
712.618
726.003
742.411
761.259
781.658
802.159
822.823
840.998
856.897
869.966
882.701
897.349
915.323
941.405
973.074
1002.53
1016.08
1004.02
970.819
920.572
858.404
791.515
723.66
659.194
605.474
567.557
546.311
538.726
539.267
541.827
542.44
540.559
537.286
534.489
533.027
531.278
526.523
520.197
518.38
524.207
536.343
552.751
565.441
564.495
547.532
521.289
493.571
468.31
446.539
428.223
414.825
407.583
406.241
408.823
413.247
418.164
423.067
427.678
432.089
436.232
440.17
443.735
446.885
449.484
451.587
453.204
454.47
455.427
456.246
457.008
457.899
458.945
460.116
461.32
462.354
463.303
463.949
464.59
464.856
465.282
465.244
465.612
465.329
465.815
465.262
466.047
465.091
466.42
464.822
467.097
464.504
468.412
464.437
471.049
466.103
476.595
934.448
937.076
941.698
950.561
964.566
983.9
1007.02
1032.61
1058.68
1082.79
1104.89
1120.42
1130
1133.76
1135.95
1140.86
1151.73
1173.02
1194.29
1201.73
1181.78
1132.81
1064.34
986.624
907.317
830.639
760.442
700.272
655.663
628.877
618.535
620.009
626.693
632.349
633.218
628.704
620.234
610.149
600.422
591.895
586.344
589.22
605.695
633.852
667.247
700.596
719.337
713.385
687.389
653.913
621.25
593.01
569.707
551.921
542.115
540.844
546.39
555.51
565.711
575.453
584.119
591.513
597.753
602.93
607.136
610.42
612.861
614.604
615.809
616.68
617.35
617.943
618.529
619.244
620.092
621.124
622.142
623.186
624.014
624.772
625.279
625.756
625.989
626.252
626.272
626.456
626.333
626.588
626.296
626.762
626.182
627.117