/*--------------------------------*- C++ -*----------------------------------*\
| =========                 |                                                 |
| \\      /  F ield         | OpenFOAM: The Open Source CFD Toolbox           |
|  \\    /   O peration     | Version:  v2012                                 |
|   \\  /    A nd           | Website:  www.openfoam.com                      |
|    \\/     M anipulation  |                                                 |
\*---------------------------------------------------------------------------*/
FoamFile
{
    version     2.0;
    format      ascii;
    class       volScalarField;
    location    "0.292";
    object      p;
}
// * * * * * * * * * * * * * * * * * * * * * * * * * * * * * * * * * * * * * //

dimensions      [0 2 -2 0 0 0 0];


internalField   nonuniform List<scalar> 
5600
(
-0.589334
-1.04752
-1.42797
-1.7465
-2.05731
-2.36755
-2.66893
-2.95068
-3.21373
-3.4639
-3.70047
-3.92513
-4.13958
-4.34588
-4.54609
-4.74191
-4.93424
-5.1239
-5.31114
-5.49604
-5.67884
-5.85917
-6.03687
-6.21326
-6.38803
-6.56159
-6.73387
-6.90507
-7.07591
-7.24612
-7.41585
-7.58481
-7.75298
-7.92075
-8.08805
-8.25461
-8.4207
-8.58609
-8.75095
-8.91513
-9.07876
-9.24181
-9.40423
-9.56594
-9.72719
-9.88788
-10.0481
-10.2078
-10.3671
-10.5258
-10.6841
-10.8419
-10.9992
-11.1562
-11.3127
-11.4687
-11.6245
-11.7796
-11.9344
-12.0887
-12.2427
-12.3963
-12.5495
-12.7023
-12.8548
-13.0068
-13.1585
-13.3099
-13.461
-13.6117
-13.7621
-13.9122
-14.0621
-14.2116
-14.3608
-14.5099
-14.6586
-14.8071
-14.9552
-15.1033
-15.251
-15.3986
-15.5459
-15.6931
-15.84
-15.9867
-16.1333
-16.2798
-16.426
-16.5719
-16.7177
-16.8632
-17.0092
-17.1549
-17.3013
-17.4479
-17.5971
-17.7503
-17.9072
-18.1496
-0.648367
-1.0677
-1.44459
-1.76431
-2.0753
-2.38588
-2.68718
-2.9692
-3.23259
-3.48283
-3.71962
-3.94458
-4.15936
-4.36603
-4.5666
-4.76274
-4.95536
-5.14527
-5.33268
-5.51765
-5.70066
-5.8811
-6.05885
-6.23535
-6.41027
-6.58395
-6.75633
-6.92761
-7.09856
-7.26885
-7.43866
-7.6077
-7.77589
-7.94369
-8.11102
-8.27762
-8.44374
-8.60915
-8.77405
-8.93826
-9.10193
-9.26501
-9.42746
-9.58919
-9.75047
-9.91117
-10.0714
-10.2311
-10.3904
-10.5491
-10.7074
-10.8652
-11.0226
-11.1795
-11.336
-11.492
-11.6477
-11.8029
-11.9576
-12.1119
-12.2659
-12.4195
-12.5727
-12.7255
-12.8779
-13.03
-13.1817
-13.333
-13.4841
-13.6348
-13.7852
-13.9354
-14.0852
-14.2347
-14.384
-14.533
-14.6817
-14.8302
-14.9783
-15.1264
-15.2741
-15.4217
-15.569
-15.7162
-15.863
-16.0098
-16.1563
-16.3029
-16.449
-16.5951
-16.7406
-16.8864
-17.032
-17.1784
-17.3237
-17.472
-17.6182
-17.7754
-17.9272
-18.1625
-0.686612
-1.08032
-1.45734
-1.77767
-2.08651
-2.39459
-2.69481
-2.97641
-3.23959
-3.48948
-3.726
-3.95106
-4.16586
-4.37252
-4.5731
-4.76929
-4.9619
-5.15184
-5.33924
-5.52424
-5.70723
-5.88772
-6.06564
-6.24218
-6.41702
-6.59067
-6.76298
-6.93427
-7.1051
-7.27537
-7.4451
-7.61408
-7.78232
-7.95013
-8.11744
-8.28403
-8.45012
-8.6155
-8.78037
-8.94453
-9.10814
-9.27117
-9.43353
-9.59519
-9.75639
-9.9171
-10.0774
-10.2371
-10.3963
-10.555
-10.7134
-10.8712
-11.0286
-11.1855
-11.342
-11.4982
-11.6539
-11.8092
-11.964
-12.1183
-12.2724
-12.426
-12.5793
-12.7321
-12.8847
-13.0367
-13.1885
-13.3399
-13.491
-13.6417
-13.7922
-13.9423
-14.0922
-14.2418
-14.3911
-14.5401
-14.6888
-14.8374
-14.9855
-15.1336
-15.2813
-15.429
-15.5762
-15.7235
-15.8703
-16.0172
-16.1636
-16.3103
-16.4564
-16.6025
-16.748
-16.8939
-17.0394
-17.1858
-17.3311
-17.4795
-17.6261
-17.7839
-17.9348
-18.1607
-0.73534
-1.09679
-1.47273
-1.79452
-2.10208
-2.40923
-2.70982
-2.99205
-3.25586
-3.50607
-3.74316
-3.96823
-4.18351
-4.39038
-4.591
-4.78712
-4.97958
-5.16929
-5.35637
-5.54106
-5.7239
-5.9043
-6.08225
-6.25887
-6.43382
-6.60776
-6.78044
-6.95208
-7.12313
-7.29363
-7.46353
-7.63266
-7.8009
-7.96879
-8.13616
-8.30284
-8.46902
-8.63451
-8.79947
-8.96375
-9.1275
-9.29069
-9.45324
-9.6151
-9.77648
-9.93721
-10.0975
-10.2573
-10.4166
-10.5754
-10.7338
-10.8917
-11.0491
-11.206
-11.3625
-11.5185
-11.6743
-11.8294
-11.9841
-12.1383
-12.2923
-12.4459
-12.5991
-12.7518
-12.9043
-13.0563
-13.208
-13.3593
-13.5104
-13.661
-13.8115
-13.9616
-14.1114
-14.261
-14.4102
-14.5592
-14.7079
-14.8564
-15.0046
-15.1526
-15.3003
-15.4479
-15.5952
-15.7424
-15.8893
-16.036
-16.1826
-16.3291
-16.4752
-16.6213
-16.7669
-16.9126
-17.0583
-17.2044
-17.3501
-17.4976
-17.6449
-17.8006
-17.9563
-18.1601
-0.784974
-1.11391
-1.48849
-1.8127
-2.11867
-2.42498
-2.72528
-3.00732
-3.27116
-3.52117
-3.75849
-3.98332
-4.19879
-4.40589
-4.6067
-4.80301
-4.99564
-5.18548
-5.37271
-5.55749
-5.74031
-5.92071
-6.09866
-6.27511
-6.44991
-6.62366
-6.79612
-6.9676
-7.13839
-7.3088
-7.47859
-7.64771
-7.81602
-7.984
-8.15137
-8.31809
-8.48425
-8.64975
-8.81466
-8.97893
-9.14258
-9.3057
-9.46809
-9.6299
-9.79117
-9.95188
-10.1121
-10.2718
-10.4311
-10.5898
-10.7481
-10.9059
-11.0633
-11.2201
-11.3766
-11.5328
-11.6886
-11.8438
-11.9987
-12.153
-12.307
-12.4607
-12.614
-12.7669
-12.9194
-13.0716
-13.2233
-13.3747
-13.5259
-13.6766
-13.8271
-13.9773
-14.1272
-14.2767
-14.426
-14.5751
-14.7238
-14.8723
-15.0205
-15.1686
-15.3164
-15.464
-15.6113
-15.7585
-15.9054
-16.0521
-16.1988
-16.3452
-16.4915
-16.6375
-16.7832
-16.9289
-17.0747
-17.2207
-17.3664
-17.5139
-17.6609
-17.8163
-17.9689
-18.1646
-0.835017
-1.13322
-1.50577
-1.83295
-2.1373
-2.44263
-2.74256
-3.02463
-3.2887
-3.5389
-3.77644
-4.00164
-4.21737
-4.42475
-4.62576
-4.82219
-5.01491
-5.20476
-5.39204
-5.57686
-5.75948
-5.93988
-6.1179
-6.29438
-6.46926
-6.64304
-6.81554
-6.98707
-7.15789
-7.32817
-7.49798
-7.66703
-7.83533
-8.00317
-8.17044
-8.33707
-8.50314
-8.6686
-8.83345
-8.9977
-9.16134
-9.32467
-9.48713
-9.64902
-9.81035
-9.97117
-10.1315
-10.2913
-10.4506
-10.6094
-10.7678
-10.9257
-11.0831
-11.2401
-11.3966
-11.5527
-11.7085
-11.8638
-12.0186
-12.1729
-12.327
-12.4805
-12.6337
-12.7865
-12.939
-13.0911
-13.2428
-13.3941
-13.5452
-13.6959
-13.8464
-13.9966
-14.1464
-14.296
-14.4452
-14.5943
-14.7431
-14.8915
-15.0398
-15.1878
-15.3356
-15.4832
-15.6305
-15.7777
-15.9246
-16.0713
-16.2179
-16.3644
-16.5107
-16.6567
-16.8024
-16.9481
-17.0938
-17.2398
-17.3855
-17.5328
-17.6797
-17.8337
-17.985
-18.1709
-0.884438
-1.15504
-1.52483
-1.85524
-2.15814
-2.46242
-2.76205
-3.04421
-3.30845
-3.55878
-3.79643
-4.02188
-4.23768
-4.44522
-4.64636
-4.84287
-5.03568
-5.22556
-5.41286
-5.5977
-5.78032
-5.96074
-6.13885
-6.31533
-6.49027
-6.66403
-6.83656
-7.0081
-7.17902
-7.34919
-7.51903
-7.68807
-7.85642
-8.02424
-8.19152
-8.35815
-8.5242
-8.68965
-8.85445
-9.0187
-9.18229
-9.34557
-9.50799
-9.6698
-9.83104
-9.99177
-10.152
-10.3117
-10.471
-10.6297
-10.7881
-10.9459
-11.1033
-11.2603
-11.4168
-11.573
-11.7288
-11.8841
-12.0389
-12.1932
-12.3473
-12.5009
-12.6541
-12.807
-12.9595
-13.1116
-13.2634
-13.4148
-13.5659
-13.7166
-13.8671
-14.0173
-14.1671
-14.3167
-14.466
-14.6151
-14.7639
-14.9123
-15.0606
-15.2086
-15.3564
-15.504
-15.6514
-15.7986
-15.9455
-16.0923
-16.2388
-16.3853
-16.5316
-16.6776
-16.8233
-16.969
-17.1147
-17.2607
-17.4064
-17.5534
-17.7001
-17.8524
-18.0019
-18.1774
-0.931415
-1.17954
-1.54623
-1.87971
-2.1814
-2.48468
-2.7841
-3.06633
-3.33069
-3.58111
-3.81885
-4.04452
-4.26042
-4.46813
-4.66944
-4.86606
-5.05895
-5.24889
-5.43621
-5.62109
-5.8037
-5.9841
-6.16224
-6.33873
-6.5137
-6.68745
-6.86001
-7.03157
-7.2025
-7.3727
-7.54251
-7.71155
-7.87992
-8.04774
-8.21502
-8.38165
-8.54771
-8.71315
-8.87795
-9.04225
-9.2059
-9.36901
-9.53147
-9.69327
-9.85454
-10.0153
-10.1755
-10.3352
-10.4944
-10.6532
-10.8115
-10.9693
-11.1267
-11.2838
-11.4402
-11.5964
-11.7521
-11.9073
-12.0621
-12.2164
-12.3704
-12.524
-12.6772
-12.83
-12.9825
-13.1346
-13.2864
-13.4378
-13.589
-13.7397
-13.8902
-14.0404
-14.1903
-14.3398
-14.4891
-14.6382
-14.787
-14.9355
-15.0837
-15.2317
-15.3796
-15.5271
-15.6745
-15.8217
-15.9686
-16.1154
-16.2619
-16.4084
-16.5547
-16.7007
-16.8464
-16.9922
-17.1379
-17.2838
-17.4294
-17.576
-17.7223
-17.8729
-18.02
-18.1846
-0.974395
-1.20661
-1.57056
-1.9065
-2.20729
-2.50976
-2.80904
-3.09129
-3.35573
-3.60624
-3.84407
-4.06991
-4.28589
-4.49373
-4.69516
-4.89184
-5.08479
-5.27475
-5.46207
-5.64697
-5.82957
-6.00993
-6.1881
-6.3646
-6.5396
-6.71335
-6.88593
-7.05751
-7.22846
-7.39869
-7.56846
-7.7375
-7.90589
-8.07371
-8.24098
-8.40762
-8.57367
-8.73911
-8.90391
-9.06822
-9.23186
-9.39493
-9.55742
-9.71924
-9.88051
-10.0412
-10.2015
-10.3612
-10.5204
-10.6792
-10.8375
-10.9953
-11.1527
-11.3098
-11.4662
-11.6224
-11.778
-11.9332
-12.088
-12.2423
-12.3963
-12.5498
-12.703
-12.8558
-13.0083
-13.1604
-13.3121
-13.4636
-13.6147
-13.7655
-13.9159
-14.0661
-14.2159
-14.3655
-14.5147
-14.6637
-14.8125
-14.961
-15.1093
-15.2573
-15.4051
-15.5526
-15.7
-15.8472
-15.9941
-16.1409
-16.2874
-16.4339
-16.5802
-16.7262
-16.872
-17.0177
-17.1634
-17.3092
-17.4548
-17.6011
-17.7468
-17.8953
-18.0395
-18.1925
-1.01158
-1.23581
-1.5984
-1.93577
-2.23604
-2.53807
-2.8373
-3.1195
-3.38399
-3.63459
-3.87247
-4.09839
-4.31441
-4.52231
-4.72381
-4.92053
-5.11353
-5.3035
-5.49083
-5.67577
-5.85836
-6.03868
-6.21686
-6.39338
-6.5684
-6.74214
-6.91472
-7.08631
-7.25729
-7.42755
-7.59726
-7.76631
-7.93471
-8.10254
-8.2698
-8.43645
-8.60249
-8.76793
-8.93273
-9.09706
-9.2607
-9.42376
-9.58624
-9.74807
-9.90934
-10.0701
-10.2303
-10.39
-10.5492
-10.708
-10.8663
-11.0242
-11.1815
-11.3386
-11.4951
-11.6512
-11.8068
-11.962
-12.1168
-12.2712
-12.4251
-12.5787
-12.7319
-12.8847
-13.0372
-13.1892
-13.341
-13.4925
-13.6435
-13.7943
-13.9447
-14.0949
-14.2447
-14.3943
-14.5435
-14.6925
-14.8413
-14.9898
-15.1379
-15.2859
-15.4337
-15.5813
-15.7286
-15.8758
-16.0227
-16.1694
-16.3159
-16.4624
-16.6087
-16.7547
-16.9004
-17.0461
-17.1918
-17.3375
-17.483
-17.6288
-17.7738
-17.9201
-18.0609
-18.2023
-1.03893
-1.2651
-1.62881
-1.96612
-2.26627
-2.56846
-2.86776
-3.14982
-3.41432
-3.66498
-3.90284
-4.12876
-4.34475
-4.55265
-4.75416
-4.95088
-5.14389
-5.33387
-5.52119
-5.70615
-5.88872
-6.06898
-6.24717
-6.42369
-6.59872
-6.77245
-6.94502
-7.1166
-7.28762
-7.45788
-7.62756
-7.79661
-7.96503
-8.13287
-8.30012
-8.46677
-8.63281
-8.79825
-8.96304
-9.12739
-9.29104
-9.45408
-9.61655
-9.77839
-9.93965
-10.1004
-10.2606
-10.4203
-10.5796
-10.7383
-10.8966
-11.0545
-11.2118
-11.3689
-11.5254
-11.6815
-11.8371
-11.9923
-12.1471
-12.3015
-12.4554
-12.609
-12.7622
-12.915
-13.0675
-13.2196
-13.3713
-13.5228
-13.6738
-13.8246
-13.975
-14.1252
-14.275
-14.4246
-14.5738
-14.7228
-14.8716
-15.02
-15.1682
-15.3162
-15.464
-15.6115
-15.7589
-15.9061
-16.053
-16.1997
-16.3463
-16.4928
-16.639
-16.785
-16.9308
-17.0765
-17.2221
-17.3677
-17.5131
-17.6585
-17.8027
-17.9467
-18.084
-18.2156
-1.05372
-1.29175
-1.65887
-1.99458
-2.29505
-2.598
-2.89748
-3.17932
-3.44379
-3.69448
-3.93225
-4.15807
-4.37399
-4.58179
-4.78326
-4.97994
-5.17293
-5.36289
-5.55019
-5.73518
-5.91772
-6.09793
-6.27609
-6.45262
-6.62766
-6.80137
-6.97393
-7.14549
-7.31657
-7.48683
-7.65647
-7.82551
-7.99395
-8.16179
-8.32904
-8.49569
-8.66172
-8.82716
-8.99192
-9.15633
-9.31996
-9.48298
-9.64544
-9.80728
-9.96855
-10.1293
-10.2895
-10.4492
-10.6085
-10.7672
-10.9255
-11.0834
-11.2407
-11.3978
-11.5543
-11.7104
-11.866
-12.0212
-12.176
-12.3304
-12.4843
-12.6379
-12.7911
-12.9439
-13.0963
-13.2485
-13.4002
-13.5517
-13.7028
-13.8535
-14.004
-14.1542
-14.304
-14.4536
-14.6028
-14.7518
-14.9006
-15.0491
-15.1974
-15.3454
-15.4932
-15.6407
-15.7881
-15.9352
-16.0822
-16.2289
-16.3756
-16.5221
-16.6684
-16.8144
-16.9603
-17.1059
-17.2516
-17.3971
-17.5423
-17.6873
-17.8309
-17.9729
-18.1072
-18.2312
-1.05744
-1.31532
-1.6869
-2.01993
-2.32111
-2.62517
-2.92489
-3.20646
-3.47088
-3.7216
-3.95923
-4.18489
-4.40069
-4.60834
-4.8097
-5.00632
-5.19928
-5.38922
-5.57648
-5.76152
-5.94401
-6.12416
-6.3023
-6.47882
-6.65385
-6.82753
-7.00007
-7.1716
-7.34273
-7.51298
-7.6826
-7.85163
-8.02008
-8.18792
-8.35517
-8.52182
-8.68785
-8.8533
-9.01805
-9.1825
-9.34612
-9.50912
-9.67157
-9.83341
-9.99468
-10.1554
-10.3156
-10.4753
-10.6346
-10.7933
-10.9516
-11.1094
-11.2669
-11.424
-11.5805
-11.7365
-11.8922
-12.0474
-12.2022
-12.3566
-12.5106
-12.6642
-12.8174
-12.9702
-13.1227
-13.2748
-13.4266
-13.5781
-13.7292
-13.8799
-14.0305
-14.1807
-14.3305
-14.4801
-14.6294
-14.7784
-14.9272
-15.0758
-15.224
-15.372
-15.5198
-15.6674
-15.8147
-15.9618
-16.1087
-16.2554
-16.402
-16.5484
-16.6946
-16.8406
-16.9865
-17.1323
-17.2779
-17.4235
-17.5686
-17.7132
-17.8561
-17.9968
-18.1289
-18.2475
-1.05236
-1.33665
-1.71287
-2.04258
-2.34481
-2.65016
-2.95016
-3.23138
-3.49573
-3.74645
-3.98392
-4.20938
-4.42506
-4.63254
-4.83376
-5.03028
-5.22318
-5.41311
-5.60031
-5.7854
-5.96786
-6.14794
-6.32605
-6.50257
-6.67759
-6.85124
-7.02376
-7.19524
-7.36643
-7.53665
-7.70626
-7.87528
-8.04374
-8.21156
-8.37882
-8.54544
-8.71148
-8.87685
-9.04166
-9.20613
-9.36973
-9.53274
-9.69519
-9.85704
-10.0183
-10.1791
-10.3393
-10.4991
-10.6583
-10.8171
-10.9754
-11.1332
-11.2907
-11.4479
-11.6044
-11.7605
-11.9162
-12.0715
-12.2263
-12.3807
-12.5347
-12.6883
-12.8416
-12.9944
-13.1468
-13.2989
-13.4506
-13.6021
-13.7532
-13.904
-14.0545
-14.2047
-14.3545
-14.5041
-14.6534
-14.8024
-14.9512
-15.0997
-15.248
-15.396
-15.5438
-15.6914
-15.8387
-15.9859
-16.1329
-16.2797
-16.4264
-16.573
-16.7193
-16.8653
-17.0109
-17.1566
-17.3022
-17.4477
-17.5926
-17.7372
-17.8799
-18.0188
-18.1491
-18.2637
-1.04103
-1.35611
-1.7365
-2.06281
-2.36635
-2.67305
-2.97346
-3.2543
-3.51858
-3.76927
-4.00654
-4.23172
-4.44722
-4.65451
-4.85559
-5.052
-5.2448
-5.4347
-5.62184
-5.80695
-5.98935
-6.16936
-6.34741
-6.52394
-6.69894
-6.8726
-7.04502
-7.21655
-7.38775
-7.55794
-7.72752
-7.89656
-8.06504
-8.23288
-8.40016
-8.5668
-8.73289
-8.89826
-9.06322
-9.22763
-9.39126
-9.55433
-9.71685
-9.87876
-10.0401
-10.2009
-10.3612
-10.521
-10.6803
-10.8391
-10.9974
-11.1551
-11.3126
-11.4697
-11.6262
-11.7823
-11.938
-12.0932
-12.2481
-12.4025
-12.5565
-12.71
-12.8633
-13.0161
-13.1685
-13.3206
-13.4723
-13.6238
-13.7749
-13.9256
-14.0761
-14.2263
-14.3761
-14.5257
-14.6749
-14.8239
-14.9727
-15.1212
-15.2694
-15.4174
-15.5651
-15.7127
-15.86
-16.007
-16.1539
-16.3006
-16.447
-16.5933
-16.7396
-16.8857
-17.0315
-17.1772
-17.3229
-17.4684
-17.6133
-17.7575
-17.8996
-18.0387
-18.1679
-18.2797
-1.02549
-1.37409
-1.75773
-2.08098
-2.3859
-2.69384
-2.99471
-3.27522
-3.53949
-3.79012
-4.02728
-4.2522
-4.46742
-4.67449
-4.87549
-5.07177
-5.26456
-5.45435
-5.64157
-5.82672
-6.00908
-6.18902
-6.36699
-6.54346
-6.7184
-6.89204
-7.06442
-7.23605
-7.40723
-7.57747
-7.74707
-7.91614
-8.08473
-8.25269
-8.42006
-8.58681
-8.75296
-8.91844
-9.0834
-9.24773
-9.41131
-9.57436
-9.73686
-9.89876
-10.0601
-10.2209
-10.3811
-10.5409
-10.7002
-10.859
-11.0173
-11.175
-11.3325
-11.4896
-11.6461
-11.8022
-11.9579
-12.1132
-12.268
-12.4224
-12.5764
-12.73
-12.8832
-13.036
-13.1885
-13.3406
-13.4924
-13.6438
-13.7949
-13.9457
-14.0962
-14.2464
-14.3963
-14.5459
-14.6951
-14.8442
-14.993
-15.1415
-15.2898
-15.4378
-15.5856
-15.7332
-15.8806
-16.0278
-16.1748
-16.3216
-16.4683
-16.6148
-16.7611
-16.9071
-17.0529
-17.1986
-17.3441
-17.4895
-17.6344
-17.7787
-17.9204
-18.0574
-18.1855
-18.2953
-1.00676
-1.39078
-1.77679
-2.09783
-2.40408
-2.71292
-3.01401
-3.29402
-3.55827
-3.80869
-4.04552
-4.27069
-4.48545
-4.69213
-4.89291
-5.08899
-5.28165
-5.47129
-5.65856
-5.84357
-6.02595
-6.20595
-6.38405
-6.5607
-6.7358
-6.90954
-7.0821
-7.25387
-7.4251
-7.59542
-7.76497
-7.93393
-8.10244
-8.27034
-8.43764
-8.60432
-8.77041
-8.93583
-9.10072
-9.26502
-9.42859
-9.59159
-9.75402
-9.91586
-10.0771
-10.2379
-10.3981
-10.5579
-10.7171
-10.8758
-11.0341
-11.1918
-11.3493
-11.5063
-11.6628
-11.8188
-11.9745
-12.1297
-12.2844
-12.4388
-12.5928
-12.7463
-12.8995
-13.0522
-13.2046
-13.3567
-13.5084
-13.6598
-13.8108
-13.9616
-14.112
-14.2621
-14.4119
-14.5614
-14.7106
-14.8596
-15.0083
-15.1568
-15.3049
-15.4529
-15.6006
-15.7481
-15.8954
-16.0425
-16.1893
-16.336
-16.4825
-16.6288
-16.775
-16.9211
-17.0668
-17.2125
-17.3581
-17.5036
-17.6484
-17.7926
-17.9346
-18.0727
-18.2007
-18.3098
-0.985899
-1.40511
-1.79238
-2.11278
-2.42095
-2.7314
-3.03283
-3.31236
-3.57663
-3.82692
-4.06349
-4.28893
-4.50336
-4.7099
-4.91069
-5.10689
-5.29974
-5.48973
-5.67731
-5.86257
-6.04514
-6.2252
-6.40338
-6.58002
-6.75505
-6.92856
-7.10091
-7.27257
-7.44373
-7.61402
-7.78359
-7.95258
-8.12111
-8.28902
-8.45635
-8.62305
-8.78917
-8.95463
-9.11954
-9.28386
-9.44745
-9.61046
-9.77286
-9.93471
-10.096
-10.2568
-10.417
-10.5768
-10.7361
-10.8948
-11.0531
-11.2109
-11.3684
-11.5254
-11.682
-11.8381
-11.9937
-12.149
-12.3038
-12.4582
-12.6122
-12.7658
-12.919
-13.0718
-13.2242
-13.3763
-13.5281
-13.6796
-13.8307
-13.9814
-14.1319
-14.2821
-14.432
-14.5815
-14.7308
-14.8798
-15.0286
-15.1771
-15.3253
-15.4734
-15.6211
-15.7687
-15.916
-16.0632
-16.2101
-16.3569
-16.5035
-16.65
-16.7963
-16.9423
-17.0881
-17.2338
-17.3793
-17.5248
-17.6695
-17.8136
-17.955
-18.0917
-18.2183
-18.3258
-0.971296
-1.41969
-1.80462
-2.12233
-2.43131
-2.74354
-3.04548
-3.32447
-3.58892
-3.83919
-4.07566
-4.30071
-4.51496
-4.72139
-4.92207
-5.11816
-5.31089
-5.50075
-5.68821
-5.8733
-6.05556
-6.23521
-6.41319
-6.58962
-6.76452
-6.93791
-7.11007
-7.28162
-7.45269
-7.62291
-7.79239
-7.9613
-8.12974
-8.29757
-8.46482
-8.63145
-8.79749
-8.96288
-9.12773
-9.29198
-9.45552
-9.61847
-9.78083
-9.94263
-10.1039
-10.2646
-10.4248
-10.5845
-10.7437
-10.9025
-11.0607
-11.2184
-11.3759
-11.5329
-11.6894
-11.8454
-12.001
-12.1562
-12.311
-12.4654
-12.6193
-12.7729
-12.926
-13.0788
-13.2312
-13.3832
-13.535
-13.6864
-13.8374
-13.9882
-14.1386
-14.2888
-14.4385
-14.5881
-14.7373
-14.8863
-15.035
-15.1835
-15.3317
-15.4797
-15.6274
-15.7749
-15.9222
-16.0693
-16.2162
-16.363
-16.5095
-16.6559
-16.8021
-16.9481
-17.0939
-17.2396
-17.3851
-17.5306
-17.6754
-17.8195
-17.9612
-18.0987
-18.2256
-18.3337
-0.940822
-1.43452
-1.82823
-2.14648
-2.45566
-2.7684
-3.0711
-3.34912
-3.61389
-3.86428
-4.10064
-4.32549
-4.53954
-4.74568
-4.94609
-5.14195
-5.3345
-5.52421
-5.71157
-5.89659
-6.07888
-6.25859
-6.43654
-6.61295
-6.7878
-6.96117
-7.13333
-7.30484
-7.47587
-7.64605
-7.81551
-7.9844
-8.15283
-8.32066
-8.4879
-8.65453
-8.82057
-8.98596
-9.15081
-9.31507
-9.47861
-9.64156
-9.80393
-9.96573
-10.127
-10.2877
-10.4479
-10.6076
-10.7669
-10.9256
-11.0838
-11.2416
-11.399
-11.556
-11.7125
-11.8686
-12.0242
-12.1794
-12.3342
-12.4886
-12.6425
-12.7961
-12.9493
-13.102
-13.2544
-13.4065
-13.5582
-13.7096
-13.8607
-14.0114
-14.1619
-14.3121
-14.4619
-14.6114
-14.7606
-14.9096
-15.0584
-15.2068
-15.3551
-15.503
-15.6508
-15.7983
-15.9456
-16.0927
-16.2397
-16.3864
-16.533
-16.6794
-16.8256
-16.9716
-17.1174
-17.2631
-17.4086
-17.554
-17.6988
-17.8429
-17.9845
-18.1216
-18.2483
-18.3559
-18.1253
-18.39
-19.1264
-19.251
-18.7095
-17.6266
-16.1672
-14.464
-12.7035
-10.9812
-9.38758
-7.95071
-6.6867
-5.59017
-4.64763
-3.83912
-3.14724
-2.55214
-2.03839
-1.59395
-1.20727
-0.868505
-0.570963
-0.308536
-0.0758577
0.131805
0.31716
0.482658
0.631015
0.76455
0.885688
0.994805
1.09182
1.17842
1.25571
1.3245
1.38549
1.43934
1.4865
1.52771
1.56319
1.59336
1.6188
1.63987
1.65658
1.66937
1.67839
1.68374
1.68552
1.68378
1.67863
1.67001
1.65812
1.64338
1.6258
1.60549
1.58281
1.55809
1.53171
1.50402
1.47522
1.44571
1.41575
1.38559
1.35534
1.32513
1.29496
1.26484
1.23459
1.20433
1.17383
1.143
1.11169
1.07986
1.04747
1.01451
0.981252
0.947745
0.914028
0.880079
0.845099
0.808554
0.770684
0.73168
0.693504
0.656305
0.619107
0.581606
0.542711
0.503584
0.464712
0.425873
0.385223
0.344743
0.299195
0.254653
0.205151
0.153551
0.0898314
0.0464919
-18.1664
-18.3159
-19.02
-19.1614
-18.632
-17.5694
-16.1322
-14.4486
-12.7038
-10.9929
-9.4077
-7.97551
-6.71399
-5.61847
-4.67573
-3.86631
-3.1729
-2.57606
-2.06056
-1.61442
-1.22624
-0.886216
-0.587561
-0.32404
-0.0904869
0.117806
0.303622
0.46957
0.618096
0.751663
0.872029
0.980967
1.07809
1.16476
1.24213
1.311
1.37207
1.42603
1.47329
1.51454
1.55012
1.58036
1.60585
1.62693
1.64363
1.65639
1.66536
1.67062
1.6723
1.67043
1.66513
1.65635
1.64432
1.62943
1.61171
1.59128
1.56852
1.54372
1.5173
1.48959
1.4608
1.43133
1.40145
1.37139
1.34129
1.31123
1.2812
1.25123
1.22109
1.19096
1.16055
1.12979
1.09854
1.06681
1.03456
1.00171
0.968586
0.935217
0.901693
0.868012
0.833325
0.797041
0.759426
0.720568
0.682056
0.644739
0.607171
0.569366
0.530293
0.490823
0.45157
0.412622
0.371999
0.331637
0.286478
0.242672
0.194624
0.144592
0.0841488
0.0433865
-18.1615
-18.3235
-18.9452
-19.0699
-18.5451
-17.5001
-16.0854
-14.4238
-12.6984
-11.0032
-9.42848
-8.00331
-6.74611
-5.65215
-4.70903
-3.89835
-3.20302
-2.60413
-2.08667
-1.63863
-1.24876
-0.907224
-0.607213
-0.34242
-0.107779
0.101401
0.287918
0.454654
0.603697
0.737839
0.85761
0.965672
1.06277
1.14956
1.22705
1.29604
1.35723
1.41131
1.45869
1.49998
1.53566
1.56599
1.59162
1.61268
1.62938
1.64211
1.65102
1.65618
1.65772
1.65569
1.65023
1.64127
1.62905
1.61398
1.59611
1.57554
1.55267
1.52777
1.50128
1.47354
1.44478
1.41538
1.3856
1.35568
1.32573
1.29585
1.26599
1.23617
1.20617
1.17618
1.14587
1.11518
1.08399
1.05237
1.02028
0.98756
0.954567
0.921354
0.888032
0.854656
0.820313
0.784304
0.746971
0.70834
0.669415
0.631957
0.593989
0.555812
0.516451
0.476774
0.437033
0.397946
0.357374
0.317113
0.272459
0.229412
0.183037
0.134743
0.078058
0.0398016
-18.1872
-18.3435
-18.8831
-18.9863
-18.4564
-17.4246
-16.0304
-14.3941
-12.6896
-11.0125
-9.45033
-8.03416
-6.78257
-5.69068
-4.74725
-3.9352
-3.23785
-2.63701
-2.11761
-1.66732
-1.27535
-0.931903
-0.630191
-0.363901
-0.127949
0.0823431
0.269757
0.437375
0.587059
0.721877
0.841502
0.948577
1.04567
1.13265
1.2103
1.27944
1.34078
1.395
1.44253
1.48395
1.51974
1.55015
1.57593
1.59697
1.61373
1.62646
1.63525
1.64029
1.64168
1.63946
1.63378
1.62461
1.61217
1.5969
1.57882
1.55808
1.53505
1.51007
1.48351
1.45574
1.42703
1.39771
1.36804
1.33828
1.3085
1.27884
1.24915
1.21952
1.18968
1.15982
1.12963
1.09902
1.06792
1.03642
1.00446
0.9719
0.939054
0.906058
0.872954
0.8398
0.805893
0.770219
0.733194
0.6948
0.655545
0.6178
0.579415
0.540794
0.501037
0.461219
0.421015
0.381693
0.341195
0.301025
0.257002
0.214748
0.17025
0.123967
0.0714516
0.035752
-18.207
-18.3544
-18.8207
-18.901
-18.3694
-17.349
-15.9727
-14.3633
-12.6812
-11.0242
-9.47636
-8.07033
-6.82448
-5.73504
-4.79166
-3.97829
-3.27879
-2.67568
-2.15394
-1.70095
-1.30642
-0.960709
-0.656996
-0.388989
-0.151553
0.0599713
0.248384
0.416832
0.567171
0.702477
0.822384
0.929214
1.02654
1.11378
1.19165
1.261
1.32254
1.37695
1.42467
1.46626
1.50219
1.53274
1.55859
1.57967
1.5965
1.60921
1.61789
1.62282
1.62406
1.62161
1.61566
1.60621
1.59351
1.57798
1.55966
1.5387
1.5155
1.49043
1.4638
1.43602
1.40737
1.37814
1.34858
1.31899
1.28942
1.26
1.23051
1.20108
1.17142
1.14173
1.11167
1.08117
1.05017
1.01879
0.986961
0.954571
0.921898
0.889196
0.856383
0.823377
0.789756
0.754608
0.717944
0.679804
0.640368
0.602103
0.563281
0.524143
0.483907
0.443888
0.403431
0.363708
0.323285
0.283224
0.239943
0.198564
0.156063
0.112178
0.0642535
0.0312051
-18.2248
-18.3625
-18.7548
-18.8068
-18.2754
-17.2673
-15.9136
-14.3339
-12.6759
-11.0407
-9.50861
-8.11408
-6.87454
-5.78802
-4.84482
-4.02988
-3.32766
-2.72129
-2.19632
-1.74018
-1.34272
-0.994476
-0.6885
-0.418537
-0.179419
0.0334942
0.223066
0.392409
0.54356
0.679343
0.799999
0.907392
1.00509
1.09266
1.17083
1.24046
1.30226
1.35692
1.40489
1.44671
1.48283
1.51356
1.5395
1.56066
1.57751
1.59018
1.59879
1.6036
1.60465
1.60195
1.59567
1.58588
1.57284
1.55701
1.53842
1.51723
1.49383
1.46868
1.44198
1.41417
1.38554
1.35642
1.327
1.29762
1.26829
1.23911
1.20986
1.18067
1.15121
1.12171
1.09182
1.06144
1.03057
0.999324
0.967623
0.935385
0.902915
0.870531
0.838075
0.805315
0.771824
0.737297
0.70106
0.663196
0.623737
0.584712
0.545398
0.505669
0.464893
0.424567
0.384063
0.343886
0.303463
0.263544
0.221103
0.180789
0.140198
0.0992052
0.0564107
0.0260898
-18.2411
-18.3668
-18.6848
-18.7032
-18.1718
-17.1768
-15.8476
-14.3002
-12.6709
-11.0609
-9.54706
-8.16603
-6.93397
-5.85051
-4.90741
-4.09053
-3.38495
-2.77459
-2.24561
-1.78575
-1.38486
-1.03365
-0.725024
-0.452772
-0.211671
0.00284362
0.193828
0.364292
0.516517
0.653004
0.774597
0.882839
0.980997
1.06898
1.14755
1.21755
1.27969
1.33467
1.38296
1.42507
1.46144
1.49239
1.51846
1.53973
1.5566
1.56924
1.57777
1.58241
1.58322
1.58023
1.5736
1.56339
1.54996
1.53376
1.51496
1.49351
1.46986
1.44451
1.41771
1.38991
1.3613
1.3323
1.30309
1.27395
1.24489
1.21595
1.18698
1.15806
1.12886
1.09957
1.06986
1.03963
1.00893
0.977828
0.946245
0.91416
0.88191
0.849806
0.817713
0.785296
0.752175
0.718192
0.68237
0.644801
0.605391
0.565503
0.525595
0.485178
0.443822
0.403079
0.362539
0.322177
0.281566
0.241777
0.200317
0.161305
0.122395
0.0848157
0.0478139
0.020289
-18.2559
-18.3665
-18.6117
-18.5921
-18.0603
-17.0797
-15.776
-14.2617
-12.6634
-11.0802
-9.58689
-8.22111
-6.99817
-5.91713
-4.97415
-4.15582
-3.44734
-2.83335
-2.30039
-1.83664
-1.432
-1.07742
-0.765723
-0.490857
-0.247483
-0.0314656
0.16099
0.332729
0.486168
0.623541
0.746095
0.855288
0.954015
1.04253
1.12161
1.19206
1.2546
1.30997
1.35864
1.40109
1.43777
1.46899
1.49525
1.51666
1.53357
1.54618
1.55462
1.55905
1.55956
1.55633
1.5493
1.53864
1.52475
1.50807
1.48885
1.4671
1.44324
1.41766
1.39076
1.36296
1.33445
1.30559
1.27662
1.24773
1.21895
1.1903
1.16166
1.13304
1.10414
1.07509
1.0456
1.01555
0.985043
0.954074
0.922585
0.890726
0.858693
0.826832
0.795096
0.763152
0.730581
0.697059
0.661662
0.624442
0.584976
0.544339
0.50371
0.462479
0.420524
0.379272
0.338592
0.298422
0.257411
0.217701
0.177381
0.13968
0.102589
0.068785
0.0382492
0.0136474
-18.2698
-18.3629
-18.537
-18.4751
-17.9418
-16.9768
-15.6999
-14.2173
-12.65
-11.094
-9.62269
-8.27377
-7.06129
-5.98576
-5.04465
-4.22542
-3.51411
-2.89642
-2.35945
-1.89184
-1.48356
-1.12573
-0.811058
-0.533586
-0.287889
-0.0699689
0.124216
0.297485
0.452298
0.590775
0.714388
0.824639
0.924071
1.01322
1.09286
1.1638
1.22679
1.28261
1.33173
1.3746
1.41166
1.44322
1.46972
1.49132
1.50832
1.52091
1.52922
1.53342
1.53355
1.52983
1.52222
1.51105
1.49672
1.47961
1.45987
1.43775
1.41365
1.3879
1.36093
1.33315
1.30473
1.27604
1.24732
1.2187
1.19025
1.16192
1.13365
1.10537
1.07681
1.04805
1.0188
0.988953
0.958657
0.927747
0.896477
0.86489
0.833061
0.801459
0.770112
0.738693
0.706691
0.673664
0.638724
0.60192
0.562176
0.521016
0.479555
0.437387
0.394801
0.353068
0.31247
0.271979
0.230636
0.191019
0.152014
0.115407
0.08076
0.0508548
0.0274124
0.00592643
-18.2829
-18.3566
-18.4625
-18.3544
-17.8169
-16.8678
-15.6179
-14.1704
-12.6376
-11.1112
-9.66277
-8.33085
-7.1285
-6.05993
-5.12076
-4.30011
-3.58552
-2.96373
-2.42242
-1.95068
-1.53856
-1.17731
-0.859603
-0.579506
-0.331584
-0.111441
0.084426
0.259024
0.414984
0.554476
0.679073
0.79033
0.890475
0.980252
1.06048
1.13197
1.19549
1.25187
1.30156
1.34496
1.38248
1.41446
1.44126
1.46308
1.48022
1.49284
1.50104
1.50499
1.50475
1.50038
1.49215
1.4804
1.46555
1.44795
1.42778
1.40531
1.38092
1.35499
1.32792
1.30017
1.27189
1.24337
1.21494
1.18665
1.15857
1.13059
1.10274
1.07488
1.04665
1.01822
0.989276
0.959545
0.92941
0.898695
0.867768
0.83642
0.804806
0.773504
0.742581
0.711713
0.680304
0.647819
0.613358
0.57694
0.536918
0.495247
0.452892
0.409662
0.366473
0.324778
0.283721
0.242263
0.200929
0.161454
0.12382
0.0882391
0.0566454
0.0305948
0.0148833
-0.0032747
-18.2952
-18.3499
-18.3972
-18.2452
-17.7022
-16.7683
-15.5435
-14.1309
-12.6316
-11.1332
-9.70619
-8.38982
-7.19687
-6.13278
-5.19425
-4.37199
-3.65439
-3.02896
-2.48381
-2.00839
-1.59283
-1.22844
-0.907951
-0.625387
-0.375384
-0.153343
0.0441508
0.220056
0.377064
0.517445
0.642853
0.754914
0.855626
0.945847
1.02652
1.09843
1.16239
1.21933
1.26961
1.31356
1.35159
1.38401
1.41115
1.43323
1.45049
1.46311
1.47121
1.4749
1.47427
1.46937
1.46054
1.44819
1.43277
1.41463
1.39401
1.37115
1.34647
1.32038
1.29327
1.26558
1.23746
1.20918
1.18109
1.15315
1.12549
1.09791
1.07048
1.04307
1.0152
0.986948
0.958273
0.928776
0.898796
0.868446
0.837808
0.806702
0.77534
0.744373
0.713899
0.683595
0.652791
0.620849
0.586917
0.550642
0.510574
0.468209
0.424938
0.380613
0.337503
0.295332
0.252994
0.210905
0.169653
0.130391
0.093899
0.0595623
0.0311496
0.00856415
0.000867174
-0.0140707
-18.3076
-18.3463
-18.3497
-18.1619
-17.6135
-16.6926
-15.4888
-14.1023
-12.6286
-11.1522
-9.74281
-8.43956
-7.25482
-6.19487
-5.25763
-4.43464
-3.71487
-3.08653
-2.53824
-2.0598
-1.64144
-1.27447
-0.95175
-0.667257
-0.415643
-0.192181
0.00667612
0.183706
0.341621
0.482767
0.60887
0.72157
0.822907
0.913856
0.995181
1.0675
1.1318
1.18913
1.23984
1.28421
1.32261
1.35536
1.38274
1.40497
1.42229
1.43485
1.44278
1.4462
1.44515
1.43973
1.43031
1.41736
1.40139
1.38276
1.36172
1.33854
1.31365
1.28748
1.26039
1.23282
1.20492
1.17692
1.14918
1.12163
1.09439
1.0672
1.04018
1.01292
0.985504
0.957451
0.928965
0.899786
0.870039
0.839939
0.809558
0.778726
0.747646
0.717023
0.686999
0.65724
0.627008
0.595547
0.56213
0.525812
0.48564
0.442469
0.398286
0.353441
0.310428
0.266655
0.223464
0.180948
0.139743
0.100717
0.0651928
0.032221
0.00658327
-0.0133068
-0.0134883
-0.0258272
-18.3201
-18.3467
-18.3188
-18.1043
-17.551
-16.6395
-15.4511
-14.0835
-12.6292
-11.17
-9.77446
-8.48137
-7.30304
-6.24637
-5.31016
-4.48661
-3.76517
-3.13456
-2.58382
-2.10306
-1.68253
-1.31358
-0.989107
-0.703125
-0.450209
-0.225671
-0.0259257
0.151819
0.310337
0.451966
0.578508
0.691598
0.79336
0.88489
0.966737
1.03959
1.10442
1.16217
1.21324
1.25794
1.29663
1.32959
1.35713
1.37944
1.39674
1.40919
1.41693
1.42006
1.41863
1.41271
1.40274
1.38926
1.37282
1.35378
1.33242
1.30902
1.28404
1.25788
1.23088
1.20351
1.17585
1.14814
1.12076
1.09361
1.06677
1.03983
1.01303
0.98602
0.958978
0.931248
0.902957
0.873955
0.844372
0.814492
0.784395
0.75384
0.723047
0.692767
0.663181
0.633933
0.604227
0.573199
0.540095
0.503619
0.463074
0.419029
0.374135
0.329552
0.285262
0.240176
0.196532
0.15363
0.112611
0.0738509
0.039161
0.00746704
-0.015932
-0.033888
-0.0275192
-0.0379482
-18.3331
-18.3507
-18.3008
-18.0667
-17.5095
-16.6048
-15.4277
-14.0742
-12.6343
-11.1881
-9.80284
-8.51721
-7.34372
-6.28949
-5.35401
-4.52992
-3.80718
-3.1748
-2.62217
-2.13966
-1.7175