/*--------------------------------*- C++ -*----------------------------------*\
| =========                 |                                                 |
| \\      /  F ield         | OpenFOAM: The Open Source CFD Toolbox           |
|  \\    /   O peration     | Version:  v2012                                 |
|   \\  /    A nd           | Website:  www.openfoam.com                      |
|    \\/     M anipulation  |                                                 |
\*---------------------------------------------------------------------------*/
FoamFile
{
    version     2.0;
    format      ascii;
    class       Cloud<basicKinematicParcel>;
    location    "0.058/lagrangian/kinematicCloud";
    object      coordinates;
}
// * * * * * * * * * * * * * * * * * * * * * * * * * * * * * * * * * * * * * //

61
(
(0.0151619 0.285628 0.206791 0.492419) 209 507 1
(0.55829 0.0213296 0.199526 0.220855) 510 908 2
(0.31351 0.343245 0.0373182 0.305927) 710 1306 1
(0.182058 0.0247683 0.408971 0.384203) 309 704 1
(0.00996576 0.213422 0.281595 0.495017) 908 1700 2
(0.301152 0.349424 0.328227 0.0211969) 708 1501 1
(0.13557 0.376091 0.0561236 0.432215) 101 193 1
(0.153341 0.399752 0.0235769 0.423329) 906 1894 1
(0.240525 0.379737 0.239954 0.139783) 906 1895 1
(0.287519 0.225786 0.356241 0.130454) 405 898 2
(0.825434 0.0872829 0.0131238 0.0741591) 405 898 1
(0.28692 0.35654 0.198683 0.157857) 304 696 2
(0.0936288 0.453186 0.290978 0.162208) 92 7620 1
(0.044607 0.477697 0.023234 0.454463) 2 7502 2
(0.45668 0.197382 0.27166 0.0742787) 98 187 1
(0.351906 0.079918 0.244129 0.324047) 502 1090 1
(0.13184 0.43408 0.219091 0.214989) 202 197 1
(0.279701 0.146538 0.213611 0.360149) 1001 1885 2
(0.439914 0.280043 0.103257 0.176786) 201 492 1
(0.513353 0.243324 0.176216 0.0671076) 901 1686 1
(0.0834593 0.45827 0.28917 0.1691) 800 1683 2
(0.433897 0.105027 0.178024 0.283051) 94 184 1
(0.168987 0.250914 0.415506 0.164592) 800 159 1
(0.628047 0.185976 0.139648 0.0463289) 19 18 1
(0.456286 0.271857 0.112721 0.159136) 39 58 1
(0.325676 0.194129 0.143033 0.337162) 78 156 1
(0.583748 0.208126 0.0538797 0.154246) 18 34 2
(0.255803 0.372098 0.200662 0.171437) 88 157 1
(0.448609 0.275695 0.20517 0.0705256) 4 8 2
(0.452702 0.108919 0.16473 0.273649) 87 174 1
(0.128829 0.435586 0.346522 0.0890636) 1 7501 2
(0.466569 0.266715 0.247635 0.0190801) 6 13 1
(0.576222 0.01249 0.211889 0.199399) 92 7620 2
(0.411005 0.196633 0.0978644 0.294498) 55 110 1
(0.315709 0.0999759 0.24217 0.342145) 25 31 2
(0.207716 0.396142 0.0317627 0.364379) 65 131 1
(0.0164393 0.17522 0.31656 0.49178) 34 68 1
(0.351827 0.0920425 0.324087 0.232044) 34 69 2
(0.0582368 0.470882 0.204221 0.266661) 64 129 1
(0.475299 0.128714 0.133636 0.26235) 1 7501 1
(0.535407 0.0657175 0.166579 0.232297) 23 46 1
(0.632216 0.137742 0.183892 0.0461507) 63 124 1
(0.0544759 0.472762 0.284144 0.188618) 12 24 2
(0.0204518 0.189386 0.489774 0.300388) 12 25 2
(0.0449312 0.477534 0.0149452 0.462589) 22 45 1
(0.145682 0.427159 0.150006 0.277153) 62 105 1
(0.135052 0.432474 0.254332 0.178142) 81 162 2
(0.505716 0.238679 0.0084629 0.247142) 41 82 1
(0.126563 0.436718 0.0273551 0.409363) 31 63 1
(0.21599 0.392005 0.20415 0.187855) 71 143 1
(0.0214929 0.489254 0.410605 0.0786483) 1 3 1
(0.0382601 0.48087 0.0823933 0.398477) 30 60 2
(0.313482 0.0419042 0.301355 0.343259) 80 160 1
(0.520106 0.239947 0.137399 0.102548) 0 7500 2
(0.569004 0.215498 0.0113682 0.20413) 60 121 1
(0.412441 0.293779 0.00341403 0.290365) 60 121 1
(0.0684463 0.465777 0.379899 0.0858778) 90 161 1
(0.00863225 0.495684 0.296103 0.199581) 50 81 1
(0.108982 0.445509 0.339242 0.106267) 30 61 1
(0.155249 0.422376 0.17423 0.248146) 50 81 1
(0.494923 0.124988 0.252538 0.127551) 80 7480 2
)


// ************************************************************************* //
