/*--------------------------------*- C++ -*----------------------------------*\
| =========                 |                                                 |
| \\      /  F ield         | OpenFOAM: The Open Source CFD Toolbox           |
|  \\    /   O peration     | Version:  v2012                                 |
|   \\  /    A nd           | Website:  www.openfoam.com                      |
|    \\/     M anipulation  |                                                 |
\*---------------------------------------------------------------------------*/
FoamFile
{
    version     2.0;
    format      ascii;
    class       Cloud<basicKinematicParcel>;
    location    "0.058/lagrangian/kinematicCloud";
    object      positions;
}
// * * * * * * * * * * * * * * * * * * * * * * * * * * * * * * * * * * * * * //

44
(
(0.901498 -0.00773093 0.03) 1815
(0.959296 0.000475266 0.03) 195
(0.379886 0.0264066 0.03) 1033
(0.597403 -0.0132278 0.03) 1554
(0.663669 0.0245254 0.03) 1063
(0.886345 0.00582762 0.03) 387
(0.793632 -0.00719035 0.03) 1719
(0.776136 0.0226634 0.03) 975
(0.776375 -0.00330513 0.03) 1701
(0.794741 0.0194263 0.03) 877
(0.782432 0.0162647 0.03) 776
(0.487837 0.0252323 0.03) 1045
(0.725903 0.0177053 0.03) 770
(0.667669 -0.00376172 0.03) 1613
(0.692963 0.00271877 0.03) 267
(0.673013 0.0178204 0.03) 764
(0.624265 -0.00267154 0.03) 1573
(0.641046 0.0195911 0.03) 861
(0.505371 -0.0065677 0.03) 1471
(0.605541 0.0215421 0.03) 957
(0.391964 -0.00756644 0.03) 1375
(0.523596 -0.00427589 0.03) 1486
(0.348599 0.0255903 0.03) 1030
(0.521187 0.0119999 0.03) 548
(0.512315 0.00102282 0.03) 147
(0.49778 0.0162136 0.03) 746
(0.474216 0.00679191 0.03) 343
(0.452167 0.00701217 0.03) 341
(0.428988 0.0168365 0.03) 738
(0.296629 -0.00356312 0.03) 1293
(0.384421 0.00407911 0.03) 233
(0.362324 0.015963 0.03) 631
(0.334582 0.000791184 0.03) 128
(0.318473 0.00300421 0.03) 226
(0.297444 0.00607036 0.03) 324
(0.275932 0.0151974 0.03) 622
(0.253813 0.0217343 0.03) 920
(0.234081 0.0111327 0.03) 517
(0.21316 0.00977 0.03) 415
(0.192847 0.0207968 0.03) 813
(0.17095 0.00216193 0.03) 111
(0.153875 0.00805877 0.03) 409
(0.134469 0.0234341 0.03) 907
(0.0898396 0.000696761 0.03) 102
)


// ************************************************************************* //
