/*--------------------------------*- C++ -*----------------------------------*\
| =========                 |                                                 |
| \\      /  F ield         | OpenFOAM: The Open Source CFD Toolbox           |
|  \\    /   O peration     | Version:  v2012                                 |
|   \\  /    A nd           | Website:  www.openfoam.com                      |
|    \\/     M anipulation  |                                                 |
\*---------------------------------------------------------------------------*/
FoamFile
{
    version     2.0;
    format      ascii;
    class       vectorField;
    location    "0.058/lagrangian/kinematicCloud";
    object      U;
}
// * * * * * * * * * * * * * * * * * * * * * * * * * * * * * * * * * * * * * //


54
(
(9.93364 7.46791e-06 0)
(10.1938 -0.00051049 0)
(10.2029 -0.000654839 0)
(10.2074 0.000517975 0)
(10.2102 -0.0016453 0)
(10.2222 -0.00110766 0)
(7.65442 -0.000596785 0)
(10.07 -0.00358587 0)
(10.104 -0.00412848 0)
(10.2402 0.00181545 0)
(10.2393 0.000578488 0)
(10.2156 0.00383106 0)
(9.13155 -0.00356937 0)
(9.17629 0.00246616 0)
(9.47799 -0.00341201 0)
(10.2535 3.28907e-05 0)
(10.0619 0.00501752 0)
(9.77646 -0.00454599 0)
(10.2538 0.00504179 0)
(10.1794 -0.00658926 0)
(10.2648 -0.0047184 0)
(9.97555 -0.00616722 0)
(10.2702 -0.00492068 0)
(10.2494 0.00541834 0)
(10.2715 0.00176446 0)
(10.2759 -0.00448104 0)
(10.2193 0.00573842 0)
(10.2753 -0.00574167 0)
(9.81767 0.00506724 0)
(10.2743 -0.00602877 0)
(6.1705 -0.000117543 0)
(10.1123 0.00496632 0)
(9.28134 -0.00505805 0)
(10.2978 -0.00114582 0)
(10.2991 0.00378766 0)
(10.3037 -0.00348628 0)
(10.307 0.00249371 0)
(10.3119 0.0015219 0)
(10.3171 -0.00329307 0)
(9.64647 0.00192807 0)
(10.3277 0.00270484 0)
(10.3324 -0.0027091 0)
(10.3382 0.00322916 0)
(10.3446 0.00351736 0)
(10.3499 0.0021398 0)
(10.3559 -0.0018604 0)
(10.3634 -0.0038805 0)
(10.3688 0.00012788 0)
(10.3759 0.00110752 0)
(10.3844 -0.00267437 0)
(10.3886 0.00307275 0)
(10.3993 0.000983131 0)
(10.4087 -0.00282993 0)
(10.4009 0.00280693 0)
)


// ************************************************************************* //
