/*--------------------------------*- C++ -*----------------------------------*\
| =========                 |                                                 |
| \\      /  F ield         | OpenFOAM: The Open Source CFD Toolbox           |
|  \\    /   O peration     | Version:  v2012                                 |
|   \\  /    A nd           | Website:  www.openfoam.com                      |
|    \\/     M anipulation  |                                                 |
\*---------------------------------------------------------------------------*/
FoamFile
{
    version     2.0;
    format      ascii;
    class       vectorField;
    location    "0.058/lagrangian/kinematicCloud";
    object      U;
}
// * * * * * * * * * * * * * * * * * * * * * * * * * * * * * * * * * * * * * //


44
(
(20.0923 -0.209637 0)
(23.0157 -0.123746 0)
(6.82788 -0.00574502 0)
(15.8796 -0.364007 0)
(17.1709 -0.0279241 0)
(24.165 -0.181027 0)
(21.0724 -0.275931 0)
(21.6914 -0.0480309 0)
(22.104 -0.243829 0)
(23.6166 -0.0766072 0)
(24.3627 -0.10081 0)
(14.3415 -0.0233304 0)
(23.9345 -0.0916105 0)
(21.4721 -0.269962 0)
(23.0685 -0.215766 0)
(23.7492 -0.0964253 0)
(21.6087 -0.271225 0)
(23.2208 -0.0835419 0)
(18.3841 -0.353424 0)
(22.4016 -0.0662544 0)
(15.508 -0.431732 0)
(20.1747 -0.313226 0)
(13.1842 -0.0217403 0)
(23.3116 -0.158862 0)
(22.0699 -0.267114 0)
(23.0901 -0.127997 0)
(22.7395 -0.212951 0)
(22.6217 -0.214832 0)
(22.5942 -0.12987 0)
(16.274 -0.423062 0)
(21.9176 -0.264645 0)
(22.0791 -0.145401 0)
(20.8555 -0.300444 0)
(21.3341 -0.282817 0)
(21.4191 -0.256133 0)
(21.2166 -0.159706 0)
(20.7627 -0.0849557 0)
(20.7073 -0.203883 0)
(20.4256 -0.210035 0)
(20.0502 -0.0869118 0)
(19.1088 -0.24118 0)
(19.3089 -0.15773 0)
(18.5785 -0.03137 0)
(12.4356 -0.00926544 0)
)


// ************************************************************************* //
