/*--------------------------------*- C++ -*----------------------------------*\
| =========                 |                                                 |
| \\      /  F ield         | OpenFOAM: The Open Source CFD Toolbox           |
|  \\    /   O peration     | Version:  v2012                                 |
|   \\  /    A nd           | Website:  www.openfoam.com                      |
|    \\/     M anipulation  |                                                 |
\*---------------------------------------------------------------------------*/
FoamFile
{
    version     2.0;
    format      ascii;
    class       scalarField;
    location    "0.131/lagrangian/kinematicCloud";
    object      age;
}
// * * * * * * * * * * * * * * * * * * * * * * * * * * * * * * * * * * * * * //


54
(
0.1302
0.1292
0.1281
0.127
0.126
0.125
0.124
0.123
0.1219
0.1208
0.120725
0.1197
0.1186
0.1175
0.1164
0.1153
0.1142
0.1131
0.112
0.111925
0.1109
0.1098
0.1087
0.1076
0.107525
0.1065
0.1054
0.105325
0.1043
0.104225
0.1032
0.1021
0.101
0.0999
0.099825
0.0989
0.0979
0.0969
0.0959
0.0949
0.0939
0.0929
0.0919
0.0909
0.0899
0.0889
0.0879
0.0869
0.0859
0.0849
0.0839
0.0829
0.0819
0.0809
)


// ************************************************************************* //
