/*--------------------------------*- C++ -*----------------------------------*\
| =========                 |                                                 |
| \\      /  F ield         | OpenFOAM: The Open Source CFD Toolbox           |
|  \\    /   O peration     | Version:  v2012                                 |
|   \\  /    A nd           | Website:  www.openfoam.com                      |
|    \\/     M anipulation  |                                                 |
\*---------------------------------------------------------------------------*/
FoamFile
{
    version     2.0;
    format      ascii;
    class       Cloud<basicKinematicParcel>;
    location    "0.131/lagrangian/kinematicCloud";
    object      coordinates;
}
// * * * * * * * * * * * * * * * * * * * * * * * * * * * * * * * * * * * * * //

54
(
(0.0739929 0.463004 0.427682 0.035322) 385 571 1
(0.76253 0.065253 0.118735 0.0534822) 888 1774 1
(0.284763 0.357618 0.133035 0.224583) 1187 2374 2
(0.127861 0.311592 0.43607 0.124477) 586 1173 2
(0.237748 0.094848 0.286278 0.381126) 1485 2771 2
(0.435136 0.282432 0.217852 0.0645803) 1185 2370 2
(0.534473 0.232764 0.183082 0.0496816) 62 124 2
(0.340585 0.111712 0.217995 0.329707) 1681 3163 2
(0.0827934 0.458603 0.242601 0.216002) 1581 3163 1
(0.194216 0.402892 0.394409 0.00848332) 782 1564 2
(0.278966 0.0137163 0.360517 0.346801) 882 1765 2
(0.201096 0.399452 0.376301 0.0231506) 581 1160 2
(0.0762248 0.266952 0.461888 0.194935) 1871 3740 1
(0.379835 0.310082 0.280228 0.0298541) 170 141 1
(0.132682 0.433659 0.15448 0.279179) 1872 3742 2
(0.489947 0.145901 0.255027 0.109125) 979 1956 1
(0.462827 0.268586 0.171296 0.0972907) 375 551 1
(0.0932839 0.112818 0.453358 0.34054) 1772 3542 1
(0.657554 0.155194 0.171223 0.0160291) 576 1150 1
(0.148821 0.0301216 0.395468 0.425589) 1574 3148 1
(0.109667 0.445166 0.413056 0.0321101) 1376 2750 2
(0.598419 0.200791 0.19354 0.0072512) 1771 3540 2
(0.837132 0.0814342 0.0619102 0.019524) 1374 2549 1
(0.61734 0.121466 0.0698636 0.19133) 472 944 1
(0.379902 0.310049 0.0998777 0.210171) 873 1746 2
(0.121022 0.439489 0.0743033 0.365186) 1372 2744 2
(0.524013 0.237993 0.10031 0.137684) 370 741 1
(0.657622 0.0867955 0.0843936 0.171189) 1471 2942 1
(0.476479 0.0349736 0.226787 0.26176) 165 330 1
(0.0203435 0.333221 0.156607 0.489828) 1570 2941 2
(0.088863 0.280108 0.17546 0.455568) 35 22255 1
(0.921812 0.0390942 0.00623314 0.032861) 266 532 2
(0.101951 0.028219 0.449024 0.420805) 1858 3717 2
(0.755763 0.0725682 0.0495504 0.122119) 1068 2136 1
(0.0850638 0.457468 0.219566 0.237902) 668 1137 1
(0.113989 0.216183 0.226822 0.443005) 1267 2534 1
(0.381715 0.309143 0.197393 0.11175) 767 1532 2
(0.486503 0.078072 0.178676 0.256748) 866 1533 2
(0.289237 0.0498985 0.305483 0.355381) 1265 2530 1
(0.089926 0.139971 0.455037 0.315066) 56 110 1
(0.379738 0.211935 0.310131 0.0981958) 664 1329 2
(0.264686 0.367657 0.270378 0.0972794) 1263 2526 2
(0.115003 0.0626818 0.379817 0.442498) 562 1124 1
(0.365026 0.317487 0.3111 0.00638662) 562 1122 2
(0.183496 0.0685047 0.339747 0.408252) 761 1323 2
(0.343812 0.328094 0.311214 0.0168801) 1161 2323 1
(0.0975092 0.0224923 0.428753 0.451245) 1559 2919 2
(0.353403 0.31235 0.0109488 0.323299) 959 1918 1
(0.143444 0.428278 0.376921 0.0513572) 859 1716 2
(0.187309 0.406346 0.226897 0.179449) 1358 2717 1
(0.406714 0.296643 0.0881373 0.208506) 356 513 1
(0.0644167 0.467792 0.420288 0.0475034) 757 1515 1
(0.135476 0.335252 0.432262 0.0970098) 1555 3111 2
(0.00359999 0.143897 0.4982 0.354303) 152 305 2
)


// ************************************************************************* //
