/*--------------------------------*- C++ -*----------------------------------*\
| =========                 |                                                 |
| \\      /  F ield         | OpenFOAM: The Open Source CFD Toolbox           |
|  \\    /   O peration     | Version:  v2012                                 |
|   \\  /    A nd           | Website:  www.openfoam.com                      |
|    \\/     M anipulation  |                                                 |
\*---------------------------------------------------------------------------*/
FoamFile
{
    version     2.0;
    format      ascii;
    class       Cloud<basicKinematicParcel>;
    location    "0.131/lagrangian/kinematicCloud";
    object      positions;
}
// * * * * * * * * * * * * * * * * * * * * * * * * * * * * * * * * * * * * * //

54
(
(1.28197 0.00410185 0.03) 385
(1.32572 0.0157466 0.03) 888
(1.31786 0.023785 0.03) 1187
(1.29937 0.00939647 0.03) 586
(1.28679 0.0307144 0.03) 1485
(1.28674 0.024223 0.03) 1185
(0.940991 0.000545972 0.03) 62
(1.22577 0.0345937 0.03) 1681
(1.21886 0.0342381 0.03) 1581
(1.24354 0.012974 0.03) 782
(1.2427 0.0165871 0.03) 882
(1.21651 0.00775784 0.03) 581
(1.06557 0.0383781 0.03) 1871
(1.05705 0.00146735 0.03) 170
(1.081 0.037909 0.03) 1872
(1.18867 0.0188152 0.03) 979
(1.13104 0.00442177 0.03) 375
(1.0807 0.0372082 0.03) 1772
(1.14493 0.00854921 0.03) 576
(1.12388 0.0341231 0.03) 1574
(1.14082 0.0284355 0.03) 1376
(1.06949 0.0364145 0.03) 1771
(1.11721 0.0291761 0.03) 1374
(1.09037 0.00672468 0.03) 472
(1.10715 0.0150248 0.03) 873
(1.09409 0.0285424 0.03) 1372
(1.056 0.00525534 0.03) 370
(1.07507 0.0316534 0.03) 1471
(0.986426 0.00218801 0.03) 165
(1.05985 0.0325102 0.03) 1570
(0.535132 5.38693e-05 0.03) 35
(0.998086 0.00324903 0.03) 266
(0.883812 0.0387192 0.03) 1858
(1.02933 0.0216657 0.03) 1068
(1.02393 0.00962041 0.03) 668
(1.01915 0.0275658 0.03) 1267
(1.00786 0.0125069 0.03) 767
(1.00018 0.0148973 0.03) 866
(0.987831 0.0277603 0.03) 1265
(0.840674 0.000988196 0.03) 56
(0.968973 0.0113347 0.03) 664
(0.958015 0.0267644 0.03) 1263
(0.944137 0.009283 0.03) 562
(0.932738 0.00788935 0.03) 562
(0.927596 0.0119856 0.03) 761
(0.917832 0.025298 0.03) 1161
(0.898931 0.0325805 0.03) 1559
(0.897349 0.0185177 0.03) 959
(0.886076 0.0145683 0.03) 859
(0.874097 0.0302654 0.03) 1358
(0.844372 0.0043756 0.03) 356
(0.856196 0.0141517 0.03) 757
(0.833955 0.0341901 0.03) 1555
(0.792815 0.00255235 0.03) 152
)


// ************************************************************************* //
