/*--------------------------------*- C++ -*----------------------------------*\
| =========                 |                                                 |
| \\      /  F ield         | OpenFOAM: The Open Source CFD Toolbox           |
|  \\    /   O peration     | Version:  v2012                                 |
|   \\  /    A nd           | Website:  www.openfoam.com                      |
|    \\/     M anipulation  |                                                 |
\*---------------------------------------------------------------------------*/
FoamFile
{
    version     2.0;
    format      ascii;
    class       volVectorField;
    location    "0.032";
    object      U.air;
}
// * * * * * * * * * * * * * * * * * * * * * * * * * * * * * * * * * * * * * //

dimensions      [0 1 -1 0 0 0 0];


internalField   nonuniform List<vector> 
5600
(
(18.5976 0.0139395 0)
(18.1324 0.0319123 0)
(17.5462 0.0443328 0)
(16.892 0.0494573 0)
(16.2177 0.0475647 0)
(15.5677 0.0412429 0)
(14.9599 0.0329022 0)
(14.4164 0.0238143 0)
(13.9477 0.0154214 0)
(13.5485 0.00848918 0)
(13.2192 0.00280797 0)
(12.954 -0.00181006 0)
(12.7476 -0.00553322 0)
(12.5942 -0.00836498 0)
(12.4871 -0.0101986 0)
(12.417 -0.0109641 0)
(12.3729 -0.0108711 0)
(12.344 -0.0101654 0)
(12.3232 -0.00914377 0)
(12.3088 -0.0084091 0)
(12.3009 -0.00784396 0)
(12.2978 -0.00744623 0)
(12.2968 -0.00705124 0)
(12.2967 -0.00664239 0)
(12.2977 -0.00627975 0)
(12.299 -0.00599994 0)
(12.2994 -0.00574209 0)
(12.298 -0.00539426 0)
(12.2943 -0.00511232 0)
(12.2887 -0.00490531 0)
(12.2826 -0.0047037 0)
(12.277 -0.00449663 0)
(12.2722 -0.00428752 0)
(12.2687 -0.00415746 0)
(12.2667 -0.00414073 0)
(12.2659 -0.00419285 0)
(12.2659 -0.00429391 0)
(12.2666 -0.004404 0)
(12.2677 -0.00446759 0)
(12.2692 -0.00449288 0)
(12.2708 -0.00447345 0)
(12.2721 -0.00443832 0)
(12.2731 -0.0044015 0)
(12.2739 -0.00436722 0)
(12.2745 -0.00433953 0)
(12.2749 -0.00431852 0)
(12.2751 -0.00430324 0)
(12.2753 -0.00429258 0)
(12.2754 -0.00428538 0)
(12.2755 -0.00428075 0)
(12.2755 -0.00427772 0)
(12.2755 -0.00427605 0)
(12.2755 -0.0042748 0)
(12.2755 -0.00427427 0)
(12.2756 -0.00427375 0)
(12.2755 -0.00427408 0)
(12.2756 -0.00427292 0)
(12.2755 -0.00427469 0)
(12.2756 -0.00427145 0)
(12.2755 -0.00427683 0)
(12.2757 -0.0042681 0)
(12.2753 -0.00428168 0)
(12.2759 -0.00426131 0)
(12.275 -0.00429046 0)
(12.2764 -0.0042504 0)
(12.2743 -0.00430275 0)
(12.2772 -0.00423724 0)
(12.2734 -0.00431534 0)
(12.2783 -0.0042254 0)
(12.2721 -0.00432642 0)
(12.2797 -0.00421249 0)
(12.2705 -0.00434433 0)
(12.2816 -0.00418574 0)
(12.2683 -0.00437834 0)
(12.2841 -0.00415048 0)
(12.2658 -0.00438905 0)
(12.286 -0.00419558 0)
(12.2652 -0.004267 0)
(12.2842 -0.00436185 0)
(12.2698 -0.00392568 0)
(12.2746 -0.00474053 0)
(12.2844 -0.00359465 0)
(12.2573 -0.00474576 0)
(12.2956 -0.00411303 0)
(12.2547 -0.00384895 0)
(12.2862 -0.00481529 0)
(12.2738 -0.00318848 0)
(12.2478 -0.0059468 0)
(12.3177 -0.00312851 0)
(12.2107 -0.0048192 0)
(12.3308 -0.00395808 0)
(12.2016 -0.00405145 0)
(12.3158 -0.00344496 0)
(12.1893 -0.00382237 0)
(12.2811 -0.00309191 0)
(12.1692 -0.00254556 0)
(12.1675 -0.00514555 0)
(12.1829 0.00513063 0)
(11.8146 -0.0150755 0)
(12.2529 0.0663694 0)
(18.7902 0.0366642 0)
(18.8039 0.0485275 0)
(18.7962 0.0517591 0)
(18.7573 0.0557782 0)
(18.685 0.0578822 0)
(18.5793 0.0582409 0)
(18.4433 0.0574491 0)
(18.2788 0.0553842 0)
(18.0939 0.0513796 0)
(17.8968 0.0468375 0)
(17.6933 0.041976 0)
(17.4881 0.0368767 0)
(17.2864 0.0317258 0)
(17.0895 0.026675 0)
(16.9022 0.0218276 0)
(16.7277 0.0176697 0)
(16.5668 0.0144423 0)
(16.4189 0.0120468 0)
(16.2853 0.0100749 0)
(16.167 0.00817368 0)
(16.0636 0.00652589 0)
(15.9755 0.00527889 0)
(15.8995 0.00446299 0)
(15.8342 0.00376947 0)
(15.7795 0.00322573 0)
(15.7314 0.00300271 0)
(15.6885 0.00302008 0)
(15.6496 0.00314226 0)
(15.6142 0.00328611 0)
(15.5814 0.00325546 0)
(15.5527 0.00301732 0)
(15.5291 0.00265905 0)
(15.5106 0.00220914 0)
(15.4973 0.00173764 0)
(15.4884 0.0013947 0)
(15.4832 0.00118447 0)
(15.4806 0.00114426 0)
(15.4797 0.00114166 0)
(15.4798 0.00112656 0)
(15.4807 0.00111297 0)
(15.4822 0.00112086 0)
(15.4839 0.00113802 0)
(15.4854 0.00115656 0)
(15.4865 0.00117444 0)
(15.4873 0.00118873 0)
(15.4879 0.00119919 0)
(15.4883 0.00120662 0)
(15.4885 0.00121178 0)
(15.4887 0.00121528 0)
(15.4888 0.00121758 0)
(15.4889 0.00121908 0)
(15.4889 0.00121998 0)
(15.4889 0.00122054 0)
(15.489 0.00122098 0)
(15.489 0.00122111 0)
(15.489 0.00122108 0)
(15.489 0.00122154 0)
(15.4889 0.00122085 0)
(15.489 0.00122216 0)
(15.4889 0.00121998 0)
(15.4891 0.0012235 0)
(15.4888 0.00121807 0)
(15.4892 0.00122607 0)
(15.4886 0.00121479 0)
(15.4895 0.00122977 0)
(15.4883 0.00121082 0)
(15.4898 0.00123329 0)
(15.4879 0.00120807 0)
(15.4903 0.00123472 0)
(15.4873 0.00120754 0)
(15.491 0.00123551 0)
(15.4866 0.00120475 0)
(15.4918 0.00124174 0)
(15.4856 0.00119559 0)
(15.4926 0.00125143 0)
(15.485 0.00120344 0)
(15.4922 0.00122077 0)
(15.4858 0.00126386 0)
(15.4894 0.00113258 0)
(15.4905 0.00137249 0)
(15.4822 0.000828819 0)
(15.4956 0.00149526 0)
(15.4794 0.00102963 0)
(15.495 0.00119099 0)
(15.4815 0.00144864 0)
(15.4855 0.000661198 0)
(15.4934 0.00233798 0)
(15.4701 0.000113324 0)
(15.4987 0.00190149 0)
(15.4635 0.00140746 0)
(15.4913 0.00140177 0)
(15.4605 0.00244108 0)
(15.4674 0.00186352 0)
(15.4604 0.00336331 0)
(15.4224 0.00250802 0)
(15.4717 0.00668255 0)
(15.3478 0.00254296 0)
(15.4469 0.015455 0)
(15.0962 0.0253131 0)
(15.3416 0.149578 0)
(18.7906 0.0260535 0)
(18.8274 0.0397853 0)
(18.8717 0.048404 0)
(18.9167 0.0558889 0)
(18.9585 0.0600415 0)
(18.9937 0.0611262 0)
(19.0209 0.0601744 0)
(19.0363 0.0566309 0)
(19.0337 0.0535653 0)
(19.0182 0.0490237 0)
(18.9871 0.0442734 0)
(18.9399 0.0395569 0)
(18.8767 0.0351193 0)
(18.7972 0.0310057 0)
(18.7018 0.0272556 0)
(18.5921 0.0238412 0)
(18.4704 0.0212918 0)
(18.3399 0.0193488 0)
(18.2049 0.0174091 0)
(18.0684 0.0152782 0)
(17.9362 0.0129488 0)
(17.8127 0.0108126 0)
(17.6988 0.00909822 0)
(17.5934 0.00750618 0)
(17.4968 0.00610154 0)
(17.4089 0.00505679 0)
(17.3292 0.00427137 0)
(17.2567 0.00369413 0)
(17.191 0.00329042 0)
(17.1327 0.00281749 0)
(17.0835 0.00213675 0)
(17.0439 0.00133119 0)
(17.0136 0.000435505 0)
(16.9918 -0.00043729 0)
(16.977 -0.00105593 0)
(16.9679 -0.00142272 0)
(16.9628 -0.00176596 0)
(16.9605 -0.00205384 0)
(16.9598 -0.00222128 0)
(16.9602 -0.00237828 0)
(16.9615 -0.00243837 0)
(16.9634 -0.00241321 0)
(16.9651 -0.00235093 0)
(16.9664 -0.00228746 0)
(16.9674 -0.00223446 0)
(16.9681 -0.00219316 0)
(16.9686 -0.0021624 0)
(16.969 -0.00214048 0)
(16.9692 -0.0021253 0)
(16.9694 -0.00211535 0)
(16.9694 -0.00210866 0)
(16.9695 -0.00210483 0)
(16.9695 -0.00210211 0)
(16.9695 -0.00210065 0)
(16.9696 -0.00209963 0)
(16.9696 -0.00209994 0)
(16.9696 -0.00209793 0)
(16.9695 -0.00210085 0)
(16.9696 -0.00209565 0)
(16.9695 -0.00210375 0)
(16.9697 -0.00209128 0)
(16.9694 -0.00210956 0)
(16.9699 -0.00208371 0)
(16.9692 -0.00211867 0)
(16.9701 -0.00207334 0)
(16.9689 -0.00212958 0)
(16.9705 -0.00206244 0)
(16.9684 -0.00213986 0)
(16.9709 -0.00205162 0)
(16.9679 -0.00215154 0)
(16.9715 -0.00203473 0)
(16.9671 -0.00217179 0)
(16.9723 -0.00201011 0)
(16.9662 -0.00218533 0)
(16.9728 -0.0020104 0)
(16.9659 -0.00213991 0)
(16.9717 -0.00207865 0)
(16.9675 -0.00195826 0)
(16.9675 -0.00237493 0)
(16.9735 -0.00155356 0)
(16.9613 -0.0025246 0)
(16.9765 -0.00170477 0)
(16.9607 -0.00219271 0)
(16.9733 -0.00211082 0)
(16.9651 -0.00137203 0)
(16.9622 -0.00302168 0)
(16.9768 -0.000437176 0)
(16.9533 -0.00294116 0)
(16.9737 -0.0010124 0)
(16.9543 -0.00168031 0)
(16.9625 -0.00177452 0)
(16.9613 -0.000618614 0)
(16.9468 -0.00104369 0)
(16.9687 0.00139109 0)
(16.9168 -0.0011471 0)
(16.9858 0.00516007 0)
(16.882 0.00188918 0)
(16.9328 0.0199763 0)
(16.7442 0.0195504 0)
(16.7385 0.189257 0)
(18.7889 0.0234962 0)
(18.8255 0.0380924 0)
(18.8732 0.0451771 0)
(18.9246 0.0510488 0)
(18.9779 0.0541933 0)
(19.0322 0.0548637 0)
(19.0867 0.0541522 0)
(19.1375 0.0527522 0)
(19.1854 0.0499432 0)
(19.2264 0.0470276 0)
(19.2622 0.0442745 0)
(19.2905 0.0416583 0)
(19.3143 0.0391642 0)
(19.3302 0.0370746 0)
(19.3392 0.034875 0)
(19.3379 0.0337483 0)
(19.3293 0.0326626 0)
(19.3116 0.0318798 0)
(19.2837 0.0309293 0)
(19.2446 0.0295143 0)
(19.1945 0.0274913 0)
(19.1338 0.0252332 0)
(19.0638 0.0232699 0)
(18.9853 0.0214522 0)
(18.8987 0.0198264 0)
(18.805 0.0184896 0)
(18.7066 0.0172683 0)
(18.605 0.0159741 0)
(18.5053 0.0143409 0)
(18.4166 0.0122545 0)
(18.342 0.00993963 0)
(18.2826 0.00771055 0)
(18.2378 0.00568893 0)
(18.2056 0.00394906 0)
(18.1838 0.00255067 0)
(18.17 0.00148786 0)
(18.162 0.000484403 0)
(18.1579 -8.76928e-05 0)
(18.1564 -0.000458344 0)
(18.1564 -0.000696867 0)
(18.1575 -0.000852271 0)
(18.1594 -0.000857478 0)
(18.1613 -0.000762051 0)
(18.1628 -0.000648596 0)
(18.164 -0.000550717 0)
(18.1648 -0.000472406 0)
(18.1654 -0.000412516 0)
(18.1659 -0.000368666 0)
(18.1661 -0.000337539 0)
(18.1663 -0.000316617 0)
(18.1664 -0.000302304 0)
(18.1665 -0.000293938 0)
(18.1665 -0.00028779 0)
(18.1666 -0.000284818 0)
(18.1666 -0.00028224 0)
(18.1666 -0.000282536 0)
(18.1666 -0.000279121 0)
(18.1666 -0.000283421 0)
(18.1666 -0.000275751 0)
(18.1666 -0.000287055 0)
(18.1667 -0.000270252 0)
(18.1665 -0.000293713 0)
(18.1667 -0.000261963 0)
(18.1665 -0.000302615 0)
(18.1668 -0.000252277 0)
(18.1664 -0.000310967 0)
(18.1668 -0.000243384 0)
(18.1663 -0.000317134 0)
(18.1669 -0.000233504 0)
(18.1661 -0.000325052 0)
(18.167 -0.000215602 0)
(18.1658 -0.000335061 0)
(18.1671 -0.000200208 0)
(18.1655 -0.000309588 0)
(18.1666 -0.000242982 0)
(18.1663 -0.000173789 0)
(18.1646 -0.000406637 0)
(18.1685 9.94037e-05 0)
(18.1622 -0.000763276 0)
(18.1706 0.000466418 0)
(18.1618 -0.000625435 0)
(18.169 6.88222e-05 0)
(18.1638 -1.66824e-05 0)
(18.1627 -0.000647315 0)
(18.1687 0.00100627 0)
(18.1614 -0.00124556 0)
(18.1677 0.00115564 0)
(18.1666 -0.000337703 0)
(18.1551 0.000347426 0)
(18.1719 0.00130551 0)
(18.1482 -0.000255339 0)
(18.1779 0.00187525 0)
(18.1548 0.000558918 0)
(18.1872 0.00331034 0)
(18.163 0.000608201 0)
(18.1827 0.00603407 0)
(18.1915 0.00582924 0)
(18.1289 0.0261748 0)
(18.1083 0.0423593 0)
(17.9654 0.216825 0)
(18.7873 0.0198878 0)
(18.8225 0.033619 0)
(18.87 0.039104 0)
(18.9217 0.0441262 0)
(18.9761 0.0472183 0)
(19.0321 0.0480941 0)
(19.0884 0.0478239 0)
(19.144 0.0464828 0)
(19.1972 0.0442435 0)
(19.2464 0.041745 0)
(19.2927 0.0392584 0)
(19.3352 0.036669 0)
(19.3746 0.0342058 0)
(19.4107 0.0320455 0)
(19.444 0.0303225 0)
(19.4743 0.0287892 0)
(19.5023 0.0278913 0)
(19.5283 0.0275952 0)
(19.5534 0.027445 0)
(19.5741 0.0270405 0)
(19.5944 0.026191 0)
(19.6072 0.0254458 0)
(19.6168 0.024938 0)
(19.621 0.0246718 0)
(19.6193 0.0245613 0)
(19.6112 0.0245969 0)
(19.5945 0.0247735 0)
(19.567 0.0248283 0)
(19.5289 0.0240328 0)
(19.4833 0.0218626 0)
(19.4336 0.01849 0)
(19.3873 0.014563 0)
(19.3488 0.0106353 0)
(19.3196 0.00708794 0)
(19.2991 0.00412289 0)
(19.286 0.00182396 0)
(19.2785 0.000242955 0)
(19.2749 -0.000616297 0)
(19.2737 -0.0011272 0)
(19.274 -0.00157847 0)
(19.276 -0.00186512 0)
(19.2786 -0.00192441 0)
(19.2811 -0.00182389 0)
(19.2831 -0.00168892 0)
(19.2847 -0.00157339 0)
(19.2858 -0.0014823 0)
(19.2867 -0.00141386 0)
(19.2872 -0.0013645 0)
(19.2876 -0.00133003 0)
(19.2879 -0.00130682 0)
(19.2881 -0.00129143 0)
(19.2882 -0.00128179 0)
(19.2882 -0.00127571 0)
(19.2883 -0.00127171 0)
(19.2883 -0.0012697 0)
(19.2883 -0.00126868 0)
(19.2883 -0.00126696 0)
(19.2883 -0.00126874 0)
(19.2882 -0.00126494 0)
(19.2884 -0.00127014 0)
(19.2881 -0.00126233 0)
(19.2886 -0.00127297 0)
(19.2879 -0.00125859 0)
(19.2889 -0.00127683 0)
(19.2875 -0.00125379 0)
(19.2895 -0.0012809 0)
(19.2868 -0.001248 0)
(19.2902 -0.00128517 0)
(19.2861 -0.00123913 0)
(19.2911 -0.00129108 0)
(19.2851 -0.00122397 0)
(19.2922 -0.00129477 0)
(19.2838 -0.00120909 0)
(19.2937 -0.00127592 0)
(19.2825 -0.00124205 0)
(19.2945 -0.00120905 0)
(19.283 -0.00130112 0)
(19.2933 -0.00112494 0)
(19.2871 -0.00146058 0)
(19.2859 -0.00103259 0)
(19.2975 -0.00137909 0)
(19.2778 -0.00114999 0)
(19.3007 -0.00101627 0)
(19.2782 -0.00144708 0)
(19.2977 -0.000970433 0)
(19.2923 -0.00174815 0)
(19.2776 -0.000638566 0)
(19.3147 -0.00109108 0)
(19.269 -0.000944139 0)
(19.3204 -0.000529264 0)
(19.2761 -0.00124006 0)
(19.3193 -0.000388376 0)
(19.2927 -0.000893001 0)
(19.3114 0.000773423 0)
(19.328 -3.68276e-05 0)
(19.277 0.00377912 0)
(19.3454 0.0071726 0)
(19.2466 0.0332492 0)
(19.2826 0.055399 0)
(19.109 0.231622 0)
(18.7859 0.016107 0)
(18.8197 0.0285684 0)
(18.8667 0.0330888 0)
(18.9184 0.0374831 0)
(18.9725 0.0403056 0)
(19.0285 0.0410781 0)
(19.085 0.0407611 0)
(19.1413 0.0394955 0)
(19.1946 0.0376415 0)
(19.2443 0.0355112 0)
(19.2918 0.0333271 0)
(19.3363 0.0311471 0)
(19.3775 0.0291242 0)
(19.4162 0.0274146 0)
(19.453 0.0259679 0)
(19.4876 0.0249359 0)
(19.5208 0.0243948 0)
(19.5536 0.0242449 0)
(19.5863 0.0241966 0)
(19.6187 0.0238066 0)
(19.6503 0.0231378 0)
(19.6799 0.0225618 0)
(19.7081 0.0221566 0)
(19.7352 0.0219181 0)
(19.7614 0.0218734 0)
(19.7872 0.0221589 0)
(19.8129 0.0228487 0)
(19.8377 0.0236601 0)
(19.8595 0.0237008 0)
(19.8767 0.0224147 0)
(19.889 0.019912 0)
(19.8972 0.0164485 0)
(19.9025 0.0125489 0)
(19.906 0.00879538 0)
(19.9085 0.00559361 0)
(19.9106 0.00312377 0)
(19.9124 0.00135942 0)
(19.9141 0.000118565 0)
(19.9159 -0.000785769 0)
(19.918 -0.00142287 0)
(19.9205 -0.00181395 0)
(19.9231 -0.00188205 0)
(19.9255 -0.00171155 0)
(19.9276 -0.00148622 0)
(19.9292 -0.0012811 0)
(19.9305 -0.00110783 0)
(19.9315 -0.000969232 0)
(19.9321 -0.000863716 0)
(19.9326 -0.000786924 0)
(19.9329 -0.000733018 0)
(19.9332 -0.000696797 0)
(19.9333 -0.000672656 0)
(19.9334 -0.000658016 0)
(19.9334 -0.000647882 0)
(19.9335 -0.000642664 0)
(19.9335 -0.000638798 0)
(19.9335 -0.000637385 0)
(19.9335 -0.000636304 0)
(19.9335 -0.000635513 0)
(19.9336 -0.000635226 0)
(19.9334 -0.000635012 0)
(19.9337 -0.000634645 0)
(19.9333 -0.000635209 0)
(19.9338 -0.000633763 0)
(19.9331 -0.000635787 0)
(19.9341 -0.000632236 0)
(19.9328 -0.00063617 0)
(19.9344 -0.000630347 0)
(19.9324 -0.000635784 0)
(19.935 -0.000627665 0)
(19.9319 -0.000634948 0)
(19.9358 -0.00061996 0)
(19.9312 -0.000635036 0)
(19.9367 -0.00060275 0)
(19.931 -0.000645759 0)
(19.9369 -0.000573699 0)
(19.9319 -0.00066508 0)
(19.9352 -0.000579639 0)
(19.9354 -0.000619585 0)
(19.9302 -0.000717016 0)
(19.94 -0.000507456 0)
(19.9284 -0.000496096 0)
(19.9417 -0.000374234 0)
(19.931 -0.00069878 0)
(19.938 -0.000519423 0)
(19.9376 -0.000240551 0)
(19.9297 -0.000713069 0)
(19.9456 -0.000208401 0)
(19.9299 -0.000263673 0)
(19.9494 7.27862e-05 0)
(19.9359 -0.000544951 0)
(19.9479 -0.000124075 0)
(19.9396 0.000510893 0)
(19.9418 0.000387025 0)
(19.9515 0.00259839 0)
(19.9274 0.00529404 0)
(19.9426 0.0100491 0)
(19.9042 0.0297051 0)
(19.8991 0.0703851 0)
(19.7728 0.246931 0)
(18.7853 0.0126393 0)
(18.8173 0.0229712 0)
(18.8638 0.0265367 0)
(18.9153 0.0300947 0)
(18.9692 0.0324485 0)
(19.025 0.0330635 0)
(19.0814 0.0327531 0)
(19.1375 0.0317331 0)
(19.1907 0.0302858 0)
(19.2408 0.0285497 0)
(19.2883 0.026745 0)
(19.3329 0.0250085 0)
(19.3744 0.0234133 0)
(19.4133 0.022028 0)
(19.4503 0.020834 0)
(19.4857 0.0200151 0)
(19.5198 0.0195354 0)
(19.5533 0.0193352 0)
(19.5869 0.0192078 0)
(19.6205 0.0188414 0)
(19.6531 0.0183023 0)
(19.6848 0.0178794 0)
(19.7154 0.0175763 0)
(19.7455 0.0174348 0)
(19.7756 0.0174603 0)
(19.8058 0.0176778 0)
(19.8366 0.0181691 0)
(19.8686 0.0188477 0)
(19.9014 0.0190987 0)
(19.9326 0.0182899 0)
(19.9606 0.0162682 0)
(19.9842 0.0132964 0)
(20.0029 0.00994294 0)
(20.0169 0.00672525 0)
(20.0269 0.00393687 0)
(20.0337 0.00171275 0)
(20.0379 0.00010749 0)
(20.0403 -0.000902762 0)
(20.0415 -0.00152502 0)
(20.0422 -0.00202983 0)
(20.0428 -0.00238097 0)
(20.0434 -0.00243928 0)
(20.044 -0.0022546 0)
(20.0447 -0.00201025 0)
(20.0453 -0.00179235 0)
(20.0457 -0.00161335 0)
(20.0461 -0.00147348 0)
(20.0464 -0.00136846 0)
(20.0467 -0.00129238 0)
(20.0468 -0.00123886 0)
(20.0469 -0.00120249 0)
(20.047 -0.00117818 0)
(20.047 -0.00116274 0)
(20.0471 -0.00115274 0)
(20.0471 -0.00114672 0)
(20.0471 -0.00114254 0)
(20.0471 -0.00114153 0)
(20.0471 -0.00113869 0)
(20.0471 -0.00114052 0)
(20.0471 -0.00113633 0)
(20.0471 -0.00114163 0)
(20.0471 -0.00113365 0)
(20.0471 -0.00114431 0)
(20.0471 -0.00113021 0)
(20.0471 -0.00114795 0)
(20.0471 -0.00112632 0)
(20.0471 -0.00115188 0)
(20.0472 -0.00112233 0)
(20.0471 -0.00115622 0)
(20.0472 -0.00111708 0)
(20.047 -0.00116164 0)
(20.0473 -0.00111075 0)
(20.0469 -0.00116264 0)
(20.0474 -0.0011176 0)
(20.0469 -0.00115135 0)
(20.0475 -0.00114346 0)
(20.047 -0.0011147 0)
(20.0473 -0.00122885 0)
(20.0474 -0.000951878 0)
(20.0469 -0.00133507 0)
(20.0477 -0.00104994 0)
(20.0467 -0.00112587 0)
(20.0481 -0.00111871 0)
(20.0472 -0.00115841 0)
(20.0474 -0.00144973 0)
(20.0479 -0.00066718 0)
(20.0471 -0.00143272 0)
(20.0482 -0.000995996 0)
(20.0473 -0.00120639 0)
(20.0485 -0.00111245 0)
(20.048 -0.00118687 0)
(20.0486 -0.000991214 0)
(20.0477 -0.000103281 0)
(20.0485 -0.000541547 0)
(20.0472 0.00226109 0)
(20.0456 0.00441544 0)
(20.0418 0.0110026 0)
(20.0287 0.0339411 0)
(20.012 0.0812936 0)
(19.976 0.249675 0)
(18.7848 0.00896825 0)
(18.8153 0.0167319 0)
(18.8613 0.0193432 0)
(18.9128 0.02197 0)
(18.9664 0.0237566 0)
(19.0221 0.0242145 0)
(19.0784 0.0239747 0)
(19.1343 0.0232453 0)
(19.1874 0.0222066 0)
(19.2376 0.0209199 0)
(19.2851 0.0195691 0)
(19.3295 0.0183039 0)
(19.3711 0.0171445 0)
(19.4102 0.0160954 0)
(19.4473 0.0151674 0)
(19.4827 0.0145472 0)
(19.5168 0.0141947 0)
(19.5503 0.0140398 0)
(19.5841 0.0139308 0)
(19.6176 0.0136777 0)
(19.6503 0.0133133 0)
(19.6821 0.0130412 0)
(19.7131 0.0128677 0)
(19.7438 0.0127879 0)
(19.7743 0.0127894 0)
(19.805 0.0129353 0)
(19.8363 0.0133085 0)
(19.8688 0.0138383 0)
(19.9024 0.0140773 0)
(19.9351 0.013513 0)
(19.9651 0.0120242 0)
(19.9907 0.0098409 0)
(20.0111 0.00735244 0)
(20.0262 0.00493279 0)
(20.0366 0.00284881 0)
(20.0431 0.00125357 0)
(20.0467 0.000198604 0)
(20.0483 -0.000545745 0)
(20.0487 -0.00110415 0)
(20.0484 -0.00168066 0)
(20.0475 -0.00208437 0)
(20.0463 -0.00217536 0)
(20.0453 -0.00202261 0)
(20.0445 -0.00179663 0)
(20.0439 -0.00156912 0)
(20.0435 -0.00136249 0)
(20.0432 -0.00118792 0)
(20.043 -0.00104895 0)
(20.0429 -0.000943849 0)
(20.0429 -0.000867552 0)
(20.0428 -0.000814593 0)
(20.0428 -0.000778455 0)
(20.0428 -0.00075554 0)
(20.0428 -0.000740083 0)
(20.0428 -0.000731285 0)
(20.0428 -0.00072501 0)
(20.0428 -0.000722957 0)
(20.0428 -0.00071954 0)
(20.0428 -0.000720708 0)
(20.0428 -0.000716915 0)
(20.0428 -0.000721128 0)
(20.0428 -0.0007145 0)
(20.0428 -0.000723092 0)
(20.0428 -0.000711631 0)
(20.0428 -0.00072592 0)
(20.0428 -0.000708254 0)
(20.0428 -0.000729203 0)
(20.0428 -0.000704149 0)
(20.0428 -0.000733405 0)
(20.0428 -0.000698106 0)
(20.0428 -0.000739069 0)
(20.0428 -0.000690844 0)
(20.0428 -0.000740534 0)
(20.0428 -0.0006947 0)
(20.0428 -0.000728319 0)
(20.0428 -0.000719188 0)
(20.0428 -0.000667366 0)
(20.0428 -0.000795174 0)
(20.0428 -0.000545391 0)
(20.0429 -0.000875565 0)
(20.0428 -0.000600949 0)
(20.0428 -0.000700046 0)
(20.0429 -0.000663961 0)
(20.0429 -0.000626489 0)
(20.0428 -0.000884492 0)
(20.0429 -0.000274928 0)
(20.0431 -0.00088918 0)
(20.0429 -0.00051438 0)
(20.043 -0.00058066 0)
(20.0431 -0.000447878 0)
(20.0431 -0.00047407 0)
(20.043 -0.00029998 0)
(20.0432 0.000413417 0)
(20.0431 0.000442631 0)
(20.0426 0.0027944 0)
(20.042 0.00559041 0)
(20.0383 0.0128329 0)
(20.0313 0.0362785 0)
(20.0218 0.0882595 0)
(20.0288 0.242116 0)
(18.7845 0.00519429 0)
(18.8139 0.00987091 0)
(18.8595 0.0114471 0)
(18.9109 0.0130595 0)
(18.9645 0.0141722 0)
(19.0199 0.0144595 0)
(19.076 0.0143096 0)
(19.1318 0.0138525 0)
(19.1849 0.0132176 0)
(19.2353 0.0124287 0)
(19.2827 0.011596 0)
(19.327 0.010828 0)
(19.3687 0.0101192 0)
(19.4079 0.0094528 0)
(19.445 0.00885483 0)
(19.4803 0.00849728 0)
(19.5144 0.0083136 0)
(19.5482 0.00820649 0)
(19.5819 0.00811049 0)
(19.6153 0.00795023 0)
(19.6479 0.00772726 0)
(19.6797 0.00756527 0)
(19.7108 0.00746847 0)
(19.7416 0.00741184 0)
(19.7722 0.0074078 0)
(19.8029 0.00749339 0)
(19.8342 0.00769844 0)
(19.8665 0.00800658 0)
(19.9 0.00818905 0)
(19.933 0.00791576 0)
(19.9634 0.00706808 0)
(19.9895 0.00574886 0)
(20.0102 0.00418272 0)
(20.0253 0.00262166 0)
(20.0354 0.00124626 0)
(20.0414 0.000141383 0)
(20.0445 -0.000624258 0)
(20.0455 -0.00107596 0)
(20.0454 -0.00142414 0)
(20.0441 -0.0017264 0)
(20.042 -0.00189902 0)
(20.0394 -0.00189323 0)
(20.0371 -0.00175396 0)
(20.0352 -0.0015911 0)
(20.0337 -0.00144902 0)
(20.0326 -0.00133572 0)
(20.0318 -0.0012488 0)
(20.0312 -0.00118374 0)
(20.0309 -0.00113622 0)
(20.0306 -0.00110227 0)
(20.0305 -0.00107873 0)
(20.0303 -0.00106258 0)
(20.0303 -0.00105214 0)
(20.0303 -0.001045 0)
(20.0302 -0.00104077 0)
(20.0302 -0.00103779 0)
(20.0302 -0.00103675 0)
(20.0302 -0.00103501 0)
(20.0302 -0.00103581 0)
(20.0302 -0.00103336 0)
(20.0302 -0.00103623 0)
(20.0302 -0.00103188 0)
(20.0302 -0.00103756 0)
(20.0302 -0.00103002 0)
(20.0302 -0.00103938 0)
(20.0302 -0.00102783 0)
(20.0302 -0.00104147 0)
(20.0302 -0.00102516 0)
(20.0302 -0.00104423 0)
(20.0302 -0.00102119 0)
(20.0302 -0.001048 0)
(20.0302 -0.00101649 0)
(20.0302 -0.00104873 0)
(20.0302 -0.00102018 0)
(20.0302 -0.00103921 0)
(20.0302 -0.00103731 0)
(20.0302 -0.00100118 0)
(20.0302 -0.0010864 0)
(20.0302 -0.000914449 0)
(20.0303 -0.00115208 0)
(20.0302 -0.000975289 0)
(20.0303 -0.00100434 0)
(20.0303 -0.00100356 0)
(20.0303 -0.000983751 0)
(20.0302 -0.00117371 0)
(20.0303 -0.000742241 0)
(20.0304 -0.00117699 0)
(20.0303 -0.000956113 0)
(20.0304 -0.000947763 0)
(20.0305 -0.0009056 0)
(20.0305 -0.000909126 0)
(20.0304 -0.000769833 0)
(20.0307 -9.14588e-05 0)
(20.0306 -2.13137e-05 0)
(20.0305 0.00217935 0)
(20.0303 0.00540527 0)
(20.0283 0.0133046 0)
(20.0255 0.0369595 0)
(20.026 0.0904422 0)
(20.0563 0.228799 0)
(18.7843 0.00123048 0)
(18.8132 0.00228409 0)
(18.8587 0.00271664 0)
(18.91 0.00324046 0)
(18.9634 0.00357607 0)
(19.0188 0.0036582 0)
(19.0751 0.00361483 0)
(19.1307 0.00345936 0)
(19.1838 0.00326736 0)
(19.2342 0.00302569 0)
(19.2816 0.00277915 0)
(19.3258 0.00257196 0)
(19.3674 0.0023578 0)
(19.4067 0.00213312 0)
(19.4436 0.00191583 0)
(19.4788 0.00181569 0)
(19.5132 0.0017617 0)
(19.5472 0.00170001 0)
(19.5809 0.00164775 0)
(19.6143 0.00160651 0)
(19.6469 0.00154785 0)
(19.6786 0.00151869 0)
(19.7097 0.00151334 0)
(19.7404 0.00150559 0)
(19.7711 0.00152239 0)
(19.802 0.00155464 0)
(19.8333 0.00160599 0)
(19.8655 0.00172897 0)
(19.8987 0.00186865 0)
(19.9318 0.00187177 0)
(19.9624 0.00166708 0)
(19.9887 0.00127534 0)
(20.0095 0.000776857 0)
(20.0246 0.000276928 0)
(20.0345 -0.000148931 0)
(20.0402 -0.000470779 0)
(20.0428 -0.000695485 0)
(20.0434 -0.000829967 0)
(20.043 -0.00102036 0)
(20.0411 -0.00122861 0)
(20.0382 -0.00140548 0)
(20.0348 -0.00148514 0)
(20.0316 -0.00146519 0)
(20.029 -0.00139556 0)
(20.0269 -0.00130068 0)
(20.0254 -0.00120203 0)
(20.0242 -0.00111266 0)
(20.0234 -0.00103859 0)
(20.0229 -0.000981056 0)
(20.0225 -0.000938498 0)
(20.0222 -0.000908433 0)
(20.0221 -0.000887749 0)
(20.022 -0.000874329 0)
(20.0219 -0.000865393 0)
(20.0219 -0.000860064 0)
(20.0219 -0.000856484 0)
(20.0219 -0.000855012 0)
(20.0219 -0.000853296 0)
(20.0219 -0.000853609 0)
(20.0219 -0.000851813 0)
(20.0219 -0.00085358 0)
(20.0219 -0.000850681 0)
(20.0219 -0.000854337 0)
(20.0219 -0.000849461 0)
(20.0219 -0.000855418 0)
(20.0219 -0.000848088 0)
(20.0219 -0.000856619 0)
(20.0219 -0.000846421 0)
(20.0219 -0.000858244 0)
(20.0219 -0.0008438 0)
(20.0219 -0.000860447 0)
(20.0219 -0.000840588 0)
(20.0219 -0.000860479 0)
(20.0219 -0.000843002 0)
(20.0219 -0.000853579 0)
(20.0219 -0.000854249 0)
(20.0219 -0.000825937 0)
(20.0219 -0.000885805 0)
(20.0219 -0.000768244 0)
(20.0219 -0.000925915 0)
(20.0219 -0.000811794 0)
(20.0219 -0.000811334 0)
(20.0219 -0.000825135 0)
(20.022 -0.000806637 0)
(20.0219 -0.000941934 0)
(20.022 -0.000622083 0)
(20.0221 -0.000911558 0)
(20.022 -0.000770772 0)
(20.022 -0.000725075 0)
(20.0222 -0.000697706 0)
(20.0222 -0.000662477 0)
(20.0222 -0.000521851 0)
(20.0224 0.00013065 0)
(20.0225 0.000432986 0)
(20.0226 0.00239931 0)
(20.0231 0.00584935 0)
(20.023 0.014078 0)
(20.0246 0.0372995 0)
(20.0349 0.0896218 0)
(20.0832 0.210891 0)
(18.7843 -0.00287514 0)
(18.8134 -0.0056935 0)
(18.8589 -0.00645412 0)
(18.9103 -0.00705522 0)
(18.9637 -0.00754638 0)
(19.0191 -0.00769832 0)
(19.0754 -0.00763166 0)
(19.1311 -0.00746084 0)
(19.1842 -0.00717338 0)
(19.2344 -0.00683428 0)
(19.2817 -0.00647316 0)
(19.3261 -0.00610814 0)
(19.3679 -0.00580474 0)
(19.4071 -0.00554642 0)
(19.444 -0.0053694 0)
(19.4792 -0.00523077 0)
(19.5136 -0.00517018 0)
(19.5475 -0.00516153 0)
(19.5813 -0.00514165 0)
(19.6147 -0.00505863 0)
(19.6473 -0.00495266 0)
(19.679 -0.00482881 0)
(19.71 -0.00472319 0)
(19.7408 -0.00469764 0)
(19.7715 -0.00470305 0)
(19.8023 -0.00474174 0)
(19.8336 -0.00482213 0)
(19.8658 -0.00487432 0)
(19.899 -0.0048182 0)
(19.9321 -0.00458874 0)
(19.9627 -0.00413844 0)
(19.989 -0.00352689 0)
(20.0099 -0.00287274 0)
(20.0249 -0.00226965 0)
(20.0348 -0.00177356 0)
(20.0404 -0.00140214 0)
(20.043 -0.00114939 0)
(20.0437 -0.000993448 0)
(20.0432 -0.000784163 0)
(20.0413 -0.00057739 0)
(20.0384 -0.00041874 0)
(20.0349 -0.000352266 0)
(20.0317 -0.000369502 0)
(20.0291 -0.000440977 0)
(20.0271 -0.000526044 0)
(20.0255 -0.000608956 0)
(20.0243 -0.000680878 0)
(20.0235 -0.000738606 0)
(20.023 -0.000782345 0)
(20.0226 -0.000813853 0)
(20.0223 -0.000835653 0)
(20.0222 -0.000850032 0)
(20.0221 -0.000859404 0)
(20.022 -0.000865029 0)
(20.022 -0.000868546 0)
(20.022 -0.000870431 0)
(20.022 -0.00087191 0)
(20.0219 -0.000872229 0)
(20.0219 -0.000873188 0)
(20.0219 -0.000872464 0)
(20.0219 -0.000873784 0)
(20.0219 -0.00087213 0)
(20.0219 -0.000874463 0)
(20.0219 -0.000871496 0)
(20.0219 -0.000875156 0)
(20.0219 -0.000870668 0)
(20.0219 -0.000875832 0)
(20.0219 -0.000869637 0)
(20.0219 -0.000876744 0)
(20.0219 -0.000868006 0)
(20.0219 -0.000877913 0)
(20.0219 -0.000866035 0)
(20.0219 -0.000877578 0)
(20.0219 -0.000867902 0)
(20.022 -0.000872704 0)
(20.0219 -0.00087529 0)
(20.022 -0.000853712 0)
(20.022 -0.000894702 0)
(20.022 -0.000815282 0)
(20.022 -0.000920925 0)
(20.022 -0.00084989 0)
(20.022 -0.00083605 0)
(20.022 -0.000854806 0)
(20.022 -0.000838409 0)
(20.022 -0.000936733 0)
(20.022 -0.000705396 0)
(20.0221 -0.000910824 0)
(20.0221 -0.000825825 0)
(20.0221 -0.000772022 0)
(20.0222 -0.000760239 0)
(20.0223 -0.000709945 0)
(20.0223 -0.000594026 0)
(20.0225 -9.49376e-05 0)
(20.0228 0.000298117 0)
(20.0232 0.00213102 0)
(20.0243 0.005666 0)
(20.0262 0.0138723 0)
(20.0321 0.0359851 0)
(20.0511 0.0849677 0)
(20.113 0.189007 0)
(18.7846 -0.0068997 0)
(18.8145 -0.0133087 0)
(18.8604 -0.0151851 0)
(18.9118 -0.0168773 0)
(18.9653 -0.0181475 0)
(19.0208 -0.0185122 0)
(19.0771 -0.0183415 0)
(19.1328 -0.0178714 0)
(19.186 -0.0171196 0)
(19.2363 -0.0162113 0)
(19.2835 -0.0152755 0)
(19.328 -0.0143831 0)
(19.3697 -0.013587 0)
(19.4089 -0.0128561 0)
(19.4458 -0.0122982 0)
(19.481 -0.011908 0)
(19.5153 -0.0117276 0)
(19.5492 -0.0116756 0)
(19.5831 -0.01161 0)
(19.6165 -0.011398 0)
(19.649 -0.0111318 0)
(19.6807 -0.0108837 0)
(19.7119 -0.010682 0)
(19.7425 -0.0106017 0)
(19.773 -0.0106025 0)
(19.8037 -0.0107171 0)
(19.8351 -0.0109545 0)
(19.8674 -0.0111872 0)
(19.9009 -0.011174 0)
(19.9339 -0.0106757 0)
(19.9643 -0.00958858 0)
(19.9904 -0.00804863 0)
(20.0111 -0.00632382 0)
(20.0262 -0.00466531 0)
(20.0364 -0.00325079 0)
(20.0424 -0.00217085 0)
(20.0454 -0.00144391 0)
(20.0464 -0.0010159 0)
(20.0462 -0.00070712 0)
(20.045 -0.000467819 0)
(20.0428 -0.000314937 0)
(20.0401 -0.00033803 0)
(20.0377 -0.000492114 0)
(20.0357 -0.000624336 0)
(20.0341 -0.000727578 0)
(20.033 -0.000807866 0)
(20.0321 -0.000869488 0)
(20.0315 -0.000915336 0)
(20.0311 -0.000948376 0)
(20.0309 -0.000971467 0)
(20.0307 -0.000987177 0)
(20.0306 -0.000997519 0)
(20.0305 -0.00100426 0)
(20.0305 -0.00100839 0)
(20.0305 -0.00101095 0)
(20.0304 -0.00101245 0)
(20.0304 -0.0010135 0)
(20.0304 -0.00101389 0)
(20.0304 -0.00101453 0)
(20.0304 -0.00101413 0)
(20.0304 -0.00101495 0)
(20.0304 -0.0010139 0)
(20.0304 -0.00101536 0)
(20.0304 -0.00101349 0)
(20.0304 -0.00101579 0)
(20.0304 -0.00101297 0)
(20.0304 -0.00101618 0)
(20.0304 -0.0010123 0)
(20.0304 -0.0010167 0)
(20.0304 -0.00101124 0)
(20.0304 -0.00101731 0)
(20.0304 -0.00100994 0)
(20.0304 -0.00101681 0)
(20.0304 -0.0010113 0)
(20.0304 -0.00101306 0)
(20.0304 -0.00101639 0)
(20.0304 -0.000999139 0)
(20.0304 -0.00102887 0)
(20.0305 -0.000972378 0)
(20.0305 -0.00104635 0)
(20.0304 -0.000999188 0)
(20.0305 -0.000981276 0)
(20.0305 -0.000998583 0)
(20.0305 -0.000982897 0)
(20.0305 -0.00106124 0)
(20.0305 -0.000879876 0)
(20.0306 -0.00103778 0)
(20.0306 -0.00096884 0)
(20.0306 -0.000919627 0)
(20.0307 -0.000914081 0)
(20.0308 -0.000839928 0)
(20.0309 -0.00075703 0)
(20.0311 -0.000176765 0)
(20.0315 0.000190365 0)
(20.0322 0.00182466 0)
(20.0339 0.00522035 0)
(20.0375 0.0130753 0)
(20.047 0.0335506 0)
(20.073 0.0779561 0)
(20.1444 0.166361 0)
(18.785 -0.0107881 0)
(18.8162 -0.0202323 0)
(18.8626 -0.0230943 0)
(18.9141 -0.0258008 0)
(18.9678 -0.0277373 0)
(19.0235 -0.0282746 0)
(19.0798 -0.0280108 0)
(19.1357 -0.0272717 0)
(19.1889 -0.0261014 0)
(19.2391 -0.0247015 0)
(19.2865 -0.0232619 0)
(19.3309 -0.0218805 0)
(19.3726 -0.0206282 0)
(19.4117 -0.0194753 0)
(19.4487 -0.0185852 0)
(19.484 -0.0179508 0)
(19.5182 -0.0176379 0)
(19.5519 -0.0175373 0)
(19.5857 -0.0174304 0)
(19.6193 -0.0170933 0)
(19.652 -0.0166751 0)
(19.6838 -0.0163081 0)
(19.7148 -0.0160174 0)
(19.7454 -0.0158981 0)
(19.7759 -0.0158968 0)
(19.8065 -0.0160808 0)
(19.8378 -0.0164939 0)
(19.8703 -0.0169464 0)
(19.9039 -0.0169776 0)
(19.9366 -0.0161733 0)
(19.9666 -0.0144403 0)
(19.9922 -0.0120485 0)
(20.0125 -0.00941435 0)
(20.0275 -0.00688434 0)
(20.0378 -0.00470177 0)
(20.0443 -0.00300018 0)
(20.0478 -0.00180454 0)
(20.0494 -0.00102307 0)
(20.0498 -0.000419391 0)
(20.0494 0.000181186 0)
(20.0484 0.000570926 0)
(20.0472 0.000662877 0)
(20.046 0.000504957 0)
(20.0451 0.000277372 0)
(20.0444 4.54551e-05 0)