/*--------------------------------*- C++ -*----------------------------------*\
| =========                 |                                                 |
| \\      /  F ield         | OpenFOAM: The Open Source CFD Toolbox           |
|  \\    /   O peration     | Version:  v2012                                 |
|   \\  /    A nd           | Website:  www.openfoam.com                      |
|    \\/     M anipulation  |                                                 |
\*---------------------------------------------------------------------------*/
FoamFile
{
    version     2.0;
    format      ascii;
    class       Cloud<basicKinematicParcel>;
    location    "0.053/lagrangian/kinematicCloud";
    object      coordinates;
}
// * * * * * * * * * * * * * * * * * * * * * * * * * * * * * * * * * * * * * //

56
(
(0.632718 0.110392 0.183641 0.0732494) 207 501 1
(0.257416 0.362198 0.0090946 0.371292) 507 902 2
(0.0894041 0.455298 0.00947823 0.44582) 707 1300 1
(0.394968 0.170806 0.302516 0.131711) 306 698 1
(0.137961 0.13175 0.43102 0.299269) 805 1694 2
(0.517685 0.0191002 0.241158 0.222057) 705 1492 1
(0.800219 0.0998906 0.000790312 0.0991003) 100 19 2
(0.352803 0.323598 0.037897 0.285701) 904 1888 2
(0.330905 0.228831 0.334547 0.105716) 903 1889 2
(0.163267 0.316957 0.418367 0.10141) 403 891 1
(0.0833158 0.458342 0.285601 0.172741) 402 891 2
(0.174661 0.41267 0.394773 0.0178963) 302 494 1
(0.0935884 0.0315829 0.453206 0.421623) 91 7619 2
(0.0445976 0.206484 0.271217 0.477701) 1 7501 1
(0.777387 0.0371238 0.0741827 0.111307) 96 186 1
(0.675588 0.0189112 0.143295 0.162206) 500 1086 1
(0.027566 0.486217 0.224881 0.261336) 100 191 1
(0.26176 0.255653 0.113467 0.36912) 99 178 2
(0.453294 0.0444119 0.273353 0.228941) 19 36 1
(0.464949 0.267525 0.259109 0.00841666) 89 176 2
(0.627301 0.0367135 0.149636 0.186349) 78 137 2
(0.437486 0.103033 0.178224 0.281257) 93 183 1
(0.685932 0.0696642 0.157034 0.0873697) 77 155 2
(0.036796 0.481602 0.191859 0.289743) 17 32 2
(0.190008 0.404996 0.123807 0.28119) 36 72 2
(0.720501 0.139749 0.0352124 0.104537) 76 153 1
(0.0127691 0.493615 0.0569253 0.43669) 16 30 2
(0.078983 0.460508 0.373992 0.086516) 86 170 2
(0.858416 0.0177329 0.0530589 0.0707918) 3 7503 1
(0.671814 0.0986983 0.164093 0.0653946) 85 171 2
(0.128805 0.435598 0.0643113 0.371286) 1 7501 2
(0.467939 0.266031 0.128357 0.137673) 4 9 1
(0.0799366 0.248029 0.212003 0.460032) 91 181 1
(0.202583 0.301613 0.0970953 0.398709) 53 106 1
(0.293427 0.353286 0.0101841 0.343102) 23 46 2
(0.209045 0.249219 0.395477 0.146258) 63 127 2
(0.368847 0.315577 0.256818 0.0587589) 33 67 1
(0.11587 0.118903 0.442065 0.323162) 33 64 1
(0.059005 0.275416 0.470498 0.195082) 62 125 2
(0.195136 0.402432 0.262378 0.140054) 1 0 2
(0.563096 0.0523356 0.218452 0.166116) 22 42 1
(0.117819 0.395117 0.0459733 0.44109) 61 122 1
(0.622314 0.016086 0.172757 0.188843) 11 3 2
(0.0209924 0.412889 0.489504 0.0766146) 11 23 2
(0.0454829 0.477259 0.162216 0.315043) 21 43 1
(0.145624 0.427188 0.0797105 0.347477) 61 103 1
(0.121227 0.439387 0.261338 0.178049) 80 160 2
(0.336453 0.323544 0.00822971 0.331773) 40 80 1
(0.126828 0.301237 0.436586 0.135349) 30 61 2
(0.215976 0.354792 0.392012 0.0372201) 70 141 2
(0.0216122 0.489194 0.0904494 0.398744) 0 1 1
(0.202905 0.398548 0.2795 0.119048) 30 41 1
(0.397181 0.30141 0.176763 0.124647) 80 161 1
(0.338985 0.330507 0.239975 0.090533) 0 7472 1
(0.259067 0.154964 0.370466 0.215502) 60 7478 2
(0.412431 0.293784 0.281152 0.0126319) 60 121 1
)


// ************************************************************************* //
