/*--------------------------------*- C++ -*----------------------------------*\
| =========                 |                                                 |
| \\      /  F ield         | OpenFOAM: The Open Source CFD Toolbox           |
|  \\    /   O peration     | Version:  v2012                                 |
|   \\  /    A nd           | Website:  www.openfoam.com                      |
|    \\/     M anipulation  |                                                 |
\*---------------------------------------------------------------------------*/
FoamFile
{
    version     2.0;
    format      ascii;
    class       Cloud<basicKinematicParcel>;
    location    "0.064/lagrangian/kinematicCloud";
    object      positions;
}
// * * * * * * * * * * * * * * * * * * * * * * * * * * * * * * * * * * * * * //

67
(
(0.192855 0.00441067 0.03) 213
(0.20543 0.0114971 0.03) 514
(0.200404 0.0165166 0.03) 714
(0.18778 0.0079864 0.03) 312
(0.186162 0.0214726 0.03) 912
(0.180042 0.0184945 0.03) 712
(0.103452 0.00199999 0.03) 103
(0.166973 0.0228968 0.03) 910
(0.159884 0.0238281 0.03) 909
(0.153027 0.0110902 0.03) 509
(0.15139 0.010417 0.03) 409
(0.142769 0.00720814 0.03) 308
(0.0170896 0.0265749 0.03) 92
(0.015862 5.95659e-05 0.03) 2
(0.06935 0.0255676 0.03) 1000
(0.12194 0.0133342 0.03) 505
(0.11279 0.00348015 0.03) 204
(0.108884 0.0244849 0.03) 1004
(0.104758 0.00540365 0.03) 304
(0.106223 0.0222036 0.03) 904
(0.100937 0.019779 0.03) 803
(0.04093 0.0258398 0.03) 96
(0.0912211 0.0205826 0.03) 802
(0.0854066 0.00371763 0.03) 201
(0.0849677 0.00883801 0.03) 401
(0.0812328 0.0204718 0.03) 801
(0.0765999 0.00395176 0.03) 201
(0.0771471 0.0217412 0.03) 901
(0.0431599 0.00114806 0.03) 6
(0.0727662 0.0231539 0.03) 900
(0.0117555 0.000172033 0.03) 1
(0.0595848 0.00205502 0.03) 8
(0.0247998 0.0259303 0.03) 93
(0.0570335 0.0149611 0.03) 58
(0.0566045 0.00577392 0.03) 28
(0.0542846 0.018423 0.03) 68
(0.0505172 0.0102005 0.03) 37
(0.0482034 0.0102191 0.03) 37
(0.0447292 0.0186169 0.03) 66
(0.0158433 0.000634679 0.03) 2
(0.0397938 0.00712341 0.03) 25
(0.036428 0.0174803 0.03) 65
(0.0335509 0.00350289 0.03) 15
(0.0318092 0.00531461 0.03) 14
(0.0291081 0.00795196 0.03) 24
(0.0267583 0.0162151 0.03) 64
(0.0242207 0.0222189 0.03) 83
(0.0223798 0.012039 0.03) 43
(0.0199387 0.010512 0.03) 32
(0.0181481 0.0210715 0.03) 72
(0.0161558 0.00264194 0.03) 2
(0.0148095 0.00828146 0.03) 32
(0.013269 0.0234991 0.03) 81
(0.00606544 0.000694548 0.03) 0
(0.00965157 0.0179304 0.03) 61
(0.00907084 0.0181394 0.03) 61
(0.0078855 0.0241212 0.03) 91
(0.0064928 0.0133615 0.03) 50
(0.00491696 0.0105345 0.03) 30
(0.00487925 0.0135572 0.03) 50
(0.00420078 0.0230354 0.03) 80
(0.00288687 0.0145244 0.03) 50
(0.00230194 0.0148779 0.03) 50
(0.00185416 0.0219011 0.03) 80
(0.00113129 0.0250369 0.03) 90
(0.000812548 0.0160365 0.03) 60
(0.00082318 0.00681836 0.03) 20
)


// ************************************************************************* //
