/*--------------------------------*- C++ -*----------------------------------*\
| =========                 |                                                 |
| \\      /  F ield         | OpenFOAM: The Open Source CFD Toolbox           |
|  \\    /   O peration     | Version:  v2012                                 |
|   \\  /    A nd           | Website:  www.openfoam.com                      |
|    \\/     M anipulation  |                                                 |
\*---------------------------------------------------------------------------*/
FoamFile
{
    version     2.0;
    format      ascii;
    class       vectorField;
    location    "0.064/lagrangian/kinematicCloud";
    object      UCorrect;
}
// * * * * * * * * * * * * * * * * * * * * * * * * * * * * * * * * * * * * * //


67
(
(0 0 0)
(0 0 0)
(-1.95898e-28 1.46594e-29 0)
(0 0 0)
(0 0 0)
(0 0 0)
(-2.09556e-25 -3.09459e-26 0)
(0 0 0)
(0 0 0)
(0 0 0)
(0 0 0)
(0 0 0)
(-9.49813e-28 1.21609e-31 0)
(1.82143e-07 1.70732e-11 0)
(0 0 0)
(-1.35697e-24 2.68787e-27 0)
(0 0 0)
(-1.27296e-24 -8.28858e-27 0)
(0 0 0)
(0 0 0)
(0 0 0)
(0 0 0)
(-1.0762e-24 -4.40975e-26 0)
(-1.49273e-09 -3.07169e-10 0)
(0 0 0)
(0 0 0)
(1.25638e-09 2.63346e-10 0)
(0 0 0)
(0 0 0)
(0 0 0)
(0 0 0)
(0 0 0)
(-9.48513e-26 7.10567e-30 0)
(0 0 0)
(-5.21941e-25 -9.91932e-27 0)
(0 0 0)
(-7.6829e-10 -5.42862e-12 0)
(5.36386e-10 3.20487e-12 0)
(0 0 0)
(3.80295e-08 8.62026e-12 0)
(0 0 0)
(0 0 0)
(0 0 0)
(5.52088e-10 -8.80657e-13 0)
(0 0 0)
(0 0 0)
(0 0 0)
(0 0 0)
(-7.01693e-09 -3.29729e-12 0)
(0 0 0)
(-2.23369e-07 -2.62454e-11 0)
(6.22342e-09 3.09337e-12 0)
(0 0 0)
(-1.84355e-26 -1.17436e-30 0)
(-9.20508e-10 -2.82507e-14 0)
(6.40754e-10 2.53476e-14 0)
(0 0 0)
(-3.91534e-08 -1.03007e-12 0)
(0 0 0)
(-1.17321e-08 -1.29844e-13 0)
(-7.9516e-09 1.25282e-12 0)
(1.59912e-08 1.24203e-12 0)
(2.99296e-08 3.55714e-13 0)
(7.0513e-09 -1.13266e-12 0)
(-3.15674e-26 5.96852e-31 0)
(0 0 0)
(-1.98487e-26 1.41488e-31 0)
)


// ************************************************************************* //
