/*--------------------------------*- C++ -*----------------------------------*\
| =========                 |                                                 |
| \\      /  F ield         | OpenFOAM: The Open Source CFD Toolbox           |
|  \\    /   O peration     | Version:  v2012                                 |
|   \\  /    A nd           | Website:  www.openfoam.com                      |
|    \\/     M anipulation  |                                                 |
\*---------------------------------------------------------------------------*/
FoamFile
{
    version     2.0;
    format      ascii;
    class       volScalarField;
    location    "0.102";
    object      epsilon.air;
}
// * * * * * * * * * * * * * * * * * * * * * * * * * * * * * * * * * * * * * //

dimensions      [0 2 -3 0 0 0 0];


internalField   nonuniform List<scalar> 
1900
(
112.724
141.424
210.097
257.591
369.051
443.457
614.739
724.909
971.325
1128.62
15.4676
16.4471
18.6376
20.45
23.7574
27.7269
32.004
39.2872
45.1207
56.7573
14.7926
14.6414
14.5755
14.5063
14.5148
14.5573
14.6409
14.8308
15.0774
15.4132
14.77
14.6304
14.4634
14.3354
14.1726
14.059
13.9039
13.808
13.6653
13.5938
14.7767
14.6215
14.4705
14.3204
14.1748
14.0289
13.889
13.7472
13.6139
13.477
14.7778
14.6205
14.4714
14.3196
14.1754
14.0283
13.8891
13.7472
13.6133
13.4774
14.7777
14.6206
14.4731
14.3234
14.1841
14.0449
13.9176
13.7913
13.6808
13.5715
14.7762
14.6497
14.564
14.5033
14.5108
14.5516
14.6369
14.8187
15.047
15.3936
15.2145
16.5972
18.2823
20.671
23.6029
27.5605
32.2786
38.3898
45.5816
54.7971
105.931
146.58
198.373
265.761
350.036
456.045
585.689
743.659
931.842
1154
4100.36
15197.1
19578.1
22449.9
21114.4
18016.2
15076.3
12779.2
11282.3
10368.8
9870.77
9699.32
9528.52
9262.15
8855.42
8355.41
7799.37
7211.61
6644.64
6126.16
5649.14
5222.35
4838.21
4487.41
4168.17
3878.78
3616.31
3378.74
3162.94
2966.99
2788.54
2625.59
2476.51
2339.78
2214.24
2098.72
1992.29
1894
1803.11
1718.86
1640.64
1567.87
1500.01
1436.63
1377.33
1321.73
1269.55
1220.48
1174.29
1130.73
1089.61
1050.72
1013.9
978.989
945.841
914.311
884.296
855.662
828.338
802.204
777.223
753.277
730.361
708.348
687.262
666.956
647.489
628.686
610.653
593.175
576.424
560.129
544.54
529.318
514.804
500.567
487.063
473.738
461.192
448.713
437.08
425.38
414.619
403.631
393.707
383.356
374.237
364.439
356.096
346.756
339.173
330.186
323.359
314.613
308.559
299.934
294.689
286.059
281.656
271.268
113.093
337.611
517.977
923.036
1125.96
1149.78
1121.41
1056.12
1049.49
1088.68
1193.72
1407.41
1695.41
2028.31
2379.39
2692.44
2970.63
3203.32
3358.34
3435.28
3427.6
3389.02
3303.46
3185.54
3057.08
2925.5
2794.45
2667.46
2543.77
2426.25
2314.02
2206.97
2105.6
2009.7
1919.38
1834.31
1754.41
1679.15
1608.33
1541.69
1478.95
1419.81
1364.03
1311.35
1261.58
1214.47
1169.86
1127.53
1087.36
1049.15
1012.79
978.147
945.104
913.551
883.398
854.539
826.902
800.39
774.954
750.502
727.015
704.401
682.672
661.723
641.594
622.16
603.493
585.434
568.098
551.285
535.163
519.481
504.476
489.831
475.868
462.183
449.203
436.411
424.366
412.405
401.251
390.057
379.755
369.261
359.776
349.908
341.208
331.886
323.942
315.076
307.871
299.36
292.887
284.625
278.898
270.769
265.819
257.702
253.563
243.813
16.4268
19.8633
22.8821
29.0963
34.8025
38.7393
41.6943
43.7326
46.6365
50.638
58.6451
70.8631
95.3901
130.24
189.418
267.386
373.595
508.817
666.132
837.258
1006.18
1164.66
1304.91
1421.83
1512.13
1574.66
1612.13
1628.51
1625.57
1614.44
1591.12
1560.89
1526.6
1489.56
1451.22
1411.67
1372.01
1331.73
1291.88
1252.71
1214.23
1176.67
1140.12
1104.68
1070.37
1037.13
1005.04
973.967
943.922
914.858
886.749
859.536
833.202
807.712
783.055
759.182
736.091
713.726
692.088
671.119
650.836
631.176
612.179
593.768
576.005
558.79
542.213
526.136
510.685
495.673
481.275
467.249
453.833
440.719
428.226
415.959
404.339
392.863
382.073
371.332
361.339
351.279
342.048
332.611
324.113
315.234
307.442
299.047
291.938
283.95
277.506
269.838
264.051
256.606
251.484
244.164
239.73
232.428
228.711
219.944
13.4531
13.4604
13.5461
13.8022
14.3344
15.0056
15.7204
16.3417
16.93
17.3472
17.898
18.3605
19.2895
20.5047
22.7099
26.2526
31.7227
40.7543
54.7237
76.1672
106.594
147.324
199.353
261.458
331.424
406.421
481.872
555.432
622.357
683.478
736.091
779.673
814.079
839.689
858.013
869.358
875.29
874.847
872.269
866.404
857.612
846.921
834.798
821.438
807.176
792.126
776.592
760.447
744.035
727.432
710.654
693.773
676.872
660.024
643.308
626.734
610.41
594.318
578.536
563.028
547.87
533.017
518.543
504.395
490.667
477.279
464.339
451.723
439.567
427.698
416.301
405.134
394.455
383.943
373.94
364.041
354.681
345.344
336.597
327.795
319.65
311.348
303.789
295.947
288.957
281.53
275.095
268.032
262.144
255.391
250.038
243.522
238.696
232.346
228.052
221.791
218.047
211.796
208.622
201.107
13.3297
13.1591
13.0622
13.1163
13.3049
13.7156
14.2881
14.9121
15.4561
15.8855
16.2119
16.4415
16.6108
16.7627
16.8916
17.0877
17.3269
17.7258
18.3241
19.301
20.8532
23.2434
26.8099
32.1661
39.8808
50.7421
65.2465
83.873
106.739
133.699
164.285
197.421
232.409
267.596
302.551
335.497
366.643
394.746
419.64
440.98
458.811
473.241
484.6
493.096
499.079
502.797
504.687
504.441
503.32
500.821
497.033
492.238
486.688
480.411
473.623
466.395
458.886
451.105
443.216
435.164
427.123
418.995
410.916
402.86
394.935
387.068
379.361
371.715
364.254
356.844
349.659
342.48
335.58
328.621
321.996
315.255
308.912
302.397
296.343
290.045
284.287
278.202
272.751
266.87
261.739
256.052
251.255
245.746
241.285
235.92
231.808
226.563
222.813
217.651
214.273
209.151
206.157
201.033
198.439
192.254
13.325
13.1544
13.0314
13.086
13.2953
13.7734
14.4977
15.4912
16.508
17.6087
18.5989
19.5203
20.254
20.8595
21.2851
21.5935
21.7684
21.8515
21.8398
21.7981
21.7086
21.6071
21.5341
21.5592
21.6675
21.9296
22.4827
23.3706
24.8831
27.047
30.3093
34.7047
40.722
48.2868
57.6723
68.8416
81.8534
96.4663
112.448
129.399
146.901
164.573
181.978
198.802
214.745
229.543
243.175
255.374
266.316
275.9
284.301
291.457
297.594
302.714
306.962
310.424
313.216
315.346
316.967
317.983
318.668
318.678
318.472
317.956
316.966
315.635
314.026
312.142
310.047
307.723
305.238
302.52
299.743
296.645
293.643
290.251
287.063
283.412
280.087
276.248
272.844
268.87
265.447
261.378
257.99
253.861
250.561
246.405
243.244
239.089
236.104
231.958
229.173
225.034
222.466
218.326
215.989
211.842
209.755
204.738
13.4658
13.3601
13.4095
13.6556
14.3029
15.6878
18.0261
21.4475
25.4048
29.7247
33.6152
37.0621
39.5799
41.5155
42.5921
43.3092
43.3705
43.2462
42.936
42.4139
41.8074
41.1431
40.4957
39.8759
39.3291
38.8572
38.4862
38.2324
38.1464
38.205
38.383
38.7617
39.3606
40.2859
41.5281
43.2612
45.449
48.3872
52.0072
56.6878
62.2973
69.1905
77.2244
86.6043
97.2253
109.017
121.908
135.593
149.977
164.683
179.562
194.309
208.738
222.678
235.947
248.489
260.189
271.055
281.026
290.114
298.321
305.653
312.136
317.836
322.769
326.997
330.508
333.416
335.627
337.399
338.487
339.267
339.341
339.14
338.644
337.559
336.433
334.535
332.911
330.441
328.405
325.486
323.15
319.877
317.341
313.795
311.155
307.423
304.775
300.945
298.372
294.503
292.059
288.185
285.898
282.043
279.937
276.122
274.234
269.714
15.9112
16.8581
18.5457
21.9329
28.3918
39.4996
55.4461
75.0491
95.4713
114.319
129.242
140.04
146.442
149.996
150.712
150.319
149.299
147.716
146.33
145.165
144.528
144.655
145.251
146.617
148.917
152.183
156.098
161.245
167.08
174.074
181.872
190.754
200.593
211.553
223.455
236.54
250.407
265.5
281.208
298.094
315.259
333.274
351.248
369.556
387.657
405.503
423.012
439.774
456.067
471.469
486.369
500.469
514.033
526.824
538.959
550.288
560.791
570.412
579.087
586.718
593.291
598.785
603.238
606.678
609.223
610.823
611.738
611.656
611.176
610.133
608.358
606.104
603.498
600.257
597.007
592.957
589.153
584.419
580.229
574.998
570.529
564.968
560.349
554.558
549.888
543.939
539.314
533.302
528.84
522.891
518.702
512.902
509.064
503.45
499.996
494.592
491.566
486.381
483.874
478.054
68.0429
90.4286
126.203
184.866
271.882
385.147
511.541
636.012
744.967
831.776
892.52
932.22
953.008
962.893
964.56
963.504
960.964
957.669
956.948
957.897
960.581
965.878
974.912
986.261
1000.04
1016.2
1034.72
1055.65
1077.86
1101.72
1126.73
1152.71
1179.34
1206.25
1233.14
1259.8
1285.81
1311.23
1335.57
1358.92
1380.61
1401.16
1419.97
1437.51
1453.37
1467.67
1480.61
1491.78
1501.92
1510.33
1517.91
1523.92
1529.04
1532.56
1535.17
1536.2
1535.93
1534.83
1532.44
1528.4
1523.32
1516.92
1509.63
1501.26
1492.19
1482.18
1471.74
1460.7
1449.28
1437.34
1425.34
1412.69
1400.4
1387.32
1374.92
1361.58
1349.19
1335.73
1323.46
1310.1
1298.18
1285.1
1273.66
1260.92
1250.03
1237.61
1227.29
1215.23
1205.61
1194.03
1185.23
1174.21
1166.36
1155.88
1148.99
1139.04
1133.19
1123.76
1119.15
1108.89
1464.66
1897.13
2398.94
2961.75
3563.07
4171.82
4746.09
5251.32
5654.89
5950.63
6132.06
6219.17
6206.67
6160.01
6061.57
5928.58
5778.29
5619.82
5459.38
5301.41
5149.03
5003.98
4867.35
4739.53
4620.94
4511.12
4409.92
4316.95
4231.78
4154.1
4083.5
4019.73
3962.37
3911.06
3865.39
3825.01
3789.5
3758.6
3731.78
3708.7
3688.57
3671.39
3656.5
3644.15
3633.67
3625.05
3618.1
3612.37
3608.15
3604.69
3602.43
3600.71
3599.78
3599.15
3598.95
3599.02
3599.29
3599.76
3600.71
3601.58
3602.92
3604.19
3605.66
3606.97
3608.28
3609.13
3609.74
3609.69
3609.33
3608.36
3607.05
3604.53
3602.18
3598.35
3594.9
3589.64
3584.93
3578.13
3572.1
3563.82
3556.55
3546.93
3538.57
3527.68
3518.36
3506.27
3496.17
3483
3472.4
3458.42
3447.72
3433.07
3422.61
3407.29
3397.39
3381.31
3372.17
3355.24
3346.61
3324.94
1109.29
1064.62
1122.17
1210.01
1238.71
1121.1
818.426
1979.67
54680.1
16157.5
7358.94
6105.85
6232.79
6483.64
6554.02
8025.36
74274.8
43618.2
24820.6
18454.7
16095
14997.7
14625.4
19661.5
76435.5
71022.9
54236.7
41184.5
32680
27154.6
24543.9
34056
69747.2
75711.9
67747.5
55647.5
44564.7
35841.8
30864
42702.9
57757.1
71182.6
67954.9
59050.9
48383.8
38738
32786.3
45230.5
47478.6
61838.6
62500.3
56622.4
47173
38181.4
32455.3
44251
39070
51815.4
53585.7
49838
42393.1
34672.5
29588
39762.3
32606.8
42979
44912.8
42124.5
36292.9
30033.5
25812.7
34032.8
27592
35613.9
37248.3
35104.9
30532.3
25547
22214.6
29365.6
23481
29578.5
30815.8
29113
25522
21624.4
19149.5
26002.4
20105.1
24692
25568.8
24177.7
21333.8
18292.3
16488.4
22964.6
17371.4
20781.8
21366.9
20207.3
17936.4
15553.1
14261.4
20347.5
15141.4
17660
18024.1
17043.1
15214.3
13333.3
12427.9
18146.8
13292.5
15152
15357.8
14521.4
13035.2
11540.6
10928.8
16323.3
11731.9
13111.9
13209.8
12493.8
11276.8
10083
9696.68
14807.5
10408.1
11440.6
11466
10850.5
9846.4
8888.57
8676.89
13540.2
9269.03
10053.1
10034.7
9502.88
8670
7899.88
7825.15
12471.5
8286.4
8890.59
8847.49
8386.19
7692.23
7073.23
7105.91
11561
7442.85
7911.92
7854.14
7453.27
6872.4
6375.79
6491.95
10778.4
6715.79
7083.09
7017.08
6667.83
6179.44
5782.25
5964.95
10099.4
6089.39
6377.92
6307.58
6002.19
5589.69
5273.63
5509.6
9505.68
5547.3
5774.53
5702.54
5434.58
5084.85
4835.42
5114.28
8984.58
5073.81
5253.98
5182.59
4947.02
4649.86
4455.81
4769.62
8526.13
4658.01
4801.91
4732.65
4525.27
4272.56
4125
4467.64
8121.43
4291.18
4406.96
4340.84
4158.14
3943.29
3835.07
4201.71
7762.83
3966.03
4059.85
3997.52
3836.54
3654.18
3579.51
3966.28
7443.66
3676.92
3753.34
3695.09
3553.27
3398.96
3353.05
3756.78
7158.22
3418.71
3481.33
3427.3
3302.45
3172.48
3151.39
3569.51
6901.89
3187.41
3238.96
3189.13
3079.32
2970.59
2971.06
3401.34
6670.64
2979.43
3022.13
2976.44
2880.05
2789.96
2808.79
3249.9
6461.08
2791.79
2827.39
2785.74
2701.35
2627.64
2662.46
3112.9
6270.42
2621.99
2651.93
2614.16
2540.55
2481.3
2530.15
2988.6
6096.5
2467.82
2493.29
2459.26
2395.38
2348.95
2410.2
2875.55
5937.46
2327.53
2349.45
2319.01
2263.91
2228.92
2301.18
2772.51
5791.79
2199.49
2218.63
2191.63
2144.49
2119.75
2201.85
2678.42
5658.21
2082.39
2099.36
2075.63
2035.72
2020.19
2111.12
2592.36
5535.67
1975.01
1990.31
1969.67
1936.34
1929.15
2028.06
2513.49
5423.24
1876.31
1890.33
1872.62
1845.31
1845.67
1951.79
2441.07
5320.05
1785.36
1798.42
1783.49
1761.69
1768.82
1881.65
2374.44
5225.27
1701.35
1713.7
1701.39
1684.64
1697.92
1816.92
2312.98
5138.08
1623.55
1635.41
1625.57
1613.45
1632.36
1757.02
2256.15
5057.7
1551.34
1562.87
1555.37
1547.52
1571.58
1701.44
2203.46
4983.38
1484.17
1495.52
1490.21
1486.3
1515.12
1649.76
2154.5
4914.44
1421.57
1432.85
1429.62
1429.37
1462.54
1601.58
2108.87
4850.24
1363.11
1374.43
1373.18
1376.28
1413.53
1556.61
2066.27
4790.24
1308.44
1319.89
1320.51
1326.7
1367.75
1514.55
2026.42
4733.95
1257.23
1268.87
1271.28
1280.37
1324.93
1475.18
1989.11
4681.05
1209.19
1221.09
1225.2
1237.01
1284.82
1438.26
1954.13
4631.24
1164.05
1176.27
1182
1196.36
1247.2
1403.62
1921.32
4584.33
1121.59
1134.17
1141.46
1158.2
1211.87
1371.07
1890.53
4540.17
1081.57
1094.56
1103.34
1122.34
1178.65
1340.46
1861.63
4498.65
1043.8
1057.24
1067.45
1088.57
1147.37
1311.65
1834.49
4459.69
1008.1
1022.02
1033.61
1056.74
1117.89
1284.51
1809.02
4423.21
974.309
988.727
1001.65
1026.69
1090.06
1258.92
1785.09
4389.14
942.265
957.21
971.417
998.266
1063.75
1234.75
1762.61
4357.32
911.849
927.339
942.789
971.367
1038.86
1211.92
1741.47
4327.66
882.917
898.973
915.631
945.865
1015.27
1190.32
1721.61
4299.96
855.388
872.025
889.858
921.676
992.919
1169.88
1702.91
4274.14
829.132
846.368
865.345
898.689
971.693
1150.52
1685.32
4249.97
804.104
821.95
842.039
876.847
951.537
1132.16
1668.73
4227.38
780.175
798.64
819.814
856.035
932.35
1114.73
1653.1
4206.11
757.331
776.418
798.647
836.223
914.096
1098.17
1638.34
4186.18
735.431
755.141
778.395
817.281
896.659
1082.39
1624.37
4167.29
714.494
734.823
759.07
799.213
880.035
1067.37
1611.15
4149.57
694.358
715.296
740.505
781.861
864.078
1052.99
1598.57
4132.62
675.081
696.618
722.758
765.279
848.831
1039.26
1586.63
4116.72
656.472
678.591
705.626
749.268
834.107
1026.02
1575.18
4101.3
638.641
661.329
689.229
733.95
820.024
1013.37
1564.3
4086.87
621.358
644.589
673.316
719.068
806.331
1001.08
1553.75
4072.6
604.802
628.564
658.092
704.838
793.246
989.345
1543.73
4059.36
588.686
612.946
643.231
690.92
780.419
977.826
1533.9
4045.93
573.277
598.025
629.048
677.652
768.21
966.884
1524.62
4033.65
558.207
583.405
615.113
664.573
756.126
956.011
1515.34
4020.76
543.851
569.494
601.878
652.18
744.713
945.788
1506.72
4009.32
529.736
555.776
588.775
639.845
733.279
935.465
1497.9
3996.79
516.365
542.807
576.423
628.269
722.613
925.925
1489.91
3986.15
503.128
529.916
564.077
616.609
711.76
916.082
1481.45
3973.9
490.689
517.837
552.563
605.812
701.816
907.214
1474.1
3964.07
478.264
505.707
540.911
594.768
691.493
897.806
1465.96
3952.08
466.712
494.479
530.2
584.726
682.261
889.62
1459.3
3943.18
455.035
483.049
519.187
574.25
672.427
880.616
1451.46
3931.49
444.334
472.638
509.253
564.946
663.906
873.135
1445.54
3923.65
433.338
461.846
498.823
554.989
654.523
864.509
1438
3912.32
423.454
452.222
489.642
546.41
646.714
857.76
1432.88
3905.62
413.067
442.001
479.732
536.917
637.735
849.476
1425.61
3894.7
403.971
433.135
471.279
529.041
630.627
843.466
1421.33
3889.07
394.11
423.404
461.815
519.946
621.996
835.482
1414.33
3878.65
385.774
415.271
454.061
512.742
615.557
830.176
1410.82
3873.77
376.346
405.939
444.956
503.965
607.207
822.449
1404.1
3863.9
368.751
398.518
437.875
497.397
601.378
817.742
1401.07
3859.44
359.65
389.481
429.032
488.851
593.24
810.241
1394.81
3850.14
352.794
382.764
422.609
482.886
587.957
806.022
1392.06
3845.85
343.909
373.915
413.925
474.479
579.957
798.699
1386.18
3836.83
337.807
367.915
408.162
469.099
575.168
794.858
1383.57
3832.51
329.021
359.145
399.54
460.748
567.239
787.653
1377.9
3823.54
323.71
353.891
394.452
455.945
562.894
784.078
1375.35
3819.14
314.904
345.092
385.801
447.582
555.007
777.017
1369.86
3810.32
310.408
340.601
381.392
443.336
551.041
773.559
1367.26
3805.81
299.768
329.924
370.839
433.071
541.287
764.745
1359.98
3795.36
)
;

boundaryField
{
    frontAndBack
    {
        type            empty;
    }
    inlet
    {
        type            fixedValue;
        value           uniform 14.855;
    }
    outlet
    {
        type            zeroGradient;
    }
    walls
    {
        lowReCorrection 0;
        blending        stepwise;
        n               2;
        type            epsilonWallFunction;
        value           nonuniform List<scalar> 
228
(
112.724
141.424
210.097
257.591
369.051
443.457
614.739
724.909
971.325
1128.62
1109.29
1064.62
1122.17
1210.01
1238.71
1121.1
818.426
1979.67
1979.67
8025.36
19661.5
34056
42702.9
45230.5
44251
39762.3
34032.8
29365.6
26002.4
22964.6
20347.5
18146.8
16323.3
14807.5
13540.2
12471.5
11561
10778.4
10099.4
9505.68
8984.58
8526.13
8121.43
7762.83
7443.66
7158.22
6901.89
6670.64
6461.08
6270.42
6096.5
5937.46
5791.79
5658.21
5535.67
5423.24
5320.05
5225.27
5138.08
5057.7
4983.38
4914.44
4850.24
4790.24
4733.95
4681.05
4631.24
4584.33
4540.17
4498.65
4459.69
4423.21
4389.14
4357.32
4327.66
4299.96
4274.14
4249.97
4227.38
4206.11
4186.18
4167.29
4149.57
4132.62
4116.72
4101.3
4086.87
4072.6
4059.36
4045.93
4033.65
4020.76
4009.32
3996.79
3986.15
3973.9
3964.07
3952.08
3943.18
3931.49
3923.65
3912.32
3905.62
3894.7
3889.07
3878.65
3873.77
3863.9
3859.44
3850.14
3845.85
3836.83
3832.51
3823.54
3819.14
3810.32
3805.81
3795.36
105.931
146.58
198.373
265.761
350.036
456.045
585.689
743.659
931.842
1154
1464.66
1897.13
2398.94
2961.75
3563.07
4171.82
4746.09
5251.32
5654.89
5950.63
6132.06
6219.17
6206.67
6160.01
6061.57
5928.58
5778.29
5619.82
5459.38
5301.41
5149.03
5003.98
4867.35
4739.53
4620.94
4511.12
4409.92
4316.95
4231.78
4154.1
4083.5
4019.73
3962.37
3911.06
3865.39
3825.01
3789.5
3758.6
3731.78
3708.7
3688.57
3671.39
3656.5
3644.15
3633.67
3625.05
3618.1
3612.37
3608.15
3604.69
3602.43
3600.71
3599.78
3599.15
3598.95
3599.02
3599.29
3599.76
3600.71
3601.58
3602.92
3604.19
3605.66
3606.97
3608.28
3609.13
3609.74
3609.69
3609.33
3608.36
3607.05
3604.53
3602.18
3598.35
3594.9
3589.64
3584.93
3578.13
3572.1
3563.82
3556.55
3546.93
3538.57
3527.68
3518.36
3506.27
3496.17
3483
3472.4
3458.42
3447.72
3433.07
3422.61
3407.29
3397.39
3381.31
3372.17
3355.24
3346.61
3324.94
)
;
    }
}


// ************************************************************************* //
