/*--------------------------------*- C++ -*----------------------------------*\
| =========                 |                                                 |
| \\      /  F ield         | OpenFOAM: The Open Source CFD Toolbox           |
|  \\    /   O peration     | Version:  v2012                                 |
|   \\  /    A nd           | Website:  www.openfoam.com                      |
|    \\/     M anipulation  |                                                 |
\*---------------------------------------------------------------------------*/
FoamFile
{
    version     2.0;
    format      ascii;
    class       vectorField;
    location    "0.02/lagrangian/kinematicCloud";
    object      UCorrect;
}
// * * * * * * * * * * * * * * * * * * * * * * * * * * * * * * * * * * * * * //


20
(
(0 0 0)
(0 0 0)
(7.83825e-28 5.61487e-31 0)
(0 0 0)
(0 0 0)
(0 0 0)
(0 0 0)
(0 0 0)
(0 0 0)
(0 0 0)
(0 0 0)
(1.49565e-27 -4.11451e-29 0)
(0 0 0)
(0 0 0)
(0 0 0)
(1.09667e-27 -4.49014e-31 0)
(0 0 0)
(0 0 0)
(1.86061e-27 -3.12308e-29 0)
(2.27331e-27 5.60505e-29 0)
)


// ************************************************************************* //
