/*--------------------------------*- C++ -*----------------------------------*\
| =========                 |                                                 |
| \\      /  F ield         | OpenFOAM: The Open Source CFD Toolbox           |
|  \\    /   O peration     | Version:  v2012                                 |
|   \\  /    A nd           | Website:  www.openfoam.com                      |
|    \\/     M anipulation  |                                                 |
\*---------------------------------------------------------------------------*/
FoamFile
{
    version     2.0;
    format      ascii;
    class       Cloud<basicKinematicParcel>;
    location    "0.07/lagrangian/kinematicCloud";
    object      coordinates;
}
// * * * * * * * * * * * * * * * * * * * * * * * * * * * * * * * * * * * * * //

54
(
(0.932671 0.00308324 0.0305814 0.0336646) 364 728 1
(0.117668 0.268726 0.17244 0.441166) 865 1730 1
(0.248662 0.375669 0.059303 0.316366) 1164 2328 2
(0.452523 0.273738 0.203623 0.0701151) 663 1127 1
(0.304548 0.347726 0.293767 0.0539595) 1362 2725 1
(0.568799 0.2156 0.141017 0.0745838) 1161 2320 2
(0.0520398 0.319389 0.47398 0.154591) 46 90 1
(0.216598 0.145522 0.391701 0.246179) 1557 3115 2
(0.539761 0.00151359 0.228606 0.230119) 1556 3112 1
(0.829951 0.0263537 0.0850243 0.0586707) 756 1513 2
(0.188687 0.405657 0.144359 0.261298) 856 1713 1
(0.0412324 0.479384 0.26856 0.210824) 554 1108 2
(0.33415 0.256887 0.0760384 0.332925) 1847 3694 1
(0.477485 0.261258 0.0973038 0.163954) 146 292 2
(0.349328 0.325336 0.257784 0.0675524) 1847 3495 1
(0.760479 0.11976 0.0754132 0.0443472) 950 1901 1
(0.398078 0.300961 0.136256 0.164705) 348 694 2
(0.541478 0.161541 0.229261 0.0677196) 1745 3491 2
(0.22198 0.33776 0.0512503 0.38901) 546 1092 1
(0.323593 0.338203 0.0873119 0.250891) 1546 3093 1
(0.215005 0.149889 0.242608 0.392497) 1345 2491 2
(0.199262 0.400369 0.238103 0.162266) 1743 3484 2
(0.811642 0.0941791 0.0485543 0.0456247) 1343 2684 2
(0.0516398 0.372623 0.47418 0.101557) 442 882 1
(0.03253 0.483735 0.215483 0.268252) 842 1682 2
(0.0820021 0.458999 0.140946 0.318053) 1340 2680 2
(0.468058 0.265971 0.0336529 0.232318) 339 679 1
(0.441675 0.15562 0.123542 0.279162) 1439 2878 1
(0.506731 0.231254 0.246634 0.0153803) 136 273 2
(0.101197 0.357053 0.0923484 0.449402) 1538 2877 2
(0.174463 0.412768 0.209935 0.202834) 22 22242 2
(0.911378 0.0443112 0.00230924 0.042002) 235 471 1
(0.0823719 0.0140413 0.444773 0.458814) 1930 3661 2
(0.316672 0.270381 0.341664 0.0712829) 1034 2066 1
(0.0108148 0.494593 0.0618109 0.432782) 634 1069 1
(0.425188 0.287406 0.261036 0.0263706) 1233 2467 1
(0.291043 0.354479 0.229203 0.125276) 732 1462 2
(0.451848 0.274076 0.0444536 0.229622) 831 1463 1
(0.251859 0.374071 0.296043 0.0780277) 1230 2461 1
(0.159592 0.420204 0.144124 0.27608) 26 53 1
(0.480061 0.259969 0.139464 0.120505) 628 1257 1
(0.571942 0.214029 0.0286224 0.185407) 1227 2452 2
(0.386434 0.306783 0.223029 0.0837542) 526 1053 1
(0.233294 0.383353 0.318369 0.0649835) 525 851 1
(0.0834878 0.458256 0.393893 0.064363) 724 1249 1
(0.230765 0.384618 0.017628 0.36699) 1123 2247 1
(0.37232 0.31384 0.308601 0.00523928) 1522 2845 1
(0.802117 0.0859782 0.0129634 0.0989416) 921 1842 1
(0.183379 0.299957 0.108353 0.40831) 820 1441 2
(0.0517079 0.262724 0.211422 0.474146) 1419 2639 2
(0.228546 0.146072 0.239656 0.385727) 318 437 2
(0.147805 0.00497258 0.426097 0.421125) 717 1435 2
(0.0703204 0.46484 0.410314 0.054526) 1617 3232 2
(0.149179 0.0620053 0.363405 0.42541) 115 230 1
)


// ************************************************************************* //
