/*--------------------------------*- C++ -*----------------------------------*\
| =========                 |                                                 |
| \\      /  F ield         | OpenFOAM: The Open Source CFD Toolbox           |
|  \\    /   O peration     | Version:  v2012                                 |
|   \\  /    A nd           | Website:  www.openfoam.com                      |
|    \\/     M anipulation  |                                                 |
\*---------------------------------------------------------------------------*/
FoamFile
{
    version     2.0;
    format      ascii;
    class       vectorField;
    location    "0.07/lagrangian/kinematicCloud";
    object      UCorrect;
}
// * * * * * * * * * * * * * * * * * * * * * * * * * * * * * * * * * * * * * //


73
(
(0 0 0)
(0 0 0)
(-2.91762e-25 5.66143e-27 0)
(0 0 0)
(0 0 0)
(-3.30795e-25 1.21866e-26 0)
(0 0 0)
(-1.67557e-10 2.94543e-12 0)
(1.19822e-10 -1.76303e-12 0)
(-5.15e-11 6.41956e-12 0)
(2.20192e-11 -2.01818e-12 0)
(0 0 0)
(1.35761e-07 -1.30148e-11 0)
(9.96048e-11 1.87065e-14 0)
(0 0 0)
(0 0 0)
(0 0 0)
(-1.12314e-24 1.13395e-26 0)
(0 0 0)
(-1.25661e-24 2.04766e-26 0)
(-1.02524e-26 1.49072e-28 0)
(0 0 0)
(-1.34335e-24 -5.05659e-27 0)
(0 0 0)
(-1.28868e-24 -6.17159e-26 0)
(0 0 0)
(-7.49286e-25 -9.99298e-26 0)
(-1.67909e-09 -1.23947e-10 0)
(0 0 0)
(1.22412e-09 1.14318e-10 0)
(-1.00882e-10 -1.88128e-14 0)
(0 0 0)
(0 0 0)
(0 0 0)
(-6.37952e-27 -1.08126e-27 0)
(0 0 0)
(-5.64205e-10 -3.75429e-11 0)
(3.92207e-10 2.32856e-11 0)
(0 0 0)
(0 0 0)
(-5.2536e-25 -1.2555e-26 0)
(0 0 0)
(-7.16184e-10 1.52606e-12 0)
(4.95599e-10 -2.90264e-12 0)
(0 0 0)
(0 0 0)
(-6.78563e-29 -8.89194e-32 0)
(-1.35797e-28 -3.01631e-31 0)
(0 0 0)
(-1.71889e-29 -1.04016e-32 0)
(0 0 0)
(0 0 0)
(0 0 0)
(0 0 0)
(-8.67031e-10 -9.24199e-14 0)
(6.03938e-10 3.95601e-14 0)
(-1.37586e-07 1.3189e-11 0)
(0 0 0)
(0 0 0)
(-1.14845e-08 -4.30982e-14 0)
(-3.63147e-29 4.50804e-33 0)
(1.57682e-09 4.97392e-13 0)
(8.14522e-09 -4.01438e-13 0)
(0 0 0)
(0 0 0)
(-3.11063e-08 2.41926e-14 0)
(0 0 0)
(-1.45791e-25 -4.30644e-30 0)
(0 0 0)
(0 0 0)
(0 0 0)
(2.92941e-08 -4.20083e-14 0)
(0 0 0)
)


// ************************************************************************* //
