/*--------------------------------*- C++ -*----------------------------------*\
| =========                 |                                                 |
| \\      /  F ield         | OpenFOAM: The Open Source CFD Toolbox           |
|  \\    /   O peration     | Version:  v2012                                 |
|   \\  /    A nd           | Website:  www.openfoam.com                      |
|    \\/     M anipulation  |                                                 |
\*---------------------------------------------------------------------------*/
FoamFile
{
    version     2.0;
    format      ascii;
    class       scalarField;
    location    "0.089/lagrangian/kinematicCloud";
    object      age;
}
// * * * * * * * * * * * * * * * * * * * * * * * * * * * * * * * * * * * * * //


54
(
0.0882
0.0872
0.0861
0.085
0.084
0.083
0.082
0.081
0.0799
0.0788
0.078725
0.0777
0.0766
0.0755
0.0744
0.0733
0.0722
0.0711
0.07
0.069925
0.0689
0.0678
0.0667
0.0656
0.065525
0.0645
0.0634
0.063325
0.0623
0.062225
0.0612
0.0601
0.059
0.0579
0.057825
0.0569
0.0559
0.0549
0.0539
0.0529
0.0519
0.0509
0.0499
0.0489
0.0479
0.0469
0.0459
0.0449
0.0439
0.0429
0.0419
0.0409
0.0399
0.0389
)


// ************************************************************************* //
