/*--------------------------------*- C++ -*----------------------------------*\
| =========                 |                                                 |
| \\      /  F ield         | OpenFOAM: The Open Source CFD Toolbox           |
|  \\    /   O peration     | Version:  v2012                                 |
|   \\  /    A nd           | Website:  www.openfoam.com                      |
|    \\/     M anipulation  |                                                 |
\*---------------------------------------------------------------------------*/
FoamFile
{
    version     2.0;
    format      ascii;
    class       Cloud<basicKinematicParcel>;
    location    "0.089/lagrangian/kinematicCloud";
    object      coordinates;
}
// * * * * * * * * * * * * * * * * * * * * * * * * * * * * * * * * * * * * * //

54
(
(0.72617 0.0361112 0.136915 0.100804) 384 769 2
(0.586469 0.206765 0.120773 0.0859927) 888 1777 1
(0.274828 0.362586 0.118098 0.244488) 1187 2175 1
(0.319378 0.340311 0.179822 0.160489) 685 1368 2
(0.365186 0.0818605 0.235546 0.317407) 1383 2766 1
(0.615541 0.19223 0.143688 0.0485416) 1183 2167 1
(0.10852 0.274233 0.44574 0.171507) 60 118 1
(0.0676118 0.208043 0.466194 0.258151) 1578 3154 1
(0.226574 0.296417 0.386713 0.0902958) 1577 3152 1
(0.691595 0.154203 0.138459 0.0157433) 778 1557 1
(0.134687 0.432657 0.2641 0.168556) 878 1757 1
(0.0271812 0.486409 0.392788 0.093621) 575 1150 2
(0.374641 0.31268 0.292144 0.0205352) 1864 3728 2
(0.639581 0.180209 0.0974587 0.0827506) 163 326 2
(0.129533 0.435234 0.143154 0.29208) 1865 3531 1
(0.187152 0.282866 0.123558 0.406424) 971 1942 1
(0.487316 0.256342 0.250097 0.00624545) 367 734 2
(0.131787 0.331786 0.102321 0.434106) 1763 3526 1
(0.641264 0.00147577 0.177892 0.179368) 567 1134 1
(0.630485 0.184758 0.0727997 0.111958) 1566 3133 1
(0.0119195 0.209218 0.49404 0.284822) 1266 2533 2
(0.206947 0.00220641 0.39432 0.396526) 1761 3323 2
(0.486143 0.256928 0.169549 0.0873793) 1364 2726 2
(0.371384 0.0667992 0.314308 0.247509) 462 922 1
(0.269554 0.365223 0.192882 0.172341) 862 1724 2
(0.134537 0.26551 0.167221 0.432732) 1361 2523 2
(0.0977432 0.0275516 0.451128 0.423577) 359 716 1
(0.227638 0.386181 0.0276182 0.358563) 1460 2918 2
(0.104834 0.0710758 0.447583 0.376507) 154 306 1
(0.217141 0.183005 0.39143 0.208425) 1458 2917 2
(0.177449 0.411275 0.104612 0.306664) 29 22249 2
(0.0172465 0.304156 0.187221 0.491377) 253 506 1
(0.132217 0.433891 0.0602567 0.373635) 1846 3693 1
(0.670116 0.115201 0.164942 0.0497413) 1054 2106 1
(0.237211 0.381395 0.0449875 0.336407) 654 1109 1
(0.605925 0.197038 0.180185 0.0168529) 1253 2507 1
(0.262244 0.368878 0.156307 0.212571) 752 1502 2
(0.333913 0.333044 0.231848 0.101196) 851 1700 2
(0.00275121 0.214949 0.283676 0.498624) 1249 2498 1
(0.00400013 0.0899817 0.498 0.408018) 41 83 2
(0.0836719 0.105603 0.352561 0.458164) 647 1294 1
(0.431758 0.284121 0.177039 0.107082) 1246 2492 2
(0.135079 0.29001 0.432461 0.142451) 545 1091 2
(0.508704 0.101734 0.143914 0.245648) 544 889 2
(0.231034 0.264716 0.119767 0.384483) 743 1287 2
(0.339299 0.271757 0.33035 0.0585929) 1142 2285 2
(0.0249903 0.487505 0.358553 0.128952) 1541 2883 1
(0.902913 0.0295005 0.0485433 0.0190429) 940 1878 1
(0.265644 0.367178 0.214327 0.15285) 839 1479 1
(0.186216 0.406892 0.165404 0.241489) 1338 2677 1
(0.386747 0.306626 0.0955502 0.211076) 336 672 2
(0.051496 0.474252 0.189564 0.284688) 736 1473 1
(0.190101 0.40495 0.337309 0.0676406) 1535 3071 1
(0.0599443 0.470028 0.0144815 0.455546) 232 464 2
)


// ************************************************************************* //
