/*--------------------------------*- C++ -*----------------------------------*\
| =========                 |                                                 |
| \\      /  F ield         | OpenFOAM: The Open Source CFD Toolbox           |
|  \\    /   O peration     | Version:  v2012                                 |
|   \\  /    A nd           | Website:  www.openfoam.com                      |
|    \\/     M anipulation  |                                                 |
\*---------------------------------------------------------------------------*/
FoamFile
{
    version     2.0;
    format      ascii;
    class       Cloud<basicKinematicParcel>;
    location    "0.089/lagrangian/kinematicCloud";
    object      positions;
}
// * * * * * * * * * * * * * * * * * * * * * * * * * * * * * * * * * * * * * //

15
(
(0.583013 0.0262408 0.03) 1055
(0.963527 0.0246281 0.03) 1095
(0.881602 -0.0135039 0.03) 1802
(0.779215 0.0249868 0.03) 1076
(0.828179 -0.0148871 0.03) 1755
(0.999409 -0.00753617 0.03) 1895
(1.00086 -0.00105797 0.03) 1892
(0.956895 0.0193226 0.03) 895
(0.949136 0.00531256 0.03) 294
(0.919441 0.00347172 0.03) 291
(0.896016 0.0178918 0.03) 788
(0.80914 -0.00697801 0.03) 1735
(0.839947 0.000897348 0.03) 182
(0.796178 0.0215137 0.03) 978
(0.590508 -0.010166 0.03) 1553
)


// ************************************************************************* //
