/*--------------------------------*- C++ -*----------------------------------*\
| =========                 |                                                 |
| \\      /  F ield         | OpenFOAM: The Open Source CFD Toolbox           |
|  \\    /   O peration     | Version:  v2012                                 |
|   \\  /    A nd           | Website:  www.openfoam.com                      |
|    \\/     M anipulation  |                                                 |
\*---------------------------------------------------------------------------*/
FoamFile
{
    version     2.0;
    format      ascii;
    class       volScalarField;
    location    "0.245";
    object      epsilon.air;
}
// * * * * * * * * * * * * * * * * * * * * * * * * * * * * * * * * * * * * * //

dimensions      [0 2 -3 0 0 0 0];


internalField   nonuniform List<scalar> 
1900
(
112.724
141.424
210.097
257.591
369.051
443.457
614.74
724.904
971.329
1128.61
15.4676
16.4471
18.6373
20.4507
23.7568
27.7281
31.9999
39.3107
44.9857
56.9854
14.7926
14.6415
14.5755
14.5063
14.515
14.5558
14.6443
14.8291
15.0761
15.4176
14.77
14.6304
14.4634
14.3354
14.1726
14.059
13.904
13.8079
13.6654
13.5937
14.7765
14.6216
14.4704
14.3205
14.1747
14.029
13.8889
13.7472
13.6139
13.4769
14.7777
14.6206
14.4713
14.3197
14.1754
14.0284
13.8891
13.7472
13.6133
13.4773
14.7776
14.6208
14.473
14.3236
14.184
14.045
13.9175
13.7915
13.6807
13.5716
14.7757
14.6501
14.5637
14.5034
14.511
14.5499
14.6402
14.8186
15.0459
15.3946
15.2076
16.6061
18.2728
20.6812
23.5927
27.5694
32.2706
38.3961
45.579
54.7992
105.879
146.647
198.304
265.829
349.96
456.092
585.625
743.683
931.824
1154.04
4101.72
15202.8
19567.2
22421.3
21090.4
18009
15087.3
12804.4
11311.4
10392.7
9890.19
9709.04
9528.54
9257.51
8850.16
8351.04
7796.22
7209.89
6644.4
6126.38
5649.31
5222.27
4837.9
4487.02
4167.59
3877.98
3615.35
3377.87
3162.18
2966.45
2788.3
2625.7
2476.94
2340.47
2215.11
2099.69
1993.27
1894.89
1803.81
1719.3
1640.79
1567.7
1499.59
1436
1376.57
1320.92
1268.76
1219.78
1173.72
1130.31
1089.35
1050.62
1013.94
979.144
946.093
914.639
884.682
856.091
828.798
802.682
777.704
753.745
730.796
708.726
687.565
667.165
647.6
628.695
610.571
593.021
576.22
559.908
544.33
529.152
514.705
500.557
487.15
473.927
461.472
449.073
437.497
425.83
415.077
404.066
394.1
383.681
374.485
364.595
356.166
346.74
339.081
330.039
323.164
314.405
308.335
299.739
294.507
285.933
281.562
271.254
113.054
337.919
517.76
921.556
1123.68
1149.18
1121.91
1059.06
1053.8
1093.2
1198.48
1412.1
1698.3
2029.22
2379.46
2692.83
2971.07
3202.81
3357.96
3434.36
3426.31
3387.11
3301.03
3183.61
3055.62
2924.4
2793.69
2667.33
2543.92
2426.58
2314.53
2207.56
2106.18
2010.23
1919.84
1834.73
1754.81
1679.55
1608.71
1541.99
1479.13
1419.84
1363.9
1311.07
1261.15
1213.94
1169.27
1126.95
1086.81
1048.7
1012.46
977.957
945.053
913.627
883.579
854.801
827.225
800.75
775.339
750.899
727.417
704.797
683.052
662.072
641.899
622.405
603.671
585.537
568.128
551.249
535.075
519.362
504.348
489.721
475.797
462.172
449.263
436.55
424.58
412.687
401.586
390.425
380.137
369.631
360.117
350.198
341.437
332.042
324.026
315.089
307.82
299.262
292.748
284.472
278.731
270.621
265.68
257.605
253.49
243.802
16.4242
19.8732
22.8841
29.0856
34.769
38.7196
41.6954
43.784
46.7421
50.7664
58.8359
71.1001
95.7696
130.39
189.809
267.597
374.468
509.062
666.093
836.755
1004.99
1162.11
1301.16
1417.73
1508.44
1571.8
1610.16
1628.32
1625.9
1615.38
1592.72
1562.42
1527.94
1490.52
1451.76
1411.88
1371.94
1331.6
1291.78
1252.61
1214.19
1176.64
1140.11
1104.62
1070.23
1036.9
1004.71
973.58
943.505
914.464
886.415
859.308
833.102
807.739
783.197
759.415
736.387
714.053
692.427
671.452
651.158
631.482
612.468
594.035
576.246
558.998
542.383
526.259
510.758
495.696
481.253
467.193
453.759
440.646
428.172
415.945
404.377
392.963
382.237
371.557
361.614
351.591
342.381
332.943
324.428
315.512
307.672
299.219
292.046
283.997
277.492
269.779
263.948
256.486
251.344
244.033
239.602
232.328
228.63
219.912
13.4532
13.4608
13.5468
13.8033
14.3342
15.0066
15.7159
16.3357
16.9209
17.3405
17.898
18.3637
19.3203
20.488
22.7708
26.2265
31.8255
40.8057
54.7368
76.1463
106.433
146.944
198.344
259.855
329.286
404.039
479.476
553.658
621.457
683.588
737.091
781.231
815.925
841.407
859.302
870.139
875.397
874.792
872.053
866.025
857.301
846.665
834.67
821.343
807.094
792.003
776.401
760.199
743.74
727.115
710.358
693.548
676.766
660.042
643.455
626.988
610.738
594.675
578.896
563.36
548.168
533.277
518.766
504.59
490.835
477.423
464.456
451.809
439.618
427.709
416.273
405.074
394.371
383.851
373.857
363.984
354.665
345.382
336.694
327.952
319.862
311.606
304.08
296.254
289.264
281.82
275.351
268.245
262.303
255.496
250.082
243.519
238.641
232.261
227.935
221.666
217.913
211.673
208.509
201.027
13.3298
13.159
13.0629
13.1172
13.3057
13.7173
14.2839
14.9058
15.4438
15.8769
16.2066
16.4353
16.624
16.7636
16.9166
17.0857
17.3506
17.7259
18.3273
19.2991
20.8334
23.2437
26.7397
32.0668
39.6231
50.421
64.6956
83.2662
106.043
133.215
164.048
197.612
233.004
268.6
303.721
336.68
367.624
395.493
420.178
441.269
458.951
473.189
484.517
492.929
498.879
502.534
504.353
504.081
502.931
500.411
496.629
491.924
486.474
480.358
473.726
466.63
459.232
451.51
443.652
435.582
427.515
419.34
411.21
403.115
395.148
387.245
379.497
371.804
364.295
356.83
349.593
342.365
335.422
328.438
321.807
315.077
308.76
302.29
296.295
290.065
284.375
278.355
272.962
267.127
262.027
256.355
251.554
246.028
241.53
236.125
231.956
226.662
222.851
217.642
214.214
209.058
206.036
200.892
198.295
192.113
13.3251
13.1543
13.0319
13.0867
13.2961
13.7727
14.4976
15.4818
16.5005
17.5956
18.5912
19.5217
20.2651
20.8756
21.3012
21.6097
21.7809
21.8489
21.8331
21.7878
21.6948
21.6004
21.5298
21.5557
21.6625
21.9212
22.447
23.3614
24.7954
26.9911
30.2036
34.6548
40.702
48.3782
57.9043
69.2173
82.3914
97.0851
113.193
130.134
147.665
165.195
182.498
199.132
214.888
229.473
242.874
254.912
265.678
275.208
283.527
290.745
296.939
302.218
306.642
310.288
313.254
315.532
317.279
318.371
319.13
319.165
318.969
318.466
317.451
316.076
314.406
312.438
310.265
307.829
305.255
302.428
299.55
296.383
293.328
289.889
286.695
283.066
279.785
276.014
272.688
268.802
265.467
261.486
258.175
254.116
250.863
246.744
243.59
239.432
236.414
232.229
229.385
225.183
222.55
218.339
215.95
211.735
209.62
204.553
13.4658
13.3602
13.4098
13.6563
14.3045
15.6865
18.0285
21.4304
25.3944
29.6888
33.6075
37.084
39.6127
41.5452
42.6208
43.3543
43.3712
43.2349
42.8866
42.3931
41.7806
41.1475
40.4888
39.8975
39.362
38.8959
38.513
38.2348
38.1151
38.1667
38.3391
38.7133
39.3324
40.2309
41.5565
43.2497
45.5906
48.48
52.2619
56.8744
62.6181
69.4769
77.5723
86.9245
97.479
109.21
121.898
135.467
149.587
164.17
178.83
193.493
207.803
221.747
235.042
247.716
259.555
270.608
280.751
290.027
298.423
305.943
312.598
318.451
323.497
327.771
331.323
334.161
336.325
337.95
338.954
339.482
339.407
339.07
338.393
337.062
335.857
333.9
332.257
329.816
327.833
325.006
322.778
319.639
317.238
313.84
311.327
307.722
305.162
301.404
298.861
294.995
292.525
288.591
286.246
282.287
280.113
276.172
274.224
269.571
15.9104
16.8582
18.5483
21.9312
28.4168
39.4903
55.4463
74.9767
95.4137
114.204
129.259
140.176
146.504
150.102
150.796
150.392
149.282
147.644
146.167
145.141
144.471
144.634
145.264
146.748
149.019
152.313
156.179
161.201
166.972
173.915
181.702
190.548
200.455
211.328
223.471
236.458
250.755
265.696
281.718
298.239
315.563
333.311
351.357
369.512
387.455
405.237
422.541
439.499
455.8
471.582
486.531
500.844
514.252
527.026
538.905
550.095
560.319
569.746
578.19
585.719
592.349
598.005
602.812
606.618
609.576
611.522
612.817
612.842
612.47
611.511
609.673
607.209
604.303
600.739
597.108
592.705
588.645
583.675
579.317
574.01
569.503
563.985
559.443
553.793
549.284
543.542
539.118
533.331
529.063
523.289
519.246
513.529
509.763
504.14
500.699
495.202
492.138
486.794
484.201
478.157
68.0483
90.4209
126.243
184.908
272.002
385.117
511.453
635.572
744.89
831.477
892.54
932.708
953.494
963.373
964.688
963.636
960.831
957.073
956.522
957.66
960.48
965.892
974.833
986.733
1000.6
1016.6
1034.82
1055.35
1077.67
1101.41
1126.29
1152.09
1178.77
1205.8
1233.21
1260.03
1286.6
1311.84
1336.38
1359.39
1381.29
1401.51
1420.24
1437.4
1452.95
1467.11
1479.79
1491.23
1501.29
1510.14
1517.61
1523.84
1528.7
1532.31
1534.71
1535.58
1535.2
1533.9
1531.18
1527
1522.18
1515.85
1509.23
1501.14
1492.75
1483.27
1473.15
1462.35
1451.16
1439.29
1427.26
1414.43
1401.79
1388.28
1375.42
1361.64
1348.83
1335.1
1322.57
1309.08
1297.02
1283.9
1272.44
1259.75
1248.94
1236.68
1226.56
1214.76
1205.41
1194.09
1185.59
1174.76
1167.13
1156.75
1150.02
1140.07
1134.28
1124.72
1120.02
1109.47
1464.73
1897.23
2399.11
2961.95
3563.16
4171.89
4745.98
5251.13
5655.16
5950.66
6132.58
6219.65
6207.04
6160.11
6061.22
5927.93
5777.65
5619.24
5459.09
5301.48
5149.37
5004.55
4867.81
4739.89
4620.8
4510.73
4409.16
4316.08
4230.95
4153.63
4083.48
4020.14
3963.07
3911.92
3866.41
3825.92
3790.27
3758.71
3731.37
3707.57
3687.47
3670.22
3655.82
3643.66
3633.73
3625.48
3618.82
3613.31
3608.9
3605.33
3602.52
3600.36
3598.88
3597.85
3597.75
3597.96
3598.55
3599.56
3601.04
3602.36
3604.24
3605.57
3607.29
3608.38
3609.52
3610.15
3610.43
3610.33
3609.95
3609.02
3607.85
3605.52
3603.23
3599.32
3595.65
3590.09
3584.97
3577.79
3571.29
3562.64
3555
3545.16
3536.69
3525.87
3516.77
3505.07
3495.47
3482.91
3472.93
3459.48
3449.27
3434.89
3424.64
3409.27
3399.32
3382.93
3373.59
3356.22
3347.39
3325.25
1109.2
1064.58
1122.2
1210.15
1238.93
1121.32
818.598
1980.08
54632.7
16125.9
7356.4
6108.99
6235.93
6486.56
6557.41
8031.93
74280.8
43672.8
24861
18479.8
16109.6
15007.3
14634.7
19682.4
76409.8
71051.4
54285.8
41221.7
32703.2
27167.5
24551.9
34077.4
69718.8
75708
67755.6
55656.1
44568.9
35841.4
30860.7
42699.8
57750.3
71170.6
67937.2
59031
48367.2
38725.4
32775.6
45211.8
47491.6
61826.2
62478.4
56599.8
47154.6
38168.1
32444.3
44225.2
39100.6
51819.7
53578.6
49828.5
42387.2
34671.3
29589.4
39754.6
32640.8
42993.5
44920.1
42131.2
36301.4
30044.6
25826.1
34049
27617.6
35630
37261.9
35119.2
30548.2
25564
22232.9
29390.3
23495.7
29592
30830.9
29129.9
25540.3
21643
19169.8
26035.5
20110.8
24700.6
25581.1
24192.2
21349.6
18308.3
16506.4
22999.3
17370.8
20785.7
21374.8
20217.2
17946.9
15563.9
14274.2
20378.2
15137.6
17660
18027
17047.4
15218.6
13337.5
12433.5
18167.6
13287.9
15149.5
15356.7
14520.6
13033.9
11538.7
10927.3
16330.9
11727.4
13108
13206
12489.4
11271.5
10076.8
9689.8
14802.4
10404.7
11436.8
11461.4
10844.7
9839.55
8880.59
8667.25
13525.9
9266.88
10050.1
10030.7
9497.54
8663.53
7892.11
7815
12452
8285.77
8889.08
8844.94
8382.41
7687.34
7066.97
7097.06
11540.1
7443.1
7911.57
7852.96
7451.14
6869.39
6371.61
6485.36
10759.3
6716.38
7083.43
7016.91
6667.1
6178.17
5780.22
5961.11
10084.8
6089.95
6378.48
6307.94
6002.37
5589.71
5273.35
5508.33
9497.01
5547.64
5774.97
5702.99
5435.14
5085.56
4836.25
5114.9
8981.64
5073.8
5254.04
5182.77
4947.48
4650.69
4457.08
4771.32
8527.65
4657.5
4801.42
4732.34
4525.33
4273.12
4126.2
4469.71
8125.75
4290.23
4405.97
4340.03
4157.74
3943.44
3835.94
4203.64
7768.46
3964.75
4058.52
3996.37
3835.78
3653.95
3579.94
3967.73
7449.21
3675.6
3751.95
3693.86
3552.38
3398.49
3353.1
3757.65
7162.65
3417.51
3480.09
3426.22
3301.64
3171.98
3151.21
3569.85
6904.58
3186.56
3238.13
3188.45
3078.84
2970.29
2970.89
3401.37
6671.61
2979.04
3021.83
2976.29
2880.05
2790.02
2808.85
3249.91
6460.8
2791.93
2827.71
2786.19
2701.9
2628.18
2662.9
3113.16
6269.66
2622.62
2652.79
2615.16
2541.61
2482.3
2531.04
2989.29
6096.01
2468.86
2494.57
2460.67
2396.81
2350.32
2411.5
2876.75
5937.93
2328.8
2350.96
2320.63
2265.53
2230.5
2302.75
2774.18
5793.68
2200.86
2220.19
2193.25
2146.1
2121.34
2203.51
2680.41
5661.65
2083.68
2100.77
2077.04
2037.1
2021.59
2112.67
2594.43
5540.42
1976.08
1991.4
1970.72
1937.35
1930.18
2029.28
2515.38
5428.75
1877.06
1891.01
1873.21
1845.83
1846.23
1952.55
2442.52
5325.59
1785.71
1798.63
1783.58
1761.69
1768.84
1881.85
2375.24
5230.02
1701.3
1713.47
1701.01
1684.16
1697.43
1816.53
2313.02
5141.3
1623.14
1634.79
1624.8
1612.57
1631.43
1756.1
2255.39
5058.85
1550.64
1561.97
1554.32
1546.36
1570.33
1700.08
2201.95
4982.18
1483.28
1494.45
1489.01
1484.99
1513.67
1648.09
2152.37
4910.89
1420.59
1431.74
1428.4
1428.04
1461.04
1599.77
2106.32
4844.65
1362.14
1373.37
1372.04
1375.03
1412.11
1554.81
2063.54
4783.17
1307.56
1318.96
1319.53
1325.63
1366.5
1512.9
2023.74
4726.15
1256.49
1268.13
1270.51
1279.54
1323.93
1473.79
1986.71
4673.3
1208.63
1220.55
1224.66
1236.43
1284.11
1437.22
1952.17
4624.28
1163.68
1175.95
1181.71
1196.05
1246.8
1402.97
1919.95
4578.82
1121.4
1134.04
1141.38
1158.14
1211.77
1370.83
1889.82
4536.56
1081.54
1094.61
1103.45
1122.5
1178.84
1340.62
1861.6
4497.2
1043.92
1057.43
1067.73
1088.93
1147.81
1312.18
1835.11
4460.41
1008.34
1022.33
1034.01
1057.25
1118.53
1285.35
1810.21
4425.9
974.638
989.136
1002.16
1027.32
1090.86
1260
1786.74
4393.43
942.668
957.692
972.002
998.989
1064.67
1236.01
1764.6
4362.74
912.309
927.879
943.431
972.148
1039.85
1213.28
1743.66
4333.69
883.421
899.552
916.305
946.669
1016.29
1191.71
1723.83
4306.08
855.921
872.625
890.536
922.467
993.898
1171.22
1705.05
4279.89
829.675
846.963
865.996
899.425
972.582
1151.72
1687.22
4254.91
804.637
822.513
842.632
877.49
952.29
1133.16
1670.31
4231.28
780.672
799.141
820.311
856.54
932.912
1115.46
1654.24
4208.73
757.767
776.829
799.019
836.562
914.435
1098.59
1638.99
4187.48
735.779
755.433
778.613
817.421
896.74
1082.46
1624.47
4167.21
714.735
734.978
759.12
799.147
879.853
1067.08
1610.71
4148.2
694.476
715.304
740.38
781.584
863.633
1052.35
1597.6
4130.04
675.075
696.483
722.47
764.813
848.151
1038.3
1585.17
4113.1
656.348
678.327
705.197
748.643
833.235
1024.8
1573.33
4096.86
638.419
660.963
688.696
733.211
819.013
1011.95
1562.12
4081.79
621.065
644.159
672.726
718.274
805.255
999.562
1551.4
4067.21
604.472
628.11
657.491
704.043
792.167
987.802
1541.31
4053.83
588.359
612.516
642.676
690.193
779.427
976.381
1531.57
4040.65
572.986
597.656
628.58
677.039
767.356
965.598
1522.48
4028.76
557.991
583.141
614.784
664.136
755.493
955.001
1513.57
4016.69
543.731
569.355
601.706
651.938
744.321
945.082
1505.35
4006.11
529.738
555.79
588.793
639.842
733.189
935.154
1497.09
3994.83
516.488
542.969
576.622
628.488
722.807
925.99
1489.64
3985.38
503.38
530.232
564.464
617.065
712.264
916.576
1481.83
3974.54
491.049
518.281
553.105
606.463
702.58
908.078
1475.06
3966.06
478.718
506.262
541.588
595.594
692.498
899.028
1467.5
3955.31
467.23
495.107
530.968
585.674
683.447
891.134
1461.35
3947.62
455.587
483.715
520.002
575.266
673.724
882.324
1453.86
3936.67
444.889
473.306
510.075
565.985
665.267
874.999
1448.29
3929.61
433.86
462.471
499.593
555.972
655.834
866.35
1440.78
3918.3
423.921
452.781
490.336
547.312
647.954
859.573
1435.75
3911.71
413.446
442.45
480.292
537.656
638.78
851.059
1428.19
3900.06
404.254
433.47
471.698
529.61
631.47
844.82
1423.67
3893.85
394.279
423.596
462.056
520.29
622.552
836.459
1416.11
3882.02
385.834
415.329
454.132
512.865
615.818
830.756
1412.08
3876.16
376.297
405.861
444.853
503.86
607.162
822.595
1404.64
3864.47
368.608
398.319
437.613
497.072
601.018
817.439
1401.07
3858.92
359.436
389.19
428.646
488.354
592.629
809.532
1393.92
3847.71
352.518
382.391
422.107
482.217
587.082
804.912
1390.71
3842.55
343.615
373.517
413.384
473.745
578.961
797.331
1384.11
3832.1
337.492
367.485
407.567
468.272
574.009
793.221
1381.25
3827.36
328.743
358.759
398.998
459.978
566.129
786.006
1375.26
3817.93
323.446
353.521
393.922
455.177
561.757
782.353
1372.67
3813.38
314.715
344.816
385.392
446.966
554.054
775.492
1367.28
3805.2
310.262
340.38
381.055
442.813
550.207
772.18
1364.88
3801.18
299.731
329.847
370.695
432.808
540.803
763.84
1358.28
3792.26
)
;

boundaryField
{
    frontAndBack
    {
        type            empty;
    }
    inlet
    {
        type            fixedValue;
        value           uniform 14.855;
    }
    outlet
    {
        type            zeroGradient;
    }
    walls
    {
        lowReCorrection 0;
        blending        stepwise;
        n               2;
        type            epsilonWallFunction;
        value           nonuniform List<scalar> 
228
(
112.724
141.424
210.097
257.591
369.051
443.457
614.74
724.904
971.329
1128.61
1109.2
1064.58
1122.2
1210.15
1238.93
1121.32
818.598
1980.08
1980.08
8031.93
19682.4
34077.4
42699.8
45211.8
44225.2
39754.6
34049
29390.3
26035.5
22999.3
20378.2
18167.6
16330.9
14802.4
13525.9
12452
11540.1
10759.3
10084.8
9497.01
8981.64
8527.65
8125.75
7768.46
7449.21
7162.65
6904.58
6671.61
6460.8
6269.66
6096.01
5937.93
5793.68
5661.65
5540.42
5428.75
5325.59
5230.02
5141.3
5058.85
4982.18
4910.89
4844.65
4783.17
4726.15
4673.3
4624.28
4578.82
4536.56
4497.2
4460.41
4425.9
4393.43
4362.74
4333.69
4306.08
4279.89
4254.91
4231.28
4208.73
4187.48
4167.21
4148.2
4130.04
4113.1
4096.86
4081.79
4067.21
4053.83
4040.65
4028.76
4016.69
4006.11
3994.83
3985.38
3974.54
3966.06
3955.31
3947.62
3936.67
3929.61
3918.3
3911.71
3900.06
3893.85
3882.02
3876.16
3864.47
3858.92
3847.71
3842.55
3832.1
3827.36
3817.93
3813.38
3805.2
3801.18
3792.26
105.879
146.647
198.304
265.829
349.96
456.092
585.625
743.683
931.824
1154.04
1464.73
1897.23
2399.11
2961.95
3563.16
4171.89
4745.98
5251.13
5655.16
5950.66
6132.58
6219.65
6207.04
6160.11
6061.22
5927.93
5777.65
5619.24
5459.09
5301.48
5149.37
5004.55
4867.81
4739.89
4620.8
4510.73
4409.16
4316.08
4230.95
4153.63
4083.48
4020.14
3963.07
3911.92
3866.41
3825.92
3790.27
3758.71
3731.37
3707.57
3687.47
3670.22
3655.82
3643.66
3633.73
3625.48
3618.82
3613.31
3608.9
3605.33
3602.52
3600.36
3598.88
3597.85
3597.75
3597.96
3598.55
3599.56
3601.04
3602.36
3604.24
3605.57
3607.29
3608.38
3609.52
3610.15
3610.43
3610.33
3609.95
3609.02
3607.85
3605.52
3603.23
3599.32
3595.65
3590.09
3584.97
3577.79
3571.29
3562.64
3555
3545.16
3536.69
3525.87
3516.77
3505.07
3495.47
3482.91
3472.93
3459.48
3449.27
3434.89
3424.64
3409.27
3399.32
3382.93
3373.59
3356.22
3347.39
3325.25
)
;
    }
}


// ************************************************************************* //
