/*--------------------------------*- C++ -*----------------------------------*\
| =========                 |                                                 |
| \\      /  F ield         | OpenFOAM: The Open Source CFD Toolbox           |
|  \\    /   O peration     | Version:  v2012                                 |
|   \\  /    A nd           | Website:  www.openfoam.com                      |
|    \\/     M anipulation  |                                                 |
\*---------------------------------------------------------------------------*/
FoamFile
{
    version     2.0;
    format      ascii;
    class       volScalarField;
    location    "0.245";
    object      nut.air;
}
// * * * * * * * * * * * * * * * * * * * * * * * * * * * * * * * * * * * * * //

dimensions      [0 2 -1 0 0 0 0];


internalField   nonuniform List<scalar> 
5600
(
2.45163e-05
3.47327e-05
4.04095e-05
4.2465e-05
4.22685e-05
4.09757e-05
3.92008e-05
3.75464e-05
3.61053e-05
3.49521e-05
3.40554e-05
3.34393e-05
3.30372e-05
3.28044e-05
3.26972e-05
3.26608e-05
3.26691e-05
3.27017e-05
3.27318e-05
3.27725e-05
3.27945e-05
3.28262e-05
3.28472e-05
3.28768e-05
3.29122e-05
3.29391e-05
3.29833e-05
3.30079e-05
3.30544e-05
3.30754e-05
3.31155e-05
3.31286e-05
3.31584e-05
3.31641e-05
3.31837e-05
3.31851e-05
3.31975e-05
3.31959e-05
3.32051e-05
3.32004e-05
3.32095e-05
3.32026e-05
3.32125e-05
3.32057e-05
3.3215e-05
3.32112e-05
3.32193e-05
3.3219e-05
3.32254e-05
3.32262e-05
3.32347e-05
3.32327e-05
3.32455e-05
3.32403e-05
3.32567e-05
3.32508e-05
3.32681e-05
3.32646e-05
3.32812e-05
3.32805e-05
3.32982e-05
3.32972e-05
3.33183e-05
3.33152e-05
3.33403e-05
3.33358e-05
3.33634e-05
3.3359e-05
3.3388e-05
3.33833e-05
3.34149e-05
3.34086e-05
3.34445e-05
3.34359e-05
3.34758e-05
3.34643e-05
3.3508e-05
3.34943e-05
3.3542e-05
3.35265e-05
3.35781e-05
3.35619e-05
3.36137e-05
3.36004e-05
3.36454e-05
3.36433e-05
3.36689e-05
3.36969e-05
3.36754e-05
3.37778e-05
3.36451e-05
3.39215e-05
3.35207e-05
3.42244e-05
3.31157e-05
3.50186e-05
3.17555e-05
3.75498e-05
2.6515e-05
4.70482e-05
0.000151536
0.000137717
0.000112042
9.88593e-05
9.36837e-05
9.51056e-05
0.000101996
0.000110166
0.000116447
0.000124266
0.000132753
0.000141181
0.000149509
0.000157234
0.000164431
0.000170989
0.000176755
0.000182138
0.000186711
0.000191129
0.000194934
0.000198642
0.000202084
0.000205333
0.000208535
0.000211257
0.000214148
0.000216438
0.000218974
0.00022082
0.000222897
0.000224326
0.00022598
0.000227119
0.00022844
0.000229382
0.000230467
0.000231238
0.000232187
0.000232795
0.00023367
0.000234157
0.000234965
0.000235399
0.000236127
0.000236592
0.000237218
0.000237682
0.00023824
0.000238637
0.00023921
0.00023948
0.000240106
0.000240271
0.00024092
0.000241057
0.00024167
0.000241831
0.000242395
0.00024257
0.000243142
0.000243255
0.000243882
0.000243915
0.000244593
0.000244582
0.000245271
0.000245242
0.000245941
0.000245867
0.000246613
0.000246472
0.000247296
0.00024708
0.000247974
0.000247677
0.000248632
0.000248252
0.000249288
0.000248827
0.000249955
0.000249435
0.000250591
0.000250068
0.000251146
0.000250726
0.000251559
0.000251504
0.000251716
0.00025267
0.000251363
0.000254607
0.000249937
0.000258107
0.000245985
0.000265492
0.0002357
0.000282362
0.000210304
0.000288198
0.000156399
0.000151894
0.000142607
0.000135759
0.000124648
0.000121207
0.000113506
0.00010974
0.000108812
0.000109555
0.000112912
0.000117229
0.000123754
0.000131398
0.000140132
0.000150583
0.000161282
0.000174059
0.000186908
0.00020188
0.000216972
0.000232839
0.000246114
0.00025826
0.000270268
0.000280808
0.000290843
0.000298092
0.000305764
0.000311501
0.000317916
0.000322842
0.000328417
0.000332782
0.000337546
0.000341371
0.00034552
0.000348799
0.000352567
0.000355346
0.000358835
0.00036125
0.000364424
0.000366689
0.000369462
0.000371636
0.000374009
0.000376013
0.000378209
0.000379863
0.000382092
0.00038338
0.000385664
0.000386698
0.000388903
0.0003899
0.000391908
0.00039292
0.000394783
0.000395691
0.000397599
0.000398285
0.000400285
0.000400763
0.000402793
0.000403172
0.000405172
0.000405482
0.000407497
0.000407658
0.000409768
0.000409729
0.000411982
0.000411762
0.000414161
0.000413727
0.000416269
0.000415547
0.000418302
0.000417261
0.000420308
0.000418952
0.000422293
0.000420592
0.000424263
0.000422078
0.000426189
0.000423406
0.000428097
0.000424614
0.000430143
0.000425537
0.000432674
0.000425793
0.000436292
0.000424767
0.000442288
0.000421392
0.000432282
0.000409227
0.000157674
0.000154367
0.000149614
0.000147385
0.000142116
0.000139633
0.000135433
0.000131273
0.000128661
0.000124264
0.000123506
0.000119719
0.000117355
0.000116075
0.000114967
0.000117424
0.000119144
0.000125257
0.000130842
0.000140021
0.000150145
0.000162209
0.000176544
0.000190768
0.000207624
0.000222905
0.000239448
0.00025212
0.000267182
0.000279265
0.000293497
0.000304987
0.000317996
0.000328985
0.000340779
0.00035104
0.00036189
0.000371226
0.000381456
0.00038978
0.000399317
0.000406706
0.000415461
0.00042208
0.000428546
0.000433986
0.000439608
0.000444532
0.000449847
0.000453938
0.000459292
0.00046262
0.000467958
0.000470839
0.000475818
0.000478657
0.000483157
0.000485951
0.000490182
0.000492631
0.000496969
0.00049893
0.000503374
0.00050496
0.000509328
0.000510761
0.000514996
0.000516262
0.000520511
0.000521437
0.000525835
0.000526355
0.000530936
0.000531124
0.000535903
0.00053571
0.000540716
0.000539937
0.000545301
0.000543873
0.000549749
0.000547677
0.000554162
0.000551309
0.000558604
0.00055457
0.000563015
0.000557414
0.000567436
0.000559858
0.00057215
0.000561722
0.000577481
0.000563011
0.000583238
0.000564323
0.000588474
0.000566818
0.000591895
0.000571652
0.00015794
0.000155016
0.000151182
0.000149614
0.000146358
0.000144627
0.00014266
0.000139836
0.000139106
0.000135815
0.000135023
0.000133018
0.000130264
0.000130323
0.000125606
0.000127297
0.000122508
0.000123105
0.000120153
0.000119981
0.000121076
0.000121172
0.000126714
0.000128711
0.000138434
0.000143279
0.000156389
0.000164501
0.000179864
0.000191136
0.000207802
0.000221695
0.000235914
0.0002475
0.000261181
0.000272964
0.000286669
0.000298072
0.000312008
0.00032299
0.000336866
0.000347671
0.000360981
0.000371946
0.00038411
0.000394861
0.000405946
0.000416056
0.000426815
0.00043554
0.000446518
0.000454024
0.000464866
0.000471718
0.000481941
0.000488746
0.000498121
0.00050475
0.00051361
0.000519563
0.000528587
0.000533566
0.000542646
0.000546942
0.000555756
0.000559725
0.000568207
0.000571782
0.000580198
0.000583163
0.000591756
0.000594043
0.000602791
0.0006046
0.000613473
0.000614687
0.000622885
0.000622824
0.000631394
0.00063041
0.000639523
0.000637734
0.00064755
0.000644813
0.00065558
0.000651432
0.000663364
0.000657562
0.000670766
0.000663334
0.000677977
0.000668876
0.000684949
0.000674823
0.000690791
0.00068223
0.00069449
0.000691302
0.000696639
0.000700413
0.000157989
0.000155186
0.000151666
0.000150066
0.000147606
0.000145683
0.000144796
0.000142017
0.000142018
0.000139594
0.000138629
0.000138226
0.000135121
0.000136937
0.000132351
0.000134816
0.000130851
0.000131551
0.00013019
0.000127466
0.000129898
0.000123579
0.000129693
0.000120783
0.000128822
0.00011966
0.000128649
0.000121963
0.000130877
0.000128754
0.000137459
0.00014019
0.000149817
0.000156005
0.000167407
0.000175469
0.000189519
0.000198592
0.000214831
0.000225297
0.000242627
0.000251663
0.000264348
0.000274544
0.000286631
0.000297764
0.000309856
0.000320689
0.000333799
0.000343386
0.000357502
0.000366305
0.000380669
0.000389637
0.000403288
0.000412862
0.000425681
0.00043516
0.000447734
0.000456146
0.000469169
0.000476534
0.000489635
0.000496397
0.000509074
0.000515697
0.000527915
0.000534138
0.000546542
0.000552202
0.000564868
0.000569744
0.000582363
0.000586768
0.00059941
0.000603319
0.000615986
0.000618917
0.000631579
0.000633628
0.00064625
0.000647899
0.000660446
0.000661914
0.000674302
0.000675468
0.000687232
0.000688515
0.000698948
0.000701234
0.000709786
0.000713613
0.00072027
0.00072592
0.000730406
0.000737672
0.000741336
0.000747015
0.000755774
0.000761348
0.000158016
0.000155178
0.000151925
0.000150041
0.000148168
0.000145824
0.000145492
0.000142722
0.000142635
0.000141076
0.000139342
0.000140178
0.000136475
0.000138883
0.00013478
0.000136668
0.000134296
0.000133681
0.000134593
0.00013034
0.000135178
0.000127018
0.000135658
0.000124248
0.000135326
0.000122584
0.000133812
0.000122418
0.000131091
0.000123664
0.000128664
0.000124247
0.000128276
0.000124318
0.000130514
0.000125316
0.000135215
0.000129823
0.000141403
0.000139136
0.000150168
0.000153145
0.000162363
0.000169827
0.000179354
0.000188385
0.000200443
0.000208728
0.000224764
0.000232106
0.000250201
0.000258304
0.000275956
0.000282435
0.000294881
0.000302987
0.000315186
0.000323563
0.0003367
0.00034401
0.000358273
0.000365266
0.000379778
0.000387166
0.000401126
0.000408949
0.000422811
0.000430443
0.000444902
0.000452167
0.000467007
0.000473849
0.000488439
0.000495063
0.000509585
0.000516014
0.000530642
0.000536476
0.000550788
0.000556111
0.000569856
0.000575305
0.000588762
0.000594566
0.000607808
0.00061388
0.000626146
0.000632713
0.000643257
0.000650664
0.000659625
0.000667773
0.000675823
0.00068454
0.000691967
0.000701051
0.000708797
0.000717195
0.00072714
0.000739151
0.000158063
0.000155087
0.000152116
0.000149922
0.000148419
0.000145899
0.000145582
0.000143207
0.000142529
0.000141847
0.0001394
0.000140796
0.000137165
0.000139081
0.000136158
0.000136706
0.00013595
0.000134069
0.000136104
0.000131366
0.000136504
0.000128605
0.000136922
0.000126338
0.000136557
0.000125297
0.000134961
0.000125744
0.000132076
0.000127081
0.000129708
0.000126707
0.000129781
0.000124335
0.00013137
0.000121398
0.000132764
0.000120541
0.000131662
0.000122725
0.00012872
0.000126709
0.000126842
0.000129032
0.000129885
0.000129667
0.000136961
0.000130873
0.000145365
0.000137955
0.00015294
0.000149606
0.000161843
0.000165338
0.000174964
0.000180549
0.000192107
0.000197486
0.000212673
0.000216842
0.000233315
0.00023928
0.000255739
0.000264085
0.000279854
0.000289162
0.00030569
0.000312284
0.000325238
0.000330558
0.00034376
0.000349481
0.000362436
0.00036865
0.000381619
0.000388599
0.000402039
0.00040925
0.000422435
0.000429734
0.000442089
0.000449981
0.000462087
0.000471008
0.000483471
0.000493354
0.000505494
0.000516025
0.000526854
0.00053771
0.000547864
0.000558833
0.000568995
0.000580544
0.000590614
0.000603473
0.000613529
0.000627865
0.00063861
0.000656413
0.000158124
0.000154979
0.00015223
0.00014987
0.000148422
0.000146102
0.000145373
0.000143633
0.000142331
0.000142144
0.000139612
0.000140655
0.000137913
0.000138626
0.000137112
0.000136422
0.000136611
0.000134392
0.000136203
0.000132425
0.000136064
0.000130318
0.000136093
0.000128524
0.000135564
0.000127711
0.000134051
0.000128106
0.00013155
0.000129048
0.000129726
0.000128324
0.000129994
0.000126125
0.000131046
0.000123827
0.000131615
0.00012306
0.000130068
0.000124646
0.000126725
0.000127325
0.000124084
0.000127271
0.000125681
0.000123402
0.000130342
0.00011877
0.000132822
0.000119593
0.00013054
0.000123971
0.000126761
0.000128406
0.000128258
0.000128122
0.000133226
0.000128441
0.000139545
0.000133092
0.000143142
0.000141031
0.000149038
0.000151235
0.000158543
0.000161168
0.000170676
0.000173843
0.000184888
0.000189127
0.000200502
0.000206661
0.00021778
0.000225098
0.000236557
0.000245021
0.000257972
0.000267715
0.000280865
0.000291101
0.000303498
0.000314395
0.000326938
0.000339013
0.000352845
0.000366304
0.000380516
0.000394643
0.000407951
0.000421795
0.000434082
0.00044807
0.000460542
0.00047514
0.000488274
0.000502735
0.000516151
0.000530945
0.000543805
0.000558233
0.000158176
0.000154908
0.000152257
0.00014991
0.00014828
0.000146353
0.000145118
0.00014389
0.0001423
0.000142066
0.000140027
0.00014023
0.00013856
0.00013821
0.000137588
0.000136356
0.000136678
0.000134825
0.000135774
0.000133459
0.00013503
0.000132061
0.000134485
0.000130741
0.000133843
0.00012982
0.000132808
0.000129547
0.000131223
0.000129678
0.000129918
0.000129067
0.000129555
0.00012795
0.000129415
0.000126739
0.000129458
0.000125697
0.000128841
0.000125901
0.00012684
0.000127242
0.000124767
0.000127285
0.000125162
0.000124704
0.000127644
0.000121609
0.000128523
0.000121912
0.000126148
0.000124676
0.000122715
0.00012633
0.000123219
0.000124073
0.000125683
0.00012178
0.000127411
0.000122679
0.000126011
0.000125147
0.000125292
0.00012725
0.000127333
0.000127603
0.000130143
0.000129812
0.000133328
0.000133874
0.00013719
0.000139787
0.000142835
0.000146632
0.000150357
0.000154786
0.000160369
0.0001664
0.000172989
0.000180013
0.000186901
0.00019504
0.000202756
0.000212069
0.000221871
0.000233214
0.000244707
0.000257674
0.000269416
0.000282634
0.000294524
0.0003085
0.000321538
0.000336464
0.000350568
0.000366117
0.000381341
0.000397753
0.000413573
0.000430127
0.000158202
0.000154885
0.000152232
0.000149974
0.00014814
0.000146502
0.000144983
0.000143923
0.000142402
0.000141829
0.000140364
0.000139899
0.000138835
0.000138074
0.000137609
0.000136448
0.000136515
0.000135049
0.000135453
0.000133923
0.000134325
0.000133037
0.000133236
0.000132165
0.000132384
0.000131159
0.000131755
0.000130192
0.000131043
0.000129495
0.00013022
0.00012893
0.000129308
0.000128664
0.000128235
0.000128264
0.000127836
0.000127117
0.000127882
0.000126283
0.000127082
0.000126542
0.000125661
0.000126709
0.000125233
0.000125507
0.000126193
0.000123778
0.000126629
0.000123684
0.000125277
0.000125266
0.000123271
0.000126185
0.0001237
0.000124922
0.000125443
0.000123842
0.000126702
0.000124827
0.000126337
0.000127017
0.000126574
0.000129092
0.000129079
0.000130624
0.000132477
0.000134028
0.000136678
0.000139059
0.000142127
0.000146001
0.000149441
0.000154561
0.000158871
0.000164828
0.000170553
0.000177892
0.000184918
0.000193201
0.000201316
0.000210709
0.000219808
0.000229943
0.00024034
0.000251723
0.000263573
0.000276297
0.000288813
0.000302002
0.00031474
0.00032872
0.000342323
0.000356981
0.000371378
0.00038642
0.000401804
0.000417666
0.000434135
0.000450904
0.000158208
0.000154884
0.000152197
0.000150009
0.000148053
0.000146536
0.000144931
0.000143839
0.000142486
0.000141593
0.000140516
0.000139669
0.000138847
0.000138012
0.000137404
0.000136508
0.000136212
0.000135078
0.000135157
0.000133897
0.000133952
0.000133124
0.000132589
0.000132505
0.000131446
0.000131619
0.000130797
0.000130396
0.000130463
0.000129165
0.000130051
0.000128327
0.000129141
0.000128221
0.000127729
0.000128315
0.000126813
0.000127669
0.000126764
0.000126693
0.000126737
0.000126215
0.000126407
0.000126158
0.000126257
0.000126118
0.000126671
0.000126221
0.00012721
0.000127105
0.000127803
0.000129056
0.000129084
0.000131608
0.000132365
0.000134841
0.000137315
0.000139954
0.000143888
0.000147545
0.000152257
0.000157567
0.00016307
0.000169932
0.000176746
0.000184513
0.000192609
0.000201308
0.000210436
0.000220084
0.000230182
0.000240799
0.000251728
0.000263276
0.000274915
0.000287198
0.000299466
0.000312525
0.000325446
0.000339034
0.000352521
0.000366476
0.000377519
0.000387688
0.000398093
0.000408696
0.000419971
0.000431461
0.000443318
0.000455343
0.000467606
0.000480357
0.000493214
0.000506768
0.000520375
0.000534647
0.000549023
0.0005639
0.000578525
0.000593144
0.000158208
0.000154879
0.000152166
0.000150005
0.000147984
0.000146508
0.000144856
0.000143734
0.000142441
0.000141384
0.000140475
0.000139403
0.000138719
0.000137766
0.000137109
0.000136309
0.000135743
0.000134872
0.000134593
0.000133567
0.000133393
0.000132607
0.000132014
0.000131905
0.000130703
0.000131094
0.000129799
0.000129955
0.000129356
0.000128643
0.000129074
0.000127571
0.000128492
0.000127244
0.000127498
0.000127554
0.000126821
0.000127916
0.000127001
0.000128278
0.000128219
0.000129472
0.000130744
0.00013223
0.000134963
0.000137288
0.00014135
0.000145185
0.000150455
0.00015618
0.000162737
0.000170325
0.00017806
0.000187113
0.000196261
0.000206407
0.000216978
0.000228141
0.000239928
0.000252099
0.000264795
0.000277895
0.000291332
0.00030521
0.000317304
0.000326996
0.000336673
0.000346581
0.000356604
0.000366784
0.00037717
0.000387602
0.000398193
0.000408802
0.000419533
0.000430322
0.000441153
0.000452191
0.000463141
0.000474319
0.00048538
0.000496513
0.0005076
0.000518771
0.000529987
0.000541183
0.000552506
0.000563708
0.000575002
0.000586066
0.000597136
0.000608155
0.000619048
0.000630079
0.000640759
0.000651632
0.000662176
0.000672789
0.000682899
0.000692804
0.000158203
0.000154855
0.000152124
0.00014994
0.000147882
0.000146385
0.000144669
0.000143526
0.000142153
0.000141049
0.00014008
0.000138893
0.000138204
0.000137071
0.000136414
0.000135479
0.000134777
0.000133954
0.000133332
0.000132473
0.000131956
0.000131183
0.000130526
0.000130088
0.000129049
0.000129059
0.000127863
0.000128073
0.000127343
0.000127341
0.000127404
0.00012727
0.000128542
0.00012915
0.00013154
0.000133917
0.000137469
0.000142193
0.00014734
0.000154419
0.000161506
0.00017038
0.000179482
0.000189791
0.000200867
0.000212443
0.000225143
0.000237971
0.000251831
0.000265868
0.000279396
0.000289793
0.000300404
0.000311352
0.000322198
0.000333379
0.000344525
0.000355836
0.000367194
0.000378593
0.000390059
0.00040153
0.000413062
0.000424595
0.000436116
0.000447759
0.000459381
0.00047101
0.00048252
0.000493954
0.000505227
0.00051636
0.000527397
0.000538188
0.00054899
0.000559515
0.000570004
0.000580347
0.000590568
0.000600692
0.000610643
0.000620461
0.000630128
0.000639763
0.00064936
0.000658814
0.000668198
0.000677417
0.000686618
0.000695539
0.000704389
0.000713039
0.000721486
0.000729859
0.000737855
0.000745834
0.000753533
0.000761039
0.000767867
0.00077434
0.000158185
0.000154794
0.000152011
0.000149742
0.000147608
0.000145982
0.000144132
0.000142854
0.000141253
0.000140026
0.000138777
0.000137442
0.000136511
0.000135108
0.000134288
0.000133014
0.000132072
0.000130881
0.000129774
0.000128725
0.000127691
0.00012699
0.000126172
0.000125664
0.000125408
0.000126167
0.000127353
0.000130161
0.000133636
0.000138984
0.000145406
0.00015335
0.000162531
0.000172682
0.000184237
0.00019643
0.000209865
0.000223955
0.000238839
0.000252191
0.000263637
0.000275682
0.00028751
0.000299848
0.000312063
0.000324376
0.000336817
0.000349037
0.000361498
0.000373711
0.000385988
0.000398247
0.0004104
0.000422498
0.000434291
0.000445996
0.000457357
0.000468577
0.00047952
0.000490267
0.00050082
0.000511162
0.000521356
0.000531342
0.000541169
0.000550921
0.000560601
0.000570096
0.000579427
0.000588605
0.000597603
0.000606427
0.000615128
0.000623576
0.000631925
0.000639957
0.00064788
0.000655569
0.000663111
0.000670468
0.000677669
0.000684708
0.000691545
0.00069826
0.000704826
0.00071128
0.000717667
0.000723912
0.000730142
0.000736149
0.000742148
0.000747939
0.000753613
0.000759174
0.000764574
0.000769896
0.000775024
0.000779911
0.000784258
0.000788377
0.00015812
0.000154614
0.000151608
0.000149123
0.000146616
0.000144605
0.000142255
0.000140493
0.000138248
0.000136561
0.000134734
0.000132793
0.000131102
0.000128914
0.000127546
0.000125666
0.000124186
0.000122477
0.000121939
0.000122162
0.000123922
0.000127128
0.000132201
0.000138967
0.000147611
0.000157925
0.000169809
0.000183149
0.000197672
0.000213353
0.000228885
0.000242221
0.000255551
0.000268955
0.000282409
0.000295666
0.000309061
0.000322219
0.000335348
0.000348387
0.000361146
0.000373883
0.000386075
0.000398124
0.00040956
0.000420738
0.000431519
0.000441914
0.000452099
0.000461854
0.000471372
0.000480606
0.000489586
0.000498339
0.000506783
0.000515073
0.00052304
0.000530851
0.000538384
0.000545725
0.000552854
0.000559771
0.00056652
0.000573065
0.000579464
0.000585677
0.00059178
0.000597729
0.000603561
0.00060926
0.000614852
0.000620299
0.000625698
0.000630416
0.000634848
0.000639122
0.000643337
0.000647426
0.00065143
0.000655358
0.000659174
0.000662947
0.000666615
0.000670235
0.000673793
0.000677268
0.000680721
0.000684048
0.000687399
0.000690595
0.000693845
0.000696941
0.000700058
0.00070308
0.000706043
0.000708985
0.000711831
0.000714663
0.000717338
0.000719933
0.000157856
0.00015393
0.000150104
0.000146718
0.000142536
0.00013939
0.000135164
0.00013194
0.00012809
0.000126107
0.000123518
0.000120706
0.000118681
0.000117721
0.000118662
0.000120952
0.000125627
0.000131847
0.000140426
0.000150789
0.000163404
0.000177709
0.000193318
0.000209804
0.000227087
0.000242476
0.000257111
0.000271504
0.000285505
0.000299203
0.000312259
0.00032502
0.000337178
0.0003489
0.000360114
0.000370831
0.000381185
0.000391011
0.000400419
0.000409342
0.000417801
0.000426102
0.000433002
0.00043923
0.000444989
0.000450518
0.000455774
0.000460739
0.000465585
0.000470134
0.000474595
0.000478842
0.00048295
0.000486946
0.00049076
0.000494517
0.000498099
0.000501622
0.00050501
0.000508318
0.000511531
0.000514651
0.000517706
0.000520671
0.000523576
0.00052641
0.000529182
0.0005319
0.000534552
0.000537152
0.000539695
0.00054218
0.000544625
0.000547001
0.000549341
0.000551598
0.000553828
0.000555976
0.000558089
0.000560147
0.000562155
0.00056414
0.000566073
0.000567987
0.000569866
0.000571704
0.000573532
0.00057529
0.000577075
0.000578768
0.000580517
0.000582158
0.000583847
0.000585454
0.000587067
0.000588636
0.000590183
0.000591677
0.000593045
0.000594327
0.000156649
0.000151194
0.000143359
0.000134626
0.00012606
0.000121027
0.000114959
0.000112562
0.0001124
0.000114239
0.000117929
0.000123479
0.000130612
0.000139102
0.000149088
0.00016012
0.000172635
0.000186179
0.000201299
0.000217278
0.0002335
0.000246947
0.000259666
0.000271873
0.000283088
0.000294116
0.000302625
0.000310058
0.000316728
0.000322892
0.000328595
0.000333967
0.000338902
0.00034351
0.000347789
0.000351743
0.000355493
0.000358954
0.000362263
0.000365373
0.000368306
0.000371151
0.000373792
0.000376372
0.000378734
0.000381017
0.000383163
0.000385186
0.000387161
0.000388997
0.000390812
0.000392529
0.000394202
0.000395828
0.000397379
0.000398917
0.000400376
0.000401824
0.000403209
0.000404571
0.000405892
0.000407178
0.000408441
0.000409666
0.000410871
0.000412049
0.000413205
0.000414345
0.000415462
0.000416562
0.000417643
0.000418705
0.000419752
0.000420774
0.00042179
0.000422773
0.000423749
0.000424683
0.000425612
0.000426508
0.000427391
0.000428265
0.00042912
0.000429971
0.000430806
0.000431627
0.000432445
0.000433233
0.00043404
0.000434806
0.000435608
0.000436353
0.000437142
0.000437877
0.000438641
0.00043936
0.000440095
0.000440767
0.000441351
0.000441841
0.00015163
0.000136801
0.000113482
9.95172e-05
9.75962e-05
9.81398e-05
0.000110563
0.000115058
0.000121805
0.000129701
0.000137965
0.000146246
0.000154205
0.000161683
0.000168585
0.000174817
0.000180499
0.00018556
0.000190205
0.000194419
0.00019834
0.000202068
0.000205554
0.000208851
0.000211869
0.00021468
0.00021731
0.000219724
0.00022189
0.000223826
0.000225511
0.000227025
0.000228352
0.000229556
0.000230633
0.000231599
0.000232495
0.00023329
0.00023405
0.000234737
0.000235392
0.00023601
0.000236588
0.000237184
0.000237722
0.000238269
0.000238767
0.000239247
0.00023971
0.000240134
0.000240563
0.000240956
0.000241352
0.000241733
0.000242102
0.000242476
0.00024283
0.000243194
0.00024354
0.000243893
0.000244234
0.000244572
0.000244911
0.000245239
0.000245566
0.000245888
0.000246207
0.000246524
0.00024684
0.000247154
0.000247464
0.000247776
0.000248086
0.000248395
0.000248708
0.000249016
0.000249325
0.000249622
0.000249922
0.000250209
0.000250498
0.000250782
0.000251064
0.000251347
0.000251624
0.000251898
0.000252171
0.000252436
0.000252708
0.000252969
0.000253244
0.000253505
0.000253782
0.000254047
0.000254321
0.000254586
0.000254853
0.000255079
0.000255292
0.000255457
2.45432e-05
3.47522e-05
4.04104e-05
4.23024e-05
4.20141e-05
4.05605e-05
3.87139e-05
3.70558e-05
3.56101e-05
3.44454e-05
3.3576e-05
3.29769e-05
3.25979e-05
3.23856e-05
3.22865e-05
3.22586e-05
3.22696e-05
3.22979e-05
3.23314e-05
3.23644e-05
3.23939e-05
3.2426e-05
3.24617e-05
3.24993e-05
3.2539e-05
3.25762e-05
3.26141e-05
3.26515e-05
3.2686e-05
3.2717e-05
3.27411e-05
3.27612e-05
3.27746e-05
3.27855e-05
3.27917e-05
3.27958e-05
3.27979e-05
3.27976e-05
3.27974e-05
3.27954e-05
3.27942e-05
3.27926e-05
3.27908e-05
3.27908e-05
3.27898e-05
3.27911e-05
3.27911e-05
3.27925e-05
3.27937e-05
3.27948e-05
3.27969e-05
3.27983e-05
3.28011e-05
3.28038e-05
3.28074e-05
3.28117e-05
3.28163e-05
3.28221e-05
3.28279e-05
3.2835e-05
3.28422e-05
3.28501e-05
3.28588e-05
3.28678e-05
3.28773e-05
3.28872e-05
3.28977e-05
3.29087e-05
3.29202e-05
3.29322e-05
3.29447e-05
3.29578e-05
3.29713e-05
3.29853e-05
3.29998e-05
3.30147e-05
3.303e-05
3.30451e-05
3.30608e-05
3.30763e-05
3.30924e-05
3.31085e-05
3.31251e-05
3.3142e-05
3.3159e-05
3.31761e-05
3.31933e-05
3.32104e-05
3.32279e-05
3.32454e-05
3.32637e-05
3.32816e-05
3.33008e-05
3.33191e-05
3.33395e-05
3.33583e-05
3.33791e-05
3.33995e-05
3.34192e-05
3.34399e-05
1.19331e-06
0.000680864
0.00119282
0.00158306
0.00194001
0.0022204
0.00242669
0.00246843
0.00246066
0.00244597
0.00243005
0.00242145
0.00242519
0.00243904
0.00245896
0.00248386
0.00251309
0.00254645
0.00258617
0.0026303
0.00267866
0.00273167
0.00278671
0.00284415
0.00290796
0.00297377
0.00303877
0.00310367
0.00315947
0.00321105
0.00322639
0.00320626
0.00318038
0.00314853
0.00311006
0.00306667
0.00302032
0.00297034
0.00291619
0.00285985
0.00280311
0.00274569
0.002687
0.00262865
0.00257157
0.00251551
0.00246075
0.00240857
0.00235881
0.00231122
0.00226453
0.00221805
0.00217183
0.00212987
0.00209291
0.00205705
0.00201769
0.00198326
0.00196571
0.00196691
0.00196677
0.00194471
0.00189678
0.0018467
0.00181675
0.00181887
0.00184814
0.00190053
0.00196484
0.00203316
0.00208942
0.00212745
0.00213804
0.00212963
0.0021032
0.002072
0.0020318
0.00199065
0.00193854
0.00188323
0.00181391
0.0017406
0.00165309
0.00156326
0.0014596
0.00135546
0.00123912
0.00112863
0.00101286
0.000912478
0.000811954
0.00072691
0.00063743
0.000555074
0.000470452
0.000395092
0.000331588
0.000274758
0.00023979
0.000193972
0.000172651
0.000438615
0.000876566
0.00126644
0.00161444
0.00189555
0.00210987
0.00225946
0.00236383
0.00236087
0.00234216
0.00233321
0.0023312
0.00233517
0.00234506
0.00236108
0.00238311
0.00241047
0.00244482
0.00248294
0.0025234
0.00256697
0.00261328
0.0026623
0.0027176
0.00277756
0.00284024
0.00290364
0.00297023
0.00303665
0.0031013
0.00308584
0.00306352
0.00303462
0.00299857
0.0029571
0.00291257
0.00286446
0.00281213
0.00275759
0.002703
0.00264812
0.00259221
0.00253705
0.00248377
0.00243199
0.00238213
0.00233562
0.0022921
0.0022508
0.00221051
0.0021706
0.0021307
0.00209402
0.00206188
0.00203152
0.00199865
0.00197022
0.001958
0.00196554
0.00197544
0.001966
0.00192861
0.00188194
0.00184899
0.0018446
0.00186691
0.00191208
0.00196998
0.00203232
0.00208392
0.0021172
0.00212378
0.00211105
0.00208248
0.00205044
0.00201269
0.00197465
0.00192766
0.00187616
0.00181125
0.00173968
0.00165403
0.00156315
0.00145927
0.00135249
0.00123527
0.00112129
0.00100388
0.000898329
0.000794702
0.000703354
0.000611547
0.000526115
0.0004441
0.000371006
0.000311942
0.000258698
0.00022691
0.000185512
0.000473549
0.000384392
0.000566306
0.000876284
0.00120286
0.001483
0.00170565
0.00186985
0.00199082
0.00207778
0.00214309
0.00220048
0.00221772
0.0022229
0.00223401
0.0022524
0.00227727
0.00230746
0.00233981
0.00237364
0.00240847
0.00244521
0.00248488
0.00252741
0.00257428
0.00262618
0.00268308
0.00274102
0.00280781
0.00287644
0.00294321
0.0029338
0.00291618
0.00289131
0.00285871
0.00282007
0.00277826
0.00273292
0.00268327
0.00263138
0.00257977
0.00252832
0.00247608
0.00242499
0.00237652
0.00233014
0.00228648
0.00224712
0.00221153
0.00217822
0.00214603
0.0021144
0.00208256
0.00205263
0.00202643
0.00200257
0.00197764
0.00195698
0.00195149
0.00196573
0.0019854
0.00198867
0.00196309
0.00192158
0.00188672
0.00187562
0.00188995
0.0019264
0.00197623
0.00203075
0.00207595
0.00210272
0.00210375
0.0020853
0.00205361
0.00202018
0.00198487
0.00195029
0.00190907
0.00186217
0.00180251
0.0017335
0.00165035
0.00155894
0.00145506
0.00134591
0.00122783
0.00111068
0.000991566
0.00088116
0.000774223
0.000677022
0.000583041
0.00049573
0.000416702
0.00034655
0.000292027
0.00024261
0.000214023
0.000176908
0.000593068
0.000584499
0.000544295
0.000613981
0.000798168
0.00102113
0.00122945
0.00139928
0.00153386
0.00163937
0.00172265
0.00179664
0.00186256
0.0019246
0.00198658
0.00204991
0.00211373
0.00217273
0.00220959
0.00224626
0.00228363
0.00232222
0.00236329
0.00240654
0.00245175
0.00250012
0.00255273
0.00260568
0.00266452
0.00272659
0.00274277
0.00274099
0.00272976
0.00271057
0.00268305
0.00264878
0.00261121
0.00257012
0.00252462
0.00247676
0.00242951
0.00238285
0.00233564
0.00229003
0.0022479
0.00220859
0.00217303
0.00214295
0.00211756
0.00209448
0.00207252
0.00205125
0.00202951
0.00200809
0.0019892
0.00197301
0.0019576
0.0019467
0.0019496
0.00197095
0.00199964
0.00201481
0.00200157
0.00196681
0.00193147
0.00191381
0.0019192
0.00194521
0.00198495
0.00202933
0.00206579
0.00208365
0.00207705
0.00205111
0.00201517
0.00197977
0.00194694
0.00191619
0.00188136
0.00183984
0.00178623
0.0017206
0.00164059
0.00154925
0.00144564
0.00133457
0.00121579
0.00109607
0.000975418
0.000860889
0.000750737
0.0006487
0.000553029
0.0004653
0.000389455
0.000322771
0.000272395
0.000227015
0.000201592
0.000169067
0.00070022
0.000706291
0.000689439
0.000664843
0.000666008
0.000722832
0.000821005
0.000934925
0.00104672
0.0011495
0.00123846
0.00132131
0.00139902
0.00147361
0.00154785
0.00162324
0.00169865
0.00177581
0.00185108
0.00192466
0.00199648
0.00206554
0.00213156
0.00219444
0.00225353
0.00230811
0.0023586
0.0024024
0.00243937
0.00246955
0.00249032
0.00249809
0.00249551
0.00248443
0.00246449
0.00243712
0.00240633
0.00237195
0.00233297
0.00229145
0.00225076
0.00221103
0.00217096
0.00213304
0.00209962
0.0020699
0.00204524
0.00202736
0.00201504
0.00200487
0.0019956
0.00198694
0.00197736
0.00196621
0.00195603
0.00194875
0.00194433
0.00194499
0.00195777
0.00198638
0.00202272
0.00204779
0.00204608
0.00201889
0.00198448
0.00196069
0.00195632
0.00197
0.00199731
0.00202872
0.00205351
0.00205942
0.00204263
0.00200722
0.00196597
0.00192821
0.00189807
0.00187157
0.00184373
0.00180821
0.00176135
0.00169982
0.00162357
0.00153293
0.00143007
0.00131769
0.00119872