/*--------------------------------*- C++ -*----------------------------------*\
| =========                 |                                                 |
| \\      /  F ield         | OpenFOAM: The Open Source CFD Toolbox           |
|  \\    /   O peration     | Version:  v2012                                 |
|   \\  /    A nd           | Website:  www.openfoam.com                      |
|    \\/     M anipulation  |                                                 |
\*---------------------------------------------------------------------------*/
FoamFile
{
    version     2.0;
    format      ascii;
    class       scalarField;
    location    "0.148/lagrangian/kinematicCloud";
    object      age;
}
// * * * * * * * * * * * * * * * * * * * * * * * * * * * * * * * * * * * * * //


54
(
0.1472
0.1462
0.1451
0.144
0.143
0.142
0.141
0.14
0.1389
0.1378
0.137725
0.1367
0.1356
0.1345
0.1334
0.1323
0.1312
0.1301
0.129
0.128925
0.1279
0.1268
0.1257
0.1246
0.124525
0.1235
0.1224
0.122325
0.1213
0.121225
0.1202
0.1191
0.118
0.1169
0.116825
0.1159
0.1149
0.1139
0.1129
0.1119
0.1109
0.1099
0.1089
0.1079
0.1069
0.1059
0.1049
0.1039
0.1029
0.1019
0.1009
0.0999
0.0989
0.0979
)


// ************************************************************************* //
