/*--------------------------------*- C++ -*----------------------------------*\
| =========                 |                                                 |
| \\      /  F ield         | OpenFOAM: The Open Source CFD Toolbox           |
|  \\    /   O peration     | Version:  v2012                                 |
|   \\  /    A nd           | Website:  www.openfoam.com                      |
|    \\/     M anipulation  |                                                 |
\*---------------------------------------------------------------------------*/
FoamFile
{
    version     2.0;
    format      ascii;
    class       Cloud<basicKinematicParcel>;
    location    "0.148/lagrangian/kinematicCloud";
    object      coordinates;
}
// * * * * * * * * * * * * * * * * * * * * * * * * * * * * * * * * * * * * * //

54
(
(0.0591081 0.144008 0.326438 0.470446) 395 591 2
(0.131015 0.386316 0.434492 0.0481761) 2800 1799 1
(0.541511 0.187803 0.0414413 0.229244) 1199 2198 2
(0.0969038 0.017706 0.433842 0.451548) 597 1194 1
(0.111611 0.444194 0.390811 0.0533835) 1497 2992 2
(0.858841 0.0705796 0.035951 0.0346286) 1197 2195 1
(0.236708 0.381646 0.0766961 0.30495) 69 136 2
(0.30261 0.348695 0.182792 0.165903) 1692 3185 1
(0.0881462 0.0182851 0.437642 0.455927) 1591 3182 1
(0.986193 0.00690367 0.00287128 0.00403239) 794 1588 2
(0.280926 0.289392 0.359537 0.0701454) 894 1789 2
(0.271849 0.364075 0.0920618 0.272013) 592 985 1
(0.131026 0.259214 0.175273 0.434487) 1879 3758 1
(0.397561 0.30122 0.181602 0.119617) 179 159 1
(0.663218 0.168391 0.0991303 0.0692608) 1881 3563 1
(0.00630686 0.389285 0.107562 0.496847) 990 1980 1
(0.251082 0.374459 0.127538 0.246921) 385 770 2
(0.305257 0.0364709 0.310901 0.347372) 1781 3562 1
(0.84815 0.0316381 0.0442871 0.0759252) 587 1174 1
(0.285597 0.179689 0.357201 0.177513) 1585 3171 2
(0.102158 0.391103 0.0578175 0.448921) 1387 2575 2
(0.51706 0.24147 0.177041 0.0644289) 1781 3363 1
(0.143428 0.428286 0.307546 0.120741) 1385 2770 2
(0.604808 0.0975561 0.10004 0.197596) 483 966 1
(0.607258 0.196371 0.187038 0.00933293) 885 1571 1
(0.189252 0.405374 0.347222 0.0581522) 1384 2569 1
(0.275914 0.0890868 0.362043 0.272956) 381 760 1
(0.258426 0.331379 0.039408 0.370787) 1482 2964 1
(0.481746 0.259127 0.104859 0.154268) 175 351 1
(0.0708852 0.219833 0.464557 0.244724) 1481 2963 2
(0.075841 0.46208 0.276549 0.185531) 38 22258 2
(0.512314 0.243843 0.227752 0.016091) 276 552 2
(0.184568 0.394572 0.407716 0.0131437) 1867 3735 2
(0.647375 0.138699 0.176312 0.0376136) 1080 2158 1
(0.146291 0.250733 0.176121 0.426855) 679 1159 2
(0.617828 0.174769 0.191086 0.0163174) 1279 2559 2
(0.42644 0.28678 0.113269 0.173511) 778 1556 2
(0.5157 0.24215 0.0832533 0.158897) 878 1557 1
(0.462289 0.268855 0.0761473 0.192708) 1277 2555 1
(0.394337 0.243505 0.302831 0.0593261) 64 129 2
(0.295767 0.0123709 0.352117 0.339746) 676 1350 1
(0.735764 0.132118 0.107384 0.0247344) 1275 2351 1
(0.166668 0.416666 0.141908 0.274758) 574 1149 1
(0.44816 0.27592 0.237955 0.037965) 573 947 1
(0.235708 0.382146 0.305719 0.0764273) 773 1347 1
(0.342947 0.0276401 0.300887 0.328527) 1172 2344 1
(0.0124498 0.493775 0.37885 0.114926) 1471 2943 1
(0.974637 0.00149286 0.0126816 0.0111888) 971 1940 1
(0.278387 0.149259 0.211547 0.360806) 870 1541 2
(0.280906 0.135789 0.359547 0.223758) 1369 2739 2
(0.0635319 0.468234 0.262725 0.205509) 367 732 2
(0.0253141 0.276012 0.487343 0.211331) 768 1537 2
(0.23651 0.28846 0.381745 0.0932846) 1566 3133 2
(0.0377512 0.481124 0.465964 0.0151603) 263 524 2
)


// ************************************************************************* //
