/*--------------------------------*- C++ -*----------------------------------*\
| =========                 |                                                 |
| \\      /  F ield         | OpenFOAM: The Open Source CFD Toolbox           |
|  \\    /   O peration     | Version:  v2012                                 |
|   \\  /    A nd           | Website:  www.openfoam.com                      |
|    \\/     M anipulation  |                                                 |
\*---------------------------------------------------------------------------*/
FoamFile
{
    version     2.0;
    format      ascii;
    class       vectorField;
    location    "0.105/lagrangian/kinematicCloud";
    object      U;
}
// * * * * * * * * * * * * * * * * * * * * * * * * * * * * * * * * * * * * * //


54
(
(9.41017 -0.000507834 0)
(10.2268 -0.000761959 0)
(10.2332 -0.000690731 0)
(10.1005 -4.92568e-05 0)
(10.0715 -0.00126191 0)
(10.2448 -0.000990693 0)
(6.29196 -0.00153822 0)
(9.61123 -0.00236139 0)
(9.67442 -0.00282952 0)
(10.2347 0.00105982 0)
(10.2604 8.69601e-05 0)
(9.98198 0.00230045 0)
(8.21168 -0.00220533 0)
(8.23897 0.00121977 0)
(8.62107 -0.00178354 0)
(10.2688 -0.000142745 0)
(9.5078 0.00316597 0)
(8.98877 -0.00319793 0)
(10.0668 0.00459086 0)
(9.73001 -0.00523751 0)
(10.2051 -0.00551495 0)
(9.26152 -0.00504194 0)
(10.1829 -0.00607587 0)
(9.92104 0.00472466 0)
(10.2542 0.00246595 0)
(10.2072 -0.00601488 0)
(9.73837 0.00479117 0)
(10.0558 -0.00657512 0)
(8.88176 0.00348895 0)
(9.98849 -0.00658749 0)
(3.33807 -0.000449276 0)
(9.36095 0.00281038 0)
(8.00545 -0.00407644 0)
(10.2478 -0.00189987 0)
(10.1763 0.00512261 0)
(10.2321 -0.00548121 0)
(10.2353 0.00379711 0)
(10.2445 0.00235489 0)
(10.2311 -0.0055476 0)
(8.12302 -7.73137e-05 0)
(10.2277 0.00439941 0)
(10.2382 -0.00496098 0)
(10.1882 0.00531078 0)
(10.133 0.00543001 0)
(10.2348 0.00396842 0)
(10.2408 -0.0039602 0)
(10.1009 -0.00706532 0)
(10.2404 9.27189e-05 0)
(10.2397 0.00240498 0)
(10.2116 -0.00650983 0)
(9.84968 0.00466861 0)
(10.2407 0.00260629 0)
(10.0205 -0.00665341 0)
(9.47025 0.00456493 0)
)


// ************************************************************************* //
