/*--------------------------------*- C++ -*----------------------------------*\
| =========                 |                                                 |
| \\      /  F ield         | OpenFOAM: The Open Source CFD Toolbox           |
|  \\    /   O peration     | Version:  v2012                                 |
|   \\  /    A nd           | Website:  www.openfoam.com                      |
|    \\/     M anipulation  |                                                 |
\*---------------------------------------------------------------------------*/
FoamFile
{
    version     2.0;
    format      ascii;
    class       volScalarField;
    location    "0.333";
    object      epsilon.air;
}
// * * * * * * * * * * * * * * * * * * * * * * * * * * * * * * * * * * * * * //

dimensions      [0 2 -3 0 0 0 0];


internalField   nonuniform List<scalar> 
1900
(
112.724
141.424
210.098
257.591
369.051
443.457
614.74
724.902
971.33
1128.61
15.4676
16.4471
18.6378
20.4499
23.7574
27.7276
32.0002
39.3098
44.9856
56.9767
14.7926
14.6414
14.5755
14.5063
14.515
14.5558
14.6443
14.829
15.0762
15.4173
14.77
14.6304
14.4634
14.3354
14.1726
14.059
13.9039
13.808
13.6653
13.5938
14.7766
14.6216
14.4704
14.3205
14.1747
14.029
13.8889
13.7473
13.6138
13.477
14.7777
14.6205
14.4714
14.3197
14.1754
14.0285
13.8891
13.7473
13.6132
13.4774
14.7777
14.6207
14.4731
14.3235
14.184
14.0451
13.9175
13.7915
13.6807
13.5716
14.7759
14.6503
14.5638
14.5035
14.511
14.5499
14.6403
14.8194
15.0443
15.3955
15.2101
16.6067
18.2734
20.6839
23.5903
27.5759
32.2633
38.4071
45.5641
54.8148
105.906
146.625
198.36
265.811
350.046
456.084
585.705
743.678
931.831
1154.01
4102.35
15195.8
19568
22444.3
21115.5
18031.3
15096.1
12804.2
11300.6
10379.5
9873.42
9695.65
9521.48
9253.82
8849.34
8352.38
7798.45
7211.52
6645.02
6126.87
5649.77
5222.51
4837.92
4486.97
4167.69
3878.19
3615.69
3378.27
3162.67
2966.99
2788.79
2626.09
2477.19
2340.55
2215
2099.39
1992.8
1894.33
1803.19
1718.71
1640.26
1567.3
1499.34
1435.93
1376.66
1321.15
1269.1
1220.18
1174.14
1130.72
1089.7
1050.89
1014.13
979.248
946.113
914.589
884.574
855.943
828.624
802.495
777.514
753.558
730.618
708.565
687.425
667.055
647.524
628.661
610.587
593.086
576.337
560.067
544.523
529.359
514.911
500.74
487.294
474.018
461.5
449.038
437.398
425.684
414.889
403.864
393.893
383.495
374.329
364.486
356.109
346.736
339.134
330.131
323.301
314.557
308.51
299.902
294.669
286.061
281.668
271.301
113
337.671
517.772
922.702
1126.07
1151.46
1123.62
1059.63
1052.52
1091.38
1195.59
1407.57
1694.93
2026.17
2376.75
2690.61
2970.2
3202.38
3356.55
3433.72
3426.3
3387.86
3302.2
3184.56
3056.7
2925.4
2794.59
2667.84
2544.25
2426.8
2314.55
2207.43
2106
2010.03
1919.64
1834.51
1754.55
1679.27
1608.39
1541.66
1478.8
1419.54
1363.66
1310.91
1261.11
1214
1169.43
1127.19
1087.11
1049.02
1012.77
978.228
945.263
913.765
883.642
854.795
827.159
800.645
775.208
750.758
727.275
704.662
682.927
661.962
641.805
622.329
603.613
585.502
568.121
551.273
535.136
519.456
504.473
489.865
475.949
462.317
449.386
436.639
424.624
412.682
401.529
390.326
380
369.476
359.952
350.046
341.305
331.946
323.972
315.077
307.854
299.33
292.852
284.59
278.868
270.75
265.807
257.705
253.574
243.839
16.4228
19.8667
22.8796
29.0903
34.7985
38.763
41.7306
43.8065
46.7257
50.7297
58.7267
70.9143
95.4877
130.103
189.34
266.911
373.521
508.635
665.212
835.378
1004.21
1162.26
1302.11
1419.19
1510.6
1574.16
1612.46
1629.55
1626.8
1615.82
1592.47
1561.82
1527.16
1489.75
1451.16
1411.38
1371.64
1331.42
1291.67
1252.58
1214.16
1176.59
1140.03
1104.53
1070.17
1036.87
1004.74
973.673
943.662
914.665
886.641
859.529
833.291
807.88
783.275
759.427
736.338
713.961
692.308
671.324
651.033
631.372
612.376
593.964
576.195
558.963
542.361
526.249
510.762
495.715
481.293
467.255
453.844
440.749
428.287
416.061
404.483
393.048
382.289
371.572
361.585
351.525
342.278
332.819
324.291
315.378
307.55
299.122
291.982
283.968
277.503
269.82
264.023
256.577
251.454
244.14
239.711
232.419
228.708
219.953
13.4531
13.4606
13.5462
13.8022
14.3332
15.0043
15.7157
16.3396
16.9253
17.347
17.9016
18.3655
19.3028
20.4953
22.7442
26.2131
31.7341
40.7568
54.7045
75.9206
106.189
146.719
198.438
260.224
330.13
405.463
481.363
555.504
623.097
684.878
737.75
781.222
815.323
840.443
858.33
869.159
874.781
874.29
871.729
866.013
857.4
846.809
834.775
821.426
807.15
792.047
776.447
760.261
743.835
727.248
710.522
693.723
676.926
660.169
643.528
626.999
610.682
594.569
578.755
563.206
548.016
533.141
518.657
504.509
490.784
477.396
464.446
451.813
439.634
427.737
416.316
405.133
394.449
383.947
373.965
364.098
354.775
345.479
336.767
327.995
319.867
311.575
304.011
296.159
289.147
281.695
275.23
268.135
262.217
255.435
250.056
243.519
238.675
232.315
228.012
221.751
218.006
211.761
208.59
201.085
13.3297
13.1591
13.0624
13.1164
13.3045
13.7146
14.2835
14.9089
15.4479
15.885
16.2118
16.4487
16.6188
16.7701
16.9065
17.0843
17.3355
17.7172
18.3281
19.2806
20.832
23.2049
26.7522
32.0667
39.7007
50.5472
65.0369
83.7393
106.671
133.911
164.74
198.152
233.288
268.546
303.391
336.104
366.896
394.725
419.445
440.744
458.606
473.037
484.444
492.946
498.951
502.654
504.506
504.246
503.117
500.624
496.875
492.168
486.708
480.557
473.863
466.699
459.222
451.43
443.511
435.404
427.313
419.137
411.023
402.944
395.005
387.131
379.406
371.738
364.254
356.813
349.604
342.405
335.494
328.54
321.931
315.219
308.91
302.441
296.43
290.176
284.451
278.393
272.957
267.084
261.95
256.253
251.439
245.905
241.416
236.02
231.876
226.601
222.82
217.635
214.233
209.097
206.092
200.962
198.368
192.187
13.3249
13.1544
13.0316
13.0862
13.2951
13.7721
14.4962
15.4839
16.5039
17.6057
18.6007
19.5276
20.2684
20.8751
21.293
21.5954
21.7654
21.844
21.8316
21.7892
21.6985
21.6053
21.536
21.5612
21.667
21.9255
22.4687
23.3696
24.8453
27.0505
30.3027
34.7869
40.8375
48.5138
57.9605
69.2168
82.238
96.8163
112.74
129.61
147.073
164.632
181.965
198.662
214.532
229.226
242.786
254.929
265.843
275.461
283.895
291.165
297.395
302.671
307.053
310.633
313.514
315.695
317.342
318.35
319.008
318.992
318.758
318.199
317.164
315.792
314.125
312.181
310.031
307.636
305.107
302.34
299.527
296.421
293.418
290.042
286.886
283.288
280.016
276.24
272.891
268.969
265.59
261.558
258.198
254.089
250.799
246.643
243.469
239.292
236.274
232.09
229.261
225.078
222.467
218.288
215.921
211.745
209.648
204.616
13.4657
13.3602
13.4097
13.656
14.3034
15.6868
18.0248
21.43
25.4036
29.7189
33.6168
37.0835
39.6298
41.5421
42.5918
43.2984
43.3568
43.232
42.9105
42.3842
41.7935
41.1697
40.5175
39.8992
39.3408
38.8711
38.5005
38.2142
38.1058
38.1619
38.3413
38.7538
39.3355
40.3224
41.5625
43.3265
45.5568
48.49
52.1781
56.7749
62.4442
69.2258
77.302
86.5641
97.1512
108.838
121.62
135.228
149.489
164.177
179.001
193.799
208.252
222.284
235.64
248.31
260.127
271.123
281.192
290.382
298.645
306.061
312.57
318.326
323.249
327.458
330.911
333.712
335.84
337.465
338.464
339.104
339.072
338.816
338.255
337.101
335.989
334.137
332.569
330.178
328.219
325.382
323.123
319.925
317.462
313.985
311.405
307.722
305.104
301.284
298.7
294.8
292.308
288.375
286.024
282.097
279.934
276.048
274.13
269.554
15.9085
16.859
18.5484
21.9403
28.3981
39.482
55.4328
74.9828
95.4756
114.31
129.243
140.167
146.598
150.041
150.66
150.265
149.299
147.633
146.181
145.129
144.547
144.731
145.332
146.735
148.901
152.271
156.131
161.173
166.889
173.895
181.655
190.721
200.515
211.654
223.518
236.67
250.651
265.747
281.635
298.224
315.479
333.098
351.23
369.315
387.527
405.302
422.768
439.625
455.923
471.569
486.528
500.76
514.221
526.923
538.821
549.999
560.305
569.867
578.462
586.177
592.845
598.601
603.305
607.073
609.864
611.691
612.641
612.546
612.01
610.77
608.823
606.311
603.452
600.017
596.529
592.352
588.49
583.754
579.597
574.443
570.051
564.574
560.039
554.334
549.764
543.928
539.421
533.533
529.178
523.312
519.185
513.402
509.558
503.897
500.386
494.88
491.775
486.456
483.886
477.929
68.0193
90.4544
126.208
184.899
271.92
385.004
511.507
635.7
744.901
832.031
892.729
932.462
953.381
963.191
964.355
963.157
960.936
957.366
956.379
957.49
960.813
966.577
974.786
986.369
1000.36
1016.74
1034.75
1055.07
1077.27
1101.33
1126.45
1152.56
1179.17
1206.28
1233.33
1260.24
1286.53
1311.96
1336.25
1359.13
1380.86
1400.96
1419.86
1436.99
1452.88
1466.97
1479.86
1491.2
1501.4
1510.18
1517.81
1523.99
1528.99
1532.48
1534.87
1535.73
1535.36
1534.16
1531.62
1527.69
1522.78
1516.73
1509.9
1501.86
1493.35
1483.55
1473.14
1462.11
1450.62
1438.39
1426.15
1413.2
1400.59
1387.21
1374.51
1360.99
1348.46
1335.02
1322.77
1309.48
1297.59
1284.53
1273.11
1260.37
1249.53
1237.22
1227.06
1215.21
1205.8
1194.43
1185.83
1174.92
1167.16
1156.68
1149.78
1139.72
1133.78
1124.14
1119.42
1108.92
1464.6
1897.21
2398.85
2961.92
3563.06
4171.87
4746.23
5251.19
5655.19
5950.93
6132.17
6219.08
6206.55
6159.78
6061.02
5928
5777.93
5619.54
5459.55
5301.81
5149.49
5004.3
4867.57
4739.55
4620.52
4510.53
4409.24
4316.43
4231.48
4154.2
4083.97
4020.57
3963.27
3911.89
3865.91
3825.29
3789.47
3758.21
3730.97
3707.46
3687.46
3670.48
3656.31
3644.18
3634.22
3625.65
3618.8
3612.92
3608.41
3604.66
3602.05
3600.07
3598.88
3598.3
3598.39
3598.75
3599.56
3600.68
3601.94
3603.12
3604.45
3605.54
3606.85
3607.73
3608.83
3609.4
3609.88
3609.84
3609.53
3608.71
3607.52
3605.12
3602.72
3598.72
3594.92
3589.31
3584.23
3577.2
3570.97
3562.64
3555.38
3545.86
3537.7
3527.08
3518.12
3506.42
3496.72
3483.93
3473.64
3459.84
3449.23
3434.52
3423.96
3408.43
3398.32
3381.97
3372.64
3355.49
3346.79
3324.98
1109.74
1064.94
1122.22
1209.97
1238.62
1120.9
818.259
1979.45
54696.2
16173.1
7366.35
6109.25
6232.96
6482.88
6553.28
8026.12
74298.8
43684.8
24859.2
18471.3
16100.3
14998.2
14624.9
19666
76427.3
71038.6
54259.2
41198.1
32685.2
27154.4
24540.7
34054.8
69742.6
75704.8
67741.3
55641.6
44559.2
35836.7
30858.7
42692.8
57771.8
71175.3
67941.5
59036.3
48372.7
38730.3
32780.5
45217.2
47500
61838.7
62493.1
56614.3
47168
38179.8
32455.3
44244.8
39098.6
51827.4
53593.6
49845.9
42402.3
34682.8
29599.6
39778
32627.3
42992.1
44925.7
42138.4
36307.5
30048.2
25828.5
34059.3
27601.5
35623.4
37260.6
35119
30547.3
25561.7
22230.1
29392
23482.8
29584.4
30825.6
29124.8
25534.6
21636.5
19162.7
26029.9
20102.1
24693.6
25574.1
24184.7
21341.2
18299.1
16496.2
22985.6
17365.6
20779.8
21367.5
20208.8
17937.8
15554.1
14263
20358.6
15134.8
17655.6
18020.9
17040.2
15211
13329.6
12424.1
18147.4
13287.4
15147.4
15353.1
14516.2
13029.3
11533.9
10921.1
16314
11728.6
13108.1
13205.2
12488.2
11270.2
10075.3
9687.21
14790.8
10406.7
11438.2
11462.4
10845.7
9840.62
8881.72
8667.81
13520.2
9268.76
10052
10032.6
9499.64
8666.02
7895.01
7818.14
12452.8
8286.97
8890.58
8846.78
8384.84
7690.39
7070.74
7101.78
11546.7
7443.86
7912.66
7854.53
7453.39
6872.31
6375.35
6490.43
10769.6
6716.79
7084.04
7017.96
6668.73
6180.4
5783.21
5965.5
10095.8
6089.89
6378.55
6308.34
6003.21
5591.03
5275.32
5511.59
9506.81
5547.31
5774.69
5702.93
5435.37
5086.13
4837.32
5117.02
8989.53
5073.44
5253.69
5182.55
4947.41
4650.79
4457.45
4772.4
8533.23
4657.33
4801.23
4732.19
4525.19
4272.98
4126.09
4469.88
8128.72
4290.26
4406
4340.04
4157.66
3943.21
3835.54
4203.16
7768.88
3965.04
4058.82
3996.61
3835.87
3653.8
3579.5
3966.96
7447.82
3676.1
3752.49
3694.33
3552.66
3398.51
3352.78
3756.86
7160.35
3418.21
3480.84
3426.89
3302.11
3172.17
3151.06
3569.2
6902.11
3187.33
3238.95
3189.18
3079.38
2970.58
2970.88
3400.92
6669.43
2979.77
3022.59
2976.95
2880.53
2790.31
2808.91
3249.63
6459.22
2792.5
2828.26
2786.65
2702.21
2628.35
2662.94
3113
6268.8
2622.96
2653.07
2615.34
2541.67
2482.28
2530.96
2989.15
6095.77
2468.92
2494.53
2460.52
2396.58
2350.06
2411.22
2876.5
5938.01
2328.58
2350.6
2320.17
2265.03
2229.99
2302.26
2773.74
5793.7
2200.38
2219.57
2192.55
2145.37
2120.63
2202.82
2679.74
5661.28
2083.01
2099.97
2076.19
2036.24
2020.75
2111.83
2593.53
5539.41
1975.32
1990.54
1969.83
1936.47
1929.31
2028.39
2514.32
5426.99
1876.28
1890.17
1872.38
1845.03
1845.43
1951.69
2441.4
5323.14
1785.01
1797.92
1782.9
1761.05
1768.2
1881.13
2374.2
5227.11
1700.74
1712.94
1700.54
1683.74
1697.01
1816.03
2312.16
5138.27
1622.77
1634.5
1624.58
1612.41
1631.28
1755.87
2254.83
5056.08
1550.48
1561.92
1554.35
1546.46
1570.45
1700.16
2201.78
4980.1
1483.33
1494.62
1489.28
1485.33
1514.05
1648.47
2152.63
4909.83
1420.83
1432.09
1428.85
1428.56
1461.63
1600.42
2107.01
4844.84
1362.52
1373.86
1372.62
1375.69
1412.84
1555.66
2064.6
4784.67
1308.03
1319.52
1320.17
1326.35
1367.31
1513.89
2025.1
4728.88
1257
1268.7
1271.15
1280.25
1324.75
1474.83
1988.25
4677.02
1209.13
1221.09
1225.25
1237.08
1284.88
1438.23
1953.77
4628.68
1164.13
1176.41
1182.2
1196.6
1247.46
1403.87
1921.48
4583.45
1121.76
1134.4
1141.75
1158.56
1212.29
1371.57
1891.15
4540.99
1081.81
1094.85
1103.7
1122.76
1179.18
1341.15
1862.64
4501.03
1044.08
1057.56
1067.84
1089.04
1147.96
1312.46
1835.78
4463.28
1008.4
1022.35
1034
1057.22
1118.5
1285.38
1810.47
4427.6
974.609
989.061
1002.03
1027.15
1090.66
1259.78
1786.57
4393.81
942.566
957.539
971.789
998.71
1064.32
1235.57
1764.04
4361.85
912.148
927.661
943.144
971.775
1039.37
1212.64
1742.74
4331.62
883.219
899.289
915.965
946.231
1015.71
1190.93
1722.64
4303.08
855.69
872.331
890.161
921.983
993.259
1170.33
1703.65
4276.22
829.431
846.655
865.607
898.925
971.92
1150.79
1685.73
4250.92
804.387
822.202
842.242
876.994
951.633
1132.23
1668.8
4227.23
780.429
798.842
819.944
856.079
932.304
1114.59
1652.81
4204.93
757.537
776.553
798.689
836.156
913.906
1097.83
1637.73
4184.17
735.576
755.197
778.341
817.098
896.324
1081.86
1623.45
4164.56
714.567
734.796
758.924
798.927
879.578
1066.68
1610
4146.36
694.355
715.187
740.273
781.483
863.516
1052.15
1597.21
4129.03
675.01
696.444
722.465
764.845
848.211
1038.35
1585.17
4113.02
656.345
678.368
705.295
748.805
833.461
1025.08
1573.67
4097.56
638.486
661.092
688.901
733.505
819.411
1012.48
1562.83
4083.34
621.196
644.363
673.018
718.672
805.783
1000.26
1552.39
4069.34
604.666
628.384
657.862
704.533
792.813
988.672
1542.56
4056.56
588.596
612.834
643.09
690.728
780.129
977.334
1532.98
4043.67
573.255
598.001
629.016
677.595
768.085
966.601
1523.98
4032.03
558.264
583.478
615.199
664.659
756.182
955.967
1515.05
4019.94
543.99
569.663
602.077
652.402
744.937
945.965
1506.75
4009.2
529.954
556.038
589.083
640.202
733.677
935.886
1498.31
3997.6
516.647
543.14
576.813
628.724
723.138
926.523
1490.6
3987.6
503.465
530.31
564.54
617.158
712.418
916.884
1482.49
3976.19
491.052
518.259
553.057
606.4
702.532
908.113
1475.32
3966.82
478.644
506.147
541.429
595.395
692.277
898.832
1467.43
3955.4
467.079
494.901
530.697
585.33
683.027
890.648
1460.81
3946.66
455.382
483.449
519.66
574.834
673.186
881.668
1453.07
3935.1
444.638
472.985
509.664
565.458
664.583
874.103
1447.07
3927.08
433.597
462.141
499.172
555.429
655.119
865.386
1439.41
3915.38
423.656
452.448
489.908
546.748
647.186
858.488
1434.12
3908.22
413.212
442.157
479.913
537.147
638.066
850.01
1426.55
3896.5
404.059
433.224
471.375
529.163
630.819
843.819
1422.02
3890.27
394.144
423.423
461.82
519.946
622.018
835.584
1414.6
3878.81
385.764
415.237
453.997
512.65
615.45
830.088
1410.81
3873.39
376.294
405.85
444.819
503.771
606.952
822.136
1403.7
3862.55
368.676
398.398
437.697
497.142
601.025
817.264
1400.43
3857.64
359.554
389.333
428.814
488.538
592.799
809.619
1393.84
3847.67
352.695
382.613
422.383
482.556
587.475
805.309
1390.96
3843.19
343.813
373.768
413.704
474.151
579.47
797.956
1384.94
3833.99
337.723
367.784
407.961
468.794
574.7
794.118
1382.35
3829.79
328.96
359.046
399.383
460.504
566.856
787.025
1376.78
3821.15
323.666
353.816
394.329
455.746
562.567
783.518
1374.35
3817.04
314.894
345.064
385.745
447.48
554.822
776.666
1369.15
3808.93
310.413
340.594
381.367
443.28
550.924
773.313
1366.73
3804.8
299.804
329.962
370.879
433.113
541.324
764.753
1359.89
3795.24
)
;

boundaryField
{
    frontAndBack
    {
        type            empty;
    }
    inlet
    {
        type            fixedValue;
        value           uniform 14.855;
    }
    outlet
    {
        type            zeroGradient;
    }
    walls
    {
        lowReCorrection 0;
        blending        stepwise;
        n               2;
        type            epsilonWallFunction;
        value           nonuniform List<scalar> 
228
(
112.724
141.424
210.098
257.591
369.051
443.457
614.74
724.902
971.33
1128.61
1109.74
1064.94
1122.22
1209.97
1238.62
1120.9
818.259
1979.45
1979.45
8026.12
19666
34054.8
42692.8
45217.2
44244.8
39778
34059.3
29392
26029.9
22985.6
20358.6
18147.4
16314
14790.8
13520.2
12452.8
11546.7
10769.6
10095.8
9506.81
8989.53
8533.23
8128.72
7768.88
7447.82
7160.35
6902.11
6669.43
6459.22
6268.8
6095.77
5938.01
5793.7
5661.28
5539.41
5426.99
5323.14
5227.11
5138.27
5056.08
4980.1
4909.83
4844.84
4784.67
4728.88
4677.02
4628.68
4583.45
4540.99
4501.03
4463.28
4427.6
4393.81
4361.85
4331.62
4303.08
4276.22
4250.92
4227.23
4204.93
4184.17
4164.56
4146.36
4129.03
4113.02
4097.56
4083.34
4069.34
4056.56
4043.67
4032.03
4019.94
4009.2
3997.6
3987.6
3976.19
3966.82
3955.4
3946.66
3935.1
3927.08
3915.38
3908.22
3896.5
3890.27
3878.81
3873.39
3862.55
3857.64
3847.67
3843.19
3833.99
3829.79
3821.15
3817.04
3808.93
3804.8
3795.24
105.906
146.625
198.36
265.811
350.046
456.084
585.705
743.678
931.831
1154.01
1464.6
1897.21
2398.85
2961.92
3563.06
4171.87
4746.23
5251.19
5655.19
5950.93
6132.17
6219.08
6206.55
6159.78
6061.02
5928
5777.93
5619.54
5459.55
5301.81
5149.49
5004.3
4867.57
4739.55
4620.52
4510.53
4409.24
4316.43
4231.48
4154.2
4083.97
4020.57
3963.27
3911.89
3865.91
3825.29
3789.47
3758.21
3730.97
3707.46
3687.46
3670.48
3656.31
3644.18
3634.22
3625.65
3618.8
3612.92
3608.41
3604.66
3602.05
3600.07
3598.88
3598.3
3598.39
3598.75
3599.56
3600.68
3601.94
3603.12
3604.45
3605.54
3606.85
3607.73
3608.83
3609.4
3609.88
3609.84
3609.53
3608.71
3607.52
3605.12
3602.72
3598.72
3594.92
3589.31
3584.23
3577.2
3570.97
3562.64
3555.38
3545.86
3537.7
3527.08
3518.12
3506.42
3496.72
3483.93
3473.64
3459.84
3449.23
3434.52
3423.96
3408.43
3398.32
3381.97
3372.64
3355.49
3346.79
3324.98
)
;
    }
}


// ************************************************************************* //
