/*--------------------------------*- C++ -*----------------------------------*\
| =========                 |                                                 |
| \\      /  F ield         | OpenFOAM: The Open Source CFD Toolbox           |
|  \\    /   O peration     | Version:  v2012                                 |
|   \\  /    A nd           | Website:  www.openfoam.com                      |
|    \\/     M anipulation  |                                                 |
\*---------------------------------------------------------------------------*/
FoamFile
{
    version     2.0;
    format      ascii;
    class       volScalarField;
    location    "0.002";
    object      k.air;
}
// * * * * * * * * * * * * * * * * * * * * * * * * * * * * * * * * * * * * * //

dimensions      [0 2 -2 0 0 0 0];


internalField   nonuniform List<scalar> 
1900
(
0.491429
0.632891
0.748091
0.952099
1.09995
1.36577
1.59343
1.88584
2.11794
2.34451
0.440393
0.423633
0.408446
0.39507
0.38262
0.373953
0.361421
0.356201
0.345902
0.342487
0.44053
0.423133
0.407061
0.392025
0.377445
0.365558
0.351586
0.343985
0.332155
0.326034
0.440498
0.423207
0.406954
0.392134
0.377332
0.365446
0.35184
0.343073
0.333083
0.324459
0.44052
0.423174
0.406988
0.39207
0.377443
0.36521
0.352238
0.342414
0.33366
0.323669
0.440535
0.423153
0.407014
0.392013
0.377544
0.365006
0.35253
0.341967
0.333894
0.323416
0.440562
0.423128
0.407028
0.391987
0.377572
0.364928
0.352624
0.341787
0.333933
0.323264
0.440568
0.423136
0.40702
0.39196
0.377577
0.36507
0.35254
0.342484
0.333886
0.324975
0.440444
0.423914
0.407996
0.395877
0.383386
0.375232
0.369312
0.370807
0.378034
0.396067
0.499177
0.619669
0.764378
0.931472
1.11896
1.34815
1.60098
1.88401
2.13701
2.36764
2.03887
0.83724
0.531667
0.466952
0.444576
0.414332
0.373488
0.340574
0.319888
0.308802
0.303535
0.301267
0.300367
0.300036
0.299923
0.299887
0.299877
0.299875
0.299875
0.299876
0.299876
0.299876
0.299876
0.299876
0.299876
0.299877
0.299877
0.299877
0.299877
0.299877
0.299877
0.299877
0.299877
0.299877
0.299877
0.299877
0.299877
0.299877
0.299877
0.299877
0.299877
0.299877
0.299877
0.299877
0.299877
0.299877
0.299877
0.299877
0.299877
0.299877
0.299877
0.299877
0.299877
0.299877
0.299877
0.299877
0.299877
0.299877
0.299877
0.299877
0.299877
0.299877
0.299877
0.299877
0.299877
0.299877
0.299877
0.299877
0.299877
0.299877
0.299877
0.299877
0.299877
0.299877
0.299877
0.299877
0.299877
0.299877
0.299877
0.299877
0.299877
0.299877
0.299877
0.299877
0.299877
0.299877
0.299877
0.299877
0.299877
0.299877
0.299877
0.299877
0.299877
0.299877
0.299877
0.299877
0.299877
0.299877
0.299877
0.299878
0.349666
0.367154
0.411197
0.421388
0.417607
0.405695
0.37075
0.339191
0.319324
0.308639
0.30353
0.3013
0.300396
0.300051
0.299926
0.299883
0.299869
0.299864
0.299863
0.299863
0.299863
0.299863
0.299863
0.299863
0.299863
0.299863
0.299863
0.299863
0.299863
0.299863
0.299863
0.299863
0.299863
0.299863
0.299863
0.299863
0.299863
0.299863
0.299863
0.299863
0.299863
0.299863
0.299863
0.299863
0.299864
0.299864
0.299864
0.299864
0.299864
0.299864
0.299864
0.299864
0.299864
0.299864
0.299864
0.299863
0.299863
0.299863
0.299863
0.299863
0.299864
0.299864
0.299863
0.299863
0.299863
0.299863
0.299863
0.299863
0.299863
0.299863
0.299863
0.299863
0.299863
0.299863
0.299863
0.299863
0.299863
0.299863
0.299863
0.299863
0.299863
0.299863
0.299863
0.299863
0.299863
0.299863
0.299863
0.299863
0.299863
0.299863
0.299863
0.299863
0.299863
0.299863
0.299863
0.299863
0.299863
0.299863
0.299863
0.299863
0.329526
0.346788
0.389401
0.404888
0.401082
0.386517
0.356014
0.331425
0.315692
0.307091
0.302918
0.301074
0.300318
0.300026
0.299919
0.299881
0.299868
0.299864
0.299863
0.299863
0.299863
0.299863
0.299863
0.299863
0.299863
0.299863
0.299863
0.299863
0.299862
0.299862
0.299863
0.299863
0.299863
0.299863
0.299863
0.299863
0.299863
0.299863
0.299863
0.299863
0.299863
0.299863
0.299863
0.299863
0.299863
0.299863
0.299863
0.299863
0.299863
0.299863
0.299863
0.299863
0.299863
0.299863
0.299863
0.299863
0.299863
0.299863
0.299863
0.299863
0.299863
0.299863
0.299863
0.299863
0.299863
0.299863
0.299863
0.299863
0.299863
0.299863
0.299863
0.299863
0.299863
0.299863
0.299863
0.299863
0.299863
0.299863
0.299863
0.299863
0.299863
0.299863
0.299863
0.299863
0.299863
0.299863
0.299863
0.299863
0.299863
0.299863
0.299863
0.299863
0.299863
0.299863
0.299863
0.299863
0.299863
0.299863
0.299863
0.299863
0.325729
0.336479
0.366952
0.388779
0.386802
0.375437
0.347803
0.326053
0.312701
0.305641
0.302288
0.300823
0.300224
0.299993
0.299907
0.299877
0.299866
0.299863
0.299862
0.299862
0.299862
0.299862
0.299862
0.299862
0.299862
0.299862
0.299862
0.299862
0.299862
0.299862
0.299862
0.299862
0.299862
0.299862
0.299862
0.299862
0.299862
0.299862
0.299862
0.299862
0.299862
0.299862
0.299862
0.299862
0.299862
0.299862
0.299862
0.299862
0.299862
0.299862
0.299862
0.299862
0.299862
0.299862
0.299862
0.299862
0.299862
0.299862
0.299862
0.299862
0.299862
0.299862
0.299862
0.299862
0.299862
0.299862
0.299862
0.299862
0.299862
0.299862
0.299862
0.299862
0.299862
0.299862
0.299862
0.299862
0.299862
0.299862
0.299862
0.299862
0.299862
0.299862
0.299862
0.299862
0.299862
0.299862
0.299862
0.299862
0.299862
0.299862
0.299862
0.299862
0.299862
0.299862
0.299862
0.299862
0.299862
0.299862
0.299862
0.299862
0.323472
0.331314
0.35762
0.381762
0.380744
0.370467
0.344009
0.323588
0.311321
0.304956
0.301979
0.300694
0.300173
0.299973
0.299899
0.299873
0.299864
0.299861
0.299861
0.299861
0.299861
0.299861
0.299861
0.299861
0.299861
0.299861
0.299861
0.299861
0.299861
0.299861
0.299861
0.299861
0.299861
0.299861
0.299861
0.299861
0.299861
0.299861
0.299861
0.299861
0.299861
0.299861
0.299861
0.299861
0.299861
0.299861
0.299861
0.299861
0.299861
0.299861
0.299861
0.299861
0.299861
0.299861
0.299861
0.299861
0.299861
0.299861
0.299861
0.299861
0.299861
0.299861
0.299861
0.299861
0.299861
0.299861
0.299861
0.299861
0.299861
0.299861
0.299861
0.299861
0.299861
0.299861
0.299861
0.299861
0.299861
0.299861
0.299861
0.299861
0.299861
0.299861
0.299861
0.299861
0.299861
0.299861
0.299861
0.299861
0.299861
0.299861
0.299861
0.299861
0.299861
0.299861
0.299861
0.299861
0.299861
0.299861
0.299861
0.299861
0.321793
0.327327
0.350247
0.378515
0.378512
0.368718
0.341727
0.321629
0.310078
0.30431
0.301684
0.300569
0.300123
0.299952
0.29989
0.299868
0.29986
0.299857
0.299857
0.299857
0.299857
0.299857
0.299857
0.299857
0.299857
0.299857
0.299857
0.299857
0.299857
0.299857
0.299857
0.299857
0.299857
0.299857
0.299857
0.299857
0.299857
0.299857
0.299857
0.299857
0.299857
0.299857
0.299857
0.299857
0.299857
0.299857
0.299857
0.299857
0.299857
0.299857
0.299857
0.299857
0.299857
0.299857
0.299857
0.299857
0.299857
0.299857
0.299857
0.299857
0.299857
0.299857
0.299857
0.299857
0.299857
0.299857
0.299857
0.299857
0.299857
0.299857
0.299857
0.299857
0.299857
0.299857
0.299857
0.299857
0.299857
0.299857
0.299857
0.299857
0.299857
0.299857
0.299857
0.299857
0.299857
0.299857
0.299857
0.299857
0.299857
0.299857
0.299857
0.299857
0.299857
0.299857
0.299857
0.299857
0.299857
0.299857
0.299857
0.299857
0.320982
0.326141
0.349733
0.386898
0.387736
0.375421
0.34379
0.321827
0.309848
0.304099
0.301558
0.300505
0.30009
0.299934
0.299877
0.299857
0.29985
0.299848
0.299848
0.299848
0.299848
0.299848
0.299848
0.299848
0.299848
0.299848
0.299848
0.299848
0.299848
0.299848
0.299848
0.299848
0.299848
0.299848
0.299848
0.299848
0.299848
0.299848
0.299848
0.299848
0.299848
0.299848
0.299848
0.299848
0.299848
0.299848
0.299848
0.299848
0.299848
0.299848
0.299848
0.299848
0.299848
0.299848
0.299848
0.299848
0.299848
0.299848
0.299848
0.299848
0.299848
0.299848
0.299848
0.299848
0.299848
0.299848
0.299848
0.299848
0.299848
0.299848
0.299848
0.299848
0.299848
0.299848
0.299848
0.299848
0.299848
0.299848
0.299848
0.299848
0.299848
0.299848
0.299848
0.299848
0.299848
0.299848
0.299848
0.299848
0.299848
0.299848
0.299848
0.299848
0.299848
0.299848
0.299848
0.299848
0.299848
0.299848
0.299848
0.299848
0.325594
0.338381
0.392685
0.452612
0.451433
0.42102
0.36484
0.330236
0.313005
0.30534
0.302125
0.300828
0.300319
0.300122
0.300047
0.300017
0.300006
0.300001
0.299999
0.299998
0.299997
0.299997
0.299997
0.299997
0.299997
0.299997
0.299997
0.299997
0.299997
0.299997
0.299997
0.299997
0.299997
0.299997
0.299997
0.299997
0.299997
0.299997
0.299997
0.299997
0.299997
0.299997
0.299997
0.299997
0.299997
0.299997
0.299997
0.299997
0.299997
0.299997
0.299997
0.299997
0.299997
0.299997
0.299997
0.299997
0.299997
0.299997
0.299997
0.299997
0.299997
0.299997
0.299997
0.299997
0.299997
0.299997
0.299997
0.299997
0.299997
0.299997
0.299997
0.299997
0.299997
0.299997
0.299997
0.299997
0.299997
0.299997
0.299997
0.299997
0.299997
0.299997
0.299997
0.299997
0.299997
0.299997
0.299997
0.299997
0.299997
0.299997
0.299997
0.299997
0.299997
0.299997
0.299997
0.299997
0.299997
0.299998
0.299998
0.300002
0.444647
0.55129
0.774385
0.836573
0.800088
0.66375
0.505334
0.406191
0.354744
0.331999
0.322094
0.317739
0.315763
0.314826
0.314365
0.314138
0.314046
0.314005
0.313979
0.313961
0.313948
0.31394
0.313935
0.313932
0.31393
0.313929
0.313928
0.313928
0.313928
0.313928
0.313928
0.313928
0.313928
0.313928
0.313928
0.313928
0.313928
0.313928
0.313928
0.313928
0.313928
0.313928
0.313928
0.313928
0.313928
0.313928
0.313928
0.313928
0.313928
0.313928
0.313928
0.313928
0.313928
0.313928
0.313928
0.313928
0.313928
0.313928
0.313928
0.313928
0.313928
0.313928
0.313928
0.313928
0.313928
0.313928
0.313928
0.313928
0.313928
0.313928
0.313928
0.313928
0.313928
0.313928
0.313928
0.313928
0.313928
0.313928
0.313928
0.313928
0.313928
0.313928
0.313928
0.313928
0.313928
0.313928
0.313928
0.313928
0.313928
0.313928
0.313928
0.313929
0.313929
0.313931
0.313933
0.313937
0.313947
0.313966
0.313997
0.314213
2.59367
2.66499
2.63589
2.50169
2.15219
1.83915
1.63131
1.51622
1.45855
1.43025
1.41807
1.41354
1.41199
1.41143
1.41114
1.41092
1.41073
1.41058
1.41048
1.41042
1.41039
1.41037
1.41036
1.41035
1.41034
1.41034
1.41034
1.41034
1.41034
1.41034
1.41034
1.41034
1.41034
1.41034
1.41034
1.41034
1.41034
1.41033
1.41033
1.41033
1.41033
1.41033
1.41033
1.41033
1.41033
1.41033
1.41033
1.41033
1.41033
1.41033
1.41033
1.41033
1.41033
1.41033
1.41033
1.41033
1.41033
1.41033
1.41033
1.41033
1.41033
1.41033
1.41033
1.41033
1.41033
1.41033
1.41033
1.41033
1.41033
1.41033
1.41033
1.41033
1.41033
1.41033
1.41033
1.41033
1.41033
1.41033
1.41033
1.41033
1.41033
1.41033
1.41033
1.41034
1.41034
1.41034
1.41034
1.41033
1.41033
1.41033
1.41033
1.41033
1.41033
1.41033
1.41033
1.41033
1.41032
1.4103
1.41028
1.41015
1.40588
0.652857
0.730472
0.986926
1.11645
1.11472
0.729566
0.64486
1.36421
1.48501
1.82014
2.50816
4.05585
3.02137
1.93075
1.04495
0.82756
1.27111
1.53844
1.811
2.48528
2.95262
2.73768
1.25101
0.568428
0.774114
1.10909
1.33629
2.00369
2.60345
2.41747
1.04874
0.487951
0.566733
0.738817
1.05257
1.87408
2.07183
1.68124
0.944512
0.430677
0.468352
0.57668
0.955953
1.41656
1.38117
1.00894
1.00478
0.381816
0.406907
0.488525
0.745327
0.898402
0.837528
0.64066
1.18012
0.345904
0.363996
0.421005
0.540419
0.577433
0.533299
0.464673
1.39205
0.323225
0.33491
0.366981
0.410967
0.416442
0.393542
0.386615
1.58371
0.310646
0.317144
0.331847
0.345752
0.34529
0.335895
0.353617
1.72817
0.30443
0.307576
0.313362
0.317306
0.316508
0.313456
0.34088
1.82454
0.301654
0.303007
0.305052
0.306077
0.305649
0.305085
0.336412
1.88396
0.30052
0.301047
0.301716
0.301959
0.301777
0.302065
0.33505
1.91878
0.300092
0.300278
0.300484
0.300532
0.300456
0.301008
0.334743
1.93853
0.299942
0.299999
0.300058
0.30006
0.300021
0.300647
0.33474
1.9495
0.299894
0.299903
0.299917
0.299909
0.299882
0.300525
0.334782
1.95551
0.299881
0.299872
0.299873
0.299862
0.299838
0.300485
0.334838
1.95878
0.299878
0.299863
0.299859
0.299848
0.299825
0.300472
0.334874
1.96055
0.299878
0.299861
0.299855
0.299844
0.299821
0.300467
0.334896
1.9615
0.299878
0.29986
0.299854
0.299843
0.29982
0.300466
0.334909
1.96201
0.299878
0.29986
0.299854
0.299843
0.29982
0.300465
0.334916
1.96229
0.299879
0.29986
0.299854
0.299843
0.29982
0.300465
0.33492
1.96243
0.299879
0.29986
0.299854
0.299843
0.29982
0.300465
0.334922
1.96251
0.299879
0.299861
0.299854
0.299843
0.29982
0.300466
0.334924
1.96255
0.299879
0.299861
0.299854
0.299843
0.29982
0.300466
0.334924
1.96257
0.299879
0.299861
0.299855
0.299843
0.29982
0.300466
0.334925
1.96259
0.299879
0.299861
0.299855
0.299843
0.29982
0.300466
0.334925
1.96259
0.299879
0.299861
0.299855
0.299843
0.29982
0.300466
0.334925
1.96259
0.29988
0.299861
0.299855
0.299843
0.29982
0.300466
0.334925
1.96259
0.29988
0.299861
0.299855
0.299843
0.29982
0.300466
0.334926
1.96259
0.29988
0.299861
0.299855
0.299843
0.29982
0.300466
0.334926
1.96259
0.29988
0.299861
0.299855
0.299843
0.29982
0.300466
0.334926
1.96259
0.29988
0.299861
0.299855
0.299843
0.29982
0.300466
0.334926
1.96259
0.29988
0.299861
0.299855
0.299843
0.29982
0.300466
0.334926
1.96259
0.29988
0.299861
0.299855
0.299843
0.29982
0.300466
0.334926
1.96259
0.29988
0.299861
0.299855
0.299843
0.29982
0.300466
0.334926
1.96259
0.29988
0.29986
0.299855
0.299843
0.29982
0.300466
0.334926
1.96259
0.29988
0.299861
0.299855
0.299843
0.29982
0.300466
0.334926
1.96259
0.29988
0.299861
0.299855
0.299843
0.29982
0.300466
0.334926
1.96259
0.29988
0.299861
0.299855
0.299843
0.29982
0.300466
0.334926
1.96259
0.29988
0.299861
0.299855
0.299843
0.29982
0.300466
0.334926
1.96259
0.29988
0.299861
0.299855
0.299843
0.29982
0.300466
0.334926
1.96259
0.29988
0.299861
0.299855
0.299843
0.29982
0.300466
0.334926
1.96259
0.29988
0.299861
0.299855
0.299843
0.29982
0.300466
0.334926
1.96259
0.29988
0.299861
0.299855
0.299843
0.29982
0.300466
0.334926
1.96259
0.29988
0.299861
0.299855
0.299843
0.29982
0.300466
0.334926
1.96259
0.29988
0.299861
0.299855
0.299843
0.29982
0.300466
0.334926
1.96259
0.29988
0.299861
0.299855
0.299843
0.29982
0.300466
0.334926
1.96259
0.29988
0.299861
0.299855
0.299843
0.29982
0.300466
0.334926
1.96259
0.29988
0.299861
0.299855
0.299843
0.29982
0.300466
0.334926
1.96259
0.29988
0.299861
0.299855
0.299843
0.29982
0.300466
0.334926
1.96259
0.29988
0.299861
0.299855
0.299843
0.29982
0.300466
0.334926
1.96259
0.29988
0.299861
0.299855
0.299843
0.29982
0.300466
0.334926
1.96259
0.29988
0.299861
0.299855
0.299843
0.29982
0.300466
0.334926
1.96259
0.29988
0.299861
0.299855
0.299843
0.29982
0.300466
0.334926
1.96259
0.29988
0.299861
0.299855
0.299843
0.29982
0.300466
0.334926
1.96259
0.29988
0.299861
0.299855
0.299843
0.29982
0.300466
0.334926
1.96259
0.29988
0.299861
0.299855
0.299843
0.29982
0.300466
0.334926
1.96259
0.29988
0.299861
0.299855
0.299843
0.29982
0.300466
0.334926
1.96259
0.29988
0.299861
0.299855
0.299843
0.29982
0.300466
0.334926
1.96259
0.29988
0.299861
0.299855
0.299843
0.29982
0.300466
0.334926
1.96259
0.29988
0.299861
0.299855
0.299843
0.29982
0.300466
0.334926
1.96259
0.29988
0.299861
0.299855
0.299843
0.29982
0.300466
0.334926
1.96259
0.29988
0.299861
0.299855
0.299843
0.29982
0.300466
0.334926
1.96259
0.29988
0.299861
0.299855
0.299843
0.29982
0.300466
0.334926
1.96259
0.29988
0.299861
0.299855
0.299843
0.29982
0.300466
0.334926
1.96259
0.29988
0.299861
0.299855
0.299843
0.29982
0.300466
0.334926
1.96259
0.29988
0.299861
0.299855
0.299843
0.29982
0.300466
0.334926
1.96259
0.29988
0.299861
0.299855
0.299843
0.29982
0.300466
0.334926
1.96259
0.29988
0.299861
0.299855
0.299843
0.29982
0.300466
0.334926
1.96259
0.29988
0.299861
0.299855
0.299843
0.29982
0.300466
0.334926
1.96259
0.29988
0.299861
0.299855
0.299843
0.29982
0.300466
0.334926
1.96259
0.29988
0.299861
0.299855
0.299843
0.29982
0.300466
0.334926
1.96259
0.29988
0.299861
0.299855
0.299843
0.29982
0.300466
0.334926
1.96259
0.29988
0.299861
0.299855
0.299843
0.29982
0.300466
0.334926
1.96259
0.29988
0.299861
0.299855
0.299843
0.29982
0.300466
0.334926
1.96259
0.29988
0.299861
0.299855
0.299843
0.29982
0.300466
0.334926
1.96259
0.29988
0.299861
0.299855
0.299843
0.29982
0.300466
0.334926
1.96259
0.29988
0.299861
0.299855
0.299843
0.29982
0.300466
0.334926
1.96259
0.29988
0.299861
0.299855
0.299843
0.29982
0.300466
0.334926
1.96259
0.29988
0.299861
0.299855
0.299843
0.29982
0.300466
0.334926
1.96259
0.29988
0.299861
0.299855
0.299843
0.29982
0.300466
0.334926
1.96259
0.29988
0.299861
0.299855
0.299843
0.29982
0.300466
0.334926
1.96259
0.29988
0.299861
0.299854
0.299843
0.29982
0.300466
0.334926
1.96259
0.29988
0.299861
0.299854
0.299843
0.29982
0.300466
0.334926
1.96259
0.29988
0.299861
0.299854
0.299843
0.29982
0.300466
0.334926
1.96259
0.29988
0.299861
0.299855
0.299843
0.29982
0.300466
0.334926
1.96259
0.29988
0.299861
0.299855
0.299843
0.29982
0.300466
0.334926
1.96259
0.29988
0.299861
0.299855
0.299843
0.29982
0.300466
0.334926
1.96259
0.29988
0.299861
0.299855
0.299843
0.29982
0.300466
0.334926
1.96259
0.299879
0.299861
0.299855
0.299843
0.29982
0.300466
0.334926
1.96259
0.29988
0.299861
0.299855
0.299843
0.29982
0.300466
0.334926
1.96259
0.29988
0.299861
0.299855
0.299843
0.29982
0.300466
0.334926
1.96259
0.29988
0.299861
0.299855
0.299843
0.29982
0.300466
0.334926
1.96259
0.29988
0.299861
0.299855
0.299843
0.29982
0.300466
0.334925
1.96259
0.29988
0.299861
0.299855
0.299843
0.29982
0.300466
0.334925
1.96259
0.29988
0.299861
0.299855
0.299843
0.29982
0.300466
0.334924
1.96259
0.29988
0.299861
0.299855
0.299843
0.29982
0.300466
0.334922
1.96259
0.29988
0.299861
0.299855
0.299843
0.29982
0.300465
0.334916
1.96257
0.299881
0.299861
0.299855
0.299843
0.29982
0.300464
0.334888
1.96249
)
;

boundaryField
{
    frontAndBack
    {
        type            empty;
    }
    inlet
    {
        type            fixedValue;
        value           uniform 0.45;
    }
    outlet
    {
        type            zeroGradient;
    }
    walls
    {
        type            kqRWallFunction;
        value           nonuniform List<scalar> 
228
(
0.491429
0.632891
0.748091
0.952099
1.09995
1.36577
1.59343
1.88584
2.11794
2.34451
1.40588
0.652857
0.730472
0.986926
1.11645
1.11472
0.729566
0.64486
0.64486
1.04495
1.25101
1.04874
0.944512
1.00478
1.18012
1.39205
1.58371
1.72817
1.82454
1.88396
1.91878
1.93853
1.9495
1.95551
1.95878
1.96055
1.9615
1.96201
1.96229
1.96243
1.96251
1.96255
1.96257
1.96259
1.96259
1.96259
1.96259
1.96259
1.96259
1.96259
1.96259
1.96259
1.96259
1.96259
1.96259
1.96259
1.96259
1.96259
1.96259
1.96259
1.96259
1.96259
1.96259
1.96259
1.96259
1.96259
1.96259
1.96259
1.96259
1.96259
1.96259
1.96259
1.96259
1.96259
1.96259
1.96259
1.96259
1.96259
1.96259
1.96259
1.96259
1.96259
1.96259
1.96259
1.96259
1.96259
1.96259
1.96259
1.96259
1.96259
1.96259
1.96259
1.96259
1.96259
1.96259
1.96259
1.96259
1.96259
1.96259
1.96259
1.96259
1.96259
1.96259
1.96259
1.96259
1.96259
1.96259
1.96259
1.96259
1.96259
1.96259
1.96259
1.96259
1.96259
1.96259
1.96259
1.96257
1.96249
0.499177
0.619669
0.764378
0.931472
1.11896
1.34815
1.60098
1.88401
2.13701
2.36764
2.59367
2.66499
2.63589
2.50169
2.15219
1.83915
1.63131
1.51622
1.45855
1.43025
1.41807
1.41354
1.41199
1.41143
1.41114
1.41092
1.41073
1.41058
1.41048
1.41042
1.41039
1.41037
1.41036
1.41035
1.41034
1.41034
1.41034
1.41034
1.41034
1.41034
1.41034
1.41034
1.41034
1.41034
1.41034
1.41034
1.41034
1.41033
1.41033
1.41033
1.41033
1.41033
1.41033
1.41033
1.41033
1.41033
1.41033
1.41033
1.41033
1.41033
1.41033
1.41033
1.41033
1.41033
1.41033
1.41033
1.41033
1.41033
1.41033
1.41033
1.41033
1.41033
1.41033
1.41033
1.41033
1.41033
1.41033
1.41033
1.41033
1.41033
1.41033
1.41033
1.41033
1.41033
1.41033
1.41033
1.41033
1.41033
1.41033
1.41033
1.41033
1.41033
1.41033
1.41034
1.41034
1.41034
1.41034
1.41033
1.41033
1.41033
1.41033
1.41033
1.41033
1.41033
1.41033
1.41033
1.41032
1.4103
1.41028
1.41015
)
;
    }
}


// ************************************************************************* //
