/*--------------------------------*- C++ -*----------------------------------*\
| =========                 |                                                 |
| \\      /  F ield         | OpenFOAM: The Open Source CFD Toolbox           |
|  \\    /   O peration     | Version:  v2012                                 |
|   \\  /    A nd           | Website:  www.openfoam.com                      |
|    \\/     M anipulation  |                                                 |
\*---------------------------------------------------------------------------*/
FoamFile
{
    version     2.0;
    format      ascii;
    class       Cloud<basicKinematicParcel>;
    location    "0.006/lagrangian/kinematicCloud";
    object      coordinates;
}
// * * * * * * * * * * * * * * * * * * * * * * * * * * * * * * * * * * * * * //

5
(
(0.0894168 0.0858488 0.369443 0.455292) 303 407 2
(0.236494 0.305317 0.381753 0.0764357) 803 1604 1
(0.60813 0.195935 0.167754 0.0281806) 1102 2005 1
(0.178915 0.250947 0.410543 0.159596) 501 1003 2
(0.240941 0.379529 0.0927218 0.286808) 1400 2800 2
)


// ************************************************************************* //
