/*--------------------------------*- C++ -*----------------------------------*\
| =========                 |                                                 |
| \\      /  F ield         | OpenFOAM: The Open Source CFD Toolbox           |
|  \\    /   O peration     | Version:  v2012                                 |
|   \\  /    A nd           | Website:  www.openfoam.com                      |
|    \\/     M anipulation  |                                                 |
\*---------------------------------------------------------------------------*/
FoamFile
{
    version     2.0;
    format      ascii;
    class       scalarField;
    location    "0.077/lagrangian/kinematicCloud";
    object      age;
}
// * * * * * * * * * * * * * * * * * * * * * * * * * * * * * * * * * * * * * //


80
(
0.0762
0.0752
0.0741
0.073
0.072
0.071
0.07
0.069
0.0679
0.0668
0.066725
0.0657
0.0646
0.0635
0.0624
0.0613
0.0602
0.0591
0.058
0.057925
0.0569
0.0558
0.0547
0.0536
0.053525
0.0525
0.0514
0.051325
0.0503
0.050225
0.0492
0.0481
0.047
0.0459
0.045825
0.0449
0.0439
0.0429
0.0419
0.0409
0.0399
0.0389
0.0379
0.0369
0.0359
0.0349
0.0339
0.0329
0.0319
0.0309
0.0299
0.0289
0.0279
0.0269
0.0259
0.0249
0.0239
0.0229
0.0219
0.0209
0.0199
0.0189
0.0179
0.0169
0.0159
0.0149
0.0139
0.0129
0.0119
0.0109
0.0099
0.0089
0.0079
0.0069
0.0059
0.0049
0.0039
0.0029
0.0019
0.0009
)


// ************************************************************************* //
