/*--------------------------------*- C++ -*----------------------------------*\
| =========                 |                                                 |
| \\      /  F ield         | OpenFOAM: The Open Source CFD Toolbox           |
|  \\    /   O peration     | Version:  v2012                                 |
|   \\  /    A nd           | Website:  www.openfoam.com                      |
|    \\/     M anipulation  |                                                 |
\*---------------------------------------------------------------------------*/
FoamFile
{
    version     2.0;
    format      ascii;
    class       Cloud<basicKinematicParcel>;
    location    "0.077/lagrangian/kinematicCloud";
    object      positions;
}
// * * * * * * * * * * * * * * * * * * * * * * * * * * * * * * * * * * * * * //

28
(
(0.505629 0.0263019 0.03) 1046
(0.888364 -0.0128345 0.03) 1802
(0.771402 0.024832 0.03) 1075
(0.861399 -0.0125971 0.03) 1786
(0.696402 -0.0148815 0.03) 1643
(0.912079 -0.00968832 0.03) 1824
(0.606301 0.0251985 0.03) 1057
(0.981055 0.00924197 0.03) 497
(0.937675 -0.00365205 0.03) 1845
(0.957382 0.01403 0.03) 695
(0.918049 0.00304848 0.03) 291
(0.894744 0.00323382 0.03) 288
(0.882273 0.0146138 0.03) 687
(0.617533 -0.0109864 0.03) 1569
(0.811435 -0.000609716 0.03) 1732
(0.809725 0.0134537 0.03) 679
(0.73887 -0.00459292 0.03) 1670
(0.734877 -0.00208753 0.03) 1669
(0.723159 0.00148014 0.03) 170
(0.712267 0.01236 0.03) 569
(0.674548 0.020156 0.03) 865
(0.661714 0.00738286 0.03) 363
(0.636066 0.00572926 0.03) 360
(0.610245 0.0189194 0.03) 858
(0.557202 -0.00363072 0.03) 1517
(0.564103 0.00354241 0.03) 253
(0.528684 0.0222235 0.03) 949
(0.384571 -0.00559321 0.03) 1374
)


// ************************************************************************* //
