/*--------------------------------*- C++ -*----------------------------------*\
| =========                 |                                                 |
| \\      /  F ield         | OpenFOAM: The Open Source CFD Toolbox           |
|  \\    /   O peration     | Version:  v2012                                 |
|   \\  /    A nd           | Website:  www.openfoam.com                      |
|    \\/     M anipulation  |                                                 |
\*---------------------------------------------------------------------------*/
FoamFile
{
    version     2.0;
    format      ascii;
    class       vectorField;
    location    "0.077/lagrangian/kinematicCloud";
    object      UCorrect;
}
// * * * * * * * * * * * * * * * * * * * * * * * * * * * * * * * * * * * * * //


80
(
(0 0 0)
(-2.68119e-25 6.67354e-28 0)
(0 0 0)
(0 0 0)
(-2.66352e-25 6.76161e-28 0)
(-5.46257e-25 3.23682e-27 0)
(-6.59324e-25 1.12593e-25 0)
(-8.29188e-11 5.53077e-13 0)
(6.00009e-11 -4.32012e-13 0)
(-2.51402e-11 -2.1744e-13 0)
(1.23789e-11 6.84917e-13 0)
(0 0 0)
(-2.30477e-32 2.41612e-36 0)
(0 0 0)
(0 0 0)
(0 0 0)
(-6.37064e-25 1.55057e-25 0)
(0 0 0)
(-7.4412e-25 1.55957e-25 0)
(0 0 0)
(0 0 0)
(0 0 0)
(-9.70254e-25 4.50523e-26 0)
(0 0 0)
(-1.15205e-24 1.21455e-25 0)
(0 0 0)
(0 0 0)
(-1.97164e-09 -8.70789e-11 0)
(0 0 0)
(1.43886e-09 9.38412e-11 0)
(1.73564e-08 1.78383e-12 0)
(0 0 0)
(0 0 0)
(-1.34857e-24 -5.15778e-26 0)
(0 0 0)
(0 0 0)
(-1.13842e-09 -9.58967e-11 0)
(7.686e-10 5.9481e-11 0)
(0 0 0)
(-3.89617e-30 -6.81419e-34 0)
(0 0 0)
(0 0 0)
(0 0 0)
(-3.93536e-10 -4.94228e-11 0)
(0 0 0)
(0 0 0)
(0 0 0)
(-1.08001e-24 -2.48956e-26 0)
(0 0 0)
(-2.69784e-28 -1.58617e-30 0)
(0 0 0)
(0 0 0)
(0 0 0)
(-1.75457e-08 -1.80014e-12 0)
(-8.09496e-10 -8.68332e-13 0)
(5.63833e-10 4.86228e-13 0)
(0 0 0)
(0 0 0)
(0 0 0)
(0 0 0)
(0 0 0)
(0 0 0)
(6.00267e-10 1.12522e-14 0)
(0 0 0)
(0 0 0)
(0 0 0)
(-2.96023e-25 -1.22914e-29 0)
(0 0 0)
(0 0 0)
(-3.00914e-25 3.83899e-32 0)
(-3.02271e-25 3.59328e-29 0)
(0 0 0)
(0 0 0)
(-4.6893e-30 4.08987e-34 0)
(-3.60843e-08 2.22545e-12 0)
(8.84903e-09 1.03299e-13 0)
(8.79418e-10 -9.80019e-13 0)
(0 0 0)
(2.24078e-08 -8.13932e-13 0)
(-1.98499e-26 1.07326e-30 0)
)


// ************************************************************************* //
