/*--------------------------------*- C++ -*----------------------------------*\
| =========                 |                                                 |
| \\      /  F ield         | OpenFOAM: The Open Source CFD Toolbox           |
|  \\    /   O peration     | Version:  v2012                                 |
|   \\  /    A nd           | Website:  www.openfoam.com                      |
|    \\/     M anipulation  |                                                 |
\*---------------------------------------------------------------------------*/
FoamFile
{
    version     2.0;
    format      ascii;
    class       volScalarField;
    location    "0.01";
    object      k.air;
}
// * * * * * * * * * * * * * * * * * * * * * * * * * * * * * * * * * * * * * //

dimensions      [0 2 -2 0 0 0 0];


internalField   nonuniform List<scalar> 
5600
(
0.614598
0.845494
0.934864
0.96324
0.949827
0.921375
0.903254
0.896564
0.894154
0.892866
0.892433
0.892426
0.892447
0.892435
0.892429
0.892432
0.892433
0.892432
0.892432
0.892432
0.892432
0.892432
0.892433
0.892433
0.892433
0.892433
0.892433
0.892433
0.892433
0.892433
0.892433
0.892433
0.892433
0.892433
0.892433
0.892433
0.892433
0.892433
0.892433
0.892433
0.892433
0.892433
0.892433
0.892433
0.892433
0.892433
0.892433
0.892433
0.892433
0.892433
0.892433
0.892433
0.892433
0.892433
0.892433
0.892433
0.892433
0.892433
0.892433
0.892433
0.892433
0.892433
0.892433
0.892433
0.892433
0.892433
0.892433
0.892433
0.892433
0.892433
0.892434
0.892434
0.892434
0.892434
0.892434
0.892434
0.892434
0.892434
0.892434
0.892434
0.892434
0.892434
0.892434
0.892434
0.892434
0.892434
0.892433
0.892436
0.892425
0.89247
0.892299
0.892927
0.890854
0.897229
0.87978
0.92359
0.826454
1.02186
0.662507
1.22735
0.371026
0.317243
0.292795
0.272916
0.2634
0.259876
0.256778
0.255299
0.254995
0.255043
0.255047
0.255071
0.255085
0.255095
0.255098
0.255099
0.255099
0.255099
0.255099
0.255099
0.255099
0.255099
0.255099
0.255099
0.255099
0.255099
0.255099
0.255099
0.255099
0.255099
0.255099
0.255099
0.255099
0.255099
0.255099
0.255099
0.255099
0.255099
0.255099
0.255099
0.255099
0.2551
0.255099
0.255099
0.255099
0.2551
0.2551
0.2551
0.2551
0.2551
0.2551
0.2551
0.2551
0.2551
0.2551
0.2551
0.2551
0.2551
0.2551
0.2551
0.2551
0.2551
0.2551
0.2551
0.2551
0.2551
0.2551
0.2551
0.2551
0.2551
0.2551
0.2551
0.2551
0.2551
0.2551
0.2551
0.2551
0.2551
0.2551
0.2551
0.2551
0.2551
0.2551
0.2551
0.2551
0.255099
0.255101
0.255092
0.25513
0.254989
0.255469
0.253962
0.258238
0.247325
0.271721
0.224959
0.298741
0.213948
0.264278
0.304232
0.369081
0.282168
0.228598
0.190824
0.165564
0.150542
0.142431
0.138754
0.137294
0.136779
0.136612
0.136566
0.136554
0.136552
0.136551
0.136551
0.136551
0.136551
0.136551
0.136551
0.136551
0.136551
0.136551
0.136551
0.136551
0.136551
0.136551
0.136551
0.136551
0.136551
0.136551
0.136551
0.136551
0.136551
0.136551
0.136551
0.136551
0.136551
0.136551
0.136551
0.136551
0.136551
0.136551
0.136551
0.136551
0.136551
0.136551
0.136551
0.136551
0.136551
0.136551
0.136551
0.136551
0.136551
0.136551
0.136551
0.136551
0.136551
0.136551
0.136551
0.136551
0.136551
0.136551
0.136551
0.136551
0.136551
0.136551
0.136551
0.136551
0.136551
0.136551
0.136551
0.136551
0.136551
0.136551
0.136551
0.136551
0.136551
0.136551
0.136551
0.136551
0.136551
0.136551
0.136551
0.136551
0.136551
0.136551
0.136551
0.136552
0.136547
0.136568
0.136492
0.136741
0.135967
0.138136
0.132593
0.145351
0.118913
0.167425
0.0782454
0.370177
0.280935
0.223989
0.184202
0.156942
0.140113
0.131033
0.126771
0.125006
0.124352
0.124132
0.124064
0.124045
0.12404
0.124038
0.124038
0.124038
0.124038
0.124038
0.124038
0.124038
0.124038
0.124038
0.124038
0.124038
0.124038
0.124038
0.124038
0.124038
0.124038
0.124038
0.124038
0.124038
0.124038
0.124038
0.124038
0.124038
0.124038
0.124038
0.124038
0.124038
0.124038
0.124038
0.124038
0.124038
0.124038
0.124038
0.124038
0.124038
0.124038
0.124038
0.124038
0.124038
0.124038
0.124038
0.124038
0.124038
0.124038
0.124038
0.124038
0.124038
0.124038
0.124038
0.124038
0.124038
0.124038
0.124038
0.124038
0.124038
0.124038
0.124038
0.124038
0.124038
0.124038
0.124038
0.124038
0.124038
0.124038
0.124038
0.124038
0.124038
0.124038
0.124038
0.124038
0.124038
0.124038
0.124038
0.124037
0.124043
0.124018
0.124107
0.123816
0.124669
0.122471
0.127314
0.11859
0.130281
0.122293
0.113738
0.148107
0.370336
0.281143
0.224088
0.184326
0.157042
0.140127
0.130975
0.126661
0.124866
0.124198
0.123972
0.123903
0.123883
0.123877
0.123876
0.123876
0.123875
0.123875
0.123875
0.123875
0.123875
0.123875
0.123875
0.123875
0.123875
0.123875
0.123875
0.123875
0.123875
0.123875
0.123875
0.123875
0.123875
0.123875
0.123875
0.123875
0.123875
0.123875
0.123875
0.123875
0.123875
0.123875
0.123875
0.123875
0.123875
0.123875
0.123875
0.123875
0.123875
0.123875
0.123875
0.123875
0.123875
0.123875
0.123875
0.123875
0.123875
0.123875
0.123875
0.123875
0.123875
0.123875
0.123875
0.123875
0.123875
0.123875
0.123875
0.123875
0.123875
0.123875
0.123875
0.123875
0.123875
0.123875
0.123875
0.123875
0.123875
0.123875
0.123875
0.123875
0.123875
0.123875
0.123875
0.123875
0.123875
0.123876
0.123875
0.123877
0.12387
0.123896
0.123808
0.12408
0.123317
0.125215
0.121151
0.128327
0.11883
0.126095
0.129341
0.111905
0.370348
0.281197
0.224205
0.184519
0.157298
0.14042
0.131285
0.126978
0.125187
0.124522
0.124297
0.124228
0.124208
0.124203
0.124201
0.124201
0.124201
0.124201
0.124201
0.124201
0.124201
0.124201
0.124201
0.124201
0.124201
0.124201
0.124201
0.124201
0.124201
0.124201
0.124201
0.124201
0.124201
0.124201
0.124201
0.124201
0.124201
0.124201
0.124201
0.124201
0.124201
0.124201
0.124201
0.124201
0.124201
0.124201
0.124201
0.124201
0.124201
0.124201
0.124201
0.124201
0.124201
0.124201
0.124201
0.124201
0.124201
0.124201
0.124201
0.124201
0.124201
0.124201
0.124201
0.124201
0.124201
0.124201
0.124201
0.124201
0.124201
0.124201
0.124201
0.124201
0.124201
0.124201
0.124201
0.124201
0.124201
0.124201
0.124201
0.124201
0.124201
0.124201
0.124201
0.124201
0.124201
0.124201
0.124201
0.124201
0.124201
0.124197
0.124221
0.124116
0.124504
0.123287
0.126504
0.119555
0.131179
0.118124
0.123891
0.131837
0.370346
0.281201
0.224234
0.184571
0.15737
0.14051
0.131389
0.12709
0.125304
0.124641
0.124417
0.124348
0.124328
0.124323
0.124322
0.124322
0.124321
0.124321
0.124321
0.124321
0.124321
0.124321
0.124321
0.124321
0.124321
0.124321
0.124321
0.124321
0.124321
0.124321
0.124321
0.124321
0.124321
0.124321
0.124321
0.124321
0.124321
0.124321
0.124321
0.124321
0.124321
0.124321
0.124321
0.124321
0.124321
0.124321
0.124321
0.124321
0.124321
0.124321
0.124321
0.124321
0.124321
0.124321
0.124321
0.124321
0.124321
0.124321
0.124321
0.124321
0.124321
0.124321
0.124321
0.124321
0.124321
0.124321
0.124321
0.124321
0.124321
0.124321
0.124321
0.124321
0.124321
0.124321
0.124321
0.124321
0.124321
0.124321
0.124321
0.124321
0.124321
0.124321
0.124321
0.124321
0.124321
0.124321
0.124321
0.124322
0.124319
0.124329
0.124296
0.124401
0.124099
0.12489
0.123049
0.126699
0.121051
0.12656
0.127009
0.117245
0.370343
0.281196
0.224237
0.184577
0.157379
0.140526
0.131413
0.127121
0.125339
0.124677
0.124454
0.124386
0.124366
0.124361
0.124359
0.124359
0.124359
0.124359
0.124359
0.124359
0.124359
0.124359
0.124359
0.124359
0.124359
0.124359
0.124359
0.124359
0.124359
0.124359
0.124359
0.124359
0.124359
0.124359
0.124359
0.124359
0.124359
0.124359
0.124359
0.124359
0.124359
0.124359
0.124359
0.124359
0.124359
0.124359
0.124359
0.124359
0.124359
0.124359
0.124359
0.124359
0.124359
0.124359
0.124359
0.124359
0.124359
0.124359
0.124359
0.124359
0.124359
0.124359
0.124359
0.124359
0.124359
0.124359
0.124359
0.124359
0.124359
0.124359
0.124359
0.124359
0.124359
0.124359
0.124359
0.124359
0.124359
0.124359
0.124359
0.124359
0.124359
0.124359
0.124359
0.124359
0.124359
0.124359
0.124359
0.124359
0.124359
0.12436
0.124358
0.124351
0.12441
0.124155
0.124967
0.122999
0.126416
0.123417
0.120108
0.135524
0.370341
0.281189
0.224234
0.184571
0.157372
0.140522
0.131415
0.127127
0.125348
0.124688
0.124466
0.124398
0.124378
0.124373
0.124372
0.124371
0.124371
0.124371
0.124371
0.124371
0.124371
0.124371
0.124371
0.124371
0.124371
0.124371
0.124371
0.124371
0.124371
0.124371
0.124371
0.124371
0.124371
0.124371
0.124371
0.124371
0.124371
0.124371
0.124371
0.124371
0.124371
0.124371
0.124371
0.124371
0.124371
0.124371
0.124371
0.124371
0.124371
0.124371
0.124371
0.124371
0.124371
0.124371
0.124371
0.124371
0.124371
0.124371
0.124371
0.124371
0.124371
0.124371
0.124371
0.124371
0.124371
0.124371
0.124371
0.124371
0.124371
0.124371
0.124371
0.124371
0.124371
0.124371
0.124371
0.124371
0.124371
0.124371
0.124371
0.124371
0.124371
0.124371
0.124371
0.124371
0.124371
0.124371
0.124371
0.124371
0.124371
0.124373
0.124368
0.124379
0.124358
0.124384
0.124389
0.12424
0.124869
0.122778
0.128761
0.116431
0.370339
0.281186
0.224232
0.184567
0.157366
0.140516
0.131412
0.127127
0.12535
0.124691
0.12447
0.124401
0.124382
0.124376
0.124375
0.124375
0.124375
0.124375
0.124375
0.124375
0.124375
0.124375
0.124375
0.124375
0.124375
0.124375
0.124375
0.124375
0.124375
0.124375
0.124375
0.124375
0.124375
0.124375
0.124375
0.124375
0.124375
0.124375
0.124375
0.124375
0.124375
0.124375
0.124375
0.124375
0.124375
0.124375
0.124375
0.124375
0.124375
0.124375
0.124375
0.124375
0.124375
0.124375
0.124375
0.124375
0.124375
0.124375
0.124375
0.124375
0.124375
0.124375
0.124375
0.124375
0.124375
0.124375
0.124375
0.124375
0.124375
0.124375
0.124375
0.124375
0.124375
0.124375
0.124375
0.124375
0.124375
0.124375
0.124375
0.124375
0.124375
0.124375
0.124375
0.124375
0.124375
0.124375
0.124375
0.124375
0.124375
0.124375
0.124375
0.124372
0.124389
0.124321
0.124524
0.12407
0.124755
0.124489
0.122506
0.128992
0.37034
0.281188
0.224235
0.18457
0.157368
0.140518
0.131413
0.127128
0.125351
0.124692
0.12447
0.124401
0.124382
0.124377
0.124375
0.124375
0.124375
0.124375
0.124375
0.124375
0.124375
0.124375
0.124375
0.124375
0.124375
0.124375
0.124375
0.124375
0.124375
0.124375
0.124375
0.124375
0.124375
0.124375
0.124375
0.124375
0.124375
0.124375
0.124375
0.124375
0.124375
0.124375
0.124375
0.124375
0.124375
0.124375
0.124375
0.124375
0.124375
0.124375
0.124375
0.124375
0.124375
0.124375
0.124375
0.124375
0.124375
0.124375
0.124375
0.124375
0.124375
0.124375
0.124375
0.124375
0.124375
0.124375
0.124375
0.124375
0.124375
0.124375
0.124375
0.124375
0.124375
0.124375
0.124375
0.124375
0.124375
0.124375
0.124375
0.124375
0.124375
0.124375
0.124375
0.124375
0.124375
0.124375
0.124375
0.124375
0.124375
0.124375
0.124376
0.12437
0.124393
0.124322
0.124506
0.124112
0.124778
0.123935
0.124737
0.124036
0.370342
0.281194
0.22424
0.184578
0.157378
0.140526
0.131417
0.127128
0.125349
0.124689
0.124467
0.124398
0.124379
0.124373
0.124372
0.124372
0.124372
0.124372
0.124372
0.124372
0.124372
0.124372
0.124372
0.124372
0.124372
0.124372
0.124372
0.124372
0.124372
0.124372
0.124372
0.124372
0.124372
0.124372
0.124372
0.124372
0.124372
0.124372
0.124372
0.124372
0.124372
0.124372
0.124372
0.124372
0.124372
0.124372
0.124372
0.124372
0.124372
0.124372
0.124372
0.124372
0.124372
0.124372
0.124372
0.124372
0.124372
0.124372
0.124372
0.124372
0.124372
0.124372
0.124372
0.124372
0.124372
0.124372
0.124372
0.124372
0.124372
0.124372
0.124372
0.124372
0.124372
0.124372
0.124372
0.124372
0.124372
0.124372
0.124372
0.124372
0.124372
0.124372
0.124372
0.124372
0.124372
0.124372
0.124372
0.124372
0.124372
0.124371
0.124373
0.124366
0.12439
0.124322
0.124486
0.124161
0.124643
0.124226
0.124056
0.125272
0.370345
0.281203
0.224247
0.184587
0.157388
0.140532
0.131416
0.127122
0.125339
0.124678
0.124455
0.124386
0.124366
0.124361
0.12436
0.124359
0.124359
0.124359
0.124359
0.124359
0.124359
0.124359
0.124359
0.124359
0.124359
0.124359
0.124359
0.124359
0.124359
0.124359
0.124359
0.124359
0.124359
0.124359
0.124359
0.124359
0.124359
0.124359
0.124359
0.124359
0.124359
0.124359
0.124359
0.124359
0.124359
0.124359
0.124359
0.124359
0.124359
0.124359
0.124359
0.124359
0.124359
0.124359
0.124359
0.124359
0.124359
0.124359
0.124359
0.124359
0.124359
0.124359
0.124359
0.124359
0.124359
0.124359
0.124359
0.124359
0.124359
0.124359
0.124359
0.124359
0.124359
0.124359
0.124359
0.124359
0.124359
0.124359
0.124359
0.124359
0.124359
0.124359
0.124359
0.124359
0.124359
0.124359
0.124359
0.124359
0.124359
0.124359
0.124361
0.124354
0.124376
0.124316
0.124456
0.124186
0.12457
0.124265
0.124078
0.125026
0.370348
0.281211
0.224247
0.184586
0.157382
0.140518
0.131393
0.127092
0.125305
0.124641
0.124417
0.124348
0.124328
0.124323
0.124322
0.124322
0.124322
0.124321
0.124321
0.124321
0.124321
0.124321
0.124321
0.124321
0.124321
0.124321
0.124321
0.124321
0.124321
0.124321
0.124321
0.124321
0.124321
0.124321
0.124321
0.124321
0.124321
0.124321
0.124321
0.124321
0.124321
0.124321
0.124321
0.124321
0.124321
0.124321
0.124321
0.124321
0.124321
0.124321
0.124321
0.124322
0.124321
0.124321
0.124321
0.124321
0.124321
0.124321
0.124321
0.124321
0.124321
0.124321
0.124321
0.124321
0.124321
0.124321
0.124322
0.124321
0.124321
0.124321
0.124321
0.124321
0.124321
0.124321
0.124321
0.124321
0.124321
0.124321
0.124321
0.124321
0.124321
0.124322
0.124321
0.124321
0.124321
0.124321
0.124322
0.124321
0.124322
0.124321
0.124323
0.124316
0.124336
0.124283
0.124404
0.124178
0.124483
0.124283
0.123993
0.124994
0.37035
0.281208
0.224221
0.184537
0.157312
0.140429
0.13129
0.12698
0.125188
0.124522
0.124297
0.124228
0.124208
0.124203
0.124201
0.124201
0.124201
0.124201
0.124201
0.124201
0.124201
0.124201
0.124201
0.124201
0.124201
0.124201
0.124201
0.124201
0.124201
0.124201
0.124201
0.124201
0.124201
0.124201
0.124201
0.124201
0.124201
0.124201
0.124201
0.124201
0.124201
0.124201
0.124201
0.124201
0.124201
0.124201
0.124201
0.124201
0.124201
0.124201
0.124201
0.124201
0.124201
0.124201
0.124201
0.124201
0.124201
0.124201
0.124201
0.124201
0.124201
0.124201
0.124201
0.124201
0.124201
0.124201
0.124201
0.124201
0.124201
0.124201
0.124201
0.124201
0.124201
0.124201
0.124201
0.124201
0.124201
0.124201
0.124201
0.124201
0.124201
0.124201
0.124201
0.124201
0.124201
0.124201
0.124201
0.124201
0.124201
0.124201
0.124202
0.124196
0.124214
0.124167
0.124272
0.124079
0.124329
0.12419
0.123856
0.124849
0.370338
0.281156
0.224108
0.184347
0.157062
0.140145
0.130991
0.126674
0.124879
0.124211
0.123986
0.123916
0.123897
0.123891
0.12389
0.12389
0.12389
0.12389
0.12389
0.12389
0.12389
0.12389
0.12389
0.12389
0.12389
0.12389
0.12389
0.12389
0.12389
0.12389
0.12389
0.12389
0.12389
0.12389
0.12389
0.12389
0.12389
0.12389
0.12389
0.12389
0.12389
0.12389
0.12389
0.12389
0.12389
0.12389
0.12389
0.12389
0.12389
0.12389
0.12389
0.12389
0.12389
0.12389
0.12389
0.12389
0.12389
0.12389
0.12389
0.12389
0.12389
0.12389
0.12389
0.12389
0.12389
0.12389
0.12389
0.12389
0.12389
0.12389
0.12389
0.12389
0.12389
0.12389
0.12389
0.12389
0.12389
0.12389
0.12389
0.12389
0.12389
0.12389
0.12389
0.12389
0.12389
0.12389
0.12389
0.12389
0.12389
0.123889
0.123891
0.123886
0.1239
0.123862
0.123949
0.123787
0.124001
0.123887
0.123573
0.124598
0.370173
0.280943
0.224037
0.184284
0.157072
0.14029
0.131239
0.126993
0.125235
0.124584
0.124364
0.124297
0.124277
0.124272
0.124271
0.124271
0.12427
0.12427
0.12427
0.12427
0.12427
0.12427
0.12427
0.12427
0.12427
0.12427
0.12427
0.12427
0.12427
0.12427
0.12427
0.12427
0.12427
0.12427
0.12427
0.12427
0.12427
0.12427
0.12427
0.12427
0.12427
0.12427
0.12427
0.12427
0.12427
0.12427
0.12427
0.12427
0.12427
0.12427
0.12427
0.12427
0.12427
0.12427
0.12427
0.12427
0.12427
0.12427
0.12427
0.12427
0.12427
0.12427
0.12427
0.12427
0.12427
0.12427
0.12427
0.12427
0.12427
0.12427
0.12427
0.12427
0.12427
0.12427
0.12427
0.12427
0.12427
0.12427
0.12427
0.12427
0.12427
0.12427
0.12427
0.12427
0.12427
0.12427
0.12427
0.12427
0.124271
0.12427
0.124271
0.124268
0.124278
0.124252
0.12432
0.124189
0.124414
0.124288
0.124203
0.1256
0.36903
0.282204
0.229036
0.191648
0.16687
0.152326
0.144499
0.140952
0.139547
0.13905
0.138889
0.138843
0.138831
0.138829
0.138828
0.138828
0.138828
0.138828
0.138828
0.138828
0.138828
0.138828
0.138828
0.138828
0.138828
0.138828
0.138828
0.138828
0.138828
0.138828
0.138828
0.138828
0.138828
0.138828
0.138828
0.138828
0.138828
0.138828
0.138828
0.138828
0.138828
0.138828
0.138828
0.138828
0.138828
0.138828
0.138828
0.138828
0.138828
0.138828
0.138828
0.138828
0.138828
0.138828
0.138828
0.138828
0.138828
0.138828
0.138828
0.138828
0.138828
0.138828
0.138828
0.138828
0.138828
0.138828
0.138828
0.138828
0.138828
0.138828
0.138828
0.138828
0.138828
0.138828
0.138828
0.138828
0.138828
0.138828
0.138828
0.138828
0.138828
0.138828
0.138828
0.138828
0.138828
0.138828
0.138828
0.138828
0.138828
0.138828
0.138828
0.138827
0.138835
0.138818
0.138899
0.138769
0.139222
0.139086
0.140068
0.143453
0.370888
0.318239
0.296358
0.278688
0.271584
0.270363
0.268665
0.267805
0.267776
0.267946
0.267987
0.268017
0.268032
0.268042
0.268044
0.268044
0.268045
0.268045
0.268045
0.268045
0.268045
0.268045
0.268045
0.268045
0.268045
0.268045
0.268045
0.268045
0.268045
0.268045
0.268045
0.268045
0.268045
0.268045
0.268045
0.268045
0.268045
0.268045
0.268045
0.268045
0.268045
0.268045
0.268045
0.268045
0.268045
0.268045
0.268045
0.268045
0.268045
0.268045
0.268045
0.268045
0.268045
0.268045
0.268045
0.268045
0.268045
0.268045
0.268045
0.268045
0.268045
0.268045
0.268045
0.268045
0.268045
0.268045
0.268045
0.268045
0.268045
0.268045
0.268045
0.268045
0.268045
0.268045
0.268045
0.268045
0.268045
0.268045
0.268045
0.268045
0.268045
0.268045
0.268045
0.268045
0.268045
0.268045
0.268045
0.268045
0.268045
0.268045
0.268048
0.26804
0.268074
0.268005
0.268264
0.267895
0.269225
0.268876
0.272606
0.28066
0.614962
0.844723
0.930526
0.955139
0.938483
0.908259
0.889509
0.882628
0.880128
0.878793
0.878343
0.878331
0.87835
0.878338
0.878332
0.878334
0.878335
0.878335
0.878335
0.878335
0.878335
0.878335
0.878335
0.878335
0.878335
0.878335
0.878335
0.878335
0.878335
0.878335
0.878335
0.878335
0.878335
0.878335
0.878335
0.878336
0.878336
0.878336
0.878336
0.878336
0.878336
0.878336
0.878336
0.878336
0.878336
0.878336
0.878336
0.878336
0.878336
0.878336
0.878336
0.878336
0.878336
0.878336
0.878336
0.878336
0.878336
0.878336
0.878336
0.878336
0.878336
0.878336
0.878336
0.878336
0.878336
0.878336
0.878336
0.878336
0.878336
0.878336
0.878336
0.878336
0.878336
0.878336
0.878336
0.878336
0.878336
0.878336
0.878336
0.878336
0.878336
0.878336
0.878336
0.878336
0.878336
0.878337
0.878337
0.878337
0.878336
0.878336
0.878334
0.878334
0.878318
0.878296
0.878223
0.877897
0.877495
0.874878
0.870991
0.856233
0.399199
0.127436
0.136244
0.147228
0.141422
0.132511
0.127499
0.125579
0.124918
0.12468
0.124583
0.124538
0.124515
0.124504
0.124498
0.124495
0.124493
0.124493
0.124492
0.124492
0.124492
0.124492
0.124492
0.124492
0.124492
0.124492
0.124492
0.124492
0.124492
0.124492
0.124492
0.124492
0.124492
0.124492
0.124492
0.124492
0.124492
0.124492
0.124492
0.124492
0.124492
0.124492
0.124492
0.124492
0.124492
0.124492
0.124492
0.124492
0.124492
0.124492
0.124492
0.124492
0.124492
0.124492
0.124492
0.124492
0.124492
0.124492
0.124492
0.124492
0.124492
0.124492
0.124492
0.124492
0.124492
0.124492
0.124492
0.124492
0.124492
0.124492
0.124492
0.124492
0.124492
0.124492
0.124492
0.124492
0.124492
0.124492
0.124492
0.124492
0.124492
0.124492
0.124492
0.124492
0.124492
0.124492
0.124492
0.124492
0.124492
0.124492
0.124492
0.124492
0.124492
0.124491
0.124491
0.12449
0.124489
0.124486
0.124481
0.124471
0.0057356
0.116788
0.153489
0.150981
0.140616
0.131973
0.127251
0.125359
0.124726
0.124529
0.124468
0.124447
0.12444
0.124436
0.124435
0.124434
0.124434
0.124433
0.124433
0.124433
0.124433
0.124433
0.124433
0.124433
0.124433
0.124433
0.124433
0.124433
0.124433
0.124433
0.124433
0.124433
0.124433
0.124433
0.124433
0.124433
0.124433
0.124433
0.124433
0.124433
0.124433
0.124433
0.124433
0.124433
0.124433
0.124433
0.124433
0.124433
0.124433
0.124433
0.124433
0.124433
0.124433
0.124433
0.124433
0.124433
0.124433
0.124433
0.124433
0.124433
0.124433
0.124433
0.124433
0.124433
0.124433
0.124433
0.124433
0.124433
0.124433
0.124433
0.124433
0.124433
0.124433
0.124433
0.124433
0.124433
0.124433
0.124433
0.124433
0.124433
0.124433
0.124433
0.124433
0.124433
0.124433
0.124433
0.124433
0.124433
0.124433
0.124433
0.124433
0.124433
0.124433
0.124433
0.124433
0.124433
0.124433
0.124432
0.124431
0.124434
0.181311
0.160224
0.143045
0.146835
0.140637
0.132114
0.127266
0.125316
0.124676
0.124491
0.124443
0.124431
0.124428
0.124428
0.124428
0.124429
0.124429
0.124429
0.124429
0.124429
0.124429
0.124429
0.124429
0.124429
0.124429
0.124429
0.124429
0.124429
0.124429
0.124429
0.124429
0.124429
0.124429
0.124429
0.124429
0.124429
0.124429
0.124429
0.124429
0.124429
0.124429
0.124429
0.124429
0.124429
0.124429
0.124429
0.124429
0.124429
0.124429
0.124429
0.124429
0.124429
0.124429
0.124429
0.124429
0.124429
0.124429
0.124429
0.124429
0.124429
0.124429
0.124429
0.124429
0.124429
0.124429
0.124429
0.124429
0.124429
0.124429
0.124429
0.124429
0.124429
0.124429
0.124429
0.124429
0.124429
0.124429
0.124429
0.124429
0.124429
0.124429
0.124429
0.124429
0.124429
0.124429
0.124429
0.124429
0.124429
0.124429
0.124429
0.124429
0.124429
0.124429
0.124429
0.12443
0.12443
0.124431
0.124432
0.124434
0.124446
0.103965
0.107193
0.133291
0.141011
0.138325
0.131563
0.127156
0.125302
0.124671
0.124486
0.124439
0.12443
0.124429
0.12443
0.124431
0.124432
0.124432
0.124433
0.124433
0.124433
0.124433
0.124433
0.124433
0.124433
0.124433
0.124433
0.124433
0.124433
0.124433
0.124433
0.124433
0.124433
0.124433
0.124433
0.124433
0.124433
0.124433
0.124433
0.124433
0.124433
0.124433
0.124433
0.124433
0.124433
0.124433
0.124433
0.124433
0.124433
0.124433
0.124433
0.124433
0.124433
0.124433
0.124433
0.124433
0.124433
0.124433
0.124433
0.124433
0.124433
0.124433
0.124433
0.124433
0.124433
0.124433
0.124433
0.124433
0.124433
0.124433
0.124433
0.124433
0.124433
0.124433
0.124433
0.124433
0.124433
0.124433
0.124433
0.124433
0.124433
0.124433
0.124433
0.124433
0.124433
0.124433
0.124433
0.124433
0.124433
0.124433
0.124433
0.124433
0.124433
0.124433
0.124433
0.124434
0.124434
0.124436
0.124436
0.12444
0.124452
0.132669
0.159804
0.153331
0.143787
0.13791
0.131444
0.127011
0.125178
0.124609
0.124459
0.124425
0.124418
0.124419
0.12442
0.124421
0.124421
0.124422
0.124422
0.124422
0.124422
0.124422
0.124422
0.124422
0.124422
0.124422
0.124422
0.124422
0.124422
0.124422
0.124422
0.124422
0.124422
0.124422
0.124422
0.124422
0.124422
0.124422
0.124422
0.124422
0.124422
0.124422
0.124422
0.124422
0.124422
0.124422
0.124422
0.124422
0.124422
0.124422
0.124422
0.124422
0.124422
0.124422
0.124422
0.124422
0.124422
0.124422
0.124422
0.124422
0.124422
0.124422
0.124422
0.124422
0.124422
0.124422
0.124422
0.124422
0.124422
0.124422
0.124422
0.124422
0.124422
0.124422
0.124422
0.124422
0.124422
0.124422
0.124422
0.124422
0.124422
0.124422
0.124422
0.124422
0.124422
0.124422
0.124422
0.124422
0.124422
0.124422
0.124422
0.124422
0.124422
0.124422
0.124422
0.124423
0.124423
0.124424
0.124425
0.124429
0.124438
0.125283
0.114812
0.131317
0.135797
0.133698
0.130709
0.12747
0.125521
0.124735
0.124489
0.124425
0.124411
0.124408
0.124409
0.124409
0.12441
0.12441
0.12441
0.12441
0.124411
0.124411
0.124411
0.124411
0.124411
0.124411
0.124411
0.124411
0.124411
0.124411
0.124411
0.124411
0.124411
0.124411
0.124411
0.124411
0.124411
0.124411
0.124411
0.124411
0.124411
0.124411
0.124411
0.124411
0.124411
0.124411
0.124411
0.124411
0.124411
0.124411
0.124411
0.124411
0.124411
0.124411
0.124411
0.124411
0.124411
0.124411
0.124411
0.124411
0.124411
0.124411
0.124411
0.124411
0.124411
0.124411
0.124411
0.124411
0.124411
0.124411
0.124411
0.124411
0.124411
0.124411
0.124411
0.124411
0.124411
0.124411
0.124411
0.124411
0.124411
0.124411
0.124411
0.124411
0.124411
0.124411
0.124411
0.124411
0.124411
0.124411
0.124411
0.124411
0.124411
0.124411
0.124411
0.124411
0.124411
0.124412
0.124413
0.124416
0.124423
0.126517
0.138031
0.14994
0.147642
0.134475
0.127219
0.125219
0.124705
0.124515
0.124438
0.124411
0.124403
0.124402
0.124402
0.124402
0.124403
0.124403
0.124403
0.124403
0.124403
0.124403
0.124403
0.124403
0.124403
0.124403
0.124403
0.124403
0.124403
0.124403
0.124403
0.124403
0.124403
0.124403
0.124403
0.124403
0.124403
0.124403
0.124403
0.124403
0.124403
0.124403
0.124403
0.124403
0.124403
0.124403
0.124403
0.124403
0.124403
0.124403
0.124403
0.124403
0.124403
0.124403
0.124403
0.124403
0.124403
0.124403
0.124403
0.124403
0.124403
0.124403
0.124403
0.124403
0.124403
0.124403
0.124403
0.124403
0.124403
0.124403
0.124403
0.124403
0.124403
0.124403
0.124403
0.124403
0.124403
0.124403
0.124403
0.124403
0.124403
0.124403
0.124403
0.124403
0.124403
0.124403
0.124403
0.124403
0.124403
0.124403
0.124403
0.124403
0.124403
0.124403
0.124403
0.124403
0.124404
0.124404
0.124405
0.124407
0.124413
0.121708
0.114116
0.13437
0.153544
0.149747
0.136987
0.12885
0.125692
0.124734
0.124479
0.124416
0.124401
0.124398
0.124398
0.124398
0.124398
0.124398
0.124399
0.124399
0.124399
0.124399
0.124399
0.124399
0.124399
0.124399
0.124399
0.124399
0.124399
0.124399
0.124399
0.124399
0.124399
0.124399
0.124399
0.124399
0.124399
0.124399
0.124399
0.124399
0.124399
0.124399
0.124399
0.124399
0.124399
0.124399
0.124399
0.124399
0.124399
0.124399
0.124399
0.124399
0.124399
0.124399
0.124399
0.124399
0.124399
0.124399
0.124399
0.124399
0.124399
0.124399
0.124399
0.124399
0.124399
0.124399
0.124399
0.124399
0.124399
0.124399
0.124399
0.124399
0.124399
0.124399
0.124399
0.124399
0.124399
0.124399
0.124399
0.124399
0.124399
0.124399
0.124399
0.124399
0.124399
0.124399
0.124399
0.124399
0.124399
0.124399
0.124399
0.124399
0.124399
0.124399
0.124399
0.124399
0.124399
0.1244
0.1244
0.124402
0.124407
0.129072
0.143673
0.124534
0.112992
0.118974
0.124416
0.12532
0.124911
0.124588
0.124455
0.124411
0.124399
0.124396
0.124395
0.124395
0.124395
0.124395
0.124395
0.124395
0.124395
0.124395
0.124395
0.124395
0.124395
0.124395
0.124395
0.124395
0.124395
0.124395
0.124395
0.124395
0.124395
0.124395
0.124395
0.124395
0.124395
0.124395
0.124395
0.124395
0.124395
0.124395
0.124395
0.124395
0.124395
0.124395
0.124395
0.124395
0.124395
0.124395
0.124395
0.124395
0.124395
0.124395
0.124395
0.124395
0.124395
0.124395
0.124395
0.124395
0.124395
0.124395
0.124395
0.124395
0.124395
0.124395
0.124395
0.124395
0.124395
0.124395
0.124395
0.124395
0.124395
0.124395
0.124395
0.124395
0.124395
0.124395
0.124395
0.124395
0.124395
0.124395
0.124395
0.124395
0.124395
0.124395
0.124395
0.124395
0.124395
0.124395
0.124395
0.124395
0.124395
0.124395
0.124395
0.124396
0.124396
0.124396
0.124396
0.124397
0.124402
0.122328
0.117852
0.142011
0.151869
0.142247
0.132319
0.127268
0.125317
0.124667
0.12447
0.124413
0.124398
0.124393
0.124392
0.124392
0.124392
0.124392
0.124392
0.124392
0.124392
0.124392
0.124392
0.124392
0.124392
0.124392
0.124392
0.124392
0.124392
0.124392
0.124392
0.124392
0.124392
0.124392
0.124392
0.124392
0.124392
0.124392
0.124392
0.124392
0.124392
0.124392
0.124392
0.124392
0.124392
0.124392
0.124392
0.124392
0.124392
0.124392
0.124392
0.124392
0.124392
0.124392
0.124392
0.124392
0.124392
0.124392
0.124392
0.124392
0.124392
0.124392
0.124392
0.124392
0.124392
0.124392
0.124392
0.124392
0.124392
0.124392
0.124392
0.124392
0.124392
0.124392
0.124392
0.124392
0.124392
0.124392
0.124392
0.124392
0.124392
0.124392
0.124392
0.124392
0.124392
0.124392
0.124392
0.124392
0.124392
0.124392
0.124392
0.124392
0.124392
0.124392
0.124392
0.124392
0.124392
0.124393
0.124393
0.124393
0.124397
0.125145
0.129079
0.128336
0.129754
0.130517
0.128669
0.126457
0.125184
0.124655
0.124472
0.124414
0.124396
0.124391
0.124389
0.124389
0.124389
0.124389
0.124389
0.124389
0.124389
0.124389
0.124389
0.124389
0.124389
0.124389
0.124389
0.124389
0.124389
0.124389
0.124389
0.124389
0.124389
0.124389
0.124389
0.124389
0.124389
0.124389
0.124389
0.124389
0.124389
0.124389
0.124389
0.124389
0.124389
0.124389
0.124389
0.124389
0.124389
0.124389
0.124389
0.124389
0.124389
0.124389
0.124389
0.124389
0.124389
0.124389
0.124389
0.124389
0.124389
0.124389
0.124389
0.124389
0.124389
0.124389
0.124389
0.124389
0.124389
0.124389
0.124389
0.124389
0.124389
0.124389
0.124389
0.124389
0.124389
0.124389
0.124389
0.124389
0.124389
0.124389
0.124389
0.124389
0.124389
0.124389
0.124389
0.124389
0.124389
0.124389
0.124389
0.124389
0.124389
0.124389
0.124389
0.124389
0.124389
0.124389
0.124389
0.124389
0.124391
0.124292
0.125008
0.132142
0.13566
0.133093
0.129188
0.126482
0.125165
0.124647
0.124467
0.124409
0.124391
0.124386
0.124384
0.124383
0.124383
0.124383
0.124383
0.124383
0.124383
0.124383
0.124383
0.124383
0.124383
0.124383
0.124383
0.124383
0.124383
0.124383
0.124383
0.124383
0.124383
0.124383
0.124383
0.124383
0.124383
0.124383
0.124383
0.124383
0.124383
0.124383
0.124383
0.124383
0.124383
0.124383
0.124383
0.124383
0.124383
0.124383
0.124383
0.124383
0.124383
0.124383
0.124383
0.124383
0.124383
0.124383
0.124383
0.124383
0.124383
0.124383
0.124383
0.124383
0.124383
0.124383
0.124383
0.124383
0.124383
0.124383
0.124383
0.124383
0.124383
0.124383
0.124383
0.124383
0.124383
0.124383
0.124383
0.124383
0.124383
0.124383
0.124383
0.124383
0.124383
0.124383
0.124383
0.124383
0.124383
0.124383
0.124383
0.124383
0.124383
0.124383
0.124383
0.124383
0.124382
0.124382
0.124382
0.124382
0.124383
0.124419
0.125413
0.130472
0.133696
0.132063
0.128764
0.126313
0.125096
0.124614
0.124446
0.124392
0.124375
0.12437
0.124368
0.124367
0.124367
0.124367
0.124367
0.124367
0.124367
0.124367
0.124367
0.124367
0.124367
0.124367
0.124367
0.124367
0.124367
0.124367
0.124367
0.124367
0.124367
0.124367
0.124367
0.124367
0.124367
0.124367
0.124367
0.124367
0.124367
0.124367
0.124367
0.124367
0.124367
0.124367
0.124367
0.124367
0.124367
0.124367
0.124367
0.124367
0.124367
0.124367
0.124367
0.124367
0.124367
0.124367
0.124367
0.124367
0.124367
0.124367
0.124367
0.124367
0.124367
0.124367
0.124367
0.124367
0.124367
0.124367
0.124367
0.124367