/*--------------------------------*- C++ -*----------------------------------*\
| =========                 |                                                 |
| \\      /  F ield         | OpenFOAM: The Open Source CFD Toolbox           |
|  \\    /   O peration     | Version:  v2012                                 |
|   \\  /    A nd           | Website:  www.openfoam.com                      |
|    \\/     M anipulation  |                                                 |
\*---------------------------------------------------------------------------*/
FoamFile
{
    version     2.0;
    format      ascii;
    class       volScalarField;
    location    "0.01";
    object      nut.air;
}
// * * * * * * * * * * * * * * * * * * * * * * * * * * * * * * * * * * * * * //

dimensions      [0 2 -1 0 0 0 0];


internalField   nonuniform List<scalar> 
1900
(
1.07825e-05
1.25664e-05
1.64262e-05
1.88877e-05
2.41648e-05
2.74263e-05
3.43632e-05
3.85098e-05
4.73081e-05
5.22547e-05
0.000159654
0.000160874
0.000158783
0.000160688
0.000158664
0.000161514
0.000159938
0.000164539
0.000168257
0.000181714
0.000160352
0.00015995
0.000159348
0.000158905
0.000158437
0.000157934
0.000157608
0.000157064
0.000156917
0.000157123
0.000160336
0.00015999
0.000159348
0.00015898
0.000158448
0.000158038
0.000157609
0.000157172
0.000156796
0.000156454
0.000160318
0.00016
0.000159367
0.000158957
0.000158521
0.000157959
0.000157761
0.000157005
0.000157081
0.000156121
0.000160275
0.000159991
0.000159393
0.000158876
0.000158633
0.000157796
0.00015797
0.000156754
0.000157388
0.0001558
0.000160224
0.000160065
0.000159309
0.000158967
0.000158528
0.000157884
0.000157865
0.000156817
0.000157307
0.000155814
0.000160402
0.000160037
0.000159245
0.000159149
0.000158149
0.000158352
0.000157108
0.000157656
0.000156123
0.000157077
0.000160126
0.000160254
0.000159457
0.00015989
0.000159428
0.000160436
0.000160253
0.000161549
0.000160777
0.000160914
1.00951e-05
1.29274e-05
1.60495e-05
1.87943e-05
2.37842e-05
2.7581e-05
3.37772e-05
3.8769e-05
4.61247e-05
5.21497e-05
0.000203596
0.0008551
0.0022556
0.00261265
0.00217561
0.00118434
0.000750677
0.0004525
0.000307907
0.000248091
0.000222369
0.000209752
0.000202521
0.00019779
0.000194429
0.000191942
0.00019009
0.000188676
0.000187528
0.000186547
0.000185678
0.000184817
0.000183753
0.000182196
0.000179884
0.000176724
0.000172841
0.000168522
0.000164135
0.000160036
0.000156493
0.000153645
0.000151503
0.000149987
0.000148971
0.000148323
0.000147926
0.000147693
0.00014756
0.000147487
0.000147449
0.000147429
0.00014742
0.000147415
0.000147413
0.000147412
0.000147412
0.000147413
0.000147413
0.000147414
0.000147414
0.000147415
0.000147417
0.000147422
0.000147425
0.000147427
0.000147427
0.000147428
0.000147428
0.000147428
0.000147428
0.000147429
0.000147428
0.000147428
0.000147428
0.000147428
0.000147427
0.000147426
0.000147426
0.000147426
0.000147426
0.000147425
0.000147425
0.000147425
0.000147426
0.000147426
0.000147426
0.000147426
0.000147426
0.000147426
0.000147426
0.000147426
0.000147426
0.000147426
0.000147426
0.000147426
0.000147426
0.000147426
0.000147426
0.000147425
0.000147424
0.000147424
0.000147424
0.000147424
0.000147424
0.000147425
0.000147428
0.000147428
0.000147428
0.000147428
0.000206935
0.000269174
0.000599057
0.000652434
0.000625744
0.000433056
0.000291195
0.000225917
0.0002021
0.00019319
0.000189325
0.000187185
0.000185612
0.000184245
0.000183057
0.00018209
0.00018139
0.000180977
0.000180838
0.000180909
0.000181031
0.000180953
0.000180397
0.000179143
0.000177082
0.000174221
0.000170672
0.000166701
0.000162661
0.000158897
0.000155657
0.000153063
0.000151117
0.000149741
0.000148819
0.00014823
0.000147869
0.000147657
0.000147537
0.000147471
0.000147436
0.000147418
0.00014741
0.000147406
0.000147405
0.000147404
0.000147404
0.000147405
0.000147405
0.000147406
0.000147406
0.000147407
0.00014741
0.000147411
0.000147412
0.000147413
0.000147414
0.000147414
0.000147414
0.000147415
0.000147416
0.000147416
0.000147416
0.000147417
0.000147417
0.000147417
0.000147416
0.000147417
0.000147417
0.000147417
0.000147417
0.000147416
0.000147416
0.000147416
0.000147416
0.000147417
0.000147417
0.000147416
0.000147416
0.000147416
0.000147416
0.000147416
0.000147416
0.000147416
0.000147416
0.000147416
0.000147417
0.000147416
0.000147416
0.000147416
0.000147416
0.000147417
0.000147417
0.000147416
0.000147416
0.000147417
0.000147417
0.000147417
0.000147416
0.000147417
0.000159755
0.000170122
0.000219554
0.000215949
0.000201634
0.000185404
0.000181231
0.00018064
0.000181364
0.000182133
0.000182554
0.000182583
0.00018221
0.000181549
0.000180766
0.000180051
0.000179519
0.000179241
0.000179265
0.000179568
0.000179971
0.000180135
0.000179665
0.000178271
0.000175868
0.0001726
0.000168779
0.00016477
0.000160903
0.000157435
0.00015453
0.000152249
0.000150561
0.00014938
0.000148593
0.000148093
0.000147789
0.00014761
0.00014751
0.000147455
0.000147426
0.000147411
0.000147405
0.000147402
0.0001474
0.000147401
0.000147401
0.000147401
0.000147402
0.000147402
0.000147403
0.000147403
0.000147406
0.000147407
0.000147408
0.000147409
0.00014741
0.00014741
0.000147411
0.000147411
0.000147411
0.000147412
0.000147412
0.000147412
0.000147412
0.000147412
0.000147413
0.000147412
0.000147413
0.000147413
0.000147413
0.000147413
0.000147413
0.000147413
0.000147413
0.000147413
0.000147414
0.000147414
0.000147413
0.000147414
0.000147413
0.000147414
0.000147413
0.000147413
0.000147413
0.000147413
0.000147413
0.000147412
0.000147412
0.000147413
0.000147413
0.000147413
0.000147413
0.000147413
0.000147413
0.000147413
0.000147413
0.000147413
0.000147413
0.000147414
0.000156166
0.000157101
0.0001589
0.000160065
0.000162016
0.000165621
0.000170227
0.000174232
0.000177342
0.000180051
0.000181488
0.000182081
0.000182053
0.000181592
0.000180961
0.000180361
0.00017991
0.000179699
0.000179831
0.000180322
0.000180966
0.000181314
0.000180844
0.00017921
0.000176389
0.000172655
0.000168434
0.000164163
0.000160193
0.000156755
0.000153956
0.000151806
0.00015024
0.000149158
0.000148445
0.000147996
0.000147726
0.000147568
0.000147479
0.000147431
0.000147406
0.000147394
0.000147388
0.000147385
0.000147385
0.000147384
0.000147385
0.000147385
0.000147385
0.000147386
0.000147386
0.000147387
0.000147392
0.000147395
0.000147396
0.000147397
0.000147398
0.000147397
0.000147398
0.000147399
0.000147398
0.000147399
0.000147399
0.0001474
0.000147399
0.000147399
0.000147398
0.000147398
0.000147398
0.000147398
0.000147398
0.000147398
0.000147398
0.000147398
0.000147398
0.000147398
0.000147398
0.000147398
0.000147398
0.000147398
0.000147398
0.000147398
0.000147398
0.000147398
0.000147398
0.000147398
0.000147398
0.000147398
0.000147398
0.000147398
0.000147398
0.000147398
0.000147398
0.000147398
0.000147397
0.000147398
0.000147398
0.000147398
0.000147398
0.000147398
0.000156706
0.000155327
0.000157015
0.000155905
0.000158301
0.000162125
0.000166984
0.000172426
0.000175758
0.000179725
0.000183278
0.000185427
0.00018664
0.000187007
0.000186979
0.000186898
0.000186898
0.000187098
0.000187646
0.000188546
0.000189437
0.000189629
0.000188425
0.00018552
0.000181136
0.00017586
0.000170357
0.000165161
0.000160611
0.00015686
0.000153918
0.000151714
0.00015014
0.000149067
0.000148369
0.000147934
0.000147672
0.000147522
0.000147437
0.000147392
0.000147368
0.000147357
0.000147351
0.000147349
0.000147348
0.000147347
0.000147348
0.000147348
0.000147349
0.000147349
0.00014735
0.000147352
0.000147354
0.000147355
0.000147356
0.000147357
0.000147357
0.000147359
0.000147359
0.00014736
0.00014736
0.00014736
0.000147361
0.000147361
0.000147361
0.00014736
0.000147361
0.000147361
0.000147361
0.000147361
0.000147361
0.000147361
0.00014736
0.000147361
0.000147361
0.00014736
0.000147361
0.00014736
0.00014736
0.00014736
0.00014736
0.00014736
0.00014736
0.00014736
0.00014736
0.000147359
0.00014736
0.00014736
0.00014736
0.00014736
0.00014736
0.000147361
0.000147361
0.000147363
0.000147363
0.000147363
0.000147364
0.000147364
0.000147364
0.000147364
0.000157159
0.000154733
0.000156887
0.000154873
0.000157094
0.000160878
0.000166099
0.000171871
0.000178517
0.000190598
0.000199415
0.000205317
0.00021068
0.000213934
0.00021578
0.000217342
0.000218656
0.000219827
0.000220984
0.000221954
0.000222002
0.000220033
0.000215234
0.000207646
0.000198183
0.000188112
0.000178569
0.000170314
0.00016366
0.000158572
0.00015483
0.000152169
0.00015034
0.000149129
0.000148357
0.000147882
0.0001476
0.000147438
0.000147349
0.000147301
0.000147277
0.000147265
0.000147259
0.000147257
0.000147256
0.000147256
0.000147256
0.000147256
0.000147257
0.000147257
0.000147258
0.000147259
0.000147262
0.000147265
0.000147266
0.000147266
0.000147267
0.000147268
0.000147267
0.000147268
0.000147268
0.000147268
0.000147268
0.000147268
0.000147269
0.000147268
0.000147268
0.000147268
0.000147268
0.000147268
0.000147268
0.000147268
0.000147268
0.000147268
0.000147268
0.000147268
0.000147268
0.000147267
0.000147267
0.000147267
0.000147267
0.000147267
0.000147266
0.000147266
0.000147266
0.000147266
0.000147266
0.000147266
0.000147267
0.000147269
0.000147271
0.00014727
0.00014727
0.00014727
0.000147269
0.00014727
0.00014727
0.000147269
0.00014727
0.00014727
0.000157077
0.000154558
0.000156713
0.000153998
0.000156956
0.000160697
0.000167868
0.000182942
0.000208895
0.000240006
0.000261292
0.000277069
0.000287496
0.000294889
0.000301741
0.000306636
0.000309984
0.000312508
0.000314289
0.000314307
0.000310709
0.000301824
0.000287073
0.000267503
0.000245341
0.000223183
0.000203227
0.000186752
0.000174071
0.000164834
0.000158393
0.00015406
0.00015123
0.000149428
0.000148311
0.000147636
0.00014724
0.000147012
0.000146886
0.000146817
0.000146781
0.000146763
0.000146756
0.000146754
0.000146751
0.000146751
0.00014675
0.00014675
0.00014675
0.00014675
0.000146754
0.000146757
0.000146759
0.000146759
0.000146759
0.000146759
0.00014676
0.000146759
0.000146759
0.000146759
0.000146759
0.000146759
0.00014676
0.000146759
0.000146758
0.000146758
0.000146758
0.000146758
0.000146758
0.000146758
0.000146757
0.000146758
0.000146757
0.000146758
0.000146758
0.000146758
0.000146758
0.000146758
0.000146758
0.000146758
0.000146759
0.000146759
0.000146759
0.000146758
0.000146758
0.000146758
0.000146758
0.000146758
0.000146758
0.000146758
0.000146758
0.000146758
0.000146758
0.000146758
0.000146759
0.000146758
0.000146758
0.000146757
0.000146757
0.000146754
0.000154853
0.000157047
0.000153995
0.000155817
0.000159475
0.00017448
0.000207492
0.000265936
0.000328766
0.000375701
0.000408548
0.000431634
0.00044589
0.000457692
0.000469471
0.000479389
0.000487096
0.000494859
0.000501304
0.000502213
0.000491759
0.000466314
0.000427339
0.000380641
0.000332616
0.000287769
0.000248681
0.000216628
0.00019189
0.0001738
0.000161151
0.00015265
0.000147093
0.000143515
0.000141251
0.000139902
0.000139079
0.000138571
0.000138292
0.000138142
0.000138047
0.000138012
0.000138018
0.000138029
0.000138038
0.000138046
0.000138051
0.000138054
0.000138057
0.000138058
0.00013806
0.000138061
0.000138061
0.000138061
0.00013806
0.00013806
0.00013806
0.00013806
0.00013806
0.000138059
0.000138059
0.000138059
0.000138059
0.000138058
0.000138058
0.000138058
0.000138058
0.000138057
0.000138057
0.000138057
0.000138057
0.000138056
0.000138056
0.000138056
0.000138056
0.000138056
0.000138056
0.000138056
0.000138056
0.000138056
0.000138056
0.000138055
0.000138055
0.000138055
0.000138055
0.000138055
0.000138055
0.000138055
0.000138055
0.000138055
0.000138055
0.000138054
0.000138055
0.000138055
0.000138056
0.000138057
0.000138059
0.000138063
0.000138069
0.000138101
0.000159522
0.000157977
0.00015901
0.000178475
0.000228315
0.000317726
0.000412826
0.000506596
0.000565193
0.000616239
0.000644007
0.000659088
0.0006791
0.000699202
0.000718259
0.000738213
0.000747462
0.000746969
0.000743724
0.000730608
0.000701246
0.000653301
0.000590763
0.000521021
0.000451127
0.000379606
0.000317931
0.000269961
0.000235456
0.000212312
0.000196972
0.000187169
0.000181332
0.000178061
0.000176354
0.000175462
0.000174931
0.000174799
0.000175013
0.000175381
0.000175754
0.000176062
0.000176289
0.000176447
0.000176551
0.000176617
0.000176656
0.000176679
0.000176692
0.000176698
0.000176703
0.000176704
0.000176705
0.000176707
0.000176707
0.000176707
0.000176709
0.00017671
0.00017671
0.00017671
0.00017671
0.000176711
0.000176711
0.000176711
0.000176711
0.000176711
0.000176712
0.000176712
0.000176712
0.000176712
0.000176713
0.000176713
0.000176713
0.000176713
0.000176713
0.000176713
0.000176714
0.000176713
0.00017671
0.000176711
0.000176711
0.000176711
0.000176711
0.000176711
0.000176711
0.000176711
0.000176711
0.000176711
0.000176712
0.000176712
0.000176712
0.000176712
0.000176714
0.000176717
0.000176722
0.000176734
0.000176757
0.000176823
0.000176878
0.000177366
6.18475e-05
7.09837e-05
8.39925e-05
9.78439e-05
0.000116041
0.000137129
0.00016194
0.000186515
0.000203036
0.000214582
0.000218206
0.000215444
0.000209679
0.000202659
0.00019538
0.000188693
0.000183169
0.000178648
0.000174843
0.000171547
0.000168445
0.000165489
0.000163197
0.000161989
0.000161369
0.000161082
0.000161581
0.000163048
0.000164738
0.000166407
0.000167913
0.000169174
0.000170157
0.000170876
0.000171374
0.0001717
0.000171902
0.000172014
0.000172066
0.000172083
0.000172086
0.000172084
0.000172081
0.000172079
0.000172078
0.000172077
0.000172077
0.000172076
0.000172076
0.000172076
0.000172077
0.000172077
0.000172077
0.000172077
0.000172077
0.000172077
0.000172077
0.000172077
0.000172077
0.000172077
0.000172077
0.000172077
0.000172077
0.000172077
0.000172077
0.000172077
0.000172077
0.000172077
0.000172077
0.000172077
0.000172077
0.000172077
0.000172077
0.000172077
0.000172077
0.000172077
0.000172077
0.000172077
0.000172077
0.000172077
0.000172077
0.000172077
0.000172077
0.000172077
0.000172077
0.000172077
0.000172077
0.000172077
0.000172077
0.000172077
0.000172077
0.000172077
0.000172077
0.000172078
0.000172078
0.000172079
0.00017208
0.000172086
0.000172081
0.000172104
0.00030808
0.00154266
0.00160832
0.00195933
0.00188825
0.00150251
0.0011206
0.000436383
0.001405
0.00300629
0.00392509
0.00382767
0.00358898
0.00280142
0.00150198
0.000496599
0.0027346
0.00407416
0.00501809
0.00501112
0.00510574
0.00471659
0.0028442
0.00049134
0.00401022
0.00481139
0.00538677
0.00561306
0.00573173
0.00544059
0.00371555
0.000472099
0.0042901
0.0042807
0.00478038
0.00521224
0.00526974
0.00515212
0.00412011
0.000467059
0.0029106
0.00387955
0.00415395
0.00444799
0.00442211
0.00441785
0.00412765
0.000551087
0.00141678
0.00250889
0.0027636
0.00309907
0.00317398
0.00310242
0.00289773
0.000623195
0.000852503
0.00144572
0.00172961
0.00201912
0.00230312
0.0024215
0.00242979
0.000714036
0.000542468
0.000888621
0.00121233
0.00147187
0.00181166
0.00214525
0.00221437
0.000631028
0.000385364
0.000627663
0.00101246
0.00123246
0.00160055
0.00205823
0.00211068
0.000479091
0.000309999
0.000485144
0.000790155
0.00113238
0.00153496
0.00204669
0.00197697
0.000302905
0.000271558
0.000404842
0.000662054
0.00108337
0.00151538
0.00202775
0.00181493
0.000229055
0.000249709
0.000356916
0.000584953
0.000996623
0.00150104
0.00190328
0.00167247
0.000189348
0.000235948
0.00032607
0.000534044
0.000921
0.00147308
0.00177097
0.00154404
0.000164792
0.000226548
0.000304596
0.000496481
0.00086228
0.00139459
0.00164192
0.00142629
0.000148493
0.000219616
0.00028806
0.000464225
0.000806654
0.0012996
0.00151517
0.00130996
0.00013736
0.000214127
0.000273871
0.00043267
0.00074672
0.00119542
0.00138902
0.00117263
0.000129927
0.000209413
0.000260604
0.000399792
0.000680638
0.00108528
0.0012661
0.00105024
0.000125276
0.000205085
0.000247805
0.000365783
0.000610647
0.000973504
0.00114861
0.000944176
0.000122505
0.000201073
0.000235742
0.000332565
0.000541861
0.00086669
0.00104439
0.000854612
0.000120763
0.000197473
0.00022491
0.000302273
0.000479396
0.000769692
0.000954425
0.000778737
0.00012085
0.000194299
0.000215609
0.000276404
0.000426003
0.000685079
0.000871692
0.000710083
0.000122157
0.000191359
0.000207805
0.000255616
0.000382783
0.000614155
0.000794916
0.000643055
0.000123747
0.000188315
0.00020121
0.000239663
0.000349137
0.00055448
0.000717457
0.000573076
0.000125478
0.000184875
0.000195404
0.00022745
0.000322615
0.000500903
0.000625921
0.000498471
0.000127221
0.000180921
0.000189935
0.00021747
0.000300051
0.000449568
0.000527289
0.0004252
0.00012888
0.0001765
0.000184423
0.000208371
0.000278879
0.000399231
0.000436423
0.000361058
0.000130367
0.000171766
0.000178683
0.000199298
0.000257674
0.000350348
0.000358248
0.000309505
0.000131589
0.000166954
0.000172801
0.000190025
0.000236378
0.000304151
0.000293208
0.000270946
0.000132498
0.000162367
0.000167091
0.000180865
0.0002159
0.000262562
0.000240923
0.000243996
0.000133115
0.000158305
0.000161934
0.000172395
0.000197497
0.000227471
0.000200724
0.000226316
0.000133499
0.000154967
0.000157612
0.000165144
0.00018217
0.00019986
0.000171373
0.000215365
0.000133716
0.000152413
0.000154242
0.000159383
0.000170307
0.000179483
0.00015108
0.000208974
0.000133826
0.00015058
0.000151778
0.000155109
0.000161724
0.000165322
0.000137718
0.000205492
0.000133873
0.000149337
0.000150077
0.000152124
0.000155875
0.000156005
0.000129272
0.000203781
0.000133886
0.000148535
0.000148962
0.000150147
0.000152096
0.000150164
0.00012415
0.000203023
0.000133884
0.000148041
0.000148263
0.000148897
0.000149761
0.00014665
0.000121186
0.000202635
0.000133876
0.000147747
0.000147841
0.00014814
0.000148376
0.00014461
0.00011946
0.000202581
0.000133867
0.000147579
0.000147596
0.000147698
0.000147584
0.000143461
0.000118491
0.000202677
0.000133859
0.000147486
0.000147459
0.000147448
0.000147145
0.000142831
0.000117962
0.000202778
0.000133853
0.000147436
0.000147385
0.000147313
0.000146909
0.000142494
0.000117679
0.000202865
0.000133849
0.00014741
0.000147346
0.000147241
0.000146786
0.000142317
0.00011753
0.000202932
0.000133846
0.000147398
0.000147326
0.000147205
0.000146724
0.000142226
0.000117452
0.000202979
0.000133844
0.000147392
0.000147317
0.000147187
0.000146693
0.00014218
0.000117412
0.000203011
0.000133843
0.000147389
0.000147313
0.000147178
0.000146679
0.000142157
0.000117392
0.000203031
0.000133842
0.000147388
0.000147311
0.000147175
0.000146672
0.000142146
0.000117382
0.000203044
0.000133842
0.000147388
0.000147311
0.000147173
0.00014667
0.000142142
0.000117376
0.000203052
0.000133841
0.000147389
0.000147311
0.000147173
0.000146669
0.000142139
0.000117373
0.000203057
0.000133841
0.000147389
0.000147311
0.000147173
0.000146668
0.000142138
0.000117371
0.00020306
0.000133841
0.00014739
0.000147312
0.000147174
0.000146669
0.000142138
0.00011737
0.000203062
0.000133841
0.00014739
0.000147312
0.000147174
0.000146669
0.000142137
0.00011737
0.000203064
0.000133841
0.000147391
0.000147313
0.000147174
0.000146669
0.000142137
0.00011737
0.000203064
0.000133841
0.000147392
0.000147313
0.000147175
0.00014667
0.000142137
0.00011737
0.000203067
0.000133841
0.000147397
0.000147314
0.000147175
0.00014667
0.000142138
0.00011737
0.000203069
0.000133841
0.000147398
0.000147315
0.000147176
0.00014667
0.000142138
0.000117369
0.000203069
0.000133841
0.000147399
0.000147315
0.000147176
0.000146671
0.000142138
0.000117369
0.000203071
0.000133841
0.0001474
0.000147316
0.000147177
0.000146671
0.000142139
0.000117369
0.000203072
0.000133841
0.0001474
0.000147317
0.000147178
0.000146672
0.000142139
0.000117368
0.000203072
0.000133841
0.000147401
0.000147317
0.000147178
0.000146673
0.00014214
0.000117368
0.000203072
0.000133841
0.000147402
0.000147317
0.000147179
0.000146673
0.00014214
0.000117368
0.000203074
0.000133841
0.000147402
0.000147319
0.000147179
0.000146673
0.00014214
0.000117368
0.000203074
0.000133841
0.000147401
0.000147319
0.00014718
0.000146673
0.000142141
0.000117367
0.000203075
0.000133841
0.000147402
0.00014732
0.000147181
0.000146673
0.000142141
0.000117367
0.000203075
0.000133841
0.000147401
0.00014732
0.000147181
0.000146674
0.00014214
0.000117367
0.000203076
0.000133841
0.000147401
0.00014732
0.000147181
0.000146675
0.00014214
0.000117367
0.000203076
0.000133841
0.000147402
0.00014732
0.000147181
0.000146675
0.000142141
0.000117367
0.000203076
0.000133841
0.000147402
0.000147321
0.000147182
0.000146675
0.000142141
0.000117367
0.000203076
0.000133841
0.000147402
0.000147321
0.000147182
0.000146675
0.000142141
0.000117367
0.000203077
0.000133841
0.000147401
0.000147322
0.000147182
0.000146676
0.000142141
0.000117366
0.000203077
0.000133841
0.000147401
0.000147321
0.000147182
0.000146676
0.000142141
0.000117366
0.000203077
0.000133841
0.0001474
0.000147322
0.000147182
0.000146676
0.000142141
0.000117366
0.000203078
0.000133841
0.0001474
0.000147321
0.000147182
0.000146677
0.000142141
0.000117365
0.000203078
0.000133841
0.0001474
0.000147322
0.000147182
0.000146677
0.000142141
0.000117365
0.000203079
0.000133841
0.0001474
0.000147322
0.000147182
0.000146678
0.000142141
0.000117365
0.000203078
0.000133841
0.0001474
0.000147322
0.000147182
0.000146678
0.000142141
0.000117365
0.000203078
0.000133841
0.0001474
0.000147321
0.000147182
0.000146678
0.000142141
0.000117365
0.000203078
0.000133841
0.0001474
0.000147322
0.000147182
0.000146678
0.000142141
0.000117366
0.000203078
0.000133841
0.0001474
0.000147322
0.000147183
0.000146678
0.000142141
0.000117366
0.000203077
0.000133841
0.0001474
0.000147321
0.000147183
0.000146678
0.000142141
0.000117366
0.000203078
0.000133841
0.000147401
0.000147322
0.000147183
0.000146678
0.000142141
0.000117366
0.000203077
0.000133841
0.0001474
0.000147322
0.000147183
0.000146678
0.000142141
0.000117365
0.000203078
0.000133841
0.000147401
0.000147321
0.000147183
0.000146678
0.000142141
0.000117365
0.000203078
0.000133841
0.000147401
0.000147322
0.000147183
0.000146678
0.000142141
0.000117365
0.000203078
0.000133841
0.000147401
0.000147321
0.000147183
0.000146678
0.000142141
0.000117365
0.000203078
0.000133841
0.000147401
0.000147321
0.000147183
0.000146678
0.000142142
0.000117365
0.000203077
0.000133841
0.000147401
0.000147321
0.000147183
0.000146678
0.000142141
0.000117365
0.000203078
0.000133841
0.000147401
0.000147321
0.000147183
0.000146678
0.000142141
0.000117365
0.000203078
0.000133841
0.000147401
0.000147321
0.000147183
0.000146678
0.000142141
0.000117365
0.000203077
0.000133841
0.000147401
0.000147321
0.000147183
0.000146677
0.000142141
0.000117365
0.000203078
0.000133841
0.000147401
0.000147321
0.000147183
0.000146678
0.000142141
0.000117364
0.000203077
0.000133841
0.000147401
0.000147322
0.000147184
0.000146677
0.000142141
0.000117364
0.000203077
0.000133841
0.000147401
0.000147322
0.000147183
0.000146678
0.000142141
0.000117364
0.000203075
0.00013384
0.000147401
0.000147321
0.000147184
0.000146678
0.000142141
0.000117365
0.000203074
0.00013384
0.000147401
0.000147322
0.000147184
0.000146678
0.000142142
0.000117366
0.000203074
0.00013384
0.000147401
0.000147322
0.000147184
0.000146678
0.000142142
0.000117367
0.000203074
0.000133839
0.000147401
0.000147322
0.000147184
0.000146678
0.000142141
0.000117367
0.000203072
0.000133837
0.000147401
0.000147322
0.000147184
0.000146678
0.000142142
0.000117368
0.00020307
0.000133834
0.000147401
0.000147322
0.000147184
0.000146679
0.000142143
0.000117369
0.000203053
0.000133828
0.000147401
0.000147323
0.000147184
0.000146679
0.000142144
0.000117374
0.000203117
0.000133803
0.000147403
0.000147323
0.000147184
0.00014668
0.000142151
0.000117386
0.000203049
0.000133778
)
;

boundaryField
{
    frontAndBack
    {
        type            empty;
    }
    inlet
    {
        type            calculated;
        value           nonuniform List<scalar> 10(9.54771e-06 0.000160714 0.000160714 0.000160714 0.000160714 0.000160714 0.000160714 0.000160714 0.000160714 9.54724e-06);
    }
    outlet
    {
        type            calculated;
        value           nonuniform List<scalar> 
18
(
0.000147403
0.000147323
0.000147184
0.00014668
0.000142151
0.000117386
0.000204854
0.000169166
0.000147428
0.000147417
0.000147414
0.000147398
0.000147364
0.00014727
0.000146754
0.000138101
0.000177366
0.000180595
)
;
    }
    walls
    {
        type            nutkWallFunction;
        blending        stepwise;
        Cmu             0.09;
        kappa           0.41;
        E               9.8;
        value           nonuniform List<scalar> 
228
(
2.20335e-05
2.44558e-05
2.91024e-05
3.17397e-05
3.68041e-05
3.96154e-05
4.50074e-05
4.7938e-05
5.34605e-05
5.6516e-05
0.000322688
0.000340335
0.000350781
0.000358776
0.000362822
0.000348753
0.0003045
6.06234e-05
6.06234e-05
9.10055e-05
0.00010467
0.000110061
0.000111518
0.00010883
9.47252e-05
8.58369e-05
7.61853e-05
7.05839e-05
6.59729e-05
6.22439e-05
5.92387e-05
5.68541e-05
5.50053e-05
5.36416e-05
5.27644e-05
5.23479e-05
5.22815e-05
5.2408e-05
5.2927e-05
5.36916e-05
5.44708e-05
5.52248e-05
5.59241e-05
5.65536e-05
5.71041e-05
5.75629e-05
5.79261e-05
5.82017e-05
5.84031e-05
5.85448e-05
5.86415e-05
5.87064e-05
5.87495e-05
5.8778e-05
5.87964e-05
5.88081e-05
5.88155e-05
5.88202e-05
5.88231e-05
5.88249e-05
5.8826e-05
5.88266e-05
5.8827e-05
5.88273e-05
5.88274e-05
5.88274e-05
5.88275e-05
5.88275e-05
5.88275e-05
5.88275e-05
5.88275e-05
5.88275e-05
5.88275e-05
5.88275e-05
5.88275e-05
5.88275e-05
5.88275e-05
5.88275e-05
5.88275e-05
5.88275e-05
5.88275e-05
5.88274e-05
5.88274e-05
5.88275e-05
5.88274e-05
5.88274e-05
5.88274e-05
5.88274e-05
5.88274e-05
5.88274e-05
5.88274e-05
5.88274e-05
5.88274e-05
5.88274e-05
5.88274e-05
5.88274e-05
5.88274e-05
5.88274e-05
5.88274e-05
5.88274e-05
5.88274e-05
5.88274e-05
5.88274e-05
5.88274e-05
5.88274e-05
5.88274e-05
5.88274e-05
5.88274e-05
5.88274e-05
5.88274e-05
5.88274e-05
5.88273e-05
5.88273e-05
5.88273e-05
5.88273e-05
5.88274e-05
5.88251e-05
5.8829e-05
2.10374e-05
2.49234e-05
2.8679e-05
3.16461e-05
3.64711e-05
3.9766e-05
4.46429e-05
4.82266e-05
5.30943e-05
5.68232e-05
6.2424e-05
6.75078e-05
7.3932e-05
7.97242e-05
8.56599e-05
9.0429e-05
9.42388e-05
9.62565e-05
9.60936e-05
9.52488e-05
9.33269e-05
9.07871e-05
8.8194e-05
8.57195e-05
8.34505e-05
8.15129e-05
7.99993e-05
7.88314e-05
7.78948e-05
7.7144e-05
7.64892e-05
7.58925e-05
7.54703e-05
7.5323e-05
7.53329e-05
7.54378e-05
7.57433e-05
7.62873e-05
7.68871e-05
7.74765e-05
7.80092e-05
7.84569e-05
7.88094e-05
7.90712e-05
7.92562e-05
7.93812e-05
7.94619e-05
7.95108e-05
7.95378e-05
7.95512e-05
7.95578e-05
7.95611e-05
7.95627e-05
7.95635e-05
7.95639e-05
7.95641e-05
7.95642e-05
7.95643e-05
7.95643e-05
7.95644e-05
7.95644e-05
7.95644e-05
7.95644e-05
7.95644e-05
7.95645e-05
7.95645e-05
7.95645e-05
7.95645e-05
7.95645e-05
7.95645e-05
7.95645e-05
7.95645e-05
7.95645e-05
7.95645e-05
7.95645e-05
7.95645e-05
7.95645e-05
7.95645e-05
7.95645e-05
7.95645e-05
7.95645e-05
7.95645e-05
7.95645e-05
7.95645e-05
7.95645e-05
7.95645e-05
7.95645e-05
7.95644e-05
7.95644e-05
7.95644e-05
7.95644e-05
7.95644e-05
7.95644e-05
7.95644e-05
7.95644e-05
7.95644e-05
7.95644e-05
7.95644e-05
7.95644e-05
7.95644e-05
7.95644e-05
7.95644e-05
7.95643e-05
7.95643e-05
7.95642e-05
7.95639e-05
7.95636e-05
7.95624e-05
7.95615e-05
7.95556e-05
)
;
    }
}


// ************************************************************************* //
