/*--------------------------------*- C++ -*----------------------------------*\
| =========                 |                                                 |
| \\      /  F ield         | OpenFOAM: The Open Source CFD Toolbox           |
|  \\    /   O peration     | Version:  v2012                                 |
|   \\  /    A nd           | Website:  www.openfoam.com                      |
|    \\/     M anipulation  |                                                 |
\*---------------------------------------------------------------------------*/
FoamFile
{
    version     2.0;
    format      ascii;
    class       volScalarField;
    location    "0.01";
    object      omega.air;
}
// * * * * * * * * * * * * * * * * * * * * * * * * * * * * * * * * * * * * * //

dimensions      [0 0 -1 0 0 0 0];


internalField   nonuniform List<scalar> 
1900
(
2499.95
2684.37
3045.53
3254.34
3662.08
3891.88
4338.76
4584.76
5053.53
5315.99
2753.41
2639.52
2565.17
2466.44
2409.62
2326.99
2288.76
2226.88
2217.9
2258.93
2752.22
2638.96
2560.48
2458.42
2394.34
2300.78
2249.18
2162.1
2121.77
2031.99
2743.32
2649.28
2549.44
2469.92
2381.5
2312.91
2235.13
2173.73
2107.06
2049.54
2745.16
2646.95
2551.47
2467.39
2383.43
2310.65
2236.42
2172.52
2107.06
2050.23
2746.64
2645.24
2553.03
2465.69
2384.83
2309.28
2237.38
2171.9
2107.28
2050.79
2746.46
2645.34
2553.18
2465.64
2385.32
2309.12
2238.12
2171.83
2108.11
2051.02
2743.37
2648.76
2550.94
2468.79
2384.49
2311.42
2239.37
2172.79
2112.04
2050.41
2746.45
2645.86
2559.52
2471.59
2404.67
2331.32
2281.37
2222.93
2186.38
2153.17
2422.56
2732.86
2997.45
3255.37
3635.3
3908.25
4307.3
4610.18
5020.08
5341.09
9005.51
10925.8
10749.3
10272.1
9091.12
6239.52
3487.75
2423.28
2004.14
1797.24
1664.57
1563.72
1480.21
1408.15
1344.6
1287.67
1235.85
1187.82
1142.62
1100.03
1060.45
1024.61
993.095
966.099
943.406
924.487
908.639
895.169
883.592
873.712
865.508
858.987
854.06
850.524
848.107
846.532
845.543
844.948
844.599
844.402
844.292
844.234
844.2
844.182
844.17
844.163
844.156
844.151
844.147
844.14
844.137
844.131
844.127
844.121
844.117
844.113
844.107
844.103
844.101
844.094
844.093
844.087
844.086
844.086
844.081
844.081
844.08
844.079
844.079
844.079
844.077
844.077
844.076
844.076
844.069
844.068
844.067
844.065
844.065
844.064
844.062
844.063
844.061
844.061
844.061
844.058
844.058
844.056
844.056
844.056
844.061
844.06
844.06
844.061
844.059
844.06
844.059
844.059
844.058
844.058
2850.33
4351.72
5907.31
5730.38
4624.79
2936.97
2197.62
1915.67
1774.15
1675.15
1590.55
1514.05
1444.15
1380.39
1322.31
1269.25
1220.31
1174.58
1131.45
1090.78
1052.89
1018.31
987.544
960.864
938.171
919.053
902.963
889.437
878.158
868.926
861.596
855.991
851.887
849.011
847.084
845.845
845.079
844.623
844.356
844.208
844.124
844.079
844.054
844.039
844.029
844.024
844.017
844.013
844.008
844.002
843.998
843.995
843.989
843.985
843.98
843.978
843.97
843.968
843.962
843.96
843.954
843.951
843.951
843.945
843.945
843.94
843.941
843.939
843.936
843.935
843.935
843.935
843.932
843.929
843.929
843.926
843.925
843.925
843.924
843.923
843.924
843.922
843.924
843.92
843.92
843.919
843.918
843.917
843.915
843.916
843.915
843.915
843.912
843.912
843.912
843.911
843.91
843.911
843.911
843.91
2030.66
2102.48
2330.47
2288.59
2117.11
1913.78
1822.2
1761.09
1699.51
1634.53
1566.66
1499.03
1434.02
1373.05
1316.67
1264.7
1216.55
1171.44
1128.86
1088.7
1051.23
1016.9
986.136
959.199
936.097
916.61
900.354
886.891
875.86
866.995
860.069
854.854
851.082
848.466
846.729
845.621
844.941
844.538
844.304
844.175
844.102
844.064
844.041
844.027
844.02
844.012
844.008
844.002
843.998
843.993
843.988
843.984
843.981
843.975
843.972
843.966
843.96
843.957
843.952
843.951
843.945
843.943
843.937
843.934
843.933
843.93
843.929
843.928
843.924
843.923
843.921
843.921
843.92
843.92
843.918
843.919
843.915
843.915
843.914
843.912
843.912
843.911
843.91
843.91
843.907
843.907
843.906
843.907
843.904
843.903
843.901
843.902
843.899
843.899
843.899
843.897
843.897
843.898
843.897
843.896
1984.74
1920.62
1893.75
1838.62
1796.36
1766.95
1746.67
1719.32
1676.37
1622.5
1560.82
1496.27
1432.9
1372.81
1316.9
1265.21
1217.22
1172.21
1129.73
1089.75
1052.48
1018.23
987.281
959.839
936.021
915.802
898.988
885.281
874.3
865.671
859.049
854.122
850.589
848.155
846.55
845.533
844.911
844.546
844.336
844.218
844.154
844.119
844.098
844.087
844.077
844.072
844.066
844.061
844.057
844.052
844.047
844.043
844.037
844.034
844.029
844.023
844.019
844.017
844.011
844.005
844.004
843.997
843.996
843.994
843.992
843.991
843.987
843.987
843.987
843.985
843.985
843.981
843.982
843.98
843.98
843.979
843.978
843.975
843.976
843.975
843.973
843.973
843.973
843.97
843.968
843.968
843.965
843.964
843.963
843.963
843.963
843.962
843.961
843.961
843.961
843.957
843.957
843.957
843.956
843.955
1982.66
1917.83
1856.43
1805.84
1763.54
1734.07
1722.15
1704.32
1669.37
1620.53
1563.19
1502.67
1442.24
1383.97
1328.98
1277.53
1229.26
1183.75
1140.82
1100.51
1062.92
1028.02
995.851
966.637
940.784
918.656
900.359
885.676
874.199
865.424
858.835
853.987
850.524
848.151
846.592
845.608
845.014
844.663
844.466
844.355
844.296
844.261
844.244
844.232
844.225
844.218
844.213
844.209
844.202
844.199
844.193
844.189
844.185
844.179
844.176
844.17
844.167
844.16
844.158
844.151
844.149
844.144
844.142
844.14
844.138
844.138
844.135
844.134
844.131
844.132
844.131
844.13
844.13
844.126
844.126
844.127
844.125
844.125
844.124
844.123
844.122
844.122
844.119
844.117
844.117
844.117
844.114
844.113
844.113
844.109
844.109
844.106
844.106
844.105
844.105
844.106
844.103
844.103
844.103
844.101
1981.42
1918.8
1850.43
1801.48
1748.32
1722.01
1714.99
1701.27
1680.55
1651.51
1610.03
1561.6
1508.93
1454.75
1401.2
1349.15
1298.77
1250.27
1203.9
1159.72
1117.36
1076.26
1036.31
998.412
964.136
934.775
910.846
892.199
878.181
867.883
860.409
855.059
851.331
848.822
847.198
846.187
845.578
845.226
845.027
844.918
844.86
844.827
844.811
844.801
844.795
844.789
844.785
844.781
844.774
844.771
844.766
844.761
844.758
844.751
844.748
844.741
844.738
844.732
844.73
844.724
844.721
844.721
844.72
844.714
844.713
844.711
844.71
844.71
844.706
844.705
844.706
844.704
844.704
844.704
844.702
844.7
844.698
844.699
844.697
844.698
844.698
844.697
844.697
844.698
844.696
844.696
844.695
844.694
844.693
844.692
844.691
844.691
844.69
844.69
844.692
844.69
844.69
844.692
844.69
844.691
1982.18
1918.22
1849.14
1797.18
1739.57
1724.5
1733.45
1758.91
1811.07
1841.87
1837.55
1820.11
1782.01
1732.6
1678.52
1621.83
1563.85
1505.56
1446.96
1387.4
1325.64
1260.69
1192.91
1125.03
1061.39
1006.1
961.485
927.607
902.975
885.606
873.687
865.733
860.581
857.342
855.369
854.206
853.552
853.203
853.03
852.953
852.927
852.924
852.925
852.928
852.945
852.947
852.948
852.95
852.949
852.95
852.948
852.948
852.947
852.946
852.945
852.943
852.939
852.938
852.938
852.935
852.934
852.933
852.929
852.928
852.928
852.928
852.926
852.924
852.923
852.922
852.921
852.919
852.919
852.914
852.914
852.912
852.911
852.91
852.908
852.907
852.904
852.903
852.902
852.902
852.902
852.901
852.9
852.9
852.899
852.899
852.897
852.897
852.895
852.895
852.897
852.899
852.902
852.915
852.934
853.012
1990.84
1911.52
1863.84
1786.09
1789.53
1840.02
1971.11
2223.82
2442.76
2595.19
2629.06
2614.41
2573.28
2503.92
2427.6
2347.46
2263.88
2177.67
2086.45
1988.63
1886.63
1784.41
1683.2
1579.61
1472.99
1369.61
1277.56
1201.73
1143.56
1102.34
1075.77
1060.2
1052.15
1048.93
1048.37
1048.54
1049.25
1050.35
1051.42
1052.37
1053.18
1053.85
1054.39
1054.77
1055.02
1055.17
1055.26
1055.31
1055.34
1055.35
1055.36
1055.36
1055.36
1055.36
1055.36
1055.36
1055.36
1055.37
1055.37
1055.37
1055.37
1055.37
1055.37
1055.37
1055.37
1055.37
1055.37
1055.37
1055.37
1055.37
1055.37
1055.37
1055.37
1055.36
1055.36
1055.36
1055.36
1055.36
1055.36
1055.36
1055.36
1055.36
1055.36
1055.36
1055.36
1055.36
1055.36
1055.36
1055.36
1055.36
1055.36
1055.36
1055.36
1055.37
1055.38
1055.41
1055.45
1055.56
1055.7
1056.48
2137.25
2144.29
2183.33
2314.5
2618.17
3137.33
3816.15
4321.4
4632.12
4661.26
4617.87
4507.92
4346.87
4189.15
4050.8
3916.68
3768.31
3611.71
3456.93
3301.69
3155.94
3046.71
2999.65
2992.32
2983.05
2960.5
2938.65
2929.9
2930.55
2936.92
2956.07
2983.43
3010.24
3033.98
3053.46
3068.46
3079.41
3087.05
3092.26
3095.78
3098.05
3099.42
3100.19
3100.63
3100.88
3101.03
3101.11
3101.16
3101.19
3101.21
3101.22
3101.22
3101.23
3101.23
3101.24
3101.25
3101.25
3101.25
3101.25
3101.25
3101.26
3101.26
3101.26
3101.26
3101.27
3101.27
3101.27
3101.27
3101.27
3101.27
3101.27
3101.27
3101.27
3101.27
3101.27
3101.28
3101.28
3101.28
3101.28
3101.28
3101.28
3101.28
3101.28
3101.28
3101.28
3101.28
3101.28
3101.28
3101.28
3101.28
3101.29
3101.29
3101.29
3101.3
3101.32
3101.37
3101.45
3101.71
3101.9
3103.67
5824.29
6272.44
6845.59
7364.57
7900.18
8330.36
8678.81
8856
8839.3
8759.77
8581.06
8349.4
8114.28
7890.49
7686.75
7515.05
7382.01
7278.57
7195.22
7127.75
7067.86
7014.03
6978.59
6968.61
6970.74
6982.23
7014.04
7064.63
7118.87
7171.23
7217.83
7256.43
7286.39
7308.37
7323.73
7334
7340.54
7344.43
7346.51
7347.54
7348.04
7348.29
7348.41
7348.47
7348.5
7348.52
7348.53
7348.53
7348.54
7348.54
7348.54
7348.54
7348.55
7348.55
7348.55
7348.55
7348.55
7348.55
7348.55
7348.55
7348.55
7348.55
7348.55
7348.55
7348.55
7348.55
7348.55
7348.55
7348.55
7348.55
7348.55
7348.55
7348.55
7348.55
7348.55
7348.55
7348.55
7348.54
7348.54
7348.54
7348.54
7348.54
7348.54
7348.54
7348.54
7348.54
7348.54
7348.54
7348.54
7348.54
7348.54
7348.54
7348.54
7348.53
7348.53
7348.5
7348.47
7348.36
7348.29
7347.76
2582.42
2737.53
2830.82
2902.7
2939.3
2817.28
2431.27
10116.6
6964.87
4879.76
5961.83
7004.62
7657
8329.73
10090.7
14930.1
7989.53
6420.71
7255.72
8044.69
8379.03
8600.81
10047.7
17133.2
9260.93
7997.75
8216.52
8604.8
8762.69
8869.85
9749.02
18017.8
9175.96
9034.83
9082.22
9312.02
9555.99
9467.16
9599.34
18262.1
8137.39
8589.26
8865.28
9219.03
9743.4
9725.3
9658.15
17712.1
5684.85
7085.86
7886.24
8439.3
9022.66
9238.8
9148.67
15440
3491
4886.99
6022.47
6854.09
7642.95
8163
8291.12
13918.8
2500.83
3416
4519.62
5485.8
6416.45
7082.16
7340.46
12452.2
2065.38
2601.59
3547.13
4503.59
5480.64
6169.15
6563.97
11562.4
1830.52
2178.36
2929.2
3834.28
4773.98
5419.43
5905.04
10846.4
1678.18
1930.79
2534.66
3383.41
4244.43
4828.4
5394.58
10270.5
1565.47
1762.75
2266.71
3065.41
3835.47
4362.55
5003.47
9809.54
1475.05
1636.6
2072.99
2822.17
3504.15
3987.21
4697.12
9447.54
1399.05
1535.47
1922.53
2617.09
3223.85
3676.06
4450.97
9170.7
1333.07
1450.07
1794.9
2429.43
2974.72
3404.84
4248.7
8971.71
1274.24
1374.36
1677.65
2248.82
2743.58
3162.67
4077.96
8849.91
1220.29
1304.32
1563.98
2070
2523.35
2941.46
3934.34
8798.2
1169.73
1238.23
1452.79
1892.55
2314.52
2741.79
3811.47
8795.01
1122.21
1176.45
1347.66
1722.18
2119.87
2559.47
3699.74
8822.78
1078.33
1120.47
1253.76
1567.15
1945.23
2397.53
3601.52
8916.74
1039.09
1071.85
1174.63
1434.41
1796.86
2264.99
3537.81
9036.57
1005.21
1031.38
1111.31
1327.15
1673.65
2150.33
3522.52
9157.93
976.906
998.79
1062.3
1243.88
1570.23
2047.58
3535.9
9274.8
953.79
972.803
1024.24
1179.08
1482.15
1979.46
3619.42
9383.07
934.941
951.497
993.325
1126.01
1402.6
1937.05
3837.38
9480.57
919.086
933.067
966.727
1079.14
1324.42
1887.59
4033.74
9565.27
905.1
916.301
942.948
1035.45
1244.66
1823.97
4182.45
9634.98
892.385
900.832
921.574
994.509
1166.21
1755.59
4292.57
9689.52
880.92
886.956
902.77
957.63
1094.71
1694.04
4376.65
9730.44
871.01
875.151
886.873
926.364
1034.85
1646.36
4442.26
9759.98
862.938
865.699
874.111
901.583
988.543
1613.93
4493.13
9780.52
856.762
858.562
864.424
883.167
955.138
1594.5
4531.78
9794.42
852.305
853.465
857.461
870.263
932.516
1584.72
4560.57
9803.69
849.257
850.002
852.703
861.686
918.036
1581.28
4581.63
9809.81
847.27
847.754
849.599
856.248
909.218
1580.97
4596.78
9813.81
846.027
846.355
847.66
852.944
904.095
1581.49
4607.43
9816.38
845.28
845.513
846.493
851.012
901.261
1583.23
4614.77
9818
844.844
845.027
845.816
849.922
899.764
1585.03
4619.74
9819.02
844.599
844.751
845.435
849.328
899.008
1586.5
4623.04
9819.65
844.463
844.601
845.226
849.012
898.648
1587.6
4625.21
9820.05
844.388
844.519
845.116
848.85
898.486
1588.39
4626.62
9820.29
844.348
844.476
845.057
848.768
898.42
1588.93
4627.52
9820.44
844.326
844.453
845.026
848.725
898.396
1589.29
4628.09
9820.52
844.312
844.438
845.009
848.703
898.39
1589.53
4628.45
9820.58
844.305
844.431
844.998
848.692
898.389
1589.67
4628.67
9820.61
844.298
844.424
844.991
848.684
898.386
1589.76
4628.8
9820.62
844.293
844.419
844.985
848.679
898.386
1589.82
4628.88
9820.63
844.288
844.415
844.98
848.675
898.385
1589.85
4628.93
9820.64
844.282
844.409
844.977
848.67
898.383
1589.87
4628.95
9820.64
844.279
844.405
844.971
848.666
898.382
1589.89
4628.97
9820.64
844.275
844.4
844.968
848.662
898.38
1589.89
4628.98
9820.64
844.269
844.396
844.962
848.657
898.378
1589.9
4628.98
9820.64
844.266
844.391
844.958
848.652
898.374
1589.91
4628.99
9820.64
844.26
844.387
844.952
848.648
898.372
1589.91
4628.99
9820.64
844.257
844.383
844.948
848.642
898.37
1589.92
4629
9820.63
844.251
844.378
844.943
848.639
898.365
1589.93
4629
9820.64
844.247
844.376
844.938
848.632
898.362
1589.93
4629
9820.63
844.242
844.372
844.935
848.628
898.358
1589.93
4629.01
9820.63
844.239
844.371
844.93
848.626
898.353
1589.93
4629.01
9820.63
844.236
844.363
844.928
848.622
898.352
1589.93
4629
9820.63
844.235
844.36
844.92
848.62
898.348
1589.94
4629.01
9820.63
844.232
844.358
844.918
848.619
898.346
1589.94
4629.01
9820.63
844.231
844.356
844.913
848.613
898.346
1589.94
4629.01
9820.63
844.226
844.354
844.911
848.611
898.346
1589.94
4629.01
9820.63
844.224
844.353
844.91
848.61
898.341
1589.94
4629.01
9820.63
844.218
844.346
844.909
848.606
898.339
1589.94
4629.01
9820.63
844.217
844.346
844.907
848.605
898.338
1589.94
4629.01
9820.63
844.217
844.341
844.905
848.604
898.337
1589.95
4629.01
9820.63
844.217
844.341
844.903
848.6
898.336
1589.95
4629.01
9820.63
844.213
844.339
844.902
848.6
898.336
1589.95
4629.01
9820.63
844.213
844.339
844.901
848.597
898.336
1589.95
4629.01
9820.63
844.213
844.335
844.902
848.596
898.334
1589.95
4629.02
9820.63
844.213
844.335
844.898
848.591
898.333
1589.95
4629.02
9820.62
844.21
844.334
844.898
848.59
898.332
1589.95
4629.01
9820.62
844.209
844.334
844.897
848.59
898.332
1589.95
4629.02
9820.62
844.208
844.33
844.899
848.588
898.329
1589.94
4629.01
9820.62
844.207
844.33
844.894
848.587
898.327
1589.94
4629.01
9820.62
844.206
844.33
844.892
848.584
898.327
1589.94
4629.02
9820.62
844.203
844.329
844.891
848.583
898.327
1589.94
4629.02
9820.62
844.202
844.328
844.89
848.581
898.326
1589.95
4629.01
9820.62
844.198
844.33
844.888
848.581
898.325
1589.94
4629.02
9820.62
844.198
844.327
844.887
848.579
898.323
1589.94
4629.02
9820.62
844.196
844.326
844.887
848.579
898.323
1589.95
4629.02
9820.62
844.195
844.326
844.885
848.577
898.32
1589.95
4629.02
9820.62
844.195
844.325
844.886
848.577
898.32
1589.95
4629.01
9820.62
844.193
844.326
844.884
848.576
898.318
1589.95
4629.02
9820.62
844.192
844.325
844.884
848.575
898.318
1589.95
4629.02
9820.62
844.192
844.322
844.884
848.577
898.317
1589.95
4629.02
9820.62
844.191
844.322
844.884
848.574
898.317
1589.95
4629.02
9820.62
844.19
844.32
844.88
848.575
898.316
1589.95
4629.01
9820.62
844.189
844.32
844.88
848.574
898.314
1589.95
4629
9820.62
844.189
844.319
844.878
848.574
898.315
1589.94
4628.99
9820.61
844.188
844.318
844.877
848.573
898.311
1589.92
4628.96
9820.61
844.188
844.317
844.878
848.572
898.31
1589.9
4628.92
9820.61
844.189
844.316
844.876
848.57
898.308
1589.86
4628.85
9820.61
844.189
844.316
844.876
848.57
898.303
1589.8
4628.7
9820.61
844.187
844.313
844.876
848.567
898.292
1589.67
4628.49
9820.61
844.187
844.313
844.875
848.566
898.274
1589.45
4627.78
9820.27
844.187
844.312
844.874
848.558
898.188
1588.58
4626.06
9820.85
)
;

boundaryField
{
    frontAndBack
    {
        type            empty;
    }
    inlet
    {
        type            fixedValue;
        value           uniform 2800;
    }
    outlet
    {
        type            zeroGradient;
    }
    walls
    {
        blending        binomial2;
        n               2;
        beta1           0.075;
        type            omegaWallFunction;
        value           nonuniform List<scalar> 
228
(
2499.95
2684.37
3045.53
3254.34
3662.08
3891.88
4338.76
4584.76
5053.53
5315.99
2582.42
2737.53
2830.82
2902.7
2939.3
2817.28
2431.27
10116.6
10116.6
14930.1
17133.2
18017.8
18262.1
17712.1
15440
13918.8
12452.2
11562.4
10846.4
10270.5
9809.54
9447.54
9170.7
8971.71
8849.91
8798.2
8795.01
8822.78
8916.74
9036.57
9157.93
9274.8
9383.07
9480.57
9565.27
9634.98
9689.52
9730.44
9759.98
9780.52
9794.42
9803.69
9809.81
9813.81
9816.38
9818
9819.02
9819.65
9820.05
9820.29
9820.44
9820.52
9820.58
9820.61
9820.62
9820.63
9820.64
9820.64
9820.64
9820.64
9820.64
9820.64
9820.64
9820.63
9820.64
9820.63
9820.63
9820.63
9820.63
9820.63
9820.63
9820.63
9820.63
9820.63
9820.63
9820.63
9820.63
9820.63
9820.63
9820.63
9820.63
9820.62
9820.62
9820.62
9820.62
9820.62
9820.62
9820.62
9820.62
9820.62
9820.62
9820.62
9820.62
9820.62
9820.62
9820.62
9820.62
9820.62
9820.62
9820.62
9820.61
9820.61
9820.61
9820.61
9820.61
9820.61
9820.27
9820.85
2422.56
2732.86
2997.45
3255.37
3635.3
3908.25
4307.3
4610.18
5020.08
5341.09
5824.29
6272.44
6845.59
7364.57
7900.18
8330.36
8678.81
8856
8839.3
8759.77
8581.06
8349.4
8114.28
7890.49
7686.75
7515.05
7382.01
7278.57
7195.22
7127.75
7067.86
7014.03
6978.59
6968.61
6970.74
6982.23
7014.04
7064.63
7118.87
7171.23
7217.83
7256.43
7286.39
7308.37
7323.73
7334
7340.54
7344.43
7346.51
7347.54
7348.04
7348.29
7348.41
7348.47
7348.5
7348.52
7348.53
7348.53
7348.54
7348.54
7348.54
7348.54
7348.55
7348.55
7348.55
7348.55
7348.55
7348.55
7348.55
7348.55
7348.55
7348.55
7348.55
7348.55
7348.55
7348.55
7348.55
7348.55
7348.55
7348.55
7348.55
7348.55
7348.55
7348.55
7348.55
7348.55
7348.55
7348.54
7348.54
7348.54
7348.54
7348.54
7348.54
7348.54
7348.54
7348.54
7348.54
7348.54
7348.54
7348.54
7348.54
7348.54
7348.54
7348.53
7348.53
7348.5
7348.47
7348.36
7348.29
7347.76
)
;
    }
}


// ************************************************************************* //
