/*--------------------------------*- C++ -*----------------------------------*\
| =========                 |                                                 |
| \\      /  F ield         | OpenFOAM: The Open Source CFD Toolbox           |
|  \\    /   O peration     | Version:  v2012                                 |
|   \\  /    A nd           | Website:  www.openfoam.com                      |
|    \\/     M anipulation  |                                                 |
\*---------------------------------------------------------------------------*/
FoamFile
{
    version     2.0;
    format      ascii;
    class       Cloud<basicKinematicParcel>;
    location    "0.019/lagrangian/kinematicCloud";
    object      positions;
}
// * * * * * * * * * * * * * * * * * * * * * * * * * * * * * * * * * * * * * //

18
(
(0.3142 -0.00338576 0.03) 1309
(0.300162 0.00584012 0.03) 324
(0.279486 0.0130847 0.03) 522
(0.258278 0.00312022 0.03) 220
(0.237314 0.0201489 0.03) 818
(0.217476 0.0169213 0.03) 716
(0.167124 0.00129811 0.03) 110
(0.175753 0.0223514 0.03) 911
(0.153265 0.0234348 0.03) 909
(0.133022 0.00918064 0.03) 407
(0.130859 0.00846332 0.03) 406
(0.112202 0.00525483 0.03) 204
(0.0678525 0.0265744 0.03) 1000
(0.0559233 5.97264e-05 0.03) 8
(0.0519605 0.0255631 0.03) 97
(0.0415224 0.0123115 0.03) 46
(0.0274095 0.00259561 0.03) 4
(0.0136467 0.0243776 0.03) 92
)


// ************************************************************************* //
