/*--------------------------------*- C++ -*----------------------------------*\
| =========                 |                                                 |
| \\      /  F ield         | OpenFOAM: The Open Source CFD Toolbox           |
|  \\    /   O peration     | Version:  v2012                                 |
|   \\  /    A nd           | Website:  www.openfoam.com                      |
|    \\/     M anipulation  |                                                 |
\*---------------------------------------------------------------------------*/
FoamFile
{
    version     2.0;
    format      ascii;
    class       Cloud<basicKinematicParcel>;
    location    "0.019/lagrangian/kinematicCloud";
    object      positions;
}
// * * * * * * * * * * * * * * * * * * * * * * * * * * * * * * * * * * * * * //

18
(
(0.0182732 0.00277995 0.03) 12
(0.016387 0.00954875 0.03) 32
(0.0155679 0.0152073 0.03) 52
(0.0136842 0.00558031 0.03) 22
(0.0117209 0.0207903 0.03) 71
(0.010373 0.0174042 0.03) 61
(0.00702081 0.00130704 0.03) 1
(0.00749827 0.0224133 0.03) 81
(0.006119 0.0234803 0.03) 80
(0.00543116 0.00914068 0.03) 30
(0.00461026 0.00842509 0.03) 30
(0.00387909 0.00520214 0.03) 10
(0.00143842 0.0265753 0.03) 90
(0.000766482 5.94742e-05 0.03) 0
(0.00156399 0.0255671 0.03) 90
(0.001395 0.0123112 0.03) 40
(0.00183952 0.00259414 0.03) 0
(0.00148645 0.0243779 0.03) 90
)


// ************************************************************************* //
