/*--------------------------------*- C++ -*----------------------------------*\
| =========                 |                                                 |
| \\      /  F ield         | OpenFOAM: The Open Source CFD Toolbox           |
|  \\    /   O peration     | Version:  v2012                                 |
|   \\  /    A nd           | Website:  www.openfoam.com                      |
|    \\/     M anipulation  |                                                 |
\*---------------------------------------------------------------------------*/
FoamFile
{
    version     2.0;
    format      ascii;
    class       vectorField;
    location    "0.019/lagrangian/kinematicCloud";
    object      U;
}
// * * * * * * * * * * * * * * * * * * * * * * * * * * * * * * * * * * * * * //


18
(
(10.3217 0.000660199 0)
(10.334 3.07736e-06 0)
(10.3472 -0.000531585 0)
(10.3594 0.00120258 0)
(10.368 -0.00203375 0)
(10.3751 -0.00103156 0)
(9.73767 0.00151956 0)
(10.3906 -0.00342236 0)
(10.4001 -0.003166 0)
(10.4087 0.00116592 0)
(10.4088 0.000449504 0)
(10.4187 0.00182324 0)
(10.3804 -0.00244052 0)
(10.4073 0.00151187 0)
(10.4405 -0.00166542 0)
(10.4617 1.95373e-05 0)
(10.4743 0.000535911 0)
(10.4867 -0.000314102 0)
)


// ************************************************************************* //
