/*--------------------------------*- C++ -*----------------------------------*\
| =========                 |                                                 |
| \\      /  F ield         | OpenFOAM: The Open Source CFD Toolbox           |
|  \\    /   O peration     | Version:  v2012                                 |
|   \\  /    A nd           | Website:  www.openfoam.com                      |
|    \\/     M anipulation  |                                                 |
\*---------------------------------------------------------------------------*/
FoamFile
{
    version     2.0;
    format      ascii;
    class       vectorField;
    location    "0.019/lagrangian/kinematicCloud";
    object      U;
}
// * * * * * * * * * * * * * * * * * * * * * * * * * * * * * * * * * * * * * //


18
(
(13.0914 0.0131313 0)
(13.0153 0.00341918 0)
(12.8853 -0.00403257 0)
(12.748 0.00868021 0)
(12.6181 -0.00919107 0)
(12.4839 -0.00363985 0)
(10.9372 0.004182 0)
(12.2147 -0.0098448 0)
(12.0616 -0.00870346 0)
(11.9022 0.00338449 0)
(11.8897 0.0014085 0)
(11.742 0.005227 0)
(11.4472 -0.0061676 0)
(11.3233 0.00421984 0)
(11.2129 -0.00408426 0)
(11.0589 7.84538e-05 0)
(10.8787 0.0012844 0)
(10.6919 -0.000672354 0)
)


// ************************************************************************* //
