/*--------------------------------*- C++ -*----------------------------------*\
| =========                 |                                                 |
| \\      /  F ield         | OpenFOAM: The Open Source CFD Toolbox           |
|  \\    /   O peration     | Version:  v2012                                 |
|   \\  /    A nd           | Website:  www.openfoam.com                      |
|    \\/     M anipulation  |                                                 |
\*---------------------------------------------------------------------------*/
FoamFile
{
    version     2.0;
    format      ascii;
    class       volScalarField;
    location    "0.084";
    object      epsilon.air;
}
// * * * * * * * * * * * * * * * * * * * * * * * * * * * * * * * * * * * * * //

dimensions      [0 2 -3 0 0 0 0];


internalField   nonuniform List<scalar> 
1900
(
112.724
141.424
210.097
257.591
369.051
443.457
614.741
724.902
971.335
1128.61
15.4676
16.4471
18.6375
20.4502
23.7572
27.7276
32.0003
39.3097
44.9859
56.9741
14.7926
14.6414
14.5755
14.5063
14.515
14.5558
14.6443
14.829
15.0762
15.4173
14.77
14.6304
14.4635
14.3354
14.1726
14.059
13.904
13.8079
13.6653
13.5938
14.7766
14.6215
14.4705
14.3204
14.1749
14.0288
13.8891
13.7471
13.614
13.4769
14.7777
14.6205
14.4715
14.3195
14.1756
14.0283
13.8893
13.7471
13.6134
13.4772
14.7775
14.6208
14.4731
14.3234
14.1845
14.0445
13.9184
13.7906
13.6815
13.571
14.7752
14.65
14.5642
14.5036
14.5113
14.5515
14.6392
14.8135
15.0541
15.3897
15.2054
16.6088
18.2808
20.6698
23.6154
27.5593
32.2941
38.3947
45.5853
54.8153
105.747
146.754
198.271
265.926
350.075
456.21
585.883
743.828
932.131
1154.14
4099.11
15199.6
19581.2
22440.9
21101.4
17996.5
15064.2
12770.1
11283.9
10375.6
9882.85
9712.77
9539.16
9268.89
8858.32
8356.34
7799.49
7211.62
6644.98
6126.72
5649.78
5223
4838.58
4487.49
4167.96
3878.28
3615.5
3377.74
3161.8
2965.75
2787.27
2624.38
2475.4
2338.81
2213.43
2098.07
1991.81
1893.67
1802.87
1718.67
1640.45
1567.65
1499.76
1436.35
1377.03
1321.43
1269.25
1220.2
1174.02
1130.46
1089.33
1050.42
1013.59
978.65
945.486
913.951
883.942
855.331
828.04
801.95
777.007
753.094
730.191
708.173
687.059
666.707
647.183
628.318
610.229
592.704
575.92
559.611
544.028
528.833
514.364
500.19
486.757
473.515
461.045
448.642
437.07
425.423
414.695
403.726
393.802
383.433
374.283
364.442
356.052
346.661
339.028
330.002
323.135
314.373
308.298
299.682
294.436
285.834
281.449
271.111
112.918
337.793
517.98
922.566
1124.91
1147.77
1119.63
1054.54
1049.45
1089.2
1195.2
1410.53
1698.93
2032.34
2382.69
2695.08
2973.18
3205.58
3360.41
3436.72
3428.78
3389.73
3303.25
3184.8
3055.97
2924.25
2793.02
2666.19
2542.66
2425.23
2313.15
2206.18
2104.82
2008.89
1918.55
1833.5
1753.67
1678.53
1607.85
1541.32
1478.65
1419.55
1363.78
1311.11
1261.32
1214.19
1169.56
1127.24
1087.06
1048.85
1012.5
977.861
944.824
913.271
883.116
854.253
826.619
800.117
774.7
750.275
726.815
704.229
682.516
661.573
641.432
621.971
603.263
585.158
567.775
550.919
534.764
519.061
504.05
489.416
475.479
461.838
448.909
436.181
424.196
412.298
401.197
390.05
379.78
369.306
359.827
349.951
341.23
331.878
323.898
314.993
307.747
299.205
292.7
284.423
278.679
270.555
265.604
257.507
253.382
243.671
16.4219
19.8679
22.8839
29.0947
34.7977
38.7056
41.6635
43.6946
46.6207
50.6403
58.6802
70.9583
95.586
130.575
189.948
268.078
374.501
510.07
667.469
838.718
1007.5
1165.82
1305.22
1421.2
1510.66
1572.82
1609.87
1626.7
1623.97
1613.19
1590.48
1560.49
1526.31
1489.22
1450.75
1411.06
1371.31
1331.04
1291.28
1252.21
1213.85
1176.37
1139.89
1104.47
1070.16
1036.89
1004.75
973.644
943.576
914.501
886.396
859.204
832.905
807.449
782.821
758.966
735.886
713.527
691.896
670.936
650.662
631.017
612.029
593.625
575.859
558.631
542.031
525.923
510.437
495.391
480.963
466.913
453.485
440.37
427.89
415.652
404.07
392.644
381.905
371.219
361.274
351.259
342.063
332.651
324.165
315.286
307.483
299.068
291.929
283.912
277.433
269.737
263.919
256.46
251.319
243.998
239.56
232.27
228.562
219.823
13.453
13.4605
13.5462
13.8028
14.3361
15.0073
15.7223
16.3422
16.9289
17.3425
17.8915
18.355
19.2915
20.5042
22.7253
26.2903
31.7555
40.8741
54.8365
76.3983
106.825
147.672
199.673
261.548
331.149
405.692
480.654
553.867
620.693
681.96
734.943
778.911
813.68
839.518
857.914
869.19
874.962
874.483
871.891
866.054
857.364
846.728
834.671
821.34
807.048
791.963
776.341
760.124
743.664
727.012
710.215
693.35
676.499
659.716
643.066
626.544
610.254
594.178
578.399
562.886
547.72
532.863
518.386
504.24
490.51
477.119
464.165
451.531
439.353
427.458
416.035
404.846
394.151
383.632
373.633
363.753
354.421
345.126
336.424
327.675
319.578
311.326
303.808
296.002
289.035
281.624
275.189
268.119
262.212
255.437
250.052
243.511
238.653
232.282
227.966
221.695
217.94
211.689
208.518
201.017
13.3299
13.1589
13.0624
13.1166
13.3057
13.7179
14.2898
14.9135
15.4555
15.8805
16.2052
16.432
16.6031
16.7592
16.8895
17.0948
17.3278
17.7406
18.3252
19.3209
20.858
23.2691
26.8358
32.1998
39.8867
50.7014
65.101
83.5956
106.276
133.104
163.598
196.728
231.777
267.093
302.199
335.242
366.471
394.622
419.634
441.06
459.011
473.465
484.837
493.312
499.204
502.866
504.562
504.255
503.048
500.422
496.572
491.761
486.237
480.023
473.313
466.159
458.706
450.956
443.077
435.021
426.966
418.827
410.737
402.676
394.746
386.881
379.168
371.511
364.037
356.605
349.398
342.199
335.279
328.305
321.677
314.943
308.614
302.129
296.112
289.865
284.158
278.132
272.735
266.91
261.824
256.176
251.403
245.909
241.446
236.073
231.94
226.674
222.894
217.707
214.301
209.156
206.145
201.003
198.403
192.209
13.3251
13.1543
13.0314
13.0863
13.2959
13.7778
14.4967
15.492
16.5088
17.6026
18.5919
19.5084
20.2442
20.856
21.2865
21.5989
21.7764
21.8568
21.8438
21.8006
21.7062
21.6055
21.5343
21.5606
21.67
21.9321
22.4711
23.3787
24.8505
27.0048
30.2281
34.5857
40.5743
48.0951
57.4848
68.6435
81.7089
96.3559
112.45
129.513
147.185
164.982
182.489
199.366
215.292
230.034
243.529
255.597
266.379
275.841
284.103
291.183
297.255
302.368
306.626
310.122
312.941
315.094
316.723
317.746
318.423
318.438
318.233
317.724
316.74
315.426
313.824
311.934
309.839
307.492
304.988
302.253
299.441
296.321
293.305
289.893
286.692
283.047
279.732
275.929
272.564
268.651
265.291
261.298
257.983
253.929
250.69
246.59
243.463
239.333
236.352
232.201
229.401
225.237
222.648
218.472
216.115
211.929
209.822
204.765
13.4664
13.3601
13.4093
13.6558
14.3028
15.6973
18.0213
21.4476
25.4103
29.7052
33.6025
37.0349
39.5645
41.5205
42.5989
43.3293
43.3832
43.2578
42.9339
42.4217
41.7854
41.1514
40.4844
39.8965
39.3327
38.89
38.5194
38.2639
38.1582
38.2104
38.3835
38.7422
39.3742
40.2448
41.5315
43.2288
45.4632
48.3872
52.0486
56.7093
62.3672
69.2858
77.4021
86.8616
97.5308
109.412
122.273
136.015
150.306
165.016
179.766
194.468
208.762
222.624
235.792
248.26
259.9
270.729
280.669
289.756
297.941
305.296
311.782
317.526
322.502
326.774
330.342
333.267
335.514
337.274
338.363
339.14
339.145
338.93
338.399
337.234
336.037
334.085
332.405
329.919
327.864
324.974
322.681
319.486
317.045
313.61
311.084
307.465
304.912
301.16
298.643
294.806
292.386
288.505
286.227
282.341
280.228
276.365
274.45
269.857
15.9171
16.8586
18.5415
21.9588
28.3448
39.5323
55.4534
75.0343
95.4959
114.213
129.219
139.951
146.423
150.044
150.75
150.363
149.34
147.799
146.272
145.18
144.491
144.656
145.255
146.749
148.88
152.35
156.222
161.364
167.167
174.033
181.942
190.641
200.677
211.418
223.509
236.483
250.542
265.633
281.481
298.244
315.474
333.329
351.345
369.539
387.495
405.294
422.553
439.477
455.67
471.395
486.29
500.665
514.192
527.059
539.134
550.351
560.765
570.26
578.836
586.379
592.872
598.351
602.823
606.335
609.023
610.732
611.822
611.787
611.37
610.387
608.616
606.364
603.673
600.404
597.06
592.866
588.919
584.05
579.686
574.337
569.724
564.092
559.431
553.659
549.062
543.224
538.751
532.905
528.605
522.799
518.74
513.021
509.281
503.702
500.334
494.944
491.968
486.776
484.254
478.364
68.0128
90.4884
126.105
184.94
271.823
385.205
511.627
635.792
745.07
831.169
892.589
931.93
952.925
963.265
964.755
963.737
961.125
957.982
956.85
957.677
960.369
966.023
974.745
986.38
1000.35
1016.83
1035.19
1055.81
1078.05
1101.75
1126.76
1152.47
1179.24
1205.9
1233.12
1259.75
1286.06
1311.48
1335.81
1359.04
1380.84
1401.22
1419.99
1437.27
1452.97
1467.22
1479.96
1491.42
1501.5
1510.36
1517.88
1524.24
1529.19
1532.78
1535.29
1536.02
1535.68
1534.45
1531.89
1527.7
1522.67
1516.25
1509.18
1500.85
1492.15
1482.37
1472.04
1461.13
1449.77
1437.77
1425.76
1413.05
1400.75
1387.6
1375.16
1361.74
1349.14
1335.55
1323
1309.47
1297.28
1284
1272.39
1259.54
1248.64
1236.26
1226.09
1214.2
1204.79
1193.39
1184.79
1173.88
1166.19
1155.79
1149.09
1139.24
1133.56
1124.23
1119.65
1109.4
1464.95
1897.04
2398.89
2961.37
3562.72
4171.37
4745.65
5251.02
5654.51
5950.59
6132.15
6219.55
6207.14
6160.54
6062.15
5928.82
5778.45
5619.69
5459.23
5301.41
5149.06
5004.18
4867.64
4739.93
4620.97
4510.99
4409.4
4316.27
4230.83
4153.19
4082.63
4018.99
3961.84
3910.61
3865.18
3824.8
3789.35
3758.23
3731.15
3707.66
3687.55
3670.42
3655.92
3643.67
3633.5
3625.07
3618.3
3612.74
3608.36
3604.9
3602.29
3600.45
3599.23
3598.44
3598.33
3598.46
3598.94
3599.58
3600.83
3601.79
3603.12
3604.19
3605.54
3606.53
3607.69
3608.36
3608.88
3608.84
3608.51
3607.63
3606.45
3604.08
3601.96
3598.26
3594.9
3589.61
3584.67
3577.67
3571.24
3562.71
3555.13
3545.32
3536.82
3525.85
3516.62
3504.68
3494.89
3482.08
3471.89
3458.25
3447.89
3433.43
3423.22
3407.97
3398.25
3382.15
3373.09
3356.04
3347.32
3325.32
1108.62
1064.16
1122.07
1210.1
1238.91
1121.42
818.687
1980.11
54612.4
16116.2
7349.02
6104.33
6234.64
6486.31
6556.99
8029.05
74259
43590.9
24810.6
18455.7
16099.8
15003.8
14632.1
19671
76431.4
71026.6
54246
41195.3
32690.1
27163.1
24552
34070.7
69735.9
75716.2
67759
55659.4
44572.8
35845.7
30865.7
42708.4
57736
71180.9
67956
59052
48382.9
38735.7
32783.1
45227.8
47464.4
61829
62492.2
56614.3
47163.9
38171.7
32445.1
44235.1
39059.7
51804.7
53570.8
49820.7
42376.5
34658
29573.8
39734.4
32609.2
42975.2
44903.3
42113.1
36281.6
30024.4
25804.5
34014
27601.7
35616.3
37245
35099.8
30527.5
25543.9
22212.4
29357.3
23492.1
29584
30817.5
29113.7
25523.2
21626.9
19152.8
26003.3
20115.5
24698.9
25574.1
24182.9
21339.7
18299
16496.1
22974.6
17379.3
20788.6
21373.8
20214.7
17944.4
15561.7
14271.2
20363.9
15146.4
17665.4
18030.6
17050.4
15222
13341.5
12437.3
18165.3
13295
15155.5
15362.6
14527
13041
11546.7
10936.1
16340
11732.7
13113.8
13212.6
12497.1
11280.1
10086.4
9701.04
14819.8
10408.2
11441.3
11467.2
10851.8
9847.57
8889.63
8678.43
13547
9268.94
10053.2
10034.9
9502.9
8669.72
7899.31
7824.53
12473.1
8286.48
8890.62
8847.38
8385.73
7691.34
7071.86
7104.05
11558.6
7443.28
7912.23
7854.21
7452.9
6871.53
6374.31
6489.64
10773.6
6716.46
7083.71
7017.48
6667.82
6178.92
5781.09
5962.79
10093.4
6090.24
6378.8
6308.3
6002.57
5589.64
5273
5508.01
9499.88
5548.09
5775.44
5703.37
5435.21
5085.18
4835.34
5113.46
8980.13
5074.4
5254.74
5183.34
4947.68
4650.38
4456.13
4769.54
8523.69
4658.26
4802.31
4733.09
4525.73
4273.02
4125.47
4468.03
8120.91
4291.01
4406.89
4340.83
4158.23
3943.5
3835.45
4202.27
7763.7
3965.4
4059.28
3997.02
3836.19
3654.05
3579.64
3966.74
7445.19
3675.91
3752.34
3694.18
3552.55
3398.5
3352.9
3756.99
7159.74
3417.43
3480.04
3426.12
3301.49
3171.8
3150.98
3569.42
6902.84
3185.99
3237.55
3187.86
3078.29
2969.82
2970.51
3400.99
6670.73
2978.01
3020.76
2975.25
2879.12
2789.26
2808.26
3249.44
6460.35
2790.5
2826.23
2784.79
2700.65
2627.16
2662.1
3112.54
6269.27
2620.92
2651.06
2613.53
2540.17
2481.11
2530.08
2988.51
6095.43
2467.02
2492.73
2458.96
2395.33
2349.08
2410.46
2875.85
5936.99
2326.98
2349.17
2318.99
2264.13
2229.33
2301.75
2773.24
5792.34
2199.16
2218.58
2191.82
2144.89
2120.34
2202.65
2679.54
5660.03
2082.22
2099.44
2075.91
2036.19
2020.87
2112.06
2593.76
5538.77
1974.93
1990.43
1969.96
1936.8
1929.79
2028.99
2515.03
5427.36
1876.27
1890.42
1872.84
1845.66
1846.2
1952.63
2442.58
5324.78
1785.29
1798.43
1783.59
1761.88
1769.17
1882.3
2375.77
5230.1
1701.22
1713.61
1701.35
1684.66
1698.07
1817.33
2314.03
5142.5
1623.35
1635.21
1625.39
1613.32
1632.32
1757.19
2256.85
5061.31
1551.07
1562.6
1555.09
1547.26
1571.39
1701.39
2203.79
4985.9
1483.86
1495.19
1489.87
1485.97
1514.81
1649.52
2154.48
4915.77
1421.24
1432.51
1429.26
1428.99
1462.16
1601.21
2108.55
4850.39
1362.79
1374.1
1372.82
1375.88
1413.11
1556.14
2065.72
4789.36
1308.14
1319.57
1320.16
1326.3
1367.3
1514.02
2025.71
4732.27
1256.94
1268.56
1270.93
1279.97
1324.46
1474.6
1988.3
4678.83
1208.91
1220.78
1224.84
1236.6
1284.33
1437.66
1953.26
4628.76
1163.76
1175.94
1181.63
1195.93
1246.69
1403
1920.43
4581.8
1121.27
1133.81
1141.05
1157.74
1211.34
1370.44
1889.66
4537.81
1081.22
1094.17
1102.9
1121.85
1178.11
1339.83
1860.79
4496.57
1043.43
1056.82
1066.99
1088.07
1146.83
1311.04
1833.72
4458
1007.7
1021.57
1033.13
1056.23
1117.36
1283.94
1808.33
4421.91
973.895
988.275
1001.17
1026.2
1089.56
1258.41
1784.51
4388.21
941.853
956.771
970.968
997.824
1063.32
1234.33
1762.17
4356.77
911.456
926.932
942.388
970.985
1038.5
1211.6
1741.18
4327.41
882.562
898.616
915.291
945.557
1015.01
1190.12
1721.49
4300.05
855.079
871.724
889.579
921.435
992.732
1169.78
1702.92
4274.41
828.876
846.124
865.124
898.507
971.571
1150.49
1685.44
4250.4
803.889
821.743
841.85
876.69
951.436
1132.15
1668.88
4227.77
779.988
798.454
819.637
855.879
932.24
1114.71
1653.23
4206.4
757.145
776.22
798.443
836.025
913.928
1098.07
1638.37
4186.21
735.226
754.909
778.14
817.013
896.398
1082.17
1624.23
4166.94
714.243
734.529
758.735
798.845
879.651
1067
1610.8
4148.77
694.045
714.926
740.077
781.376
863.544
1052.41
1597.93
4131.2
674.695
696.162
722.23
764.677
848.15
1038.49
1585.72
4114.73
656.013
678.051
705
748.548
833.274
1025.04
1573.94
4098.6
638.119
660.719
688.526
733.136
819.072
1012.22
1562.78
4083.62
620.786
643.926
672.552
718.177
805.27
999.762
1551.95
4068.7
604.202
627.874
657.301
703.914
792.132
987.93
1541.76
4055.08
588.079
612.257
642.444
689.998
779.294
976.365
1531.8
4041.36
572.689
597.367
628.302
676.779
767.131
965.451
1522.5
4029.1
557.665
582.808
614.446
663.793
755.153
954.687
1513.33
4016.5
543.373
568.98
601.314
651.525
743.885
944.628
1504.9
4005.54
529.345
555.373
588.348
639.36
732.66
934.566
1496.42
3993.88
516.065
542.517
576.135
627.954
722.206
925.297
1488.82
3984.11
502.933
529.755
563.948
616.495
711.613
915.806
1480.88
3973.08
490.587
517.789
552.573
605.873
701.897
907.248
1473.99
3964.37
478.257
505.774
541.065
595.014
691.823
898.197
1466.42
3953.62
466.777
494.631
530.459
585.108
682.78
890.292
1460.21
3945.79
455.162
483.275
519.538
574.754
673.121
881.557
1452.83
3935.05
444.497
472.904
509.654
565.52
664.709
874.265
1447.26
3928
433.518
462.131
499.246
555.597
655.385
865.751
1439.93
3917.07
423.629
452.496
490.053
547.009
647.585
859.063
1435
3910.73
413.215
442.239
480.096
537.459
638.543
850.72
1427.68
3899.59
404.076
433.32
471.576
529.503
631.349
844.629
1423.36
3893.83
394.158
423.514
462.016
520.287
622.565
836.451
1416.08
3882.7
385.759
415.301
454.16
512.953
615.959
830.935
1412.33
3877.31
376.264
405.883
444.945
504.032
607.419
822.947
1405.19
3866.44
368.604
398.378
437.754
497.316
601.388
817.967
1401.85
3861.32
359.451
389.274
428.821
488.647
593.073
810.188
1395.03
3850.82
352.543
382.489
422.305
482.55
587.601
805.705
1391.98
3845.95
343.636
373.609
413.576
474.075
579.488
798.163
1385.57
3835.89
337.506
367.57
407.755
468.608
574.562
794.121
1382.77
3831.22
328.73
358.811
399.143
460.258
566.614
786.829
1376.77
3821.72
323.417
353.553
394.045
455.431
562.215
783.154
1374.13
3817.06
314.648
344.798
385.448
447.129
554.384
776.113
1368.51
3808.3
310.176
340.336
381.074
442.927
550.467
772.7
1365.95
3803.95
299.6
329.741
370.626
432.794
540.881
764.097
1358.94
3794.16
)
;

boundaryField
{
    frontAndBack
    {
        type            empty;
    }
    inlet
    {
        type            fixedValue;
        value           uniform 14.855;
    }
    outlet
    {
        type            zeroGradient;
    }
    walls
    {
        lowReCorrection 0;
        blending        stepwise;
        n               2;
        type            epsilonWallFunction;
        value           nonuniform List<scalar> 
228
(
112.724
141.424
210.097
257.591
369.051
443.457
614.741
724.902
971.335
1128.61
1108.62
1064.16
1122.07
1210.1
1238.91
1121.42
818.687
1980.11
1980.11
8029.05
19671
34070.7
42708.4
45227.8
44235.1
39734.4
34014
29357.3
26003.3
22974.6
20363.9
18165.3
16340
14819.8
13547
12473.1
11558.6
10773.6
10093.4
9499.88
8980.13
8523.69
8120.91
7763.7
7445.19
7159.74
6902.84
6670.73
6460.35
6269.27
6095.43
5936.99
5792.34
5660.03
5538.77
5427.36
5324.78
5230.1
5142.5
5061.31
4985.9
4915.77
4850.39
4789.36
4732.27
4678.83
4628.76
4581.8
4537.81
4496.57
4458
4421.91
4388.21
4356.77
4327.41
4300.05
4274.41
4250.4
4227.77
4206.4
4186.21
4166.94
4148.77
4131.2
4114.73
4098.6
4083.62
4068.7
4055.08
4041.36
4029.1
4016.5
4005.54
3993.88
3984.11
3973.08
3964.37
3953.62
3945.79
3935.05
3928
3917.07
3910.73
3899.59
3893.83
3882.7
3877.31
3866.44
3861.32
3850.82
3845.95
3835.89
3831.22
3821.72
3817.06
3808.3
3803.95
3794.16
105.747
146.754
198.271
265.926
350.075
456.21
585.883
743.828
932.131
1154.14
1464.95
1897.04
2398.89
2961.37
3562.72
4171.37
4745.65
5251.02
5654.51
5950.59
6132.15
6219.55
6207.14
6160.54
6062.15
5928.82
5778.45
5619.69
5459.23
5301.41
5149.06
5004.18
4867.64
4739.93
4620.97
4510.99
4409.4
4316.27
4230.83
4153.19
4082.63
4018.99
3961.84
3910.61
3865.18
3824.8
3789.35
3758.23
3731.15
3707.66
3687.55
3670.42
3655.92
3643.67
3633.5
3625.07
3618.3
3612.74
3608.36
3604.9
3602.29
3600.45
3599.23
3598.44
3598.33
3598.46
3598.94
3599.58
3600.83
3601.79
3603.12
3604.19
3605.54
3606.53
3607.69
3608.36
3608.88
3608.84
3608.51
3607.63
3606.45
3604.08
3601.96
3598.26
3594.9
3589.61
3584.67
3577.67
3571.24
3562.71
3555.13
3545.32
3536.82
3525.85
3516.62
3504.68
3494.89
3482.08
3471.89
3458.25
3447.89
3433.43
3423.22
3407.97
3398.25
3382.15
3373.09
3356.04
3347.32
3325.32
)
;
    }
}


// ************************************************************************* //
