/*--------------------------------*- C++ -*----------------------------------*\
| =========                 |                                                 |
| \\      /  F ield         | OpenFOAM: The Open Source CFD Toolbox           |
|  \\    /   O peration     | Version:  v2012                                 |
|   \\  /    A nd           | Website:  www.openfoam.com                      |
|    \\/     M anipulation  |                                                 |
\*---------------------------------------------------------------------------*/
FoamFile
{
    version     2.0;
    format      ascii;
    class       surfaceScalarField;
    location    "0.084";
    object      phi.air;
}
// * * * * * * * * * * * * * * * * * * * * * * * * * * * * * * * * * * * * * //

dimensions      [0 3 -1 0 0 0 0];
oriented        oriented;


internalField   nonuniform List<scalar> 
3672
(
0.0064006
7.14517e-06
0.00639136
8.99623e-06
0.00638142
9.68684e-06
0.00637056
1.06126e-05
0.0063586
1.17119e-05
0.00634559
1.27594e-05
0.00633129
1.40467e-05
0.00631578
1.52582e-05
0.00629637
1.91628e-05
2.80585e-05
0.00626806
0.00641089
4.26003e-06
0.00641309
6.79313e-06
0.00641555
7.2261e-06
0.00641823
7.93235e-06
0.00642104
8.90607e-06
0.00642399
9.8076e-06
0.00642694
1.10891e-05
0.00642967
1.25285e-05
0.00643129
1.75455e-05
2.48537e-05
0.0064345
0.00640988
2.38202e-06
0.00641223
4.44505e-06
0.00641473
4.71802e-06
0.00641752
5.14462e-06
0.00642056
5.87155e-06
0.00642375
6.60995e-06
0.00642716
7.68595e-06
0.00643042
9.26282e-06
0.0064346
1.33659e-05
1.8425e-05
0.00644103
0.00640936
1.0263e-06
0.00641175
2.05189e-06
0.00641429
2.17918e-06
0.00641704
2.39546e-06
0.00642008
2.82902e-06
0.00642335
3.34014e-06
0.00642686
4.1794e-06
0.00643058
5.54009e-06
0.00643542
8.52209e-06
1.19255e-05
0.00644192
0.00640916
-1.3313e-07
0.00641153
-3.17988e-07
0.00641408
-3.68049e-07
0.0064168
-3.30659e-07
0.00641985
-2.20073e-07
0.00642318
1.20084e-08
0.0064268
5.59746e-07
0.0064308
1.54158e-06
0.00643581
3.50707e-06
5.3565e-06
0.00644238
0.00640918
-1.30997e-06
0.00641156
-2.70308e-06
0.00641412
-2.9249e-06
0.00641686
-3.07022e-06
0.00641993
-3.29409e-06
0.00642331
-3.36794e-06
0.00642702
-3.15054e-06
0.00643117
-2.6108e-06
0.00643623
-1.55005e-06
-9.18187e-07
0.00644251
0.00640941
-2.72028e-06
0.00641185
-5.1427e-06
0.00641442
-5.49271e-06
0.00641721
-5.85951e-06
0.00642032
-6.40729e-06
0.00642374
-6.78915e-06
0.00642751
-6.92237e-06
0.00643175
-6.8458e-06
0.00643674
-6.54489e-06
-6.74829e-06
0.00644257
0.00640999
-4.70719e-06
0.0064124
-7.5559e-06
0.00641495
-8.04444e-06
0.00641781
-8.71403e-06
0.00642095
-9.55364e-06
0.0064244
-1.02353e-05
0.00642821
-1.0735e-05
0.00643249
-1.11202e-05
0.00643739
-1.14533e-05
-1.21458e-05
0.00644279
0.00641105
-7.76189e-06
0.00641334
-9.83865e-06
0.00641585
-1.05521e-05
0.00641858
-1.14513e-05
0.00642152
-1.24901e-05
0.00642469
-1.34058e-05
0.00642817
-1.42168e-05
0.00643204
-1.49858e-05
0.00643631
-1.57293e-05
-1.68101e-05
0.00644098
0.00640049
0.0063909
0.0063806
0.0063694
0.00635716
0.006344
0.00633004
0.0063153
0.00629982
0.00628326
0.00618912
0.000122524
-4.35878e-05
0.00598884
8.26136e-05
0.000117663
0.00572442
-0.000168606
0.000433026
0.00550756
-0.000541275
0.00075814
0.00535911
-0.000908013
0.00105647
0.00525264
-0.00120372
0.00131019
0.0051718
-0.0013793
0.00146014
0.00510267
-0.00142729
0.00149642
0.00503454
-0.00137469
0.00144283
0.00496662
-0.00125517
0.00132309
0.00489904
-0.00110302
0.0011706
0.00483224
-0.000945205
0.001012
0.00476694
-0.000798719
0.000864024
0.00470308
-0.000670902
0.000734759
0.00464105
-0.000564412
0.000626444
0.00458122
-0.000478041
0.000537871
0.00452409
-0.000409206
0.000466337
0.00447029
-0.000354844
0.000408646
0.00442027
-0.000311951
0.000361969
0.00437436
-0.000278015
0.000323925
0.0043325
-0.000250728
0.00029259
0.0042946
-0.000228386
0.000266284
0.00426055
-0.000210001
0.000244051
0.00423027
-0.000194686
0.000224968
0.00420348
-0.000181739
0.000208528
0.00418008
-0.000170609
0.000194012
0.00416004
-0.000160986
0.000181017
0.0041429
-0.000152425
0.000169565
0.0041282
-0.000144771
0.000159479
0.00411558
-0.000137885
0.000150505
0.00410468
-0.000131631
0.000142523
0.00409526
-0.000125844
0.000135268
0.00408703
-0.000120443
0.000128672
0.00407973
-0.000115309
0.000122609
0.00407332
-0.000110564
0.000116971
0.00406777
-0.000106193
0.000111746
0.004063
-0.000102147
0.000106921
0.00405894
-9.83935e-05
0.000102446
0.00405556
-9.4922e-05
9.8306e-05
0.00405279
-9.16765e-05
9.44486e-05
0.00405059
-8.8671e-05
9.08657e-05
0.00404892
-8.58789e-05
8.75567e-05
0.00404766
-8.32243e-05
8.44808e-05
0.00404675
-8.06872e-05
8.1592e-05
0.00404617
-7.82905e-05
7.88767e-05
0.00404587
-7.60247e-05
7.6323e-05
0.00404583
-7.38933e-05
7.39309e-05
0.00404604
-7.18702e-05
7.16659e-05
0.00404647
-6.99485e-05
6.95146e-05
0.00404712
-6.81279e-05
6.74744e-05
0.00404798
-6.63967e-05
6.5537e-05
0.00404903
-6.47259e-05
6.36786e-05
0.00405025
-6.31193e-05
6.18978e-05
0.00405164
-6.15873e-05
6.02026e-05
0.00405317
-6.01349e-05
5.85996e-05
0.00405485
-5.8772e-05
5.70942e-05
0.00405666
-5.74997e-05
5.56899e-05
0.00405859
-5.62846e-05
5.43589e-05
0.00406061
-5.51052e-05
5.30787e-05
0.00406273
-5.39475e-05
5.18319e-05
0.00406492
-5.28181e-05
5.06255e-05
0.00406718
-5.17254e-05
4.94643e-05
0.00406951
-5.07047e-05
4.83784e-05
0.0040719
-4.97586e-05
4.73713e-05
0.00407434
-4.88852e-05
4.64403e-05
0.00407683
-4.80329e-05
4.55391e-05
0.00407937
-4.71924e-05
4.46556e-05
0.00408194
-4.63447e-05
4.37736e-05
0.00408454
-4.55058e-05
4.291e-05
0.00408715
-4.46895e-05
4.2074e-05
0.00408979
-4.39251e-05
4.12897e-05
0.00409244
-4.32032e-05
4.05524e-05
0.0040951
-4.25196e-05
3.98582e-05
0.00409777
-4.18556e-05
3.91839e-05
0.00410045
-4.12031e-05
3.85256e-05
0.00410312
-4.05405e-05
3.78688e-05
0.00410578
-3.98853e-05
3.72238e-05
0.00410843
-3.92401e-05
3.65903e-05
0.00411107
-3.86193e-05
3.59825e-05
0.00411369
-3.8005e-05
3.53868e-05
0.00411628
-3.74048e-05
3.48086e-05
0.00411885
-3.68035e-05
3.42343e-05
0.00412139
-3.62246e-05
3.36839e-05
0.00412391
-3.56508e-05
3.31394e-05
0.00412639
-3.50921e-05
3.26113e-05
0.00412883
-3.45255e-05
3.20789e-05
0.00413125
-3.39726e-05
3.15598e-05
0.00413362
-3.34215e-05
3.10427e-05
0.00413597
-3.28896e-05
3.05466e-05
0.00413828
-3.23624e-05
3.0055e-05
0.00414055
-3.18697e-05
2.95951e-05
0.00414279
-3.13904e-05
2.91491e-05
0.004145
-3.09615e-05
2.8752e-05
0.00414718
-3.05376e-05
2.83601e-05
0.00414933
-3.02533e-05
2.81002e-05
0.00415146
-2.99309e-05
2.78009e-05
0.00415359
-3.00777e-05
2.79444e-05
0.0041557
-2.99166e-05
2.78122e-05
0.00415789
-3.11888e-05
2.89941e-05
-3.11108e-05
2.91554e-05
0.00647836
7.86561e-05
0.00651174
4.92391e-05
0.00650174
-0.000158607
0.0064363
-0.000475831
0.00632498
-0.000796695
0.00617908
-0.00105782
0.00601662
-0.00121684
0.00585462
-0.0012653
0.00570346
-0.00122353
0.00556877
-0.00112048
0.00545269
-0.000986943
0.00535426
-0.000846781
0.00527084
-0.000715293
0.00519914
-0.000599202
0.00513587
-0.000501145
0.00507817
-0.000420345
0.00502375
-0.000354781
0.00497105
-0.000302146
0.00491924
-0.000260139
0.00486803
-0.00022681
0.00481784
-0.000200534
0.00476947
-0.000180012
0.00472326
-0.000163792
0.00467942
-0.000150844
0.00463824
-0.000140564
0.00459992
-0.000132288
0.00456459
-0.000125654
0.00453229
-0.000120131
0.0045029
-0.00011538
0.00447621
-0.000111193
0.00445193
-0.000107351
0.00442987
-0.000103783
0.00440986
-0.000100436
0.00439178
-9.72275e-05
0.00437544
-9.42167e-05
0.00436066
-9.14186e-05
0.00434732
-8.88029e-05
0.00433528
-8.63562e-05
0.00432442
-8.40609e-05
0.00431463
-8.18839e-05
0.00430577
-7.98123e-05
0.00429768
-7.77918e-05
0.00429029
-7.583e-05
0.00428355
-7.39537e-05
0.00427744
-7.2177e-05
0.00427191
-7.04916e-05
0.00426691
-6.89011e-05
0.00426242
-6.73804e-05
0.0042584
-6.59276e-05
0.00425483
-6.45507e-05
0.00425165
-6.32242e-05
0.00424885
-6.19224e-05
0.0042464
-6.0666e-05
0.00424427
-5.94563e-05
0.00424244
-5.83067e-05
0.00424089
-5.72221e-05
0.00423957
-5.61861e-05
0.00423847
-5.51806e-05
0.00423756
-5.41989e-05
0.00423684
-5.32279e-05
0.0042363
-5.22721e-05
0.00423592
-5.13437e-05
0.00423569
-5.04794e-05
0.0042356
-4.96686e-05
0.00423563
-4.89152e-05
0.00423577
-4.81738e-05
0.00423602
-4.74371e-05
0.00423635
-4.6679e-05
0.00423676
-4.59175e-05
0.00423724
-4.51681e-05
0.00423778
-4.44652e-05
0.00423838
-4.3797e-05
0.00423902
-4.31635e-05
0.00423971
-4.25423e-05
0.00424043
-4.19232e-05
0.00424117
-4.12829e-05
0.00424192
-4.06419e-05
0.00424269
-4.00076e-05
0.00424347
-3.93996e-05
0.00424426
-3.87925e-05
0.00424505
-3.81918e-05
0.00424583
-3.75855e-05
0.0042466
-3.69994e-05
0.00424737
-3.64178e-05
0.00424813
-3.58502e-05
0.00424888
-3.52717e-05
0.00424961
-3.47052e-05
0.00425033
-3.41388e-05
0.00425103
-3.3593e-05
0.00425172
-3.3054e-05
0.0042524
-3.25505e-05
0.00425307
-3.20588e-05
0.00425373
-3.16177e-05
0.00425437
-3.11818e-05
0.004255
-3.08877e-05
0.00425563
-3.05601e-05
0.00425625
-3.06948e-05
0.00425687
-3.05385e-05
0.00425754
-3.18582e-05
-3.16636e-05
0.00647001
4.96757e-05
0.00650349
1.5756e-05
0.00650081
-0.000155926
0.00644848
-0.000423501
0.00634924
-0.000697455
0.00621162
-0.000920196
0.00605284
-0.00105806
0.00589067
-0.00110313
0.00573788
-0.00107074
0.00560297
-0.000985562
0.00548887
-0.000872846
0.00539502
-0.000752927
0.00531894
-0.000639213
0.00525774
-0.000538003
0.00520838
-0.000451782
0.0051682
-0.00038017
0.00513498
-0.000321562
0.00510683
-0.000273998
0.00508221
-0.000235512
0.00505978
-0.000204384
0.00503844
-0.000179194
0.00501722
-0.000158792
0.00499546
-0.00014203
0.00497277
-0.000128152
0.00494884
-0.00011664
0.00492357
-0.000107018
0.00489699
-9.90681e-05
0.00486933
-9.24772e-05
0.00484096
-8.70062e-05
0.00481224
-8.24732e-05
0.00478366
-7.8767e-05
0.00475563
-7.57613e-05
0.0047286
-7.34012e-05
0.00470296
-7.15837e-05
0.00467883
-7.00914e-05
0.00465627
-6.88567e-05
0.00463528
-6.78122e-05
0.0046158
-6.68829e-05
0.00459775
-6.60087e-05
0.00458101
-6.51442e-05
0.00456547
-6.42665e-05
0.00455102
-6.33407e-05
0.00453759
-6.24048e-05
0.00452514
-6.15004e-05
0.00451359
-6.06264e-05
0.00450288
-5.97878e-05
0.00449297
-5.89847e-05
0.00448379
-5.82061e-05
0.0044753
-5.74326e-05
0.00446739
-5.66399e-05
0.00446
-5.58393e-05
0.00445313
-5.50468e-05
0.00444674
-5.42799e-05
0.00444082
-5.35314e-05
0.00443533
-5.28237e-05
0.00443027
-5.21599e-05
0.0044256
-5.15167e-05
0.00442129
-5.08721e-05
0.00441732
-5.02246e-05
0.00441365
-4.95637e-05
0.00441028
-4.88993e-05
0.00440717
-4.82357e-05
0.00440427
-4.75805e-05
0.00440156
-4.6951e-05
0.00439901
-4.63679e-05
0.00439662
-4.57897e-05
0.00439439
-4.52017e-05
0.00439228
-4.45687e-05
0.00439028
-4.39163e-05
0.00438837
-4.32615e-05
0.00438655
-4.26476e-05
0.00438482
-4.20613e-05
0.00438316
-4.15036e-05
0.00438156
-4.09454e-05
0.00438001
-4.03764e-05
0.00437851
-3.97742e-05
0.00437703
-3.91684e-05
0.00437559
-3.85677e-05
0.00437418
-3.79893e-05
0.00437279
-3.74049e-05
0.00437143
-3.68282e-05
0.00437009
-3.62442e-05
0.00436877
-3.56749e-05
0.00436746
-3.51094e-05
0.00436617
-3.45589e-05
0.00436489
-3.39946e-05
0.00436362
-3.34388e-05
0.00436237
-3.28828e-05
0.00436112
-3.23517e-05
0.0043599
-3.18309e-05
0.0043587
-3.13446e-05
0.00435751
-3.08693e-05
0.00435633
-3.04416e-05
0.00435517
-3.00217e-05
0.00435402
-2.97395e-05
0.00435289
-2.94292e-05
0.00435177
-2.95694e-05
0.00435066
-2.94373e-05
0.00434951
-3.07065e-05
-3.06121e-05
0.0064645
2.71008e-05
0.00648861
-8.35558e-06
0.00648172
-0.000149035
0.00642849
-0.00037027
0.00633104
-0.000600006
0.00619799
-0.000787145
0.0060446
-0.000904671
0.00588732
-0.00094586
0.00573867
-0.000922094
0.00560646
-0.000853344
0.00549362
-0.000760015
0.00539994
-0.000659244
0.00532342
-0.00056269
0.00526154
-0.000476122
0.00521161
-0.00040185
0.00517125
-0.000339819
0.00513851
-0.000288814
0.00511177
-0.000247261
0.00508979
-0.000213528
0.00507155
-0.000186151
0.00505627
-0.000163909
0.00504326
-0.000145789
0.00503208
-0.000130842
0.00502228
-0.000118359
0.0050135
-0.000107852
0.00500537
-9.88915e-05
0.00499756
-9.12571e-05
0.00498973
-8.46471e-05
0.00498158
-7.88594e-05
0.00497287
-7.37632e-05
0.00496337
-6.92637e-05
0.00495288
-6.52789e-05
0.00494128
-6.18009e-05
0.0049285
-5.87971e-05
0.00491456
-5.6156e-05
0.00489955
-5.38487e-05
0.00488361
-5.18714e-05
0.00486693
-5.02025e-05
0.00484974
-4.88107e-05
0.00483225
-4.7663e-05
0.00481473
-4.67428e-05
0.00479745
-4.60608e-05
0.00478064
-4.55947e-05
0.00476442
-4.52841e-05
0.00474888
-4.50849e-05
0.00473406
-4.497e-05
0.00471999
-4.49136e-05
0.00470667
-4.48833e-05
0.00469408
-4.48392e-05
0.00468218
-4.47406e-05
0.00467092
-4.45831e-05
0.00466026
-4.43828e-05
0.00465012
-4.41466e-05
0.00464049
-4.39017e-05
0.00463135
-4.36821e-05
0.00462268
-4.34912e-05
0.00461449
-4.33227e-05
0.00460675
-4.31312e-05
0.00459942
-4.2897e-05
0.00459248
-4.26188e-05
0.00458588
-4.23059e-05
0.00457961
-4.19656e-05
0.00457363
-4.15988e-05
0.00456791
-4.12315e-05
0.00456243
-4.0883e-05
0.00455716
-4.05179e-05
0.00455206
-4.01073e-05
0.00454711
-3.96205e-05
0.00454229
-3.90899e-05
0.00453757
-3.85421e-05
0.00453295
-3.80311e-05
0.00452843
-3.75421e-05
0.004524
-3.70755e-05
0.00451965
-3.65949e-05
0.00451537
-3.60923e-05
0.00451114
-3.55472e-05
0.00450697
-3.5e-05
0.00450287
-3.44594e-05
0.00449882
-3.39393e-05
0.00449482
-3.34137e-05
0.00449089
-3.28932e-05
0.00448701
-3.23637e-05
0.00448318
-3.18494e-05
0.00447941
-3.13408e-05
0.0044757
-3.08453e-05
0.00447204
-3.03332e-05
0.00446843
-2.98271e-05
0.00446487
-2.93205e-05
0.00446136
-2.88437e-05
0.00445791
-2.83823e-05
0.00445452
-2.7955e-05
0.00445119
-2.75368e-05
0.00444791
-2.71613e-05
0.00444468
-2.67972e-05
0.0044415
-2.65578e-05
0.00443838
-2.63062e-05
0.00443526
-2.64494e-05
0.00443223
-2.64065e-05
0.00442906
-2.75352e-05
-2.78008e-05
0.00645963
9.85239e-06
0.00647551
-2.42332e-05
0.00646423
-0.000137754
0.00641073
-0.000316772
0.00631603
-0.00050531
0.00618843
-0.000659536
0.00604148
-0.000757725
0.00588978
-0.000794162
0.00574504
-0.000777353
0.00561499
-0.000723292
0.00550293
-0.00064796
0.00540911
-0.000565423
0.00533196
-0.000485539
0.00526922
-0.000413384
0.0052184
-0.000351026
0.00517721
-0.000298629
0.00514372
-0.000255322
0.00511634
-0.000219887
0.00509381
-0.000190995
0.00507512
-0.00016746
0.00505948
-0.000148264
0.00504627
-0.00013258
0.00503505
-0.000119629
0.00502548
-0.000108788
0.00501726
-9.96249e-05
0.00501017
-9.18014e-05
0.00500402
-8.51165e-05
0.00499869
-7.93106e-05
0.00499402
-7.41909e-05
0.00498991
-6.9654e-05
0.00498627
-6.56196e-05
0.004983
-6.20151e-05
0.00498
-5.88007e-05
0.00497714
-5.59333e-05
0.00497431
-5.33221e-05
0.00497138
-5.0928e-05
0.00496827
-4.87527e-05
0.00496483
-4.67716e-05
0.00496098
-4.49513e-05
0.00495659
-4.32726e-05
0.00495157
-4.1725e-05
0.00494584
-4.03383e-05
0.00493937
-3.9118e-05
0.00493212
-3.80395e-05
0.00492412
-3.70811e-05
0.00491539
-3.62372e-05
0.00490598
-3.55072e-05
0.00489598
-3.48813e-05
0.00488549
-3.43477e-05
0.00487465
-3.39019e-05
0.00486359
-3.35289e-05
0.00485242
-3.32132e-05
0.00484121
-3.29339e-05
0.00483003
-3.27171e-05
0.00481893
-3.2586e-05
0.00480799
-3.2546e-05
0.00479722
-3.25531e-05
0.00478664
-3.25562e-05
0.00477627
-3.2526e-05
0.00476612
-3.2464e-05
0.00475617
-3.23641e-05
0.00474644
-3.22295e-05
0.00473693
-3.20865e-05
0.00472764
-3.19489e-05
0.00471857
-3.18079e-05
0.00470968
-3.16332e-05
0.00470096
-3.1387e-05
0.00469239
-3.10526e-05
0.00468396
-3.06583e-05
0.00467567
-3.02451e-05
0.0046675
-2.98702e-05
0.00465948
-2.95172e-05
0.00465159
-2.9183e-05
0.00464382
-2.88282e-05
0.00463617
-2.84428e-05
0.00462863
-2.80105e-05
0.00462121
-2.75789e-05
0.00461391
-2.71568e-05
0.00460673
-2.6756e-05
0.00459966
-2.63455e-05
0.0045927
-2.59372e-05
0.00458586
-2.55195e-05
0.00457913
-2.51219e-05
0.00457252
-2.47339e-05
0.00456603
-2.43537e-05
0.00455965
-2.39541e-05
0.00455339
-2.35599e-05
0.00454723
-2.31676e-05
0.00454119
-2.2804e-05
0.00453528
-2.24637e-05
0.00452948
-2.21566e-05
0.0045238
-2.18571e-05
0.00451823
-2.15916e-05
0.00451277
-2.13429e-05
0.00450741
-2.11938e-05
0.00450216
-2.106e-05
0.00449693
-2.12119e-05
0.00449186
-2.1343e-05
0.00448654
-2.22142e-05
-2.31768e-05
0.00645566
-3.30158e-06
0.00646519
-3.37648e-05
0.00645042
-0.000122979
0.00639697
-0.000263324
0.00630461
-0.000412949
0.00618117
-0.000536095
0.00603902
-0.000615574
0.00589156
-0.000646707
0.00574999
-0.000635788
0.00562181
-0.000595111
0.00551052
-0.000536668
0.00541665
-0.000471548
0.00533891
-0.000407807
0.00527528
-0.000349746
0.00522341
-0.000299164
0.00518117
-0.000256387
0.00514669
-0.000220839
0.00511841
-0.000191611
0.00509508
-0.000167666
0.00507571
-0.000148082
0.00505948
-0.00013204
0.00504578
-0.000118877
0.00503412
-0.000107973
0.00502414
-9.88004e-05
0.00501552
-9.10109e-05
0.00500807
-8.43527e-05
0.00500158
-7.86261e-05
0.00499589
-7.36217e-05
0.00499089
-6.91859e-05
0.00498648
-6.52481e-05
0.0049826
-6.17352e-05
0.00497917
-5.85817e-05
0.00497611
-5.5742e-05
0.00497336
-5.31875e-05
0.00497089
-5.08551e-05
0.00496869
-4.87202e-05
0.0049667
-4.67625e-05
0.00496487
-4.49508e-05
0.00496319
-4.32664e-05
0.00496161
-4.1692e-05
0.0049601
-4.02124e-05
0.00495861
-3.88528e-05
0.0049571
-3.76055e-05
0.00495551
-3.64541e-05
0.0049538
-3.53703e-05
0.00495191
-3.43414e-05
0.00494976
-3.33622e-05
0.0049473
-3.24233e-05
0.00494446
-3.15041e-05
0.00494116
-3.06039e-05
0.00493736
-2.97222e-05
0.00493299
-2.88519e-05
0.00492804
-2.79807e-05
0.00492246
-2.7141e-05
0.00491625
-2.63697e-05
0.00490939
-2.56854e-05
0.00490189
-2.50541e-05
0.00489377
-2.44398e-05
0.00488507
-2.38251e-05
0.00487583
-2.32256e-05
0.00486611
-2.26452e-05
0.00485597
-2.20872e-05
0.00484546
-2.15745e-05
0.00483464
-2.11308e-05
0.00482358
-2.07478e-05
0.00481234
-2.03941e-05
0.00480098
-2.00276e-05
0.00478956
-1.9627e-05
0.0047781
-1.92005e-05
0.00476667
-1.88161e-05
0.00475529
-1.84912e-05
0.00474401
-1.82305e-05
0.00473282
-1.80004e-05
0.00472177
-1.77714e-05
0.00471085
-1.75292e-05
0.00470009
-1.72518e-05
0.0046895
-1.69829e-05
0.00467907
-1.67312e-05
0.00466883
-1.65097e-05
0.00465876
-1.62794e-05
0.00464888
-1.60537e-05
0.00463918
-1.58279e-05
0.00462969
-1.56254e-05
0.0046204
-1.54427e-05
0.00461131
-1.52642e-05
0.00460242
-1.507e-05
0.00459373
-1.48705e-05
0.00458524
-1.46744e-05
0.00457694
-1.45064e-05
0.00456885
-1.43724e-05
0.00456096
-1.42624e-05
0.00455326
-1.4157e-05
0.00454574
-1.40718e-05
0.0045384
-1.40063e-05
0.00453121
-1.40011e-05
0.0045242
-1.40481e-05
0.00451721
-1.42241e-05
0.00451047
-1.46028e-05
0.00450333
-1.50784e-05
-1.70497e-05
0.00645273
-1.34585e-05
0.00645752
-3.85542e-05
0.00643989
-0.000105347
0.00638638
-0.000209818
0.00629583
-0.000322397
0.00617559
-0.000415853
0.00603717
-0.000477155
0.00589299
-0.000502524
0.00575369
-0.000496489
0.00562646
-0.000467881
0.00551488
-0.000425087
0.00541984
-0.000376511
0.00534047
-0.000328434
0.00527502
-0.000284295
0.00522137
-0.000245517
0.00517744
-0.000212461
0.00514136
-0.000184759
0.00511155
-0.000161801
0.00508671
-0.000142826
0.00506583
-0.000127196
0.00504807
-0.000114285
0.00503279
-0.000103594
0.0050195
-9.46803e-05
0.00500781
-8.71147e-05
0.00499744
-8.0636e-05
0.00498813
-7.50518e-05
0.00497969
-7.01817e-05
0.00497194
-6.58711e-05
0.00496477
-6.20193e-05
0.00495809
-5.85696e-05
0.00495181
-5.54485e-05
0.00494583
-5.2602e-05
0.00494008
-4.99953e-05
0.00493452
-4.76252e-05
0.00492911
-4.54423e-05
0.00492379
-4.34063e-05
0.00491853
-4.1496e-05
0.00491328
-3.97095e-05
0.00490805
-3.80304e-05
0.00490279
-3.64381e-05
0.0048975
-3.49206e-05
0.00489215
-3.35031e-05
0.00488673
-3.21818e-05
0.00488122
-3.09433e-05
0.00487561
-2.97659e-05
0.00486991
-2.86383e-05
0.00486411
-2.75575e-05
0.0048582
-2.65192e-05
0.00485219
-2.54951e-05
0.00484608
-2.44899e-05
0.00483987
-2.35102e-05
0.00483356
-2.25492e-05
0.00482717
-2.15894e-05
0.00482069
-2.06616e-05
0.00481412
-1.97973e-05
0.00480744
-1.90086e-05
0.00480065
-1.82563e-05
0.00479371
-1.75044e-05
0.00478662
-1.67365e-05
0.00477937
-1.59757e-05
0.00477195
-1.52261e-05
0.00476435
-1.44869e-05
0.00475655
-1.37732e-05
0.00474854
-1.31137e-05
0.00474029
-1.2504e-05
0.00473182
-1.19241e-05
0.00472314
-1.1345e-05
0.00471426
-1.07504e-05
0.00470521
-1.01516e-05
0.00469601
-9.61367e-06
0.00468668
-9.16027e-06
0.00467724
-8.78852e-06
0.00466771
-8.46968e-06
0.00465811
-8.1719e-06
0.00464846
-7.8831e-06
0.00463882
-7.61186e-06
0.0046292
-7.36483e-06
0.00461963
-7.15675e-06
0.00461011
-6.98912e-06
0.00460068
-6.8487e-06
0.00459134
-6.71947e-06
0.00458213
-6.61019e-06
0.00457303
-6.53074e-06
0.00456408
-6.4898e-06
0.00455528
-6.46548e-06
0.00454665
-6.43848e-06
0.00453818
-6.4031e-06
0.00452988
-6.37139e-06
0.00452174
-6.36986e-06
0.00451378
-6.41115e-06
0.00450599
-6.47082e-06
0.00449836
-6.53253e-06
0.00449089
-6.60226e-06
0.00448358
-6.69252e-06
0.00447638
-6.80376e-06
0.00446933
-6.99927e-06
0.00446227
-7.16268e-06
0.00445541
-7.7449e-06
0.0044481
-7.76444e-06
-1.06507e-05
0.0064508
-2.14626e-05
0.00645216
-3.99197e-05
0.00643219
-8.53722e-05
0.00637824
-0.000155876
0.00628837
-0.000232521
0.0061693
-0.000296782
0.00603184
-0.000339694
0.00588771
-0.000358395
0.00574721
-0.000355993
0.00561751
-0.000338176
0.00550253
-0.000310108
0.00540347
-0.000277451
0.0053196
-0.000244567
0.00524925
-0.000213943
0.00519037
-0.00018664
0.00514095
-0.000163044
0.00509918
-0.000142984
0.00506349
-0.000126116
0.00503261
-0.000111939
0.00500548
-0.000100074
0.0049813
-9.00995e-05
0.00495948
-8.17767e-05
0.00493955
-7.47479e-05
0.00492112
-6.8686e-05
0.0049039
-6.3417e-05
0.00488764
-5.87911e-05
0.00487215
-5.46886e-05
0.00485728
-5.10053e-05
0.00484293
-4.76722e-05
0.00482901
-4.4643e-05
0.00481543
-4.18677e-05
0.00480213
-3.93105e-05
0.00478909
-3.69495e-05
0.00477625
-3.47852e-05
0.00476358
-3.2778e-05
0.00475108
-3.08983e-05
0.00473872
-2.91381e-05
0.00472651
-2.74978e-05
0.00471444
-2.59619e-05
0.00470251
-2.45125e-05
0.00469073
-2.31335e-05
0.00467908
-2.18545e-05
0.00466758
-2.06856e-05
0.00465624
-1.96065e-05
0.00464507
-1.85901e-05
0.00463405
-1.76222e-05
0.0046232
-1.67025e-05
0.00461252
-1.58438e-05
0.00460204
-1.50101e-05
0.00459174
-1.41975e-05
0.00458166
-1.34295e-05
0.00457181
-1.27002e-05
0.00456221
-1.19816e-05
0.00455284
-1.12902e-05
0.0045437
-1.0662e-05
0.00453481
-1.01135e-05
0.00452616
-9.60967e-06
0.00451775
-9.09984e-06
0.0045096
-8.57818e-06
0.00450169
-8.07385e-06
0.00449406
-7.59604e-06
0.00448671
-7.13054e-06
0.0044796
-6.66526e-06
0.00447271
-6.2252e-06
0.00446603
-5.82122e-06
0.00445956
-5.45306e-06
0.0044533
-5.08689e-06
0.00444724
-4.69432e-06
0.00444137
-4.2802e-06
0.00443567
-3.91581e-06
0.00443013
-3.61265e-06
0.0044247
-3.36412e-06
0.00441938
-3.14469e-06
0.00441414
-2.93894e-06
0.004409
-2.73468e-06
0.00440393
-2.54423e-06
0.00439893
-2.36549e-06
0.00439399
-2.21452e-06
0.00438909
-2.09374e-06
0.00438423
-1.99155e-06
0.00437941
-1.89456e-06
0.00437461
-1.8078e-06
0.00436982
-1.7428e-06
0.00436503
-1.70097e-06
0.00436024
-1.68068e-06
0.00435547
-1.66688e-06
0.00435071
-1.64186e-06
0.00434595
-1.60692e-06
0.00434118
-1.60211e-06
0.00433641
-1.64211e-06
0.00433164
-1.70297e-06
0.00432688
-1.77008e-06
0.00432212
-1.8412e-06
0.00431736
-1.93785e-06
0.00431259
-2.03015e-06
0.00430782
-2.22626e-06
0.00430294
-2.28761e-06
0.00429807
-2.87625e-06
0.00429285
-2.54304e-06
-5.58181e-06
0.00644653
-2.70128e-05
0.00644397
-3.73617e-05
0.00642001
-6.141e-05
0.00636214
-9.80092e-05
0.00626748
-0.000137856
0.00614212
-0.000171423
0.00599644
-0.000194015
0.0058421
-0.00020406
0.0056892
-0.000203091
0.00554484
-0.000193816
0.00541361
-0.000178879
0.00529732
-0.000161158
0.00519581
-0.000143053
0.0051078
-0.000125939
0.0050316
-0.000110437
0.00496534
-9.67836e-05
0.00490733
-8.49765e-05
0.00485605
-7.48311e-05
0.00481021
-6.6102e-05
0.00476875
-5.86136e-05
0.00473088
-5.22314e-05
0.00469619
-4.70845e-05
0.00466413
-4.26923e-05
0.0046343
-3.88555e-05
0.00460637
-3.54836e-05
0.00458007
-3.24896e-05
0.0045552
-2.98174e-05
0.00453159
-2.73988e-05
0.00450912
-2.5204e-05
0.00448768
-2.31997e-05
0.00446718
-2.13676e-05
0.00444755
-1.96793e-05
0.00442873
-1.8135e-05
0.00441068
-1.67291e-05
0.00439334
-1.54373e-05
0.00437668
-1.42434e-05
0.00436069
-1.31469e-05
0.00434533
-1.21388e-05
0.00433057
-1.1202e-05
0.00431639
-1.03307e-05
0.00430277
-9.51199e-06
0.00428968
-8.76766e-06
0.0042771
-8.11053e-06
0.00426501
-7.51312e-06
0.00425338
-6.9556e-06
0.00424218
-6.43026e-06
0.00423142
-5.9371e-06
0.00422107
-5.49712e-06
0.00421114
-5.0741e-06
0.00420159
-4.65348e-06
0.00419244
-4.27271e-06
0.00418367
-3.9307e-06
0.00417528
-3.59477e-06
0.00416726
-3.26955e-06
0.00415958
-2.98418e-06
0.00415223
-2.75807e-06
0.00414518
-2.56847e-06
0.00413845
-2.36831e-06
0.00413203
-2.15455e-06
0.00412591
-1.95727e-06
0.00412011
-1.79072e-06
0.00411461
-1.63415e-06
0.0041094
-1.45791e-06
0.00410446
-1.28038e-06
0.00409976
-1.1254e-06
0.00409532
-1.01009e-06
0.00409113
-8.95968e-07
0.00408718
-7.49503e-07
0.00408348
-5.70865e-07
0.00407999
-4.3139e-07
0.0040767
-3.25402e-07
0.00407358
-2.36372e-07
0.00407059
-1.54873e-07
0.00406772
-7.69478e-08
0.00406499
3.0941e-09
0.00406236
7.90438e-08
0.00405984
1.53587e-07
0.00405741
2.15546e-07
0.00405506
2.64254e-07
0.00405276
3.00717e-07
0.00405053
3.35479e-07
0.00404835
3.72917e-07
0.0040462
4.10307e-07
0.00404406
4.34872e-07
0.00404195
4.35597e-07
0.00403986
4.22398e-07
0.00403779
4.30713e-07
0.00403571
4.67475e-07
0.00403363
4.81734e-07
0.00403152
4.60732e-07
0.0040294
4.21608e-07
0.00402725
3.82373e-07
0.00402507
3.36196e-07
0.00402285
2.79284e-07
0.00402059
2.35898e-07
0.00401825
1.0733e-07
0.00401583
1.35237e-07
0.00401327
-3.15721e-07
0.00401055
1.77164e-07
-2.28434e-06
0.00625665
0.00621968
0.00615866
0.00606105
0.00592359
0.00575257
0.00555896
0.0053553
0.00515262
0.00495922
0.00478076
0.00462002
0.0044774
0.00435189
0.00424188
0.00414553
0.00406099
0.0039866
0.00392093
0.00386276
0.00381097
0.00376433
0.00372208
0.00368367
0.00364864
0.00361659
0.00358722
0.00356027
0.00353552
0.00351277
0.00349185
0.00347262
0.00345494
0.00343866
0.00342368
0.00340989
0.00339719
0.00338551
0.00337476
0.00336488
0.00335582
0.00334751
0.00333985
0.00333279
0.00332629
0.00332031
0.00331483
0.00330979
0.00330517
0.00330097
0.00329715
0.00329368
0.00329054
0.00328772
0.00328519
0.00328289
0.00328078
0.00327886
0.00327717
0.00327566
0.00327433
0.00327315
0.00327215
0.00327132
0.00327065
0.0032701
0.00326966
0.00326936
0.00326925
0.00326927
0.0032694
0.00326962
0.00326992
0.0032703
0.00327075
0.00327129
0.0032719
0.00327257
0.00327329
0.00327404
0.00327483
0.00327566
0.00327653
0.00327742
0.00327831
0.00327918
0.00328007
0.00328099
0.00328193
0.00328284
0.00328372
0.00328456
0.00328535
0.00328608
0.00328677
0.00328733
0.00328792
0.00328806
0.00328869
-0.000831931
0.000788343
-0.00121946
0.000387527
-0.00139906
0.000179604
-0.00140205
2.98391e-06
-0.00126096
-0.00014109
-0.000964944
-0.000296012
-0.000524487
-0.000440457
-0.000525013
-0.000754951
0.00166096
-0.00111808
0.000750658
-0.00122824
0.000289766
-0.00120009
-2.51743e-05
-0.00105429
-0.000286883
-0.00080876
-0.000541545
-0.000456447
-0.000792769
-0.000981964
-0.000156197
0.00225018
-0.000557935
0.0011524
-0.000717708
0.000449539
-0.000731038
-1.18448e-05
-0.000650844
-0.000367076
-0.000507296
-0.000685094
-0.000303369
-0.000996696
-0.00128582
0.000429659
0.00257866
9.69583e-05
0.0014851
-0.000111093
0.000657591
-0.000205853
8.29144e-05
-0.000222048
-0.000350881
-0.000187708
-0.000719434
-0.000121698
-0.00106271
-0.00140799
0.000870298
0.00276483
0.000617313
0.00173808
0.000395232
0.000879672
0.000239664
0.000238482
0.000137924
-0.000249141
7.01131e-05
-0.000651623
2.21298e-05
-0.00101472
-0.00138632
0.00119707
0.00287795
0.000996735
0.00193841
0.000781886
0.00109452
0.000592638
0.000427729
0.000428776
-8.52789e-05
0.000279857
-0.000502703
0.000137296
-0.000872162
-0.00124949
0.00139124
0.00294685
0.00123795
0.00209171
0.00104154
0.00129093
0.000835832
0.000633433
0.000631632
0.000118921
0.000426457
-0.000297528
0.000215941
-0.000661646
-0.00103401
0.00145067
0.00299259
0.0013326
0.00220978
0.00116186
0.00146168
0.000958558
0.000836731
0.000737545
0.000339934
0.000503674
-6.36577e-05
0.000257031
-0.000415003
-0.000777457
0.00141292
0.00302251
0.00131814
0.00230455
0.00116838
0.00161144
0.000977294
0.00102782
0.000758601
0.000558628
0.000520558
0.000174385
0.000266338
-0.000160783
-0.000511604
0.00130661
0.00303899
0.00123234
0.00237883
0.00110361
0.00174017
0.000929963
0.00120147
0.000724785
0.000763806
0.000497997
0.000401173
0.000254474
8.274e-05
-0.000257626
0.0011666
0.00304299
0.00111071
0.00243472
0.00100158
0.00184929
0.000848415
0.00135464
0.00066384
0.000948381
0.000456993
0.000608019
0.00023343
0.000306303
-2.47035e-05
0.00101852
0.00303647
0.000977891
0.00247535
0.000885775
0.0019414
0.000752774
0.00148764
0.000590851
0.0011103
0.000407616
0.000791255
0.000209218
0.000504701
0.000184003
0.000877887
0.00302261
0.000849008
0.00250422
0.000772111
0.0020183
0.00065746
0.00160229
0.000516332
0.00125143
0.000355773
0.000951814
0.000181789
0.000678685
0.000365286
0.000753141
0.00300423
0.000732825
0.00252454
0.00066872
0.0020824
0.000570309
0.0017007
0.00044806
0.00137368
0.000308493
0.00109138
0.000157226
0.000829952
0.00052201
0.000646945
0.00298372
0.000632134
0.00253935
0.000578573
0.00213597
0.000494627
0.00178465
0.000389054
0.00147925
0.000267922
0.00121251
0.000136439
0.000961434
0.000657952
0.0005582
0.0029634
0.000546072
0.00255148
0.000500968
0.00218107
0.000429881
0.00185573
0.000338998
0.00157014
0.000233818
0.00131769
0.000119005
0.00107625
0.000776462
0.000485043
0.00294469
0.000474199
0.00256232
0.000435462
0.00221981
0.000374623
0.00191657
0.000296129
0.00164863
0.000204607
0.00140922
0.00010385
0.001177
0.00087982
0.000425169
0.00292817
0.000415047
0.00257245
0.000381032
0.00225382
0.000328022
0.00196958
0.000259604
0.00171705
0.000179554
0.00148927
9.09015e-05
0.00126566
0.000970231
0.000376149
0.00291399
0.000366453
0.00258214
0.000336059
0.00228422
0.000289203
0.00201644
0.000228922
0.00177733
0.000158376
0.00155981
8.01897e-05
0.00134384
0.00104993
0.000335851
0.00290206
0.000326411