/*--------------------------------*- C++ -*----------------------------------*\
| =========                 |                                                 |
| \\      /  F ield         | OpenFOAM: The Open Source CFD Toolbox           |
|  \\    /   O peration     | Version:  v2012                                 |
|   \\  /    A nd           | Website:  www.openfoam.com                      |
|    \\/     M anipulation  |                                                 |
\*---------------------------------------------------------------------------*/
FoamFile
{
    version     2.0;
    format      ascii;
    class       surfaceScalarField;
    location    "0.084";
    object      phi.air;
}
// * * * * * * * * * * * * * * * * * * * * * * * * * * * * * * * * * * * * * //

dimensions      [0 3 -1 0 0 0 0];
oriented        oriented;


internalField   nonuniform List<scalar> 
3672
(
0.00640678
9.6583e-07
0.00640519
1.77677e-06
0.0064024
3.83239e-06
0.00639767
4.04637e-06
0.00639073
5.82281e-06
0.00637741
1.30742e-05
0.00635376
2.29729e-05
0.00628892
6.45884e-05
0.00614136
0.000147303
0.000512271
0.00562884
0.0064089
4.9793e-07
0.00640879
1.88955e-06
0.00640935
2.83539e-06
0.00640843
4.96894e-06
0.00640452
9.73192e-06
0.00639643
2.11649e-05
0.00637522
4.41774e-05
0.00633254
0.000107277
0.00622353
0.000256309
0.000610446
0.0061256
0.00640986
-1.35726e-06
0.00641099
7.56286e-07
0.00641135
2.90954e-06
0.00640949
6.82527e-06
0.00640621
1.25781e-05
0.00640025
2.71219e-05
0.00638487
5.95692e-05
0.00635746
0.000134682
0.00630798
0.000305792
0.000628241
0.00629018
0.0064057
1.17101e-07
0.00640533
6.93451e-07
0.00640534
2.89629e-06
0.00640483
6.91174e-06
0.00640351
1.38949e-05
0.0063996
3.1463e-05
0.00639047
6.86937e-05
0.00637884
0.00014588
0.0063708
0.000313841
0.000600947
0.00639835
0.00641074
-2.6229e-06
0.00641132
5.44106e-07
0.00641126
2.95192e-06
0.00641134
6.40401e-06
0.00641167
1.35689e-05
0.0064118
3.13304e-05
0.00641143
6.90655e-05
0.00641447
0.000142849
0.00643413
0.000294188
0.000540548
0.00649452
0.00640631
-1.78003e-06
0.00640687
-8.71922e-07
0.00640918
6.3834e-07
0.00641067
4.9167e-06
0.00641106
1.40375e-05
0.00641197
3.08556e-05
0.00641587
6.47289e-05
0.00642959
0.000128705
0.00646897
0.000254406
0.000454215
0.0065553
0.00640461
3.66619e-07
0.00640441
-1.5336e-06
0.00640409
1.38625e-06
0.00640407
4.51247e-06
0.00640698
1.06946e-05
0.00641305
2.47761e-05
0.00642524
5.25392e-05
0.00644899
0.000105813
0.0065002
0.000203194
0.00035156
0.00660198
0.00641076
-1.95904e-06
0.0064104
-7.41988e-07
0.00641079
5.62106e-07
0.00641324
1.63283e-06
0.00641805
5.87949e-06
0.00642641
1.64179e-05
0.00644268
3.6267e-05
0.00647538
7.31169e-05
0.00653912
0.000139428
0.000239914
0.00665105
0.00641004
-4.40915e-06
0.00641114
-2.27656e-06
0.0064136
-1.89049e-06
0.00641645
-7.91639e-07
0.00641988
2.88237e-06
0.0064281
7.76609e-06
0.00644717
1.67703e-05
0.00648501
3.52731e-05
0.00655458
7.03108e-05
0.000121065
0.0066735
0.0064034
0.00639965
0.00639844
0.0063979
0.00640017
0.00640819
0.00642564
0.0064616
0.00653173
0.00665259
0.00483188
0.0028955
-0.0020984
0.0043091
0.00419118
-0.00366819
0.00429165
0.00387299
-0.00385551
0.00429884
0.00309701
-0.00310426
0.00426499
0.00202306
-0.00198921
0.00424438
0.000871559
-0.000850946
0.00427644
-0.000227751
0.000195694
0.00439229
-0.00135613
0.00124021
0.00464991
-0.00249231
0.00223469
0.00496509
-0.00371885
0.00340366
0.00511686
-0.00466778
0.00451601
0.00514428
-0.00484151
0.0048141
0.00507675
-0.00445174
0.00451906
0.00495808
-0.00366482
0.00378348
0.00483605
-0.00276174
0.00288377
0.00474125
-0.00195732
0.00205202
0.00467899
-0.00134319
0.00140545
0.00464036
-0.000902585
0.000941215
0.00461727
-0.000597803
0.000620889
0.0046037
-0.000395737
0.000409311
0.00459512
-0.000262331
0.000270907
0.00458963
-0.000175831
0.000181326
0.00458604
-0.00012129
0.000124876
0.00458363
-8.56295e-05
8.804e-05
0.00458191
-6.23852e-05
6.4101e-05
0.00457994
-4.76906e-05
4.98852e-05
0.00457806
-3.84304e-05
4.031e-05
0.00457729
-3.25715e-05
3.31252e-05
0.00457704
-2.80654e-05
2.83098e-05
0.00457698
-2.52097e-05
2.52753e-05
0.00457697
-2.30367e-05
2.30443e-05
0.00457696
-2.15729e-05
2.15762e-05
0.00457688
-2.07097e-05
2.07988e-05
0.00457658
-2.01958e-05
2.04904e-05
0.00457604
-1.99799e-05
2.05175e-05
0.00457527
-2.00489e-05
2.08239e-05
0.00457428
-2.03519e-05
2.13359e-05
0.00457313
-2.08328e-05
2.19876e-05
0.00457184
-2.14482e-05
2.27373e-05
0.00457045
-2.21607e-05
2.35549e-05
0.00456897
-2.29359e-05
2.44143e-05
0.00456742
-2.37395e-05
2.5289e-05
0.0045658
-2.45342e-05
2.61487e-05
0.00456412
-2.52822e-05
2.69611e-05
0.00456238
-2.59511e-05
2.7698e-05
0.00456056
-2.65196e-05
2.83407e-05
0.00455865
-2.69807e-05
2.88831e-05
0.00455666
-2.73415e-05
2.93323e-05
0.00455458
-2.76234e-05
2.97085e-05
0.0045524
-2.78585e-05
3.00404e-05
0.00455012
-2.80792e-05
3.03563e-05
0.00454775
-2.83158e-05
3.06843e-05
0.0045453
-2.85962e-05
3.10503e-05
0.00454276
-2.89427e-05
3.14751e-05
0.00454016
-2.93658e-05
3.19687e-05
0.0045375
-2.98607e-05
3.25262e-05
0.00453478
-3.0412e-05
3.31321e-05
0.00453201
-3.09968e-05
3.37636e-05
0.0045292
-3.15934e-05
3.43992e-05
0.00452637
-3.21843e-05
3.5021e-05
0.00452351
-3.27603e-05
3.56193e-05
0.00452064
-3.33196e-05
3.61919e-05
0.00451776
-3.38691e-05
3.67466e-05
0.00451488
-3.44224e-05
3.72995e-05
0.00451201
-3.49924e-05
3.78648e-05
0.00450914
-3.55812e-05
3.84453e-05
0.00450629
-3.61814e-05
3.90348e-05
0.00450345
-3.67818e-05
3.96239e-05
0.00450062
-3.73685e-05
4.02e-05
0.00449779
-3.79275e-05
4.07505e-05
0.00449498
-3.84465e-05
4.12641e-05
0.00449216
-3.89157e-05
4.17314e-05
0.00448934
-3.93275e-05
4.21451e-05
0.00448652
-3.96751e-05
4.24987e-05
0.00448369
-3.99563e-05
4.27904e-05
0.00448084
-4.0174e-05
4.30227e-05
0.00447797
-4.03352e-05
4.32033e-05
0.00447508
-4.04472e-05
4.33394e-05
0.00447216
-4.05183e-05
4.34384e-05
0.00446921
-4.05575e-05
4.3508e-05
0.00446622
-4.05724e-05
4.35547e-05
0.00446321
-4.05693e-05
4.35837e-05
0.00446016
-4.05534e-05
4.3599e-05
0.00445709
-4.05275e-05
4.3603e-05
0.00445398
-4.04917e-05
4.35961e-05
0.00445085
-4.04412e-05
4.3576e-05
0.00444768
-4.03791e-05
4.3546e-05
0.00444448
-4.03084e-05
4.351e-05
0.00444124
-4.02384e-05
4.34757e-05
0.00443797
-4.01736e-05
4.3448e-05
0.00443466
-4.01267e-05
4.34374e-05
0.00443131
-4.01051e-05
4.34509e-05
0.00442793
-4.01382e-05
4.35205e-05
0.00442452
-4.0223e-05
4.36365e-05
0.00442105
-4.04515e-05
4.39203e-05
0.00441757
-4.07714e-05
4.4249e-05
0.00441397
-4.14351e-05
4.50369e-05
0.00441045
-4.22038e-05
4.57255e-05
0.00440654
-4.35038e-05
4.74117e-05
-4.5153e-05
4.84588e-05
0.00632443
0.00269672
0.00636187
0.00415343
0.00623418
0.0040008
0.00612944
0.0032019
0.00604943
0.00210278
0.00602379
0.000897198
0.00607435
-0.000278016
0.00620033
-0.00148212
0.00635684
-0.00264924
0.00639561
-0.00375762
0.00622401
-0.00449619
0.00595545
-0.00457288
0.00562404
-0.00412053
0.00531256
-0.00335361
0.00507121
-0.00252015
0.00490763
-0.00179382
0.00480335
-0.00123914
0.0047381
-0.000837335
0.00469748
-0.000557188
0.00467242
-0.000370674
0.00465643
-0.000246342
0.00464577
-0.00016518
0.00463877
-0.000114294
0.00463406
-8.09112e-05
0.00463019
-5.8523e-05
0.00462772
-4.52193e-05
0.00462607
-3.67797e-05
0.00462449
-3.09894e-05
0.00462312
-2.66912e-05
0.00462186
-2.3957e-05
0.00462054
-2.17166e-05
0.0046192
-2.02251e-05
0.00461783
-1.93471e-05
0.00461642
-1.87816e-05
0.00461494
-1.8498e-05
0.00461337
-1.84833e-05
0.00461171
-1.86926e-05
0.00460996
-1.90833e-05
0.00460813
-1.96177e-05
0.00460623
-2.02583e-05
0.00460426
-2.09684e-05
0.00460223
-2.17093e-05
0.00460014
-2.244e-05
0.00459798
-2.31201e-05
0.00459574
-2.37155e-05
0.00459343
-2.42049e-05
0.00459103
-2.45827e-05
0.00458854
-2.48576e-05
0.00458597
-2.50526e-05
0.00458332
-2.52028e-05
0.00458058
-2.53435e-05
0.00457777
-2.55073e-05
0.0045749
-2.57269e-05
0.00457199
-2.60294e-05
0.00456905
-2.64236e-05
0.00456609
-2.6901e-05
0.00456312
-2.74411e-05
0.00456014
-2.80187e-05
0.00455716
-2.8611e-05
0.00455417
-2.92003e-05
0.00455119
-2.97761e-05
0.0045482
-3.03353e-05
0.00454522
-3.08824e-05
0.00454222
-3.14278e-05
0.00453921
-3.19811e-05
0.00453617
-3.25437e-05
0.0045331
-3.31091e-05
0.00452999
-3.36673e-05
0.00452683
-3.42059e-05
0.00452361
-3.47129e-05
0.00452034
-3.51774e-05
0.00451702
-3.55912e-05
0.00451364
-3.59482e-05
0.00451021
-3.62442e-05
0.00450673
-3.64784e-05
0.00450321
-3.66543e-05
0.00449965
-3.67776e-05
0.00449606
-3.68548e-05
0.00449243
-3.68939e-05
0.00448878
-3.69036e-05
0.0044851
-3.68918e-05
0.0044814
-3.68651e-05
0.00447767
-3.68296e-05
0.00447393
-3.67885e-05
0.00447018
-3.67421e-05
0.00446642
-3.6682e-05
0.00446266
-3.66117e-05
0.00445888
-3.65318e-05
0.0044551
-3.64534e-05
0.0044513
-3.6378e-05
0.00444749
-3.63208e-05
0.00444368
-3.6287e-05
0.00443984
-3.63012e-05
0.00443599
-3.63712e-05
0.00443209
-3.65578e-05
0.00442818
-3.68627e-05
0.00442416
-3.74101e-05
0.00442017
-3.82101e-05
0.00441586
-3.92005e-05
-4.117e-05
0.00668913
0.00229776
0.00721063
0.0036321
0.00751864
0.00369315
0.00768543
0.0030351
0.00776544
0.0020224
0.00780315
0.000859532
0.00780704
-0.000281906
0.00776145
-0.00143608
0.00762586
-0.00251366
0.00732161
-0.00345373
0.00686102
-0.00403526
0.00635211
-0.00406367
0.00586311
-0.00363163
0.00546276
-0.00295355
0.00517431
-0.00223144
0.00498066
-0.0016001
0.00485566
-0.00111437
0.00477536
-0.000757039
0.00472465
-0.000506482
0.00469307
-0.00033909
0.0046714
-0.000224451
0.00465682
-0.000150591
0.00464778
-0.000105484
0.00464119
-7.43177e-05
0.00463666
-5.39966e-05
0.00463334
-4.18964e-05
0.00462976
-3.29782e-05
0.00462682
-2.80542e-05
0.00462496
-2.50521e-05
0.00462334
-2.23309e-05
0.00462172
-2.00955e-05
0.00462016
-1.86695e-05
0.00461859
-1.77772e-05
0.00461696
-1.71525e-05
0.00461527
-1.68055e-05
0.00461351
-1.672e-05
0.00461167
-1.68556e-05
0.00460976
-1.71757e-05
0.00460779
-1.76424e-05
0.00460574
-1.82152e-05
0.00460363
-1.88538e-05
0.00460144
-1.95179e-05
0.00459916
-2.01664e-05
0.0045968
-2.07615e-05
0.00459436
-2.12724e-05
0.00459184
-2.16821e-05
0.00458924
-2.19891e-05
0.00458659
-2.22032e-05
0.00458388
-2.23466e-05
0.00458114
-2.2454e-05
0.00457836
-2.25644e-05
0.00457557
-2.27189e-05
0.00457279
-2.29496e-05
0.00457003
-2.32703e-05
0.00456729
-2.36792e-05
0.00456455
-2.41643e-05
0.00456182
-2.47066e-05
0.00455908
-2.52828e-05
0.00455634
-2.5869e-05
0.00455358
-2.64463e-05
0.00455081
-2.70029e-05
0.00454801
-2.75349e-05
0.00454517
-2.80457e-05
0.00454229
-2.85444e-05
0.00453935
-2.90397e-05
0.00453634
-2.95336e-05
0.00453325
-3.00216e-05
0.00453008
-3.04956e-05
0.00452682
-3.09457e-05
0.00452347
-3.13621e-05
0.00452003
-3.17368e-05
0.0045165
-3.20638e-05
0.00451289
-3.234e-05
0.00450921
-3.25636e-05
0.00450547
-3.27359e-05
0.00450168
-3.28606e-05
0.00449784
-3.29418e-05
0.00449397
-3.29841e-05
0.00449007
-3.29937e-05
0.00448614
-3.29782e-05
0.0044822
-3.29448e-05
0.00447823
-3.29004e-05
0.00447425
-3.28513e-05
0.00447027
-3.28013e-05
0.00446628
-3.27517e-05
0.00446229
-3.26941e-05
0.00445831
-3.26325e-05
0.00445434
-3.25646e-05
0.00445039
-3.25021e-05
0.00444646
-3.24442e-05
0.00444254
-3.24036e-05
0.00443864
-3.23835e-05
0.00443474
-3.24041e-05
0.00443085
-3.24795e-05
0.00442694
-3.26499e-05
0.00442302
-3.29429e-05
0.00441902
-3.34129e-05
0.00441501
-3.41943e-05
0.0044108
-3.49909e-05
-3.7187e-05
0.00678483
0.00191165
0.00739998
0.00301677
0.00792725
0.0031659
0.00831628
0.00264593
0.00854455
0.00179413
0.00864756
0.000756523
0.00862119
-0.00025596
0.008459
-0.00127396
0.00814965
-0.00220419
0.0076775
-0.00298158
0.0070924
-0.00345016
0.00649534
-0.00346641
0.00596076
-0.00309688
0.00553762
-0.00253052
0.00523166
-0.00192549
0.00502402
-0.00139238
0.00488597
-0.000976316
0.0047956
-0.000666667
0.0047381
-0.00044898
0.00470112
-0.000302113
0.00467633
-0.000199659
0.00466049
-0.00013475
0.00465004
-9.50307e-05
0.00464259
-6.68769e-05
0.0046369
-4.82991e-05
0.00463262
-3.76207e-05
0.00462937
-2.97313e-05
0.00462632
-2.49985e-05
0.00462381
-2.25471e-05
0.00462154
-2.00609e-05
0.00461921
-1.77617e-05
0.00461702
-1.64815e-05
0.00461487
-1.56271e-05
0.00461272
-1.49977e-05
0.00461055
-1.46355e-05
0.00460835
-1.45262e-05
0.00460613
-1.46351e-05
0.00460388
-1.49272e-05
0.0046016
-1.53627e-05
0.00459929
-1.58985e-05
0.00459693
-1.64938e-05
0.00459452
-1.7109e-05
0.00459206
-1.77065e-05
0.00458955
-1.82536e-05
0.004587
-1.87252e-05
0.00458443
-1.91072e-05
0.00458184
-1.93977e-05
0.00457924
-1.96104e-05
0.00457667
-1.97701e-05
0.00457412
-1.99065e-05
0.00457161
-2.00519e-05
0.00456913
-2.02391e-05
0.00456667
-2.04927e-05
0.00456423
-2.08239e-05
0.00456178
-2.12329e-05
0.00455932
-2.17079e-05
0.00455684
-2.22277e-05
0.00455433
-2.27678e-05
0.00455176
-2.33047e-05
0.00454914
-2.38206e-05
0.00454644
-2.43053e-05
0.00454366
-2.47571e-05
0.0045408
-2.51811e-05
0.00453784
-2.55874e-05
0.00453479
-2.59859e-05
0.00453163
-2.63805e-05
0.00452838
-2.67687e-05
0.00452503
-2.71447e-05
0.00452159
-2.75003e-05
0.00451805
-2.78274e-05
0.00451443
-2.81192e-05
0.00451074
-2.83715e-05
0.00450698
-2.85821e-05
0.00450317
-2.87507e-05
0.00449931
-2.88793e-05
0.00449542
-2.89705e-05
0.00449151
-2.90259e-05
0.00448757
-2.90466e-05
0.00448361
-2.90366e-05
0.00447964
-2.90017e-05
0.00447564
-2.89482e-05
0.00447162
-2.88832e-05
0.00446759
-2.88137e-05
0.00446353
-2.87462e-05
0.00445946
-2.86845e-05
0.0044554
-2.86282e-05
0.00445134
-2.85791e-05
0.00444732
-2.85373e-05
0.00444332
-2.85084e-05
0.00443937
-2.84921e-05
0.00443546
-2.84953e-05
0.0044316
-2.85202e-05
0.00442777
-2.85801e-05
0.00442398
-2.86892e-05
0.00442021
-2.88769e-05
0.00441644
-2.91759e-05
0.00441264
-2.96105e-05
0.00440881
-3.03588e-05
0.00440488
-3.10679e-05
-3.31712e-05
0.0068445
0.00156191
0.00743046
0.00243066
0.00800651
0.0025895
0.00846819
0.00218412
0.00876174
0.00150058
0.00889325
0.000625406
0.00885111
-0.000213392
0.00864412
-0.00106739
0.00827713
-0.00183762
0.00776113
-0.00246558
0.0071513
-0.00284033
0.00654233
-0.00285744
0.00600596
-0.00256022
0.00557921
-0.00210377
0.00526693
-0.00161348
0.00505044
-0.00117588
0.00490323
-0.000829105
0.00480597
-0.000569413
0.00474363
-0.000386641
0.00470117
-0.000259658
0.00467365
-0.000172142
0.00465704
-0.000118143
0.00464302
-8.05642e-05
0.00463209
-5.59438e-05
0.00462581
-4.24639e-05
0.00462105
-3.28655e-05
0.00461691
-2.55946e-05
0.00461379
-2.18777e-05
0.00461041
-1.89467e-05
0.00460681
-1.64543e-05
0.00460407
-1.52421e-05
0.00460176
-1.41766e-05
0.0045995
-1.3361e-05
0.0045973
-1.27982e-05
0.00459516
-1.25003e-05
0.00459308
-1.24474e-05
0.00459104
-1.25973e-05
0.00458903
-1.29105e-05
0.00458702
-1.33527e-05
0.00458501
-1.38855e-05
0.00458298
-1.44675e-05
0.00458093
-1.50599e-05
0.00457885
-1.5629e-05
0.00457675
-1.6147e-05
0.00457461
-1.65943e-05
0.00457247
-1.69601e-05
0.00457031
-1.72439e-05
0.00456816
-1.74592e-05
0.00456602
-1.76275e-05
0.00456389
-1.77724e-05
0.00456176
-1.79217e-05
0.00455962
-1.81047e-05
0.00455747
-1.83418e-05
0.00455529
-1.86404e-05
0.00455305
-1.89993e-05
0.00455075
-1.94077e-05
0.00454837
-1.98467e-05
0.0045459
-2.02948e-05
0.00454333
-2.07321e-05
0.00454065
-2.11442e-05
0.00453787
-2.1524e-05
0.00453498
-2.1872e-05
0.004532
-2.21947e-05
0.00452891
-2.25027e-05
0.00452573
-2.28057e-05
0.00452246
-2.31081e-05
0.0045191
-2.34085e-05
0.00451566
-2.3702e-05
0.00451214
-2.39812e-05
0.00450855
-2.42389e-05
0.0045049
-2.44691e-05
0.0045012
-2.4668e-05
0.00449745
-2.48336e-05
0.00449366
-2.49661e-05
0.00448985
-2.5067e-05
0.00448602
-2.51376e-05
0.00448217
-2.51758e-05
0.0044783
-2.51795e-05
0.00447441
-2.51508e-05
0.00447051
-2.50944e-05
0.00446658
-2.50167e-05
0.00446262
-2.49253e-05
0.00445863
-2.48291e-05
0.00445462
-2.47374e-05
0.0044506
-2.46582e-05
0.00444657
-2.46002e-05
0.00444256
-2.45651e-05
0.00443857
-2.45532e-05
0.00443463
-2.45639e-05
0.00443073
-2.45977e-05
0.00442689
-2.4653e-05
0.0044231
-2.47326e-05
0.00441937
-2.48426e-05
0.00441567
-2.49922e-05
0.004412
-2.52101e-05
0.00440834
-2.55122e-05
0.00440467
-2.59379e-05
0.00440092
-2.66155e-05
0.00439715
-2.73003e-05
-2.93351e-05
0.00688723
0.00122999
0.00742682
0.00189096
0.00798506
0.00203135
0.00845446
0.00171472
0.00876637
0.00118872
0.00890204
0.000489742
0.00885945
-0.000170795
0.00864491
-0.000852791
0.00826703
-0.00145981
0.00775
-0.00194856
0.00715063
-0.00224096
0.00655433
-0.00226114
0.00603014
-0.00203602
0.00560922
-0.00168276
0.00529463
-0.00129889
0.00507137
-0.000952626
0.00491788
-0.00067561
0.00481542
-0.000466951
0.00474581
-0.000316805
0.00469914
-0.000212988
0.00466968
-0.000142912
0.00464934
-9.77978e-05
0.00463596
-6.71863e-05
0.00462702
-4.69986e-05
0.00462006
-3.55075e-05
0.00461497
-2.77761e-05
0.00461105
-2.16739e-05
0.00460762
-1.8446e-05
0.00460482
-1.61478e-05
0.00460243
-1.40572e-05
0.00459997
-1.27862e-05
0.00459781
-1.20175e-05
0.00459576
-1.13107e-05
0.00459379
-1.08271e-05
0.00459189
-1.05994e-05
0.00459004
-1.05978e-05
0.00458822
-1.07738e-05
0.0045864
-1.10932e-05
0.00458457
-1.15281e-05
0.00458273
-1.2039e-05
0.00458084
-1.25842e-05
0.00457891
-1.31279e-05
0.00457692
-1.36415e-05
0.00457488
-1.41037e-05
0.00457279
-1.44998e-05
0.00457065
-1.4823e-05
0.00456848
-1.50741e-05
0.00456628
-1.52644e-05
0.00456407
-1.54118e-05
0.00456183
-1.55356e-05
0.00455957
-1.56589e-05
0.00455727
-1.58066e-05
0.00455492
-1.59956e-05
0.00455252
-1.62319e-05
0.00455003
-1.65143e-05
0.00454746
-1.68342e-05
0.00454479
-1.7176e-05
0.00454202
-1.75226e-05
0.00453914
-1.78579e-05
0.00453617
-1.81707e-05
0.0045331
-1.8456e-05
0.00452994
-1.8715e-05
0.0045267
-1.8954e-05
0.00452338
-1.91821e-05
0.00451998
-1.9408e-05
0.00451651
-1.96357e-05
0.00451297
-1.98646e-05
0.00450936
-2.00908e-05
0.00450568
-2.03088e-05
0.00450196
-2.05128e-05
0.00449819
-2.0698e-05
0.00449438
-2.08612e-05
0.00449055
-2.10007e-05
0.0044867
-2.11162e-05
0.00448284
-2.12084e-05
0.00447898
-2.12765e-05
0.00447512
-2.13146e-05
0.00447125
-2.13168e-05
0.00446739
-2.12833e-05
0.00446351
-2.12185e-05
0.00445962
-2.11288e-05
0.00445572
-2.10227e-05
0.0044518
-2.09107e-05
0.00444787
-2.08054e-05
0.00444393
-2.07197e-05
0.00444
-2.06691e-05
0.00443609
-2.06519e-05
0.0044322
-2.06704e-05
0.00442836
-2.07194e-05
0.00442456
-2.08011e-05
0.00442081
-2.09053e-05
0.00441712
-2.10356e-05
0.00441347
-2.11914e-05
0.00440985
-2.13763e-05
0.00440626
-2.16209e-05
0.00440267
-2.1917e-05
0.00439906
-2.23339e-05
0.00439537
-2.29232e-05
0.00439169
-2.36175e-05
-2.5272e-05
0.00692054
0.000911473
0.00742322
0.00138864
0.00795243
0.00150214
0.00839959
0.00126759
0.00870363
0.000884681
0.00883631
0.000356648
0.00879451
-0.000128998
0.00858114
-0.000639016
0.00820939
-0.00108811
0.0077096
-0.00144916
0.00713537
-0.00166673
0.00656152
-0.00168729
0.00605107
-0.00152558
0.0056346
-0.00126635
0.00531742
-0.000981757
0.00508895
-0.00072416
0.00492903
-0.000515715
0.00481922
-0.000357137
0.00474615
-0.000243738
0.00469713
-0.000163955
0.00466448
-0.000110264
0.00464329
-7.66066e-05
0.00462853
-5.24221e-05
0.00461829
-3.67622e-05
0.00461175
-2.89733e-05
0.00460574
-2.15449e-05
0.00460069
-1.66159e-05
0.00459721
-1.51894e-05
0.00459359
-1.23046e-05
0.00459072
-1.11896e-05
0.00458855
-1.08412e-05
0.00458662
-1.00875e-05
0.00458478
-9.47241e-06
0.00458305
-9.09356e-06
0.00458138
-8.93024e-06
0.00457973
-8.95026e-06
0.00457808
-9.12101e-06
0.00457641
-9.4175e-06
0.00457469
-9.81065e-06
0.00457291
-1.02627e-05
0.00457106
-1.07363e-05
0.00456914
-1.12014e-05
0.00456713
-1.16361e-05
0.00456505
-1.20251e-05
0.00456291
-1.23587e-05
0.00456072
-1.26322e-05
0.00455849
-1.28463e-05
0.00455624
-1.30089e-05
0.00455396
-1.31327e-05
0.00455166
-1.32316e-05
0.00454932
-1.33233e-05
0.00454694
-1.34284e-05
0.00454451
-1.35609e-05
0.004542
-1.37259e-05
0.00453941
-1.39239e-05
0.00453673
-1.41498e-05
0.00453394
-1.43931e-05
0.00453106
-1.46412e-05
0.00452809
-1.48821e-05
0.00452502
-1.51071e-05
0.00452188
-1.53118e-05
0.00451866
-1.54969e-05
0.00451537
-1.56669e-05
0.00451202
-1.58288e-05
0.0045086
-1.59892e-05
0.00450512
-1.61515e-05
0.00450157
-1.63161e-05
0.00449796
-1.64807e-05
0.00449429
-1.66417e-05
0.00449057
-1.67954e-05
0.00448681
-1.69385e-05
0.00448302
-1.70682e-05
0.0044792
-1.71831e-05
0.00447537
-1.72822e-05
0.00447153
-1.73658e-05
0.00446768
-1.74324e-05
0.00446384
-1.7473e-05
0.00446
-1.74778e-05
0.00445616
-1.74461e-05
0.00445233
-1.73843e-05
0.0044485
-1.73001e-05
0.00444468
-1.72036e-05
0.00444088
-1.71051e-05
0.00443709
-1.70172e-05
0.00443332
-1.69508e-05
0.00442957
-1.69195e-05
0.00442584
-1.69219e-05
0.00442213
-1.69631e-05
0.00441845
-1.70358e-05
0.00441479
-1.71443e-05
0.00441116
-1.72754e-05
0.00440756
-1.74292e-05
0.00440397
-1.76044e-05
0.00440039
-1.77975e-05
0.00439682
-1.80462e-05
0.0043932
-1.83051e-05
0.00438958
-1.87069e-05
0.0043858
-1.91481e-05
0.00438206
-1.98758e-05
-2.12067e-05
0.00695718
0.000605398
0.00743332
0.000912162
0.00794049
0.000994936
0.00837277
0.000835307
0.00867015
0.000587255
0.00879276
0.00023446
0.00875023
-8.64675e-05
0.00853926
-0.000428057
0.0081771
-0.000725901
0.00769355
-0.000965996
0.0071379
-0.00111108
0.00657653
-0.00112596
0.00606941
-0.00101822
0.0056507
-0.000847372
0.00532908
-0.000660403
0.00509318
-0.00048827
0.00492631
-0.000348846
0.00481314
-0.000244222
0.00473606
-0.000166657
0.00468399
-0.000111879
0.00465075
-7.70229e-05
0.00462783
-5.36934e-05
0.00461179
-3.63781e-05
0.00460209
-2.70588e-05
0.00459478
-2.16702e-05
0.00458899
-1.575e-05
0.00458503
-1.24406e-05
0.0045817
-1.04201e-05
0.00457901
-9.83654e-06
0.00457676
-8.93744e-06
0.00457458
-8.65765e-06
0.00457264
-8.14642e-06
0.00457085
-7.68495e-06
0.00456918
-7.42186e-06
0.00456758
-7.33187e-06
0.004566
-7.37601e-06
0.00456442
-7.53794e-06
0.00456281
-7.80419e-06
0.00456114
-8.14484e-06
0.0045594
-8.52421e-06
0.00455758
-8.9096e-06
0.00455565
-9.27694e-06
0.00455363
-9.61108e-06
0.00455151
-9.90347e-06
0.0045493
-1.01497e-05
0.00454701
-1.0348e-05
0.00454467
-1.04998e-05
0.00454227
-1.06104e-05
0.00453982
-1.06878e-05
0.00453733
-1.07402e-05
0.00453479
-1.07794e-05
0.00453218
-1.08219e-05
0.0045295
-1.08783e-05
0.00452673
-1.09532e-05
0.00452385
-1.10488e-05
0.00452087
-1.11646e-05
0.00451777
-1.12954e-05
0.00451456
-1.14341e-05
0.00451125
-1.15731e-05
0.00450785
-1.17063e-05
0.00450437
-1.183e-05
0.00450082
-1.19439e-05
0.0044972
-1.20504e-05
0.00449352
-1.21538e-05
0.00448979
-1.22586e-05
0.00448601
-1.23675e-05
0.00448217
-1.2481e-05
0.00447829
-1.2598e-05
0.00447437
-1.27161e-05
0.0044704
-1.28327e-05
0.00446641
-1.29447e-05
0.00446239
-1.30498e-05
0.00445835
-1.31459e-05
0.0044543
-1.32314e-05
0.00445024
-1.33049e-05
0.00444617
-1.33648e-05
0.00444211
-1.34063e-05
0.00443805
-1.3423e-05
0.00443402
-1.34148e-05
0.00443002
-1.33868e-05
0.00442607
-1.3345e-05
0.00442216
-1.32967e-05
0.00441831
-1.32496e-05
0.0044145
-1.32125e-05
0.00441074
-1.3193e-05
0.00440702
-1.31994e-05
0.00440333
-1.32314e-05
0.00439966
-1.32923e-05
0.00439601
-1.3379e-05
0.00439235
-1.34924e-05
0.0043887
-1.36248e-05
0.00438505
-1.37735e-05
0.00438138
-1.39339e-05
0.00437769
-1.4106e-05
0.00437397
-1.43291e-05
0.00437019
-1.45235e-05
0.00436637
-1.48865e-05
0.00436237
-1.5147e-05
0.00435842
-1.59297e-05
-1.6495e-05
0.0069781
0.000300246
0.00743873
0.000451904
0.00793596
0.000497708
0.00835842
0.000412471
0.008653
0.000292672
0.00877262
0.000114837
0.00873295
-4.6792e-05
0.00852283
-0.000217932
0.00816244
-0.000365482
0.00768109
-0.000484642
0.0071266
-0.000556256
0.00656348
-0.000562526
0.00605429
-0.000509338
0.00563291
-0.000426242
0.00530603
-0.000333498
0.0050648
-0.000247032
0.00489445
-0.000178246
0.00477584
-0.000125617
0.00469476
-8.58123e-05
0.00464255
-5.96674e-05
0.00460683
-4.12983e-05
0.0045819
-2.87672e-05
0.00456714
-2.16161e-05
0.00455579
-1.54963e-05
0.00454598
-1.1635e-05
0.00454011
-1.01051e-05
0.00453563
-8.17643e-06
0.00453124
-7.46754e-06
0.00452838
-6.97536e-06
0.00452601
-6.56632e-06
0.00452372
-6.37119e-06
0.00452167
-6.09001e-06
0.00451982
-5.83926e-06
0.00451812
-5.71989e-06
0.00451649
-5.69883e-06
0.00451486
-5.75057e-06
0.0045132
-5.87619e-06
0.00451146
-6.06533e-06
0.00450961
-6.2935e-06
0.00450762
-6.53545e-06
0.00450548
-6.77041e-06
0.00450319
-6.98541e-06
0.00450075
-7.17462e-06
0.00449819
-7.33648e-06
0.00449551
-7.47093e-06
0.00449274
-7.57781e-06
0.00448989
-7.65724e-06
0.00448699
-7.71101e-06
0.00448405
-7.74198e-06
0.00448106
-7.75174e-06
0.00447803
-7.74681e-06
0.00447495
-7.73982e-06
0.00447181
-7.73859e-06
0.0044686
-7.74597e-06
0.00446532
-7.76539e-06
0.00446195
-7.79878e-06
0.0044585
-7.84458e-06
0.00445496
-7.89909e-06
0.00445135
-7.95762e-06
0.00444766
-8.01578e-06
0.0044439
-8.07064e-06
0.00444008
-8.12146e-06
0.0044362
-8.16963e-06
0.00443226
-8.21804e-06
0.00442827
-8.26997e-06
0.00442423
-8.32783e-06
0.00442014
-8.39254e-06
0.00441601
-8.46355e-06
0.00441183
-8.5391e-06
0.00440761
-8.61653e-06
0.00440336
-8.69294e-06
0.00439908
-8.7656e-06
0.00439477
-8.8321e-06
0.00439042
-8.89052e-06
0.00438606
-8.93957e-06
0.00438167
-8.97937e-06
0.00437728
-9.01248e-06
0.0043729
-9.04046e-06
0.00436854
-9.06194e-06
0.00436423
-9.0761e-06
0.00435997
-9.08373e-06
0.00435576
-9.08686e-06
0.0043516
-9.08814e-06
0.00434748
-9.09105e-06
0.00434339
-9.0995e-06
0.00433931
-9.11891e-06
0.00433523
-9.15132e-06
0.00433113
-9.19774e-06
0.00432701
-9.25539e-06
0.00432284
-9.32427e-06
0.00431862
-9.40216e-06
0.00431433
-9.48713e-06
0.00430998
-9.58282e-06
0.00430555
-9.67697e-06
0.00430104
-9.82323e-06
0.00429643
-9.91005e-06
0.00429174
-1.01975e-05
0.00428682
-1.02217e-05
0.00428188
-1.09953e-05
-1.09586e-05
0.00695355
0.00740583
0.00790352
0.00831635
0.00860938
0.00872499
0.00867855
0.00846056
0.00809543
0.00761116
0.00705527
0.00649315
0.00598423
0.00555839
0.0052253
0.00497868
0.00480109
0.0046759
0.00459029
0.00453105
0.00449019
0.00446185
0.00444067
0.0044256
0.0044144
0.00440473
0.00439698
0.00438995
0.00438341
0.00437728
0.00437134
0.00436568
0.00436028
0.00435499
0.00434973
0.00434441
0.00433897
0.00433334
0.00432748
0.00432138
0.00431504
0.00430849
0.00430175
0.00429485
0.00428782
0.00428067
0.00427345
0.00426618
0.00425887
0.00425156
0.00424425
0.00423694
0.00422964
0.00422233
0.00421501
0.00420764
0.00420024
0.00419278
0.00418526
0.00417768
0.00417005
0.00416236
0.00415463
0.00414685
0.00413902
0.00413113
0.00412318
0.00411515
0.00410706
0.00409888
0.00409063
0.0040823
0.00407391
0.00406546
0.00405696
0.00404842
0.00403985
0.00403125
0.00402263
0.004014
0.00400536
0.00399671
0.00398806
0.00397942
0.00397076
0.00396208
0.00395338
0.00394462
0.00393581
0.00392693
0.00391797
0.00390893
0.00389979
0.00389056
0.00388118
0.00387171
0.00386196
0.00385219
0.00384164
-0.00335834
0.00125994
-0.00442195
0.00106361
-0.00479102
0.000369067
-0.00464455
-0.000146464
-0.00398374
-0.00066081
-0.00288957
-0.00109417
-0.00148476
-0.00140482
-0.00148525
-0.00442888
0.00202063
-0.00476123
0.00139596
-0.00481569
0.000423525
-0.00453142
-0.000430731
-0.00388989
-0.00130235
-0.00288559
-0.00209846
-0.00154718
-0.00274323
-0.00303287
-0.00408571
0.002251
-0.00401685
0.00132709
-0.00383379
0.000240469
-0.00347276
-0.000791766
-0.00293641
-0.00183869
-0.00219896
-0.00283592
-0.00121668
-0.00372551
-0.00424996
-0.00305752
0.00220426
-0.00280235
0.00107192
-0.00251825
-4.3629e-05
-0.00217134
-0.00113868
-0.00177042
-0.00223961
-0.00130613
-0.00330021
-0.000736845
-0.00429479
-0.00498719
-0.00187236
0.00208741
-0.00164667
0.000846222
-0.00142535
-0.000264945
-0.00120572
-0.00135831
-0.000954958
-0.00249036
-0.00068376
-0.00357141
-0.000387844
-0.00459071
-0.00537541
-0.000788065
0.00202453
-0.000702655
0.000760812
-0.000592585
-0.000375016
-0.000507994
-0.0014429
-0.000407612
-0.00259075
-0.000291265
-0.00368776
-0.000168288
-0.00471368
-0.00554408
0.000182201
0.00203802
0.000115241
0.000827771
5.95447e-05
-0.000319319
3.61705e-05
-0.00141953
2.02066e-05
-0.00257478
7.19355e-06
-0.00367475
-3.44755e-06
-0.00470304
-0.0055479
0.00117034
0.00210789
0.00100562
0.000992487
0.00080799
-0.000121687
0.000659315
-0.00127085
0.000504552
-0.00242002
0.000341828
-0.00351202
0.000171303
-0.00453252
-0.00537697
0.00204769
0.00229489
0.00181686
0.00122332
0.00157886
0.000116311
0.00131756
-0.00100955
0.00102308
-0.00212555
0.000700022
-0.00318896
0.000355028
-0.00418752
-0.00502232
0.00308566
0.0026129
0.00273468
0.0015743
0.00235404
0.000496952
0.00193988
-0.000595382
0.0014852
-0.00167087
0.00100752
-0.00271128
0.000509298
-0.00368931
-0.00451341
0.00421154
0.00291737
0.00379058
0.00199526
0.00328481
0.00100272
0.00267701
1.24208e-05
0.00205699
-0.00105084
0.0014032
-0.00205749
0.000709339
-0.00299545
-0.00380447
0.00460433
0.00312714
0.00423703
0.00236255
0.00373309
0.00150666
0.00315326
0.000592247
0.00244968
-0.00034726
0.00167595
-0.00128376
0.000849539
-0.00216904
-0.00295535
0.00438758
0.00325861
0.0041031
0.00264703
0.00367599
0.00193378
0.00311793
0.00115031
0.00244573
0.00032494
0.00168007
-0.000518106
0.000857281
-0.00134624
-0.00209852
0.00371269
0.0033294
0.0035014
0.00285833
0.00315859
0.00227658
0.00269726
0.00161164
0.00213037
0.00089183
0.00147792
0.000134343
0.000754888
-0.000623212
-0.0013441
0.0028576
0.00335558
0.00271705
0.00299887
0.00246652
0.00252711
0.00211699
0.00196117
0.00168221
0.00132661
0.00116487
0.000651686
0.000602542
-6.08849e-05
-0.00074206
0.00204794
0.00335966
0.00196176
0.00308505
0.0017913
0.00269757
0.00154373
0.00220874
0.00123037
0.00163997
0.000865198
0.00101686
0.000437599
0.000366714
-0.000304986
0.00140632
0.00335878
0.00135269
0.00313868
0.00123937
0.0028109
0.00106975
0.00237836
0.000851775
0.00185794
0.000595435
0.0012732
0.000310171
0.000651978
4.63918e-06
0.000942186
0.00335781
0.000908539
0.00317233
0.000834835
0.0028846
0.000722433
0.00249076
0.000577039
0.00200334
0.00040661
0.00144363
0.000219625
0.000838963
0.000223715
0.000620659
0.00335804
0.000598456
0.00319453
0.000549734
0.00293332
0.000474507
0.00256599
0.000376086
0.00210176
0.000259565
0.00156015
0.000131359
0.000967169
0.00035453
0.000408358
0.003359
0.000393468
0.00320942
0.000361387
0.0029654
0.000311801
0.00261557
0.000247018
0.00216654
0.000170775
0.00163639
8.73256e-05
0.00105062
0.000441317
0.00027009
0.00335981
0.000260321
0.00321919