/*--------------------------------*- C++ -*----------------------------------*\
| =========                 |                                                 |
| \\      /  F ield         | OpenFOAM: The Open Source CFD Toolbox           |
|  \\    /   O peration     | Version:  v2012                                 |
|   \\  /    A nd           | Website:  www.openfoam.com                      |
|    \\/     M anipulation  |                                                 |
\*---------------------------------------------------------------------------*/
FoamFile
{
    version     2.0;
    format      ascii;
    class       volScalarField;
    location    "0.133";
    object      nut.air;
}
// * * * * * * * * * * * * * * * * * * * * * * * * * * * * * * * * * * * * * //

dimensions      [0 2 -1 0 0 0 0];


internalField   nonuniform List<scalar> 
5600
(
2.45135e-05
3.47347e-05
4.04094e-05
4.24627e-05
4.22717e-05
4.09706e-05
3.92086e-05
3.75394e-05
3.61127e-05
3.49475e-05
3.40601e-05
3.34383e-05
3.30357e-05
3.28062e-05
3.26943e-05
3.26611e-05
3.267e-05
3.26992e-05
3.27362e-05
3.27666e-05
3.28016e-05
3.28196e-05
3.28536e-05
3.28717e-05
3.29167e-05
3.29351e-05
3.29873e-05
3.30023e-05
3.30613e-05
3.30657e-05
3.3127e-05
3.31148e-05
3.31736e-05
3.31473e-05
3.31991e-05
3.31726e-05
3.3203e-05
3.31993e-05
3.31902e-05
3.32282e-05
3.31699e-05
3.32497e-05
3.31628e-05
3.32463e-05
3.31895e-05
3.3209e-05
3.32524e-05
3.31529e-05
3.33182e-05
3.31187e-05
3.33418e-05
3.31427e-05
3.33002e-05
3.32286e-05
3.32161e-05
3.33365e-05
3.31449e-05
3.34035e-05
3.31466e-05
3.338e-05
3.32506e-05
3.32601e-05
3.34313e-05
3.31099e-05
3.3593e-05
3.30504e-05
3.36161e-05
3.31708e-05
3.34558e-05
3.34369e-05
3.32048e-05
3.36934e-05
3.30554e-05
3.37471e-05
3.31352e-05
3.35548e-05
3.3386e-05
3.32847e-05
3.3589e-05
3.31744e-05
3.35576e-05
3.33117e-05
3.3322e-05
3.35705e-05
3.30824e-05
3.3724e-05
3.30379e-05
3.3635e-05
3.32253e-05
3.33769e-05
3.3457e-05
3.32304e-05
3.34278e-05
3.34433e-05
3.30038e-05
3.40623e-05
3.19549e-05
3.60711e-05
2.72022e-05
4.55522e-05
0.000151656
0.000137408
0.000112247
9.8624e-05
9.39042e-05
9.49464e-05
0.0001021
0.000110122
0.000116484
0.000124316
0.000132728
0.000141237
0.00014947
0.000157257
0.000164421
0.000170946
0.000176807
0.000182056
0.000186795
0.000191032
0.000195031
0.000198555
0.000202175
0.000205258
0.000208613
0.000211172
0.000214256
0.000216296
0.000219156
0.000220578
0.00022318
0.000223991
0.000226335
0.000226755
0.000228744
0.000229183
0.000230486
0.000231485
0.000231671
0.000233593
0.000232644
0.000235259
0.000233915
0.000236115
0.000235945
0.000236088
0.000238512
0.000235737
0.000240662
0.000236083
0.000241473
0.000237859
0.000240733
0.000240821
0.000239251
0.000243692
0.000238457
0.000245096
0.000239642
0.000244157
0.000243239
0.000241136
0.000247922
0.000238229
0.000251069
0.000238221
0.000250289
0.000242587
0.000245625
0.000249522
0.000240396
0.000254606
0.000238926
0.000254137
0.000242783
0.000248785
0.000249186
0.000243478
0.000252479
0.000242939
0.000250119
0.000247368
0.000244398
0.000252781
0.000240334
0.0002544
0.000241201
0.000250793
0.000246346
0.000245143
0.00025067
0.000243065
0.000249809
0.000245898
0.000246058
0.000249052
0.000242756
0.000256294
0.000226031
0.000269661
0.000156515
0.000151568
0.000143034
0.000135173
0.000125238
0.000120746
0.000113753
0.000109718
0.000108702
0.000109816
0.000112677
0.000117434
0.000123682
0.000131366
0.000140261
0.00015035
0.000161516
0.000173747
0.000187177
0.000201619
0.000217182
0.000232644
0.000246396
0.000258064
0.000270539
0.000280557
0.0002912
0.000297631
0.000306336
0.000310772
0.000318744
0.000321911
0.000329334
0.00033194
0.000338109
0.000341236
0.000345047
0.000349963
0.000350678
0.00035782
0.000356021
0.000363917
0.000362436
0.0003674
0.000370393
0.000368809
0.000378549
0.000370182
0.000384481
0.000374084
0.000386365
0.000381447
0.000384813
0.000390407
0.00038273
0.000397679
0.000383653
0.000400061
0.000390207
0.000396382
0.000401732
0.000389287
0.00041341
0.000385033
0.000418407
0.000389948
0.000412845
0.000404707
0.00040067
0.000421626
0.000391503
0.000429887
0.000394102
0.000424176
0.000407933
0.000410808
0.000421942
0.000402527
0.000424955
0.000406186
0.000416374
0.000417565
0.000404694
0.000426311
0.000399998
0.000425099
0.000405932
0.000415215
0.000416666
0.0004058
0.000422701
0.000402572
0.000423775
0.000401364
0.000427422
0.000394485
0.000436718
0.000389532
0.000432467
0.000391618
0.000157813
0.000154005
0.00015008
0.000146777
0.00014268
0.000139243
0.00013556
0.000131505
0.00012819
0.000124914
0.000122986
0.000119993
0.000117395
0.00011571
0.000115563
0.00011668
0.000119924
0.000124467
0.000131534
0.000139448
0.000150604
0.000161792
0.00017701
0.0001903
0.000208268
0.000222152
0.000240227
0.000251101
0.000268387
0.000277764
0.00029515
0.000303163
0.000319777
0.000327407
0.00034178
0.000350995
0.000360632
0.000374038
0.000377276
0.000394996
0.000393604
0.000411682
0.000412288
0.000421638
0.000432454
0.000426498
0.000449937
0.000432657
0.000461459
0.000444457
0.000464921
0.000462054
0.000463096
0.00048079
0.000462081
0.000494213
0.000468252
0.000497141
0.000485259
0.000489169
0.000509881
0.00047752
0.000530982
0.000474957
0.000536141
0.000491071
0.000522137
0.000522573
0.0005005
0.000552351
0.000490153
0.000561538
0.000503416
0.000546567
0.000532391
0.000524022
0.000554301
0.000515833
0.000553642
0.000527558
0.000536501
0.000546927
0.000519436
0.000556945
0.000517015
0.000550043
0.000529728
0.000534019
0.000543789
0.00052399
0.000548735
0.000520993
0.000551173
0.000516706
0.000557976
0.000509084
0.000560932
0.000516047
0.000545158
0.00053192
0.000158111
0.000154619
0.000151627
0.000149091
0.000146719
0.000144515
0.000142443
0.000140397
0.000138418
0.000136513
0.000134678
0.000132933
0.00013096
0.000129069
0.000127297
0.000125359
0.00012446
0.000121332
0.000121691
0.000118757
0.000122128
0.000120184
0.000127836
0.000127404
0.000140136
0.000141207
0.000159011
0.00016139
0.0001835
0.000187116
0.000211975
0.000217703
0.000238839
0.000245377
0.000261706
0.000274424
0.000282789
0.000304227
0.000303915
0.000332176
0.000328045
0.000354546
0.000358322
0.000369469
0.000392747
0.000380617
0.000424393
0.000395899
0.000445266
0.000421808
0.000453156
0.000456871
0.000453407
0.000491356
0.000457364
0.00051489
0.000474664
0.000520371
0.000510411
0.000508345
0.000556092
0.000493561
0.000591594
0.000497292
0.000597458
0.0005334
0.000572255
0.000591417
0.000539745
0.000639822
0.000531567
0.00064616
0.000563388
0.000619229
0.000615167
0.000587315
0.000645149
0.000581714
0.000637342
0.000606395
0.000609896
0.000635551
0.000586042
0.000643375
0.000587568
0.000629539
0.000608858
0.000608771
0.000625476
0.000599233
0.000627189
0.000597985
0.00062953
0.000593314
0.000636802
0.000585537
0.000634614
0.000600081
0.000613587
0.000611827
0.00015818
0.000154795
0.000152026
0.000149708
0.000147679
0.000145896
0.000144252
0.000142768
0.000141346
0.000140026
0.000138779
0.000137518
0.0001365
0.000135103
0.000134503
0.000132609
0.000132904
0.000129785
0.000131589
0.000126344
0.000130907
0.000122395
0.000131386
0.000118254
0.000132568
0.000114539
0.000135358
0.000113902
0.000140216
0.000118983
0.000146954
0.000132303
0.000154872
0.00015479
0.00016359
0.000184761
0.000175328
0.000217142
0.000195146
0.000244287
0.000228534
0.000259007
0.000265513
0.000264044
0.000306265
0.000271574
0.000340291
0.000292249
0.000357353
0.000330415
0.000358868
0.00037871
0.000357165
0.000422824
0.000366674
0.000448637
0.000398596
0.00044843
0.000454467
0.000428299
0.000518302
0.00041414
0.000559577
0.000433892
0.000555704
0.000496421
0.000515201
0.000576551
0.000479806
0.000632264
0.000487843
0.000633244
0.000546671
0.000592712
0.000615818
0.000559865
0.000646277
0.00056894
0.000627751
0.000604762
0.000592948
0.000635973
0.000573012
0.000639198
0.000583011
0.000616657
0.000606247
0.000596723
0.000614503
0.000595469
0.000613006
0.000592403
0.000618625
0.000582627
0.000629156
0.000575337
0.000621921
0.00059564
0.000600731
0.000608428
0.0001582
0.000154852
0.000152145
0.000149895
0.000147961
0.000146283
0.000144783
0.000143433
0.000142213
0.00014105
0.00014005
0.000138954
0.000138201
0.000137007
0.000136663
0.000135057
0.000135506
0.000132928
0.000134862
0.000130379
0.000134935
0.000127118
0.00013601
0.000122863
0.000138204
0.00011755
0.000141173
0.000112226
0.000143343
0.000109919
0.000141007
0.00011534
0.000130077
0.000132042
0.00011167
0.000156133
9.62252e-05
0.000173781
9.99601e-05
0.000171023
0.000133096
0.000149292
0.000188073
0.000127121
0.000238568
0.000127798
0.000259238
0.000163945
0.000249253
0.000229044
0.000229553
0.000294798
0.000222837
0.000336509
0.000243557
0.000347633
0.000288825
0.000325228
0.000363474
0.000290242
0.000436174
0.000279849
0.000466345
0.00031997
0.000439005
0.000406952
0.000382866
0.000499865
0.000352847
0.000546715
0.000385099
0.000528912
0.000468476
0.000482303
0.000543793
0.000464744
0.000560766
0.000492602
0.000534468
0.000531859
0.000505119
0.000554012
0.000496197
0.000546781
0.00051264
0.000523072
0.000528347
0.000516807
0.000521499
0.000523624
0.000520499
0.000515906
0.000531154
0.000502426
0.000543783
0.000496528
0.000533926
0.000517413
0.000516527
0.000530656
0.000158207
0.000154873
0.000152188
0.000149959
0.000148059
0.00014641
0.000144957
0.00014365
0.000142484
0.000141386
0.000140438
0.000139448
0.000138711
0.000137712
0.000137266
0.000136059
0.000136122
0.000134364
0.000135343
0.000132477
0.000135047
0.000130203
0.000135397
0.000127348
0.000136487
0.000123917
0.000138009
0.000120618
0.000138664
0.000119665
0.00013553
0.000124909
0.000124785
0.000138946
0.000105438
0.000157232
8.62923e-05
0.000165266
8.91573e-05
0.000146029
0.000129571
9.56902e-05
0.000187966
3.95701e-05
0.000222343
2.66888e-05
0.000206806
8.0573e-05
0.000150677
0.000166605
8.98917e-05
0.000235181
6.15612e-05
0.00025879
8.948e-05
0.000228353
0.000177375
0.000162157
0.000288261
0.000107199
0.000355153
0.000114991
0.000344403
0.000202232
0.000284806
0.000319604
0.00022617
0.000405117
0.000218103
0.000423374
0.000272251
0.000381875
0.000366112
0.000340115
0.00042544
0.000346665
0.000423467
0.00038673
0.000399456
0.000416812
0.000385911
0.000423596
0.000389014
0.00040809
0.000406638
0.000391081
0.00040568
0.000402798
0.000386483
0.000411472
0.000388882
0.000400321
0.000400709
0.00038582
0.000415238
0.000379419
0.000407767
0.00039263
0.000402102
0.000400485
0.00015821
0.000154882
0.000152205
0.000149984
0.000148096
0.00014646
0.000145021
0.000143733
0.00014258
0.000141514
0.000140566
0.000139641
0.000138863
0.000138005
0.00013741
0.000136522
0.000136181
0.000135119
0.000135177
0.00013372
0.000134427
0.000132237
0.00013398
0.000130588
0.000133854
0.000128791
0.000133883
0.00012719
0.000133452
0.000126746
0.000131297
0.000128942
0.000125997
0.000134402
0.00011777
0.000140646
0.000111263
0.000141552
0.000115334
0.000130513
0.000133543
0.000105793
0.000155035
7.94487e-05
0.000164196
7.96625e-05
0.000153042
0.000114723
0.000119157
0.000157643
6.85096e-05
0.000187108
3.49256e-05
0.000190707
6.81899e-05
0.00015259
0.000153304
6.89779e-05
0.000215215
8.8679e-05
0.000241967
3.1616e-05
0.000196168
0.000143345
0.000132957
0.000221508
8.63726e-05
0.000246809
0.000106578
0.000229469
0.000187902
0.000202511
0.000245113
0.00021181
0.000252775
0.00025766
0.000245181
0.000286989
0.000253297
0.00028463
0.00026926
0.000274177
0.000285051
0.000254108
0.000298299
0.000251061
0.00027634
0.00027745
0.000250485
0.000286221
0.000246912
0.00028632
0.000249659
0.000270579
0.000268929
0.000258499
0.000268989
0.000253943
0.000282458
0.000246792
0.000158211
0.000154886
0.000152212
0.000149996
0.000148113
0.000146481
0.000145047
0.000143767
0.000142618
0.000141567
0.000140615
0.000139719
0.000138917
0.000138125
0.000137452
0.000136716
0.000136173
0.000135443
0.000135054
0.000134265
0.000134081
0.000133143
0.000133253
0.000132042
0.000132565
0.000130961
0.000131954
0.000129999
0.000131224
0.00012943
0.000130011
0.000129628
0.000127994
0.000130662
0.00012544
0.000131718
0.000123735
0.000131071
0.000124836
0.00012726
0.000129083
0.000121017
0.000133645
0.000116356
0.000134506
0.000117695
0.000130006
0.000124609
0.000121359
0.000132791
0.000112192
0.000137534
0.000109999
0.000134317
0.000121825
0.000119504
0.000140897
9.84117e-05
0.000147872
0.000101361
0.000133802
0.000139228
0.0001069
0.000165883
8.76598e-05
0.000161754
0.000104946
0.000138021
0.000151459
0.00011025
0.000179069
0.000104694
0.000170841
0.000141411
0.000146898
0.000180723
0.000134768
0.000195653
0.000139104
0.000197232
0.000146867
0.000188322
0.000165754
0.000160671
0.000189775
0.000141925
0.000191939
0.000147991
0.000179669
0.000162094
0.000156517
0.000187292
0.000134889
0.000194
0.000137123
0.000189728
0.000145271
0.000164888
0.000187199
0.000126137
0.000158211
0.000154886
0.000152212
0.000149996
0.000148113
0.000146482
0.000145047
0.000143768
0.000142618
0.000141568
0.000140613
0.000139723
0.000138911
0.000138135
0.000137435
0.000136741
0.000136135
0.000135498
0.000134975
0.000134373
0.000133932
0.000133341
0.000132991
0.000132378
0.000132142
0.000131471
0.000131363
0.00013064
0.00013059
0.000129954
0.000129722
0.000129504
0.000128685
0.000129286
0.000127571
0.000129073
0.000126733
0.000128426
0.000126616
0.000127026
0.000127276
0.000125158
0.000128032
0.000123819
0.000127773
0.000124046
0.000125887
0.000125979
0.000122822
0.000128474
0.000120407
0.000128749
0.000122443
0.000122972
0.000132108
0.000110981
0.000144206
0.000103044
0.000144034
0.000114853
0.000123307
0.00014534
9.61791e-05
0.000170612
8.69193e-05
0.000168843
0.000105888
0.000143358
0.000142827
0.000118144
0.000173072
0.000116109
0.000179249
0.00013608
0.000174294
0.000159023
0.000172252
0.000178942
0.000165161
0.000202013
0.00015011
0.000214797
0.000145282
0.000201869
0.000163342
0.000175082
0.0001936
0.000144794
0.000218303
0.000125277
0.000211337
0.000145635
0.000177225
0.0001892
0.000138485
0.000230099
0.000107298
0.000225819
0.000136805
0.000175124
0.00015821
0.000154882
0.000152205
0.000149984
0.000148097
0.000146461
0.000145021
0.000143735
0.000142577
0.000141521
0.000140556
0.000139658
0.000138834
0.000138051
0.000137335
0.000136637
0.000136004
0.000135374
0.000134807
0.00013423
0.000133719
0.000133184
0.000132721
0.000132214
0.000131808
0.0001313
0.000130969
0.000130444
0.000130178
0.000129669
0.000129394
0.000129023
0.000128563
0.000128547
0.000127666
0.000128252
0.000126743
0.000128076
0.00012593
0.000127827
0.000125509
0.000127207
0.000125901
0.000125969
0.000127232
0.000124441
0.000128769
0.000124067
0.000128851
0.000126482
0.000127163
0.000130774
0.00012715
0.000132522
0.000133877
0.000130014
0.000146078
0.000129365
0.000155061
0.000138462
0.000157305
0.000156911
0.000159749
0.000177398
0.000168452
0.000194132
0.000182844
0.000208238
0.000201336
0.000225236
0.000223269
0.000247943
0.000248521
0.000269022
0.000279582
0.000278428
0.000311776
0.000280759
0.000327673
0.000292199
0.000317685
0.000316238
0.000294687
0.000337676
0.000278069
0.000339913
0.000282225
0.000317764
0.000309352
0.000285981
0.000333452
0.000269366
0.000338551
0.000275188
0.000318948
0.000303596
0.000284731
0.000333894
0.000264563
0.00034148
0.000158208
0.000154873
0.000152189
0.000149958
0.000148061
0.00014641
0.000144957
0.000143653
0.000142477
0.0001414
0.000140411
0.000139489
0.000138636
0.000137823
0.000137075
0.000136343
0.000135673
0.000135008
0.000134396
0.000133785
0.000133223
0.000132659
0.000132133
0.000131613
0.00013113
0.000130619
0.000130222
0.000129682
0.000129416
0.000128819
0.000128693
0.000128069
0.000128015
0.000127581
0.000127331
0.00012765
0.000126564
0.000128602
0.000125644
0.000130411
0.000125312
0.000132875
0.000127229
0.000135228
0.000133089
0.000137417
0.000143212
0.000141482
0.000155538
0.000150619
0.000167706
0.000166537
0.000179841
0.000187207
0.000194772
0.000208828
0.000214485
0.000229947
0.000238173
0.000252553
0.00026458
0.000277347
0.000293559
0.000302221
0.000322484
0.00031888
0.000342945
0.000337356
0.000359795
0.000364099
0.000374887
0.000396067
0.000389606
0.000424317
0.000406673
0.000438733
0.000427664
0.000437543
0.000447806
0.00043076
0.000457893
0.000429127
0.000454106
0.000435997
0.000441547
0.000446233
0.000429534
0.000452365
0.000425236
0.000449944
0.000430845
0.000440057
0.000442012
0.000428521
0.00045162
0.000422637
0.00045109
0.000429672
0.000437428
0.00044392
0.000158201
0.000154852
0.000152148
0.000149893
0.000147965
0.000146279
0.000144784
0.000143432
0.0001422
0.000141063
0.000140002
0.000139011
0.000138072
0.000137182
0.000136336
0.000135523
0.000134746
0.000133997
0.000133264
0.000132563
0.000131875
0.000131222
0.000130569
0.000129943
0.000129304
0.000128723
0.000128229
0.00012774
0.000127588
0.000127221
0.000127405
0.000127373
0.000128406
0.000129268
0.000131455
0.000134003
0.000137302
0.000142552
0.000146647
0.000155521
0.000159923
0.000172419
0.000177154
0.000192168
0.000198778
0.000213811
0.000224865
0.000237064
0.000254044
0.000262614
0.000282667
0.000286245
0.000303485
0.000309402
0.000322963
0.000334095
0.000342379
0.000358543
0.000363389
0.000382181
0.000386861
0.000404243
0.000412238
0.000423725
0.000438537
0.000441305
0.000464756
0.000461428
0.000488931
0.000488009
0.000508813
0.00051913
0.000523729
0.00054824
0.000535802
0.00056627
0.000548592
0.000569378
0.000562898
0.000562948
0.000574175
0.000556522
0.000577524
0.000556158
0.000572661
0.00056139
0.000563984
0.000568546
0.000556342
0.000573282
0.000554111
0.000571664
0.000558297
0.000564765
0.000566571
0.000556337
0.000573277
0.000553022
0.000571055
0.00055775
0.00015818
0.000154796
0.000152026
0.000149706
0.00014768
0.000145883
0.000144252
0.00014274
0.000141337
0.000139995
0.000138742
0.000137533
0.000136379
0.00013525
0.00013416
0.000133109
0.000132013
0.000130915
0.000129761
0.000128731
0.000127695
0.000126981
0.000126191
0.000125627
0.000125474
0.00012606
0.000127488
0.000130011
0.000133779
0.000138868
0.000145493
0.000153308
0.000162541
0.000172687
0.000184222
0.000196456
0.000209816
0.000224044
0.000238632
0.000252487
0.000263145
0.000276409
0.000286535
0.000300996
0.000310806
0.000325557
0.000336019
0.0003493
0.000361985
0.000372377
0.000387908
0.000395878
0.000412929
0.000420479
0.000435728
0.000445576
0.000456389
0.00047015
0.000476729
0.000493527
0.000497628
0.00051449
0.000519064
0.000532068
0.000541093
0.000547093
0.000563912
0.000562811
0.00058604
0.000582266
0.000603845
0.000604903
0.000615425
0.000626753
0.000621932
0.000642256
0.000627112
0.000647846
0.000634504
0.00064394
0.000642754
0.000637389
0.000648204
0.000633394
0.00064889
0.000634039
0.000645173
0.000638378
0.000639231
0.000643909
0.000634075
0.000647411
0.000632631
0.000646313
0.000636031
0.000640846
0.000642471
0.00063395
0.000647084
0.000630767
0.000158114
0.000154621
0.000151613
0.000149102
0.000146669
0.000144524
0.000142365
0.000140371
0.000138359
0.000136484
0.000134756
0.000132829
0.00013101
0.000129041
0.00012741
0.000125787
0.000124099
0.000122532
0.000121924
0.000122152
0.00012395
0.000127095
0.000132224
0.000138951
0.000147616
0.000157911
0.000169834
0.000183111
0.000197724
0.000213306
0.000228947
0.000242172
0.000255585
0.000268937
0.000282413
0.000295671
0.000309041
0.000322246
0.000335278
0.00034852
0.000360925
0.00037425
0.000385558
0.000398768
0.000408792
0.000421569
0.000430776
0.000442432
0.000452013
0.00046133
0.000472426
0.00047918
0.00049132
0.000496653
0.000508218
0.00051413
0.000522997
0.000531501
0.000536866
0.000547869
0.000550449
0.000562525
0.000563977
0.00057451
0.000578253
0.000584116
0.000593522
0.000593298
0.000608525
0.000604048
0.000620531
0.000617025
0.000626972
0.000630224
0.00062945
0.000640697
0.000630575
0.000644916
0.000632988
0.000643196
0.000637829
0.000638729
0.000642626
0.000635098
0.000645334
0.000633346
0.00064399
0.000634977
0.00064043
0.000639031
0.000636249
0.000643478
0.000633279
0.000644963
0.00063306
0.000642236
0.000636948
0.000636784
0.000642684
0.000631737
0.000157849
0.000153942
0.0001501
0.00014671
0.00014257
0.000139329
0.000135253
0.000131831
0.000128202
0.000126014
0.000123571
0.000120696
0.00011865
0.000117785
0.000118586
0.000121029
0.000125567
0.00013189
0.000140408
0.000150791
0.000163415
0.000177687
0.000193334
0.000209791
0.000227088
0.000242477
0.000257118
0.000271492
0.000285535
0.000299171
0.000312292
0.000324991
0.000337206
0.000348882
0.00036012
0.00037083
0.000381177
0.000391019
0.0004004
0.000409385
0.00041771
0.000426262
0.000432714
0.00043961
0.000444529
0.000451029
0.000455315
0.000461073
0.000465465
0.000469948
0.000475093
0.000478074
0.000483952
0.000485915
0.000491676
0.000493831
0.000498277
0.000501814
0.000504308
0.000509474
0.000510157
0.000516254
0.000516109
0.00052173
0.000522593
0.000525957
0.000529904
0.000529677
0.000537264
0.000534087
0.000543081
0.000539763
0.000546212
0.000546118
0.00054685
0.000551653
0.000546548
0.000554737
0.000547121
0.000554518
0.000549308
0.00055196
0.000552159
0.00054908
0.000554236
0.000547454
0.000554666
0.000547724
0.00055325
0.000549836
0.000550428
0.000552827
0.000547623
0.000554944
0.000546532
0.000554648
0.000548241
0.000551486
0.000552226
0.000547001
0.000156641
0.000151208
0.000143351
0.000134628
0.000126079
0.00012099
0.000115008
0.000112504
0.000112458
0.000114189
0.00011796
0.000123464
0.000130604
0.000139124
0.000149054
0.000160159
0.000172603
0.000186206
0.000201284
0.000217285
0.000233493
0.000246946
0.000259668
0.000271868
0.00028309
0.000294117
0.000302628
0.000310054
0.000316739
0.000322879
0.000328614
0.00033395
0.000338917
0.0003435
0.000347792
0.000351744
0.000355488
0.000358961
0.000362249
0.000365399
0.000368258
0.000371232
0.000373664
0.000376547
0.000378511
0.000381282
0.000382899
0.000385411
0.000387026
0.000388993
0.000390982
0.000392214
0.000394673
0.000395279
0.000397923
0.000398437
0.000400633
0.000401772
0.000403002
0.000405073
0.000405214
0.000408032
0.000407471
0.000410407
0.000410083
0.000412174
0.000413275
0.00041355
0.000416721
0.000415043
0.000419573
0.000417077
0.000421074
0.000419637
0.000421108
0.000422201
0.000420398
0.000424008
0.000419946
0.000424384
0.000420486
0.000423354
0.000421825
0.000421716
0.000423263
0.000420361
0.000424117
0.000419883
0.000423973
0.000420555
0.000422722
0.000422186
0.000420905
0.000423903
0.000419546
0.000424628
0.000419578
0.000423629
0.000421295
0.000420936
0.000151621
0.000136817
0.000113477
9.95198e-05
9.76027e-05
9.81301e-05
0.000110572
0.000115046
0.000121819
0.000129686
0.000137976
0.000146236
0.000154211
0.000161681
0.000168583
0.000174824
0.000180491
0.000185568
0.000190197
0.000194424
0.000198337
0.000202068
0.000205555
0.00020885
0.00021187
0.00021468
0.000217311
0.000219724
0.000221894
0.000223822
0.000225517
0.000227018
0.000228358
0.00022955
0.000230635
0.000231598
0.000232494
0.000233292
0.000234047
0.000234742
0.00023538
0.00023603
0.000236552
0.00023724
0.000237648
0.000238364
0.000238658
0.000239352
0.000239618
0.000240189
0.000240574
0.00024089
0.000241497
0.000241529
0.000242325
0.000242231
0.000243017
0.000243079
0.000243571
0.000244012
0.000244029
0.00024487
0.000244499
0.00024559
0.000245133
0.000246142
0.000246067
0.000246471
0.00024722
0.000246719
0.00024824
0.000247043
0.000248793
0.000247588
0.00024873
0.000248338
0.00024825
0.00024906
0.000247714
0.000249436
0.000247554
0.000249288
0.000247888
0.000248705
0.000248515
0.000248017
0.000249114
0.00024753
0.000249404
0.000247479
0.000249188
0.000247965
0.000248489
0.000248783
0.000247662
0.000249488
0.000247165
0.00024961
0.000247394
0.000248785
2.45432e-05
3.47523e-05
4.04101e-05
4.23028e-05
4.20136e-05
4.05608e-05
3.87137e-05
3.70559e-05
3.56101e-05
3.4445e-05
3.35764e-05
3.29762e-05
3.25986e-05
3.2385e-05
3.22871e-05
3.22583e-05
3.22698e-05
3.2298e-05
3.23311e-05
3.23649e-05
3.23935e-05
3.24263e-05
3.24614e-05
3.24994e-05
3.2539e-05
3.25763e-05
3.26142e-05
3.26515e-05
3.26861e-05
3.27167e-05
3.27415e-05
3.27607e-05
3.2775e-05
3.2785e-05
3.27921e-05
3.27955e-05
3.27981e-05
3.27975e-05
3.27974e-05
3.27955e-05
3.27938e-05
3.27934e-05
3.27895e-05
3.27931e-05
3.27868e-05
3.27952e-05
3.27862e-05
3.27977e-05
3.27887e-05
3.2799e-05
3.27956e-05
3.27979e-05
3.2806e-05
3.27967e-05
3.2818e-05
3.28012e-05
3.28283e-05
3.28158e-05
3.28346e-05
3.28387e-05
3.28388e-05
3.2864e-05
3.28452e-05
3.28888e-05
3.28616e-05
3.291e-05
3.28931e-05
3.2922e-05
3.29352e-05
3.29225e-05
3.29744e-05
3.29194e-05
3.29937e-05
3.29233e-05
3.29848e-05
3.29399e-05
3.29564e-05
3.29654e-05
3.29222e-05
3.29858e-05
3.29024e-05
3.29875e-05
3.29067e-05
3.29678e-05
3.29313e-05
3.29369e-05
3.29626e-05
3.29084e-05
3.2986e-05
3.28955e-05
3.29883e-05
3.29077e-05
3.29647e-05
3.29421e-05
3.29259e-05
3.29824e-05
3.28927e-05
3.30064e-05
3.28887e-05
3.29945e-05
2.41677e-05
0.000603507
0.00111348
0.00150688
0.00190755
0.00221658
0.00245338
0.00246989
0.00237723
0.00226014
0.00213475
0.00207872
0.00209607
0.00210541
0.00206682
0.00199067
0.00188478
0.00162111
0.00105587
0.000609671
0.00034718
0.000327083
8.9432e-05
0.000398178
0.000142549
0.000129271
0.00060044
0.0010262
0.00131087
0.00146743
0.00154083
0.00156826
0.00153809
0.00140658
0.00120792
0.00100825
0.000820694
0.000679417
0.000592803
0.0004941
0.000417493
0.000357364
0.000309668
0.00027222
0.00024335
0.000221177
0.000203844
0.000189867
0.000178237
0.000168393
0.00016008
0.00015319
0.000147635
0.000143259
0.00013978
0.000136857
0.000134176
0.000131618
0.00012921
0.000127087
0.000125338
0.000124028
0.000123119
0.000122549
0.000122198
0.000122005
0.000121887
0.000121832
0.000121792
0.000121782
0.000121764
0.000121768
0.000121756
0.000121764
0.000121754
0.000121763
0.000121752
0.000121764
0.000121752
0.000121764
0.000121751
0.000121764
0.000121751
0.000121765
0.000121751
0.000121765
0.00012175
0.000121766
0.00012175
0.000121766
0.000121749
0.000121767
0.000121749
0.000121767
0.000121748
0.000121768
0.000121749
0.00012177
0.000121753
0.000121785
0.000225722
0.000377222
0.000791707
0.00118097
0.0015726
0.00188013
0.0021324
0.00220328
0.00215285
0.0020976
0.0019503
0.00191797
0.00197385
0.00195252
0.00192281
0.0018463
0.00164826
0.00122143
0.000676085
0.000339224
0.000221362
0.000277757
0.000115558
0.000317669
0.000327405
2.21531e-05
0.000410401
0.000859848
0.00118334
0.00136897
0.00145857
0.00149246
0.00146199
0.00134754
0.00116864
0.000974082
0.000783846
0.000645672
0.000525164
0.000432926
0.000364233
0.000312697
0.000273552
0.00024387
0.000221529
0.000204665
0.000191632
0.000181074
0.000172074
0.000164146
0.000157129
0.000151044
0.000145941
0.000141802
0.000138466
0.00013569
0.000133205
0.000130879
0.000128706
0.000126798
0.00012522
0.000124019
0.000123165
0.000122621
0.00012228
0.000122091
0.000121973
0.000121918
0.000121876
0.000121865
0.000121846
0.00012185
0.000121837
0.000121846
0.000121835
0.000121845
0.000121833
0.000121845
0.000121833
0.000121845
0.000121832
0.000121846
0.000121832
0.000121846
0.000121831
0.000121847
0.000121831
0.000121847
0.00012183
0.000121848
0.00012183
0.000121849
0.000121829
0.000121849
0.000121829
0.00012185
0.00012183
0.000121854
0.000121837
0.000121874
0.000450011
0.000371366
0.000503086
0.000783765
0.00114959
0.00144756
0.00171782
0.0018064
0.00175782
0.00172412
0.00156822
0.00152694
0.00159096
0.00155305
0.00155874
0.00149385
0.00120102
0.000746408
0.000343339
0.000130945
0.000234957
0.000268204
0.000204269
0.000323097
0.000367964
3.85078e-05
0.000225581
0.000674586
0.00102992
0.00124502
0.00135236
0.00139366
0.00136264
0.00124431
0.00106688
0.000876627
0.000704165
0.000562234
0.000452426
0.000371898
0.000314642
0.00027362
0.000243651
0.000221441
0.000204889
0.000192438
0.000182751
0.000174735
0.000167639
0.000161072
0.000154959
0.000149414
0.000144592
0.00014058
0.000137315
0.000134632
0.000132304
0.000130192
0.000128247
0.000126542
0.000125122
0.000124025
0.000123226
0.000122706
0.000122371
0.000122182
0.000122059
0.000122001
0.000121956
0.000121944
0.000121923
0.000121927
0.000121913
0.000121922
0.00012191
0.000121921
0.000121908
0.000121921
0.000121908
0.000121921
0.000121907
0.000121922
0.000121906
0.000121923
0.000121906
0.000121923
0.000121905
0.000121924
0.000121905
0.000121924
0.000121904
0.000121925
0.000121904
0.000121926
0.000121904
0.000121929
0.000121906
0.000121935
0.000121916
0.000121961
0.000539579
0.000528941
0.000511408
0.000528627
0.000735169
0.000947884
0.00121757
0.00132071
0.00127386
0.00126863
0.00110754
0.00105631
0.00111973
0.00107013
0.00110263
0.00101311
0.000657481
0.0002862
0.000148415
0.000112489
0.000288894
0.000291143
0.000283153
0.000416264
0.000458166
0.000233836
7.30253e-05
0.00047519
0.000849699
0.00109182
0.00121735
0.00126656
0.00123422
0.00111166
0.00093514
0.000753703
0.000595991
0.000471873
0.000380547
0.000316806
0.000273288
0.000243137
0.000221506
0.000205472
0.000193364
0.000184067
0.000176659
0.000170345
0.000164526
0.000158882
0.000153378
0.000148182
0.000143517
0.000139552
0.000136302
0.00013367
0.000131467
0.00012955
0.000127823
0.000126311
0.000125033
0.000124037
0.000123297
0.000122803
0.000122473
0.00012228
0.00012215
0.000122087
0.000122037
0.000122022
0.000121999
0.000122002
0.000121987
0.000121996
0.000121983
0.000121995
0.000121981
0.000121995
0.00012198
0.000121995
0.00012198
0.000121996
0.000121979
0.000121997
0.000121979
0.000121997
0.000121978
0.000121998
0.000121977
0.000121999
0.000121977
0.000122
0.000121976
0.000122002
0.000121977
0.000122005
0.00012198
0.000122014
0.000121995
0.000122049
0.00060858
0.000615218
0.000601198
0.000567102
0.000601941
0.000590026
0.000757569
0.000821553
0.000761483
0.000777939
0.000619942
0.000556173
0.000591752
0.000543638
0.000583817
0.000426698
0.000136433
0.000203559
0.000259909
0.000202985
0.00029693
0.000348735
0.000385624
0.000576344
0.000639335
0.000455172
9.41195e-05
0.000276828
0.000643984
0.000906073
0.00104919
0.001106
0.00107102
0.000945634
0.000776365
0.000613342
0.000481417
0.000384663
0.000317796
0.000272965
0.000242821
0.000221952
0.000206735
0.000195067
0.000185872
0.000178532
0.000172517
0.000167268
0.000162291
0.000157283
0.000152207
0.000147245
0.000142661
0.000138687
0.000135407
0.000132788
0.00013067
0.000128914
0.000127383