/*--------------------------------*- C++ -*----------------------------------*\
| =========                 |                                                 |
| \\      /  F ield         | OpenFOAM: The Open Source CFD Toolbox           |
|  \\    /   O peration     | Version:  v2012                                 |
|   \\  /    A nd           | Website:  www.openfoam.com                      |
|    \\/     M anipulation  |                                                 |
\*---------------------------------------------------------------------------*/
FoamFile
{
    version     2.0;
    format      ascii;
    class       scalarField;
    location    "0.036/lagrangian/kinematicCloud";
    object      age;
}
// * * * * * * * * * * * * * * * * * * * * * * * * * * * * * * * * * * * * * //


39
(
0.0352
0.0342
0.0331
0.032
0.031
0.03
0.029
0.028
0.0269
0.0258
0.025725
0.0247
0.0236
0.0225
0.0214
0.0203
0.0192
0.0181
0.017
0.016925
0.0159
0.0148
0.0137
0.0126
0.012525
0.0115
0.0104
0.010325
0.0093
0.009225
0.0082
0.0071
0.006
0.0049
0.004825
0.0039
0.0029
0.0019
0.0009
)


// ************************************************************************* //
