/*--------------------------------*- C++ -*----------------------------------*\
| =========                 |                                                 |
| \\      /  F ield         | OpenFOAM: The Open Source CFD Toolbox           |
|  \\    /   O peration     | Version:  v2012                                 |
|   \\  /    A nd           | Website:  www.openfoam.com                      |
|    \\/     M anipulation  |                                                 |
\*---------------------------------------------------------------------------*/
FoamFile
{
    version     2.0;
    format      ascii;
    class       volScalarField;
    location    "0.291";
    object      epsilon.air;
}
// * * * * * * * * * * * * * * * * * * * * * * * * * * * * * * * * * * * * * //

dimensions      [0 2 -3 0 0 0 0];


internalField   nonuniform List<scalar> 
1900
(
112.724
141.424
210.098
257.591
369.051
443.457
614.739
724.909
971.325
1128.62
15.4676
16.4471
18.6377
20.4498
23.7578
27.7267
32.004
39.2873
45.1206
56.7577
14.7926
14.6414
14.5755
14.5063
14.5148
14.5574
14.6409
14.8308
15.0774
15.4132
14.77
14.6304
14.4634
14.3354
14.1726
14.059
13.9039
13.808
13.6653
13.5938
14.7766
14.6215
14.4704
14.3204
14.1748
14.0289
13.8889
13.7472
13.6138
13.477
14.7778
14.6205
14.4714
14.3196
14.1754
14.0284
13.8891
13.7473
13.6132
13.4774
14.7777
14.6206
14.4731
14.3235
14.1841
14.045
13.9174
13.7915
13.6806
13.5716
14.7762
14.6499
14.5639
14.5034
14.5107
14.5519
14.636
14.8214
15.0439
15.3962
15.2138
16.5995
18.2788
20.6781
23.5935
27.5739
32.2626
38.411
45.5583
54.8242
105.936
146.549
198.41
265.719
350.101
456.019
585.755
743.666
931.867
1154.04
4101.36
15195.3
19574.3
22452
21119.9
18027.8
15087.6
12790.4
11288.2
10370.9
9867.77
9693.85
9523.95
9257.6
8852.08
8354.29
7799.99
7212.52
6645.16
6126.61
5649.6
5222.56
4838
4486.99
4167.77
3878.36
3615.9
3378.43
3162.8
2967.05
2788.76
2625.93
2476.93
2340.22
2214.63
2099
1992.44
1894.03
1802.99
1718.62
1640.29
1567.45
1499.57
1436.22
1376.98
1321.47
1269.39
1220.41
1174.3
1130.8
1089.71
1050.84
1014.03
979.11
945.96
914.432
884.425
855.81
828.511
802.405
777.446
753.513
730.595
708.565
687.448
667.102
647.595
628.753
610.696
593.204
576.457
560.176
544.614
529.419
514.937
500.725
487.242
473.93
461.388
448.909
437.266
425.56
414.785
403.79
393.852
383.494
374.361
364.555
356.199
346.847
339.249
330.246
323.404
314.642
308.574
299.934
294.678
286.036
281.627
271.229
113.114
337.553
517.91
923.164
1126.45
1151.02
1122.8
1057.83
1050.53
1089.45
1193.9
1406.02
1694.55
2027.09
2377.82
2690.79
2970.24
3203.43
3357.57
3434.38
3426.95
3388.68
3303.1
3185.03
3056.91
2925.55
2794.59
2667.61
2543.96
2426.5
2314.26
2207.16
2105.76
2009.82
1919.48
1834.36
1754.41
1679.13
1608.27
1541.59
1478.78
1419.58
1363.76
1311.07
1261.3
1214.22
1169.66
1127.4
1087.29
1049.14
1012.83
978.227
945.212
913.676
883.529
854.671
827.036
800.533
775.113
750.685
727.222
704.629
682.91
661.959
641.814
622.352
603.65
585.554
568.186
551.349
535.217
519.536
504.545
489.92
475.982
462.321
449.362
436.586
424.547
412.588
401.427
390.227
379.912
369.41
359.911
350.037
341.324
331.995
324.039
315.163
307.945
299.421
292.936
284.659
278.919
270.777
265.816
257.686
253.543
243.784
16.4269
19.8624
22.8806
29.0964
34.8043
38.7597
41.7186
43.7706
46.6686
50.6737
58.6561
70.8286
95.3755
130.137
189.385
267.037
373.146
508.694
665.712
836.064
1005.07
1163.78
1303.94
1420.77
1511.65
1574.86
1612.75
1629.18
1626.25
1615.1
1591.68
1561.17
1526.65
1489.44
1451.03
1411.39
1371.73
1331.52
1291.74
1252.65
1214.21
1176.63
1140.06
1104.58
1070.24
1036.98
1004.88
973.816
943.802
914.781
886.721
859.561
833.278
807.827
783.193
759.328
736.234
713.865
692.227
671.267
650.999
631.358
612.378
593.977
576.215
558.988
542.39
526.285
510.803
495.763
481.347
467.31
453.898
440.794
428.318
416.073
404.473
393.014
382.234
371.5
361.504
351.441
342.2
332.755
324.245
315.357
307.553
299.151
292.03
284.033
277.577
269.897
264.097
256.64
251.505
244.171
239.728
232.412
228.69
219.914
13.4531
13.4605
13.546
13.802
14.3335
15.0048
15.7179
16.3416
16.9291
17.3474
17.9001
18.3631
19.2952
20.4993
22.7236
26.2473
31.6831
40.7332
54.728
76.0088
106.337
147.023
199.046
261.033
330.974
406.248
482.053
555.837
622.987
684.349
736.969
780.332
814.43
839.718
857.859
868.958
874.852
874.421
871.914
866.246
857.608
846.974
834.87
821.487
807.189
792.097
776.512
760.339
743.923
727.332
710.587
693.755
676.915
660.122
643.449
626.897
610.571
594.465
578.665
563.142
547.981
533.133
518.67
504.538
490.822
477.437
464.49
451.859
439.681
427.787
416.369
405.187
394.503
383.994
374.003
364.12
354.778
345.461
336.728
327.938
319.795
311.497
303.932
296.088
289.087
281.655
275.209
268.138
262.24
255.476
250.11
243.581
238.741
232.376
228.069
221.793
218.039
211.774
208.593
201.067
13.3297
13.1591
13.0622
13.1162
13.3044
13.7147
14.2858
14.9114
15.4538
15.8852
16.2135
16.448
16.6143
16.767
16.8967
17.088
17.3242
17.7202
18.3259
19.2899
20.8417
23.2167
26.7924
32.1378
39.8222
50.6692
65.2183
83.9154
106.836
133.932
164.625
197.838
232.806
267.928
302.764
335.549
366.502
394.468
419.322
440.749
458.713
473.225
484.631
493.128
499.102
502.802
504.638
504.376
503.241
500.731
496.962
492.21
486.712
480.504
473.769
466.577
459.077
451.281
443.364
435.28
427.217
419.072
410.988
402.935
395.017
387.156
379.447
371.793
364.318
356.888
349.686
342.492
335.585
328.626
322.008
315.281
308.953
302.46
296.423
290.145
284.397
278.323
272.875
266.999
261.866
256.18
251.379
245.864
241.395
236.019
231.895
226.633
222.867
217.686
214.291
209.151
206.144
201.003
198.402
192.201
13.3249
13.1545
13.0314
13.086
13.2951
13.7731
14.4973
15.4877
16.506
17.6093
18.6029
19.5245
20.2603
20.8688
21.288
21.5902
21.7615
21.8465
21.8362
21.7955
21.7046
21.6073
21.5378
21.5632
21.67
21.9291
22.4781
23.3716
24.874
27.0595
30.3245
34.7676
40.7977
48.4026
57.7894
68.9768
81.9592
96.5232
112.437
129.346
146.849
164.515
181.925
198.723
214.656
229.426
243.037
255.214
266.151
275.752
284.176
291.387
297.567
302.76
307.065
310.58
313.399
315.537
317.149
318.144
318.808
318.794
318.574
318.046
317.036
315.698
314.068
312.166
310.05
307.7
305.199
302.462
299.674
296.576
293.575
290.193
287.019
283.395
280.089
276.279
272.892
268.94
265.53
261.476
258.099
253.983
250.692
246.541
243.382
239.22
236.225
232.06
229.257
225.092
222.504
218.337
215.982
211.811
209.713
204.674
13.4656
13.3601
13.4096
13.6559
14.3033
15.6875
18.0277
21.4343
25.4047
29.7341
33.6193
37.0628
39.6054
41.5413
42.5869
43.2804
43.3559
43.2378
42.9391
42.3957
41.7992
41.1608
40.5275
39.89
39.3267
38.851
38.4928
38.222
38.1209
38.1787
38.3588
38.764
39.3519
40.3219
41.5552
43.311
45.4944
48.4444
52.0691
56.7084
62.3157
69.1414
77.1916
86.5133
97.1319
108.889
121.758
135.429
149.784
164.499
179.373
194.166
208.613
222.605
235.897
248.481
260.21
271.116
281.115
290.24
298.459
305.817
312.293
318.012
322.924
327.147
330.625
333.491
335.663
337.377
338.433
339.163
339.203
338.992
338.48
337.378
336.264
334.4
332.799
330.371
328.36
325.471
323.155
319.903
317.391
313.871
311.264
307.559
304.939
301.116
298.551
294.666
292.208
288.303
285.989
282.096
279.962
276.108
274.203
269.649
15.9076
16.8596
18.5486
21.9452
28.3876
39.4817
55.4494
74.9965
95.4934
114.366
129.23
140.053
146.558
150.054
150.634
150.229
149.279
147.727
146.262
145.103
144.577
144.743
145.333
146.64
148.876
152.186
156.128
161.244
166.933
173.977
181.702
190.763
200.592
211.678
223.555
236.664
250.515
265.673
281.42
298.208
315.366
333.136
351.171
369.337
387.541
405.377
422.897
439.688
455.978
471.478
486.415
500.614
514.127
526.887
538.864
550.071
560.453
570.024
578.687
586.406
593.061
598.721
603.301
606.9
609.544
611.243
612.129
612.028
611.497
610.312
608.455
606.074
603.386
600.085
596.76
592.697
588.89
584.194
580.026
574.848
570.403
564.86
560.243
554.448
549.795
543.876
539.313
533.368
528.985
523.086
518.954
513.162
509.334
503.694
500.212
494.754
491.68
486.423
483.883
477.999
68.0053
90.4699
126.188
184.874
271.913
385.003
511.593
635.887
744.857
832.021
892.822
932.25
952.979
963.141
964.36
963.14
960.778
957.951
956.681
957.472
960.611
966.697
974.992
986.009
1000.02
1016.59
1034.91
1055.28
1077.31
1101.4
1126.53
1152.78
1179.39
1206.4
1233.34
1260.09
1286.22
1311.74
1335.95
1359
1380.59
1400.85
1419.72
1437.04
1453.02
1467.24
1480.21
1491.47
1501.68
1510.31
1517.97
1524.1
1529.14
1532.63
1535.03
1535.88
1535.54
1534.36
1531.91
1528.02
1523.1
1516.97
1509.92
1501.72
1492.91
1482.95
1472.47
1461.4
1449.83
1437.7
1425.56
1412.76
1400.35
1387.21
1374.72
1361.38
1348.96
1335.56
1323.3
1309.99
1298.07
1284.95
1273.46
1260.64
1249.73
1237.32
1227.11
1215.18
1205.73
1194.28
1185.62
1174.65
1166.84
1156.33
1149.42
1139.39
1133.46
1123.9
1119.23
1108.86
1464.6
1897.25
2398.82
2961.84
3563.07
4171.78
4746.26
5251.24
5654.88
5950.93
6132.01
6218.86
6206.39
6159.78
6061.34
5928.36
5778.29
5619.77
5459.54
5301.77
5149.31
5004.03
4867.36
4739.44
4620.63
4510.69
4409.54
4316.73
4231.77
4154.35
4083.9
4020.31
3962.91
3911.49
3865.52
3824.92
3789.22
3758.22
3731.18
3707.91
3687.82
3670.85
3656.46
3644.31
3634.14
3625.51
3618.55
3612.64
3608.19
3604.51
3602.12
3600.3
3599.42
3598.88
3598.97
3599.24
3599.9
3600.65
3601.79
3602.78
3603.92
3604.94
3606.15
3607.08
3608.3
3609
3609.68
3609.72
3609.47
3608.68
3607.46
3604.99
3602.58
3598.6
3594.87
3589.37
3584.41
3577.54
3571.48
3563.32
3556.19
3546.73
3538.55
3527.8
3518.65
3506.68
3496.73
3483.65
3473.14
3459.13
3448.42
3433.68
3423.17
3407.78
3397.84
3381.71
3372.55
3355.6
3346.97
3325.28
1109.62
1064.84
1122.19
1209.95
1238.6
1120.92
818.277
1979.43
54705
16175.9
7364.59
6107.44
6232.22
6482.51
6552.8
8024.38
74290
43649.8
24836.8
18459.9
16095.1
14995.8
14623
19659.6
76434.3
71026.3
54240.7
41185.3
32678.3
27151.6
24540
34050.4
69749.3
75707.8
67741.6
55641.7
44560.1
35838.5
30861.3
42697.3
57768.6
71180.5
67949.9
59045.4
48379.9
38735.7
32785
45226.4
47490.6
61841.8
62500.3
56621.9
47173.7
38183.5
32458.1
44253.2
39082.7
51822.9
53592.8
49845.6
42401.1
34680.5
29596.5
39775.9
32613.8
42985.4
44920.5
42133.1
36301.8
30042
25821.6
34048.6
27593.1
35617.2
37254.1
35111.9
30539.8
25554.1
22222
29379.1
23478.7
29579.4
30819.3
29117.7
25527.2
21629.2
19154.8
26014.8
20101.5
24691.1
25569.9
24179.6
21335.9
18293.9
16490.2
22971.9
17367.5
20779.6
21365.8
20206.3
17935.1
15551.4
14259.5
20347.7
15137.5
17656.9
18021.2
17040
15210.8
13329.5
12423.6
18141.3
13289.8
15149.3
15354.6
14517.8
13031.1
11536.1
10923.5
16314.5
11730.8
13110.3
13207.4
12490.8
11273.3
10078.9
9691.53
14797.1
10408.3
11440
11464.7
10848.5
9843.93
8885.57
8672.69
13529.8
9269.69
10053.2
10034.3
9501.94
8668.75
7898.27
7822.56
12463.1
8287.1
8891.08
8847.72
8386.24
7692.18
7073.04
7105.18
11556.3
7443.6
7912.68
7854.86
7454.04
6873.24
6376.67
6492.69
10777.5
6716.5
7083.87
7017.95
6668.86
6180.63
5783.63
5966.54
10101.2
6089.72
6378.36
6308.17
6003
5590.77
5275.04
5511.52
9509.19
5547.19
5774.52
5702.69
5435
5085.6
4836.62
5116.21
8989.24
5073.4
5253.62
5182.38
4947.07
4650.23
4456.64
4771.24
8531.16
4657.45
4801.34
4732.19
4525.02
4272.56
4125.35
4468.66
8125.7
4290.54
4406.27
4340.22
4157.65
3942.96
3834.96
4202.02
7765.45
3965.4
4059.19
3996.89
3835.98
3653.69
3579.09
3966.02
7444.49
3676.44
3752.85
3694.61
3552.81
3398.49
3352.53
3756.2
7157.61
3418.49
3481.12
3427.09
3302.22
3172.17
3150.93
3568.81
6900.28
3187.48
3239.07
3189.24
3079.38
2970.53
2970.78
3400.7
6668.48
2979.74
3022.51
2976.82
2880.38
2790.15
2808.77
3249.49
6458.92
2792.29
2827.98
2786.33
2701.89
2628.06
2662.71
3112.83
6268.83
2622.6
2652.63
2614.87
2541.21
2481.88
2530.63
2988.9
6095.83
2468.44
2493.98
2459.96
2396.05
2349.58
2410.81
2876.14
5937.83
2328.06
2350.02
2319.59
2264.48
2229.5
2301.81
2773.28
5793.11
2199.87
2219.02
2192.02
2144.89
2120.18
2202.39
2679.23
5660.25
2082.57
2099.53
2075.78
2035.88
2020.42
2111.48
2593.05
5538.05
1974.99
1990.24
1969.58
1936.27
1929.14
2028.18
2513.95
5425.52
1876.1
1890.05
1872.31
1845.01
1845.43
1951.66
2441.22
5321.81
1784.99
1797.97
1783.02
1761.22
1768.38
1881.29
2374.25
5226.2
1700.87
1713.16
1700.82
1684.06
1697.36
1816.38
2312.48
5138
1623.02
1634.83
1624.97
1612.85
1631.75
1756.38
2255.4
5056.61
1550.82
1562.33
1554.81
1546.96
1570.99
1700.77
2202.57
4981.45
1483.72
1495.06
1489.75
1485.84
1514.61
1649.14
2153.56
4911.94
1421.22
1432.52
1429.3
1429.04
1462.16
1601.08
2108.01
4847.53
1362.88
1374.23
1372.99
1376.08
1413.3
1556.26
2065.58
4787.67
1308.33
1319.81
1320.45
1326.64
1367.66
1514.37
2025.96
4731.87
1257.22
1268.9
1271.32
1280.42
1324.96
1475.16
1988.91
4679.69
1209.25
1221.18
1225.31
1237.13
1284.95
1438.38
1954.19
4630.74
1164.16
1176.4
1182.16
1196.53
1247.39
1403.85
1921.61
4584.7
1121.71
1134.32
1141.62
1158.39
1212.1
1371.37
1890.99
4541.31
1081.7
1094.7
1103.5
1122.52
1178.89
1340.8
1862.2
4500.38
1043.92
1057.37
1067.6
1088.74
1147.6
1311.99
1835.11
4461.76
1008.22
1022.13
1033.73
1056.89
1118.1
1284.84
1809.63
4425.36
974.419
988.836
1001.76
1026.82
1090.24
1259.19
1785.62
4391.08
942.379
957.321
971.531
998.392
1063.9
1234.98
1763.04
4358.88
911.974
927.461
942.907
971.484
1038.98
1212.09
1741.77
4328.66
883.065
899.114
915.761
945.979
1015.38
1190.44
1721.77
4300.38
855.56
872.186
889.994
921.782
992.992
1169.93
1702.92
4273.94
829.329
846.544
865.485
898.784
971.735
1150.5
1685.19
4249.25
804.314
822.128
842.169
876.917
951.536
1132.07
1668.47
4226.21
780.386
798.808
819.925
856.075
932.306
1114.57
1652.73
4204.64
757.526
776.561
798.724
836.223
914.003
1097.95
1637.87
4184.53
735.598
755.25
778.434
817.239
896.52
1082.12
1623.83
4165.55
714.622
734.889
759.067
799.131
879.857
1067.06
1610.57
4147.86
694.443
715.321
740.464
781.745
863.869
1052.64
1597.96
4130.95
675.127
696.61
722.691
765.147
848.614
1038.91
1586.04
4115.18
656.487
678.56
705.546
749.131
833.893
1025.68
1574.6
4099.85
638.642
661.294
689.158
733.833
819.843
1013.08
1563.79
4085.64
621.357
644.563
673.264
718.979
806.186
1000.83
1553.3
4071.5
604.819
628.566
658.079
704.8
793.164
989.18
1543.4
4058.53
588.727
612.982
643.258
690.929
780.393
977.729
1533.65
4045.25
573.354
598.104
629.126
677.721
768.256
966.877
1524.49
4033.27
558.319
583.523
615.234
664.69
756.23
956.078
1515.33
4020.61
543.998
569.65
602.041
652.346
744.875
945.931
1506.81
4009.43
529.91
555.961
588.969
640.049
733.489
935.677
1498.1
3997.21
516.558
543.012
576.64
628.499
722.856
926.18
1490.18
3986.73
503.334
530.135
564.311
616.863
712.041
916.401
1481.84
3974.8
490.896
518.057
552.798
606.069
702.103
907.543
1474.51
3965.03
478.472
505.93
541.154
595.041
691.81
898.192
1466.48
3953.29
466.91
494.69
530.432
584.987
682.564
889.989
1459.79
3944.34
455.228
483.26
519.423
574.523
672.756
881.035
1452.05
3932.78
444.512
472.832
509.47
565.196
664.206
873.515
1446.07
3924.79
433.511
462.038
499.041
555.247
654.84
864.922
1438.58
3913.46
423.611
452.395
489.837
546.637
646.991
858.119
1433.38
3906.55
413.219
442.168
479.922
537.141
638.012
849.84
1426.12
3895.51
404.106
433.283
471.443
529.231
630.86
843.77
1421.76
3889.7
394.236
423.539
461.963
520.114
622.202
835.751
1414.69
3879.06
385.882
415.384
454.181
512.877
615.72
830.391
1411.12
3874.08
376.438
406.031
445.05
504.065
607.324
822.601
1404.3
3863.99
368.825
398.588
437.943
497.467
601.46
817.851
1401.21
3859.44
359.704
389.527
429.069
488.882
593.27
810.282
1394.86
3849.97
352.831
382.791
422.626
482.895
587.963
806.033
1392.06
3845.63
343.926
373.92
413.915
474.454
579.921
798.656
1386.11
3836.52
337.81
367.906
408.138
469.063
575.122
794.804
1383.49
3832.19
329.008
359.117
399.495
460.686
567.164
787.57
1377.79
3823.18
323.685
353.852
394.397
455.875
562.814
783.993
1375.25
3818.77
314.866
345.038
385.729
447.494
554.908
776.917
1369.75
3809.92
310.364
340.539
381.311
443.237
550.93
773.447
1367.15
3805.38
299.711
329.845
370.735
432.94
541.133
764.582
1359.8
3794.78
)
;

boundaryField
{
    frontAndBack
    {
        type            empty;
    }
    inlet
    {
        type            fixedValue;
        value           uniform 14.855;
    }
    outlet
    {
        type            zeroGradient;
    }
    walls
    {
        lowReCorrection 0;
        blending        stepwise;
        n               2;
        type            epsilonWallFunction;
        value           nonuniform List<scalar> 
228
(
112.724
141.424
210.098
257.591
369.051
443.457
614.739
724.909
971.325
1128.62
1109.62
1064.84
1122.19
1209.95
1238.6
1120.92
818.277
1979.43
1979.43
8024.38
19659.6
34050.4
42697.3
45226.4
44253.2
39775.9
34048.6
29379.1
26014.8
22971.9
20347.7
18141.3
16314.5
14797.1
13529.8
12463.1
11556.3
10777.5
10101.2
9509.19
8989.24
8531.16
8125.7
7765.45
7444.49
7157.61
6900.28
6668.48
6458.92
6268.83
6095.83
5937.83
5793.11
5660.25
5538.05
5425.52
5321.81
5226.2
5138
5056.61
4981.45
4911.94
4847.53
4787.67
4731.87
4679.69
4630.74
4584.7
4541.31
4500.38
4461.76
4425.36
4391.08
4358.88
4328.66
4300.38
4273.94
4249.25
4226.21
4204.64
4184.53
4165.55
4147.86
4130.95
4115.18
4099.85
4085.64
4071.5
4058.53
4045.25
4033.27
4020.61
4009.43
3997.21
3986.73
3974.8
3965.03
3953.29
3944.34
3932.78
3924.79
3913.46
3906.55
3895.51
3889.7
3879.06
3874.08
3863.99
3859.44
3849.97
3845.63
3836.52
3832.19
3823.18
3818.77
3809.92
3805.38
3794.78
105.936
146.549
198.41
265.719
350.101
456.019
585.755
743.666
931.867
1154.04
1464.6
1897.25
2398.82
2961.84
3563.07
4171.78
4746.26
5251.24
5654.88
5950.93
6132.01
6218.86
6206.39
6159.78
6061.34
5928.36
5778.29
5619.77
5459.54
5301.77
5149.31
5004.03
4867.36
4739.44
4620.63
4510.69
4409.54
4316.73
4231.77
4154.35
4083.9
4020.31
3962.91
3911.49
3865.52
3824.92
3789.22
3758.22
3731.18
3707.91
3687.82
3670.85
3656.46
3644.31
3634.14
3625.51
3618.55
3612.64
3608.19
3604.51
3602.12
3600.3
3599.42
3598.88
3598.97
3599.24
3599.9
3600.65
3601.79
3602.78
3603.92
3604.94
3606.15
3607.08
3608.3
3609
3609.68
3609.72
3609.47
3608.68
3607.46
3604.99
3602.58
3598.6
3594.87
3589.37
3584.41
3577.54
3571.48
3563.32
3556.19
3546.73
3538.55
3527.8
3518.65
3506.68
3496.73
3483.65
3473.14
3459.13
3448.42
3433.68
3423.17
3407.78
3397.84
3381.71
3372.55
3355.6
3346.97
3325.28
)
;
    }
}


// ************************************************************************* //
