/*--------------------------------*- C++ -*----------------------------------*\
| =========                 |                                                 |
| \\      /  F ield         | OpenFOAM: The Open Source CFD Toolbox           |
|  \\    /   O peration     | Version:  v2012                                 |
|   \\  /    A nd           | Website:  www.openfoam.com                      |
|    \\/     M anipulation  |                                                 |
\*---------------------------------------------------------------------------*/
FoamFile
{
    version     2.0;
    format      ascii;
    class       volScalarField;
    location    "0.291";
    object      p;
}
// * * * * * * * * * * * * * * * * * * * * * * * * * * * * * * * * * * * * * //

dimensions      [0 2 -2 0 0 0 0];


internalField   nonuniform List<scalar> 
1900
(
-299.623
-300.722
-301.622
-302.283
-302.96
-303.727
-304.533
-305.361
-305.974
-306.578
-300.077
-300.876
-301.704
-302.38
-303.061
-303.821
-304.632
-305.47
-306.23
-307.05
-300.363
-300.928
-301.696
-302.409
-303.106
-303.867
-304.693
-305.577
-306.47
-307.715
-300.547
-300.991
-301.726
-302.468
-303.178
-303.94
-304.784
-305.709
-306.722
-308.095
-300.645
-301.039
-301.754
-302.506
-303.221
-303.986
-304.848
-305.807
-306.888
-308.277
-300.662
-301.061
-301.781
-302.535
-303.254
-304.027
-304.904
-305.889
-307.004
-308.371
-300.597
-301.056
-301.807
-302.557
-303.277
-304.061
-304.951
-305.952
-307.079
-308.402
-300.445
-301.036
-301.83
-302.557
-303.27
-304.065
-304.969
-305.979
-307.11
-308.391
-300.189
-301.03
-301.891
-302.579
-303.277
-304.077
-304.985
-305.995
-307.118
-308.36
-299.754
-300.929
-301.881
-302.562
-303.26
-304.073
-304.992
-306.009
-307.135
-308.357
-305.92
-318.28
-337.562
-339.208
-320.079
-286.052
-243.019
-198.246
-157.318
-122.526
-94.1853
-71.7634
-54.2917
-40.7475
-30.1915
-21.8497
-15.202
-9.86757
-5.51954
-1.90288
1.12624
3.65585
5.78906
7.62332
9.21679
10.5888
11.7586
12.7757
13.6663
14.4455
15.1228
15.7057
16.2056
16.6319
16.9922
17.298
17.5543
17.7623
17.9263
18.052
18.1449
18.2082
18.2425
18.2485
18.2271
18.1815
18.1159
18.0322
17.9309
17.8119
17.6752
17.5221
17.3549
17.1752
16.9836
16.7804
16.5655
16.3388
16.1014
15.8546
15.5991
15.3349
15.0621
14.7803
14.4899
14.1911
13.8848
13.5713
13.2504
12.9222
12.5867
12.2442
11.8948
11.5389
11.1763
10.8073
10.4318
10.05
9.662
9.26802
8.86796
8.46221
8.0505
7.63321
7.21016
6.78162
6.34751
5.90806
5.46332
5.01344
4.55856
4.09883
3.63414
3.16499
2.69016
2.21245
1.72484
1.24263
0.733534
0.279208
-309.337
-321.606
-333.412
-332.126
-313.079
-280.334
-239.752
-197.439
-158.318
-124.591
-96.6753
-74.2446
-56.5582
-42.6939
-31.7917
-23.1322
-16.2161
-10.6565
-6.12133
-2.36299
0.757425
3.35362
5.54974
7.4381
9.06645
10.4636
11.6553
12.6889
13.59
14.3753
15.0559
15.6404
16.1375
16.5606
16.9242
17.2346
17.4947
17.7062
17.8735
18.0026
18.0992
18.1659
18.2017
18.2084
18.1876
18.1427
18.0776
17.9949
17.8946
17.7764
17.6403
17.4877
17.321
17.1418
16.9506
16.7478
16.5333
16.3071
16.0701
15.8237
15.5684
15.3045
15.032
14.7504
14.46
14.1614
13.8554
13.5421
13.2214
12.8932
12.5579
12.2155
11.8662
11.5103
11.1479
10.7789
10.4034
10.0216
9.63357
9.23953
8.83944
8.43362
8.02188
7.60452
7.18144
6.75285
6.31874
5.8793
5.43461
4.98483
4.5301
4.07059
3.60638
3.13769
2.66451
2.18742
1.70545
1.22185
0.729549
0.25189
-310.271
-317.92
-326.263
-324.072
-306.103
-275.371
-237.271
-197.129
-159.466
-126.592
-99.0093
-76.563
-58.6796
-44.535
-33.3327
-24.4099
-17.2767
-11.5311
-6.83703
-2.95463
0.262116
2.94225
5.21929
7.17776
8.85528
10.2864
11.5125
12.5783
13.5037
14.3034
14.9921
15.5835
16.0847
16.5093
16.8764
17.1901
17.4518
17.6642
17.832
17.9618
18.0579
18.1225
18.1574
18.164
18.1439
18.1003
18.0371
17.9561
17.8572
17.7405
17.606
17.4548
17.2896
17.1112
16.9206
16.7177
16.5027
16.2761
16.0394
15.7932
15.538
15.2742
15.0021
14.7208
14.4306
14.1325
13.8269
13.5137
13.1932
12.8651
12.5299
12.1876
11.8384
11.4826
11.1201
10.7511
10.3756
9.99375
9.60572
9.21162
8.81148
8.40555
7.99374
7.57629
7.15316
6.72451
6.29039
5.85094
5.40629
4.95658
4.50201
4.04271
3.57899
3.11077
2.63927
2.1629
1.68653
1.20185
0.727116
0.223765
-310.492
-316.294
-321.939
-318.557
-301.089
-271.666
-235.203
-196.609
-160.104
-127.985
-100.755
-78.3666
-60.3651
-46.0142
-34.5785
-25.445
-18.1309
-12.2256
-7.39737
-3.41511
-0.122115
2.62084
4.94628
6.93897
8.64019
10.0874
11.3274
12.4082
13.3501
14.1619
14.8606
15.4644
15.9835
16.4271
16.8082
17.1322
17.4024
17.6222
17.7962
17.9309
18.0288
18.0924
18.1272
18.1342
18.1142
18.0711
18.0084
17.9273
17.8274
17.7088
17.573
17.422
17.2575
17.0798
16.8899
16.6872
16.4716
16.2451
16.009
15.7636
15.5091
15.2454
14.9725
14.6909
14.401
14.1032
13.7979
13.4849
13.1646
12.8366
12.5015
12.1593
11.8102
11.4544
11.0919
10.7229
10.3473
9.96539
9.57726
9.18309
8.78284
8.37677
7.96485
7.54728
7.1241
6.69538
6.26127
5.82179
5.37722
4.92758
4.47321
4.01412
3.55091
3.08316
2.61337
2.13775
1.66708
1.18109
0.723994
0.196
-310.518
-314.805
-318.112
-313.455
-296.276
-267.995
-233.033
-195.921
-160.558
-129.165
-102.285
-79.97
-61.8725
-47.3428
-35.7072
-26.3898
-18.9151
-12.8676
-7.91664
-3.84188
-0.480891
2.32185
4.69857
6.7297
8.45734
9.92587
11.1862
12.2842
13.2412
14.064
14.7696
15.3748
15.8965
16.3452
16.7289
17.0523
17.3228
17.5443
17.7209
17.8592
17.9619
18.031
18.0717
18.0848
18.0709
18.0335
17.9753
17.8974
17.7992
17.6816
17.547
17.3973
17.2336
17.0561
16.8665
16.6639
16.4481
16.2216
15.9855
15.74
15.4852
15.2207
14.9463
14.6636
14.3732
14.0752
13.7696
13.4561
13.1353
12.8067
12.4714
12.1288
11.7796
11.4235
11.0608
10.6916
10.316
9.93401
9.54583
9.15164
8.75152
8.34555
7.93369
7.51613
7.09302
6.66433
6.23031
5.7909
5.34649
4.89698
4.44288
3.98406
3.52138
3.0542
2.58603
2.11132
1.6459
1.15932
0.718407
0.171099
-310.4
-313.509
-315.041
-309.398
-292.508
-265.228
-231.494
-195.545
-161.049
-130.183
-103.556
-81.2915
-63.1093
-48.4257
-36.628
-27.1661
-19.557
-13.3878
-8.34001
-4.19518
-0.779808
2.07409
4.49528
6.55487
8.30055
9.78532
11.064
12.1758
13.1408
13.9698
14.68
15.2911
15.8196
16.275
16.6643
16.9912
17.2622
17.4861
17.667
17.8092
17.9147
17.9841
18.0222
18.034
18.0202
17.983
17.9246
17.8458
17.7471
17.6299
17.4967
17.349
17.1873
17.0119
16.8239
16.6229
16.4092
16.1845
15.9499
15.7055
15.4516
15.1877
14.9141
14.632
14.3419
14.0439
13.738
13.4241
13.1029
12.7738
12.4381
12.0952
11.7457
11.3895
11.0266
10.6572
10.2815
9.89956
9.51151
9.11739
8.71739
8.31143
7.89969
7.48223
7.05926
6.6307
6.19686
5.7576
5.31341
4.86412
4.41032
3.95186
3.48972
3.02319
2.55648
2.0829
1.62173
1.13606
0.707817
0.152309
-310.21
-312.446
-312.668
-306.232
-289.501
-262.955
-230.135
-195.076
-161.266
-130.842
-104.467
-82.2789
-64.0533
-49.2727
-37.3648
-27.7985
-20.0854
-13.8148
-8.6935
-4.50142
-1.03945
1.86519
4.32249
6.3963
8.15443
9.65998
10.9582
12.0804
13.0481
13.8814
14.601
15.2204
15.7538
16.2128
16.6031
16.9332
17.2087
17.4345
17.6168
17.761
17.8675
17.9385
17.9781
17.9912
17.9796
17.9447
17.8875
17.8091
17.7107
17.5943
17.4617
17.314
17.1516
16.9751
16.7855
16.5833
16.369
16.1435
15.9077
15.6624
15.4077
15.1433
14.8695
14.5872
14.297
13.9991
13.6934
13.38
13.0591
12.7307
12.3956
12.0534
11.7045
11.3488
10.9866
10.6176
10.2426
9.86095
9.47347
9.07973
8.68006
8.27436
7.86298
7.44591
7.02329
6.59511
6.1616
5.72271
5.27883
4.8299
4.37647
3.91843
3.45684
2.991
2.52544
2.05316
1.59469
1.11178
0.690373
0.143277
-310.014
-311.622
-310.914
-303.872
-287.218
-261.199
-229.052
-194.666
-161.386
-131.313
-105.162
-83.0543
-64.799
-49.9553
-37.9796
-28.3266
-20.517
-14.1747
-9.00764
-4.76684
-1.24849
1.69433
4.16585
6.25288
8.03425
9.56241
10.8706
11.9929
12.9649
13.8092
14.5388
15.1621
15.6943
16.1536
16.5485
16.8837
17.1615
17.3871
17.5687
17.7137
17.8231
17.8965
17.9365
17.9491
17.9376
17.9031
17.846
17.7675
17.669
17.5528
17.42
17.272
17.1093
16.9326
16.7429
16.541
16.327
16.1015
15.8654
15.6196
15.3646
15.1001
14.8261
14.5433
14.2526
13.9541
13.6479
13.3341
13.0127
12.684
12.3487
12.0061
11.6569
11.3011
10.9388
10.5699
10.1948
9.8134
9.42612
9.03271
8.63338
8.2282
7.81738
7.40096
6.97896
6.55147
6.11861
5.68039
5.23714
4.78884
4.33597
3.8785
3.41755
2.95243
2.48775
2.01696
1.55963
1.08118
0.660176
0.138641
-309.857
-311.036
-309.718
-302.257
-285.629
-259.948
-228.241
-194.297
-161.363
-131.532
-105.535
-83.4769
-65.219
-50.3517
-38.3285
-28.6178
-20.7631
-14.3906
-9.19322
-4.92088
-1.37607
1.58335
4.0649
6.16321
7.95461
9.48827
10.7992
11.9248
12.9012
13.7497
14.4817
15.1061
15.6398
16.1016
16.4994
16.8363
17.1148
17.341
17.5239
17.6706
17.7815
17.8558
17.8963
17.9093
17.8988
17.8655
17.8093
17.7313
17.6334
17.5178
17.3859
17.2385
17.0764
16.9002
16.7109
16.5093
16.2956
16.0703
15.8344
15.5888
15.3341
15.0699
14.7964
14.514
14.2237
13.9258
13.6204
13.3072
12.9866
12.6586
12.3243
11.9824
11.6337
11.2783
10.9166
10.5482
10.1736
9.79261
9.40561
9.01244
8.61324
8.20799
7.79712
7.38062
6.9586
6.53103
6.09816
5.6599
5.21663
4.7683
4.31545
3.85808
3.39727
2.93227
2.46759
1.99757
1.53981
1.06573
0.639704
0.148964
-309.799
-310.776
-309.167
-301.515
-284.923
-259.448
-228.001
-194.311
-161.572
-131.866
-105.94
-83.9019
-65.6283
-50.7239
-38.6585
-28.9111
-21.0236
-14.6193
-9.39429
-5.10208
-1.53965
1.44354
3.94245
6.05025
7.84657
9.38587
10.7036
11.8339
12.8121
13.6622
14.397
15.0244
15.5603
16.0233
16.4225
16.7609
17.0412
17.2688
17.4527
17.6002
17.712
17.7875
17.829
17.8429
17.8331
17.8005
17.7449
17.6676
17.5703
17.4553
17.3239
17.177
17.0153
16.8395
16.6507
16.4496
16.2365
16.0117
15.7762
15.531
15.2767
15.0129
14.7398
14.4577
14.1677
13.8699
13.5646
13.2514
12.9309
12.6029
12.2684
11.9273
11.579
11.2238
10.8622
10.494
10.1195
9.73881
9.352
8.9591
8.56025
8.1556
7.745
7.32871
6.90687
6.47945
6.04666
5.60845
5.16524
4.7169
4.26414
3.80678
3.34619
2.88158
2.41694
1.94792
1.48893
1.0201
0.591364
0.112924
-314.073
-315.342
-316.519
-316.764
-316.246
-314.976
-313.67
-313.762
-333.208
-334.725
-335.67
-336.006
-335.684
-334.97
-334.106
-333.757
-348.321
-351.157
-352.673
-353.239
-353.129
-352.819
-352.512
-352.172
-346.898
-350.263
-352.116
-352.862
-352.69
-352.174
-351.696
-351.058
-325.752
-328.652
-330.387
-330.946
-330.606
-329.869
-329.084
-328.157
-289.994
-292.05
-293.341
-293.795
-293.469
-292.521
-291.108
-289.508
-244.964
-246.037
-246.888
-247.289
-247.031
-246.003
-244.218
-242.159
-198.428
-198.459
-198.713
-198.927
-198.649
-197.568
-195.617
-193.373
-156.289
-155.594
-155.332
-155.236
-154.834
-153.718
-151.763
-149.557
-120.784
-119.662
-119.116
-118.844
-118.355
-117.252
-115.404
-113.361
-92.2249
-90.9986
-90.3511
-89.9566
-89.395
-88.3506
-86.6764
-84.8503
-69.8859
-68.7328
-68.0958
-67.6314
-67.0305
-66.0707
-64.5964
-63.0123
-52.6341
-51.6243
-51.0363
-50.571
-49.9909
-49.1272
-47.8493
-46.4879
-39.3708
-38.5339
-38.0294
-37.5985
-37.0634
-36.3031
-35.2142
-34.0603
-29.0926
-28.4115
-27.9673
-27.5689
-27.0935
-26.4377
-25.5162
-24.5394
-21.0065
-20.4676
-20.0655
-19.6868
-19.2706
-18.7116
-17.9329
-17.0906
-14.5668
-14.1432
-13.7928
-13.4504
-13.0864
-12.6076
-11.9471
-11.1904
-9.39102
-9.05602
-8.75967
-8.46258
-8.14412
-7.73113
-7.1689
-6.49081
-5.16194
-4.89585
-4.64811
-4.39373
-4.11587
-3.75678
-3.27362
-2.68486
-1.63128
-1.42114
-1.21592
-1.0005
-0.759602
-0.446386
-0.0266739
0.484322
1.3461
1.51726
1.69232
1.87345
2.08075
2.35399
2.72066
3.16689
3.84481
3.99091
4.14591
4.30239
4.48383
4.72491
5.04825
5.44144
5.95025
6.07483
6.21041
6.34933
6.51297
6.73008
7.01924
7.36979
7.75975
7.86594
7.9829
8.1062
8.25424
8.45076
8.71117
9.02638
9.33435
9.42603
9.52892
9.6394
9.77362
9.95186
10.1872
10.4721
10.699
10.7854
10.8759
10.9753
11.0979
11.2608
11.4746
11.7336
11.8672
11.9544
12.0379
12.1287
12.2415
12.391
12.5865
12.8231
12.874
12.9545
13.0315
13.1165
13.2223
13.3614
13.5416
13.7595
13.7537
13.8265
13.8969
13.976
14.0749
14.2045
14.3712
14.5727
14.5233
14.5895
14.6548
14.729
14.822
14.9431
15.0976
15.2847
15.1927
15.2536
15.3147
15.3849
15.4726
15.5863
15.7301
15.9044
15.7689
15.8251
15.8829
15.9497
16.0331
16.1401
16.2744
16.4373
16.265
16.3162
16.3703
16.4336
16.5127
16.6138
16.7395
16.8922
16.6882
16.7354
16.7862
16.8462
16.9216
17.0172
17.1353
17.2789
17.0454
17.0901
17.1388
17.1965
17.2686
17.3596
17.4709
17.6065
17.3483
17.3911
17.4379
17.4934
17.5625
17.6492
17.7543
17.8827
17.6024
17.6435
17.6885
17.7418
17.8082
17.8909
17.9903
18.112
17.8086
17.8484
17.8921
17.9437
18.0076
18.0868
18.181
18.2968
17.971
18.0096
18.052
18.1021
18.1639
18.2399
18.3295
18.4398
18.0948
18.1322
18.1735
18.2221
18.2819
18.355
18.4404
18.5458
18.1857
18.2219
18.2619
18.3091
18.367
18.4373
18.5187
18.6197
18.247
18.2819
18.3207
18.3665
18.4225
18.4902
18.568
18.6649
18.28
18.3138
18.3514
18.396
18.4503
18.5156
18.5901
18.6831
18.285
18.318
18.3549
18.3984
18.4513
18.5143
18.5857
18.6753
18.2629
18.2954
18.3318
18.3744
18.426
18.4872
18.5557
18.6422
18.2167
18.2487
18.2844
18.3262
18.3766
18.436
18.502
18.5856
18.1506
18.1817
18.2165
18.2574
18.3066
18.3643
18.4279
18.5087
18.066
18.0965
18.1306
18.1707
18.2188
18.2748
18.336
18.4144
17.9638
17.9939
18.0275
18.0669
18.1138
18.1683
18.2274
18.3034
17.8443
17.8739
17.9071
17.9458
17.9917
18.0447
18.1018
18.1757
17.7071
17.7364
17.7691
17.8071
17.8522
17.9039
17.9592
18.031
17.5537
17.5826
17.6149
17.6524
17.6966
17.7471
17.8006
17.8706
17.386
17.4146
17.4465
17.4834
17.5269
17.5763
17.6282
17.6965
17.206
17.2343
17.2658
17.3022
17.3449
17.3931
17.4435
17.5102
17.0141
17.042
17.0732
17.1091
17.1511
17.1983
17.2472
17.3124
16.8106
16.8382
16.869
16.9044
16.9457
16.9919
17.0394
17.1031
16.5952
16.6225
16.653
16.6879
16.7285
16.7738
16.82
16.8824
16.3682
16.3953
16.4255
16.46
16.5
16.5444
16.5894
16.6506
16.1306
16.1574
16.1873
16.2215
16.2609
16.3044
16.3484
16.4084
15.8836
15.9102
15.9398
15.9735
16.0124
16.0551
16.098
16.1569
15.6277
15.6541
15.6834
15.7168
15.7551
15.7971
15.8389
15.8968
15.3634
15.3896
15.4186
15.4516
15.4893
15.5306
15.5714
15.6283
15.0903
15.1162
15.1449
15.1776
15.2148
15.2554
15.2952
15.3512
14.8083
14.834
14.8625
14.8947
14.9314
14.9713
15.0103
15.0654
14.5175
14.543
14.5713
14.6032
14.6395
14.6788
14.7169
14.7713
14.2186
14.244
14.2721
14.3037
14.3395
14.3783
14.4156
14.4692
13.9122
13.9374
13.9653
13.9967
14.0321
14.0703
14.1069
14.1598
13.5986
13.6237
13.6513
13.6824
13.7174
13.7551
13.791
13.8431
13.2776
13.3025
13.33
13.3608
13.3954
13.4326
13.4678
13.5193
12.9492
12.974
13.0013
13.0319
13.0661
13.1028
13.1373
13.1883
12.6136
12.6383
12.6654
12.6957
12.7297
12.7659
12.7998
12.8502
12.271
12.2956
12.3225
12.3526
12.3862
12.422
12.4553
12.5052
11.9215
11.946
11.9728
12.0027
12.036
12.0714
12.1042
12.1536
11.5655
11.5899
11.6166
11.6463
11.6793
11.7142
11.7465
11.7954
11.2029
11.2272
11.2538
11.2833
11.3161
11.3507
11.3825
11.4309
10.8339
10.8581
10.8846
10.9139
10.9464
10.9806
11.0119
11.0599
10.4583
10.4825
10.5089
10.5381
10.5703
10.6042
10.6351
10.6827
10.0765
10.1007
10.127
10.1559
10.1879
10.2214
10.2518
10.299
9.68847
9.71258
9.7388
9.76766
9.79936
9.83262
9.8626
9.90948
9.29448
9.31854
9.34465
9.37333
9.40477
9.43769
9.46723
9.51374
8.89443
8.91849
8.94454
8.97311
9.00434
9.037
9.06618
9.11237
8.48869
8.5127
8.53867
8.56707
8.59807
8.63041
8.65918
8.70502
8.077
8.10101
8.12693
8.15523
8.18605
8.21817
8.24662
8.29219
7.65973
7.68372
7.70958
7.73775
7.76835
7.80021
7.82837
7.87371
7.2367
7.26069
7.2865
7.31457
7.34501
7.37667
7.40491
7.45071
6.80815
6.8321
6.85784
6.88578
6.916
6.94734
6.9754
7.0213
6.37403
6.39794
6.4236
6.45141
6.48146
6.51256
6.54033
6.58599
5.93454
5.95838
5.98394
6.01162
6.04148
6.07235
6.09984
6.14526
5.48972
5.51349
5.53893
5.56643
5.59606
5.62668
5.65385
5.69893
5.03975
5.06342
5.08875
5.1161
5.14554
5.17596
5.20288
5.24776
4.5847
4.6082
4.63332
4.66042
4.68957
4.71966
4.74618
4.79063
4.12479
4.14812
4.17308
4.19999
4.22892
4.25882
4.28516
4.32952
3.65966
3.68263
3.70721
3.73374
3.76228
3.79179
3.81771
3.86166
3.19014
3.21278
3.23703
3.26321
3.29137
3.32052
3.34612
3.38983
2.71391
2.73548
2.75878
2.78414
2.81164
2.84033
2.86562
2.90921
2.23574
2.25687
2.27966
2.30443
2.33125
2.35925
2.38392
2.42683
1.74348
1.76112
1.78104
1.8036
1.82891
1.85614
1.88072
1.92464
1.26279
1.28123
1.3012
1.32309
1.34703
1.37227
1.39484
1.43516
0.739324
0.746894
0.757984
0.773178
0.792874
0.815956
0.834902
0.883321
0.302163
0.32022
0.336607
0.35174
0.366661
0.383731
0.400923
0.376905
)
;

boundaryField
{
    frontAndBack
    {
        type            empty;
    }
    inlet
    {
        type            zeroGradient;
    }
    outlet
    {
        type            fixedValue;
        value           uniform 0;
    }
    walls
    {
        type            zeroGradient;
    }
}


// ************************************************************************* //
