/*--------------------------------*- C++ -*----------------------------------*\
| =========                 |                                                 |
| \\      /  F ield         | OpenFOAM: The Open Source CFD Toolbox           |
|  \\    /   O peration     | Version:  v2012                                 |
|   \\  /    A nd           | Website:  www.openfoam.com                      |
|    \\/     M anipulation  |                                                 |
\*---------------------------------------------------------------------------*/
FoamFile
{
    version     2.0;
    format      ascii;
    class       volScalarField;
    location    "0.097";
    object      epsilon.air;
}
// * * * * * * * * * * * * * * * * * * * * * * * * * * * * * * * * * * * * * //

dimensions      [0 2 -3 0 0 0 0];


internalField   nonuniform List<scalar> 
1900
(
112.724
141.424
210.097
257.591
369.051
443.457
614.739
724.907
971.317
1128.62
15.4676
16.4471
18.6374
20.4505
23.7567
27.7285
31.9995
39.3104
44.9859
56.9847
14.7926
14.6415
14.5755
14.5063
14.515
14.5559
14.6443
14.8291
15.0762
15.4175
14.77
14.6304
14.4634
14.3354
14.1726
14.059
13.904
13.8079
13.6654
13.5937
14.7766
14.6216
14.4704
14.3205
14.1747
14.029
13.8889
13.7473
13.6138
13.477
14.7777
14.6206
14.4713
14.3197
14.1753
14.0285
13.8891
13.7473
13.6133
13.4774
14.7778
14.6206
14.4731
14.3235
14.184
14.045
13.9174
13.7915
13.6806
13.5716
14.776
14.6501
14.5638
14.5035
14.511
14.5499
14.6403
14.819
15.0447
15.3947
15.212
16.6039
18.2744
20.682
23.5907
27.5738
32.265
38.4026
45.5701
54.8047
105.941
146.583
198.368
265.777
350.012
456.072
585.648
743.696
931.791
1154.05
4102.25
15200.3
19564
22426.6
21098.2
18019.2
15094.2
12808
11310.2
10389.8
9884.91
9703.63
9525.94
9256.44
8849.87
8351.65
7797.59
7211.19
6644.96
6126.48
5649.3
5222.13
4837.55
4486.52
4167.15
3877.69
3615.23
3377.91
3162.37
2966.8
2788.75
2626.22
2477.47
2340.97
2215.54
2100.01
1993.45
1894.94
1803.75
1719.16
1640.6
1567.5
1499.4
1435.85
1376.46
1320.85
1268.72
1219.75
1173.68
1130.25
1089.25
1050.48
1013.77
978.941
945.874
914.417
884.467
855.89
828.611
802.505
777.528
753.56
730.594
708.504
687.321
666.906
647.33
628.425
610.311
592.778
576.002
559.716
544.168
529.014
514.591
500.459
487.067
473.854
461.411
449.022
437.456
425.803
415.059
404.066
394.109
383.707
374.516
364.636
356.205
346.777
339.108
330.047
323.153
314.361
308.266
299.625
294.365
285.74
281.343
270.977
113.051
337.825
517.688
921.747
1124.39
1150.2
1122.88
1059.8
1053.77
1092.95
1197.85
1410.45
1697.3
2028.61
2379.05
2692.12
2970.91
3203.33
3357.82
3433.69
3425.69
3386.75
3300.97
3183.41
3055.55
2924.52
2793.98
2667.63
2544.23
2426.92
2314.85
2207.85
2106.44
2010.48
1920.09
1834.96
1755
1679.68
1608.78
1541.99
1479.09
1419.74
1363.76
1310.9
1260.98
1213.78
1169.13
1126.83
1086.71
1048.6
1012.35
977.814
944.879
913.422
883.354
854.565
826.989
800.526
775.131
750.709
727.238
704.622
682.869
661.876
641.684
622.173
603.422
585.28
567.871
551
534.845
519.155
504.169
489.567
475.669
462.064
449.173
436.474
424.515
412.633
401.54
390.391
380.11
369.618
360.111
350.207
341.451
332.065
324.049
315.11
307.832
299.258
292.727
284.422
278.658
270.51
265.544
257.425
253.289
243.553
16.424
19.8713
22.8819
29.0851
34.7745
38.7383
41.7139
43.8024
46.7475
50.7651
58.821
71.0476
95.7158
130.289
189.783
267.441
374.043
508.924
666.06
836.204
1004.29
1161.65
1300.95
1417.61
1508.61
1572.31
1610.96
1629
1626.51
1615.87
1593.04
1562.57
1527.94
1490.44
1451.71
1411.84
1371.98
1331.68
1291.88
1252.73
1214.3
1176.71
1140.1
1104.53
1070.08
1036.71
1004.51
973.384
943.328
914.307
886.274
859.167
832.949
807.564
782.999
759.197
736.157
713.823
692.207
671.25
650.974
631.313
612.303
593.868
576.068
558.805
542.172
526.034
510.523
495.458
481.023
466.979
453.567
440.478
428.03
415.826
404.279
392.883
382.172
371.505
361.572
351.561
342.357
332.932
324.424
315.52
307.685
299.24
292.068
284.019
277.508
269.782
263.937
256.45
251.287
243.942
239.488
232.175
228.457
219.695
13.4532
13.4608
13.5467
13.803
14.333
15.0065
15.714
16.3368
16.9221
17.3423
17.8996
18.3651
19.3228
20.4837
22.7697
26.2334
31.7865
40.7663
54.7515
76.1012
106.313
146.773
198.221
259.79
329.298
404.253
479.979
554.3
622.123
684.214
737.575
781.507
815.953
841.222
859.05
869.846
875.231
874.67
872.002
866.096
857.456
846.835
834.796
821.37
807.028
791.857
776.199
759.979
743.527
726.925
710.205
693.425
676.655
659.925
643.321
626.829
610.553
594.474
578.692
563.165
547.991
533.118
518.621
504.453
490.697
477.276
464.294
451.629
439.422
427.502
416.063
404.868
394.178
383.677
373.704
363.854
354.558
345.296
336.626
327.903
319.826
311.585
304.067
296.255
289.272
281.84
275.378
268.281
262.342
255.536
250.12
243.546
238.659
232.257
227.916
221.615
217.842
211.565
208.382
200.856
13.3298
13.159
13.0628
13.117
13.3052
13.7168
14.2818
14.9069
15.4444
15.8787
16.2082
16.4402
16.6257
16.7645
16.916
17.0863
17.3449
17.721
18.3271
19.2967
20.8315
23.2266
26.7316
32.0548
39.6246
50.4167
64.7549
83.3958
106.24
133.451
164.292
197.832
233.149
268.639
303.655
336.541
367.448
395.306
419.998
441.148
458.93
473.247
484.612
492.982
498.871
502.453
504.203
503.915
502.754
500.235
496.499
491.843
486.427
480.327
473.689
466.571
459.146
451.396
443.519
435.443
427.381
419.219
411.101
403.016
395.053
387.145
379.387
371.675
364.149
356.667
349.418
342.185
335.244
328.268
321.65
314.937
308.641
302.194
296.219
290.011
284.339
278.339
272.958
267.14
262.05
256.393
251.602
246.086
241.596
236.193
232.029
226.727
222.915
217.689
214.252
209.069
206.031
200.854
198.238
192.011
13.325
13.1543
13.0318
13.0866
13.2958
13.7717
14.497
15.4825
16.4994
17.5988
18.5953
19.5245
20.2666
20.8772
21.3015
21.6046
21.7727
21.8455
21.8318
21.7889
21.6968
21.6028
21.5329
21.5587
21.6648
21.922
22.4483
23.3598
24.8046
27.0057
30.2272
34.6905
40.7433
48.4264
57.9384
69.2395
82.3954
97.0644
113.131
130.035
147.55
165.092
182.415
199.052
214.799
229.361
242.745
254.769
265.541
275.083
283.443
290.711
296.953
302.268
306.709
310.351
313.304
315.561
317.287
318.365
319.118
319.145
318.948
318.439
317.416
316.03
314.348
312.362
310.173
307.716
305.127
302.283
299.397
296.227
293.169
289.74
286.559
282.952
279.691
275.946
272.641
268.779
265.461
261.501
258.204
254.164
250.925
246.82
243.68
239.528
236.526
232.339
229.509
225.297
222.668
218.438
216.041
211.801
209.67
204.56
13.4656
13.3601
13.4098
13.6562
14.3044
15.6847
18.0294
21.4291
25.3893
29.7059
33.6155
37.0777
39.6177
41.555
42.6211
43.3229
43.3567
43.2277
42.9048
42.3941
41.781
41.1574
40.5062
39.91
39.3589
38.8809
38.5053
38.2116
38.0961
38.149
38.3244
38.7069
39.337
40.2555
41.5902
43.2841
45.6124
48.4996
52.2521
56.8727
62.5776
69.4289
77.4984
86.8402
97.4042
109.133
121.851
135.417
149.561
164.129
178.809
193.48
207.833
221.816
235.139
247.833
259.669
270.724
280.871
290.154
298.558
306.069
312.717
318.543
323.565
327.813
331.344
334.151
336.299
337.892
338.877
339.367
339.282
338.923
338.226
336.896
335.699
333.759
332.137
329.726
327.767
324.966
322.753
319.635
317.247
313.871
311.378
307.79
305.26
301.509
299.005
295.144
292.714
288.784
286.463
282.501
280.329
276.378
274.422
269.741
15.9094
16.8577
18.5486
21.9316
28.4197
39.4797
55.4424
74.9721
95.408
114.288
129.255
140.136
146.556
150.128
150.74
150.319
149.252
147.637
146.195
145.147
144.501
144.683
145.309
146.797
148.964
152.245
156.2
161.102
166.943
173.803
181.611
190.535
200.469
211.451
223.611
236.566
250.801
265.715
281.661
298.284
315.534
333.321
351.276
369.421
387.435
405.301
422.771
439.757
456.118
471.802
486.764
501.002
514.436
527.179
538.978
550.116
560.235
569.655
578.112
585.742
592.453
598.188
603.033
606.834
609.762
611.678
612.891
612.881
612.476
611.454
609.591
607.093
604.175
600.587
596.939
592.531
588.47
583.508
579.172
573.889
569.403
563.9
559.356
553.715
549.212
543.5
539.108
533.351
529.138
523.378
519.413
513.708
510.026
504.422
501.026
495.543
492.485
487.151
484.563
478.526
68.0357
90.4232
126.245
184.884
272
385.049
511.427
635.703
744.716
831.776
892.724
932.664
953.409
963.315
964.59
963.376
960.678
957.286
956.582
957.62
960.512
966.355
974.936
986.667
1000.39
1016.57
1034.83
1055.18
1077.47
1101.02
1126.08
1152.12
1178.98
1206.21
1233.53
1260.21
1286.67
1311.9
1336.44
1359.48
1381.18
1401.34
1419.95
1437.16
1452.89
1467.21
1480.11
1491.57
1501.69
1510.38
1517.88
1523.98
1528.88
1532.38
1534.6
1535.36
1534.9
1533.56
1530.86
1526.95
1522.2
1516.06
1509.45
1501.37
1492.93
1483.33
1473.1
1462.23
1451.01
1439.1
1427.08
1414.26
1401.62
1388.14
1375.23
1361.43
1348.58
1334.84
1322.33
1308.84
1296.8
1283.68
1272.2
1259.51
1248.72
1236.53
1226.47
1214.72
1205.46
1194.15
1185.76
1174.92
1167.41
1157.05
1150.37
1140.43
1134.63
1125.09
1120.42
1109.94
1464.6
1897.23
2398.95
2961.86
3563.13
4171.81
4746.13
5251.24
5655.12
5950.87
6132.55
6219.37
6206.75
6159.89
6061.13
5928.04
5777.85
5619.48
5459.37
5301.7
5149.43
5004.39
4867.61
4739.63
4620.54
4510.5
4408.96
4316.06
4231.23
4154.12
4084.11
4020.79
3963.63
3912.33
3866.49
3825.69
3789.83
3758.22
3730.98
3707.37
3687.36
3670.26
3655.93
3643.94
3634.03
3625.64
3618.8
3612.9
3608.29
3604.41
3601.58
3599.48
3598.24
3597.63
3597.7
3598.04
3598.73
3599.87
3601.12
3602.46
3604.03
3605.29
3606.89
3607.97
3609.16
3609.94
3610.49
3610.45
3610.14
3609.27
3608.02
3605.49
3602.89
3598.7
3594.75
3589.04
3583.88
3576.8
3570.49
3562.07
3554.66
3545
3536.65
3525.93
3516.81
3505.09
3495.41
3482.73
3472.67
3459.09
3448.92
3434.51
3424.43
3409.15
3399.35
3383.1
3373.87
3356.62
3347.82
3325.68
1109.42
1064.72
1122.18
1210.06
1238.78
1121.13
818.44
1979.79
54650.4
16140.2
7359.95
6109.42
6235.01
6485.33
6556.08
8029.95
74286
43685.6
24866.1
18479.8
16107.6
15004.7
14631.8
19677.2
76414.1
71050.4
54281.5
41216.7
32698.5
27163.4
24547.9
34068.7
69726.5
75706.4
67750.2
55650.5
44564.9
35839.2
30859.4
42695.8
57761.1
71171.5
67936.7
59030.5
48367.4
38726
32776.6
45212.4
47498.6
61830.8
62482.5
56603.6
47158.7
38172.2
32448.6
44233.1
39104.1
51824.1
53585.2
49836.2
42394.6
34677.7
29595.7
39768.7
32639.5
42995.5
44924.8
42136.8
36306.9
30049.2
25830.4
34059.3
27613.9
35629.7
37264.1
35122.2
30551.2
25566.3
22235
29396.1
23491.4
29590.4
30831
29130.4
25540.8
21643.2
19169.9
26038.1
20107.5
24698.8
25580
24191.2
21348.3
18306.6
16504.5
22997.7
17368.9
20784.1
21373
20215
17944.3
15560.8
14270.5
20372
15136.5
17658.5
18024.9
17044.6
15215.4
13334
12429.4
18158.6
13287.6
15148.6
15355
14518.4
13031.3
11535.9
10923.8
16321.8
11727.9
13108
13205.4
12488.3
11270.2
10075.2
9687.48
14794.9
10405.8
11437.5
11461.7
10844.8
9839.4
8880.19
8666.24
13520.8
9268.11
10051.2
10031.6
9498.3
8664.22
7892.71
7815.29
12449.8
8286.62
8890.02
8845.92
8383.48
7688.52
7068.29
7098.48
11541.2
7443.57
7912.25
7853.82
7452.25
6870.74
6373.24
6487.42
10763.2
6716.6
7083.82
7017.51
6667.98
6179.33
5781.72
5963.19
10090
6089.84
6378.48
6308.12
6002.8
5590.41
5274.4
5510
9502.21
5547.21
5774.58
5702.74
5435.1
5085.76
4836.78
5116.01
8986.01
5073.18
5253.44
5182.25
4947.1
4650.49
4457.13
4771.84
8530.84
4656.9
4800.79
4731.73
4524.79
4272.66
4125.88
4469.66
8127.53
4289.75
4405.43
4339.47
4157.17
3942.86
3835.36
4203.11
7768.66
3964.47
4058.16
3995.96
3835.31
3653.39
3579.27
3966.91
7448.02
3675.53
3751.82
3693.67
3552.09
3398.07
3352.5
3756.74
7160.52
3417.68
3480.24
3426.3
3301.61
3171.78
3150.78
3569.03
6902.06
3186.94
3238.52
3188.78
3079.05
2970.32
2970.68
3400.76
6669.17
2979.59
3022.4
2976.81
2880.45
2790.27
2808.88
3249.57
6458.83
2792.57
2828.37
2786.81
2702.41
2628.56
2663.13
3113.12
6268.43
2623.27
2653.45
2615.77
2542.14
2482.74
2531.39
2989.5
6095.66
2469.44
2495.14
2461.19
2397.27
2350.74
2411.89
2877.14
5938.42
2329.25
2351.37
2320.99
2265.86
2230.82
2303.11
2774.65
5794.79
2201.14
2220.42
2193.43
2146.27
2121.53
2203.77
2680.85
5663.06
2083.79
2100.81
2077.05
2037.11
2021.64
2112.79
2594.76
5541.79
1976.03
1991.29
1970.59
1937.22
1930.1
2029.27
2515.53
5429.75
1876.9
1890.79
1872.99
1845.62
1846.05
1952.42
2442.48
5325.97
1785.48
1798.37
1783.32
1761.45
1768.61
1881.63
2375.03
5229.68
1701.06
1713.22
1700.77
1683.93
1697.2
1816.28
2312.67
5140.28
1622.92
1634.59
1624.62
1612.4
1631.25
1755.86
2254.98
5057.3
1550.48
1561.84
1554.22
1546.27
1570.22
1699.9
2201.55
4980.34
1483.18
1494.4
1489
1484.99
1513.65
1648
2152.05
4909.1
1420.55
1431.76
1428.46
1428.12
1461.12
1599.79
2106.15
4843.23
1362.15
1373.44
1372.16
1375.18
1412.26
1554.94
2063.56
4782.4
1307.6
1319.06
1319.68
1325.82
1366.72
1513.14
2023.97
4726.2
1256.54
1268.22
1270.66
1279.74
1324.18
1474.11
1987.13
4674.21
1208.65
1220.62
1224.79
1236.62
1284.37
1437.59
1952.76
4626.01
1163.67
1175.97
1181.79
1196.21
1247.06
1403.37
1920.65
4581.18
1121.34
1134.02
1141.42
1158.26
1212.01
1371.23
1890.58
4539.35
1081.44
1094.54
1103.45
1122.58
1179.04
1341
1862.36
4500.11
1043.77
1057.33
1067.68
1088.97
1147.96
1312.5
1835.81
4463.19
1008.16
1022.2
1033.94
1057.25
1118.64
1285.61
1810.81
4428.31
974.451
988.989
1002.06
1027.29
1090.91
1260.18
1787.2
4395.32
942.478
957.54
971.892
998.928
1064.68
1236.12
1764.92
4364.04
912.126
927.726
943.309
972.061
1039.81
1213.31
1743.83
4334.41
883.247
899.4
916.173
946.558
1016.2
1191.67
1723.89
4306.3
855.752
872.469
890.389
922.329
993.771
1171.11
1704.98
4279.69
829.507
846.798
865.833
899.262
972.422
1151.56
1687.08
4254.47
804.458
822.331
842.444
877.297
952.092
1132.96
1670.1
4230.64
780.478
798.939
820.102
856.325
932.692
1115.23
1654
4208.06
757.55
776.602
798.784
836.321
914.189
1098.34
1638.72
4186.77
735.541
755.185
778.36
817.166
896.483
1082.2
1624.2
4166.53
714.476
734.713
758.852
798.879
879.584
1066.81
1610.42
4147.52
694.205
715.031
740.108
781.315
863.363
1052.07
1597.3
4129.35
674.8
696.21
722.201
764.548
847.886
1038.02
1584.87
4112.39
656.079
678.064
704.94
748.388
832.974
1024.52
1573
4096.07
638.166
660.719
688.458
732.974
818.766
1011.68
1561.79
4080.98
620.833
643.936
672.506
718.05
805.012
999.278
1551.02
4066.29
604.268
627.914
657.297
703.842
791.942
987.529
1540.92
4052.94
588.18
612.343
642.501
690.003
779.204
976.091
1531.14
4039.7
572.836
597.51
628.43
676.873
767.155
965.328
1522.06
4027.95
557.861
583.012
614.648
663.979
755.295
954.724
1513.13
4015.93
543.624
569.248
601.593
651.808
744.154
944.843
1504.97
4005.6
529.643
555.695
588.692
639.723
733.035
934.93
1496.73
3994.48
516.41
542.893
576.545
628.402
722.696
925.827
1489.38
3985.32
503.311
530.167
564.401
616.998
712.181
916.454
1481.64
3974.71
490.994
518.235
553.067
606.431
702.546
908.026
1474.98
3966.43
478.676
506.232
541.573
595.594
692.509
899.043
1467.53
3955.92
467.202
495.095
530.977
585.706
683.5
891.205
1461.45
3948.27
455.577
483.727
520.041
575.339
673.835
882.482
1454.12
3937.54
444.892
473.333
510.133
566.081
665.404
875.185
1448.56
3930.39
433.884
462.526
499.686
556.113
656.033
866.626
1441.2
3919.27
423.956
452.847
490.442
547.466
648.167
859.862
1436.16
3912.61
413.502
442.541
480.428
537.85
639.046
851.423
1428.72
3901.07
404.315
433.566
471.841
529.814
631.752
845.209
1424.23
3894.91
394.352
423.708
462.218
520.519
622.869
836.898
1416.75
3883.21
385.905
415.439
454.296
513.104
616.159
831.245
1412.81
3877.51
376.367
405.971
445.02
504.105
607.514
823.103
1405.41
3866.03
368.667
398.42
437.775
497.324
601.398
818.004
1401.91
3860.62
359.475
389.27
428.788
488.587
592.994
810.099
1394.85
3849.63
352.537
382.455
422.238
482.452
587.473
805.541
1391.71
3844.57
343.597
373.539
413.469
473.928
579.298
797.917
1385.16
3834.24
337.449
367.482
407.633
468.449
574.362
793.855
1382.32
3829.53
328.646
358.695
398.992
460.071
566.387
786.546
1376.31
3820
323.32
353.425
393.884
455.239
561.995
782.894
1373.7
3815.44
314.526
344.647
385.265
446.921
554.163
775.884
1368.18
3806.82
310.041
340.171
380.878
442.706
550.239
772.476
1365.64
3802.51
299.434
329.54
370.39
432.532
540.614
763.839
1358.63
3792.71
)
;

boundaryField
{
    frontAndBack
    {
        type            empty;
    }
    inlet
    {
        type            fixedValue;
        value           uniform 14.855;
    }
    outlet
    {
        type            zeroGradient;
    }
    walls
    {
        lowReCorrection 0;
        blending        stepwise;
        n               2;
        type            epsilonWallFunction;
        value           nonuniform List<scalar> 
228
(
112.724
141.424
210.097
257.591
369.051
443.457
614.739
724.907
971.317
1128.62
1109.42
1064.72
1122.18
1210.06
1238.78
1121.13
818.44
1979.79
1979.79
8029.95
19677.2
34068.7
42695.8
45212.4
44233.1
39768.7
34059.3
29396.1
26038.1
22997.7
20372
18158.6
16321.8
14794.9
13520.8
12449.8
11541.2
10763.2
10090
9502.21
8986.01
8530.84
8127.53
7768.66
7448.02
7160.52
6902.06
6669.17
6458.83
6268.43
6095.66
5938.42
5794.79
5663.06
5541.79
5429.75
5325.97
5229.68
5140.28
5057.3
4980.34
4909.1
4843.23
4782.4
4726.2
4674.21
4626.01
4581.18
4539.35
4500.11
4463.19
4428.31
4395.32
4364.04
4334.41
4306.3
4279.69
4254.47
4230.64
4208.06
4186.77
4166.53
4147.52
4129.35
4112.39
4096.07
4080.98
4066.29
4052.94
4039.7
4027.95
4015.93
4005.6
3994.48
3985.32
3974.71
3966.43
3955.92
3948.27
3937.54
3930.39
3919.27
3912.61
3901.07
3894.91
3883.21
3877.51
3866.03
3860.62
3849.63
3844.57
3834.24
3829.53
3820
3815.44
3806.82
3802.51
3792.71
105.941
146.583
198.368
265.777
350.012
456.072
585.648
743.696
931.791
1154.05
1464.6
1897.23
2398.95
2961.86
3563.13
4171.81
4746.13
5251.24
5655.12
5950.87
6132.55
6219.37
6206.75
6159.89
6061.13
5928.04
5777.85
5619.48
5459.37
5301.7
5149.43
5004.39
4867.61
4739.63
4620.54
4510.5
4408.96
4316.06
4231.23
4154.12
4084.11
4020.79
3963.63
3912.33
3866.49
3825.69
3789.83
3758.22
3730.98
3707.37
3687.36
3670.26
3655.93
3643.94
3634.03
3625.64
3618.8
3612.9
3608.29
3604.41
3601.58
3599.48
3598.24
3597.63
3597.7
3598.04
3598.73
3599.87
3601.12
3602.46
3604.03
3605.29
3606.89
3607.97
3609.16
3609.94
3610.49
3610.45
3610.14
3609.27
3608.02
3605.49
3602.89
3598.7
3594.75
3589.04
3583.88
3576.8
3570.49
3562.07
3554.66
3545
3536.65
3525.93
3516.81
3505.09
3495.41
3482.73
3472.67
3459.09
3448.92
3434.51
3424.43
3409.15
3399.35
3383.1
3373.87
3356.62
3347.82
3325.68
)
;
    }
}


// ************************************************************************* //
