/*--------------------------------*- C++ -*----------------------------------*\
| =========                 |                                                 |
| \\      /  F ield         | OpenFOAM: The Open Source CFD Toolbox           |
|  \\    /   O peration     | Version:  v2012                                 |
|   \\  /    A nd           | Website:  www.openfoam.com                      |
|    \\/     M anipulation  |                                                 |
\*---------------------------------------------------------------------------*/
FoamFile
{
    version     2.0;
    format      ascii;
    class       volScalarField;
    location    "0.097";
    object      nut.air;
}
// * * * * * * * * * * * * * * * * * * * * * * * * * * * * * * * * * * * * * //

dimensions      [0 2 -1 0 0 0 0];


internalField   nonuniform List<scalar> 
5600
(
1.31368e-05
2.99226e-05
5.00608e-05
6.50579e-05
7.30442e-05
7.56048e-05
7.50324e-05
7.28195e-05
7.0154e-05
6.76944e-05
6.55238e-05
6.37407e-05
6.24401e-05
6.15945e-05
6.12142e-05
6.11285e-05
6.13609e-05
6.16784e-05
6.21209e-05
6.25374e-05
6.29285e-05
6.32873e-05
6.35506e-05
6.38131e-05
6.39889e-05
6.41629e-05
6.43309e-05
6.443e-05
6.46099e-05
6.46498e-05
6.48334e-05
6.48558e-05
6.4989e-05
6.50404e-05
6.50798e-05
6.51862e-05
6.51277e-05
6.52781e-05
6.51682e-05
6.53105e-05
6.52229e-05
6.52978e-05
6.52831e-05
6.52722e-05
6.53255e-05
6.52691e-05
6.53343e-05
6.53003e-05
6.53165e-05
6.53561e-05
6.5299e-05
6.54019e-05
6.53019e-05
6.54156e-05
6.53304e-05
6.54084e-05
6.53709e-05
6.54008e-05
6.54043e-05
6.54092e-05
6.54295e-05
6.54324e-05
6.54627e-05
6.54578e-05
6.55155e-05
6.54758e-05
6.55743e-05
6.54925e-05
6.56135e-05
6.55273e-05
6.56302e-05
6.5591e-05
6.56479e-05
6.565e-05
6.56966e-05
6.56684e-05
6.57813e-05
6.56694e-05
6.58616e-05
6.57135e-05
6.59025e-05
6.57981e-05
6.59354e-05
6.58505e-05
6.60131e-05
6.5848e-05
6.61025e-05
6.58844e-05
6.61038e-05
6.6037e-05
6.60035e-05
6.627e-05
6.58245e-05
6.66765e-05
6.51952e-05
6.80791e-05
6.25159e-05
7.32712e-05
5.15414e-05
9.28801e-05
0.000160817
0.000142419
0.000113471
0.000102539
0.000100615
0.000107443
0.000116775
0.000134157
0.000149141
0.000162862
0.000180312
0.000199709
0.000221426
0.000242966
0.000265702
0.000286636
0.000307746
0.0003261
0.000343593
0.000358808
0.00037205
0.000384422
0.000394494
0.0004046
0.000413112
0.000421167
0.000429368
0.000435167
0.000443172
0.00044721
0.000454489
0.000457796
0.000463034
0.000466872
0.000469131
0.000474162
0.000473814
0.000479493
0.000478134
0.000482931
0.000482557
0.000485069
0.000486627
0.000486846
0.000489705
0.000489222
0.000491733
0.000492312
0.000493009
0.000495564
0.000494283
0.000498091
0.000496047
0.000499568
0.000498228
0.000500487
0.000500438
0.000501433
0.000502207
0.000502697
0.000503662
0.000504083
0.000505298
0.000505277
0.000507417
0.000506249
0.000509433
0.000507268
0.000510644
0.000508832
0.000511241
0.000510848
0.000512027
0.000512288
0.000513856
0.000512591
0.000516277
0.000512812
0.000517987
0.000514264
0.00051866
0.000516292
0.000519703
0.000516966
0.000522081
0.000516502
0.000524074
0.000517516
0.000523794
0.000520552
0.000522496
0.000523336
0.000522234
0.000526655
0.000517633
0.000539823
0.000496318
0.000576038
0.000442801
0.000582708
0.000158693
0.000156177
0.000150284
0.000144064
0.000134415
0.000124078
0.000114711
0.000108632
0.000107246
0.000107598
0.000114779
0.000120026
0.000133484
0.000143815
0.000162479
0.000178943
0.000201768
0.000224791
0.000250716
0.000279691
0.000308221
0.000342141
0.000374913
0.000412455
0.000447366
0.000477125
0.000509235
0.000532865
0.000563284
0.000578177
0.000600167
0.000613166
0.000627705
0.000643043
0.000650201
0.000668469
0.00067031
0.000688633
0.000689672
0.000703621
0.000708416
0.00071566
0.000724973
0.00072738
0.000738009
0.000740425
0.000747727
0.000753628
0.000755302
0.000765499
0.000763218
0.000774801
0.000772111
0.000781308
0.000781098
0.000786677
0.000789242
0.00079241
0.000796006
0.000798556
0.000802223
0.000804164
0.000808791
0.000808895
0.000816194
0.000813515
0.000822801
0.000818683
0.000826831
0.000824872
0.000829508
0.000830936
0.000833853
0.000834852
0.000840677
0.000836721
0.000847303
0.000839486
0.000851159
0.000844788
0.000853703
0.0008497
0.000858813
0.000850981
0.000866211
0.000851095
0.000871218
0.000854298
0.000873047
0.000857946
0.00087812
0.000855638
0.000890079
0.000849015
0.000903102
0.000845276
0.000915116
0.000840492
0.00089852
0.000815306
0.000159226
0.000157132
0.00015444
0.000152916
0.00015007
0.00014716
0.000145114
0.000138035
0.000139953
0.000127316
0.000135108
0.000118279
0.000128413
0.000113156
0.000122246
0.000115503
0.000121482
0.000126776
0.000131504
0.000147362
0.000155781
0.000178057
0.000195553
0.000220834
0.000251509
0.000277939
0.000320918
0.000347148
0.000393647
0.000417128
0.000456745
0.000484106
0.000514281
0.000549698
0.000567908
0.000609569
0.000619848
0.000661259
0.000672003
0.000705132
0.000723345
0.000743639
0.000770997
0.000781949
0.000807087
0.000816705
0.000831033
0.000848091
0.000851171
0.000875022
0.000872372
0.000896387
0.000895185
0.000912982
0.00091692
0.000927962
0.000936107
0.000943657
0.000952537
0.000959386
0.000968124
0.000973097
0.000984175
0.000984738
0.00100109
0.00099682
0.00101573
0.00101066
0.00102532
0.00102566
0.0010331
0.00103863
0.00104487
0.00104697
0.00106068
0.00105303
0.00107405
0.00106206
0.00108158
0.0010744
0.00108849
0.00108381
0.00110113
0.00108731
0.00111592
0.00109117
0.00112466
0.00110006
0.00112969
0.00110674
0.0011419
0.00110402
0.00116147
0.00110046
0.00117477
0.00110778
0.00117762
0.00112038
0.00118063
0.00113022
0.000159235
0.000157597
0.000154975
0.000153887
0.0001524
0.000149272
0.000152087
0.000142847
0.000153458
0.000135632
0.000154052
0.000130568
0.000150289
0.000130572
0.000140136
0.000135983
0.000126127
0.000141601
0.000115631
0.00013914
0.000115988
0.000128641
0.000128539
0.000120245
0.000148676
0.000125527
0.000172931
0.000151475
0.000201039
0.000198922
0.000234956
0.00026252
0.000278565
0.000334385
0.000336823
0.000398191
0.000398358
0.000452008
0.000462456
0.000500148
0.000527992
0.000548293
0.000589602
0.00060221
0.00064092
0.000660612
0.000685025
0.000719527
0.000727708
0.000772392
0.000773529
0.000816677
0.00082184
0.00085459
0.00086858
0.000890846
0.000910257
0.000926669
0.000945701
0.000961191
0.000979914
0.000991926
0.00101552
0.001019
0.00105148
0.00104714
0.00108235
0.00107918
0.00110568
0.00111283
0.00112643
0.00114025
0.00115333
0.0011571
0.00118274
0.00117145
0.00120512
0.00119161
0.00121833
0.00121431
0.00123304
0.00123018
0.00125693
0.00123928
0.00128093
0.00125219
0.00129404
0.00127146
0.00130365
0.00128492
0.00132329
0.00128822
0.00134664
0.00129726
0.00135586
0.00132184
0.00135369
0.00134706
0.00135833
0.00136109
0.000159117
0.00015781
0.000155208
0.000153805
0.000153599
0.000148443
0.000154738
0.000141629
0.000157137
0.000135767
0.000157079
0.000134777
0.000150846
0.000141192
0.000137999
0.000152794
0.000123651
0.000160773
0.000118325
0.000153202
0.000132218
0.00012635
0.000162323
9.32987e-05
0.000187057
7.48392e-05
0.000186191
8.47922e-05
0.000158075
0.000125331
0.00011799
0.000177855
9.55737e-05
0.000213862
0.000111558
0.000227812
0.000160623
0.00023524
0.000230522
0.000248929
0.000301059
0.000291855
0.000353562
0.000354872
0.000403017
0.000428708
0.000444163
0.000491597
0.000486117
0.000544482
0.000538167
0.000590194
0.000597226
0.000633019
0.000652987
0.000676934
0.000702671
0.000723903
0.000748844
0.000770683
0.000797513
0.000812691
0.000848446
0.000851487
0.000898991
0.000895022
0.000943239
0.000946306
0.000978536
0.000996641
0.00101248
0.00103484
0.00105613
0.00106165
0.00110417
0.00109188
0.00114211
0.00113262
0.00116778
0.00117357
0.00119797
0.00120265
0.0012404
0.00122537
0.00127951
0.0012572
0.00130123
0.00129608
0.00131956
0.00132374
0.00135196
0.00133865
0.00138602
0.00136372
0.00140185
0.00140248
0.00141366
0.00142732
0.00144626
0.00144527
0.000159065
0.000157777
0.000155493
0.000153434
0.000154417
0.000147771
0.000155696
0.000141515
0.000156966
0.000137821
0.000154343
0.000140178
0.000145466
0.000148981
0.000132206
0.000159482
0.000121425
0.00016228
0.000123833
0.000147647
0.000146374
0.000116227
0.0001776
8.6986e-05
0.000190941
8.41328e-05
0.000173512
0.000114374
0.00013201
0.000167061
7.58122e-05
0.000219432
3.04654e-05
0.000232665
3.84729e-05
0.000198554
8.70343e-05
0.00014707
0.000165925
7.3056e-05
0.000233721
9.39039e-05
0.000182685
0.000151672
0.0001652
0.000252708
0.000188214
0.000300717
0.000218669
0.000318196
0.000274121
0.000337561
0.000343378
0.000376259
0.000399299
0.000421063
0.000450029
0.00047532
0.000497191
0.000516051
0.000545466
0.000552049
0.000595534
0.00058679
0.000643917
0.000636065
0.0006886
0.000698116
0.000725349
0.000752583
0.000764974
0.000789539
0.000819331
0.000822022
0.000878193
0.00086713
0.000922445
0.000923221
0.000954558
0.000972551
0.000996362
0.00100745
0.00105153
0.0010425
0.00109854
0.00109129
0.00112783
0.00114212
0.0011589
0.00117569
0.00120441
0.00119997
0.00124653
0.00123812
0.00127206
0.00128593
0.0012988
0.00132051
0.00133981
0.00135307
0.000159148
0.00015757
0.000155712
0.000153281
0.000154384
0.000148329
0.000154584
0.00014365
0.000154134
0.000141741
0.000150316
0.000144552
0.000142334
0.000151002
0.000132881
0.000156461
0.000127801
0.000154371
0.000133768
0.000140027
0.00015161
0.000117513
0.0001695
0.000102615
0.000171116
0.000110159
0.000151944
0.000138507
0.000117729
0.000174593
7.70422e-05
0.000201027
5.244e-05
0.000198817
7.31496e-05
0.000163776
0.000132802
9.90986e-05
0.000208522
2.31257e-05
0.000228633
6.23948e-05
0.000140128
0.00018584
2.7144e-05
0.000275919
5.66825e-06
0.000251619
5.4528e-05
0.000212277
0.000111509
0.000165006
0.000166661
0.000177603
0.000179999
0.000191074
0.000195796
0.000216058
0.000236221
0.00023815
0.000295642
0.000257687
0.0003403
0.000286231
0.00037053
0.000352493
0.000401454
0.000431764
0.000439006
0.000486451
0.000494621
0.000517327
0.000562875
0.000554116
0.000614771
0.000602303
0.00064766
0.000657783
0.000674771
0.000699328
0.000717916
0.000728097
0.000771625
0.000766998
0.000815765
0.000823325
0.000847584
0.000875267
0.000885969
0.000907927
0.000935084
0.000937487
0.00097731
0.000982796
0.00100903
0.00103483
0.0010466
0.0010773
0.00109342
0.0011182
0.000159275
0.000157402
0.000155706
0.000153529
0.00015361
0.000149781
0.000152383
0.000146659
0.000150749
0.000145339
0.000147434
0.000146448
0.000142413
0.000148916
0.000137551
0.000150002
0.000136057
0.000146498
0.000140543
0.000137171
0.00014951
0.000126051
0.000155897
0.000121825
0.000152668
0.000129574
0.000139225
0.000145326
0.000119914
0.000161233
0.00010237
0.000168977
9.98765e-05
0.000160802
0.000119842
0.000135703
0.000150594
0.000101697
0.000175241
8.30504e-05
0.00016821
0.000122785
0.000111025
0.000187818
4.53266e-05
0.000214065
4.2414e-05
0.000191092
8.76564e-05
0.000161513
0.000116085
0.000146526
0.000127149
0.000150253
0.000113134
0.000167254
0.000121119
0.000136398
0.000163493
0.000100401
0.000214092
7.58295e-05
0.000229717
0.000109003
0.000198416
0.000176417
0.000156041
0.000226394
0.000167069
0.000237157
0.000227407
0.000222782
0.000283418
0.000239781
0.000313423
0.000298181
0.000323001
0.000354957
0.000348647
0.000388508
0.000401856
0.00041201
0.000459014
0.000457514
0.000504182
0.000525657
0.000543196
0.000585105
0.000593072
0.000625189
0.000651681
0.000664705
0.00069593
0.000706373
0.000726731
0.000754641
0.000767477
0.000798447
0.000818721
0.000845517
0.000159354
0.00015734
0.000155613
0.000153822
0.000152937
0.000150864
0.000150875
0.000148496
0.000148887
0.000146971
0.000146563
0.000146313
0.000144
0.000145979
0.000141923
0.000144968
0.00014131
0.00014242
0.00014253
0.000138592
0.000144337
0.00013555
0.000144129
0.000135843
0.00014041
0.000139423
0.000134673
0.00014341
0.000129803
0.000145281
0.000127929
0.000143889
0.000130341
0.000138566
0.000136656
0.00013021
0.000143609
0.000122998
0.00014624
0.000124175
0.000138032
0.000139072
0.000118058
0.000155925
0.00010553
0.000156308
0.000114256
0.000143678
0.000127836
0.000134751
0.000130916
0.000136884
0.000123782
0.000146623
0.000111502
0.000154875
0.000113927
0.000140821
0.000136855
0.000110025
0.000167404
8.26541e-05
0.000177771
0.000100362
0.000147506
0.000152001
9.31178e-05
0.000188639
8.04691e-05
0.000179582
0.000128695
0.000135555
0.00017513
0.00011761
0.000181747
0.000153304
0.000155161
0.00019218
0.000147967
0.000202663
0.000184992
0.00019116
0.000227402
0.00020324
0.000247044
0.000251118
0.000257564
0.000295711
0.000286764
0.000321535
0.000333416
0.000345752
0.000376314
0.000385634
0.000412822
0.000436987
0.00045766
0.000488278
0.000510552
0.000538217
0.00015938
0.000157331
0.000155556
0.000153959
0.000152655
0.000151276
0.000150328
0.000149099
0.000148325
0.000147357
0.000146504
0.000145939
0.000144895
0.000144604
0.000143696
0.000143054
0.000143075
0.000141208
0.000142811
0.000139546
0.000142078
0.000139049
0.000139948
0.000140212
0.000136646
0.000141872
0.000134031
0.00014183
0.000133939
0.000139253
0.000135977
0.000135783
0.000137736
0.000133753
0.000137476
0.000133739
0.00013579
0.000134447
0.000134097
0.000135099
0.000132112
0.000136792
0.000128884
0.000138977
0.000126837
0.000138138
0.000128937
0.000133268
0.000134789
0.000125674
0.000141674
0.000119773
0.000142247
0.000124497
0.000130552
0.000141288
0.000113117
0.000154024
0.000108292
0.000144712
0.000130858
0.000115819
0.000161206
9.75789e-05
0.000160638
0.000119091
0.000125189
0.000163792
9.33874e-05
0.000180203
0.000104578
0.000155508
0.000146203
0.00012789
0.000173021
0.000134913
0.00016678
0.000168425
0.000156141
0.000195529
0.000172966
0.000201762
0.000208885
0.000211103
0.000239345
0.000241937
0.000262187
0.000282162
0.000290748
0.000320234
0.000331335
0.00035531
0.00037784
0.000394669
0.000423899
0.000443517
0.000471802
0.000498714
0.00052352
0.000555349
0.000159385
0.000157335
0.000155524
0.000154008
0.000152558
0.000151376
0.000150203
0.000149161
0.000148315
0.000147203
0.000146781
0.000145455
0.000145457
0.000143947
0.000144215
0.000142687
0.000143022
0.000141607
0.000141895
0.0001407
0.000140691
0.000140193
0.000139103
0.000140277
0.000137176
0.000140506
0.000135702
0.000139939
0.000135339
0.000138571
0.000135134
0.000138187
0.000132987
0.000140288
0.000128828
0.00014285
0.00012663
0.00014107
0.000130813
0.000133015
0.000139536
0.000124031
0.000144265
0.000123192
0.000138668
0.000132991
0.000126412
0.000143811
0.000119944
0.000142424
0.000129495
0.000127452
0.000148101
0.000113805
0.000155474
0.000119126
0.000143
0.000142807
0.000126058
0.000162172
0.000127272
0.000162024
0.000150355
0.000155218
0.00017638
0.000162483
0.000190549
0.000188112
0.000200537
0.000220204
0.000220693
0.000248991
0.000253859
0.000275671
0.000293431
0.00030729
0.000332954
0.000347607
0.00037153
0.000394139
0.000413857
0.00044163
0.000462466
0.000489201
0.000514855
0.000539829
0.000568344
0.000594101
0.000622192
0.000650121
0.000668571
0.000690215
0.000708825
0.000730084
0.000751735
0.000772366
0.000795507
0.000817221
0.000839223
0.000861452
0.000159386
0.000157342
0.00015549
0.000154043
0.000152478
0.000151422
0.000150134
0.000149102
0.000148435
0.000146814
0.000147316
0.000144558
0.000146448
0.000142705
0.000145236
0.000141784
0.000143189
0.000141982
0.000140409
0.000142769
0.000137691
0.000143115
0.000136067
0.000142111
0.000136188
0.000139438
0.000137937
0.000135683
0.00014004
0.000132804
0.000139845
0.000133894
0.000134628
0.000140553
0.000124963
0.000149277
0.000116851
0.000152206
0.00011827
0.000144144
0.000131042
0.000129368
0.000146106
0.000119652
0.00015169
0.000124166
0.000146165
0.000140283
0.00014009
0.000156924
0.000145145
0.000168072
0.000164096
0.000178194
0.000191181
0.000195803
0.000219731
0.000225298
0.000248366
0.000263845
0.000281111
0.000306287
0.000322022
0.000349634
0.000370381
0.000395423
0.00042243
0.000446335
0.000475974
0.000502488
0.000531924
0.000556803
0.000576703
0.000597839
0.000616812
0.00063838
0.000658873
0.000679412
0.000701393
0.000721655
0.000743707
0.000765151
0.000786292
0.000808813
0.000830018
0.000852215
0.000874595
0.000895905
0.000918863
0.000940532
0.000962136
0.000985508
0.0010063
0.0010294
0.00105127
0.00107245
0.00109481
0.00111497
0.00113519
0.00115473
0.000159386
0.000157334
0.000155457
0.000154049
0.000152376
0.000151469
0.000149944
0.000149167
0.000148215
0.000146761
0.000147258
0.000144127
0.000146813
0.000141651
0.000146128
0.000140166
0.000144268
0.000140375
0.000140852
0.000142079
0.000136628
0.000143906
0.000133288
0.000143978
0.000132509
0.000141092
0.000134774
0.000135661
0.00013872
0.000130045
0.000141267
0.000127944
0.000139253
0.000131926
0.000132851
0.0001408
0.000127462
0.000150138
0.000130308
0.000157319
0.000145024
0.000165398
0.000169766
0.000180548
0.000200539
0.000207183
0.000234221
0.000245221
0.000271446
0.000292028
0.000314622
0.000343708
0.000365502
0.000397852
0.000423444
0.000454744
0.000482675
0.000503379
0.000528221
0.000548218
0.000572939
0.000594997
0.000617664
0.000641998
0.000663375
0.000688096
0.000710326
0.000734012
0.000757746
0.000780962
0.000805236
0.000828416
0.000852377
0.000876007
0.000899326
0.000923053
0.000945794
0.000968709
0.000991409
0.00101326
0.00103559
0.00105682
0.00107809
0.0010992
0.00111955
0.00113996
0.00116032
0.00117967
0.00119985
0.00121855
0.00123708
0.00125674
0.00127403
0.00129337
0.00131107
0.00132843
0.00134657
0.00136247
0.00137861
0.00139368
0.000159379
0.000157301
0.000155414
0.000153971
0.00015226
0.000151369
0.000149667
0.000149102
0.000147649
0.000146758
0.000146324
0.000144068
0.000145617
0.000141165
0.000144997
0.000138693
0.000143545
0.00013747
0.00014045
0.000137755
0.000135802
0.000138781
0.000130923
0.000138963
0.000127842
0.00013692
0.000127784
0.000133859
0.000131835
0.00013382
0.000140746
0.000141921
0.000155768
0.000161551
0.000179011
0.000193299
0.000211567
0.000235024
0.000253797
0.00028455
0.000305608
0.000340002
0.000366213
0.000401044
0.000427501
0.000452012
0.000479748
0.000502558
0.000531346
0.000554848
0.000581827
0.000607688
0.000632046
0.000659798
0.00068317
0.00071036
0.000734629
0.000759527
0.000785425
0.000808406
0.000834303
0.000856776
0.000880763
0.000903661
0.00092529
0.000948181
0.000968678
0.000990639
0.00101102
0.00103188
0.00105199
0.00107132
0.00109067
0.00110913
0.0011278
0.0011457
0.00116365
0.00118099
0.00119819
0.00121496
0.00123134
0.00124756
0.00126304
0.00127854
0.00129341
0.00130779
0.00132253
0.0013361
0.00135041
0.00136368
0.00137665
0.00139028
0.00140209
0.00141536
0.0014271
0.0014388
0.00145111
0.00146147
0.00147212
0.00148175
0.000159337
0.000157229
0.000155254
0.000153727
0.000151907
0.000150861
0.000148886
0.000148136
0.000145972
0.000145117
0.000143239
0.000141512
0.000140607
0.000137201
0.000137853
0.000132595
0.000134545
0.000128392
0.000129947
0.000125513
0.000126121
0.000126428
0.00012716
0.000133983
0.000137807
0.000151505
0.000161679
0.000181616
0.000200071
0.000224929
0.000251088
0.000279838
0.000312752
0.000345416
0.000379428
0.00040736
0.000437564
0.000466814
0.000495286
0.000525944
0.000552448
0.000583783
0.00060963
0.000639587
0.000665787
0.000692839
0.000719659
0.000743396
0.000769732
0.000791656
0.00081587
0.000837338
0.000858818
0.000880637
0.000899675
0.000920491
0.000938078
0.00095669
0.000974603
0.000991232
0.00100913
0.00102469
0.00104144
0.00105672
0.00107182
0.0010869
0.00110079
0.00111523
0.00112849
0.00114199
0.00115484
0.00116619
0.0011767
0.00118681
0.00119682
0.00120626
0.00121582
0.00122475
0.0012338
0.00124243
0.00125089
0.00125939
0.00126733
0.00127549
0.00128324
0.00129076
0.0012985
0.00130547
0.00131303
0.00131991
0.00132685
0.00133408
0.00134034
0.00134752
0.00135379
0.00136008
0.00136676
0.00137229
0.00137863
0.00138423
0.000159162
0.000157003
0.000154605
0.000152711
0.000150033
0.000147666
0.000143585
0.000140604
0.000135638
0.000132833
0.000128348
0.000125262
0.000121719
0.000119631
0.00011913
0.000119817
0.000124094
0.000129537
0.000139602
0.000151324
0.000167564
0.000186738
0.000209594
0.000237276
0.000267521
0.000302902
0.000338351
0.000377931
0.000410706
0.000444879
0.000476843
0.000508891
0.000540088
0.000569238
0.000598686
0.000625495
0.000652653
0.000677673
0.000702017
0.000725942
0.00074743
0.000770509
0.000789564
0.000809512
0.000823657
0.000837946
0.000851525
0.000863124
0.000876069
0.000886166
0.000897738
0.000907567
0.000917334
0.000927321
0.000935696
0.000945321
0.000953243
0.000961792
0.000969846
0.000977229
0.000985242
0.000992003
0.000999409
0.00100608
0.00101266
0.0010193
0.00102533
0.00103168
0.00103744
0.00104344
0.00104904
0.00105472
0.00106014
0.0010654
0.00107066
0.00107552
0.00108058
0.00108516
0.00108991
0.0010944
0.00109879
0.00110326
0.00110735
0.00111165
0.00111565
0.00111954
0.00112358
0.00112713
0.00113112
0.00113463
0.00113829
0.00114204
0.00114531
0.00114912
0.00115234
0.00115569
0.0011592
0.00116201
0.00116536
0.00116804
0.000158471
0.000156327
0.000150149
0.000144087
0.000134317
0.000124124
0.000114768
0.000109917
0.000108275
0.000111371
0.000116956
0.000125999
0.000137246
0.000151669
0.000168672
0.000188502
0.000211153
0.000236123
0.000263711
0.000293136
0.00032494
0.000359035
0.000395377
0.000433456
0.000465506
0.000496523
0.000525128
0.000552969
0.000576434
0.000596167
0.000612836
0.000628142
0.000642066
0.000654576
0.000666816
0.000677244
0.000687694
0.000696764
0.000705334
0.000713712
0.000720625
0.000728532
0.000734391
0.000741603
0.000747084
0.00075313
0.000758547
0.000763314
0.000768639
0.000772583
0.000777417
0.000781161
0.000785192
0.000789076
0.000792361
0.000796252
0.000799266
0.000802798
0.000805907
0.00080893
0.000812157
0.000814841
0.000817931
0.000820557
0.000823322
0.000825993
0.000828479
0.000831101
0.000833414
0.000835923
0.00083816
0.000840561
0.000842769
0.000844982
0.000847186
0.000849203
0.00085139
0.00085326
0.000855338
0.000857214
0.000859111
0.000861056
0.000862789
0.000864694
0.00086639
0.000868091
0.000869855
0.000871372
0.000873157
0.000874652
0.000876307
0.000877934
0.000879403
0.000881113
0.000882517
0.000884049
0.000885599
0.000886826
0.000888296
0.000889285
0.000160271
0.000142811
0.000113632
0.000103968
0.000102115
0.000110452
0.000119992
0.000140299
0.000152838
0.000167611
0.000185615
0.000205957
0.00022761
0.00024997
0.000272193
0.00029377
0.000314079
0.000332733
0.000349599
0.000364478
0.000377772
0.000389341
0.00039996
0.000409337
0.000418182
0.000426326
0.000433691
0.000440649
0.000446727
0.000452711
0.000457761
0.000462558
0.00046662
0.000470134
0.000473388
0.000475956
0.000478556
0.000480587
0.000482563
0.000484347
0.000485754
0.000487422
0.000488443
0.000490012
0.000490935
0.000492347
0.000493387
0.000494476
0.000495657
0.000496446
0.000497628
0.000498338
0.000499333
0.000500113
0.000500851
0.000501734
0.000502323
0.000503194
0.000503814
0.000504568
0.000505293
0.000505922
0.00050671
0.000507315
0.000508056
0.000508698
0.000509368
0.000510047
0.00051065
0.000511348
0.000511918
0.000512612
0.000513177
0.000513821
0.000514434
0.000515018
0.000515668
0.000516187
0.000516831
0.000517358
0.000517951
0.000518532
0.000519051
0.000519653
0.000520151
0.000520704
0.000521243
0.00052172
0.000522301
0.000522758
0.000523318
0.000523824
0.00052431
0.000524887
0.000525306
0.000525868
0.000526327
0.000526767
0.000527229
0.000527532
1.31095e-05
2.99525e-05
5.00845e-05
6.50512e-05
7.28755e-05
7.53205e-05
7.46051e-05
7.22727e-05
6.95989e-05
6.7136e-05
6.49392e-05
6.31778e-05
6.1911e-05
6.11444e-05
6.0806e-05
6.08216e-05
6.10691e-05
6.146e-05
6.19037e-05
6.23377e-05
6.27404e-05
6.30716e-05
6.33656e-05
6.35885e-05
6.37913e-05
6.39662e-05
6.41188e-05
6.42657e-05
6.43803e-05
6.45061e-05
6.45995e-05
6.47001e-05
6.47756e-05
6.48402e-05
6.48968e-05
6.49315e-05
6.49715e-05
6.4989e-05
6.50119e-05
6.50245e-05
6.50298e-05
6.50438e-05
6.50373e-05
6.50537e-05
6.50439e-05
6.50589e-05
6.5056e-05
6.50638e-05
6.50713e-05
6.50707e-05
6.50852e-05
6.50824e-05
6.5096e-05
6.50979e-05
6.51047e-05
6.51142e-05
6.51165e-05
6.51303e-05
6.51334e-05
6.51465e-05
6.51559e-05
6.51658e-05
6.51811e-05
6.51912e-05
6.5209e-05
6.52226e-05
6.52403e-05
6.52577e-05
6.52741e-05
6.52935e-05
6.53094e-05
6.53306e-05
6.53479e-05
6.537e-05
6.53897e-05
6.54108e-05
6.54337e-05
6.54528e-05
6.54776e-05
6.54976e-05
6.55223e-05
6.55458e-05
6.55689e-05
6.55954e-05
6.56182e-05
6.56445e-05
6.56691e-05
6.56932e-05
6.57206e-05
6.57439e-05
6.57722e-05
6.5797e-05
6.58243e-05
6.58524e-05
6.58778e-05
6.59083e-05
6.59344e-05
6.5966e-05
6.59996e-05
6.60355e-05
1.7951e-05
0.00132139
0.0023784
0.0031571
0.00386516
0.0044057
0.00481318
0.00491752
0.00490164
0.00486882
0.00483211
0.00480793
0.00481332
0.0048464
0.00489215
0.00494673
0.00501694
0.00511224
0.00520763
0.00529085
0.00532883
0.00530818
0.00523954
0.00509778
0.00489921
0.00470168
0.00449436
0.00427465
0.00415283
0.00410252
0.00401515
0.00395038
0.00383657
0.00365409
0.00340781
0.00320159
0.00296834
0.00271707
0.00261533
0.00265663
0.00276622
0.00299538
0.00329945
0.00352129
0.00360947
0.00362273
0.00362185
0.0036484
0.00372838
0.00384697
0.00395726
0.00401736
0.00401134
0.00394623
0.00383766
0.00369538
0.00352249
0.00332015
0.00309332
0.00284997
0.00259738
0.00234003
0.00207985
0.00181931
0.00156387
0.00132095
0.00109788
0.000900453
0.000731656
0.00059143
0.000477135
0.000385551
0.00031387
0.000259788
0.00022089
0.000194287
0.000176957
0.00016622
0.000159883
0.000156159
0.000153607
0.000151209
0.000148446
0.000145214
0.000141663
0.000138098
0.000134852
0.000132165
0.000130113
0.000128644
0.000127643
0.000126988
0.000126572
0.000126313
0.000126155
0.000126058
0.000126001
0.000125963
0.000125944
0.000125925
0.000332042
0.000828275
0.00172141
0.00250091
0.00319618
0.0037402
0.00416793
0.00446347
0.00467655
0.00469753
0.00465545
0.00463014
0.00462366
0.00463774
0.00466333
0.00469862
0.00475262
0.00483515
0.00492139
0.00498137
0.00501957
0.005004
0.0049481
0.00482748
0.00464642
0.00447219
0.00429747
0.00408446
0.00395265
0.00390828
0.00373343
0.00353523
0.00343175
0.00325497
0.00299624
0.00280655
0.00261854
0.00239456
0.0023455
0.00247751
0.00263462
0.00285111
0.00314906
0.00340235
0.00353664
0.00358527
0.00360136
0.00362874
0.00369903
0.00380357
0.00389974
0.00394818
0.00393334
0.00386119
0.00374835
0.00360601
0.0034368
0.00324037
0.00301988
0.00278213
0.00253393
0.00227927
0.00202006
0.00175911
0.00150231
0.00125785
0.00103373
0.000836426
0.000669961
0.000534339
0.000426747
0.000343512
0.000281091
0.000236081
0.000204863
0.000183924
0.000170297
0.000161731
0.000156552
0.000153439
0.000151276
0.000149216
0.000146785
0.000143889
0.000140679
0.000137436
0.000134452
0.000131953
0.000130022
0.000128628
0.000127667
0.000127031
0.000126619
0.000126359
0.000126195
0.000126095
0.000126033
0.000125995
0.000125973
0.000125956
0.000998469
0.000746299
0.00108772
0.00169266
0.00234952
0.00289378
0.00334403
0.00367139
0.00392083
0.0041079
0.00423967
0.00435584
0.00439526
0.00441465
0.0044449
0.00448613
0.00454822
0.00462069
0.00470042
0.00475401
0.0047834
0.00476753
0.00471919
0.00461746
0.00444226
0.00427063
0.00410598
0.00386666
0.00362541
0.00348
0.00325201
0.00304268
0.00295662
0.00279898
0.00254105
0.00239317
0.00228551
0.0021181
0.00214288
0.0023885
0.00260109
0.00277841
0.00302436
0.0032772
0.00344568
0.00352859
0.0035637
0.00359323
0.00365327
0.00374214
0.00382247
0.00385755
0.00383205
0.0037514
0.00363339
0.00349087
0.00332625
0.00313737
0.00292504
0.0026947
0.00245254
0.00220211
0.00194549
0.00168596
0.00142993
0.00118634
0.000963949
0.000770167
0.000609094
0.000480426
0.00038121
0.00030743
0.000254657
0.000218146
0.000193409
0.000176826
0.000165819
0.000158669
0.000154167
0.00015136
0.000149389
0.000147551
0.000145389
0.0001428
0.000139916
0.000137002
0.000134289
0.000131967
0.000130119
0.000128759
0.000127799
0.000127156
0.000126726
0.000126454
0.000126274
0.000126166
0.000126094
0.000126054
0.000126028
0.000126014
0.00118388
0.00115549
0.00107034
0.0011632
0.00152581
0.00194603
0.00237214
0.00271293
0.00299242
0.00322333
0.0033945
0.00354587
0.00369162
0.00383615
0.00398053
0.0041229
0.00427045
0.00434882
0.00442415
0.00449844
0.00452075
0.00449922
0.00444841
0.00435139
0.00414352
0.00387673
0.00360994
0.0032784
0.00303236
0.00290269
0.00268693
0.00247893
0.00242898
0.00231809
0.00208906
0.00201798
0.00203155
0.00196187
0.00207697
0.0024393
0.00271607
0.00283536
0.00297553
0.00317436
0.00334787
0.00345512
0.00350765
0.00353994
0.00358945
0.00366123
0.00372367
0.00374285
0.0037041
0.00361318
0.00348899
0.0033462
0.00318715
0.00300742
0.00280508
0.00258395
0.00234947
0.002105
0.001853
0.00159752
0.00134558
0.00110666
0.000890301
0.000704048
0.000551281
0.000431574
0.000342145
0.000278494
0.00023491
0.000205613
0.000185851
0.000172332
0.000163005
0.000156654
0.000152448
0.000149716
0.000147793
0.000146101
0.0001442
0.000141942
0.000139398
0.000136803
0.000134343
0.000132184
0.000130402
0.000129052
0.000128067
0.000127394
0.000126928
0.000126631
0.000126425
0.000126304
0.000126217
0.000126173
0.00012614
0.000126128
0.00137086
0.00137074
0.00135225
0.00127815
0.00128523
0.00135456
0.00155213
0.00177087
0.00200056
0.00223133
0.00241604
0.00258613
0.00275841
0.00292984
0.00310096
0.00326856
0.00344071
0.00359859
0.0037366
0.00385772
0.00391891
0.00389225
0.00382065
0.00367449
0.00341457
0.00314837
0.00289383
0.00257431
0.00234349
0.00225131
0.00207472
0.0019017
0.00192678
0.00190823
0.00175535
0.00178586
0.00193815
0.00199105
0.00218897
0.00264021
0.00298804
0.00305901
0.00305851
0.00314016
0.00326929
0.00337614
0.00343679
0.00346923
0.0035072
0.00356041
0.00360308
0.00360408
0.00354994
0.00344771
0.00331733
0.00317528
0.00302364
0.00285507
0.00266453
0.00245406
0.00222846
0.00199134
0.00174598
0.00149746
0.00125358
0.00102398
0.000817984
0.000642048
0.000499276
0.000389851
0.000310971
0.00025704
0.000221258
0.000197491
0.00018124
0.000169716
0.000161358
0.000155352
0.000151159
0.000148327
0.000146343
0.000144735
0.000143084
0.000141189
0.000139013
0.000136722
0.000134478
0.000132465
0.000130761
0.000129433
0.000128427
0.000127716
0.000127205
0.00012687
0.000126632
0.000126489
0.000126384
0.000126329
0.00012629