/*--------------------------------*- C++ -*----------------------------------*\
| =========                 |                                                 |
| \\      /  F ield         | OpenFOAM: The Open Source CFD Toolbox           |
|  \\    /   O peration     | Version:  v2012                                 |
|   \\  /    A nd           | Website:  www.openfoam.com                      |
|    \\/     M anipulation  |                                                 |
\*---------------------------------------------------------------------------*/
FoamFile
{
    version     2.0;
    format      ascii;
    class       volScalarField;
    location    "0.097";
    object      omega.air;
}
// * * * * * * * * * * * * * * * * * * * * * * * * * * * * * * * * * * * * * //

dimensions      [0 0 -1 0 0 0 0];


internalField   nonuniform List<scalar> 
5600
(
6586.26
7485.53
7886.77
7965.21
7866.34
7687.52
7480.91
7290.12
7125.21
6987.9
6878.79
6796.45
6736.08
6693.6
6663.46
6642.52
6626.84
6615.07
6605.07
6596.75
6589.34
6582.95
6577.57
6573.4
6570.19
6567.85
6566.19
6564.95
6563.95
6563.05
6562.04
6560.83
6559.42
6557.82
6556.18
6554.46
6552.88
6551.09
6549.53
6547.48
6546.06
6543.86
6542.99
6540.74
6540.95
6538.42
6539.69
6535.89
6538.05
6532.38
6535.95
6528.25
6534.16
6524.49
6533.25
6521.58
6532.59
6520.96
6530.28
6524.59
6524.3
6532.8
6515.84
6540.95
6511.75
6540.26
6519.86
6525.61
6539.98
6504.09
6559.04
6492.44
6561.32
6500.9
6543.08
6525.98
6513.74
6554.97
6489.62
6569.28
6489.6
6550.75
6527.6
6493.36
6594.52
6432
6635.71
6427.08
6598
6499.18
6495.07
6605
6405.41
6650.14
6431.12
6533.7
6639.38
6160.76
7186.3
4425.4
2450.53
2296.57
2571.67
2795.07
2928.19
2998.07
3010.27
2968.12
2969.06
3017.12
3073.6
3118.81
3147.35
3158.3
3155.07
3140.42
3118.26
3091.24
3062.18
3032.53
3003.24
2974
2944.97
2916.58
2889.17
2863.44
2839.44
2817.54
2797.3
2778.66
2761.66
2746.15
2732.01
2719.01
2707.1
2696.04
2686.1
2676.93
2668.78
2661.14
2654.42
2647.79
2642.01
2636.3
2631.36
2626.4
2622.31
2618.13
2614.81
2611.15
2608.47
2605.35
2603.51
2600.77
2600
2597.89
2598.09
2596.44
2596.99
2595.85
2596.29
2595.92
2595.68
2596.96
2595
2597.69
2595.46
2597.1
2596.42
2596.04
2598.54
2593.82
2600.18
2593.77
2598.91
2595.26
2597.29
2597.01
2594.78
2599.82
2593.17
2598.88
2595.79
2595.73
2599.52
2590.43
2606.97
2586.47
2605.74
2590.63
2600.39
2593.71
2597.51
2597.84
2603.29
2580.56
2635.97
2527.29
2709.39
2456.85
2358.55
1859.91
1592.17
1427.77
1346.17
1273.68
1280.06
1309.06
1352.01
1412.29
1482.45
1549.33
1611.3
1663.77
1705.03
1733.27
1749.24
1752.29
1744.47
1726.31
1702.54
1676.63
1653.66
1634.88
1619.5
1605.81
1593.18
1581.77
1571.12
1560.99
1551.01
1540.97
1531.21
1521.79
1512.92
1504.36
1496.34
1488.71
1481.73
1475.08
1469.17
1463.36
1458.2
1452.86
1448.39
1443.58
1439.87
1435.51
1432.54
1428.52
1426.39
1422.76
1421.7
1418.43
1418.65
1415.57
1416.97
1414.21
1415.91
1414.12
1414.61
1415.4
1412.81
1417.25
1411.78
1417.54
1413.27
1415.03
1417.17
1410.75
1421.27
1408.04
1421.95
1409.78
1418.44
1414.4
1413.15
1419.72
1408.62
1422.57
1408.73
1418.55
1416.74
1407.61
1429.45
1396.23
1436.77
1396.67
1428.79
1411.19
1411.92
1428.45
1399.63
1435.12
1404.08
1423.81
1422.42
1412.96
1421
1457.95
2345.17
1822.36
1493.24
1267.62
1111.21
992.524
906.962
846.81
802.827
776.483
760.669
769.315
791.815
823.881
861.143
902.04
941.538
978.363
1011.48
1039.37
1061.64
1078.94
1091.82
1100.75
1105.93
1106.98
1103.74
1096.9
1087.72
1077.88
1068.53
1060.59
1053.9
1047.94
1042.56
1037.48
1032.64
1027.97
1023.51
1019.14
1014.92
1010.56
1006.12
1001.52
997.144
992.539
988.445
983.876
980.23
975.914
973.189
969.48
968.065
964.981
965.068
962.189
963.587
960.88
962.82
960.971
961.575
962.503
959.736
964.372
958.829
964.442
960.559
961.522
964.845
956.993
968.655
955.033
968.388
957.53
964.584
962.3
959.528
966.981
955.895
968.729
957.412
963.954
966.068
952.636
978.359
942.903
981.647
948.235
970.395
965.657
953.17
982.325
942.339
988.146
947.824
976.213
969.422
966.316
973.5
982.116
2341.97
1815.97
1479.82
1247.91
1079.74
952.533
853.241
774.551
710.725
658.807
616.179
581.881
556.341
535.998
523.779
514.566
514.039
520.685
532.515
548.95
568.81
591.643
616.445
641.851
667.403
691.851
714.151
732.999
748.432
760.571
769.961
777.174
782.324
785.749
787.379
787.641
786.132
783.734
779.664
775.75
770.858
767.421
763.798
761.49
758.449
756.259
753.148
750.434
747.325
744.348
741.956
739.247
738.042
735.651
735.986
733.352
735.374
732.242
735.197
732.607
733.964
734.607
731.824
737.069
730.909
737.091
733.032
733.18
737.788
728.317
741.61
727.444
740.533
731.21
736.025
735.331
732.08
738.582
729.736
739.979
732.602
734.108
740.725
725.212
750.61
720.683
751.198
731.246
734.106
748.946
722.478
761.719
715.761
762.919
735.257
728.484
770.103
710.833
770.549
728.97
2341.13
1814.12
1476.76
1243.88
1074.18
945.318
844.343
763.122
696.609
641.005
594.203
553.998
519.729
489.791
464.237
441.815
422.721
406.823
393.669
383.276
375.418
370.188
367.54
368.811
373.334
381.1
391.716
405.104
420.322
437.364
454.956
473.307
491.364
508.916
524.915
539.842
552.475
563.993
572.701
580.622
585.501
590.677
593.272
597.39
598.469
601.722
600.696
602.507
598.744
599.339
593.848
594.412
589.471
589.955
587.994
586.223
589.618
582.998
592.351
582.062
592.689
585.842
588.421
592.801
582.331
597.472
582.351
594.71
590.903
587.709
597.945
583.427
599.216
583.022
598.235
586.22
596.783
590.78
592.237
596.219
587.132
596.161
598.506
584.879
613.576
583.219
606.244
595.994
586.824
618.157
567.054
636.22
560.487
616.84
600.884
555.081
652.549
533.048
629.772
568.788
2340.86
1813.44
1475.75
1242.6
1072.61
943.44
842.127
760.558
693.569
637.529
590.038
549.236
513.873
482.89
455.599
431.371
409.746
390.395
373.016
357.381
343.328
330.687
319.383
309.391
300.753
293.283
287.203
282.299
278.977
276.75
276.606
278.232
281.854
287.18
294.272
302.765
312.733
323.521
335.854
348.158
361.555
373.745
386.382
397.238
408.981
418.914
429.906
438.448
447.3
452.68
458.614
460.226
464.923
462.94
468.742
463.474
471.026
464.442
470.725
468.341
466.984
474.669
462.555
477.592
464.376
471.621
475.727
458.871
488.305
451.849
486.894
460.14
473.642
473.758
461.633
483.015
456.533
484.331
459.527
473.366
478.739
444.22
514.202
409.683
526.946
418.261
484.315
474.775
423.602
528.596
378.465
543.848
388.734
484.999
470.244
406.439
520.887
396.683
500.606
421.711
2340.75
1813.13
1475.32
1242.07
1071.99
942.74
841.332
759.693
692.596
636.477
588.867
547.96
512.451
481.323
453.834
429.369
407.47
387.746
369.911
353.683
338.901
325.341
312.924
301.451
290.935
281.155
272.206
263.857
256.276
249.184
242.846
236.971
231.944
227.234
223.639
220.08
218.134
215.531
215.686
214.428
217.701
217.409
223.962
223.667
233.5
232.835
247.229
246.589
266.433
263.891
287.441
280.101
304.007
293.011
311.103
305.218
306.628
319.778
293.97
332.695
284.769
331.85
294.254
309.413
323.83
275.952
351.986
256.022
353.801
268.255
325.91
304.278
287.106
342.293
252.636
366.485
238.892
355.239
271.323
297.288
344.223
222.274
404.659
179.722
398.178
218.528
323.45
305.976
240.048
378.191
194.206
378.114
238.688
310.043
300.17
283.231
309.578
276.996
316.751
288.676
2340.71
1812.97
1475.11
1241.82
1071.69
942.417
840.979
759.315
692.189
636.046
588.406
547.473
511.93
480.775
453.249
428.748
406.804
387.034
369.137
352.85
337.978
324.33
311.779
300.177
289.452
279.472
270.205
261.535
253.459
245.871
238.785
232.092
225.863
219.913
214.465
209.149
204.46
199.606
195.718
191.188
188.337
183.952
182.432
177.813
177.924
172.542
175.002
168.627
174.65
167.125
177.089
168.09
179.498
171.109
177.553
176.644
169.003
184.046
157.453
187.912
152.508
180.205
161.919
160.312
180.379
140.592
191.647
136.194
186.156
147.886
170.222
165.719
150.855
186.23
130.195
203.312
122.07
196.432
145.261
160.44
186.644
123.765
210.602
116.638
203.894
136.101
176.985
168.809
142.313
197.706
128.866
187.102
160.624
152.495
171.323
165.934
158.125
154.421
176.263
164.474
2340.68
1812.9
1475.01
1241.7
1071.56
942.272
840.822
759.148
692.011
635.86
588.21
547.268
511.715
480.551
453.014
428.504
406.549
386.769
368.858
352.562
337.672
324.014
311.441
299.828
289.073
279.079
269.772
261.079
252.949
245.322
238.162
231.415
225.061
219.042
213.378
207.98
202.921
198.032
193.5
189.017
184.986
180.846
177.332
173.446
170.435
166.644
164.169
160.383
158.63
154.853
153.916
150.215
149.581
146.38
144.742
143.135
138.983
140.112
133.226
136.54
129.379
131.691
128.52
126.181
129.424
122.198
129.63
121.259
128.148
122.491
125.767
124.94
122.247
129.111
117.541
133.134
115.812
131.684
121.012
123.9
129.661
116.162
135.131
113.375
135.188
115.746
129.831
123.523
119.898
133.474
112.011
136.917
112.197
135.93
111.554
137.197
118.212
118.236
140.655
103.616
2340.68
1812.91
1475.02
1241.72
1071.58
942.289
840.838
759.165
692.027
635.876
588.225
547.283
511.729
480.565
453.027
428.517
406.562
386.782
368.87
352.575
337.685
324.027
311.453
299.842
289.085
279.094
269.785
261.095
252.963
245.34
238.179
231.437
225.08
219.074
213.402
208.028
202.949
198.109
193.53
189.144
185.018
181.061
177.366
173.793
170.452
167.182
164.164
161.211
158.639
156.093
154.024
151.824
150.035
147.964
146.042
143.982
141.658
139.771
137.1
135.674
132.981
132.136
129.912
129.36
128.24
127.158
127.916
125.294
128.336
124.165
128.16
124.864
126.079
127.715
122.636
130.869
120.297
131.848
120.8
129.804
124.37
124.611
130.935
117.036
138.027
111.636
140.415
113.047
135.46
121.333
124.176
134.046
110.164
146.909
99.5469
152.986
101.069
141.891
120.619
116.457
2340.71
1813
1475.15
1241.86
1071.74
942.467
841.028
759.364
692.236
636.093
588.451
547.518
511.973
480.819
453.29
428.79
406.844
387.078
369.176
352.896
338.017
324.38
311.82
300.237
289.498
279.546
270.264
261.63
253.546
245.998
238.917
232.286
226.055
220.225
214.759
209.658
204.886
200.439
196.344
192.585
189.229
186.24
183.654
181.373
179.427
177.9
176.863
176.668
177.274
178.694
180.667
182.804
184.912
186.343
187.526
187.526
187.58
186.456
185.558
184.377
182.312
182.531
178.843
181.401
176.541
180.034
176.787
176.971
179.837
172.674
183.189
170.542
182.659
173.729
177.084
180.544
170.17
186.411
165.705
189.055
165.274
186.442
172.193
174.801
187.614
157.609
202.215
147.742
204.702
152.516
193.399
169.93
171.054
194.984
143.993
215.528
130.371
213.774
144.2
189.353
2340.76
1813.17
1475.39
1242.15
1072.07
942.822
841.415
759.774
692.678
636.555
588.947
548.037
512.529
481.401
453.917
429.451
407.559
387.848
370.012
353.818
339.036
325.53
313.113
301.74
291.232
281.605
272.69
264.57
257.078
250.337
244.228
238.865
234.153
230.265
227.086
224.8
223.203
222.703
223.357
225.24
228.348
232.575
237.663
243.486
250.019
257.597
266.313
276.145
286.56
297.026
306.715
315.167
322.018
327.241
331.201
333.547
335.555
335.95
336.933
336.463
336.555
336.605
335.03
337.389
333.105
338.542
332.013
338.326
333.504
335.132
338.058
329.846
342.947
326.455
343.734
328.662
338.634
336.126
329.696
345.657
320.33
353.262
315.677
352.666
322.704
339.419
340.764
319.81
357.799
306.119
364.423
304.379
359.748
314.961
344.449
335.806
320.45
358.564
298.494
369.732
2340.87
1813.49
1475.85
1242.71
1072.73
943.559
842.249
760.68
693.698
637.65
590.185
549.372
514.049
483.065
455.858
431.621
410.141
390.841
373.651
358.158
344.369
331.988
321.12
311.722
303.688
297.111
291.953
288.405
286.364
286.462
288.528
292.741
298.881
306.986
316.738
327.787
339.923
352.905
366.526
380.439
394.046
406.965
419.005
430.207
440.686
450.424
459.248
466.773
472.716
477.081
480.011
482.018
483.331
484.358
485.007
485.623
486.098
486.49
487.081
487.134
488.031
487.583
488.721
488.064
488.774
489.064
487.925
490.615
486.651
491.722
486.546
490.694
489.043
487.145
493.02
483.687
494.99
483.745
492.976
487.409
488.17
493.08
481.807
499.414
476.223
502.669
476.235
499.082
483.281
490.011
494.051
478.2
505.655
467.202
513.632
463.834
510.443
475.548
490.954
499.28
2341.15
1814.19
1476.91
1243.99
1074.37
945.47
844.552
763.344
696.871
641.359
594.594
554.624
520.5
490.956
465.772
443.817
425.833
410.629
398.931
389.599
383.738
380.08
380.969
385.394
393.437
404.643
418.857
435.268
453.438
472.382
491.879
511.231
529.614
546.672
561.765
574.923
585.88
594.998
602.077
607.613
611.935
615.246
617.771
619.638
620.798
621.069
620.378
618.69
616.197
613.201
610.175
607.551
605.549
604.19
603.237
602.826
602.577
602.7
602.844
603.025
603.49
603.349
604.238
603.536
604.714
603.896
604.533
604.769
603.623
605.992
602.683
606.51
603.039
605.252
605.135
602.821
607.367
601.348
607.933
601.714
606.794
603.623
604.073
607.309
599.801
611.772
596.217
613.697
596.429
611.483
600.915
605.158
609.144
595.896
618.814
587.395
623.975
586.815
618.076
598.016
2342.02
1815.98
1480.11
1247.97
1080.28
952.713
854.148
775.217
712.349
660.6
619.083
586.947
562.581
545.509
534.581
530.083
534.452
545.074
561.017
581.078
604.553
630.64
657.642
684.792
711.02
734.762
754.968
771.344
784.148
794.179
801.883
807.346
810.721
812.143
811.788
809.933
806.777
802.785
798.2
793.919
790.22
786.945
783.957
781.123
778.285
775.321
772.241
769.119
766.057
763.138
760.484
758.163
756.163
754.596
753.429
752.679
752.188
751.974
751.874
751.834
751.942
751.865
752.204
752
752.455
752.254
752.408
752.691
752.052
753.233
751.685
753.439
751.883
752.849
752.859
751.705
753.925
750.923
754.276
751.043
753.726
751.999
752.349
753.767
750.243
755.928
748.358
757.134
748.076
756.321
749.921
753.476
753.588
748.922
758.645
743.739
762.904
740.715
762.859
742.36
2345.25
1822.39
1493.86
1268.16
1113.23
994.173
912.584
852.048
814.487
787.86
783.676
800.125
829.067
866.037
907.63
950.248
990.276
1026.99
1058.26
1083.62
1103.44
1118.46
1129.06
1135.74
1137.47
1134.76
1127.97
1118.68
1108.65
1099.5
1091.83
1085.11
1078.96
1073.23
1067.83
1062.69
1057.79
1052.94
1048.2
1043.23
1038.12
1032.99
1027.89
1022.91
1018.08
1013.39
1008.85
1004.54
1000.5
996.848
993.648
990.922
988.684
986.94
985.616
984.662
983.995
983.557
983.282
983.094
983.047
982.942
983.086
983.028
983.274
983.24
983.301
983.546
983.133
983.877
982.938
984.015
983.039
983.709
983.604
983.004
984.298
982.462
984.6
982.437
984.341
982.981
983.493
984.084
982.168
985.459
980.93
986.352
980.536
986.073
981.473
984.496
983.512
981.937
986.362
978.672
989.445
975.548
990.684
973.157
2358.73
1860.91
1594.77
1434.01
1354
1288.96
1305.28
1337.31
1392.08
1465.16
1539.74
1610.27
1672.38
1723.06
1760.09
1783.38
1792.53
1788.85
1773.32
1750.19
1724.15
1700.71
1682.16
1666.52
1652.51
1639.48
1627.39
1615.96
1604.95
1593.83
1582.71
1571.88
1561.56
1551.77
1542.49
1533.69
1525.45
1517.71
1510.57
1503.92
1497.72
1491.81
1486.2
1480.92
1475.99
1471.43
1467.22
1463.36
1459.83
1456.65
1453.84
1451.43
1449.37
1447.69
1446.37
1445.35
1444.59
1444.03
1443.65
1443.38
1443.28
1443.15
1443.24
1443.24
1443.44
1443.46
1443.52
1443.73
1443.41
1444.01
1443.26
1444.13
1443.34
1443.93
1443.73
1443.4
1444.31
1442.92
1444.62
1442.83
1444.47
1443.2
1443.84
1444.07
1442.8
1445.18
1441.76
1445.93
1441.43
1445.78
1442.07
1444.62
1443.6
1442.79
1445.51
1440.62
1447.33
1438.04
1447.79
1434.92
2454.74
2305.68
2580.46
2808.64
2934.24
3010.03
2994.57
2967.44
3014.83
3085.64
3150.02
3196.62
3222.41
3229.88
3222.23
3203.95
3178.35
3148.81
3117.79
3086.33
3054.82
3023.05
2991.97
2961.67
2933.61
2907.2
2882.92
2860.49
2839.89
2820.93
2803.61
2787.84
2773.49
2760.31
2748.16
2737.03
2726.88
2717.68
2709.3
2701.72
2694.65
2688.06
2681.94
2676.18
2670.85
2666.01
2661.62
2657.67
2654.1
2650.91
2648.08
2645.59
2643.46
2641.65
2640.19
2639.02
2638.15
2637.48
2637.04
2636.75
2636.58
2636.49
2636.54
2636.66
2636.8
2636.89
2637
2637.05
2637.04
2637.2
2636.99
2637.31
2637
2637.3
2637.05
2637.22
2637.23
2636.97
2637.5
2636.81
2637.53
2636.86
2637.42
2637.04
2637.16
2637.45
2636.62
2637.97
2636.29
2638.09
2636.32
2637.95
2636.58
2637.46
2637.3
2636.58
2637.56
2635.29
2636.63
2631.77
6588.08
7481.92
7876.77
7936
7826.38
7629.93
7415.09
7222.08
7053.53
6914.36
6805.4
6723.4
6664.03
6621.63
6591.85
6570.23
6554.29
6541.57
6531.21
6522.48
6514.93
6508.9
6504.01
6500.32
6497.42
6495.1
6493.32
6491.83
6490.44
6489
6487.35
6485.49
6483.41
6481.18
6478.91
6476.68
6474.46
6472.25
6470.03
6467.84
6465.71
6463.71
6461.99
6460.63
6459.57
6458.64
6457.69
6456.59
6455.3
6453.87
6452.32
6450.83
6449.39
6448.18
6447.12
6446.32
6445.74
6445.32
6445.21
6444.97
6445.28
6445.07
6445.63
6445.43
6445.76
6446
6445.39
6446.89
6444.6
6447.81
6444.03
6447.94
6444.68
6446.53
6446.81
6444.03
6449.26
6442.17
6450.22
6442.35
6448.93
6444.73
6445.59
6448.98
6440.86
6453.66
6437.2
6455.59
6437.78
6452.53
6443.23
6445.52
6451.33
6437.51
6458.88
6432.17
6462.7
6433.56
6462.02
6444.57
3896.2
2784.83
2190.92
1838.57
1614.37
1449.07
1343.72
1271.38
1161.5
1144.73
1143.33
885.4
517.184
249.801
139.216
118.376
123.307
132.635
194.1
272.054
315.461
318.802
296.633
263.8
230.989
203.749
183.089
167.915
156.909
148.948
143.119
138.668
135.046
131.927
129.184
126.819
124.891
123.451
122.495
121.927
121.568
121.242
120.868
120.473
120.107
119.809
119.6
119.477
119.415
119.386
119.373
119.367
119.365
119.364
119.363
119.362
119.362
119.362
119.362
119.362
119.362
119.362
119.362
119.362
119.362
119.362
119.362
119.362
119.362
119.362
119.362
119.362
119.362
119.362
119.361
119.362
119.361
119.362
119.361
119.362
119.361
119.362
119.361
119.362
119.361
119.363
119.361
119.363
119.361
119.363
119.361
119.362
119.361
119.362
119.36
119.361
119.359
119.358
119.355
119.356
2566.59
2615.15
2270.26
1919.15
1686.52
1495.74
1375.11
1285.6
1156.27
1159.67
1115.12
737.333
364.905
178.921
120.75
123.363
128.42
121.265
145.361
206.995
254.562
266.277
251.012
225.065
200.335
181.357
167.747
157.862
150.457
144.804
140.415
136.883
133.876
131.183
128.728
126.542
124.706
123.297
122.333
121.742
121.377
121.074
120.744
120.396
120.072
119.799
119.595
119.467
119.399
119.364
119.348
119.34
119.336
119.333
119.332
119.332
119.331
119.331
119.331
119.331
119.331
119.331
119.331
119.331
119.331
119.331
119.331
119.331
119.331
119.331
119.331
119.331
119.331
119.332
119.33
119.332
119.33
119.332
119.33
119.332
119.33
119.332
119.33
119.332
119.33
119.332
119.329
119.333
119.329
119.333
119.329
119.333
119.329
119.333
119.328
119.333
119.327
119.332
119.327
119.335
1364.52
1730.33
1969.88
1844.25
1699.02
1519.17
1400.6
1291.53
1150.19
1181.15
1014.47
530.482
241.355
133.654
99.9496
123.651
134.915
126.215
126.421
160.786
199.606
214.304
206.573
190.481
175.761
164.999
157.259
151.248
146.273
142.1
138.614
135.658
133.05
130.648
128.402
126.348
124.58
123.185
122.2
121.581
121.208
120.933
120.655
120.357
120.066
119.811
119.612
119.479
119.401
119.359
119.337
119.325
119.318
119.315
119.313
119.312
119.312
119.311
119.311
119.311
119.311
119.311
119.311
119.311
119.311
119.311
119.311
119.312
119.311
119.312
119.311
119.312
119.31
119.312
119.31
119.312
119.31
119.312
119.31
119.313
119.309
119.313
119.309
119.313
119.309
119.314
119.308
119.314
119.308
119.314
119.308
119.315
119.307
119.315
119.307
119.316
119.307
119.318
119.31
119.33
977.998
1025.38
1229.68
1422.95
1513.72
1448.7
1385.08
1257.85
1137.56
1174.29
769.839
310.637
163.233
111.694
103.156
149.215
163.038
145.099
129.748
140.511
164.074
176.398
174.653
167.473
160.672
155.469
151.259
147.425
143.786
140.428
137.444
134.822
132.462
130.261
128.17
126.222
124.505
123.113
122.098
121.443
121.056
120.806
120.582
120.335
120.079
119.842
119.653
119.518
119.432
119.38
119.35
119.333
119.323
119.318
119.315
119.314
119.313
119.312
119.312
119.312
119.312
119.312
119.312
119.312
119.312
119.312
119.311
119.312
119.311
119.312
119.311
119.313
119.311
119.313
119.311
119.313
119.31
119.313
119.31
119.314
119.31
119.314
119.309
119.315
119.309
119.315
119.308
119.316
119.308
119.316
119.307
119.317
119.306
119.318
119.306
119.321
119.308
119.326
119.315
119.346
745.717
803.473
716.42
904.854
1003.56
1126.23
1215.58
1095.33
1099.56
968.617
374.09
178.329
135.649
103.928
118.806
190.122
213.594
180.816
147.297
139.374
148.745
156.724
157.962
155.873
153.251
150.759
148.199
145.384
142.386
139.427
136.694
134.248
132.038
129.976
128.008
126.15
124.477
123.084
122.033
121.332
120.916
120.674
120.491
120.296
120.082
119.878
119.708
119.577
119.485
119.424
119.386
119.363
119.349
119.342
119.337
119.335
119.334
119.333
119.333
119.332
119.332
119.332
119.332
119.332
119.332
119.332
119.332
119.333
119.332
119.333
119.331
119.333
119.331
119.333
119.331
119.334
119.33
119.334
119.33
119.334
119.33
119.335
119.329
119.336
119.328
119.336
119.328
119.337
119.327
119.338
119.326
119.339
119.326
119.34
119.326
119.343
119.329
119.351
119.34
119.379
587.87
643.974
562.09
646.207
619.238
708.267
763.49
718.682
864.848
385.46
120.177
160.098
118.598
101.643
170.773
270.351
300.876
249.646
186.803
154.633
148.865
150.997
152.128
151.633
150.418
148.832
146.835
144.395
141.651
138.855
136.225
133.858
131.732
129.766
127.897
126.121
124.494
123.103
122.016
121.259
120.793
120.53
120.366
120.218
120.056
119.896
119.752
119.632
119.539
119.473
119.429
119.401
119.384
119.374
119.368
119.365
119.363
119.362
119.361
119.361
119.361
119.361
119.361
119.361
119.361
119.361
119.361
119.361
119.36
119.362
119.36
119.362
119.36
119.362
119.36
119.363
119.359
119.363
119.359
119.363
119.358
119.364
119.358
119.364
119.357
119.365
119.356
119.366
119.356
119.367
119.355
119.368
119.355
119.369
119.355
119.373
119.358
119.382
119.371
119.412
483.264
455.783
481.593
450.704
462.805
493.024
389.273
497.09
271.198
88.8248
154.02
161.438
100.091
136.625
277.399
398.459
429.384
358.733
259.759
193.65
165.398
156.888
154.276
152.552
150.791
148.876
146.691
144.17
141.403
138.6
135.965
133.604
131.509
129.603
127.811
126.109
124.532
123.152
122.038
121.223
120.693
120.383
120.21
120.093
119.981
119.862
119.745
119.641
119.555
119.491
119.447
119.419
119.401
119.391
119.384
119.381
119.379
119.378
119.377
119.377
119.377
119.377
119.377
119.377
119.376
119.377
119.376
119.377
119.376
119.377
119.376
119.377
119.376
119.378
119.375
119.378
119.375
119.378
119.375
119.379
119.374
119.379
119.374
119.38
119.373
119.381
119.372
119.381
119.372
119.382
119.371
119.383
119.371
119.385
119.371
119.388
119.375
119.396
119.387
119.426
297.681
301.25
311.472
300.497
296.9
267.41
283.644
233.051
164.859
154.682
156.637
126.871
111.111
244.972
448.207
571.749
595.554
516.527
379.036
265.64
204.857
178.418
166.487
159.799
155.197
151.535
148.254
145.06
141.884
138.824
136.019
133.55
131.403
129.498
127.747
126.102
124.574
123.215
122.086
121.225
120.632
120.267
120.064
119.95
119.865
119.778
119.687
119.602
119.533
119.48
119.444
119.42
119.405
119.396
119.391
119.388
119.386
119.385
119.385
119.384
119.384
119.384
119.384
119.384
119.384
119.384
119.384
119.384
119.384
119.385
119.383
119.385
119.383
119.385
119.383
119.385
119.383
119.386
119.382
119.386
119.382
119.387
119.381
119.387
119.381
119.388
119.38
119.388
119.38
119.389
119.379
119.39
119.379
119.391
119.379
119.394
119.382
119.401
119.392
119.428
152.34
158.698
174.696
181.698
131.178
170.64
125.522
143.451
137.178
82.971
136.227
146.718
212.447
440.717
665.651
767.602
765.912
690.463
551.375
397.211
283.902
222.576
193.23
177.614
167.509
159.991
153.934
148.791
144.286
140.327
136.911
134.033
131.632
129.594
127.801
126.169
124.667
123.319
122.176
121.28
120.638
120.223
119.98
119.848
119.768
119.698
119.63
119.568
119.518
119.482
119.458
119.443
119.433
119.427
119.424
119.422
119.421
119.421
119.42
119.42
119.42
119.42
119.42
119.42
119.42
119.42
119.42
119.42
119.419
119.42
119.419
119.421
119.419
119.421
119.419
119.421
119.418
119.422
119.418
119.422
119.418
119.423
119.417
119.423
119.416
119.424
119.416
119.424
119.415
119.425
119.415
119.426
119.414
119.427
119.414
119.43
119.416
119.436
119.425
119.458
145.835
98.3526
152.157
111.853
124.108
136.939
87.8612
161.11
90.0153
135.938
206.003
212.653
385.62
675.122
883.218
942.848
908.947
826.407
706.762
562.431
426.58
326.883
262.95
223.645
198.973
182.229
169.764
159.915
151.938
145.472
140.297
136.234
133.078
130.592
128.55
126.777
125.179
123.74
122.505
121.522
120.805
120.328
120.038
119.874
119.782
119.719
119.67
119.63
119.602
119.583
119.572
119.565
119.562
119.56
119.559
119.559
119.559
119.559
119.559
119.559
119.558
119.559
119.558
119.559
119.558
119.559
119.558
119.559
119.558
119.559
119.558
119.559
119.557
119.56
119.557
119.56
119.556
119.561
119.556
119.561
119.555
119.562
119.554
119.563
119.554
119.564
119.553
119.565
119.552
119.566
119.551
119.567
119.55
119.569
119.549
119.572
119.551
119.579
119.56
119.601
144.144
96.8166
158.54
90.3397
154.641
109.531
128.836
155.082
114.117
219.106
255.732
366.161
668.315
950.974
1078.69
1073.96
1014.09
926.252
816.21
688.406
560.938
453.656
372.758
314.051
270.882
238.139
212.674
192.493
176.32
163.457
153.49
146.031
140.569
136.491
133.244
130.468
128.002
125.826
124.004
122.588
121.575
120.903
120.489
120.252
120.125
120.059
120.024
120.008
120.004
120.006
120.01
120.015
120.019
120.022
120.024
120.025
120.026
120.026
120.026
120.027
120.027
120.027
120.027
120.027
120.026
120.027
120.026
120.027
120.026
120.028
120.025
120.029
120.024
120.03
120.023
120.031
120.022
120.032
120.02
120.034
120.018
120.036
120.016
120.039
120.013
120.041
120.011
120.045
120.007
120.048
120.004
120.052
120.001
120.058
119.999
120.066
120.002
120.083
120.023
120.131
172.925
160.91
196.854
138.323
213.97
142.728
220.647
201.779
235.415
365.276
421.815
629.46
949.788
1156.87
1191.02
1147.33
1085.5
1004.36
900.337
780.28
661.971
558.803
476.452
412.875
363.37
324.002
291.522
263.594
238.843
217.013
198.589
183.861
172.38
163.107
155.024
147.625
140.88
135.027
130.374
126.996
124.729
123.288
122.425
121.953
121.738
121.68
121.708
121.775
121.852
121.922
121.976
122.016
122.043
122.059
122.07
122.076
122.079
122.081
122.082
122.082
122.083
122.083
122.083
122.083
122.082
122.084
122.082
122.085
122.081
122.086
122.079
122.088
122.076
122.092
122.071
122.098
122.065
122.104
122.058
122.112
122.05
122.121
122.039
122.133
122.027
122.146
122.013
122.161
121.997
122.18
121.98
122.202
121.962
122.231
121.953
122.274
121.97
122.366
122.075
122.597
295.746
360.27
308.014
341.524
346.04
317.714
401.728
349.886
467.274
541.91
592.908
868.942
1190.83
1306.78
1235.4
1168.08
1122.43
1061.72
970.066
856.981
745.467
648.219
568.519
504.906
454.438
413.874
379.902
349.747
321.739
295.647
272.233
252.113
234.868
219.344
204.749
190.785
177.325
164.702
153.766
145.267
139.298
135.345
132.938
131.702
131.316
131.46
131.864
132.346
132.799
133.167
133.435
133.616
133.733
133.805
133.848
133.872
133.886
133.893
133.897
133.899
133.9
133.901
133.9
133.903
133.899
133.905
133.897
133.907
133.894
133.91
133.889
133.917
133.879
133.932
133.86
133.955
133.834
133.981
133.808
134.009
133.777
134.045
133.736
134.091
133.686
134.146
133.626
134.216
133.551
134.304
133.466
134.415
133.379
134.556
133.336
134.761
133.422
135.197
133.914
136.286
464.964
514.966
452.332
521.108
468.795
512.664
527.738
509.513
641.23
630.731
761.259
1151.54
1437.8
1384.9
1203.76
1126.99
1108.67
1081.78
1016.07
919.087
817.204
726.745
651.137
589.006
537.621
494.39
457.37
424.551
394.326
366.137
340.384
317.466
296.869
277.426
259.008
242.962
230.138
219.375
209.181
199.491
191.085
184.76
180.871
179.353
179.699
181.117
182.91
184.653
186.127
187.254
188.045
188.565
188.889
189.084
189.197
189.261
189.296
189.315
189.324
189.33
189.331
189.336
189.331
189.339
189.328
189.344
189.323
189.349
189.318
189.355
189.309
189.369
189.287
189.403
189.241
189.461
189.175
189.529
189.108
189.595
189.038
189.675
188.946
189.779
188.833
189.905
188.69
190.082
188.491
190.331
188.237
190.661
187.963
191.096
187.789
191.718
187.982
192.945
189.386
195.904
600.034
614.726
582.386
632.769
580.354
646.964
616.949
659.488
750.894
727.256
1051.35
1509.28
1632.48
1356.98
1108.47
1044.41
1048.33
1049.68
1014.25
943.274
858.664
777.234
704.388
641.886
589.768
546.692
510.612
479.352
451.155
425.159
401.303
379.639
359.565
339.996
320.833
304.649
295.042
292.024
292.087
292.457
292.504
292.744
293.852
296.103
299.187
302.449
305.401
307.842
309.701
311.012
311.878
312.423
312.751
312.942
313.05
313.11
313.142
313.159
313.167
313.172
313.172
313.177
313.172
313.18
313.169
313.186
313.163
313.192
313.157
313.198
313.152
313.204
313.14
313.224
313.109
313.269
313.051
313.335
312.984
313.398
312.924
313.461
312.854
313.542
312.762
313.649
312.641
313.808
312.454
314.071
312.17
314.491
311.796
315.154
311.443
316.225
311.506
318.248
313.32
322.771
754.86
750.185
743.141
767.46
735.949
801.729
748.595
858.503
877.195
974.662
1497.28
1892.56
1699.96
1244.91
1026.52
981.271
982.662
986.63
965.588
915.405
847.008
775.386
709.125
653.045
608.517
573.851
545.969
522.397
501.609
482.958
466.332
451.654
438.568
426.473
415.078
405.15
399.149
400.126
407.539
417.378
426.693
434.548
441.01
446.364
450.714
454.076
456.579
458.411
459.702
460.553
461.077
461.385
461.557
461.651
461.699
461.724
461.737
461.743
461.746
461.747
461.748
461.748
461.748
461.749
461.747
461.751
461.745
461.754
461.742
461.756
461.742
461.753
461.748
461.745
461.757
461.74
461.753
461.753
461.734
461.774
461.717
461.785
461.709
461.798
461.688
461.833
461.649
461.895
461.574
462.043
461.405
462.384
461.086
463.103
460.627
464.517
460.382
467.355
461.911
473.337
988.006
973.687
982.377
987.854
982.828
1030.49
998.372
1143.18
1124.58
1455.52
2093.88
2210.42
1622.22
1158.34
1015.57
974.865
953.179
937.94
913.562
871.786
816.431
759.896
710.897
673.388
647.58
630.474
617.913
607.715
599.107
592.042
586.673
582.946
580.533
579.255
579.312
581.097
584.805
589.96
596.31
603.683
611.287
618.304
624.386
629.516
633.714
636.989
639.464
641.305
642.618
643.495
644.039
644.359
644.54
644.64
644.693
644.72
644.734
644.741
644.744
644.745
644.746
644.747
644.747
644.747
644.747
644.747
644.747
644.748
644.745
644.749
644.745
644.748
644.75
644.741
644.759
644.732
644.765
644.731
644.761
644.737
644.756
644.74
644.756
644.743
644.749
644.765
644.724
644.82
644.664
644.967
644.517
645.327
644.213
646.196
643.703