/*--------------------------------*- C++ -*----------------------------------*\
| =========                 |                                                 |
| \\      /  F ield         | OpenFOAM: The Open Source CFD Toolbox           |
|  \\    /   O peration     | Version:  v2012                                 |
|   \\  /    A nd           | Website:  www.openfoam.com                      |
|    \\/     M anipulation  |                                                 |
\*---------------------------------------------------------------------------*/
FoamFile
{
    version     2.0;
    format      ascii;
    class       volScalarField;
    location    "0.324";
    object      p;
}
// * * * * * * * * * * * * * * * * * * * * * * * * * * * * * * * * * * * * * //

dimensions      [0 2 -2 0 0 0 0];


internalField   nonuniform List<scalar> 
1900
(
-299.622
-300.722
-301.622
-302.283
-302.96
-303.727
-304.532
-305.361
-305.973
-306.577
-300.077
-300.876
-301.703
-302.379
-303.06
-303.821
-304.631
-305.47
-306.23
-307.05
-300.363
-300.928
-301.695
-302.409
-303.106
-303.867
-304.693
-305.577
-306.47
-307.715
-300.547
-300.991
-301.725
-302.468
-303.178
-303.94
-304.784
-305.709
-306.721
-308.095
-300.645
-301.039
-301.753
-302.505
-303.22
-303.986
-304.847
-305.807
-306.888
-308.277
-300.661
-301.06
-301.78
-302.535
-303.253
-304.027
-304.904
-305.889
-307.004
-308.371
-300.596
-301.056
-301.806
-302.557
-303.276
-304.06
-304.951
-305.951
-307.078
-308.402
-300.445
-301.036
-301.83
-302.556
-303.269
-304.065
-304.969
-305.979
-307.109
-308.391
-300.188
-301.029
-301.891
-302.579
-303.276
-304.077
-304.985
-305.995
-307.118
-308.36
-299.754
-300.929
-301.881
-302.561
-303.259
-304.073
-304.992
-306.009
-307.135
-308.357
-305.92
-318.28
-337.562
-339.208
-320.079
-286.053
-243.018
-198.245
-157.325
-122.522
-94.1748
-71.7753
-54.3078
-40.7308
-30.1687
-21.8652
-15.231
-9.85926
-5.48684
-1.89867
1.09834
3.64014
5.80506
7.64257
9.21295
10.5724
11.7524
12.7835
13.676
14.448
15.118
15.6994
16.204
16.6353
16.9963
17.2988
17.5513
17.7585
17.9252
18.0538
18.1476
18.2092
18.2404
18.2453
18.2261
18.1836
18.1185
18.0329
17.9293
17.8097
17.6744
17.523
17.3566
17.1765
16.9835
16.7792
16.5645
16.3389
16.1025
15.8558
15.5996
15.3346
15.0615
14.7801
14.49
14.1915
13.8851
13.5713
13.2501
12.9218
12.5865
12.2441
11.8948
11.5388
11.1761
10.8071
10.4316
10.0499
9.66191
9.26791
8.86781
8.46203
8.05034
7.6331
7.21009
6.78154
6.34743
5.90798
5.46325
5.01339
4.55852
4.09881
3.63412
3.16497
2.69014
2.21243
1.72483
1.24263
0.733533
0.279207
-309.337
-321.606
-333.413
-332.127
-313.079
-280.334
-239.749
-197.441
-158.326
-124.584
-96.6668
-74.2578
-56.5693
-42.6761
-31.7772
-23.1505
-16.2357
-10.6424
-6.09633
-2.36691
0.733945
3.34555
5.56463
7.45152
9.06149
10.4507
11.6511
12.6956
13.598
14.3777
15.0515
15.6342
16.1364
16.5645
16.9282
17.2349
17.4913
17.7024
17.8727
18.0048
18.102
18.1665
18.1993
18.2053
18.187
18.1449
18.0803
17.9953
17.8928
17.7743
17.6398
17.4887
17.3227
17.143
16.9504
16.7465
16.5323
16.3073
16.0713
15.8249
15.5688
15.3041
15.0314
14.7501
14.4602
14.1619
13.8557
13.542
13.2211
12.8929
12.5577
12.2154
11.8662
11.5102
11.1476
10.7786
10.4032
10.0214
9.63346
9.2394
8.83929
8.43345
8.02173
7.60441
7.18135
6.75278
6.31866
5.87922
5.43454
4.98478
4.53006
4.07057
3.60636
3.13767
2.66449
2.18741
1.70544
1.22185
0.729547
0.251889
-310.271
-317.92
-326.263
-324.072
-306.103
-275.372
-237.269
-197.132
-159.472
-126.583
-99.0048
-76.5774
-58.6839
-44.5173
-33.3275
-24.4287
-17.2852
-11.5137
-6.82233
-2.967
0.245523
2.94813
5.23312
7.17687
8.84465
10.2821
11.516
12.5831
13.5067
14.3048
14.9895
15.5778
16.0831
16.5132
16.8808
17.1904
17.448
17.6602
17.8313
17.9641
18.061
18.1231
18.1543
18.161
18.144
18.103
18.0396
17.9559
17.855
17.7386
17.6059
17.456
17.2912
17.1122
16.9202
16.7164
16.5018
16.2765
16.0405
15.7943
15.5384
15.2739
15.0016
14.7206
14.4309
14.133
13.8272
13.5136
13.1929
12.8648
12.5298
12.1876
11.8384
11.4824
11.1199
10.7508
10.3754
9.99361
9.60561
9.21149
8.81132
8.40539
7.9936
7.57619
7.15307
6.72443
6.29031
5.85086
5.40622
4.95653
4.50198
4.04268
3.57897
3.11074
2.63925
2.16289
1.68652
1.20185
0.727114
0.223764
-310.492
-316.294
-321.939
-318.557
-301.089
-271.666
-235.201
-196.613
-160.107
-127.974
-100.756
-78.3813
-60.3628
-45.9974
-34.5806
-25.4622
-18.1315
-12.2094
-7.39095
-3.42755
-0.131959
2.62919
4.95743
6.93492
8.62846
10.0855
11.3341
12.4112
13.3482
14.1619
14.8619
15.4638
15.9821
16.4268
16.8098
17.1328
17.4004
17.6198
17.7962
17.9326
18.0308
18.0925
18.1237
18.1315
18.1152
18.0743
18.0105
17.9266
17.8249
17.707
17.5731
17.4234
17.2593
17.0807
16.889
16.6857
16.4711
16.2457
16.0102
15.7645
15.5093
15.245
14.972
14.6907
14.4012
14.1036
13.7982
13.4848
13.1643
12.8363
12.5014
12.1593
11.8102
11.4543
11.0916
10.7226
10.3471
9.96525
9.57713
9.18294
8.78268
8.37662
7.96472
7.54718
7.12401
6.69529
6.26118
5.82172
5.37716
4.92753
4.47317
4.01409
3.55088
3.08314
2.61335
2.13774
1.66708
1.18108
0.723991
0.195999
-310.518
-314.805
-318.112
-313.455
-296.276
-267.995
-233.032
-195.926
-160.558
-129.156
-102.291
-79.9813
-61.8644
-47.329
-35.7145
-26.4059
-18.9101
-12.8506
-7.91764
-3.85645
-0.483968
2.3329
4.70599
6.72212
8.44582
9.92646
11.1954
12.2887
13.2372
14.06
14.7687
15.3764
15.8989
16.3458
16.7282
17.0523
17.3215
17.5416
17.7204
17.8608
17.9636
18.0312
18.0695
18.083
18.0715
18.0355
17.9766
17.8969
17.7977
17.6804
17.5468
17.3981
17.2352
17.0572
16.8657
16.6624
16.4477
16.2223
15.9866
15.7407
15.4853
15.2203
14.946
14.6635
14.3735
14.0756
13.7697
13.4559
13.1349
12.8065
12.4713
12.1288
11.7795
11.4234
11.0606
10.6914
10.3158
9.93386
9.54567
9.15148
8.75136
8.34541
7.93357
7.51602
7.09291
6.66423
6.23023
5.79083
5.34643
4.89693
4.44284
3.98403
3.52136
3.05418
2.58602
2.11131
1.6459
1.15931
0.718403
0.171097
-310.4
-313.509
-315.041
-309.398
-292.508
-265.228
-231.493
-195.55
-161.046
-130.178
-103.568
-81.2951
-63.0947
-48.4215
-36.6408
-27.1738
-19.5465
-13.3754
-8.34763
-4.20922
-0.776265
2.0872
4.49752
6.54445
8.29161
9.78877
11.0728
12.1782
13.1361
13.9656
14.6803
15.2948
15.8226
16.2742
16.6603
16.989
17.2636
17.4881
17.6678
17.8084
17.9125
17.9825
18.022
18.0347
18.0215
17.9841
17.9246
17.8448
17.7458
17.6292
17.497
17.35
17.1885
17.0125
16.8232
16.6217
16.4088
16.1851
15.9509
15.7063
15.4517
15.1873
14.9137
14.632
14.3423
14.0443
13.7381
13.4239
13.1025
12.7736
12.4381
12.0952
11.7455
11.3892
11.0263
10.657
10.2814
9.89939
9.51131
9.11721
8.71724
8.31132
7.89959
7.48212
7.05915
6.6306
6.19677
5.75754
5.31335
4.86407
4.41028
3.95183
3.4897
3.02318
2.55647
2.08289
1.62172
1.13606
0.707813
0.152307
-310.21
-312.446
-312.668
-306.232
-289.501
-262.955
-230.134
-195.078
-161.264
-130.842
-104.475
-82.2759
-64.0405
-49.2764
-37.3804
-27.796
-20.0686
-13.814
-8.70875
-4.50457
-1.02609
1.87074
4.31313
6.38934
8.15659
9.66429
10.9598
12.0786
13.0459
13.8819
14.6019
15.221
15.7554
16.2123
16.6009
16.9322
17.2089
17.4357
17.6179
17.7598
17.8651
17.9374
17.9789
17.9926
17.9803
17.9445
17.8869
17.8086
17.7105
17.5943
17.4619
17.3143
17.1521
16.9756
16.7853
16.5826
16.3686
16.1439
15.9088
15.6632
15.4077
15.1428
14.8691
14.5873
14.2974
13.9994
13.6934
13.3797
13.0588
12.7305
12.3956
12.0534
11.7044
11.3486
10.9863
10.6175
10.2425
9.8608
9.47326
9.07952
8.67989
8.27425
7.86289
7.4458
7.02317
6.595
6.16152
5.72265
5.27878
4.82985
4.37643
3.91839
3.45682
2.99098
2.52543
2.05315
1.59468
1.11177
0.690368
0.143276
-310.014
-311.622
-310.914
-303.872
-287.218
-261.199
-229.052
-194.665
-161.386
-131.32
-105.162
-83.0436
-64.7993
-49.966
-37.9802
-28.3167
-20.5153
-14.1829
-9.00885
-4.75935
-1.24672
1.68749
4.1639
6.25918
8.0352
9.55491
10.8668
11.9991
12.9714
13.8076
14.532
15.1592
15.6996
16.1589
16.5472
16.8784
17.1584
17.389
17.5729
17.7146
17.8198
17.8931
17.9364
17.9512
17.9391
17.9031
17.8453
17.767
17.6688
17.5525
17.4199
17.2723
17.11
16.9335
16.7431
16.5403
16.3262
16.1016
15.8664
15.6207
15.3648
15.0996
14.8256
14.5433
14.253
13.9544
13.648
13.3338
13.0124
12.6838
12.3487
12.006
11.6568
11.3009
10.9386
10.5697
10.1948
9.81326
9.4259
9.03249
8.63322
8.2281
7.8173
7.40085
6.97883
6.55135
6.11853
5.68034
5.23709
4.78878
4.33593
3.87846
3.41752
2.95241
2.48774
2.01695
1.55963
1.08118
0.66017
0.138639
-309.856
-311.036
-309.718
-302.257
-285.629
-259.948
-228.241
-194.297
-161.366
-131.532
-105.531
-83.478
-65.2234
-50.3508
-38.3246
-28.6173
-20.7662
-14.392
-9.18963
-4.91769
-1.37929
1.579
4.06761
6.16863
7.95192
9.47988
10.7979
11.9331
12.907
13.7458
14.474
15.1047
15.6469
16.107
16.4966
16.8298
17.1121
17.3442
17.5287
17.671
17.7772
17.852
17.8968
17.9124
17.9005
17.8649
17.808
17.7307
17.6334
17.5179
17.3859
17.2388
17.0769
16.9009
16.711
16.5086
16.2948
16.0705
15.8355
15.5899
15.3343
15.0693
14.7958
14.5141
14.2242
13.9262
13.6204
13.3069
12.9863
12.6585
12.3244
11.9824
11.6335
11.2781
10.9163
10.548
10.1735
9.79249
9.4054
9.01221
8.61306
8.20789
7.79705
7.38052
6.95846
6.53091
6.09808
5.65984
5.21658
4.76824
4.3154
3.85805
3.39724
2.93225
2.46758
1.99756
1.5398
1.06572
0.639698
0.148962
-309.799
-310.776
-309.167
-301.515
-284.923
-259.448
-228.001
-194.311
-161.573
-131.867
-105.939
-83.9007
-65.6283
-50.7251
-38.6593
-28.9095
-21.022
-14.6209
-9.39522
-5.09957
-1.53861
1.44052
3.94149
6.05393
7.84673
9.37956
10.7006
11.8399
12.8184
13.6601
14.3896
15.022
15.5664
16.029
16.4204
16.7547
17.0382
17.2715
17.4574
17.6008
17.708
17.7837
17.8294
17.8458
17.8348
17.7999
17.7437
17.667
17.5703
17.4553
17.3238
17.1771
17.0158
16.8402
16.6509
16.4489
16.2356
16.0118
15.7773
15.5321
15.2769
15.0124
14.7393
14.4578
14.1682
13.8703
13.5646
13.2512
12.9306
12.6027
12.2684
11.9273
11.5789
11.2235
10.8619
10.4938
10.1194
9.7387
9.35179
8.95887
8.56008
8.1555
7.74492
7.32862
6.90674
6.47933
6.04657
5.6084
5.16519
4.71684
4.26409
3.80675
3.34617
2.88157
2.41693
1.94791
1.48892
1.02009
0.591358
0.112923
-314.073
-315.342
-316.519
-316.764
-316.246
-314.976
-313.67
-313.762
-333.208
-334.725
-335.67
-336.006
-335.684
-334.97
-334.106
-333.757
-348.321
-351.158
-352.673
-353.24
-353.129
-352.819
-352.512
-352.172
-346.898
-350.263
-352.116
-352.862
-352.69
-352.175
-351.696
-351.058
-325.752
-328.652
-330.387
-330.946
-330.606
-329.869
-329.085
-328.157
-289.995
-292.05
-293.342
-293.796
-293.47
-292.522
-291.109
-289.508
-244.963
-246.036
-246.886
-247.287
-247.03
-246.002
-244.217
-242.158
-198.427
-198.458
-198.712
-198.927
-198.649
-197.568
-195.617
-193.373
-156.297
-155.6
-155.338
-155.242
-154.839
-153.723
-151.767
-149.561
-120.782
-119.661
-119.115
-118.843
-118.354
-117.251
-115.403
-113.36
-92.2133
-90.987
-90.3405
-89.9471
-89.3866
-88.3432
-86.6698
-84.8443
-69.8972
-68.7431
-68.1041
-67.6383
-67.0367
-66.0767
-64.6025
-63.0187
-52.6505
-51.6398
-51.0511
-50.585
-50.0038
-49.1389
-47.8597
-46.4974
-39.3546
-38.5193
-38.0176
-37.5887
-37.0548
-36.2951
-35.2064
-34.0523
-29.069
-28.3897
-27.9467
-27.5491
-27.075
-26.4206
-25.5003
-24.5245
-21.0201
-20.4792
-20.0741
-19.6931
-19.2757
-18.7162
-17.9376
-17.0956
-14.5966
-14.1703
-13.8178
-13.4741
-13.1087
-12.6284
-11.9668
-11.2091
-9.38567
-9.05281
-8.7593
-8.46437
-8.14684
-7.73398
-7.17131
-6.49255
-5.12958
-4.86694
-4.62218
-4.36964
-4.0934
-3.73574
-3.25356
-2.66538
-1.6241
-1.41234
-1.20491
-0.987999
-0.746746
-0.433864
-0.0148618
0.4953
1.31992
1.49476
1.67293
1.85609
2.06494
2.33931
2.70654
3.1529
3.82742
3.97288
4.12669
4.28258
4.46426
4.70599
5.03011
5.42406
5.96376
6.08511
6.21788
6.35495
6.5174
6.73382
7.02287
7.37367
7.77918
7.88493
8.00209
8.12527
8.27275
8.46857
8.72839
9.04313
9.33266
9.42674
9.53192
9.64379
9.77872
9.95721
10.1924
10.4769
10.6834
10.7709
10.862
10.962
11.0853
11.2487
11.4629
11.7219
11.86
11.9461
12.0282
12.1182
12.2308
12.3804
12.5761
12.8131
12.8809
12.9603
13.0364
13.1207
13.226
13.3649
13.545
13.763
13.7633
13.8361
13.9069
13.9862
14.0851
14.2146
14.381
14.5824
14.5261
14.5927
14.6586
14.7331
14.8262
14.9473
15.1017
15.2886
15.1883
15.2496
15.3108
15.3809
15.4688
15.5825
15.7263
15.9005
15.7627
15.8189
15.8767
15.9435
16.027
16.1342
16.2686
16.4316
16.263
16.314
16.3679
16.4311
16.5103
16.6115
16.7373
16.8901
16.6914
16.7384
16.7889
16.8489
16.9241
17.0197
17.1377
17.2813
17.0498
17.0946
17.1432
17.2008
17.2728
17.3636
17.4748
17.6104
17.3496
17.3926
17.4395
17.495
17.5642
17.6508
17.7558
17.8841
17.5996
17.6408
17.686
17.7394
17.8059
17.8887
17.9881
18.1098
17.8046
17.8444
17.8881
17.9398
18.0038
18.0831
18.1774
18.2933
17.9696
18.008
18.0503
18.1004
18.1621
18.2381
18.3278
18.4382
18.0965
18.1338
18.175
18.2235
18.2832
18.3562
18.4416
18.5471
18.1885
18.2246
18.2646
18.3117
18.3695
18.4397
18.5211
18.622
18.2483
18.2832
18.322
18.3678
18.4239
18.4915
18.5693
18.6661
18.2782
18.3122
18.3501
18.3947
18.4492
18.5145
18.589
18.6821
18.2819
18.315
18.352
18.3956
18.4486
18.5117
18.5832
18.6728
18.2618
18.2941
18.3303
18.3728
18.4244
18.4856
18.5542
18.6406
18.2186
18.2503
18.2858
18.3275
18.3778
18.4371
18.503
18.5866
18.153
18.1843
18.2191
18.26
18.3092
18.3667
18.4303
18.5111
18.0669
18.0976
18.1319
18.172
18.2201
18.2761
18.3373
18.4156
17.9624
17.9926
18.0263
18.0658
18.1128
18.1673
18.2265
18.3025
17.842
17.8717
17.9048
17.9435
17.9895
18.0426
18.0997
18.1736
17.7062
17.7353
17.7679
17.8059
17.851
17.9027
17.958
18.0298
17.5545
17.5834
17.6156
17.653
17.6973
17.7477
17.8013
17.8713
17.3878
17.4164
17.4483
17.4852
17.5286
17.5779
17.6299
17.6981
17.2073
17.2356
17.2671
17.3035
17.3462
17.3944
17.4448
17.5114
17.014
17.042
17.0732
17.1091
17.1511
17.1983
17.2473
17.3124
16.8094
16.8371
16.8679
16.9034
16.9447
16.9909
17.0385
17.1022
16.5942
16.6215
16.6519
16.6869
16.7275
16.7728
16.8191
16.8815
16.3683
16.3953
16.4254
16.4599
16.4999
16.5443
16.5893
16.6505
16.1316
16.1584
16.1883
16.2224
16.2618
16.3053
16.3492
16.4092
15.8848
15.9114
15.941
15.9747
16.0135
16.0563
16.0991
16.158
15.6283
15.6547
15.684
15.7174
15.7557
15.7977
15.8395
15.8974
15.3631
15.3893
15.4183
15.4513
15.4891
15.5304
15.5712
15.6281
15.0896
15.1156
15.1443
15.1769
15.2141
15.2547
15.2946
15.3506
14.808
14.8337
14.8621
14.8944
14.9311
14.971
15.01
15.0651
14.5177
14.5432
14.5714
14.6034
14.6396
14.6789
14.7171
14.7714
14.2191
14.2445
14.2725
14.3042
14.34
14.3787
14.4161
14.4696
13.9125
13.9378
13.9656
13.997
14.0324
14.0706
14.1072
14.1601
13.5986
13.6237
13.6513
13.6824
13.7174
13.755
13.7909
13.8431
13.2772
13.3022
13.3296
13.3605
13.3951
13.4322
13.4675
13.519
12.9489
12.9737
13.0009
13.0315
13.0658
13.1024
13.137
13.1879
12.6133
12.638
12.6652
12.6955
12.7294
12.7656
12.7996
12.85
12.2709
12.2955
12.3225
12.3526
12.3862
12.4219
12.4553
12.5051
11.9215
11.946
11.9729
12.0028
12.036
12.0714
12.1042
12.1536
11.5654
11.5898
11.6165
11.6462
11.6792
11.7142
11.7464
11.7953
11.2027
11.227
11.2536
11.2831
11.3159
11.3505
11.3823
11.4307
10.8336
10.8578
10.8843
10.9136
10.9461
10.9803
11.0116
11.0596
10.4581
10.4823
10.5087
10.5379
10.57
10.6039
10.6348
10.6824
10.0764
10.1005
10.1268
10.1558
10.1877
10.2213
10.2516
10.2989
9.68838
9.7125
9.73872
9.76758
9.79928
9.83254
9.86252
9.9094
9.29438
9.31844
9.34456
9.37324
9.40468
9.4376
9.46714
9.51365
8.89428
8.91834
8.9444
8.97296
9.0042
9.03686
9.06604
9.11222
8.48851
8.51252
8.53849
8.56689
8.59788
8.63023
8.65899
8.70483
8.07684
8.10085
8.12677
8.15506
8.18588
8.218
8.24645
8.29202
7.65962
7.68361
7.70946
7.73763
7.76824
7.80009
7.82825
7.87359
7.23663
7.26061
7.28642
7.3145
7.34494
7.3766
7.40484
7.45064
6.80808
6.83203
6.85777
6.88571
6.91594
6.94728
6.97534
7.02124
6.37395
6.39786
6.42352
6.45133
6.48138
6.51248
6.54025
6.58591
5.93445
5.9583
5.98386
6.01153
6.0414
6.07227
6.09976
6.14517
5.48965
5.51341
5.53885
5.56635
5.59599
5.6266
5.65378
5.69886
5.03971
5.06337
5.0887
5.11605
5.14549
5.17591
5.20283
5.24771
4.58467
4.60817
4.63329
4.66039
4.68954
4.71963
4.74615
4.79061
4.12476
4.1481
4.17306
4.19997
4.2289
4.2588
4.28514
4.3295
3.65964
3.68261
3.70719
3.73372
3.76226
3.79177
3.81769
3.86164
3.19011
3.21276
3.23701
3.26318
3.29134
3.3205
3.34609
3.3898
2.71389
2.73546
2.75876
2.78412
2.81162
2.8403
2.86559
2.90918
2.23572
2.25686
2.27965
2.30442
2.33124
2.35924
2.38391
2.42681
1.74347
1.76111
1.78103
1.80359
1.8289
1.85614
1.88071
1.92464
1.26279
1.28123
1.3012
1.32309
1.34703
1.37226
1.39484
1.43516
0.739323
0.746893
0.757984
0.773178
0.792874
0.815956
0.834902
0.883321
0.302163
0.320219
0.336606
0.351739
0.36666
0.383731
0.400923
0.376904
)
;

boundaryField
{
    frontAndBack
    {
        type            empty;
    }
    inlet
    {
        type            zeroGradient;
    }
    outlet
    {
        type            fixedValue;
        value           uniform 0;
    }
    walls
    {
        type            zeroGradient;
    }
}


// ************************************************************************* //
