/*--------------------------------*- C++ -*----------------------------------*\
| =========                 |                                                 |
| \\      /  F ield         | OpenFOAM: The Open Source CFD Toolbox           |
|  \\    /   O peration     | Version:  v2012                                 |
|   \\  /    A nd           | Website:  www.openfoam.com                      |
|    \\/     M anipulation  |                                                 |
\*---------------------------------------------------------------------------*/
FoamFile
{
    version     2.0;
    format      ascii;
    class       volScalarField;
    location    "0.011";
    object      nut.air;
}
// * * * * * * * * * * * * * * * * * * * * * * * * * * * * * * * * * * * * * //

dimensions      [0 2 -1 0 0 0 0];


internalField   nonuniform List<scalar> 
5600
(
1.44148e-05
2.95577e-05
4.87147e-05
6.41989e-05
7.28206e-05
7.57457e-05
7.50113e-05
7.23998e-05
6.96583e-05
6.75279e-05
6.61002e-05
6.5231e-05
6.47457e-05
6.4497e-05
6.4381e-05
6.43291e-05
6.43056e-05
6.42961e-05
6.42924e-05
6.4291e-05
6.42904e-05
6.42902e-05
6.42902e-05
6.42901e-05
6.42901e-05
6.42901e-05
6.42901e-05
6.42901e-05
6.42901e-05
6.42901e-05
6.42901e-05
6.42901e-05
6.42901e-05
6.42901e-05
6.42901e-05
6.42901e-05
6.42901e-05
6.42901e-05
6.42901e-05
6.42901e-05
6.42901e-05
6.42901e-05
6.42901e-05
6.42901e-05
6.42901e-05
6.42901e-05
6.42901e-05
6.42901e-05
6.42901e-05
6.42901e-05
6.42901e-05
6.42902e-05
6.42902e-05
6.42902e-05
6.42902e-05
6.42902e-05
6.42902e-05
6.42902e-05
6.42902e-05
6.42902e-05
6.42902e-05
6.42902e-05
6.42902e-05
6.42902e-05
6.42902e-05
6.42902e-05
6.42902e-05
6.42902e-05
6.42902e-05
6.42902e-05
6.42902e-05
6.42902e-05
6.42902e-05
6.42902e-05
6.42902e-05
6.42902e-05
6.42902e-05
6.42902e-05
6.42902e-05
6.42901e-05
6.42904e-05
6.42897e-05
6.42914e-05
6.42873e-05
6.42963e-05
6.42777e-05
6.43136e-05
6.42505e-05
6.43525e-05
6.42112e-05
6.43839e-05
6.42406e-05
6.43084e-05
6.43437e-05
6.45689e-05
6.27946e-05
6.95801e-05
5.06482e-05
9.31866e-05
6.30148e-06
0.000159757
0.000143002
0.000115296
0.000101852
0.000100225
0.000106703
0.000117537
0.000139109
0.000154388
0.0001649
0.000172399
0.00017686
0.000179147
0.000180155
0.000180572
0.000180764
0.000180868
0.000180932
0.000180973
0.000180999
0.000181014
0.000181022
0.000181026
0.000181028
0.000181029
0.00018103
0.00018103
0.00018103
0.00018103
0.00018103
0.00018103
0.00018103
0.00018103
0.00018103
0.00018103
0.00018103
0.00018103
0.00018103
0.00018103
0.00018103
0.00018103
0.00018103
0.00018103
0.00018103
0.00018103
0.00018103
0.00018103
0.00018103
0.00018103
0.00018103
0.00018103
0.00018103
0.00018103
0.00018103
0.00018103
0.00018103
0.00018103
0.00018103
0.00018103
0.00018103
0.00018103
0.00018103
0.00018103
0.00018103
0.00018103
0.00018103
0.00018103
0.00018103
0.00018103
0.00018103
0.00018103
0.00018103
0.00018103
0.00018103
0.00018103
0.00018103
0.00018103
0.000181029
0.000181034
0.00018102
0.000181058
0.000180959
0.000181203
0.00018063
0.000181908
0.000179216
0.000184547
0.000174685
0.000191646
0.000164835
0.000203477
0.000153526
0.000210555
0.000153044
0.000207776
0.000143783
0.000254002
5.3085e-05
0.000336589
4.89055e-05
0.000158482
0.000156067
0.000150941
0.000144091
0.000135033
0.000123718
0.000114217
0.00010964
0.000109292
0.000109712
0.000109049
0.000107399
0.00010546
0.000103782
0.00010258
0.000101842
0.000101451
0.000101269
0.000101194
0.000101168
0.000101161
0.000101161
0.000101161
0.000101162
0.000101163
0.000101163
0.000101163
0.000101163
0.000101163
0.000101163
0.000101163
0.000101163
0.000101163
0.000101163
0.000101163
0.000101163
0.000101163
0.000101163
0.000101163
0.000101163
0.000101163
0.000101163
0.000101163
0.000101163
0.000101163
0.000101163
0.000101163
0.000101163
0.000101163
0.000101163
0.000101163
0.000101163
0.000101163
0.000101163
0.000101163
0.000101163
0.000101163
0.000101163
0.000101163
0.000101163
0.000101163
0.000101163
0.000101163
0.000101163
0.000101163
0.000101163
0.000101163
0.000101163
0.000101163
0.000101163
0.000101163
0.000101163
0.000101163
0.000101163
0.000101163
0.000101163
0.000101164
0.000101163
0.000101165
0.000101159
0.000101177
0.000101128
0.000101253
0.000100948
0.000101649
0.000100127
0.000103195
9.73758e-05
0.00010736
9.12498e-05
0.000114019
8.42806e-05
0.000118317
8.31336e-05
0.00011965
7.41909e-05
0.000129584
3.76807e-05
0.000183537
0.000169412
0.000159201
0.000156915
0.000154763
0.000152557
0.000150313
0.000147522
0.000143979
0.000139943
0.000136029
0.000132605
0.000129824
0.000127405
0.000125527
0.000124195
0.000123329
0.000122798
0.000122484
0.000122306
0.000122209
0.000122159
0.000122134
0.000122122
0.000122117
0.000122114
0.000122113
0.000122112
0.000122112
0.000122112
0.000122112
0.000122112
0.000122112
0.000122112
0.000122112
0.000122112
0.000122112
0.000122112
0.000122112
0.000122112
0.000122112
0.000122112
0.000122112
0.000122112
0.000122112
0.000122112
0.000122112
0.000122112
0.000122112
0.000122112
0.000122112
0.000122112
0.000122112
0.000122112
0.000122112
0.000122112
0.000122112
0.000122112
0.000122112
0.000122112
0.000122112
0.000122112
0.000122112
0.000122112
0.000122112
0.000122112
0.000122112
0.000122112
0.000122112
0.000122112
0.000122112
0.000122112
0.000122112
0.000122112
0.000122112
0.000122112
0.000122112
0.000122112
0.000122113
0.00012211
0.000122118
0.000122097
0.00012215
0.000122026
0.000122299
0.000121736
0.000122809
0.000120941
0.000123855
0.00011993
0.000124155
0.000121356
0.000120283
0.000128108
0.000114352
0.000131652
0.000118916
0.000116883
0.000135152
0.000124592
0.000174056
0.000928355
0.000159348
0.000157202
0.000155307
0.0001536
0.000152091
0.000150704
0.000149268
0.000147684
0.00014607
0.000144659
0.00014362
0.000142966
0.000142638
0.000142529
0.000142529
0.000142564
0.000142597
0.000142617
0.000142628
0.000142633
0.000142635
0.000142636
0.000142636
0.000142635
0.000142635
0.000142635
0.000142635
0.000142635
0.000142635
0.000142635
0.000142635
0.000142635
0.000142635
0.000142635
0.000142635
0.000142635
0.000142635
0.000142635
0.000142635
0.000142635
0.000142635
0.000142635
0.000142635
0.000142635
0.000142635
0.000142635
0.000142635
0.000142635
0.000142635
0.000142635
0.000142635
0.000142635
0.000142635
0.000142635
0.000142635
0.000142635
0.000142635
0.000142635
0.000142635
0.000142635
0.000142635
0.000142635
0.000142635
0.000142635
0.000142635
0.000142635
0.000142635
0.000142635
0.000142635
0.000142635
0.000142635
0.000142635
0.000142635
0.000142635
0.000142635
0.000142636
0.000142634
0.000142638
0.000142628
0.000142653
0.000142591
0.000142736
0.000142416
0.000143079
0.000141817
0.000144015
0.000140659
0.000145029
0.000140951
0.000141729
0.000148946
0.000128143
0.00016708
0.000116284
0.000173644
0.000125335
0.000153473
0.000126754
0.000160984
0.000498201
0.000159377
0.000157288
0.000155453
0.000153843
0.000152454
0.000151214
0.000149999
0.000148756
0.000147563
0.00014657
0.00014589
0.000145544
0.000145461
0.000145533
0.00014566
0.000145781
0.00014587
0.000145927
0.00014596
0.000145976
0.000145985
0.000145989
0.00014599
0.000145991
0.000145991
0.000145991
0.000145991
0.000145991
0.000145991
0.000145991
0.000145991
0.000145991
0.000145991
0.000145991
0.000145991
0.000145991
0.000145991
0.000145991
0.000145991
0.000145991
0.000145991
0.000145991
0.000145991
0.000145991
0.000145991
0.000145991
0.000145991
0.000145991
0.000145991
0.000145991
0.000145991
0.000145991
0.000145991
0.000145991
0.000145991
0.000145991
0.000145991
0.000145991
0.000145991
0.000145991
0.000145991
0.000145991
0.000145991
0.000145991
0.000145991
0.000145991
0.000145991
0.000145991
0.000145991
0.000145991
0.000145991
0.000145991
0.000145991
0.000145991
0.000145991
0.000145991
0.000145992
0.000145989
0.000145997
0.000145976
0.00014603
0.000145897
0.00014621
0.00014552
0.00014694
0.000144257
0.000148907
0.000141812
0.000151226
0.000141412
0.000147507
0.000150661
0.000134631
0.000163426
0.000134475
0.000147639
0.000158299
0.000126636
0.000166968
0.000106315
0.000159385
0.000157315
0.000155501
0.000153917
0.000152561
0.000151355
0.00015018
0.00014899
0.000147864
0.000146942
0.00014633
0.000146042
0.000146005
0.000146108
0.000146256
0.000146388
0.000146484
0.000146544
0.000146578
0.000146596
0.000146605
0.000146609
0.000146611
0.000146611
0.000146612
0.000146612
0.000146612
0.000146612
0.000146612
0.000146612
0.000146612
0.000146612
0.000146612
0.000146612
0.000146612
0.000146612
0.000146612
0.000146612
0.000146612
0.000146612
0.000146612
0.000146612
0.000146612
0.000146612
0.000146612
0.000146612
0.000146612
0.000146612
0.000146612
0.000146612
0.000146612
0.000146612
0.000146612
0.000146612
0.000146612
0.000146612
0.000146612
0.000146612
0.000146612
0.000146612
0.000146612
0.000146612
0.000146612
0.000146612
0.000146612
0.000146612
0.000146612
0.000146612
0.000146612
0.000146612
0.000146612
0.000146612
0.000146612
0.000146612
0.000146612
0.000146612
0.000146611
0.000146613
0.000146608
0.000146622
0.000146586
0.000146674
0.00014647
0.000146914
0.000146015
0.000147706
0.000144814
0.000149285
0.00014333
0.00014991
0.000144674
0.000146114
0.000149314
0.000145288
0.000140663
0.00016447
0.000118904
0.000182207
0.000129748
0.000139464
0.000159388
0.000157325
0.000155519
0.000153945
0.000152599
0.000151404
0.000150241
0.000149066
0.000147957
0.000147053
0.000146459
0.000146186
0.000146162
0.000146275
0.000146427
0.000146562
0.000146658
0.000146717
0.000146751
0.000146768
0.000146777
0.00014678
0.000146782
0.000146783
0.000146783
0.000146783
0.000146783
0.000146783
0.000146783
0.000146783
0.000146783
0.000146783
0.000146783
0.000146783
0.000146783
0.000146783
0.000146783
0.000146783
0.000146783
0.000146783
0.000146783
0.000146783
0.000146783
0.000146783
0.000146783
0.000146783
0.000146783
0.000146783
0.000146783
0.000146783
0.000146783
0.000146783
0.000146783
0.000146783
0.000146783
0.000146783
0.000146783
0.000146783
0.000146783
0.000146783
0.000146783
0.000146783
0.000146783
0.000146783
0.000146783
0.000146783
0.000146783
0.000146783
0.000146783
0.000146783
0.000146783
0.000146783
0.000146783
0.000146783
0.000146783
0.000146783
0.000146783
0.000146783
0.000146784
0.000146779
0.000146793
0.000146757
0.000146846
0.000146644
0.00014707
0.000146248
0.000147671
0.000145529
0.000148171
0.000145907
0.000146156
0.000149704
0.000142667
0.000148887
0.000152374
0.000130882
0.000172474
0.000130007
0.000150981
0.000160768
0.00015939
0.00015733
0.000155527
0.000153956
0.000152614
0.000151424
0.000150266
0.000149096
0.000147992
0.000147095
0.000146507
0.00014624
0.000146221
0.000146337
0.000146491
0.000146625
0.00014672
0.000146779
0.000146812
0.000146829
0.000146837
0.00014684
0.000146842
0.000146843
0.000146843
0.000146843
0.000146843
0.000146843
0.000146843
0.000146843
0.000146843
0.000146843
0.000146843
0.000146843
0.000146843
0.000146843
0.000146843
0.000146843
0.000146843
0.000146843
0.000146843
0.000146843
0.000146843
0.000146843
0.000146843
0.000146843
0.000146843
0.000146843
0.000146843
0.000146843
0.000146843
0.000146843
0.000146843
0.000146843
0.000146843
0.000146843
0.000146843
0.000146843
0.000146843
0.000146843
0.000146843
0.000146843
0.000146843
0.000146843
0.000146843
0.000146843
0.000146843
0.000146843
0.000146843
0.000146843
0.000146843
0.000146843
0.000146843
0.000146843
0.000146843
0.000146843
0.000146843
0.000146843
0.000146843
0.000146844
0.000146841
0.000146846
0.000146838
0.000146846
0.000146855
0.000146776
0.000147063
0.000146266
0.000148132
0.000144376
0.000150922
0.000141558
0.000151961
0.000145401
0.000141346
0.000160209
0.000134402
0.000150473
0.000160153
0.000120867
0.00015939
0.000157331
0.00015553
0.00015396
0.00015262
0.000151432
0.000150276
0.000149109
0.000148008
0.000147113
0.000146527
0.000146262
0.000146245
0.000146362
0.000146516
0.000146649
0.000146744
0.000146802
0.000146834
0.00014685
0.000146858
0.000146862
0.000146863
0.000146864
0.000146864
0.000146864
0.000146864
0.000146864
0.000146864
0.000146864
0.000146864
0.000146864
0.000146864
0.000146864
0.000146864
0.000146864
0.000146864
0.000146864
0.000146864
0.000146864
0.000146864
0.000146864
0.000146864
0.000146864
0.000146864
0.000146864
0.000146864
0.000146864
0.000146864
0.000146864
0.000146864
0.000146864
0.000146864
0.000146864
0.000146864
0.000146864
0.000146864
0.000146864
0.000146864
0.000146864
0.000146864
0.000146864
0.000146864
0.000146864
0.000146864
0.000146864
0.000146864
0.000146864
0.000146864
0.000146864
0.000146864
0.000146864
0.000146864
0.000146864
0.000146864
0.000146864
0.000146864
0.000146864
0.000146864
0.000146864
0.000146865
0.000146861
0.000146871
0.000146849
0.000146891
0.000146827
0.000146887
0.000146931
0.000146538
0.000147719
0.000145251
0.000149143
0.000144976
0.000146326
0.000151912
0.000138794
0.000152133
0.000153982
0.000127635
0.000168981
0.00015939
0.000157331
0.00015553
0.000153961
0.00015262
0.000151432
0.000150277
0.000149109
0.000148008
0.000147113
0.000146527
0.000146262
0.000146245
0.000146362
0.000146515
0.000146649
0.000146743
0.000146801
0.000146833
0.00014685
0.000146858
0.000146861
0.000146863
0.000146863
0.000146863
0.000146863
0.000146863
0.000146863
0.000146863
0.000146863
0.000146863
0.000146863
0.000146863
0.000146863
0.000146863
0.000146863
0.000146863
0.000146863
0.000146863
0.000146863
0.000146863
0.000146863
0.000146863
0.000146863
0.000146863
0.000146863
0.000146863
0.000146863
0.000146863
0.000146863
0.000146863
0.000146863
0.000146863
0.000146863
0.000146863
0.000146863
0.000146863
0.000146863
0.000146863
0.000146863
0.000146863
0.000146863
0.000146863
0.000146863
0.000146863
0.000146863
0.000146863
0.000146863
0.000146863
0.000146863
0.000146863
0.000146863
0.000146863
0.000146863
0.000146863
0.000146863
0.000146863
0.000146863
0.000146864
0.000146863
0.000146865
0.00014686
0.000146873
0.000146842
0.00014691
0.00014677
0.000147036
0.00014657
0.00014731
0.00014627
0.000147495
0.000146474
0.000146534
0.000148438
0.000144049
0.000149586
0.000147667
0.00013932
0.000159759
0.000141091
0.00015939
0.00015733
0.000155527
0.000153956
0.000152614
0.000151424
0.000150266
0.000149096
0.000147993
0.000147095
0.000146507
0.00014624
0.00014622
0.000146336
0.00014649
0.000146624
0.000146719
0.000146778
0.000146811
0.000146827
0.000146835
0.000146839
0.000146841
0.000146841
0.000146841
0.000146841
0.000146842
0.000146842
0.000146842
0.000146842
0.000146842
0.000146842
0.000146842
0.000146842
0.000146842
0.000146842
0.000146842
0.000146842
0.000146842
0.000146842
0.000146842
0.000146842
0.000146842
0.000146842
0.000146842
0.000146842
0.000146842
0.000146842
0.000146842
0.000146842
0.000146842
0.000146842
0.000146842
0.000146842
0.000146842
0.000146842
0.000146842
0.000146842
0.000146842
0.000146842
0.000146842
0.000146842
0.000146842
0.000146842
0.000146842
0.000146842
0.000146842
0.000146842
0.000146842
0.000146842
0.000146842
0.000146842
0.000146842
0.000146842
0.000146842
0.000146842
0.000146842
0.000146841
0.000146842
0.000146841
0.000146843
0.000146838
0.00014685
0.000146824
0.000146875
0.00014678
0.000146942
0.0001467
0.000147006
0.000146705
0.000146879
0.000146931
0.000146745
0.000146635
0.00014762
0.000145915
0.000146265
0.000150966
0.000140422
0.000148447
0.000159388
0.000157326
0.00015552
0.000153945
0.000152599
0.000151404
0.000150242
0.000149067
0.000147957
0.000147054
0.000146459
0.000146186
0.000146162
0.000146274
0.000146426
0.000146561
0.000146656
0.000146716
0.000146749
0.000146766
0.000146775
0.000146778
0.00014678
0.000146781
0.000146781
0.000146781
0.000146781
0.000146781
0.000146781
0.000146781
0.000146781
0.000146781
0.000146781
0.000146781
0.000146781
0.000146781
0.000146781
0.000146781
0.000146781
0.000146781
0.000146781
0.000146781
0.000146781
0.000146781
0.000146781
0.000146781
0.000146781
0.000146781
0.000146781
0.000146781
0.000146781
0.000146781
0.000146781
0.000146781
0.000146781
0.000146781
0.000146781
0.000146781
0.000146781
0.000146781
0.000146781
0.000146781
0.000146781
0.000146781
0.000146781
0.000146781
0.000146781
0.000146781
0.000146781
0.000146781
0.000146781
0.000146781
0.000146781
0.000146781
0.000146781
0.000146781
0.000146781
0.000146781
0.000146781
0.000146781
0.000146782
0.000146778
0.000146788
0.000146766
0.000146811
0.000146728
0.000146868
0.000146659
0.000146922
0.000146672
0.000146778
0.000146975
0.000146399
0.000147193
0.000146649
0.000146332
0.000147896
0.000145266
0.00014798
0.000147667
0.000159385
0.000157315
0.000155502
0.000153918
0.000152561
0.000151355
0.00015018
0.00014899
0.000147864
0.000146942
0.00014633
0.00014604
0.000146003
0.000146106
0.000146253
0.000146386
0.000146481
0.000146541
0.000146575
0.000146593
0.000146602
0.000146606
0.000146607
0.000146608
0.000146608
0.000146608
0.000146608
0.000146608
0.000146608
0.000146608
0.000146608
0.000146608
0.000146608
0.000146608
0.000146608
0.000146608
0.000146608
0.000146608
0.000146608
0.000146608
0.000146608
0.000146608
0.000146608
0.000146608
0.000146608
0.000146608
0.000146608
0.000146608
0.000146608
0.000146608
0.000146608
0.000146608
0.000146608
0.000146608
0.000146608
0.000146608
0.000146608
0.000146608
0.000146608
0.000146608
0.000146608
0.000146608
0.000146608
0.000146608
0.000146608
0.000146608
0.000146608
0.000146608
0.000146608
0.000146608
0.000146608
0.000146608
0.000146608
0.000146608
0.000146608
0.000146608
0.000146608
0.000146608
0.000146609
0.000146608
0.00014661
0.000146606
0.000146615
0.000146596
0.000146634
0.000146564
0.000146679
0.000146512
0.000146713
0.000146541
0.000146572
0.0001468
0.000146297
0.000146868
0.000146636
0.00014625
0.000146888
0.000147062
0.000145482
0.000146669
0.000159377
0.000157288
0.000155454
0.000153843
0.000152454
0.000151213
0.000149998
0.000148754
0.00014756
0.000146565
0.000145884
0.000145536
0.000145452
0.000145524
0.000145651
0.000145771
0.00014586
0.000145917
0.000145949
0.000145966
0.000145974
0.000145978
0.000145979
0.00014598
0.00014598
0.00014598
0.00014598
0.00014598
0.00014598
0.00014598
0.00014598
0.00014598
0.00014598
0.00014598
0.00014598
0.00014598
0.00014598
0.00014598
0.00014598
0.00014598
0.00014598
0.00014598
0.00014598
0.00014598
0.00014598
0.00014598
0.00014598
0.00014598
0.00014598
0.00014598
0.00014598
0.00014598
0.00014598
0.00014598
0.00014598
0.00014598
0.00014598
0.00014598
0.00014598
0.00014598
0.00014598
0.00014598
0.00014598
0.00014598
0.00014598
0.00014598
0.00014598
0.00014598
0.00014598
0.00014598
0.00014598
0.00014598
0.00014598
0.00014598
0.00014598
0.00014598
0.00014598
0.00014598
0.00014598
0.00014598
0.000145981
0.000145978
0.000145986
0.000145969
0.000146002
0.000145942
0.00014604
0.000145901
0.000146063
0.000145935
0.00014593
0.000146167
0.000145694
0.000146208
0.000146019
0.000145638
0.000146275
0.000146302
0.000144974
0.000146791
0.000159346
0.000157203
0.000155307
0.0001536
0.000152088
0.000150696
0.000149249
0.000147655
0.000146034
0.000144619
0.000143572
0.000142905
0.000142564
0.000142443
0.000142437
0.000142468
0.000142498
0.000142518
0.000142528
0.000142533
0.000142535
0.000142535
0.000142535
0.000142535
0.000142535
0.000142535
0.000142535
0.000142535
0.000142535
0.000142535
0.000142535
0.000142535
0.000142535
0.000142535
0.000142535
0.000142535
0.000142535
0.000142535
0.000142535
0.000142535
0.000142535
0.000142535
0.000142535
0.000142535
0.000142535
0.000142535
0.000142535
0.000142535
0.000142535
0.000142535
0.000142535
0.000142535
0.000142535
0.000142535
0.000142535
0.000142535
0.000142535
0.000142535
0.000142535
0.000142535
0.000142535
0.000142535
0.000142535
0.000142535
0.000142535
0.000142535
0.000142535
0.000142535
0.000142535
0.000142535
0.000142535
0.000142535
0.000142535
0.000142535
0.000142535
0.000142535
0.000142535
0.000142535
0.000142535
0.000142534
0.000142535
0.000142533
0.000142539
0.000142526
0.000142551
0.000142506
0.000142578
0.000142477
0.000142593
0.000142507
0.000142493
0.000142662
0.000142377
0.000142567
0.000142791
0.000142053
0.000142735
0.000143433
0.000140363
0.000145118
0.000159186
0.000156931
0.000154751
0.000152564
0.000150276
0.000147444
0.000143815
0.000139775
0.00013592
0.00013257
0.00012973
0.000127203
0.000125223
0.000123811
0.00012289
0.000122328
0.000121998
0.000121812
0.000121712
0.000121661
0.000121635
0.000121623
0.000121617
0.000121614
0.000121613
0.000121613
0.000121613
0.000121613
0.000121612
0.000121612
0.000121612
0.000121612
0.000121612
0.000121612
0.000121612
0.000121612
0.000121612
0.000121612
0.000121612
0.000121612
0.000121612
0.000121612
0.000121612
0.000121612
0.000121612
0.000121612
0.000121612
0.000121612
0.000121612
0.000121612
0.000121612
0.000121612
0.000121612
0.000121612
0.000121612
0.000121612
0.000121612
0.000121612
0.000121612
0.000121612
0.000121612
0.000121612
0.000121612
0.000121612
0.000121612
0.000121612
0.000121612
0.000121612
0.000121612
0.000121612
0.000121612
0.000121612
0.000121612
0.000121612
0.000121612
0.000121612
0.000121612
0.000121612
0.000121613
0.000121612
0.000121613
0.000121611
0.000121615
0.000121607
0.000121622
0.000121596
0.000121636
0.000121587
0.000121625
0.000121641
0.000121515
0.000121774
0.000121487
0.000121471
0.000122315
0.00012029
0.000123054
0.00012127
0.000119706
0.000126358
0.000158427
0.000156147
0.000150812
0.000144208
0.000134758
0.000123759
0.000114197
0.000110767
0.000111355
0.000112365
0.000112005
0.000110525
0.000108694
0.000107092
0.000105935
0.00010521
0.000104817
0.000104632
0.000104554
0.000104525
0.000104517
0.000104515
0.000104515
0.000104516
0.000104516
0.000104516
0.000104517
0.000104517
0.000104517
0.000104517
0.000104517
0.000104517
0.000104517
0.000104517
0.000104517
0.000104517
0.000104517
0.000104517
0.000104517
0.000104517
0.000104517
0.000104517
0.000104517
0.000104517
0.000104517
0.000104517
0.000104517
0.000104517
0.000104517
0.000104517
0.000104517
0.000104517
0.000104517
0.000104517
0.000104517
0.000104517
0.000104517
0.000104517
0.000104517
0.000104517
0.000104517
0.000104517
0.000104517
0.000104517
0.000104517
0.000104517
0.000104517
0.000104517
0.000104517
0.000104517
0.000104517
0.000104517
0.000104517
0.000104517
0.000104517
0.000104517
0.000104517
0.000104517
0.000104517
0.000104516
0.000104517
0.000104515
0.000104521
0.000104508
0.000104536
0.00010448
0.000104582
0.000104414
0.000104653
0.000104378
0.000104581
0.000104637
0.000104131
0.000105079
0.000104172
0.000103946
0.000106445
0.000101498
0.000106471
0.000105788
0.000159591
0.000142987
0.000115755
0.000103001
0.000101736
0.000109747
0.000120465
0.000145992
0.00015853
0.000169492
0.000177345
0.000182084
0.000184588
0.000185757
0.000186268
0.000186505
0.000186632
0.000186709
0.000186756
0.000186784
0.0001868
0.000186809
0.000186813
0.000186815
0.000186816
0.000186816
0.000186816
0.000186816
0.000186816
0.000186816
0.000186816
0.000186816
0.000186816
0.000186816
0.000186816
0.000186816
0.000186816
0.000186816
0.000186816
0.000186816
0.000186816
0.000186816
0.000186816
0.000186816
0.000186816
0.000186816
0.000186816
0.000186816
0.000186816
0.000186816
0.000186816
0.000186816
0.000186816
0.000186816
0.000186816
0.000186816
0.000186816
0.000186816
0.000186816
0.000186816
0.000186816
0.000186816
0.000186816
0.000186816
0.000186816
0.000186816
0.000186816
0.000186816
0.000186816
0.000186816
0.000186816
0.000186816
0.000186816
0.000186816
0.000186816
0.000186816
0.000186816
0.000186816
0.000186816
0.000186816
0.000186817
0.000186815
0.00018682
0.000186807
0.000186838
0.000186772
0.000186902
0.000186667
0.000187052
0.000186497
0.000187162
0.000186588
0.000186716
0.000187411
0.000185846
0.000187581
0.000187172
0.00018486
0.00018937
0.000185435
1.44224e-05
2.95434e-05
4.87232e-05
6.41677e-05
7.26847e-05
7.54588e-05
7.45648e-05
7.18352e-05
6.91169e-05
6.70164e-05
6.56056e-05
6.47611e-05
6.42959e-05
6.40581e-05
6.39451e-05
6.38929e-05
6.38681e-05
6.38575e-05
6.38532e-05
6.38515e-05
6.38508e-05
6.38506e-05
6.38505e-05
6.38504e-05
6.38504e-05
6.38504e-05
6.38504e-05
6.38504e-05
6.38504e-05
6.38504e-05
6.38504e-05
6.38504e-05
6.38504e-05
6.38504e-05
6.38504e-05
6.38504e-05
6.38504e-05
6.38504e-05
6.38504e-05
6.38504e-05
6.38504e-05
6.38504e-05
6.38504e-05
6.38504e-05
6.38504e-05
6.38504e-05
6.38504e-05
6.38504e-05
6.38504e-05
6.38504e-05
6.38504e-05
6.38504e-05
6.38504e-05
6.38504e-05
6.38504e-05
6.38504e-05
6.38504e-05
6.38504e-05
6.38504e-05
6.38504e-05
6.38504e-05
6.38504e-05
6.38504e-05
6.38504e-05
6.38504e-05
6.38504e-05
6.38504e-05
6.38504e-05
6.38504e-05
6.38504e-05
6.38504e-05
6.38504e-05
6.38504e-05
6.38504e-05
6.38504e-05
6.38504e-05
6.38504e-05
6.38504e-05
6.38505e-05
6.38504e-05
6.38505e-05
6.38504e-05
6.38505e-05
6.38504e-05
6.38506e-05
6.38501e-05
6.38512e-05
6.38491e-05
6.38526e-05
6.38474e-05
6.38539e-05
6.38475e-05
6.38504e-05
6.38544e-05
6.38388e-05
6.3853e-05
6.38363e-05
6.38041e-05
6.38113e-05
6.38299e-05
0.00087664
0.00190597
0.0011038
0.000505938
0.000231314
0.000185351
0.000187557
0.000185258
0.000173971
0.000163093
0.000156018
0.000151874
0.000149506
0.000148225
0.000147591
0.00014728
0.000147121
0.00014704
0.000146998
0.000146976
0.000146965
0.000146959
0.000146956
0.000146954
0.000146953
0.000146953
0.000146953
0.000146952
0.000146952
0.000146952
0.000146952
0.000146952
0.000146952
0.000146952
0.000146952
0.000146952
0.000146952
0.000146952
0.000146952
0.000146952
0.000146952
0.000146952
0.000146952
0.000146952
0.000146952
0.000146952
0.000146952
0.000146952
0.000146952
0.000146952
0.000146952
0.000146952
0.000146952
0.000146952
0.000146952
0.000146952
0.000146952
0.000146952
0.000146952
0.000146952
0.000146952
0.000146952
0.000146952
0.000146952
0.000146952
0.000146952
0.000146952
0.000146952
0.000146952
0.000146952
0.000146952
0.000146952
0.000146952
0.000146952
0.000146952
0.000146952
0.000146952
0.000146952
0.000146952
0.000146952
0.000146952
0.000146952
0.000146952
0.000146952
0.000146952
0.000146952
0.000146952
0.000146952
0.000146952
0.000146952
0.000146952
0.000146952
0.000146952
0.000146952
0.000146952
0.00014695
0.000146953
0.000146946
0.00014695
0.000146937
0.00121513
0.00161754
0.000854429
0.000341199
0.000195492
0.0001736
0.000178597
0.000181355
0.000173026
0.000162736
0.00015566
0.000151595
0.000149329
0.000148087
0.000147428
0.00014711
0.000146964
0.000146898
0.000146867
0.000146853
0.000146847
0.000146844
0.000146842
0.000146841
0.000146841
0.00014684
0.00014684
0.00014684
0.00014684
0.00014684
0.00014684
0.00014684
0.00014684
0.00014684
0.00014684
0.00014684
0.00014684
0.00014684
0.00014684
0.00014684
0.00014684
0.00014684
0.00014684
0.00014684
0.00014684
0.00014684
0.00014684
0.00014684
0.00014684
0.00014684
0.00014684
0.00014684
0.00014684
0.00014684
0.00014684
0.00014684
0.00014684
0.00014684
0.00014684
0.00014684
0.00014684
0.00014684
0.00014684
0.00014684
0.00014684
0.00014684
0.00014684
0.00014684
0.00014684
0.00014684
0.00014684
0.00014684
0.00014684
0.00014684
0.00014684
0.00014684
0.00014684
0.00014684
0.00014684
0.00014684
0.00014684
0.00014684
0.00014684
0.00014684
0.00014684
0.00014684
0.00014684
0.00014684
0.00014684
0.00014684
0.00014684
0.00014684
0.00014684
0.00014684
0.000146841
0.000146838
0.000146842
0.000146835
0.000146843
0.000146832
0.00183229
0.00112116
0.000501482
0.0001874
0.000167554
0.000167165
0.000169606
0.00017571
0.000171615
0.000162641
0.000155551
0.00015144
0.000149259
0.000148107
0.00014747
0.000147133
0.000146971
0.000146897
0.000146863
0.000146848
0.000146841
0.000146838
0.000146836
0.000146835
0.000146835
0.000146835
0.000146835
0.000146834
0.000146834
0.000146834
0.000146834
0.000146834
0.000146834
0.000146834
0.000146834
0.000146834
0.000146834
0.000146834
0.000146834
0.000146834
0.000146834
0.000146834
0.000146834
0.000146834
0.000146834
0.000146834
0.000146834
0.000146834
0.000146834
0.000146834
0.000146834
0.000146834
0.000146834
0.000146834
0.000146834
0.000146834
0.000146834
0.000146834
0.000146834
0.000146834
0.000146834
0.000146834
0.000146834
0.000146834
0.000146834
0.000146834
0.000146834
0.000146834
0.000146834
0.000146834
0.000146834
0.000146834
0.000146834
0.000146834
0.000146834
0.000146834
0.000146834
0.000146834
0.000146834
0.000146834
0.000146834
0.000146834
0.000146834
0.000146834
0.000146834
0.000146834
0.000146834
0.000146834
0.000146834
0.000146834
0.000146834
0.000146834
0.000146835
0.000146834
0.000146835
0.000146834
0.000146837
0.000146833
0.00014684
0.000146837
0.00134168
0.000657256
0.000304564
0.000236146
0.000220993
0.000197216
0.000177257
0.000173223
0.000169214
0.00016168
0.000155118
0.000151162
0.000149099
0.000148046
0.000147475
0.000147156
0.000146993
0.000146916
0.000146879
0.000146863
0.000146855
0.000146851
0.000146849
0.000146848
0.000146848
0.000146848
0.000146847
0.000146847
0.000146847
0.000146847
0.000146847
0.000146847
0.000146847
0.000146847
0.000146847
0.000146847
0.000146847
0.000146847
0.000146847
0.000146847
0.000146847
0.000146847
0.000146847
0.000146847
0.000146847
0.000146847
0.000146847
0.000146847
0.000146847
0.000146847
0.000146847
0.000146847
0.000146847
0.000146847
0.000146847
0.000146847
0.000146847
0.000146847
0.000146847
0.000146847
0.000146847
0.000146847
0.000146847
0.000146847
0.000146847
0.000146847
0.000146847
0.000146847
0.000146847
0.000146847
0.000146847
0.000146847
0.000146847
0.000146847
0.000146847
0.000146847
0.000146847
0.000146847
0.000146847
0.000146847
0.000146847
0.000146847
0.000146847
0.000146847
0.000146847
0.000146847
0.000146847
0.000146847
0.000146847
0.000146847
0.000146847
0.000146847
0.000146847
0.000146847
0.000146848
0.000146847
0.00014685
0.000146847
0.000146853
0.000146852
0.000711635
0.000303495
0.000246927
0.000193708
0.000165131
0.000172662
0.000171028
0.000169999
0.000167663
0.000161288
0.0001548
0.0001507
0.000148667
0.000147741
0.000147298
0.000147062
0.000146938
0.000146877
0.000146848
0.000146834
0.000146828
0.000146825
0.000146823
0.000146822
0.000146822
0.000146822
0.000146821
0.000146821
0.000146821
0.000146821
0.000146821
0.000146821
0.000146821
0.000146821
0.000146821
0.000146821
0.000146821
0.000146821
0.000146821
0.000146821
0.000146821
0.000146821
0.000146821
0.000146821
0.000146821
0.000146821
0.000146821
0.000146821
0.000146821
0.000146821
0.000146821
0.000146821
0.000146821
0.000146821