/*--------------------------------*- C++ -*----------------------------------*\
| =========                 |                                                 |
| \\      /  F ield         | OpenFOAM: The Open Source CFD Toolbox           |
|  \\    /   O peration     | Version:  v2012                                 |
|   \\  /    A nd           | Website:  www.openfoam.com                      |
|    \\/     M anipulation  |                                                 |
\*---------------------------------------------------------------------------*/
FoamFile
{
    version     2.0;
    format      ascii;
    class       volScalarField;
    location    "0.385";
    object      nut.air;
}
// * * * * * * * * * * * * * * * * * * * * * * * * * * * * * * * * * * * * * //

dimensions      [0 2 -1 0 0 0 0];


internalField   nonuniform List<scalar> 
5600
(
2.45137e-05
3.47343e-05
4.04099e-05
4.24622e-05
4.22723e-05
4.09699e-05
3.92094e-05
3.75386e-05
3.61135e-05
3.49465e-05
3.40612e-05
3.34371e-05
3.30371e-05
3.28048e-05
3.26957e-05
3.26597e-05
3.26714e-05
3.2698e-05
3.2737e-05
3.27664e-05
3.28011e-05
3.28209e-05
3.28513e-05
3.28751e-05
3.29122e-05
3.29409e-05
3.298e-05
3.30113e-05
3.30504e-05
3.30788e-05
3.31119e-05
3.31318e-05
3.31556e-05
3.31661e-05
3.31821e-05
3.31859e-05
3.3197e-05
3.31964e-05
3.32044e-05
3.32013e-05
3.3208e-05
3.32039e-05
3.32107e-05
3.32064e-05
3.32142e-05
3.32106e-05
3.32198e-05
3.32168e-05
3.32272e-05
3.32242e-05
3.32352e-05
3.32326e-05
3.32445e-05
3.32413e-05
3.32549e-05
3.32519e-05
3.32672e-05
3.32646e-05
3.32816e-05
3.32796e-05
3.32988e-05
3.32966e-05
3.33182e-05
3.33157e-05
3.33395e-05
3.33365e-05
3.33629e-05
3.33591e-05
3.33881e-05
3.33833e-05
3.34153e-05
3.3409e-05
3.34444e-05
3.34363e-05
3.34754e-05
3.34653e-05
3.35081e-05
3.3496e-05
3.35422e-05
3.35283e-05
3.35769e-05
3.35627e-05
3.36108e-05
3.36e-05
3.36419e-05
3.3643e-05
3.36656e-05
3.36981e-05
3.36722e-05
3.37801e-05
3.36419e-05
3.39238e-05
3.35159e-05
3.42287e-05
3.31059e-05
3.50292e-05
3.17378e-05
3.75696e-05
2.64806e-05
4.70675e-05
0.000151655
0.000137411
0.000112244
9.86284e-05
9.38991e-05
9.49506e-05
0.0001021
0.000110118
0.000116485
0.000124313
0.000132732
0.000141231
0.000149476
0.000157248
0.000164431
0.000170935
0.000176813
0.000182055
0.000186792
0.000191043
0.000195009
0.000198592
0.000202117
0.00020534
0.000208508
0.000211311
0.000214077
0.000216512
0.000218891
0.000220891
0.000222822
0.000224386
0.000225925
0.000227151
0.000228415
0.000229395
0.000230458
0.000231252
0.000232166
0.000232823
0.000233634
0.000234192
0.000234932
0.000235413
0.000236126
0.000236567
0.000237249
0.000237635
0.000238279
0.000238604
0.000239217
0.000239495
0.000240073
0.000240307
0.000240888
0.000241082
0.000241665
0.000241824
0.000242418
0.000242554
0.000243155
0.000243254
0.000243876
0.000243935
0.00024458
0.000244598
0.000245271
0.000245244
0.00024595
0.000245869
0.000246625
0.000246488
0.000247297
0.000247094
0.000247966
0.000247693
0.000248634
0.000248287
0.000249297
0.000248877
0.000249943
0.000249466
0.000250552
0.000250068
0.000251094
0.000250727
0.000251509
0.000251533
0.000251677
0.000252713
0.000251335
0.000254636
0.000249883
0.000258163
0.000245857
0.000265598
0.000235536
0.000282522
0.000209982
0.000287723
0.000156518
0.000151561
0.000143044
0.000135159
0.000125256
0.000120723
0.000113773
0.000109699
0.000108717
0.000109799
0.000112691
0.000117422
0.000123688
0.000131361
0.000140261
0.000150359
0.000161496
0.000173779
0.000187123
0.0002017
0.000217067
0.000232804
0.000246167
0.000258353
0.000270145
0.000281004
0.000290613
0.000298318
0.000305524
0.000311691
0.000317725
0.000322971
0.000328299
0.000332835
0.000337502
0.00034139
0.000345491
0.000348846
0.000352498
0.000355429
0.000358735
0.000361329
0.000364364
0.000366684
0.000369497
0.000371535
0.000374112
0.000375889
0.000378276
0.000379827
0.000382069
0.00038344
0.000385564
0.000386784
0.000388841
0.000389921
0.000391924
0.000392871
0.000394839
0.000395661
0.000397609
0.000398302
0.000400247
0.000400807
0.000402768
0.000403191
0.000405184
0.000405469
0.000407515
0.000407658
0.000409778
0.000409765
0.000411987
0.000411794
0.000414145
0.000413741
0.000416257
0.0004156
0.000418312
0.00041736
0.000420312
0.000419018
0.000422265
0.000420578
0.000424187
0.000422039
0.000426108
0.000423391
0.000428075
0.000424584
0.000430199
0.000425472
0.000432733
0.000425715
0.000436347
0.000424563
0.000442576
0.000420987
0.000431852
0.000408886
0.00015782
0.00015399
0.000150101
0.000146745
0.000142722
0.000139187
0.000135628
0.000131422
0.000128284
0.000124808
0.000123093
0.000119901
0.000117478
0.000115646
0.000115603
0.000116679
0.000119879
0.000124568
0.00013136
0.000139705
0.000150243
0.000162279
0.000176361
0.000191125
0.000207224
0.000223409
0.000238987
0.000252584
0.000266714
0.000279638
0.000293129
0.000305205
0.000317786
0.000329049
0.000340706
0.000351051
0.000361823
0.000371318
0.000381295
0.000389954
0.00039911
0.000406853
0.000415358
0.000422015
0.000428658
0.000433757
0.000439809
0.000444312
0.000449914
0.000453924
0.000459175
0.000462771
0.000467742
0.000470976
0.00047573
0.000478635
0.000483219
0.000485822
0.000490275
0.000492591
0.000496946
0.00049898
0.000503271
0.000505024
0.000509284
0.000510759
0.000515025
0.000516217
0.000520529
0.000521427
0.000525824
0.000526411
0.000530936
0.000531171
0.000535878
0.000535708
0.000540674
0.000539998
0.000545298
0.000544021
0.000549778
0.000547776
0.00055416
0.000551265
0.000558501
0.000554465
0.000562887
0.000557317
0.00056743
0.000559727
0.000572283
0.000561578
0.000577599
0.000562866
0.000583346
0.000563984
0.000588772
0.000566393
0.000592098
0.00057169
0.00015812
0.000154599
0.000151655
0.000149046
0.000146777
0.000144435
0.00014254
0.000140275
0.000138561
0.000136347
0.000134858
0.000132742
0.000131147
0.000128906
0.0001274
0.000125359
0.000124307
0.000121682
0.000121094
0.000119643
0.0001209
0.000121785
0.000125806
0.000129873
0.000137182
0.000144585
0.000155135
0.000165629
0.000178863
0.00019188
0.000207196
0.000222016
0.000235657
0.000247563
0.000261108
0.00027301
0.000286519
0.000298287
0.000311708
0.0003233
0.000336535
0.000347862
0.000360889
0.000371809
0.000384288
0.00039447
0.000406252
0.000415669
0.000426838
0.000435558
0.000446217
0.000454282
0.000464467
0.000471901
0.000481788
0.000488653
0.000498189
0.000504496
0.000513735
0.000519475
0.00052847
0.000533635
0.000542431
0.000547012
0.000555649
0.000559663
0.000568212
0.000571669
0.00058019
0.000583117
0.000591693
0.00059411
0.000602744
0.000604643
0.000613387
0.000614659
0.000622782
0.000622866
0.000631343
0.000630598
0.000639599
0.000637891
0.000647613
0.000644769
0.000655439
0.00065125
0.000663129
0.000657339
0.000670705
0.000663098
0.000678096
0.000668733
0.000685004
0.000674733
0.000690645
0.000681899
0.000694529
0.000691013
0.000696411
0.000700602
0.000158192
0.00015477
0.00015206
0.000149655
0.000147749
0.000145802
0.000144368
0.000142623
0.000141516
0.000139828
0.000138996
0.000137285
0.000136729
0.0001349
0.00013463
0.000132614
0.000132679
0.00013033
0.00013059
0.000127947
0.000128514
0.00012576
0.000126836
0.000124022
0.000125347
0.000123072
0.000125487
0.000124645
0.000128825
0.000130152
0.000136631
0.000140602
0.000149621
0.000156059
0.00016723
0.000175821
0.000188899
0.000199311
0.000214049
0.000225964
0.000242103
0.000251835
0.000264421
0.000274137
0.000287133
0.000297099
0.000310327
0.000320335
0.000333663
0.000343595
0.000356975
0.000366765
0.000380147
0.000389767
0.000403239
0.000412603
0.000425891
0.00043478
0.000447844
0.000456135
0.000468974
0.000476675
0.000489342
0.00049645
0.000508982
0.000515543
0.000527966
0.000534004
0.000546487
0.000552173
0.000564708
0.000569827
0.000582321
0.000586858
0.000599335
0.000603255
0.000615731
0.000618956
0.000631431
0.000633912
0.000646343
0.000648203
0.000660525
0.000661952
0.000673988
0.000675254
0.00068673
0.000688235
0.000698663
0.000701034
0.000709666
0.000713706
0.000720015
0.000726116
0.000730039
0.000737445
0.000740972
0.000746764
0.000755247
0.000761687
0.000158212
0.000154827
0.000152181
0.000149839
0.000148034
0.000146184
0.000144904
0.000143282
0.00014239
0.000140841
0.00014028
0.000138702
0.000138455
0.00013677
0.000136841
0.000134985
0.000135393
0.000133316
0.000134073
0.000131722
0.000132853
0.000130189
0.000131729
0.00012871
0.000130644
0.000127232
0.000129627
0.000125876
0.000128812
0.000124877
0.000128376
0.000124245
0.000128349
0.000124642
0.000129649
0.000126939
0.000133133
0.000131957
0.000139609
0.000140397
0.000149723
0.000152669
0.00016358
0.000168377
0.000180763
0.000187245
0.000200995
0.000208942
0.000223906
0.000233066
0.000249081
0.000259208
0.000275441
0.000282411
0.000295179
0.000302518
0.000315686
0.000323202
0.000336655
0.000344274
0.000357971
0.000365618
0.000379503
0.000387128
0.000401187
0.000408751
0.000422956
0.000430394
0.00044484
0.000452229
0.000466792
0.000473941
0.000488456
0.000495258
0.00050965
0.000516075
0.000530316
0.000536454
0.000550485
0.000556379
0.000570075
0.000575847
0.000589116
0.000594912
0.000607622
0.000613696
0.000625436
0.000632127
0.000642617
0.000650167
0.000659232
0.000667813
0.000675507
0.000684732
0.000691705
0.00070071
0.000708296
0.000716684
0.000726352
0.000738941
0.000158218
0.00015485
0.00015222
0.000149909
0.000148123
0.000146322
0.000145065
0.000143514
0.000142644
0.000141197
0.00014065
0.000139211
0.00013896
0.000137457
0.000137499
0.000135872
0.000136215
0.000134415
0.000135072
0.000133058
0.000134046
0.000131776
0.000133124
0.000130554
0.000132294
0.000129381
0.000131548
0.000128256
0.000130887
0.000127185
0.000130319
0.000126169
0.000129822
0.000125227
0.000129438
0.00012443
0.000129233
0.0001239
0.000129325
0.000123692
0.000129647
0.000124025
0.000130634
0.000125397
0.000132743
0.000128297
0.000136491
0.000133225
0.000142389
0.000140635
0.000150882
0.00015083
0.00016223
0.000163949
0.00017634
0.000179562
0.000192911
0.000197545
0.000211799
0.000217716
0.000232799
0.00023985
0.000255662
0.000263683
0.000280107
0.000288932
0.000305856
0.000312435
0.00032519
0.000330773
0.000343547
0.000349565
0.000362488
0.00036898
0.000381903
0.000388923
0.000401774
0.000409186
0.000421911
0.000429811
0.00044231
0.000450741
0.000462908
0.000471931
0.000483661
0.00049336
0.000504573
0.000514955
0.000525668
0.000536679
0.000547056
0.000558565
0.000568627
0.000580631
0.000590515
0.000603161
0.000612907
0.000627045
0.000637418
0.000655452
0.000158218
0.000154865
0.000152228
0.000149948
0.000148143
0.000146397
0.000145099
0.000143635
0.000142695
0.000141377
0.000140721
0.000139464
0.000139055
0.000137797
0.000137621
0.000136314
0.000136366
0.000134975
0.00013525
0.000133749
0.000134251
0.000132611
0.000133352
0.000131543
0.000132536
0.000130535
0.000131793
0.000129577
0.000131115
0.000128664
0.000130495
0.000127795
0.000129929
0.000126967
0.000129418
0.000126184
0.000128968
0.000125451
0.000128588
0.00012478
0.000128271
0.000124178
0.000128038
0.000123672
0.000127918
0.000123306
0.000127955
0.000123152
0.000128207
0.000123253
0.000128639
0.000123717
0.000129455
0.000124807
0.000130927
0.000126809
0.000133357
0.00013004
0.000137079
0.000134818
0.000142419
0.000141433
0.000149662
0.000150129
0.000159044
0.000161053
0.000170693
0.000174294
0.000184542
0.000189495
0.000200256
0.00020651
0.000217763
0.000225261
0.000236974
0.00024564
0.00025777
0.000267519
0.000279993
0.000290729
0.000303471
0.000315088
0.000328014
0.000340403
0.00035344
0.000366486
0.000379586
0.000393166
0.000406293
0.000420272
0.000432823
0.000447386
0.000460041
0.000475059
0.000488195
0.000502589
0.000515528
0.000529974
0.000542444
0.000556664
0.000158216
0.000154876
0.000152225
0.000149976
0.000148138
0.000146447
0.00014509
0.000143714
0.00014268
0.000141493
0.000140698
0.000139624
0.000139022
0.00013801
0.000137574
0.000136587
0.000136302
0.000135318
0.000135167
0.00013417
0.000134145
0.000133119
0.000133219
0.000132148
0.000132372
0.000131246
0.000131591
0.000130402
0.000130866
0.000129609
0.000130189
0.000128866
0.000129552
0.000128164
0.000128952
0.000127499
0.000128388
0.000126868
0.000127856
0.000126273
0.000127356
0.000125715
0.000126887
0.000125197
0.000126452
0.000124721
0.000126061
0.000124299
0.000125712
0.000123952
0.000125402
0.000123691
0.000125152
0.00012353
0.000125004
0.000123491
0.000124991
0.000123628
0.000125167
0.000124014
0.000125605
0.00012475
0.000126422
0.000125918
0.000127712
0.00012771
0.000129715
0.000130384
0.000132721
0.000134214
0.000137005
0.000139465
0.00014286
0.000146407
0.000150536
0.00015527
0.000160267
0.000166268
0.000172234
0.000179543
0.000186561
0.000195196
0.00020332
0.000213259
0.000222498
0.000233658
0.000244005
0.000256289
0.000267701
0.000281007
0.000293429
0.000307655
0.000321048
0.000336136
0.00035037
0.000366047
0.000380898
0.000396971
0.000412261
0.000428399
0.000158213
0.000154882
0.000152218
0.000149987
0.000148123
0.000146467
0.000145065
0.000143746
0.000142642
0.000141539
0.000140645
0.000139686
0.000138951
0.000138091
0.000137483
0.00013669
0.000136188
0.000135444
0.000135028
0.000134322
0.000133979
0.000133299
0.000133024
0.000132357
0.000132145
0.000131487
0.000131329
0.000130677
0.00013057
0.00012992
0.000129856
0.000129212
0.000129183
0.000128547
0.000128549
0.000127921
0.00012795
0.00012733
0.000127388
0.000126775
0.000126862
0.00012626
0.000126374
0.000125791
0.000125929
0.000125372
0.000125542
0.000125012
0.000125211
0.000124733
0.000124949
0.000124554
0.000124784
0.000124499
0.000124766
0.000124606
0.00012494
0.00012495
0.00012538
0.000125598
0.000126127
0.000126636
0.000127352
0.000128265
0.000129281
0.00013073
0.000132174
0.000134299
0.000136317
0.000139245
0.000141988
0.00014584
0.000149459
0.000154337
0.00015895
0.00016493
0.000170637
0.000177777
0.000184644
0.000192964
0.000201027
0.000210532
0.000219802
0.000230356
0.000240627
0.000252122
0.000263359
0.000275752
0.00028792
0.000301132
0.000314181
0.000328136
0.000341999
0.0003566
0.0003712
0.000386387
0.000401692
0.000417438
0.000433493
0.000449911
0.000158211
0.00015488
0.000152207
0.000149982
0.000148101
0.000146456
0.000145027
0.000143728
0.000142585
0.000141511
0.000140566
0.000139647
0.000138846
0.000138038
0.000137348
0.000136623
0.000136019
0.000135358
0.000134823
0.000134214
0.000133735
0.000133167
0.000132737
0.000132201
0.000131813
0.000131305
0.000130953
0.000130469
0.000130149
0.00012969
0.000129399
0.000128966
0.0001287
0.000128297
0.000128058
0.000127692
0.000127484
0.000127163
0.000126985
0.000126712
0.00012658
0.000126372
0.000126304
0.000126193
0.000126214
0.000126241
0.000126404
0.000126573
0.000126876
0.000127287
0.000127862
0.000128669
0.000129675
0.000131042
0.000132662
0.000134762
0.000137187
0.000140198
0.000143602
0.000147687
0.000152216
0.000157485
0.000163233
0.000169758
0.000176779
0.000184501
0.000192562
0.00020131
0.000210368
0.000220107
0.000230115
0.000240791
0.000251684
0.000263217
0.000274906
0.000287195
0.000299574
0.00031251
0.000325464
0.000338929
0.000352341
0.000366229
0.000377423
0.000387781
0.000398218
0.000408899
0.000419939
0.000431319
0.000442909
0.000454948
0.000467249
0.000479988
0.000493026
0.000506526
0.000520338
0.000534597
0.00054903
0.000563781
0.000578127
0.000592436
0.000158208
0.000154873
0.000152189
0.000149958
0.000148061
0.00014641
0.000144957
0.000143652
0.000142478
0.000141398
0.000140413
0.000139487
0.000138637
0.000137823
0.000137074
0.000136343
0.000135673
0.000135006
0.000134398
0.000133783
0.000133226
0.000132652
0.000132142
0.000131603
0.000131133
0.000130627
0.000130197
0.000129727
0.000129345
0.000128917
0.000128575
0.00012819
0.000127917
0.000127609
0.00012745
0.000127279
0.000127313
0.000127344
0.000127528
0.00012786
0.000128479
0.000129368
0.000130684
0.000132408
0.00013471
0.000137556
0.000141117
0.000145346
0.000150387
0.000156171
0.000162813
0.00017019
0.000178222
0.00018697
0.000196334
0.000206366
0.000216965
0.000228172
0.000239881
0.000252121
0.000264787
0.000277901
0.000291363
0.000305189
0.0003173
0.00032697
0.000336685
0.00034655
0.000356601
0.000366782
0.000377149
0.000387624
0.000398155
0.000408818
0.000419529
0.000430356
0.000441219
0.000452179
0.000463164
0.000474216
0.00048529
0.000496399
0.000507533
0.000518776
0.000530027
0.000541315
0.000552559
0.000563779
0.000574917
0.000586015
0.000597039
0.000608056
0.000619011
0.000629963
0.000640824
0.00065168
0.000662327
0.000672844
0.000682865
0.000692624
0.0001582
0.000154852
0.000152147
0.000149893
0.000147964
0.00014628
0.000144783
0.000143433
0.000142199
0.000141064
0.000140001
0.000139012
0.000138069
0.000137187
0.000136331
0.000135529
0.000134741
0.000134001
0.000133261
0.000132567
0.000131871
0.000131223
0.000130576
0.000129931
0.000129313
0.000128725
0.00012821
0.00012778
0.000127519
0.000127328
0.000127257
0.000127552
0.000128208
0.000129462
0.00013132
0.000134004
0.000137511
0.000142036
0.000147551
0.000154176
0.00016172
0.000170211
0.000179568
0.000189787
0.000200801
0.000212557
0.000225021
0.000238083
0.000251767
0.000265897
0.000279409
0.000289753
0.000300462
0.000311287
0.000322242
0.000333342
0.000344538
0.000355833
0.000367185
0.000378604
0.000390054
0.00040155
0.000413061
0.000424595
0.000436121
0.00044774
0.00045939
0.000470989
0.00048253
0.000493935
0.000505231
0.000516372
0.000527377
0.000538222
0.000548973
0.00055956
0.000570041
0.000580356
0.000590574
0.000600621
0.000610595
0.000620378
0.000630093
0.000639756
0.000649377
0.000658918
0.000668275
0.00067751
0.000686597
0.000695553
0.000704328
0.000712994
0.000721465
0.000729804
0.000737942
0.000745884
0.000753681
0.000761091
0.000767909
0.000774299
0.00015818
0.000154796
0.000152025
0.000149708
0.000147678
0.000145886
0.000144249
0.000142742
0.000141335
0.000139996
0.000138741
0.000137535
0.000136375
0.000135256
0.000134153
0.000133117
0.000132007
0.000130919
0.000129757
0.000128736
0.000127686
0.000126988
0.000126194
0.000125615
0.000125488
0.000126052
0.000127487
0.00013002
0.00013376
0.000138904
0.000145437
0.00015338
0.000162458
0.000172787
0.000184123
0.000196523
0.000209806
0.000223956
0.000238876
0.000252111
0.000263734
0.000275573
0.000287596
0.000299793
0.000312071
0.000324413
0.000336756
0.000349116
0.000361438
0.000373756
0.000385976
0.000398236
0.000410422
0.000422465
0.00043432
0.000445962
0.000457377
0.000468563
0.000479525
0.000490272
0.00050082
0.000511174
0.000521353
0.000531346
0.000541166
0.000550917
0.000560599
0.000570083
0.000579435
0.000588589
0.000597612
0.000606429
0.000615121
0.000623601
0.000631911
0.00063999
0.000647891
0.000655582
0.000663101
0.000670453
0.000677645
0.000684641
0.000691518
0.00069823
0.000704848
0.000711335
0.000717712
0.000723966
0.000730113
0.000736163
0.000742099
0.00074791
0.000753592
0.000759157
0.000764649
0.000769891
0.000775093
0.000779889
0.000784283
0.000788342
0.000158113
0.000154621
0.000151612
0.000149104
0.000146667
0.000144526
0.000142363
0.000140374
0.000138357
0.000136485
0.000134755
0.00013283
0.000131008
0.000129045
0.000127406
0.000125791
0.000124095
0.000122535
0.000121922
0.000122155
0.000123946
0.0001271
0.000132223
0.000138945
0.000147624
0.000157903
0.000169839
0.00018311
0.000197722
0.000213312
0.000228933
0.000242196
0.000255553
0.000268979
0.000282358
0.000295723
0.000309004
0.000322249
0.000335342
0.000348352
0.000361186
0.000373824
0.000386137
0.000398074
0.00040959
0.000420739
0.000431499
0.000441957
0.000452058
0.000461894
0.000471349
0.000480613
0.000489591
0.000498319
0.000506803
0.000515048
0.000523057
0.000530836
0.000538391
0.000545726
0.000552854
0.000559777
0.000566516
0.000573069
0.00057946
0.000585676
0.000591778
0.000597721
0.000603565
0.000609251
0.000614856
0.000620299
0.000625695
0.00063043
0.000634843
0.000639138
0.000643331
0.000647421
0.000651426
0.000655336
0.000659177
0.000662927
0.00066662
0.000670227
0.000673787
0.000677263
0.000680703
0.000684054
0.000687377
0.000690609
0.00069382
0.000696939
0.000700045
0.000703059
0.000706063
0.000708967
0.000711862
0.000714636
0.000717337
0.000719894
0.000157849
0.000153942
0.0001501
0.000146712
0.000142568
0.000139331
0.000135252
0.000131833
0.0001282
0.000126014
0.000123572
0.000120696
0.00011865
0.000117785
0.000118586
0.00012103
0.000125566
0.00013189
0.000140407
0.000150791
0.000163414
0.000177688
0.000193332
0.000209789
0.000227092
0.000242474
0.000257122
0.00027149
0.000285535
0.000299173
0.000312289
0.000324998
0.000337193
0.0003489
0.000360095
0.00037086
0.000381149
0.000391038
0.000400402
0.000409336
0.000417818
0.000426066
0.000433041
0.000439198
0.000445007
0.000450519
0.00045576
0.000460768
0.000465558
0.00047016
0.000474582
0.000478845
0.000482956
0.000486931
0.000490774
0.000494501
0.00049811
0.000501614
0.000505013
0.000508318
0.000511529
0.000514656
0.000517702
0.000520673
0.000523574
0.000526408
0.000529183
0.000531894
0.000534553
0.000537147
0.000539695
0.00054218
0.000544622
0.000547009
0.000549339
0.000551606
0.000553818
0.000555973
0.000558083
0.00056014
0.000562163
0.000564135
0.00056608
0.000567978
0.000569858
0.000571691
0.000573516
0.00057529
0.000577063
0.000578779
0.000580501
0.000582163
0.000583838
0.000585447
0.000587076
0.000588622
0.000590196
0.000591647
0.00059304
0.000594293
0.000156641
0.000151208
0.000143351
0.000134629
0.000126078
0.000120991
0.000115009
0.000112505
0.000112456
0.00011419
0.000117961
0.000123463
0.000130604
0.000139124
0.000149054
0.000160159
0.000172603
0.000186205
0.000201284
0.000217285
0.000233492
0.000246947
0.000259667
0.000271868
0.000283091
0.000294115
0.00030263
0.000310053
0.00031674
0.000322879
0.000328612
0.000333955
0.000338909
0.000343511
0.000347778
0.00035176
0.000355474
0.000358969
0.000362253
0.00036537
0.000368317
0.000371131
0.000373814
0.000376352
0.000378747
0.000381013
0.000383159
0.000385201
0.000387146
0.000389013
0.000390803
0.000392533
0.000394203
0.000395821
0.000397387
0.000398908
0.000400383
0.000401818
0.000403212
0.00040457
0.000405891
0.00040718
0.000408438
0.000409667
0.00041087
0.000412048
0.000413206
0.000414342
0.000415462
0.000416559
0.000417644
0.000418705
0.000419752
0.000420779
0.000421789
0.000422775
0.00042374
0.000424682
0.000425607
0.000426508
0.000427398
0.000428266
0.000429126
0.000429965
0.000430801
0.000431616
0.000432434
0.00043323
0.000434034
0.000434811
0.0004356
0.00043636
0.000437138
0.000437878
0.000438644
0.000439353
0.000440096
0.000440743
0.000441343
0.000441815
0.000151621
0.000136817
0.000113478
9.95201e-05
9.76017e-05
9.81308e-05
0.000110573
0.000115045
0.000121818
0.000129687
0.000137976
0.000146235
0.000154211
0.000161681
0.000168583
0.000174824
0.000180491
0.000185568
0.000190197
0.000194425
0.000198337
0.000202069
0.000205554
0.00020885
0.00021187
0.000214679
0.000217312
0.000219723
0.000221894
0.000223822
0.000225517
0.000227019
0.000228355
0.000229554
0.00023063
0.000231604
0.000232488
0.000233297
0.000234044
0.000234739
0.000235393
0.000236004
0.000236596
0.000237174
0.000237731
0.000238264
0.000238769
0.00023925
0.000239705
0.000240141
0.000240557
0.00024096
0.00024135
0.000241732
0.000242104
0.000242472
0.000242833
0.000243191
0.000243543
0.000243891
0.000244234
0.000244573
0.00024491
0.000245239
0.000245565
0.000245887
0.000246207
0.000246524
0.00024684
0.000247153
0.000247465
0.000247776
0.000248087
0.000248397
0.000248707
0.000249014
0.00024932
0.000249621
0.00024992
0.000250212
0.000250502
0.000250785
0.000251068
0.000251344
0.000251621
0.000251892
0.000252165
0.000252433
0.000252706
0.000252972
0.000253244
0.000253511
0.000253781
0.000254049
0.000254319
0.000254582
0.000254848
0.000255066
0.000255286
0.000255444
2.45432e-05
3.47523e-05
4.04101e-05
4.23028e-05
4.20136e-05
4.05608e-05
3.87137e-05
3.70559e-05
3.56101e-05
3.44451e-05
3.35764e-05
3.29762e-05
3.25986e-05
3.2385e-05
3.2287e-05
3.22583e-05
3.22697e-05
3.2298e-05
3.2331e-05
3.23649e-05
3.23935e-05
3.24264e-05
3.24614e-05
3.24994e-05
3.2539e-05
3.25762e-05
3.26142e-05
3.26515e-05
3.26862e-05
3.27167e-05
3.27415e-05
3.27608e-05
3.27749e-05
3.27852e-05
3.27918e-05
3.27959e-05
3.27977e-05
3.2798e-05
3.27971e-05
3.27957e-05
3.27941e-05
3.27925e-05
3.27911e-05
3.27904e-05
3.27903e-05
3.27907e-05
3.27914e-05
3.27924e-05
3.27936e-05
3.2795e-05
3.27966e-05
3.27986e-05
3.28009e-05
3.28039e-05
3.28074e-05
3.28116e-05
3.28164e-05
3.28219e-05
3.28281e-05
3.28348e-05
3.28422e-05
3.28501e-05
3.28587e-05
3.28677e-05
3.28773e-05
3.28872e-05
3.28978e-05
3.29087e-05
3.29202e-05
3.29321e-05
3.29447e-05
3.29577e-05
3.29712e-05
3.29852e-05
3.29996e-05
3.30144e-05
3.30297e-05
3.30451e-05
3.30609e-05
3.30768e-05
3.30929e-05
3.31091e-05
3.31255e-05
3.3142e-05
3.31588e-05
3.31756e-05
3.31928e-05
3.321e-05
3.32277e-05
3.32454e-05
3.32637e-05
3.32818e-05
3.33007e-05
3.3319e-05
3.33391e-05
3.33578e-05
3.33784e-05
3.33985e-05
3.34187e-05
3.34393e-05
2.06043e-06
0.000681559
0.00119347
0.001584
0.0019411
0.00222137
0.00242732
0.00246846
0.00246039
0.00244552
0.0024293
0.00242024
0.00242351
0.00243698
0.00245659
0.00248176
0.00251186
0.00254745
0.00259028
0.00263903
0.00269432
0.00275494
0.00281891
0.00288738
0.00296144
0.00303802
0.00311406
0.00319171
0.00326495
0.00333939
0.00335836
0.00336307
0.00336532
0.00336515
0.00336277
0.00335837
0.00335219
0.00334442
0.00333513
0.00332447
0.0033125
0.00329937
0.00328508
0.00326984
0.00325358
0.00323656
0.00321862
0.00320013
0.00318076
0.00316109
0.00314054
0.00311998
0.00309842
0.00307721
0.00305484
0.00303316
0.00301015
0.00298818
0.00296474
0.00294261
0.00291897
0.00289676
0.00287306
0.00285077
0.00282715
0.00280469
0.00278115
0.00275848
0.00273486
0.00271179
0.00268778
0.00266429
0.00263935
0.0026155
0.0025886
0.00256456
0.00253474
0.00251039
0.002477
0.00245173
0.00241467
0.00238796
0.0023475
0.00231837
0.00227542
0.00224309
0.00220037
0.00216379
0.00212459
0.00208284
0.00204949
0.00200557
0.00197733
0.00193623
0.00191013
0.00187405
0.00185242
0.00181937
0.00180749
0.00177432
0.000168912
0.000440676
0.000878061
0.00126767
0.00161571
0.00189666
0.00211051
0.00225984
0.00236366
0.00236033
0.00234125
0.00233187
0.00232948
0.00233312
0.00234278
0.00235906
0.0023819
0.00241118
0.00244819
0.00249019
0.00253603
0.00258597
0.00263983
0.00269797
0.00276237
0.00283158
0.00290382
0.00297985
0.00306363
0.00315076
0.00323832
0.00325493
0.00326322
0.00326856
0.00327131
0.00327174
0.00327017
0.00326679
0.0032617
0.00325506
0.00324693
0.00323749
0.00322673
0.00321487
0.00320186
0.00318794
0.00317297
0.00315733
0.00314067
0.00312361
0.00310553
0.00308735
0.00306806
0.00304901
0.00302871
0.00300899
0.00298786
0.00296765
0.00294591
0.00292535
0.00290322
0.00288238
0.00286001
0.00283888
0.00281641
0.0027949
0.0027723
0.00275037
0.00272748
0.00270494
0.00268144
0.00265822
0.00263361
0.00260972
0.00258303
0.00255855
0.00252889
0.00250364
0.00247046
0.00244384
0.00240708
0.00237876
0.00233869
0.00230799
0.00226559
0.00223207
0.00219018
0.00215318
0.00211509
0.00207414
0.00204205
0.0020005
0.0019737
0.00193631
0.00191203
0.00188036
0.00186071
0.00183268
0.00182221
0.00179477
0.000472385
0.000385197
0.000567518
0.000877556
0.00120429
0.00148428
0.00170632
0.00187027
0.00199066
0.00207702
0.00214211
0.00219886
0.00221592
0.00222079
0.00223186
0.00225056
0.00227655
0.00230825
0.00234313
0.00237997
0.00241901
0.00246089
0.00250685
0.00255607
0.00261032
0.00266944
0.00273409
0.00280286
0.00288323
0.00296515
0.00306987
0.00311737
0.00313328
0.0031455
0.00315462
0.00316101
0.00316507
0.00316702
0.00316698
0.00316514
0.00316158
0.00315648
0.00314988
0.00314197
0.00313273
0.00312241
0.00311087
0.0030985
0.00308496
0.00307088
0.00305564
0.00304016
0.00302346
0.00300687
0.00298893
0.00297143
0.00295244
0.00293422
0.00291442
0.00289562
0.00287522
0.00285591
0.00283507
0.00281525
0.00279407
0.00277363
0.0027521
0.00273099
0.00270893
0.00268695
0.00266402
0.00264106
0.00261681
0.00259278
0.00256631
0.0025412
0.00251171
0.00248527
0.0024523
0.00242399
0.00238753
0.00235725
0.00231761
0.00228506
0.00224328
0.00220852
0.00216757
0.0021304
0.00209357
0.00205399
0.00202339
0.00198498
0.00196003
0.00192714
0.00190528
0.00187879
0.0018617
0.00183954
0.0018308
0.00181007
0.00059294
0.000584846
0.000544618
0.000614348
0.000799321
0.00102249
0.00123011
0.00139975
0.00153376
0.00163852
0.00172171
0.00179505
0.00186048
0.00192257
0.00198463
0.0020487
0.00211452
0.0021741
0.00221365
0.00225338
0.00229489
0.00233865
0.00238597
0.00243504
0.00248735
0.00254288
0.00260356
0.00266727
0.00273966
0.00281099
0.00290146
0.00294119
0.00296682
0.00298788
0.00300518
0.00301919
0.00303044
0.00303912
0.00304542
0.00304954
0.00305159
0.0030518
0.0030502
0.00304703
0.00304227
0.0030362
0.00302868
0.00302013
0.00301021
0.00299956
0.00298758
0.00297521
0.00296146
0.00294767
0.00293241
0.00291743
0.00290087
0.00288489
0.00286728
0.00285046
0.00283201
0.00281442
0.00279528
0.00277693
0.0027572
0.00273794
0.00271759
0.00269737
0.0026762
0.00265481
0.00263248
0.00260972
0.00258582
0.00256152
0.00253522
0.00250923
0.00247988
0.00245189
0.00241911
0.00238867
0.00235253
0.00231985
0.00228072
0.00224606
0.00220506
0.00216909
0.00212932
0.00209241
0.00205718
0.00201975
0.00199112
0.0019568
0.00193436
0.00190688
0.00188825
0.00186778
0.00185396
0.00183854
0.00183192
0.00181883
0.00070008
0.000706293
0.00068986
0.000664556
0.000666186
0.000723683
0.000821229
0.000935266
0.00104668
0.00114856
0.00123763
0.00131983
0.00139697
0.00147176
0.00154615
0.00162223
0.00169984
0.00177972
0.00185931
0.00193872
0.00201765
0.00209538
0.00217133
0.00224484
0.00231595
0.00238375
0.00244877
0.00250979
0.0025677
0.0026203
0.00267145
0.00271564
0.00275349
0.00278588
0.00281372
0.00283758
0.00285811
0.00287546
0.00288985
0.00290153
0.00291066
0.00291749
0.00292209
0.00292473
0.00292541
0.00292446
0.00292176
0.00291773
0.00291207
0.00290543
0.00289726
0.00288847
0.00287812
0.00286753
0.00285534
0.00284321
0.00282941
0.00281595
0.00280082
0.00278621
0.00276995
0.00275426
0.00273703
0.00272027
0.00270214
0.00268417
0.00266509
0.00264581
0.00262558
0.00260474
0.002583
0.00256034
0.00253673
0.00251194
0.00248576
0.00245854
0.00242925
0.00239927
0.00236665
0.00233358
0.00229781
0.00226231
0.00222387
0.00218694
0.00214707
0.00211013
0.00207207
0.00203609