/*--------------------------------*- C++ -*----------------------------------*\
| =========                 |                                                 |
| \\      /  F ield         | OpenFOAM: The Open Source CFD Toolbox           |
|  \\    /   O peration     | Version:  v2012                                 |
|   \\  /    A nd           | Website:  www.openfoam.com                      |
|    \\/     M anipulation  |                                                 |
\*---------------------------------------------------------------------------*/
FoamFile
{
    version     2.0;
    format      ascii;
    class       volVectorField;
    location    "0.385";
    object      U.air;
}
// * * * * * * * * * * * * * * * * * * * * * * * * * * * * * * * * * * * * * //

dimensions      [0 1 -1 0 0 0 0];


internalField   nonuniform List<vector> 
5600
(
(9.20612 0.00896191 0)
(8.83522 0.0172502 0)
(8.4562 0.0174869 0)
(8.07882 0.0144921 0)
(7.73099 0.00998174 0)
(7.42066 0.00527023 0)
(7.15467 0.000855964 0)
(6.93581 -0.0026698 0)
(6.75352 -0.00525035 0)
(6.60572 -0.0071735 0)
(6.48858 -0.00847271 0)
(6.39655 -0.00921775 0)
(6.32514 -0.0095147 0)
(6.26895 -0.00946771 0)
(6.22508 -0.00919367 0)
(6.18935 -0.00879136 0)
(6.16061 -0.00834062 0)
(6.1359 -0.0078803 0)
(6.11547 -0.00748038 0)
(6.09697 -0.0072209 0)
(6.08195 -0.00699332 0)
(6.06791 -0.00680967 0)
(6.05726 -0.00671236 0)
(6.0474 -0.00661936 0)
(6.04038 -0.00651771 0)
(6.03358 -0.00638369 0)
(6.02889 -0.00626625 0)
(6.02421 -0.00613852 0)
(6.0208 -0.00601889 0)
(6.01725 -0.0058819 0)
(6.0142 -0.00575129 0)
(6.01083 -0.00561751 0)
(6.00771 -0.00552195 0)
(6.00431 -0.00544894 0)
(6.00123 -0.00538522 0)
(5.99787 -0.00533084 0)
(5.99489 -0.00527844 0)
(5.99166 -0.00523258 0)
(5.98886 -0.00518704 0)
(5.98581 -0.00514584 0)
(5.98327 -0.00510472 0)
(5.9805 -0.00506349 0)
(5.97827 -0.00502042 0)
(5.9758 -0.00498823 0)
(5.97396 -0.00495622 0)
(5.9719 -0.00493992 0)
(5.97044 -0.00493208 0)
(5.96873 -0.00492917 0)
(5.96756 -0.00492183 0)
(5.96612 -0.00492281 0)
(5.96518 -0.00492962 0)
(5.96405 -0.00493696 0)
(5.96323 -0.00492909 0)
(5.96222 -0.00493657 0)
(5.96177 -0.00495662 0)
(5.96097 -0.00499056 0)
(5.96076 -0.00501014 0)
(5.96018 -0.00504425 0)
(5.96018 -0.00507872 0)
(5.95995 -0.00511827 0)
(5.96015 -0.00513916 0)
(5.96011 -0.00516884 0)
(5.96058 -0.00519401 0)
(5.96072 -0.00522569 0)
(5.96142 -0.00524902 0)
(5.96176 -0.00527888 0)
(5.96271 -0.00529515 0)
(5.96322 -0.00532241 0)
(5.9644 -0.00533525 0)
(5.96506 -0.00535819 0)
(5.96648 -0.00537171 0)
(5.96727 -0.0053932 0)
(5.96894 -0.00540515 0)
(5.96985 -0.00542398 0)
(5.97176 -0.00543599 0)
(5.97278 -0.00545242 0)
(5.97493 -0.00546311 0)
(5.97604 -0.00547704 0)
(5.97841 -0.00548633 0)
(5.97961 -0.00549777 0)
(5.98219 -0.00550617 0)
(5.98346 -0.00551215 0)
(5.98618 -0.00552232 0)
(5.98755 -0.00552095 0)
(5.99031 -0.00553498 0)
(5.99187 -0.00552527 0)
(5.99451 -0.0055544 0)
(5.99648 -0.00552484 0)
(5.99873 -0.00560167 0)
(6.00184 -0.00553428 0)
(6.00304 -0.00563613 0)
(6.00774 -0.00551778 0)
(6.00711 -0.0056548 0)
(6.0139 -0.00545008 0)
(6.01038 -0.00577394 0)
(6.02192 -0.00540364 0)
(6.0131 -0.00592683 0)
(6.03309 -0.00659758 0)
(6.03782 -0.00351613 0)
(5.9688 -0.0148956 0)
(9.39288 0.0365647 0)
(9.38797 0.0381869 0)
(9.35655 0.037573 0)
(9.29944 0.037613 0)
(9.22386 0.0368828 0)
(9.1356 0.0351032 0)
(9.03685 0.0325845 0)
(8.93108 0.0296857 0)
(8.82337 0.0268038 0)
(8.7158 0.02389 0)
(8.61166 0.0210227 0)
(8.51228 0.0184202 0)
(8.4193 0.0161293 0)
(8.33299 0.0141312 0)
(8.25432 0.0124476 0)
(8.18263 0.0110455 0)
(8.11852 0.00989062 0)
(8.06067 0.00894209 0)
(8.00968 0.00813397 0)
(7.96423 0.00738064 0)
(7.92506 0.00673475 0)
(7.89051 0.00615818 0)
(7.86083 0.00568398 0)
(7.83314 0.00527248 0)
(7.80942 0.00488395 0)
(7.78711 0.00452849 0)
(7.7681 0.0042084 0)
(7.74934 0.00394665 0)
(7.73291 0.00371141 0)
(7.71657 0.00351891 0)
(7.70234 0.00335403 0)
(7.68811 0.00320378 0)
(7.67589 0.0030978 0)
(7.66374 0.00301243 0)
(7.65336 0.00293805 0)
(7.64295 0.00286205 0)
(7.63405 0.00279408 0)
(7.62508 0.00272103 0)
(7.61743 0.00265439 0)
(7.60969 0.00258019 0)
(7.60314 0.00250671 0)
(7.59652 0.00243121 0)
(7.59093 0.00235463 0)
(7.58528 0.00226355 0)
(7.58054 0.00217751 0)
(7.57569 0.00210927 0)
(7.57159 0.00206058 0)
(7.56736 0.00201542 0)
(7.5638 0.00197701 0)
(7.56011 0.00194667 0)
(7.55707 0.00192449 0)
(7.55389 0.0019035 0)
(7.55131 0.00188663 0)
(7.5486 0.00185874 0)
(7.54651 0.00184911 0)
(7.54426 0.00185519 0)
(7.54263 0.00185996 0)
(7.54083 0.00186721 0)
(7.5396 0.00187212 0)
(7.53822 0.00188702 0)
(7.5374 0.0018924 0)
(7.5364 0.00189316 0)
(7.53595 0.00190119 0)
(7.53531 0.00190825 0)
(7.53518 0.0019134 0)
(7.53492 0.00191678 0)
(7.53505 0.00191816 0)
(7.5351 0.00191769 0)
(7.53549 0.00191934 0)
(7.53584 0.0019148 0)
(7.53654 0.00191488 0)
(7.53715 0.00190997 0)
(7.53815 0.00190985 0)
(7.53899 0.00190686 0)
(7.54027 0.00190175 0)
(7.54132 0.00189875 0)
(7.5429 0.0018936 0)
(7.54412 0.00189065 0)
(7.54596 0.00188307 0)
(7.5473 0.00188093 0)
(7.54941 0.00187269 0)
(7.55083 0.00187327 0)
(7.55322 0.00186277 0)
(7.55465 0.0018672 0)
(7.55738 0.00185427 0)
(7.55871 0.00186171 0)
(7.56193 0.00184231 0)
(7.563 0.00185793 0)
(7.56696 0.00181658 0)
(7.56748 0.00185241 0)
(7.57242 0.00180232 0)
(7.57203 0.0018474 0)
(7.57835 0.00180282 0)
(7.57623 0.00185938 0)
(7.58566 0.00175141 0)
(7.57948 0.00185243 0)
(7.59682 0.00160747 0)
(7.5813 0.00120483 0)
(7.61873 0.0038658 0)
(7.57052 -0.0140452 0)
(9.40085 0.0229773 0)
(9.42975 0.030481 0)
(9.46069 0.0319653 0)
(9.47753 0.0330074 0)
(9.48907 0.0320203 0)
(9.48978 0.0301469 0)
(9.48381 0.0271928 0)
(9.46897 0.0241376 0)
(9.44573 0.0213462 0)
(9.41435 0.0186673 0)
(9.37568 0.016201 0)
(9.3302 0.0139027 0)
(9.27897 0.0119681 0)
(9.22316 0.0102907 0)
(9.16431 0.00882217 0)
(9.10375 0.00751519 0)
(9.04302 0.0063389 0)
(8.98272 0.00525483 0)
(8.9252 0.00424751 0)
(8.86987 0.00328501 0)
(8.81887 0.00241444 0)
(8.77068 0.00159312 0)
(8.72753 0.000903264 0)
(8.68714 0.000339034 0)
(8.65142 -0.000153422 0)
(8.61777 -0.00054114 0)
(8.58821 -0.000826923 0)
(8.55967 -0.00100101 0)
(8.53457 -0.00115233 0)
(8.5103 -0.00126495 0)
(8.48921 -0.00136758 0)
(8.46866 -0.00146441 0)
(8.45102 -0.00155623 0)
(8.43367 -0.00163547 0)
(8.41879 -0.00170987 0)
(8.40398 -0.0017767 0)
(8.3913 -0.00183455 0)
(8.37862 -0.00188795 0)
(8.3678 -0.00193232 0)
(8.35695 -0.00197435 0)
(8.34773 -0.00201017 0)
(8.33848 -0.00203369 0)
(8.33064 -0.00205072 0)
(8.32277 -0.00205776 0)
(8.31591 -0.00205581 0)
(8.30893 -0.0020779 0)
(8.30289 -0.00210561 0)
(8.29673 -0.00213571 0)
(8.29146 -0.00215896 0)
(8.28608 -0.00217774 0)
(8.28155 -0.00218935 0)
(8.27689 -0.0022013 0)
(8.27305 -0.00220729 0)
(8.26908 -0.00221662 0)
(8.26589 -0.00225199 0)
(8.26258 -0.00230547 0)
(8.25999 -0.00234443 0)
(8.25727 -0.00239553 0)
(8.25522 -0.00245072 0)
(8.25303 -0.00250852 0)
(8.25147 -0.00254868 0)
(8.24977 -0.00259513 0)
(8.24866 -0.00263792 0)
(8.24738 -0.00268856 0)
(8.24667 -0.00273065 0)
(8.24581 -0.00277251 0)
(8.24547 -0.00280127 0)
(8.24497 -0.00284149 0)
(8.24496 -0.00286949 0)
(8.24491 -0.00290535 0)
(8.24516 -0.00293128 0)
(8.24543 -0.0029646 0)
(8.24602 -0.00298935 0)
(8.2466 -0.00302046 0)
(8.24751 -0.00304236 0)
(8.24837 -0.00307094 0)
(8.24959 -0.00308985 0)
(8.25063 -0.00311383 0)
(8.25211 -0.00312839 0)
(8.25332 -0.00315109 0)
(8.25507 -0.00316182 0)
(8.25639 -0.00318223 0)
(8.25844 -0.00319019 0)
(8.25982 -0.00321054 0)
(8.26221 -0.00321229 0)
(8.26356 -0.00324089 0)
(8.26644 -0.00323808 0)
(8.26763 -0.00327388 0)
(8.27121 -0.0032734 0)
(8.27193 -0.0033059 0)
(8.27645 -0.00329684 0)
(8.27641 -0.00332384 0)
(8.282 -0.00329292 0)
(8.28095 -0.00336662 0)
(8.28855 -0.00332436 0)
(8.28531 -0.00354336 0)
(8.29743 -0.00343488 0)
(8.28943 -0.00457305 0)
(8.31506 -0.00261909 0)
(8.30265 -0.0164857 0)
(9.3996 0.0218064 0)
(9.43085 0.0295975 0)
(9.46785 0.0303123 0)
(9.49945 0.0313236 0)
(9.52911 0.0312168 0)
(9.55564 0.0300526 0)
(9.58005 0.0284836 0)
(9.59928 0.026954 0)
(9.61516 0.0255122 0)
(9.62561 0.0241778 0)
(9.63331 0.0227091 0)
(9.63468 0.0216963 0)
(9.63265 0.0206015 0)
(9.62644 0.019609 0)
(9.61586 0.0187026 0)
(9.60083 0.0178274 0)
(9.58141 0.0169774 0)
(9.55748 0.0160841 0)
(9.52935 0.0151422 0)
(9.49712 0.0141282 0)
(9.46142 0.0130739 0)
(9.42259 0.0120301 0)
(9.38218 0.0110487 0)
(9.34073 0.0101126 0)
(9.30031 0.00922926 0)
(9.25989 0.00840601 0)
(9.22232 0.00768039 0)
(9.18611 0.00706067 0)
(9.15342 0.00649168 0)
(9.12224 0.00599294 0)
(9.09442 0.00555331 0)
(9.06779 0.00516459 0)
(9.0441 0.00481004 0)
(9.02065 0.0044987 0)
(8.99999 0.00421536 0)
(8.97945 0.00395815 0)
(8.96155 0.00372046 0)
(8.9437 0.00350001 0)
(8.92828 0.00329214 0)
(8.9129 0.00309796 0)
(8.8997 0.00290758 0)
(8.88659 0.002736 0)
(8.87529 0.0025664 0)
(8.86397 0.00242154 0)
(8.85421 0.0022974 0)
(8.84438 0.00215774 0)
(8.83591 0.00201871 0)
(8.82736 0.00188047 0)
(8.82002 0.0017519 0)
(8.8126 0.00161788 0)
(8.80629 0.00148648 0)
(8.79988 0.00135471 0)
(8.79452 0.00123336 0)
(8.78905 0.00109756 0)
(8.78454 0.00095393 0)
(8.77994 0.000827582 0)
(8.7762 0.000725544 0)
(8.77233 0.000623023 0)
(8.76924 0.000543594 0)
(8.76602 0.00046349 0)
(8.76352 0.000385499 0)
(8.76087 0.00030712 0)
(8.7589 0.000253033 0)
(8.75676 0.000197033 0)
(8.75527 0.000140501 0)
(8.75361 8.30932e-05 0)
(8.75255 3.04117e-05 0)
(8.75134 -2.74303e-05 0)
(8.75071 -8.17378e-05 0)
(8.74995 -0.000137428 0)
(8.7497 -0.000182819 0)
(8.7494 -0.000243772 0)
(8.74948 -0.000285504 0)
(8.74959 -0.000337552 0)
(8.74997 -0.00038658 0)
(8.75042 -0.000432329 0)
(8.75108 -0.00046967 0)
(8.75174 -0.000509718 0)
(8.75265 -0.000547279 0)
(8.75353 -0.000583745 0)
(8.7547 -0.000617197 0)
(8.75579 -0.000649747 0)
(8.75722 -0.000681159 0)
(8.75852 -0.000712865 0)
(8.7602 -0.000734491 0)
(8.76169 -0.000780524 0)
(8.76365 -0.000795851 0)
(8.76533 -0.00085079 0)
(8.76758 -0.000868119 0)
(8.76939 -0.000918542 0)
(8.77187 -0.000921084 0)
(8.7739 -0.000965329 0)
(8.7765 -0.000934103 0)
(8.77888 -0.0010497 0)
(8.78156 -0.00100181 0)
(8.78445 -0.00133478 0)
(8.78764 -0.00119259 0)
(8.79138 -0.00295459 0)
(8.79901 -0.000251951 0)
(8.81002 -0.0179859 0)
(9.39776 0.0183346 0)
(9.42812 0.0258217 0)
(9.46491 0.0260953 0)
(9.49891 0.0271394 0)
(9.531 0.0271868 0)
(9.56238 0.0262914 0)
(9.59287 0.024875 0)
(9.6206 0.023283 0)
(9.64597 0.0217711 0)
(9.66895 0.0202686 0)
(9.6899 0.0189389 0)
(9.70853 0.0176986 0)
(9.72517 0.0166374 0)
(9.73983 0.0157945 0)
(9.7527 0.0151329 0)
(9.76362 0.014602 0)
(9.7728 0.0141764 0)
(9.77966 0.0138025 0)
(9.78468 0.0134416 0)
(9.78666 0.0130463 0)
(9.78585 0.0127747 0)
(9.78228 0.0123524 0)
(9.77546 0.0118966 0)
(9.76524 0.0113848 0)
(9.75165 0.0108334 0)
(9.73468 0.0102385 0)
(9.71481 0.00960342 0)
(9.69249 0.0089662 0)
(9.66842 0.00831042 0)
(9.64296 0.00763416 0)
(9.61687 0.00700237 0)
(9.59012 0.00637996 0)
(9.56423 0.00581261 0)
(9.53812 0.00528656 0)
(9.51389 0.0048007 0)
(9.48955 0.00433295 0)
(9.46752 0.00389829 0)
(9.44545 0.00348039 0)
(9.4258 0.00308946 0)
(9.40613 0.00271532 0)
(9.38884 0.00235219 0)
(9.3715 0.00205207 0)
(9.35585 0.00176322 0)
(9.34012 0.00149664 0)
(9.32627 0.00124698 0)
(9.31241 0.00102828 0)
(9.30032 0.000835079 0)
(9.28819 0.000651173 0)
(9.27768 0.000479902 0)
(9.26712 0.000311762 0)
(9.25804 0.00015305 0)
(9.24889 -3.47898e-06 0)
(9.24109 -0.000155953 0)
(9.23324 -0.000322747 0)
(9.22655 -0.000457121 0)
(9.21978 -0.00055619 0)
(9.21401 -0.000635412 0)
(9.20814 -0.000710993 0)
(9.20315 -0.000750488 0)
(9.19807 -0.000791488 0)
(9.19379 -0.000824096 0)
(9.18944 -0.000877001 0)
(9.18583 -0.000951077 0)
(9.18214 -0.00102999 0)
(9.17914 -0.00109602 0)
(9.17608 -0.00116184 0)
(9.17365 -0.00121444 0)
(9.17119 -0.00128283 0)
(9.1693 -0.00134573 0)
(9.16744 -0.00140808 0)
(9.16604 -0.00146757 0)
(9.16473 -0.00152383 0)
(9.16374 -0.00157952 0)
(9.16291 -0.00163287 0)
(9.16229 -0.00168269 0)
(9.16189 -0.00173076 0)
(9.1616 -0.00177162 0)
(9.16158 -0.00181001 0)
(9.16165 -0.00184488 0)
(9.16193 -0.00188617 0)
(9.16228 -0.00191838 0)
(9.1629 -0.00195747 0)
(9.16352 -0.00198808 0)
(9.1645 -0.00202655 0)
(9.16532 -0.00205358 0)
(9.16671 -0.00209664 0)
(9.16765 -0.00212226 0)
(9.16951 -0.00217272 0)
(9.17049 -0.00219644 0)
(9.17286 -0.00223763 0)
(9.17376 -0.00225652 0)
(9.17674 -0.00229176 0)
(9.17751 -0.00229315 0)
(9.18112 -0.00237861 0)
(9.18185 -0.00237987 0)
(9.18591 -0.00264191 0)
(9.18733 -0.00264976 0)
(9.19181 -0.00408607 0)
(9.1962 -0.00363061 0)
(9.20617 -0.0176908 0)
(9.39591 0.0145845 0)
(9.42524 0.0219382 0)
(9.46136 0.0220245 0)
(9.49599 0.022926 0)
(9.52805 0.023017 0)
(9.56017 0.0222533 0)
(9.59139 0.0210443 0)
(9.62077 0.0197316 0)
(9.64783 0.0185338 0)
(9.67352 0.0174185 0)
(9.69737 0.0164009 0)
(9.72003 0.0155748 0)
(9.74109 0.0148844 0)
(9.76135 0.0143344 0)
(9.78025 0.0139187 0)
(9.7987 0.0135772 0)
(9.81594 0.0133159 0)
(9.83288 0.0130678 0)
(9.84857 0.0128468 0)
(9.86393 0.0126493 0)
(9.87789 0.0123944 0)
(9.8913 0.0121173 0)
(9.90319 0.0118814 0)
(9.9142 0.0116541 0)
(9.92363 0.0114555 0)
(9.93167 0.0112548 0)
(9.93803 0.0110459 0)
(9.94234 0.010849 0)
(9.94504 0.0105836 0)
(9.9449 0.010402 0)
(9.94292 0.0101318 0)
(9.93878 0.00980853 0)
(9.93251 0.00948186 0)
(9.92433 0.00911421 0)
(9.91435 0.00871468 0)
(9.90276 0.00829341 0)
(9.88982 0.00785125 0)
(9.87569 0.00741163 0)
(9.86073 0.00695346 0)
(9.84506 0.00651865 0)
(9.8291 0.0060555 0)
(9.8128 0.0056333 0)
(9.79688 0.00525035 0)
(9.78072 0.00488778 0)
(9.76548 0.00454347 0)
(9.75006 0.00421161 0)
(9.7359 0.00389584 0)
(9.72162 0.00358973 0)
(9.70874 0.0033066 0)
(9.69577 0.00303546 0)
(9.68421 0.00278389 0)
(9.67259 0.00255039 0)
(9.66229 0.00233964 0)
(9.65189 0.00216402 0)
(9.64238 0.00198286 0)
(9.63282 0.00179039 0)
(9.62421 0.00161947 0)
(9.61557 0.00144645 0)
(9.60783 0.00126543 0)
(9.60014 0.00109204 0)
(9.59325 0.000946928 0)
(9.58649 0.000783313 0)
(9.58042 0.000591514 0)
(9.57456 0.000399253 0)
(9.56928 0.000222572 0)
(9.56429 5.63692e-05 0)
(9.55974 -0.0001025 0)
(9.55556 -0.000241472 0)
(9.55167 -0.000377896 0)
(9.54823 -0.000504768 0)
(9.54489 -0.000630993 0)
(9.54207 -0.000745993 0)
(9.53923 -0.000857073 0)
(9.53693 -0.000955842 0)
(9.53457 -0.00105965 0)
(9.53276 -0.00114656 0)
(9.53086 -0.00123131 0)
(9.52959 -0.00131513 0)
(9.52814 -0.0013941 0)
(9.52737 -0.00146181 0)
(9.52631 -0.00153902 0)
(9.526 -0.00159939 0)
(9.52534 -0.00167952 0)
(9.52543 -0.00173098 0)
(9.52519 -0.00179541 0)
(9.52572 -0.00187269 0)
(9.52566 -0.00192107 0)
(9.52674 -0.00200187 0)
(9.52685 -0.0020513 0)
(9.52841 -0.00211757 0)
(9.52867 -0.00216615 0)
(9.5307 -0.0022213 0)
(9.53117 -0.00225354 0)
(9.53354 -0.0023542 0)
(9.53442 -0.00239334 0)
(9.53691 -0.00269398 0)
(9.53878 -0.00281233 0)
(9.54178 -0.00436486 0)
(9.54601 -0.00440465 0)
(9.55231 -0.0167815 0)
(9.39499 0.0113287 0)
(9.42269 0.0175898 0)
(9.45807 0.0175051 0)
(9.49304 0.0182247 0)
(9.52496 0.018365 0)
(9.55701 0.0177343 0)
(9.58823 0.0167455 0)
(9.61785 0.015697 0)
(9.64517 0.0147337 0)
(9.67131 0.013839 0)
(9.69568 0.0130084 0)
(9.71906 0.0123296 0)
(9.74098 0.0117259 0)
(9.76234 0.0112248 0)
(9.78254 0.0108362 0)
(9.80257 0.0105212 0)
(9.8217 0.0102795 0)
(9.84081 0.0100678 0)
(9.85912 0.00988719 0)
(9.87744 0.0097184 0)
(9.89495 0.00956201 0)
(9.91248 0.00939174 0)
(9.92914 0.00925352 0)
(9.94584 0.00912078 0)
(9.96166 0.00901489 0)
(9.97755 0.00890076 0)
(9.99243 0.00880018 0)
(10.0074 0.00869923 0)
(10.0212 0.00863685 0)
(10.0351 0.00855519 0)
(10.0475 0.00846334 0)
(10.06 0.00835812 0)
(10.0706 0.00826968 0)
(10.0814 0.00815925 0)
(10.0899 0.00805069 0)
(10.0985 0.00791665 0)
(10.1046 0.00778623 0)
(10.1106 0.00761459 0)
(10.114 0.00745462 0)
(10.1171 0.00722601 0)
(10.1177 0.00700649 0)
(10.1172 0.00684754 0)
(10.1155 0.00661309 0)
(10.1127 0.00634745 0)
(10.1086 0.00606509 0)
(10.1035 0.00576763 0)
(10.0974 0.00545859 0)
(10.0905 0.00514224 0)
(10.0829 0.00481716 0)
(10.0746 0.00449084 0)
(10.0659 0.00415352 0)
(10.0569 0.00382912 0)
(10.0477 0.00348856 0)
(10.0384 0.00318126 0)
(10.0292 0.00287937 0)
(10.02 0.00259753 0)
(10.0111 0.0023289 0)
(10.0022 0.00207011 0)
(9.99366 0.00182587 0)
(9.98532 0.00159447 0)
(9.97731 0.00136122 0)
(9.96966 0.00113823 0)
(9.96225 0.000943224 0)
(9.95532 0.00076746 0)
(9.94857 0.000591412 0)
(9.94235 0.000419943 0)
(9.93629 0.000239476 0)
(9.93074 0.000104905 0)
(9.92509 -2.25418e-05 0)
(9.91993 -0.000142836 0)
(9.91465 -0.000270848 0)
(9.90998 -0.000391812 0)
(9.90514 -0.00051269 0)
(9.90101 -0.000629694 0)
(9.89666 -0.000754204 0)
(9.89309 -0.000861799 0)
(9.88925 -0.000968557 0)
(9.88624 -0.00107421 0)
(9.88292 -0.00118247 0)
(9.88049 -0.00128314 0)
(9.87769 -0.00138741 0)
(9.87582 -0.0014836 0)
(9.87354 -0.00158166 0)
(9.8722 -0.00167265 0)
(9.87042 -0.00177554 0)
(9.86958 -0.00184595 0)
(9.86826 -0.00195815 0)
(9.86789 -0.0020301 0)
(9.86706 -0.00213816 0)
(9.86702 -0.00219323 0)
(9.86675 -0.00229864 0)
(9.86694 -0.00234467 0)
(9.8671 -0.00241312 0)
(9.8676 -0.0025284 0)
(9.86821 -0.00261062 0)
(9.86911 -0.0029279 0)
(9.87035 -0.00315363 0)
(9.87209 -0.00472347 0)
(9.87503 -0.0054098 0)
(9.87848 -0.0164074 0)
(9.39444 0.00798796 0)
(9.42062 0.0126897 0)
(9.45547 0.0125409 0)
(9.49059 0.0130639 0)
(9.52238 0.0132106 0)
(9.5543 0.0127477 0)
(9.58552 0.0120297 0)
(9.6151 0.0112633 0)
(9.64248 0.0105434 0)
(9.6686 0.00987298 0)
(9.69308 0.0092485 0)
(9.71651 0.00873808 0)
(9.73862 0.00828884 0)
(9.76009 0.00792759 0)
(9.78059 0.00765962 0)
(9.80083 0.00745609 0)
(9.82037 0.00730879 0)
(9.83981 0.00718621 0)
(9.85867 0.0070794 0)
(9.87749 0.00698336 0)
(9.89577 0.00689666 0)
(9.914 0.00678274 0)
(9.93171 0.00668116 0)
(9.94941 0.00658392 0)
(9.96667 0.00650473 0)
(9.98394 0.00642494 0)
(10.0008 0.00635263 0)
(10.0177 0.00629097 0)
(10.0342 0.00624045 0)
(10.0507 0.00621162 0)
(10.0668 0.00616522 0)
(10.083 0.0061139 0)
(10.0986 0.00607016 0)
(10.1144 0.00602765 0)
(10.1294 0.00598243 0)
(10.1446 0.00593796 0)
(10.159 0.00588973 0)
(10.1736 0.00584039 0)
(10.1871 0.00578575 0)
(10.2009 0.00573939 0)
(10.2134 0.00571444 0)
(10.2262 0.00563235 0)
(10.2374 0.00555106 0)
(10.249 0.00546868 0)
(10.2588 0.005392 0)
(10.2689 0.005307 0)
(10.2771 0.00522288 0)
(10.2856 0.00512305 0)
(10.292 0.00502191 0)
(10.2987 0.0048969 0)
(10.3032 0.00477331 0)
(10.3079 0.00462119 0)
(10.3105 0.00448454 0)
(10.313 0.00432725 0)
(10.3142 0.0041776 0)
(10.3148 0.00397399 0)
(10.3145 0.00383786 0)
(10.3136 0.00364252 0)
(10.312 0.00342927 0)
(10.3099 0.0032156 0)
(10.3071 0.00299257 0)
(10.304 0.00277379 0)
(10.3003 0.00254923 0)
(10.2965 0.00232034 0)
(10.2922 0.00208159 0)
(10.2878 0.00184957 0)
(10.2831 0.00161259 0)
(10.2786 0.00139168 0)
(10.2738 0.0011666 0)
(10.2693 0.00096879 0)
(10.2645 0.000758684 0)
(10.2601 0.00057445 0)
(10.2555 0.000377736 0)
(10.2513 0.000203294 0)
(10.2468 6.18335e-06 0)
(10.2429 -0.000173443 0)
(10.2387 -0.000366475 0)
(10.2352 -0.000512255 0)
(10.2313 -0.000663092 0)
(10.2281 -0.000803993 0)
(10.2246 -0.000953845 0)
(10.2218 -0.00109054 0)
(10.2187 -0.00123311 0)
(10.2163 -0.00136258 0)
(10.2137 -0.00149747 0)
(10.2116 -0.00161598 0)
(10.2094 -0.00175057 0)
(10.2077 -0.00187451 0)
(10.2058 -0.00198653 0)
(10.2044 -0.00209816 0)
(10.2029 -0.00219998 0)
(10.2017 -0.00229887 0)
(10.2006 -0.00238564 0)
(10.1996 -0.00253132 0)
(10.1988 -0.00263849 0)
(10.1981 -0.00300267 0)
(10.1978 -0.00330611 0)
(10.1976 -0.00484554 0)
(10.1985 -0.00611566 0)
(10.1986 -0.0156851 0)
(9.39406 0.0045463 0)
(9.41913 0.00728872 0)
(9.45366 0.00712327 0)
(9.48883 0.00743215 0)
(9.52054 0.00752734 0)
(9.55233 0.00723918 0)
(9.58357 0.00681022 0)
(9.6131 0.00633667 0)
(9.64053 0.00588242 0)
(9.6666 0.00547088 0)
(9.69114 0.00509232 0)
(9.71453 0.00478423 0)
(9.7367 0.00451385 0)
(9.75813 0.00429494 0)
(9.77872 0.00413142 0)
(9.79892 0.0040044 0)
(9.81856 0.00390981 0)
(9.83799 0.00383007 0)
(9.85697 0.00375856 0)
(9.87581 0.00369868 0)
(9.89425 0.00364523 0)
(9.91255 0.00356599 0)
(9.93047 0.00349508 0)
(9.9483 0.00343129 0)
(9.96583 0.00338404 0)
(9.98331 0.00333742 0)
(10.0005 0.00329554 0)
(10.0177 0.0032577 0)
(10.0347 0.00323132 0)
(10.0516 0.00322755 0)
(10.0684 0.0032038 0)
(10.0852 0.00317362 0)
(10.1017 0.00315041 0)
(10.1182 0.00313107 0)
(10.1345 0.00310944 0)
(10.1509 0.00308755 0)
(10.1669 0.00306516 0)
(10.183 0.00303935 0)
(10.1988 0.00301376 0)
(10.2146 0.00299014 0)
(10.2301 0.00297469 0)
(10.2457 0.00294241 0)
(10.2608 0.00291347 0)
(10.276 0.00288865 0)
(10.2908 0.00286507 0)
(10.3056 0.00284141 0)
(10.3199 0.00281678 0)
(10.3343 0.00279191 0)
(10.3481 0.00276541 0)
(10.362 0.00273916 0)
(10.3751 0.00271191 0)
(10.3884 0.00268587 0)
(10.4009 0.00266064 0)
(10.4135 0.00262552 0)
(10.425 0.00259804 0)
(10.4368 0.00256598 0)
(10.4474 0.00250763 0)
(10.4582 0.00244717 0)
(10.4677 0.00238882 0)
(10.4774 0.00232859 0)
(10.4857 0.00226479 0)
(10.4943 0.00219279 0)
(10.5013 0.00211532 0)
(10.5085 0.0020237 0)
(10.5142 0.00193023 0)
(10.5201 0.00182571 0)
(10.5244 0.00172617 0)
(10.5289 0.00161573 0)
(10.532 0.00150789 0)
(10.5354 0.00139085 0)
(10.5375 0.00127024 0)
(10.5397 0.00113075 0)
(10.5409 0.00100848 0)
(10.5421 0.000853442 0)
(10.5426 0.000708184 0)
(10.5428 0.000569235 0)
(10.5426 0.000401451 0)
(10.5421 0.000249649 0)
(10.5413 8.85583e-05 0)
(10.5404 -7.19123e-05 0)
(10.5391 -0.000236476 0)
(10.5377 -0.000399414 0)
(10.536 -0.000562143 0)
(10.5343 -0.000722668 0)
(10.5324 -0.000882473 0)
(10.5304 -0.00103944 0)
(10.5284 -0.00119854 0)
(10.5262 -0.00136541 0)
(10.524 -0.00151139 0)
(10.5217 -0.00165884 0)
(10.5194 -0.00178778 0)
(10.5169 -0.0019113 0)
(10.5144 -0.00202523 0)
(10.5119 -0.0021808 0)
(10.5093 -0.002336 0)
(10.5066 -0.00268491 0)
(10.5041 -0.00310343 0)
(10.5012 -0.00467061 0)
(10.4992 -0.00635245 0)
(10.4959 -0.0144558 0)
(9.39387 0.000961402 0)
(9.41839 0.00131875 0)
(9.45277 0.00114289 0)
(9.48798 0.00123292 0)
(9.51963 0.00123336 0)
(9.55136 0.0011358 0)
(9.58262 0.00103113 0)
(9.61211 0.000880413 0)
(9.63957 0.000725228 0)
(9.66561 0.000602797 0)
(9.69018 0.000491503 0)
(9.71355 0.00040191 0)
(9.73575 0.000320374 0)
(9.75716 0.000250758 0)
(9.77778 0.000201183 0)
(9.79796 0.000165941 0)
(9.81762 0.000145457 0)
(9.83703 0.00013367 0)
(9.85604 0.00012269 0)
(9.87487 0.000123668 0)
(9.89333 0.000127344 0)
(9.91162 0.000105783 0)
(9.92956 8.28437e-05 0)
(9.9474 6.23928e-05 0)
(9.96497 5.0706e-05 0)
(9.98246 3.54591e-05 0)
(9.99972 1.94819e-05 0)
(10.0169 -1.03348e-06 0)
(10.034 -7.26551e-06 0)
(10.051 2.17564e-06 0)
(10.0678 -5.43354e-06 0)
(10.0847 -1.89974e-05 0)
(10.1013 -2.57266e-05 0)
(10.118 -2.72914e-05 0)
(10.1345 -3.10497e-05 0)
(10.151 -3.36411e-05 0)
(10.1673 -3.75828e-05 0)
(10.1836 -4.10242e-05 0)
(10.1997 -5.02721e-05 0)
(10.2158 -5.08557e-05 0)
(10.2318 -4.43319e-05 0)
(10.2477 -4.51374e-05 0)
(10.2634 -5.08401e-05 0)
(10.2792 -5.60902e-05 0)
(10.2947 -6.24716e-05 0)
(10.3103 -6.79931e-05 0)
(10.3256 -7.42837e-05 0)
(10.341 -7.98874e-05 0)
(10.3562 -8.59808e-05 0)
(10.3713 -9.26246e-05 0)
(10.3863 -9.8662e-05 0)
(10.4012 -0.000104649 0)
(10.416 -0.000113651 0)
(10.4307 -0.000127597 0)
(10.4452 -0.000127094 0)
(10.4597 -0.000137173 0)
(10.4738 -0.000144588 0)
(10.4881 -0.000147655 0)
(10.5019 -0.00015222 0)
(10.5158 -0.000153986 0)
(10.5292 -0.000157794 0)
(10.5428 -0.000159384 0)
(10.5558 -0.000163041 0)
(10.5689 -0.000164238 0)
(10.5814 -0.00016642 0)
(10.594 -0.000162829 0)
(10.606 -0.000162366 0)
(10.6179 -0.000168064 0)
(10.6292 -0.000185922 0)
(10.6404 -0.000196174 0)
(10.651 -0.000221355 0)
(10.6614 -0.000241433 0)
(10.6712 -0.000265452 0)
(10.6806 -0.000292961 0)
(10.6894 -0.00031661 0)
(10.6977 -0.00035128 0)
(10.7056 -0.00038206 0)
(10.7127 -0.000432186 0)
(10.7193 -0.000494512 0)
(10.7252 -0.000555494 0)
(10.7306 -0.000623826 0)
(10.7351 -0.000692217 0)
(10.7392 -0.000764813 0)
(10.7423 -0.000832583 0)
(10.745 -0.000905838 0)
(10.7466 -0.000974096 0)
(10.748 -0.00106141 0)
(10.7482 -0.00111464 0)
(10.748 -0.00118451 0)
(10.7471 -0.0012607 0)
(10.7455 -0.00132884 0)
(10.7434 -0.00139543 0)
(10.7407 -0.00145502 0)
(10.7374 -0.00155521 0)
(10.7336 -0.00166138 0)
(10.7292 -0.00194268 0)
(10.7245 -0.00236065 0)
(10.7191 -0.00373695 0)
(10.7136 -0.00567087 0)
(10.706 -0.0127136 0)
(9.39391 -0.00274662 0)
(9.41859 -0.00496299 0)
(9.45306 -0.00513902 0)
(9.48829 -0.00527025 0)
(9.51995 -0.00538296 0)
(9.55169 -0.00527937 0)
(9.58296 -0.00503875 0)
(9.61243 -0.00485178 0)
(9.6399 -0.00469193 0)
(9.66595 -0.00450958 0)
(9.69052 -0.00434268 0)
(9.71389 -0.00420223 0)
(9.73609 -0.00408578 0)
(9.7575 -0.00399726 0)
(9.77812 -0.00392451 0)
(9.7983 -0.00386084 0)
(9.81797 -0.00380267 0)
(9.83738 -0.00374544 0)
(9.85639 -0.00369987 0)
(9.87522 -0.00364274 0)
(9.89368 -0.00358733 0)
(9.91196 -0.00356006 0)
(9.92992 -0.00354323 0)
(9.94775 -0.00352732 0)
(9.96532 -0.00350627 0)
(9.98281 -0.00349047 0)
(10.0001 -0.00347748 0)
(10.0173 -0.00347742 0)
(10.0343 -0.00345848 0)
(10.0514 -0.00343025 0)
(10.0682 -0.00341603 0)
(10.085 -0.00340927 0)
(10.1017 -0.00339762 0)
(10.1184 -0.00338211 0)
(10.1348 -0.00336863 0)
(10.1513 -0.00335441 0)
(10.1676 -0.00334291 0)
(10.1839 -0.00332815 0)
(10.2 -0.00332656 0)
(10.2161 -0.00330949 0)
(10.232 -0.00328897 0)
(10.2479 -0.00327623 0)
(10.2637 -0.00326945 0)
(10.2794 -0.00326128 0)
(10.2949 -0.00325217 0)
(10.3104 -0.0032404 0)
(10.3257 -0.00322877 0)
(10.341 -0.00321497 0)
(10.3561 -0.00320196 0)
(10.3711 -0.00318708 0)
(10.386 -0.0031728 0)
(10.4008 -0.00315171 0)
(10.4155 -0.00313674 0)
(10.43 -0.00312092 0)
(10.4444 -0.00310045 0)
(10.4586 -0.00308784 0)
(10.4726 -0.00307277 0)
(10.4865 -0.00305894 0)
(10.5001 -0.00304965 0)
(10.5136 -0.0030384 0)
(10.5268 -0.00302839 0)
(10.5397 -0.00301701 0)
(10.5524 -0.0030069 0)
(10.5648 -0.00299787 0)
(10.5769 -0.00298711 0)
(10.5886 -0.00297071 0)
(10.6 -0.00294593 0)
(10.6109 -0.00292495 0)
(10.6215 -0.00289623 0)
(10.6316 -0.00287492 0)
(10.6413 -0.00283018 0)
(10.6504 -0.00278361 0)
(10.6591 -0.00272859 0)
(10.6671 -0.00268071 0)
(10.6747 -0.00261948 0)
(10.6816 -0.0025556 0)
(10.688 -0.00249037 0)
(10.6937 -0.00242159 0)
(10.6988 -0.00233751 0)
(10.7032 -0.00224455 0)
(10.707 -0.00214688 0)
(10.7102 -0.00204635 0)
(10.7126 -0.0019513 0)
(10.7146 -0.00185139 0)
(10.7158 -0.00175713 0)
(10.7167 -0.0016299 0)
(10.7167 -0.00154898 0)
(10.7163 -0.00143261 0)
(10.7154 -0.00132047 0)
(10.714 -0.00120274 0)
(10.712 -0.00107764 0)
(10.7095 -0.000962277 0)
(10.7065 -0.000852907 0)
(10.703 -0.000793317 0)
(10.6991 -0.000767762 0)
(10.6946 -0.000908877 0)
(10.6898 -0.00121823 0)
(10.6842 -0.00239696 0)
(10.678 -0.00430291 0)
(10.6694 -0.0101589 0)
(9.39419 -0.00640484 0)
(9.41974 -0.0109651 0)
(9.45454 -0.0111169 0)
(9.48976 -0.0114686 0)
(9.52147 -0.0116792 0)
(9.55329 -0.0113827 0)
(9.58458 -0.010815 0)
(9.61405 -0.0103138 0)
(9.64151 -0.00985724 0)
(9.66758 -0.00938236 0)
(9.69213 -0.00894912 0)
(9.71552 -0.00858615 0)
(9.7377 -0.00827836 0)
(9.75912 -0.00803773 0)
(9.77972 -0.00785022 0)
(9.79993 -0.00769481 0)
(9.81957 -0.00756341 0)
(9.83901 -0.00743897 0)
(9.858 -0.00733867 0)
(9.87685 -0.00722327 0)
(9.89528 -0.00711322 0)
(9.91357 -0.0070355 0)
(9.93148 -0.00697738 0)
(9.94932 -0.00692585 0)
(9.96684 -0.00687438 0)
(9.98432 -0.00683275 0)
(10.0015 -0.00679615 0)
(10.0187 -0.0067829 0)
(10.0356 -0.0067451 0)
(10.0526 -0.00670312 0)
(10.0693 -0.0066716 0)
(10.086 -0.0066475 0)
(10.1025 -0.00661831 0)
(10.119 -0.00658524 0)
(10.1353 -0.00655157 0)
(10.1515 -0.00651609 0)
(10.1675 -0.00648239 0)
(10.1835 -0.00644326 0)
(10.1991 -0.00641747 0)
(10.2148 -0.0063716 0)
(10.2302 -0.00632554 0)
(10.2454 -0.00628801 0)
(10.2604 -0.00625569 0)
(10.2752 -0.00622415 0)
(10.2897 -0.00619145 0)
(10.304 -0.00615876 0)
(10.318 -0.00612542 0)
(10.3317 -0.00609345 0)
(10.3451 -0.00605969 0)
(10.3581 -0.00603061 0)
(10.3707 -0.00599426 0)
(10.3828 -0.00596535 0)
(10.3945 -0.00591404 0)
(10.4056 -0.00585065 0)
(10.4162 -0.00578415 0)
(10.4263 -0.00571916 0)
(10.4357 -0.00564856 0)
(10.4445 -0.00557275 0)
(10.4525 -0.00549185 0)
(10.4599 -0.00539927 0)
(10.4665 -0.00529827 0)
(10.4724 -0.0051857 0)
(10.4775 -0.00506588 0)
(10.4819 -0.00493753 0)
(10.4854 -0.00481212 0)
(10.4884 -0.00468322 0)
(10.4906 -0.0045478 0)
(10.4924 -0.00439869 0)
(10.4935 -0.00425201 0)
(10.4941 -0.0040571 0)
(10.4941 -0.00392981 0)
(10.4937 -0.00375868 0)
(10.4928 -0.00357462 0)
(10.4916 -0.00339363 0)
(10.4901 -0.00320408 0)
(10.4882 -0.00301391 0)
(10.4861 -0.00282708 0)
(10.4837 -0.00263734 0)
(10.4812 -0.0024451 0)
(10.4785 -0.00225282 0)
(10.4757 -0.00206788 0)
(10.4728 -0.00188008 0)
(10.4699 -0.00170054 0)
(10.467 -0.00153133 0)
(10.464 -0.00137203 0)
(10.4611 -0.00122125 0)
(10.4581 -0.0010708 0)
(10.4552 -0.000939502 0)
(10.4523 -0.00083345 0)
(10.4493 -0.00072809 0)
(10.4464 -0.000591395 0)
(10.4434 -0.000444638 0)
(10.4405 -0.000304652 0)
(10.4376 -0.000182657 0)
(10.4347 -0.000102306 0)
(10.4317 -0.000177974 0)
(10.4285 -0.000473953 0)
(10.4249 -0.00148784 0)
(10.4206 -0.00324134 0)
(10.414 -0.00810689 0)
(9.39466 -0.00995994 0)
(9.42161 -0.0164553 0)
(9.45695 -0.0165733 0)
(9.49209 -0.0171225 0)
(9.52391 -0.0173744 0)
(9.55584 -0.0168866 0)
(9.58718 -0.0160131 0)
(9.61662 -0.0152317 0)
(9.6441 -0.014513 0)
(9.67017 -0.0137793 0)
(9.69473 -0.0131086 0)
(9.71809 -0.0125474 0)
(9.74026 -0.0120651 0)
(9.76166 -0.0116809 0)
(9.78224 -0.0113842 0)
(9.80242 -0.0111465 0)
(9.82201 -0.0109554 0)
(9.8414 -0.0107752 0)
(9.86029 -0.0106318 0)
(9.87906 -0.0104661 0)
(9.89733 -0.0103083 0)
(9.91548 -0.0101837 0)
(9.93316 -0.0100832 0)
(9.9508 -0.00998767 0)
(9.968 -0.00989436 0)
(9.98519 -0.00981299 0)
(10.0019 -0.00974214 0)
(10.0187 -0.00970142 0)
(10.0351 -0.00963458 0)
(10.0514 -0.00956947 0)
(10.0673 -0.00951383 0)
(10.0832 -0.00946456 0)
(10.0986 -0.00940997 0)
(10.1139 -0.00935562 0)
(10.1286 -0.00929851 0)
(10.1432 -0.00924561 0)
(10.1571 -0.00918434 0)
(10.1707 -0.00913787 0)
(10.1836 -0.0090821 0)
(10.1962 -0.0090007 0)
(10.2078 -0.00891703 0)
(10.219 -0.00882964 0)
(10.2291 -0.00874022 0)
(10.2386 -0.00864186 0)
(10.247 -0.00853669 0)
(10.2547 -0.00841625 0)
(10.2611 -0.00828795 0)
(10.2668 -0.0081392 0)