/*--------------------------------*- C++ -*----------------------------------*\
| =========                 |                                                 |
| \\      /  F ield         | OpenFOAM: The Open Source CFD Toolbox           |
|  \\    /   O peration     | Version:  v2012                                 |
|   \\  /    A nd           | Website:  www.openfoam.com                      |
|    \\/     M anipulation  |                                                 |
\*---------------------------------------------------------------------------*/
FoamFile
{
    version     2.0;
    format      ascii;
    class       Cloud<basicKinematicParcel>;
    location    "0.054/lagrangian/kinematicCloud";
    object      positions;
}
// * * * * * * * * * * * * * * * * * * * * * * * * * * * * * * * * * * * * * //

57
(
(0.139942 0.00430049 0.03) 207
(0.142636 0.0111317 0.03) 508
(0.138277 0.0162158 0.03) 707
(0.129813 0.00718208 0.03) 306
(0.126227 0.0212203 0.03) 806
(0.121033 0.0180207 0.03) 705
(0.0732597 0.0013456 0.03) 100
(0.110606 0.0226257 0.03) 904
(0.105105 0.0236104 0.03) 904
(0.100012 0.00973305 0.03) 403
(0.09883 0.00900168 0.03) 403
(0.0941574 0.00568303 0.03) 302
(0.0132084 0.026575 0.03) 91
(0.0121884 5.95403e-05 0.03) 1
(0.0462098 0.025563 0.03) 96
(0.076753 0.0124291 0.03) 501
(0.0729438 0.00265372 0.03) 100
(0.0676882 0.0243819 0.03) 1000
(0.0650549 0.00462538 0.03) 19
(0.0651253 0.0220074 0.03) 89
(0.0611325 0.0195319 0.03) 79
(0.0265274 0.0258408 0.03) 93
(0.0538314 0.0204461 0.03) 78
(0.0499175 0.00349421 0.03) 17
(0.0491572 0.00859657 0.03) 37
(0.0461281 0.0203988 0.03) 76
(0.0429567 0.00385394 0.03) 16
(0.0431775 0.0216968 0.03) 86
(0.025268 0.00114611 0.03) 3
(0.0399048 0.0231332 0.03) 85
(0.00790627 0.00017196 0.03) 1
(0.031519 0.00204557 0.03) 4
(0.0140212 0.025931 0.03) 92
(0.0283595 0.0149444 0.03) 54
(0.0280476 0.00575926 0.03) 24
(0.0265751 0.0184111 0.03) 63
(0.0237857 0.010188 0.03) 33
(0.0224488 0.0102082 0.03) 33
(0.0199275 0.0186114 0.03) 62
(0.00799883 0.000634463 0.03) 1
(0.0169649 0.00711872 0.03) 22
(0.0145903 0.0174778 0.03) 62
(0.0126979 0.00350088 0.03) 11
(0.0119532 0.00531208 0.03) 11
(0.0102559 0.00794939 0.03) 21
(0.00891548 0.0162144 0.03) 61
(0.00738853 0.0222196 0.03) 81
(0.0065653 0.0120371 0.03) 40
(0.00514888 0.0105107 0.03) 30
(0.00438767 0.0210717 0.03) 70
(0.00342916 0.00264116 0.03) 0
(0.00313048 0.0082809 0.03) 30
(0.00263737 0.0234997 0.03) 80
(0.00131727 0.000694274 0.03) 0
(0.00112718 0.0179304 0.03) 60
(0.00161366 0.0181394 0.03) 60
(0.00149738 0.0241214 0.03) 90
)


// ************************************************************************* //
