/*--------------------------------*- C++ -*----------------------------------*\
| =========                 |                                                 |
| \\      /  F ield         | OpenFOAM: The Open Source CFD Toolbox           |
|  \\    /   O peration     | Version:  v2012                                 |
|   \\  /    A nd           | Website:  www.openfoam.com                      |
|    \\/     M anipulation  |                                                 |
\*---------------------------------------------------------------------------*/
FoamFile
{
    version     2.0;
    format      ascii;
    class       vectorField;
    location    "0.054/lagrangian/kinematicCloud";
    object      UCorrect;
}
// * * * * * * * * * * * * * * * * * * * * * * * * * * * * * * * * * * * * * //


57
(
(0 0 0)
(-1.1174e-24 1.04423e-25 0)
(-1.15911e-24 5.9139e-26 0)
(0 0 0)
(0 0 0)
(0 0 0)
(3.74838e-08 3.11732e-10 0)
(-1.73665e-09 -8.60099e-11 0)
(1.26168e-09 8.17517e-11 0)
(-9.55473e-11 -1.9241e-12 0)
(1.03362e-11 -5.62309e-12 0)
(0 0 0)
(0 0 0)
(7.16755e-09 3.21534e-13 0)
(-1.38303e-25 -1.88579e-28 0)
(0 0 0)
(-3.84643e-08 -4.50299e-10 0)
(-3.6679e-28 -3.54198e-30 0)
(0 0 0)
(0 0 0)
(0 0 0)
(-3.40657e-26 -2.64012e-30 0)
(0 0 0)
(0 0 0)
(0 0 0)
(-1.34639e-28 -5.08634e-31 0)
(0 0 0)
(0 0 0)
(0 0 0)
(0 0 0)
(6.66084e-09 6.49661e-14 0)
(0 0 0)
(0 0 0)
(-5.65345e-25 -4.6214e-28 0)
(-5.64293e-25 -3.45806e-28 0)
(0 0 0)
(-8.52806e-10 -1.80339e-13 0)
(5.94659e-10 3.85765e-14 0)
(-7.04038e-09 -1.72023e-12 0)
(-1.39595e-08 -3.91879e-13 0)
(0 0 0)
(6.24582e-09 1.5574e-12 0)
(-8.96153e-10 9.12724e-14 0)
(6.23108e-10 -1.29307e-13 0)
(0 0 0)
(0 0 0)
(0 0 0)
(0 0 0)
(-7.80029e-09 -6.04829e-13 0)
(0 0 0)
(-2.09887e-08 -4.22491e-13 0)
(6.91801e-09 5.31741e-13 0)
(-4.74008e-30 3.00048e-34 0)
(1.98565e-08 3.57821e-13 0)
(-1.01877e-09 -1.20494e-15 0)
(7.08195e-10 6.8081e-15 0)
(0 0 0)
)


// ************************************************************************* //
