/*--------------------------------*- C++ -*----------------------------------*\
| =========                 |                                                 |
| \\      /  F ield         | OpenFOAM: The Open Source CFD Toolbox           |
|  \\    /   O peration     | Version:  v2012                                 |
|   \\  /    A nd           | Website:  www.openfoam.com                      |
|    \\/     M anipulation  |                                                 |
\*---------------------------------------------------------------------------*/
FoamFile
{
    version     2.0;
    format      ascii;
    class       vectorField;
    location    "0.054/lagrangian/kinematicCloud";
    object      UCorrect;
}
// * * * * * * * * * * * * * * * * * * * * * * * * * * * * * * * * * * * * * //


54
(
(0 0 0)
(0 0 0)
(0 0 0)
(0 0 0)
(0 0 0)
(0 0 0)
(0 0 0)
(-8.26156e-27 -2.39717e-29 0)
(0 0 0)
(-9.9653e-27 -7.16628e-30 0)
(-9.02641e-27 -2.48124e-30 0)
(0 0 0)
(0 0 0)
(-5.14854e-27 2.2382e-29 0)
(-6.43256e-30 -2.73959e-32 0)
(-8.826e-27 -2.07398e-31 0)
(-9.60848e-27 2.29774e-29 0)
(-7.70775e-27 -2.66349e-29 0)
(-1.35987e-26 -2.00525e-29 0)
(0 0 0)
(-1.28325e-26 1.88083e-29 0)
(-1.01925e-26 -2.38271e-29 0)
(-1.29775e-29 2.10496e-32 0)
(-1.51329e-26 -2.10966e-29 0)
(-2.21549e-26 -1.45821e-29 0)
(0 0 0)
(-1.59759e-26 -1.80983e-29 0)
(-1.50664e-29 3.27311e-32 0)
(0 0 0)
(0 0 0)
(1.18227e-26 5.74038e-30 0)
(0 0 0)
(0 0 0)
(-1.14756e-26 5.93711e-30 0)
(-1.72756e-26 -3.21296e-29 0)
(0 0 0)
(-1.46262e-26 -2.01386e-29 0)
(-1.34723e-26 -1.23762e-29 0)
(0 0 0)
(-8.03463e-27 1.45435e-29 0)
(0 0 0)
(0 0 0)
(-2.02023e-26 -6.37743e-29 0)
(0 0 0)
(-1.89794e-26 -5.09641e-29 0)
(-1.57866e-26 3.62117e-29 0)
(0 0 0)
(-1.48274e-26 -5.76536e-30 0)
(-1.67416e-26 -3.67105e-29 0)
(0 0 0)
(-2.89721e-26 -2.04836e-28 0)
(-1.9726e-26 -4.77154e-29 0)
(0 0 0)
(-8.93048e-30 -5.8154e-32 0)
)


// ************************************************************************* //
