/*--------------------------------*- C++ -*----------------------------------*\
| =========                 |                                                 |
| \\      /  F ield         | OpenFOAM: The Open Source CFD Toolbox           |
|  \\    /   O peration     | Version:  v2012                                 |
|   \\  /    A nd           | Website:  www.openfoam.com                      |
|    \\/     M anipulation  |                                                 |
\*---------------------------------------------------------------------------*/
FoamFile
{
    version     2.0;
    format      ascii;
    class       scalarField;
    location    "0.09/lagrangian/kinematicCloud";
    object      age;
}
// * * * * * * * * * * * * * * * * * * * * * * * * * * * * * * * * * * * * * //


93
(
0.0892
0.0882
0.0871
0.086
0.085
0.084
0.083
0.082
0.0809
0.0798
0.079725
0.0787
0.0776
0.0765
0.0754
0.0743
0.0732
0.0721
0.071
0.070925
0.0699
0.0688
0.0677
0.0666
0.066525
0.0655
0.0644
0.064325
0.0633
0.063225
0.0622
0.0611
0.06
0.0589
0.058825
0.0579
0.0569
0.0559
0.0549
0.0539
0.0529
0.0519
0.0509
0.0499
0.0489
0.0479
0.0469
0.0459
0.0449
0.0439
0.0429
0.0419
0.0409
0.0399
0.0389
0.0379
0.0369
0.0359
0.0349
0.0339
0.0329
0.0319
0.0309
0.0299
0.0289
0.0279
0.0269
0.0259
0.0249
0.0239
0.0229
0.0219
0.0209
0.0199
0.0189
0.0179
0.0169
0.0159
0.0149
0.0139
0.0129
0.0119
0.0109
0.0099
0.0089
0.0079
0.0069
0.0059
0.0049
0.0039
0.0029
0.0019
0.0009
)


// ************************************************************************* //
