/*--------------------------------*- C++ -*----------------------------------*\
| =========                 |                                                 |
| \\      /  F ield         | OpenFOAM: The Open Source CFD Toolbox           |
|  \\    /   O peration     | Version:  v2012                                 |
|   \\  /    A nd           | Website:  www.openfoam.com                      |
|    \\/     M anipulation  |                                                 |
\*---------------------------------------------------------------------------*/
FoamFile
{
    version     2.0;
    format      ascii;
    class       scalarField;
    location    "0.09/lagrangian/kinematicCloud";
    object      age;
}
// * * * * * * * * * * * * * * * * * * * * * * * * * * * * * * * * * * * * * //


54
(
0.0892
0.0882
0.0871
0.086
0.085
0.084
0.083
0.082
0.0809
0.0798
0.079725
0.0787
0.0776
0.0765
0.0754
0.0743
0.0732
0.0721
0.071
0.070925
0.0699
0.0688
0.0677
0.0666
0.066525
0.0655
0.0644
0.064325
0.0633
0.063225
0.0622
0.0611
0.06
0.0589
0.058825
0.0579
0.0569
0.0559
0.0549
0.0539
0.0529
0.0519
0.0509
0.0499
0.0489
0.0479
0.0469
0.0459
0.0449
0.0439
0.0429
0.0419
0.0409
0.0399
)


// ************************************************************************* //
