/*--------------------------------*- C++ -*----------------------------------*\
| =========                 |                                                 |
| \\      /  F ield         | OpenFOAM: The Open Source CFD Toolbox           |
|  \\    /   O peration     | Version:  v2012                                 |
|   \\  /    A nd           | Website:  www.openfoam.com                      |
|    \\/     M anipulation  |                                                 |
\*---------------------------------------------------------------------------*/
FoamFile
{
    version     2.0;
    format      ascii;
    class       Cloud<basicKinematicParcel>;
    location    "0.09/lagrangian/kinematicCloud";
    object      coordinates;
}
// * * * * * * * * * * * * * * * * * * * * * * * * * * * * * * * * * * * * * //

54
(
(0.101042 0.087304 0.362175 0.449479) 359 519 2
(0.781287 0.0442832 0.109356 0.0650731) 860 1718 1
(0.298862 0.350569 0.136439 0.21413) 1159 2318 2
(0.124447 0.437777 0.435184 0.00259259) 559 1119 1
(0.288319 0.355841 0.171257 0.184584) 1458 2717 1
(0.501489 0.249255 0.19944 0.0498149) 1157 2314 2
(0.387478 0.301668 0.00459289 0.306261) 45 90 1
(0.454046 0.216947 0.0560301 0.272977) 1655 3111 2
(0.044651 0.0590497 0.418625 0.477674) 1654 3109 2
(0.149438 0.425281 0.400324 0.0249567) 754 1508 2
(0.280376 0.0971597 0.359812 0.262652) 854 1709 2
(0.159472 0.0299853 0.390279 0.420264) 553 907 2
(0.481841 0.00794966 0.25908 0.25113) 1848 3697 2
(0.230797 0.384601 0.344804 0.0397969) 148 294 2
(0.681689 0.159155 0.0557813 0.103374) 1848 3696 2
(0.263368 0.256986 0.368316 0.111329) 951 1900 1
(0.313667 0.309682 0.0334844 0.343167) 349 499 2
(0.147778 0.298405 0.426111 0.127706) 1747 3495 2
(0.244744 0.377628 0.304537 0.0730912) 548 1096 2
(0.0203608 0.48982 0.42844 0.06138) 1648 3097 1
(0.371236 0.314382 0.31432 6.18112e-05) 1348 2694 2
(0.249504 0.375248 0.0582057 0.317042) 1746 3490 2
(0.63101 0.157307 0.0271879 0.184495) 1346 2692 1
(0.663999 0.168001 0.137172 0.0308286) 445 890 2
(0.487417 0.256292 0.00966379 0.246628) 845 1690 2
(0.131464 0.434268 0.25714 0.177128) 1345 2688 2
(0.202028 0.274469 0.124517 0.398986) 343 686 1
(0.528664 0.0219102 0.235668 0.213758) 1444 2886 1
(0.694184 0.0280018 0.124906 0.152908) 141 282 1
(0.307003 0.346498 0.293816 0.0526823) 1543 2887 1
(0.0246869 0.487657 0.0473237 0.440333) 26 52 2
(0.220361 0.389819 0.104524 0.285295) 241 480 2
(0.153857 0.423072 0.145664 0.277407) 1937 3675 1
(0.845352 0.00153538 0.0757886 0.0773239) 1040 2080 1
(0.106392 0.446804 0.00541629 0.441388) 540 1081 1
(0.035917 0.164953 0.317088 0.482041) 1239 2478 1
(0.426356 0.286822 0.25972 0.0271023) 739 1476 2
(0.41549 0.13794 0.154315 0.292255) 838 1477 2
(0.203728 0.00110831 0.397028 0.398136) 1237 2474 1
(0.212012 0.0720961 0.393994 0.321898) 34 66 1
(0.538429 0.0742478 0.230785 0.156538) 636 1273 2
(0.243964 0.378018 0.363556 0.0144618) 1235 2470 2
(0.293527 0.0780736 0.353237 0.275163) 535 1068 1
(0.166174 0.3486 0.068313 0.416913) 534 869 2
(0.0523356 0.106688 0.367144 0.473832) 733 1267 2
(0.222649 0.388675 0.318247 0.0704287) 1133 2267 1
(0.406422 0.296789 0.219803 0.0769855) 1532 2865 1
(0.376497 0.301957 0.0097942 0.311752) 931 1862 1
(0.135848 0.432076 0.413551 0.0185256) 831 1660 2
(0.0547343 0.472633 0.380501 0.0921317) 1430 2661 1
(0.185522 0.370101 0.0371377 0.407239) 329 459 2
(0.152442 0.423779 0.423539 0.000239836) 729 1459 1
(0.170236 0.414882 0.268136 0.146746) 1628 3057 1
(0.267783 0.366109 0.308774 0.0573348) 127 255 1
)


// ************************************************************************* //
