/*--------------------------------*- C++ -*----------------------------------*\
| =========                 |                                                 |
| \\      /  F ield         | OpenFOAM: The Open Source CFD Toolbox           |
|  \\    /   O peration     | Version:  v2012                                 |
|   \\  /    A nd           | Website:  www.openfoam.com                      |
|    \\/     M anipulation  |                                                 |
\*---------------------------------------------------------------------------*/
FoamFile
{
    version     2.0;
    format      ascii;
    class       vectorField;
    location    "0.09/lagrangian/kinematicCloud";
    object      U;
}
// * * * * * * * * * * * * * * * * * * * * * * * * * * * * * * * * * * * * * //


54
(
(9.55993 -0.000373411 0)
(10.2002 -0.000701184 0)
(10.2074 -0.000680085 0)
(10.1426 9.19994e-05 0)
(10.1254 -0.00135 0)
(10.2222 -0.00102749 0)
(6.65665 -0.00133478 0)
(9.74673 -0.00267811 0)
(9.80328 -0.00317629 0)
(10.2283 0.00129514 0)
(10.2363 0.000227932 0)
(10.0624 0.00277627 0)
(8.43914 -0.00256168 0)
(8.47203 0.00153166 0)
(8.83992 -0.00218624 0)
(10.2447 -7.51689e-05 0)
(9.6631 0.00374612 0)
(9.19483 -0.00355588 0)
(10.1341 0.00509164 0)
(9.86529 -0.00581139 0)
(10.2224 -0.00564631 0)
(9.45282 -0.00545117 0)
(10.212 -0.00618041 0)
(10.0313 0.00535404 0)
(10.2404 0.00232896 0)
(10.2247 -0.00592104 0)
(9.88607 0.00537682 0)
(10.1369 -0.00689065 0)
(9.1193 0.00399743 0)
(10.0906 -0.00697875 0)
(3.98044 -0.000402511 0)
(9.56992 0.0035152 0)
(8.29007 -0.00442843 0)
(10.2394 -0.00173506 0)
(10.2139 0.00514567 0)
(10.2377 -0.00514774 0)
(10.2381 0.0035849 0)
(10.2412 0.00219174 0)
(10.2391 -0.00515085 0)
(8.49289 0.000398744 0)
(10.24 0.00414227 0)
(10.243 -0.00451584 0)
(10.228 0.0051549 0)
(10.2048 0.00550298 0)
(10.2452 0.00364125 0)
(10.2473 -0.00352965 0)
(10.1951 -0.00697975 0)
(10.2488 0.00011289 0)
(10.2502 0.0021674 0)
(10.2472 -0.00590552 0)
(10.0441 0.00516036 0)
(10.2557 0.00232242 0)
(10.1658 -0.00673451 0)
(9.76408 0.00521232 0)
)


// ************************************************************************* //
