/*--------------------------------*- C++ -*----------------------------------*\
| =========                 |                                                 |
| \\      /  F ield         | OpenFOAM: The Open Source CFD Toolbox           |
|  \\    /   O peration     | Version:  v2012                                 |
|   \\  /    A nd           | Website:  www.openfoam.com                      |
|    \\/     M anipulation  |                                                 |
\*---------------------------------------------------------------------------*/
FoamFile
{
    version     2.0;
    format      ascii;
    class       vectorField;
    location    "0.09/lagrangian/kinematicCloud";
    object      UCorrect;
}
// * * * * * * * * * * * * * * * * * * * * * * * * * * * * * * * * * * * * * //


54
(
(0 0 0)
(0 0 0)
(0 0 0)
(0 0 0)
(5.24983e-28 -1.08407e-30 0)
(0 0 0)
(3.65958e-27 1.88645e-30 0)
(0 0 0)
(0 0 0)
(0 0 0)
(-1.30752e-28 1.17617e-30 0)
(1.70014e-31 1.05968e-33 0)
(1.19609e-10 1.0936e-13 0)
(4.14956e-27 6.06801e-30 0)
(-1.17911e-10 -1.13105e-13 0)
(0 0 0)
(0 0 0)
(0 0 0)
(0 0 0)
(0 0 0)
(6.85415e-32 1.39738e-35 0)
(0 0 0)
(2.30411e-28 9.38559e-31 0)
(0 0 0)
(-5.42658e-29 -1.4802e-30 0)
(0 0 0)
(0 0 0)
(0 0 0)
(0 0 0)
(1.17786e-27 -2.83866e-30 0)
(3.41813e-27 -7.57432e-32 0)
(3.2761e-27 8.85029e-30 0)
(5.60293e-27 -5.83296e-30 0)
(5.93036e-30 1.26955e-30 0)
(1.72884e-31 -9.43225e-34 0)
(0 0 0)
(0 0 0)
(0 0 0)
(1.03143e-28 4.67638e-30 0)
(0 0 0)
(0 0 0)
(0 0 0)
(0 0 0)
(0 0 0)
(1.53258e-28 -3.64866e-30 0)
(0 0 0)
(4.83065e-31 2.51684e-33 0)
(1.40786e-28 1.49878e-31 0)
(0 0 0)
(3.8058e-28 9.03377e-30 0)
(2.51552e-27 4.5308e-30 0)
(0 0 0)
(0 0 0)
(4.94083e-27 8.66785e-30 0)
)


// ************************************************************************* //
