/*--------------------------------*- C++ -*----------------------------------*\
| =========                 |                                                 |
| \\      /  F ield         | OpenFOAM: The Open Source CFD Toolbox           |
|  \\    /   O peration     | Version:  v2012                                 |
|   \\  /    A nd           | Website:  www.openfoam.com                      |
|    \\/     M anipulation  |                                                 |
\*---------------------------------------------------------------------------*/
FoamFile
{
    version     2.0;
    format      ascii;
    class       volScalarField;
    location    "0.25";
    object      epsilon.air;
}
// * * * * * * * * * * * * * * * * * * * * * * * * * * * * * * * * * * * * * //

dimensions      [0 2 -3 0 0 0 0];


internalField   nonuniform List<scalar> 
1900
(
112.724
141.424
210.098
257.591
369.051
443.457
614.739
724.909
971.325
1128.62
15.4676
16.4471
18.6378
20.4499
23.7576
27.7268
32.0039
39.2875
45.1205
56.7573
14.7926
14.6414
14.5755
14.5063
14.5148
14.5574
14.6409
14.8308
15.0774
15.4132
14.77
14.6304
14.4634
14.3354
14.1726
14.059
13.9039
13.808
13.6653
13.5938
14.7767
14.6215
14.4705
14.3204
14.1748
14.0289
13.8889
13.7472
13.6138
13.477
14.7778
14.6205
14.4714
14.3196
14.1754
14.0284
13.8891
13.7473
13.6132
13.4774
14.7778
14.6205
14.4732
14.3233
14.1842
14.0449
13.9175
13.7915
13.6806
13.5716
14.7764
14.6498
14.5638
14.5034
14.5107
14.5518
14.6361
14.8208
15.0443
15.3957
15.2176
16.5971
18.278
20.6782
23.5907
27.5733
32.2611
38.4079
45.5627
54.8182
105.996
146.535
198.398
265.732
350.01
456.027
585.634
743.654
931.807
1154.03
4101.05
15195.9
19575.8
22452.4
21119.2
18025.2
15085.2
12787.3
11285.3
10368.8
9868.61
9694.51
9523.03
9258.44
8853.89
8354.85
7799.47
7212.39
6645.73
6126.85
5649.37
5222.29
4838.06
4487.15
4167.8
3878.35
3615.95
3378.5
3162.83
2967.04
2788.73
2625.9
2476.88
2340.14
2214.55
2098.94
1992.4
1893.99
1802.97
1718.61
1640.31
1567.48
1499.62
1436.27
1377.03
1321.51
1269.41
1220.43
1174.3
1130.79
1089.69
1050.82
1014
979.081
945.93
914.405
884.402
855.792
828.498
802.397
777.444
753.517
730.604
708.578
687.465
667.121
647.616
628.775
610.717
593.224
576.473
560.187
544.619
529.419
514.93
500.713
487.225
473.91
461.366
448.888
437.247
425.546
414.776
403.787
393.854
383.502
374.373
364.57
356.215
346.863
339.263
330.259
323.413
314.647
308.575
299.931
294.672
286.026
281.616
271.215
113.105
337.57
517.948
923.194
1126.4
1150.74
1122.49
1057.43
1050.08
1088.93
1193.61
1406.74
1693.91
2026.57
2378.47
2692.22
2969.89
3202.51
3358.32
3435.19
3427.32
3388.49
3302.98
3185.32
3056.97
2925.41
2794.53
2667.61
2543.94
2426.43
2314.18
2207.13
2105.74
2009.78
1919.42
1834.32
1754.39
1679.12
1608.26
1541.57
1478.78
1419.6
1363.78
1311.1
1261.33
1214.25
1169.69
1127.42
1087.3
1049.14
1012.83
978.218
945.197
913.654
883.505
854.648
827.018
800.519
775.104
750.679
727.221
704.632
682.917
661.969
641.826
622.366
603.664
585.569
568.201
551.363
535.23
519.546
504.551
489.922
475.98
462.314
449.351
436.571
424.531
412.571
401.412
390.214
379.903
369.406
359.911
350.041
341.332
332.006
324.051
315.176
307.957
299.432
292.943
284.663
278.921
270.775
265.812
257.679
253.534
243.774
16.4268
19.8625
22.8813
29.0985
34.8047
38.7526
41.7158
43.7614
46.6593
50.6477
58.6497
70.8557
95.3247
130.118
189.242
267.353
373.528
508.195
665.516
836.79
1005.54
1163.7
1304.08
1421.35
1512.02
1574.74
1612.57
1629.11
1626.18
1614.98
1591.46
1561.07
1526.62
1489.42
1450.99
1411.38
1371.76
1331.56
1291.77
1252.64
1214.2
1176.63
1140.07
1104.59
1070.25
1036.99
1004.89
973.83
943.813
914.787
886.724
859.561
833.272
807.812
783.174
759.31
736.22
713.855
692.221
671.264
651
631.363
612.386
593.988
576.226
559
542.401
526.295
510.814
495.773
481.356
467.317
453.902
440.796
428.317
416.068
404.465
393.003
382.221
371.486
361.49
351.429
342.19
332.75
324.243
315.36
307.559
299.16
292.04
284.045
277.588
269.907
264.105
256.645
251.508
244.171
239.725
232.407
228.684
219.906
13.4531
13.4604
13.546
13.802
14.3334
15.0052
15.7195
16.3402
16.9294
17.3485
17.9001
18.3629
19.29
20.5093
22.7043
26.2426
31.7487
40.7075
54.6358
76.0654
106.481
147.116
199.05
261.167
331.246
406.351
482.015
555.855
622.999
684.196
736.709
780.129
814.324
839.661
857.781
868.911
874.883
874.478
871.988
866.285
857.605
846.978
834.894
821.515
807.203
792.101
776.515
760.344
743.926
727.331
710.585
693.753
676.911
660.111
643.431
626.878
610.555
594.455
578.659
563.141
547.983
533.139
518.681
504.551
490.835
477.45
464.502
451.87
439.692
427.797
416.378
405.194
394.508
383.997
374.003
364.117
354.772
345.452
336.716
327.925
319.782
311.485
303.921
296.08
289.083
281.654
275.211
268.144
262.247
255.485
250.12
243.591
238.75
232.383
228.075
221.797
218.04
211.773
208.591
201.061
13.3297
13.1591
13.0622
13.1162
13.3045
13.7153
14.2868
14.9098
15.4552
15.8873
16.2127
16.4454
16.6144
16.768
16.8919
17.0873
17.3288
17.7202
18.319
19.2912
20.8499
23.2321
26.7931
32.1307
39.8542
50.7186
65.2318
83.9045
106.85
133.922
164.571
197.755
232.724
267.837
302.643
335.411
366.416
394.466
419.381
440.793
458.719
473.227
484.665
493.186
499.15
502.831
504.654
504.39
503.251
500.732
496.955
492.201
486.704
480.489
473.746
466.548
459.049
451.258
443.347
435.269
427.209
419.07
410.992
402.945
395.029
387.169
379.461
371.807
364.333
356.904
349.702
342.507
335.597
328.635
322.015
315.285
308.953
302.456
296.415
290.134
284.383
278.308
272.86
266.987
261.856
256.173
251.374
245.864
241.398
236.024
231.902
226.641
222.876
217.695
214.3
209.158
206.151
201.008
198.405
192.201
13.3249
13.1544
13.0314
13.086
13.2951
13.7739
14.4961
15.4894
16.5079
17.6075
18.6019
19.5273
20.2592
20.8619
21.2852
21.5945
21.7647
21.8457
21.834
21.7936
21.7094
21.6097
21.5367
21.5614
21.6693
21.9308
22.4823
23.3684
24.8779
27.062
30.3272
34.7581
40.781
48.3794
57.7606
68.9254
81.8928
96.465
112.409
129.339
146.838
164.501
181.927
198.759
214.709
229.486
243.094
255.273
266.207
275.795
284.204
291.398
297.574
302.757
307.051
310.553
313.364
315.498
317.106
318.102
318.77
318.761
318.551
318.031
317.03
315.696
314.072
312.175
310.066
307.723
305.225
302.49
299.702
296.6
293.597
290.213
287.035
283.405
280.091
276.275
272.882
268.925
265.512
261.458
258.082
253.967
250.677
246.53
243.374
239.215
236.224
232.061
229.262
225.099
222.513
218.347
215.995
211.824
209.725
204.683
13.4656
13.3601
13.4096
13.6559
14.303
15.6887
18.0229
21.4463
25.4026
29.7178
33.6324
37.0839
39.5819
41.5072
42.5984
43.3114
43.3572
43.2287
42.9187
42.4147
41.8199
41.1472
40.5058
39.8879
39.3469
38.8574
38.4815
38.2113
38.1236
38.1852
38.3681
38.7747
39.3501
40.3131
41.5397
43.3074
45.4965
48.439
52.05
56.688
62.2978
69.1408
77.1845
86.5242
97.1478
108.915
121.791
135.47
149.848
164.574
179.457
194.225
208.653
222.621
235.91
248.494
260.216
271.103
281.07
290.171
298.381
305.744
312.238
317.968
322.886
327.109
330.59
333.467
335.652
337.389
338.456
339.199
339.242
339.032
338.522
337.428
336.313
334.443
332.831
330.39
328.364
325.463
323.14
319.883
317.368
313.846
311.237
307.532
304.914
301.094
298.533
294.651
292.197
288.296
285.99
282.103
279.976
276.128
274.224
269.67
15.9084
16.8595
18.5479
21.9442
28.3852
39.4903
55.436
75.0407
95.4587
114.311
129.333
140.106
146.392
149.997
150.72
150.316
149.226
147.645
146.338
145.172
144.558
144.685
145.282
146.652
148.997
152.167
156.061
161.183
166.965
174.052
181.754
190.791
200.542
211.631
223.494
236.697
250.591
265.689
281.348
298.089
315.29
333.193
351.277
369.463
387.558
405.289
422.78
439.605
456
471.546
486.496
500.606
514.077
526.809
538.844
550.121
560.543
570.106
578.708
586.369
593.007
598.661
603.27
606.877
609.5
611.166
612.042
611.938
611.412
610.271
608.442
606.092
603.416
600.12
596.822
592.778
588.982
584.288
580.107
574.909
570.437
564.87
560.239
554.434
549.777
543.849
539.28
533.329
528.945
523.046
518.916
513.122
509.296
503.656
500.183
494.737
491.678
486.438
483.905
478.032
68.0202
90.4552
126.198
184.881
271.859
385.117
511.454
635.962
745.121
831.689
892.631
932.581
952.988
962.779
964.461
963.434
960.658
957.293
957.143
958.109
960.683
965.834
975.08
986.527
1000.15
1016.1
1034.52
1055.41
1077.74
1101.63
1126.48
1152.62
1179.24
1206.42
1233.4
1260.23
1286.27
1311.56
1335.72
1358.93
1380.68
1401.02
1419.82
1437.07
1452.92
1467.11
1480.16
1491.5
1501.82
1510.44
1518.07
1524.06
1529.09
1532.57
1535.07
1535.98
1535.65
1534.45
1531.89
1527.93
1523.04
1516.9
1509.91
1501.73
1492.86
1482.86
1472.36
1461.25
1449.69
1437.63
1425.54
1412.77
1400.37
1387.23
1374.77
1361.48
1349.08
1335.7
1323.43
1310.09
1298.12
1284.97
1273.47
1260.64
1249.73
1237.31
1227.09
1215.15
1205.69
1194.23
1185.57
1174.59
1166.76
1156.25
1149.34
1139.32
1133.42
1123.89
1119.24
1108.9
1464.69
1897.2
2399.05
2961.84
3563.06
4171.88
4745.91
5251.39
5654.92
5950.44
6132.17
6219.11
6206.52
6159.75
6061.24
5928.39
5778.25
5619.96
5459.53
5301.65
5149.3
5004.1
4867.35
4739.35
4620.64
4510.76
4409.62
4316.73
4231.78
4154.38
4083.97
4020.27
3962.73
3911.33
3865.5
3825.03
3789.29
3758.13
3731.03
3707.88
3687.97
3671.04
3656.52
3644.27
3634.03
3625.4
3618.47
3612.61
3608.27
3604.63
3602.25
3600.33
3599.39
3598.9
3599.01
3599.32
3600.03
3600.69
3601.67
3602.59
3603.77
3604.84
3606.13
3607.11
3608.29
3608.96
3609.64
3609.69
3609.44
3608.68
3607.47
3605.03
3602.58
3598.56
3594.85
3589.42
3584.51
3577.68
3571.6
3563.41
3556.25
3546.77
3538.58
3527.82
3518.66
3506.66
3496.67
3483.58
3473.05
3459.04
3448.34
3433.6
3423.1
3407.71
3397.79
3381.69
3372.57
3355.65
3347.03
3325.34
1109.58
1064.82
1122.2
1209.97
1238.62
1120.95
818.304
1979.48
54702.2
16173.1
7363.49
6107.02
6232.28
6482.7
6553
8024.4
74286.7
43640.8
24831.8
18457.9
16094.6
14996
14623.3
19659.4
76435.2
71024.4
54238.1
41183.9
32677.9
27151.8
24540.6
34050.7
69749.4
75708.7
67742.5
55642.6
44560.9
35839.2
30862
42698.2
57766.2
71181.4
67951.6
59047.2
48381.3
38736.6
32785.6
45227.4
47488.6
61842.2
62501.4
56623
47174.2
38183.5
32457.9
44253.4
39078.8
51820.8
53591.3
49844.1
42399.5
34678.8
29594.8
39773.9
32610.3
42983.2
44918.5
42131.2
36299.9
30040.2
25819.8
34046.8
27592
35616.2
37252.8
35110.4
30538.2
25552.4
22220.2
29377.1
23479.1
29579
30818.3
29116.3
25525.5
21627.5
19152.8
26011
20101.2
24690.3
25568.7
24178.2
21334.5
18292.7
16489.1
22969.1
17367.4
20779.3
21365.3
20205.9
17934.9
15551.4
14259.7
20347.6
15138.6
17657.6
18021.7
17040.6
15211.4
13330.1
12424.2
18141.9
13290.9
15150.1
15355.4
14518.5
13031.8
11536.8
10924.1
16314.5
11731.2
13110.7
13207.9
12491.3
11273.8
10079.6
9692.37
14797.6
10408.2
11440.1
11464.9
10848.9
9844.47
8886.32
8673.82
13531.7
9269.72
10053.4
10034.6
9502.39
8669.31
7898.94
7823.53
12465.5
8287.38
8891.31
8848.01
8386.56
7692.49
7073.34
7105.59
11557.6
7443.64
7912.69
7854.87
7454.02
6873.2
6376.63
6492.69
10777.6
6716.25
7083.67
7017.75
6668.66
6180.46
5783.5
5966.48
10101.3
6089.56
6378.24
6308.05
6002.89
5590.66
5274.94
5511.45
9509.53
5547.24
5774.55
5702.71
5434.99
5085.53
4836.48
5115.99
8989.25
5073.49
5253.69
5182.42
4947.04
4650.13
4456.43
4770.88
8530.5
4657.49
4801.37
4732.19
4524.97
4272.45
4125.17
4468.34
8124.82
4290.58
4406.32
4340.24
4157.65
3942.92
3834.88
4201.86
7764.91
3965.48
4059.27
3996.96
3836.03
3653.71
3579.08
3965.95
7444.28
3676.53
3752.93
3694.68
3552.86
3398.51
3352.53
3756.14
7157.45
3418.53
3481.17
3427.13
3302.24
3172.18
3150.92
3568.76
6900.1
3187.48
3239.07
3189.23
3079.36
2970.51
2970.77
3400.68
6668.38
2979.72
3022.48
2976.78
2880.33
2790.12
2808.75
3249.48
6458.94
2792.24
2827.92
2786.26
2701.82
2628.01
2662.67
3112.81
6268.87
2622.51
2652.53
2614.77
2541.13
2481.8
2530.57
2988.85
6095.81
2468.34
2493.87
2459.86
2395.96
2349.51
2410.75
2876.08
5937.76
2327.96
2349.93
2319.5
2264.41
2229.44
2301.75
2773.22
5793.02
2199.79
2218.95
2191.95
2144.83
2120.14
2202.35
2679.18
5660.15
2082.52
2099.48
2075.74
2035.86
2020.4
2111.47
2593.03
5537.95
1974.96
1990.22
1969.58
1936.27
1929.15
2028.2
2513.97
5425.46
1876.09
1890.06
1872.34
1845.04
1845.47
1951.72
2441.27
5321.82
1785.01
1798.01
1783.06
1761.27
1768.45
1881.37
2374.34
5226.29
1700.9
1713.21
1700.88
1684.14
1697.44
1816.48
2312.6
5138.18
1623.08
1634.9
1625.05
1612.93
1631.84
1756.49
2255.56
5056.88
1550.89
1562.4
1554.89
1547.04
1571.08
1700.88
2202.73
4981.77
1483.78
1495.13
1489.82
1485.91
1514.69
1649.23
2153.71
4912.28
1421.27
1432.57
1429.34
1429.09
1462.22
1601.15
2108.13
4847.85
1362.92
1374.26
1373.02
1376.11
1413.33
1556.3
2065.67
4787.95
1308.35
1319.83
1320.46
1326.65
1367.67
1514.39
2026.02
4732.09
1257.22
1268.89
1271.31
1280.41
1324.95
1475.14
1988.92
4679.82
1209.24
1221.17
1225.29
1237.1
1284.91
1438.34
1954.16
4630.76
1164.14
1176.38
1182.12
1196.49
1247.34
1403.78
1921.53
4584.61
1121.69
1134.28
1141.58
1158.34
1212.03
1371.29
1890.88
4541.13
1081.67
1094.66
1103.45
1122.46
1178.82
1340.71
1862.07
4500.12
1043.89
1057.33
1067.55
1088.68
1147.53
1311.89
1834.95
4461.44
1008.18
1022.09
1033.68
1056.83
1118.02
1284.73
1809.45
4424.99
974.384
988.795
1001.72
1026.76
1090.16
1259.09
1785.45
4390.69
942.347
957.285
971.489
998.341
1063.84
1234.89
1762.88
4358.49
911.948
927.431
942.873
971.443
1038.93
1212.01
1741.63
4328.31
883.045
899.092
915.736
945.949
1015.34
1190.38
1721.65
4300.1
855.546
872.171
889.979
921.764
992.968
1169.89
1702.84
4273.74
829.321
846.538
865.48
898.78
971.73
1150.49
1685.15
4249.14
804.313
822.13
842.175
876.927
951.549
1132.08
1668.48
4226.2
780.393
798.82
819.942
856.099
932.338
1114.61
1652.78
4204.72
757.54
776.581
798.751
836.259
914.05
1098.01
1637.96
4184.69
735.618
755.276
778.469
817.284
896.58
1082.2
1623.95
4165.78
714.646
734.92
759.107
799.183
879.926
1067.15
1610.71
4148.13
694.47
715.356
740.509
781.802
863.944
1052.74
1598.12
4131.25
675.156
696.646
722.736
765.203
848.688
1039.02
1586.2
4115.49
656.516
678.595
705.589
749.184
833.962
1025.78
1574.76
4100.15
638.669
661.326
689.195
733.878
819.901
1013.17
1563.93
4085.9
621.381
644.589
673.293
719.013
806.23
1000.9
1553.41
4071.7
604.836
628.584
658.097
704.82
793.19
989.221
1543.47
4058.66
588.738
612.991
643.265
690.935
780.401
977.744
1533.68
4045.31
573.357
598.104
629.121
677.712
768.245
966.867
1524.49
4033.26
558.314
583.513
615.218
664.667
756.2
956.042
1515.28
4020.54
543.986
569.631
602.015
652.311
744.83
945.874
1506.74
4009.31
529.891
555.935
588.935
640.004
733.431
935.6
1497.99
3997.03
516.535
542.981
576.601
628.449
722.791
926.093
1490.05
3986.52
503.308
530.101
564.269
616.809
711.97
916.303
1481.69
3974.55
490.869
518.024
552.758
606.018
702.034
907.446
1474.36
3964.78
478.447
505.9
541.117
594.993
691.745
898.097
1466.33
3953.04
466.888
494.666
530.402
584.948
682.509
889.905
1459.65
3944.11
455.212
483.242
519.401
574.494
672.713
880.965
1451.93
3932.59
444.502
472.822
509.458
565.18
664.18
873.466
1445.97
3924.64
433.509
462.037
499.041
555.244
654.832
864.897
1438.52
3913.38
423.616
452.402
489.847
546.648
647
858.117
1433.36
3906.52
413.23
442.184
479.942
537.165
638.04
849.868
1426.14
3895.57
404.122
433.303
471.469
529.264
630.901
843.817
1421.81
3889.81
394.256
423.565
461.997
520.16
622.261
835.827
1414.79
3879.26
385.903
415.411
454.217
512.925
615.784
830.478
1411.24
3874.3
376.46
406.06
445.089
504.118
607.397
822.705
1404.46
3864.27
368.844
398.614
437.978
497.517
601.531
817.959
1401.38
3859.73
359.722
389.55
429.102
488.928
593.339
810.388
1395.04
3850.26
352.843
382.809
422.651
482.933
588.023
806.133
1392.24
3845.9
343.934
373.931
413.933
474.483
579.969
798.738
1386.26
3836.75
337.813
367.91
408.147
469.08
575.156
794.871
1383.62
3832.37
329.005
359.114
399.493
460.689
567.177
787.606
1377.88
3823.28
323.678
353.844
394.388
455.868
562.813
784.01
1375.3
3818.82
314.853
345.022
385.71
447.471
554.884
776.898
1369.75
3809.87
310.349
340.521
381.287
443.207
550.895
773.411
1367.11
3805.28
299.693
329.821
370.703
432.897
541.077
764.509
1359.71
3794.59
)
;

boundaryField
{
    frontAndBack
    {
        type            empty;
    }
    inlet
    {
        type            fixedValue;
        value           uniform 14.855;
    }
    outlet
    {
        type            zeroGradient;
    }
    walls
    {
        lowReCorrection 0;
        blending        stepwise;
        n               2;
        type            epsilonWallFunction;
        value           nonuniform List<scalar> 
228
(
112.724
141.424
210.098
257.591
369.051
443.457
614.739
724.909
971.325
1128.62
1109.58
1064.82
1122.2
1209.97
1238.62
1120.95
818.304
1979.48
1979.48
8024.4
19659.4
34050.7
42698.2
45227.4
44253.4
39773.9
34046.8
29377.1
26011
22969.1
20347.6
18141.9
16314.5
14797.6
13531.7
12465.5
11557.6
10777.6
10101.3
9509.53
8989.25
8530.5
8124.82
7764.91
7444.28
7157.45
6900.1
6668.38
6458.94
6268.87
6095.81
5937.76
5793.02
5660.15
5537.95
5425.46
5321.82
5226.29
5138.18
5056.88
4981.77
4912.28
4847.85
4787.95
4732.09
4679.82
4630.76
4584.61
4541.13
4500.12
4461.44
4424.99
4390.69
4358.49
4328.31
4300.1
4273.74
4249.14
4226.2
4204.72
4184.69
4165.78
4148.13
4131.25
4115.49
4100.15
4085.9
4071.7
4058.66
4045.31
4033.26
4020.54
4009.31
3997.03
3986.52
3974.55
3964.78
3953.04
3944.11
3932.59
3924.64
3913.38
3906.52
3895.57
3889.81
3879.26
3874.3
3864.27
3859.73
3850.26
3845.9
3836.75
3832.37
3823.28
3818.82
3809.87
3805.28
3794.59
105.996
146.535
198.398
265.732
350.01
456.027
585.634
743.654
931.807
1154.03
1464.69
1897.2
2399.05
2961.84
3563.06
4171.88
4745.91
5251.39
5654.92
5950.44
6132.17
6219.11
6206.52
6159.75
6061.24
5928.39
5778.25
5619.96
5459.53
5301.65
5149.3
5004.1
4867.35
4739.35
4620.64
4510.76
4409.62
4316.73
4231.78
4154.38
4083.97
4020.27
3962.73
3911.33
3865.5
3825.03
3789.29
3758.13
3731.03
3707.88
3687.97
3671.04
3656.52
3644.27
3634.03
3625.4
3618.47
3612.61
3608.27
3604.63
3602.25
3600.33
3599.39
3598.9
3599.01
3599.32
3600.03
3600.69
3601.67
3602.59
3603.77
3604.84
3606.13
3607.11
3608.29
3608.96
3609.64
3609.69
3609.44
3608.68
3607.47
3605.03
3602.58
3598.56
3594.85
3589.42
3584.51
3577.68
3571.6
3563.41
3556.25
3546.77
3538.58
3527.82
3518.66
3506.66
3496.67
3483.58
3473.05
3459.04
3448.34
3433.6
3423.1
3407.71
3397.79
3381.69
3372.57
3355.65
3347.03
3325.34
)
;
    }
}


// ************************************************************************* //
