/*--------------------------------*- C++ -*----------------------------------*\
| =========                 |                                                 |
| \\      /  F ield         | OpenFOAM: The Open Source CFD Toolbox           |
|  \\    /   O peration     | Version:  v2012                                 |
|   \\  /    A nd           | Website:  www.openfoam.com                      |
|    \\/     M anipulation  |                                                 |
\*---------------------------------------------------------------------------*/
FoamFile
{
    version     2.0;
    format      ascii;
    class       volScalarField;
    location    "0.25";
    object      omega.air;
}
// * * * * * * * * * * * * * * * * * * * * * * * * * * * * * * * * * * * * * //

dimensions      [0 0 -1 0 0 0 0];


internalField   nonuniform List<scalar> 
5600
(
6586.13
7485.87
7886.16
7965.75
7865.86
7688.14
7480.4
7290.46
7124.95
6987.88
6878.74
6796.18
6736.15
6693.59
6663.32
6642.89
6626.55
6615.45
6604.76
6596.94
6589.32
6582.71
6577.95
6572.81
6570.82
6567.22
6566.64
6564.35
6564.32
6562.54
6562.34
6560.47
6559.71
6557.63
6556.53
6554.29
6553.12
6550.74
6549.68
6547.33
6546.37
6544.31
6543.41
6541.77
6540.99
6539.72
6539.22
6538.08
6537.95
6536.78
6537.03
6535.82
6536.32
6535.27
6535.88
6535.13
6535.85
6535.34
6536.31
6535.89
6537.23
6536.82
6538.51
6538.17
6540.07
6539.86
6541.99
6541.84
6544.26
6544.07
6546.86
6546.59
6549.74
6549.4
6552.93
6552.49
6556.44
6555.84
6560.16
6559.42
6563.99
6563.29
6567.95
6567.56
6571.9
6572.37
6575.37
6578.14
6577.57
6585.95
6577.09
6598.3
6569.73
6622.42
6541.44
6682.85
6441.89
6866.9
6041.55
7489.1
2450.99
2295.46
2571.61
2794.64
2928.11
2998.21
3010
2968.07
2969.42
3017.2
3073.71
3119.08
3147.34
3158.36
3155.12
3140.34
3118.22
3091.12
3062.41
3032.21
3003.55
2973.67
2945.26
2916.33
2889.36
2863.18
2839.84
2817.37
2797.66
2778.56
2761.97
2745.92
2732.06
2718.67
2707.17
2695.96
2686.37
2677
2668.94
2661.08
2654.26
2647.67
2641.82
2636.3
2631.21
2626.36
2621.83
2617.42
2613.49
2609.52
2606.04
2602.57
2599.53
2596.51
2593.87
2591.25
2588.98
2586.69
2584.8
2582.72
2581.11
2579.32
2577.92
2576.38
2575.17
2573.82
2572.79
2571.62
2570.7
2569.76
2568.97
2568.2
2567.53
2566.89
2566.34
2565.84
2565.43
2565.08
2564.71
2564.46
2564.06
2563.96
2563.47
2563.69
2563.04
2563.87
2562.67
2564.68
2561.96
2566.44
2559.63
2570.74
2553.1
2582.18
2535.12
2614.2
2479.19
2714.45
2281.4
3063.61
2358.66
1859.69
1592.32
1427.5
1346.17
1273.89
1279.84
1309.05
1352.19
1412.26
1482.53
1549.1
1611.65
1663.36
1705.39
1732.95
1749.42
1752.2
1744.41
1726.38
1702.36
1676.79
1653.51
1634.95
1619.43
1605.72
1593.4
1581.74
1571.32
1560.98
1551.17
1540.93
1531.31
1521.65
1512.89
1504.14
1496.38
1488.65
1481.87
1475.13
1469.18
1463.37
1458.05
1452.92
1448.18
1443.66
1439.56
1435.46
1431.92
1428.27
1425.17
1421.94
1419.23
1416.41
1414.04
1411.57
1409.51
1407.3
1405.53
1403.51
1401.96
1400.12
1398.76
1397.08
1395.89
1394.33
1393.3
1391.87
1390.97
1389.69
1388.92
1387.78
1387.12
1386.09
1385.51
1384.59
1384.07
1383.3
1382.78
1382.18
1381.5
1381.21
1380.18
1380.51
1378.82
1380.36
1377.23
1381.05
1374.87
1383.17
1370.6
1388.18
1362.1
1399.7
1344.14
1425.26
1305.67
1477.64
1230.75
1554.59
2345.17
1822.37
1493.2
1267.69
1111.09
992.648
906.921
846.715
803.023
776.143
761.186
768.81
792.208
823.455
861.382
901.81
941.553
978.617
1011.1
1039.97
1060.98
1079.69
1091.08
1101.5
1105.24
1107.53
1103.34
1097.33
1087.54
1078.06
1068.45
1060.69
1053.92
1048.05
1042.48
1037.33
1032.46
1027.82
1023.54
1019.21
1015.08
1010.66
1006.09
1001.48
996.923
992.438
988.295
984.144
980.427
976.684
973.417
970.078
967.176
964.245
961.65
958.98
956.616
954.102
951.946
949.591
947.61
945.398
943.57
941.522
939.862
937.955
936.462
934.688
933.361
931.722
930.549
929.066
927.996
926.629
925.621
924.362
923.403
922.356
921.381
920.586
919.421
919.036
917.445
917.784
915.405
917.029
913.164
917.002
910.393
918.021
906.528
920.652
900.74
925.916
892.097
934.196
881.225
941.571
876.036
926.086
2341.94
1816.05
1479.71
1248.04
1079.64
952.562
853.335
774.32
711.059
658.407
616.57
581.557
556.505
535.973
523.577
514.92
513.449
521.351
531.809
549.932
567.812
592.825
615.269
643.187
666.31
692.802
713.41
733.541
748.112
760.901
769.732
777.458
782.085
786.203
787.082
787.925
785.693
783.621
779.485
775.722
771.272
767.543
764.187
761.291
758.377
755.724
752.938
750.456
747.904
745.517
743.307
741.089
739.012
736.933
734.741
732.387
730.074
727.617
725.341
722.933
720.762
718.458
716.38
714.218
712.304
710.286
708.533
706.661
705.07
703.332
701.872
700.228
698.833
697.27
695.893
694.434
693.045
691.754
690.329
689.304
687.733
687.101
685.202
685.165
682.691
683.593
680.127
682.462
677.446
681.851
674.558
681.739
671.452
681.909
668.643
681.237
667.852
676.906
672.01
664.797
2341.09
1814.21
1476.66
1243.97
1074.15
945.254
844.516
762.86
696.904
640.747
594.348
554.01
519.521
490.162
463.73
442.389
422.1
407.448
393.018
384.036
374.64
371.017
366.81
369.229
372.877
381.335
391.483
405.164
420.13
437.695
454.61
473.992
490.652
509.79
524.176
540.68
552.093
564.213
572.505
580.204
585.855
590.482
594.039
597.245
598.878
600.91
600.713
601.44
600.06
599.331
597.3
595.495
593.25
591.155
589.047
587.444
585.66
584.268
582.671
581.245
579.807
578.397
577.05
575.679
574.432
573.14
571.989
570.773
569.673
568.463
567.281
565.881
564.568
563.142
561.762
560.397
558.948
557.66
556.115
555.022
553.372
552.586
550.753
550.356
548.208
548.295
545.678
546.393
543.225
544.669
540.946
543.052
538.927
541.3
537.401
538.948
536.641
535.712
535.999
532.351
2340.83
1813.5
1475.71
1242.62
1072.66
943.324
842.3
760.372
693.712
637.484
589.947
549.465
513.528
483.288
455.204
431.71
409.486
390.567
372.923
357.41
343.387
330.537
319.655
308.996
301.204
292.732
287.737
281.821
279.196
276.755
276.362
278.779
281.288
287.831
293.676
303.245
312.621
323.894
336.041
347.922
361.144
373.654
385.702
398.574
408.478
420.885
428.715
438.986
445.551
452.877
458.029
462.672
466.274
469.448
471.425
473.916
474.942
476.779
477.319
478.16
478.272
478.404
478.086
477.709
476.849
476.074
474.926
473.87
472.745
471.564
470.562
469.559
468.671
467.778
466.933
466.141
465.28
464.508
463.498
462.794
461.682
461.187
460.009
459.742
458.396
458.274
456.655
456.629
454.779
454.864
452.921
453.121
451.158
451.305
449.372
449.29
447.377
447.207
444.47
445.188
2340.74
1813.15
1475.33
1242.03
1072.07
942.638
841.43
759.644
692.565
636.608
588.645
548.238
512.168
481.549
453.709
429.365
407.603
387.493
370.263
353.244
339.419
324.754
313.569
300.768
291.624
280.48
272.807
263.365
256.62
248.937
243.016
236.794
232.198
226.891
224.065
219.585
218.564
215.255
215.878
214.8
216.726
218.559
221.523
226.365
230.483
237.57
243.769
251.562
260.155
268.035
277.991
286.283
295.805
305.093
313.217
322.39
329.591
337.76
344.683
351.209
357.273
362.602
367.557
371.95
375.519
378.723
381.332
383.473
385.423
386.716
388.145
389.027
390.07
390.618
391.341
391.651
392.12
392.154
392.194
391.934
391.587
391.247
390.687
390.354
389.558
389.137
387.941
387.336
385.772
385.092
383.385
382.872
381.087
380.785
378.902
378.623
376.458
376.253
373.324
373.246
2340.7
1812.96
1475.14
1241.76
1071.76
942.372
840.984
759.376
692.06
636.23
588.2
547.66
511.807
480.798
453.346
428.523
407.145
386.591
369.664
352.257
338.612
323.68
312.41
299.594
289.963
279.044
270.548
261.247
253.744
245.515
239.258
231.466
226.61
219.106
215.243
208.493
204.903
199.369
195.727
191.411
188.001
184.322
181.906
178.236
177.33
173.401
174.096
170.539
172.104
169.806
171.877
171.641
173.969
175.302
178.728
181.23
186.165
189.225
195.491
199.528
206.547
211.621
218.757
224.651
231.939
237.996
245.382
251.27
258.386
263.801
270.319
275.312
281.122
285.595
290.628
294.492
298.852
302.168
305.686
308.309
310.911
312.967
314.833
316.441
317.674
318.831
319.321
319.894
319.646
319.765
319.056
319.128
318.155
318.281
317.072
316.95
315.425
315.072
313.045
312.232
2340.69
1812.88
1475.04
1241.67
1071.59
942.269
840.789
759.225
691.901
635.985
588.096
547.345
511.697
480.495
453.148
428.289
406.834
386.422
369.252
352.14
338.097
323.613
311.792
299.547
289.283
278.931
269.884
260.963
253.125
245.048
238.549
230.934
225.578
218.561
213.77
207.739
203.002
198.077
193.366
189.163
184.95
180.747
177.629
172.946
170.992
166.085
164.567
160.393
158.441
155.389
153.079
150.702
148.944
146.154
145.56
142.553
142.676
140.142
140.106
138.628
138.781
137.973
138.598
138.106
139.619
139.798
141.861
142.766
145.169
146.889
149.749
152.088
155.441
158.321
162.026
165.318
169.054
172.71
176.59
180.62
184.629
188.717
192.507
196.431
199.848
203.641
206.881
210.536
213.596
216.952
219.565
222.453
224.51
226.769
228.468
230.32
231.761
233.22
234.366
235.266
2340.69
1812.9
1475.04
1241.7
1071.59
942.289
840.823
759.199
691.981
635.927
588.178
547.315
511.72
480.544
453.084
428.423
406.688
386.632
369.03
352.425
337.808
323.942
311.498
299.832
289.081
279.092
269.811
261.032
253.073
245.196
238.338
231.292
225.177
219.049
213.37
208.108
202.864
198.148
193.546
189.077
185.15
180.957
177.436
173.756
170.395
167.274
164.14
161.37
158.716
156.11
153.965
151.703
149.845
148.189
146.504
145.493
144.245
143.635
143.118
142.94
143.191
143.717
144.574
145.98
147.484
149.663
151.974
154.82
157.924
161.347
165.071
169.059
173.21
177.626
182.072
186.723
191.403
196.096
200.744
205.269
209.713
214.05
218.269
222.277
226.121
229.633
232.923
235.846
238.525
240.961
243.197
245.295
247.182
248.918
250.383
251.659
252.671
253.512
254.124
254.661
2340.71
1813
1475.15
1241.86
1071.74
942.465
841.029
759.365
692.234
636.097
588.444
547.53
511.957
480.836
453.277
428.79
406.863
387.038
369.229
352.842
338.054
324.374
311.79
300.301
289.418
279.621
270.216
261.637
253.589
245.912
239.024
232.181
226.12
220.24
214.671
209.799
204.716
200.561
196.33
192.566
189.359
186.085
183.662
181.339
179.451
178.305
177.214
177.117
177.477
178.298
180.177
182.267
185.327
189.036
193.134
198.226
203.491
209.513
215.941
222.511
229.649
236.682
243.984
251.28
258.43
265.453
272.195
278.663
284.864
290.628
296.186
301.228
306.034
310.342
314.357
317.899
321.122
323.907
326.341
328.37
330.087
331.496
332.59
333.459
334.086
334.523
334.835
334.932
334.914
334.717
334.427
334.049
333.551
332.973
332.221
331.382
330.39
329.347
328.232
327.167
2340.76
1813.17
1475.38
1242.15
1072.06
942.829
841.411
759.774
692.685
636.542
588.963
548.025
512.528
481.418
453.884
429.491
407.523
387.865
370.018
353.79
339.075
325.498
313.124
301.765
291.167
281.697
272.593
264.662
257.016
250.333
244.285
238.769
234.295
230.16
227.106
224.775
223.137
222.91
223.41
225.386
228.21
232.34
237.479
243.72
250.892
258.956
267.711
276.932
286.658
296.361
306.382
315.996
325.432
334.494
343.045
351.174
358.68
365.615
371.93
377.543
382.54
386.834
390.516
393.588
396.108
398.164
399.848
401.305
402.535
403.554
404.387
405.005
405.479
405.743
405.883
405.829
405.652
405.316
404.867
404.305
403.663
402.953
402.164
401.374
400.51
399.664
398.824
397.968
397.109
396.226
395.329
394.425
393.471
392.498
391.434
390.349
389.189
388.045
386.896
385.865
2340.87
1813.49
1475.85
1242.71
1072.72
943.573
842.233
760.694
693.69
637.646
590.203
549.346
514.071
483.061
455.839
431.661
410.091
390.884
373.625
358.156
344.4
331.942
321.165
311.696
303.666
297.187
291.856
288.532
286.203
286.531
288.537
292.754
298.957
306.826
316.718
327.704
340.16
353.117
366.654
380.362
393.771
406.962
419.304
431.105
441.741
451.464
459.905
467.198
473.266
478.238
482.216
485.375
488.036
490.205
491.937
493.263
494.185
494.742
494.947
494.821
494.405
493.723
492.83
491.756
490.569
489.339
488.133
487.051
486.037
485.065
484.102
483.159
482.209
481.268
480.325
479.378
478.422
477.48
476.545
475.638
474.758
473.901
473.059
472.197
471.338
470.392
469.393
468.361
467.325
466.281
465.229
464.186
463.112
462.054
460.947
459.872
458.768
457.73
456.744
455.943
2341.16
1814.18
1476.91
1243.99
1074.36
945.483
844.532
763.369
696.845
641.377
594.602
554.593
520.537
490.93
465.78
443.836
425.793
410.669
398.894
389.615
383.764
380.032
381.009
385.34
393.493
404.647
418.835
435.277
453.363
472.479
491.85
511.252
529.538
546.626
561.841
574.992
585.996
594.895
602.006
607.575
612.157
615.748
618.413
620.226
621.122
621.266
620.625
619.392
617.624
615.55
613.242
611.011
609.052
607.247
605.539
603.874
602.238
600.621
599.02
597.45
595.911
594.43
592.984
591.61
590.254
588.942
587.593
586.135
584.608
583.041
581.445
579.86
578.266
576.703
575.14
573.607
572.08
570.609
569.171
567.789
566.463
565.179
563.939
562.723
561.535
560.368
559.235
558.134
557.071
556.034
555.011
554.022
553.013
552.052
551.056
550.127
549.188
548.351
547.615
547.13
2342.03
1815.98
1480.11
1247.96
1080.28
952.72
854.138
775.232
712.32
660.637
619.071
586.919
562.623
545.479
534.612
530.062
534.445
545.071
561.009
581.088
604.567
630.602
657.684
684.767
711.086
734.685
755.002
771.319
784.177
794.178
801.819
807.328
810.742
812.244
811.871
809.912
806.653
802.639
798.225
794.133
790.656
787.458
784.463
781.467
778.564
775.676
772.908
770.237
767.696
765.265
762.886
760.51
757.925
755.273
752.586
749.904
747.256
744.653
742.111
739.641
737.243
734.939
732.704
730.584
728.527
726.584
724.704
722.89
721.115
719.384
717.679
716.024
714.392
712.814
711.265
709.772
708.315
706.927
705.591
704.319
703.102
701.927
700.796
699.696
698.625
697.602
696.627
695.7
694.825
693.994
693.188
692.422
691.643
690.916
690.16
689.479
688.801
688.242
687.838
687.766
2345.25
1822.39
1493.86
1268.15
1113.24
994.17
912.588
852.023
814.498
787.894
783.633
800.123
829.085
866.044
907.638
950.232
990.288
1026.97
1058.26
1083.61
1103.44
1118.46
1129.09
1135.73
1137.47
1134.72
1128.01
1118.67
1108.66
1099.44
1091.82
1085.12
1079.05
1073.27
1067.82
1062.63
1057.74
1053.01
1048.36
1043.54
1038.47
1033.33
1028.24
1023.23
1018.48
1013.88
1009.57
1005.45
1001.59
997.958
994.527
991.34
988.265
985.355
982.537
979.836
977.231
974.721
972.308
969.986
967.755
965.62
963.564
961.617
959.738
957.967
956.265
954.654
953.103
951.622
950.194
948.824
947.504
946.243
945.039
943.888
942.781
941.728
940.727
939.78
938.873
938.004
937.167
936.356
935.568
934.823
934.122
933.472
932.877
932.331
931.812
931.333
930.834
930.395
929.913
929.538
929.154
928.947
928.945
929.402
2358.73
1860.9
1594.79
1433.97
1354.07
1288.9
1305.29
1337.27
1392.15
1465.14
1539.73
1610.3
1672.35
1723.1
1760.06
1783.38
1792.54
1788.85
1773.32
1750.2
1724.14
1700.73
1682.17
1666.52
1652.5
1639.49
1627.38
1615.95
1604.92
1593.83
1582.73
1571.9
1561.59
1551.71
1542.47
1533.71
1525.55
1517.93
1510.79
1504.18
1497.92
1492.03
1486.48
1481.28
1476.44
1471.83
1467.56
1463.49
1459.72
1456.17
1452.84
1449.76
1446.83
1444.13
1441.57
1439.18
1436.9
1434.76
1432.73
1430.79
1428.96
1427.22
1425.57
1424
1422.51
1421.1
1419.76
1418.5
1417.31
1416.18
1415.12
1414.12
1413.19
1412.29
1411.44
1410.63
1409.85
1409.11
1408.42
1407.76
1407.15
1406.57
1406.01
1405.47
1404.96
1404.49
1404.06
1403.69
1403.38
1403.12
1402.88
1402.68
1402.45
1402.3
1402.08
1402.05
1401.91
1402.19
1402.65
1403.84
2454.75
2305.65
2580.51
2808.61
2934.31
3009.92
2994.68
2967.42
3014.89
3085.58
3150.08
3196.56
3222.44
3229.85
3222.24
3203.93
3178.36
3148.81
3117.78
3086.37
3054.8
3023.07
2991.97
2961.68
2933.6
2907.21
2882.88
2860.5
2839.87
2821
2803.63
2787.83
2773.4
2760.21
2748.21
2737.2
2727.14
2717.96
2709.46
2701.78
2694.59
2688.08
2682
2676.29
2670.92
2665.78
2661
2656.43
2652.17
2648.16
2644.41
2640.91
2637.61
2634.59
2631.72
2629.09
2626.61
2624.29
2622.13
2620.09
2618.18
2616.4
2614.71
2613.14
2611.67
2610.29
2609.01
2607.81
2606.71
2605.68
2604.74
2603.88
2603.1
2602.38
2601.71
2601.1
2600.53
2600.01
2599.54
2599.11
2598.74
2598.4
2598.09
2597.81
2597.56
2597.37
2597.24
2597.18
2597.2
2597.27
2597.37
2597.49
2597.61
2597.8
2597.92
2598.31
2598.47
2599.45
2600.4
2602.42
6588.09
7481.91
7876.79
7935.97
7826.39
7629.95
7415.05
7222.12
7053.49
6914.41
6805.33
6723.47
6664
6621.64
6591.85
6570.22
6554.3
6541.55
6531.24
6522.45
6514.94
6508.89
6504.01
6500.33
6497.41
6495.12
6493.27
6491.87
6490.43
6489.05
6487.32
6485.48
6483.41
6481.21
6478.96
6476.58
6474.27
6471.93
6469.65
6467.52
6465.39
6463.53
6461.67
6460.11
6458.6
6457.28
6456.07
6454.91
6453.92
6452.94
6452.11
6451.33
6450.67
6450.15
6449.69
6449.4
6449.17
6449.1
6449.12
6449.25
6449.5
6449.83
6450.28
6450.81
6451.42
6452.12
6452.91
6453.77
6454.73
6455.77
6456.9
6458.1
6459.4
6460.75
6462.19
6463.68
6465.26
6466.87
6468.55
6470.25
6471.98
6473.74
6475.52
6477.34
6479.23
6481.15
6483.16
6485.19
6487.29
6489.37
6491.53
6493.67
6495.89
6498.08
6500.43
6502.61
6504.93
6506.8
6508.06
6508.04
5489.72
3368.07
2415.95
1948.79
1665.69
1481.08
1347.13
1246.22
1164.13
1095.78
1037.36
986.05
940.196
898.737
860.915
825.816
793.053
762.06
732.387
703.921
676.564
650.192
624.858
600.546
577.154
554.684
533.139
512.466
492.651
473.823
455.744
438.692
422.567
407.24
392.616
378.626
365.176
352.167
339.576
327.405
315.621
304.223
293.28
282.829
272.929
263.704
255.277
247.546
240.364
233.725
227.671
221.982
216.47
211.211
206.443
201.991
197.626
193.491
190.144
187.436
184.61
181.16
178.222
177.545
180.072
184.417
188.264
189.626
188.474
185.517
181.83
177.622
173.439
169.148
165.29
161.577
158.499
155.514
153.19
150.859
149.327
147.749
147.002
145.713
144.98
142.938
141.232
137.512
134.268
128.681
123.937
116.783
110.773
102.689
96.9406
89.7277
86.7876
80.0111
78.7757
69.4391
1545.76
2574.48
2359.3
1986.39
1702.44
1502.26
1355.16
1243.97
1154.33
1081.29
1020
966.994
920.706
879.74
842.998
809.322
778.143
748.789
720.798
693.995
668.236
643.354
619.324
596.149
573.67
551.914
530.863
510.538
490.893
472.048
453.79
436.584
420.292
404.769
389.914
375.663
361.934
348.624
335.72
323.241
311.17
299.53
288.409
277.868
267.973
258.854
250.63
243.186
236.337
230.055
224.377
219.074
213.916
208.986
204.568
200.516
196.518
192.631
189.413
186.829
184.098
180.524
176.969
175.156
176.255
179.343
182.413
183.613
182.702
180.181
176.898
173.073
169.178
165.211
161.622
158.229
155.353
152.554
150.237
147.939
146.283
144.671
143.736
142.44
141.539
139.595
137.754
134.224
130.785
125.375
120.324
113.38
107.112
99.3992
93.4183
86.4875
82.8409
75.9019
73.6953
64.5495
1132.24
1419.89
1804.68
1801.94
1642.89
1476.03
1337.18
1225.5
1133.89
1058.5
995.482
941.582
895.237
854.821
819.079
786.709
757.048
729.281
703.049
678.05
654.054
630.861
608.392
586.618
565.371
544.693
524.518
504.91
485.844
467.351
449.363
432.235
415.925
400.31
385.305
370.861
356.913
343.358
330.196
317.471
305.197
293.422
282.26
271.794
262.102
253.308
245.521
238.603
232.319
226.611
221.505
216.765
212.125
207.673
203.732
200.196
196.67
193.115
190.065
187.593
184.92
181.204
177.027
174.049
173.604
175.22
177.225
177.975
177.075
174.851
171.895
168.422
164.807
161.189
157.919
154.915
152.309
149.764
147.51
145.294
143.55
141.921
140.803
139.484
138.4
136.52
134.532
131.145
127.509
122.219
116.87
110.069
103.558
96.1533
89.9282
83.2004
78.7926
71.9112
68.8909
60.5223
896.064
847.255
1028.96
1250.32
1340.42
1313.82
1239.33
1156.71
1080.25
1012.81
954.645
904.451
860.838
822.585
788.825
758.352
730.535
704.581
680.163
656.962
634.708
613.194
592.354
572.065
552.177
532.767
513.742
495.152
477.012
459.278
442.001
425.22
409.064
393.477
378.427
363.884
349.809
336.094
322.768
309.913
297.586
285.873
274.909
264.796
255.621
247.494
240.494
234.442
229.043
224.197
219.902
215.921
211.968
208.144
204.798
201.861
198.868
195.688
192.799
190.371
187.654
183.717
178.875
174.697
172.611
172.561
173.217
173.204
172.03
169.903
167.14
163.95
160.585
157.329
154.428
151.889
149.633
147.418
145.293
143.216
141.431
139.812
138.525
137.167
135.891
134.034
131.892
128.596
124.771
119.532
113.904
107.152
100.427
93.2056
86.7444
80.0652
74.9388
68.2603
64.7903
57.6832
675.259
656.294
666.775
732.361
836.219
921.739
960.621
959.741
936.503
903.381
867.72
833.507
801.506
771.822
744.608
719.253
695.456
672.919
651.263
630.414
610.228
590.559
571.401
552.686
534.27
516.253
498.561
481.198
464.203
447.514
431.125
414.946
399.15
383.769
368.836
354.357
340.313
326.591
313.28
300.522
288.432
277.14
266.787
257.486
249.326
242.385
236.676
231.952
227.836
224.17
220.915
217.848
214.69
211.569
208.85
206.493
203.978
201.101
198.27
195.733
192.797
188.506
182.939
177.542
173.765
171.908
170.975
169.904
168.152
165.871
163.118
160.1
156.931
154.041
151.562
149.58
147.763
145.968
144.041
142.167
140.39
138.817
137.374
135.974
134.492
132.631
130.324
127.081
123.073
117.831
111.946
105.157
98.2707
91.1056
84.4807
77.7107
72.1981
65.7963
62.3683
56.4301
530.439
531.154
526.851
527.522
540.69
566.645
598.636
629.725
653.179
668.239
674.925
676.11
673.192
666.934
658.279
647.502
635.042
621.439
606.693
591.229
575.315
559.045
542.612
526.254
509.904
493.698
477.637
461.692
445.928
430.33
414.989
399.716
384.594
369.752
355.25
341.166
327.458
314.021
301.099
288.918
277.666
267.501
258.544
250.885
244.593
239.671
236.005
233.228
230.86
228.673
226.6
224.468
222.057
219.547
217.308
215.325
213.043
210.221
207.192
204.276
200.852
196.01
189.63
183.007
177.523
173.77
171.058
168.671
166.045
163.345
160.392
157.422
154.394
151.899
149.912
148.612
147.346
146.079
144.422
142.82
141.084
139.602
138.006
136.573
134.852
132.983
130.475
127.287
123.082
117.828
111.696
104.846
97.9026
90.8082
84.3175
77.5367
72.1981
66.0078
62.9558
57.5367
439.099
441.069
439.521
434.33
427.926
422.638
418.157
416.436
416.693
420.718
427.944
438.202
450.941
465.166
479.405
492.379
502.703
509.855
513.035
512.362
508.372
501.502
492.568
482.122
470.507
458.177
445.374
432.13
418.604
404.885
391.268
377.5
363.597
349.846
336.334
323.166
310.035
297.585
286.032
275.594
266.481
258.83
252.666
247.995
244.813
242.988
242.204
241.93
241.576
240.875
239.79
238.279
236.239
233.938
231.74
229.647
227.095
223.849
220.186
216.49
212.214
206.56
199.253
191.411
184.242
178.577
173.976
170.092
166.357
163.008
159.66
156.637
153.729
151.716
150.351
149.913
149.344
148.742
147.407
146.141
144.442
143.1
141.322
139.897
137.882
136.058
133.292
130.255
125.824
120.675
114.298
107.5
100.7
93.9942
88.3933
82.0972
77.6586
71.4128
68.9039
62.9633
368.949
370.974
370.895
367.342
360.744
352.137
341.725
330.827
319.502
308.895
299.53
292.021
287.21
286.244
289.148
296.592
308.007
322.451
338.545
354.518
368.903
380.313
388.288
392.165
392.841
390.919
386.899
381.002
373.719
365.328
356.121
345.884
334.849
323.639
311.889
300.417
289.745
280.362
272.333
265.784
260.853
257.573
255.817
255.478
256.399
258.259
260.49
262.429
263.481
263.47
262.511
260.759
258.255
255.358
252.409
249.412
245.819
241.469
236.612
231.683
226.2
219.534
211.293
202.389
193.742
186.342
179.936
174.554
169.635
165.543
161.708
158.624
155.917
154.589
154.085
154.78
155.086
155.28
154.259
153.336
151.603
150.426
148.395
147.054
144.672
143.032
139.945
137.29
132.597
127.865
121.23
114.808
108.355
102.715
98.6801
93.4414
90.6418
84.435
82.7307
75.7884
309.555
309.357
308.321
304.973
299.227
291.411
282.116
272.09
262.297
253.07
245.429
239.56
235.585
233.642
233.295
234.423
236.73
240.119
244.531
250.263
256.612
264.48
272.569
281.932
290.859
298.555
304.522
308.193
310.003
309.11
305.989
302.259
297.643
292.86
287.404
282.071
277.648
274.343
272.275
271.543
272.213
274.231
277.355
281.352
285.824
290.27
293.973
296.367
297.084
296.17
293.952
290.73
286.654
282.134
277.448
272.593
267.088
260.935
254.383
247.885
241.019
233.365
224.424
214.856
205.213
196.52
188.647
182.005
176.076
171.38
167.204
164.284
162.106
161.894
162.689
164.886
166.233
167.232
166.366
165.655
163.718
162.661
160.284
159.095
156.303
155.024
151.603
149.618
144.655
140.773
133.904
128.402
122.111
117.812
114.56
110.602
109.151
104.285
103.674
97.7555
235.941
236.697
237.09
236.644
235.447
233.916
232.737
232.521
233.867
236.727
241.28
246.765
253.09
259.624
265.719
271.048
275.346
278.879
281.623
283.684
285.109
286.41
287.556
288.737
289.943
291.317
292.709
293.777
294.847
295.35
295.269
295.086
294.815
294.832
295.089
295.696
296.904
298.898
301.737
305.476
310.112
315.538
321.493
327.559
332.992
337.165
339.457
339.683
337.832
334.217
329.276
323.35
316.648
309.569
302.278
294.795
286.805
278.536
270.206
262.228
254.256
246.038
236.949
227.372
217.459
208.166
199.453
192.095
185.68
180.864
176.892
174.76
173.879
175.574
178.35
182.368
184.709
186.131
184.992
184.098
181.714
180.585
177.825
176.753
173.675
172.822
169.27
168.038
163.04
160.29
153.509
149.416
142.72
139.15
135.1
133.261
131.639
130.078
129.362
127.675
255.098
255.539
256.227
257.933
260.909
265.52
271.517
278.92
286.975
295.532
303.959
311.908
318.792
324.415
328.96
332.532
335.315
337.547
339.383
340.849
342.148
343.051
343.631
343.989
344.066
343.974
343.76
343.34
342.942
342.574
342.307
342.296
342.631
343.438
344.747
346.588
349.062
352.265
356.217
360.941
366.338
372.2
378.179
383.438
386.741
387.47
385.435
380.984
374.556
366.809
358.129
348.918
339.33
329.603
319.749
309.895
299.959
290.251
280.901
272.271
264.051
256.031
247.495
238.583
229.158
220.069
211.414
204.258
198.328
194.336
191.664
191.471
193.193
197.836
203.195
208.774
211.375
212.117
209.983
208.22
205.167
203.612
200.597
199.446
196.471
195.863
192.698
191.932
187.525
185.8
180.019
177.34
170.676
167.775
162.091
161.498
158.282
160.094
158.405
161.763
326.292
325.6
325.55
326.864
329.737
334.12
339.715
346.279
353.297
360.627
367.941
374.84
381.188
386.82
391.752
395.899
399.478
402.284
404.506
406.199
407.494
408.455
409.073
409.404
409.395
409.045
408.441
407.558
406.547
405.547
404.669
404.032
403.718
403.789
404.314
405.416
407.242
409.925
413.499
417.866
422.701
427.393
430.981
432.062
429.739
424.199
415.984
405.995
395.077
383.913
372.655
361.476
350.31
339.21
328.144
317.336
306.863
297.008
287.822
279.577
271.939
264.678
257.063
249.091
240.551
232.259
224.57
218.686
214.452
212.535
212.594
215.766
221.44
229.612
237.231
243.01
244.322
243.016
239.219
236.048
232.23
230.02
226.911
225.6
223.052
222.599
220.128
219.728
216.374
215.371
210.602
208.543
202.527
200.665
195.199
195.097
191.289
194.316
192.243
198.08
385.082
384.584
384.855
386.603
390.086
395.252
401.92
409.772
418.459
427.368
436.039
444.182
451.592
458.165
463.817
468.585
472.538
475.685
478.136
479.918
481.069
481.636
481.601
480.966
479.722
477.893
475.586
472.918
470.034
467.148
464.385
461.912
459.859
458.326
457.491
457.579
458.72
460.956
464.117
467.682
470.82
472.197
470.256
464.318
454.945
443.287
430.291
416.878
403.77
391.282
379.328
367.74
356.268
344.972
333.925
323.39
313.47
304.398
296.139
288.825
282.102
275.717
268.991
261.877
254.306
247.219
241.317
237.789
236.512
238.032
242.289
250.178
260.574
271.822
280.163
284.103
282.564
278.396
272.665
268.001
263.454
260.607
257.493
256.171
254.177
253.994
252.176
252.098
249.363
248.472
243.843
242.19
237.112
236.669
232.734
234.567
232.107
236.053
234.209
240.214
455.457
455.335
456.048
458.404
462.709
468.968
476.904
486.289
496.534
507.345
518.015
528.256
537.67
545.995
553.02
558.705
563.022
565.986
567.679
568.161
567.437
565.628
562.774
558.873
554.094
548.591
542.543
536.282
530.127
524.277
518.889
514.229
510.484
507.771
506.315
506.275
507.534
509.758
512.266
513.896
513.223
508.804
499.948
487.479
472.86
457.388
442.005
427.295
413.578
400.913
389.02
377.546
366.284
355.373
344.968
335.332
326.518
318.642
311.563
305.285
299.463
293.84
287.819
281.41
274.895
269.55
266.473
266.663
269.881
276.459
286.504
300.264
315.206
327.853
334.468
334.516
329.163
321.948
314.391
308.458
303.339
299.991
296.99
295.855
294.477
294.502
293.105
292.971
290.266
289.228
285.103
284.509
280.768
282.035
279.474
282.959
281.169
286.217
284.499
291.26
547.051
547.44
548.867
552.336
558.309
566.82
577.597
590.3
604.245
618.857
633.143
646.632
658.523
668.335
675.747
680.651
683.025
683
680.779
676.603
670.658
663.307
654.722
645.117
634.909
624.36
613.761
603.623
594.259
585.765
578.384
572.431
568.085
565.397
564.483
565.226
567.015
568.884
569.496
567.181
560.528
549.26
534.222
516.93
498.894
481.227
464.742
449.699
436.051
423.581
411.824
400.518
389.6
379.27
369.723
361.179
353.598
346.949
340.983
335.605
330.505
325.46
319.983
314.255
309.15
306.574
307.995
313.935
323.739
337.361
354.796
374.774
392.524
403.591
405.664
400.447
391.111
381.203
372.248
365.476
360.076
356.47
353.778
352.895
352.009
352.043
350.86
350.49
348.095
347.362
344.477
345.057
342.708
345.36
343.549
348.076
345.853
351.782
349.031
356.765
688.24
689.327
691.775
696.984
705.691
717.982
733.459
751.452
770.915
790.496
808.891
824.886
837.267
845.462
849.186
848.518
843.827
835.694
824.773
811.724
797.143
781.628
765.523
749.32
733.438
718.117
703.761
690.823
679.383
669.498
661.478
655.63
652.046
650.597
651.085
652.903
654.725
654.819
651.37
642.812
628.87
610.843
590.579
569.677
549.314
530.351
513.348
498.343
484.986
472.668
460.995
449.877
439.312
429.556
420.842
413.335
406.873
401.27
396.186
391.469
386.871
382.264
377.347
372.653
369.999
372.335
381.284
396.251
415.542
438.431
464.272
488.827
505.603
511.17
506.395
495.642
482.859
471.052
461.407
454.407
449.188
445.742
443.582
442.838
442.224
442.202
441.402
441.074
439.525
439.418
437.972
439.267
438.121
441.259
439.673
444.526
441.292
448.361
443.711
454.03
930.641
932.701
936.629
944.62
957.809
976.169
998.569
1023.6
1048.94
1072.28
1091.67
1104.9
1110.86
1109.45
1101.04
1086.66
1067.68
1045.42
1021.22
996.202
971.196
946.789
923.251
901.061
880.415
861.541
844.889
830.553
818.4
808.556
801.338
796.993
795.381
795.984
797.985
800.098
800.234
796.02
785.73
769.113
747.519
723.211
698.416
674.564
652.457
632.728
615.644
600.904
587.658
575.367
563.846
552.992
542.803
533.582
525.603
518.983
513.42
508.586
504.087
499.777
495.526
491.422
487.561
485.243
487.782
499.648
521.758
550.861
583.086
616.964
649.662
673.753
683.73
679.916
667.424
651.9
636.849
624.395
615.107
608.783
604.457
601.81
600.422
599.872
599.47
599.475
599.165
599.214
598.677
599.176
598.827
600.306
599.874
602.689
601.023
605.812
601.444