/*--------------------------------*- C++ -*----------------------------------*\
| =========                 |                                                 |
| \\      /  F ield         | OpenFOAM: The Open Source CFD Toolbox           |
|  \\    /   O peration     | Version:  v2012                                 |
|   \\  /    A nd           | Website:  www.openfoam.com                      |
|    \\/     M anipulation  |                                                 |
\*---------------------------------------------------------------------------*/
FoamFile
{
    version     2.0;
    format      ascii;
    class       volScalarField;
    location    "0.39";
    object      epsilon.air;
}
// * * * * * * * * * * * * * * * * * * * * * * * * * * * * * * * * * * * * * //

dimensions      [0 2 -3 0 0 0 0];


internalField   nonuniform List<scalar> 
1900
(
112.724
141.424
210.098
257.591
369.051
443.457
614.739
724.909
971.324
1128.62
15.4676
16.4471
18.6378
20.45
23.7573
27.7273
32.0035
39.2878
45.122
56.7605
14.7926
14.6414
14.5755
14.5063
14.5148
14.5574
14.6409
14.8309
15.0774
15.4132
14.77
14.6304
14.4634
14.3354
14.1726
14.059
13.9039
13.808
13.6653
13.5937
14.7766
14.6216
14.4704
14.3205
14.1747
14.029
13.8889
13.7473
13.6138
13.477
14.7777
14.6205
14.4714
14.3197
14.1754
14.0284
13.8891
13.7473
13.6132
13.4774
14.7777
14.6207
14.473
14.3235
14.184
14.0451
13.9174
13.7916
13.6806
13.5716
14.776
14.6501
14.5637
14.5035
14.5108
14.552
14.6362
14.8216
15.0445
15.3954
15.2128
16.6025
18.2736
20.6834
23.5873
27.5783
32.2596
38.4106
45.5647
54.8153
105.979
146.542
198.382
265.747
349.994
456.075
585.62
743.744
931.795
1154.14
4102.3
15195.6
19568.7
22445.6
21116.6
18031.4
15096.3
12802.7
11298.7
10378.5
9874.13
9694.31
9520.62
9255.39
8850.44
8352.04
7798.04
7211.96
6645.53
6126.69
5649.37
5222.35
4838.07
4487.02
4167.62
3878.15
3615.73
3378.3
3162.67
2966.99
2788.8
2626.09
2477.17
2340.51
2214.96
2099.35
1992.76
1894.29
1803.15
1718.68
1640.25
1567.31
1499.37
1435.96
1376.69
1321.19
1269.14
1220.22
1174.17
1130.73
1089.71
1050.89
1014.12
979.23
946.093
914.569
884.556
855.928
828.612
802.487
777.509
753.556
730.618
708.566
687.428
667.059
647.531
628.671
610.599
593.099
576.351
560.08
544.535
529.368
514.916
500.74
487.288
474.007
461.485
449.019
437.377
425.664
414.87
403.849
393.882
383.49
374.329
364.493
356.119
346.75
339.15
330.149
323.317
314.572
308.522
299.91
294.673
286.06
281.664
271.292
113.161
337.572
517.808
922.764
1126.17
1151.45
1123.62
1059.54
1052.26
1091.06
1195.59
1407.59
1693.93
2026.28
2377.94
2691.2
2968.89
3202.01
3357.51
3433.91
3426.02
3387.43
3302.49
3184.79
3056.63
2925.33
2794.65
2667.87
2544.21
2426.73
2314.51
2207.42
2105.98
2009.99
1919.61
1834.5
1754.55
1679.26
1608.37
1541.64
1478.8
1419.55
1363.67
1310.93
1261.12
1214.02
1169.46
1127.22
1087.14
1049.04
1012.79
978.232
945.258
913.754
883.628
854.781
827.146
800.632
775.196
750.749
727.27
704.661
682.928
661.963
641.806
622.331
603.616
585.506
568.128
551.281
535.144
519.465
504.482
489.872
475.954
462.318
449.384
436.633
424.613
412.669
401.513
390.31
379.984
369.463
359.942
350.04
341.304
331.95
323.979
315.088
307.867
299.343
292.866
284.602
278.877
270.756
265.811
257.705
253.571
243.832
16.4277
19.8638
22.8804
29.0924
34.7978
38.7618
41.7335
43.8044
46.7193
50.7146
58.7434
70.9296
95.3924
130.074
189.347
267.34
373.386
507.94
665.363
835.849
1004.04
1162
1302.45
1419.72
1510.69
1574.03
1612.53
1629.62
1626.8
1615.72
1592.31
1561.76
1527.1
1489.68
1451.1
1411.37
1371.67
1331.46
1291.67
1252.57
1214.17
1176.61
1140.05
1104.54
1070.17
1036.88
1004.76
973.692
943.683
914.685
886.657
859.539
833.293
807.874
783.265
759.417
736.327
713.949
692.296
671.315
651.028
631.371
612.378
593.967
576.198
558.966
542.363
526.252
510.766
495.72
481.299
467.261
453.85
440.755
428.291
416.063
404.482
393.044
382.282
371.562
361.573
351.512
342.265
332.807
324.281
315.371
307.547
299.123
291.986
283.975
277.513
269.831
264.035
256.587
251.463
244.147
239.715
232.42
228.707
219.949
13.4531
13.4606
13.5462
13.8022
14.3327
15.005
15.7159
16.3383
16.9271
17.348
17.9012
18.3653
19.3013
20.499
22.7247
26.2419
31.7663
40.6662
54.6641
75.9983
106.242
146.672
198.419
260.406
330.32
405.476
481.412
555.649
623.159
684.778
737.614
781.145
815.257
840.338
858.198
869.088
874.793
874.32
871.762
866.011
857.409
846.846
834.815
821.448
807.152
792.046
776.453
760.273
743.849
727.263
710.538
693.736
676.931
660.166
643.519
626.988
610.67
594.557
578.742
563.193
548.008
533.138
518.658
504.512
490.788
477.4
464.451
451.818
439.64
427.743
416.323
405.14
394.456
383.953
373.971
364.102
354.776
345.478
336.762
327.988
319.857
311.564
303.999
296.147
289.136
281.687
275.223
268.133
262.218
255.438
250.062
243.527
238.685
232.324
228.022
221.758
218.012
211.764
208.592
201.083
13.3297
13.1592
13.0624
13.1164
13.3044
13.715
14.283
14.9079
15.4508
15.8858
16.2102
16.4484
16.6202
16.7695
16.9021
17.0876
17.3368
17.7119
18.3245
19.2843
20.84
23.2066
26.7414
32.0699
39.742
50.5702
65.0299
83.749
106.715
133.931
164.737
198.144
233.269
268.481
303.273
335.981
366.834
394.719
419.441
440.711
458.57
473.044
484.487
492.991
498.975
502.664
504.52
504.264
503.137
500.644
496.894
492.186
486.721
480.559
473.854
466.686
459.207
451.414
443.493
435.385
427.296
419.124
411.016
402.941
395.004
387.131
379.409
371.744
364.262
356.823
349.615
342.417
335.506
328.552
321.943
315.23
308.918
302.445
296.43
290.173
284.444
278.384
272.946
267.072
261.937
256.241
251.427
245.896
241.41
236.016
231.876
226.603
222.825
217.641
214.241
209.105
206.1
200.969
198.374
192.189
13.3249
13.1544
13.0315
13.0861
13.2951
13.7718
14.4959
15.4859
16.504
17.6044
18.6028
19.5297
20.2646
20.8707
21.2949
21.5989
21.7638
21.8414
21.8295
21.7898
21.7047
21.6056
21.5349
21.5606
21.6683
21.9282
22.4687
23.3664
24.8504
27.0545
30.3071
34.7859
40.839
48.5133
57.9461
69.1787
82.1903
96.7812
112.712
129.574
147.017
164.584
181.944
198.666
214.542
229.238
242.807
254.96
265.881
275.497
283.931
291.2
297.429
302.697
307.065
310.634
313.506
315.682
317.322
318.326
318.985
318.97
318.738
318.182
317.145
315.775
314.113
312.176
310.031
307.644
305.119
302.356
299.546
296.441
293.44
290.064
286.906
283.304
280.027
276.247
272.892
268.967
265.584
261.55
258.187
254.075
250.783
246.626
243.454
239.279
236.264
232.083
229.257
225.078
222.471
218.294
215.929
211.754
209.656
204.624
13.4657
13.3601
13.4097
13.6559
14.3035
15.6841
18.027
21.4372
25.3923
29.7174
33.6402
37.0823
39.5956
41.5354
42.6216
43.3084
43.3425
43.2151
42.9141
42.4105
41.796
41.1494
40.5103
39.9162
39.3517
38.8617
38.4823
38.2106
38.1121
38.1696
38.3491
38.7543
39.3333
40.3143
41.5596
43.3376
45.5576
48.4856
52.156
56.7597
62.4307
69.2131
77.281
86.5478
97.1363
108.827
121.621
135.245
149.526
164.227
179.045
193.835
208.279
222.316
235.681
248.352
260.158
271.132
281.18
290.362
298.63
306.051
312.561
318.307
323.213
327.412
330.864
333.674
335.814
337.456
338.462
339.113
339.084
338.833
338.28
337.139
336.026
334.171
332.598
330.202
328.236
325.396
323.133
319.931
317.462
313.976
311.389
307.7
305.081
301.258
298.676
294.778
292.289
288.362
286.017
282.096
279.938
276.054
274.138
269.563
15.9091
16.8581
18.5485
21.9358
28.4075
39.4717
55.4403
75.0006
95.4204
114.335
129.353
140.099
146.449
150.113
150.737
150.3
149.169
147.638
146.284
145.143
144.499
144.686
145.323
146.823
148.927
152.205
156.038
161.179
166.956
173.945
181.684
190.672
200.484
211.619
223.529
236.762
250.695
265.727
281.52
298.142
315.494
333.195
351.308
369.328
387.445
405.203
422.731
439.678
456.029
471.671
486.533
500.699
514.123
526.859
538.831
550.044
560.357
569.886
578.443
586.168
592.869
598.649
603.373
607.109
609.844
611.628
612.56
612.462
611.934
610.724
608.79
606.285
603.43
600.01
596.548
592.393
588.541
583.808
579.646
574.484
570.084
564.609
560.074
554.367
549.789
543.936
539.416
533.514
529.153
523.282
519.151
513.366
509.522
503.867
500.361
494.866
491.768
486.451
483.883
477.929
68.03
90.4352
126.24
184.857
271.931
385.031
511.385
635.902
744.936
831.672
892.886
932.784
953.09
963.008
964.568
963.392
960.276
957.327
957.051
957.912
960.395
966.065
975.261
986.695
1000.03
1016.23
1034.67
1055.46
1077.58
1101.29
1126.24
1152.35
1179.17
1206.42
1233.49
1260.36
1286.45
1311.75
1336.11
1359.16
1380.97
1401.04
1419.84
1436.89
1452.75
1466.92
1479.93
1491.35
1501.55
1510.28
1517.78
1523.92
1528.91
1532.46
1534.94
1535.8
1535.42
1534.18
1531.54
1527.69
1522.84
1516.82
1510.03
1501.94
1493.31
1483.47
1473.02
1461.98
1450.51
1438.32
1426.1
1413.16
1400.53
1387.17
1374.52
1361.04
1348.54
1335.09
1322.82
1309.51
1297.62
1284.56
1273.15
1260.43
1249.59
1237.26
1227.09
1215.21
1205.8
1194.41
1185.8
1174.89
1167.11
1156.63
1149.74
1139.69
1133.76
1124.12
1119.4
1108.89
1464.65
1897.28
2399.04
2961.79
3563.12
4171.77
4745.99
5251.49
5654.95
5950.7
6132.58
6219.14
6206.46
6159.61
6061.04
5928.04
5778.03
5619.72
5459.44
5301.74
5149.53
5004.31
4867.44
4739.44
4620.53
4510.58
4409.25
4316.44
4231.53
4154.31
4084.03
4020.48
3963.14
3911.85
3865.98
3825.35
3789.38
3758.04
3730.87
3707.58
3687.67
3670.6
3656.28
3644.11
3634.15
3625.62
3618.8
3612.95
3608.45
3604.68
3601.99
3599.97
3598.85
3598.4
3598.53
3598.92
3599.73
3600.69
3601.86
3603.07
3604.43
3605.52
3606.84
3607.66
3608.69
3609.26
3609.8
3609.76
3609.49
3608.74
3607.56
3605.15
3602.7
3598.67
3594.9
3589.32
3584.25
3577.2
3570.97
3562.65
3555.43
3545.96
3537.85
3527.25
3518.28
3506.53
3496.79
3483.95
3473.62
3459.77
3449.13
3434.4
3423.82
3408.3
3398.22
3381.91
3372.62
3355.49
3346.8
3325
1109.75
1064.94
1122.21
1209.96
1238.6
1120.88
818.244
1979.42
54698.7
16174.9
7366.55
6109.12
6232.81
6482.73
6553.11
8025.65
74299
43682.8
24857.5
18470.2
16099.6
14997.7
14624.5
19664.5
76428.4
71037.1
54256.8
41196.3
32684
27153.7
24540.3
34053.2
69743.6
75704.7
67740.8
55641.1
44558.9
35836.7
30858.8
42692.9
57771.9
71175.7
67942.3
59037.2
48373.5
38730.9
32780.9
45218.3
47500
61839.5
62494.2
56615.3
47168.7
38180.3
32455.6
44246.1
39096.1
51826.3
53593.2
49845.7
42402.2
34682.7
29599.5
39778.6
32625.3
42991.5
44925.4
42138.1
36307.3
30047.9
25828.2
34059.1
27601.1
35623.4
37260.4
35118.6
30546.8
25560.9
22229.2
29390.3
23482.6
29583.8
30824.9
29123.8
25533.4
21635.3
19161.5
26026.6
20101.2
24692.7
25573.1
24183.6
21340.3
18298.5
16495.7
22984
17365.7
20779.8
21367.4
20208.7
17937.7
15554.1
14262.9
20357.9
15135.8
17656.3
18021.4
17040.5
15211.1
13329.5
12423.7
18145.5
13287.8
15147.7
15353.4
14516.4
13029.3
11533.9
10920.9
16312.1
11728.6
13108.3
13205.3
12488.3
11270.4
10075.6
9687.63
14790.9
10406.7
11438.3
11462.6
10846
9841.11
8882.33
8668.62
13522.1
9269.08
10052.3
10032.9
9500.14
8666.57
7895.58
7818.79
12454.7
8287.22
8890.79
8847.04
8385.13
7690.68
7071.04
7102.1
11547.7
7443.7
7912.57
7854.49
7453.4
6872.39
6375.51
6490.71
10770.5
6716.52
7083.88
7017.86
6668.71
6180.46
5783.37
5965.85
10097.2
6089.84
6378.53
6308.35
6003.26
5591.1
5275.43
5511.81
9508.12
5547.37
5774.72
5702.96
5435.39
5086.12
4837.28
5116.98
8989.95
5073.43
5253.67
5182.5
4947.33
4650.68
4457.31
4772.22
8532.91
4657.27
4801.17
4732.11
4525.1
4272.87
4125.96
4469.74
8128.35
4290.25
4405.99
4340.02
4157.62
3943.16
3835.47
4203.07
7768.66
3965.08
4058.85
3996.64
3835.87
3653.77
3579.43
3966.84
7447.5
3676.14
3752.53
3694.36
3552.67
3398.48
3352.7
3756.7
7159.81
3418.23
3480.87
3426.9
3302.11
3172.14
3150.99
3569.07
6901.56
3187.35
3238.97
3189.19
3079.37
2970.55
2970.84
3400.83
6669.06
2979.79
3022.59
2976.95
2880.52
2790.28
2808.88
3249.58
6459.03
2792.5
2828.24
2786.62
2702.17
2628.31
2662.9
3112.96
6268.69
2622.93
2653.03
2615.28
2541.61
2482.23
2530.91
2989.1
6095.7
2468.86
2494.46
2460.45
2396.52
2350
2411.17
2876.46
5937.96
2328.52
2350.53
2320.1
2264.96
2229.93
2302.21
2773.69
5793.64
2200.32
2219.5
2192.47
2145.3
2120.57
2202.76
2679.68
5661.16
2082.95
2099.9
2076.12
2036.19
2020.7
2111.78
2593.47
5539.22
1975.26
1990.48
1969.78
1936.42
1929.27
2028.35
2514.26
5426.76
1876.24
1890.14
1872.35
1845
1845.41
1951.67
2441.35
5322.87
1784.99
1797.91
1782.89
1761.05
1768.2
1881.12
2374.16
5226.85
1700.74
1712.95
1700.56
1683.77
1697.04
1816.05
2312.16
5138.07
1622.79
1634.53
1624.62
1612.46
1631.33
1755.91
2254.86
5056
1550.52
1561.97
1554.41
1546.52
1570.51
1700.22
2201.84
4980.13
1483.38
1494.68
1489.34
1485.39
1514.12
1648.55
2152.72
4909.99
1420.88
1432.15
1428.91
1428.63
1461.7
1600.5
2107.12
4845.14
1362.57
1373.91
1372.67
1375.74
1412.91
1555.75
2064.73
4785.09
1308.07
1319.57
1320.21
1326.4
1367.37
1513.97
2025.23
4729.37
1257.04
1268.74
1271.18
1280.28
1324.79
1474.89
1988.36
4677.52
1209.15
1221.11
1225.27
1237.1
1284.9
1438.27
1953.86
4629.13
1164.14
1176.42
1182.2
1196.6
1247.47
1403.89
1921.54
4583.82
1121.76
1134.4
1141.74
1158.54
1212.27
1371.56
1891.17
4541.24
1081.8
1094.84
1103.67
1122.74
1179.15
1341.12
1862.62
4501.12
1044.06
1057.54
1067.81
1089
1147.92
1312.41
1835.72
4463.22
1008.37
1022.32
1033.96
1057.18
1118.45
1285.32
1810.39
4427.39
974.584
989.031
1002
1027.11
1090.61
1259.71
1786.47
4393.48
942.542
957.511
971.757
998.67
1064.27
1235.5
1763.92
4361.44
912.128
927.638
943.116
971.74
1039.32
1212.57
1742.62
4331.17
883.202
899.27
915.942
946.201
1015.67
1190.86
1722.53
4302.64
855.677
872.316
890.143
921.96
993.225
1170.28
1703.55
4275.8
829.422
846.645
865.594
898.909
971.896
1150.75
1685.65
4250.57
804.382
822.196
842.236
876.986
951.62
1132.21
1668.75
4226.97
780.427
798.841
819.944
856.079
932.302
1114.58
1652.78
4204.77
757.539
776.556
798.694
836.164
913.914
1097.84
1637.73
4184.1
735.58
755.204
778.353
817.114
896.344
1081.88
1623.48
4164.59
714.574
734.807
758.94
798.95
879.609
1066.72
1610.05
4146.49
694.365
715.202
740.295
781.514
863.557
1052.21
1597.29
4129.25
675.023
696.463
722.492
764.882
848.26
1038.42
1585.27
4113.3
656.362
678.391
705.326
748.846
833.516
1025.16
1573.77
4097.88
638.504
661.117
688.934
733.549
819.468
1012.56
1562.95
4083.69
621.216
644.389
673.051
718.715
805.84
1000.34
1552.51
4069.7
604.685
628.409
657.893
704.574
792.867
988.75
1542.68
4056.92
588.614
612.856
643.117
690.762
780.175
977.403
1533.09
4044.01
573.27
598.018
629.037
677.621
768.122
966.659
1524.08
4032.34
558.274
583.488
615.211
664.673
756.203
956.005
1515.13
4020.18
543.994
569.666
602.079
652.404
744.943
945.984
1506.8
4009.38
529.951
556.032
589.074
640.19
733.666
935.881
1498.32
3997.69
516.637
543.125
576.794
628.701
723.112
926.498
1490.58
3987.59
503.448
530.288
564.511
617.122
712.375
916.837
1482.44
3976.1
491.03
518.231
553.022
606.357
702.478
908.048
1475.24
3966.64
478.619
506.116
541.39
595.345
692.215
898.753
1467.33
3955.15
467.053
494.868
530.656
585.279
682.961
890.559
1460.69
3946.34
455.357
483.418
519.622
574.785
673.121
881.578
1452.94
3934.76
444.615
472.957
509.63
565.412
664.521
874.012
1446.93
3926.7
433.579
462.12
499.146
555.394
655.068
865.307
1439.29
3915.02
423.644
452.433
489.889
546.721
647.143
858.416
1433.99
3907.86
413.207
442.152
479.905
537.133
638.041
849.963
1426.45
3896.21
404.061
433.226
471.375
529.16
630.807
843.786
1421.95
3890.03
394.153
423.434
461.832
519.958
622.026
835.578
1414.56
3878.68
385.778
415.253
454.017
512.672
615.471
830.103
1410.8
3873.33
376.313
405.872
444.846
503.803
606.988
822.173
1403.73
3862.61
368.697
398.424
437.729
497.182
601.074
817.321
1400.49
3857.77
359.576
389.361
428.849
488.583
592.856
809.692
1393.94
3847.91
352.716
382.64
422.419
482.604
587.54
805.396
1391.08
3843.48
343.832
373.792
413.736
474.196
579.532
798.047
1385.08
3834.35
337.739
367.805
407.991
468.838
574.765
794.215
1382.5
3830.16
328.971
359.061
399.405
460.538
566.909
787.11
1376.92
3821.52
323.673
353.826
394.346
455.774
562.615
783.6
1374.49
3817.39
314.893
345.066
385.751
447.495
554.852
776.727
1369.27
3809.22
310.41
340.592
381.367
443.287
550.945
773.362
1366.83
3805.04
299.793
329.95
370.867
433.102
541.319
764.764
1359.93
3795.34
)
;

boundaryField
{
    frontAndBack
    {
        type            empty;
    }
    inlet
    {
        type            fixedValue;
        value           uniform 14.855;
    }
    outlet
    {
        type            zeroGradient;
    }
    walls
    {
        lowReCorrection 0;
        blending        stepwise;
        n               2;
        type            epsilonWallFunction;
        value           nonuniform List<scalar> 
228
(
112.724
141.424
210.098
257.591
369.051
443.457
614.739
724.909
971.324
1128.62
1109.75
1064.94
1122.21
1209.96
1238.6
1120.88
818.244
1979.42
1979.42
8025.65
19664.5
34053.2
42692.9
45218.3
44246.1
39778.6
34059.1
29390.3
26026.6
22984
20357.9
18145.5
16312.1
14790.9
13522.1
12454.7
11547.7
10770.5
10097.2
9508.12
8989.95
8532.91
8128.35
7768.66
7447.5
7159.81
6901.56
6669.06
6459.03
6268.69
6095.7
5937.96
5793.64
5661.16
5539.22
5426.76
5322.87
5226.85
5138.07
5056
4980.13
4909.99
4845.14
4785.09
4729.37
4677.52
4629.13
4583.82
4541.24
4501.12
4463.22
4427.39
4393.48
4361.44
4331.17
4302.64
4275.8
4250.57
4226.97
4204.77
4184.1
4164.59
4146.49
4129.25
4113.3
4097.88
4083.69
4069.7
4056.92
4044.01
4032.34
4020.18
4009.38
3997.69
3987.59
3976.1
3966.64
3955.15
3946.34
3934.76
3926.7
3915.02
3907.86
3896.21
3890.03
3878.68
3873.33
3862.61
3857.77
3847.91
3843.48
3834.35
3830.16
3821.52
3817.39
3809.22
3805.04
3795.34
105.979
146.542
198.382
265.747
349.994
456.075
585.62
743.744
931.795
1154.14
1464.65
1897.28
2399.04
2961.79
3563.12
4171.77
4745.99
5251.49
5654.95
5950.7
6132.58
6219.14
6206.46
6159.61
6061.04
5928.04
5778.03
5619.72
5459.44
5301.74
5149.53
5004.31
4867.44
4739.44
4620.53
4510.58
4409.25
4316.44
4231.53
4154.31
4084.03
4020.48
3963.14
3911.85
3865.98
3825.35
3789.38
3758.04
3730.87
3707.58
3687.67
3670.6
3656.28
3644.11
3634.15
3625.62
3618.8
3612.95
3608.45
3604.68
3601.99
3599.97
3598.85
3598.4
3598.53
3598.92
3599.73
3600.69
3601.86
3603.07
3604.43
3605.52
3606.84
3607.66
3608.69
3609.26
3609.8
3609.76
3609.49
3608.74
3607.56
3605.15
3602.7
3598.67
3594.9
3589.32
3584.25
3577.2
3570.97
3562.65
3555.43
3545.96
3537.85
3527.25
3518.28
3506.53
3496.79
3483.95
3473.62
3459.77
3449.13
3434.4
3423.82
3408.3
3398.22
3381.91
3372.62
3355.49
3346.8
3325
)
;
    }
}


// ************************************************************************* //
