/*--------------------------------*- C++ -*----------------------------------*\
| =========                 |                                                 |
| \\      /  F ield         | OpenFOAM: The Open Source CFD Toolbox           |
|  \\    /   O peration     | Version:  v2012                                 |
|   \\  /    A nd           | Website:  www.openfoam.com                      |
|    \\/     M anipulation  |                                                 |
\*---------------------------------------------------------------------------*/
FoamFile
{
    version     2.0;
    format      ascii;
    class       volScalarField;
    location    "0.39";
    object      omega.air;
}
// * * * * * * * * * * * * * * * * * * * * * * * * * * * * * * * * * * * * * //

dimensions      [0 0 -1 0 0 0 0];


internalField   nonuniform List<scalar> 
5600
(
6586.29
7485.5
7886.8
7965.17
7866.41
7687.44
7480.98
7290.03
7125.34
6987.77
6878.92
6796.29
6736.27
6693.39
6663.68
6642.28
6627.09
6614.8
6605.36
6596.45
6589.64
6582.63
6577.87
6573.1
6570.51
6567.58
6566.37
6564.62
6564.08
6562.72
6562.16
6560.56
6559.63
6557.67
6556.48
6554.33
6553.04
6550.83
6549.57
6547.42
6546.3
6544.32
6543.43
6541.66
6541.07
6539.57
6539.26
6537.97
6537.9
6536.78
6536.87
6535.91
6536.2
6535.29
6535.84
6535.07
6535.88
6535.27
6536.31
6535.88
6537.19
6536.84
6538.44
6538.18
6540.05
6539.84
6541.99
6541.82
6544.25
6544.08
6546.83
6546.63
6549.73
6549.45
6552.92
6552.55
6556.4
6555.92
6560.12
6559.54
6564
6563.42
6567.93
6567.63
6571.75
6572.33
6575.1
6578.01
6577.29
6585.85
6576.85
6598.33
6569.39
6622.6
6540.98
6683.13
6441.04
6867.83
6039
7485.79
2450.54
2296.55
2571.65
2795.09
2928.2
2998.04
3010.26
2968.22
2968.91
3017.27
3073.44
3118.99
3147.16
3158.48
3154.91
3140.53
3118.26
3091.29
3062.13
3032.56
3003.22
2973.99
2945.02
2916.51
2889.21
2863.29
2839.67
2817.46
2797.58
2778.6
2761.96
2745.94
2732.07
2718.69
2707.18
2696
2686.39
2677.03
2668.96
2661.1
2654.29
2647.66
2641.88
2636.28
2631.28
2626.33
2621.88
2617.44
2613.48
2609.53
2606.08
2602.53
2599.55
2596.53
2593.9
2591.25
2589
2586.7
2584.8
2582.73
2581.11
2579.33
2577.93
2576.38
2575.18
2573.82
2572.79
2571.63
2570.71
2569.77
2568.97
2568.19
2567.52
2566.89
2566.35
2565.86
2565.42
2565.06
2564.68
2564.45
2564.06
2564.03
2563.56
2563.84
2563.14
2563.98
2562.67
2564.67
2561.82
2566.36
2559.42
2570.76
2552.86
2582.39
2534.71
2614.78
2478.05
2716.39
2276.87
3073.03
2358.54
1859.93
1592.13
1427.82
1346.08
1273.82
1279.96
1309.15
1351.9
1412.45
1482.27
1549.52
1611.13
1663.93
1704.87
1733.43
1749.09
1752.48
1744.29
1726.48
1702.37
1676.77
1653.6
1634.9
1619.45
1605.79
1593.23
1581.77
1571.23
1561
1551.15
1540.95
1531.32
1521.67
1512.9
1504.19
1496.4
1488.69
1481.88
1475.16
1469.22
1463.35
1458.13
1452.87
1448.27
1443.65
1439.6
1435.5
1431.94
1428.3
1425.19
1421.96
1419.25
1416.43
1414.08
1411.59
1409.55
1407.33
1405.55
1403.55
1401.98
1400.16
1398.78
1397.11
1395.91
1394.36
1393.32
1391.9
1391
1389.73
1388.94
1387.81
1387.13
1386.12
1385.53
1384.64
1384.09
1383.34
1382.76
1382.21
1381.5
1381.29
1380.25
1380.67
1378.9
1380.51
1377.23
1381.13
1374.75
1383.21
1370.38
1388.32
1361.8
1400.05
1343.65
1425.94
1304.61
1479.17
1228.25
1557.51
2345.16
1822.38
1493.22
1267.66
1111.15
992.611
906.862
846.932
802.651
776.728
760.41
769.453
791.628
824.096
860.917
902.272
941.256
978.655
1011.21
1039.64
1061.39
1079.16
1091.62
1100.98
1105.71
1107.16
1103.57
1097.11
1087.6
1078.02
1068.45
1060.71
1053.94
1048.04
1042.52
1037.34
1032.49
1027.85
1023.56
1019.24
1015.12
1010.64
1006.17
1001.43
996.997
992.454
988.34
984.179
980.476
976.733
973.448
970.119
967.221
964.274
961.706
959.012
956.664
954.157
951.991
949.644
947.646
945.45
943.622
941.571
939.911
938.004
936.507
934.746
933.409
931.788
930.589
929.117
928.023
926.68
925.65
924.436
923.436
922.422
921.384
920.646
919.422
919.123
917.482
917.928
915.462
917.192
913.182
917.131
910.322
918.125
906.358
920.827
900.493
926.212
891.773
934.642
880.68
942.303
875.096
926.804
2341.97
1815.97
1479.81
1247.93
1079.72
952.569
853.194
774.612
710.645
658.899
616.094
581.962
556.201
536.184
523.575
514.78
513.797
520.895
532.271
549.207
568.538
591.928
616.101
642.237
667.069
692.196
713.811
733.351
748.19
760.886
769.724
777.424
782.151
786.058
787.265
787.762
785.851
783.563
779.519
775.789
771.22
767.608
764.174
761.32
758.406
755.728
753.024
750.454
747.966
745.573
743.34
741.143
739.065
736.963
734.806
732.432
730.124
727.685
725.394
723.001
720.803
718.51
716.441
714.275
712.359
710.342
708.586
706.726
705.123
703.401
701.919
700.291
698.867
697.327
695.923
694.502
693.079
691.835
690.351
689.382
687.74
687.175
685.215
685.264
682.714
683.724
680.156
682.605
677.44
681.988
674.478
681.9
671.325
682.09
668.508
681.445
667.67
677.2
671.78
664.949
2341.13
1814.12
1476.76
1243.88
1074.17
945.326
844.331
763.137
696.591
641.021
594.192
554.015
519.69
489.845
464.18
441.874
422.651
406.902
393.561
383.41
375.257
370.383
367.306
368.994
373.104
381.372
391.423
405.407
419.976
437.794
454.611
473.776
490.93
509.287
524.582
540.266
552.272
564.144
572.373
580.454
585.553
590.728
593.884
597.311
598.934
600.763
600.931
601.292
600.185
599.323
597.304
595.618
593.223
591.223
589.085
587.474
585.727
584.283
582.707
581.303
579.833
578.441
577.073
575.715
574.467
573.174
572.034
570.813
569.703
568.504
567.304
565.932
564.594
563.19
561.776
560.431
558.947
557.717
556.135
555.102
553.391
552.647
550.734
550.388
548.164
548.343
545.675
546.508
543.269
544.839
540.983
543.23
538.942
541.424
537.393
539.047
536.591
535.864
535.994
532.419
2340.86
1813.43
1475.76
1242.6
1072.62
943.433
842.137
760.548
693.582
637.511
590.06
549.213
513.894
482.868
455.627
431.338
409.782
390.358
373.052
357.345
343.366
330.65
319.417
309.355
300.766
293.281
287.196
282.343
278.877
276.858
276.533
278.447
281.702
287.355
293.958
303.046
312.46
324.198
335.45
348.566
360.513
374.024
385.575
398.386
408.864
420.301
429.17
438.694
445.599
452.909
457.792
462.935
466.091
469.464
471.441
473.825
475.085
476.675
477.311
478.185
478.251
478.475
478.04
477.699
476.861
476.07
474.971
473.879
472.746
471.574
470.54
469.571
468.673
467.805
466.927
466.128
465.207
464.482
463.47
462.85
461.717
461.251
459.97
459.696
458.249
458.172
456.543
456.654
454.832
455.079
453.101
453.378
451.33
451.464
449.447
449.381
447.355
447.302
444.541
445.254
2340.76
1813.12
1475.33
1242.06
1072
942.724
841.353
759.668
692.626
636.441
588.91
547.91
512.507
481.258
453.909
429.283
407.567
387.639
370.028
353.554
339.042
325.187
313.09
301.273
291.123
280.95
272.427
263.627
256.517
248.922
243.113
236.719
232.202
227.016
223.807
219.935
218.119
215.729
215.444
215.056
216.678
218.397
221.921
225.782
231.146
237.033
244.023
251.61
259.822
268.521
277.404
286.649
295.673
304.88
313.424
322.037
329.855
337.622
344.536
351.266
357.148
362.713
367.491
371.833
375.518
378.668
381.363
383.452
385.37
386.693
388.078
388.992
390.043
390.618
391.343
391.628
392.012
392.057
392.097
391.944
391.639
391.337
390.7
390.3
389.357
388.908
387.692
387.232
385.78
385.327
383.678
383.235
381.421
381.043
379.058
378.756
376.458
376.301
373.407
373.321
2340.71
1812.97
1475.12
1241.81
1071.71
942.4
841.001
759.288
692.222
636.006
588.453
547.418
511.993
480.703
453.331
428.655
406.908
386.919
369.265
352.71
338.131
324.161
311.962
299.979
289.666
279.239
270.456
261.266
253.749
245.56
239.113
231.743
226.227
219.542
214.853
208.757
204.826
199.251
196.036
190.971
188.481
183.929
182.167
178.173
177.168
173.812
173.618
171.014
171.703
170.123
171.865
171.43
174.251
175.07
179.001
181.095
186.09
189.399
195.342
199.715
206.421
211.629
218.852
224.569
232.025
237.972
245.381
251.278
258.311
263.835
270.281
275.311
281.091
285.577
290.629
294.534
298.811
302.113
305.585
308.281
310.938
313.045
314.902
316.461
317.565
318.642
319.068
319.747
319.591
319.952
319.33
319.47
318.49
318.541
317.241
317.103
315.456
315.104
313.102
312.285
2340.68
1812.9
1475.02
1241.7
1071.57
942.26
840.837
759.13
692.033
635.833
588.24
547.232
511.756
480.505
453.066
428.445
406.614
386.697
368.937
352.475
337.766
323.912
311.551
299.71
289.2
278.942
269.918
260.925
253.115
245.148
238.345
231.219
225.264
218.834
213.602
207.754
203.148
197.791
193.732
188.795
185.221
180.65
177.512
173.265
170.527
166.573
164.209
160.53
158.524
155.12
153.475
150.354
149.071
146.255
145.345
142.873
142.354
140.277
140.174
138.556
138.901
137.811
138.637
138.231
139.584
139.881
141.762
142.787
145.182
146.918
149.776
152.165
155.409
158.37
161.913
165.34
169.086
172.859
176.704
180.696
184.535
188.618
192.35
196.398
199.934
203.834
207.096
210.743
213.665
216.966
219.488
222.338
224.412
226.69
228.401
230.312
231.757
233.223
234.384
235.268
2340.68
1812.91
1475.03
1241.71
1071.58
942.284
840.844
759.157
692.036
635.865
588.236
547.27
511.744
480.549
453.046
428.497
406.584
386.759
368.897
352.547
337.714
323.996
311.487
299.808
289.121
279.055
269.824
261.055
253.007
245.298
238.221
231.391
225.125
219.034
213.449
207.987
202.984
198.065
193.563
189.122
185.06
181.047
177.376
173.757
170.442
167.193
164.213
161.332
158.688
156.18
153.879
151.762
149.828
148.134
146.606
145.38
144.314
143.611
143.075
143.002
143.13
143.744
144.583
145.928
147.528
149.63
151.996
154.817
157.896
161.356
165.053
169.039
173.224
177.594
182.113
186.709
191.389
196.048
200.721
205.283
209.789
214.113
218.322
222.253
226.013
229.477
232.749
235.747
238.534
241.068
243.388
245.478
247.348
249.017
250.445
251.685
252.681
253.533
254.165
254.744
2340.71
1813
1475.15
1241.86
1071.74
942.466
841.029
759.363
692.237
636.091
588.453
547.516
511.975
480.817
453.291
428.788
406.846
387.075
369.178
352.893
338.02
324.377
311.824
300.233
289.502
279.54
270.27
261.626
253.55
245.995
238.916
232.284
226.06
220.23
214.76
209.651
204.874
200.445
196.362
192.622
189.238
186.215
183.578
181.339
179.534
178.179
177.322
177.083
177.426
178.419
180.041
182.36
185.323
188.97
193.24
198.124
203.566
209.504
215.886
222.582
229.58
236.718
244.001
251.239
258.472
265.443
272.233
278.658
284.859
290.643
296.168
301.243
306.032
310.351
314.365
317.907
321.134
323.904
326.361
328.396
330.131
331.504
332.601
333.435
334.047
334.469
334.771
334.91
334.932
334.808
334.558
334.176
333.662
333.032
332.266
331.406
330.419
329.383
328.282
327.244
2340.76
1813.17
1475.39
1242.15
1072.07
942.822
841.415
759.775
692.676
636.557
588.945
548.04
512.525
481.406
453.91
429.459
407.552
387.854
370.005
353.826
339.027
325.539
313.105
301.747
291.222
281.613
272.688
264.579
257.064
250.34
244.219
238.885
234.158
230.276
227.045
224.765
223.202
222.817
223.49
225.321
228.241
232.325
237.479
243.716
250.895
258.951
267.702
276.96
286.611
296.426
306.334
316.029
325.444
334.475
343.073
351.156
358.691
365.616
371.916
377.553
382.53
386.842
390.518
393.59
396.112
398.168
399.859
401.301
402.536
403.55
404.385
405.01
405.476
405.749
405.879
405.83
405.656
405.325
404.887
404.323
403.677
402.941
402.145
401.333
400.47
399.632
398.809
397.987
397.147
396.291
395.396
394.475
393.501
392.496
391.433
390.343
389.203
388.067
386.941
385.924
2340.87
1813.49
1475.85
1242.71
1072.73
943.558
842.249
760.682
693.692
637.656
590.181
549.374
514.045
483.072
455.847
431.634
410.129
390.851
373.64
358.172
344.353
332.009
321.098
311.741
303.657
297.151
291.93
288.43
286.31
286.459
288.568
292.783
298.884
306.93
316.615
327.793
340.094
353.153
366.644
380.344
393.805
406.909
419.348
431.062
441.761
451.454
459.897
467.213
473.25
478.26
482.205
485.391
488.036
490.206
491.941
493.26
494.187
494.741
494.944
494.822
494.404
493.726
492.829
491.759
490.569
489.343
488.134
487.05
486.032
485.058
484.102
483.157
482.211
481.268
480.32
479.373
478.427
477.49
476.564
475.654
474.763
473.881
473.022
472.147
471.29
470.376
469.403
468.4
467.362
466.316
465.248
464.183
463.096
462.023
460.928
459.859
458.778
457.746
456.781
455.976
2341.15
1814.19
1476.91
1243.99
1074.37
945.465
844.556
763.344
696.862
641.371
594.59
554.62
520.504
490.958
465.765
443.828
425.82
410.635
398.925
389.606
383.741
380.084
380.942
385.4
393.439
404.67
418.831
435.247
453.414
472.413
491.918
511.214
529.563
546.641
561.813
575.036
585.949
594.933
601.975
607.592
612.151
615.742
618.424
620.21
621.133
621.254
620.629
619.391
617.624
615.554
613.244
611.018
609.053
607.253
605.537
603.876
602.235
600.621
599.018
597.45
595.91
594.429
592.987
591.61
590.257
588.946
587.589
586.136
584.6
583.038
581.444
579.858
578.269
576.701
575.138
573.602
572.092
570.619
569.186
567.795
566.446
565.145
563.891
562.68
561.51
560.376
559.263
558.177
557.102
556.056
555.011
554.002
552.987
552.02
551.039
550.12
549.202
548.373
547.654
547.153
2342.03
1815.98
1480.11
1247.96
1080.28
952.708
854.159
775.206
712.346
660.618
619.075
586.931
562.6
545.504
534.588
530.074
534.451
545.063
561.028
581.076
604.569
630.61
657.65
684.796
711.041
734.72
754.97
771.335
784.177
794.173
801.84
807.312
810.765
812.231
811.875
809.914
806.642
802.651
798.214
794.142
790.648
787.471
784.452
781.474
778.553
775.677
772.905
770.233
767.705
765.259
762.9
760.508
757.931
755.276
752.583
749.907
747.251
744.654
742.108
739.643
737.243
734.939
732.708
730.582
728.531
726.584
724.699
722.889
721.107
719.382
717.677
716.026
714.395
712.814
711.264
709.773
708.327
706.939
705.598
704.312
703.073
701.888
700.748
699.661
698.614
697.621
696.663
695.749
694.86
694.016
693.183
692.399
691.613
690.886
690.147
689.48
688.822
688.272
687.879
687.785
2345.25
1822.39
1493.86
1268.16
1113.23
994.179
912.591
852.017
814.512
787.869
783.659
800.118
829.083
866.039
907.634
950.23
990.289
1026.98
1058.27
1083.61
1103.44
1118.45
1129.08
1135.73
1137.46
1134.74
1127.99
1118.69
1108.64
1099.46
1091.81
1085.13
1079.04
1073.27
1067.82
1062.62
1057.74
1052.99
1048.38
1043.52
1038.47
1033.33
1028.23
1023.25
1018.47
1013.89
1009.56
1005.45
1001.59
997.955
994.541
991.334
988.274
985.352
982.537
979.836
977.226
974.723
972.304
969.989
967.755
965.622
963.568
961.616
959.741
957.964
956.26
954.648
953.097
951.621
950.193
948.829
947.505
946.246
945.04
943.895
942.789
941.739
940.724
939.762
938.84
937.962
937.122
936.325
935.566
934.85
934.169
933.532
932.92
932.355
931.803
931.305
930.799
930.365
929.907
929.546
929.188
928.982
928.983
929.414
2358.73
1860.91
1594.77
1434.01
1353.99
1288.99
1305.25
1337.29
1392.12
1465.15
1539.73
1610.28
1672.38
1723.06
1760.08
1783.38
1792.55
1788.85
1773.31
1750.18
1724.15
1700.71
1682.17
1666.51
1652.51
1639.48
1627.39
1615.94
1604.93
1593.83
1582.73
1571.91
1561.57
1551.73
1542.45
1533.71
1525.55
1517.91
1510.81
1504.16
1497.94
1492.03
1486.48
1481.29
1476.43
1471.85
1467.55
1463.51
1459.72
1456.17
1452.85
1449.75
1446.84
1444.12
1441.57
1439.17
1436.9
1434.76
1432.72
1430.8
1428.96
1427.22
1425.57
1424
1422.51
1421.09
1419.76
1418.5
1417.31
1416.18
1415.12
1414.12
1413.19
1412.29
1411.45
1410.64
1409.86
1409.11
1408.41
1407.74
1407.11
1406.52
1405.97
1405.45
1404.97
1404.53
1404.13
1403.76
1403.43
1403.14
1402.86
1402.64
1402.41
1402.27
1402.07
1402.06
1401.95
1402.22
1402.68
1403.85
2454.74
2305.68
2580.44
2808.67
2934.22
3010.01
2994.58
2967.45
3014.83
3085.64
3150.03
3196.61
3222.41
3229.88
3222.23
3203.95
3178.36
3148.8
3117.79
3086.34
3054.82
3023.05
2991.97
2961.67
2933.61
2907.2
2882.91
2860.48
2839.9
2820.98
2803.65
2787.82
2773.39
2760.22
2748.2
2737.21
2727.14
2717.94
2709.48
2701.76
2694.61
2688.06
2682
2676.3
2670.91
2665.81
2660.99
2656.44
2652.17
2648.16
2644.41
2640.9
2637.62
2634.57
2631.73
2629.08
2626.6
2624.29
2622.12
2620.1
2618.18
2616.4
2614.71
2613.13
2611.67
2610.28
2609
2607.8
2606.71
2605.68
2604.74
2603.89
2603.1
2602.38
2601.71
2601.1
2600.53
2600.01
2599.52
2599.09
2598.69
2598.35
2598.05
2597.8
2597.6
2597.44
2597.33
2597.27
2597.24
2597.27
2597.33
2597.44
2597.56
2597.76
2597.92
2598.33
2598.52
2599.46
2600.42
2602.42
6588.08
7481.93
7876.77
7936
7826.39
7629.93
7415.07
7222.09
7053.54
6914.35
6805.38
6723.41
6664.03
6621.63
6591.85
6570.24
6554.28
6541.58
6531.21
6522.48
6514.92
6508.91
6504.01
6500.33
6497.42
6495.11
6493.31
6491.84
6490.47
6489.03
6487.34
6485.47
6483.4
6481.23
6478.93
6476.61
6474.25
6471.93
6469.66
6467.49
6465.43
6463.49
6461.71
6460.09
6458.62
6457.29
6456.06
6454.94
6453.9
6452.96
6452.1
6451.33
6450.67
6450.13
6449.7
6449.38
6449.18
6449.09
6449.12
6449.25
6449.5
6449.82
6450.27
6450.8
6451.41
6452.11
6452.9
6453.77
6454.73
6455.76
6456.89
6458.1
6459.39
6460.74
6462.18
6463.68
6465.24
6466.86
6468.52
6470.22
6471.97
6473.74
6475.57
6477.41
6479.31
6481.22
6483.2
6485.19
6487.25
6489.33
6491.46
6493.61
6495.85
6498.06
6500.43
6502.58
6504.92
6506.75
6507.99
6507.89
5495.75
3369.61
2415.8
1948.43
1665.28
1480.71
1346.78
1245.92
1163.86
1095.54
1037.14
985.842
939.996
898.569
860.769
825.73
793.028
762.093
732.463
704.052
676.673
650.283
624.901
600.527
577.094
554.656
533.18
512.691
493.153
474.541
456.856
440.136
424.347
409.436
395.344
382.003
369.361
357.368
345.979
335.149
324.841
315.021
305.664
296.736
288.222
280.09
272.333
264.912
257.835
251.052
244.588
238.375
232.464
226.76
221.347
216.095
211.13
206.281
201.713
197.224
192.999
188.831
184.898
181.013
177.33
173.69
170.225
166.787
163.514
160.246
157.141
154.016
151.064
148.052
145.257
142.338
139.71
136.871
134.432
131.659
129.447
126.731
124.75
122.13
120.353
117.927
116.291
114.145
112.604
110.776
109.385
107.787
106.673
105.128
104.409
102.899
102.493
101.07
100.851
99.3558
1526.21
2569.45
2357.73
1985.56
1701.85
1501.78
1354.74
1243.63
1154.01
1081.04
1019.77
966.774
920.491
879.56
842.835
809.23
778.128
748.871
720.981
694.305
668.628
643.835
619.873
596.736
574.299
552.654
531.746
511.719
492.405
473.941
456.182
439.407
423.612
408.71
394.623
381.276
368.619
356.602
345.177
334.301
323.94
314.06
304.64
295.647
287.069
278.873
271.055
263.575
256.443
249.608
243.096
236.837
230.885
225.141
219.694
214.408
209.414
204.537
199.944
195.432
191.186
187
183.049
179.152
175.455
171.807
168.332
164.892
161.614
158.349
155.245
152.13
149.185
146.192
143.408
140.521
137.908
135.117
132.696
129.989
127.799
125.164
123.211
120.681
118.94
116.605
115.014
112.946
111.465
109.684
108.371
106.782
105.744
104.184
103.509
101.98
101.582
100.142
99.9106
98.4132
1128.05
1418.19
1803.8
1801.16
1642.3
1475.52
1336.71
1225.13
1133.55
1058.22
995.249
941.355
895.008
854.635
818.899
786.607
757.031
729.393
703.308
678.503
654.687
631.7
609.42
587.803
566.705
546.237
526.292
507.119
488.447
470.538
453.1
436.535
420.925
406.18
392.224
378.984
366.416
354.468
343.094
332.251
321.91
312.04
302.622
293.627
285.043
276.838
269.011
261.522
254.382
247.539
241.021
234.755
228.8
223.052
217.603
212.315
207.32
202.443
197.85
193.34
189.096
184.915
180.967
177.078
173.385
169.748
166.281
162.856
159.59
156.346
153.26
150.172
147.251
144.296
141.541
138.708
136.128
133.41
131.027
128.415
126.269
123.745
121.846
119.436
117.759
115.542
114.029
112.06
110.675
108.956
107.754
106.186
105.25
103.687
103.071
101.537
101.154
99.7044
99.4672
97.9761
895.26
846.288
1028.87
1250.38
1340.36
1313.58
1238.95
1156.4
1079.92
1012.52
954.417
904.215
860.591
822.396
788.626
758.241
730.517
704.711
680.48
657.523
635.519
614.321
593.773
573.737
554.105
535.011
516.308
498.291
480.641
463.633
447.03
431.058
415.875
401.463
387.776
374.759
362.388
350.607
339.372
328.646
318.406
308.625
299.287
290.364
281.848
273.707
265.94
258.509
251.425
244.635
238.169
231.953
226.046
220.343
214.939
209.692
204.738
199.901
195.346
190.872
186.662
182.517
178.602
174.748
171.087
167.487
164.053
160.667
157.437
154.237
151.193
148.158
145.284
142.394
139.692
136.944
134.423
131.813
129.495
127.015
124.943
122.572
120.758
118.509
116.933
114.87
113.474
111.633
110.382
108.748
107.691
106.16
105.351
103.8
103.255
101.724
101.365
99.908
99.6689
98.187
675.222
655.898
666.549
732.522
836.415
921.955
960.617
959.69
936.314
903.129
867.512
833.253
801.219
771.615
744.375
719.129
695.456
673.085
651.664
631.113
611.225
591.957
573.182
554.827
536.781
519.201
501.952
485.304
468.904
452.99
437.53
422.484
408.025
394.173
380.93
368.284
356.241
344.735
333.732
323.21
313.154
303.544
294.369
285.602
277.237
269.243
261.619
254.325
247.376
240.714
234.373
228.276
222.484
216.89
211.59
206.442
201.582
196.835
192.364
187.974
183.84
179.772
175.928
172.148
168.554
165.025
161.657
158.345
155.183
152.061
149.089
146.141
143.347
140.56
137.945
135.322
132.895
130.44
128.225
125.93
123.972
121.808
120.123
118.087
116.658
114.793
113.561
111.883
110.81
109.285
108.408
106.931
106.268
104.74
104.273
102.749
102.414
100.943
100.703
99.2224
530.572
531.092
526.738
527.622
540.65
566.707
598.802
629.812
653.212
668.107
674.74
675.827
672.813
666.654
657.953
647.333
635.084
621.724
607.315
592.277
576.736
560.98
545.015
529.155
513.294
497.625
482.087
466.888
451.958
437.372
423.253
409.503
396.192
383.247
370.73
358.707
347.211
336.145
325.516
315.33
305.589
296.28
287.397
278.915
270.828
263.104
255.744
248.704
242.001
235.576
229.462
223.58
217.993
212.594
207.477
202.504
197.809
193.218
188.895
184.645
180.644
176.705
172.982
169.324
165.843
162.431
159.173
155.977
152.926
149.925
147.069
144.253
141.583
138.949
136.467
134.024
131.742
129.503
127.443
125.402
123.612
121.727
120.225
118.47
117.242
115.634
114.617
113.145
112.291
110.902
110.23
108.821
108.311
106.806
106.413
104.883
104.564
103.056
102.809
101.304
439.304
441.199
439.561
434.488
427.951
422.576
418.23
416.333
416.682
420.673
427.745
437.965
450.589
464.77
478.941
492.074
502.724
510.335
514.121
514.264
510.87
504.889
496.58
486.74
475.754
464.046
451.793
439.148
426.592
414.059
401.713
389.555
377.528
365.918
354.66
343.785
333.278
322.979
313.04
303.508
294.397
285.7
277.408
269.497
261.957
254.756
247.893
241.323
235.062
229.052
223.327
217.808
212.559
207.476
202.655
197.957
193.518
189.168
185.07
181.034
177.234
173.488
169.947
166.468
163.157
159.917
156.824
153.798
150.911
148.086
145.401
142.777
140.289
137.871
135.586
133.396
131.326
129.384
127.553
125.853
124.303
122.79
121.54
120.152
119.185
117.903
117.148
115.929
115.323
114.09
113.629
112.284
111.91
110.409
110.059
108.487
108.154
106.563
106.291
104.713
369.174
371.224
371.074
367.567
360.889
352.132
341.772
330.722
319.435
308.87
299.41
291.912
287.149
285.96
288.936
296.369
307.943
322.854
339.627
356.795
372.206
385.485
394.139
399.224
401.148
400.252
397.078
391.914
385.428
377.883
369.59
360.772
351.379
342.006
332.375
322.74
313.164
304.077
295.413
287.142
279.244
271.697
264.486
257.582
250.976
244.636
238.564
232.721
227.125
221.725
216.557
211.55
206.771
202.12
197.695
193.365
189.266
185.234
181.432
177.676
174.139
170.646
167.345
164.101
161.018
158.005
155.134
152.337
149.677
147.092
144.644
142.283
140.053
137.933
135.929
134.084
132.318
130.778
129.271
128.028
126.811
125.785
124.863
123.949
123.295
122.418
121.946
121.018
120.647
119.571
119.272
117.957
117.651
116.094
115.716
114.034
113.626
111.879
111.545
109.82
309.71
309.593
308.547
305.209
299.415
291.477
282.158
272.049
262.263
253.033
245.435
239.549
235.686
233.665
233.472
234.487
236.939
240.119
244.906
250.226
257.664
265.099
275.423
286.389
296.941
306.168
313.689
319.016
322.146
323.111
322.065
319.231
314.709
308.659
302.171
295.488
288.515
281.833
275.396
269.167
263.124
257.249
251.536
245.97
240.559
235.284
230.163
225.17
220.337
215.62
211.069
206.619
202.346
198.156
194.154
190.214
186.476
182.782
179.297
175.842
172.592
169.377
166.348
163.371
160.554
157.81
155.209
152.694
150.32
148.042
145.907
143.891
142.009
140.288
138.671
137.289
135.951
134.946
133.888
133.244
132.468
132.065
131.541
131.209
130.882
130.467
130.23
129.592
129.349
128.373
128.089
126.71
126.316
124.595
124.053
122.157
121.567
119.572
119.115
117.159
235.953
236.738
237.139
236.707
235.498
233.947
232.742
232.515
233.874
236.764
241.384
246.936
253.327
259.938
266.038
271.319
275.563
278.878
281.42
283.102
284.208
285.1
285.79
286.61
287.636
288.817
290.058
291.162
292.025
292.423
292.278
291.347
289.641
286.873
283.498
279.735
275.575
271.159
266.578
261.893
257.148
252.372
247.597
242.837
238.12
233.447
228.852
224.32
219.896
215.542
211.318
207.165
203.164
199.225
195.458
191.742
188.221
184.736
181.459
178.211
175.173
172.171
169.37
166.625
164.06
161.578
159.262
157.053
155.01
153.095
151.347
149.765
148.337
147.133
146.04
145.265
144.508
144.196
143.739
143.843
143.615
143.948
143.84
144.137
144.039
144.05
143.836
143.371
142.968
141.931
141.35
139.74
138.98
136.946
136.026
133.802
132.873
130.554
129.879
127.636
255.235
255.712
256.428
258.121
261.055
265.609
271.554
278.945
287.014
295.65
304.133
312.184
319.107
324.751
329.275
332.788
335.443
337.481
339.018
340.136
340.958
341.272
341.169
340.66
339.83
338.667
337.182
335.38
333.266
330.784
327.968
324.707
321.104
316.984
312.364
307.365
302.028
296.425
290.637
284.738
278.797
272.868
267
261.217
255.557
250.02
244.64
239.401
234.342
229.419
224.689
220.091
215.699
211.418
207.359
203.397
199.675
196.029
192.635
189.306
186.233
183.229
180.475
177.809
175.378
173.062
170.971
169.026
167.308
165.769
164.455
163.368
162.487
161.901
161.46
161.412
161.374
161.856
162.098
162.982
163.291
164.279
164.41
165.131
164.904
165.046
164.37
163.765
162.68
161.323
159.973
157.956
156.462
154.02
152.467
149.885
148.435
145.826
144.81
142.347
326.401
325.738
325.708
327.011
329.861
334.201
339.768
346.324
353.359
360.75
368.104
375.084
381.458
387.106
391.999
396.084
399.48
402.064
403.936
405.205
405.956
406.235
406.063
405.445
404.37
402.808
400.742
398.23
395.16
391.616
387.462
382.807
377.55
371.765
365.558
358.968
351.984
344.701
337.209
329.59
321.929
314.292
306.741
299.319
292.077
285.028
278.212
271.624
265.304
259.209
253.396
247.808
242.51
237.41
232.609
227.993
223.69
219.542
215.715
212.025
208.663
205.433
202.53
199.773
197.335
195.066
193.115
191.366
189.939
188.755
187.887
187.311
187.016
187.075
187.326
188.001
188.675
189.848
190.67
192.064
192.626
193.817
193.737
194.322
193.41
193.15
191.449
190.323
188.072
186.205
183.712
181.274
178.775
176.027
173.65
170.876
168.759
166.087
164.588
162.189
385.164
384.674
384.95
386.678
390.146
395.28
401.948
409.802
418.53
427.491
436.198
444.393
451.805
458.373
463.966
468.65
472.39
475.297
477.341
478.635
479.138
478.938
478.001
476.397
474.062
471.086
467.436
463.163
458.257
452.797
446.72
440.179
433.098
425.649
417.922
409.87
401.627
393.272
384.853
376.413
367.995
359.635
351.369
343.232
335.263
327.477
319.911
312.577
305.507
298.675
292.135
285.856
279.89
274.161
268.765
263.61
258.814
254.231
250.019
246.004
242.376
238.938
235.902
233.066
230.641
228.436
226.653
225.128
224.035
223.238
222.858
222.811
223.12
223.793
224.684
225.945
227.156
228.71
229.773
231.166
231.506
232.256
231.453
231.268
229.235
228.102
225.077
223.19
219.594
217.189
213.441
210.719
207.117
204.307
200.992
198.337
195.415
193.061
190.897
189.049
455.498
455.359
456.068
458.394
462.701
468.946
476.92
486.32
496.633
507.474
518.196
528.454
537.869
546.173
553.135
558.7
562.767
565.419
566.607
566.471
564.968
562.268
558.422
553.526
547.709
541.11
533.909
526.202
518.155
509.787
501.254
492.584
483.881
475.142
466.319
457.442
448.641
439.928
431.302
422.779
414.367
406.076
397.913
389.896
382.047
374.367
366.883
359.608
352.565
345.728
339.156
332.831
326.8
320.991
315.505
310.273
305.411
300.78
296.534
292.51
288.905
285.52
282.591
279.899
277.694
275.748
274.316
273.182
272.574
272.291
272.501
273.037
273.964
275.186
276.592
278.202
279.646
281.144
281.986
282.793
282.408
282.117
280.198
278.76
275.421
273.121
268.772
266.002
261.147
258.233
253.316
250.466
245.781
243.18
238.846
236.696
232.782
231.277
228.167
227.623
547.074
547.433
548.854
552.291
558.283
566.789
577.63
590.353
604.387
619.012
633.379
646.846
658.761
668.528
675.87
680.586
682.656
682.179
679.319
674.355
667.501
659.147
649.55
638.989
627.848
616.292
604.643
592.988
581.528
570.317
559.5
549.063
539.042
529.412
520.101
511.121
502.39
493.87
485.542
477.398
469.436
461.65
454.035
446.599
439.349
432.271
425.382
418.695
412.22
405.921
399.866
394.039
388.479
383.124
378.076
373.268
368.832
364.618
360.786
357.172
353.991
351.042
348.584
346.386
344.725
343.352
342.551
342.068
342.161
342.569
343.481
344.649
346.155
347.796
349.491
351.117
352.382
353.335
353.461
353.161
351.637
349.877
346.651
343.699
339.111
335.504
330.051
326.334
320.501
317.071
311.243
308.333
302.731
300.536
295.197
293.958
288.849
288.935
284.449
286.411
688.253
689.31
691.753
696.934
705.674
717.968
733.526
751.538
771.109
790.689
809.187
825.127
837.565
845.676
849.307
848.35
843.254
834.479
822.765
808.776
793.189
776.642
759.603
742.559
725.853
709.582
694.072
679.209
665.194
652.002
639.664
628.133
617.357
607.275
597.837
588.979
580.569
572.523
564.787
557.318
550.094
543.101
536.322
529.758
523.406
517.241
511.269
505.507
499.962
494.574
489.422
484.5
479.848
475.37
471.167
467.218
463.673
460.329
457.348
454.574
452.238
450.144
448.559
447.25
446.501
446.052
446.184
446.626
447.611
448.854
450.498
452.258
454.172
455.977
457.583
458.79
459.379
459.296
458.235
456.424
453.488
450.041
445.498
440.962
435.324
430.396
424.166
419.479
413.068
409.069
402.754
399.738
393.613
391.863
385.784
385.739
379.392
382.063
375.61
382.057
930.647
932.683
936.61
944.579
957.809
976.181
998.673
1023.72
1049.19
1072.51
1092.01
1105.16
1111.21
1109.62
1101.08
1086.24
1066.7
1043.61
1018.48
992.443
966.387
941.066
916.691
893.8
872.334
852.415
834.195
817.344
801.979
787.891
774.995
763.154
752.31
742.379
733.27
724.902
717.149
709.909
703.096
696.643
690.504
684.656
679.063
673.72
668.614
663.717
659.024
654.56
650.335
646.252
642.402
638.824
635.546
632.411
629.514
626.909
624.715
622.699
621.029
619.556
618.521
617.725
617.432
617.414
617.927
618.721
620.017
621.561
623.486
625.541
627.735
629.831
631.729
633.229
634.155
634.38
633.692
632.076
629.393
625.787
621.293
616.12
610.355
604.323
597.88
591.757
585.115
579.535
573.014
568.427
562.207
558.984
553.039
551.602
545.538
546.715
539.662
546.056