/*--------------------------------*- C++ -*----------------------------------*\
| =========                 |                                                 |
| \\      /  F ield         | OpenFOAM: The Open Source CFD Toolbox           |
|  \\    /   O peration     | Version:  v2012                                 |
|   \\  /    A nd           | Website:  www.openfoam.com                      |
|    \\/     M anipulation  |                                                 |
\*---------------------------------------------------------------------------*/
FoamFile
{
    version     2.0;
    format      ascii;
    class       Cloud<basicKinematicParcel>;
    location    "0.069/lagrangian/kinematicCloud";
    object      positions;
}
// * * * * * * * * * * * * * * * * * * * * * * * * * * * * * * * * * * * * * //

54
(
(0.694703 0.00412959 0.03) 346
(0.69185 0.0157919 0.03) 846
(0.683584 0.0238278 0.03) 1145
(0.672476 0.00939541 0.03) 544
(0.661432 0.0307954 0.03) 1444
(0.65172 0.0242856 0.03) 1143
(0.541321 0.000635522 0.03) 36
(0.626469 0.034749 0.03) 1641
(0.615849 0.034423 0.03) 1641
(0.609116 0.0129025 0.03) 740
(0.606614 0.0165781 0.03) 840
(0.595898 0.00760331 0.03) 539
(0.549894 0.0385243 0.03) 1836
(0.539578 0.00138291 0.03) 135
(0.540348 0.038031 0.03) 1836
(0.551946 0.0188227 0.03) 936
(0.537464 0.00421126 0.03) 335
(0.517695 0.0374164 0.03) 1734
(0.519439 0.00825811 0.03) 534
(0.517235 0.0344604 0.03) 1634
(0.507898 0.028772 0.03) 1333
(0.490031 0.0367362 0.03) 1732
(0.485467 0.0295439 0.03) 1332
(0.472729 0.0064229 0.03) 431
(0.47128 0.0148794 0.03) 831
(0.461029 0.028901 0.03) 1330
(0.44852 0.00494912 0.03) 329
(0.45003 0.032057 0.03) 1430
(0.429005 0.00195949 0.03) 128
(0.438391 0.0329179 0.03) 1529
(0.308869 7.94706e-05 0.03) 20
(0.412119 0.0030575 0.03) 227
(0.378654 0.038979 0.03) 1925
(0.393472 0.0217784 0.03) 1026
(0.39244 0.00931575 0.03) 526
(0.384499 0.0278883 0.03) 1225
(0.372956 0.0122832 0.03) 724
(0.364518 0.0147576 0.03) 824
(0.353151 0.0280849 0.03) 1223
(0.326363 0.000978868 0.03) 21
(0.33445 0.0110779 0.03) 622
(0.322725 0.0270543 0.03) 1221
(0.311839 0.00897275 0.03) 520
(0.303332 0.00756808 0.03) 520
(0.292428 0.0117546 0.03) 619
(0.282095 0.0255291 0.03) 1118
(0.271111 0.0329959 0.03) 1518
(0.261453 0.0185115 0.03) 917
(0.250236 0.0144276 0.03) 816
(0.240274 0.0306379 0.03) 1416
(0.229424 0.00408563 0.03) 315
(0.220155 0.0140003 0.03) 714
(0.210033 0.0345829 0.03) 1614
(0.19805 0.00226235 0.03) 113
)


// ************************************************************************* //
