/*--------------------------------*- C++ -*----------------------------------*\
| =========                 |                                                 |
| \\      /  F ield         | OpenFOAM: The Open Source CFD Toolbox           |
|  \\    /   O peration     | Version:  v2012                                 |
|   \\  /    A nd           | Website:  www.openfoam.com                      |
|    \\/     M anipulation  |                                                 |
\*---------------------------------------------------------------------------*/
FoamFile
{
    version     2.0;
    format      ascii;
    class       volScalarField;
    location    "0.126";
    object      epsilon.air;
}
// * * * * * * * * * * * * * * * * * * * * * * * * * * * * * * * * * * * * * //

dimensions      [0 2 -3 0 0 0 0];


internalField   nonuniform List<scalar> 
1900
(
112.724
141.424
210.098
257.591
369.051
443.457
614.739
724.907
971.323
1128.62
15.4676
16.4471
18.6376
20.4503
23.757
27.7278
32.0002
39.3092
44.9865
56.9717
14.7926
14.6414
14.5755
14.5063
14.515
14.5558
14.6443
14.829
15.0762
15.4172
14.77
14.6304
14.4634
14.3354
14.1726
14.059
13.904
13.8079
13.6653
13.5938
14.7767
14.6215
14.4705
14.3204
14.1748
14.0288
13.889
13.7471
13.6139
13.4769
14.7778
14.6204
14.4715
14.3195
14.1755
14.0283
13.8892
13.7472
13.6133
13.4773
14.7778
14.6205
14.4732
14.3233
14.1842
14.0448
13.9177
13.7912
13.6808
13.5715
14.7764
14.6496
14.564
14.5032
14.5108
14.5501
14.6394
14.8171
15.0464
15.3942
15.2157
16.5962
18.2824
20.6705
23.6021
27.5599
32.2769
38.3905
45.5779
54.8014
105.926
146.589
198.37
265.758
350.037
456.014
585.693
743.596
931.85
1153.93
4099.73
15199.1
19580.7
22446.4
21108.8
18007.4
15069.3
12774.7
11281.4
10369.2
9872.2
9702.15
9530.32
9262.37
8855.62
8355.83
7799.54
7211.46
6644.69
6126.46
5649.41
5222.47
4838.12
4487.26
4167.95
3878.48
3615.95
3378.4
3162.64
2966.73
2788.35
2625.48
2476.47
2339.77
2214.26
2098.76
1992.36
1894.1
1803.21
1718.95
1640.71
1567.9
1500.01
1436.6
1377.26
1321.64
1269.43
1220.36
1174.16
1130.6
1089.49
1050.62
1013.83
978.945
945.834
914.344
884.369
855.778
828.495
802.402
777.453
753.532
730.629
708.62
687.527
667.208
647.722
628.896
610.838
593.333
576.553
560.229
544.613
529.364
514.832
500.581
487.076
473.759
461.233
448.785
437.189
425.536
414.816
403.871
393.973
383.644
374.52
364.714
356.338
346.964
339.327
330.294
323.411
314.619
308.521
299.858
294.585
285.928
281.515
271.114
112.923
337.765
518.008
922.877
1125.51
1148.85
1120.47
1055.29
1049.21
1088.55
1193.7
1407.85
1696.1
2028.47
2379.35
2693.02
2972.02
3204.2
3358.98
3436.02
3428.32
3389.45
3303.2
3185.19
3056.66
2925.03
2793.91
2667.02
2543.45
2426.02
2313.9
2206.97
2105.67
2009.77
1919.42
1834.32
1754.41
1679.16
1608.35
1541.71
1478.96
1419.83
1364.03
1311.36
1261.56
1214.44
1169.8
1127.46
1087.26
1049.04
1012.69
978.051
945.032
913.51
883.393
854.571
826.975
800.504
775.109
750.696
727.241
704.651
682.934
661.989
641.854
622.407
603.722
585.642
568.284
551.448
535.305
519.6
504.575
489.909
475.93
462.231
449.247
436.456
424.421
412.479
401.351
390.19
379.921
369.462
360
350.154
341.453
332.128
324.158
315.264
308.015
299.464
292.943
284.64
278.874
270.712
265.737
257.597
253.451
243.691
16.4218
19.867
22.8829
29.0958
34.8017
38.7253
41.6755
43.7129
46.6248
50.6325
58.6297
70.8642
95.4394
130.268
189.419
267.369
374.005
509.486
666.554
837.88
1006.99
1165.34
1305.1
1421.73
1511.79
1574.15
1611.35
1627.88
1625.02
1614.03
1590.93
1560.88
1526.74
1489.74
1451.36
1411.75
1372.03
1331.72
1291.87
1252.69
1214.21
1176.65
1140.12
1104.7
1070.39
1037.15
1005.04
973.941
943.866
914.775
886.65
859.438
833.123
807.661
783.041
759.208
736.157
713.833
692.235
671.304
651.051
631.415
612.429
594.019
576.249
559.021
542.425
526.327
510.855
495.823
481.408
467.363
453.934
440.804
428.299
416.022
404.396
392.918
382.132
371.402
361.425
351.39
342.184
332.776
324.3
315.442
307.655
299.263
292.135
284.129
277.649
269.947
264.119
256.637
251.479
244.126
239.668
232.341
228.616
219.836
13.453
13.4605
13.5461
13.8024
14.3351
15.006
15.7218
16.3422
16.9294
17.3447
17.8965
18.3587
19.2913
20.5016
22.7131
26.2472
31.7233
40.8369
54.7588
76.247
106.708
147.544
199.557
261.579
331.47
406.33
481.535
554.935
621.804
682.904
735.582
779.32
813.94
839.725
858.106
869.467
875.365
874.916
872.338
866.464
857.654
846.947
834.836
821.494
807.226
792.178
776.625
760.455
744.014
727.37
710.558
693.661
676.768
659.946
643.267
626.736
610.457
594.406
578.664
563.192
548.061
533.232
518.77
504.625
490.89
477.489
464.529
451.892
439.717
427.827
416.412
405.228
394.537
384.012
374
364.091
354.726
345.386
336.639
327.844
319.708
311.426
303.885
296.071
289.101
281.7
275.274
268.221
262.326
255.564
250.186
243.645
238.786
232.402
228.076
221.781
218.012
211.732
208.545
201.008
13.3298
13.159
13.0623
13.1164
13.3052
13.7162
14.2899
14.9128
15.4557
15.8827
16.2128
16.436
16.6099
16.7607
16.8925
17.0887
17.326
17.7354
18.3233
19.3104
20.8517
23.2627
26.8257
32.1904
39.8933
50.7644
65.2335
83.8016
106.594
133.475
163.991
197.084
232.105
267.354
302.376
335.345
366.537
394.704
419.718
441.127
459.002
473.425
484.784
493.282
499.228
502.93
504.757
504.49
503.336
500.778
496.935
492.105
486.546
480.279
473.523
466.333
458.872
451.13
443.281
435.267
427.253
419.156
411.095
403.047
395.123
387.252
379.534
371.872
364.396
356.965
349.761
342.564
335.648
328.671
322.033
315.28
308.924
302.401
296.34
290.045
284.291
278.221
272.785
266.932
261.823
256.166
251.388
245.9
241.447
236.084
231.964
226.703
222.934
217.743
214.34
209.184
206.167
201.008
198.398
192.177
13.325
13.1544
13.0314
13.0861
13.2956
13.7746
14.4984
15.4916
16.5077
17.6083
18.5952
19.5167
20.2528
20.8597
21.2837
21.594
21.7728
21.8555
21.8428
21.7994
21.7068
21.6079
21.5347
21.5594
21.6674
21.9293
22.4811
23.3688
24.8754
27.0284
30.2792
34.6503
40.6502
48.1945
57.5792
68.7311
81.7419
96.3555
112.396
129.423
147.013
164.754
182.21
199.088
215.035
229.835
243.413
255.575
266.446
275.969
284.289
291.378
297.467
302.555
306.799
310.266
313.08
315.232
316.878
317.931
318.639
318.708
318.521
318.038
317.076
315.764
314.174
312.292
310.202
307.868
305.37
302.638
299.834
296.711
293.687
290.27
287.053
283.382
280.033
276.187
272.774
268.808
265.392
261.346
257.982
253.887
250.618
246.495
243.362
239.226
236.256
232.109
229.326
225.169
222.592
218.421
216.069
211.884
209.777
204.714
13.4658
13.3601
13.4095
13.6558
14.3029
15.6916
18.0237
21.448
25.4098
29.7209
33.5988
37.0626
39.5878
41.5148
42.5775
43.3168
43.3829
43.2574
42.9289
42.4094
41.8084
41.1448
40.4998
39.8598
39.34
38.8563
38.501
38.2335
38.1407
38.2003
38.378
38.769
39.3418
40.2792
41.5066
43.2514
45.4528
48.3911
52.0173
56.6868
62.3012
69.227
77.2712
86.7244
97.3464
109.212
122.083
135.807
150.165
164.861
179.694
194.371
208.737
222.6
235.824
248.319
259.979
270.811
280.749
289.849
298.07
305.456
311.986
317.735
322.721
326.99
330.564
333.514
335.778
337.575
338.676
339.474
339.509
339.299
338.781
337.651
336.468
334.523
332.845
330.341
328.264
325.327
322.977
319.709
317.192
313.68
311.088
307.407
304.816
301.028
298.498
294.648
292.229
288.354
286.078
282.206
280.096
276.253
274.349
269.785
15.9099
16.8599
18.5463
21.9395
28.3779
39.5168
55.4374
75.0579
95.492
114.279
129.187
140.081
146.473
149.957
150.699
150.329
149.341
147.739
146.289
145.163
144.546
144.652
145.256
146.513
149.084
152.085
156.232
161.199
167.039
174.097
181.775
190.848
200.509
211.558
223.37
236.509
250.469
265.585
281.345
298.137
315.293
333.322
351.288
369.67
387.589
405.414
422.723
439.546
455.843
471.35
486.306
500.409
514.02
526.815
538.993
550.31
560.734
570.261
578.805
586.38
592.924
598.427
602.914
606.371
608.966
610.61
611.65
611.631
611.251
610.349
608.632
606.456
603.853
600.62
597.35
593.245
589.351
584.531
580.235
574.923
570.358
564.726
560.056
554.236
549.581
543.665
539.115
533.181
528.808
522.922
518.795
513.02
509.213
503.608
500.178
494.777
491.766
486.581
484.075
478.252
68.0327
90.447
126.173
184.904
271.853
385.201
511.584
635.921
744.995
831.837
892.317
932.123
953.119
962.971
964.492
963.514
961.24
957.538
956.797
957.877
960.764
965.83
974.759
986.173
1000.4
1016.19
1034.78
1055.4
1077.89
1101.82
1126.66
1152.75
1179.1
1206.17
1233.06
1259.87
1286.02
1311.35
1335.6
1358.9
1380.73
1401.35
1420.13
1437.63
1453.23
1467.49
1480.28
1491.61
1501.79
1510.33
1517.91
1523.86
1529.04
1532.57
1535.26
1536.22
1535.88
1534.67
1532.08
1528.01
1522.98
1516.56
1509.37
1500.97
1491.95
1482.02
1471.65
1460.74
1449.47
1437.68
1425.8
1413.24
1400.98
1387.91
1375.46
1362.09
1349.56
1335.99
1323.57
1310.1
1298.06
1284.88
1273.4
1260.59
1249.72
1237.32
1227.11
1215.13
1205.6
1194.07
1185.3
1174.28
1166.4
1155.93
1149.07
1139.15
1133.36
1123.97
1119.4
1109.21
1464.7
1897.11
2398.97
2961.84
3563.05
4171.87
4746.04
5251.1
5654.92
5950.49
6131.83
6219.25
6206.81
6160.16
6061.65
5928.59
5778.25
5619.84
5459.31
5301.32
5148.93
5004.05
4867.44
4739.6
4620.96
4511.1
4409.96
4316.78
4231.66
4154
4083.51
4019.75
3962.24
3911.01
3865.41
3825.24
3789.75
3758.72
3731.64
3708.33
3688.19
3671.05
3656.22
3643.94
3633.43
3625.02
3618.09
3612.64
3608.49
3605.16
3602.89
3601.06
3600.04
3599.33
3599.02
3599.08
3599.3
3599.73
3600.58
3601.58
3603.02
3604.37
3605.97
3607.33
3608.59
3609.53
3610.11
3610.04
3609.64
3608.6
3607.19
3604.61
3602.23
3598.45
3595.08
3589.99
3585.38
3578.76
3572.8
3564.6
3557.3
3547.54
3538.97
3527.74
3518.12
3505.7
3495.44
3482.21
3471.71
3457.89
3447.44
3433.07
3422.91
3407.85
3398.17
3382.18
3373.11
3356.03
3347.3
3325.34
1109.02
1064.43
1122.14
1210.05
1238.8
1121.24
818.541
1979.86
54658.8
16142.1
7354.72
6104.89
6233.29
6484.51
6555
8026.53
74265.7
43599.8
24811.6
18452.3
16095.4
14999.2
14627.4
19664
76433.4
71021.4
54236.5
41185.8
32682.1
27156.9
24546.6
34061.1
69742.9
75713.8
67751.4
55651.5
44567.5
35843.5
30865.2
42706.3
57748.6
71182.8
67956.3
59052.4
48384.6
38738.2
32786.3
45231.6
47471.6
61835.7
62498.7
56621
47171.3
38179.4
32453
44247.4
39065.8
51812.5
53582
49833.6
42388.8
34668.5
29583.7
39752.7
32606
42977.2
44909.6
42120.9
36289.4
30030.5
25809.7
34024.9
27593
35613.5
37246.6
35102.9
30530.6
25545.9
22213.7
29361.6
23483.2
29579.5
30815.9
29113
25522.3
21625.1
19150.4
26001.6
20107.5
24693.5
25570
24179
21335.5
18294.2
16490.5
22966.7
17372.7
20783.1
21368.4
20209
17938.5
15555.6
14264.3
20352.5
15141.9
17660.9
18025.4
17044.9
15216.4
13335.8
12431
18153.8
13292.9
15152.7
15359
14523
13037
11542.5
10931.2
16330
11732.1
13112.4
13210.6
12494.7
11277.7
10084
9698.06
14812.4
10408.1
11440.7
11466.3
10850.7
9846.57
8888.77
8677.39
13543.2
9268.86
10053
10034.6
9502.69
8669.76
7899.65
7825.13
12473.2
8286.34
8890.5
8847.34
8385.94
7691.88
7072.81
7105.54
11561.4
7443.01
7911.98
7854.09
7453.06
6872.04
6375.28
6491.32
10777.6
6715.95
7083.17
7017.04
6667.62
6179.07
5781.71
5964.2
10097.7
6089.47
6377.97
6307.52
6002
5589.37
5273.15
5508.9
9503.64
5547.31
5774.52
5702.46
5434.41
5084.58
4835.03
5113.66
8982.58
5073.75
5253.91
5182.47
4946.84
4649.6
4455.44
4769.04
8524.21
4657.85
4801.73
4732.43
4525.01
4272.24
4124.6
4467.04
8119.6
4290.92
4406.67
4340.52
4157.79
3942.92
3834.65
4201.12
7761.21
3965.68
4059.48
3997.12
3836.14
3653.78
3579.08
3965.71
7442.29
3676.54
3752.94
3694.66
3552.85
3398.54
3352.63
3756.24
7157.05
3418.34
3480.93
3426.89
3302.05
3172.1
3150.99
3569.01
6900.84
3187.08
3238.61
3188.77
3078.99
2970.28
2970.74
3400.92
6669.7
2979.18
3021.86
2976.18
2879.83
2789.76
2808.59
3249.61
6460.27
2791.63
2827.24
2785.61
2701.27
2627.58
2662.4
3112.76
6269.76
2621.92
2651.89
2614.17
2540.61
2481.39
2530.25
2988.64
6096.02
2467.84
2493.35
2459.39
2395.57
2349.18
2410.46
2875.79
5937.28
2327.61
2349.6
2319.24
2264.21
2229.27
2301.58
2772.95
5792.03
2199.62
2218.85
2191.93
2144.86
2120.18
2202.35
2679.02
5658.94
2082.56
2099.62
2075.96
2036.11
2020.65
2111.67
2593.06
5536.89
1975.2
1990.57
1969.99
1936.72
1929.59
2028.59
2514.23
5424.87
1876.49
1890.56
1872.89
1845.62
1846.05
1952.27
2441.8
5322
1785.5
1798.59
1783.68
1761.91
1769.1
1882.05
2375.11
5227.42
1701.43
1713.79
1701.49
1684.76
1698.09
1817.21
2313.55
5140.28
1623.58
1635.42
1625.58
1613.48
1632.43
1757.19
2256.6
5059.78
1551.31
1562.82
1555.3
1547.45
1571.55
1701.49
2203.75
4985.16
1484.09
1495.41
1490.08
1486.17
1515
1649.69
2154.6
4915.75
1421.45
1432.7
1429.44
1429.18
1462.35
1601.41
2108.8
4850.98
1362.97
1374.25
1372.97
1376.05
1413.29
1556.36
2066.05
4790.35
1308.28
1319.7
1320.29
1326.45
1367.47
1514.24
2026.07
4733.46
1257.06
1268.68
1271.06
1280.11
1324.63
1474.82
1988.64
4679.96
1209.03
1220.9
1224.98
1236.75
1284.51
1437.87
1953.56
4629.66
1163.9
1176.09
1181.8
1196.11
1246.89
1403.21
1920.69
4582.37
1121.45
1134.01
1141.27
1157.98
1211.58
1370.66
1889.87
4538.02
1081.45
1094.43
1103.18
1122.14
1178.38
1340.08
1860.98
4496.47
1043.71
1057.14
1067.33
1088.4
1147.14
1311.31
1833.88
4457.64
1008.05
1021.95
1033.52
1056.61
1117.7
1284.22
1808.47
4421.42
974.293
988.698
1001.6
1026.6
1089.92
1258.69
1784.64
4387.68
942.291
957.224
971.415
998.239
1063.68
1234.61
1762.29
4356.29
911.917
927.399
942.837
971.396
1038.85
1211.86
1741.28
4327.04
883.03
899.08
915.731
945.953
1015.35
1190.36
1721.57
4299.8
855.544
872.178
890.005
921.818
993.053
1170
1703
4274.34
829.33
846.564
865.538
898.882
971.89
1150.72
1685.54
4250.51
804.334
822.178
842.266
877.077
951.777
1132.43
1669.05
4228.13
780.43
798.893
820.067
856.293
932.626
1115.04
1653.5
4207.01
757.598
776.682
798.909
836.491
914.383
1098.5
1638.76
4187.1
735.701
755.407
778.658
817.548
896.945
1082.73
1624.8
4168.16
714.755
735.078
759.319
799.462
880.3
1067.68
1611.54
4150.29
694.605
715.534
740.733
782.083
864.308
1053.25
1598.9
4133.14
675.305
696.83
722.954
765.464
849.015
1039.47
1586.89
4117.03
656.67
678.771
705.785
749.407
834.233
1026.15
1575.33
4101.37
638.809
661.473
689.346
734.039
820.091
1013.43
1564.35
4086.76
621.492
644.693
673.386
719.099
806.326
1001.04
1553.67
4072.26
604.902
628.629
658.116
704.817
793.179
989.231
1543.56
4058.89
588.75
612.969
643.207
690.841
780.28
977.614
1533.58
4045.21
573.309
598.014
628.986
677.532
768.022
966.612
1524.23
4032.85
558.21
583.361
615.015
664.41
755.883
955.66
1514.83
4019.71
543.835
569.433
601.765
652.002
744.451
945.409
1506.16
4008.19
529.708
555.706
588.654
639.659
733
935.048
1497.25
3995.44
516.342
542.748
576.319
628.104
722.356
925.522
1489.25
3984.69
503.121
529.88
564.003
616.479
711.539
915.706
1480.79
3972.35
490.713
517.843
552.541
605.743
701.662
906.902
1473.48
3962.49
478.331
505.768
540.955
594.778
691.431
897.598
1465.45
3950.66
466.83
494.601
530.318
584.822
682.297
889.521
1458.89
3941.93
455.211
483.242
519.39
574.451
672.597
880.689
1451.29
3930.71
444.56
472.889
509.527
565.232
664.18
873.339
1445.53
3923.26
433.616
462.161
499.175
555.379
654.94
864.921
1438.31
3912.64
423.761
452.57
490.035
546.853
647.206
858.283
1433.37
3906.45
413.4
442.381
480.172
537.432
638.345
850.198
1426.46
3896.31
404.297
433.509
471.715
529.56
631.257
844.242
1422.31
3891.15
394.428
423.772
462.254
520.486
622.686
836.393
1415.59
3881.34
386.051
415.594
454.451
513.234
616.206
831.072
1412.13
3876.65
376.585
406.221
445.307
504.424
607.841
823.37
1405.52
3867.03
368.929
398.73
438.147
497.77
601.925
818.592
1402.47
3862.5
359.775
389.634
429.236
489.146
593.696
810.987
1396.1
3852.87
352.854
382.842
422.725
483.079
588.299
806.652
1393.23
3848.26
343.914
373.928
413.961
474.567
580.157
799.126
1387.05
3838.47
337.759
367.864
408.117
469.086
575.242
795.131
1384.26
3833.65
328.926
359.032
399.412
460.619
567.146
787.678
1378.18
3823.69
323.579
353.733
394.265
455.736
562.692
783.953
1375.42
3818.69
314.735
344.88
385.536
447.258
554.631
776.623
1369.49
3808.95
310.225
340.368
381.094
442.962
550.587
773.041
1366.68
3804.03
299.562
329.653
370.479
432.595
540.664
763.944
1358.92
3792.74
)
;

boundaryField
{
    frontAndBack
    {
        type            empty;
    }
    inlet
    {
        type            fixedValue;
        value           uniform 14.855;
    }
    outlet
    {
        type            zeroGradient;
    }
    walls
    {
        lowReCorrection 0;
        blending        stepwise;
        n               2;
        type            epsilonWallFunction;
        value           nonuniform List<scalar> 
228
(
112.724
141.424
210.098
257.591
369.051
443.457
614.739
724.907
971.323
1128.62
1109.02
1064.43
1122.14
1210.05
1238.8
1121.24
818.541
1979.86
1979.86
8026.53
19664
34061.1
42706.3
45231.6
44247.4
39752.7
34024.9
29361.6
26001.6
22966.7
20352.5
18153.8
16330
14812.4
13543.2
12473.2
11561.4
10777.6
10097.7
9503.64
8982.58
8524.21
8119.6
7761.21
7442.29
7157.05
6900.84
6669.7
6460.27
6269.76
6096.02
5937.28
5792.03
5658.94
5536.89
5424.87
5322
5227.42
5140.28
5059.78
4985.16
4915.75
4850.98
4790.35
4733.46
4679.96
4629.66
4582.37
4538.02
4496.47
4457.64
4421.42
4387.68
4356.29
4327.04
4299.8
4274.34
4250.51
4228.13
4207.01
4187.1
4168.16
4150.29
4133.14
4117.03
4101.37
4086.76
4072.26
4058.89
4045.21
4032.85
4019.71
4008.19
3995.44
3984.69
3972.35
3962.49
3950.66
3941.93
3930.71
3923.26
3912.64
3906.45
3896.31
3891.15
3881.34
3876.65
3867.03
3862.5
3852.87
3848.26
3838.47
3833.65
3823.69
3818.69
3808.95
3804.03
3792.74
105.926
146.589
198.37
265.758
350.037
456.014
585.693
743.596
931.85
1153.93
1464.7
1897.11
2398.97
2961.84
3563.05
4171.87
4746.04
5251.1
5654.92
5950.49
6131.83
6219.25
6206.81
6160.16
6061.65
5928.59
5778.25
5619.84
5459.31
5301.32
5148.93
5004.05
4867.44
4739.6
4620.96
4511.1
4409.96
4316.78
4231.66
4154
4083.51
4019.75
3962.24
3911.01
3865.41
3825.24
3789.75
3758.72
3731.64
3708.33
3688.19
3671.05
3656.22
3643.94
3633.43
3625.02
3618.09
3612.64
3608.49
3605.16
3602.89
3601.06
3600.04
3599.33
3599.02
3599.08
3599.3
3599.73
3600.58
3601.58
3603.02
3604.37
3605.97
3607.33
3608.59
3609.53
3610.11
3610.04
3609.64
3608.6
3607.19
3604.61
3602.23
3598.45
3595.08
3589.99
3585.38
3578.76
3572.8
3564.6
3557.3
3547.54
3538.97
3527.74
3518.12
3505.7
3495.44
3482.21
3471.71
3457.89
3447.44
3433.07
3422.91
3407.85
3398.17
3382.18
3373.11
3356.03
3347.3
3325.34
)
;
    }
}


// ************************************************************************* //
