/*--------------------------------*- C++ -*----------------------------------*\
| =========                 |                                                 |
| \\      /  F ield         | OpenFOAM: The Open Source CFD Toolbox           |
|  \\    /   O peration     | Version:  v2012                                 |
|   \\  /    A nd           | Website:  www.openfoam.com                      |
|    \\/     M anipulation  |                                                 |
\*---------------------------------------------------------------------------*/
FoamFile
{
    version     2.0;
    format      ascii;
    class       volScalarField;
    location    "0.126";
    object      nut.air;
}
// * * * * * * * * * * * * * * * * * * * * * * * * * * * * * * * * * * * * * //

dimensions      [0 2 -1 0 0 0 0];


internalField   nonuniform List<scalar> 
5600
(
2.45134e-05
3.47347e-05
4.04094e-05
4.24626e-05
4.22717e-05
4.09706e-05
3.92086e-05
3.75394e-05
3.61127e-05
3.49475e-05
3.406e-05
3.34384e-05
3.30357e-05
3.28064e-05
3.2694e-05
3.26614e-05
3.26696e-05
3.26999e-05
3.27351e-05
3.27682e-05
3.27994e-05
3.28222e-05
3.28505e-05
3.28753e-05
3.29127e-05
3.29394e-05
3.29826e-05
3.30077e-05
3.30551e-05
3.30729e-05
3.31198e-05
3.31215e-05
3.3168e-05
3.31512e-05
3.32e-05
3.31654e-05
3.32198e-05
3.31725e-05
3.32271e-05
3.31815e-05
3.32198e-05
3.32016e-05
3.31982e-05
3.32351e-05
3.31693e-05
3.32681e-05
3.31574e-05
3.32736e-05
3.3187e-05
3.3233e-05
3.32646e-05
3.31594e-05
3.33542e-05
3.31067e-05
3.33952e-05
3.31261e-05
3.33516e-05
3.32277e-05
3.32456e-05
3.3367e-05
3.31459e-05
3.34689e-05
3.31328e-05
3.34599e-05
3.32501e-05
3.33136e-05
3.3473e-05
3.30978e-05
3.3682e-05
3.29695e-05
3.37083e-05
3.30638e-05
3.34768e-05
3.33762e-05
3.31071e-05
3.37121e-05
3.28651e-05
3.37946e-05
3.29549e-05
3.35372e-05
3.33041e-05
3.31619e-05
3.3601e-05
3.3016e-05
3.35469e-05
3.32465e-05
3.31737e-05
3.36698e-05
3.27751e-05
3.39452e-05
3.26765e-05
3.38106e-05
3.2963e-05
3.34405e-05
3.3128e-05
3.37384e-05
3.18923e-05
3.62645e-05
2.68064e-05
4.52174e-05
0.000151656
0.000137407
0.000112247
9.86254e-05
9.39014e-05
9.49483e-05
0.000102102
0.00011012
0.000116483
0.000124318
0.000132728
0.000141237
0.000149467
0.000157261
0.000164416
0.000170953
0.000176797
0.000182068
0.000186776
0.000191059
0.000194995
0.000198602
0.000202115
0.000205332
0.00020853
0.000211271
0.000214139
0.000216424
0.000219008
0.000220742
0.000223017
0.000224134
0.000226237
0.000226784
0.000228851
0.000228904
0.000230983
0.000230719
0.000232629
0.00023247
0.000233767
0.000234357
0.000234421
0.000236308
0.000234896
0.000237982
0.000235842
0.000238731
0.000237788
0.000238265
0.000240579
0.00023722
0.000243075
0.000237007
0.00024399
0.00023869
0.000242888
0.000242045
0.00024064
0.000245575
0.000239096
0.00024752
0.000239979
0.000246535
0.00024408
0.000242656
0.000250032
0.000238281
0.000254305
0.000237122
0.000253291
0.000241511
0.000246619
0.000249876
0.000238449
0.000256374
0.000235145
0.000255612
0.000239646
0.00024795
0.000248294
0.000240236
0.000252964
0.000239611
0.000249239
0.000246565
0.000240329
0.000255226
0.000233627
0.000258117
0.000235021
0.000251697
0.00024388
0.000242512
0.000248822
0.00024469
0.000237702
0.000260977
0.000221428
0.00025858
0.000156515
0.000151567
0.000143034
0.000135175
0.000125236
0.000120747
0.000113754
0.000109719
0.000108696
0.00010982
0.000112674
0.000117441
0.000123669
0.000131381
0.000140246
0.000150373
0.00016148
0.000173799
0.000187104
0.00020172
0.000217058
0.0002328
0.000246178
0.000258303
0.000270244
0.000280862
0.000290848
0.000298009
0.000305918
0.000311196
0.000318349
0.000322204
0.000329213
0.00033176
0.00033871
0.000340079
0.000346815
0.000347618
0.000353438
0.000354975
0.00035848
0.000362442
0.000362314
0.000369566
0.000366034
0.000375049
0.000371205
0.000377446
0.000378731
0.000377009
0.000387224
0.000376349
0.000393567
0.000379013
0.00039503
0.000386482
0.000391975
0.000396577
0.000387712
0.000405163
0.000386741
0.000408144
0.000392905
0.000403345
0.00040635
0.000393412
0.000421373
0.000385743
0.00042841
0.000389093
0.000420902
0.000405337
0.000402633
0.000425572
0.000386491
0.000435294
0.000385768
0.000426204
0.000402053
0.000406219
0.000420386
0.000393278
0.000424394
0.000398097
0.000411571
0.000414933
0.000394195
0.000428266
0.0003869
0.000425849
0.000397737
0.000408455
0.000416377
0.000393057
0.000425051
0.000390671
0.000424837
0.000386607
0.00043634
0.000360301
0.000157813
0.000154005
0.00015008
0.000146778
0.000142679
0.000139244
0.000135558
0.000131511
0.00012818
0.000124926
0.000122967
0.000120024
0.000117351
0.000115764
0.000115493
0.00011678
0.000119784
0.000124653
0.000131295
0.000139745
0.000150246
0.000162226
0.000176478
0.000190925
0.000207529
0.000222974
0.000239504
0.0002519
0.000267561
0.000278571
0.000294424
0.000303667
0.000319683
0.000326886
0.000343141
0.000348452
0.000364389
0.000368994
0.000382962
0.000389358
0.000398139
0.000409881
0.000410575
0.00042836
0.000421767
0.000440028
0.000435533
0.000445267
0.00045329
0.000446012
0.000471149
0.00044816
0.000482774
0.000457835
0.000484574
0.000475886
0.000479263
0.000496726
0.000473913
0.000512161
0.00047673
0.000515159
0.000493681
0.000503862
0.000522596
0.000486213
0.000549905
0.000477989
0.00055748
0.000492924
0.000537946
0.000528362
0.000503879
0.000563216
0.000481046
0.000571845
0.000489679
0.000547465
0.000523419
0.000512255
0.000550874
0.000497297
0.000549127
0.00051235
0.000524158
0.000539774
0.000499571
0.000554369
0.000496316
0.000542728
0.000518133
0.000517313
0.000538969
0.000504192
0.000543313
0.000503882
0.000544007
0.000496813
0.000556936
0.000489828
0.000158111
0.000154619
0.000151626
0.000149092
0.000146718
0.000144517
0.000142438
0.000140406
0.000138405
0.000136533
0.000134644
0.00013299
0.000130872
0.000129203
0.000127089
0.000125675
0.000124006
0.000121937
0.000120905
0.000119723
0.00012096
0.000121552
0.000126244
0.000129194
0.000138138
0.000143323
0.000156766
0.000163594
0.000181365
0.000188916
0.00021069
0.000218075
0.000239364
0.000243403
0.000265447
0.00026865
0.000290489
0.000295219
0.000313302
0.000323981
0.000333222
0.000354312
0.000351878
0.000382754
0.000372986
0.000404042
0.000400918
0.000415031
0.00043545
0.000419726
0.000468291
0.000429097
0.000488625
0.000452441
0.000493089
0.000488678
0.000487314
0.000526748
0.00048397
0.000553143
0.000495679
0.000557477
0.000532106
0.000538435
0.000585722
0.000512716
0.000631339
0.000507557
0.00063784
0.000542915
0.000600867
0.00060786
0.000544974
0.000661883
0.000516249
0.000661921
0.000541305
0.000616427
0.000600208
0.000561553
0.000636911
0.000547356
0.000624326
0.000578353
0.000582268
0.000619471
0.000549041
0.000630542
0.000551891
0.000609169
0.000585338
0.00057718
0.000606712
0.000568326
0.000604353
0.000571411
0.000603928
0.000558418
0.000621442
0.000551045
0.00015818
0.000154795
0.000152025
0.000149709
0.000147678
0.000145899
0.000144247
0.000142778
0.000141331
0.000140051
0.000138737
0.000137586
0.000136391
0.000135277
0.000134225
0.000133043
0.000132253
0.000130721
0.000130294
0.000128072
0.000128659
0.000125231
0.000127883
0.000122349
0.000127801
0.000119724
0.000129873
0.000119187
0.000135462
0.000122473
0.000145464
0.000131
0.00016007
0.000145499
0.000177584
0.00016676
0.000195814
0.000195788
0.000213073
0.000232287
0.000230396
0.000265518
0.000247549
0.000292625
0.000270955
0.000308334
0.000307803
0.000312401
0.000352942
0.000315391
0.000391962
0.000331761
0.000411144
0.000369636
0.000409904
0.000422295
0.000401525
0.000472905
0.00040282
0.000503108
0.000429291
0.000500104
0.000488384
0.000468749
0.000564394
0.00044061
0.000618664
0.000451945
0.000614722
0.000518218
0.000555872
0.000609098
0.000489445
0.00066805
0.00047212
0.000652317
0.000522963
0.000579888
0.000597032
0.000520291
0.000625932
0.000520688
0.000597058
0.00056294
0.000548974
0.000603084
0.000522798
0.000607216
0.000538228
0.000574592
0.000570865
0.000552989
0.00057452
0.000556035
0.000570334
0.000553904
0.000577953
0.000534521
0.000596293
0.000534691
0.0001582
0.000154853
0.000152145
0.000149896
0.00014796
0.000146285
0.000144778
0.000143442
0.000142199
0.000141073
0.000140012
0.000139015
0.000138102
0.000137166
0.000136411
0.000135448
0.000134923
0.000133769
0.000133693
0.000131967
0.00013284
0.000129855
0.000132558
0.000127197
0.000133052
0.000123619
0.00013469
0.000118915
0.000137792
0.00011338
0.000142034
0.000108048
0.000145836
0.000106264
0.000146298
0.00011334
0.000140164
0.00013313
0.000127986
0.000163236
0.000117948
0.00019195
0.000123656
0.00020374
0.000156651
0.000193466
0.000214815
0.000175694
0.000275799
0.000174531
0.00031061
0.000207294
0.000310365
0.000266168
0.000288866
0.000330133
0.000270658
0.000382878
0.000275316
0.000402666
0.000316968
0.000378891
0.000397388
0.000331536
0.000486345
0.000306832
0.000531827
0.000342471
0.000504918
0.000438931
0.000430158
0.00054571
0.000369201
0.00059229
0.00037638
0.000549822
0.00045065
0.000464447
0.00052328
0.000419067
0.000528938
0.000438373
0.000489391
0.000479885
0.000450554
0.000505316
0.000440425
0.000495963
0.000465124
0.000466173
0.000482367
0.00046933
0.000466367
0.000480338
0.000465392
0.000473999
0.000477963
0.000452073
0.000497335
0.000452379
0.000158207
0.000154873
0.000152187
0.000149959
0.000148058
0.000146412
0.000144953
0.000143655
0.000142475
0.000141401
0.000140413
0.000139487
0.000138648
0.000137811
0.000137109
0.0001363
0.000135765
0.000134877
0.000134631
0.000133447
0.000133762
0.000131897
0.00013325
0.000130074
0.000133247
0.000127766
0.000133967
0.000124714
0.000135595
0.000120825
0.000137971
0.000116639
0.000139884
0.000114499
0.00013811
0.000119217
0.000127765
0.000135201
0.000106171
0.000158667
8.13158e-05
0.000173946
7.75879e-05
0.000161327
0.000116186
0.000115288
0.000180353
6.09405e-05
0.000226486
4.40278e-05
0.000226122
8.86062e-05
0.000185719
0.000169998
0.00013497
0.000245835
0.000104917
0.000288793
0.000121776
0.000281558
0.000197755
0.000226818
0.000309461
0.000166488
0.000392811
0.0001611
0.000404305
0.000235941
0.000359024
0.000347633
0.000282476
0.000445727
0.000243445
0.000464153
0.000277574
0.000400492
0.000358911
0.000326559
0.000405121
0.000311091
0.000385771
0.000340878
0.000351446
0.000364652
0.000334172
0.000370505
0.000339049
0.000351131
0.000365197
0.000334206
0.000359351
0.000358679
0.000335654
0.000369066
0.00033635
0.000366851
0.000347593
0.000345151
0.000367183
0.000345398
0.00015821
0.000154882
0.000152205
0.000149985
0.000148096
0.000146461
0.000145019
0.000143735
0.000142576
0.000141521
0.000140555
0.000139658
0.000138836
0.000138047
0.000137344
0.000136622
0.000136035
0.000135327
0.00013489
0.000134109
0.00013391
0.000132917
0.000133111
0.000131688
0.000132532
0.000130342
0.000132242
0.000128783
0.000132297
0.000126986
0.000132606
0.000125205
0.000132638
0.000124393
0.000131087
0.000126267
0.000126164
0.000132045
0.000117256
0.000139746
0.000108339
0.000143188
0.000109566
0.000134996
0.000127394
0.000111239
0.000151371
8.05836e-05
0.000164693
7.3075e-05
0.000159191
0.000104325
0.00013231
0.000147345
8.76981e-05
0.000181089
5.05419e-05
0.000194882
6.60578e-05
0.000174537
0.000137759
0.00011352
0.000207682
5.19673e-05
0.000231923
7.26991e-05
0.000212828
0.000163073
0.000178158
0.000232183
0.000152346
0.000257603
0.000168762
0.000243345
0.000225301
0.000213237
0.000251138
0.000209981
0.000230149
0.000241548
0.000200458
0.000252633
0.000200424
0.000235684
0.00021237
0.00022002
0.000231459
0.000192173
0.000251889
0.000190007
0.00022887
0.000220091
0.000206749
0.00023221
0.000192565
0.000246408
0.0001962
0.000223677
0.000215102
0.000219382
0.000158211
0.000154886
0.000152212
0.000149996
0.000148112
0.000146482
0.000145047
0.000143768
0.000142617
0.000141569
0.000140611
0.000139725
0.000138908
0.000138139
0.000137432
0.000136746
0.000136132
0.0001355
0.000134977
0.000134368
0.000133946
0.00013332
0.000133026
0.000132331
0.000132212
0.000131374
0.000131512
0.000130416
0.000130935
0.000129443
0.000130451
0.000128526
0.0001299
0.000127915
0.00012893
0.000128015
0.000127147
0.000129035
0.000124627
0.00013036
0.000122554
0.000130366
0.000122954
0.000127455
0.000126607
0.000121881
0.000131106
0.000117047
0.00013262
0.000117295
0.000129683
0.000122499
0.000123517
0.000129023
0.000116241
0.000133723
0.000112739
0.000132922
0.000121053
0.000122407
0.000138437
0.000105011
0.000145724
0.000106664
0.000132486
0.00014375
0.000107178
0.00017258
9.29279e-05
0.000168921
0.000115239
0.000144395
0.000165099
0.000113682
0.000193941
0.000100468
0.000180313
0.000127912
0.000143753
0.000163771
0.000113976
0.000178287
0.00010472
0.000182513
0.000103464
0.000174555
0.000125224
0.000139463
0.000162039
0.000110145
0.00017733
0.000108154
0.000170906
0.000127283
0.000135384
0.000169433
0.000105647
0.000181821
9.76147e-05
0.000183656
0.000158211
0.000154886
0.000152212
0.000149996
0.000148113
0.000146482
0.000145047
0.000143768
0.000142617
0.000141569
0.000140611
0.000139726
0.000138908
0.00013814
0.000137429
0.00013675
0.000136125
0.000135511
0.00013496
0.000134392
0.000133907
0.000133373
0.000132948
0.000132434
0.000132069
0.00013156
0.000131263
0.000130734
0.00013053
0.00012994
0.000129859
0.000129193
0.000129203
0.00012856
0.000128461
0.000128141
0.000127538
0.000127977
0.000126486
0.000127893
0.000125617
0.000127461
0.000125405
0.000126304
0.000126041
0.000124575
0.000126959
0.000123189
0.000127026
0.000123285
0.000125503
0.000125251
0.000122655
0.000128189
0.000119948
0.000129542
0.000121204
0.000125007
0.000131164
0.00011285
0.000146203
0.000102239
0.000150445
0.00011086
0.000132627
0.00014277
0.000104963
0.000176085
9.27031e-05
0.000184568
0.000108831
0.000164578
0.000147244
0.000134335
0.000183215
0.000117575
0.000190642
0.000120592
0.000175786
0.000130565
0.000159325
0.000145007
0.000139097
0.000174458
0.000111808
0.000197212
9.65801e-05
0.000186492
0.000112188
0.000156048
0.000158539
0.000114373
0.000207223
7.89956e-05
0.000206038
9.16632e-05
0.00016991
0.000145468
0.000117335
0.000223158
0.00015821
0.000154882
0.000152205
0.000149985
0.000148097
0.000146461
0.000145021
0.000143735
0.000142577
0.000141521
0.000140555
0.000139659
0.000138832
0.000138054
0.000137331
0.00013664
0.000136001
0.000135376
0.000134807
0.000134231
0.000133718
0.000133186
0.000132718
0.000132222
0.000131791
0.000131329
0.000130928
0.000130491
0.000130135
0.000129693
0.00012941
0.000128938
0.000128741
0.000128255
0.000128085
0.000127706
0.000127398
0.000127354
0.000126651
0.000127226
0.000125872
0.000127283
0.000125197
0.000127414
0.000124975
0.000127312
0.000125732
0.000126607
0.000127687
0.000125523
0.000130398
0.000125836
0.000132114
0.000129862
0.000131874
0.000137301
0.000133318
0.000143549
0.00014275
0.000145103
0.000159996
0.000146255
0.000175772
0.000156045
0.000184855
0.000178246
0.000192202
0.000208108
0.000203254
0.000236232
0.000217429
0.000254525
0.000231874
0.000261426
0.00024247
0.000262355
0.000248015
0.000257405
0.000256988
0.000241403
0.000273493
0.000222175
0.000280778
0.000220772
0.00026414
0.000245466
0.000232847
0.000278809
0.000206504
0.000293753
0.000204469
0.000273124
0.000238615
0.000231493
0.000281756
0.000203385
0.00029775
0.000198977
0.00028099
0.000231435
0.000158207
0.000154873
0.000152189
0.000149959
0.000148061
0.00014641
0.000144957
0.000143653
0.000142478
0.000141398
0.000140411
0.000139489
0.000138634
0.000137827
0.000137071
0.000136346
0.000135672
0.000135006
0.0001344
0.00013378
0.000133228
0.000132653
0.000132141
0.000131605
0.00013113
0.000130637
0.000130182
0.000129744
0.000129335
0.000128916
0.000128592
0.000128145
0.000127998
0.000127492
0.000127603
0.000127098
0.000127498
0.00012719
0.00012758
0.000128024
0.000127983
0.000130338
0.000129069
0.000134744
0.000131719
0.000141064
0.000137434
0.000148545
0.000148088
0.000156874
0.000164113
0.000167136
0.000182892
0.000181398
0.000201088
0.000202281
0.000218669
0.00022868
0.000238272
0.000255292
0.000261579
0.000279048
0.000287992
0.000303311
0.000313627
0.000326707
0.000338916
0.000344264
0.000365749
0.000359662
0.000386522
0.000374025
0.000394806
0.000388395
0.000391119
0.000402101
0.000381308
0.000411176
0.000374712
0.000408832
0.000380293
0.00039356
0.000395974
0.000375816
0.00040823
0.000368466
0.000406959
0.000375782
0.000393583
0.000392155
0.000377146
0.000406395
0.000368247
0.000408187
0.000373219
0.000396705
0.000389249
0.00037821
0.000407023
0.000363984
0.000158201
0.000154852
0.000152148
0.000149893
0.000147965
0.000146278
0.000144785
0.00014343
0.000142203
0.00014106
0.000140005
0.00013901
0.00013807
0.000137187
0.000136331
0.000135527
0.000134746
0.000133993
0.000133271
0.000132556
0.00013188
0.000131217
0.000130582
0.000129921
0.000129323
0.000128724
0.000128198
0.000127798
0.000127506
0.000127333
0.000127259
0.000127528
0.000128268
0.000129369
0.00013145
0.000133827
0.000137723
0.000141813
0.00014777
0.000154042
0.00016169
0.000170453
0.000178992
0.000190848
0.000199312
0.000214522
0.000222571
0.000240586
0.00024941
0.000267756
0.000278532
0.00028956
0.000301901
0.000308188
0.00032575
0.000329062
0.000348479
0.000353442
0.000368606
0.00037912
0.000387147
0.000403783
0.000406866
0.000427762
0.000430703
0.000451545
0.000458562
0.000472489
0.000487833
0.000487378
0.000511809
0.00049762
0.000524059
0.000507109
0.00052331
0.000518173
0.000514229
0.00052895
0.000504273
0.000533955
0.000501892
0.000528429
0.000510281
0.000515142
0.00052298
0.000503509
0.000530513
0.000500649
0.000528291
0.000506826
0.000518538
0.000518536
0.000506717
0.000528691
0.000500656
0.000529612
0.000504598
0.000520782
0.000516727
0.000505417
0.000158181
0.000154796
0.000152026
0.000149707
0.00014768
0.000145882
0.000144254
0.000142737
0.000141341
0.000139989
0.000138748
0.000137529
0.000136378
0.000135254
0.000134153
0.000133115
0.000132012
0.00013091
0.000129769
0.000128724
0.000127696
0.000126985
0.000126198
0.000125603
0.000125504
0.000126042
0.000127483
0.000130035
0.000133745
0.000138911
0.000145429
0.000153386
0.00016247
0.00017276
0.000184156
0.000196465
0.000209893
0.000223862
0.000238993
0.000251989
0.000263807
0.00027557
0.000287517
0.000300113
0.000311511
0.000325202
0.000335566
0.000350509
0.000359949
0.000375336
0.000384879
0.000398726
0.000410607
0.000420892
0.00043647
0.000442974
0.000460843
0.000465872
0.000481687
0.000489119
0.000499252
0.000512011
0.000516648
0.000534593
0.000536324
0.000556071
0.000557985
0.000573746
0.000579831
0.000584371
0.000598728
0.000589135
0.000610564
0.000592921
0.000612299
0.000599204
0.000605983
0.00060769
0.000596799
0.000614947
0.000590852
0.00061597
0.000593032
0.000609144
0.000601645
0.000599326
0.000610433
0.000592545
0.000614483
0.000591692
0.000611953
0.000597233
0.000603929
0.000606408
0.000595127
0.000613595
0.000590679
0.000614096
0.000593959
0.000605377
0.000158114
0.000154621
0.000151613
0.000149103
0.000146668
0.000144523
0.000142368
0.000140369
0.000138362
0.000136478
0.000134763
0.000132824
0.000131012
0.000129043
0.000127406
0.000125791
0.000124097
0.000122531
0.000121927
0.000122149
0.000123951
0.000127099
0.000132222
0.000138942
0.000147631
0.000157898
0.000169839
0.000183115
0.000197713
0.000213318
0.000228929
0.000242204
0.00025555
0.000268973
0.000282368
0.000295705
0.000309044
0.0003222
0.000335403
0.000348272
0.000361256
0.000373788
0.000386169
0.000398148
0.000409356
0.000421108
0.000430875
0.000442801
0.000451123
0.000463016
0.000470302
0.000481294
0.000489221
0.000497755
0.000507967
0.000513329
0.000525429
0.000528565
0.000540365
0.000543953
0.000552558
0.000559706
0.000563998
0.000575335
0.000576075
0.000589948
0.000588739
0.00060123
0.000601542
0.000607025
0.000613207
0.00060816
0.000621471
0.00060821
0.000624165
0.000610637
0.000620875
0.0006161
0.000614127
0.000622402
0.000608163
0.000625885
0.000606887
0.000623863
0.000611299
0.000617481
0.000618175
0.000610944
0.00062359
0.000607228
0.000625239
0.000608109
0.000621652
0.000613864
0.000614491
0.000621352
0.000607618
0.000626359
0.00060514
0.000624239
0.000157849
0.000153941
0.000150101
0.000146711
0.000142569
0.000139329
0.000135255
0.000131829
0.000128203
0.00012601
0.000123577
0.000120692
0.000118652
0.000117785
0.000118586
0.00012103
0.000125566
0.00013189
0.000140408
0.000150792
0.000163415
0.000177688
0.000193332
0.000209789
0.000227095
0.000242471
0.000257122
0.00027149
0.000285531
0.000299178
0.000312287
0.000325002
0.000337188
0.0003489
0.000360098
0.000370856
0.000381163
0.000391016
0.000400428
0.000409298
0.000417866
0.00042604
0.000433048
0.000439245
0.000444871
0.00045073
0.000455415
0.000461259
0.000464999
0.000470828
0.000473938
0.000479303
0.000482651
0.000486769
0.000491305
0.000493615
0.00049943
0.000500248
0.000506239
0.000507123
0.000511679
0.000514408
0.00051659
0.000521875
0.000521702
0.000528792
0.000527172
0.000534051
0.000532959
0.00053656
0.000538676
0.000536594
0.000543204
0.000535951
0.000545069
0.000536626
0.000543731
0.000539276
0.0005401
0.00054303
0.000536231
0.000545742
0.000534625
0.000545451
0.000536384
0.000542274
0.00054025
0.000538195
0.000543981
0.000535186
0.000545899
0.000534634
0.00054481
0.000537319
0.000540791
0.000542161
0.000535821
0.00054657
0.000532646
0.000547377
0.000156641
0.000151207
0.000143352
0.000134629
0.000126077
0.000120992
0.00011501
0.000112502
0.000112456
0.00011419
0.000117962
0.000123462
0.000130605
0.000139125
0.000149054
0.000160159
0.000172602
0.000186206
0.000201285
0.000217286
0.000233493
0.000246946
0.000259667
0.000271868
0.000283092
0.000294114
0.00030263
0.000310053
0.000316738
0.000322882
0.00032861
0.000333956
0.000338907
0.000343511
0.00034778
0.000351756
0.000355482
0.000358957
0.000362269
0.00036535
0.00036834
0.000371117
0.000373823
0.000376364
0.000378695
0.000381104
0.000383012
0.000385429
0.000386877
0.00038935
0.000390438
0.000392832
0.000393958
0.000395869
0.00039754
0.000398577
0.000400982
0.000401094
0.000403909
0.000403778
0.000406191
0.000406846
0.000408139
0.000410168
0.000410041
0.000413296
0.000412021
0.00041566
0.000414181
0.000416667
0.000416532
0.00041632
0.000418718
0.000415418
0.000420003
0.00041511
0.000419791
0.000416001
0.000418189
0.00041788
0.000415995
0.000419789
0.00041446
0.000420501
0.000414568
0.000419511
0.000416207
0.000417446
0.00041842
0.000415323
0.000420223
0.000414083
0.000420671
0.000414575
0.00041921
0.000416844
0.000416406
0.000419794
0.000413585
0.000421677
0.000151621
0.000136816
0.000113479
9.95199e-05
9.76004e-05
9.81326e-05
0.000110573
0.000115044
0.000121818
0.000129687
0.000137977
0.000146235
0.000154211
0.000161681
0.000168583
0.000174823
0.000180491
0.000185568
0.000190197
0.000194425
0.000198337
0.000202068
0.000205555
0.00020885
0.000211871
0.000214679
0.000217312
0.000219723
0.000221894
0.000223823
0.000225516
0.000227019
0.000228354
0.000229555
0.00023063
0.000231603
0.00023249
0.000233293
0.000234049
0.000234732
0.000235403
0.000235996
0.000236603
0.000237169
0.000237724
0.000238285
0.000238733
0.000239324
0.000239614
0.000240257
0.000240406
0.000241095
0.000241209
0.000241824
0.000242093
0.000242426
0.000243
0.000242924
0.000243806
0.000243522
0.000244454
0.00024434
0.000244979
0.000245354
0.000245395
0.000246351
0.000245751
0.000247095
0.000246129
0.000247371
0.000246664
0.000247117
0.000247353
0.000246521
0.000247948
0.00024606
0.000248133
0.000246084
0.000247757
0.000246674
0.000246939
0.000247556
0.000246084
0.000248221
0.000245704
0.000248272
0.000246008
0.000247672
0.000246821
0.000246738
0.000247782
0.000245861
0.000248457
0.00024551
0.000248413
0.000245977
0.000247562
0.000247089
0.000246203
0.000248337
2.45432e-05
3.47523e-05
4.04101e-05
4.23028e-05
4.20137e-05
4.05608e-05
3.87137e-05
3.70559e-05
3.56101e-05
3.44451e-05
3.35764e-05
3.29762e-05
3.25987e-05
3.2385e-05
3.22871e-05
3.22583e-05
3.22698e-05
3.2298e-05
3.23311e-05
3.23648e-05
3.23935e-05
3.24263e-05
3.24614e-05
3.24994e-05
3.2539e-05
3.25762e-05
3.26142e-05
3.26515e-05
3.26862e-05
3.27168e-05
3.27414e-05
3.27608e-05
3.27749e-05
3.27852e-05
3.27918e-05
3.27958e-05
3.27977e-05
3.27977e-05
3.27973e-05
3.27954e-05
3.27946e-05
3.27919e-05
3.27916e-05
3.279e-05
3.27905e-05
3.27916e-05
3.27906e-05
3.27955e-05
3.27903e-05
3.28003e-05
3.27905e-05
3.28061e-05
3.27949e-05
3.28116e-05
3.28061e-05
3.28145e-05
3.2823e-05
3.28152e-05
3.28423e-05
3.2823e-05
3.28607e-05
3.28438e-05
3.28754e-05
3.28758e-05
3.28815e-05
3.29078e-05
3.28795e-05
3.29284e-05
3.28752e-05
3.29301e-05
3.28787e-05
3.29111e-05
3.28955e-05
3.28776e-05
3.29198e-05
3.28466e-05
3.2935e-05
3.28363e-05
3.29279e-05
3.28532e-05
3.2898e-05
3.28914e-05
3.28574e-05
3.29305e-05
3.28285e-05
3.29473e-05
3.28289e-05
3.29329e-05
3.28577e-05
3.28952e-05
3.29019e-05
3.285e-05
3.29442e-05
3.28188e-05
3.2961e-05
3.28223e-05
3.29403e-05
3.28624e-05
3.2889e-05
3.2932e-05
2.27947e-05
0.000575454
0.00110628
0.0015449
0.00195127
0.00219228
0.00227161
0.00229513
0.00226161
0.00222216
0.00226259
0.00230676
0.00227661
0.00218413
0.00209887
0.00188013
0.00124419
0.00070381
0.00038028
0.000311082
0.00019872
0.000221952
0.000453997
4.62097e-05
0.000312165
0.000752291
0.00109347
0.00129696
0.00138903
0.00140112
0.00133637
0.00119696
0.0010161
0.000833656
0.000669662
0.000547689
0.000451012
0.000379646
0.000326494
0.000285848
0.000254543
0.000230604
0.000212265
0.000197909
0.000186199
0.000176221
0.000167499
0.000159869
0.00015333
0.000147908
0.000143543
0.000140036
0.000137081
0.000134392
0.000131839
0.000129465
0.000127385
0.0001257
0.000124441
0.000123592
0.000123054
0.000122742
0.000122559
0.000122464
0.000122406
0.000122382
0.000122362
0.00012236
0.000122349
0.000122354
0.000122346
0.000122352
0.000122344
0.000122352
0.000122344
0.000122352
0.000122343
0.000122353
0.000122343
0.000122353
0.000122342
0.000122354
0.000122342
0.000122354
0.000122341
0.000122354
0.000122341
0.000122355
0.00012234
0.000122355
0.00012234
0.000122356
0.00012234
0.000122356
0.000122339
0.000122357
0.000122339
0.000122358
0.000122343
0.000122371
0.000233396
0.0003522
0.00078709
0.00121707
0.00161626
0.00186287
0.00194213
0.00196062
0.00199957
0.00200366
0.00214665
0.00219048
0.00215041
0.0020484
0.00193996
0.00148212
0.000854967
0.000392898
0.000282217
0.000250872
0.000237647
0.000168955
0.00034664
8.7241e-05
0.000140308
0.000578699
0.000945172
0.00117645
0.00128775
0.00130874
0.0012437
0.00110105
0.000920462
0.000743859
0.000593001
0.000475051
0.000388664
0.000327904
0.000284858
0.000253347
0.000229741
0.000211885
0.000198262
0.000187568
0.000178707
0.000170913
0.000163791
0.000157254
0.000151397
0.000146356
0.000142186
0.000138796
0.000135969
0.000133461
0.000131129
0.000128984
0.00012711
0.000125591
0.000124434
0.000123636
0.000123121
0.000122818
0.000122637
0.000122542
0.000122482
0.000122457
0.000122435
0.000122433
0.000122422
0.000122426
0.000122418
0.000122425
0.000122416
0.000122425
0.000122415
0.000122425
0.000122415
0.000122425
0.000122414
0.000122426
0.000122414
0.000122426
0.000122414
0.000122427
0.000122413
0.000122427
0.000122413
0.000122428
0.000122412
0.000122428
0.000122411
0.000122429
0.000122411
0.000122429
0.000122411
0.00012243
0.000122412
0.000122434
0.000122417
0.000122451
0.000472749
0.000351451
0.000485504
0.000811826
0.00118876
0.00144146
0.00152628
0.00153711
0.00159328
0.00158966
0.00174391
0.00182277
0.00176256
0.00174101
0.00149924
0.000969176
0.000478686
0.000149831
0.00023277
0.000228575
0.000229315
0.000203327
0.000283797
0.000251288
4.65786e-05
0.000396325
0.000774817
0.0010306
0.00116123
0.00119174
0.00112648
0.000981708
0.000804987
0.000638685
0.00050258
0.000400977
0.000330239
0.000282992
0.000250991
0.000228258
0.000211313
0.000198361
0.000188309
0.00018025
0.000173383
0.000167104
0.000161092
0.000155307
0.000149907
0.000145103
0.000141037
0.000137703
0.000134957
0.0001326
0.000130476
0.000128553
0.000126875
0.000125505
0.000124445
0.000123698
0.000123201
0.000122903
0.000122719
0.000122621
0.000122557
0.00012253
0.000122505
0.000122503
0.00012249
0.000122495
0.000122485
0.000122493
0.000122483
0.000122493
0.000122482
0.000122493
0.000122482
0.000122493
0.000122481
0.000122494
0.000122481
0.000122494
0.00012248
0.000122495
0.00012248
0.000122496
0.000122479
0.000122496
0.000122478
0.000122497
0.000122478
0.000122498
0.000122478
0.000122499
0.000122478
0.000122501
0.000122479
0.000122507
0.000122489
0.000122531
0.000538729
0.000524243
0.000486584
0.000524074
0.00075048
0.000960324
0.00104271
0.00103393
0.0011087
0.00108856
0.00124933
0.00134201
0.00128058
0.00127817
0.000934314
0.000438442
0.000190607
9.10777e-06
0.000275825
0.000265777
0.00020992
0.000298055
0.000307068
0.000298155
3.83631e-05
0.000222747
0.00058867
0.000858679
0.00100647
0.00104565
0.000979843
0.000836187
0.000670283
0.000523717
0.00041179
0.000333484
0.000281954
0.000248802
0.000226767
0.000211035
0.000198983
0.0001894
0.00018167
0.000175279
0.000169682
0.000164395
0.00015913
0.000153856
0.000148756
0.000144087
0.000140058
0.000136734
0.000134036
0.000131801
0.000129869
0.00012816
0.000126666
0.000125432
0.000124465
0.000123772
0.000123297
0.000123001
0.000122811
0.000122706
0.000122636
0.000122605
0.000122577
0.000122573
0.000122558
0.000122564
0.000122553
0.000122561
0.000122551
0.000122561
0.00012255
0.000122561
0.000122549
0.000122562
0.000122548
0.000122562
0.000122548
0.000122563
0.000122547
0.000122564
0.000122546
0.000122564
0.000122546
0.000122565
0.000122545
0.000122566
0.000122544
0.000122567
0.000122544
0.000122568
0.000122545
0.000122572
0.000122548
0.00012258
0.000122562
0.000122614
0.000599984
0.000582092
0.000590948
0.000551103
0.000548305
0.00061832
0.000645506
0.000570937
0.000648396
0.000565277
0.000694783
0.00079761
0.000722465
0.00070628
0.000304131
3.98204e-05
0.000132121
0.00017508
0.000268141
0.000300999
0.000239579
0.000412199
0.000450091
0.000371035
0.000174683
7.70684e-05
0.000393496
0.000663231
0.000822757
0.000867776
0.000801476
0.000666732
0.000525053
0.000411482
0.000332098
0.000280312
0.000247309
0.000225866
0.000211177
0.000200174
0.000191208
0.000183638
0.00017725
0.00017183
0.000167016
0.000162388
0.000157653
0.000152753
0.000147863
0.000143269
0.000139229
0.000135876
0.000133188
0.000131038
0.000129264
0.000127748
0.000126432