/*--------------------------------*- C++ -*----------------------------------*\
| =========                 |                                                 |
| \\      /  F ield         | OpenFOAM: The Open Source CFD Toolbox           |
|  \\    /   O peration     | Version:  v2012                                 |
|   \\  /    A nd           | Website:  www.openfoam.com                      |
|    \\/     M anipulation  |                                                 |
\*---------------------------------------------------------------------------*/
FoamFile
{
    version     2.0;
    format      ascii;
    class       volScalarField;
    location    "0.053";
    object      k.air;
}
// * * * * * * * * * * * * * * * * * * * * * * * * * * * * * * * * * * * * * //

dimensions      [0 2 -2 0 0 0 0];


internalField   nonuniform List<scalar> 
5600
(
0.606305
0.840798
0.955141
0.978165
0.949128
0.897622
0.839582
0.787247
0.743264
0.707394
0.679348
0.658355
0.64332
0.632852
0.625488
0.62009
0.616025
0.612953
0.610614
0.608848
0.607491
0.606408
0.605474
0.604586
0.603714
0.602895
0.602178
0.601616
0.601232
0.601009
0.600921
0.600938
0.601033
0.60117
0.601308
0.601419
0.6015
0.601554
0.601588
0.60161
0.601622
0.601629
0.601634
0.601636
0.601637
0.601637
0.601638
0.601638
0.601638
0.601638
0.601638
0.601638
0.601638
0.601638
0.601638
0.601638
0.601638
0.601638
0.601639
0.601638
0.60164
0.601635
0.601647
0.601623
0.601669
0.601583
0.601739
0.601467
0.601921
0.601196
0.6023
0.600704
0.602894
0.600059
0.603535
0.599485
0.604072
0.598838
0.60519
0.596814
0.608561
0.592343
0.613407
0.589538
0.61179
0.597899
0.59564
0.619384
0.575301
0.632097
0.579298
0.607051
0.623227
0.548189
0.685482
0.503862
0.719233
0.439021
0.793514
0.185319
0.371644
0.315587
0.288559
0.27576
0.275059
0.284356
0.30749
0.345264
0.386905
0.429904
0.471626
0.509253
0.541581
0.568912
0.591679
0.610037
0.623945
0.634208
0.641756
0.647405
0.651991
0.656131
0.65969
0.662161
0.663569
0.664155
0.664174
0.663838
0.663366
0.662952
0.662681
0.662574
0.6626
0.66274
0.662976
0.663226
0.663429
0.663575
0.663675
0.66374
0.66378
0.663805
0.663819
0.663827
0.663831
0.663833
0.663834
0.663835
0.663835
0.663835
0.663836
0.663836
0.663836
0.663836
0.663836
0.663836
0.663836
0.663835
0.663838
0.663831
0.663846
0.663815
0.663878
0.663755
0.663989
0.663559
0.664319
0.663028
0.66513
0.661863
0.666699
0.659906
0.66894
0.657582
0.671132
0.655601
0.673198
0.652552
0.678706
0.643032
0.692909
0.626141
0.707168
0.623311
0.688271
0.668218
0.620274
0.744901
0.559214
0.76273
0.603596
0.645424
0.772552
0.450853
0.928975
0.337402
0.947512
0.245788
0.973716
0.18314
0.369156
0.281903
0.227694
0.19303
0.168646
0.153677
0.145613
0.143772
0.146945
0.154865
0.167093
0.182207
0.199268
0.218119
0.23876
0.260767
0.283199
0.305238
0.32637
0.347021
0.367998
0.390369
0.41058
0.427009
0.439427
0.448249
0.454096
0.45761
0.459482
0.460349
0.460707
0.460868
0.461002
0.461189
0.461437
0.461701
0.461927
0.462098
0.462221
0.462304
0.462358
0.462392
0.462412
0.462423
0.462429
0.462433
0.462434
0.462435
0.462436
0.462436
0.462436
0.462436
0.462436
0.462436
0.462436
0.462436
0.462437
0.462435
0.462441
0.462428
0.462455
0.462398
0.462512
0.462292
0.462702
0.461965
0.463239
0.461128
0.464477
0.459411
0.466696
0.456761
0.469578
0.453903
0.472179
0.451406
0.475248
0.446205
0.484511
0.431301
0.504352
0.41067
0.515777
0.419093
0.474861
0.491929
0.380695
0.584088
0.320842
0.572139
0.406763
0.409803
0.606614
0.200746
0.73083
0.144631
0.682693
0.146017
0.57967
0.432882
0.370106
0.280644
0.2241
0.186061
0.158576
0.138162
0.122943
0.111391
0.102942
0.0969196
0.0935326
0.0923926
0.0930077
0.0952706
0.0992647
0.105189
0.113089
0.122527
0.133097
0.144663
0.157846
0.174293
0.193421
0.213447
0.232022
0.24736
0.258768
0.266281
0.270739
0.273083
0.274134
0.274515
0.274639
0.274729
0.274859
0.275026
0.275199
0.275351
0.275471
0.275559
0.275618
0.275657
0.27568
0.275694
0.275702
0.275707
0.275709
0.27571
0.275711
0.275711
0.275711
0.275711
0.275712
0.275711
0.275712
0.275711
0.275713
0.275709
0.275718
0.275698
0.27574
0.275656
0.27582
0.275508
0.276079
0.275076
0.27677
0.274028
0.278267
0.272024
0.280751
0.269187
0.283681
0.266399
0.286216
0.263663
0.290222
0.256472
0.302406
0.238417
0.323548
0.220306
0.326185
0.243675
0.268347
0.330968
0.169402
0.409558
0.134919
0.367851
0.243178
0.208671
0.416315
0.0502378
0.483297
0.0511049
0.418772
0.0892146
0.2914
0.396265
0.370299
0.280773
0.224385
0.186046
0.158433
0.13764
0.121535
0.108752
0.098386
0.0899253
0.0829663
0.0773777
0.0728458
0.06927
0.0665054
0.064597
0.0637164
0.0637506
0.0645083
0.0658591
0.0679668
0.0715361
0.0771981
0.0849247
0.0937113
0.102156
0.109132
0.114044
0.116962
0.118299
0.118587
0.118316
0.117836
0.117364
0.11701
0.116798
0.116699
0.116667
0.116669
0.116683
0.1167
0.116714
0.116724
0.116731
0.116735
0.116738
0.116739
0.11674
0.11674
0.116741
0.116741
0.116741
0.116741
0.116741
0.116741
0.11674
0.116742
0.116738
0.116747
0.116729
0.116765
0.116693
0.116831
0.116576
0.117032
0.11625
0.117536
0.115511
0.11855
0.11421
0.120088
0.112536
0.121744
0.110973
0.123303
0.108917
0.126738
0.102872
0.136156
0.0902286
0.148911
0.0821107
0.144131
0.105791
0.099557
0.165648
0.0376807
0.20674
0.0289719
0.16971
0.101809
0.0766417
0.19672
0.00250743
0.217252
0.014196
0.197065
0.0307559
0.134615
0.216579
0.370326
0.28081
0.224511
0.186214
0.15864
0.137914
0.121795
0.108955
0.0984579
0.089768
0.082439
0.0762197
0.0708874
0.0662837
0.0622797
0.0587936
0.0558192
0.0533248
0.051208
0.0493758
0.0478194
0.0466537
0.0461161
0.0463117
0.0470802
0.0480748
0.0489039
0.0493028
0.0492049
0.0486998
0.0479546
0.047133
0.0463543
0.045698
0.0452045
0.0448697
0.044659
0.0445343
0.0444644
0.0444277
0.0444096
0.0444013
0.0443979
0.0443967
0.0443964
0.0443964
0.0443965
0.0443966
0.0443967
0.0443967
0.0443967
0.0443967
0.0443968
0.0443967
0.0443968
0.0443965
0.0443973
0.0443956
0.0443992
0.0443917
0.0444068
0.0443773
0.0444331
0.0443316
0.0445091
0.0442114
0.0446892
0.0439571
0.0450252
0.0435453
0.0454905
0.0430635
0.0459612
0.0425934
0.0465449
0.041654
0.0482249
0.0388299
0.052389
0.0336642
0.057322
0.03115
0.0546559
0.0415376
0.0359445
0.0661503
0.0114004
0.0822852
0.0105101
0.0660005
0.0424522
0.0263439
0.0794908
0.00230108
0.0834264
0.00473569
0.0839855
0.00559033
0.0759322
0.0532214
0.370326
0.280812
0.224531
0.186257
0.158707
0.138009
0.121923
0.109095
0.0986254
0.0899371
0.0826111
0.0763567
0.0709587
0.0662545
0.0621201
0.0584626
0.0552169
0.0523289
0.0497401
0.0473943
0.0452619
0.0433433
0.041666
0.0402391
0.0390186
0.0379214
0.0368611
0.035786
0.0346954
0.0336294
0.0326429
0.031782
0.0310738
0.0305258
0.030128
0.0298565
0.0296809
0.0295727
0.0295089
0.029473
0.0294535
0.0294434
0.0294383
0.0294359
0.0294347
0.0294342
0.029434
0.0294339
0.0294339
0.0294338
0.0294338
0.0294338
0.0294338
0.0294338
0.0294339
0.0294338
0.029434
0.0294336
0.0294345
0.0294326
0.0294364
0.0294288
0.0294434
0.0294168
0.0294631
0.029386
0.0295084
0.0293237
0.029588
0.0292299
0.0296898
0.029127
0.0297946
0.0290012
0.0299949
0.0286324
0.0306644
0.0275344
0.0322543
0.0255801
0.0341805
0.0244816
0.0334067
0.028317
0.0258895
0.0389112
0.0146056
0.0468455
0.0142542
0.0375715
0.0319266
0.0174762
0.0460475
0.0159594
0.0346359
0.0316011
0.0295774
0.0186894
0.0554109
0.00449133
0.370325
0.280804
0.224527
0.186259
0.158717
0.138027
0.121955
0.109133
0.0986775
0.0899982
0.0826838
0.0764382
0.0710443
0.0663407
0.0622059
0.0585459
0.0552855
0.0523618
0.0497212
0.0473212
0.0451344
0.0431456
0.0413432
0.0397076
0.0382052
0.0367953
0.0354448
0.0341421
0.0329015
0.0317564
0.0307448
0.0298954
0.0292195
0.0287106
0.0283476
0.0281022
0.0279443
0.0278473
0.0277904
0.0277583
0.0277409
0.0277318
0.0277273
0.0277251
0.027724
0.0277236
0.0277234
0.0277233
0.0277232
0.0277232
0.0277232
0.0277232
0.0277232
0.0277232
0.0277232
0.0277232
0.0277233
0.0277231
0.0277234
0.0277228
0.0277241
0.0277214
0.0277267
0.027717
0.0277338
0.0277064
0.0277485
0.027688
0.0277688
0.0276693
0.027781
0.027667
0.0277758
0.0276657
0.0278147
0.0275403
0.0280863
0.0270725
0.0287648
0.0262456
0.0295816
0.0257422
0.0293729
0.027148
0.0264496
0.0314775
0.0216211
0.035135
0.021279
0.0312375
0.0286426
0.0239036
0.0315327
0.0284152
0.0215099
0.037712
0.0212709
0.0238705
0.0439899
0.00849021
0.370323
0.280796
0.224519
0.186253
0.158714
0.138027
0.121959
0.10914
0.0986888
0.0900136
0.0827033
0.0764619
0.071072
0.0663722
0.0622414
0.0585856
0.0553284
0.0524055
0.0497636
0.0473622
0.045175
0.0431851
0.0413765
0.0397248
0.0381961
0.036754
0.0353721
0.0340444
0.0327875
0.0316343
0.0306211
0.0297746
0.0291043
0.0286017
0.0282444
0.0280032
0.0278482
0.027753
0.0276971
0.0276655
0.0276484
0.0276395
0.027635
0.0276328
0.0276318
0.0276313
0.0276311
0.027631
0.027631
0.027631
0.027631
0.027631
0.027631
0.027631
0.027631
0.0276309
0.027631
0.0276309
0.0276311
0.0276306
0.0276318
0.0276293
0.0276342
0.0276252
0.0276408
0.027615
0.0276552
0.0275963
0.0276767
0.0275758
0.0276901
0.0275776
0.0276656
0.0276271
0.0275995
0.0276865
0.0275851
0.0276101
0.0277895
0.0272737
0.0282072
0.026903
0.0283429
0.02722
0.0274367
0.0286541
0.0258494
0.02977
0.0259073
0.0283556
0.0282002
0.0264968
0.0282468
0.0288484
0.0245173
0.0315969
0.0254491
0.0261491
0.0329236
0.0231903
0.370323
0.280792
0.224515
0.18625
0.158711
0.138026
0.121959
0.109141
0.0986916
0.090018
0.082709
0.076469
0.0710806
0.0663824
0.0622531
0.0585987
0.0553429
0.0524214
0.0497808
0.0473807
0.0451947
0.0432059
0.0413981
0.0397468
0.0382177
0.0367744
0.0353908
0.0340613
0.0328032
0.0316497
0.0306369
0.0297912
0.0291219
0.0286199
0.0282628
0.0280214
0.027866
0.0277704
0.027714
0.0276822
0.0276648
0.0276557
0.0276511
0.0276488
0.0276478
0.0276473
0.027647
0.0276469
0.0276469
0.0276469
0.0276469
0.0276469
0.0276469
0.0276469
0.0276469
0.0276469
0.0276469
0.0276468
0.0276471
0.0276465
0.0276476
0.0276455
0.0276494
0.0276425
0.027654
0.0276359
0.027663
0.0276248
0.0276751
0.0276136
0.0276826
0.0276125
0.0276759
0.0276261
0.0276581
0.0276453
0.0276375
0.027672
0.0275994
0.0277168
0.0275736
0.0276799
0.027707
0.0274783
0.0278584
0.0275469
0.0274796
0.0281116
0.0270768
0.0280176
0.0276912
0.0272998
0.0279752
0.027597
0.0275664
0.027464
0.0284403
0.0264022
0.0288703
0.0274554
0.370323
0.280793
0.224517
0.186252
0.158714
0.138028
0.121961
0.109144
0.098694
0.0900203
0.0827113
0.0764712
0.0710826
0.0663844
0.062255
0.0586004
0.0553446
0.0524231
0.0497824
0.0473822
0.0451961
0.0432072
0.0413995
0.0397482
0.0382192
0.0367759
0.0353923
0.0340628
0.0328046
0.0316509
0.030638
0.0297921
0.0291226
0.0286204
0.0282633
0.0280218
0.0278664
0.0277707
0.0277144
0.0276825
0.0276651
0.027656
0.0276514
0.0276491
0.0276481
0.0276476
0.0276473
0.0276472
0.0276472
0.0276472
0.0276472
0.0276472
0.0276472
0.0276472
0.0276472
0.0276471
0.0276472
0.0276471
0.0276474
0.0276468
0.0276479
0.0276459
0.0276495
0.0276434
0.0276532
0.0276382
0.0276596
0.0276312
0.0276658
0.0276281
0.0276634
0.0276377
0.0276472
0.0276562
0.0276345
0.0276537
0.0276576
0.0276141
0.0276967
0.0276005
0.0276654
0.0276751
0.0275772
0.02773
0.0275929
0.0276427
0.0277089
0.0275675
0.0276792
0.0277306
0.0274207
0.027956
0.0274377
0.0275026
0.0283472
0.0263963
0.0291838
0.0263429
0.0280187
0.0289902
0.370324
0.2808
0.224525
0.186261
0.158722
0.138035
0.121967
0.109148
0.0986958
0.0900203
0.0827098
0.0764683
0.071078
0.0663778
0.0622466
0.0585905
0.0553332
0.0524103
0.0497683
0.0473667
0.0451793
0.0431894
0.041381
0.03973
0.0382023
0.0367613
0.0353804
0.0340532
0.0327964
0.0316432
0.0306297
0.0297827
0.029112
0.0286089
0.0282512
0.0280096
0.0278542
0.0277588
0.0277027
0.0276711
0.0276539
0.0276449
0.0276404
0.0276382
0.0276372
0.0276367
0.0276365
0.0276364
0.0276363
0.0276363
0.0276363
0.0276363
0.0276363
0.0276363
0.0276363
0.0276363
0.0276364
0.0276362
0.0276365
0.027636
0.027637
0.0276351
0.0276383
0.027633
0.0276414
0.0276289
0.0276463
0.0276239
0.0276502
0.027623
0.027646
0.0276335
0.02763
0.0276514
0.0276167
0.0276527
0.0276317
0.0276234
0.027666
0.0275967
0.0276778
0.0275967
0.0276763
0.0275953
0.0276674
0.0276393
0.0275781
0.027749
0.0274878
0.0278225
0.0273634
0.0280353
0.0272349
0.0276416
0.0285813
0.0254277
0.0307834
0.024547
0.0294849
0.0279014
0.370325
0.280812
0.224537
0.186271
0.15873
0.13804
0.121968
0.109145
0.098689
0.0900089
0.0826937
0.0764479
0.0710537
0.0663496
0.0622143
0.058554
0.055294
0.0523717
0.0497329
0.0473346
0.0451492
0.0431626
0.0413654
0.0397387
0.0382479
0.0368503
0.0355105
0.0342157
0.0329799
0.0318369
0.0308255
0.0299749
0.0292973
0.0287863
0.0284217
0.0281748
0.0280159
0.0279183
0.0278609
0.0278286
0.027811
0.0278019
0.0277973
0.027795
0.027794
0.0277935
0.0277933
0.0277932
0.0277931
0.0277931
0.0277931
0.0277931
0.0277931
0.0277931
0.0277931
0.0277931
0.0277932
0.027793
0.0277933
0.0277928
0.0277937
0.0277921
0.0277948
0.0277904
0.0277972
0.0277873
0.0278009
0.0277838
0.0278031
0.0277843
0.0277984
0.0277937
0.0277854
0.0278069
0.0277773
0.027805
0.0277907
0.0277842
0.0278102
0.0277737
0.0278126
0.0277661
0.0278438
0.0277056
0.0279111
0.0276788
0.0278495
0.0278549
0.0275451
0.0283209
0.0268783
0.0291064
0.0263652
0.0286373
0.028505
0.024808
0.0329429
0.0216063
0.0331433
0.0248418
0.370326
0.280824
0.224545
0.186275
0.158725
0.138024
0.121942
0.109109
0.0986418
0.0899507
0.0826235
0.0763711
0.0709754
0.0662739
0.0621426
0.0584903
0.055256
0.0523851
0.0498163
0.0474929
0.0453825
0.0434967
0.0418792
0.0405362
0.0394178
0.038426
0.0374574
0.0364505
0.0354028
0.0343582
0.0333781
0.0325143
0.0317982
0.0312404
0.0308337
0.0305554
0.0303752
0.030264
0.0301984
0.0301614
0.0301412
0.0301308
0.0301255
0.0301229
0.0301217
0.0301212
0.0301209
0.0301208
0.0301208
0.0301208
0.0301208
0.0301208
0.0301208
0.0301208
0.0301208
0.0301208
0.0301208
0.0301207
0.0301209
0.0301205
0.0301213
0.0301199
0.0301222
0.0301185
0.0301242
0.030116
0.030127
0.0301136
0.0301281
0.0301149
0.0301232
0.0301237
0.0301119
0.0301344
0.0301061
0.0301318
0.0301168
0.0301181
0.0301261
0.0301166
0.030129
0.0300881
0.0302113
0.0299408
0.0303969
0.0297826
0.030442
0.0299422
0.0299601
0.0309167
0.0283256
0.0331362
0.0261779
0.0338578
0.0284239
0.0280413
0.0364048
0.0207595
0.0393588
0.0221331
0.370324
0.280831
0.224524
0.186239
0.158661
0.13793
0.121821
0.108969
0.0984895
0.0897935
0.08248
0.0762861
0.070988
0.0664238
0.0624655
0.0590501
0.0561843
0.0538176
0.051855
0.0501983
0.0488368
0.047972
0.0478945
0.0486614
0.0500639
0.0516733
0.0530134
0.053784
0.0539212
0.0535458
0.0528597
0.0520524
0.0512627
0.0505841
0.0500673
0.0497138
0.04949
0.0493565
0.0492811
0.0492411
0.049221
0.0492115
0.0492075
0.0492058
0.0492053
0.0492052
0.0492052
0.0492052
0.0492053
0.0492053
0.0492053
0.0492053
0.0492053
0.0492053
0.0492053
0.0492053
0.0492054
0.0492053
0.0492055
0.0492051
0.0492058
0.0492045
0.0492067
0.0492032
0.0492086
0.0492007
0.0492114
0.0491984
0.0492124
0.0492001
0.0492067
0.0492102
0.0491933
0.0492241
0.049183
0.0492277
0.0491847
0.0492274
0.0491743
0.0492508
0.0491565
0.0492152
0.0493136
0.048878
0.0498352
0.0482523
0.0503869
0.0480437
0.0498741
0.0497527
0.0465162
0.0548139
0.0406254
0.0591833
0.0406802
0.0523674
0.052908
0.0381819
0.061542
0.0327107
0.370305
0.280792
0.224394
0.186087
0.158444
0.137686
0.121584
0.108846
0.0985565
0.09016
0.0833887
0.0779958
0.0737266
0.0704299
0.0680099
0.066604
0.0663105
0.0670564
0.0686594
0.0708912
0.0741645
0.0792738
0.08685
0.0965532
0.107061
0.116787
0.124595
0.13004
0.133271
0.134783
0.135169
0.134949
0.134499
0.134045
0.133695
0.133479
0.13337
0.133328
0.13332
0.133327
0.133338
0.133348
0.133356
0.133361
0.133365
0.133367
0.133368
0.133369
0.133369
0.133369
0.133369
0.133369
0.133369
0.133369
0.133369
0.133369
0.133369
0.133369
0.133369
0.133369
0.13337
0.133369
0.133371
0.133367
0.133373
0.133365
0.133376
0.133361
0.133378
0.133362
0.133372
0.133375
0.133352
0.133401
0.133325
0.133424
0.133309
0.133437
0.133285
0.133489
0.133207
0.133543
0.133291
0.133153
0.134142
0.1318
0.135807
0.130298
0.136361
0.131655
0.132124
0.139278
0.121694
0.149924
0.114895
0.147766
0.126242
0.128105
0.141933
0.109551
0.370198
0.280541
0.224209
0.186078
0.158724
0.138487
0.123404
0.112402
0.10442
0.0992043
0.0968098
0.0966921
0.098434
0.101935
0.107345
0.114924
0.12462
0.136152
0.148901
0.162488
0.178634
0.197784
0.219165
0.240587
0.259758
0.274907
0.285766
0.292841
0.296995
0.299145
0.300085
0.300401
0.300482
0.300543
0.300647
0.300785
0.300929
0.301056
0.301155
0.301227
0.301276
0.301307
0.301326
0.301337
0.301343
0.301347
0.301348
0.301349
0.30135
0.30135
0.30135
0.30135
0.30135
0.30135
0.30135
0.30135
0.30135
0.30135
0.30135
0.30135
0.301351
0.30135
0.301351
0.301349
0.301353
0.301346
0.301357
0.301342
0.301361
0.30134
0.301358
0.301351
0.301337
0.301385
0.301293
0.30143
0.301256
0.301453
0.301243
0.301476
0.301183
0.301576
0.30111
0.301448
0.301696
0.300171
0.303695
0.297795
0.305628
0.297443
0.303178
0.303569
0.293195
0.316042
0.281322
0.322054
0.283766
0.307584
0.299035
0.281331
0.369485
0.281377
0.228564
0.19313
0.170728
0.155835
0.150125
0.15065
0.156469
0.167081
0.181714
0.19914
0.218377
0.239296
0.26197
0.285814
0.310073
0.333925
0.356822
0.378851
0.401944
0.423613
0.442393
0.457347
0.468503
0.476411
0.48158
0.484588
0.486149
0.48683
0.487074
0.487149
0.487212
0.487338
0.487537
0.487756
0.487945
0.488089
0.488192
0.488261
0.488306
0.488333
0.488349
0.488358
0.488364
0.488366
0.488368
0.488368
0.488369
0.488369
0.488369
0.488369
0.488369
0.488369
0.488369
0.488369
0.488369
0.488369
0.488369
0.488369
0.48837
0.488369
0.48837
0.488368
0.488371
0.488367
0.488374
0.488363
0.488378
0.48836
0.488379
0.488365
0.488365
0.488391
0.488327
0.488437
0.488282
0.488471
0.488266
0.488476
0.488248
0.488527
0.488177
0.488526
0.488436
0.487768
0.489856
0.485783
0.491895
0.48457
0.491195
0.488121
0.484244
0.49794
0.473197
0.506473
0.469666
0.499798
0.47883
0.476965
0.372212
0.315444
0.292723
0.279683
0.286382
0.29508
0.331669
0.373899
0.418352
0.462812
0.504797
0.541896
0.57329
0.599469
0.621041
0.638083
0.650945
0.660474
0.667457
0.672553
0.676943
0.681107
0.684422
0.686582
0.687706
0.688042
0.687849
0.687372
0.686806
0.686306
0.685966
0.685806
0.685789
0.685883
0.686069
0.686278
0.68645
0.686574
0.686659
0.686713
0.686747
0.686767
0.686779
0.686785
0.686789
0.686791
0.686792
0.686792
0.686792
0.686792
0.686793
0.686793
0.686793
0.686793
0.686793
0.686793
0.686793
0.686793
0.686793
0.686793
0.686793
0.686793
0.686793
0.686793
0.686794
0.686791
0.686796
0.686789
0.686799
0.686786
0.686801
0.686787
0.686795
0.686802
0.686769
0.686838
0.686729
0.686874
0.686706
0.686879
0.68671
0.686888
0.686674
0.686927
0.686731
0.6866
0.687513
0.685299
0.689143
0.683866
0.689601
0.685233
0.685787
0.691533
0.677666
0.699747
0.671506
0.700297
0.675391
0.688116
0.606741
0.839808
0.95221
0.969554
0.937493
0.881306
0.821382
0.768967
0.7244
0.688451
0.660661
0.640059
0.625375
0.615112
0.607799
0.602374
0.598245
0.595081
0.592732
0.590997
0.58977
0.588888
0.588125
0.587339
0.586518
0.58572
0.585014
0.584455
0.584067
0.583841
0.583745
0.583747
0.583823
0.58394
0.584059
0.584156
0.584226
0.584273
0.584302
0.584321
0.584331
0.584338
0.584341
0.584343
0.584344
0.584344
0.584345
0.584345
0.584345
0.584345
0.584345
0.584345
0.584345
0.584345
0.584345
0.584345
0.584345
0.584345
0.584345
0.584345
0.584345
0.584345
0.584345
0.584345
0.584346
0.584345
0.584346
0.584345
0.584347
0.584344
0.584348
0.584343
0.584347
0.584346
0.584342
0.584356
0.58433
0.584368
0.584321
0.584372
0.584323
0.58437
0.58432
0.584382
0.584316
0.584345
0.584458
0.584061
0.584894
0.583594
0.585229
0.583664
0.584633
0.585128
0.582683
0.588141
0.581364
0.591967
0.586599
0.603339
1.00986
1.9133
1.58829
2.39541
2.82738
1.45186
0.498434
0.158861
0.0762345
0.0576134
0.0540652
0.0514961
0.0476593
0.0443764
0.0423372
0.0409836
0.0396457
0.0380345
0.0361936
0.0343245
0.0326399
0.0312649
0.0302039
0.0293954
0.0287901
0.0283608
0.0280764
0.027905
0.0278146
0.0277716
0.0277523
0.0277438
0.0277401
0.0277384
0.0277376
0.0277372
0.0277371
0.027737
0.0277369
0.0277369
0.0277369
0.0277369
0.0277369
0.0277369
0.0277369
0.0277369
0.0277369
0.0277369
0.0277369
0.0277369
0.0277369
0.0277369
0.0277369
0.0277369
0.0277369
0.0277369
0.0277369
0.0277369
0.0277369
0.0277369
0.0277369
0.0277369
0.0277369
0.0277369
0.0277369
0.0277369
0.0277369
0.0277369
0.0277369
0.0277369
0.0277369
0.0277369
0.0277369
0.0277369
0.0277369
0.0277369
0.0277369
0.0277368
0.0277369
0.0277368
0.0277369
0.0277368
0.0277369
0.0277369
0.0277367
0.0277371
0.0277366
0.0277371
0.0277367
0.0277369
0.0277367
0.0277369
0.0277366
0.0277367
0.0277364
0.027736
0.0277355
0.0277343
0.0277334
0.0277306
0.744489
2.10521
1.67598
2.39077
2.48108
1.09849
0.334156
0.104278
0.0589628
0.0509211
0.0491877
0.0486396
0.0465435
0.0439261
0.0418995
0.0404411
0.0391039
0.03759
0.0358681
0.0340888
0.032455
0.0311091
0.0300795
0.0293121
0.0287464
0.0283451
0.0280758
0.0279081
0.0278154
0.0277694
0.0277477
0.0277377
0.0277331
0.027731
0.02773
0.0277295
0.0277293
0.0277292
0.0277291
0.0277291
0.0277291
0.0277291
0.0277291
0.0277291
0.0277291
0.0277291
0.0277291
0.0277291
0.0277291
0.0277291
0.0277291
0.0277291
0.0277291
0.0277291
0.0277291
0.0277291
0.0277291
0.0277291
0.0277291
0.0277291
0.0277291
0.0277291
0.0277291
0.0277291
0.0277291
0.0277291
0.0277291
0.0277291
0.0277291
0.0277291
0.0277291
0.0277291
0.0277291
0.0277291
0.0277291
0.0277291
0.0277291
0.0277291
0.0277291
0.027729
0.0277291
0.0277291
0.0277291
0.0277292
0.0277289
0.0277294
0.0277286
0.0277296
0.0277286
0.0277295
0.0277286
0.0277296
0.0277284
0.0277296
0.0277282
0.0277293
0.0277276
0.0277286
0.0277266
0.0277279
0.149247
1.7041
1.54202
2.23319
1.94307
0.71993
0.186867
0.0616296
0.0467917
0.0473526
0.0467275
0.0465664
0.0454478
0.0434373
0.0414969
0.0399563
0.0386019
0.037162
0.0355462
0.0338534
0.0322713
0.0309557
0.0299585
0.029236
0.0287146
0.0283429
0.0280876
0.0279231
0.0278264
0.0277748
0.0277488
0.0277362
0.0277301
0.0277271
0.0277257
0.027725
0.0277247
0.0277245
0.0277245
0.0277244
0.0277244
0.0277244
0.0277244
0.0277244
0.0277244
0.0277244
0.0277244
0.0277244
0.0277244
0.0277244
0.0277244
0.0277244
0.0277244
0.0277244
0.0277244
0.0277244
0.0277244
0.0277244
0.0277244
0.0277244
0.0277244
0.0277244
0.0277244
0.0277244
0.0277244
0.0277244
0.0277244
0.0277244
0.0277244
0.0277244
0.0277244
0.0277244
0.0277244
0.0277244
0.0277244
0.0277244
0.0277244
0.0277243
0.0277244
0.0277243
0.0277244
0.0277244
0.0277243
0.0277246
0.027724
0.0277249
0.0277237
0.0277252
0.0277235
0.0277253
0.0277234
0.0277255
0.0277231
0.0277259
0.0277229
0.0277262
0.0277229
0.0277271
0.0277238
0.0277311
0.0462611
1.00964
1.02087
1.71877
1.2193
0.357853
0.082191
0.0404576
0.0423453
0.0460189
0.04482
0.0443484
0.0440378
0.0427837
0.0410893
0.0395257
0.0381449
0.0367528
0.0352262
0.033616
0.0320872
0.0308024
0.0298345
0.029153
0.0286768
0.0283391
0.0281039
0.0279471
0.0278492
0.0277926
0.0277618
0.0277457
0.0277375
0.0277334
0.0277313
0.0277303
0.0277297
0.0277295
0.0277293
0.0277293
0.0277292
0.0277292
0.0277292
0.0277292
0.0277292
0.0277292
0.0277292
0.0277292
0.0277292
0.0277292
0.0277292
0.0277292
0.0277292
0.0277292
0.0277292
0.0277292
0.0277292
0.0277292
0.0277292
0.0277292
0.0277292
0.0277292
0.0277292
0.0277292
0.0277292
0.0277292
0.0277292
0.0277292
0.0277292
0.0277292
0.0277292
0.0277292
0.0277292
0.0277292
0.0277292
0.0277292
0.0277292
0.0277292
0.0277292
0.0277291
0.0277292
0.0277292
0.0277291
0.0277294
0.0277287
0.0277299
0.0277283
0.0277303
0.0277281
0.0277305
0.0277278
0.0277309
0.0277275
0.0277315
0.0277274
0.0277324
0.0277279
0.0277348
0.0277308
0.0277432
0.0111748
0.40012
0.426317
0.922668
0.505078
0.106703
0.034699
0.0355307
0.0410771
0.0471323
0.0457419
0.0434497
0.0427446
0.0419663
0.0406212
0.0391327
0.0377424
0.0363755
0.0349154
0.0333787
0.0319044
0.0306512
0.0297058
0.0290537
0.0286158
0.0283139
0.028105
0.0279633
0.0278701
0.0278119
0.0277777
0.0277586
0.0277483
0.027743
0.0277402
0.0277388
0.027738
0.0277377
0.0277375
0.0277374
0.0277373
0.0277373
0.0277373
0.0277373
0.0277373
0.0277373
0.0277373
0.0277373
0.0277373
0.0277373
0.0277373
0.0277373
0.0277373
0.0277373
0.0277373
0.0277373
0.0277373
0.0277373
0.0277373
0.0277373
0.0277373
0.0277373
0.0277373
0.0277373
0.0277373
0.0277373
0.0277373
0.0277373
0.0277373
0.0277373
0.0277373
0.0277373
0.0277373
0.0277373
0.0277373
0.0277373
0.0277373
0.0277372
0.0277373
0.0277372
0.0277373
0.0277373
0.0277372
0.0277375
0.0277368
0.027738
0.0277363
0.0277384
0.027736
0.0277387
0.0277358
0.0277391
0.0277354
0.0277398
0.0277354
0.027741
0.0277364
0.0277441
0.0277404
0.0277548
0.0258356
0.0937038
0.118409
0.294382
0.107209
0.0259037
0.0320831
0.0389851
0.0406154
0.0458791
0.0463982
0.0433456
0.0416297
0.040876
0.0399096
0.0386588
0.0373556
0.0360341
0.0346281
0.0331518
0.0317276
0.0305057
0.0295773
0.0289414
0.0285288
0.0282573
0.0280748
0.0279514
0.027868
0.0278133
0.0277794
0.0277597
0.0277487
0.0277427
0.0277396
0.0277379
0.0277371
0.0277367
0.0277365
0.0277364
0.0277363
0.0277363
0.0277363
0.0277363
0.0277363
0.0277363
0.0277363
0.0277363
0.0277363
0.0277363
0.0277363
0.0277363
0.0277363
0.0277363
0.0277363
0.0277363
0.0277363
0.0277363
0.0277363
0.0277363
0.0277363
0.0277363
0.0277363
0.0277363
0.0277363
0.0277363
0.0277363
0.0277363
0.0277363
0.0277363
0.0277363
0.0277363
0.0277363
0.0277363
0.0277363
0.0277363
0.0277363
0.0277362
0.0277363
0.0277362
0.0277363
0.0277363
0.0277362
0.0277365
0.0277358
0.027737
0.0277354
0.0277373
0.0277351
0.0277376
0.0277349
0.0277379
0.0277347
0.0277386
0.0277347
0.0277396
0.0277358
0.0277427
0.0277399
0.0277533
0.0514928
0.0335464
0.0426552
0.0662985
0.0274953
0.0301585
0.037331
0.0391806
0.0398411
0.0436446
0.0466984
0.0447542
0.0419431
0.0403201
0.0392543
0.0381901
0.0370452
0.0358063
0.0344406
0.03299
0.031587
0.0303806
0.0294603
0.0288303
0.0284306
0.0281805
0.0280189
0.0279118
0.0278398
0.0277924
0.0277627
0.0277451
0.0277352
0.0277299
0.0277271
0.0277256
0.0277248
0.0277244
0.0277242
0.0277241
0.0277241
0.0277241
0.027724
0.027724
0.027724
0.027724
0.027724
0.027724
0.027724
0.027724
0.027724
0.027724
0.027724
0.027724
0.027724
0.027724
0.027724
0.027724
0.027724
0.027724
0.027724
0.027724
0.027724
0.027724
0.027724
0.027724
0.027724
0.027724
0.027724
0.027724
0.027724
0.027724
0.027724
0.027724
0.027724
0.027724
0.027724
0.027724
0.0277241
0.027724
0.0277241
0.027724
0.027724
0.0277242
0.0277236
0.0277246
0.0277233
0.027725
0.0277231
0.0277251
0.0277229
0.0277254
0.0277227
0.0277259
0.0277228
0.0277268
0.0277237
0.0277293
0.0277271
0.0277384
0.0362779
0.0334025
0.0340276
0.0310989
0.0250956
0.0308979
0.0367299
0.0364962
0.0379632
0.03902
0.0422836
0.0436368
0.0423592
0.0406063
0.0392427
0.0381501
0.0370974
0.0359199
0.0345462
0.0330423
0.031579
0.0303284
0.029383
0.0287419
0.0283428
0.0281038
0.0279568
0.0278626
0.0278013
0.0277622
0.0277384
0.0277245
0.0277167
0.0277124
0.0277101
0.027709
0.0277084
0.0277081
0.027708
0.0277079
0.0277079
0.0277078
0.0277078
0.0277078
0.0277078
0.0277078
0.0277078
0.0277078
0.0277078
0.0277078
0.0277078
0.0277078
0.0277078
0.0277078
0.0277078
0.0277078
0.0277078
0.0277078
0.0277078
0.0277078
0.0277078
0.0277078
0.0277078
0.0277078
0.0277078
0.0277078
0.0277078
0.0277078
0.0277078
0.0277078
0.0277078
0.0277078
0.0277078
0.0277078
0.0277078
0.0277078
0.0277078
0.0277078
0.0277078
0.0277078
0.0277078
0.0277078
0.0277077
0.027708
0.0277075
0.0277083
0.0277072
0.0277086
0.027707
0.0277087
0.0277069
0.027709
0.0277067
0.0277093
0.0277067
0.02771
0.0277073
0.0277119
0.02771
0.0277192
0.0261396
0.0334406
0.0298606
0.0303527
0.0292406
0.0338708
0.0380344
0.0335068
0.0374787
0.0398844
0.039601
0.0400317
0.0398811
0.0389368
0.0379518
0.0372532
0.0366738
0.0359007
0.0347549
0.0332996
0.0317715
0.0304214
0.0293923
0.0286992
0.0282767
0.0280349
0.0278967
0.027814
0.0277631
0.0277321
0.027714
0.027704
0.0276986
0.0276958
0.0276944
0.0276936
0.0276932
0.027693
0.0276929
0.0276928
0.0276928
0.0276928
0.0276928
0.0276928
0.0276928
0.0276928
0.0276928
0.0276928
0.0276928
0.0276928
0.0276928
0.0276928
0.0276928
0.0276928
0.0276928
0.0276928
0.0276928
0.0276928
0.0276928
0.0276928
0.0276928
0.0276928
0.0276928
0.0276928
0.0276928
0.0276928
0.0276928
0.0276928
0.0276928
0.0276928
0.0276928
0.0276928
0.0276928
0.0276928
0.0276928
0.0276928
0.0276928
0.0276928
0.0276928
0.0276928
0.0276928
0.0276928
0.0276927
0.0276929
0.0276925
0.0276932
0.0276923
0.0276934
0.0276921
0.0276935
0.0276921
0.0276937
0.0276919
0.027694
0.0276919
0.0276944
0.0276922
0.0276956
0.0276939
0.027701
0.0260738
0.0304902
0.0264653
0.0322153
0.0272571
0.0314436
0.035608
0.0296088
0.0356201
0.0417485
0.0414557
0.0400913
0.0393846
0.0384503
0.0372748
0.0363714
0.0358443
0.0353564
0.0345646
0.0333957
0.0320239
0.0307039
0.0296241
0.0288504
0.0283526
0.0280573
0.0278893
0.027794
0.02774
0.0277101
0.0276942
0.0276861
0.027682
0.0276801
0.0276792
0.0276787
0.0276786
0.0276785
0.0276784
0.0276784
0.0276784
0.0276784
0.0276784
0.0276784
0.0276784
0.0276784
0.0276784
0.0276784
0.0276784
0.0276784
0.0276784
0.0276784
0.0276784
0.0276784
0.0276784
0.0276784
0.0276784
0.0276784
0.0276784
0.0276784
0.0276784
0.0276784
0.0276784
0.0276784
0.0276784
0.0276784
0.0276784
0.0276784
0.0276784
0.0276784
0.0276784
0.0276784
0.0276784
0.0276784
0.0276784
0.0276784
0.0276784
0.0276784
0.0276784
0.0276784
0.0276784
0.0276784
0.0276784
0.0276785
0.0276782
0.0276787
0.0276781
0.0276788
0.027678
0.0276788
0.0276779
0.0276789
0.0276778
0.0276791
0.0276777
0.0276793
0.0276777
0.0276798
0.0276784
0.027683
0.0246668
0.0315246
0.0241897
0.0326813
0.0253484
0.0338962
0.0328671
0.0266438
0.0463515
0.0557036
0.0512887
0.0447674
0.04062
0.0385374
0.0373674
0.036441
0.0355038
0.0344611
0.0332972
0.032072
0.0308959
0.0298801
0.0290902
0.0285326
0.0281708
0.027951
0.0278226
0.0277481
0.0277055
0.0276821
0.0276699
0.027664
0.0276612
0.02766
0.0276595
0.0276593
0.0276593
0.0276592
0.0276592
0.0276592
0.0276592
0.0276592
0.0276592
0.0276592
0.0276592
0.0276592
0.0276592
0.0276592
0.0276592
0.0276592
0.0276592
0.0276592
0.0276592
0.0276592
0.0276592
0.0276592