/*--------------------------------*- C++ -*----------------------------------*\
| =========                 |                                                 |
| \\      /  F ield         | OpenFOAM: The Open Source CFD Toolbox           |
|  \\    /   O peration     | Version:  v2012                                 |
|   \\  /    A nd           | Website:  www.openfoam.com                      |
|    \\/     M anipulation  |                                                 |
\*---------------------------------------------------------------------------*/
FoamFile
{
    version     2.0;
    format      ascii;
    class       volScalarField;
    location    "0.053";
    object      p;
}
// * * * * * * * * * * * * * * * * * * * * * * * * * * * * * * * * * * * * * //

dimensions      [0 2 -2 0 0 0 0];


internalField   nonuniform List<scalar> 
5600
(
-0.851529
-1.30968
-1.69007
-2.0086
-2.31957
-2.62982
-2.93102
-3.21281
-3.47589
-3.72575
-3.96259
-4.18765
-4.40157
-4.60707
-4.80742
-5.00434
-5.19742
-5.38704
-5.57361
-5.75711
-5.93878
-6.11794
-6.29443
-6.46957
-6.64299
-6.81311
-6.97916
-7.14109
-7.29926
-7.45443
-7.60772
-7.75964
-7.91054
-8.06077
-8.21078
-8.36092
-8.51131
-8.66197
-8.81282
-8.96376
-9.11478
-9.26583
-9.41692
-9.56802
-9.71913
-9.87025
-10.0214
-10.1725
-10.3236
-10.4747
-10.6259
-10.777
-10.9281
-11.0792
-11.2303
-11.3815
-11.5326
-11.6837
-11.8348
-11.9859
-12.1371
-12.2882
-12.4393
-12.5904
-12.7415
-12.8927
-13.0437
-13.195
-13.3459
-13.4973
-13.6481
-13.7996
-13.9503
-14.1018
-14.2526
-14.4041
-14.5546
-14.7068
-14.8562
-15.0098
-15.1581
-15.3114
-15.4628
-15.6097
-15.7691
-15.9077
-16.0731
-16.2134
-16.3673
-16.5278
-16.6609
-16.8358
-16.9559
-17.1292
-17.2651
-17.3966
-17.5204
-17.5664
-17.4899
-16.6917
-0.910564
-1.32986
-1.70668
-2.02642
-2.33756
-2.64814
-2.94928
-3.23134
-3.49477
-3.74467
-3.98173
-4.20711
-4.42137
-4.62722
-4.8279
-5.02514
-5.21852
-5.4084
-5.59514
-5.77873
-5.96064
-6.13992
-6.31647
-6.49177
-6.66539
-6.83573
-7.00209
-7.1641
-7.32244
-7.47776
-7.63102
-7.78281
-7.93368
-8.08388
-8.23387
-8.38402
-8.53441
-8.68509
-8.83594
-8.98689
-9.13791
-9.28897
-9.44006
-9.59116
-9.74227
-9.89339
-10.0445
-10.1956
-10.3467
-10.4979
-10.649
-10.8001
-10.9512
-11.1024
-11.2535
-11.4046
-11.5557
-11.7068
-11.858
-12.0091
-12.1602
-12.3113
-12.4624
-12.6136
-12.7647
-12.9158
-13.0669
-13.2181
-13.3691
-13.5204
-13.6713
-13.8227
-13.9735
-14.1249
-14.2758
-14.4272
-14.5778
-14.7298
-14.8796
-15.0325
-15.1817
-15.3341
-15.4861
-15.6333
-15.7912
-15.9325
-16.0941
-16.2385
-16.3901
-16.5502
-16.6865
-16.8544
-16.983
-17.1496
-17.2919
-17.4175
-17.5457
-17.5857
-17.5221
-16.7816
-0.94881
-1.34249
-1.71942
-2.03979
-2.34878
-2.65684
-2.95691
-3.23857
-3.50173
-3.75136
-3.98814
-4.21352
-4.42784
-4.63376
-4.83449
-5.03169
-5.22503
-5.41496
-5.60173
-5.7853
-5.96707
-6.1464
-6.32324
-6.49865
-6.67227
-6.84252
-7.0085
-7.17069
-7.32882
-7.48386
-7.63738
-7.78957
-7.9407
-8.09094
-8.241
-8.39113
-8.54148
-8.69212
-8.84295
-8.99388
-9.14489
-9.29594
-9.44702
-9.59812
-9.74923
-9.90035
-10.0515
-10.2026
-10.3537
-10.5048
-10.6559
-10.8071
-10.9582
-11.1093
-11.2604
-11.4116
-11.5627
-11.7138
-11.8649
-12.016
-12.1672
-12.3183
-12.4694
-12.6205
-12.7716
-12.9228
-13.0739
-13.2251
-13.3761
-13.5274
-13.6783
-13.8296
-13.9805
-14.1318
-14.2828
-14.4341
-14.5848
-14.7368
-14.8865
-15.0394
-15.1887
-15.3409
-15.4932
-15.64
-15.7979
-15.9399
-16.1004
-16.2459
-16.396
-16.5567
-16.6953
-16.859
-16.9949
-17.1517
-17.3
-17.4283
-17.5581
-17.6039
-17.545
-16.936
-0.997534
-1.35897
-1.7348
-2.05664
-2.36434
-2.67147
-2.97193
-3.25419
-3.51796
-3.76799
-4.00532
-4.23064
-4.44548
-4.65169
-4.85244
-5.0495
-5.24259
-5.43235
-5.6189
-5.80222
-5.98379
-6.16295
-6.33975
-6.51528
-6.68935
-6.86023
-7.02708
-7.18983
-7.34857
-7.50435
-7.65806
-7.80944
-7.9602
-8.11029
-8.26035
-8.41052
-8.56094
-8.71163
-8.86249
-9.01345
-9.16447
-9.31553
-9.46662
-9.61773
-9.76884
-9.91996
-10.0711
-10.2222
-10.3733
-10.5244
-10.6756
-10.8267
-10.9778
-11.1289
-11.28
-11.4312
-11.5823
-11.7334
-11.8845
-12.0357
-12.1868
-12.3379
-12.489
-12.6401
-12.7913
-12.9424
-13.0935
-13.2446
-13.3957
-13.5469
-13.698
-13.8491
-14.0002
-14.1514
-14.3025
-14.4537
-14.6046
-14.756
-14.9068
-15.0582
-15.2092
-15.3603
-15.5121
-15.6623
-15.8139
-15.9642
-16.1162
-16.2675
-16.419
-16.5718
-16.722
-16.8713
-17.021
-17.1733
-17.3207
-17.4524
-17.5762
-17.6353
-17.5829
-17.1391
-1.04716
-1.37609
-1.75054
-2.07484
-2.38093
-2.68722
-2.98741
-3.26946
-3.53322
-3.78313
-4.02069
-4.24565
-4.46069
-4.66725
-4.86824
-5.06545
-5.2586
-5.44841
-5.6352
-5.81864
-6.00016
-6.1794
-6.35617
-6.53153
-6.70521
-6.87576
-7.04249
-7.20506
-7.36339
-7.51869
-7.67134
-7.82448
-7.9756
-8.12587
-8.27594
-8.42605
-8.57641
-8.72705
-8.87787
-9.0288
-9.17981
-9.33086
-9.48194
-9.63304
-9.78415
-9.93527
-10.0864
-10.2375
-10.3886
-10.5397
-10.6909
-10.842
-10.9931
-11.1442
-11.2954
-11.4465
-11.5976
-11.7487
-11.8998
-12.051
-12.2021
-12.3532
-12.5043
-12.6554
-12.8066
-12.9577
-13.1088
-13.2599
-13.4111
-13.5621
-13.7134
-13.8644
-14.0156
-14.1666
-14.3179
-14.4688
-14.6202
-14.771
-14.9225
-15.0731
-15.2248
-15.3756
-15.5269
-15.6785
-15.8272
-15.981
-16.1307
-16.2832
-16.4335
-16.5849
-16.7396
-16.8845
-17.0391
-17.1859
-17.3343
-17.4703
-17.5951
-17.671
-17.6375
-17.3697
-1.09719
-1.39541
-1.76783
-2.09511
-2.39954
-2.70487
-3.00472
-3.28677
-3.55072
-3.80089
-4.03869
-4.26392
-4.47922
-4.68617
-4.88738
-5.08462
-5.27787
-5.46763
-5.6544
-5.83798
-6.01938
-6.19867
-6.37551
-6.55087
-6.72445
-6.89504
-7.06195
-7.22474
-7.38356
-7.53957
-7.69352
-7.84472
-7.99591
-8.14608
-8.2961
-8.44628
-8.59671
-8.74737
-8.89821
-9.04916
-9.20017
-9.35123
-9.50232
-9.65342
-9.80453
-9.95565
-10.1068
-10.2579
-10.409
-10.5601
-10.7113
-10.8624
-11.0135
-11.1646
-11.3157
-11.4669
-11.618
-11.7691
-11.9202
-12.0713
-12.2225
-12.3736
-12.5247
-12.6758
-12.827
-12.9781
-13.1292
-13.2803
-13.4315
-13.5825
-13.7337
-13.8848
-14.036
-14.187
-14.3382
-14.4892
-14.6406
-14.7913
-14.943
-15.0935
-15.2451
-15.3962
-15.5468
-15.6994
-15.8476
-16.0021
-16.1514
-16.3034
-16.4553
-16.6045
-16.7607
-16.906
-17.0606
-17.2102
-17.3571
-17.4932
-17.621
-17.7108
-17.7144
-17.6091
-1.14661
-1.41723
-1.7869
-2.11741
-2.42035
-2.72466
-3.02423
-3.30634
-3.57045
-3.82078
-4.05869
-4.28412
-4.49951
-4.70668
-4.90804
-5.1053
-5.29863
-5.4884
-5.67513
-5.85879
-6.04024
-6.21957
-6.39654
-6.57197
-6.74548
-6.91581
-7.08245
-7.24507
-7.40372
-7.5593
-7.7121
-7.86503
-8.01646
-8.16666
-8.31668
-8.46686
-8.61726
-8.76787
-8.91867
-9.0696
-9.2206
-9.37165
-9.52273
-9.67383
-9.82494
-9.97606
-10.1272
-10.2783
-10.4294
-10.5805
-10.7317
-10.8828
-11.0339
-11.185
-11.3361
-11.4873
-11.6384
-11.7895
-11.9406
-12.0918
-12.2429
-12.394
-12.5451
-12.6962
-12.8474
-12.9985
-13.1496
-13.3007
-13.4519
-13.6029
-13.7541
-13.9052
-14.0564
-14.2074
-14.3586
-14.5096
-14.661
-14.8118
-14.9633
-15.114
-15.2655
-15.4165
-15.5674
-15.7195
-15.8683
-16.0222
-16.1718
-16.3237
-16.4749
-16.6252
-16.7802
-16.9265
-17.0805
-17.2291
-17.3765
-17.5188
-17.6521
-17.7555
-17.8064
-17.8459
-1.19358
-1.44172
-1.80832
-2.14187
-2.4436
-2.74692
-3.04629
-3.32845
-3.59268
-3.84312
-4.08112
-4.30674
-4.52223
-4.72963
-4.93116
-5.12847
-5.3219
-5.51172
-5.69841
-5.88214
-6.06363
-6.24298
-6.42002
-6.59549
-6.76887
-6.93905
-7.1057
-7.26843
-7.4273
-7.58354
-7.73677
-7.88919
-8.04044
-8.19066
-8.34071
-8.49097
-8.64143
-8.79205
-8.94286
-9.09379
-9.2448
-9.39585
-9.54693
-9.69803
-9.84914
-10.0003
-10.1514
-10.3025
-10.4536
-10.6047
-10.7559
-10.907
-11.0581
-11.2092
-11.3603
-11.5115
-11.6626
-11.8137
-11.9648
-12.116
-12.2671
-12.4182
-12.5693
-12.7204
-12.8716
-13.0227
-13.1738
-13.3249
-13.4761
-13.6272
-13.7783
-13.9294
-14.0806
-14.2316
-14.3828
-14.5339
-14.6851
-14.836
-14.9874
-15.1383
-15.2896
-15.4408
-15.5917
-15.7435
-15.893
-16.0459
-16.1965
-16.3479
-16.4996
-16.65
-16.804
-16.9523
-17.1049
-17.2559
-17.4044
-17.5477
-17.687
-17.8077
-17.9089
-18.0796
-1.23656
-1.46879
-1.83266
-2.16866
-2.4695
-2.772
-3.07123
-3.3534
-3.61773
-3.86826
-4.10632
-4.33211
-4.54771
-4.75526
-4.9569
-5.15424
-5.34774
-5.53759
-5.72423
-5.90799
-6.08951
-6.26884
-6.44593
-6.62146
-6.7948
-6.96485
-7.13144
-7.29412
-7.45292
-7.6081
-7.76185
-7.91451
-8.06594
-8.21622
-8.36623
-8.51649
-8.66696
-8.81756
-8.96835
-9.11928
-9.27028
-9.42132
-9.5724
-9.7235
-9.87461
-10.0257
-10.1768
-10.328
-10.4791
-10.6302
-10.7813
-10.9324
-11.0836
-11.2347
-11.3858
-11.5369
-11.6881
-11.8392
-11.9903
-12.1414
-12.2925
-12.4437
-12.5948
-12.7459
-12.897
-13.0481
-13.1993
-13.3504
-13.5015
-13.6526
-13.8038
-13.9549
-14.106
-14.2571
-14.4083
-14.5593
-14.7106
-14.8615
-15.0129
-15.1638
-15.3151
-15.4662
-15.6172
-15.7688
-15.9187
-16.0712
-16.2219
-16.3733
-16.5248
-16.6755
-16.829
-16.9776
-17.1302
-17.2814
-17.4313
-17.5792
-17.726
-17.8668
-18.019
-18.3048
-1.27374
-1.49798
-1.86051
-2.19793
-2.49824
-2.8003
-3.09949
-3.38161
-3.646
-3.89661
-4.13471
-4.36058
-4.57624
-4.78386
-4.98557
-5.18293
-5.37647
-5.56637
-5.75299
-5.93678
-6.1183
-6.29761
-6.47472
-6.65032
-6.82363
-6.9936
-7.16016
-7.32283
-7.4818
-7.6377
-7.79144
-7.9438
-8.0953
-8.24559
-8.39563
-8.54592
-8.69641
-8.84699
-8.99777
-9.14869
-9.29969
-9.45073
-9.60181
-9.75291
-9.90402
-10.0551
-10.2063
-10.3574
-10.5085
-10.6596
-10.8107
-10.9619
-11.113
-11.2641
-11.4152
-11.5663
-11.7175
-11.8686
-12.0197
-12.1708
-12.322
-12.4731
-12.6242
-12.7753
-12.9264
-13.0776
-13.2287
-13.3798
-13.5309
-13.682
-13.8332
-13.9843
-14.1354
-14.2865
-14.4377
-14.5888
-14.74
-14.891
-15.0422
-15.1932
-15.3445
-15.4956
-15.6466
-15.7981
-15.9484
-16.1004
-16.2515
-16.4027
-16.5543
-16.7054
-16.8581
-17.0082
-17.1605
-17.3128
-17.4641
-17.6149
-17.7702
-17.9327
-18.1351
-18.5175
-1.3011
-1.52727
-1.89093
-2.22827
-2.52847
-2.83069
-3.12995
-3.41194
-3.67632
-3.92701
-4.16508
-4.39095
-4.60659
-4.81418
-5.01593
-5.21329
-5.40683
-5.59676
-5.78337
-5.96717
-6.14868
-6.32793
-6.50503
-6.68067
-6.854
-7.02394
-7.1905
-7.35314
-7.51198
-7.6676
-7.82117
-7.97355
-8.12503
-8.27528
-8.42528
-8.57558
-8.72611
-8.87672
-9.02751
-9.17843
-9.32943
-9.48048
-9.63156
-9.78265
-9.93376
-10.0849
-10.236
-10.3871
-10.5382
-10.6894
-10.8405
-10.9916
-11.1427
-11.2938
-11.445
-11.5961
-11.7472
-11.8983
-12.0495
-12.2006
-12.3517
-12.5028
-12.6539
-12.8051
-12.9562
-13.1073
-13.2584
-13.4095
-13.5607
-13.7118
-13.8629
-14.014
-14.1652
-14.3163
-14.4674
-14.6185
-14.7697
-14.9207
-15.072
-15.223
-15.3742
-15.5254
-15.6764
-15.8278
-15.9783
-16.1301
-16.2813
-16.4324
-16.584
-16.7352
-16.8876
-17.038
-17.1902
-17.343
-17.4961
-17.6514
-17.8159
-17.9998
-18.2477
-18.7047
-1.31589
-1.55392
-1.92098
-2.25674
-2.55725
-2.86023
-3.15967
-3.44143
-3.70577
-3.95651
-4.19451
-4.42027
-4.63581
-4.8433
-5.04503
-5.24238
-5.43587
-5.62582
-5.81242
-5.99622
-6.17772
-6.35687
-6.53394
-6.70959
-6.88296
-7.05298
-7.21957
-7.38221
-7.54106
-7.69681
-7.85049
-8.00307
-8.15449
-8.30482
-8.45487
-8.6051
-8.75553
-8.90612
-9.0569
-9.20782
-9.35882
-9.50987
-9.66095
-9.81204
-9.96315
-10.1143
-10.2654
-10.4165
-10.5676
-10.7187
-10.8699
-11.021
-11.1721
-11.3232
-11.4744
-11.6255
-11.7766
-11.9277
-12.0788
-12.23
-12.3811
-12.5322
-12.6833
-12.8345
-12.9856
-13.1367
-13.2878
-13.4389
-13.5901
-13.7412
-13.8923
-14.0434
-14.1946
-14.3457
-14.4968
-14.6479
-14.7991
-14.9502
-15.1013
-15.2524
-15.4036
-15.5547
-15.7058
-15.8571
-16.0079
-16.1594
-16.3107
-16.4619
-16.6134
-16.7648
-16.9169
-17.0681
-17.2204
-17.3741
-17.5288
-17.6869
-17.8594
-18.0615
-18.3458
-18.8546
-1.3196
-1.57749
-1.94902
-2.28208
-2.58331
-2.8874
-3.18709
-3.46857
-3.73285
-3.98362
-4.22152
-4.4471
-4.66251
-4.8698
-5.07149
-5.26878
-5.4622
-5.65219
-5.83879
-6.02259
-6.20406
-6.38309
-6.5601
-6.73576
-6.90919
-7.07932
-7.24597
-7.40857
-7.5673
-7.72288
-7.87634
-8.02878
-8.17998
-8.33013
-8.48012
-8.63043
-8.78094
-8.93158
-9.08238
-9.23331
-9.38431
-9.53537
-9.68645
-9.83755
-9.98866
-10.1398
-10.2909
-10.442
-10.5931
-10.7443
-10.8954
-11.0465
-11.1976
-11.3487
-11.4999
-11.651
-11.8021
-11.9532
-12.1043
-12.2555
-12.4066
-12.5577
-12.7088
-12.86
-13.0111
-13.1622
-13.3133
-13.4644
-13.6156
-13.7667
-13.9178
-14.0689
-14.2201
-14.3712
-14.5223
-14.6734
-14.8246
-14.9757
-15.1268
-15.2779
-15.4291
-15.5802
-15.7313
-15.8826
-16.0334
-16.1849
-16.3362
-16.4874
-16.6389
-16.7904
-16.9424
-17.0937
-17.2459
-17.3998
-17.5556
-17.7174
-17.8971
-18.1139
-18.426
-18.9694
-1.31452
-1.59882
-1.97498
-2.30474
-2.60702
-2.91238
-3.21236
-3.4935
-3.7577
-4.00846
-4.24622
-4.47163
-4.68688
-4.89394
-5.09555
-5.29275
-5.48609
-5.67614
-5.86274
-6.0465
-6.22792
-6.40684
-6.58378
-6.75946
-6.93303
-7.10328
-7.26995
-7.43253
-7.59124
-7.74685
-7.90042
-8.05295
-8.20429
-8.35456
-8.50465
-8.65477
-8.80515
-8.95575
-9.10654
-9.25746
-9.40846
-9.55951
-9.71059
-9.86169
-10.0128
-10.1639
-10.315
-10.4662
-10.6173
-10.7684
-10.9195
-11.0706
-11.2218
-11.3729
-11.524
-11.6751
-11.8262
-11.9774
-12.1285
-12.2796
-12.4307
-12.5819
-12.733
-12.8841
-13.0352
-13.1863
-13.3375
-13.4886
-13.6397
-13.7908
-13.942
-14.0931
-14.2442
-14.3953
-14.5464
-14.6976
-14.8487
-14.9998
-15.151
-15.3021
-15.4532
-15.6044
-15.7555
-15.9067
-16.0577
-16.209
-16.3604
-16.5116
-16.663
-16.8146
-16.9665
-17.1183
-17.2706
-17.4254
-17.583
-17.7456
-17.9308
-18.1589
-18.4919
-19.0589
-1.30319
-1.61828
-1.9986
-2.32496
-2.62857
-2.93527
-3.23564
-3.51644
-3.78056
-4.03124
-4.26883
-4.49402
-4.70907
-4.91584
-5.11737
-5.31446
-5.50771
-5.69781
-5.88441
-6.06813
-6.24942
-6.42819
-6.60504
-6.78071
-6.95439
-7.12496
-7.29177
-7.4542
-7.61269
-7.76806
-7.92138
-8.07357
-8.2247
-8.37483
-8.52476
-8.67497
-8.82547
-8.97615
-9.12698
-9.27792
-9.42893
-9.57998
-9.73107
-9.88217
-10.0333
-10.1844
-10.3355
-10.4866
-10.6378
-10.7889
-10.94
-11.0911
-11.2422
-11.3934
-11.5445
-11.6956
-11.8467
-11.9978
-12.149
-12.3001
-12.4512
-12.6023
-12.7535
-12.9046
-13.0557
-13.2068
-13.3579
-13.5091
-13.6602
-13.8113
-13.9624
-14.1136
-14.2647
-14.4158
-14.5669
-14.718
-14.8692
-15.0203
-15.1714
-15.3226
-15.4737
-15.6249
-15.776
-15.9271
-16.0782
-16.2295
-16.3809
-16.5321
-16.6835
-16.8352
-16.9869
-17.1389
-17.2909
-17.4459
-17.603
-17.7698
-17.9595
-18.1968
-18.5455
-19.1288
-1.28766
-1.63626
-2.01982
-2.34313
-2.64814
-2.95605
-3.25686
-3.53738
-3.80149
-4.05205
-4.28952
-4.51458
-4.7293
-4.93575
-5.13722
-5.33422
-5.52745
-5.71757
-5.90415
-6.08807
-6.26919
-6.44779
-6.62454
-6.80025
-6.97403
-7.14466
-7.31156
-7.47401
-7.63252
-7.78799
-7.94146
-8.0938
-8.24506
-8.39534
-8.54545
-8.69555
-8.84589
-8.99651
-9.14731
-9.29824
-9.44924
-9.60029
-9.75138
-9.90248
-10.0536
-10.2047
-10.3558
-10.5069
-10.6581
-10.8092
-10.9603
-11.1114
-11.2625
-11.4137
-11.5648
-11.7159
-11.867
-12.0182
-12.1693
-12.3204
-12.4715
-12.6226
-12.7738
-12.9249
-13.076
-13.2271
-13.3783
-13.5294
-13.6805
-13.8316
-13.9827
-14.1339
-14.285
-14.4361
-14.5872
-14.7384
-14.8895
-15.0406
-15.1917
-15.3429
-15.494
-15.6452
-15.7963
-15.9475
-16.0985
-16.2498
-16.4012
-16.5524
-16.7039
-16.8554
-17.0074
-17.1593
-17.3119
-17.4676
-17.6256
-17.7932
-17.9846
-18.2292
-18.5889
-19.1838
-1.26893
-1.65295
-2.03888
-2.35998
-2.66633
-2.97513
-3.27613
-3.55621
-3.82029
-4.07057
-4.30776
-4.53313
-4.74734
-4.95335
-5.15455
-5.35142
-5.54462
-5.73461
-5.92103
-6.10503
-6.28604
-6.46466
-6.64154
-6.8175
-6.99156
-7.16207
-7.32872
-7.49089
-7.64906
-7.80415
-7.95727
-8.1094
-8.26042
-8.41044
-8.5604
-8.71059
-8.86106
-9.01177
-9.16262
-9.31357
-9.46459
-9.61565
-9.76673
-9.91784
-10.0689
-10.2201
-10.3712
-10.5223
-10.6734
-10.8245
-10.9757
-11.1268
-11.2779
-11.429
-11.5802
-11.7313
-11.8824
-12.0335
-12.1846
-12.3358
-12.4869
-12.638
-12.7891
-12.9403
-13.0914
-13.2425
-13.3936
-13.5447
-13.6959
-13.847
-13.9981
-14.1492
-14.3004
-14.4515
-14.6026
-14.7537
-14.9049
-15.056
-15.2071
-15.3582
-15.5094
-15.6605
-15.8116
-15.9628
-16.1138
-16.2652
-16.4165
-16.5677
-16.7193
-16.8706
-17.023
-17.1742
-17.3274
-17.4822
-17.6392
-17.8115
-18.0049
-18.2559
-18.6225
-19.2259
-1.24807
-1.66729
-2.05447
-2.37492
-2.68321
-2.99362
-3.29493
-3.57456
-3.83867
-4.08876
-4.32577
-4.55141
-4.76527
-4.97105
-5.17225
-5.36934
-5.56278
-5.75311
-5.93985
-6.12405
-6.3053
-6.48407
-6.66109
-6.83696
-7.01074
-7.18096
-7.34744
-7.50962
-7.66791
-7.8232
-7.97653
-8.1288
-8.28001
-8.43035
-8.58033
-8.73047
-8.88083
-9.03146
-9.18228
-9.3332
-9.4842
-9.63525
-9.78634
-9.93744
-10.0885
-10.2397
-10.3908
-10.5419
-10.693
-10.8441
-10.9953
-11.1464
-11.2975
-11.4486
-11.5997
-11.7509
-11.902
-12.0531
-12.2042
-12.3554
-12.5065
-12.6576
-12.8087
-12.9598
-13.111
-13.2621
-13.4132
-13.5643
-13.7155
-13.8666
-14.0177
-14.1688
-14.3199
-14.4711
-14.6222
-14.7733
-14.9244
-15.0756
-15.2267
-15.3778
-15.529
-15.6801
-15.8312
-15.9824
-16.1334
-16.2848
-16.436
-16.5875
-16.7389
-16.8902
-17.0428
-17.1937
-17.3479
-17.502
-17.6621
-17.832
-18.0249
-18.2787
-18.6486
-19.2572
-1.23347
-1.68186
-2.06672
-2.38445
-2.69357
-3.00577
-3.30758
-3.58668
-3.85097
-4.101
-4.33793
-4.56325
-4.77688
-4.98247
-5.18359
-5.38067
-5.57399
-5.76414
-5.95066
-6.13473
-6.3157
-6.49402
-6.67075
-6.84635
-7.01988
-7.18981
-7.35594
-7.51778
-7.67574
-7.83073
-7.98381
-8.13591
-8.28695
-8.43717
-8.58708
-8.73724
-8.88765
-9.03834
-9.18918
-9.34012
-9.49113
-9.64219
-9.79328
-9.94438
-10.0955
-10.2466
-10.3977
-10.5488
-10.7
-10.8511
-11.0022
-11.1533
-11.3045
-11.4556
-11.6067
-11.7578
-11.9089
-12.0601
-12.2112
-12.3623
-12.5134
-12.6645
-12.8157
-12.9668
-13.1179
-13.269
-13.4202
-13.5713
-13.7224
-13.8735
-14.0246
-14.1758
-14.3269
-14.478
-14.6291
-14.7803
-14.9314
-15.0825
-15.2337
-15.3848
-15.5359
-15.6871
-15.8382
-15.9894
-16.1403
-16.2918
-16.443
-16.5944
-16.7458
-16.8972
-17.0497
-17.2006
-17.3547
-17.5085
-17.6681
-17.8392
-18.0348
-18.2918
-18.6641
-19.2758
-1.203
-1.69669
-2.09034
-2.40859
-2.71791
-3.03064
-3.33319
-3.61132
-3.87594
-4.12609
-4.3629
-4.58803
-4.80146
-5.00677
-5.20761
-5.40446
-5.59759
-5.7876
-5.97405
-6.15802
-6.33904
-6.51739
-6.69406
-6.86957
-7.04299
-7.21285
-7.37893
-7.54075
-7.69873
-7.85375
-8.00689
-8.15902
-8.31009
-8.46034
-8.61029
-8.76044
-8.91084
-9.06151
-9.21235
-9.36328
-9.51429
-9.66535
-9.81643
-9.96753
-10.1186
-10.2698
-10.4209
-10.572
-10.7231
-10.8742
-11.0254
-11.1765
-11.3276
-11.4787
-11.6298
-11.781
-11.9321
-12.0832
-12.2343
-12.3855
-12.5366
-12.6877
-12.8388
-12.9899
-13.1411
-13.2922
-13.4433
-13.5944
-13.7456
-13.8967
-14.0478
-14.1989
-14.35
-14.5012
-14.6523
-14.8034
-14.9545
-15.1057
-15.2568
-15.4079
-15.5591
-15.7102
-15.8613
-16.0125
-16.1635
-16.315
-16.4661
-16.6176
-16.7689
-16.9204
-17.0729
-17.2237
-17.3781
-17.5316
-17.6921
-17.8623
-18.0576
-18.3136
-18.6854
-19.2966
-17.2016
-22.5387
-28.8918
-32.6624
-33.9466
-29.3302
-17.9775
-7.63642
-2.17054
0.411763
1.46934
1.97117
2.32484
2.60398
2.80956
2.94087
3.01857
3.06182
3.08061
3.08222
3.07132
3.04838
3.01318
2.97576
2.94278
2.91085
2.87762
2.83949
2.80188
2.76545
2.72778
2.68987
2.65182
2.61367
2.57542
2.53714
2.49883
2.4605
2.42216
2.38381
2.34546
2.30711
2.26876
2.23041
2.19205
2.1537
2.11535
2.077
2.03864
2.00029
1.96194
1.92359
1.88523
1.84688
1.80853
1.77017
1.73182
1.69347
1.65511
1.61676
1.57841
1.54006
1.5017
1.46335
1.425
1.38664
1.34829
1.30994
1.27158
1.23323
1.19488
1.15652
1.11817
1.07981
1.04146
1.00311
0.964754
0.9264
0.888047
0.849693
0.811338
0.772983
0.734627
0.696271
0.657913
0.619553
0.581186
0.54281
0.504416
0.465987
0.427496
0.388899
0.35011
0.310984
0.271219
0.230438
0.187533
0.14211
0.0895776
0.0365565
-17.3139
-22.483
-28.702
-32.3668
-33.4698
-28.9735
-17.7071
-7.81888
-2.48524
0.124835
1.25431
1.83641
2.24703
2.56017
2.78304
2.92337
3.00533
3.04988
3.06879
3.07024
3.05882
3.03511
2.99999
2.96331
2.93087
2.89856
2.86413
2.82672
2.78941
2.75266
2.7151
2.67717
2.6391
2.60092
2.56267
2.52438
2.48606
2.44773
2.40938
2.37104
2.33269
2.29434
2.25598
2.21763
2.17928
2.14093
2.10258
2.06422
2.02587
1.98752
1.94916
1.91081
1.87246
1.83411
1.79575
1.7574
1.71905
1.68069
1.64234
1.60399
1.56564
1.52728
1.48893
1.45058
1.41222
1.37387
1.33552
1.29716
1.25881
1.22046
1.1821
1.14375
1.10539
1.06704
1.02869
0.990334
0.95198
0.913627
0.875273
0.836919
0.798564
0.760209
0.721854
0.683499
0.645141
0.606782
0.568419
0.530047
0.491662
0.453248
0.414785
0.376239
0.33754
0.298575
0.259103
0.218825
0.176858
0.132884
0.0832345
0.033115
-17.535
-22.4585
-28.44
-31.9652
-32.8514
-28.5061
-17.354
-8.02753
-2.81724
-0.192036
1.01813
1.68866
2.16199
2.51244
2.75424
2.90429
2.99088
3.03687
3.05587
3.05711
3.04515
3.02058
2.98543
2.94934
2.91763
2.88494
2.84936
2.81265
2.77565
2.73851
2.70103
2.66311
2.62501
2.58681
2.54854
2.51024
2.47192
2.43359
2.39524
2.35689
2.31854
2.28019
2.24184
2.20349
2.16514
2.12679
2.08843
2.05008
2.01173
1.97337
1.93502
1.89667
1.85832
1.81996
1.78161
1.74326
1.7049
1.66655
1.6282
1.58985
1.55149
1.51314
1.47479
1.43643
1.39808
1.35973
1.32137
1.28302
1.24467
1.20631
1.16796
1.12961
1.09125
1.0529
1.01454
0.976191
0.937837
0.899484
0.86113
0.822776
0.784422
0.746067
0.707712
0.669357
0.631001
0.592643
0.554283
0.515917
0.477541
0.439145
0.400713
0.362223
0.323627
0.284842
0.245698
0.205984
0.165066
0.122713
0.0762742
0.0293629
-17.8052
-22.4238
-28.0843
-31.4331
-32.0581
-27.8119
-17.011
-8.24011
-3.17236
-0.54036
0.759629
1.52681
2.06938
2.46067
2.72308
2.88366
2.97518
3.02271
3.04179
3.04274
3.03016
3.00476
2.96945
2.93359
2.90283
2.86982
2.83326
2.79713
2.76037
2.72291
2.68545
2.64753
2.60942
2.57118
2.5329
2.49459
2.45627
2.41793
2.37959
2.34124
2.30289
2.26453
2.22618
2.18783
2.14948
2.11113
2.07277
2.03442
1.99607
1.95772
1.91936
1.88101
1.84266
1.80431
1.76595
1.7276
1.68925
1.65089
1.61254
1.57419
1.53583
1.49748
1.45913
1.42077
1.38242
1.34407
1.30571
1.26736
1.22901
1.19065
1.1523
1.11395
1.07559
1.03724
0.998886
0.960532
0.922179
0.883826
0.845472
0.807118
0.768763
0.730409
0.692054
0.6537
0.615345
0.576989
0.538632
0.500272
0.461906
0.42353
0.385134
0.346707
0.308224
0.269641
0.230864
0.19178
0.152032
0.11149
0.0686143
0.0252599
-18.0759
-22.3719
-27.6506
-30.7463
-31.0635
-26.8366
-16.7118
-8.45755
-3.55943
-0.919828
0.476941
1.34973
1.96894
2.40481
2.68963
2.86155
2.95823
3.00736
3.02647
3.02702
3.01372
2.98749
2.95197
2.91603
2.8861
2.85311
2.81572
2.77997
2.74331
2.70576
2.66823
2.63028
2.59214
2.55391
2.5156
2.47728
2.43895
2.4006
2.36225
2.3239
2.28555
2.2472
2.20885
2.1705
2.13214
2.09379
2.05544
2.01709
1.97873
1.94038
1.90203
1.86367
1.82532
1.78697
1.74862
1.71026
1.67191
1.63356
1.5952
1.55685
1.5185
1.48015
1.44179
1.40344
1.36509
1.32673
1.28838
1.25003
1.21167
1.17332
1.13497
1.09661
1.05826
1.0199
0.981551
0.943197
0.904844
0.86649
0.828137
0.789783
0.751428
0.713074
0.67472
0.636366
0.598012
0.559658
0.521305
0.482951
0.444598
0.406243
0.367887
0.32953
0.291173
0.252814
0.214444
0.176062
0.137612
0.0990858
0.0601491
0.0207572
-18.3673
-22.3079
-27.131
-29.9104
-29.8983
-25.6911
-16.4236
-8.67695
-3.97753
-1.33286
0.167376
1.15641
1.86065
2.34499
2.65407
2.8381
2.94005
2.99078
3.00984
3.00983
2.99567
2.96859
2.93286
2.89606
2.8671
2.83458
2.79658
2.76093
2.72434
2.68686
2.64921
2.61119
2.573
2.53469
2.49636
2.45807
2.41974
2.3814
2.34305
2.3047
2.26635
2.228
2.18964
2.15129
2.11294
2.07459
2.03624
1.99788
1.95953
1.92118
1.88282
1.84447
1.80612
1.76777
1.72941
1.69106
1.65271
1.61435
1.576
1.53765
1.4993
1.46094
1.42259
1.38424
1.34588
1.30753
1.26918
1.23082
1.19247
1.15412
1.11576
1.07741
1.03906
1.0007
0.962348
0.923994
0.885641
0.847287
0.808934
0.77058
0.732226
0.693872
0.655518
0.617165
0.578812
0.54046
0.502111
0.463765
0.425425
0.387095
0.348782
0.310503
0.272286
0.234176
0.196257
0.158651
0.121636
0.0853441
0.0507502
0.015785
-18.7006
-22.2133
-26.5422
-28.9878
-28.6683
-24.5209
-16.1151
-8.90214
-4.42791
-1.78359
-0.171595
0.946137
1.74452
2.2816
2.61699
2.81365
2.92078
2.97298
2.99183
2.99106
2.97585
2.94786
2.91193
2.87497
2.8457
2.81387
2.77564
2.73979
2.70334
2.66591
2.62815
2.59007
2.55187
2.51361
2.47531
2.4369
2.39855
2.36019
2.32184
2.28348
2.24513
2.20678
2.16843
2.13007
2.09172
2.05337
2.01502
1.97666
1.93831
1.89996
1.86161
1.82325
1.7849
1.74655
1.7082
1.66984
1.63149
1.59314
1.55478
1.51643
1.47808
1.43972
1.40137
1.36302
1.32466
1.28631
1.24796
1.2096
1.17125
1.1329
1.09454
1.05619
1.01784
0.979482
0.941129
0.902775
0.864422
0.826068
0.787715
0.749361
0.711007
0.672653
0.6343
0.595947
0.557596
0.519247
0.480902
0.442564
0.404238
0.365932
0.327665
0.289469
0.251403
0.213561
0.176134
0.139376
0.103934
0.0700972
0.0402798
0.0102541
-19.01
-22.0983
-25.9316
-28.038
-27.4379
-23.3615
-15.7833
-9.13743
-4.91358
-2.28083
-0.542996
0.718605
1.62079
2.21504
2.57909
2.78867
2.90064
2.954
2.97239
2.97058
2.95406
2.92507
2.88894
2.8519
2.82179
2.79084
2.75258
2.71635
2.6801
2.6427
2.60483
2.56663
2.5283
2.48988
2.45144
2.41323
2.3749
2.33656
2.29821
2.25986
2.22151
2.18316
2.1448
2.10645
2.0681
2.02975
1.99139
1.95304
1.91469
1.87634
1.83798
1.79963
1.76128
1.72293
1.68457
1.64622
1.60787
1.56951
1.53116
1.49281
1.45445
1.4161
1.37775
1.33939
1.30104
1.26269
1.22433
1.18598
1.14763
1.10927
1.07092
1.03257
0.994214
0.95586
0.917506
0.879153
0.840799
0.802446
0.764092
0.725739
0.687385
0.649031
0.610678
0.572327
0.533977
0.495631
0.457291
0.418963
0.380655
0.342382
0.304171
0.266075
0.228184
0.190648
0.153767
0.117943
0.0842271
0.0530761
0.0285158
0.00400108
-19.2835
-21.9827
-25.3235
-27.0842
-26.2214
-22.2182
-15.4222
-9.38303
-5.439
-2.83544
-0.950771
0.473887
1.49052
2.14644
2.54143
2.76387
2.87993
2.9339
2.95149
2.94824
2.93011
2.90001
2.86364
2.82655
2.79534
2.76528
2.72704
2.69039
2.6543
2.61697
2.57904
2.54087
2.50264
2.46435
2.42605
2.38752
2.34913
2.31076
2.27239
2.23403
2.19567
2.15732
2.11897
2.08061
2.04226
2.00391
1.96556
1.9272
1.88885
1.8505
1.81214
1.77379
1.73544
1.69709
1.65873
1.62038
1.58203
1.54367
1.50532
1.46697
1.42862
1.39026
1.35191
1.31356
1.2752
1.23685
1.1985
1.16014
1.12179
1.08344
1.04508
1.00673
0.968376
0.930022
0.891668
0.853315
0.814961
0.776608
0.738254
0.699901
0.661547
0.623194
0.584841
0.54649
0.508142
0.469798
0.431462
0.39314
0.354845
0.316595
0.278428
0.240413
0.202678
0.165434
0.129108
0.0942597
0.0623875
0.0341145
0.0153139
-0.00311694
-19.5262
-21.8761
-24.7333
-26.1422
-25.0356
-21.1044
-15.0301
-9.63277
-6.00742
-3.44816
-1.39473
0.21329
1.35602
2.07824
2.50585
2.74032
2.85922
2.91288
2.92902
2.9238
2.90373
2.87239
2.83576
2.79863
2.76644
2.73665
2.69877
2.66174
2.62568
2.5884
2.55026
2.51185
2.47333
2.43473
2.39629
2.35813
2.3198
2.28146
2.24311
2.20476
2.16641
2.12806
2.0897
2.05135
2.013
1.97465
1.9363
1.89794
1.85959
1.82124
1.78288
1.74453
1.70618
1.66783
1.62947
1.59112
1.55277
1.51441
1.47606
1.43771
1.39935
1.361
1.32265
1.2843
1.24594
1.20759
1.16924
1.13088
1.09253
1.05418
1.01582
0.977468
0.939115
0.900761
0.862407
0.824054
0.7857
0.747347
0.708993
0.67064
0.632286
0.593934
0.555582
0.517233
0.478887
0.440547
0.402219
0.363913
0.325645
0.287441
0.249355
0.211479
0.173978
0.137119
0.101453
0.0676927
0.0378346
0.0126405
0.00017396
-0.0115474
-19.7248
-21.7776
-24.1949
-25.2721
-23.9481
-20.0702
-14.6136
-9.85537
-6.59134
-4.08808
-1.84942
-0.0445839
1.22771
2.01721
2.47641
2.7206
2.84028
2.89225
2.90606
2.89827
2.87607
2.84343
2.80651
2.7694
2.73661
2.7062
2.66901
2.63171
2.5956
2.55852
2.52051
2.48232
2.44406
2.40597
2.36729
2.32871
2.29029
2.2519
2.21352
2.17516
2.1368
2.09845
2.06009
2.02174
1.98339
1.94503
1.90668
1.86833
1.82997
1.79162
1.75327
1.71492
1.67656
1.63821
1.59986
1.56151
1.52315
1.4848
1.44645
1.40809
1.36974
1.33139
1.29303
1.25468
1.21633
1.17797
1.13962
1.10127
1.06291
1.02456
0.986207
0.947854
0.9095
0.871146
0.832793
0.794439
0.756086
0.717732
0.679379
0.641025
0.602672
0.564319
0.525968
0.487618
0.449273
0.410934
0.372606
0.334302
0.296037
0.25784
0.219773
0.18194
0.144544
0.107921
0.0727651
0.0399573
0.0120271
-0.0102166
-0.0161525
-0.0210564
-19.8725
-21.6953
-23.7572
-24.5534
-23.0415
-19.1793
-14.2003
-10.0451
-7.16045
-4.69821
-2.26852
-0.271417
1.12076
1.97144
2.45669
2.70693
2.82519
2.87403
2.88474
2.87411
2.84979
2.81596
2.77874
2.74165
2.70859
2.67713
2.64068
2.60323
2.56681
2.52958
2.49122
2.45258
2.41386
2.3746
2.33699
2.29872
2.26037
2.22201
2.18366
2.14531
2.10695
2.0686
2.03025
1.9919
1.95354
1.91519
1.87684
1.83849
1.80013
1.76178
1.72343
1.68507
1.64672
1.60837
1.57002
1.53166
1.49331
1.45496
1.4166
1.37825
1.3399
1.30155
1.26319
1.22484
1.18649
1.14813
1.10978
1.07143
1.03307
0.994719
0.956366
0.918012
0.879658
0.841304
0.802951
0.764597
0.726244
0.687891
0.649537
0.611184
0.572831
0.534479
0.496128
0.457781
0.419439
0.381106
0.342789
0.304503
0.266274
0.228136
0.190171
0.152508
0.115384
0.0791764
0.044683
0.0128733
-0.0132097
-0.0328459
-0.0326405
-0.0313187
-19.9794
-21.6297
-23.4193
-23.9883
-22.3106
-18.4285
-13.8246
-10.214
-7.67486
-5.2165
-2.61994
-0.45598
1.03656
1.94209
2.44597
2.69848
2.81412
2.85872
2.86554
2.85235
2.82603
2.79126
2.75375
2.71669
2.68321
2.65116
2.61513
2.57774
2.54132
2.50435
2.46639
2.42818
2.39008
2.35184
2.31275
2.27421
2.23577
2.19737
2.15899
2.12063
2.08227
2.04391
2.00556
1.96721
1.92885
1.8905
1.85215
1.8138
1.77544
1.73709
1.69874
1.66038
1.62203
1.58368
1.54533
1.50697
1.46862
1.43027
1.39191
1.35356
1.31521
1.27686
1.2385
1.20015
1.1618
1.12344
1.08509
1.04674
1.00838
0.970029
0.931676
0.893322
0.854968
0.816614
0.778261
0.739907
0.701554
0.6632
0.624847
0.586494
0.548141
0.509789
0.471438
0.43309
0.394746
0.356411
0.31809
0.279799
0.241558
0.203403
0.165413
0.127719
0.0905771
0.0544158
0.0201427
-0.0111247
-0.035862
-0.0535698
-0.0480387
-0.0415912
-20.0591
-21.5774
-23.1593
-23.5457
-21.7181
-17.792
-13.4956
-10.3501
-8.08045
-5.61115
-2.88228
-0.589823
0.969604
1.92386
2.44118
2.69169
2.80439
2.84591
2.84902
2.83269
2.80426
2.76883
2.731
2.694
2.66039
2.62791
2.59179
2.55409
2.51723
2.47976
2.44125
2.4025
2.36329
2.32524
2.287
2.24867
2.21031
2.17195
2.13359
2.09523
2.05688
2.01853
1.98017
1.94182
1.90347
1.86511
1.82676
1.78841
1.75006
1.7117
1.67335
1.635
1.59665
1.55829
1.51994
1.48159
1.44323
1.40488
1.36653
1.32817
1.28982
1.25147