/*--------------------------------*- C++ -*----------------------------------*\
| =========                 |                                                 |
| \\      /  F ield         | OpenFOAM: The Open Source CFD Toolbox           |
|  \\    /   O peration     | Version:  v2012                                 |
|   \\  /    A nd           | Website:  www.openfoam.com                      |
|    \\/     M anipulation  |                                                 |
\*---------------------------------------------------------------------------*/
FoamFile
{
    version     2.0;
    format      ascii;
    class       volScalarField;
    location    "0.053";
    object      p;
}
// * * * * * * * * * * * * * * * * * * * * * * * * * * * * * * * * * * * * * //

dimensions      [0 2 -2 0 0 0 0];


internalField   nonuniform List<scalar> 
1900
(
-300.185
-301.285
-302.185
-302.846
-303.523
-304.29
-305.096
-305.925
-306.537
-307.142
-300.64
-301.439
-302.267
-302.942
-303.623
-304.384
-305.195
-306.033
-306.793
-307.614
-300.926
-301.491
-302.258
-302.972
-303.669
-304.43
-305.257
-306.14
-307.033
-308.279
-301.11
-301.554
-302.289
-303.031
-303.741
-304.503
-305.348
-306.272
-307.285
-308.659
-301.208
-301.602
-302.316
-303.068
-303.784
-304.549
-305.411
-306.371
-307.452
-308.841
-301.225
-301.623
-302.343
-303.098
-303.817
-304.59
-305.467
-306.452
-307.567
-308.936
-301.159
-301.619
-302.37
-303.12
-303.84
-304.623
-305.514
-306.515
-307.642
-308.967
-301.008
-301.599
-302.393
-303.12
-303.832
-304.628
-305.532
-306.543
-307.674
-308.955
-300.751
-301.593
-302.454
-303.142
-303.839
-304.64
-305.547
-306.558
-307.682
-308.924
-300.317
-301.492
-302.444
-303.124
-303.822
-304.636
-305.554
-306.572
-307.699
-308.921
-306.484
-318.844
-338.128
-339.773
-320.643
-286.618
-243.586
-198.812
-157.889
-123.09
-94.7407
-72.3277
-54.8604
-41.2978
-30.734
-22.4155
-15.7863
-10.437
-6.07129
-2.46684
0.53999
3.07172
5.22511
7.0667
8.64888
10.012
11.1874
12.215
13.1095
13.8858
14.5591
15.1404
15.6419
16.0708
16.4312
16.7334
16.9846
17.1891
17.3523
17.478
17.5703
17.6322
17.6646
17.67
17.6509
17.6093
17.5471
17.4656
17.3664
17.2507
17.1192
16.9719
16.8099
16.6339
16.4438
16.2407
16.0248
15.7957
15.5534
15.2991
15.0336
14.7579
14.4735
14.1804
13.8808
13.5773
13.271
12.9627
12.6535
12.3438
12.0322
11.7175
11.3962
11.0609
10.7081
10.3467
9.98437
9.62334
9.26758
8.91756
8.57046
8.22508
7.87709
7.53174
7.18338
6.83024
6.47407
6.11476
5.74741
5.36715
4.97019
4.55844
4.11802
3.6672
3.16988
2.65029
2.0878
1.52452
0.886234
0.398458
-309.901
-322.17
-333.977
-332.691
-313.644
-280.899
-240.317
-198.006
-158.889
-125.153
-97.2312
-74.8106
-57.1252
-43.2433
-32.3388
-23.7017
-16.7963
-11.2207
-6.67505
-2.93185
0.17199
2.77422
4.98694
6.87848
8.49671
9.88805
11.0856
12.128
13.032
13.8149
14.4922
15.0753
15.5742
16
16.3633
16.67
16.925
17.1334
17.3002
17.4294
17.5251
17.5899
17.6235
17.6295
17.6109
17.5696
17.5077
17.4269
17.3286
17.2141
17.0837
16.9374
16.7764
16.6014
16.4122
16.21
15.9953
15.7668
15.5246
15.2702
15.0042
14.728
14.4436
14.1511
13.8527
13.5509
13.2464
12.94
12.633
12.326
12.0171
11.7043
11.3826
11.0419
10.6792
10.3085
9.93654
9.56875
9.21333
8.8689
8.52995
8.19198
7.85477
7.51653
7.17216
6.82066
6.46437
6.10319
5.73237
5.34676
4.9449
4.52725
4.08229
3.62253
3.12392
2.60236
2.04623
1.48569
0.867761
0.361604
-310.835
-318.484
-326.828
-324.637
-306.667
-275.937
-237.836
-197.696
-160.036
-127.153
-99.5672
-77.1309
-59.2432
-45.0834
-33.8857
-24.9826
-17.8512
-12.0905
-7.39433
-3.52974
-0.321695
2.37138
4.65946
6.61112
8.28005
9.7138
10.948
12.0176
12.9425
13.7411
14.4286
15.0188
15.5212
15.9488
16.3159
16.6258
16.8824
17.0918
17.2594
17.3892
17.4843
17.5468
17.5788
17.5847
17.5669
17.5266
17.4658
17.3861
17.2892
17.1767
17.0486
16.9043
16.7453
16.5717
16.3838
16.1822
15.9674
15.739
15.4968
15.242
14.9751
14.6981
14.4135
14.1221
13.8255
13.5262
13.224
12.9202
12.6168
12.3135
12.0079
11.6981
11.3767
11.0296
10.6539
10.2694
9.8821
9.50528
9.15101
8.81523
8.48732
8.15853
7.8329
7.50361
7.16545
6.81594
6.45996
6.09735
5.72301
5.33087
4.92305
4.49855
4.04805
3.57776
3.0791
2.55506
2.00737
1.44981
0.854731
0.317224
-311.057
-316.859
-322.504
-319.122
-301.654
-272.231
-235.768
-197.177
-160.672
-128.543
-101.315
-78.9361
-60.9254
-46.5622
-35.1369
-26.0193
-18.7003
-12.7829
-7.95884
-3.99262
-0.702501
2.05338
4.3864
6.37006
8.06306
9.51535
10.7655
11.8482
12.7859
13.5969
14.2978
14.9026
15.4211
15.8648
16.2459
16.5677
16.8342
17.0517
17.2253
17.3592
17.4554
17.5168
17.5484
17.5545
17.5368
17.4964
17.4351
17.3548
17.2571
17.1432
17.0145
16.8711
16.7136
16.5413
16.3548
16.1541
15.9395
15.7115
15.4697
15.2146
14.9471
14.6694
14.3839
14.0928
13.798
13.5016
13.2031
12.9028
12.6034
12.3047
12.0035
11.6974
11.3757
11.0201
10.6335
10.2312
9.82033
9.43106
9.07788
8.75279
8.439
8.1258
7.81155
7.49183
7.16003
6.81331
6.45701
6.09276
5.71402
5.31721
4.90304
4.46801
4.01228
3.53138
3.03539
2.50938
1.97118
1.41705
0.845648
0.267743
-311.083
-315.37
-318.676
-314.019
-296.84
-268.56
-233.598
-196.489
-161.124
-129.723
-102.849
-80.5388
-62.4291
-47.8921
-36.2703
-26.9647
-19.4801
-13.4226
-8.48294
-4.42263
-1.05686
1.75887
4.13715
6.15683
7.87932
9.35612
10.6266
11.7249
12.6753
13.496
14.2043
14.8141
15.3366
15.7832
16.165
16.4877
16.7555
16.9747
17.1512
17.2884
17.3889
17.4562
17.4941
17.5058
17.493
17.4568
17.3993
17.3222
17.2267
17.114
16.9866
16.8452
16.6895
16.5188
16.3336
16.134
15.9203
15.6926
15.4503
15.1937
14.9241
14.6444
14.3571
14.066
13.773
13.4795
13.1845
12.8877
12.5917
12.2974
12.002
11.7005
11.3793
11.0156
10.6165
10.1886
9.74844
9.34523
8.99442
8.68265
8.38516
8.08857
7.78846
7.48059
7.15507
6.81136
6.45495
6.08987
5.70738
5.3054
4.88281
4.43431
3.97105
3.47882
2.98505
2.46052
1.93261
1.38361
0.839551
0.220043
-310.964
-314.073
-315.606
-309.963
-293.073
-265.793
-232.059
-196.113
-161.612
-130.742
-104.124
-81.8571
-63.661
-48.9803
-37.197
-27.7368
-20.1164
-13.9446
-8.91193
-4.77637
-1.35009
1.51411
3.92976
5.97857
7.72428
9.21936
10.5045
11.6139
12.5731
13.4013
14.116
14.7317
15.2599
15.7119
16.0981
16.4252
16.6973
16.9202
17.0994
17.2384
17.3403
17.4084
17.4462
17.4567
17.4422
17.4045
17.3456
17.2675
17.1717
17.0601
16.9349
16.7962
16.6432
16.4755
16.2933
16.0968
15.8863
15.6611
15.4199
15.1628
14.8916
14.6101
14.3226
14.0336
13.7446
13.4554
13.1643
12.8719
12.581
12.2924
12.0041
11.7108
11.3932
11.0228
10.598
10.134
9.66279
9.24365
8.89619
8.60215
8.32488
8.0469
7.76374
7.46949
7.14956
6.80758
6.45132
6.08458
5.69748
5.287
4.85487
4.39452
3.92397
3.42422
2.93032
2.4099
1.89111
1.34758
0.829588
0.181228
-310.775
-313.01
-313.232
-306.797
-290.066
-263.52
-230.7
-195.642
-161.829
-131.404
-105.034
-82.8399
-64.6052
-49.8329
-37.937
-28.3632
-20.6394
-14.3784
-9.27178
-5.07599
-1.6014
1.3017
3.748
5.8207
7.58584
9.0966
10.3943
11.5135
12.4811
13.3166
14.0375
14.6589
15.1924
15.649
16.0386
16.3688
16.6436
16.869
17.05
17.1907
17.2942
17.3638
17.4029
17.4145
17.4009
17.364
17.3057
17.2281
17.133
17.0224
16.8982
16.7603
16.6078
16.4403
16.2582
16.0617
15.8515
15.6258
15.3828
15.1226
14.8475
14.5622
14.2733
13.9853
13.6994
13.4149
13.1293
12.8428
12.5587
12.2785
12.0001
11.7171
11.4081
11.033
10.5818
10.0808
9.57729
9.1426
8.79716
8.51912
8.26218
8.0037
7.73689
7.45516
7.1384
6.79646
6.43868
6.06869
5.67461
5.25459
4.81434
4.34309
3.8648
3.36369
2.8701
2.35628
1.8468
1.30948
0.810736
0.155134
-310.578
-312.187
-311.478
-304.437
-287.783
-261.764
-229.617
-195.231
-161.949
-131.88
-105.726
-83.6092
-65.3575
-50.5227
-38.5443
-28.884
-21.0788
-14.7466
-9.57913
-5.33202
-1.81498
1.12146
3.59338
5.68616
7.46789
8.99223
10.3011
11.4291
12.4038
13.2452
13.9709
14.5964
15.1337
15.5935
15.9856
16.3178
16.5946
16.8217
17.0042
17.1461
17.2506
17.3211
17.3607
17.3724
17.3586
17.3212
17.2624
17.1843
17.0889
16.9786
16.8551
16.718
16.5665
16.4
16.2187
16.0233
15.8141
15.5888
15.3449
15.0826
14.8044
14.5162
14.2261
13.9389
13.655
13.3729
13.0902
12.8074
12.5274
12.2522
11.9817
11.7088
11.4073
11.0262
10.5551
10.0184
9.48533
9.0445
8.70727
8.44497
8.20247
7.95945
7.70538
7.43284
7.11685
6.77202
6.41027
6.03698
5.6366
5.20938
4.76311
4.2859
3.80247
3.3033
2.81037
2.30264
1.8011
1.269
0.783227
0.138905
-310.421
-311.601
-310.282
-302.822
-286.194
-260.513
-228.807
-194.862
-161.928
-132.096
-106.095
-84.0377
-65.7825
-50.9136
-38.8885
-29.1798
-21.3295
-14.9595
-9.76049
-5.48723
-1.9461
1.01094
3.4956
5.59717
7.38623
8.91671
10.2304
11.3622
12.3402
13.1844
13.9126
14.5405
15.0801
15.542
15.9361
16.2699
16.5483
16.7767
16.9605
17.1036
17.2091
17.2803
17.3206
17.3327
17.3193
17.2821
17.2236
17.1459
17.0512
16.9422
16.8203
16.6851
16.5354
16.3704
16.1901
15.9955
15.7873
15.5628
15.3187
15.0548
14.7736
14.4818
14.19
13.9033
13.6219
13.3432
13.0636
12.7837
12.5068
12.2358
11.9719
11.7081
11.4144
11.0361
10.5543
9.98067
9.40865
8.95571
8.62498
8.38195
8.15015
7.91748
7.68458
7.41087
7.09532
6.74828
6.38259
6.00741
5.60254
5.17014
4.71903
4.23884
3.75439
3.25905
2.76801
2.26622
1.77078
1.24269
0.76474
0.139362
-310.363
-311.341
-309.732
-302.08
-285.488
-260.013
-228.566
-194.876
-162.137
-132.43
-106.502
-84.4623
-66.1892
-51.2861
-39.2213
-29.4734
-21.5875
-15.1873
-9.96377
-5.66962
-2.10768
0.872675
3.37166
5.48265
7.27922
8.81581
10.1343
11.2698
12.2509
13.0979
13.8283
14.4583
15
15.4638
15.8597
16.195
16.4748
16.7044
16.8893
17.0334
17.1399
17.212
17.253
17.2659
17.2531
17.2166
17.1587
17.0815
16.9874
16.8789
16.7578
16.6237
16.4753
16.3114
16.1318
15.9376
15.7298
15.5057
15.2619
14.9984
14.7168
14.4238
14.1312
13.8444
13.563
13.2856
13.0082
12.7295
12.4538
12.1837
11.9197
11.6549
11.3593
10.9793
10.4975
9.91541
9.32798
8.87001
8.54343
8.28497
8.08078
7.85043
7.62168
7.35428
7.04003
6.68059
6.31767
5.93889
5.52993
5.09414
4.64217
4.1636
3.68169
3.19145
2.70352
2.20646
1.71483
1.18793
0.716475
0.091817
-314.637
-315.906
-317.083
-317.328
-316.81
-315.54
-314.234
-314.326
-333.772
-335.289
-336.235
-336.57
-336.248
-335.534
-334.671
-334.322
-348.886
-351.723
-353.238
-353.804
-353.694
-353.384
-353.077
-352.737
-347.463
-350.828
-352.681
-353.427
-353.254
-352.739
-352.26
-351.622
-326.316
-329.216
-330.952
-331.51
-331.17
-330.433
-329.649
-328.721
-290.56
-292.615
-293.907
-294.361
-294.035
-293.087
-291.674
-290.074
-245.531
-246.604
-247.454
-247.855
-247.597
-246.569
-244.784
-242.725
-198.995
-199.026
-199.28
-199.494
-199.216
-198.135
-196.184
-193.94
-156.86
-156.164
-155.902
-155.806
-155.403
-154.287
-152.332
-150.125
-121.35
-120.227
-119.682
-119.409
-118.92
-117.816
-115.968
-113.925
-92.7801
-91.5539
-90.907
-90.5131
-89.9521
-88.908
-87.234
-85.4079
-70.4491
-69.2954
-68.6575
-68.1926
-67.5914
-66.6316
-65.1573
-63.5733
-53.2025
-52.1919
-51.603
-51.1371
-50.5562
-49.6918
-48.4131
-47.051
-39.9211
-39.0848
-38.5818
-38.152
-37.6175
-36.8574
-35.7685
-34.6144
-29.6345
-28.9546
-28.5116
-28.1141
-27.6398
-26.9851
-26.0644
-25.0882
-21.571
-21.0315
-20.628
-20.2481
-19.8315
-19.2726
-18.4943
-17.6524
-15.1511
-14.7256
-14.3735
-14.0299
-13.6649
-13.1852
-12.5243
-11.7673
-9.9625
-9.62819
-9.33292
-9.03674
-8.71855
-8.30547
-7.74297
-7.06459
-5.71472
-5.45086
-5.20521
-4.95223
-4.67545
-4.31724
-3.83466
-3.24625
-2.19401
-1.9836
-1.77765
-1.56173
-1.32088
-1.00805
-0.588875
-0.078431
0.761331
0.934698
1.11175
1.29426
1.50254
1.77644
2.14338
2.58959
3.26002
3.40624
3.56106
3.71757
3.89942
4.14106
4.46493
4.85856
5.38456
5.50721
5.64099
5.77875
5.94173
6.15851
6.44769
6.79847
7.20279
7.30829
7.42494
7.54791
7.69548
7.89154
8.15163
8.46669
8.76787
8.86097
8.96526
9.07661
9.21126
9.38966
9.62495
9.90975
10.1232
10.2107
10.3021
10.4022
10.5254
10.6888
10.9029
11.162
11.2957
11.3824
11.4653
11.5557
11.6685
11.8183
12.014
12.2509
12.3127
12.3924
12.4686
12.5531
12.6585
12.7975
12.9777
13.1958
13.1969
13.2696
13.3401
13.4192
13.518
13.6475
13.8141
14.0156
13.9639
14.0305
14.0963
14.1708
14.2639
14.385
14.5395
14.7265
14.6293
14.6905
14.7517
14.822
14.9098
15.0235
15.1674
15.3416
15.2037
15.2599
15.3176
15.3843
15.4677
15.5748
15.7091
15.8719
15.701
15.752
15.8059
15.869
15.9481
16.0492
16.1749
16.3275
16.1267
16.1736
16.2241
16.2839
16.359
16.4546
16.5725
16.7161
16.4842
16.5288
16.5772
16.6346
16.7065
16.7973
16.9084
17.0438
16.7838
16.8266
16.8733
16.9286
16.9976
17.0841
17.189
17.3171
17.0327
17.0737
17.1188
17.172
17.2383
17.3209
17.4202
17.5417
17.2351
17.2747
17.3183
17.3698
17.4337
17.5128
17.607
17.7226
17.3964
17.4347
17.4769
17.5269
17.5885
17.6644
17.754
17.8643
17.5204
17.5576
17.5987
17.6472
17.7069
17.7798
17.8651
17.9706
17.611
17.6471
17.6871
17.7343
17.7921
17.8623
17.9438
18.0448
17.6712
17.7062
17.745
17.7909
17.847
17.9147
17.9926
18.0896
17.7025
17.7365
17.7745
17.8193
17.8738
17.9393
18.0139
18.1072
17.707
17.7404
17.7776
17.8215
17.8746
17.938
18.0097
18.0995
17.6872
17.72
17.7566
17.7996
17.8515
17.913
17.9818
18.0686
17.6452
17.6775
17.7135
17.7556
17.8063
17.866
17.9323
18.0161
17.5825
17.6144
17.6498
17.6911
17.7407
17.7987
17.8625
17.9435
17.5004
17.5317
17.5666
17.6073
17.6557
17.7121
17.7736
17.8522
17.4003
17.4312
17.4655
17.5053
17.5527
17.6075
17.6669
17.743
17.2839
17.3141
17.3477
17.3867
17.433
17.4862
17.5435
17.6174
17.1515
17.181
17.2139
17.2521
17.2973
17.3491
17.4044
17.4762
17.0035
17.0324
17.0646
17.102
17.1462
17.1966
17.2501
17.32
16.8407
16.8689
16.9005
16.9371
16.9803
17.0294
17.0812
17.1493
16.6638
16.6914
16.7223
16.7581
16.8003
16.8482
16.8984
16.9649
16.4731
16.5
16.5303
16.5654
16.6067
16.6534
16.7021
16.7671
16.2692
16.2955
16.3252
16.3596
16.4001
16.4457
16.493
16.5565
16.0525
16.0782
16.1074
16.1412
16.1809
16.2256
16.2715
16.3338
15.823
15.8484
15.8772
15.9106
15.9497
15.9935
16.0382
16.0993
15.5806
15.606
15.6347
15.6678
15.7065
15.7495
15.7932
15.8531
15.3265
15.3519
15.3804
15.4134
15.4517
15.4941
15.5367
15.5954
15.0612
15.0868
15.1154
15.1482
15.1861
15.2278
15.2694
15.327
14.7858
14.8114
14.8401
14.8728
14.9103
14.9513
14.9919
15.0485
14.5013
14.5269
14.5554
14.5879
14.6249
14.6653
14.7048
14.7605
14.2079
14.2335
14.2618
14.294
14.3305
14.3702
14.4088
14.4638
13.9077
13.9328
13.9608
13.9925
14.0285
14.0675
14.1053
14.1597
13.6031
13.6273
13.6546
13.6856
13.7209
13.7592
13.7965
13.8505
13.2956
13.3189
13.3454
13.3757
13.4104
13.4482
13.4852
13.5392
12.9861
13.0086
13.0344
13.0641
13.0983
13.1357
13.1725
13.2268
12.6754
12.6969
12.7219
12.751
12.7846
12.8217
12.8585
12.9134
12.3639
12.3843
12.4084
12.4368
12.4699
12.5068
12.544
12.5997
12.0507
12.0702
12.0935
12.1215
12.1545
12.1916
12.2296
12.2865
11.7351
11.754
11.7771
11.805
11.8384
11.8762
11.9156
11.9739
11.4143
11.4337
11.4574
11.4862
11.5207
11.5598
11.6009
11.6605
11.0826
11.1046
11.1306
11.1615
11.1981
11.2393
11.282
11.3424
10.7363
10.7629
10.7927
10.827
10.8666
10.9102
10.9544
11.015
10.3809
10.4118
10.4454
10.4829
10.5253
10.5713
10.6164
10.6765
10.0248
10.0597
10.0963
10.1361
10.1799
10.2264
10.2707
10.329
9.66845
9.70631
9.74476
9.7854
9.82913
9.87439
9.91645
9.9724
9.31241
9.34972
9.38733
9.42684
9.46907
9.51243
9.55206
9.60571
8.95863
8.99276
9.02746
9.06423
9.1037
9.14427
9.1811
9.23258
8.60519
8.63453
8.6653
8.69864
8.73484
8.77233
8.80651
8.85642
8.25139
8.27521
8.30172
8.33146
8.36455
8.39942
8.4317
8.48099
7.89771
7.91783
7.94109
7.96805
7.99889
8.0321
8.06344
8.11268
7.54856
7.56587
7.58678
7.6119
7.64134
7.67367
7.70476
7.75428
7.19785
7.21365
7.23358
7.25818
7.28749
7.32004
7.35185
7.40232
6.84401
6.8597
6.88
6.9054
6.93588
6.96982
7.00311
7.0546
6.48876
6.50568
6.52764
6.55509
6.58795
6.62426
6.65959
6.71208
6.13158
6.15065
6.17515
6.20556
6.2417
6.2812
6.31882
6.3719
5.76742
5.78945
5.81726
5.85134
5.89141
5.93483
5.97515
6.02875
5.39134
5.41682
5.44805
5.48556
5.52895
5.57535
5.61842
5.67414
4.99834
5.02697
5.06121
5.10164
5.14767
5.19587
5.24089
5.2984
4.59103
4.62292
4.65996
4.70263
4.7501
4.79862
4.84341
4.90019
4.15402
4.18874
4.22865
4.27422
4.32445
4.37488
4.41993
4.47595
3.70963
3.74829
3.79029
3.83606
3.88495
3.93318
3.97478
4.02745
3.21335
3.25294
3.29596
3.34259
3.39164
3.43954
3.47924
3.53422
2.69493
2.73484
2.77732
2.82252
2.86933
2.91457
2.95058
2.99959
2.1285
2.16601
2.20665
2.25001
2.29489
2.33862
2.37396
2.42212
1.56162
1.59456
1.62927
1.66577
1.70327
1.73967
1.76834
1.81126
0.909234
0.93392
0.963755
0.997897
1.03522
1.07353
1.0978
1.14741
0.424496
0.440788
0.452003
0.45945
0.464717
0.472509
0.487193
0.444242
)
;

boundaryField
{
    frontAndBack
    {
        type            empty;
    }
    inlet
    {
        type            zeroGradient;
    }
    outlet
    {
        type            fixedValue;
        value           uniform 0;
    }
    walls
    {
        type            zeroGradient;
    }
}


// ************************************************************************* //
