/*--------------------------------*- C++ -*----------------------------------*\
| =========                 |                                                 |
| \\      /  F ield         | OpenFOAM: The Open Source CFD Toolbox           |
|  \\    /   O peration     | Version:  v2012                                 |
|   \\  /    A nd           | Website:  www.openfoam.com                      |
|    \\/     M anipulation  |                                                 |
\*---------------------------------------------------------------------------*/
FoamFile
{
    version     2.0;
    format      ascii;
    class       volScalarField;
    location    "0.045";
    object      nut.air;
}
// * * * * * * * * * * * * * * * * * * * * * * * * * * * * * * * * * * * * * //

dimensions      [0 2 -1 0 0 0 0];


internalField   nonuniform List<scalar> 
5600
(
1.31581e-05
2.97912e-05
4.99393e-05
6.50414e-05
7.30472e-05
7.56116e-05
7.5016e-05
7.28133e-05
7.01558e-05
6.77026e-05
6.55249e-05
6.3742e-05
6.24371e-05
6.16108e-05
6.12082e-05
6.11466e-05
6.1337e-05
6.16859e-05
6.21105e-05
6.25387e-05
6.29364e-05
6.32781e-05
6.35671e-05
6.38025e-05
6.39972e-05
6.41643e-05
6.43139e-05
6.44497e-05
6.45727e-05
6.46888e-05
6.47964e-05
6.48912e-05
6.49742e-05
6.50444e-05
6.51001e-05
6.5143e-05
6.51768e-05
6.52043e-05
6.52277e-05
6.52454e-05
6.52584e-05
6.52626e-05
6.52663e-05
6.52602e-05
6.52625e-05
6.52475e-05
6.52565e-05
6.52304e-05
6.52569e-05
6.52122e-05
6.52705e-05
6.51908e-05
6.52989e-05
6.5165e-05
6.53418e-05
6.51334e-05
6.53975e-05
6.50938e-05
6.54573e-05
6.50525e-05
6.55026e-05
6.50362e-05
6.54961e-05
6.50913e-05
6.53912e-05
6.5254e-05
6.51819e-05
6.54858e-05
6.49742e-05
6.56172e-05
6.49771e-05
6.54433e-05
6.53306e-05
6.49373e-05
6.59182e-05
6.43936e-05
6.63317e-05
6.42379e-05
6.62063e-05
6.46477e-05
6.55433e-05
6.54401e-05
6.4684e-05
6.62227e-05
6.41406e-05
6.63527e-05
6.46176e-05
6.51241e-05
6.65083e-05
6.28333e-05
6.88292e-05
6.13807e-05
6.92979e-05
6.21072e-05
6.7473e-05
6.35348e-05
6.7302e-05
5.87664e-05
8.37346e-05
1.3212e-05
0.000160628
0.000142534
0.000113684
0.000102292
0.000100839
0.000107401
0.000116979
0.000134227
0.000149166
0.000162703
0.000179943
0.0001998
0.000221226
0.000243385
0.000265572
0.00028709
0.000307437
0.000326217
0.00034333
0.000358606
0.000372213
0.000384175
0.000394908
0.000404493
0.000413255
0.000421313
0.000428819
0.000435709
0.000442107
0.000448116
0.000453623
0.000458565
0.000462954
0.000466759
0.000470007
0.000472792
0.000475231
0.000477435
0.000479509
0.00048143
0.000483271
0.000484909
0.000486519
0.000487743
0.00048911
0.000489773
0.00049101
0.000490902
0.000492297
0.000491211
0.000493279
0.000490914
0.000494245
0.00049011
0.000495439
0.000489056
0.000496869
0.000487824
0.00049834
0.000486745
0.000499215
0.000486704
0.000498333
0.000489008
0.000494549
0.000494248
0.000488389
0.000500319
0.000483868
0.000501886
0.000486504
0.00049438
0.000498571
0.000479325
0.00051402
0.000466922
0.000521137
0.000467172
0.00051287
0.000482092
0.000492374
0.000504728
0.000470222
0.000522746
0.000461009
0.00051829
0.000482583
0.000477198
0.000538314
0.000418655
0.000587507
0.000394816
0.000573966
0.00043767
0.000494658
0.000526744
0.000406523
0.000598618
0.000384133
0.000623298
0.000158607
0.000156118
0.000150502
0.000143781
0.000134685
0.000123927
0.000114686
0.000108922
0.000106789
0.000108403
0.000113445
0.000121323
0.000132038
0.000145347
0.00016143
0.000180121
0.000201386
0.00022478
0.000250607
0.000278596
0.000308848
0.000341184
0.000375939
0.000412638
0.000447649
0.000478115
0.000507362
0.000534566
0.000560181
0.000580298
0.000598134
0.000614064
0.000628423
0.000641614
0.000653664
0.000664566
0.00067449
0.000683635
0.000692355
0.000700643
0.000708842
0.000716477
0.000724207
0.000730618
0.000737399
0.000741503
0.000747206
0.00074824
0.000753717
0.000751201
0.000757969
0.00075135
0.000761234
0.000749689
0.000764475
0.000746932
0.000767989
0.000743868
0.000771126
0.000741903
0.000771885
0.0007437
0.000767173
0.000752142
0.000755342
0.000766528
0.000740642
0.00077863
0.000734726
0.000775039
0.000749517
0.000749437
0.000782879
0.000713923
0.00081369
0.000694049
0.00081665
0.000708421
0.000784702
0.000752681
0.000733045
0.000804664
0.000687169
0.000834408
0.00068243
0.000801921
0.00075464
0.000693603
0.000878791
0.000574419
0.000947789
0.000563756
0.000867827
0.000718117
0.000657719
0.00096311
0.000437682
0.00113742
0.000396877
0.000941269
0.000159206
0.000156931
0.000154712
0.000152577
0.000150241
0.000147476
0.000144033
0.000140319
0.000136362
0.000132435
0.000128861
0.000124959
0.000121674
0.000119039
0.000117899
0.000118086
0.000121008
0.000125703
0.00013358
0.000144116
0.000158382
0.000175653
0.000196881
0.000221469
0.000250177
0.000281567
0.000316068
0.000352031
0.000388009
0.000420804
0.000453224
0.000485016
0.000516211
0.000546355
0.000574999
0.000602097
0.000627702
0.000652068
0.000675973
0.000699499
0.000723434
0.000746441
0.000769669
0.000789339
0.000807355
0.000818096
0.000831935
0.000835569
0.000848183
0.000843892
0.000858464
0.000845432
0.000865648
0.000842652
0.000872039
0.000837546
0.000878383
0.000832187
0.000883227
0.000829974
0.00088227
0.000836289
0.000869978
0.000855364
0.000845632
0.000882489
0.000820967
0.000898721
0.000819164
0.000881176
0.000856456
0.000827642
0.000918559
0.000768647
0.000961325
0.000749088
0.000947708
0.000789858
0.00087882
0.000876451
0.000787297
0.00096202
0.000718969
0.000992971
0.00073577
0.000908327
0.000883665
0.000710529
0.00108455
0.000520187
0.00115388
0.000546751
0.000981992
0.000844539
0.000625921
0.00122187
0.00031207
0.00131973
0.000381093
0.000929949
0.000159347
0.000157196
0.000155318
0.000153615
0.000152088
0.000150611
0.000149238
0.000147765
0.000146416
0.000144852
0.00014348
0.000141739
0.00014026
0.000138271
0.000136761
0.000134429
0.000132949
0.000130609
0.000128584
0.000126451
0.000125269
0.000124652
0.000126059
0.000128797
0.000134769
0.000142433
0.000154116
0.000168035
0.000186134
0.000207138
0.000231407
0.000258225
0.000288229
0.000320413
0.000354803
0.000384524
0.00041205
0.00043907
0.000466578
0.000494505
0.000524342
0.000553842
0.000585461
0.000613155
0.000643411
0.000663282
0.000689522
0.000696967
0.000720578
0.000713931
0.000739547
0.000718447
0.000751989
0.000715165
0.000761802
0.000707674
0.000771274
0.000700321
0.000777573
0.000699121
0.000773505
0.000712234
0.000751146
0.00074442
0.000712681
0.000784729
0.000680158
0.000800956
0.000688509
0.000762248
0.000754936
0.00067593
0.0008477
0.000598064
0.000895796
0.000589663
0.000854047
0.000667419
0.000740019
0.000795655
0.000609893
0.000909119
0.000531482
0.000925126
0.000588505
0.000767612
0.000820787
0.000489924
0.00108556
0.000305037
0.00111942
0.000399256
0.000841841
0.000778936
0.00039195
0.00119089
0.000129086
0.00120828
0.0003079
0.000771319
0.000159376
0.00015728
0.000155471
0.000153862
0.00015244
0.000151129
0.000149958
0.000148834
0.000147825
0.000146824
0.000145918
0.000144992
0.000144151
0.000143261
0.000142472
0.000141576
0.000140795
0.000139932
0.00013906
0.000138139
0.000137207
0.000136144
0.000135208
0.000134027
0.000133285
0.000131966
0.000131466
0.000130743
0.000131019
0.000132211
0.000134907
0.000139163
0.000145852
0.000154761
0.000166521
0.00018058
0.000196863
0.0002142
0.000233905
0.000254946
0.000281061
0.000308148
0.000342098
0.000372016
0.000410417
0.000427036
0.000454932
0.00045909
0.000486789
0.000475045
0.000507358
0.000477804
0.000521323
0.000472032
0.000532961
0.000462107
0.000543117
0.000454087
0.000547315
0.000456799
0.000535561
0.000480168
0.000500659
0.000525607
0.000452751
0.000570102
0.000425557
0.000570841
0.000457056
0.000502607
0.00055185
0.000399593
0.000649666
0.000335175
0.000672045
0.00035745
0.000593665
0.000465798
0.000458146
0.000609963
0.000331407
0.000715035
0.000282188
0.000688029
0.000379721
0.000484161
0.000635985
0.000235583
0.000858676
9.14345e-05
0.00083687
0.000245203
0.000585633
0.000565298
0.000204961
0.000873368
7.01904e-05
0.000964979
0.000149383
0.000655834
0.000159383
0.000157309
0.000155518
0.000153941
0.00015254
0.000151276
0.000150132
0.000149078
0.000148109
0.000147206
0.000146363
0.000145571
0.000144822
0.000144112
0.000143438
0.000142788
0.000142166
0.000141574
0.000140986
0.000140432
0.00013988
0.000139337
0.000138822
0.000138276
0.000137798
0.000137245
0.000136761
0.000136241
0.000135706
0.000135242
0.000134763
0.000134357
0.000134036
0.000133767
0.000133779
0.000134012
0.000135021
0.000136123
0.000138522
0.000140606
0.000146029
0.000150933
0.000162488
0.000170902
0.000188831
0.000197069
0.000217438
0.000219043
0.000240335
0.000231119
0.000255626
0.00023286
0.000265734
0.000226809
0.00027348
0.000217038
0.000279016
0.000210508
0.000278004
0.000217055
0.000262656
0.000243177
0.00022936
0.00028017
0.000191395
0.000302237
0.000184467
0.000284517
0.000232355
0.000223703
0.000299149
0.00014967
0.000333307
0.000123426
0.000324978
0.000170202
0.000287585
0.000242878
0.000213506
0.00031801
0.000105773
0.000371249
6.575e-05
0.000361831
0.000175506
0.000260448
0.000304601
8.67212e-05
0.000348892
7.79392e-05
0.000407129
0.000110413
0.000391995
0.000242314
0.000125879
0.000412134
4.42615e-06
0.000470808
8.91331e-05
0.000505208
0.000159386
0.00015732
0.000155535
0.000153969
0.000152577
0.000151327
0.000150192
0.000149155
0.000148201
0.000147317
0.000146493
0.000145724
0.000145
0.000144318
0.000143672
0.00014306
0.000142475
0.00014192
0.000141385
0.000140877
0.000140384
0.000139913
0.000139459
0.000139018
0.000138595
0.000138179
0.000137779
0.00013739
0.000137009
0.000136645
0.000136289
0.000135938
0.000135605
0.000135269
0.000134975
0.000134663
0.00013446
0.00013416
0.000134054
0.000133678
0.000133759
0.000133407
0.000134094
0.000133953
0.000135658
0.000135535
0.000138063
0.000136979
0.000140074
0.000136868
0.000141266
0.000134645
0.000142342
0.000130563
0.000144009
0.000125651
0.000145681
0.000122685
0.000145031
0.000125885
0.000138609
0.000136535
0.000124805
0.00014892
0.000110657
0.000154126
0.000113121
0.000146538
0.000132338
0.000127925
0.000146401
0.000115788
0.000146793
0.000122515
0.000146098
0.000120645
0.00015669
0.000115416
0.000156243
0.000137783
9.76319e-05
0.000174049
3.85749e-05
0.000191199
8.38393e-05
0.000171336
0.000135224
0.000121104
0.000155323
7.28848e-05
0.000174407
6.26809e-05
0.000182171
0.000131743
9.59933e-05
0.000200528
4.92247e-05
0.00016571
0.000207858
0.000130099
0.000159387
0.000157324
0.000155542
0.00015398
0.000152592
0.000151346
0.000150217
0.000149185
0.000148236
0.000147359
0.000146542
0.000145779
0.000145064
0.00014439
0.000143753
0.000143149
0.000142576
0.00014203
0.000141509
0.00014101
0.000140533
0.000140075
0.000139635
0.000139212
0.000138804
0.000138408
0.000138026
0.000137656
0.0001373
0.000136956
0.000136621
0.00013629
0.000135973
0.000135655
0.000135371
0.000135066
0.000134825
0.000134497
0.000134305
0.000133903
0.000133819
0.000133327
0.000133475
0.000132866
0.000133302
0.000132474
0.000133123
0.000131962
0.000132765
0.000131211
0.000132414
0.000130228
0.000132614
0.000128991
0.000133797
0.000127604
0.000135557
0.000126905
0.000136263
0.000128566
0.000133944
0.000133421
0.000128674
0.000139145
0.000124421
0.000140969
0.000126077
0.000136829
0.000132157
0.00013171
0.000134548
0.000133087
0.000130435
0.000137325
0.000129728
0.000132403
0.000138508
0.00012446
0.000139657
0.000134924
0.000118669
0.000152091
0.000110916
0.000139855
0.00014553
0.000103889
0.000167969
0.000101554
0.000141929
0.000152886
9.08934e-05
0.000199837
6.05076e-05
0.000190706
8.60559e-05
0.000145111
0.000158425
6.96894e-05
0.000225376
5.10947e-05
0.000159388
0.000157326
0.000155546
0.000153985
0.000152599
0.000151355
0.000150227
0.000149198
0.000148252
0.000147376
0.000146563
0.000145803
0.00014509
0.000144419
0.000143785
0.000143185
0.000142616
0.000142073
0.000141556
0.000141062
0.000140589
0.000140135
0.0001397
0.000139282
0.000138879
0.000138488
0.000138111
0.000137747
0.000137397
0.000137059
0.000136731
0.000136407
0.000136094
0.000135786
0.000135501
0.000135212
0.000134958
0.00013466
0.000134424
0.000134091
0.000133904
0.000133555
0.000133475
0.000133112
0.000133122
0.000132689
0.000132692
0.000132156
0.00013209
0.000131533
0.000131469
0.000131022
0.000131146
0.000130822
0.000131346
0.000130955
0.000132004
0.000131337
0.000132716
0.000132062
0.000132793
0.000133512
0.000131694
0.000135659
0.000130127
0.000136973
0.000130399
0.000135285
0.000133701
0.000131413
0.00013708
0.000129594
0.000137082
0.000130742
0.000135992
0.000131043
0.000135962
0.000132704
0.000130839
0.00014093
0.000122409
0.0001421
0.000134952
0.000114927
0.000172882
7.52921e-05
0.000189261
8.0809e-05
0.000150365
0.000156882
7.73493e-05
0.000232247
2.40817e-05
0.000224293
5.42723e-05
0.000148682
0.00018237
5.71447e-05
0.000310516
7.57726e-07
0.000159388
0.000157326
0.000155546
0.000153985
0.000152599
0.000151355
0.000150228
0.000149198
0.000148252
0.000147376
0.000146563
0.000145803
0.00014509
0.000144419
0.000143786
0.000143185
0.000142616
0.000142073
0.000141556
0.000141062
0.000140589
0.000140135
0.0001397
0.000139282
0.000138879
0.000138488
0.000138111
0.000137747
0.000137397
0.000137059
0.000136731
0.000136407
0.000136094
0.000135786
0.000135501
0.000135213
0.000134957
0.000134662
0.00013442
0.000134097
0.000133894
0.000133571
0.000133453
0.000133147
0.00013308
0.000132753
0.000132623
0.000132256
0.000131996
0.000131658
0.000131361
0.000131156
0.000131029
0.000130984
0.000131152
0.000131265
0.000131575
0.000131936
0.000132023
0.000132731
0.000132413
0.000133306
0.000132787
0.000133607
0.000132978
0.000133932
0.000132857
0.000134192
0.000133048
0.000133548
0.000134353
0.000131927
0.000135673
0.000131805
0.000133661
0.000136734
0.000125841
0.000146839
0.000114634
0.000155016
0.000111086
0.000147587
0.000133361
0.000113984
0.000182456
6.48556e-05
0.000216021
4.22415e-05
0.000191589
9.63423e-05
0.000122383
0.000206726
5.27187e-05
0.000265945
2.20889e-05
0.000225363
6.76911e-05
0.000143242
0.000191441
6.01336e-05
0.000159387
0.000157324
0.000155543
0.00015398
0.000152592
0.000151346
0.000150217
0.000149186
0.000148237
0.000147359
0.000146542
0.00014578
0.000145064
0.00014439
0.000143753
0.00014315
0.000142576
0.00014203
0.000141509
0.00014101
0.000140533
0.000140074
0.000139635
0.000139212
0.000138803
0.000138407
0.000138025
0.000137655
0.000137299
0.000136954
0.000136619
0.000136289
0.00013597
0.000135657
0.000135365
0.000135074
0.000134813
0.000134523
0.000134278
0.000133965
0.000133756
0.00013346
0.000133354
0.000133127
0.000133115
0.000132919
0.000132858
0.000132613
0.000132379
0.000132099
0.000131761
0.000131536
0.000131324
0.000131189
0.000131294
0.000131208
0.000131597
0.000131582
0.000131976
0.000132161
0.000132249
0.000132722
0.000132422
0.000133075
0.000132625
0.000133057
0.000133142
0.000132357
0.000134461
0.000130563
0.000136848
0.000127893
0.000139073
0.00012696
0.000136774
0.00013446
0.00012342
0.000156032
9.75391e-05
0.000181657
7.34046e-05
0.000185215
8.36944e-05
0.000149922
0.000150832
8.73149e-05
0.000228961
3.37937e-05
0.000239159
3.53387e-05
0.000180667
0.000118971
0.000104598
0.000248395
4.15555e-05
0.000305789
2.18481e-05
0.000251212
2.53885e-05
0.000189873
0.000159386
0.00015732
0.000155535
0.00015397
0.000152577
0.000151328
0.000150192
0.000149157
0.0001482
0.000147318
0.000146493
0.000145725
0.000144999
0.000144319
0.000143672
0.000143059
0.000142475
0.000141918
0.000141385
0.000140874
0.000140382
0.000139911
0.000139453
0.000139015
0.000138588
0.000138173
0.000137774
0.000137381
0.000137003
0.000136637
0.000136282
0.000135936
0.000135603
0.00013528
0.000134983
0.000134716
0.000134504
0.000134303
0.000134158
0.000133973
0.00013396
0.000134018
0.000134506
0.000135284
0.000136608
0.000138028
0.000139574
0.00014082
0.000141718
0.000142183
0.000142181
0.000141895
0.000141371
0.000140658
0.000140098
0.000139205
0.000138903
0.000138044
0.000138124
0.00013741
0.00013774
0.000137213
0.000137449
0.000137444
0.000136935
0.000138066
0.000136312
0.000138373
0.00013676
0.000136661
0.000140425
0.000131209
0.000147924
0.000122897
0.00015397
0.000119346
0.000148398
0.000135405
0.000125528
0.000173002
9.19261e-05
0.000201
7.02258e-05
0.00019007
9.36357e-05
0.00014453
0.000167539
9.21498e-05
0.00022992
5.95162e-05
0.000229099
6.14379e-05
0.00018564
0.000106069
0.00013402
0.000191633
8.72781e-05
0.000251239
5.48162e-05
0.000246568
0.000159382
0.000157311
0.000155516
0.000153945
0.000152537
0.000151282
0.000150126
0.000149084
0.000148102
0.000147213
0.000146355
0.000145578
0.000144811
0.000144118
0.000143425
0.000142788
0.000142156
0.000141566
0.000140971
0.000140421
0.00013985
0.000139326
0.000138773
0.000138267
0.000137735
0.000137213
0.000136721
0.000136175
0.000135689
0.000135213
0.000134804
0.000134472
0.000134239
0.000134171
0.000134451
0.000135241
0.00013673
0.000138851
0.000141778
0.00014578
0.000151672
0.000160112
0.000171359
0.000185433
0.000201065
0.000216529
0.000230959
0.000243182
0.00025302
0.000260195
0.000265114
0.000268018
0.000269547
0.000269831
0.000269752
0.000268746
0.000268519
0.00026701
0.000267706
0.000265618
0.000267799
0.000264544
0.000268339
0.000264009
0.000268263
0.000265005
0.000266147
0.00026854
0.000261594
0.000273426
0.000257628
0.000274419
0.000261257
0.000264989
0.000277182
0.000245699
0.000296429
0.000230586
0.000299205
0.000239262
0.000276873
0.000273667
0.00024304
0.000307716
0.000219386
0.000316324
0.000219427
0.000298572
0.00024585
0.000267483
0.000286445
0.000233793
0.000320739
0.000204555
0.000334793
0.00019651
0.000317334
0.000232696
0.000261967
0.000320578
0.000159371
0.000157289
0.00015546
0.000153878
0.000152421
0.000151153
0.000149929
0.000148864
0.000147783
0.00014686
0.000145857
0.000145035
0.000144065
0.000143305
0.000142366
0.000141594
0.000140684
0.000139895
0.000138903
0.000138071
0.00013696
0.000136081
0.000134888
0.000134069
0.000132967
0.000132154
0.000131644
0.000131468
0.000132436
0.000134598
0.000138569
0.000144546
0.000153036
0.000164177
0.000178239
0.000194636
0.000212904
0.000232637
0.00025416
0.000278254
0.000305783
0.000336839
0.000370652
0.000406484
0.000433617
0.00045662
0.000476363
0.000492169
0.0005044
0.000513026
0.000519019
0.000522634
0.000524854
0.000525791
0.000526329
0.000526114
0.000526388
0.000525727
0.000526894
0.000525443
0.000528113
0.000524809
0.000529761
0.000523833
0.000531188
0.000523504
0.000530753
0.000525957
0.000526282
0.00053289
0.000517746
0.000541892
0.000510606
0.000544617
0.000514634
0.000532364
0.000534504
0.000508005
0.000559496
0.000488104
0.00057032
0.000488633
0.000557274
0.000511381
0.000526782
0.000545929
0.00049236
0.000576765
0.000470229
0.000585253
0.000477748
0.000558675
0.00051867
0.000507334
0.000572085
0.000463579
0.000598574
0.000460903
0.000577895
0.000496773
0.000159329
0.000157227
0.000155281
0.000153665
0.000152024
0.000150684
0.000149132
0.000147848
0.000146246
0.000144947
0.000143219
0.000141843
0.000139859
0.000138403
0.000136219
0.000134544
0.000132398
0.000130507
0.000128117
0.000126762
0.00012544
0.000126289
0.000127902
0.000132917
0.00013959
0.000150139
0.000163218
0.000180101
0.000200385
0.000223982
0.000250564
0.000280152
0.000312557
0.000347352
0.00038012
0.000408957
0.000437178
0.000465052
0.000493144
0.000522098
0.000552124
0.000583051
0.00061389
0.00064349
0.000670865
0.000694609
0.000714372
0.000729822
0.00074157
0.000749823
0.000755591
0.000759153
0.00076146
0.000762636
0.00076341
0.000763589
0.000764062
0.000763946
0.000764805
0.000764022
0.000765787
0.000763686
0.00076707
0.000762854
0.000768408
0.000762111
0.000768878
0.000762899
0.000766668
0.000767104
0.000760615
0.00077459
0.000753085
0.000780372
0.000751184
0.000776583
0.000761417
0.000760484
0.000781039
0.000740891
0.000797189
0.000731996
0.0007972
0.000740746
0.000779642
0.000764548
0.000751371
0.000794185
0.000724834
0.000813002
0.000718525
0.000803907
0.000741902
0.000767036
0.000784645
0.000724551
0.000820533
0.000703739
0.000823606
0.000714829
0.000159152
0.000157012
0.000154619
0.000152681
0.000150088
0.000147568
0.000143719
0.000140378
0.00013591
0.000132609
0.000128497
0.000125196
0.000121586
0.000119977
0.000118712
0.000120425
0.00012364
0.000130149
0.000138796
0.000151509
0.000166946
0.000186888
0.000209798
0.000237675
0.000268418
0.000302787
0.000338772
0.000376868
0.000410511
0.000443877
0.000476722
0.000509037
0.000540495
0.000570624
0.000599316
0.000626376
0.000651859
0.000676217
0.000700009
0.000723702
0.000747312
0.000770647
0.000792629
0.000811569
0.000826305
0.000838684
0.000848798
0.000856605
0.000862513
0.000866634
0.000869529
0.00087129
0.000872455
0.000873035
0.000873461
0.000873575
0.000873823
0.000873729
0.000874162
0.000873726
0.000874653
0.000873456
0.00087536
0.000872871
0.000876212
0.000872231
0.000876698
0.000872383
0.000875711
0.000874586
0.000872238
0.000879183
0.000867179
0.000883676
0.000864603
0.000883002
0.000869329
0.000874194
0.000881198
0.000861233
0.000892965
0.000853018
0.000895975
0.000855761
0.000887304
0.000869315
0.000869866
0.000888876
0.00085089
0.000904216
0.000842446
0.000902686
0.000854393
0.000880668
0.000883022
0.000850085
0.000911246
0.000829545
0.000920059
0.000833096
0.000158436
0.00015637
0.000150182
0.000144071
0.00013431
0.000124112
0.000114727
0.000109913
0.000108402
0.000111178
0.000116853
0.000125853
0.000137289
0.000151809
0.000168821
0.000188913
0.000211182
0.000236122
0.000263139
0.000292911
0.000324531
0.000359202
0.00039567
0.000434019
0.000465926
0.00049645
0.000525204
0.000552288
0.000576332
0.000595689
0.000612868
0.000628229
0.000642306
0.000655225
0.000666963
0.000677551
0.000687175
0.0006961
0.000704562
0.000712721
0.000720654
0.000728339
0.000735636
0.000742331
0.000748217
0.000753134
0.000757121
0.00076016
0.000762445
0.000764008
0.000765111
0.00076576
0.000766213
0.000766439
0.00076664
0.000766709
0.00076685
0.000766848
0.000767062
0.000766904
0.000767319
0.000766808
0.000767674
0.000766523
0.000768133
0.000766129
0.000768522
0.000765984
0.000768322
0.000766762
0.000766858
0.000768949
0.000764147
0.000771778
0.000761852
0.000772787
0.000762793
0.000769546
0.000768149
0.000762779
0.000775259
0.000756634
0.000779314
0.000755451
0.000777175
0.000760764
0.00076897
0.000771092
0.000757702
0.000781757
0.000749595
0.000785354
0.0007516
0.000777264
0.000764563
0.000761281
0.000781885
0.000745756
0.000794825
0.000739887
0.000160071
0.000143084
0.000113684
0.000103869
0.000102194
0.000110549
0.000120044
0.000140462
0.00015283
0.000167349
0.000185399
0.000205865
0.000227687
0.000250126
0.000272397
0.000293933
0.000314058
0.000332662
0.000349381
0.000364436
0.00037766
0.000389462
0.000399995
0.000409502
0.000418255
0.000426258
0.000433676
0.000440413
0.000446724
0.000452579
0.000457892
0.000462628
0.00046676
0.00047032
0.000473353
0.000475947
0.000478226
0.0004803
0.000482237
0.000484056
0.000485767
0.000487364
0.000488824
0.000490106
0.000491232
0.00049215
0.000492876
0.000493403
0.000493792
0.000494037
0.000494219
0.000494317
0.000494406
0.000494443
0.000494506
0.000494553
0.000494634
0.000494659
0.000494739
0.000494714
0.000494843
0.000494705
0.000494968
0.000494617
0.000495142
0.000494456
0.000495335
0.000494315
0.000495396
0.000494427
0.000495045
0.000495084
0.000494085
0.000496256
0.000492898
0.000497188
0.000492532
0.000496738
0.000493926
0.000494461
0.000496791
0.00049149
0.000499345
0.000489819
0.000499834
0.00049068
0.000497576
0.000494211
0.000493054
0.000499197
0.000488402
0.000502707
0.000486762
0.000502066
0.00048972
0.000497247
0.000496099
0.000490165
0.000504153
0.000484472
1.31395e-05
2.98127e-05
4.99757e-05
6.50307e-05
7.28873e-05
7.53215e-05
7.45946e-05
7.22664e-05
6.96038e-05
6.7142e-05
6.49396e-05
6.31746e-05
6.19137e-05
6.11515e-05
6.08141e-05
6.08215e-05
6.10635e-05
6.14553e-05
6.18988e-05
6.2341e-05
6.27375e-05
6.30772e-05
6.3362e-05
6.35924e-05
6.37914e-05
6.39636e-05
6.41184e-05
6.42572e-05
6.43834e-05
6.45014e-05
6.46077e-05
6.47007e-05
6.47803e-05
6.48449e-05
6.48948e-05
6.49324e-05
6.49614e-05
6.4985e-05
6.50044e-05
6.5019e-05
6.50281e-05
6.50321e-05
6.50324e-05
6.50299e-05
6.50258e-05
6.50203e-05
6.50149e-05
6.50097e-05
6.50062e-05
6.50034e-05
6.5003e-05
6.50028e-05
6.50048e-05
6.50066e-05
6.50111e-05
6.5015e-05
6.50206e-05
6.50238e-05
6.50284e-05
6.50294e-05
6.50343e-05
6.50313e-05
6.50397e-05
6.50294e-05
6.50461e-05
6.50241e-05
6.50538e-05
6.50178e-05
6.50587e-05
6.50178e-05
6.50514e-05
6.50355e-05
6.50221e-05
6.50758e-05
6.49758e-05
6.51195e-05
6.49464e-05
6.51235e-05
6.4976e-05
6.50584e-05
6.50714e-05
6.4946e-05
6.51826e-05
6.4857e-05
6.52345e-05
6.4854e-05
6.51842e-05
6.49573e-05
6.50341e-05
6.51416e-05
6.48397e-05
6.53159e-05
6.47197e-05
6.53603e-05
6.4763e-05
6.52318e-05
6.49678e-05
6.49617e-05
6.52644e-05
6.46368e-05
0.000567578
0.00146839
0.00219646
0.00291353
0.00418373
0.00498692
0.00498829
0.00514448
0.00524148
0.00312648
0.00159228
0.000825263
0.000499106
0.000361166
0.000418453
0.000471507
0.000429759
0.000407761
0.000393552
0.000362657
0.000322465
0.000287674
0.000263777
0.000248042
0.000235815
0.000224368
0.000213322
0.000203403
0.000195169
0.000188485
0.000182726
0.000177266
0.000171833
0.000166562
0.000161781
0.000157697
0.000154188
0.000150898
0.000147578
0.000144287
0.000141264
0.000138741
0.000136859
0.000135605
0.000134838
0.000134393
0.000134144
0.000134006
0.00013393
0.000133887
0.000133862
0.000133848
0.00013384
0.000133835
0.000133833
0.000133831
0.00013383
0.00013383
0.00013383
0.000133829
0.000133829
0.000133829
0.000133829
0.000133829
0.000133829
0.000133829
0.00013383
0.000133828
0.00013383
0.000133828
0.000133831
0.000133827
0.000133832
0.000133827
0.000133831
0.000133827
0.000133831
0.000133828
0.00013383
0.000133828
0.00013383
0.000133828
0.00013383
0.000133828
0.00013383
0.000133827
0.000133831
0.000133827
0.000133831
0.000133827
0.000133831
0.000133827
0.000133831
0.000133826
0.000133831
0.000133825
0.00013383
0.000133823
0.000133825
0.000133814
0.000363682
0.00103756
0.00181582
0.00235033
0.00354799
0.00434335
0.00447764
0.00503453
0.00434215
0.00232316
0.00110274
0.000567709
0.000419016
0.000341106
0.000383424
0.000453564
0.000437935
0.000405418
0.00037387
0.000335731
0.000296613
0.000265749
0.000245503
0.000232715
0.000223171
0.000214239
0.000205331
0.00019706
0.000190081
0.000184426
0.000179555
0.000174837
0.000169958
0.000165044
0.000160462
0.000156494
0.000153093
0.00014995
0.000146812
0.000143725
0.000140922
0.000138591
0.000136819
0.0001356
0.000134834
0.000134376
0.000134111
0.000133959
0.000133872
0.000133823
0.000133795
0.000133779
0.00013377
0.000133765
0.000133762
0.00013376
0.00013376
0.000133759
0.000133759
0.000133759
0.000133759
0.000133759
0.000133759
0.000133758
0.000133759
0.000133758
0.000133759
0.000133758
0.00013376
0.000133757
0.000133761
0.000133756
0.000133761
0.000133756
0.000133761
0.000133757
0.00013376
0.000133758
0.000133759
0.000133758
0.000133759
0.000133758
0.000133759
0.000133758
0.000133759
0.000133757
0.00013376
0.000133757
0.00013376
0.000133757
0.00013376
0.000133757
0.00013376
0.000133756
0.00013376
0.000133756
0.000133759
0.000133754
0.000133757
0.000133749
0.000565351
0.000593517
0.00131923
0.00163326
0.00274745
0.00350761
0.00369385
0.0043809
0.00321917
0.00151205
0.000630098
0.000348575
0.000397461
0.000303634
0.000341461
0.000455417
0.000450201
0.000414067
0.000372435
0.000329396
0.000290112
0.000260004
0.000239831
0.000226838
0.000217459
0.000209137
0.000200974
0.000193319
0.000186794
0.000181529
0.00017707
0.000172773
0.000168258
0.000163589
0.000159135
0.000155249
0.000151981
0.000149065
0.000146216
0.00014341
0.000140844
0.000138685
0.000136989
0.000135759
0.000134944
0.000134437
0.000134134
0.000133955
0.000133852
0.000133793
0.00013376
0.000133741
0.000133731
0.000133725
0.000133722
0.00013372
0.000133719
0.000133719
0.000133718
0.000133718
0.000133718
0.000133718
0.000133718
0.000133718
0.000133718
0.000133718
0.000133719
0.000133717
0.000133719
0.000133717
0.00013372
0.000133716
0.00013372
0.000133716
0.00013372
0.000133717
0.000133719
0.000133718
0.000133718
0.000133718
0.000133718
0.000133719
0.000133718
0.000133718
0.000133718
0.000133718
0.000133719
0.000133717
0.000133719
0.000133718
0.000133719
0.000133718
0.000133719
0.000133718
0.000133718
0.000133718
0.000133719
0.000133719
0.000133719
0.000133721
0.000903125
0.000429929
0.00114751
0.000810197
0.00179175
0.00243609
0.00273762
0.00327144
0.00193697
0.000749511
0.000209106
0.000336976
0.000384562
0.000299937
0.000346932
0.000419877
0.000442214
0.000416111
0.000372177
0.000327005
0.000287926
0.000258375
0.000238109
0.000224663
0.000215015
0.000206775
0.000198853
0.000191356
0.000184846
0.000179558
0.000175157
0.00017103
0.000166728
0.000162219
0.000157829
0.00015396
0.000150775
0.000148105
0.000145642
0.000143236
0.00014097
0.000138982
0.000137346
0.000136092
0.000135211
0.000134636
0.000134277
0.000134061
0.000133933
0.000133858
0.000133816
0.000133792
0.000133778
0.000133771
0.000133767
0.000133764
0.000133763
0.000133763
0.000133762
0.000133762
0.000133762
0.000133762
0.000133762
0.000133762
0.000133762
0.000133762
0.000133763
0.000133761
0.000133763
0.000133761
0.000133764
0.00013376
0.000133764
0.00013376
0.000133763
0.000133761
0.000133762
0.000133762
0.000133762
0.000133763
0.000133761
0.000133763
0.000133761
0.000133763
0.000133761
0.000133763
0.000133762
0.000133762
0.000133762
0.000133763
0.000133761
0.000133763
0.000133761
0.000133764
0.000133761
0.000133765
0.000133762
0.000133767
0.000133765
0.000133776
0.000925405
0.000404144
0.00118429
0.000371388
0.00107113
0.00121078
0.00170045
0.00178232
0.000741919
8.05094e-05
0.000114739
0.000482013
0.000339446
0.000333306
0.00031644
0.000371546
0.000420364
0.000414161
0.000374549
0.000328523
0.000288747
0.000258862
0.000238141
0.000224148
0.00021414
0.000205845
0.000198017
0.000190531
0.000183863
0.00017835
0.000173806
0.000169683
0.000165482
0.000161061
0.000156667
0.000152717
0.000149496
0.00014697
0.000144866
0.000142904
0.000140999
0.000139221
0.000137674
0.000136429
0.000135506
0.000134869
0.000134455
0.000134195
0.000134038
0.000133944
0.00013389
0.000133859
0.000133841