/*--------------------------------*- C++ -*----------------------------------*\
| =========                 |                                                 |
| \\      /  F ield         | OpenFOAM: The Open Source CFD Toolbox           |
|  \\    /   O peration     | Version:  v2012                                 |
|   \\  /    A nd           | Website:  www.openfoam.com                      |
|    \\/     M anipulation  |                                                 |
\*---------------------------------------------------------------------------*/
FoamFile
{
    version     2.0;
    format      ascii;
    class       volScalarField;
    location    "0.054";
    object      epsilon.air;
}
// * * * * * * * * * * * * * * * * * * * * * * * * * * * * * * * * * * * * * //

dimensions      [0 2 -3 0 0 0 0];


internalField   nonuniform List<scalar> 
1900
(
112.724
141.424
210.097
257.591
369.051
443.456
614.741
724.901
971.329
1128.61
15.4676
16.4471
18.6371
20.4509
23.7566
27.7278
32.0032
39.2876
45.1231
56.7642
14.7926
14.6415
14.5755
14.5063
14.5148
14.5574
14.6409
14.8309
15.0773
15.4133
14.7701
14.6303
14.4635
14.3353
14.1726
14.0589
13.904
13.8079
13.6654
13.5937
14.7768
14.6214
14.4706
14.3203
14.175
14.0287
13.8892
13.747
13.6141
13.4767
14.7779
14.6204
14.4715
14.3194
14.1756
14.0282
13.8893
13.747
13.6135
13.4771
14.7777
14.6207
14.4731
14.3235
14.1841
14.045
13.9175
13.7915
13.6807
13.5717
14.7762
14.6498
14.564
14.5034
14.5108
14.5518
14.6367
14.82
15.0458
15.3948
15.215
16.5982
18.2807
20.6745
23.5985
27.5667
32.2732
38.3979
45.5767
54.8018
105.964
146.55
198.406
265.736
350.068
456.036
585.724
743.676
931.888
1154.05
4100.69
15202.8
19581.4
22434.8
21099.1
18005.2
15074.2
12783.7
11290.6
10375.2
9875.46
9698.87
9522.58
9252.67
8844.37
8344.72
7789.65
7203.1
6637.18
6119.35
5642.82
5216.4
4832.31
4481.6
4162.47
3873.17
3610.81
3373.45
3157.94
2962.31
2784.21
2621.61
2472.85
2336.38
2211.03
2095.63
1989.29
1891.05
1800.16
1715.89
1637.65
1564.85
1496.99
1433.63
1374.35
1318.78
1266.62
1217.57
1171.39
1127.83
1086.72
1047.87
1011.13
976.314
943.316
911.95
882.136
853.677
826.532
800.486
775.565
751.517
728.463
706.099
684.657
663.755
643.751
624.192
605.551
587.313
570.04
553.144
537.238
521.651
507.03
492.606
479.077
465.585
452.924
440.146
428.203
416.019
404.778
393.175
382.729
371.763
362.243
351.962
343.459
333.811
326.304
317.096
310.452
301.413
295.455
286.313
280.911
271.476
266.569
254.776
113.19
337.925
518.247
922.966
1125.27
1149.65
1121.71
1057.38
1051.62
1091.06
1196.33
1410.11
1697.04
2029.21
2379
2691.4
2969.61
3201.9
3356.37
3432.13
3424.1
3385.07
3298.88
3180.86
3052.52
2921.1
2790.2
2663.49
2540.03
2422.69
2310.66
2203.73
2102.44
2006.57
1916.28
1831.24
1751.39
1676.19
1605.45
1538.86
1476.16
1417.06
1361.28
1308.63
1258.85
1211.73
1167.09
1124.74
1084.54
1046.31
1009.96
975.329
942.34
910.864
880.823
852.084
824.596
798.205
772.899
748.501
725.051
702.336
680.478
659.216
638.768
618.807
599.647
580.908
562.987
545.46
528.795
512.511
497.12
482.072
467.906
453.99
440.904
427.931
415.736
403.517
392.08
380.492
369.779
358.785
348.852
338.469
329.406
319.651
311.525
302.353
295.166
286.431
280.083
271.572
265.924
257.402
252.343
243.618
239.091
228.236
16.4285
19.8693
22.8872
29.1012
34.7904
38.74
41.7045
43.7724
46.7009
50.7336
58.777
71.0393
95.5764
130.606
189.728
267.828
374.056
509.467
666.612
837.3
1005.56
1163.33
1302.61
1418.77
1508.79
1571.42
1609.06
1625.97
1623.22
1612.32
1589.3
1559.01
1524.61
1487.35
1448.8
1409.07
1369.28
1329
1289.22
1250.12
1211.74
1174.26
1137.76
1102.35
1068.02
1034.74
1002.58
971.434
941.326
912.211
884.075
856.87
830.573
805.146
780.569
756.781
733.777
711.467
689.886
668.905
648.6
628.808
609.662
590.948
572.884
555.199
538.175
521.493
505.495
489.828
474.887
460.275
446.424
432.883
420.107
407.575
395.771
384.104
373.131
362.179
351.925
341.571
331.991
322.178
313.291
304.004
295.866
287.098
279.762
271.483
264.974
257.09
251.352
243.716
238.651
231.084
226.59
218.905
214.927
205.4
13.4532
13.4608
13.5471
13.8043
14.3383
15.0089
15.7237
16.3458
16.9298
17.355
17.8964
18.3815
19.2831
20.5512
22.7042
26.3365
31.7173
40.8966
54.7795
76.3277
106.62
147.293
199.069
260.8
330.358
405.042
480.286
553.857
620.907
682.361
735.256
778.999
813.404
838.831
856.864
867.893
873.43
872.893
870.238
864.329
855.635
844.995
832.937
819.579
805.271
790.166
774.519
758.271
741.774
725.091
708.261
691.382
674.501
657.719
641.054
624.547
608.252
592.156
576.351
560.754
545.504
530.469
515.807
501.354
487.34
473.53
460.187
447.038
434.381
421.916
409.992
398.268
387.12
376.17
365.824
355.635
346.024
336.507
327.56
318.618
310.248
301.777
293.929
285.853
278.516
270.797
264.004
256.633
250.435
243.41
237.871
231.162
226.289
219.832
215.58
209.258
205.53
199.195
195.949
188.191
13.3302
13.1587
13.0632
13.1178
13.3073
13.7187
14.2917
14.916
15.4547
15.8917
16.2067
16.4562
16.6094
16.7839
16.8947
17.1123
17.3263
17.76
18.3161
19.3256
20.8564
23.2515
26.8205
32.1344
39.8229
50.5857
65.009
83.542
106.293
133.268
163.868
197.129
232.197
267.462
302.39
335.217
366.171
394.055
418.822
440.031
457.834
472.169
483.479
491.88
497.723
501.351
503.021
502.703
501.484
498.845
494.988
490.2
484.643
478.445
471.682
464.521
457.002
449.199
441.238
433.072
424.907
416.586
408.312
399.989
391.831
383.607
375.555
367.447
359.537
351.587
343.903
336.196
328.798
321.409
314.387
307.375
300.764
294.139
287.914
281.609
275.696
269.611
263.941
257.985
252.524
246.651
241.412
235.629
230.707
225.092
220.623
215.247
211.324
206.222
202.875
197.988
195.133
190.322
187.909
182.182
13.3254
13.1541
13.0323
13.0876
13.2979
13.7766
14.5044
15.4939
16.5118
17.6109
18.6032
19.5301
20.2657
20.8784
21.3018
21.6097
21.7795
21.8561
21.8425
21.7992
21.7061
21.6068
21.5382
21.564
21.6725
21.9328
22.4928
23.3514
24.8595
27.0035
30.2482
34.6468
40.6667
48.2585
57.679
68.8764
81.9128
96.5143
112.482
129.41
146.892
164.514
181.838
198.534
214.315
228.897
242.318
254.285
265.045
274.467
282.736
289.837
295.905
301.052
305.291
308.813
311.608
313.782
315.397
316.439
317.123
317.114
316.888
316.275
315.197
313.618
311.781
309.554
307.094
304.283
301.377
298.137
294.862
291.368
287.95
284.336
280.887
277.267
273.841
270.206
266.747
263.001
259.426
255.469
251.726
247.529
243.663
239.295
235.447
231.081
227.481
223.321
220.168
216.388
213.821
210.432
208.386
205.242
203.767
200.497
13.4657
13.3603
13.4102
13.6573
14.3072
15.6924
18.0425
21.4538
25.4157
29.7331
33.6309
37.084
39.6087
41.555
42.62
43.3314
43.3702
43.2419
42.9199
42.4006
41.7855
41.1413
40.5021
39.8887
39.3481
38.8691
38.5114
38.2391
38.1338
38.1873
38.3608
38.7252
39.3525
40.2724
41.5506
43.2829
45.513
48.4556
52.095
56.7651
62.3798
69.2676
77.3255
86.6936
97.3267
109.068
121.903
135.469
149.713
164.239
178.924
193.478
207.704
221.512
234.677
247.214
258.979
269.996
280.191
289.607
298.195
305.948
312.911
318.962
324.334
328.765
332.449
335.333
337.447
338.894
339.855
340.023
339.862
339.388
338.559
337.403
336.188
334.666
333.128
331.235
329.266
326.863
324.354
321.352
318.287
314.74
311.248
307.335
303.663
299.709
296.22
292.587
289.6
286.64
284.416
282.235
280.645
279.217
278.475
278.523
15.9102
16.8586
18.5504
21.9372
28.4295
39.522
55.5126
75.0704
95.5037
114.352
129.278
140.103
146.5
150.094
150.725
150.31
149.251
147.677
146.206
145.076
144.464
144.624
145.254
146.652
148.992
152.18
156.239
161.191
167.08
173.922
181.767
190.628
200.533
211.491
223.511
236.539
250.618
265.605
281.484
298.135
315.368
333.181
351.187
369.464
387.599
405.584
423.201
440.194
456.642
472.23
487.108
501.197
514.431
527.082
538.889
550.179
560.73
570.691
579.881
588.445
596.099
602.918
608.842
613.559
617.484
620.077
621.859
622.302
622.027
621.199
619.582
617.151
614.482
611.457
608.256
604.849
601.364
597.614
593.746
589.458
584.934
579.935
574.72
569.078
563.367
557.38
551.491
545.46
539.713
534.025
528.846
523.918
519.661
515.931
512.966
510.518
508.561
508.009
508.12
510.428
68.0446
90.4341
126.271
184.961
272.157
385.338
511.807
636.067
744.98
831.749
892.561
932.361
952.933
963.042
964.383
963.225
960.484
957.314
956.421
957.308
960.074
965.879
974.71
986.121
1000.1
1016.35
1034.85
1055.29
1077.49
1101.22
1126.24
1152.18
1178.85
1205.84
1232.94
1259.66
1285.93
1311.25
1335.6
1358.63
1380.33
1400.69
1419.47
1437.03
1452.89
1467.41
1480.39
1491.7
1501.81
1510.13
1517.3
1523.18
1527.65
1531.31
1533.5
1535.07
1535.1
1534.59
1533.14
1530.68
1526.95
1522.34
1516.76
1509.66
1502.01
1492.88
1482.8
1472.19
1460.91
1449.28
1437.42
1425.15
1413.12
1401.22
1389.53
1377.77
1366.1
1354.11
1341.95
1329.32
1316.56
1303.52
1290.6
1277.67
1265.22
1253.01
1241.49
1230.24
1219.86
1209.76
1200.77
1191.94
1184.44
1177.11
1171.29
1165.61
1161.15
1157.8
1156.5
1157.65
1464.73
1897.23
2399.07
2961.84
3563.18
4171.66
4745.87
5250.66
5654.14
5949.57
6131.02
6217.66
6205.06
6158.24
6059.56
5926.4
5776.2
5617.77
5457.54
5299.92
5147.75
5002.81
4866.22
4738.38
4619.51
4509.49
4408.13
4315.07
4230.03
4152.51
4082.21
4018.64
3961.45
3910.18
3864.53
3824.03
3788.42
3757.18
3730.13
3706.67
3686.61
3669.43
3654.83
3642.57
3632.16
3623.65
3616.53
3610.79
3606.33
3602.7
3600.18
3598.29
3596.94
3596.23
3595.57
3595.43
3595.2
3595.26
3595.29
3595.4
3595.56
3595.81
3596.05
3596.04
3595.99
3595.69
3594.94
3593.59
3591.48
3588.57
3584.73
3579.73
3574.36
3568.31
3561.97
3555.21
3548.58
3541.41
3534.1
3525.85
3517.34
3507.69
3497.8
3486.64
3475.52
3462.98
3450.94
3437.22
3424.9
3410.24
3398.17
3382.34
3370.48
3352.35
3340.03
3317.54
3304.2
3277.39
3263.13
3226.58
1114.23
1070.55
1128.64
1216.72
1245.5
1127.07
822.711
1989.4
54675.8
16183.6
7389.89
6135.39
6260.84
6511.4
6582.08
8061.89
74337.6
43768
24937.2
18538.3
16158.5
15050.8
14676
19738
76412.8
71094.9
54359.7
41297.1
32770.7
27224.9
24602.9
34149.1
69711.9
75724.4
67799.4
55711.7
44621.9
35885.9
30899.6
42757.4
57724.4
71170.9
67954.1
59062.9
48401.8
38757.6
32805.2
45257.1
47456.1
61803.3
62476.5
56609.6
47167.9
38180.2
32456.3
44250.2
39056
51782.7
53551.9
49808.1
42372.2
34659.9
29579.7
39744.7
32598.1
42951.6
44882.5
42098
36273.9
30021.6
25805.2
34019.4
27581.4
35589.5
37221.9
35082
30516.2
25537.4
22210.7
29367.3
23466.1
29555.7
30793.1
29093.9
25508.9
21616.9
19147.3
26007.2
20088.1
24670.5
25548.6
24161
21322.1
18285.1
16485.8
22970.5
17353.2
20761.2
21348
20191.3
17924.2
15544.7
14256.9
20351.3
15123.1
17640.2
18005.6
17026.9
15201
13323
12420.6
18145.9
13275.1
15133.1
15339.7
14504.9
13020.8
11528.5
10918.8
16316.4
11716.1
13094.6
13192.6
12477.5
11262.1
10069.9
9684.83
14795
10394.3
11425.1
11450.2
10835.2
9832.22
8875.55
8664.32
13523.6
9257.13
10039.6
10020.8
9489.21
8657.18
7887.89
7813.01
12452.8
8276.18
8879.08
8835.62
8374.53
7681.26
7062.87
7095.13
11542.4
7434.08
7902.22
7844.21
7443.62
6863.39
6367.29
6482.97
10761.7
6708.08
7074.77
7008.71
6659.84
6172.09
5775.43
5957.8
10085.5
6082.43
6370.58
6300.33
5995.41
5583.6
5268.15
5504.07
9495.02
5540.7
5767.71
5695.92
5428.53
5079.54
4830.84
5109.95
8976.95
5067.43
5247.46
5176.32
4941.35
4644.97
4451.73
4766.05
8520.99
4651.73
4795.51
4726.53
4519.76
4267.82
4121.07
4464.37
8117.77
4284.98
4400.64
4334.8
4152.68
3938.56
3831.12
4198.42
7759.69
3959.94
4053.68
3991.61
3831.17
3649.47
3575.47
3962.81
7440.28
3671.07
3747.44
3689.44
3548.1
3394.35
3349.01
3753.15
7154.22
3413.21
3475.82
3422.04
3297.62
3168.13
3147.46
3565.79
6897.09
3182.36
3233.95
3184.37
3074.94
2966.6
2967.36
3397.67
6665.12
2974.87
3017.67
2972.23
2876.18
2786.4
2805.43
3246.43
6455.15
2787.72
2823.47
2782.07
2697.99
2624.54
2659.5
3109.77
6264.55
2618.36
2648.49
2610.97
2537.64
2478.61
2527.6
2985.89
6091.15
2464.54
2490.22
2456.44
2392.81
2346.6
2408
2873.28
5933.01
2324.49
2346.62
2316.4
2261.54
2226.78
2299.24
2770.64
5788.47
2196.58
2215.91
2189.11
2142.2
2117.69
2200.04
2676.84
5656.06
2079.53
2096.64
2073.08
2033.38
2018.11
2109.33
2590.93
5534.52
1972.12
1987.52
1967.02
1933.89
1926.95
2026.18
2512.07
5422.73
1873.37
1887.43
1869.84
1842.7
1843.32
1949.77
2439.53
5319.73
1782.34
1795.41
1780.58
1758.94
1766.3
1879.44
2372.65
5224.61
1698.26
1710.61
1698.38
1681.77
1695.25
1814.49
2310.85
5136.6
1620.42
1632.27
1622.49
1610.5
1629.56
1754.38
2253.62
5055
1548.21
1559.73
1552.27
1544.52
1568.69
1698.6
2200.51
4979.24
1481.06
1492.4
1487.14
1483.3
1512.16
1646.75
2151.14
4908.78
1418.51
1429.79
1426.59
1426.38
1459.55
1598.45
2105.18
4843.2
1360.1
1371.43
1370.2
1373.31
1410.52
1553.38
2062.34
4782.09
1305.48
1316.94
1317.58
1323.77
1364.74
1511.3
2022.38
4725.15
1254.3
1265.95
1268.38
1277.47
1321.96
1471.96
1985.1
4672.07
1206.28
1218.2
1222.34
1234.17
1281.93
1435.17
1950.3
4622.63
1161.16
1173.41
1179.2
1193.6
1244.43
1400.7
1917.8
4576.52
1118.72
1131.37
1138.74
1155.56
1209.28
1368.42
1887.45
4533.58
1078.76
1091.83
1100.73
1119.85
1176.27
1338.12
1859.04
4493.48
1041.1
1054.65
1065.01
1086.3
1145.27
1309.68
1832.48
4456.1
1005.53
1019.59
1031.36
1054.7
1116.07
1282.9
1807.55
4421.08
971.927
986.52
999.656
1024.93
1088.56
1257.69
1784.16
4388.35
940.085
955.23
969.672
996.778
1062.54
1233.85
1762.09
4357.48
909.906
925.618
941.314
970.152
1037.92
1211.3
1741.31
4328.52
881.174
897.458
914.355
944.83
1014.5
1189.85
1721.58
4300.94
853.841
870.706
888.759
920.792
992.259
1169.49
1702.94
4274.97
827.673
845.115
864.276
897.786
970.958
1149.99
1685.11
4249.94
802.695
820.722
840.957
875.883
950.685
1131.45
1668.24
4226.37
778.634
797.236
818.498
854.766
931.113
1113.54
1651.95
4203.29
755.618
774.803
797.072
834.642
912.487
1096.53
1636.59
4181.74
733.311
753.058
776.282
815.082
894.338
1079.92
1621.55
4160.25
711.975
732.299
756.473
796.489
877.143
1064.26
1607.54
4140.64
691.175
712.047
737.115
778.264
860.216
1048.77
1593.59
4120.61
671.326
692.776
718.76
761.063
844.338
1034.39
1580.91
4103.15
651.902
673.884
700.712
744.077
828.558
1019.97
1568.01
4084.69
633.46
656.024
683.744
728.228
813.994
1006.89
1556.72
4069.65
615.389
638.477
667.004
712.487
799.387
993.58
1544.95
4052.9
598.355
622.027
651.428
697.998
786.154
981.834
1535.1
4040.26
581.651
605.836
636.005
683.517
772.74
969.665
1524.47
4025.1
566.006
590.766
621.778
670.334
760.778
959.188
1515.97
4014.35
550.613
575.856
607.581
657.008
748.444
948.034
1506.32
4000.23
536.245
562.027
594.539
644.946
737.546
938.592
1498.88
3990.45
521.982
548.189
581.334
632.517
726.009
928.137
1489.82
3976.5
508.662
535.344
569.194
621.271
715.85
919.379
1483.01
3966.77
495.265
522.291
556.674
609.415
704.768
909.258
1474.1
3952.26
482.738
510.154
545.144
598.675
695.015
900.817
1467.51
3942.02
469.975
497.644
533.063
587.145
684.136
890.754
1458.46
3926.86
458.087
486.057
521.984
576.753
674.626
882.454
1451.87
3916.22
445.843
473.989
510.256
565.479
663.898
872.415
1442.67
3901.04
434.595
462.976
499.672
555.497
654.713
864.35
1436.23
3890.85
422.888
451.394
488.375
544.595
644.287
854.527
1427.15
3876.7
412.41
441.113
478.481
535.257
635.695
847.005
1421.25
3868.02
401.334
430.147
467.776
524.918
625.801
837.679
1412.69
3855.8
391.794
420.799
458.801
516.48
618.091
831.037
1407.75
3849.31
381.422
410.541
448.799
506.832
608.877
822.394
1399.99
3839.33
372.928
402.242
440.86
499.41
602.164
816.753
1396.13
3834.91
363.2
392.619
431.474
490.355
593.526
808.703
1389.13
3826.83
355.714
385.32
424.508
483.864
587.696
803.888
1385.96
3823.61
346.395
376.061
415.428
475.052
579.243
796.018
1379.46
3816.93
339.757
369.577
409.228
469.265
574.044
791.735
1376.51
3814.29
330.532
360.334
400.069
460.267
565.305
783.564
1370.1
3808.31
324.534
354.427
394.365
454.877
560.377
779.309
1366.98
3805.89
315.113
344.9
384.827
445.397
551.069
770.646
1360.16
3800.63
309.598
339.389
379.404
440.146
546.102
766.104
1356.74
3798.04
299.81
329.427
369.362
430.093
536.163
756.788
1349.37
3795.11
294.706
324.226
364.115
424.848
531.005
751.962
1345.72
3792.98
282.379
311.588
351.265
411.859
518.013
739.474
1335.73
3793.3
)
;

boundaryField
{
    frontAndBack
    {
        type            empty;
    }
    inlet
    {
        type            fixedValue;
        value           uniform 14.855;
    }
    outlet
    {
        type            zeroGradient;
    }
    walls
    {
        lowReCorrection 0;
        blending        stepwise;
        n               2;
        type            epsilonWallFunction;
        value           nonuniform List<scalar> 
228
(
112.724
141.424
210.097
257.591
369.051
443.456
614.741
724.901
971.329
1128.61
1114.23
1070.55
1128.64
1216.72
1245.5
1127.07
822.711
1989.4
1989.4
8061.89
19738
34149.1
42757.4
45257.1
44250.2
39744.7
34019.4
29367.3
26007.2
22970.5
20351.3
18145.9
16316.4
14795
13523.6
12452.8
11542.4
10761.7
10085.5
9495.02
8976.95
8520.99
8117.77
7759.69
7440.28
7154.22
6897.09
6665.12
6455.15
6264.55
6091.15
5933.01
5788.47
5656.06
5534.52
5422.73
5319.73
5224.61
5136.6
5055
4979.24
4908.78
4843.2
4782.09
4725.15
4672.07
4622.63
4576.52
4533.58
4493.48
4456.1
4421.08
4388.35
4357.48
4328.52
4300.94
4274.97
4249.94
4226.37
4203.29
4181.74
4160.25
4140.64
4120.61
4103.15
4084.69
4069.65
4052.9
4040.26
4025.1
4014.35
4000.23
3990.45
3976.5
3966.77
3952.26
3942.02
3926.86
3916.22
3901.04
3890.85
3876.7
3868.02
3855.8
3849.31
3839.33
3834.91
3826.83
3823.61
3816.93
3814.29
3808.31
3805.89
3800.63
3798.04
3795.11
3792.98
3793.3
105.964
146.55
198.406
265.736
350.068
456.036
585.724
743.676
931.888
1154.05
1464.73
1897.23
2399.07
2961.84
3563.18
4171.66
4745.87
5250.66
5654.14
5949.57
6131.02
6217.66
6205.06
6158.24
6059.56
5926.4
5776.2
5617.77
5457.54
5299.92
5147.75
5002.81
4866.22
4738.38
4619.51
4509.49
4408.13
4315.07
4230.03
4152.51
4082.21
4018.64
3961.45
3910.18
3864.53
3824.03
3788.42
3757.18
3730.13
3706.67
3686.61
3669.43
3654.83
3642.57
3632.16
3623.65
3616.53
3610.79
3606.33
3602.7
3600.18
3598.29
3596.94
3596.23
3595.57
3595.43
3595.2
3595.26
3595.29
3595.4
3595.56
3595.81
3596.05
3596.04
3595.99
3595.69
3594.94
3593.59
3591.48
3588.57
3584.73
3579.73
3574.36
3568.31
3561.97
3555.21
3548.58
3541.41
3534.1
3525.85
3517.34
3507.69
3497.8
3486.64
3475.52
3462.98
3450.94
3437.22
3424.9
3410.24
3398.17
3382.34
3370.48
3352.35
3340.03
3317.54
3304.2
3277.39
3263.13
3226.58
)
;
    }
}


// ************************************************************************* //
