/*--------------------------------*- C++ -*----------------------------------*\
| =========                 |                                                 |
| \\      /  F ield         | OpenFOAM: The Open Source CFD Toolbox           |
|  \\    /   O peration     | Version:  v2012                                 |
|   \\  /    A nd           | Website:  www.openfoam.com                      |
|    \\/     M anipulation  |                                                 |
\*---------------------------------------------------------------------------*/
FoamFile
{
    version     2.0;
    format      ascii;
    class       volScalarField;
    location    "0.054";
    object      omega.air;
}
// * * * * * * * * * * * * * * * * * * * * * * * * * * * * * * * * * * * * * //

dimensions      [0 0 -1 0 0 0 0];


internalField   nonuniform List<scalar> 
5600
(
6586.29
7485.48
7886.81
7965.26
7866.26
7687.47
7481.12
7290
7125.2
6988.03
6879.06
6796.24
6736.12
6693.94
6664.36
6642.78
6626.36
6613.71
6603.82
6596.18
6590.3
6585.82
6582.22
6578.9
6575.54
6572.2
6569.12
6566.53
6564.62
6563.39
6562.76
6562.62
6562.85
6563.33
6563.91
6564.42
6564.82
6565.1
6565.28
6565.4
6565.47
6565.51
6565.53
6565.54
6565.55
6565.55
6565.56
6565.56
6565.56
6565.56
6565.56
6565.56
6565.56
6565.56
6565.56
6565.56
6565.56
6565.56
6565.56
6565.55
6565.57
6565.54
6565.61
6565.47
6565.73
6565.25
6566.1
6564.66
6567
6563.38
6568.73
6561.22
6571.22
6558.64
6573.68
6556.41
6576.03
6553.01
6582.15
6542.58
6597.82
6524.19
6613.89
6520.98
6594.62
6568.81
6519.6
6655.37
6452.34
6676.53
6503.57
6541.74
6703.16
6306.76
6912.22
6161.24
7012.06
5882.71
7252.27
4711.1
2450.54
2296.46
2571.78
2795.11
2927.92
2998.47
3010.3
2967.82
2968.76
3016.94
3073.5
3119.06
3146.98
3157.75
3154.39
3140.65
3118.76
3091.96
3063.14
3033.27
3002.8
2971.3
2939.37
2907.87
2879.02
2854.75
2835.82
2821.9
2812.19
2805.91
2802.14
2800.04
2798.95
2798.44
2798.45
2798.82
2799.26
2799.6
2799.83
2799.99
2800.09
2800.15
2800.19
2800.21
2800.22
2800.23
2800.23
2800.24
2800.24
2800.24
2800.24
2800.24
2800.24
2800.24
2800.24
2800.24
2800.24
2800.24
2800.24
2800.24
2800.24
2800.24
2800.23
2800.25
2800.22
2800.26
2800.2
2800.3
2800.15
2800.36
2800.08
2800.44
2800.02
2800.47
2800.03
2800.46
2800.01
2800.64
2799.6
2801.4
2798.82
2802.04
2799.64
2800.53
2802.33
2796.52
2808.13
2791.35
2807.16
2798.63
2805.04
2801.42
2806.48
2795.5
2837.18
2769.29
2913.74
2723.25
3121.94
2531.22
2358.54
1859.94
1592.1
1427.82
1346.25
1273.48
1280
1309.43
1351.87
1411.89
1482.43
1549.85
1610.99
1663.01
1704.46
1733.95
1749.74
1752.21
1743.86
1727.17
1704.35
1677.08
1651.54
1629.24
1609.74
1593.16
1579.98
1570.24
1563.51
1559.18
1556.68
1555.42
1554.95
1554.98
1555.36
1555.9
1556.44
1556.85
1557.15
1557.34
1557.47
1557.55
1557.59
1557.62
1557.63
1557.64
1557.65
1557.65
1557.65
1557.65
1557.65
1557.65
1557.65
1557.65
1557.65
1557.65
1557.65
1557.65
1557.65
1557.65
1557.65
1557.65
1557.65
1557.65
1557.66
1557.63
1557.69
1557.57
1557.8
1557.4
1558.05
1557.07
1558.45
1556.67
1558.82
1556.43
1558.97
1556.33
1559.35
1555.52
1561.32
1552.84
1565.51
1549.93
1566.62
1550.56
1568.22
1552.54
1569.68
1571.26
1572.15
1552.25
1592.1
1574.75
1679.39
1496.78
1775
1380.76
1921.23
1163.61
2345.16
1822.37
1493.22
1267.63
1111.25
992.498
906.84
846.971
802.956
776.194
760.481
769.804
792.083
823.302
860.171
901.965
942.553
979.385
1011.42
1038.63
1061.06
1079.33
1092.64
1099.86
1100.66
1096.27
1089.37
1082.67
1077.58
1074.49
1073.09
1072.81
1073.19
1073.97
1074.91
1075.8
1076.51
1077.03
1077.38
1077.6
1077.74
1077.82
1077.86
1077.89
1077.9
1077.91
1077.91
1077.92
1077.92
1077.92
1077.92
1077.92
1077.92
1077.92
1077.92
1077.92
1077.92
1077.92
1077.91
1077.93
1077.89
1077.96
1077.84
1078.06
1077.68
1078.29
1077.36
1078.72
1076.84
1079.28
1076.35
1079.67
1076.12
1079.9
1075.63
1081.28
1072.87
1085.86
1067.69
1090.8
1067.94
1084.67
1083.13
1059.13
1109.82
1043.89
1114.11
1064.28
1099.74
1079.13
1089.13
1057.1
1157.65
985.744
1233.35
920.88
1241.33
887.707
1263.68
966.716
2341.97
1815.97
1479.82
1247.91
1079.76
952.528
853.217
774.548
710.816
658.727
616.109
581.938
556.502
535.948
523.552
514.096
514.28
521.588
533.483
548.765
566.916
589.572
616.238
644.366
670.507
691.603
706.762
716.737
722.988
726.862
729.309
730.948
732.163
733.166
734.048
734.837
735.516
736.061
736.464
736.743
736.926
737.042
737.113
737.154
737.178
737.191
737.198
737.201
737.203
737.204
737.205
737.205
737.205
737.205
737.205
737.205
737.206
737.203
737.21
737.195
737.226
737.164
737.286
737.056
737.474
736.744
737.967
736.003
739.008
734.629
740.66
732.78
742.457
731.114
743.825
729.54
746.165
724.989
753.505
714.123
764.107
706.082
758.791
725.63
721.048
775.623
668.574
799.38
675.831
728.054
784.455
590.791
923.882
453.957
935.83
486.783
828.021
597.88
635.043
894.294
2341.13
1814.13
1476.76
1243.88
1074.18
945.312
844.348
763.102
696.645
640.986
594.195
553.981
519.77
489.806
464.236
441.679
422.661
406.952
394.111
383.408
375.086
369.064
366.595
369.497
376.185
384.556
392.491
398.495
402.043
403.343
402.995
401.69
399.991
398.312
396.946
396.03
395.517
395.274
395.185
395.173
395.192
395.22
395.244
395.263
395.276
395.284
395.289
395.292
395.293
395.294
395.295
395.295
395.295
395.295
395.296
395.293
395.299
395.287
395.313
395.259
395.366
395.162
395.537
394.87
396.012
394.133
397.093
392.633
399.032
390.286
401.623
387.582
404.233
384.81
407.657
379.287
416.614
365.143
434.476
345.51
444.973
350.811
409.692
416.401
321.669
504.85
250.93
503.702
306.848
379.171
458.019
230.862
579.29
153
556.424
214.4
468.447
356.226
241.971
632.859
2340.86
1813.44
1475.75
1242.6
1072.61
943.438
842.13
760.552
693.579
637.527
590.035
549.228
513.879
482.905
455.606
431.339
409.702
390.4
373.123
357.488
343.307
330.439
319.02
309.348
301.264
294.34
287.991
281.707
275.237
268.634
262.163
256.154
250.884
246.54
243.205
240.819
239.216
238.195
237.576
237.217
237.019
236.914
236.861
236.835
236.823
236.818
236.816
236.816
236.815
236.815
236.815
236.815
236.815
236.815
236.816
236.815
236.817
236.812
236.822
236.802
236.842
236.767
236.903
236.664
237.066
236.418
237.419
235.946
238.015
235.26
238.776
234.487
239.645
233.422
241.34
230.659
245.861
224.378
253.603
217.775
256.384
224.244
238.245
255.056
199.516
290.314
180.805
284.431
216.161
233.976
267.412
193.867
289.562
194.959
286.14
204.349
285.044
225.411
226.861
316.261
2340.75
1813.13
1475.32
1242.07
1071.99
942.74
841.331
759.692
692.599
636.48
588.863
547.957
512.45
481.337
453.838
429.354
407.436
387.743
369.955
353.763
338.91
325.246
312.73
301.358
291.044
281.572
272.647
264.015
255.569
247.394
239.72
232.827
226.944
222.19
218.56
215.937
214.138
212.963
212.229
211.79
211.538
211.399
211.325
211.287
211.268
211.259
211.255
211.253
211.252
211.252
211.252
211.252
211.252
211.251
211.252
211.251
211.252
211.251
211.253
211.249
211.256
211.243
211.267
211.225
211.296
211.181
211.359
211.098
211.461
210.983
211.582
210.864
211.71
210.699
211.993
210.2
212.84
208.994
214.333
207.753
214.745
209.383
210.471
216.61
201.452
224.925
197.776
222.789
207.265
211.292
215.836
210.024
210.925
217.327
209.905
207.821
230.701
183.739
241.729
202.097
2340.71
1812.97
1475.11
1241.82
1071.69
942.418
840.978
759.315
692.19
636.049
588.403
547.468
511.93
480.787
453.256
428.734
406.773
387.026
369.177
352.921
337.998
324.248
311.614
300.07
289.53
279.798
270.609
261.735
253.082
244.735
236.921
229.919
223.956
219.146
215.473
212.813
210.983
209.782
209.028
208.575
208.314
208.168
208.09
208.049
208.029
208.019
208.014
208.012
208.011
208.011
208.011
208.011
208.011
208.01
208.01
208.01
208.011
208.01
208.011
208.01
208.011
208.009
208.014
208.005
208.02
207.996
208.032
207.981
208.049
207.963
208.068
207.94
208.101
207.885
208.193
207.747
208.368
207.577
208.459
207.675
208.083
208.407
207.038
209.656
205.841
210.473
205.863
209.561
207.695
207.828
208.298
209.187
205.555
211.45
206.165
206.881
214.073
198.367
218.926
203.975
2340.68
1812.9
1475.01
1241.7
1071.56
942.273
840.821
759.147
692.012
635.863
588.207
547.262
511.714
480.562
453.022
428.49
406.517
386.758
368.898
352.632
337.698
323.933
311.279
299.713
289.149
279.393
270.181
261.284
252.607
244.237
236.402
229.381
223.403
218.581
214.897
212.228
210.389
209.181
208.423
207.966
207.702
207.555
207.476
207.435
207.414
207.404
207.399
207.397
207.396
207.395
207.395
207.395
207.395
207.395
207.395
207.395
207.395
207.395
207.395
207.394
207.396
207.393
207.397
207.39
207.402
207.385
207.409
207.378
207.414
207.378
207.405
207.397
207.377
207.426
207.364
207.398
207.456
207.23
207.681
207.008
207.802
207.102
207.42
207.75
206.659
208.357
206.478
208.011
207.185
207.369
207.386
207.607
207.275
206.807
209.346
204.089
211.511
203.585
209.91
207.978
2340.68
1812.91
1475.02
1241.72
1071.58
942.289
840.837
759.163
692.028
635.878
588.223
547.277
511.729
480.576
453.036
428.504
406.531
386.771
368.911
352.645
337.71
323.945
311.292
299.726
289.162
279.407
270.195
261.298
252.621
244.25
236.414
229.392
223.413
218.59
214.906
212.236
210.397
209.189
208.431
207.974
207.71
207.562
207.483
207.442
207.421
207.411
207.406
207.404
207.403
207.402
207.402
207.402
207.402
207.402
207.402
207.402
207.402
207.402
207.402
207.402
207.403
207.401
207.404
207.398
207.408
207.394
207.413
207.389
207.417
207.388
207.412
207.401
207.391
207.427
207.364
207.449
207.354
207.441
207.387
207.37
207.511
207.185
207.739
206.985
207.791
207.205
207.243
208.003
206.392
208.678
206.073
208.477
207.05
206.402
210.318
202.5
213.583
201.15
212.626
203.799
2340.71
1813
1475.15
1241.86
1071.74
942.467
841.027
759.364
692.238
636.095
588.448
547.513
511.974
480.83
453.298
428.775
406.814
387.068
369.22
352.964
338.041
324.292
311.66
300.121
289.587
279.86
270.677
261.808
253.159
244.814
237.002
230
224.036
219.225
215.55
212.889
211.058
209.856
209.102
208.648
208.386
208.24
208.162
208.121
208.101
208.091
208.086
208.084
208.083
208.083
208.082
208.082
208.082
208.082
208.082
208.082
208.082
208.082
208.082
208.082
208.083
208.081
208.084
208.079
208.087
208.076
208.09
208.073
208.092
208.075
208.086
208.085
208.073
208.097
208.065
208.098
208.068
208.098
208.06
208.111
208.063
208.049
208.226
207.773
208.562
207.512
208.555
207.995
207.436
209.761
205.283
211.645
204.696
209.874
209.286
203.159
216.274
197.724
219.188
196.461
2340.76
1813.17
1475.39
1242.15
1072.07
942.824
841.412
759.777
692.677
636.559
588.941
548.035
512.528
481.416
453.921
429.435
407.527
387.839
370.069
353.889
339.055
325.41
312.932
301.617
291.375
281.981
273.132
264.568
256.179
248.048
240.411
233.549
227.69
222.952
219.332
216.716
214.922
213.75
213.019
212.581
212.33
212.191
212.117
212.079
212.06
212.051
212.047
212.045
212.044
212.043
212.043
212.043
212.043
212.043
212.043
212.043
212.043
212.043
212.043
212.043
212.044
212.042
212.045
212.04
212.047
212.038
212.05
212.036
212.049
212.041
212.041
212.051
212.031
212.057
212.031
212.053
212.032
212.069
211.987
212.135
211.94
212.083
212.188
211.577
212.925
210.767
213.501
210.852
212.272
213.614
207.935
218.847
203.404
220.442
206.568
212.442
217.055
202.184
224.269
195.06
2340.87
1813.5
1475.85
1242.71
1072.72
943.567
842.236
760.692
693.688
637.665
590.162
549.385
514.033
483.105
455.844
431.604
410.074
390.868
373.761
358.282
344.324
331.65
320.724
311.637
304.234
298.035
292.378
286.7
280.73
274.515
268.387
262.692
257.678
253.526
250.32
248.022
246.477
245.494
244.897
244.551
244.36
244.259
244.207
244.183
244.171
244.166
244.164
244.163
244.163
244.163
244.163
244.163
244.163
244.163
244.163
244.163
244.163
244.163
244.163
244.163
244.164
244.162
244.165
244.16
244.167
244.158
244.169
244.158
244.166
244.165
244.155
244.179
244.142
244.187
244.14
244.187
244.125
244.243
244.006
244.415
243.855
244.391
244.268
243.394
245.905
241.308
247.908
240.239
246.901
244.447
238.805
255.859
226.351
264.542
225.239
256.016
239.591
239.979
248.15
227.554
2341.15
1814.19
1476.91
1243.99
1074.36
945.484
844.523
763.369
696.865
641.378
594.538
554.668
520.471
491.063
465.679
443.741
425.676
410.921
399.297
389.856
383.143
378.625
379.819
386.092
395.872
406.837
416.73
424.164
428.762
430.872
431.163
430.36
429.063
427.695
426.55
425.775
425.342
425.137
425.061
425.051
425.067
425.09
425.11
425.125
425.136
425.142
425.146
425.148
425.149
425.15
425.15
425.15
425.15
425.15
425.15
425.15
425.15
425.15
425.151
425.15
425.151
425.15
425.151
425.149
425.153
425.147
425.155
425.146
425.154
425.15
425.144
425.168
425.119
425.198
425.089
425.226
425.057
425.282
424.946
425.464
424.731
425.567
425.01
424.573
426.958
421.718
430.177
419.137
430.682
422.097
423.071
434.632
406.748
450.343
395.944
449.256
405.821
429.761
416.676
404.765
2342.03
1815.99
1480.11
1247.96
1080.29
952.715
854.101
775.256
712.415
660.514
619.001
587.062
562.707
545.557
534.179
529.728
534.666
546.1
562.026
580.628
602.407
628.444
657.293
686.355
711.603
730.477
743.207
751.25
756.204
759.306
761.358
762.825
763.988
765.002
765.906
766.687
767.338
767.841
768.202
768.447
768.605
768.703
768.762
768.795
768.814
768.825
768.83
768.833
768.834
768.835
768.835
768.835
768.836
768.836
768.836
768.836
768.836
768.836
768.836
768.836
768.835
768.837
768.835
768.837
768.834
768.838
768.834
768.837
768.836
768.833
768.84
768.832
768.835
768.848
768.809
768.878
768.787
768.88
768.804
768.873
768.746
769.05
768.449
769.354
768.368
768.929
769.486
767.125
771.77
764.574
774.192
763.047
773.201
768.596
762.023
782.805
746.339
787.298
740.13
764.574
2345.25
1822.39
1493.84
1268.16
1113.29
994.098
912.518
852.206
814.647
787.425
783.655
800.64
829.399
865.366
906.844
950.294
991.293
1027.73
1058.14
1082.77
1102.85
1118.52
1129.02
1132.72
1129.45
1121.45
1112.14
1104.1
1098.41
1095.05
1093.5
1093.09
1093.34
1094
1094.85
1095.65
1096.3
1096.77
1097.09
1097.29
1097.42
1097.49
1097.53
1097.55
1097.57
1097.57
1097.58
1097.58
1097.58
1097.58
1097.58
1097.58
1097.58
1097.58
1097.58
1097.58
1097.58
1097.58
1097.58
1097.58
1097.58
1097.58
1097.58
1097.58
1097.58
1097.58
1097.58
1097.58
1097.58
1097.58
1097.58
1097.57
1097.6
1097.56
1097.6
1097.56
1097.59
1097.56
1097.62
1097.5
1097.7
1097.5
1097.5
1098
1096.66
1099.01
1095.84
1099.19
1096.84
1096.56
1101.35
1090.38
1107.74
1086.52
1106.1
1095.54
1089.15
1108.24
1069.22
1098.05
2358.73
1860.92
1594.72
1434.07
1354.06
1288.73
1305.34
1337.63
1391.92
1464.7
1540.02
1610.69
1672.2
1722.23
1759.98
1783.98
1793.1
1788.39
1772.84
1751.1
1724.87
1700.02
1678.8
1659.31
1641.25
1625.75
1613.33
1604.02
1597.55
1593.38
1590.92
1589.64
1589.1
1589.04
1589.33
1589.79
1590.26
1590.62
1590.88
1591.05
1591.16
1591.23
1591.27
1591.29
1591.31
1591.31
1591.32
1591.32
1591.32
1591.32
1591.32
1591.32
1591.32
1591.32
1591.32
1591.32
1591.32
1591.32
1591.32
1591.32
1591.32
1591.32
1591.32
1591.32
1591.32
1591.32
1591.32
1591.32
1591.32
1591.32
1591.32
1591.32
1591.32
1591.32
1591.32
1591.33
1591.31
1591.34
1591.31
1591.33
1591.32
1591.32
1591.3
1591.37
1591.23
1591.41
1591.29
1591.18
1591.64
1590.73
1592.11
1590.33
1592.02
1590.74
1590.14
1592.38
1584.37
1591.01
1570.13
1568.34
2454.73
2305.64
2580.64
2808.57
2934.03
3010.51
2994.49
2967.26
3014.71
3085.46
3150.23
3196.75
3222.29
3229.24
3221.96
3204.23
3178.86
3149.63
3118.61
3086.56
3053.03
3018.95
2984.83
2952.52
2924.14
2900.71
2882.57
2869.31
2860.1
2854.06
2850.37
2848.28
2847.19
2846.66
2846.59
2846.88
2847.24
2847.53
2847.74
2847.88
2847.96
2848.02
2848.05
2848.07
2848.08
2848.08
2848.08
2848.09
2848.09
2848.09
2848.09
2848.09
2848.09
2848.09
2848.09
2848.09
2848.09
2848.09
2848.09
2848.09
2848.09
2848.09
2848.09
2848.09
2848.09
2848.09
2848.09
2848.09
2848.09
2848.09
2848.09
2848.09
2848.09
2848.09
2848.09
2848.09
2848.09
2848.09
2848.09
2848.09
2848.09
2848.09
2848.09
2848.08
2848.08
2848.12
2848.01
2848.22
2847.92
2848.21
2848.04
2847.97
2848.21
2847.32
2848.53
2845.39
2844.7
2841.3
2826.23
2811.81
6588.08
7481.9
7876.79
7936.05
7826.23
7630
7415.21
7222.01
7053.4
6914.54
6805.39
6723.21
6663.83
6622.07
6592.4
6570.41
6553.54
6540.31
6530.23
6522.57
6517.14
6513.48
6510.61
6507.71
6504.54
6501.26
6498.18
6495.58
6493.63
6492.37
6491.71
6491.52
6491.67
6492.07
6492.57
6493.03
6493.37
6493.61
6493.77
6493.87
6493.93
6493.97
6493.99
6494
6494.01
6494.01
6494.01
6494.01
6494.01
6494.01
6494.01
6494.01
6494.01
6494.01
6494.01
6494.01
6494.01
6494.01
6494.01
6494.01
6494.01
6494.01
6494.02
6494.01
6494.02
6494.01
6494.02
6494.01
6494.02
6494.01
6494.03
6494.01
6494.02
6494.03
6493.99
6494.07
6493.94
6494.11
6493.91
6494.12
6493.92
6494.12
6493.9
6494.16
6493.97
6493.82
6494.82
6492.4
6496.69
6490.77
6497.34
6492.2
6493.47
6499.6
6484.72
6511.58
6481.35
6523.98
6506.34
6567.49
3607.14
2161.05
1614.95
1370.61
1525.86
1461.29
929.105
511.42
339.05
292.085
277.376
266.112
256.506
248.817
242.841
237.833
232.961
227.921
222.955
218.523
214.99
212.473
210.809
209.681
208.848
208.224
207.783
207.495
207.34
207.274
207.25
207.242
207.24
207.239
207.239
207.238
207.238
207.238
207.238
207.238
207.238
207.238
207.238
207.238
207.238
207.238
207.238
207.238
207.238
207.238
207.238
207.238
207.238
207.238
207.238
207.238
207.238
207.238
207.238
207.238
207.238
207.238
207.238
207.238
207.238
207.238
207.238
207.238
207.238
207.238
207.238
207.238
207.238
207.238
207.238
207.238
207.238
207.238
207.238
207.238
207.237
207.238
207.237
207.238
207.237
207.238
207.237
207.238
207.237
207.238
207.237
207.238
207.237
207.237
207.236
207.235
207.234
207.228
207.226
207.215
3569.35
2573.06
1993.55
1564.81
1649.33
1404.6
799.769
429.352
304.553
276.037
269.109
261.602
253.802
247.282
241.92
237.108
232.324
227.413
222.598
218.277
214.794
212.285
210.637
209.563
208.799
208.226
207.808
207.517
207.344
207.259
207.222
207.207
207.2
207.197
207.196
207.195
207.194
207.194
207.194
207.194
207.194
207.194
207.194
207.194
207.194
207.194
207.194
207.194
207.194
207.194
207.194
207.194
207.194
207.194
207.194
207.194
207.194
207.194
207.194
207.194
207.194
207.194
207.194
207.194
207.194
207.194
207.194
207.194
207.194
207.194
207.194
207.194
207.194
207.194
207.194
207.194
207.194
207.194
207.194
207.194
207.194
207.195
207.193
207.195
207.193
207.195
207.193
207.195
207.193
207.195
207.192
207.195
207.192
207.195
207.191
207.194
207.189
207.192
207.186
207.189
2423.4
2495.13
2191.21
1722.06
1731.73
1272.67
642.472
348.941
272.559
262.637
262.258
257.7
251.341
245.739
240.944
236.398
231.756
226.984
222.31
218.086
214.635
212.119
210.475
209.456
208.777
208.266
207.871
207.578
207.385
207.275
207.219
207.191
207.178
207.171
207.168
207.166
207.165
207.165
207.165
207.165
207.164
207.164
207.164
207.164
207.164
207.164
207.164
207.164
207.164
207.164
207.164
207.164
207.164
207.164
207.164
207.164
207.164
207.164
207.164
207.164
207.164
207.164
207.164
207.164
207.164
207.164
207.164
207.164
207.164
207.164
207.164
207.164
207.164
207.164
207.164
207.164
207.164
207.164
207.164
207.165
207.164
207.165
207.164
207.165
207.163
207.166
207.163
207.166
207.162
207.167
207.162
207.168
207.161
207.169
207.16
207.17
207.16
207.173
207.162
207.185
1193.04
1946.26
2039.71
1730.33
1676.84
1027.16
463.467
281.427
252.612
254.524
257.557
254.957
249.474
244.356
239.955
235.69
231.239
226.628
222.091
217.955
214.526
211.986
210.323
209.335
208.732
208.294
207.941
207.665
207.464
207.335
207.259
207.218
207.195
207.184
207.178
207.174
207.173
207.172
207.171
207.171
207.171
207.171
207.171
207.171
207.171
207.171
207.171
207.171
207.171
207.171
207.171
207.171
207.171
207.171
207.171
207.171
207.171
207.171
207.171
207.171
207.171
207.171
207.171
207.171
207.171
207.171
207.171
207.171
207.171
207.171
207.171
207.171
207.171
207.171
207.171
207.171
207.171
207.171
207.171
207.171
207.171
207.172
207.17
207.172
207.17
207.173
207.169
207.173
207.168
207.174
207.167
207.176
207.166
207.178
207.166
207.181
207.167
207.189
207.176
207.216
480.248
1206.02
1481.71
1482.26
1362.51
664.012
306.865
241.869
242.69
250.464
254.036
252.585
247.999
243.221
239.038
235.007
230.777
226.351
221.954
217.898
214.483
211.906
210.194
209.191
208.627
208.254
207.96
207.722
207.537
207.403
207.314
207.261
207.23
207.214
207.205
207.2
207.197
207.196
207.195
207.195
207.195
207.195
207.195
207.195
207.195
207.195
207.195
207.195
207.195
207.195
207.195
207.195
207.195
207.195
207.195
207.195
207.195
207.195
207.195
207.195
207.195
207.195
207.195
207.195
207.195
207.195
207.195
207.195
207.195
207.195
207.195
207.195
207.195
207.195
207.195
207.195
207.194
207.195
207.194
207.195
207.194
207.195
207.194
207.196
207.193
207.196
207.192
207.197
207.192
207.198
207.19
207.2
207.19
207.202
207.189
207.206
207.192
207.217
207.205
207.252
236.148
598.435
714.636
966.003
773.865
315.458
225.541
231.361
240.854
250.316
252.885
250.855
246.679
242.237
238.234
234.404
230.406
226.188
221.936
217.949
214.535
211.906
210.117
209.051
208.474
208.137
207.895
207.702
207.545
207.422
207.335
207.278
207.244
207.225
207.215
207.209
207.206
207.205
207.204
207.203
207.203
207.203
207.203
207.203
207.203
207.203
207.203
207.203
207.203
207.203
207.203
207.203
207.203
207.203
207.203
207.203
207.203
207.203
207.203
207.203
207.203
207.203
207.203
207.203
207.203
207.203
207.203
207.203
207.203
207.203
207.203
207.203
207.203
207.203
207.203
207.203
207.203
207.203
207.203
207.203
207.203
207.204
207.202
207.204
207.202
207.205
207.201
207.205
207.2
207.206
207.199
207.208
207.199
207.21
207.199
207.214
207.202
207.224
207.215
207.26
215.276
312.759
274.728
462.827
280.684
191.747
229.918
237.645
239.945
249.287
252.506
249.784
245.252
240.854
237.033
233.505
229.878
225.997
221.975
218.097
214.689
211.999
210.114
208.954
208.319
207.982
207.77
207.61
207.481
207.378
207.304
207.255
207.225
207.208
207.198
207.193
207.191
207.189
207.188
207.188
207.188
207.188
207.188
207.188
207.188
207.188
207.188
207.188
207.188
207.188
207.188
207.188
207.188
207.188
207.188
207.188
207.188
207.188
207.188
207.188
207.188
207.188
207.188
207.188
207.188
207.188
207.188
207.188
207.188
207.188
207.188
207.188
207.188
207.188
207.188
207.188
207.188
207.188
207.188
207.188
207.187
207.188
207.187
207.189
207.187
207.189
207.186
207.19
207.185
207.191
207.185
207.192
207.184
207.194
207.184
207.197
207.187
207.206
207.198
207.237
208.753
226.575
223.055
251.496
195.166
226.968
247.644
232.665
234.353
247.27
252.937
250.705
245.631
240.539
236.233
232.574
229.123
225.565
221.858
218.199
214.885
212.178
210.208
208.942
208.224
207.851
207.644
207.504
207.398
207.317
207.261
207.224
207.202
207.189
207.182
207.178
207.176
207.175
207.174
207.174
207.174
207.174
207.174
207.174
207.174
207.174
207.174
207.174
207.174
207.174
207.174
207.174
207.174
207.174
207.174
207.174
207.174
207.174
207.174
207.174
207.174
207.174
207.174
207.174
207.174
207.174
207.174
207.174
207.174
207.174
207.174
207.174
207.174
207.174
207.174
207.174
207.174
207.174
207.174
207.174
207.174
207.174
207.173
207.175
207.173
207.175
207.172
207.176
207.172
207.176
207.171
207.177
207.17
207.179
207.17
207.182
207.172
207.189
207.181
207.215
205.585
212.731
216.007
218.995
211.811
233.157
233.987
214.787
231.341
252.204
257.47
253.972
248.135
242.231
236.922
232.326
228.265
224.497
220.914
217.57
214.597
212.138
210.281
209.018
208.249
207.824
207.593
207.451
207.354
207.288
207.245
207.219
207.205
207.197
207.193
207.19
207.189
207.188
207.188
207.188
207.188
207.188
207.188
207.188
207.188
207.188
207.188
207.188
207.188
207.188
207.188
207.188
207.188
207.188
207.188
207.188
207.188
207.188
207.188
207.188
207.188
207.188
207.188
207.188
207.188
207.188
207.188
207.188
207.188
207.188
207.188
207.188
207.188
207.188
207.188
207.188
207.188
207.188
207.188
207.188
207.187
207.188
207.187
207.188
207.187
207.189
207.186
207.189
207.186
207.19
207.185
207.191
207.184
207.192
207.184
207.195
207.185
207.2
207.192
207.221
203.395
214.388
202.655
221.987
201.828
229.459
223.512
205.164
249.373
282.895
279.978
264.955
252.293
243.91
237.917
232.703
227.772
223.227
219.231
215.852
213.113
211.018
209.533
208.569
207.996
207.684
207.517
207.419
207.355
207.313
207.288
207.274
207.266
207.263
207.261
207.26
207.26
207.26
207.26
207.26
207.26
207.26
207.26
207.26
207.26
207.26
207.26
207.26
207.26
207.26
207.26
207.26
207.26
207.26
207.26
207.26
207.26
207.26
207.26
207.26
207.26
207.26
207.26
207.26
207.26
207.26
207.26
207.26
207.26
207.26
207.26
207.26
207.26
207.26
207.26
207.26
207.26
207.26
207.26
207.26
207.26
207.26
207.259
207.26
207.259
207.261
207.258
207.261
207.258
207.262
207.257
207.263
207.256
207.264
207.256
207.266
207.256
207.27
207.26
207.286
209.329
207.75
206.246
217.893
195.163
242.539
206.716
214.413
321.374
376.93
355.956
313.523
279.562
257.872
244.77
236.68
231.284
227.095
223.244
219.461
215.929
212.97
210.777
209.325
208.454
207.972
207.721
207.589
207.518
207.481
207.464
207.458
207.456
207.456
207.457
207.457
207.458
207.458
207.458
207.458
207.458
207.458
207.458
207.458
207.458
207.458
207.458
207.458
207.458
207.458
207.458
207.458
207.458
207.458
207.458
207.458
207.458
207.458
207.458
207.458
207.458
207.458
207.458
207.458
207.458
207.458
207.458
207.458
207.458
207.458
207.458
207.458
207.458
207.458
207.458
207.458
207.458
207.458
207.458
207.458
207.458
207.459
207.458
207.459
207.457
207.46
207.457
207.46
207.456
207.461
207.455
207.463
207.454
207.464
207.452
207.466
207.452
207.471
207.455
207.485
219.41
196.27
220.831
201.088
209.158
243.322
185.214
305.35
513.833
584.793
524.365
426.346
346.883
296.718
267.693
250.717
240.094
232.637
226.675
221.55
217.215
213.814
211.396
209.834
208.908
208.399
208.137
208.007
207.945
207.921
207.916
207.919
207.925
207.929
207.933
207.935
207.936
207.937
207.937
207.938
207.938
207.938
207.938
207.938
207.938
207.938
207.938
207.938
207.938
207.938
207.938
207.938
207.938
207.938
207.938
207.938
207.938
207.938
207.938
207.938
207.938
207.938
207.938
207.938
207.938
207.938
207.938
207.938
207.938
207.938
207.938
207.938
207.938
207.938
207.938
207.938
207.938
207.938
207.938
207.938
207.938
207.939
207.937
207.939
207.936
207.94
207.935
207.942
207.933
207.944
207.931
207.947
207.928
207.95
207.925
207.955
207.924
207.965
207.931
207.989
229.667
185.608
239.719
178.792
244.78
226.952
251.436
570.097
862.402
917.747
808.467
648.296
501.937
397.107
330.884
291.138
266.877
250.825
239.047
229.792
222.548
217.239
213.675
211.476
210.218
209.556
209.243
209.116
209.078
209.083
209.103
209.125
209.144
209.157
209.166
209.171
209.174
209.176
209.177
209.177
209.178
209.178
209.178
209.178
209.178
209.178
209.178
209.178
209.178
209.178
209.178
209.178
209.178
209.178
209.178
209.178
209.178
209.178
209.178
209.178
209.178
209.178
209.178
209.178
209.178
209.178
209.178
209.178
209.178
209.178
209.178
209.178
209.178
209.178
209.178
209.178
209.178
209.178
209.178
209.178
209.177
209.179
209.175
209.182
209.173
209.185
209.169
209.19
209.163
209.197
209.155
209.207
209.145
209.22
209.137
209.238
209.135
209.272
209.162
209.352
247.136
206.132
253.844
192.312
305.403
272.769
528.733
1013.37
1303.9
1290.9
1123.1
918.624
733.384
585.895
478.487
403.521
351.02
312.325
282.275
258.77
241.335
229.397
221.832
217.337
214.825
213.56
213.05
212.94
213.008
213.138
213.27
213.376
213.452
213.502
213.532
213.549
213.559
213.564
213.567
213.568
213.569
213.569
213.569
213.569
213.569
213.569
213.569
213.569
213.569
213.569
213.569
213.569
213.569
213.569
213.569
213.569
213.569
213.569
213.569
213.569
213.569
213.569
213.569
213.569
213.569
213.569
213.569
213.569
213.569
213.569
213.569
213.569
213.569
213.569
213.569
213.569
213.569
213.57
213.568
213.571
213.566
213.574
213.562
213.581
213.553
213.591
213.541
213.608
213.519
213.638
213.485
213.683
213.442
213.743
213.403
213.834
213.39
213.999
213.518
214.376
402.768
368.063
383.464
366.186
487.727
545.257
1000.75
1523.04
1718.02
1603.52
1383.35
1161.06
965.414
799.366
669.865
570.331
491.679
427.003
371.79
325.575
290.478
266.337
250.65
240.875
235.273
232.665
231.991
232.293
232.949
233.66
234.274
234.728
235.028
235.214
235.325
235.388
235.423
235.441
235.45
235.455
235.457
235.459
235.459
235.459
235.46
235.46
235.46
235.46
235.46
235.46
235.46
235.46
235.46
235.46
235.46
235.46
235.46
235.46
235.46
235.46
235.46
235.46
235.46
235.46
235.46
235.46
235.46
235.46
235.46
235.46
235.46
235.46
235.46
235.46
235.46
235.46
235.459
235.461
235.457
235.466
235.45
235.476
235.436
235.494
235.415
235.518
235.387
235.56
235.326
235.659
235.2
235.839
235.025
236.099
234.842
236.523
234.748
237.291
235.272
238.931
725.189
720.13
707.076
724.246
849.512
941.196
1525.69
2026.18
2055.92
1818.32
1577.35
1361.63
1165.31
992.462
851.127
734.816
636.827
553.195
481.639
421.809
377.33
350.636
335.758
326.604
321.72
320.643
322.16
324.753
327.451
329.809
331.636
332.918
333.747
334.247
334.534
334.692
334.776
334.819
334.841
334.852
334.858
334.861
334.862
334.863
334.863
334.863
334.863
334.863
334.863
334.863
334.863
334.863
334.863
334.863
334.863
334.863
334.863
334.863
334.864
334.864
334.864
334.864
334.864
334.864
334.864
334.864
334.864
334.864
334.864
334.864
334.864
334.864
334.864
334.864
334.863
334.865
334.862
334.868
334.856
334.878
334.84
334.901
334.811
334.934
334.78
334.96
334.764
334.992
334.698
335.154
334.457
335.553
334.055
336.214
333.567
337.436
333.152
339.817
334.342
344.549
1042.2
1065.33
1022.09
1086.97
1184.87
1357.43
2166.74
2567.51
2293.62
1902.84
1654.42
1446.65
1259.67
1101.45
970.139
859.051
764.232
683.854
616.267
561.155
524.114
513.39
521.601
533.639
544.431
553.827
561.833
568.215
573.041
576.552
578.963
580.5
581.425
581.96
582.258
582.418
582.502
582.545
582.566
582.577
582.582
582.584
582.586
582.586
582.587
582.587
582.587
582.587
582.587
582.587
582.587
582.587
582.587
582.587
582.587
582.587
582.587
582.587
582.587
582.587
582.587
582.587
582.587
582.587
582.587
582.587
582.587
582.587
582.587
582.587
582.587
582.587
582.587
582.588
582.587
582.588
582.587
582.589
582.584
582.594
582.576
582.607
582.558
582.63
582.538
582.643
582.546
582.623
582.584
582.634
582.551