/*--------------------------------*- C++ -*----------------------------------*\
| =========                 |                                                 |
| \\      /  F ield         | OpenFOAM: The Open Source CFD Toolbox           |
|  \\    /   O peration     | Version:  v2012                                 |
|   \\  /    A nd           | Website:  www.openfoam.com                      |
|    \\/     M anipulation  |                                                 |
\*---------------------------------------------------------------------------*/
FoamFile
{
    version     2.0;
    format      ascii;
    class       volScalarField;
    location    "0.054";
    object      p;
}
// * * * * * * * * * * * * * * * * * * * * * * * * * * * * * * * * * * * * * //

dimensions      [0 2 -2 0 0 0 0];


internalField   nonuniform List<scalar> 
5600
(
-14.1552
-15.1208
-16.0734
-17.0639
-18.1231
-19.2248
-20.3295
-21.3983
-22.4153
-23.3769
-24.2909
-25.15
-25.9531
-26.7093
-27.4255
-28.1143
-28.7797
-29.4292
-30.0699
-30.7071
-31.3418
-31.9754
-32.6057
-33.2324
-33.8562
-34.4748
-35.09
-35.7034
-36.3143
-36.9232
-37.5315
-38.1403
-38.7474
-39.3555
-39.9615
-40.567
-41.17
-41.7724
-42.3734
-42.975
-43.573
-44.1715
-44.7658
-45.3612
-45.9523
-46.5438
-47.1333
-47.72
-48.3062
-48.888
-49.4749
-50.0521
-50.6411
-51.2198
-51.8084
-52.3878
-52.9647
-53.5433
-54.1029
-54.6749
-55.2262
-55.7889
-56.3322
-56.8785
-57.4229
-57.9594
-58.5082
-59.0336
-59.5869
-60.1102
-60.6604
-61.191
-61.7275
-62.2758
-62.7975
-63.3619
-63.8739
-64.4416
-64.9616
-65.5091
-66.0567
-66.5723
-67.1526
-67.6448
-68.2376
-68.7367
-69.2996
-69.8463
-70.3544
-70.9503
-71.4315
-72.0286
-72.5293
-73.0814
-73.6586
-74.13
-74.7557
-75.1926
-75.8056
-76.2501
-14.2538
-15.1447
-16.0911
-17.0769
-18.1331
-19.2341
-20.3386
-21.4068
-22.4248
-23.3872
-24.3002
-25.1586
-25.9617
-26.7185
-27.4357
-28.126
-28.793
-29.444
-30.0858
-30.7236
-31.3593
-31.9935
-32.6244
-33.2515
-33.8755
-34.4942
-35.1098
-35.7233
-36.3344
-36.9434
-37.5518
-38.161
-38.7682
-39.3766
-39.9829
-40.5884
-41.1915
-41.794
-42.3951
-42.9967
-43.5949
-44.1933
-44.7879
-45.3832
-45.9744
-46.5659
-47.1555
-47.7421
-48.3285
-48.9101
-49.4973
-50.0742
-50.6634
-51.2421
-51.8305
-52.4104
-52.9868
-53.5659
-54.1253
-54.6976
-55.2491
-55.8108
-56.3556
-56.9002
-57.446
-57.9814
-58.5307
-59.0561
-59.6088
-60.1334
-60.6816
-61.2144
-61.7491
-62.2987
-62.8197
-63.384
-63.8976
-64.4619
-64.9862
-65.5295
-66.0805
-66.5942
-67.1743
-67.6696
-68.2561
-68.7634
-69.3185
-69.8713
-70.3762
-70.9717
-71.4568
-72.0461
-72.5566
-73.1015
-73.6806
-74.1547
-74.77
-75.2209
-75.8212
-76.2674
-14.3353
-15.1657
-16.1193
-17.1053
-18.1554
-19.2506
-20.3502
-21.4154
-22.4292
-23.3907
-24.3019
-25.1593
-25.9621
-26.719
-27.4362
-28.127
-28.7944
-29.4457
-30.0877
-30.726
-31.3621
-31.9967
-32.6276
-33.255
-33.8798
-34.4993
-35.1153
-35.7292
-36.3407
-36.9503
-37.559
-38.1682
-38.7755
-39.3839
-39.9901
-40.5957
-41.1987
-41.8013
-42.4025
-43.004
-43.6022
-44.2006
-44.7952
-45.3904
-45.9817
-46.5731
-47.1629
-47.7494
-48.3358
-48.9173
-49.5045
-50.0815
-50.6705
-51.2497
-51.8376
-52.4183
-52.9939
-53.5736
-54.1327
-54.7045
-55.2569
-55.8183
-56.3641
-56.9082
-57.4548
-57.99
-58.5393
-59.0653
-59.617
-60.143
-60.6896
-61.2238
-61.7574
-62.3076
-62.8289
-63.3919
-63.9074
-64.469
-64.9964
-65.5369
-66.0897
-66.6032
-67.1814
-67.6803
-68.2616
-68.7747
-69.3247
-69.8809
-70.3846
-70.978
-71.4685
-72.0509
-72.5678
-73.1078
-73.6863
-74.1719
-74.7687
-75.2497
-75.8087
-76.3521
-14.4265
-15.1958
-16.1477
-17.1323
-18.175
-19.2648
-20.3616
-21.4269
-22.4384
-23.401
-24.3132
-25.1717
-25.976
-26.7341
-27.4528
-28.1431
-28.8114
-29.4628
-30.1045
-30.742
-31.3769
-32.0101
-32.6395
-33.2658
-33.8904
-34.5098
-35.1256
-35.7396
-36.3519
-36.9626
-37.5719
-38.1817
-38.7895
-39.3983
-40.0049
-40.6107
-41.2138
-41.8165
-42.4177
-43.0193
-43.6177
-44.2161
-44.811
-45.4062
-45.998
-46.5895
-47.1795
-47.766
-48.3525
-48.9343
-49.5213
-50.0987
-50.6873
-51.2672
-51.8543
-52.436
-53.0111
-53.5913
-54.1511
-54.7226
-55.2765
-55.836
-56.3833
-56.9254
-57.4728
-58.0078
-58.5563
-59.0839
-59.6333
-60.1619
-60.7058
-61.2424
-61.7745
-62.3249
-62.8477
-63.4075
-63.9277
-64.4837
-65.0169
-65.5532
-66.1074
-66.6231
-67.1953
-67.7036
-68.2738
-68.7981
-69.3398
-69.899
-70.4068
-70.9898
-71.4944
-72.0618
-72.592
-73.1267
-73.6985
-74.1986
-74.7739
-75.2792
-75.8308
-76.366
-14.5187
-15.2267
-16.1735
-17.1597
-18.1964
-19.2812
-20.3756
-21.4392
-22.4501
-23.4127
-24.3248
-25.1829
-25.9877
-26.7461
-27.4663
-28.156
-28.8253
-29.4777
-30.1203
-30.7584
-31.3937
-32.0272
-32.657
-33.2835
-33.9078
-34.5269
-35.1422
-35.7556
-36.3674
-36.9774
-37.5861
-38.195
-38.8021
-39.4105
-40.0173
-40.6234
-41.2268
-41.8299
-42.4314
-43.0331
-43.6319
-44.2302
-44.8254
-45.4208
-46.0129
-46.6046
-47.1947
-47.7812
-48.3674
-48.9496
-49.5359
-50.1144
-50.7018
-51.2833
-51.869
-52.4521
-53.0266
-53.6065
-54.1679
-54.7369
-55.2939
-55.8504
-56.4001
-56.9416
-57.4892
-58.0256
-58.5717
-59.1029
-59.6482
-60.1807
-60.7213
-61.2602
-61.7916
-62.3406
-62.8673
-63.4207
-63.9486
-64.4969
-65.0364
-65.5695
-66.1228
-66.644
-67.2055
-67.7276
-68.2841
-68.8199
-69.3552
-69.9141
-70.4288
-70.997
-71.5208
-72.0712
-72.6124
-73.1449
-73.7077
-74.2278
-74.7786
-75.3084
-75.8482
-76.3981
-14.6096
-15.2595
-16.1998
-17.1896
-18.2206
-19.2999
-20.3915
-21.4533
-22.4638
-23.4259
-24.3378
-25.1961
-26.0016
-26.761
-27.4821
-28.1727
-28.843
-29.4962
-30.1394
-30.7777
-31.4129
-32.0463
-32.6761
-33.3026
-33.9263
-34.5456
-35.1612
-35.7748
-36.3868
-36.9969
-37.6058
-38.2145
-38.8218
-39.4293
-40.0364
-40.6419
-41.2453
-41.8475
-42.4488
-43.0496
-43.6484
-44.2459
-44.8411
-45.4361
-46.0281
-46.6204
-47.2109
-47.7976
-48.3834
-48.9666
-49.5516
-50.1322
-50.7176
-51.3014
-51.8854
-52.4698
-53.0447
-53.6234
-54.1887
-54.7537
-55.3146
-55.8687
-56.42
-56.9609
-57.5075
-58.0466
-58.5884
-59.1251
-59.6646
-60.202
-60.7391
-61.2796
-61.8121
-62.357
-62.8912
-63.4345
-63.9729
-64.5124
-65.0579
-65.5898
-66.138
-66.6709
-67.2152
-67.7565
-68.2964
-68.8432
-69.3751
-69.9283
-70.4589
-71.0036
-71.5528
-72.0832
-72.6342
-73.17
-73.7169
-74.26
-74.7874
-75.3361
-75.8709
-76.4366
-14.6959
-15.2945
-16.227
-17.2209
-18.2467
-19.3204
-20.4095
-21.4699
-22.48
-23.4417
-24.3536
-25.2119
-26.0181
-26.7783
-27.5001
-28.1916
-28.8624
-29.5161
-30.1596
-30.7981
-31.4335
-32.0668
-32.6966
-33.3232
-33.9467
-34.5662
-35.182
-35.7956
-36.4077
-37.0178
-37.6268
-38.2353
-38.843
-39.4502
-40.0577
-40.6628
-41.2667
-41.8686
-42.4705
-43.0706
-43.6702
-44.2667
-44.8624
-45.4568
-46.0486
-46.6407
-47.2315
-47.818
-48.4026
-48.9871
-49.5695
-50.1526
-50.7345
-51.3205
-51.9028
-52.4874
-53.0645
-53.6404
-54.2114
-54.7706
-55.3371
-55.8881
-56.4407
-56.9826
-57.5271
-58.0701
-58.6068
-59.1496
-59.6829
-60.2248
-60.7598
-61.2999
-61.8363
-62.3742
-62.9182
-63.4496
-63.9986
-64.5313
-65.0788
-65.6146
-66.1539
-66.7015
-67.2264
-67.786
-68.3127
-68.8658
-69.4004
-69.9423
-70.4919
-71.0132
-71.5825
-72.1012
-72.6547
-73.1969
-73.7299
-74.2889
-74.805
-75.3603
-75.8954
-76.4782
-14.7738
-15.3311
-16.2554
-17.2532
-18.2745
-19.3432
-20.4303
-21.4895
-22.4993
-23.4607
-24.3723
-25.2309
-26.0376
-26.7983
-27.5207
-28.213
-28.8842
-29.5385
-30.1825
-30.8212
-31.4568
-32.09
-32.7199
-33.3463
-33.9698
-34.5894
-35.2053
-35.8189
-36.4309
-37.0411
-37.6502
-38.2586
-38.8664
-39.4736
-40.081
-40.686
-41.2899
-41.8918
-42.4938
-43.0938
-43.6935
-44.2898
-44.886
-45.48
-46.0723
-46.664
-47.2549
-47.8413
-48.4256
-49.0111
-49.5923
-50.1775
-50.7574
-51.3444
-51.9262
-52.5094
-53.0886
-53.6612
-54.2354
-54.7935
-55.3606
-55.9107
-56.4632
-57.0071
-57.5493
-58.0946
-58.6286
-59.1746
-59.7055
-60.2489
-60.7837
-61.3223
-61.8619
-62.3948
-62.9449
-63.4711
-64.0239
-64.5551
-65.1007
-65.6405
-66.1738
-66.728
-67.2466
-67.8124
-68.3367
-68.8886
-69.4268
-69.9604
-70.5175
-71.0342
-71.6058
-72.128
-72.675
-73.2214
-73.7511
-74.3114
-74.8338
-75.3815
-75.9251
-76.5197
-14.8397
-15.3679
-16.2851
-17.2859
-18.304
-19.3687
-20.4542
-21.5126
-22.5222
-23.4832
-24.3947
-25.2534
-26.0605
-26.8216
-27.5445
-28.2375
-28.9091
-29.5636
-30.208
-30.847
-31.4826
-32.1157
-32.7456
-33.372
-33.9954
-34.615
-35.2309
-35.8446
-36.4567
-37.0669
-37.676
-38.2845
-38.8922
-39.4996
-40.1067
-40.7118
-41.3157
-41.9178
-42.5195
-43.1198
-43.7193
-44.3159
-44.9118
-45.5058
-46.0983
-46.6898
-47.2803
-47.8669
-48.4515
-49.0368
-49.6183
-50.2032
-50.7835
-51.3703
-51.9526
-52.5348
-53.115
-53.6864
-54.2608
-54.8212
-55.3845
-55.9378
-56.4876
-57.0339
-57.575
-58.1199
-58.655
-59.2
-59.7321
-60.2746
-60.81
-61.3479
-61.888
-62.4213
-62.9697
-63.4993
-64.0485
-64.5827
-65.1255
-65.666
-66.2005
-66.7517
-67.2775
-67.8354
-68.3655
-68.9122
-69.4525
-69.9875
-70.5405
-71.0661
-71.6271
-72.1568
-72.6998
-73.2468
-73.7805
-74.3342
-74.8642
-75.4084
-75.9589
-76.557
-14.8889
-15.4024
-16.316
-17.3186
-18.3347
-19.3972
-20.4819
-21.5398
-22.5492
-23.5102
-24.4216
-25.2803
-26.0875
-26.849
-27.5722
-28.2656
-28.9371
-29.5919
-30.2366
-30.8757
-31.5113
-32.1443
-32.7743
-33.4008
-34.0241
-34.6436
-35.2596
-35.8734
-36.4854
-37.0957
-37.7048
-38.3132
-38.9209
-39.5286
-40.1355
-40.7405
-41.3444
-41.9467
-42.5483
-43.1486
-43.7479
-44.3448
-44.9405
-45.5346
-46.1271
-46.7186
-47.3087
-47.8956
-48.4805
-49.0654
-49.6475
-50.2315
-50.813
-51.3988
-51.9817
-52.5634
-53.1432
-53.7155
-54.2886
-54.8506
-55.4122
-55.9669
-56.516
-57.0628
-57.6041
-58.1481
-58.6847
-59.228
-59.762
-60.3026
-60.8391
-61.3767
-61.9165
-62.4514
-62.9969
-63.5302
-64.0755
-64.6126
-65.1537
-65.6945
-66.2309
-66.7787
-67.3097
-67.861
-68.3963
-68.9397
-69.4813
-70.0184
-70.5672
-71.0983
-71.6521
-72.1876
-72.7285
-73.2751
-73.8117
-74.3605
-74.8957
-75.4397
-75.993
-76.5882
-14.9138
-15.4307
-16.3465
-17.3489
-18.3648
-19.4275
-20.5124
-21.5702
-22.5797
-23.5408
-24.4521
-25.3107
-26.1179
-26.8793
-27.6025
-28.2961
-28.9673
-29.6221
-30.2669
-30.906
-31.5417
-32.1747
-32.8046
-33.4311
-34.0545
-34.6739
-35.2899
-35.9038
-36.5157
-37.126
-37.7351
-38.3436
-38.9512
-39.559
-40.1658
-40.7708
-41.3747
-41.977
-42.5786
-43.1789
-43.7781
-44.3752
-44.9708
-45.5649
-46.1576
-46.749
-47.3389
-47.9259
-48.5109
-49.0956
-49.6781
-50.2615
-50.8439
-51.4289
-52.0123
-52.5938
-53.1731
-53.7464
-54.3184
-54.8814
-55.4422
-55.9971
-56.5463
-57.0931
-57.6348
-58.1779
-58.7158
-59.2575
-59.7929
-60.3323
-60.8695
-61.4071
-61.9466
-62.4825
-63.0259
-63.5618
-64.1047
-64.6436
-65.1837
-65.7247
-66.2622
-66.8074
-67.3422
-67.8892
-68.4276
-68.9697
-69.5116
-70.05
-70.5955
-71.131
-71.68
-72.219
-72.7592
-73.3046
-73.8438
-74.3892
-74.9292
-75.4728
-76.0267
-76.6136
-14.9117
-15.4502
-16.3736
-17.3739
-18.3912
-19.4565
-20.5427
-21.6009
-22.6108
-23.5721
-24.4834
-25.3418
-26.1488
-26.9098
-27.6325
-28.326
-28.9969
-29.6514
-30.2961
-30.9351
-31.5708
-32.2038
-32.8338
-33.4603
-34.0837
-34.7029
-35.3188
-35.9328
-36.5447
-37.1549
-37.7641
-38.3725
-38.9801
-39.5882
-40.1948
-40.7997
-41.4037
-42.0061
-42.6076
-43.208
-43.8071
-44.4043
-44.9998
-45.594
-46.1867
-46.7781
-47.3677
-47.9547
-48.54
-49.1245
-49.7071
-50.2901
-50.8731
-51.4577
-52.0414
-52.6229
-53.202
-53.7759
-54.3472
-54.9109
-55.4711
-56.0262
-56.5755
-57.122
-57.6642
-58.2064
-58.7452
-59.2861
-59.8221
-60.3609
-60.8983
-61.4362
-61.9751
-62.5119
-63.0539
-63.5916
-64.1329
-64.6726
-65.2126
-65.7531
-66.292
-66.8351
-67.3726
-67.9168
-68.4571
-68.9983
-69.5399
-70.08
-70.6229
-71.1616
-71.7073
-72.2486
-72.7884
-73.3327
-73.8741
-74.417
-74.9605
-75.503
-76.0581
-76.6327
-14.888
-15.4627
-16.3964
-17.3931
-18.4134
-19.483
-20.571
-21.6301
-22.6406
-23.6021
-24.5135
-25.3717
-26.1783
-26.9387
-27.6607
-28.354
-29.0241
-29.6782
-30.3226
-30.9615
-31.5972
-32.2302
-32.8602
-33.4867
-34.1102
-34.7293
-35.3451
-35.9591
-36.5709
-37.1812
-37.7903
-38.3988
-39.0063
-39.6146
-40.2211
-40.826
-41.43
-42.0323
-42.6339
-43.2342
-43.8333
-44.4307
-45.0261
-45.6203
-46.2133
-46.8045
-47.394
-47.981
-48.5664
-49.1508
-49.7336
-50.3164
-50.8995
-51.4837
-52.0677
-52.6491
-53.2281
-53.8028
-54.373
-54.9379
-55.4971
-56.0527
-56.6018
-57.1482
-57.6909
-58.2318
-58.7719
-59.3117
-59.8488
-60.3866
-60.9242
-61.4627
-62.0005
-62.5388
-63.079
-63.6185
-64.1586
-64.6987
-65.2389
-65.7785
-66.3189
-66.8601
-67.4001
-67.9419
-68.4838
-69.0241
-69.5656
-70.107
-70.6479
-71.189
-71.732
-72.2758
-72.8142
-73.3588
-73.9007
-74.4426
-74.9885
-75.5284
-76.087
-76.6493
-14.8476
-15.4709
-16.4156
-17.4078
-18.4323
-19.5072
-20.5975
-21.6577
-22.6688
-23.6305
-24.5421
-25.4001
-26.2061
-26.9658
-27.687
-28.3799
-29.0494
-29.7028
-30.3469
-30.9855
-31.6213
-32.2543
-32.8843
-33.5108
-34.1344
-34.7533
-35.369
-35.9831
-36.5948
-37.205
-37.8141
-38.4226
-39.0299
-39.6387
-40.245
-40.8498
-41.4538
-42.0562
-42.6578
-43.2581
-43.8572
-44.4547
-45.0498
-45.6438
-46.2372
-46.8284
-47.4176
-48.0047
-48.59
-49.1743
-49.7571
-50.3399
-50.9234
-51.5074
-52.092
-52.6733
-53.2525
-53.8274
-54.397
-54.9624
-55.5212
-56.0769
-56.6256
-57.172
-57.715
-58.255
-58.7958
-59.3347
-59.8728
-60.4096
-60.9482
-61.4859
-62.024
-62.5626
-63.1019
-63.6426
-64.1816
-64.7227
-65.2621
-65.8022
-66.3424
-66.8834
-67.4241
-67.9648
-68.5079
-69.047
-69.59
-70.1298
-70.6719
-71.2125
-71.7551
-72.3002
-72.8369
-73.3834
-73.9231
-74.4679
-75.0117
-75.5533
-76.1112
-76.6634
-14.7949
-15.4765
-16.4313
-17.4188
-18.4484
-19.5292
-20.6222
-21.6839
-22.6956
-23.6575
-24.5692
-25.4269
-26.2322
-26.9911
-27.7112
-28.4037
-29.0724
-29.7252
-30.3689
-31.0073
-31.6431
-32.2761
-32.9061
-33.5326
-34.1563
-34.7748
-35.3906
-36.0046
-36.6164
-37.2265
-37.8357
-38.4439
-39.0514
-39.6602
-40.2664
-40.8711
-41.4751
-42.0774
-42.6789
-43.2793
-43.8785
-44.4761
-45.0714
-45.6657
-46.2593
-46.8507
-47.4399
-48.0275
-48.613
-49.1978
-49.7809
-50.3641
-50.9479
-51.5321
-52.1168
-52.6977
-53.2764
-53.8502
-54.42
-54.9845
-55.5433
-56.0986
-56.6472
-57.1935
-57.7362
-58.2767
-58.8169
-59.3561
-59.8941
-60.4306
-60.9698
-61.5066
-62.0459
-62.5835
-63.1235
-63.6637
-64.2029
-64.7441
-65.2829
-65.8241
-66.363
-66.9055
-67.4447
-67.9866
-68.5289
-69.068
-69.6119
-70.1501
-70.6944
-71.2327
-71.7773
-72.3208
-72.8583
-73.4051
-73.9433
-74.4908
-75.0311
-75.5782
-76.1305
-76.6767
-14.7347
-15.4804
-16.4437
-17.4272
-18.4623
-19.5487
-20.6448
-21.7082
-22.7208
-23.6831
-24.5951
-25.4525
-26.257
-27.015
-27.734
-28.4257
-29.0934
-29.7456
-30.3888
-31.027
-31.6628
-32.2959
-32.9257
-33.5527
-34.1763
-34.7946
-35.4101
-36.0239
-36.6354
-37.2454
-37.8545
-38.4627
-39.0708
-39.6797
-40.2861
-40.8911
-41.4956
-42.0986
-42.7005
-43.3014
-43.9011
-44.499
-45.0946
-45.689
-46.282
-46.8731
-47.462
-48.0495
-48.6349
-49.2197
-49.8027
-50.3858
-50.9695
-51.5536
-52.1378
-52.7184
-53.2971
-53.8702
-54.4403
-55.0041
-55.5631
-56.1181
-56.6665
-57.213
-57.7552
-58.2962
-58.8359
-59.3757
-59.9131
-60.4501
-60.9892
-61.5255
-62.0657
-62.6022
-63.1433
-63.6825
-64.2225
-64.763
-65.3022
-65.8436
-66.3817
-66.9255
-67.4632
-68.0066
-68.5475
-69.0877
-69.6311
-70.1688
-70.7144
-71.251
-71.7976
-72.339
-72.8785
-73.4239
-73.9625
-74.5109
-75.0493
-75.6005
-76.1477
-76.6934
-14.6701
-15.4828
-16.4526
-17.4345
-18.4759
-19.5669
-20.6655
-21.7303
-22.7434
-23.7057
-24.6183
-25.4753
-26.2796
-27.0362
-27.7552
-28.4461
-29.1128
-29.7641
-30.4066
-31.0442
-31.6798
-32.3127
-32.9423
-33.5696
-34.1931
-34.812
-35.4282
-36.0426
-36.6547
-37.2655
-37.8755
-38.4845
-39.0931
-39.7019
-40.3081
-40.9127
-41.5169
-42.1196
-42.7212
-43.3219
-43.9215
-44.5192
-45.1146
-45.7087
-46.3014
-46.8924
-47.4812
-48.0687
-48.6541
-49.2388
-49.8219
-50.4049
-50.9885
-51.5726
-52.1566
-52.7371
-53.3155
-53.8882
-54.4584
-55.0217
-55.5807
-56.1354
-56.6837
-57.2304
-57.7719
-58.3134
-58.8525
-59.3929
-59.9295
-60.4671
-61.0059
-61.5422
-62.0827
-62.6188
-63.1606
-63.699
-64.2398
-64.7796
-65.3193
-65.8605
-66.3984
-66.9428
-67.4795
-68.0242
-68.5638
-69.1051
-69.6477
-70.1857
-70.7317
-71.2672
-71.8153
-72.3551
-72.8963
-73.4401
-73.9798
-74.5279
-75.0656
-75.6181
-76.1614
-76.7062
-14.6035
-15.4829
-16.4554
-17.4382
-18.4889
-19.5856
-20.6867
-21.7532
-22.7667
-23.7283
-24.6406
-25.4965
-26.2998
-27.0547
-27.7738
-28.4636
-29.1298
-29.781
-30.424
-31.0623
-31.699
-32.3334
-32.9644
-33.5926
-34.2162
-34.8355
-35.4516
-36.0656
-36.6764
-37.2863
-37.8958
-38.5043
-39.1126
-39.721
-40.3271
-40.9316
-41.5357
-42.1384
-42.74
-43.3407
-43.9402
-44.5379
-45.1332
-45.7271
-46.3195
-46.9104
-47.4992
-48.0867
-48.6721
-49.2568
-49.8398
-50.4228
-51.0063
-51.5904
-52.1742
-52.7547
-53.333
-53.9056
-54.4759
-55.0389
-55.5981
-56.1527
-56.7011
-57.248
-57.7894
-58.3312
-58.8701
-59.4108
-59.9471
-60.4851
-61.0236
-61.5601
-62.1005
-62.6363
-63.1786
-63.7164
-64.2578
-64.797
-65.3372
-65.878
-66.4161
-66.9605
-67.4969
-68.0422
-68.581
-69.1232
-69.665
-70.2036
-70.7494
-71.2847
-71.8334
-72.3722
-72.9147
-73.4571
-73.9983
-74.5453
-75.0835
-75.6376
-76.1795
-76.7243
-14.5443
-15.4891
-16.4543
-17.433
-18.4895
-19.5912
-20.6977
-21.7692
-22.784
-23.7473
-24.6612
-25.5175
-26.3206
-27.0754
-27.7938
-28.4829
-29.1486
-29.7994
-30.442
-31.08
-31.7165
-32.3508
-32.9816
-33.6091
-34.2313
-34.8499
-35.4654
-36.0789
-36.6893
-37.2987
-37.908
-38.5163
-39.1245
-39.7328
-40.3389
-40.9432
-41.5472
-42.1497
-42.7512
-43.3518
-43.9512
-44.5488
-45.144
-45.7378
-46.3302
-46.9211
-47.5098
-48.0972
-48.6825
-49.2671
-49.8501
-50.4331
-51.0166
-51.6007
-52.1844
-52.7649
-53.3431
-53.9155
-54.4856
-55.0485
-55.6075
-56.1619
-56.7102
-57.2569
-57.7981
-58.3399
-58.8786
-59.4195
-59.9555
-60.4937
-61.032
-61.5686
-62.1091
-62.6449
-63.1873
-63.7249
-64.2665
-64.8055
-65.346
-65.8866
-66.4248
-66.9693
-67.5054
-68.0511
-68.5894
-69.1321
-69.6734
-70.2124
-70.758
-71.2933
-71.8422
-72.3806
-72.9236
-73.4654
-74.0071
-74.5536
-75.092
-75.6458
-76.1861
-76.731
-14.4683
-15.4956
-16.4743
-17.4607
-18.5211
-19.6228
-20.7301
-21.8024
-22.8151
-23.7792
-24.6945
-25.5518
-26.355
-27.1093
-27.8267
-28.5147
-29.1791
-29.8285
-30.4698
-31.1068
-31.7423
-32.376
-33.0062
-33.6335
-34.2558
-34.8742
-35.4897
-36.1029
-36.7132
-37.3226
-37.9316
-38.5398
-39.1477
-39.7559
-40.3618
-40.9661
-41.57
-42.1725
-42.7739
-43.3745
-43.9738
-44.5714
-45.1666
-45.7604
-46.3528
-46.9436
-47.5323
-48.1197
-48.7051
-49.2896
-49.8727
-50.4556
-51.0391
-51.6232
-52.2068
-52.7873
-53.3654
-53.9379
-54.5079
-55.0708
-55.6299
-56.1841
-56.7326
-57.2792
-57.8205
-58.3623
-58.901
-59.4419
-59.9778
-60.5163
-61.0543
-61.5912
-62.1314
-62.6673
-63.2097
-63.7472
-64.2891
-64.8276
-65.3686
-65.9088
-66.4473
-66.9915
-67.5279
-68.0736
-68.6116
-69.1549
-69.6954
-70.2351
-70.7801
-71.3159
-71.8645
-72.4028
-72.9464
-73.4872
-74.0302
-74.5755
-75.1151
-75.6678
-76.2092
-76.7534
-76.6066
-80.8401
-82.6639
-81.5672
-77.7955
-73.129
-68.7799
-64.9836
-62.113
-58.9127
-54.6712
-48.5092
-38.364
-27.0984
-18.3583
-14.3203
-13.698
-14.509
-15.0472
-13.629
-9.9531
-6.27602
-3.62285
-1.51151
0.39156
1.94956
3.22549
4.26519
5.04775
5.59562
5.97775
6.23345
6.40236
6.51713
6.59112
6.63283
6.65287
6.6494
6.6215
6.57576
6.51685
6.44928
6.36772
6.26568
6.15374
6.04121
5.92074
5.81692
5.7247
5.63818
5.53796
5.42839
5.32421
5.21797
5.10968
5.0007
4.89103
4.78087
4.67039
4.5597
4.44886
4.33794
4.22699
4.11601
4.00502
3.89402
3.78302
3.67201
3.561
3.44999
3.33897
3.22796
3.11695
3.00594
2.89493
2.78392
2.6729
2.56189
2.45088
2.33987
2.22886
2.11784
2.00683
1.89582
1.7848
1.67378
1.56275
1.45172
1.34065
1.22955
1.11838
1.00709
0.895581
0.783703
0.671139
0.557488
0.441652
0.323213
0.197858
0.0721255
-76.7391
-80.2685
-82.2044
-81.1959
-77.5215
-72.945
-68.6295
-64.8535
-61.9663
-58.6557
-54.3455
-48.0775
-38.1908
-27.1661
-18.9036
-15.1667
-14.7346
-15.5965
-15.9757
-14.3416
-10.3687
-6.3607
-3.51014
-1.33175
0.574263
2.08633
3.31774
4.31248
5.06013
5.59078
5.96422
6.21728
6.38638
6.50161
6.57612
6.6183
6.63837
6.63513
6.60748
6.56162
6.50282
6.43595
6.35394
6.25161
6.13914
6.02706
5.90886
5.80592
5.71274
5.62363
5.52504
5.41622
5.31163
5.20563
5.09723
4.98813
4.87838
4.76817
4.65765
4.54695
4.4361
4.32518
4.21422
4.10324
3.99225
3.88125
3.77024
3.65924
3.54822
3.43721
3.3262
3.21519
3.10418
2.99316
2.88215
2.77114
2.66013
2.54912
2.43811
2.3271
2.21608
2.10507
1.99406
1.88304
1.77203
1.66101
1.54999
1.43895
1.3279
1.21682
1.10568
0.994445
0.883039
0.771337
0.659088
0.545971
0.43111
0.314165
0.191686
0.0688624
-76.8091
-79.9755
-81.8134
-80.802
-77.2063
-72.7326
-68.4247
-64.6553
-61.7293
-58.3004
-53.9143
-47.4971
-38.0086
-27.1366
-19.4678
-16.0803
-15.8791
-16.815
-17.028
-15.1281
-10.8359
-6.45378
-3.36848
-1.1086
0.792117
2.25048
3.42512
4.36606
5.07627
5.58711
5.95032
6.2001
6.36915
6.48476
6.55965
6.60223
6.62237
6.61944
6.59211
6.54614
6.48753
6.42125
6.33884
6.23611
6.12314
6.01127
5.89575
5.79403
5.70001
5.60841
5.50959
5.40265
5.29785
5.19183
5.08342
4.97421
4.86438
4.75411
4.64356
4.53283
4.42197
4.31104
4.20008
4.0891
3.97811
3.86711
3.7561
3.64509
3.53408
3.42307
3.31206
3.20105
3.09003
2.97902
2.86801
2.757
2.64599
2.53498
2.42397
2.31295
2.20194
2.09093
1.97992
1.8689
1.75789
1.64687
1.53585
1.42483
1.31379
1.20272
1.09162
0.980449
0.869156
0.757651
0.645755
0.533237
0.419464
0.304194
0.184911
0.0653141
-76.926
-79.7764
-81.4638
-80.4276
-76.8865
-72.5012
-68.1886
-64.4129
-61.3578
-57.8019
-53.3082
-46.8291
-37.6783
-27.0203
-20.0316
-17.0616
-17.1401
-18.1771
-18.2226
-16.0126
-11.3509
-6.56472
-3.206
-0.838873
1.04741
2.44295
3.54706
4.42669
5.09622
5.58439
5.93587
6.18175
6.35053
6.46643
6.54162
6.58452
6.60474
6.60221
6.57528
6.52924
6.47086
6.40508
6.32227
6.21895
6.10554
5.99396
5.88106
5.78104
5.68602
5.59263
5.4919
5.38752
5.28289
5.1764
5.06806
4.95878
4.84887
4.73853
4.62795
4.5172
4.40632
4.29539
4.18442
4.07344
3.96245
3.85145
3.74044
3.62943
3.51842
3.40741
3.2964
3.18539
3.07437
2.96336
2.85235
2.74134
2.63033
2.51932
2.40831
2.29729
2.18628
2.07527
1.96426
1.85325
1.74223
1.63122
1.5202
1.40918
1.29816
1.18712
1.07605
0.964954
0.853787
0.742503
0.631
0.519151
0.406592
0.293192
0.177454
0.0614478
-77.0377
-79.5393
-81.0972
-80.0442
-76.6071
-72.2818
-67.9338
-64.1455
-60.8336
-57.1322
-52.4538
-46.0089
-36.9754
-26.9523
-20.6214
-18.1093
-18.5249
-19.7008
-19.5785
-17.0156
-11.908
-6.68712
-3.0266
-0.528976
1.33646
2.66065
3.68254
4.49466
5.11978
5.58234
5.92066
6.16198
6.33029
6.44644
6.52189
6.56505
6.58536
6.58332
6.55687
6.5108
6.45269
6.38731
6.30413
6.2002
6.0865
5.97466
5.86457
5.76652
5.67062
5.57459
5.47318
5.37104
5.26638
5.15938
5.05102
4.94167
4.83168
4.72128
4.61066
4.4999
4.38901
4.27806
4.1671
4.05611
3.94512
3.83411
3.72311
3.6121
3.50109
3.39008
3.27906
3.16805
3.05704
2.94603
2.83502
2.72401
2.61299
2.50198
2.39097
2.27996
2.16895
2.05794
1.94692
1.83591
1.7249
1.61389
1.50288
1.39187
1.28086
1.16984
1.05882
0.947802
0.836776
0.725738
0.614672
0.503567
0.392356
0.281038
0.169221
0.057216
-77.1242
-79.2867
-80.6844
-79.6226
-76.3268
-72.0472
-67.7052
-63.8304
-60.1901
-56.261
-51.2936
-44.7826
-36.0457
-26.9691
-21.2435
-19.2314
-20.0454
-21.4043
-21.1144
-18.1526
-12.5195
-6.80841
-2.82219
-0.177928
1.65996
2.90314
3.83206
4.57025
5.14667
5.58068
5.90443
6.14059
6.30822
6.42462
6.50033
6.54372
6.56414
6.56264
6.53676
6.49068
6.43285
6.3678
6.28435
6.17994
6.06625
5.95329
5.84558
5.74986
5.65369
5.55428
5.45359
5.35272
5.24794
5.14077
5.03222
4.92272
4.81262
4.70217
4.59151
4.48073
4.36982
4.25887
4.1479
4.03691
3.92592
3.81491
3.70391
3.5929
3.48189
3.37088
3.25986
3.14885
3.03784
2.92683
2.81581
2.7048
2.59379
2.48278
2.37177
2.26076
2.14975
2.03874
1.92772
1.81671
1.7057
1.5947
1.48369
1.37269
1.26169
1.1507
1.03974
0.928802
0.817931
0.707165
0.596584
0.486301
0.376581
0.26757
0.160082
0.0525433
-77.1874
-79.0219
-80.2229
-79.1666
-75.9933
-71.7724
-67.4498
-63.4147
-59.4758
-55.1755
-49.827
-43.2152
-35.1345
-26.9319
-21.8549
-20.4246
-21.6999
-23.2808
-22.8213
-19.4234
-13.2052
-6.92352
-2.58798
0.216656
2.02054
3.1726
3.99758
4.65407
5.17683
5.57931
5.88705
6.11742
6.28416
6.40081
6.47683
6.52046
6.54098
6.54009
6.51485
6.46869
6.41106
6.34631
6.26269
6.15797
6.04437
5.93057
5.82336
5.73079
5.63462
5.53252
5.43238
5.33204
5.22752
5.12033
5.01152
4.90181
4.79157
4.68104
4.57034
4.45955
4.34862
4.23765
4.12667
4.01568
3.90468
3.79368
3.68267
3.57166
3.46065
3.34964
3.23863
3.12761
3.0166
2.90559
2.79458
2.68357
2.57256
2.46155
2.35053
2.23952
2.12851
2.0175
1.90649
1.79548
1.68447
1.57347
1.46247
1.35147
1.24049
1.12954
1.01862
0.907786
0.797086
0.686618
0.576569
0.46719
0.359108
0.252636
0.149924
0.0473635
-77.2302
-78.7528
-79.7291
-78.6755
-75.6028
-71.4744
-67.1305
-62.9058
-58.6434
-53.9059
-48.2087
-41.5736
-34.1451
-26.7756
-22.4623
-21.6491
-23.4432
-25.2629
-24.6243
-20.7556
-13.9783
-7.05139
-2.31265
0.657242
2.41502
3.46926
4.18141
4.74703
5.21012
5.57806
5.86835
6.09225
6.25793
6.37491
6.45132
6.49523
6.51585
6.51551
6.4908
6.44465
6.38715
6.32262
6.23889
6.13391
6.02058
5.90648
5.79726
5.70874
5.61251
5.50944
5.40909
5.30909
5.20491
5.0976
4.98856
4.87866
4.76827
4.65761
4.54686
4.43603
4.32504
4.21409
4.10311
3.99212
3.88112
3.77012
3.65911
3.5481
3.43709
3.32608
3.21507
3.10406
2.99304
2.88203
2.77102
2.66001
2.549
2.43799
2.32697
2.21596
2.10495
1.99394
1.88293
1.77192
1.66092
1.54992
1.43892
1.32794
1.21698
1.10605
0.9952
0.884468
0.773955
0.663812
0.554343
0.445949
0.33966
0.235962
0.138518
0.0414964
-77.2504
-78.4867
-79.2288
-78.1611
-75.192
-71.1483
-66.7611
-62.3393
-57.7264
-52.5402
-46.5051
-39.8383
-32.9985
-26.5391
-23.0341
-22.8357
-25.1636
-27.1936
-26.4044
-22.0196
-14.6915
-7.24425
-2.02243
1.14824
2.85265
3.79342
4.38551
4.85079
5.24654
5.57654
5.84789
6.06443
6.22886
6.34643
6.42358
6.46799
6.48875
6.48872
6.46432
6.41829
6.36077
6.29647
6.21278
6.1075
5.99457
5.88059
5.77126
5.68292
5.5876
5.48438
5.38341
5.28369
5.17987
5.07237
4.96311
4.85305
4.74253
4.63178
4.52097
4.41012
4.29913
4.18812
4.07713
3.96613
3.85513
3.74412
3.63311
3.5221
3.41109
3.30008
3.18907
3.07805
2.96704
2.85603
2.74502
2.63401
2.523
2.41199
2.30097
2.18996
2.07895
1.96794
1.85693
1.74593
1.63492
1.52393
1.41294
1.30197
1.19102
1.08014
0.969344
0.858724
0.748411
0.638616
0.529769
0.422433
0.318086
0.21738
0.125748
0.0348501
-77.2497
-78.2325
-78.7427
-77.6485
-74.7753
-70.7989
-66.3627
-61.7276
-56.7442
-51.0882
-44.6543
-37.9571
-31.6839
-26.237
-23.5114
-23.8826
-26.6407
-28.9269
-28.0538
-23.1263
-15.2178
-7.40981
-1.70101
1.68584
3.33874
4.13838
4.60405
4.96338
5.28534
5.57444
5.82627
6.03482
6.19755
6.31564
6.39364
6.43867
6.45963
6.4596
6.43516
6.3893
6.33171
6.2677
6.18399
6.0784
5.96597
5.85241
5.74347
5.65339
5.55995
5.45674
5.35506
5.25544
5.15207
5.04432
4.93481
4.82456
4.71387
4.603
4.49213
4.38125
4.27018
4.15921
4.04822
3.93721
3.82621
3.7152
3.60419
3.49318
3.38217
3.27116
3.16015
3.04914
2.93812
2.82711
2.7161
2.60509
2.49408
2.38307
2.27206
2.16104
2.05003
1.93902
1.82802
1.71701
1.60601
1.49502
1.38403
1.27308
1.16215
1.0513
0.940581
0.830082
0.719983
0.61056
0.502378
0.396164
0.293904
0.196376
0.111163
0.0269843
-77.2341
-78.0077
-78.3085
-77.1776
-74.3823
-70.4585
-65.9633
-61.1136
-55.7479
-49.605
-42.7608
-36.0476
-30.3283
-25.883
-23.8235
-24.6361
-27.6548
-30.2403
-29.3492
-23.9554
-15.5729
-7.40014
-1.31579
2.21953
3.82584
4.49119
4.82765
5.07954
5.3251
5.57051
5.80271
6.00388
6.16558
6.28467
6.36373
6.4094
6.43041
6.42966
6.40486
6.35917
6.30113
6.23727
6.1536
6.04805
5.93605
5.82307
5.7149
5.62208
5.53055
5.42783
5.32553
5.22574
5.12281
5.01488
4.90516
4.79476
4.68394
4.57297
4.46204
4.35116
4.24002
4.12901
4.01801
3.907
3.796
3.68499
3.57398
3.46297
3.35195
3.24094
3.12993
3.01892
2.90791
2.79689
2.68588
2.57487
2.46386
2.35285
2.24184
2.13083
2.01982
1.90881
1.7978
1.68679
1.5758
1.46481
1.35383
1.24288
1.13198
1.02117
0.91051
0.800127
0.690234
0.58117
0.473639
0.36852
0.268347
0.17393
0.0954403
0.0181247
-77.2127
-77.8293
-77.961
-76.79
-74.0536
-70.1676
-65.6146
-60.5712
-54.8599
-48.268
-41.04
-34.3417
-29.147
-25.5249
-24.0037
-25.0402
-28.1944
-30.9943
-30.1061
-24.4198
-15.7135
-7.25868
-0.954876
2.65282
4.22642
4.80026
5.02893
5.1889
5.36829
5.57207
5.78307
5.97614
6.13638
6.25643
6.33661
6.38276
6.40326
6.40109
6.37615
6.33079
6.2721
6.20804
6.12444
6.01927
5.90752
5.79517
5.68807
5.59248
5.50222
5.40033
5.2977
5.19755
5.09477
4.98669
4.87675
4.76617
4.65518
4.54412
4.43311
4.32193
4.21108
4.10008
3.98908
3.87807
3.76706
3.65605
3.54504
3.43402
3.32301
3.212
3.10099
2.98998
2.87896
2.76795
2.65694
2.54593
2.43492
2.32391
2.2129
2.10188
1.99087
1.87987
1.76886
1.65786
1.54686
1.43587
1.3249
1.21397
1.10308
0.992304
0.881702
0.771424
0.661715
0.552972
0.446018
0.341857
0.243566
0.151823
0.0797216
0.00861823
-77.194
-77.6942
-77.6991
-76.4913
-73.7932
-69.9365
-65.3323
-60.1266
-54.1309
-47.157
-39.6075
-32.9593
-28.2305
-25.235
-24.1341
-25.2181
-28.422
-31.3181
-30.4176
-24.5705
-15.6854
-7.07261
-0.668822
2.96863
4.51508
5.02292
5.17633
5.27279
5.40661
5.57989
5.76935
5.95386
6.1123
6.23293
6.31351
6.35938
6.37915
6.37684
6.35111
6.30536
6.24534
6.18078
6.09796
5.9937
5.88188
5.77007
5.6643
5.566
5.47627
5.37545
5.2728
5.1723
5.06945
4.96138
4.85133
4.74066
4.62955
4.51841
4.40728
4.29611
4.18519
4.07417
3.96316
3.85214
3.74113
3.63012
3.5191
3.40809
3.29708
3.18607
3.07505
2.96404
2.85303
2.74202
2.63101
2.51999
2.40898
2.29797
2.18696
2.07595
1.96494
1.85393
1.74293
1.63192
1.52093
1.40995
1.29898
1.18805
1.07718
0.966427
0.855867
0.745672
0.636105
0.527612
0.421119
0.31772
0.22101
0.131366
0.0650012
-0.000984066
-77.1824
-77.5955
-77.5093
-76.2689
-73.595
-69.7581
-65.1101
-59.7771
-53.5552
-46.2734
-38.4679
-31.8855
-27.5446
-25.0462
-24.2501
-25.3243
-28.4886
-31.3793
-30.46
-24.5195
-15.5641
-6.89023
-0.45764
3.18671
4.70825
5.17073
5.27467
5.32908
5.43099
5.58168
5.75577
5.93457
6.09178
6.21269
6.29351
6.33894
6.35782
6.35532
6.32885
6.28266
6.22323
6.15667
6.07415
5.97054
5.85867
5.74745
5.64219
5.54302
5.45291
5.35297
5.25032
5.14947
5.04632
4.93821
4.82791
4.7171
4.60582
4.49474
4.38357
4.27245
4.1615
4.05048
3.93947
3.82845
3.71744
3.60643
3.49542
3.3844
3.27339
3.16238
3.05137
2.94036
2.82934
2.71833
2.60732
2.49631
2.3853