/*--------------------------------*- C++ -*----------------------------------*\
| =========                 |                                                 |
| \\      /  F ield         | OpenFOAM: The Open Source CFD Toolbox           |
|  \\    /   O peration     | Version:  v2012                                 |
|   \\  /    A nd           | Website:  www.openfoam.com                      |
|    \\/     M anipulation  |                                                 |
\*---------------------------------------------------------------------------*/
FoamFile
{
    version     2.0;
    format      ascii;
    class       volVectorField;
    location    "0.054";
    object      U.air;
}
// * * * * * * * * * * * * * * * * * * * * * * * * * * * * * * * * * * * * * //

dimensions      [0 1 -1 0 0 0 0];


internalField   nonuniform List<vector> 
5600
(
(18.5967 0.0138263 0)
(18.136 0.0315347 0)
(17.5537 0.0442101 0)
(16.8987 0.0497581 0)
(16.2197 0.0480678 0)
(15.5623 0.0415582 0)
(14.952 0.0327954 0)
(14.4123 0.0234747 0)
(13.9494 0.0152776 0)
(13.5505 0.0086215 0)
(13.2187 0.00291285 0)
(12.9528 -0.0019444 0)
(12.7488 -0.00576564 0)
(12.5974 -0.00844558 0)
(12.4898 -0.0100758 0)
(12.4163 -0.0107594 0)
(12.3694 -0.0107278 0)
(12.3398 -0.0101219 0)
(12.3227 -0.00931981 0)
(12.3119 -0.00858827 0)
(12.3058 -0.0079125 0)
(12.3007 -0.00724844 0)
(12.2973 -0.00673848 0)
(12.2941 -0.00630471 0)
(12.2923 -0.00606745 0)
(12.2914 -0.005953 0)
(12.2916 -0.00589155 0)
(12.2926 -0.00579839 0)
(12.2944 -0.00571692 0)
(12.2967 -0.00566833 0)
(12.2993 -0.00557689 0)
(12.3012 -0.00543109 0)
(12.3028 -0.00526734 0)
(12.3033 -0.00505902 0)
(12.3034 -0.00488715 0)
(12.3024 -0.00469508 0)
(12.3012 -0.00453032 0)
(12.2987 -0.00439522 0)
(12.2968 -0.00425768 0)
(12.2929 -0.00416076 0)
(12.291 -0.00406569 0)
(12.2859 -0.00399506 0)
(12.2845 -0.00391926 0)
(12.2782 -0.00388153 0)
(12.2778 -0.00384628 0)
(12.2711 -0.00383373 0)
(12.2719 -0.0038139 0)
(12.2651 -0.0038338 0)
(12.2668 -0.00379164 0)
(12.2598 -0.00382095 0)
(12.2617 -0.0037377 0)
(12.2547 -0.0037535 0)
(12.2554 -0.00369951 0)
(12.2493 -0.0036758 0)
(12.2467 -0.00369918 0)
(12.244 -0.00357755 0)
(12.2363 -0.00365598 0)
(12.2375 -0.00356158 0)
(12.229 -0.00362883 0)
(12.2309 -0.00358182 0)
(12.2256 -0.00366437 0)
(12.2247 -0.00391665 0)
(12.2267 -0.00374101 0)
(12.2193 -0.00410855 0)
(12.229 -0.00393272 0)
(12.2174 -0.00413173 0)
(12.2298 -0.00404197 0)
(12.2191 -0.00413052 0)
(12.2285 -0.00414424 0)
(12.2239 -0.00400637 0)
(12.2243 -0.00428079 0)
(12.231 -0.00387172 0)
(12.2199 -0.00420758 0)
(12.2342 -0.00399523 0)
(12.2205 -0.00411328 0)
(12.2325 -0.00402606 0)
(12.2251 -0.00390975 0)
(12.2243 -0.00437621 0)
(12.2373 -0.00357435 0)
(12.2121 -0.00436231 0)
(12.2452 -0.00382213 0)
(12.2093 -0.00408653 0)
(12.2423 -0.00400691 0)
(12.2166 -0.00371963 0)
(12.2273 -0.00453338 0)
(12.2374 -0.00320812 0)
(12.2015 -0.0046239 0)
(12.2534 -0.00368459 0)
(12.1948 -0.00390596 0)
(12.2476 -0.00394158 0)
(12.2036 -0.00347384 0)
(12.2255 -0.00451129 0)
(12.2268 -0.00314155 0)
(12.1961 -0.00413855 0)
(12.2331 -0.00424519 0)
(12.2027 -0.00249028 0)
(12.1879 -0.00749423 0)
(12.2776 0.000349274 0)
(12.0657 -0.0140673 0)
(12.4213 0.0112634 0)
(18.7901 0.0365765 0)
(18.8039 0.0482137 0)
(18.796 0.0516284 0)
(18.7577 0.0559449 0)
(18.685 0.0583868 0)
(18.578 0.0587639 0)
(18.4411 0.0574866 0)
(18.2773 0.0549117 0)
(18.0939 0.0509516 0)
(17.8985 0.0468034 0)
(17.6961 0.0421157 0)
(17.491 0.0369491 0)
(17.2871 0.031668 0)
(17.0885 0.0266484 0)
(16.9002 0.0219853 0)
(16.7244 0.0179279 0)
(16.5636 0.0145435 0)
(16.4176 0.0118231 0)
(16.2874 0.00965208 0)
(16.1707 0.00789235 0)
(16.0682 0.00659489 0)
(15.9773 0.00560402 0)
(15.8995 0.00479946 0)
(15.8323 0.00410579 0)
(15.7765 0.00360271 0)
(15.7267 0.00322381 0)
(15.6841 0.00292261 0)
(15.6459 0.00264173 0)
(15.6135 0.00240995 0)
(15.5831 0.00227247 0)
(15.5551 0.00219982 0)
(15.528 0.00216532 0)
(15.5033 0.00210158 0)
(15.4794 0.00206122 0)
(15.4587 0.00201749 0)
(15.4377 0.00199099 0)
(15.4204 0.00194296 0)
(15.4024 0.00190371 0)
(15.3877 0.00189217 0)
(15.3718 0.00182751 0)
(15.3596 0.00179219 0)
(15.3454 0.0017112 0)
(15.3355 0.00167438 0)
(15.3228 0.00159609 0)
(15.3149 0.00153634 0)
(15.3032 0.00146176 0)
(15.297 0.0014128 0)
(15.286 0.00134652 0)
(15.2808 0.00133243 0)
(15.2709 0.00126399 0)
(15.2659 0.00131886 0)
(15.2576 0.00127938 0)
(15.2512 0.00134957 0)
(15.2446 0.00139159 0)
(15.2353 0.00133927 0)
(15.2312 0.00147075 0)
(15.2207 0.00128965 0)
(15.2183 0.00131185 0)
(15.2103 0.00111711 0)
(15.2076 0.00104113 0)
(15.2051 0.0010078 0)
(15.1997 0.000928781 0)
(15.2019 0.00104954 0)
(15.1961 0.000915812 0)
(15.2006 0.000997451 0)
(15.1956 0.000916559 0)
(15.1996 0.000958523 0)
(15.1976 0.000909492 0)
(15.1983 0.000909398 0)
(15.2013 0.00098614 0)
(15.1975 0.000826897 0)
(15.2037 0.00102284 0)
(15.1981 0.000880255 0)
(15.2045 0.000973524 0)
(15.2002 0.00089846 0)
(15.2021 0.000976594 0)
(15.2049 0.00102866 0)
(15.1975 0.0007599 0)
(15.2083 0.00113549 0)
(15.1955 0.000834733 0)
(15.2083 0.00102055 0)
(15.1969 0.000932628 0)
(15.2034 0.000961644 0)
(15.2034 0.00110443 0)
(15.1936 0.00059816 0)
(15.2096 0.00133517 0)
(15.1892 0.000718969 0)
(15.2089 0.00103885 0)
(15.1889 0.00103043 0)
(15.2003 0.000945179 0)
(15.1963 0.00124819 0)
(15.1853 0.000551042 0)
(15.2021 0.00149663 0)
(15.18 0.000929565 0)
(15.1944 0.000842226 0)
(15.1831 0.00230055 0)
(15.1745 -0.000666381 0)
(15.1941 0.0032239 0)
(15.1571 0.000357427 0)
(15.1599 -0.00341717 0)
(18.7905 0.025944 0)
(18.8272 0.0394883 0)
(18.8714 0.0482394 0)
(18.9163 0.0560837 0)
(18.9579 0.0605769 0)
(18.9943 0.0616443 0)
(19.0214 0.0601507 0)
(19.0363 0.0561459 0)
(19.0337 0.0531593 0)
(19.0184 0.0489577 0)
(18.988 0.0443285 0)
(18.9411 0.0395953 0)
(18.8771 0.0351592 0)
(18.7961 0.0311193 0)
(18.6996 0.0275725 0)
(18.5894 0.0242093 0)
(18.4683 0.0213271 0)
(18.3394 0.0188478 0)
(18.2066 0.0167007 0)
(18.0724 0.0148247 0)
(17.9411 0.0130836 0)
(17.8151 0.0113817 0)
(17.698 0.00965553 0)
(17.5898 0.00794146 0)
(17.4928 0.00642057 0)
(17.4052 0.00515139 0)
(17.3274 0.0040632 0)
(17.2571 0.00313154 0)
(17.1945 0.00241289 0)
(17.1366 0.0019836 0)
(17.084 0.0017358 0)
(17.0349 0.00155304 0)
(16.9913 0.00137485 0)
(16.9503 0.0012003 0)
(16.9152 0.00103284 0)
(16.8809 0.000862569 0)
(16.8526 0.000669116 0)
(16.8238 0.000505953 0)
(16.8002 0.000375003 0)
(16.7753 0.00020816 0)
(16.7558 8.26722e-05 0)
(16.7342 -8.45468e-05 0)
(16.7184 -0.000188878 0)
(16.6995 -0.000320604 0)
(16.6867 -0.000390987 0)
(16.6695 -0.000492064 0)
(16.6586 -0.000532516 0)
(16.6427 -0.000616476 0)
(16.6332 -0.000648736 0)
(16.6193 -0.000723271 0)
(16.6104 -0.000716724 0)
(16.5994 -0.000732021 0)
(16.5889 -0.000686367 0)
(16.5807 -0.000586366 0)
(16.5675 -0.000672681 0)
(16.5622 -0.000541336 0)
(16.5493 -0.000750141 0)
(16.5452 -0.000762807 0)
(16.5364 -0.000932461 0)
(16.5311 -0.00111533 0)
(16.5295 -0.00112766 0)
(16.5216 -0.00138869 0)
(16.5245 -0.00142883 0)
(16.5176 -0.00171185 0)
(16.5218 -0.001694 0)
(16.5172 -0.00185155 0)
(16.5199 -0.00185252 0)
(16.5195 -0.00189521 0)
(16.5178 -0.00197571 0)
(16.5231 -0.00189486 0)
(16.5178 -0.00199673 0)
(16.525 -0.00184506 0)
(16.5193 -0.00197768 0)
(16.525 -0.00183538 0)
(16.5223 -0.00187068 0)
(16.5215 -0.00189622 0)
(16.5278 -0.00170171 0)
(16.5177 -0.00197012 0)
(16.5297 -0.00162168 0)
(16.5172 -0.00192678 0)
(16.5281 -0.00169539 0)
(16.5199 -0.00175214 0)
(16.5213 -0.00186864 0)
(16.5279 -0.00142925 0)
(16.5127 -0.00203772 0)
(16.5306 -0.00132469 0)
(16.511 -0.00186301 0)
(16.5271 -0.00151955 0)
(16.5131 -0.0014513 0)
(16.5162 -0.00179203 0)
(16.5229 -0.000990004 0)
(16.5031 -0.00195218 0)
(16.5236 -0.00102644 0)
(16.5012 -0.00120554 0)
(16.515 -0.00176461 0)
(16.5036 7.75555e-05 0)
(16.5019 -0.00360079 0)
(16.5007 0.00235 0)
(16.5065 -0.00296895 0)
(16.4468 0.00327282 0)
(18.7889 0.0234292 0)
(18.8253 0.0378063 0)
(18.8726 0.0450305 0)
(18.9239 0.0512474 0)
(18.9779 0.0546625 0)
(19.0328 0.0553065 0)
(19.0877 0.0541554 0)
(19.1386 0.0522962 0)
(19.1851 0.0495669 0)
(19.2257 0.046915 0)
(19.2619 0.0442625 0)
(19.2909 0.0417143 0)
(19.3145 0.0393186 0)
(19.3296 0.0373316 0)
(19.3389 0.0351916 0)
(19.3377 0.0340362 0)
(19.3293 0.0325965 0)
(19.3119 0.0312884 0)
(19.2844 0.0301236 0)
(19.2462 0.0289514 0)
(19.1967 0.0276032 0)
(19.1358 0.0260134 0)
(19.0642 0.0241885 0)
(18.9825 0.022216 0)
(18.8934 0.0202363 0)
(18.7996 0.0183793 0)
(18.7041 0.0165974 0)
(18.6087 0.0148599 0)
(18.5164 0.0132664 0)
(18.4289 0.0119167 0)
(18.3486 0.0107599 0)
(18.2737 0.0096515 0)
(18.2076 0.00865057 0)
(18.1456 0.0076988 0)
(18.0925 0.00696138 0)
(18.0404 0.00633781 0)
(17.9959 0.00581809 0)
(17.9506 0.00539179 0)
(17.9126 0.00503493 0)
(17.8728 0.00466561 0)
(17.8405 0.00435314 0)
(17.8056 0.00401017 0)
(17.7789 0.00372563 0)
(17.7487 0.00342143 0)
(17.7271 0.00316335 0)
(17.7011 0.00292275 0)
(17.6834 0.0027477 0)
(17.6605 0.00254766 0)
(17.6452 0.00236648 0)
(17.6257 0.00221409 0)
(17.6115 0.00206982 0)
(17.596 0.00206523 0)
(17.5805 0.00198956 0)
(17.5691 0.00214277 0)
(17.5515 0.00195033 0)
(17.5436 0.00198187 0)
(17.5278 0.00170904 0)
(17.5213 0.0014864 0)
(17.5112 0.00130649 0)
(17.5029 0.000769046 0)
(17.5014 0.000751803 0)
(17.4916 0.000162256 0)
(17.4945 3.01708e-05 0)
(17.4867 -0.000304564 0)
(17.4906 -0.000417435 0)
(17.486 -0.000538432 0)
(17.488 -0.000704738 0)
(17.4883 -0.000625069 0)
(17.4855 -0.000869142 0)
(17.4914 -0.000766872 0)
(17.4858 -0.000844466 0)
(17.4933 -0.000721233 0)
(17.4877 -0.000768079 0)
(17.4929 -0.000729875 0)
(17.4913 -0.000557628 0)
(17.4888 -0.000835801 0)
(17.4969 -0.000414737 0)
(17.4857 -0.000721195 0)
(17.4982 -0.000431251 0)
(17.4857 -0.0005715 0)
(17.496 -0.000570115 0)
(17.4893 -0.000262616 0)
(17.4885 -0.000871461 0)
(17.4973 4.2751e-05 0)
(17.4811 -0.000724051 0)
(17.4984 -0.000140016 0)
(17.4803 -0.00035687 0)
(17.4943 -0.000382361 0)
(17.484 0.000247321 0)
(17.4831 -0.000833973 0)
(17.4935 0.000775656 0)
(17.4734 -0.000419247 0)
(17.4917 0.000137053 0)
(17.4728 0.000564161 0)
(17.4834 -0.000462939 0)
(17.4755 0.00160247 0)
(17.4738 -0.00178019 0)
(17.47 0.00199364 0)
(17.478 0.00250727 0)
(17.4463 0.00066452 0)
(18.7873 0.0198245 0)
(18.8223 0.0333747 0)
(18.8694 0.0389876 0)
(18.9211 0.0442864 0)
(18.9759 0.0475962 0)
(19.0325 0.0484675 0)
(19.0899 0.0478045 0)
(19.1447 0.0461198 0)
(19.1973 0.0439689 0)
(19.246 0.0416794 0)
(19.2925 0.0392273 0)
(19.3348 0.0367089 0)
(19.3746 0.0343426 0)
(19.4102 0.0322472 0)
(19.4442 0.030585 0)
(19.4745 0.029065 0)
(19.5036 0.0278382 0)
(19.529 0.027057 0)
(19.5533 0.0266401 0)
(19.5737 0.0264584 0)
(19.5927 0.0263201 0)
(19.6065 0.026153 0)
(19.6178 0.0258904 0)
(19.6214 0.0255098 0)
(19.6192 0.025154 0)
(19.6102 0.0245594 0)
(19.5936 0.023842 0)
(19.5686 0.0230007 0)
(19.535 0.0221042 0)
(19.4934 0.021162 0)
(19.4448 0.0201581 0)
(19.39 0.0189527 0)
(19.3311 0.0176891 0)
(19.2691 0.0162656 0)
(19.2065 0.0149991 0)
(19.1422 0.0137209 0)
(19.0827 0.0126132 0)
(19.0211 0.0115567 0)
(18.9672 0.0106781 0)
(18.9104 0.00972333 0)
(18.8631 0.00894052 0)
(18.8117 0.00803458 0)
(18.7715 0.00730093 0)
(18.7265 0.00654509 0)
(18.6929 0.00590685 0)
(18.6551 0.00539659 0)
(18.6262 0.00505207 0)
(18.5928 0.00468952 0)
(18.5669 0.00431437 0)
(18.5382 0.00404958 0)
(18.5136 0.00368506 0)
(18.4903 0.00370144 0)
(18.4645 0.0034468 0)
(18.447 0.00360734 0)
(18.4219 0.00326661 0)
(18.4084 0.00310913 0)
(18.3883 0.00267901 0)
(18.3766 0.00209416 0)
(18.3654 0.00183917 0)
(18.3516 0.00075973 0)
(18.3502 0.000647417 0)
(18.3385 7.07824e-05 0)
(18.3406 -0.000193025 0)
(18.3327 -0.000493373 0)
(18.3348 -0.000746691 0)
(18.3317 -0.000826867 0)
(18.3312 -0.001115 0)
(18.3334 -0.000961423 0)
(18.329 -0.00125677 0)
(18.3351 -0.00124212 0)
(18.3297 -0.001225 0)
(18.3362 -0.00123602 0)
(18.3322 -0.00112752 0)
(18.335 -0.00124252 0)
(18.3363 -0.000843476 0)
(18.3313 -0.00132153 0)
(18.3402 -0.000893471 0)
(18.3301 -0.000965319 0)
(18.3402 -0.000945329 0)
(18.3315 -0.000842059 0)
(18.3367 -0.00108367 0)
(18.3358 -0.000470903 0)
(18.3298 -0.00136976 0)
(18.3402 -0.000436459 0)
(18.3267 -0.000840194 0)
(18.3389 -0.000755672 0)
(18.3281 -0.000573942 0)
(18.3339 -0.000952056 0)
(18.3336 -4.08982e-05 0)
(18.3256 -0.00132441 0)
(18.3371 9.15777e-05 0)
(18.3241 -0.000551677 0)
(18.3338 -0.000503191 0)
(18.3269 0.00018254 0)
(18.3283 -0.000915447 0)
(18.3297 0.00114409 0)
(18.3288 -0.00125682 0)
(18.32 0.00121081 0)
(18.3369 0.00206722 0)
(18.3161 0.00281249 0)
(18.7859 0.0160541 0)
(18.8195 0.0283795 0)
(18.8662 0.0329897 0)
(18.9178 0.0376075 0)
(18.9723 0.0406231 0)
(19.0288 0.0413718 0)
(19.0861 0.0407377 0)
(19.1414 0.0392012 0)
(19.1946 0.0373886 0)
(19.2444 0.0354337 0)
(19.2914 0.0333483 0)
(19.3356 0.0311965 0)
(19.3773 0.0292443 0)
(19.4159 0.0275995 0)
(19.453 0.0261999 0)
(19.4881 0.0251224 0)
(19.5222 0.0243138 0)
(19.5542 0.0237893 0)
(19.5861 0.0235123 0)
(19.6171 0.0233776 0)
(19.6483 0.0232808 0)
(19.6782 0.0231257 0)
(19.7083 0.0229444 0)
(19.7364 0.0227819 0)
(19.7645 0.0224593 0)
(19.7899 0.0221512 0)
(19.8153 0.0219149 0)
(19.8374 0.0217555 0)
(19.8587 0.0216665 0)
(19.8757 0.0215953 0)
(19.891 0.0215111 0)
(19.9013 0.0213183 0)
(19.9088 0.0209574 0)
(19.9097 0.0206072 0)
(19.9058 0.0201801 0)
(19.8976 0.0196056 0)
(19.8837 0.0190241 0)
(19.8654 0.018385 0)
(19.842 0.0177408 0)
(19.8149 0.0169872 0)
(19.7833 0.0162278 0)
(19.7486 0.0153413 0)
(19.7113 0.014377 0)
(19.6718 0.0134281 0)
(19.6323 0.0123606 0)
(19.5913 0.0113503 0)
(19.5533 0.0105271 0)
(19.5149 0.00983771 0)
(19.4777 0.00903915 0)
(19.4431 0.00858359 0)
(19.4055 0.00780325 0)
(19.3753 0.00765022 0)
(19.3382 0.0069664 0)
(19.3126 0.00682748 0)
(19.2795 0.00615593 0)
(19.2575 0.00553573 0)
(19.2339 0.00495524 0)
(19.2128 0.00381908 0)
(19.2015 0.00357804 0)
(19.1824 0.00215183 0)
(19.1784 0.00182031 0)
(19.1664 0.00101797 0)
(19.1651 0.000449856 0)
(19.1602 4.72506e-05 0)
(19.1568 -0.000551106 0)
(19.158 -0.000530679 0)
(19.1533 -0.00100314 0)
(19.1569 -0.000857441 0)
(19.1525 -0.00118912 0)
(19.1569 -0.00132725 0)
(19.1542 -0.0011816 0)
(19.1567 -0.00131488 0)
(19.157 -0.00102491 0)
(19.1546 -0.00130991 0)
(19.1596 -0.00073672 0)
(19.1544 -0.001255 0)
(19.1601 -0.000877678 0)
(19.1559 -0.000813619 0)
(19.1579 -0.00104069 0)
(19.1601 -0.000536928 0)
(19.1535 -0.00104478 0)
(19.1612 -0.00014785 0)
(19.1527 -0.00114926 0)
(19.1598 -0.000269886 0)
(19.1555 -0.000469198 0)
(19.155 -0.000795444 0)
(19.16 -7.02995e-05 0)
(19.1501 -0.000929704 0)
(19.1623 0.00043557 0)
(19.152 -0.000895211 0)
(19.1594 0.000113507 0)
(19.1614 5.5562e-05 0)
(19.1523 -0.000620261 0)
(19.168 0.000535086 0)
(19.1574 -0.000534845 0)
(19.1678 0.000658094 0)
(19.1723 -0.000412849 0)
(19.1559 0.000691017 0)
(19.1848 0.00256023 0)
(19.1637 0.00417779 0)
(18.7853 0.0125967 0)
(18.8171 0.0228171 0)
(18.8633 0.0264551 0)
(18.9148 0.0301939 0)
(18.969 0.0327012 0)
(19.0253 0.0332853 0)
(19.0823 0.0327433 0)
(19.1379 0.0315132 0)
(19.1905 0.0300753 0)
(19.2402 0.0284933 0)
(19.2879 0.0267809 0)
(19.3325 0.0250653 0)
(19.3739 0.0235204 0)
(19.413 0.0221741 0)
(19.4504 0.0209931 0)
(19.486 0.0201256 0)
(19.5205 0.0194544 0)
(19.5537 0.0189828 0)
(19.5866 0.018691 0)
(19.6189 0.0185313 0)
(19.6514 0.018437 0)
(19.6833 0.0183074 0)
(19.7153 0.0181709 0)
(19.7467 0.0180216 0)
(19.7782 0.0178233 0)
(19.8088 0.0176347 0)
(19.8393 0.0174943 0)
(19.8693 0.0174042 0)
(19.899 0.0173671 0)
(19.9286 0.0173457 0)
(19.9574 0.0173501 0)
(19.9864 0.0172767 0)
(20.0139 0.0172236 0)
(20.042 0.017118 0)
(20.0673 0.0170294 0)
(20.0937 0.0168788 0)
(20.1157 0.0167932 0)
(20.1401 0.0167278 0)
(20.1578 0.0166897 0)
(20.1799 0.0166289 0)
(20.1917 0.0165697 0)
(20.2103 0.0163964 0)
(20.2151 0.0162166 0)
(20.2272 0.0158106 0)
(20.2258 0.0154862 0)
(20.229 0.0151281 0)
(20.221 0.014495 0)
(20.2199 0.0142322 0)
(20.2075 0.0136798 0)
(20.1994 0.013457 0)
(20.1834 0.0130074 0)
(20.1664 0.0129726 0)
(20.1466 0.0125604 0)
(20.1211 0.012108 0)
(20.1013 0.0115287 0)
(20.0709 0.0100599 0)
(20.055 0.00921691 0)
(20.0295 0.00715156 0)
(20.017 0.00613165 0)
(20.0033 0.00464431 0)
(19.9885 0.00291154 0)
(19.9877 0.00228486 0)
(19.9749 0.000847884 0)
(19.979 0.000619059 0)
(19.9689 -0.000191793 0)
(19.9738 -0.000481982 0)
(19.9687 -0.00081282 0)
(19.9705 -0.000938427 0)
(19.9717 -0.00107006 0)
(19.9672 -0.00139285 0)
(19.9738 -0.001216 0)
(19.9671 -0.00136437 0)
(19.9751 -0.00111541 0)
(19.969 -0.00125919 0)
(19.9739 -0.00102617 0)
(19.9748 -0.00106955 0)
(19.9676 -0.00111781 0)
(19.9804 -0.000633559 0)
(19.9645 -0.00108801 0)
(19.9819 -0.000656826 0)
(19.9659 -0.000863218 0)
(19.9797 -0.000622223 0)
(19.9754 -0.000908364 0)
(19.97 -0.000847195 0)
(19.9875 -0.000242836 0)
(19.9647 -0.00099814 0)
(19.9898 -0.000297832 0)
(19.9663 -0.00081226 0)
(19.9885 -0.000464191 0)
(19.9807 -0.0007847 0)
(19.9771 -0.000934634 0)
(19.9987 1.09447e-05 0)
(19.9742 -0.000897703 0)
(20.0033 -0.000528689 0)
(19.9852 -0.00083636 0)
(19.9999 -0.000537054 0)
(20.0026 -6.33409e-06 0)
(19.991 7.07169e-06 0)
(20.0087 0.00191992 0)
(19.9967 0.00472326 0)
(18.7848 0.00893852 0)
(18.8152 0.016621 0)
(18.8609 0.0192842 0)
(18.9123 0.0220479 0)
(18.9661 0.0239491 0)
(19.0222 0.0243732 0)
(19.0791 0.0239572 0)
(19.1345 0.0230803 0)
(19.1873 0.0220528 0)
(19.2373 0.0208828 0)
(19.2847 0.01961 0)
(19.3291 0.0183656 0)
(19.3709 0.0172287 0)
(19.4103 0.0161934 0)
(19.4477 0.0152821 0)
(19.4831 0.0146356 0)
(19.5173 0.0141297 0)
(19.5508 0.0137652 0)
(19.5837 0.0135518 0)
(19.6163 0.0134535 0)
(19.6488 0.0134155 0)
(19.681 0.0133521 0)
(19.7132 0.0132738 0)
(19.745 0.0131783 0)
(19.7767 0.0130515 0)
(19.8079 0.0129214 0)
(19.8389 0.0128127 0)
(19.8696 0.0127477 0)
(19.9002 0.0127089 0)
(19.9308 0.0127014 0)
(19.9613 0.0127004 0)
(19.9919 0.012667 0)
(20.0222 0.0126032 0)
(20.0524 0.0125546 0)
(20.0822 0.0124752 0)
(20.1121 0.0123648 0)
(20.1413 0.0122853 0)
(20.1707 0.01225 0)
(20.1991 0.0122212 0)
(20.2284 0.012209 0)
(20.2561 0.0122028 0)
(20.2853 0.0121669 0)
(20.3117 0.0121632 0)
(20.3406 0.0120604 0)
(20.3648 0.0120233 0)
(20.3929 0.0119156 0)
(20.4145 0.0117534 0)
(20.4407 0.0116128 0)
(20.4601 0.0115441 0)
(20.4831 0.011628 0)
(20.5023 0.0117631 0)
(20.5201 0.0121083 0)
(20.542 0.0124145 0)
(20.5516 0.0125869 0)
(20.5713 0.0122537 0)
(20.5752 0.0116855 0)
(20.5878 0.0102574 0)
(20.5905 0.00905795 0)
(20.5935 0.00747356 0)
(20.5999 0.00555211 0)
(20.5965 0.00440179 0)
(20.6041 0.00265527 0)
(20.5983 0.00175815 0)
(20.6059 0.000797897 0)
(20.6009 0.000172047 0)
(20.6054 -0.000361896 0)
(20.604 -0.00067373 0)
(20.6027 -0.00102059 0)
(20.6082 -0.00110127 0)
(20.6011 -0.00145202 0)
(20.6101 -0.00138229 0)
(20.6016 -0.0014719 0)
(20.6102 -0.00123566 0)
(20.6049 -0.00123881 0)
(20.6065 -0.00129128 0)
(20.6116 -0.000906365 0)
(20.6012 -0.00125194 0)
(20.6157 -0.00089172 0)
(20.601 -0.00111001 0)
(20.6166 -0.000744231 0)
(20.605 -0.000798506 0)
(20.6126 -0.000933987 0)
(20.6127 -0.000491598 0)
(20.6041 -0.00127859 0)
(20.6209 -0.000491446 0)
(20.6026 -0.000852166 0)
(20.6239 -0.000492773 0)
(20.6077 -0.00071058 0)
(20.6188 -0.00089519 0)
(20.6153 -0.000225614 0)
(20.6106 -0.00136581 0)
(20.6225 -0.000256226 0)
(20.6105 -0.000731405 0)
(20.6207 -0.000817683 0)
(20.6128 -0.000550225 0)
(20.6152 -0.00102711 0)
(20.617 0.000168589 0)
(20.6137 0.000250814 0)
(20.6144 0.00161072 0)
(20.6144 0.00493756 0)
(18.7845 0.00517894 0)
(18.8138 0.00980286 0)
(18.8592 0.0114068 0)
(18.9105 0.0131135 0)
(18.9643 0.0143021 0)
(19.0203 0.014557 0)
(19.0767 0.0142943 0)
(19.1321 0.0137451 0)
(19.1849 0.0131114 0)
(19.2349 0.012407 0)
(19.2822 0.0116435 0)
(19.3267 0.0108755 0)
(19.3686 0.010145 0)
(19.4081 0.00949411 0)
(19.4453 0.00895624 0)
(19.4807 0.00858155 0)
(19.5151 0.00824885 0)
(19.5486 0.00800429 0)
(19.5815 0.00788202 0)
(19.6141 0.00782934 0)
(19.6464 0.00779986 0)
(19.6788 0.00773951 0)
(19.711 0.00767344 0)
(19.743 0.00761899 0)
(19.7744 0.00754871 0)
(19.8056 0.00744886 0)
(19.8366 0.00735473 0)
(19.8674 0.00730729 0)
(19.8981 0.00728277 0)
(19.9288 0.00728468 0)
(19.9595 0.0072844 0)
(19.9902 0.007264 0)
(20.0208 0.00721776 0)
(20.0511 0.00721708 0)
(20.0813 0.00716762 0)
(20.1114 0.0071009 0)
(20.1413 0.00705253 0)
(20.171 0.00708447 0)
(20.2005 0.00707245 0)
(20.2301 0.00709395 0)
(20.2597 0.00707073 0)
(20.2893 0.00709164 0)
(20.3186 0.00708211 0)
(20.3481 0.00701478 0)
(20.3769 0.00698992 0)
(20.4059 0.00695053 0)
(20.4341 0.00681576 0)
(20.4621 0.00672687 0)
(20.4898 0.00676137 0)
(20.5175 0.00676379 0)
(20.5455 0.00696504 0)
(20.5735 0.00704523 0)
(20.6029 0.00741537 0)
(20.6313 0.0075953 0)
(20.662 0.00767345 0)
(20.6883 0.00731244 0)
(20.7157 0.00666057 0)
(20.7377 0.00582596 0)
(20.7571 0.00462356 0)
(20.7745 0.00377929 0)
(20.7848 0.00245177 0)
(20.7966 0.00154748 0)
(20.8011 0.000744688 0)
(20.8072 0.000125572 0)
(20.8087 -0.000203439 0)
(20.8107 -0.000768817 0)
(20.811 -0.000716527 0)
(20.8106 -0.00123462 0)
(20.8111 -0.00109351 0)
(20.8089 -0.00143352 0)
(20.8097 -0.001372 0)
(20.8074 -0.00137697 0)
(20.8079 -0.0013815 0)
(20.8066 -0.00112599 0)
(20.806 -0.00148918 0)
(20.8065 -0.000777164 0)
(20.8049 -0.00122348 0)
(20.8063 -0.000878616 0)
(20.8048 -0.00104121 0)
(20.8058 -0.001006 0)
(20.8051 -0.000770538 0)
(20.805 -0.00133452 0)
(20.8056 -0.000310274 0)
(20.8045 -0.00135671 0)
(20.806 -0.000504534 0)
(20.8046 -0.000885964 0)
(20.8063 -0.00092131 0)
(20.8054 -0.000680681 0)
(20.8056 -0.00132622 0)
(20.8057 -6.82993e-05 0)
(20.8054 -0.00143 0)
(20.8055 -0.000450967 0)
(20.8055 -0.000663378 0)
(20.8051 -0.000968646 0)
(20.8056 -0.000318481 0)
(20.8045 -0.00102445 0)
(20.8048 0.000148091 0)
(20.8051 0.000458964 0)
(20.8048 0.00220829 0)
(20.8069 0.00463124 0)
(18.7843 0.00122955 0)
(18.8131 0.00226254 0)
(18.8583 0.00270019 0)
(18.9096 0.00326206 0)
(18.9633 0.00362163 0)
(19.0192 0.00368693 0)
(19.0757 0.00361317 0)
(19.1309 0.00342064 0)
(19.1836 0.00322854 0)
(19.2336 0.00304566 0)
(19.281 0.00282884 0)
(19.3255 0.00257814 0)
(19.3674 0.00232599 0)
(19.4067 0.002123 0)
(19.444 0.00197082 0)
(19.4797 0.00187143 0)
(19.5141 0.00172662 0)
(19.5476 0.00160766 0)
(19.5805 0.00157261 0)
(19.6131 0.00157286 0)
(19.6455 0.00157225 0)
(19.6777 0.00153993 0)
(19.7098 0.00151306 0)
(19.7417 0.00151916 0)
(19.7733 0.00152803 0)
(19.8046 0.00149296 0)
(19.8356 0.001449 0)
(19.8663 0.00143655 0)
(19.8971 0.00142572 0)
(19.9278 0.00142561 0)
(19.9585 0.00143413 0)
(19.9891 0.0014435 0)
(20.0196 0.00142523 0)
(20.0499 0.00144327 0)
(20.0802 0.00141863 0)
(20.1102 0.00137987 0)
(20.1401 0.00136317 0)
(20.1698 0.00140078 0)
(20.1996 0.00139318 0)
(20.2292 0.00139779 0)
(20.2589 0.00137385 0)
(20.2886 0.00140702 0)
(20.3181 0.00140113 0)
(20.3476 0.001382 0)
(20.3767 0.00138357 0)
(20.4056 0.00141587 0)
(20.4343 0.00136466 0)
(20.4626 0.00134218 0)
(20.4909 0.00136568 0)
(20.5192 0.00134194 0)
(20.5477 0.00148209 0)
(20.5766 0.00145693 0)
(20.6063 0.00172732 0)
(20.6368 0.00177269 0)
(20.6676 0.00186041 0)
(20.6978 0.00179394 0)
(20.7258 0.00148842 0)
(20.7511 0.00133594 0)
(20.7729 0.000835002 0)
(20.7907 0.00062764 0)
(20.8049 0.000131033 0)
(20.8153 -9.95785e-05 0)
(20.8226 -0.000353874 0)
(20.8273 -0.000506675 0)
(20.8301 -0.000568372 0)
(20.8314 -0.000814358 0)
(20.8317 -0.000697134 0)
(20.8314 -0.00103337 0)
(20.8304 -0.000886968 0)
(20.829 -0.00111909 0)
(20.8272 -0.00111363 0)
(20.8256 -0.00110823 0)
(20.824 -0.00116465 0)
(20.8229 -0.000923654 0)
(20.8218 -0.00127418 0)
(20.821 -0.000763715 0)
(20.8205 -0.00112962 0)
(20.8199 -0.000888257 0)
(20.8196 -0.00100264 0)
(20.8192 -0.00102243 0)
(20.8192 -0.000679817 0)
(20.819 -0.00113735 0)
(20.8191 -0.000483858 0)
(20.819 -0.00125335 0)
(20.8189 -0.000665469 0)
(20.819 -0.000919824 0)
(20.8189 -0.000929131 0)
(20.8191 -0.000544534 0)
(20.819 -0.00108341 0)
(20.8192 -0.000343464 0)
(20.8193 -0.00123909 0)
(20.8191 -0.000567354 0)
(20.8194 -0.000604686 0)
(20.8195 -0.000898153 0)
(20.8197 -0.000384645 0)
(20.8196 -0.000850243 0)
(20.8196 -1.63265e-05 0)
(20.8197 0.000527375 0)
(20.8206 0.00197573 0)
(20.8226 0.00349154 0)
(18.7843 -0.00286529 0)
(18.8133 -0.00566694 0)
(18.8585 -0.00644585 0)
(18.9098 -0.00706811 0)
(18.9636 -0.00758015 0)
(19.0194 -0.00773105 0)
(19.076 -0.00762061 0)
(19.1314 -0.0074268 0)
(19.1841 -0.00713925 0)
(19.234 -0.00679301 0)
(19.2814 -0.00645074 0)
(19.326 -0.00613224 0)
(19.3677 -0.00584737 0)
(19.4069 -0.00560349 0)
(19.4443 -0.00542104 0)
(19.4801 -0.00524536 0)
(19.5146 -0.00514226 0)
(19.5479 -0.00508519 0)
(19.5806 -0.0050364 0)
(19.6132 -0.00500436 0)
(19.6457 -0.00497323 0)
(19.678 -0.00495746 0)
(19.7101 -0.00493244 0)
(19.742 -0.00488557 0)
(19.7736 -0.00482414 0)
(19.8049 -0.00480193 0)
(19.8358 -0.00479812 0)
(19.8667 -0.00478833 0)
(19.8974 -0.00479718 0)
(19.9281 -0.00480339 0)
(19.9588 -0.00479064 0)
(19.9894 -0.00475656 0)
(20.02 -0.00475494 0)
(20.0504 -0.00470942 0)
(20.0806 -0.00469079 0)
(20.1107 -0.00468521 0)
(20.1405 -0.00466859 0)
(20.1702 -0.00463323 0)
(20.2 -0.00462195 0)
(20.2296 -0.00461074 0)
(20.2593 -0.00461618 0)
(20.289 -0.004579 0)
(20.3185 -0.00455491 0)
(20.348 -0.00451628 0)
(20.3771 -0.00445888 0)
(20.406 -0.00439672 0)
(20.4346 -0.00439908 0)
(20.463 -0.00440264 0)
(20.4913 -0.00437474 0)
(20.5195 -0.00439833 0)
(20.548 -0.00435812 0)
(20.5769 -0.0044874 0)
(20.6065 -0.00443644 0)
(20.637 -0.00449332 0)
(20.6678 -0.00437966 0)
(20.698 -0.00414555 0)
(20.7259 -0.00394021 0)
(20.7513 -0.00346366 0)
(20.7729 -0.00317254 0)
(20.7908 -0.00266907 0)
(20.8048 -0.00233013 0)
(20.8152 -0.00196375 0)
(20.8225 -0.00159757 0)
(20.8272 -0.00132442 0)
(20.83 -0.00101323 0)
(20.8312 -0.00099616 0)
(20.8316 -0.000779 0)
(20.8313 -0.000852184 0)
(20.8304 -0.0006557 0)
(20.8289 -0.000742031 0)
(20.8271 -0.00074719 0)
(20.8254 -0.000722794 0)
(20.8238 -0.000830011 0)
(20.8228 -0.000693092 0)
(20.8215 -0.000982252 0)
(20.8209 -0.000665758 0)
(20.8201 -0.00092765 0)
(20.8198 -0.000848183 0)
(20.8194 -0.000889953 0)
(20.8191 -0.000940968 0)
(20.819 -0.000690098 0)
(20.8188 -0.00104256 0)
(20.8188 -0.000603707 0)
(20.8187 -0.00113007 0)
(20.8187 -0.000755136 0)
(20.8187 -0.000845053 0)
(20.8187 -0.000925024 0)
(20.8188 -0.00063487 0)
(20.8187 -0.00105376 0)
(20.8189 -0.000517202 0)
(20.819 -0.00112183 0)
(20.819 -0.000683889 0)
(20.819 -0.000621858 0)
(20.8193 -0.000916163 0)
(20.8193 -0.000503654 0)
(20.8194 -0.000807175 0)
(20.8194 -7.41511e-05 0)
(20.8196 0.000431255 0)
(20.8206 0.00178545 0)
(20.8225 0.00251727 0)
(18.7846 -0.0068791 0)
(18.8143 -0.0132346 0)
(18.86 -0.0151538 0)
(18.9113 -0.0169255 0)
(18.9652 -0.0182559 0)
(19.0211 -0.0186075 0)
(19.0778 -0.0183365 0)
(19.1333 -0.0177682 0)
(19.1857 -0.0170061 0)
(19.2357 -0.0161568 0)
(19.2831 -0.0152781 0)
(19.3276 -0.0144172 0)
(19.3694 -0.0136311 0)
(19.4087 -0.0129612 0)
(19.446 -0.0124445 0)
(19.4817 -0.0119893 0)
(19.5161 -0.0116624 0)
(19.5496 -0.011455 0)
(19.5825 -0.0113284 0)
(19.615 -0.0112635 0)
(19.6475 -0.0112072 0)
(19.6798 -0.0111647 0)
(19.7119 -0.0111039 0)
(19.7438 -0.0110111 0)
(19.7754 -0.0108753 0)
(19.8066 -0.0107875 0)
(19.8376 -0.0107404 0)
(19.8685 -0.0107069 0)
(19.8992 -0.010695 0)
(19.9299 -0.010682 0)
(19.9605 -0.0106646 0)
(19.9912 -0.0106277 0)
(20.0217 -0.0106244 0)
(20.0522 -0.0105409 0)
(20.0824 -0.0104778 0)
(20.1124 -0.0104369 0)
(20.1421 -0.010394 0)
(20.1718 -0.0103627 0)
(20.2015 -0.0103469 0)
(20.2312 -0.0103415 0)
(20.2608 -0.0103387 0)
(20.2903 -0.0102875 0)
(20.3195 -0.0102485 0)
(20.3488 -0.010178 0)
(20.3778 -0.0100448 0)
(20.4064 -0.00990842 0)
(20.4345 -0.00984943 0)
(20.4624 -0.00982821 0)
(20.4901 -0.00979835 0)
(20.5177 -0.00982106 0)
(20.5454 -0.00983268 0)
(20.5734 -0.0100192 0)
(20.6018 -0.0101457 0)
(20.631 -0.010325 0)
(20.6597 -0.0101859 0)
(20.6872 -0.00972097 0)
(20.7124 -0.00903562 0)
(20.7348 -0.00794129 0)
(20.7537 -0.00696318 0)
(20.7693 -0.00569038 0)
(20.7813 -0.00467655 0)
(20.7906 -0.00361449 0)
(20.7967 -0.00275711 0)
(20.8013 -0.00199716 0)
(20.8037 -0.00139256 0)
(20.8052 -0.00116077 0)
(20.8059 -0.00079865 0)
(20.8057 -0.000761368 0)
(20.8057 -0.000449343 0)
(20.8039 -0.000444371 0)
(20.804 -0.000435699 0)
(20.8022 -0.000477444 0)
(20.8021 -0.000602617 0)
(20.8012 -0.000554961 0)
(20.8003 -0.000821253 0)
(20.8006 -0.000599674 0)
(20.7994 -0.000812757 0)
(20.8 -0.000776872 0)
(20.7989 -0.000830427 0)
(20.7995 -0.000876341 0)
(20.799 -0.000742833 0)
(20.7991 -0.00097345 0)
(20.7993 -0.000664801 0)
(20.7987 -0.00105598 0)
(20.7993 -0.000804769 0)
(20.7985 -0.000796528 0)
(20.7995 -0.000882015 0)
(20.7985 -0.000697966 0)
(20.7996 -0.000974563 0)
(20.7988 -0.000638805 0)
(20.7995 -0.00103869 0)
(20.7991 -0.000694283 0)
(20.799 -0.000678354 0)
(20.7999 -0.000849739 0)
(20.7988 -0.000586964 0)
(20.8004 -0.000727131 0)
(20.7988 -7.02397e-05 0)
(20.8011 0.000439848 0)
(20.8007 0.00151574 0)
(20.803 0.00175847 0)
(18.785 -0.0107534 0)
(18.8161 -0.020113 0)
(18.8622 -0.0230398 0)
(18.9136 -0.0258783 0)
(18.9676 -0.0279174 0)
(19.0238 -0.0284362 0)
(19.0806 -0.028009 0)
(19.136 -0.0270895 0)
(19.1887 -0.0259088 0)
(19.2389 -0.024626 0)
(19.2863 -0.0232593 0)
(19.3306 -0.0219115 0)
(19.3723 -0.0206895 0)
(19.4116 -0.0196303 0)
(19.4487 -0.0188 0)
(19.4845 -0.0180698 0)
(19.5188 -0.0175329 0)
(19.5521 -0.0171951 0)
(19.585 -0.0169913 0)
(19.6176 -0.0168814 0)
(19.6501 -0.0167955 0)
(19.6825 -0.0167268 0)
(19.7146 -0.0166304 0)
(19.7465 -0.0165048 0)
(19.7781 -0.016323 0)
(19.8094 -0.0161985 0)
(19.8403 -0.0161177 0)
(19.871 -0.0160611 0)
(19.9016 -0.0160344 0)
(19.9322 -0.0160106 0)
(19.9626 -0.0159896 0)
(19.9931 -0.015944 0)
(20.0234 -0.0159232 0)
(20.0535 -0.015795 0)
(20.0835 -0.015686 0)
(20.1129 -0.0156038 0)
(20.1421 -0.0155224 0)
(20.171 -0.0154782 0)
(20.1999 -0.0154528 0)
(20.2284 -0.0154264 0)
(20.2566 -0.0153951 0)
(20.2843 -0.0153172 0)
(20.3114 -0.0152733 0)
(20.338 -0.0152354 0)
(20.3634 -0.0150513 0)
(20.3881 -0.0148279 0)
(20.4112 -0.0147032 0)
(20.4335 -0.0146194 0)
(20.4536 -0.0145726 0)
(20.4735 -0.0145985 0)
(20.4908 -0.0146786 0)
(20.5087 -0.0148937 0)
(20.5226 -0.0150279 0)
(20.5364 -0.0150249 0)
(20.5452 -0.0146498 0)
(20.553 -0.0136917 0)
(20.5575 -0.012577 0)