/*--------------------------------*- C++ -*----------------------------------*\
| =========                 |                                                 |
| \\      /  F ield         | OpenFOAM: The Open Source CFD Toolbox           |
|  \\    /   O peration     | Version:  v2012                                 |
|   \\  /    A nd           | Website:  www.openfoam.com                      |
|    \\/     M anipulation  |                                                 |
\*---------------------------------------------------------------------------*/
FoamFile
{
    version     2.0;
    format      ascii;
    class       volScalarField;
    location    "0.371";
    object      p;
}
// * * * * * * * * * * * * * * * * * * * * * * * * * * * * * * * * * * * * * //

dimensions      [0 2 -2 0 0 0 0];


internalField   nonuniform List<scalar> 
5600
(
-0.678199
-1.13635
-1.5168
-1.83531
-2.14617
-2.45641
-2.75776
-3.03951
-3.30257
-3.55273
-3.78931
-4.01398
-4.22841
-4.43471
-4.63492
-4.83075
-5.02302
-5.21276
-5.39993
-5.58487
-5.76766
-5.94797
-6.12573
-6.30203
-6.47685
-6.65038
-6.82264
-6.99389
-7.16466
-7.33489
-7.50464
-7.67358
-7.84177
-8.00952
-8.17681
-8.34339
-8.50946
-8.67485
-8.83972
-9.00389
-9.16751
-9.33056
-9.49297
-9.65468
-9.81592
-9.97661
-10.1369
-10.2965
-10.4558
-10.6145
-10.7728
-10.9306
-11.088
-11.2449
-11.4014
-11.5574
-11.7132
-11.8683
-12.0231
-12.1774
-12.3313
-12.4849
-12.6381
-12.7909
-12.9434
-13.0955
-13.2472
-13.3985
-13.5496
-13.7003
-13.8507
-14.0009
-14.1507
-14.3003
-14.4495
-14.5985
-14.7472
-14.8957
-15.0438
-15.1919
-15.3396
-15.4872
-15.6345
-15.7817
-15.9285
-16.0753
-16.2218
-16.3683
-16.5145
-16.6604
-16.8062
-16.9517
-17.0977
-17.2434
-17.3898
-17.5364
-17.6856
-17.8388
-17.9959
-18.2398
-0.737234
-1.15653
-1.53341
-1.85313
-2.16416
-2.47474
-2.77602
-3.05802
-3.32144
-3.57166
-3.80845
-4.03342
-4.2482
-4.45486
-4.65543
-4.85158
-5.04414
-5.23413
-5.42147
-5.60648
-5.78949
-5.9699
-6.14771
-6.32412
-6.49909
-6.67274
-6.8451
-7.01643
-7.1873
-7.35762
-7.52746
-7.69646
-7.86467
-8.03245
-8.19978
-8.36639
-8.53251
-8.69792
-8.86282
-9.02702
-9.19068
-9.35376
-9.51621
-9.67793
-9.83921
-9.9999
-10.1602
-10.3198
-10.4791
-10.6378
-10.7961
-10.9539
-11.1113
-11.2682
-11.4247
-11.5807
-11.7364
-11.8916
-12.0463
-12.2006
-12.3546
-12.5081
-12.6614
-12.8141
-12.9666
-13.1186
-13.2704
-13.4217
-13.5728
-13.7234
-13.8739
-14.024
-14.1738
-14.3234
-14.4726
-14.6216
-14.7703
-14.9188
-15.0669
-15.215
-15.3627
-15.5103
-15.6575
-15.8048
-15.9516
-16.0984
-16.2449
-16.3914
-16.5375
-16.6836
-16.8291
-16.975
-17.1205
-17.2669
-17.4122
-17.5605
-17.7067
-17.8639
-18.016
-18.252
-0.77548
-1.16916
-1.54616
-1.86649
-2.17537
-2.48345
-2.78365
-3.06524
-3.32843
-3.57832
-3.81484
-4.0399
-4.2547
-4.46135
-4.66194
-4.85812
-5.05068
-5.2407
-5.42803
-5.61308
-5.79605
-5.97653
-6.1545
-6.33096
-6.50584
-6.67946
-6.85175
-7.02308
-7.19385
-7.36414
-7.53389
-7.70284
-7.8711
-8.0389
-8.2062
-8.3728
-8.53889
-8.70427
-8.86913
-9.03329
-9.19689
-9.35991
-9.52228
-9.68393
-9.84513
-10.0058
-10.1661
-10.3258
-10.485
-10.6438
-10.8021
-10.9599
-11.1173
-11.2742
-11.4307
-11.5869
-11.7426
-11.8979
-12.0527
-12.207
-12.361
-12.5147
-12.668
-12.8208
-12.9733
-13.1254
-13.2772
-13.4285
-13.5796
-13.7304
-13.8808
-14.031
-14.1809
-14.3304
-14.4797
-14.6287
-14.7775
-14.926
-15.0741
-15.2222
-15.3699
-15.5176
-15.6648
-15.8121
-15.9589
-16.1057
-16.2522
-16.3988
-16.5449
-16.691
-16.8365
-16.9824
-17.1279
-17.2743
-17.4196
-17.568
-17.7146
-17.8724
-18.0235
-18.25
-0.824204
-1.18564
-1.56155
-1.88334
-2.19094
-2.49808
-2.79865
-3.08087
-3.3447
-3.59491
-3.832
-4.05707
-4.27236
-4.4792
-4.67984
-4.87595
-5.06838
-5.25814
-5.44517
-5.6299
-5.81272
-5.99311
-6.1711
-6.34765
-6.52264
-6.69655
-6.86921
-7.04089
-7.21189
-7.3824
-7.55232
-7.72142
-7.88969
-8.05755
-8.22492
-8.39162
-8.55779
-8.72327
-8.88824
-9.05251
-9.21626
-9.37944
-9.54199
-9.70384
-9.86522
-10.0259
-10.1862
-10.346
-10.5053
-10.6641
-10.8225
-10.9804
-11.1378
-11.2948
-11.4512
-11.6072
-11.763
-11.9181
-12.0728
-12.227
-12.381
-12.5346
-12.6877
-12.8405
-12.9929
-13.1449
-13.2967
-13.448
-13.599
-13.7497
-13.9001
-14.0502
-14.2001
-14.3496
-14.4988
-14.6478
-14.7965
-14.945
-15.0932
-15.2412
-15.3889
-15.5365
-15.6838
-15.831
-15.9778
-16.1246
-16.2711
-16.4176
-16.5638
-16.7098
-16.8554
-17.0011
-17.1469
-17.2929
-17.4386
-17.5861
-17.7334
-17.8892
-18.0451
-18.2492
-0.873831
-1.20276
-1.57729
-1.90153
-2.20754
-2.51383
-2.81411
-3.09615
-3.36
-3.61001
-3.84732
-4.07216
-4.28763
-4.49471
-4.69554
-4.89182
-5.08444
-5.27432
-5.4615
-5.64633
-5.82912
-6.00953
-6.1875
-6.3639
-6.53873
-6.71244
-6.8849
-7.0564
-7.22714
-7.39757
-7.56738
-7.73647
-7.9048
-8.07276
-8.24013
-8.40687
-8.57301
-8.73852
-8.90343
-9.06769
-9.23134
-9.39445
-9.55684
-9.71863
-9.8799
-10.0406
-10.2009
-10.3606
-10.5198
-10.6786
-10.8369
-10.9947
-11.152
-11.3089
-11.4654
-11.6215
-11.7773
-11.9325
-12.0874
-12.2417
-12.3957
-12.5493
-12.7027
-12.8556
-13.0081
-13.1602
-13.312
-13.4634
-13.6145
-13.7653
-13.9157
-14.0659
-14.2158
-14.3654
-14.5146
-14.6637
-14.8125
-14.961
-15.1091
-15.2572
-15.4049
-15.5526
-15.6999
-15.8471
-15.994
-16.1407
-16.2873
-16.4338
-16.58
-16.726
-16.8717
-17.0174
-17.1632
-17.3092
-17.4549
-17.6024
-17.7494
-17.9048
-18.0576
-18.2536
-0.923866
-1.22208
-1.59458
-1.92178
-2.22616
-2.53149
-2.8314
-3.11346
-3.37754
-3.62774
-3.86528
-4.09047
-4.30622
-4.51357
-4.7146
-4.911
-5.10372
-5.2936
-5.48083
-5.6657
-5.84829
-6.0287
-6.20674
-6.38317
-6.55807
-6.73183
-6.90432
-7.07586
-7.24665
-7.41693
-7.58677
-7.75579
-7.9241
-8.09194
-8.2592
-8.42585
-8.59191
-8.75736
-8.92222
-9.08646
-9.2501
-9.41342
-9.57587
-9.73776
-9.89909
-10.0599
-10.2202
-10.38
-10.5393
-10.6982
-10.8565
-11.0144
-11.1718
-11.3288
-11.4853
-11.6414
-11.7972
-11.9524
-12.1073
-12.2616
-12.4156
-12.5692
-12.7223
-12.8751
-13.0276
-13.1797
-13.3315
-13.4828
-13.6339
-13.7846
-13.935
-14.0852
-14.235
-14.3846
-14.5339
-14.6829
-14.8317
-14.9801
-15.1284
-15.2764
-15.4242
-15.5718
-15.7191
-15.8663
-16.0132
-16.1599
-16.3065
-16.4529
-16.5992
-16.7452
-16.8909
-17.0366
-17.1823
-17.3283
-17.474
-17.6213
-17.7681
-17.9222
-18.0736
-18.2597
-0.973284
-1.2439
-1.61365
-1.94407
-2.24699
-2.55128
-2.85089
-3.13304
-3.39729
-3.64761
-3.88527
-4.11071
-4.32653
-4.53404
-4.7352
-4.93169
-5.12449
-5.3144
-5.50166
-5.68654
-5.86913
-6.04957
-6.22767
-6.40413
-6.57908
-6.75282
-6.92535
-7.09689
-7.26778
-7.43796
-7.60781
-7.77684
-7.9452
-8.11301
-8.28028
-8.44692
-8.61297
-8.77841
-8.94321
-9.10746
-9.27105
-9.43432
-9.59674
-9.75854
-9.91978
-10.0805
-10.2407
-10.4004
-10.5597
-10.7185
-10.8768
-11.0347
-11.1921
-11.3491
-11.5056
-11.6617
-11.8175
-11.9728
-12.1276
-12.2819
-12.436
-12.5895
-12.7428
-12.8956
-13.0482
-13.2003
-13.352
-13.5034
-13.6545
-13.8053
-13.9557
-14.1059
-14.2558
-14.4053
-14.5546
-14.7037
-14.8525
-15.0009
-15.1492
-15.2972
-15.445
-15.5926
-15.74
-15.8871
-16.0341
-16.1808
-16.3274
-16.4739
-16.6201
-16.7661
-16.9118
-17.0575
-17.2033
-17.3492
-17.4949
-17.6418
-17.7885
-17.9409
-18.0906
-18.266
-1.02026
-1.26839
-1.63506
-1.96854
-2.27025
-2.57353
-2.87294
-3.15515
-3.41953
-3.66994
-3.90769
-4.13335
-4.34926
-4.55695
-4.75827
-4.95488
-5.14777
-5.33772
-5.52501
-5.70992
-5.89252
-6.07292
-6.25106
-6.42753
-6.60251
-6.77624
-6.94879
-7.12036
-7.29127
-7.46147
-7.63129
-7.80033
-7.9687
-8.1365
-8.30378
-8.47042
-8.63647
-8.80192
-8.96672
-9.13102
-9.29465
-9.45776
-9.62021
-9.78201
-9.94328
-10.104
-10.2642
-10.4239
-10.5832
-10.7419
-10.9002
-11.0581
-11.2154
-11.3725
-11.5289
-11.6851
-11.8408
-11.996
-12.1508
-12.3051
-12.4591
-12.6126
-12.7659
-12.9187
-13.0712
-13.2233
-13.3751
-13.5265
-13.6776
-13.8284
-13.9788
-14.129
-14.2789
-14.4284
-14.5777
-14.7268
-14.8757
-15.0241
-15.1723
-15.3203
-15.4681
-15.6157
-15.7631
-15.9103
-16.0572
-16.2039
-16.3505
-16.497
-16.6432
-16.7892
-16.9349
-17.0807
-17.2264
-17.3723
-17.5179
-17.6645
-17.8108
-17.9614
-18.1085
-18.2729
-1.06324
-1.29546
-1.65939
-1.99533
-2.29615
-2.59861
-2.89789
-3.18011
-3.44457
-3.69508
-3.93291
-4.15874
-4.37473
-4.58256
-4.78399
-4.98066
-5.1736
-5.36357
-5.55088
-5.7358
-5.91839
-6.09875
-6.27692
-6.4534
-6.62841
-6.80214
-6.97471
-7.1463
-7.31723
-7.48747
-7.65724
-7.82628
-7.99466
-8.16247
-8.32975
-8.49639
-8.66243
-8.82787
-8.99268
-9.15698
-9.32062
-9.48368
-9.64616
-9.80798
-9.96925
-10.13
-10.2902
-10.4499
-10.6091
-10.7679
-10.9262
-11.0841
-11.2414
-11.3985
-11.5549
-11.7111
-11.8667
-12.0219
-12.1767
-12.331
-12.485
-12.6385
-12.7917
-12.9445
-13.097
-13.249
-13.4008
-13.5523
-13.7034
-13.8541
-14.0045
-14.1547
-14.3045
-14.4541
-14.6033
-14.7523
-14.9011
-15.0496
-15.1979
-15.3459
-15.4936
-15.6412
-15.7886
-15.9357
-16.0827
-16.2294
-16.376
-16.5225
-16.6688
-16.8148
-16.9605
-17.1062
-17.2519
-17.3977
-17.5433
-17.6895
-17.8352
-17.9838
-18.128
-18.2808
-1.10042
-1.32466
-1.68723
-2.0246
-2.32489
-2.62691
-2.92614
-3.20833
-3.47283
-3.72342
-3.9613
-4.18723
-4.40325
-4.61114
-4.81264
-5.00936
-5.20234
-5.39233
-5.57964
-5.76459
-5.94718
-6.12749
-6.30568
-6.48219
-6.65721
-6.83094
-7.0035
-7.1751
-7.34606
-7.51632
-7.68604
-7.85508
-8.02348
-8.19131
-8.35857
-8.52521
-8.69125
-8.8567
-9.02149
-9.18582
-9.34946
-9.51251
-9.67499
-9.83681
-9.99807
-10.1588
-10.319
-10.4787
-10.638
-10.7967
-10.955
-11.1129
-11.2702
-11.4273
-11.5838
-11.7399
-11.8955
-12.0507
-12.2055
-12.3598
-12.5138
-12.6674
-12.8205
-12.9733
-13.1258
-13.2779
-13.4297
-13.5811
-13.7322
-13.8829
-14.0333
-14.1835
-14.3333
-14.4829
-14.6321
-14.7811
-14.9299
-15.0784
-15.2266
-15.3745
-15.5223
-15.6698
-15.8172
-15.9643
-16.1112
-16.258
-16.4045
-16.5509
-16.6972
-16.8432
-16.9889
-17.1347
-17.2803
-17.426
-17.5715
-17.7173
-17.8623
-18.0086
-18.1493
-18.2905
-1.12778
-1.35395
-1.71765
-2.05495
-2.35512
-2.6573
-2.95661
-3.23866
-3.50316
-3.75381
-3.99168
-4.21759
-4.43359
-4.64148
-4.84298
-5.03971
-5.2327
-5.42269
-5.61
-5.79497
-5.97754
-6.1578
-6.33599
-6.5125
-6.68753
-6.86124
-7.0338
-7.20539
-7.37639
-7.54666
-7.71634
-7.88538
-8.0538
-8.22163
-8.38888
-8.55553
-8.72157
-8.88701
-9.0518
-9.21616
-9.3798
-9.54283
-9.70529
-9.86712
-10.0284
-10.1891
-10.3493
-10.5091
-10.6683
-10.827
-10.9853
-11.1432
-11.3005
-11.4576
-11.6141
-11.7702
-11.9258
-12.081
-12.2358
-12.3902
-12.5441
-12.6977
-12.8509
-13.0037
-13.1561
-13.3082
-13.46
-13.6114
-13.7625
-13.9133
-14.0636
-14.2138
-14.3636
-14.5132
-14.6624
-14.8114
-14.9602
-15.1086
-15.2568
-15.4048
-15.5526
-15.7001
-15.8475
-15.9946
-16.1416
-16.2883
-16.4348
-16.5813
-16.7276
-16.8735
-17.0193
-17.165
-17.3106
-17.4562
-17.6016
-17.747
-17.8912
-18.0352
-18.1724
-18.3038
-1.14256
-1.3806
-1.74771
-2.08342
-2.3839
-2.68684
-2.98632
-3.26816
-3.53263
-3.78331
-4.02109
-4.2469
-4.46283
-4.67063
-4.87208
-5.06878
-5.26174
-5.45172
-5.639
-5.824
-6.00654
-6.18674
-6.36491
-6.54143
-6.71646
-6.89016
-7.06271
-7.23428
-7.40534
-7.57561
-7.74525
-7.91429
-8.08272
-8.25055
-8.4178
-8.58445
-8.75048
-8.91593
-9.08068
-9.24509
-9.40872
-9.57173
-9.73418
-9.89602
-10.0573
-10.218
-10.3782
-10.538
-10.6972
-10.856
-11.0143
-11.1721
-11.3295
-11.4865
-11.643
-11.7991
-11.9547
-12.1099
-12.2647
-12.4191
-12.573
-12.7266
-12.8797
-13.0325
-13.185
-13.3371
-13.4889
-13.6403
-13.7914
-13.9421
-14.0926
-14.2428
-14.3926
-14.5422
-14.6914
-14.8404
-14.9892
-15.1377
-15.286
-15.434
-15.5818
-15.7293
-15.8767
-16.0238
-16.1708
-16.3175
-16.4641
-16.6106
-16.7569
-16.903
-17.0488
-17.1945
-17.3401
-17.4856
-17.6308
-17.7758
-17.9193
-18.0613
-18.1956
-18.3193
-1.14628
-1.40417
-1.77575
-2.10877
-2.40995
-2.71401
-3.01373
-3.2953
-3.55972
-3.81042
-4.04807
-4.27372
-4.48953
-4.69718
-4.89853
-5.09516
-5.28809
-5.47805
-5.66529
-5.85033
-6.03284
-6.21297
-6.39112
-6.56762
-6.74265
-6.91633
-7.08885
-7.26038
-7.4315
-7.60175
-7.77138
-7.94041
-8.10885
-8.27668
-8.44394
-8.61059
-8.77662
-8.94207
-9.10682
-9.27127
-9.43488
-9.59787
-9.76032
-9.92215
-10.0834
-10.2441
-10.4044
-10.5641
-10.7233
-10.882
-11.0403
-11.1982
-11.3556
-11.5127
-11.6692
-11.8252
-11.9809
-12.1361
-12.2909
-12.4453
-12.5993
-12.7529
-12.9061
-13.0589
-13.2113
-13.3634
-13.5153
-13.6667
-13.8178
-13.9686
-14.1191
-14.2693
-14.4192
-14.5688
-14.718
-14.8671
-15.0159
-15.1644
-15.3126
-15.4606
-15.6084
-15.756
-15.9033
-16.0504
-16.1973
-16.344
-16.4906
-16.6369
-16.7831
-16.9291
-17.075
-17.2208
-17.3664
-17.512
-17.6571
-17.8017
-17.9445
-18.0852
-18.2172
-18.3355
-1.1412
-1.42549
-1.80171
-2.13142
-2.43366
-2.739
-3.039
-3.32022
-3.58457
-3.83528
-4.07277
-4.29821
-4.5139
-4.72137
-4.92258
-5.11913
-5.31199
-5.50194
-5.68912
-5.87421
-6.05668
-6.23675
-6.41487
-6.59137
-6.7664
-6.94004
-7.11254
-7.28403
-7.4552
-7.62543
-7.79504
-7.96406
-8.13251
-8.30033
-8.46758
-8.6342
-8.80024
-8.96562
-9.13042
-9.29489
-9.45849
-9.62149
-9.78394
-9.94578
-10.1071
-10.2678
-10.428
-10.5878
-10.7471
-10.9058
-11.0641
-11.2219
-11.3795
-11.5366
-11.6931
-11.8492
-12.0049
-12.1602
-12.315
-12.4694
-12.6234
-12.777
-12.9302
-13.0831
-13.2355
-13.3875
-13.5393
-13.6907
-13.8419
-13.9926
-14.1431
-14.2933
-14.4432
-14.5927
-14.742
-14.891
-15.0398
-15.1883
-15.3366
-15.4846
-15.6324
-15.78
-15.9273
-16.0745
-16.2215
-16.3682
-16.515
-16.6615
-16.8078
-16.9538
-17.0995
-17.2451
-17.3907
-17.5362
-17.6811
-17.8257
-17.9684
-18.1072
-18.2375
-18.3518
-1.12987
-1.44495
-1.82534
-2.15165
-2.45519
-2.76189
-3.0623
-3.34314
-3.60743
-3.85809
-4.09539
-4.32054
-4.53606
-4.74335
-4.94441
-5.14084
-5.33362
-5.52353
-5.71065
-5.89577
-6.07817
-6.25817
-6.43623
-6.61274
-6.78774
-6.9614
-7.1338
-7.30533
-7.47652
-7.64672
-7.8163
-7.98533
-8.15381
-8.32165
-8.48892
-8.65556
-8.82165
-8.98703
-9.15198
-9.3164
-9.48001
-9.64308
-9.8056
-9.9675
-10.1288
-10.2896
-10.4499
-10.6097
-10.769
-10.9278
-11.0861
-11.2438
-11.4013
-11.5584
-11.7149
-11.871
-12.0267
-12.1819
-12.3368
-12.4911
-12.6451
-12.7987
-12.9519
-13.1047
-13.2571
-13.4092
-13.561
-13.7124
-13.8635
-14.0143
-14.1648
-14.3149
-14.4648
-14.6143
-14.7636
-14.9126
-15.0613
-15.2098
-15.358
-15.506
-15.6537
-15.8013
-15.9485
-16.0956
-16.2425
-16.3891
-16.5356
-16.6819
-16.8281
-16.9742
-17.12
-17.2658
-17.4114
-17.5569
-17.7018
-17.846
-17.9881
-18.1271
-18.2562
-18.3678
-1.11434
-1.46293
-1.84657
-2.16982
-2.47474
-2.78268
-3.08355
-3.36406
-3.62834
-3.87895
-4.11613
-4.34102
-4.55626
-4.76332
-4.96431
-5.16061
-5.35338
-5.54318
-5.73039
-5.91554
-6.09791
-6.27783
-6.45581
-6.63227
-6.80721
-6.98084
-7.1532
-7.32483
-7.49601
-7.66625
-7.83585
-8.00492
-8.1735
-8.34146
-8.50882
-8.67557
-8.84172
-9.0072
-9.17216
-9.33649
-9.50007
-9.66311
-9.82561
-9.9875
-10.1488
-10.3096
-10.4699
-10.6296
-10.7889
-10.9477
-11.106
-11.2638
-11.4213
-11.5783
-11.7349
-11.891
-12.0466
-12.2019
-12.3567
-12.5111
-12.6651
-12.8187
-12.9719
-13.1247
-13.2771
-13.4292
-13.581
-13.7325
-13.8836
-14.0344
-14.1849
-14.3351
-14.4849
-14.6345
-14.7838
-14.9328
-15.0816
-15.2301
-15.3784
-15.5264
-15.6742
-15.8218
-15.9692
-16.1163
-16.2633
-16.4102
-16.5568
-16.7034
-16.8497
-16.9957
-17.1414
-17.2871
-17.4326
-17.578
-17.7229
-17.8672
-18.0088
-18.1458
-18.2738
-18.3833
-1.0956
-1.47962
-1.86563
-2.18667
-2.49292
-2.80176
-3.10285
-3.38286
-3.64711
-3.89752
-4.13436
-4.35952
-4.57429
-4.78097
-4.98173
-5.17783
-5.37047
-5.56011
-5.74738
-5.93239
-6.11477
-6.29476
-6.47287
-6.6495
-6.8246
-6.99834
-7.17088
-7.34265
-7.51388
-7.68419
-7.85375
-8.02271
-8.19121
-8.3591
-8.5264
-8.69308
-8.85917
-9.02459
-9.18949
-9.35378
-9.51735
-9.68034
-9.84276
-10.0046
-10.1659
-10.3266
-10.4868
-10.6466
-10.8058
-10.9646
-11.1228
-11.2806
-11.438
-11.595
-11.7515
-11.9075
-12.0632
-12.2184
-12.3731
-12.5275
-12.6814
-12.835
-12.9881
-13.1409
-13.2933
-13.4453
-13.597
-13.7484
-13.8995
-14.0502
-14.2007
-14.3508
-14.5005
-14.65
-14.7992
-14.9482
-15.0969
-15.2454
-15.3936
-15.5415
-15.6892
-15.8367
-15.984
-16.131
-16.2779
-16.4246
-16.571
-16.7174
-16.8636
-17.0096
-17.1554
-17.301
-17.4466
-17.5921
-17.7369
-17.881
-18.023
-18.1611
-18.289
-18.3978
-1.07474
-1.49396
-1.88122
-2.20162
-2.50979
-2.82025
-3.12167
-3.4012
-3.66548
-3.91575
-4.15234
-4.37776
-4.5922
-4.79874
-4.99951
-5.19573
-5.38856
-5.57855
-5.76613
-5.95138
-6.13396
-6.31401
-6.4922
-6.66883
-6.84385
-7.01736
-7.18969
-7.36136
-7.53251
-7.70279
-7.87237
-8.04135
-8.20988
-8.37779
-8.54511
-8.71182
-8.87793
-9.04339
-9.20831
-9.37262
-9.53621
-9.69921
-9.86161
-10.0234
-10.1847
-10.3455
-10.5058
-10.6655
-10.8248
-10.9836
-11.1418
-11.2996
-11.4571
-11.6142
-11.7707
-11.9268
-12.0824
-12.2377
-12.3925
-12.5469
-12.7009
-12.8545
-13.0077
-13.1605
-13.3129
-13.465
-13.6167
-13.7682
-13.9193
-14.0701
-14.2206
-14.3708
-14.5206
-14.6701
-14.8194
-14.9684
-15.1172
-15.2657
-15.4139
-15.562
-15.7097
-15.8573
-16.0046
-16.1518
-16.2987
-16.4455
-16.5921
-16.7385
-16.8848
-17.0308
-17.1766
-17.3223
-17.4678
-17.6133
-17.758
-17.9021
-18.0435
-18.1801
-18.3066
-18.4139
-1.06014
-1.50853
-1.89346
-2.21117
-2.52015
-2.83239
-3.13432
-3.41331
-3.67776
-3.92802
-4.1645
-4.38954
-4.6038
-4.81023
-5.01088
-5.207
-5.39971
-5.58957
-5.77703
-5.96211
-6.14438
-6.32402
-6.502
-6.67843
-6.85332
-7.02671
-7.19885
-7.37041
-7.54147
-7.71168
-7.88117
-8.05007
-8.2185
-8.38634
-8.55358
-8.72021
-8.88625
-9.05164
-9.21649
-9.38074
-9.54427
-9.70722
-9.86958
-10.0314
-10.1926
-10.3533
-10.5135
-10.6732
-10.8325
-10.9912
-11.1494
-11.3072
-11.4646
-11.6216
-11.7781
-11.9341
-12.0897
-12.2449
-12.3997
-12.554
-12.708
-12.8615
-13.0147
-13.1675
-13.3198
-13.4719
-13.6236
-13.775
-13.9261
-14.0768
-14.2272
-14.3774
-14.5272
-14.6767
-14.8259
-14.9749
-15.1236
-15.2721
-15.4203
-15.5683
-15.716
-15.8635
-16.0108
-16.1579
-16.3048
-16.4515
-16.598
-16.7444
-16.8906
-17.0367
-17.1824
-17.3281
-17.4736
-17.6191
-17.7638
-17.908
-18.0497
-18.1871
-18.3139
-18.4218
-1.02966
-1.52336
-1.91707
-2.23532
-2.5445
-2.85724
-3.15994
-3.43796
-3.70273
-3.95311
-4.18948
-4.41433
-4.62838
-4.83452
-5.03491
-5.23079
-5.42331
-5.61303
-5.8004
-5.9854
-6.16771
-6.34739
-6.52535
-6.70176
-6.8766
-7.04998
-7.22211
-7.39363
-7.56465
-7.73482
-7.90429
-8.07317
-8.24159
-8.40942
-8.57666
-8.74329
-8.90933
-9.07472
-9.23957
-9.40383
-9.56737
-9.73031
-9.89268
-10.0545
-10.2157
-10.3764
-10.5367
-10.6964
-10.8556
-11.0143
-11.1726
-11.3303
-11.4877
-11.6448
-11.8013
-11.9573
-12.1129
-12.2681
-12.4229
-12.5773
-12.7312
-12.8848
-13.0379
-13.1907
-13.3431
-13.4951
-13.6469
-13.7983
-13.9494
-14.1001
-14.2506
-14.4007
-14.5505
-14.7
-14.8493
-14.9982
-15.147
-15.2954
-15.4437
-15.5916
-15.7394
-15.8869
-16.0342
-16.1813
-16.3282
-16.475
-16.6215
-16.7679
-16.9141
-17.0602
-17.2059
-17.3516
-17.4971
-17.6426
-17.7873
-17.9314
-18.0729
-18.21
-18.3366
-18.444
-18.2125
-18.4758
-19.2146
-19.3392
-18.7971
-17.7134
-16.2536
-14.5504
-12.7901
-11.0681
-9.47452
-8.03761
-6.77348
-5.67684
-4.73426
-3.92585
-3.23409
-2.6392
-2.12568
-1.68156
-1.29515
-0.956583
-0.659087
-0.396662
-0.163946
0.0436903
0.228987
0.394279
0.54234
0.675394
0.795649
0.903716
0.999321
1.08414
1.15938
1.22581
1.28418
1.33516
1.37931
1.41716
1.44921
1.47591
1.49769
1.51491
1.52795
1.5371
1.54269
1.54499
1.54426
1.54072
1.53461
1.52614
1.51551
1.50287
1.48842
1.4723
1.45468
1.43569
1.41543
1.39396
1.37141
1.34789
1.32348
1.29821
1.27213
1.24534
1.2178
1.18957
1.1607
1.13116
1.101
1.07026
1.03896
1.00714
0.974832
0.942057
0.908845
0.875173
0.841202
0.806776
0.772223
0.737156
0.701922
0.666326
0.630521
0.594506
0.55825
0.521953
0.485446
0.448875
0.412155
0.375311
0.33815
0.300845
0.262329
0.223529
0.181368
0.137742
0.0850664
0.0381015
-18.2527
-18.4021
-19.1081
-19.2496
-18.7196
-17.6563
-16.2187
-14.535
-12.7904
-11.0798
-9.49464
-8.06242
-6.80076
-5.70515
-4.76237
-3.95306
-3.25977
-2.66313
-2.14786
-1.70205
-1.31414
-0.974321
-0.675724
-0.412216
-0.178643
0.0296108
0.215347
0.381082
0.529307
0.6624
0.78186
0.889738
0.985456
1.07034
1.14566
1.21216
1.27059
1.32163
1.36583
1.40373
1.43583
1.46257
1.48438
1.50164
1.5147
1.52388
1.5295
1.53182
1.53111
1.52759
1.5215
1.51304
1.50243
1.48981
1.47538
1.45928
1.44168
1.4227
1.40245
1.38101
1.35848
1.33497
1.31058
1.28532
1.25924
1.23245
1.20491
1.17667
1.14779
1.11824
1.08807
1.05731
1.02598
0.994136
0.961797
0.928988
0.895742
0.862031
0.828032
0.793578
0.758992
0.723907
0.688652
0.653047
0.617243
0.581226
0.544992
0.508705
0.472239
0.435708
0.399055
0.362323
0.325307
0.288265
0.25013
0.211881
0.170951
0.128886
0.0793558
0.0347246
-18.2483
-18.4097
-19.0331
-19.158
-18.6327
-17.587
-16.1719
-14.5103
-12.785
-11.09
-9.51543
-8.09021
-6.83289
-5.73884
-4.79568
-3.98511
-3.2899
-2.69121
-2.17399
-1.72627
-1.33668
-0.99536
-0.695423
-0.430659
-0.196022
0.0131031
0.199513
0.366029
0.514754
0.648409
0.767299
0.874297
0.969959
1.05495
1.13036
1.19696
1.25547
1.3066
1.35088
1.38884
1.42099
1.44778
1.46964
1.48693
1.50003
1.50924
1.51488
1.51723
1.51655
1.51306
1.50698
1.49855
1.48796
1.47537
1.46096
1.44488
1.4273
1.40833
1.3881
1.36669
1.34417
1.32071
1.29632
1.27107
1.24499
1.21821
1.19067
1.16242
1.13353
1.10397
1.07378
1.04299
1.01164
0.979762
0.947387
0.914539
0.881253
0.8475
0.813465
0.778982
0.744356
0.709251
0.673974
0.638352
0.602554
0.566528
0.53032
0.494044
0.457619
0.421139
0.384562
0.347957
0.311114
0.27436
0.236677
0.198961
0.159457
0.119109
0.0731267
0.0309624
-18.2742
-18.4299
-18.9709
-19.0743
-18.544
-17.5115
-16.117
-14.4806
-12.7762
-11.0994
-9.53728
-8.12106
-6.86935
-5.77737
-4.83392
-4.02198
-3.32475
-2.72412
-2.20495
-1.75499
-1.3633
-1.02008
-0.718459
-0.452218
-0.216297
-0.00608215
0.181193
0.348577
0.497922
0.63223
0.751019
0.857033
0.952603
1.03776
1.11332
1.18004
1.23867
1.28989
1.33426
1.3723
1.40453
1.43138
1.45329
1.47063
1.48377
1.49302
1.4987
1.50108
1.50043
1.49696
1.49092
1.48251
1.47195
1.45939
1.445
1.42895
1.41139
1.39245
1.37224
1.35085
1.32835
1.30493
1.28055
1.25531
1.22927
1.20248
1.17493
1.14668
1.11778
1.08819
1.05799
1.02717
0.995787
0.963873
0.931458
0.898565
0.865232
0.831433
0.797355
0.762838
0.728167
0.693034
0.657735
0.622091
0.586295
0.550259
0.514074
0.477826
0.441431
0.405024
0.368527
0.332066
0.295428
0.258975
0.221817
0.184669
0.146759
0.108319
0.0662777
0.0268306
-18.2941
-18.441
-18.9084
-18.989
-18.457
-17.436
-16.0593
-14.4499
-12.7678
-11.1111
-9.56331
-8.15723
-6.91127
-5.82176
-4.87836
-4.0651
-3.36572
-2.76281
-2.2413
-1.78864
-1.3944
-1.04893
-0.745332
-0.4774
-0.240031
-0.0286117
0.159623
0.327817
0.477792
0.612556
0.731645
0.837399
0.933127
1.01852
1.09427
1.16116
1.21993
1.2713
1.31578
1.35392
1.38623
1.41316
1.43514
1.45254
1.46574
1.47504
1.48076
1.48318
1.48257
1.47914
1.47313
1.46475
1.45423
1.4417
1.42733
1.41131
1.39379
1.37488
1.3547
1.33335
1.31088
1.28748
1.26311
1.23789
1.21189
1.18509
1.15754
1.12929
1.10038
1.07076
1.04053
1.00969
0.978267
0.94631
0.913847
0.880902
0.847514
0.813666
0.779535
0.744978
0.710254
0.675081
0.639751
0.604101
0.56828
0.532269
0.496078
0.459894
0.423505
0.387192
0.350782
0.314482
0.278072
0.241928
0.205357
0.168904
0.132709
0.0963921
0.058698
0.0223069
-18.3121
-18.4493
-18.8424
-18.8947
-18.3629
-17.3542
-16.0002
-14.4205
-12.7626
-11.1276
-9.59554
-8.20097
-6.96134
-5.87475
-4.93155
-4.11671
-3.41462
-2.80844
-2.28372
-1.8279
-1.43075
-1.08275
-0.776923
-0.50707
-0.268066
-0.0552961
0.134046
0.303101
0.453853
0.589058
0.708866
0.815152
0.911219
0.996903
1.07291
1.14003
1.19901
1.25054
1.29518
1.33346
1.36588
1.39291
1.41497
1.43245
1.44572
1.45508
1.46085
1.46333
1.46277
1.45939
1.45341
1.44508
1.4346
1.42211
1.40778
1.39179
1.37431
1.35545
1.3353
1.31399
1.29155
1.26818
1.24384
1.21863
1.19265
1.16585
1.13831
1.11007
1.08114
1.05149
1.02124
0.990367
0.958908
0.926898
0.894369
0.861365
0.827917
0.794009
0.759808
0.725212
0.690419
0.655215
0.619828
0.584206
0.548328
0.51238
0.476141
0.440053
0.403659
0.367447
0.331143
0.295007
0.258845
0.223031
0.187103
0.151505
0.117134
0.0831726
0.0502511
0.0173424
-18.3285
-18.4538
-18.7723
-18.791
-18.2593
-17.2638
-15.9343
-14.3868
-12.7576
-11.1477
-9.63397
-8.2529
-7.02077
-5.93726
-4.99417
-4.17739
-3.47196
-2.86179
-2.33307
-1.87351
-1.47294
-1.12199
-0.813559
-0.541466
-0.300541
-0.0862242
0.10446
0.27459
0.426366
0.562226
0.682926
0.790022
0.886512
0.972562
1.04892
1.11635
1.17559
1.22735
1.27218
1.31063
1.34319
1.37035
1.39252
1.4101
1.42345
1.43289
1.43874
1.44128
1.44078
1.43746
1.43154
1.42326
1.41284
1.40039
1.38611
1.37016
1.35273
1.33392
1.31382
1.29255
1.27016
1.24682
1.22252
1.19734
1.17137
1.14458
1.11704
1.0888
1.05985
1.03018
0.999907
0.968996
0.937494
0.905425
0.872827
0.839755
0.806229
0.772254
0.737969
0.703323
0.668458
0.633243
0.597769
0.562173
0.52622
0.490357
0.454056
0.418075
0.38169
0.345573
0.309398
0.273425
0.23753
0.202081
0.166854
0.132253
0.0998428
0.068467
0.0407587
0.0118617
-18.3434
-18.4537
-18.6991
-18.6799
-18.1478
-17.1667
-15.8627
-14.3483
-12.7501
-11.167
-9.67378
-8.30796
-7.08496
-6.00389
-5.06094
-4.24271
-3.53441
-2.92062
-2.38793
-1.92446
-1.52014
-1.16583
-0.854402
-0.579764
-0.33665
-0.120899
0.0711707
0.242512
0.395435
0.532111
0.653719
0.76171
0.858718
0.945247
1.02206
1.08985
1.1494
1.20143
1.24649
1.28512
1.31787
1.34517
1.36748
1.38518
1.39865
1.40818
1.41412
1.41675
1.41634
1.4131
1.40724
1.39903
1.38868
1.3763
1.36206
1.34618
1.32881
1.31006
1.29002
1.26881
1.24648
1.22318
1.19892
1.17377
1.14782
1.12105
1.09352
1.06526
1.0363
1.00661
0.976304
0.945347
0.913789
0.881659
0.848987
0.815845
0.782232
0.748182
0.713806
0.679084
0.644117
0.608885
0.573328
0.537757
0.501719
0.465945
0.429598
0.393702
0.357373
0.321319
0.285299
0.249494
0.213893
0.17885
0.144376
0.110893
0.0805704
0.0520308
0.0299907
0.00574298
-18.3574
-18.4502
-18.6244
-18.5628
-18.0292
-17.0638
-15.7866
-14.304
-12.7367
-11.1808
-9.70956
-8.36059
-7.14806
-6.07252
-5.13147
-4.31235
-3.60125
-2.98377
-2.44707
-1.97974
-1.57178
-1.21424
-0.899902
-0.622748
-0.37742
-0.159864
0.0338235
0.206605
0.360819
0.498496
0.621094
0.730064
0.827701
0.914787
0.992084
1.06027
1.12015
1.17245
1.21776
1.25663
1.28958
1.31707
1.33955
1.35739
1.37096
1.38062
1.38668
1.38943
1.38913
1.38599
1.38022
1.3721
1.36185
1.34955
1.33538
1.31957
1.30227
1.28361
1.26364
1.2425
1.22023
1.19699
1.17278
1.14767
1.12175
1.095
1.0675
1.03924
1.01027
0.980552
0.950207
0.919197
0.887577
0.855369
0.8226
0.789345
0.755625
0.721489
0.687022
0.652225
0.61714
0.581874
0.546223
0.510689
0.474569
0.438861
0.402519
0.36664
0.330439
0.294413
0.258583
0.222951
0.187679
0.153071
0.119411
0.0871439
0.0590461
0.0335548
0.0176529
-0.00122043
-18.3705
-18.444
-18.5499
-18.442
-17.9043
-16.9548
-15.7046
-14.2571
-12.7244
-11.198
-9.74962
-8.41765
-7.21528
-6.1467
-5.2076
-4.38708
-3.6727
-3.05114
-2.51011
-2.03866
-1.62686
-1.26593
-0.94862
-0.66894
-0.421494
-0.201832
-0.00659574
0.167395
0.322661
0.461214
0.584707
0.694592
0.792846
0.88046
0.958253
1.02686
1.08713
1.13981
1.18545
1.22461
1.25783
1.28557
1.30828
1.32632
1.34008
1.34992
1.35613
1.35903
1.35888
1.35587
1.35021
1.34219
1.33207
1.31988
1.30579
1.29006
1.27286
1.25429
1.23441
1.21335
1.19117
1.16799
1.14384
1.11879
1.0929
1.06617
1.03868
1.01041
0.981424
0.951675
0.921284
0.890212
0.858525
0.82623
0.79336
0.759975
0.726141
0.691891
0.657317
0.622418
0.587228
0.551914
0.516157
0.480641
0.444479
0.408768
0.372516
0.336594
0.300572
0.264567
0.228966
0.19351
0.158615
0.124455
0.0916692
0.0606855
0.0349294
0.0126437
0.00337704
-0.00939622
-18.3829
-18.4373
-18.4847
-18.3327
-17.7896
-16.8554
-15.6303
-14.2176
-12.7183
-11.22
-9.79303
-8.47663
-7.28365
-6.21956
-5.28111
-4.45898
-3.7416
-3.11643
-2.57156
-2.09644
-1.68121
-1.31717
-0.997136
-0.71509
-0.465647
-0.244193
-0.0474372
0.127733
0.283973
0.423273
0.547489
0.65807
0.756786
0.844714
0.922796
0.991675
1.05224
1.10528
1.15125
1.19072
1.22423
1.25224
1.2752
1.2935
1.3075
1.31754
1.32394
1.327
1.32701
1.32415
1.31861
1.31072
1.30073
1.28865
1.27465
1.259
1.24192
1.22345
1.20367
1.18271
1.16061
1.1375
1.11342
1.08843
1.06257
1.03588
1.00838
0.980107
0.9511
0.921316
0.890873
0.85973
0.827965
0.795573
0.762593
0.729081
0.695124
0.660733
0.626034
0.591002
0.555691
0.520305
0.484466
0.448899
0.412791
0.377008
0.340913
0.304947
0.269123
0.233156
0.19781
0.16253
0.128048
0.0943079
0.0624024
0.0326581
0.00918713
-0.00999921
-0.0124468
-0.0189259
-18.3952
-18.4338
-18.4371
-18.2494
-17.7009
-16.7797
-15.5756
-14.189
-12.7153
-11.239
-9.82964
-8.52638
-7.34161
-6.28167
-5.3445
-4.52167
-3.80211
-3.17404
-2.62603
-2.14791
-1.72987
-1.36331
-1.04108
-0.75719
-0.506191
-0.283399
-0.0853695
0.0908245
0.247923
0.38786
0.512724
0.623833
0.72314
0.811828
0.890347
0.959458
1.0202
1.07343
1.1196
1.15925
1.19293
1.22112
1.24423
1.26269
1.27683
1.287
1.29353
1.29672
1.29685
1.29412
1.28867
1.28087
1.27102
1.25904
1.24509
1.22952
1.21253
1.19417
1.17447
1.15359
1.13156
1.10852
1.0845
1.05956
1.03374
1.00708
0.979583
0.951303
0.92227
0.892445
0.861949
0.830728
0.798877
0.766371
0.733265
0.699605
0.665505
0.630948
0.596117
0.560933
0.525519
0.490022
0.454194
0.418531
0.382537
0.346699
0.31076
0.274808
0.239173
0.203295
0.168192
0.133058
0.0989975
0.0655958
0.0344829
0.00575318
-0.0157324
-0.0322862
-0.0284006
-0.0293065
-18.4078
-18.4342
-18.4063
-18.1918
-17.6384
-16.7266
-15.5379
-14.1703
-12.7159
-11.2568
-9.86127
-8.56818
-7.38984
-6.33319
-5.39705
-4.57366
-3.85244
-3.2221
-2.67164
-2.19121
-1.77101
-1.40249
-1.07854
-0.793227
-0.540969
-0.317145
-0.118328
0.0585369
0.216173
0.356498
0.481775
0.593209
0.692886
0.782229
0.861174
0.930761
0.991946
1.04538
1.09174
1.13156
1.16538
1.19369
1.21692
1.23547
1.24971
1.25996
1.26656
1.26982
1.27004
1.26738
1.26196
1.25416
1.24446
1.23257
1.21864
1.2031
1.18619
1.16789
1.14825
1.12743
1.10546
1.08246
1.05848
1.03357
1.00777
0.981112
0.953615
0.925312
0.89624
0.866359
0.835795
0.80448
0.77253
0.739895
0.706648
0.672828
0.638579
0.603855
0.568909
0.533585
0.498119
0.462524
0.426761
0.391048
0.35517
0.31935
0.283538
0.247643
0.21213
0.176394
0.14156
0.106562
0.0728747
0.039698
0.00916906
-0.018671
-0.03856
-0.0530647
-0.0436957
-0.0400745
-18.4208
-18.4382
-18.3883
-18.1542
-17.5968
-16.6919
-15.5146
-14.1609
-12.721
-11.2748
-9.88963
-8.60402
-7.43052
-6.37633
-5.44091
-4.61699