/*--------------------------------*- C++ -*----------------------------------*\
| =========                 |                                                 |
| \\      /  F ield         | OpenFOAM: The Open Source CFD Toolbox           |
|  \\    /   O peration     | Version:  v2012                                 |
|   \\  /    A nd           | Website:  www.openfoam.com                      |
|    \\/     M anipulation  |                                                 |
\*---------------------------------------------------------------------------*/
FoamFile
{
    version     2.0;
    format      ascii;
    class       surfaceScalarField;
    location    "0.123";
    object      phi.air;
}
// * * * * * * * * * * * * * * * * * * * * * * * * * * * * * * * * * * * * * //

dimensions      [0 3 -1 0 0 0 0];
oriented        oriented;


internalField   nonuniform List<scalar> 
10964
(
0.000657106
2.51272e-05
0.0006289
2.73644e-05
0.000601318
2.67391e-05
0.000575027
2.54451e-05
0.00055112
2.30587e-05
0.000530161
2.01095e-05
0.000512503
1.68068e-05
0.0004979
1.37497e-05
0.000485909
1.11376e-05
0.000476266
8.78903e-06
0.00046866
6.75097e-06
0.000462713
5.09215e-06
0.000458073
3.78416e-06
0.000454433
2.7839e-06
0.00045154
2.03727e-06
0.000449196
1.48774e-06
0.000447253
1.08726e-06
0.00044561
7.86837e-07
0.000444194
5.59953e-07
0.000442977
3.61587e-07
0.000441919
2.0225e-07
0.00044102
4.2948e-08
0.000440274
-1.10328e-07
0.000439661
-2.4256e-07
0.000439158
-3.52711e-07
0.000438739
-4.3734e-07
0.000438399
-5.15259e-07
0.000438104
-5.6074e-07
0.000437851
-6.03441e-07
0.000437613
-6.1754e-07
0.000437374
-6.16731e-07
0.000437141
-6.22221e-07
0.000436907
-6.21543e-07
0.000436674
-6.22601e-07
0.000436436
-6.17313e-07
0.000436208
-6.28149e-07
0.000435976
-6.23588e-07
0.000435758
-6.37882e-07
0.000435539
-6.36119e-07
0.000435342
-6.58862e-07
0.000435141
-6.53863e-07
0.000434969
-6.83815e-07
0.000434799
-6.8602e-07
0.000434635
-6.91205e-07
0.000434508
-7.2789e-07
0.000434358
-7.06351e-07
0.000434255
-7.52117e-07
0.00043413
-7.30495e-07
0.000434054
-7.79646e-07
0.000433952
-7.53444e-07
0.000433878
-7.81022e-07
0.000433829
-8.07176e-07
0.000433733
-7.59199e-07
0.000433699
-8.2184e-07
0.000433604
-7.60443e-07
0.000433584
-8.35324e-07
0.000433517
-7.88334e-07
0.000433502
-8.40715e-07
0.000433493
-8.4573e-07
0.000433446
-8.09234e-07
0.000433488
-8.97237e-07
0.000433445
-8.12441e-07
0.000433465
-8.75542e-07
0.000433398
-7.87832e-07
0.000433383
-8.41111e-07
0.000433326
-7.97734e-07
0.00043323
-7.59809e-07
0.000433229
-8.54492e-07
0.000433091
-7.17251e-07
0.000433073
-8.37621e-07
0.000432952
-7.34032e-07
0.000432925
-8.29097e-07
0.000432872
-8.01289e-07
0.000432805
-7.89076e-07
0.000432879
-9.29467e-07
0.000432728
-7.04411e-07
0.000432809
-9.3616e-07
0.000432763
-8.09191e-07
0.000432768
-8.60987e-07
0.00043278
-8.67244e-07
0.000432712
-7.8709e-07
0.00043283
-9.73841e-07
0.000432679
-7.0421e-07
0.000432736
-9.12231e-07
0.000432744
-8.63583e-07
0.000432666
-7.77898e-07
0.000432754
-9.43608e-07
0.000432563
-6.63983e-07
0.0004327
-9.92076e-07
0.000432573
-7.28097e-07
0.000432551
-8.33971e-07
0.000432542
-8.46417e-07
0.000432356
-6.70302e-07
0.00043248
-9.78706e-07
0.000432191
-5.66576e-07
0.000432214
-8.78252e-07
0.000432296
-9.38394e-07
0.000432226
-7.84152e-07
0.000430866
5.02684e-07
-9.41416e-06
0.000439427
0.000757085
2.43227e-05
0.000754876
2.95733e-05
0.000751202
3.0413e-05
0.000745928
3.07188e-05
0.000739361
2.96255e-05
0.000731832
2.7639e-05
0.000723577
2.50619e-05
0.000714967
2.23592e-05
0.000706312
1.97929e-05
0.000697782
1.73187e-05
0.000689588
1.49458e-05
0.000681839
1.28405e-05
0.00067462
1.10029e-05
0.000667975
9.42885e-06
0.000661924
8.08894e-06
0.000656454
6.95784e-06
0.000651543
5.99751e-06
0.00064716
5.17005e-06
0.000643277
4.44331e-06
0.000639872
3.76695e-06
0.0006369
3.17338e-06
0.000634313
2.62983e-06
0.000632002
2.20121e-06
0.000629935
1.82482e-06
0.000628078
1.50338e-06
0.000626417
1.22459e-06
0.000624894
1.00705e-06
0.000623476
8.58008e-07
0.000622157
7.14876e-07
0.000620927
6.13086e-07
0.000619778
5.31945e-07
0.000618714
4.41453e-07
0.000617733
3.59813e-07
0.000616826
2.84662e-07
0.000615986
2.21986e-07
0.00061521
1.48413e-07
0.000614488
9.77982e-08
0.000613821
2.9905e-08
0.0006132
-1.59311e-08
0.000612629
-8.73332e-08
0.000612097
-1.22145e-07
0.000611605
-1.91844e-07
0.000611156
-2.36697e-07
0.00061073
-2.65498e-07
0.000610345
-3.42984e-07
0.000609977
-3.38267e-07
0.000609644
-4.1942e-07
0.000609327
-4.12708e-07
0.000609034
-4.86513e-07
0.000608765
-4.84818e-07
0.000608494
-5.10418e-07
0.000608264
-5.77168e-07
0.000608042
-5.36828e-07
0.000607849
-6.28859e-07
0.000607656
-5.67655e-07
0.000607498
-6.77672e-07
0.000607354
-6.44276e-07
0.00060721
-6.96078e-07
0.000607096
-7.31539e-07
0.000606996
-7.09928e-07
0.000606914
-8.14966e-07
0.00060683
-7.28106e-07
0.000606775
-8.20692e-07
0.000606689
-7.02197e-07
0.000606612
-7.63653e-07
0.000606535
-7.20768e-07
0.000606423
-6.47972e-07
0.000606308
-7.39524e-07
0.000606188
-5.96968e-07
0.000606084
-7.33527e-07
0.000605971
-6.21614e-07
0.00060588
-7.38192e-07
0.000605824
-7.4474e-07
0.00060575
-7.15659e-07
0.000605701
-8.8006e-07
0.000605675
-6.7871e-07
0.000605644
-9.0455e-07
0.000605622
-7.87964e-07
0.000605606
-8.44362e-07
0.000605619
-8.80655e-07
0.000605583
-7.51256e-07
0.000605577
-9.67255e-07
0.000605593
-7.20447e-07
0.000605562
-8.81568e-07
0.000605562
-8.63169e-07
0.000605519
-7.34963e-07
0.000605522
-9.47132e-07
0.000605509
-6.50606e-07
0.000605447
-9.30218e-07
0.000605433
-7.13712e-07
0.000605337
-7.37924e-07
0.000605385
-8.9413e-07
0.000605276
-5.61577e-07
0.000605231
-9.34403e-07
0.000605179
-5.13813e-07
0.000605189
-8.88882e-07
0.00060497
-7.19381e-07
0.000605313
-1.12686e-06
0.000604997
8.19217e-07
-1.15721e-05
0.000607154
0.000840342
2.13133e-05
0.000842331
2.75846e-05
0.000844302
2.84417e-05
0.000845633
2.93887e-05
0.000846213
2.90446e-05
0.000845985
2.78673e-05
0.000845037
2.60104e-05
0.000843329
2.40669e-05
0.000840903
2.22183e-05
0.000837776
2.04459e-05
0.000834026
1.86965e-05
0.000829712
1.71542e-05
0.000824939
1.57755e-05
0.000819828
1.45399e-05
0.000814507
1.34102e-05
0.000809092
1.2373e-05
0.000803704
1.13854e-05
0.00079845
1.04239e-05
0.000793418
9.47542e-06
0.00078868
8.50537e-06
0.000784254
7.59896e-06
0.000780182
6.70148e-06
0.000776456
5.92707e-06
0.000773067
5.21409e-06
0.00076997
4.60088e-06
0.000767155
4.03953e-06
0.00076456
3.60158e-06
0.00076217
3.24833e-06
0.00075997
2.9149e-06
0.000757945
2.63829e-06
0.000756089
2.38783e-06
0.000754385
2.14486e-06
0.000752824
1.92142e-06
0.000751386
1.72265e-06
0.00075006
1.54766e-06
0.000748835
1.37335e-06
0.000747704
1.22875e-06
0.000746658
1.07665e-06
0.000745695
9.46437e-07
0.000744802
8.06189e-07
0.000743987
6.92662e-07
0.00074321
5.84568e-07
0.000742516
4.57702e-07
0.000741853
3.97822e-07
0.000741235
2.7491e-07
0.000740652
2.44148e-07
0.000740103
1.29524e-07
0.000739608
8.28096e-08
0.000739109
1.21341e-08
0.000738678
-5.36652e-08
0.000738238
-6.98948e-08
0.000737857
-1.96169e-07
0.000737504
-1.84692e-07
0.000737177
-3.01786e-07
0.000736905
-2.95228e-07
0.000736617
-3.8978e-07
0.000736396
-4.22738e-07
0.000736134
-4.34758e-07
0.000735924
-5.21511e-07
0.000735757
-5.42346e-07
0.000735596
-6.5486e-07
0.000735466
-5.9742e-07
0.00073534
-6.9458e-07
0.000735255
-6.17055e-07
0.000735106
-6.14986e-07
0.000734995
-6.0965e-07
0.000734858
-5.11669e-07
0.0007347
-5.81435e-07
0.000734565
-4.61947e-07
0.000734402
-5.69718e-07
0.000734296
-5.15954e-07
0.000734147
-5.89164e-07
0.000734093
-6.90781e-07
0.000734003
-6.25787e-07
0.000733905
-7.81906e-07
0.000733888
-6.61488e-07
0.000733815
-8.31807e-07
0.000733815
-7.8794e-07
0.000733757
-7.86083e-07
0.000733788
-9.11701e-07
0.000733779
-7.423e-07
0.000733721
-9.09687e-07
0.000733765
-7.63888e-07
0.000733712
-8.29088e-07
0.000733735
-8.86395e-07
0.000733696
-6.95276e-07
0.000733653
-9.04184e-07
0.000733684
-6.81883e-07
0.000733585
-8.31421e-07
0.000733623
-7.51839e-07
0.000733514
-6.29048e-07
0.000733499
-8.78484e-07
0.000733479
-5.41881e-07
0.000733355
-8.10434e-07
0.000733408
-5.66693e-07
0.00073334
-8.20552e-07
0.000733197
-5.77091e-07
0.000733429
-1.35866e-06
0.000733844
4.03915e-07
-1.06102e-05
0.000732883
0.000930295
1.80908e-05
0.000933079
2.48012e-05
0.000936234
2.52866e-05
0.000939314
2.63089e-05
0.000942131
2.62273e-05
0.000944657
2.53416e-05
0.000946786
2.38813e-05
0.000948508
2.23446e-05
0.000949818
2.09088e-05
0.000950711
1.95522e-05
0.000951158
1.82501e-05
0.000951127
1.71853e-05
0.000950718
1.61841e-05
0.000949891
1.53673e-05
0.000948628
1.46727e-05
0.000946927
1.40737e-05
0.000944788
1.3525e-05
0.000942218
1.29938e-05
0.000939238
1.24554e-05
0.000935887
1.1856e-05
0.000932207
1.12795e-05
0.000928293
1.06155e-05
0.000924256
9.96414e-06
0.000920215
9.25491e-06
0.000916219
8.59646e-06
0.000912376
7.88264e-06
0.000908726
7.25127e-06
0.00090533
6.64464e-06
0.000902176
6.0695e-06
0.00089926
5.55399e-06
0.000896576
5.07183e-06
0.000894082
4.63913e-06
0.000891754
4.24929e-06
0.000889578
3.89881e-06
0.000887544
3.58157e-06
0.000885646
3.27095e-06
0.000883884
2.99102e-06
0.00088224
2.72039e-06
0.000880731
2.45591e-06
0.000879314
2.22313e-06
0.000878036
1.96987e-06
0.000876807
1.81411e-06
0.00087569
1.57493e-06
0.000874645
1.44199e-06
0.000873675
1.24561e-06
0.000872778
1.14122e-06
0.000871927
9.80336e-07
0.000871175
8.34637e-07
0.000870403
7.83778e-07
0.000869737
6.13235e-07
0.000869075
5.91234e-07
0.000868488
3.91114e-07
0.000867957
3.46594e-07
0.000867452
2.02788e-07
0.000867036
1.21027e-07
0.000866592
5.39383e-08
0.000866236
-6.66164e-08
0.000865825
-2.3707e-08
0.00086549
-1.86517e-07
0.000865203
-2.55228e-07
0.000864936
-3.87914e-07
0.000864712
-3.73254e-07
0.000864492
-4.74972e-07
0.000864359
-4.83588e-07
0.000864119
-3.75313e-07
0.000863941
-4.31029e-07
0.000863743
-3.13914e-07
0.000863543
-3.81751e-07
0.000863359
-2.77559e-07
0.000863145
-3.56297e-07
0.000863027
-3.98105e-07
0.00086283
-3.91804e-07
0.000862754
-6.14268e-07
0.000862638
-5.10365e-07
0.000862526
-6.70281e-07
0.000862484
-6.19073e-07
0.000862391
-7.38674e-07
0.000862394
-7.9083e-07
0.000862317
-7.09144e-07
0.000862345
-9.40249e-07
0.000862343
-7.3956e-07
0.000862291
-8.58056e-07
0.000862323
-7.95817e-07
0.000862269
-7.75311e-07
0.000862302
-9.18772e-07
0.000862266
-6.59972e-07
0.000862226
-8.63911e-07
0.000862239
-6.9505e-07
0.000862152
-7.44274e-07
0.000862175
-7.74925e-07
0.00086211
-5.64174e-07
0.000862064
-8.32143e-07
0.000862067
-5.45205e-07
0.000861956
-6.99353e-07
0.00086202
-6.30381e-07
0.00086195
-7.50241e-07
0.000861895
-5.22282e-07
0.000861988
-1.4519e-06
0.000862528
-1.3635e-07
-9.30709e-06
0.000861225
0.00102962
1.48965e-05
0.00103284
2.15823e-05
0.0010364
2.17313e-05
0.00104004
2.26632e-05
0.00104357
2.26975e-05
0.00104697
2.19465e-05
0.00105012
2.07293e-05
0.00105301
1.94524e-05
0.00105566
1.82589e-05
0.00105807
1.71493e-05
0.00106022
1.60933e-05
0.00106216
1.52522e-05
0.00106386
1.44766e-05
0.00106537
1.38618e-05
0.00106667
1.33701e-05
0.00106777
1.29753e-05
0.00106865
1.26455e-05
0.0010693
1.23464e-05
0.00106968
1.20716e-05
0.00106975
1.17909e-05
0.00106951
1.15197e-05
0.00106894
1.11862e-05
0.00106801
1.08924e-05
0.0010667
1.0558e-05
0.00106504
1.0264e-05
0.00106302
9.89833e-06
0.00106072
9.55642e-06
0.00105818
9.18017e-06
0.00105547
8.77657e-06
0.00105266
8.36827e-06
0.00104976
7.97329e-06
0.00104688
7.51344e-06
0.00104404
7.09557e-06
0.00104129
6.64765e-06
0.00103863
6.23639e-06
0.0010361
5.80672e-06
0.0010337
5.39203e-06
0.00103141
5.00982e-06
0.00102928
4.57802e-06
0.00102724
4.27216e-06
0.00102537
3.83793e-06
0.00102354
3.63892e-06
0.00102182
3.29278e-06
0.0010202
3.06275e-06
0.00101868
2.76976e-06
0.00101729
2.53248e-06
0.00101594
2.33125e-06
0.00101475
2.0181e-06
0.00101353
2.0048e-06
0.00101246
1.68209e-06
0.00101145
1.60278e-06
0.00101051
1.33704e-06
0.00100967
1.17972e-06
0.00100885
1.02718e-06
0.00100818
7.94155e-07
0.00100743
7.95116e-07
0.00100681
5.58607e-07
0.00100616
6.24275e-07
0.00100558
3.96242e-07
0.00100506
2.67482e-07
0.00100455
1.21678e-07
0.00100417
7.40529e-09
0.00100371
-2.30482e-08
0.00100341
-1.76413e-07
0.001003
3.63999e-08
0.00100265
-8.86242e-08
0.00100236
-2.04078e-08
0.00100205
-6.84205e-08
0.00100182
-5.1944e-08
0.00100152
-5.74093e-08
0.00100139
-2.7036e-07
0.00100116
-1.54999e-07
0.001001
-4.59396e-07
0.00100089
-3.9776e-07
0.00100074
-5.17177e-07
0.0010007
-5.82632e-07
0.00100059
-6.25402e-07
0.0010006
-8.07129e-07
0.00100053
-6.32761e-07
0.00100049
-9.06494e-07
0.00100053
-7.72887e-07
0.00100047
-7.97479e-07
0.00100051
-8.44907e-07
0.00100046
-7.25229e-07
0.00100046
-9.19067e-07
0.00100049
-6.82256e-07
0.00100044
-8.12517e-07
0.00100048
-7.37754e-07
0.00100041
-6.76653e-07
0.00100042
-7.88668e-07
0.00100043
-5.71785e-07
0.00100036
-7.64184e-07
0.00100045
-6.26535e-07
0.00100034
-5.92792e-07
0.00100036
-6.49248e-07
0.00100037
-7.6612e-07
0.00100041
-5.56195e-07
0.00100043
-1.47394e-06
0.00100092
-6.26067e-07
-8.28564e-06
0.000999898
0.00113955
1.17867e-05
0.00114322
1.79068e-05
0.00114711
1.7847e-05
0.00115114
1.86315e-05
0.0011551
1.87305e-05
0.00115895
1.80961e-05
0.00116259
1.70974e-05
0.00116599
1.60471e-05
0.00116919
1.50597e-05
0.00117219
1.41486e-05
0.001175
1.32866e-05
0.00117765
1.26006e-05
0.00118015
1.19795e-05
0.00118252
1.14904e-05
0.00118478
1.11087e-05
0.00118694
1.08142e-05
0.00118901
1.05761e-05
0.00119098
1.03727e-05
0.00119286
1.0191e-05
0.00119464
1.00189e-05
0.0011963
9.85896e-06
0.00119782
9.6631e-06
0.00119921
9.49795e-06
0.00120044
9.3298e-06
0.00120151
9.19775e-06
0.00120237
9.03491e-06
0.00120302
8.9077e-06
0.00120345
8.7526e-06
0.0012036
8.62628e-06
0.00120347
8.49342e-06
0.0012031
8.34448e-06
0.00120247
8.14243e-06
0.0012016
7.97126e-06
0.0012005
7.74652e-06
0.00119919
7.54344e-06
0.00119771
7.29163e-06
0.00119607
7.02796e-06
0.00119431
6.77442e-06
0.00119246
6.42051e-06
0.00119052
6.21955e-06
0.00118859
5.76802e-06
0.00118661
5.61274e-06
0.00118468
5.23026e-06
0.00118279
4.95205e-06
0.0011809
4.65331e-06
0.00117918
4.25683e-06
0.00117738
4.13152e-06
0.00117579
3.60685e-06
0.00117416
3.63226e-06
0.00117267
3.17307e-06
0.00117131
2.96311e-06
0.00116992
2.72946e-06
0.00116872
2.37448e-06
0.00116745
2.29763e-06
0.00116635
1.89868e-06
0.00116519
1.95863e-06
0.00116414
1.60155e-06
0.00116315
1.61262e-06
0.00116218
1.36731e-06
0.00116132
1.13105e-06
0.00116042
1.02387e-06
0.00115971
7.19e-07
0.00115885
8.28496e-07
0.0011582
4.7714e-07
0.00115752
7.20439e-07
0.0011569
5.25494e-07
0.00115644
4.38962e-07
0.00115594
4.36301e-07
0.00115567
2.17851e-07
0.00115524
3.75785e-07
0.001155
-3.93155e-08
0.00115477
7.96939e-08
0.00115455
-2.41062e-07
0.00115444
-2.87232e-07
0.00115424
-3.19007e-07
0.00115424
-5.76628e-07
0.0011541
-4.91061e-07
0.00115408
-7.90052e-07
0.00115407
-6.12861e-07
0.00115399
-8.33231e-07
0.00115405
-8.3364e-07
0.00115396
-7.07861e-07
0.00115403
-9.1222e-07
0.00115405
-7.49457e-07
0.00115402
-8.83537e-07
0.00115409
-7.48596e-07
0.00115402
-7.49382e-07
0.00115411
-8.2247e-07
0.00115411
-6.81971e-07
0.00115414
-8.13073e-07
0.00115421
-6.48718e-07
0.00115415
-6.96539e-07
0.0011543
-7.79733e-07
0.00115428
-5.70162e-07
0.00115428
-6.48307e-07
0.00115436
-8.45932e-07
0.00115446
-6.61e-07
0.00115453
-1.54597e-06
0.00115498
-1.07238e-06
-7.54441e-06
0.00115424
0.0012613
8.72222e-06
0.00126542
1.37832e-05
0.00126966
1.36076e-05
0.00127409
1.42053e-05
0.00127848
1.43368e-05
0.00128274
1.38325e-05
0.00128678
1.30613e-05
0.00129058
1.22446e-05
0.00129417
1.14705e-05
0.00129756
1.07612e-05
0.00130075
1.00942e-05
0.00130379
9.56104e-06
0.00130669
9.08277e-06
0.00130947
8.70423e-06
0.00131217
8.41123e-06
0.00131479
8.19044e-06
0.00131736
8.01135e-06
0.00131986
7.86736e-06
0.00132232
7.73433e-06
0.00132472
7.61998e-06
0.00132707
7.50899e-06
0.00132936
7.37577e-06
0.00133159
7.26148e-06
0.00133377
7.15243e-06
0.0013359
7.06909e-06
0.00133796
6.9773e-06
0.00133996
6.90322e-06
0.00134188
6.82977e-06
0.00134375
6.76396e-06
0.00134551
6.73411e-06
0.00134718
6.66514e-06
0.00134873
6.59877e-06
0.00135018
6.52421e-06
0.00135146
6.46157e-06
0.00135262
6.3863e-06
0.0013536
6.30913e-06
0.0013544
6.22459e-06
0.00135505
6.1325e-06
0.00135545
6.01957e-06
0.00135571
5.95676e-06
0.00135568
5.79668e-06
0.00135555
5.73876e-06
0.00135523
5.55908e-06
0.00135478
5.39619e-06
0.00135414
5.29788e-06
0.00135339
5.00685e-06
0.00135252
5.00086e-06
0.00135152
4.60917e-06
0.00135049
4.66061e-06
0.00134931
4.34666e-06
0.00134818
4.09449e-06
0.0013469
4.01246e-06
0.00134568
3.59455e-06
0.00134436
3.61481e-06
0.0013431
3.1565e-06
0.00134189
3.17059e-06
0.00134066
2.82957e-06
0.00133957
2.70744e-06
0.0013384
2.53267e-06
0.00133737
2.16759e-06
0.0013362
2.19224e-06
0.00133518
1.73479e-06
0.00133409
1.92498e-06
0.00133311
1.45273e-06
0.00133225
1.5847e-06
0.00133134
1.42743e-06
0.00133076
1.02045e-06
0.00132999
1.20585e-06
0.0013295
7.06939e-07
0.00132911
7.73581e-07
0.00132875
3.22353e-07
0.00132852
3.01378e-07
0.00132823
5.15924e-08
0.00132819
-2.44013e-07
0.00132799
-1.20327e-07
0.00132794
-5.28499e-07
0.0013279
-4.50626e-07
0.00132783
-7.1815e-07
0.00132788
-6.63924e-07
0.00132778
-7.29921e-07
0.0013279
-9.60629e-07
0.00132788
-6.87872e-07
0.00132788
-9.12032e-07
0.00132799
-8.54694e-07
0.00132795
-8.49924e-07
0.00132807
-8.67715e-07
0.00132804
-7.19188e-07
0.00132811
-8.9061e-07
0.00132818
-7.46927e-07
0.0013282
-8.41411e-07
0.00132836
-8.0008e-07
0.00132832
-6.56278e-07
0.00132844
-9.06886e-07
0.00132856
-6.83445e-07
0.0013286
-6.89966e-07
0.00132867
-9.1623e-07
0.00132885
-8.38384e-07
0.00132894
-1.64339e-06
0.00132938
-1.51371e-06
-7.00168e-06
0.00132884
0.00139614
5.65878e-06
0.00140075
9.18007e-06
0.00140539
8.96186e-06
0.00141024
9.35502e-06
0.0014151
9.47473e-06
0.00141982
9.11894e-06
0.00142428
8.59659e-06
0.00142849
8.03424e-06
0.00143247
7.49349e-06
0.00143623
7.00466e-06
0.00143977
6.54734e-06
0.00144316
6.17976e-06
0.00144639
5.85141e-06
0.0014495
5.58956e-06
0.00145252
5.3874e-06
0.00145548
5.23899e-06
0.00145837
5.11782e-06
0.00146121
5.02651e-06
0.00146401
4.93779e-06
0.00146676
4.86885e-06
0.00146947
4.80002e-06
0.00147213
4.71157e-06
0.00147476
4.6338e-06
0.00147735
4.55954e-06
0.00147992
4.50593e-06
0.00148245
4.44758e-06
0.00148495
4.39967e-06
0.00148742
4.35448e-06
0.00148987
4.31365e-06
0.0014923
4.30923e-06
0.00149469
4.26942e-06
0.00149705
4.23981e-06
0.00149938
4.19453e-06
0.00150167
4.17641e-06
0.00150392
4.13626e-06
0.00150612
4.11176e-06
0.00150826
4.08102e-06
0.00151035
4.03866e-06
0.00151235
4.02474e-06
0.00151435
3.95504e-06
0.00151618
3.96879e-06
0.00151802
3.89418e-06
0.0015197
3.88566e-06
0.0015213
3.78808e-06
0.00152281
3.79466e-06
0.00152409
3.72532e-06
0.00152542
3.66741e-06
0.00152637
3.66446e-06
0.00152751
3.52028e-06
0.00152829
3.56218e-06
0.00152893
3.45795e-06
0.00152951
3.43051e-06
0.00152983
3.27542e-06
0.00153016
3.27946e-06
0.00153016
3.15927e-06
0.00153023
3.1056e-06
0.00153001
3.04434e-06
0.00152987
2.85137e-06
0.00152956
2.84566e-06
0.00152919
2.53713e-06
0.00152874
2.63889e-06
0.00152815
2.32074e-06
0.00152769
2.38812e-06
0.00152686
2.27775e-06
0.00152631
2.14368e-06
0.00152549
2.24104e-06
0.00152484
1.67263e-06
0.0015243
1.74916e-06
0.00152379
1.21353e-06
0.00152356
1.00838e-06
0.00152315
7.22942e-07
0.00152315
3.10139e-07
0.00152286
3.33277e-07
0.00152284
-2.15309e-07
0.00152284
-1.20481e-07
0.00152282
-5.1382e-07
0.00152296
-5.8745e-07
0.00152288
-6.35392e-07
0.0015231
-8.93044e-07
0.00152301
-6.30763e-07
0.00152309
-1.04581e-06
0.00152325
-8.42546e-07
0.00152322
-8.87713e-07
0.00152335
-9.79734e-07
0.0015233
-8.0197e-07
0.0015234
-9.7006e-07
0.00152344
-7.54466e-07
0.00152345
-9.09434e-07
0.00152353
-8.19515e-07
0.00152351
-8.24184e-07
0.00152361
-8.99894e-07
0.00152363
-6.77408e-07
0.0015236
-8.8051e-07
0.00152373
-8.09883e-07
0.00152381
-7.7141e-07
0.00152381
-9.1888e-07
0.00152395
-9.78031e-07
0.001524
-1.6923e-06
0.00152441
-1.91577e-06
-6.55199e-06
0.00152396
0.00154551
2.52765e-06
0.00155064
4.05036e-06
0.00155576
3.84839e-06
0.00156107
4.03897e-06
0.00156645
4.0934e-06
0.00157167
3.90516e-06
0.0015766
3.65829e-06
0.00158126
3.37392e-06
0.00158567
3.09004e-06
0.00158983
2.84541e-06
0.00159376
2.61807e-06
0.0015975
2.43525e-06
0.00160108
2.27055e-06
0.00160453
2.13771e-06
0.00160789
2.03586e-06
0.00161116
1.96521e-06
0.00161437
1.90808e-06
0.00161752
1.87079e-06
0.00162063
1.83083e-06
0.00162369
1.80726e-06
0.00162671
1.78298e-06
0.00162968
1.73882e-06
0.00163262
1.69595e-06
0.00163552
1.65628e-06
0.0016384
1.63012e-06
0.00164125
1.59963e-06
0.00164407
1.57481e-06
0.00164688
1.54816e-06
0.00164966
1.52837e-06
0.00165244
1.53574e-06
0.00165519
1.51821e-06
0.00165793
1.50327e-06
0.00166064
1.47958e-06
0.00166334
1.47555e-06
0.00166602
1.45773e-06
0.00166868
1.45047e-06
0.00167132
1.44143e-06
0.00167394
1.42094e-06
0.00167653
1.42874e-06
0.00167911
1.37828e-06
0.00168166
1.41835e-06
0.00168418
1.37281e-06
0.00168668
1.38671e-06
0.00168914
1.33412e-06
0.00169158
1.35164e-06
0.00169395
1.35517e-06
0.00169634
1.28123e-06
0.00169863
1.37218e-06
0.00170093
1.21459e-06
0.00170317
1.32913e-06
0.00170535
1.27736e-06
0.00170749
1.28895e-06
0.0017095
1.26704e-06
0.00171154
1.23906e-06
0.00171336
1.339e-06
0.00171529
1.17821e-06
0.00171699
1.34353e-06
0.0017187
1.13623e-06
0.00172028
1.26635e-06
0.0017217
1.11408e-06
0.00172315
1.19308e-06
0.00172425
1.22175e-06
0.00172557
1.06956e-06
0.00172647
1.37138e-06
0.00172755
1.06506e-06
0.00172845
1.33803e-06
0.00172909
1.04062e-06
0.00172977
1.06274e-06
0.0017302
7.8231e-07
0.00173074
4.7402e-07
0.00173092
5.38121e-07
0.00173131
-7.90858e-08
0.00173156
8.55529e-08
0.00173174
-3.93591e-07
0.001732
-3.78012e-07
0.00173207
-5.85778e-07
0.00173228
-8.00898e-07
0.00173229
-6.41134e-07
0.00173242
-1.02221e-06
0.00173252
-7.38652e-07
0.00173248
-9.96411e-07
0.00173257
-9.42027e-07
0.00173256
-8.7291e-07
0.00173258
-1.00109e-06
0.00173262
-8.37931e-07
0.00173259
-9.47648e-07
0.00173265
-8.07295e-07
0.00173261
-8.74347e-07
0.00173268
-8.83473e-07
0.00173266
-8.04165e-07
0.00173263
-8.68675e-07
0.00173271
-7.59652e-07
0.00173262
-7.89958e-07
0.00173265
-8.40654e-07
0.00173268
-8.0539e-07
0.00173269
-9.2723e-07
0.00173274
-1.02426e-06
0.00173267
-1.62636e-06
0.00173295
-2.1956e-06
-6.09364e-06
0.00173249
0.001711
-7.93706e-07
0.00171671
-1.65185e-06
0.00172235
-1.79831e-06
0.0017282
-1.81279e-06
0.00173416
-1.86522e-06
0.00173993
-1.8654e-06
0.0017454
-1.80461e-06
0.00175056
-1.78545e-06
0.00175543
-1.78621e-06
0.00176004
-1.75927e-06
0.00176439
-1.73403e-06
0.00176853
-1.71039e-06
0.0017725
-1.69488e-06
0.00177632
-1.68499e-06
0.00178003
-1.67523e-06
0.00178366
-1.66031e-06
0.00178721
-1.64623e-06
0.00179071
-1.6239e-06
0.00179415
-1.60999e-06
0.00179754
-1.58305e-06
0.00180088
-1.55815e-06
0.00180417
-1.55531e-06
0.00180743
-1.55953e-06
0.00181065
-1.56192e-06
0.00181384
-1.55796e-06
0.001817
-1.55961e-06
0.00182013
-1.56079e-06
0.00182325
-1.56885e-06
0.00182634
-1.56654e-06
0.00182942
-1.5457e-06
0.00183249
-1.54476e-06
0.00183554
-1.54506e-06
0.00183857
-1.54921e-06
0.00184158
-1.54009e-06
0.00184458
-1.53727e-06
0.00184756
-1.53138e-06
0.00185052
-1.52361e-06
0.00185347
-1.52609e-06
0.00185641
-1.50905e-06
0.00185931
-1.52854e-06
0.00186222
-1.48793e-06
0.00186509
-1.5007e-06
0.00186796
-1.48397e-06
0.0018708
-1.50078e-06
0.00187364
-1.48469e-06
0.00187645
-1.4548e-06
0.00187923
-1.50688e-06
0.00188203
-1.42514e-06
0.00188476
-1.5162e-06
0.00188753
-1.43395e-06
0.00189023
-1.42643e-06
0.00189294
-1.42044e-06
0.00189561
-1.4001e-06
0.00189826
-1.41724e-06
0.00190091
-1.31417e-06
0.00190352
-1.42237e-06
0.00190613
-1.2697e-06
0.00190863
-1.36753e-06
0.00191116
-1.25764e-06
0.00191356
-1.28966e-06
0.00191599
-1.23841e-06
0.00191837
-1.15623e-06
0.00192077
-1.3304e-06
0.00192322
-1.07923e-06
0.00192562
-1.3365e-06
0.00192811
-1.15204e-06
0.00193035
-1.19978e-06
0.00193254
-1.12751e-06
0.00193436
-1.0329e-06
0.001936
-1.16901e-06
0.00193739
-8.55147e-07
0.00193831
-9.97454e-07
0.00193915
-7.54142e-07
0.0019396
-8.38826e-07
0.00194004
-8.24821e-07
0.00194022
-7.65852e-07
0.0019403
-8.78888e-07
0.00194041
-7.46827e-07
0.00194033
-9.46527e-07
0.00194039
-7.9561e-07
0.00194024
-8.4832e-07
0.00194019
-8.91748e-07
0.00194012
-8.02887e-07
0.00194003
-9.08744e-07
0.00194
-8.05932e-07
0.00193991
-8.65697e-07
0.00193991
-8.07632e-07
0.00193985
-8.13765e-07
0.00193987
-9.02129e-07
0.00193984
-7.67445e-07
0.00193982
-8.49163e-07
0.00193984
-7.80413e-07
0.00193983
-7.7933e-07
0.00193983
-8.45263e-07
0.00193982
-7.95975e-07
0.00193986
-9.66089e-07
0.00193986
-1.02014e-06
0.00193982
-1.59127e-06
0.00193993
-2.30061e-06
-5.5856e-06
0.00193942
0.00171104
-4.14942e-06
0.00171675
-7.36635e-06
0.0017224
-7.44873e-06
0.00172826
-7.6704e-06
0.00173422
-7.82797e-06
0.00174
-7.63694e-06
0.00174546
-7.26518e-06
0.00175062
-6.94571e-06
0.00175549
-6.66398e-06
0.0017601
-6.36337e-06
0.00176445
-6.08708e-06
0.0017686
-5.85592e-06
0.00177256
-5.66033e-06
0.00177639
-5.50814e-06
0.0017801
-5.3867e-06
0.00178372
-5.28615e-06
0.00178728
-5.20112e-06
0.00179077
-5.11838e-06
0.00179421
-5.05234e-06
0.0017976
-4.97289e-06
0.00180094
-4.89873e-06
0.00180424
-4.84997e-06
0.00180749
-4.81454e-06
0.00181071
-4.78122e-06
0.0018139
-4.7459e-06
0.00181706
-4.71906e-06
0.0018202
-4.69603e-06
0.00182331
-4.68688e-06
0.00182641
-4.66167e-06
0.00182949
-4.6263e-06
0.00183255
-4.60797e-06
0.0018356
-4.59292e-06
0.00183863
-4.57802e-06
0.00184164
-4.55417e-06
0.00184464
-4.53203e-06
0.00184762
-4.5116e-06
0.00185058
-4.48759e-06
0.00185353
-4.46976e-06
0.00185646
-4.4448e-06
0.00185937
-4.43276e-06
0.00186227
-4.38744e-06
0.00186514
-4.37223e-06
0.001868
-4.34667e-06
0.00187083
-4.3316e-06
0.00187366
-4.30942e-06
0.00187646
-4.25918e-06
0.00187923
-4.28035e-06
0.00188202
-4.20872e-06
0.00188474
-4.23938e-06
0.00188748
-4.17063e-06
0.00189017
-4.11801e-06
0.00189284
-4.09603e-06
0.00189549
-4.047e-06
0.00189812
-4.04554e-06
0.00190075
-3.93988e-06
0.0019033
-3.98141e-06
0.00190586
-3.83015e-06
0.00190833
-3.8286e-06
0.00191079
-3.71758e-06
0.00191313
-3.63461e-06
0.00191548
-3.58952e-06
0.0019178
-3.47231e-06
0.0019201
-3.6296e-06
0.00192246
-3.44532e-06
0.00192474
-3.61647e-06
0.00192707
-3.48246e-06
0.0019292
-3.32521e-06
0.00193127
-3.20054e-06
0.00193301
-2.76844e-06
0.0019345
-2.65954e-06
0.0019358
-2.1536e-06
0.0019367
-1.90065e-06
0.00193748
-1.5354e-06
0.00193794
-1.30219e-06
0.00193833
-1.20649e-06
0.00193851
-9.53086e-07
0.00193863
-9.94982e-07
0.00193871
-8.29793e-07
0.00193869
-9.19996e-07
0.00193867
-7.76376e-07
0.00193861
-7.87887e-07
0.00193852
-8.10628e-07
0.00193846
-7.35558e-07
0.00193839
-8.44276e-07
0.00193832
-7.31253e-07
0.0019383
-8.47093e-07
0.00193824
-7.43218e-07
0.00193823
-8.06707e-07
0.00193819
-8.61822e-07
0.00193819
-7.64412e-07
0.00193818
-8.45507e-07
0.00193816
-7.55618e-07
0.0019382
-8.25293e-07
0.00193813
-7.72881e-07
0.00193819
-8.53945e-07
0.00193817
-9.45513e-07
0.00193817
-1.02491e-06
0.00193814
-1.56147e-06
0.0019381
-2.26114e-06
-5.14488e-06
0.00193766
0.0015456
-7.37357e-06
0.00155077
-1.25267e-05
0.00155589
-1.25726e-05
0.00156122
-1.30017e-05
0.00156661
-1.322e-05
0.00157183
-1.28535e-05
0.00157676
-1.21974e-05
0.00158142
-1.16084e-05
0.00158583
-1.10712e-05
0.00158999
-1.0521e-05
0.00159392
-1.00188e-05
0.00159766
-9.59977e-06
0.00160125
-9.24154e-06
0.0016047
-8.96074e-06
0.00160805
-8.73957e-06
0.00161133
-8.56049e-06
0.00161454
-8.41234e-06
0.00161769
-8.27386e-06
0.0016208
-8.16244e-06
0.00162386
-8.03352e-06
0.00162688
-7.91366e-06
0.00162985
-7.82328e-06
0.00163279
-7.75124e-06
0.00163569
-7.68572e-06
0.00163857
-7.62001e-06
0.00164141
-7.56579e-06
0.00164423
-7.51748e-06
0.00164704
-7.49287e-06
0.00164982
-7.4439e-06
0.00165259
-7.39301e-06
0.00165534
-7.35534e-06
0.00165807
-7.32177e-06
0.00166077
-7.28587e-06
0.00166346
-7.24358e-06
0.00166613
-7.20068e-06
0.00166878
-7.15855e-06
0.0016714
-7.11266e-06
0.001674
-7.06477e-06
0.00167658
-7.02422e-06
0.00167912
-6.97316e-06
0.00168164
-6.90623e-06
0.00168412
-6.85549e-06
0.00168657
-6.79229e-06
0.00168898
-6.74108e-06
0.00169134
-6.6723e-06
0.00169367
-6.58952e-06
0.00169594
-6.55095e-06
0.00169817
-6.44278e-06
0.00170033
-6.39421e-06
0.00170243
-6.27582e-06
0.00170447
-6.15353e-06
0.00170641
-6.03579e-06
0.00170831
-5.9485e-06
0.00171009
-5.8228e-06
0.00171179
-5.64471e-06
0.00171338
-5.5712e-06
0.00171488
-5.32867e-06
0.00171627
-5.21786e-06
0.00171751
-4.95973e-06
0.00171868
-4.80257e-06
0.00171972
-4.62947e-06
0.00172064
-4.39441e-06
0.00172143
-4.41797e-06
0.00172214
-4.15664e-06
0.00172271
-4.18381e-06
0.00172317
-3.94662e-06
0.0017236
-3.75676e-06
0.00172392
-3.51801e-06
0.00172426
-3.10643e-06
0.00172449
-2.88685e-06
0.00172474
-2.40719e-06
0.00172494
-2.10399e-06
0.00172511
-1.69878e-06
0.0017253
-1.4956e-06
0.00172538
-1.28936e-06
0.00172555
-1.12284e-06
0.00172563
-1.07115e-06
0.00172573
-9.28358e-07
0.00172578
-9.66921e-07
0.00172581
-8.10871e-07
0.00172586
-8.33906e-07
0.00172582
-7.75073e-07
0.00172588
-7.90768e-07
0.00172581
-7.82654e-07
0.00172585
-7.64847e-07
0.00172584
-8.43046e-07
0.00172585
-7.45636e-07
0.00172588
-8.39403e-07
0.00172582
-8.07774e-07
0.00172588
-8.24341e-07
0.00172581
-7.72807e-07
0.00172586
-8.06445e-07
0.00172586
-8.27072e-07
0.00172587
-7.79218e-07
0.00172591
-8.94866e-07
0.00172586
-8.91769e-07
0.00172591
-1.07446e-06
0.00172577
-1.42759e-06
0.00172573
-2.21473e-06
-4.63143e-06
0.00172521
0.00139628
-1.05773e-05
0.00140093
-1.71741e-05
0.00140559
-1.72362e-05
0.00141046
-1.78697e-05
0.00141534
-1.80968e-05
0.00142006
-1.75714e-05
0.00142451
-1.66534e-05
0.00142873
-1.58224e-05
0.00143271
-1.50531e-05
0.00143646
-1.42753e-05
0.00144001
-1.3569e-05
0.00144339
-1.29795e-05
0.00144663
-1.24738e-05
0.00144974
-1.20753e-05
0.00145277
-1.17652e-05
0.00145572
-1.15112e-05
0.00145861
-1.13059e-05
0.00146145
-1.11121e-05
0.00146424
-1.09589e-05
0.00146699
-1.07801e-05
0.00146969
-1.06142e-05
0.00147235
-1.0481e-05
0.00147497
-1.03721e-05
0.00147756
-1.02703e-05
0.00148011
-1.01708e-05
0.00148262
-1.00834e-05
0.00148511
-1.0001e-05
0.00148757
-9.95356e-06
0.00148999
-9.86837e-06
0.00149239