/*--------------------------------*- C++ -*----------------------------------*\
| =========                 |                                                 |
| \\      /  F ield         | OpenFOAM: The Open Source CFD Toolbox           |
|  \\    /   O peration     | Version:  v2012                                 |
|   \\  /    A nd           | Website:  www.openfoam.com                      |
|    \\/     M anipulation  |                                                 |
\*---------------------------------------------------------------------------*/
FoamFile
{
    version     2.0;
    format      ascii;
    class       vectorField;
    location    "0.034/lagrangian/kinematicCloud";
    object      U;
}
// * * * * * * * * * * * * * * * * * * * * * * * * * * * * * * * * * * * * * //


37
(
(10.1964 0.000385865 0)
(10.2534 -0.000247285 0)
(10.2648 -0.000594859 0)
(10.2764 0.000964881 0)
(10.2835 -0.00199329 0)
(10.2883 -0.00114422 0)
(8.78499 0.000481447 0)
(10.2782 -0.00427687 0)
(10.2917 -0.00464268 0)
(10.3124 0.00200845 0)
(10.3115 0.000784471 0)
(10.3171 0.00386693 0)
(9.89405 -0.00445477 0)
(9.94221 0.00327221 0)
(10.1149 -0.00442277 0)
(10.3403 4.94907e-05 0)
(10.3326 0.00423503 0)
(10.2774 -0.00445356 0)
(10.3627 0.00301457 0)
(10.3615 -0.00431661 0)
(10.3698 -0.00259778 0)
(10.3553 -0.00426117 0)
(10.3859 -0.00244909 0)
(10.3944 0.00270614 0)
(10.3937 0.000856295 0)
(10.4027 -0.00188384 0)
(10.4121 0.00243638 0)
(10.4134 -0.00219194 0)
(10.3939 0.00257517 0)
(10.4233 -0.0020643 0)
(9.3483 0.000235421 0)
(10.4416 0.00161872 0)
(10.3889 -0.00139364 0)
(10.466 -0.000129049 0)
(10.467 0.000460396 0)
(10.4775 -0.000244627 0)
(10.4891 5.53073e-05 0)
)


// ************************************************************************* //
