/*--------------------------------*- C++ -*----------------------------------*\
| =========                 |                                                 |
| \\      /  F ield         | OpenFOAM: The Open Source CFD Toolbox           |
|  \\    /   O peration     | Version:  v2012                                 |
|   \\  /    A nd           | Website:  www.openfoam.com                      |
|    \\/     M anipulation  |                                                 |
\*---------------------------------------------------------------------------*/
FoamFile
{
    version     2.0;
    format      ascii;
    class       vectorField;
    location    "0.034/lagrangian/kinematicCloud";
    object      UCorrect;
}
// * * * * * * * * * * * * * * * * * * * * * * * * * * * * * * * * * * * * * //


37
(
(0 0 0)
(4.74144e-28 1.63196e-30 0)
(4.86555e-28 5.50417e-31 0)
(0 0 0)
(6.8589e-28 -2.45083e-30 0)
(5.12548e-28 2.11906e-32 0)
(0 0 0)
(0 0 0)
(0 0 0)
(6.13971e-28 -1.19485e-30 0)
(0 0 0)
(2.21853e-31 -2.01214e-33 0)
(0 0 0)
(8.32012e-27 3.28317e-30 0)
(0 0 0)
(0 0 0)
(1.94146e-27 -2.85961e-29 0)
(4.16056e-27 2.6647e-29 0)
(0 0 0)
(1.39638e-27 3.77572e-29 0)
(9.82971e-28 1.99375e-29 0)
(0 0 0)
(1.07402e-27 2.49214e-29 0)
(1.39056e-27 -3.82162e-29 0)
(0 0 0)
(4.87201e-32 1.08346e-33 0)
(1.74167e-27 -5.27002e-29 0)
(0 0 0)
(0 0 0)
(0 0 0)
(0 0 0)
(2.34474e-27 -7.47698e-29 0)
(0 0 0)
(1.16504e-27 6.2066e-30 0)
(0 0 0)
(1.47428e-27 2.32225e-29 0)
(0 0 0)
)


// ************************************************************************* //
