/*--------------------------------*- C++ -*----------------------------------*\
| =========                 |                                                 |
| \\      /  F ield         | OpenFOAM: The Open Source CFD Toolbox           |
|  \\    /   O peration     | Version:  v2012                                 |
|   \\  /    A nd           | Website:  www.openfoam.com                      |
|    \\/     M anipulation  |                                                 |
\*---------------------------------------------------------------------------*/
FoamFile
{
    version     2.0;
    format      ascii;
    class       volVectorField;
    location    "0.289";
    object      U.air;
}
// * * * * * * * * * * * * * * * * * * * * * * * * * * * * * * * * * * * * * //

dimensions      [0 1 -1 0 0 0 0];


internalField   nonuniform List<vector> 
5600
(
(9.20613 0.00896206 0)
(8.8352 0.0172471 0)
(8.45632 0.0174904 0)
(8.07868 0.0144925 0)
(7.73109 0.00998291 0)
(7.4205 0.00526853 0)
(7.15479 0.000856504 0)
(6.93565 -0.00267091 0)
(6.75368 -0.00525179 0)
(6.60559 -0.00717332 0)
(6.48874 -0.00847245 0)
(6.39643 -0.00921715 0)
(6.32527 -0.00951499 0)
(6.26884 -0.00946665 0)
(6.22517 -0.00919439 0)
(6.18925 -0.00879076 0)
(6.16067 -0.00834083 0)
(6.13585 -0.00787995 0)
(6.11551 -0.00748106 0)
(6.09699 -0.00722068 0)
(6.08194 -0.00699366 0)
(6.068 -0.00680946 0)
(6.0572 -0.00671228 0)
(6.04746 -0.0066195 0)
(6.04033 -0.0065177 0)
(6.03359 -0.00638387 0)
(6.02889 -0.00626595 0)
(6.02418 -0.00613814 0)
(6.0208 -0.00601836 0)
(6.01724 -0.00588203 0)
(6.01419 -0.00575101 0)
(6.01083 -0.00561747 0)
(6.0077 -0.00552213 0)
(6.00432 -0.00544878 0)
(6.00123 -0.00538554 0)
(5.99788 -0.00533101 0)
(5.9949 -0.00527825 0)
(5.99165 -0.00523271 0)
(5.98886 -0.00518706 0)
(5.9858 -0.00514594 0)
(5.98327 -0.00510483 0)
(5.9805 -0.00506341 0)
(5.97827 -0.00502047 0)
(5.9758 -0.00498815 0)
(5.97396 -0.00495593 0)
(5.9719 -0.00494017 0)
(5.97045 -0.00493052 0)
(5.96869 -0.00492937 0)
(5.96762 -0.00492527 0)
(5.96608 -0.00492249 0)
(5.96522 -0.0049266 0)
(5.96401 -0.00493708 0)
(5.96331 -0.00493492 0)
(5.96227 -0.00493887 0)
(5.9618 -0.00495139 0)
(5.96098 -0.00498707 0)
(5.96077 -0.00500896 0)
(5.96018 -0.00504414 0)
(5.96019 -0.00507902 0)
(5.95996 -0.00511856 0)
(5.96016 -0.00513937 0)
(5.96011 -0.00516961 0)
(5.96059 -0.00519432 0)
(5.96073 -0.00522572 0)
(5.96144 -0.0052493 0)
(5.96178 -0.00527937 0)
(5.96273 -0.00529561 0)
(5.96324 -0.00532263 0)
(5.96442 -0.00533521 0)
(5.96507 -0.0053585 0)
(5.9665 -0.00537187 0)
(5.96729 -0.00539317 0)
(5.96896 -0.00540487 0)
(5.96987 -0.00542342 0)
(5.97177 -0.00543553 0)
(5.97279 -0.00545208 0)
(5.97494 -0.0054625 0)
(5.97604 -0.00547661 0)
(5.97842 -0.00548583 0)
(5.97961 -0.00549714 0)
(5.98219 -0.0055059 0)
(5.98346 -0.00551174 0)
(5.98617 -0.00552218 0)
(5.98755 -0.00552071 0)
(5.9903 -0.0055349 0)
(5.99186 -0.00552456 0)
(5.99449 -0.00555447 0)
(5.99648 -0.00552458 0)
(5.9987 -0.00560289 0)
(6.00186 -0.00553373 0)
(6.003 -0.00563454 0)
(6.00774 -0.00551623 0)
(6.00705 -0.00565518 0)
(6.01391 -0.00544851 0)
(6.0103 -0.00577477 0)
(6.02194 -0.00540136 0)
(6.01297 -0.0059337 0)
(6.03323 -0.00659496 0)
(6.03768 -0.00351247 0)
(5.96902 -0.0148784 0)
(9.39288 0.036566 0)
(9.38797 0.038181 0)
(9.35657 0.0375773 0)
(9.29944 0.0376155 0)
(9.22387 0.0368826 0)
(9.1356 0.0351033 0)
(9.03685 0.0325836 0)
(8.93106 0.0296845 0)
(8.82342 0.0268036 0)
(8.71569 0.0238889 0)
(8.61176 0.0210232 0)
(8.51218 0.0184203 0)
(8.41939 0.01613 0)
(8.3329 0.0141321 0)
(8.25439 0.0124474 0)
(8.18255 0.0110466 0)
(8.11857 0.00988813 0)
(8.06065 0.0089419 0)
(8.00969 0.00813109 0)
(7.9643 0.00738179 0)
(7.92502 0.00673299 0)
(7.89061 0.00616035 0)
(7.86076 0.00568609 0)
(7.83319 0.00527274 0)
(7.80939 0.00488559 0)
(7.7871 0.00452714 0)
(7.76811 0.00420937 0)
(7.7493 0.00394742 0)
(7.73292 0.00371055 0)
(7.71656 0.00351767 0)
(7.70232 0.00335454 0)
(7.68812 0.00320364 0)
(7.67587 0.00309706 0)
(7.66374 0.0030119 0)
(7.65337 0.00293721 0)
(7.64296 0.00286205 0)
(7.63406 0.00279481 0)
(7.62509 0.00272141 0)
(7.61743 0.00265489 0)
(7.60969 0.00258044 0)
(7.60314 0.00250675 0)
(7.59651 0.00243136 0)
(7.59092 0.00235438 0)
(7.58528 0.00226323 0)
(7.58054 0.0021774 0)
(7.57569 0.00210876 0)
(7.57159 0.00206179 0)
(7.56736 0.00201481 0)
(7.56382 0.00197402 0)
(7.56012 0.00194702 0)
(7.55708 0.00192555 0)
(7.5539 0.00190301 0)
(7.55134 0.00188384 0)
(7.54862 0.00185815 0)
(7.54653 0.00185047 0)
(7.54428 0.00185532 0)
(7.54264 0.00185969 0)
(7.54083 0.00186715 0)
(7.53961 0.00187188 0)
(7.53823 0.00188694 0)
(7.53741 0.00189245 0)
(7.53641 0.00189315 0)
(7.53597 0.00190135 0)
(7.53532 0.00190841 0)
(7.53519 0.0019135 0)
(7.53494 0.00191687 0)
(7.53507 0.00191817 0)
(7.53512 0.0019177 0)
(7.53551 0.00191941 0)
(7.53586 0.00191474 0)
(7.53657 0.00191491 0)
(7.53717 0.00191006 0)
(7.53817 0.00190989 0)
(7.53901 0.00190697 0)
(7.54029 0.0019018 0)
(7.54134 0.00189877 0)
(7.54292 0.00189368 0)
(7.54413 0.00189064 0)
(7.54597 0.00188314 0)
(7.54731 0.00188113 0)
(7.54942 0.00187271 0)
(7.55084 0.00187338 0)
(7.55322 0.00186279 0)
(7.55465 0.00186723 0)
(7.55737 0.00185427 0)
(7.55871 0.00186199 0)
(7.56191 0.00184226 0)
(7.563 0.00185791 0)
(7.56694 0.00181603 0)
(7.56747 0.00185257 0)
(7.5724 0.00180331 0)
(7.57202 0.00184789 0)
(7.57832 0.00180254 0)
(7.57623 0.00185988 0)
(7.58561 0.00175126 0)
(7.57947 0.00185368 0)
(7.59675 0.00160445 0)
(7.58129 0.00119938 0)
(7.61869 0.00386805 0)
(7.57065 -0.0140031 0)
(9.40084 0.0229769 0)
(9.42976 0.0304757 0)
(9.46067 0.0319698 0)
(9.47755 0.033009 0)
(9.48906 0.0320213 0)
(9.48978 0.0301467 0)
(9.48382 0.0271923 0)
(9.46897 0.024135 0)
(9.44574 0.0213476 0)
(9.41435 0.0186668 0)
(9.37568 0.0162003 0)
(9.33019 0.0139038 0)
(9.27897 0.0119682 0)
(9.22315 0.0102928 0)
(9.16432 0.00882069 0)
(9.10374 0.00751748 0)
(9.04305 0.00633249 0)
(8.98274 0.00525774 0)
(8.92517 0.00424173 0)
(8.86995 0.00328701 0)
(8.81882 0.00241247 0)
(8.77076 0.00159453 0)
(8.72749 0.000908519 0)
(8.68717 0.000337612 0)
(8.65142 -0.000149323 0)
(8.61772 -0.000542943 0)
(8.58822 -0.000825257 0)
(8.55961 -0.000999526 0)
(8.53457 -0.00115404 0)
(8.51029 -0.00126533 0)
(8.48919 -0.00136771 0)
(8.46868 -0.00146445 0)
(8.45101 -0.00155692 0)
(8.43368 -0.00163661 0)
(8.4188 -0.00171072 0)
(8.40398 -0.00177676 0)
(8.39132 -0.00183399 0)
(8.37863 -0.00188773 0)
(8.36781 -0.00193176 0)
(8.35695 -0.0019741 0)
(8.34773 -0.00201009 0)
(8.33847 -0.00203342 0)
(8.33063 -0.00205072 0)
(8.32276 -0.00205785 0)
(8.31591 -0.0020558 0)
(8.30893 -0.00207837 0)
(8.30289 -0.00210509 0)
(8.29673 -0.00213623 0)
(8.29147 -0.00216101 0)
(8.28609 -0.00217807 0)
(8.28156 -0.00218881 0)
(8.27691 -0.00220154 0)
(8.27306 -0.00220903 0)
(8.2691 -0.00221719 0)
(8.26591 -0.00224928 0)
(8.26259 -0.0023032 0)
(8.26001 -0.00234343 0)
(8.25728 -0.00239509 0)
(8.25523 -0.00245078 0)
(8.25303 -0.00250856 0)
(8.25148 -0.00254886 0)
(8.24977 -0.00259608 0)
(8.24867 -0.00263846 0)
(8.24739 -0.00268878 0)
(8.24669 -0.00273117 0)
(8.24582 -0.00277326 0)
(8.24549 -0.00280183 0)
(8.24499 -0.00284184 0)
(8.24498 -0.00286947 0)
(8.24493 -0.00290568 0)
(8.24518 -0.0029316 0)
(8.24546 -0.00296475 0)
(8.24605 -0.00298915 0)
(8.24663 -0.00301988 0)
(8.24754 -0.00304175 0)
(8.24839 -0.00307049 0)
(8.2496 -0.00308902 0)
(8.25065 -0.00311306 0)
(8.25212 -0.00312769 0)
(8.25333 -0.00315021 0)
(8.25507 -0.00316134 0)
(8.25639 -0.00318165 0)
(8.25843 -0.00318978 0)
(8.25982 -0.0032101 0)
(8.2622 -0.00321212 0)
(8.26356 -0.00324011 0)
(8.26643 -0.00323806 0)
(8.26762 -0.00327348 0)
(8.27119 -0.0032737 0)
(8.27192 -0.00330554 0)
(8.27643 -0.00329626 0)
(8.2764 -0.00332222 0)
(8.28198 -0.00329285 0)
(8.28093 -0.00336489 0)
(8.28852 -0.00332411 0)
(8.28527 -0.00354153 0)
(8.29741 -0.00343776 0)
(8.28939 -0.0045731 0)
(8.31498 -0.00261602 0)
(8.30264 -0.0164294 0)
(9.39958 0.0218057 0)
(9.43087 0.0295951 0)
(9.46777 0.0303154 0)
(9.49953 0.0313246 0)
(9.52906 0.0312188 0)
(9.55569 0.0300506 0)
(9.58004 0.0284839 0)
(9.5993 0.0269522 0)
(9.61515 0.0255137 0)
(9.62562 0.0241768 0)
(9.63331 0.0227096 0)
(9.63468 0.0216972 0)
(9.63265 0.0206014 0)
(9.62644 0.0196109 0)
(9.61585 0.0187012 0)
(9.60083 0.0178282 0)
(9.5814 0.0169711 0)
(9.55748 0.016087 0)
(9.52935 0.0151374 0)
(9.49714 0.0141285 0)
(9.46144 0.0130735 0)
(9.4226 0.0120303 0)
(9.38219 0.011056 0)
(9.34072 0.0101111 0)
(9.30031 0.00923489 0)
(9.25981 0.00840531 0)
(9.22231 0.0076812 0)
(9.18603 0.00706207 0)
(9.15339 0.00648732 0)
(9.12222 0.00599254 0)
(9.09439 0.0055518 0)
(9.06781 0.00516403 0)
(9.0441 0.00480974 0)
(9.02066 0.00449639 0)
(9.00002 0.00421504 0)
(8.97946 0.00395826 0)
(8.96157 0.00372099 0)
(8.9437 0.00350093 0)
(8.92829 0.003293 0)
(8.9129 0.00309881 0)
(8.89969 0.00290796 0)
(8.88658 0.0027362 0)
(8.87528 0.00256641 0)
(8.86396 0.00242122 0)
(8.8542 0.00229709 0)
(8.84438 0.00215681 0)
(8.83591 0.00201879 0)
(8.82736 0.00187951 0)
(8.82003 0.00174885 0)
(8.8126 0.00161714 0)
(8.8063 0.00148785 0)
(8.79989 0.0013539 0)
(8.79453 0.00122852 0)
(8.78906 0.00109556 0)
(8.78455 0.00095792 0)
(8.77994 0.000830968 0)
(8.77621 0.000726834 0)
(8.77234 0.000623467 0)
(8.76925 0.000543479 0)
(8.76602 0.000463525 0)
(8.76352 0.000385368 0)
(8.76087 0.000306059 0)
(8.7589 0.00025246 0)
(8.75677 0.000196867 0)
(8.75528 0.000139997 0)
(8.75362 8.22314e-05 0)
(8.75257 2.96593e-05 0)
(8.75136 -2.78618e-05 0)
(8.75072 -8.17379e-05 0)
(8.74997 -0.000137888 0)
(8.74972 -0.000183324 0)
(8.74942 -0.000244024 0)
(8.7495 -0.000285381 0)
(8.74961 -0.00033686 0)
(8.74999 -0.000385796 0)
(8.75044 -0.000431647 0)
(8.7511 -0.000468549 0)
(8.75175 -0.000508495 0)
(8.75266 -0.000546199 0)
(8.75354 -0.000582449 0)
(8.7547 -0.000616444 0)
(8.75579 -0.000648921 0)
(8.75721 -0.000680406 0)
(8.75851 -0.000712164 0)
(8.76019 -0.000734064 0)
(8.76168 -0.000779522 0)
(8.76364 -0.000795601 0)
(8.76531 -0.000850604 0)
(8.76758 -0.000868229 0)
(8.76938 -0.000918132 0)
(8.77186 -0.00091988 0)
(8.77388 -0.00096357 0)
(8.77649 -0.000933314 0)
(8.77884 -0.00104803 0)
(8.78156 -0.0010003 0)
(8.7844 -0.00133298 0)
(8.78764 -0.00119515 0)
(8.79132 -0.00295644 0)
(8.79894 -0.000244784 0)
(8.80996 -0.0178983 0)
(9.39775 0.0183313 0)
(9.42815 0.0258242 0)
(9.46479 0.0260958 0)
(9.49903 0.0271381 0)
(9.53091 0.0271901 0)
(9.56247 0.0262873 0)
(9.59283 0.0248763 0)
(9.62066 0.0232801 0)
(9.64595 0.0217726 0)
(9.66899 0.0202673 0)
(9.68986 0.0189403 0)
(9.70859 0.0176982 0)
(9.72512 0.0166403 0)
(9.73986 0.0157954 0)
(9.75265 0.0151334 0)
(9.76362 0.0146018 0)
(9.7728 0.0141702 0)
(9.77964 0.0138041 0)
(9.7847 0.0134346 0)
(9.78666 0.0130463 0)
(9.78586 0.012775 0)
(9.78228 0.0123528 0)
(9.77547 0.0119049 0)
(9.76524 0.0113855 0)
(9.75163 0.0108413 0)
(9.73465 0.0102416 0)
(9.71476 0.00960441 0)
(9.69244 0.00896929 0)
(9.66837 0.00830409 0)
(9.64292 0.00763113 0)
(9.61684 0.00699861 0)
(9.59012 0.00637654 0)
(9.56425 0.00581154 0)
(9.53814 0.00528274 0)
(9.51392 0.00480011 0)
(9.48958 0.00433357 0)
(9.46754 0.00389929 0)
(9.44547 0.00348265 0)
(9.4258 0.00309123 0)
(9.40613 0.00271722 0)
(9.38883 0.00235352 0)
(9.37148 0.0020528 0)
(9.35584 0.00176353 0)
(9.3401 0.00149596 0)
(9.32626 0.00124595 0)
(9.3124 0.00102684 0)
(9.30032 0.000834345 0)
(9.2882 0.000649706 0)
(9.27769 0.000476953 0)
(9.26713 0.000310664 0)
(9.25805 0.000153509 0)
(9.2489 -4.49931e-06 0)
(9.2411 -0.000159053 0)
(9.23324 -0.000323866 0)
(9.22655 -0.00045603 0)
(9.21978 -0.00055511 0)
(9.21401 -0.000634802 0)
(9.20814 -0.000710684 0)
(9.20315 -0.000750405 0)
(9.19806 -0.000791279 0)
(9.19379 -0.000823995 0)
(9.18944 -0.000877847 0)
(9.18583 -0.000951837 0)
(9.18214 -0.00103035 0)
(9.17915 -0.00109666 0)
(9.17609 -0.0011628 0)
(9.17367 -0.00121505 0)
(9.17119 -0.0012834 0)
(9.16932 -0.00134573 0)
(9.16745 -0.00140842 0)
(9.16605 -0.00146832 0)
(9.16474 -0.00152424 0)
(9.16375 -0.00157939 0)
(9.16292 -0.00163241 0)
(9.1623 -0.00168197 0)
(9.1619 -0.00173009 0)
(9.16162 -0.00177024 0)
(9.16159 -0.00180865 0)
(9.16165 -0.00184365 0)
(9.16193 -0.00188484 0)
(9.16228 -0.0019176 0)
(9.16289 -0.00195665 0)
(9.16352 -0.00198715 0)
(9.16449 -0.0020256 0)
(9.16531 -0.00205294 0)
(9.16669 -0.00209567 0)
(9.16764 -0.00212193 0)
(9.16949 -0.00217279 0)
(9.17048 -0.00219619 0)
(9.17283 -0.00223705 0)
(9.17375 -0.00225555 0)
(9.1767 -0.00229064 0)
(9.17751 -0.00229195 0)
(9.18107 -0.00237684 0)
(9.18185 -0.00237825 0)
(9.18585 -0.00264037 0)
(9.18732 -0.00265179 0)
(9.19176 -0.00408288 0)
(9.19616 -0.003616 0)
(9.20616 -0.0176254 0)
(9.3959 0.0145833 0)
(9.42525 0.0219426 0)
(9.46133 0.0220237 0)
(9.49601 0.0229223 0)
(9.52804 0.0230186 0)
(9.56025 0.0222502 0)
(9.59133 0.0210467 0)
(9.62083 0.0197291 0)
(9.6478 0.0185353 0)
(9.67357 0.0174187 0)
(9.69732 0.0164018 0)
(9.72008 0.0155763 0)
(9.74103 0.0148874 0)
(9.7614 0.0143356 0)
(9.78019 0.0139208 0)
(9.79871 0.0135744 0)
(9.81595 0.0133121 0)
(9.83281 0.0130672 0)
(9.84864 0.0128405 0)
(9.86384 0.0126494 0)
(9.87795 0.0123922 0)
(9.89128 0.0121201 0)
(9.90319 0.0118876 0)
(9.91425 0.0116564 0)
(9.92358 0.0114643 0)
(9.93171 0.0112579 0)
(9.93798 0.0110499 0)
(9.94232 0.0108505 0)
(9.94502 0.0105779 0)
(9.94488 0.0103978 0)
(9.94291 0.010127 0)
(9.93877 0.00980299 0)
(9.93252 0.0094786 0)
(9.92434 0.00911034 0)
(9.91437 0.00871325 0)
(9.90279 0.00829466 0)
(9.88984 0.00785308 0)
(9.87572 0.00741461 0)
(9.86075 0.00695618 0)
(9.84507 0.00652118 0)
(9.8291 0.00605782 0)
(9.81278 0.00563395 0)
(9.79687 0.0052505 0)
(9.7807 0.00488729 0)
(9.76547 0.00454237 0)
(9.75005 0.00421005 0)
(9.7359 0.00389422 0)
(9.72163 0.0035878 0)
(9.70875 0.00330426 0)
(9.69578 0.00303462 0)
(9.68422 0.00278432 0)
(9.6726 0.00254982 0)
(9.6623 0.00233803 0)
(9.65189 0.00216376 0)
(9.64238 0.00198525 0)
(9.63282 0.00179315 0)
(9.62421 0.00162107 0)
(9.61556 0.00144745 0)
(9.60783 0.00126564 0)
(9.60012 0.00109208 0)
(9.59325 0.000946661 0)
(9.58648 0.00078174 0)
(9.58041 0.00058992 0)
(9.57456 0.000398156 0)
(9.56928 0.000221099 0)
(9.5643 5.43918e-05 0)
(9.55975 -0.000103114 0)
(9.55556 -0.000242322 0)
(9.55168 -0.000378158 0)
(9.54823 -0.0005051 0)
(9.54489 -0.000632248 0)
(9.54207 -0.000746448 0)
(9.53923 -0.000856734 0)
(9.53693 -0.000955181 0)
(9.53457 -0.00105876 0)
(9.53276 -0.00114563 0)
(9.53086 -0.00122958 0)
(9.52959 -0.00131292 0)
(9.52813 -0.00139212 0)
(9.52735 -0.00146 0)
(9.5263 -0.00153801 0)
(9.52599 -0.00159831 0)
(9.52534 -0.00167811 0)
(9.52542 -0.00172959 0)
(9.52518 -0.00179411 0)
(9.5257 -0.00187132 0)
(9.52565 -0.00192017 0)
(9.52671 -0.00200173 0)
(9.52683 -0.00205108 0)
(9.52838 -0.00211688 0)
(9.52866 -0.00216485 0)
(9.53067 -0.00221987 0)
(9.53115 -0.00225137 0)
(9.5335 -0.00235223 0)
(9.5344 -0.00239131 0)
(9.53687 -0.0026918 0)
(9.53875 -0.00281446 0)
(9.54175 -0.00436209 0)
(9.54597 -0.0043904 0)
(9.55231 -0.0167239 0)
(9.39499 0.0113286 0)
(9.42269 0.0175939 0)
(9.45807 0.0175032 0)
(9.49305 0.0182207 0)
(9.52495 0.0183639 0)
(9.55705 0.0177321 0)
(9.58819 0.0167471 0)
(9.61788 0.0156942 0)
(9.64515 0.0147343 0)
(9.67133 0.0138408 0)
(9.69566 0.0130094 0)
(9.71907 0.0123326 0)
(9.74096 0.0117292 0)
(9.76234 0.0112261 0)
(9.78253 0.0108389 0)
(9.80256 0.0105166 0)
(9.82169 0.0102774 0)
(9.8408 0.0100652 0)
(9.85912 0.00988157 0)
(9.87743 0.00971772 0)
(9.89495 0.00955892 0)
(9.91249 0.00939455 0)
(9.92915 0.00925731 0)
(9.94586 0.00912432 0)
(9.96167 0.00902315 0)
(9.97756 0.00890546 0)
(9.99244 0.00880559 0)
(10.0074 0.00870151 0)
(10.0212 0.00863232 0)
(10.0351 0.00855019 0)
(10.0475 0.00845779 0)
(10.06 0.00835249 0)
(10.0706 0.00826534 0)
(10.0814 0.0081548 0)
(10.0899 0.00804807 0)
(10.0985 0.00791664 0)
(10.1046 0.0077876 0)
(10.1106 0.0076171 0)
(10.114 0.00745899 0)
(10.1171 0.00722878 0)
(10.1177 0.00701141 0)
(10.1173 0.00685093 0)
(10.1155 0.00661397 0)
(10.1127 0.00634674 0)
(10.1086 0.00606286 0)
(10.1035 0.00576484 0)
(10.0974 0.00545541 0)
(10.0905 0.00513866 0)
(10.0829 0.00481376 0)
(10.0746 0.00448926 0)
(10.0659 0.00415353 0)
(10.0569 0.0038284 0)
(10.0477 0.00348728 0)
(10.0384 0.00318229 0)
(10.0292 0.00288256 0)
(10.02 0.00260023 0)
(10.0111 0.00233107 0)
(10.0022 0.00207143 0)
(9.99364 0.00182668 0)
(9.98529 0.00159397 0)
(9.9773 0.00135934 0)
(9.96965 0.00113708 0)
(9.96224 0.000942546 0)
(9.95531 0.00076606 0)
(9.94857 0.000589265 0)
(9.94236 0.00041791 0)
(9.93629 0.000239962 0)
(9.93073 0.000105368 0)
(9.92507 -2.26499e-05 0)
(9.91992 -0.000143173 0)
(9.91464 -0.000272044 0)
(9.90997 -0.000391833 0)
(9.90513 -0.000511708 0)
(9.90098 -0.000628846 0)
(9.89664 -0.000753545 0)
(9.89306 -0.000861322 0)
(9.88923 -0.000966678 0)
(9.88622 -0.00107142 0)
(9.88289 -0.00117998 0)
(9.88046 -0.00128137 0)
(9.87767 -0.00138689 0)
(9.8758 -0.00148296 0)
(9.87353 -0.00158043 0)
(9.87218 -0.00167125 0)
(9.87041 -0.0017736 0)
(9.86956 -0.00184403 0)
(9.86824 -0.00195671 0)
(9.86786 -0.00203025 0)
(9.86704 -0.00213792 0)
(9.86699 -0.00219293 0)
(9.86673 -0.00229689 0)
(9.86691 -0.00234271 0)
(9.86708 -0.00241056 0)
(9.86756 -0.00252612 0)
(9.86818 -0.00260873 0)
(9.86907 -0.00292649 0)
(9.87032 -0.00315607 0)
(9.87207 -0.00472077 0)
(9.87501 -0.00539413 0)
(9.87848 -0.016359 0)
(9.39444 0.00798714 0)
(9.42062 0.0126931 0)
(9.45547 0.0125395 0)
(9.49059 0.0130607 0)
(9.52238 0.0132086 0)
(9.55431 0.0127472 0)
(9.5855 0.0120316 0)
(9.61511 0.0112604 0)
(9.64247 0.0105439 0)
(9.6686 0.00987521 0)
(9.69307 0.00925046 0)
(9.71651 0.00874116 0)
(9.73861 0.00829235 0)
(9.76009 0.00792859 0)
(9.78059 0.00766208 0)
(9.80082 0.00745216 0)
(9.82036 0.00730679 0)
(9.83981 0.00718356 0)
(9.85867 0.00707428 0)
(9.87749 0.00698208 0)
(9.89576 0.00689335 0)
(9.914 0.00678462 0)
(9.93171 0.0066844 0)
(9.94942 0.00658743 0)
(9.96668 0.00651216 0)
(9.98395 0.00642969 0)
(10.0008 0.00635793 0)
(10.0177 0.00629293 0)
(10.0342 0.00623662 0)
(10.0507 0.00620716 0)
(10.0668 0.00616042 0)
(10.083 0.00610892 0)
(10.0986 0.00606595 0)
(10.1144 0.00602352 0)
(10.1294 0.00598001 0)
(10.1446 0.00593772 0)
(10.159 0.0058905 0)
(10.1736 0.00584255 0)
(10.1871 0.00578908 0)
(10.2009 0.00574235 0)
(10.2134 0.00571729 0)
(10.2262 0.00563421 0)
(10.2375 0.00555227 0)
(10.249 0.00546924 0)
(10.2588 0.00539117 0)
(10.2689 0.00530508 0)
(10.2771 0.00522017 0)
(10.2856 0.00511987 0)
(10.292 0.00501823 0)
(10.2987 0.00489498 0)
(10.3032 0.00477284 0)
(10.3079 0.00462049 0)
(10.3105 0.00448412 0)
(10.313 0.00432831 0)
(10.3142 0.00418244 0)
(10.3148 0.00397753 0)
(10.3145 0.00384085 0)
(10.3136 0.00364473 0)
(10.312 0.00343076 0)
(10.3099 0.00321548 0)
(10.3071 0.0029892 0)
(10.304 0.00277173 0)
(10.3003 0.00254832 0)
(10.2964 0.00231865 0)
(10.2922 0.00207864 0)
(10.2878 0.00184665 0)
(10.2831 0.0016128 0)
(10.2786 0.00139317 0)
(10.2738 0.00116765 0)
(10.2693 0.000968332 0)
(10.2645 0.00075689 0)
(10.2601 0.000574677 0)
(10.2554 0.000380103 0)
(10.2512 0.000205879 0)
(10.2468 7.03345e-06 0)
(10.2429 -0.000173642 0)
(10.2387 -0.000365569 0)
(10.2351 -0.000509747 0)
(10.2312 -0.000660266 0)
(10.2281 -0.000802195 0)
(10.2246 -0.000954104 0)
(10.2218 -0.00109078 0)
(10.2187 -0.00123261 0)
(10.2163 -0.0013617 0)
(10.2137 -0.00149501 0)
(10.2116 -0.00161296 0)
(10.2093 -0.00174849 0)
(10.2076 -0.00187417 0)
(10.2058 -0.00198686 0)
(10.2044 -0.0020984 0)
(10.2029 -0.00219836 0)
(10.2016 -0.00229677 0)
(10.2006 -0.00238197 0)
(10.1995 -0.002528 0)
(10.1988 -0.00263685 0)
(10.1981 -0.00300239 0)
(10.1978 -0.00330939 0)
(10.1976 -0.00484388 0)
(10.1985 -0.00610006 0)
(10.1986 -0.015645 0)
(9.39406 0.0045457 0)
(9.41913 0.00729147 0)
(9.45367 0.00712235 0)
(9.48884 0.0074294 0)
(9.52054 0.00752465 0)
(9.55234 0.00723913 0)
(9.58357 0.00681199 0)
(9.6131 0.00633405 0)
(9.64053 0.00588278 0)
(9.66659 0.00547292 0)
(9.69114 0.0050945 0)
(9.71452 0.00478724 0)
(9.7367 0.00451683 0)
(9.75813 0.00429589 0)
(9.77872 0.00413311 0)
(9.79892 0.00400137 0)
(9.81855 0.00390778 0)
(9.83799 0.00382708 0)
(9.85697 0.00375427 0)
(9.87581 0.00369685 0)
(9.89425 0.00364264 0)
(9.91254 0.0035672 0)
(9.93046 0.00349794 0)
(9.9483 0.00343464 0)
(9.96583 0.00338994 0)
(9.98332 0.00334188 0)
(10.0005 0.00329994 0)
(10.0177 0.00325972 0)
(10.0347 0.00322871 0)
(10.0516 0.00322357 0)
(10.0684 0.00319984 0)
(10.0852 0.003169 0)
(10.1017 0.00314665 0)
(10.1182 0.00312757 0)
(10.1345 0.00310742 0)
(10.1509 0.00308739 0)
(10.1669 0.00306563 0)
(10.183 0.00304081 0)
(10.1988 0.00301624 0)
(10.2146 0.00299184 0)
(10.2301 0.00297705 0)
(10.2457 0.00294477 0)
(10.2608 0.00291541 0)
(10.276 0.00288934 0)
(10.2908 0.00286408 0)
(10.3056 0.00283944 0)
(10.3199 0.00281423 0)
(10.3343 0.00278937 0)
(10.3481 0.00276214 0)
(10.362 0.00273707 0)
(10.3751 0.00271107 0)
(10.3884 0.00268563 0)
(10.4008 0.00266031 0)
(10.4135 0.00262613 0)
(10.425 0.00260215 0)
(10.4368 0.00257002 0)
(10.4474 0.0025111 0)
(10.4582 0.00244939 0)
(10.4677 0.00238993 0)
(10.4774 0.00232837 0)
(10.4857 0.00226204 0)
(10.4943 0.00219075 0)
(10.5013 0.00211322 0)
(10.5085 0.00202123 0)
(10.5142 0.00192784 0)
(10.5201 0.00182398 0)
(10.5244 0.00172712 0)
(10.5289 0.00161726 0)
(10.532 0.0015096 0)
(10.5354 0.00139087 0)
(10.5374 0.00126885 0)
(10.5397 0.00113181 0)
(10.5409 0.00101169 0)
(10.5421 0.000857091 0)
(10.5425 0.000710673 0)
(10.5427 0.000569027 0)
(10.5425 0.000402369 0)
(10.5421 0.000252785 0)
(10.5413 9.15689e-05 0)
(10.5403 -7.03593e-05 0)
(10.539 -0.000238004 0)
(10.5376 -0.000401092 0)
(10.536 -0.00056275 0)
(10.5343 -0.000722969 0)
(10.5324 -0.000881087 0)
(10.5304 -0.00103613 0)
(10.5284 -0.00119542 0)
(10.5262 -0.00136401 0)
(10.524 -0.00151116 0)
(10.5217 -0.00165892 0)
(10.5193 -0.00178613 0)
(10.5169 -0.00190811 0)
(10.5144 -0.00202087 0)
(10.5119 -0.00217617 0)
(10.5093 -0.00233412 0)
(10.5065 -0.00268613 0)
(10.504 -0.00310829 0)
(10.5012 -0.00467286 0)
(10.4992 -0.00633946 0)
(10.4959 -0.0144223 0)
(9.39387 0.000961027 0)
(9.41839 0.00132081 0)
(9.45277 0.00114213 0)
(9.48798 0.00123047 0)
(9.51963 0.00123054 0)
(9.55135 0.00113582 0)
(9.58262 0.0010332 0)
(9.6121 0.000878688 0)
(9.63957 0.000725674 0)
(9.6656 0.00060455 0)
(9.69019 0.000493361 0)
(9.71354 0.000404961 0)
(9.73576 0.000322507 0)
(9.75716 0.000251849 0)
(9.77778 0.000202166 0)
(9.79796 0.000163427 0)
(9.81762 0.000143692 0)
(9.83703 0.000130221 0)
(9.85605 0.000119658 0)
(9.87485 0.000121819 0)
(9.89333 0.000125618 0)
(9.9116 0.000107086 0)
(9.92956 8.50154e-05 0)
(9.9474 6.57149e-05 0)
(9.96497 5.50978e-05 0)
(9.98247 3.91086e-05 0)
(9.99973 2.25675e-05 0)
(10.017 7.13124e-07 0)
(10.034 -8.65458e-06 0)
(10.051 -1.62001e-06 0)
(10.0679 -8.6525e-06 0)
(10.0847 -2.31164e-05 0)
(10.1014 -2.91454e-05 0)
(10.118 -2.98674e-05 0)
(10.1345 -3.24583e-05 0)
(10.151 -3.32076e-05 0)
(10.1673 -3.68515e-05 0)
(10.1836 -3.98719e-05 0)
(10.1997 -4.8355e-05 0)
(10.2158 -5.00063e-05 0)
(10.2318 -4.26694e-05 0)
(10.2477 -4.37674e-05 0)
(10.2634 -4.99476e-05 0)
(10.2792 -5.59086e-05 0)
(10.2947 -6.34466e-05 0)
(10.3103 -6.93738e-05 0)
(10.3256 -7.61246e-05 0)
(10.341 -8.15271e-05 0)
(10.3562 -8.84013e-05 0)
(10.3713 -9.41443e-05 0)
(10.3863 -9.89766e-05 0)
(10.4012 -0.000104657 0)
(10.4159 -0.000113308 0)
(10.4307 -0.000127433 0)
(10.4452 -0.00012381 0)
(10.4597 -0.000133927 0)
(10.4738 -0.000141682 0)
(10.4881 -0.000146231 0)
(10.5019 -0.000152395 0)
(10.5158 -0.000154773 0)
(10.5293 -0.000160305 0)
(10.5428 -0.000161179 0)
(10.5558 -0.000165515 0)
(10.5689 -0.000166937 0)
(10.5814 -0.000168299 0)
(10.594 -0.000163381 0)
(10.6059 -0.000160764 0)
(10.6179 -0.000166247 0)
(10.6292 -0.000185039 0)
(10.6405 -0.000196221 0)
(10.651 -0.000220747 0)
(10.6614 -0.000239258 0)
(10.6712 -0.000262683 0)
(10.6806 -0.000289692 0)
(10.6894 -0.000313926 0)
(10.6977 -0.000349633 0)
(10.7055 -0.000379272 0)
(10.7127 -0.00042894 0)
(10.7193 -0.000492122 0)
(10.7252 -0.000555303 0)
(10.7306 -0.00062511 0)
(10.7351 -0.000693256 0)
(10.7392 -0.000764986 0)
(10.7423 -0.000832601 0)
(10.745 -0.000905294 0)
(10.7466 -0.000974162 0)
(10.748 -0.00106069 0)
(10.7482 -0.00111245 0)
(10.748 -0.00118144 0)
(10.7471 -0.00125824 0)
(10.7455 -0.0013269 0)
(10.7434 -0.00139392 0)
(10.7407 -0.00145305 0)
(10.7374 -0.00155238 0)
(10.7336 -0.00165907 0)
(10.7293 -0.00194139 0)
(10.7245 -0.00236182 0)
(10.7191 -0.00373669 0)
(10.7135 -0.00566172 0)
(10.706 -0.0126916 0)
(9.39391 -0.00274687 0)
(9.41859 -0.00496142 0)
(9.45307 -0.00513952 0)
(9.48829 -0.00527236 0)
(9.51995 -0.00538547 0)
(9.55167 -0.00527969 0)
(9.58297 -0.00503654 0)
(9.61242 -0.00485305 0)
(9.63991 -0.00469142 0)
(9.66593 -0.00450814 0)
(9.69053 -0.00434134 0)
(9.71387 -0.00419927 0)
(9.7361 -0.00408447 0)
(9.75749 -0.00399601 0)
(9.77814 -0.0039239 0)
(9.79829 -0.00386296 0)
(9.81798 -0.00380395 0)
(9.83737 -0.00374906 0)
(9.8564 -0.00370184 0)
(9.87521 -0.0036445 0)
(9.89368 -0.00358857 0)
(9.91195 -0.00355851 0)
(9.92991 -0.00354179 0)
(9.94775 -0.00352446 0)
(9.96533 -0.00350307 0)
(9.98281 -0.00348775 0)
(10.0001 -0.00347542 0)
(10.0173 -0.00347619 0)
(10.0344 -0.00345879 0)
(10.0514 -0.00343338 0)
(10.0682 -0.00341897 0)
(10.085 -0.00341234 0)
(10.1017 -0.00340065 0)
(10.1184 -0.00338414 0)
(10.1348 -0.00336922 0)
(10.1513 -0.00335354 0)
(10.1676 -0.00334179 0)
(10.1839 -0.0033274 0)
(10.2 -0.00332539 0)
(10.2161 -0.0033088 0)
(10.232 -0.00328846 0)
(10.2479 -0.00327554 0)
(10.2637 -0.00326912 0)
(10.2794 -0.00326149 0)
(10.2949 -0.00325283 0)
(10.3104 -0.00324169 0)
(10.3257 -0.00323019 0)
(10.341 -0.00321592 0)
(10.3561 -0.00320365 0)
(10.3711 -0.00318786 0)
(10.386 -0.00317259 0)
(10.4008 -0.00315125 0)
(10.4155 -0.00313599 0)
(10.43 -0.00312013 0)
(10.4443 -0.00309775 0)
(10.4586 -0.00308484 0)
(10.4726 -0.00307084 0)
(10.4865 -0.00305839 0)
(10.5001 -0.00305035 0)
(10.5136 -0.00304019 0)
(10.5268 -0.00303056 0)
(10.5397 -0.00301919 0)
(10.5524 -0.0030095 0)
(10.5648 -0.00300068 0)
(10.5769 -0.0029888 0)
(10.5886 -0.00297012 0)
(10.6 -0.00294464 0)
(10.6109 -0.00292337 0)
(10.6215 -0.00289604 0)
(10.6316 -0.00287405 0)
(10.6413 -0.00282683 0)
(10.6504 -0.00278037 0)
(10.6591 -0.00272647 0)
(10.6671 -0.00267964 0)
(10.6747 -0.00261717 0)
(10.6816 -0.00255138 0)
(10.688 -0.00248756 0)
(10.6937 -0.00242114 0)
(10.6988 -0.00233817 0)
(10.7032 -0.00224602 0)
(10.707 -0.00214723 0)
(10.7102 -0.00204614 0)
(10.7126 -0.00195069 0)
(10.7146 -0.00185039 0)
(10.7158 -0.0017572 0)
(10.7167 -0.00163188 0)
(10.7167 -0.00154949 0)
(10.7163 -0.00142966 0)
(10.7154 -0.00131497 0)
(10.714 -0.00119652 0)
(10.712 -0.0010727 0)
(10.7095 -0.000960537 0)
(10.7065 -0.000853621 0)
(10.703 -0.000794556 0)
(10.6991 -0.000767922 0)
(10.6947 -0.000906912 0)
(10.6898 -0.00121554 0)
(10.6842 -0.00239305 0)
(10.678 -0.00429319 0)
(10.6694 -0.0101445 0)
(9.39419 -0.00640503 0)
(9.41974 -0.0109639 0)
(9.45454 -0.011117 0)
(9.48975 -0.0114705 0)
(9.52147 -0.011681 0)
(9.55327 -0.0113835 0)
(9.5846 -0.010813 0)
(9.61403 -0.0103149 0)
(9.64152 -0.00985667 0)
(9.66757 -0.00938119 0)
(9.69215 -0.00894814 0)
(9.7155 -0.00858351 0)
(9.73772 -0.00827748 0)
(9.75911 -0.0080365 0)
(9.77975 -0.00784968 0)
(9.79991 -0.00769648 0)
(9.8196 -0.00756437 0)
(9.83899 -0.00744227 0)
(9.85801 -0.0073401 0)
(9.87684 -0.00722476 0)
(9.89528 -0.00711403 0)
(9.91356 -0.00703392 0)
(9.93148 -0.00697628 0)
(9.94931 -0.00692366 0)
(9.96685 -0.00687196 0)
(9.98431 -0.0068311 0)
(10.0015 -0.00679457 0)
(10.0187 -0.00678231 0)
(10.0357 -0.00674541 0)
(10.0526 -0.00670487 0)
(10.0693 -0.00667449 0)
(10.086 -0.00664981 0)
(10.1025 -0.00662059 0)
(10.119 -0.00658695 0)
(10.1353 -0.00655145 0)
(10.1515 -0.00651508 0)
(10.1675 -0.00648098 0)
(10.1834 -0.00644232 0)
(10.1991 -0.00641709 0)
(10.2148 -0.00637085 0)
(10.2301 -0.00632585 0)
(10.2454 -0.00628806 0)
(10.2604 -0.00625601 0)
(10.2752 -0.00622497 0)
(10.2897 -0.00619205 0)
(10.3041 -0.0061599 0)
(10.318 -0.0061263 0)
(10.3318 -0.00609412 0)
(10.3451 -0.00606038 0)
(10.3581 -0.00603102 0)
(10.3707 -0.00599367 0)
(10.3828 -0.00596429 0)
(10.3945 -0.00591309 0)
(10.4056 -0.00584912 0)
(10.4162 -0.00578226 0)
(10.4263 -0.0057164 0)
(10.4357 -0.00564761 0)
(10.4445 -0.00557286 0)
(10.4525 -0.00549296 0)
(10.4599 -0.00540191 0)
(10.4665 -0.00530009 0)
(10.4725 -0.00518817 0)
(10.4775 -0.00506808 0)
(10.4819 -0.00493992 0)
(10.4854 -0.00481316 0)
(10.4884 -0.00468225 0)
(10.4906 -0.00454677 0)
(10.4924 -0.00439748 0)
(10.4935 -0.00425135 0)
(10.4941 -0.00405527 0)
(10.4941 -0.00392617 0)
(10.4937 -0.00375595 0)
(10.4928 -0.00357277 0)
(10.4916 -0.00339283 0)
(10.4901 -0.00320182 0)
(10.4882 -0.00300989 0)
(10.4861 -0.00282537 0)
(10.4837 -0.00263792 0)
(10.4812 -0.00244621 0)
(10.4785 -0.00225396 0)
(10.4757 -0.00206777 0)
(10.4729 -0.00188013 0)
(10.4699 -0.00170035 0)
(10.467 -0.00153029 0)
(10.464 -0.00137163 0)
(10.4611 -0.0012228 0)
(10.4581 -0.00107137 0)
(10.4552 -0.000937487 0)
(10.4523 -0.000829977 0)
(10.4493 -0.000723814 0)
(10.4464 -0.000587887 0)
(10.4435 -0.00044356 0)
(10.4406 -0.000306581 0)
(10.4376 -0.000184978 0)
(10.4347 -0.000102726 0)
(10.4317 -0.000175435 0)
(10.4285 -0.000470194 0)
(10.4249 -0.0014832 0)
(10.4207 -0.00323295 0)
(10.414 -0.00809675 0)
(9.39466 -0.00996006 0)
(9.42161 -0.0164544 0)
(9.45695 -0.0165732 0)
(9.49208 -0.0171241 0)
(9.52391 -0.0173752 0)
(9.55582 -0.0168878 0)
(9.58719 -0.0160118 0)
(9.61661 -0.0152324 0)
(9.6441 -0.0145126 0)
(9.67017 -0.0137782 0)
(9.69473 -0.0131079 0)
(9.71808 -0.0125453 0)
(9.74028 -0.0120643 0)
(9.76165 -0.0116801 0)
(9.78227 -0.0113837 0)
(9.8024 -0.0111479 0)
(9.82204 -0.0109563 0)
(9.84139 -0.0107777 0)
(9.8603 -0.0106332 0)
(9.87906 -0.0104669 0)
(9.89732 -0.0103086 0)
(9.91548 -0.0101824 0)
(9.93316 -0.0100823 0)
(9.9508 -0.00998578 0)
(9.968 -0.00989267 0)
(9.98519 -0.00981224 0)
(10.0019 -0.00974069 0)
(10.0187 -0.00970139 0)
(10.0351 -0.00963551 0)
(10.0514 -0.00957018 0)
(10.0673 -0.00951647 0)
(10.0832 -0.00946666 0)
(10.0986 -0.00941141 0)
(10.1139 -0.00935682 0)
(10.1286 -0.00929808 0)
(10.1432 -0.00924455 0)
(10.1571 -0.00918291 0)
(10.1707 -0.00913643 0)
(10.1836 -0.00908181 0)
(10.1962 -0.00900027 0)
(10.2078 -0.00891765 0)
(10.2189 -0.00883037 0)
(10.2291 -0.00874118 0)
(10.2386 -0.00864289 0)
(10.247 -0.00853762 0)
(10.2547 -0.0084171 0)
(10.2611 -0.00828846 0)