/*--------------------------------*- C++ -*----------------------------------*\
| =========                 |                                                 |
| \\      /  F ield         | OpenFOAM: The Open Source CFD Toolbox           |
|  \\    /   O peration     | Version:  v2012                                 |
|   \\  /    A nd           | Website:  www.openfoam.com                      |
|    \\/     M anipulation  |                                                 |
\*---------------------------------------------------------------------------*/
FoamFile
{
    version     2.0;
    format      ascii;
    class       scalarField;
    location    "0.047/lagrangian/kinematicCloud";
    object      age;
}
// * * * * * * * * * * * * * * * * * * * * * * * * * * * * * * * * * * * * * //


50
(
0.0462
0.0452
0.0441
0.043
0.042
0.041
0.04
0.039
0.0379
0.0368
0.036725
0.0357
0.0346
0.0335
0.0324
0.0313
0.0302
0.0291
0.028
0.027925
0.0269
0.0258
0.0247
0.0236
0.023525
0.0225
0.0214
0.021325
0.0203
0.020225
0.0192
0.0181
0.017
0.0159
0.015825
0.0149
0.0139
0.0129
0.0119
0.0109
0.0099
0.0089
0.0079
0.0069
0.0059
0.0049
0.0039
0.0029
0.0019
0.0009
)


// ************************************************************************* //
