/*--------------------------------*- C++ -*----------------------------------*\
| =========                 |                                                 |
| \\      /  F ield         | OpenFOAM: The Open Source CFD Toolbox           |
|  \\    /   O peration     | Version:  v2012                                 |
|   \\  /    A nd           | Website:  www.openfoam.com                      |
|    \\/     M anipulation  |                                                 |
\*---------------------------------------------------------------------------*/
FoamFile
{
    version     2.0;
    format      ascii;
    class       Cloud<basicKinematicParcel>;
    location    "0.047/lagrangian/kinematicCloud";
    object      positions;
}
// * * * * * * * * * * * * * * * * * * * * * * * * * * * * * * * * * * * * * //

50
(
(0.476173 0.00412936 0.03) 331
(0.467543 0.0158031 0.03) 831
(0.459075 0.0238422 0.03) 1130
(0.447895 0.00938391 0.03) 529
(0.436799 0.0308317 0.03) 1429
(0.426786 0.02431 0.03) 1128
(0.372743 0.000648178 0.03) 24
(0.404954 0.0348279 0.03) 1626
(0.393594 0.0345138 0.03) 1626
(0.383787 0.0128626 0.03) 725
(0.3813 0.0165654 0.03) 825
(0.371168 0.00751946 0.03) 524
(0.348817 0.0386029 0.03) 1823
(0.33752 0.00132846 0.03) 122
(0.331699 0.0381062 0.03) 1822
(0.326316 0.018822 0.03) 921
(0.316123 0.00410179 0.03) 321
(0.302547 0.0375163 0.03) 1820
(0.29384 0.00814857 0.03) 519
(0.293343 0.0346032 0.03) 1619
(0.282018 0.0288749 0.03) 1318
(0.270566 0.0368706 0.03) 1718
(0.259469 0.0296514 0.03) 1317
(0.247265 0.00630546 0.03) 416
(0.245239 0.0148408 0.03) 816
(0.234895 0.0289988 0.03) 1315
(0.223762 0.00482553 0.03) 314
(0.223944 0.0321819 0.03) 1414
(0.212943 0.00184974 0.03) 114
(0.212348 0.0330486 0.03) 1514
(0.172052 8.17069e-05 0.03) 11
(0.189719 0.00295119 0.03) 212
(0.174125 0.0390887 0.03) 1911
(0.166839 0.0218033 0.03) 1011
(0.165786 0.00923363 0.03) 511
(0.157734 0.0279639 0.03) 1210
(0.146116 0.0122292 0.03) 709
(0.137568 0.0147247 0.03) 809
(0.126084 0.0281559 0.03) 1208
(0.114015 0.00093731 0.03) 7
(0.107144 0.0110199 0.03) 607
(0.0953112 0.0271123 0.03) 1206
(0.0842976 0.00890419 0.03) 505
(0.0756535 0.00749395 0.03) 405
(0.0646169 0.0117098 0.03) 604
(0.0541452 0.0255681 0.03) 1103
(0.0430076 0.0330765 0.03) 1502
(0.0332088 0.0185091 0.03) 902
(0.0218288 0.0144052 0.03) 801
(0.0116759 0.0306924 0.03) 1400
)


// ************************************************************************* //
