/*--------------------------------*- C++ -*----------------------------------*\
| =========                 |                                                 |
| \\      /  F ield         | OpenFOAM: The Open Source CFD Toolbox           |
|  \\    /   O peration     | Version:  v2012                                 |
|   \\  /    A nd           | Website:  www.openfoam.com                      |
|    \\/     M anipulation  |                                                 |
\*---------------------------------------------------------------------------*/
FoamFile
{
    version     2.0;
    format      ascii;
    class       scalarField;
    location    "0.055/lagrangian/kinematicCloud";
    object      age;
}
// * * * * * * * * * * * * * * * * * * * * * * * * * * * * * * * * * * * * * //


58
(
0.0542
0.0532
0.0521
0.051
0.05
0.049
0.048
0.047
0.0459
0.0448
0.044725
0.0437
0.0426
0.0415
0.0404
0.0393
0.0382
0.0371
0.036
0.035925
0.0349
0.0338
0.0327
0.0316
0.031525
0.0305
0.0294
0.029325
0.0283
0.028225
0.0272
0.0261
0.025
0.0239
0.023825
0.0229
0.0219
0.0209
0.0199
0.0189
0.0179
0.0169
0.0159
0.0149
0.0139
0.0129
0.0119
0.0109
0.0099
0.0089
0.0079
0.0069
0.0059
0.0049
0.0039
0.0029
0.0019
0.0009
)


// ************************************************************************* //
