/*--------------------------------*- C++ -*----------------------------------*\
| =========                 |                                                 |
| \\      /  F ield         | OpenFOAM: The Open Source CFD Toolbox           |
|  \\    /   O peration     | Version:  v2012                                 |
|   \\  /    A nd           | Website:  www.openfoam.com                      |
|    \\/     M anipulation  |                                                 |
\*---------------------------------------------------------------------------*/
FoamFile
{
    version     2.0;
    format      ascii;
    class       volScalarField;
    location    "0.087";
    object      omega.air;
}
// * * * * * * * * * * * * * * * * * * * * * * * * * * * * * * * * * * * * * //

dimensions      [0 0 -1 0 0 0 0];


internalField   nonuniform List<scalar> 
5600
(
6772.53
9484.08
11876.4
13295
13893.2
13968.2
13769
13434.6
13076.8
12742
12451.7
12200.3
12012.4
11869
11782.7
11729.6
11710.6
11709.3
11717.8
11733.3
11746
11758.3
11769.1
11773.3
11783.9
11782.9
11794.5
11792.3
11803.3
11802.7
11809.3
11812.9
11812.8
11819.1
11814.2
11819.8
11814.9
11815.1
11816.1
11807.3
11816
11800
11812.7
11796.5
11805.2
11798.2
11794.6
11803
11784.8
11805
11780.3
11801.9
11783.3
11794.2
11790.8
11785.8
11796.1
11782.4
11794.7
11786.4
11788.2
11794.7
11782.4
11801
11782.4
11802.7
11788.6
11801
11797.2
11800.6
11804.6
11804.7
11809.3
11810.8
11813.9
11814.5
11822.9
11813.9
11835.9
11814.2
11844.5
11823.3
11842.7
11840
11839.4
11849.4
11851.4
11842.7
11872.8
11842.9
11871.9
11876.5
11836.5
11934.9
11779.8
12029.8
11600
12401.2
10671.2
13855.5
2506.65
2659.72
3499.04
4409.22
5079.21
5504.87
5761.59
5921.09
5996.53
6003.38
6086.03
6227.14
6347.23
6442.47
6480.66
6480.4
6436.75
6365.78
6274.91
6172.37
6065.97
5959.82
5863.55
5769.21
5687.18
5603.4
5529.41
5457.27
5394.06
5335.33
5281.6
5235.33
5190.05
5152.23
5115.61
5084.47
5055.87
5029.16
5007.24
4984.95
4966.96
4948.52
4933.74
4918.84
4905.55
4894.2
4881.52
4872.21
4860.79
4853.35
4842.24
4836.04
4827.28
4820.59
4814.52
4807.52
4802.73
4796.45
4792.28
4787.09
4781.99
4778.68
4773.52
4771.6
4766.39
4765.24
4761.18
4759.3
4756.46
4754.44
4752.02
4750.4
4748.47
4747.02
4745.69
4743.97
4742.75
4740.77
4740.22
4737.72
4738.29
4736.17
4735.83
4735.57
4733.87
4734.49
4731.86
4734.7
4729.58
4736.24
4724.31
4746.33
4708.97
4773.6
4667.57
4844.06
4546.49
5059.19
4134.73
5742.56
2556.8
2211.88
1999.25
1892.68
1862.91
1940.44
2039.54
2172.5
2317.39
2458.53
2597.16
2766.27
2935.87
3109.93
3266.31
3399.72
3507.3
3581.84
3629.65
3646.9
3635.71
3601.77
3537.49
3467.45
3385.11
3320.22
3262.69
3213.4
3168.51
3126.54
3088.34
3055.67
3023.66
2994.72
2965.46
2939.32
2914.65
2890.35
2869.98
2847.85
2831.11
2810.92
2797.15
2779.99
2767.11
2754.12
2741.03
2732.23
2718.52
2713.04
2699.49
2695.27
2684.58
2678.83
2672.28
2664.58
2660.75
2652.65
2649.31
2643.21
2638.07
2635.37
2628.16
2628.08
2620.37
2620.58
2614.73
2613.28
2609.77
2607.08
2604.89
2602.29
2600.21
2598.09
2595.99
2593.51
2592.42
2588.31
2589.75
2583.7
2586.66
2581.84
2581.73
2581.98
2576.81
2580.39
2574.9
2577.12
2572.71
2578.95
2562.46
2593.43
2540.96
2619.9
2507.68
2665.82
2440.8
2763.74
2301.63
2904.94
2552.41
2195.87
1925.95
1722.93
1560.51
1442.97
1348.29
1283.8
1232.55
1204.03
1188.5
1195.98
1229.34
1275.89
1352.56
1435.41
1542.37
1649.98
1761.95
1878.96
1971.95
2078.13
2134.42
2210.23
2233.89
2276.69
2284.63
2298.16
2293.37
2278.63
2260.61
2226.91
2201.67
2171.68
2149.18
2127.36
2105.04
2087.39
2066.05
2049.25
2032.53
2015.25
2003.09
1986.91
1974.28
1959.62
1946.66
1935.36
1920.91
1913.02
1898.59
1891.96
1880.23
1872.75
1864.73
1855.78
1850.37
1840.96
1835.65
1828.59
1822.02
1818.33
1809.95
1808.47
1799.91
1798.07
1791.3
1788.11
1783.64
1779.67
1776.49
1772.78
1769.6
1766.2
1763
1758.92
1757.5
1751.61
1752.94
1745.88
1747.64
1743.01
1740.76
1741.59
1734.94
1737.68
1732.68
1732.35
1729.09
1733.11
1717.96
1742.7
1703.1
1752.6
1692.86
1760.1
1681.72
1771.1
1671.74
1750.11
2550.98
2191.85
1920.07
1709.48
1540.1
1402.79
1289.46
1192.91
1115.26
1042.51
990.37
933.26
900.551
858.064
838.095
815.475
800.879
807.948
800.191
842.006
843.593
917.371
934.76
1027.86
1066.51
1159.43
1224.42
1296.94
1381.73
1424
1504.18
1523.1
1573.97
1590.34
1608.98
1629.8
1621.45
1643.66
1619.37
1633.54
1608.92
1605.67
1592.11
1572.85
1571.77
1549
1549.05
1530.32
1524.19
1514.08
1501.68
1496.7
1483.36
1478.11
1469.25
1461.18
1455.78
1446
1440.57
1432.57
1426.05
1421.47
1412.8
1410
1401.09
1397.35
1390.01
1385.11
1379.97
1374.85
1370.78
1366.14
1361.93
1357.51
1353.53
1347.91
1346
1338.8
1339.04
1331.92
1331.19
1327.36
1322.83
1323.02
1316.79
1316.23
1313.46
1309.35
1308.02
1308.04
1297.57
1310.41
1289.87
1306.95
1291.29
1298.62
1294.01
1294.3
1294.92
1283.51
2550.86
2190.22
1919.11
1706.27
1538.14
1397.29
1284.8
1183.31
1104.78
1026.82
970.143
908.586
864.746
818.121
778.923
748.73
708.057
694.324
652.593
649.331
615.107
610.274
596.841
579.697
595.699
566.735
610.358
582.667
648.391
631.177
709.515
718.969
779.207
837.984
856.384
957.968
950.729
1055.69
1044.36
1132.23
1126.4
1157.97
1197.27
1180.95
1244.17
1204.35
1257.36
1225.1
1250.12
1243.39
1236.72
1248.31
1224.28
1234.73
1216.13
1212.58
1207.25
1195.32
1197.85
1185.69
1185.85
1178.77
1173.28
1170.04
1162.59
1159.27
1153.53
1148.59
1144.79
1139.49
1135.83
1131.45
1127.32
1123.21
1119.37
1113.86
1112.07
1104.87
1104.26
1097.76
1094.99
1091.91
1086.26
1084.95
1080.65
1076.31
1076.2
1069.38
1068.88
1066.91
1059.55
1063.82
1055.89
1054.54
1057.87
1046.2
1055.23
1047.45
1047.31
1048.27
2550.96
2189.41
1919.02
1704.93
1537.82
1395.72
1283.77
1181.99
1102.22
1026.18
965.337
908.343
857.872
816.378
771.602
741.618
702.665
677.302
649.175
619.107
608.528
566.457
575.565
522.792
543.585
492.656
508.457
477.172
471.935
471.905
441.607
469.036
427.828
464.488
437.617
465.545
465.489
481.792
510.913
514.851
571.47
564.316
643.949
622.95
711.269
699.615
774.52
775.129
825.893
857.708
841.274
925.52
883.786
941.679
932.559
938.302
959.944
948.537
985.355
967.324
984.63
975.546
976.692
977.291
973.333
975.906
975.363
972.981
973.389
966.762
964.718
959.638
954.389
952.431
947.995
946.569
945.577
941.107
941.542
936.404
934.33
931.927
927.774
925.185
924.199
917.81
920.159
913.946
913.008
912.569
906.749
907.54
905.377
898.254
904.644
893.626
897.485
896.505
889.55
895.179
2550.93
2189.24
1918.74
1704.75
1537.17
1395.78
1282.53
1182.57
1100.19
1027.28
962.822
909.246
855.992
815.483
772.161
737.069
706.929
668.619
655.951
608.83
613.195
559.949
571.921
524.747
528.053
502.488
482.583
487.782
441.047
471.575
412.949
443.135
406.485
399.57
416.289
352.784
424.742
320.16
417.997
314.01
387.625
348.348
343.906
384.912
310.927
406.165
312.801
415.96
350.434
419.778
400.038
442.413
453.527
474.696
519.406
512.196
576.966
560.636
615.339
617.45
642.172
663.271
673.126
696.662
707.1
721.307
741.212
744.067
761.557
760.695
770.294
775.937
775.029
783.881
781.066
788.048
792.22
791.101
798.765
794.447
798.478
797.468
796.919
795.528
796.951
791.242
795.216
790.582
789.842
790.605
786.136
785.035
785.806
778.386
783.273
777.035
776.589
778.013
772.428
774.52
2550.72
2189.5
1918.21
1705.17
1536.32
1396.37
1281.48
1183.14
1099.28
1027.4
962.54
908.441
856.712
813.649
773.581
735.028
707.642
668.288
653.734
612.445
606.345
568.32
560.989
535.746
516.452
511.355
475.67
488.657
444.505
460.124
428.406
421.704
426.211
378.539
426.725
344.336
414.651
332.674
380.523
346.616
328.381
374.245
274.706
393.099
244.354
378.876
253.365
334.298
288.379
274.577
337.115
227.182
340.644
245.057
301.322
293.684
276.813
328.726
255.151
333.019
281.589
341.179
328.397
355.419
371.992
374.905
399.005
400.075
423.977
434.761
454.699
473.628
489.5
505.918
521.037
530.084
549.105
553.864
571.874
578.626
593.081
600.697
614.465
615.924
631.139
629.307
640.107
644.328
645.94
653.377
654.481
654.294
661.838
656.431
662.584
662.133
660.536
664.149
661.471
661.157
2550.57
2189.71
1917.86
1705.47
1535.85
1396.67
1281.07
1183.2
1099.21
1026.98
962.96
907.578
857.322
812.98
773.401
735.796
705.349
671.637
648.7
618.183
599.79
574.136
556.064
538.004
516.66
507.324
482.45
478.827
455.172
449.566
435.624
418.911
421.493
390.237
406.992
369.448
386.165
360.166
357.477
360.02
325.881
360.857
300.969
352.74
291.54
330.069
297.719
297.829
309.087
268.066
312.801
254.78
295.902
265.143
263.54
280.374
239.216
282.383
231.271
268.423
237.709
252.954
240.776
248.302
235.379
252.889
226.978
253.4
231.064
249.51
249.972
238.913
270.641
240.207
283.823
258.615
279.399
284.641
277.053
305.809
291.488
314.138
318.192
322.342
343.267
340.914
358.33
364.018
370.235
383.728
386.304
399.704
405.04
414.842
422.36
429.983
436.902
444.455
448.557
456.492
2550.52
2189.79
1917.78
1705.58
1535.77
1396.76
1281.05
1183.18
1099.33
1026.8
963.221
907.332
857.506
813.003
773.088
736.538
704.153
673.296
646.726
620.261
597.934
575.405
555.706
537.177
518.719
504.129
486.364
474.74
458.559
447.603
435.188
422.053
415.312
398.747
396.911
379.228
377.919
364.359
357.839
353.061
338.29
342.711
321.67
331.016
309.173
317.378
300.249
302.699
293.591
288.133
288.212
274.611
282.671
263.792
274.752
257.929
262.864
257.804
248.588
258.86
238.696
254.008
239.324
240.847
248.891
226.816
256.357
224.608
253.221
237.837
242.887
258.068
239.704
271.45
252.175
275.679
277.235
280.696
301.796
294.853
320.607
319.055
336.428
346.278
353.214
370.659
374.012
390.749
398.196
407.204
421.829
423.798
440.085
443.945
453.321
463.753
466.487
477.124
480.94
485.167
2550.53
2189.85
1917.84
1705.67
1535.86
1396.85
1281.19
1183.26
1099.53
1026.86
963.45
907.423
857.675
813.236
773.075
737.017
703.912
673.964
646.451
620.769
598.116
575.175
556.91
535.803
521.048
501.951
488.965
473.134
459.669
448.492
433.108
426.546
409.961
405.7
390.79
385.136
375.198
365.275
361.795
347.394
348.867
332.906
334.994
322.854
319.575
317.179
303.78
313.886
291.065
309.455
285.649
301.756
289.182
293.125
298.525
289.846
309.063
297.191
319.746
315.919
332.25
343.976
349.315
376.895
374.072
409.701
408.933
438.545
452.229
464.777
496.03
495.113
531.116
533.091
554.913
572.751
575.776
603.682
601.398
621.931
629.5
633.76
651.463
646.662
662.493
661.56
666.069
673.538
669.512
677.996
675.99
677.547
680.952
677.398
681.396
678.549
679.107
679.345
677.099
679.076
2550.55
2189.93
1917.96
1705.83
1536.06
1397.05
1281.45
1183.48
1099.85
1027.09
963.823
907.678
858.063
813.577
773.389
737.557
704.038
674.814
646.338
621.907
597.944
576.286
557.216
536.253
522.616
501.103
492.325
471.033
464.442
446.449
437.824
426.9
412.973
410.593
391.988
395.223
377.001
380.012
368.551
366.784
365.591
359.015
367.564
360.007
375.574
371.339
391.826
394.084
417.162
428.658
450.59
473.717
490.447
524.249
536.605
573.881
588.434
619.211
641.589
660.174
688.975
699.321
725.992
736.593
752.854
768.322
773.404
790.361
790.907
802.032
805.608
807.765
815.462
812.464
819.338
817.742
819.034
821.423
817.852
821.238
817.388
817.443
816.61
812.524
813.651
808.804
808.366
806.233
802.66
802.664
798.657
797.664
795.379
792.542
791.631
788.545
787.648
785.95
784.675
784.637
2550.6
2190.11
1918.2
1706.17
1536.42
1397.53
1281.91
1184.06
1100.41
1027.76
964.537
908.414
859.007
814.364
774.637
738.478
705.58
676.167
648.022
624.292
599.571
580.509
558.893
542.991
525.391
510.685
498.754
483.751
478.558
463.758
464.838
453.261
459.111
455.773
465.639
473.51
488.529
508.716
529.411
561.019
586.176
625.731
653.824
695.72
727.555
764.489
800.23
827.222
864.802
882.161
915.451
927.914
950.337
962.124
972.169
984.288
987.041
996.797
997.424
1001.89
1003.45
1002.56
1004.68
1001.03
1001.32
998.052
994.824
993.011
987.402
985.634
980.712
977.37
974.722
969.821
968.243
963.575
960.931
957.927
953.576
951.645
947.045
944.444
941.285
937.358
935.492
931.529
929.528
926.695
923.92
921.721
918.352
916.133
913.165
910.688
908.498
906.183
904.694
903.109
902.295
901.766
2550.73
2190.51
1918.76
1706.96
1537.29
1398.69
1283.11
1185.72
1102.12
1030.14
967.074
911.818
862.915
819.29
780.791
745.771
715.32
687.522
663.708
643.082
624.817
612.319
599.304
596.549
590.586
600.393
605.822
629.42
650.918
688.06
726.929
772.704
825.02
873.221
932.785
978.753
1035.53
1075.88
1121.46
1153.98
1183.82
1207.54
1223.65
1240.74
1248.84
1258.82
1262.34
1265.03
1266.14
1262.57
1261.62
1254.23
1250.61
1242.66
1236.08
1230.02
1222.78
1217.88
1210.86
1205.68
1199.76
1193.69
1188.7
1182.41
1177.57
1172.13
1166.75
1162.47
1157.1
1153.35
1148.4
1144.11
1139.79
1134.93
1131.11
1126.25
1122.33
1118.07
1113.7
1110.05
1105.61
1102.11
1098.21
1094.54
1091.3
1087.69
1084.76
1081.46
1078.59
1075.69
1072.82
1070.31
1067.7
1065.7
1063.6
1062.09
1060.75
1059.77
1059.32
1059.05
2551.14
2191.61
1920.44
1709.24
1540.45
1402.97
1289.36
1194.46
1114.13
1046.48
988.159
940.138
899.182
866.966
841.508
824.317
815.309
817.037
830.307
854.201
890.599
937.765
994.823
1061.48
1131.66
1210.67
1284.66
1365.04
1430.92
1495.93
1541.97
1582.57
1610.57
1632.84
1648.71
1656.59
1662
1659.05
1655.53
1645.09
1634.5
1620.73
1607.77
1596.2
1584.21
1573.55
1562.27
1551.61
1541.14
1530.67
1521.01
1511.27
1502.6
1494.34
1486.36
1478.75
1470.8
1463.44
1455.93
1448.8
1441.92
1434.89
1428.54
1421.92
1415.84
1409.81
1403.92
1398.59
1392.97
1388.17
1383.06
1378.48
1374.02
1369.55
1365.7
1361.49
1357.89
1354.1
1350.51
1347.18
1343.67
1340.64
1337.4
1334.55
1331.65
1328.91
1326.34
1323.69
1321.42
1318.96
1316.99
1314.98
1313.26
1311.96
1310.53
1309.86
1308.97
1308.73
1308.66
1308.95
2552.74
2195.22
1927.01
1721.95
1562.95
1442.91
1354.02
1286.24
1242.99
1212.81
1204.27
1220
1257.11
1316.58
1395.81
1492.03
1600.94
1715.45
1833
1944.25
2047.95
2134.01
2204.07
2254.66
2291.51
2315.86
2329.51
2332.36
2322.92
2304.94
2277.23
2247.29
2218.28
2193.6
2170.22
2148.58
2127.38
2107.44
2088.04
2070.23
2053.16
2038.09
2022.98
2007.93
1993.76
1979.63
1966.75
1953.96
1942.3
1930.99
1920.21
1910.36
1900.6
1891.95
1883.19
1875.68
1867.98
1861.12
1854.49
1848.1
1842.26
1836.3
1831.05
1825.52
1820.53
1815.68
1810.92
1806.6
1802.09
1798.22
1794.12
1790.44
1786.91
1783.43
1780.44
1777.26
1774.59
1771.75
1769.22
1766.73
1764.29
1762.14
1759.82
1757.94
1755.78
1754.03
1752.18
1750.44
1748.98
1747.37
1746.34
1745.14
1744.42
1743.86
1743.26
1743.34
1742.96
1743.39
1743.71
1744.69
2556.97
2211.4
2002.14
1894.96
1875.35
1959.47
2066.13
2207.39
2362.12
2500.67
2657.86
2833
3015.42
3191.13
3348.75
3479.37
3580.83
3649.61
3688.61
3695.96
3676.21
3627.18
3558.71
3477.94
3403.31
3341.24
3288.42
3239.75
3195.3
3153.94
3117.56
3083.78
3052.4
3021.32
2992.94
2966.3
2940.84
2918.07
2895.51
2875.8
2856.27
2839.18
2822.75
2807.65
2794.01
2780.81
2769.4
2758
2748.12
2738.34
2729.45
2721.27
2713.03
2706.03
2698.67
2692.68
2686.28
2680.94
2675.62
2670.56
2666.15
2661.53
2657.76
2653.5
2649.96
2646.46
2643.02
2640.03
2636.8
2634.16
2631.24
2628.66
2626.15
2623.7
2621.55
2619.32
2617.43
2615.41
2613.72
2611.93
2610.34
2608.84
2607.33
2606.1
2604.69
2603.64
2602.45
2601.51
2600.67
2599.94
2599.59
2599.2
2599.25
2599.31
2599.44
2600.08
2600.22
2601.22
2601.96
2603.92
2508.36
2664.9
3511.77
4425.01
5100.96
5522.85
5790.7
5943.9
6009.55
6036.89
6165.15
6318.19
6450.4
6536.73
6572.33
6559.49
6508.52
6428.48
6330.61
6222.72
6112.04
6005.86
5906.17
5814.18
5726.66
5644.59
5567
5496.65
5432.82
5373.88
5322.02
5273.02
5230.88
5190.66
5156.11
5124.18
5095.67
5070.66
5046.82
5026.74
5007.19
4990.43
4974.52
4960.31
4947.33
4934.66
4923.62
4912.56
4902.76
4893.23
4884.4
4876.33
4868.08
4861.15
4854.06
4847.95
4842
4836.6
4831.6
4826.58
4822.45
4818.04
4814.37
4810.53
4807.23
4804.19
4801.02
4798.42
4795.69
4793.3
4790.97
4788.71
4786.73
4784.84
4783.06
4781.49
4779.88
4778.52
4777.16
4775.95
4774.87
4773.77
4772.97
4772.03
4771.41
4770.71
4770.17
4769.81
4769.41
4769.51
4769.44
4769.91
4770.33
4770.96
4771.68
4772.59
4773.23
4774.53
4775.67
4778.64
6769.22
9484.65
11872.1
13280.2
13857.5
13918.8
13700.3
13354.3
12989.2
12654.3
12355.6
12108.7
11918.4
11784.6
11699.8
11655.2
11638.7
11640.6
11651.5
11666
11679.6
11691.4
11700
11707.5
11712.8
11718.6
11723.4
11728.3
11733.1
11736.5
11741.3
11742.6
11746
11745.5
11746.6
11745
11743.8
11742.2
11739
11737.7
11733.4
11732.1
11728
11726.3
11723.3
11721
11719.6
11716.6
11716.3
11713.3
11712.9
11710.9
11709.6
11709.5
11706.9
11708.4
11705.4
11707.1
11705.2
11705.9
11706.3
11705.6
11707.7
11706.7
11709.2
11709.2
11710.9
11712.6
11713.4
11716.2
11716.8
11720
11721.4
11724.1
11726.8
11728.8
11732.4
11734.1
11738
11740.2
11743.6
11747
11749.4
11753.8
11756
11760.3
11763.5
11766.9
11771.4
11774.1
11778.9
11781.7
11785.6
11788.9
11791.2
11794.4
11795.4
11796.9
11796.4
11793.7
10932.5
6782.19
4846.38
3898.02
3325.39
2950.97
2680.96
2478.19
2317.21
2184.15
2071.5
1970.88
1881.84
1800.77
1726.26
1659.43
1594.37
1532.41
1472.69
1416.77
1363.45
1312.43
1268.68
1227.47
1185.17
1143.38
1089.24
1039.76
1015.7
964.699
882.896
816.86
764.57
734.666
726.835
747.894
772.646
779.389
769.269
745.621
711.479
676.3
647.801
626.702
611.679
600.689
589.357
576.003
562.166
547.491
529.691
506.213
476.148
440.847
403.104
365.718
330.329
297.801
268.473
242.028
218.223
197.307
179.724
165.773
155.365
147.993
142.997
139.795
137.957
137.16
137.103
137.423
137.733
137.748
137.364
136.628
135.689
134.736
133.931
133.338
132.946
132.706
132.57
132.496
132.46
132.44
132.431
132.425
132.424
132.42
132.421
132.418
132.419
132.416
132.418
132.415
132.417
132.413
132.414
132.408
2771.66
5026.39
4705.68
3974.59
3400.96
2996.5
2699.94
2477.47
2302.84
2160.99
2043.56
1940.33
1851.32
1771.14
1697.65
1632.88
1567.95
1505.72
1446.18
1391.02
1337.2
1283.99
1241.43
1203.81
1162.45
1120.93
1068.1
1018.18
991.094
928.751
825.938
749.641
712.348
717.256
714.195
719.568
745.942
760.77
756.786
736.534
704.218
669.868
641.519
620.239
604.446
591.501
577.67
562.604
548.029
533.327
515.787
492.627
463.071
428.436
391.167
353.672
317.715
284.511
254.345
227.324
203.941
184.682
169.692
158.642
150.781
145.277
141.473
138.948
137.449
136.794
136.778
137.115
137.457
137.52
137.19
136.521
135.658
134.764
133.98
133.382
132.975
132.719
132.566
132.478
132.428
132.401
132.385
132.376
132.37
132.367
132.365
132.363
132.362
132.361
132.361
132.36
132.36
132.359
132.359
132.357
2141.99
2662.01
3516.52
3582.77
3277.31
2947
2667.83
2445.73
2268.53
2123.25
2003.41
1899.37
1811.46
1731.99
1659.1
1597.65
1532.88
1470.77
1412.95
1360.16
1306.51
1250.91
1209.02
1174.63
1132.59
1089.94
1039.52
988.989
948.226
852.863
730.583
695.952
707.209
743.924
757.711
722.916
723.202
738.737
740.796
725.159
695.535
662.282
634.043
612.483
595.765
580.697
564.548
548.055
532.891
518.127
500.719
477.845
448.751
414.607
377.506
339.64
303.042
268.926
237.984
211.259
189.596
173.182
161.439
153.288
147.593
143.51
140.537
138.445
137.134
136.535
136.511
136.836
137.198
137.32
137.065
136.484
135.717
134.911
134.163
133.553
133.106
132.811
132.623
132.51
132.439
132.4
132.373
132.36
132.349
132.345
132.34
132.34
132.336
132.338
132.335
132.338
132.335
132.338
132.336
132.34
1711.88
1615.91
1954.71
2421.48
2635.24
2613.54
2473.36
2313.91
2168.93
2042.17
1933.37
1838.91
1758.1
1681.99
1610.74
1554.85
1490.37
1428.74
1374.34
1324.95
1270.99
1213.04
1170.56
1136.56
1089.5
1042.22
994.498
938.484
848.906
695.516
640.999
718.167
773.119
798.82
823.976
776.81
723.503
718.943
721.848
710.792
684.693
652.982
624.978
603.118
585.322
568.223
550.199
532.6
516.992
502.115
484.698
461.942
433.039
398.989
361.687
323.297
285.879
250.998
220.421
195.627
177.107
164.211
155.572
149.751
145.62
142.494
140.044
138.198
136.963
136.349
136.27
136.554
136.929
137.139
137.014
136.567
135.912
135.189
134.474
133.851
133.358
133.014
132.779
132.632
132.533
132.476
132.434
132.415
132.396
132.392
132.381
132.383
132.376
132.38
132.374
132.38
132.374
132.382
132.378
132.389
1302.02
1271.26
1295.68
1397.25
1602.46
1796.92
1899.3
1917.47
1884.3
1832.55
1772.26
1716.71
1662.48
1601.91
1540.5
1495.55
1432.75
1372.64
1324.13
1277.09
1218.65
1158.44
1112.43
1067.87
1004.84
945.673
894.029
788.237
629.584
596.089
679.861
791.32
849.181
855.967
876.177
849.701
761.003
713.516
703.668
693.713
671.175
641.5
613.987
591.843
572.826
553.833
534.458
516.462
500.985
486.368
469.136
446.345
417.07
382.335
344.163
304.854
266.687
232.278
203.925
182.648
167.904
158.217
151.92
147.666
144.525
141.988
139.851
138.13
136.895
136.211
136.034
136.243
136.613
136.92
136.966
136.701
136.174
135.517
134.825
134.204
133.687
133.304
133.022
132.835
132.701
132.62
132.559
132.529
132.5
132.491
132.476
132.477
132.467
132.472
132.464
132.472
132.465
132.475
132.47
132.485
1043.52
1043.33
1046.93
1031.66
1060.53
1100.46
1173.08
1250.6
1306.72
1353.76
1382.17
1415.86
1433.76
1424.24
1400.98
1379.04
1324.01
1270.36
1232.75
1179.4
1102.2
1042.39
974.259
857.251
758.966
662.812
543.182
494.232
562.545
686.829
783.924
869.63
915.612
911.429
918.737
911.074
826.229
735.66
695.635
677.122
655.349
627.542
600.69
578.216
557.866
537.372
517.801
501.162
487.6
474.861
459.023
436.512
406.091
369.151
328.478
287.278
248.91
216.454
191.542
173.986
162.333
154.824
149.934
146.562
143.977
141.788
139.844
138.189
136.916
136.121
135.806
135.896
136.213
136.562
136.741
136.646
136.261
135.7
135.074
134.489
133.977
133.572
133.254
133.029
132.861
132.753
132.672
132.628
132.59
132.575
132.556
132.554
132.543
132.547
132.539
132.545
132.539
132.548
132.544
132.56
888.779
886.966
893.229
873.089
870.188
851.253
849.096
848.1
854.318
860.538
881.678
923.627
971.848
1017.89
1075.9
1057.82
1041.81
1017.7
961.215
824.211
711.704
602.28
462.506
413.201
393.431
432.525
547.601
642.559
723.917
806.622
879.491
942.549
976.166
967.239
961.551
961.452
896.849
788.383
711.331
670.359
641.106
612.148
585.205
562.115
540.87
520.939
504.786
493.867
486.661
479.666
468.098
447.331
415.34
374.039
328.093
282.843
242.82
210.775
187.258
171.137
160.553
153.721
149.242
146.143
143.772
141.762
139.946
138.34
137.026
136.107
135.615
135.517
135.685
135.961
136.164
136.181
135.95
135.535
135.023
134.51
134.033
133.635
133.311
133.072
132.891
132.771
132.682
132.629
132.587
132.568
132.548
132.544
132.533
132.535
132.528
132.533
132.528
132.535
132.532
132.545
771.628
770.66
775.06
762.803
756.35
736.398
721.973
700.506
684.794
657.337
646.378
629.423
610.049
615.576
628.541
566.129
569.664
508.971
400.49
337.251
310.331
401.596
532.12
609.958
675.463
734.639
763.984
777.926
820.986
895.301
966.463
1014.27
1032.89
1019.87
1004.62
1005.79
965.037
861.524
758.922
688.512
641.008
604.038
574.183
550.089
530.728
517.632
512.5
514.15
518.324
519.821
513.649
494.992
461.215
414.398
360.944
308.293
261.887
224.471
196.56
177.069
164.11
155.727
150.3
146.675
144.074
142.019
140.242
138.662
137.304
136.249
135.543
135.189
135.106
135.188
135.299
135.339
135.226
134.961
134.581
134.168
133.765
133.421
133.138
132.929
132.77
132.665
132.587
132.54
132.504
132.487
132.469
132.465
132.456
132.457
132.451
132.455
132.451
132.457
132.455
132.465
660.644
659.384
659.232
651.832
639.07
624.752
601.08
584.078
552.57
536.391
509.891
483.625
481.068
448.485
437.324
439.539
420.907
460.512
517.6
596.566
685.66
727.557
743.26
761.236
780.014
792.443
805.063
837.569
906.388
993.909
1057.72
1079.16
1075.05
1056.24
1038.32
1040.43
1026.6
945.62
835.181
742.232
673.607
623.602
588.629
565.428
554.585
556.476
567.399
581.284
591.933
594.702
586.333
564.019
526.035
474.448
415.628
357.318
305.027
260.91
225.408
198.382
178.902
165.497
156.546
150.638
146.667
143.859
141.69
139.872
138.287
136.954
135.912
135.194
134.763
134.557
134.473
134.433
134.346
134.178
133.92
133.629
133.336
133.091
132.888
132.745
132.634
132.567
132.512
132.486
132.46
132.453
132.438
132.44
132.43
132.435
132.427
132.435
132.427
132.437
132.431
132.446
457.858
463.317
463.963
464.332
458.497
453.091
448.376
436.409
444.027
437.085
449.649
467.744
475.562
508.412
535.834
572.552
626.641
674.437
720.186
759.967
787.908
807.714
826.381
846.142
863.269
877.203
901.477
955.138
1036.9
1111.65
1135.32
1113.69
1085.15
1062.66
1049.62
1058.22
1071.17
1030.53
933.247
831.979
749.482
691.398
656.953
640.942
642.026
654.152
667.988
677.582
679.759
672.528
654.626
624.862
582.618
529.783
471.162
413.019
360.671
316.585
279.821
248.888
222.964
201.855
185.265
172.71
163.417
156.576
151.378
147.256
143.817
140.966
138.652
136.921
135.687
134.901
134.397
134.114
133.902
133.752
133.571
133.431
133.275
133.194
133.102
133.084
133.034
133.051
133.017
133.047
133.014
133.05
133.015
133.055
133.015
133.06
133.016
133.067
133.021
133.082
133.04
133.12
492.752
493.198
501.634
505.767
517.256
532.171
548.219
575.59
598.347
628.397
657.48
679.855
704.611
727.604
749.29
774.517
800.616
823.178
845.749
868.411
887.432
905.265
925.036
943.359
956.77
975.16
1018.01
1091.54
1167.67
1194.84
1157.3
1098.11
1055.38
1034.62
1032.11
1052.06
1087.81
1092.31
1033.17
944.024
862.503
808.435
779.321
766.991
765.175
765.938
763.628
757.095
745.149
726.038
699.015
664.114
622.03
574.122
522.429
470.78
423.718
385.031
354.78
330.496
309.188
289.675
271.08
253.385
236.275
219.988
204.312
189.848
176.807
165.919
157.051
150.481
145.608
142.439
140.167
138.935
138.073
137.951
137.891
138.381
138.664
139.345
139.611
140.217
140.311
140.791
140.717
141.112
140.915
141.276
141
141.361
141.029
141.416
141.046
141.481
141.093
141.615
141.26
141.942
677.711
679.308
682.217
687.347
698.074
709.957
725.854
742.861
759.499
777.327
791.562
804.36
818.29
831.188
846.37
865.509
886.012
908.498
934.051
960.508
988.14
1015.67
1038.06
1052.07
1065.53
1098.73
1161.63
1231.93
1258.38
1208.81
1119.96
1047.29
1010.13
999.43
1006.79
1033.41
1078.4
1113.83
1098.15
1039.38
978.564
932.535
898.667
873.953
853.593
833.998
813.993
793.627
771.056
744.455
713.854
680.481
644.727
606.304
565.29
524.563
487.419
456.668
432.481
414.6
400.18
388.118
376.529
365.116
352.116
337.781
320.487
301.467
280.36
260.137
240.857
225.343
212.152
203.312
196.365
193.485
191.891
193.882
195.859
200.213
202.994
207.286
209.14
212.389
212.986
215.33
214.975
216.832
215.873
217.554
216.234
217.902
216.365
218.1
216.46
218.302
216.679
218.736
217.347
219.87
784.154
785.448
787.826
793.501
802.102
813.143
827.104
841.805
858.293
874.669
888.842
902.963
917.018
931.312
949.63
971.609
996.738
1025.82
1057.9
1094.34
1132.27
1160.04
1173.98
1182.09
1202.86
1251.12
1311.57
1334.58
1275.18
1162.25
1062.82
1005.31
983.085
980.825
991.637
1017.4
1059.37
1102.41
1115.03
1088.16
1044.75
997.556
952.278
914.119
881.836
853.539
828.09
802.937
775.344
745.509
715.231
685.97
657.083
627.526
597.227
568.521
543.276
522.68
505.502
491.546
479.82
470.612
462.821
456.505
450.121
444.164
437.202
429.537
419.839
409.945
399.553
391.046
383.565
379.119
376.16
376.672
378.633
383.598
388.507
394.8
399.353
404.457
407.191
410.597
411.63
413.866
413.773
415.463
414.683
416.227
415.015
416.615
415.102
416.875
415.154
417.184
415.362
417.816
416.143
419.39
902.097
903.23
906.04
912.252
921.243
933.751
948.812
965.548
984.525
1003.04
1020.4
1037.55
1054.21
1072.65
1096.05
1124.13
1156.87
1193.52
1235.89
1283.43
1319.57
1332.23
1331.51
1336.77
1364.65
1408.82
1424.21
1358.01
1228.48
1106.04
1027.59
991.924
982.37
984.117
992.976
1012.19
1043.86
1079.41
1098.87
1088.14
1051.84
1002.92
955.158
916.923
887.778
865.009
844.557
820.693
791.022
758.872
727.943
699.745
673.512
648.768
626.216
607.349
592.525
581.212
572.411
565.674
560.231
555.708
551.672
548.556
546.376
545.275
545.315
545.932
546.668
547.138
547.478
547.572
547.879
548.242
549.248
550.94
553.917
557.593
561.772
565.542
568.942
571.594
573.667
575.201
576.202
577.064
577.378
577.978
577.851
578.452
577.983
578.729
577.955
578.979
577.902
579.328
577.972
579.968
578.575
581.433
1060.02
1061.45
1065.34
1072.96
1084.49
1100.76
1120.08
1142.84
1168.03
1192.93
1216.8
1238.85
1260.1
1283.64
1312.42
1346.55
1384.87
1428.18
1479.13
1521.62
1531.74
1518.22
1503.65
1506.31
1526.23
1527.91
1459.81
1322.99
1180.73
1080.6
1030.01
1014.12
1013.57
1015.74
1018.93
1027.47
1044.51
1066.13
1078.94
1069.64
1037.38
994.715
956.515
930.274
915.099
906.023
894.546
872.874
840.841
805.262
771.529
741.488
714.839
692.21
675.029
663.737
657.285
653.888
652.591
652.725
654.026
656.19
659.241
662.774
666.462
669.488
671.632
672.959
674.058
674.609
674.886
674.579
674.272
673.878
674.343
675.658
678.453
681.847
685.652
688.985
692.014
694.335
696.159
697.488
698.361
699.123
699.389
699.941
699.802
700.377
699.893
700.648
699.836
700.92
699.75
701.311
699.787
702.011
700.4
703.577
1310.58
1312.74
1318.25
1328.44
1344.67
1367.33
1394.48
1426.98
1461.58
1495.57
1526.46
1551.88
1575.31
1600.31
1629.78
1663.92
1702
1745.85
1786.31
1792.43
1760.31
1721.57
1696.47
1686.92
1669.29
1598.67
1461.09
1302.35
1177.35
1107.26
1083.3
1084.34
1090.35
1090.99
1086.48
1081.8
1081.66
1086.14
1086.75
1073.49
1046.86
1018.97
1001.07
996.437
1003.04
1011.76
1008.57
986.031
949.282
908.531
870.381
837.125
809.097
788.314
776.382
772.47
774.013
778.314
784.077
790.496
797.394
804.483
811.692
818.56
824.748
829.745
833.477
835.878
837.21
837.567
837.297
836.577
835.932
835.718
836.581
838.615
841.719
845.183
848.52
851.463
853.888
855.844
857.234
858.33
858.949
859.564
859.726
860.169
860.022
860.492
860.054
860.736
859.956
861.05
859.807
861.566
859.749
862.517
860.355
864.5
1747.16
1750.53
1758.44
1773.23
1797.42
1830.44
1869.85
1915.3
1960.49
2001.95
2033.48
2053.71
2069.41
2084.65
2102.47
2125.24
2152.83
2177.12
2170.73
2118.01
2046.21
1987.94
1947.07
1904
1823.91
1684.22
1510.81
1357.21
1258.34
1217.77
1218.07
1234.64
1246.79
1246
1233.76
1215.1
1196.55
1182.07
1168.19
1150.78
1135.88
1134.42
1148.82
1176.01
1212.4
1240.41
1240.38
1210.48
1165.09
1117.25
1073.98
1037.45
1008.85
991.776
987.15
992.325
1002.98
1015.7
1028.62
1040.7
1051.72
1061.55
1070.13
1077.27
1082.87
1086.84
1089.36
1090.7
1091.27
1091.37
1091.25
1091.11
1091.28
1092.13
1093.9
1096.58
1099.77
1103.05
1105.96
1108.51
1110.51
1112.12
1113.21
1114.06
1114.54
1114.97
1115.11
1115.39
1115.31
1115.62
1115.32
1115.84
1115.2
1116.22
1114.99
1117
1114.75
1118.62
1115.29
1121.6