/*--------------------------------*- C++ -*----------------------------------*\
| =========                 |                                                 |
| \\      /  F ield         | OpenFOAM: The Open Source CFD Toolbox           |
|  \\    /   O peration     | Version:  v2012                                 |
|   \\  /    A nd           | Website:  www.openfoam.com                      |
|    \\/     M anipulation  |                                                 |
\*---------------------------------------------------------------------------*/
FoamFile
{
    version     2.0;
    format      ascii;
    class       volScalarField;
    location    "0.356";
    object      omega.air;
}
// * * * * * * * * * * * * * * * * * * * * * * * * * * * * * * * * * * * * * //

dimensions      [0 0 -1 0 0 0 0];


internalField   nonuniform List<scalar> 
5600
(
6586.29
7485.5
7886.8
7965.17
7866.41
7687.44
7480.98
7290.03
7125.34
6987.77
6878.92
6796.29
6736.28
6693.39
6663.68
6642.28
6627.09
6614.79
6605.37
6596.45
6589.64
6582.63
6577.88
6573.09
6570.52
6567.57
6566.37
6564.61
6564.08
6562.72
6562.16
6560.56
6559.63
6557.66
6556.48
6554.33
6553.04
6550.83
6549.58
6547.42
6546.3
6544.32
6543.43
6541.66
6541.07
6539.57
6539.26
6537.98
6537.91
6536.75
6536.91
6535.86
6536.19
6535.31
6535.85
6535.09
6535.89
6535.27
6536.31
6535.88
6537.19
6536.85
6538.44
6538.18
6540.05
6539.85
6541.99
6541.82
6544.25
6544.08
6546.83
6546.63
6549.73
6549.45
6552.92
6552.55
6556.4
6555.93
6560.11
6559.56
6563.98
6563.45
6567.9
6567.66
6571.69
6572.39
6575.02
6578.11
6577.16
6586.01
6576.66
6598.57
6569.09
6622.96
6540.55
6683.59
6440.52
6868.25
6038.67
7492.4
2450.54
2296.55
2571.65
2795.09
2928.2
2998.04
3010.26
2968.22
2968.91
3017.27
3073.44
3119
3147.16
3158.49
3154.9
3140.53
3118.26
3091.29
3062.13
3032.56
3003.22
2973.99
2945.02
2916.51
2889.21
2863.29
2839.67
2817.46
2797.58
2778.6
2761.96
2745.94
2732.07
2718.69
2707.18
2696
2686.39
2677.03
2668.96
2661.1
2654.29
2647.66
2641.88
2636.28
2631.28
2626.33
2621.88
2617.45
2613.47
2609.56
2606.02
2602.6
2599.55
2596.5
2593.87
2591.24
2588.99
2586.7
2584.8
2582.73
2581.11
2579.33
2577.93
2576.38
2575.18
2573.83
2572.79
2571.63
2570.71
2569.77
2568.97
2568.19
2567.52
2566.89
2566.35
2565.86
2565.42
2565.06
2564.68
2564.45
2564.07
2564.03
2563.57
2563.84
2563.14
2563.98
2562.67
2564.68
2561.81
2566.36
2559.4
2570.77
2552.86
2582.37
2534.77
2614.63
2478.45
2715.56
2278.6
3069.57
2358.54
1859.93
1592.13
1427.82
1346.08
1273.82
1279.96
1309.15
1351.9
1412.45
1482.27
1549.53
1611.13
1663.94
1704.86
1733.43
1749.09
1752.48
1744.29
1726.49
1702.37
1676.78
1653.6
1634.9
1619.45
1605.79
1593.23
1581.77
1571.23
1561
1551.15
1540.95
1531.32
1521.67
1512.9
1504.19
1496.4
1488.69
1481.88
1475.16
1469.22
1463.35
1458.13
1452.88
1448.27
1443.65
1439.6
1435.5
1431.93
1428.31
1425.17
1421.97
1419.25
1416.43
1414.07
1411.58
1409.54
1407.33
1405.55
1403.55
1401.98
1400.16
1398.78
1397.11
1395.91
1394.36
1393.32
1391.9
1391
1389.73
1388.94
1387.81
1387.13
1386.12
1385.53
1384.64
1384.09
1383.34
1382.76
1382.21
1381.5
1381.3
1380.25
1380.68
1378.9
1380.52
1377.22
1381.14
1374.73
1383.23
1370.37
1388.33
1361.8
1400.03
1343.71
1425.8
1304.9
1478.66
1229.03
1556.65
2345.16
1822.38
1493.22
1267.66
1111.15
992.612
906.861
846.934
802.649
776.732
760.405
769.457
791.622
824.101
860.911
902.279
941.249
978.663
1011.2
1039.65
1061.38
1079.17
1091.62
1100.98
1105.7
1107.17
1103.57
1097.11
1087.59
1078.02
1068.45
1060.71
1053.94
1048.04
1042.52
1037.34
1032.49
1027.85
1023.56
1019.24
1015.12
1010.64
1006.17
1001.44
996.998
992.456
988.341
984.18
980.475
976.736
973.445
970.121
967.222
964.271
961.704
959.011
956.662
954.156
951.989
949.643
947.645
945.449
943.619
941.57
939.908
938.002
936.504
934.745
933.407
931.787
930.589
929.117
928.024
926.68
925.651
924.437
923.437
922.423
921.385
920.648
919.422
919.126
917.48
917.933
915.457
917.2
913.173
917.142
910.31
918.135
906.347
920.828
900.496
926.192
891.808
934.568
880.802
942.113
875.328
926.685
2341.97
1815.97
1479.81
1247.93
1079.72
952.57
853.193
774.613
710.644
658.901
616.092
581.965
556.197
536.189
523.569
514.785
513.792
520.899
532.266
549.212
568.532
591.935
616.094
642.246
667.061
692.205
713.803
733.358
748.184
760.892
769.72
777.429
782.148
786.061
787.263
787.764
785.849
783.564
779.518
775.791
771.221
767.61
764.176
761.322
758.408
755.73
753.025
750.455
747.967
745.573
743.339
741.143
739.064
736.96
734.804
732.432
730.122
727.684
725.392
723.001
720.801
718.508
716.437
714.272
712.354
710.338
708.581
706.723
705.119
703.399
701.918
700.291
698.867
697.328
695.925
694.504
693.081
691.837
690.352
689.384
687.74
687.178
685.214
685.269
682.71
683.731
680.15
682.614
677.432
681.995
674.472
681.902
671.324
682.083
668.518
681.425
667.698
677.157
671.813
664.958
2341.13
1814.12
1476.76
1243.88
1074.17
945.326
844.331
763.137
696.591
641.021
594.191
554.016
519.689
489.846
464.179
441.875
422.651
406.903
393.56
383.412
375.254
370.387
367.302
368.998
373.099
381.377
391.417
405.413
419.97
437.8
454.606
473.782
490.926
509.294
524.579
540.272
552.268
564.147
572.37
580.455
585.552
590.729
593.885
597.312
598.936
600.765
600.934
601.292
600.187
599.323
597.304
595.617
593.223
591.22
589.084
587.472
585.726
584.283
582.707
581.303
579.832
578.44
577.07
575.712
574.463
573.169
572.028
570.807
569.698
568.5
567.301
565.93
564.594
563.191
561.777
560.433
558.949
557.719
556.137
555.105
553.392
552.65
550.733
550.391
548.162
548.349
545.672
546.515
543.265
544.845
540.98
543.234
538.939
541.425
537.39
539.046
536.591
535.858
535.991
532.425
2340.86
1813.43
1475.76
1242.6
1072.62
943.433
842.137
760.548
693.582
637.511
590.06
549.213
513.894
482.867
455.628
431.337
409.784
390.356
373.052
357.345
343.366
330.649
319.418
309.353
300.766
293.282
287.195
282.344
278.877
276.857
276.535
278.446
281.702
287.358
293.955
303.051
312.457
324.201
335.447
348.565
360.51
374.021
385.572
398.383
408.864
420.299
429.173
438.694
445.603
452.909
457.795
462.934
466.094
469.461
471.441
473.821
475.085
476.672
477.312
478.182
478.253
478.473
478.04
477.696
476.858
476.065
474.964
473.873
472.739
471.568
470.535
469.568
468.67
467.803
466.927
466.129
465.209
464.485
463.472
462.853
461.718
461.254
459.971
459.699
458.248
458.176
456.543
456.658
454.832
455.083
453.1
453.382
451.329
451.466
449.445
449.381
447.353
447.298
444.537
445.252
2340.76
1813.13
1475.33
1242.06
1072
942.724
841.353
759.667
692.627
636.441
588.911
547.91
512.508
481.256
453.911
429.281
407.568
387.638
370.029
353.553
339.044
325.185
313.093
301.27
291.126
280.947
272.43
263.624
256.521
248.917
243.118
236.714
232.205
227.015
223.808
219.934
218.12
215.726
215.447
215.053
216.679
218.393
221.921
225.778
231.145
237.03
244.023
251.608
259.823
268.521
277.408
286.648
295.678
304.877
313.428
322.032
329.856
337.615
344.537
351.261
357.149
362.709
367.494
371.833
375.52
378.669
381.361
383.452
385.366
386.691
388.072
388.989
390.04
390.616
391.341
391.628
392.011
392.06
392.097
391.948
391.639
391.341
390.7
390.304
389.356
388.912
387.691
387.236
385.781
385.331
383.68
383.238
381.423
381.045
379.059
378.755
376.457
376.297
373.404
373.317
2340.71
1812.97
1475.12
1241.81
1071.71
942.399
841.002
759.287
692.222
636.006
588.454
547.417
511.995
480.701
453.332
428.653
406.91
386.918
369.266
352.707
338.134
324.158
311.965
299.976
289.669
279.236
270.459
261.262
253.754
245.554
239.118
231.739
226.231
219.538
214.858
208.751
204.831
199.245
196.041
190.967
188.484
183.927
182.168
178.172
177.168
173.813
173.615
171.016
171.7
170.125
171.863
171.432
174.25
175.071
179.001
181.096
186.091
189.397
195.34
199.713
206.418
211.629
218.852
224.572
232.03
237.981
245.387
251.291
258.316
263.846
270.283
275.314
281.092
285.577
290.626
294.532
298.805
302.113
305.581
308.283
310.935
313.047
314.9
316.465
317.563
318.645
319.067
319.749
319.592
319.954
319.332
319.471
318.492
318.542
317.244
317.102
315.456
315.101
313.1
312.281
2340.68
1812.9
1475.02
1241.7
1071.57
942.26
840.837
759.129
692.034
635.833
588.241
547.231
511.757
480.504
453.067
428.444
406.615
386.696
368.938
352.473
337.768
323.909
311.554
299.708
289.202
278.939
269.92
260.922
253.118
245.145
238.348
231.216
225.267
218.83
213.606
207.75
203.151
197.788
193.734
188.794
185.222
180.649
177.513
173.264
170.527
166.573
164.209
160.53
158.524
155.121
153.473
150.357
149.067
146.259
145.34
142.878
142.349
140.283
140.168
138.562
138.894
137.818
138.631
138.236
139.581
139.887
141.765
142.791
145.188
146.922
149.784
152.169
155.414
158.372
161.914
165.34
169.085
172.855
176.701
180.691
184.533
188.614
192.348
196.395
199.933
203.831
207.096
210.741
213.663
216.964
219.486
222.335
224.41
226.688
228.4
230.311
231.757
233.222
234.384
235.267
2340.68
1812.91
1475.03
1241.71
1071.58
942.284
840.844
759.157
692.036
635.865
588.236
547.27
511.744
480.548
453.046
428.496
406.584
386.758
368.897
352.546
337.715
323.995
311.487
299.807
289.121
279.055
269.824
261.055
253.007
245.298
238.221
231.391
225.124
219.034
213.449
207.987
202.983
198.065
193.563
189.123
185.06
181.048
177.376
173.757
170.442
167.194
164.212
161.333
158.688
156.181
153.879
151.761
149.829
148.133
146.608
145.379
144.315
143.61
143.076
143.001
143.13
143.743
144.584
145.927
147.528
149.63
151.996
154.819
157.896
161.359
165.053
169.041
173.226
177.596
182.113
186.709
191.389
196.049
200.72
205.283
209.788
214.113
218.322
222.255
226.014
229.478
232.751
235.748
238.537
241.07
243.39
245.478
247.349
249.017
250.445
251.684
252.681
253.531
254.165
254.743
2340.71
1813
1475.15
1241.86
1071.74
942.466
841.029
759.363
692.237
636.092
588.452
547.517
511.975
480.817
453.292
428.788
406.847
387.075
369.179
352.892
338.02
324.376
311.824
300.233
289.502
279.541
270.269
261.627
253.549
245.996
238.916
232.284
226.059
220.231
214.759
209.652
204.873
200.446
196.361
192.623
189.237
186.216
183.578
181.339
179.534
178.179
177.322
177.083
177.426
178.418
180.042
182.359
185.324
188.968
193.243
198.121
203.57
209.501
215.888
222.579
229.58
236.715
244.002
251.236
258.473
265.443
272.233
278.661
284.859
290.647
296.169
301.245
306.032
310.352
314.364
317.907
321.131
323.904
326.359
328.397
330.129
331.505
332.6
333.437
334.047
334.47
334.771
334.91
334.933
334.808
334.559
334.175
333.663
333.031
332.267
331.405
330.42
329.383
328.283
327.243
2340.76
1813.17
1475.39
1242.15
1072.07
942.822
841.415
759.775
692.676
636.558
588.944
548.04
512.524
481.406
453.909
429.459
407.552
387.854
370.005
353.825
339.028
325.539
313.106
301.747
291.222
281.613
272.687
264.58
257.063
250.34
244.219
238.885
234.158
230.277
227.045
224.765
223.202
222.817
223.49
225.321
228.241
232.325
237.48
243.715
250.896
258.95
267.702
276.958
286.61
296.424
306.334
316.028
325.444
334.474
343.074
351.155
358.692
365.615
371.916
377.551
382.53
386.84
390.518
393.589
396.113
398.168
399.861
401.302
402.537
403.552
404.386
405.011
405.476
405.749
405.878
405.83
405.655
405.324
404.887
404.323
403.677
402.942
402.145
401.334
400.47
399.633
398.809
397.988
397.148
396.291
395.396
394.474
393.501
392.495
391.433
390.342
389.203
388.067
386.942
385.924
2340.87
1813.49
1475.85
1242.71
1072.73
943.558
842.249
760.682
693.692
637.656
590.18
549.375
514.045
483.073
455.847
431.635
410.129
390.851
373.64
358.172
344.353
332.008
321.098
311.74
303.657
297.151
291.93
288.43
286.31
286.459
288.568
292.782
298.884
306.93
316.616
327.792
340.095
353.153
366.646
380.344
393.806
406.908
419.348
431.061
441.76
451.452
459.897
467.211
473.25
478.259
482.205
485.39
488.037
490.207
491.941
493.26
494.187
494.74
494.944
494.821
494.404
493.725
492.829
491.759
490.569
489.344
488.135
487.052
486.033
485.06
484.103
483.157
482.211
481.268
480.32
479.373
478.427
477.49
476.564
475.654
474.763
473.881
473.022
472.147
471.291
470.376
469.404
468.4
467.362
466.316
465.247
464.182
463.095
462.022
460.928
459.859
458.778
457.746
456.782
455.976
2341.15
1814.19
1476.91
1243.99
1074.37
945.465
844.556
763.344
696.862
641.371
594.589
554.62
520.504
490.959
465.765
443.829
425.819
410.636
398.924
389.607
383.74
380.084
380.942
385.4
393.44
404.669
418.831
435.246
453.415
472.412
491.919
511.212
529.564
546.64
561.814
575.036
585.951
594.933
601.976
607.592
612.152
615.741
618.424
620.209
621.133
621.253
620.628
619.39
617.624
615.554
613.244
611.018
609.053
607.253
605.538
603.876
602.235
600.62
599.017
597.45
595.91
594.428
592.986
591.61
590.257
588.947
587.59
586.137
584.601
583.038
581.445
579.858
578.27
576.701
575.138
573.602
572.092
570.619
569.186
567.795
566.447
565.145
563.892
562.68
561.51
560.376
559.263
558.177
557.102
556.055
555.01
554.001
552.986
552.019
551.038
550.119
549.202
548.373
547.654
547.154
2342.03
1815.98
1480.11
1247.96
1080.28
952.707
854.159
775.206
712.346
660.618
619.074
586.932
562.599
545.504
534.588
530.075
534.45
545.064
561.027
581.077
604.568
630.61
657.649
684.796
711.041
734.719
754.97
771.335
784.177
794.173
801.84
807.312
810.765
812.231
811.876
809.914
806.643
802.65
798.214
794.142
790.649
787.47
784.452
781.473
778.553
775.676
772.905
770.233
767.705
765.259
762.9
760.508
757.931
755.277
752.584
749.907
747.251
744.654
742.107
739.643
737.242
734.939
732.708
730.583
728.532
726.585
724.699
722.89
721.108
719.383
717.677
716.026
714.395
712.814
711.264
709.773
708.327
706.939
705.598
704.312
703.073
701.888
700.748
699.661
698.615
697.621
696.663
695.748
694.859
694.015
693.182
692.398
691.612
690.885
690.146
689.479
688.822
688.273
687.88
687.786
2345.25
1822.39
1493.86
1268.16
1113.23
994.179
912.591
852.017
814.511
787.869
783.659
800.118
829.083
866.039
907.634
950.23
990.289
1026.98
1058.27
1083.61
1103.44
1118.45
1129.08
1135.73
1137.46
1134.74
1127.99
1118.69
1108.64
1099.46
1091.81
1085.13
1079.05
1073.28
1067.82
1062.62
1057.75
1052.99
1048.38
1043.52
1038.47
1033.33
1028.23
1023.24
1018.46
1013.89
1009.56
1005.45
1001.59
997.955
994.541
991.334
988.274
985.353
982.537
979.836
977.226
974.723
972.304
969.989
967.755
965.622
963.569
961.617
959.742
957.965
956.261
954.649
953.098
951.622
950.194
948.829
947.506
946.246
945.041
943.894
942.789
941.739
940.724
939.762
938.84
937.962
937.122
936.325
935.565
934.85
934.169
933.531
932.919
932.354
931.802
931.304
930.799
930.365
929.906
929.545
929.188
928.983
928.984
929.415
2358.73
1860.91
1594.77
1434.01
1353.99
1288.99
1305.25
1337.29
1392.12
1465.15
1539.73
1610.28
1672.38
1723.06
1760.08
1783.38
1792.55
1788.85
1773.31
1750.18
1724.15
1700.71
1682.17
1666.51
1652.51
1639.48
1627.39
1615.94
1604.93
1593.83
1582.73
1571.92
1561.57
1551.73
1542.45
1533.71
1525.55
1517.91
1510.81
1504.16
1497.94
1492.03
1486.48
1481.29
1476.42
1471.85
1467.55
1463.51
1459.72
1456.17
1452.85
1449.75
1446.84
1444.13
1441.57
1439.17
1436.9
1434.76
1432.72
1430.8
1428.96
1427.23
1425.57
1424
1422.51
1421.1
1419.76
1418.5
1417.31
1416.18
1415.12
1414.12
1413.19
1412.29
1411.45
1410.63
1409.85
1409.11
1408.41
1407.74
1407.11
1406.52
1405.97
1405.45
1404.97
1404.53
1404.13
1403.76
1403.42
1403.14
1402.86
1402.64
1402.41
1402.27
1402.07
1402.06
1401.95
1402.22
1402.69
1403.85
2454.74
2305.68
2580.44
2808.67
2934.22
3010.01
2994.58
2967.45
3014.83
3085.64
3150.03
3196.61
3222.41
3229.88
3222.23
3203.95
3178.36
3148.8
3117.79
3086.34
3054.82
3023.05
2991.97
2961.67
2933.61
2907.2
2882.91
2860.48
2839.9
2820.98
2803.65
2787.82
2773.39
2760.22
2748.2
2737.21
2727.14
2717.94
2709.48
2701.76
2694.61
2688.06
2682
2676.3
2670.91
2665.81
2660.99
2656.44
2652.17
2648.16
2644.41
2640.9
2637.62
2634.57
2631.73
2629.08
2626.6
2624.29
2622.12
2620.1
2618.18
2616.4
2614.71
2613.13
2611.67
2610.28
2609.01
2607.8
2606.71
2605.68
2604.74
2603.89
2603.1
2602.38
2601.71
2601.1
2600.53
2600.01
2599.52
2599.09
2598.69
2598.35
2598.05
2597.8
2597.6
2597.44
2597.33
2597.27
2597.24
2597.27
2597.33
2597.44
2597.55
2597.76
2597.92
2598.33
2598.52
2599.46
2600.42
2602.42
6588.08
7481.92
7876.77
7936
7826.39
7629.93
7415.07
7222.08
7053.54
6914.35
6805.38
6723.41
6664.03
6621.63
6591.85
6570.23
6554.28
6541.58
6531.21
6522.48
6514.92
6508.91
6504.01
6500.33
6497.42
6495.1
6493.31
6491.84
6490.47
6489.03
6487.34
6485.47
6483.4
6481.23
6478.93
6476.61
6474.25
6471.93
6469.66
6467.49
6465.43
6463.49
6461.71
6460.09
6458.62
6457.29
6456.06
6454.94
6453.9
6452.96
6452.1
6451.33
6450.67
6450.13
6449.7
6449.38
6449.18
6449.09
6449.12
6449.25
6449.5
6449.83
6450.27
6450.8
6451.42
6452.11
6452.9
6453.77
6454.73
6455.76
6456.89
6458.1
6459.38
6460.74
6462.18
6463.67
6465.24
6466.85
6468.52
6470.22
6471.97
6473.74
6475.56
6477.41
6479.3
6481.22
6483.19
6485.19
6487.25
6489.32
6491.46
6493.61
6495.85
6498.05
6500.43
6502.58
6504.92
6506.74
6507.98
6507.89
5498.63
3367.78
2415.25
1948.34
1665.34
1480.8
1346.88
1246.01
1163.93
1095.61
1037.2
985.887
940.036
898.604
860.797
825.751
793.042
762.103
732.468
704.055
676.674
650.283
624.901
600.528
577.095
554.658
533.183
512.696
493.159
474.548
456.863
440.142
424.352
409.44
395.346
382.003
369.359
357.365
345.973
335.139
324.828
315.003
305.635
296.698
288.168
280.02
272.238
264.797
257.687
250.878
244.368
238.119
232.145
226.391
220.892
215.564
210.484
205.522
200.811
196.155
191.772
187.369
183.274
179.081
175.24
171.227
167.598
163.76
160.307
156.667
153.368
149.931
146.793
143.559
140.619
137.592
134.877
132.081
129.645
127.098
124.993
122.661
120.927
118.802
117.471
115.493
114.56
112.653
112.131
110.307
110.083
108.359
108.174
106.715
106.45
105.477
105.04
104.425
103.915
103.259
1522.77
2571.33
2357.96
1985.65
1701.98
1501.91
1354.87
1243.74
1154.1
1081.11
1019.83
966.816
920.524
879.589
842.859
809.249
778.143
748.883
720.989
694.311
668.632
643.838
619.876
596.739
574.301
552.657
531.75
511.724
492.41
473.947
456.187
439.412
423.616
408.712
394.623
381.274
368.615
356.595
345.166
334.286
323.919
314.033
304.602
295.598
287.001
278.788
270.942
263.439
256.269
249.403
242.84
236.541
230.521
224.722
219.182
213.817
208.703
203.707
198.969
194.286
189.882
185.459
181.349
177.143
173.293
169.277
165.647
161.817
158.372
154.753
151.473
148.073
144.967
141.787
138.896
135.939
133.29
130.579
128.222
125.771
123.747
121.519
119.851
117.833
116.535
114.658
113.71
111.886
111.303
109.539
109.222
107.526
107.229
105.749
105.378
104.311
103.822
103.018
102.514
101.61
1128.8
1419.61
1804.49
1801.43
1642.48
1475.68
1336.86
1225.26
1133.66
1058.3
995.299
941.388
895.031
854.655
818.918
786.625
757.047
729.406
703.319
678.512
654.694
631.706
609.425
587.808
566.709
546.241
526.296
507.124
488.451
470.543
453.105
436.539
420.927
406.181
392.223
378.98
366.408
354.457
343.077
332.229
321.881
312.004
302.573
293.564
284.959
276.735
268.876
261.36
254.178
247.299
240.724
234.414
228.383
222.575
217.027
211.654
206.535
201.534
196.794
192.11
187.708
183.289
179.186
174.991
171.155
167.159
163.551
159.753
156.341
152.77
149.537
146.204
143.162
140.07
137.264
134.418
131.874
129.289
127.051
124.741
122.835
120.753
119.18
117.307
116.061
114.317
113.362
111.644
111.002
109.308
108.901
107.232
106.833
105.319
104.862
103.679
103.163
102.148
101.668
100.508
895.261
846.704
1029.33
1250.57
1340.43
1313.67
1239.07
1156.53
1080.03
1012.59
954.456
904.229
860.596
822.402
788.637
758.257
730.535
704.727
680.494
657.535
635.529
614.329
593.781
573.744
554.11
535.016
516.312
498.295
480.645
463.636
447.033
431.059
415.875
401.462
387.772
374.753
362.377
350.592
339.349
328.617
318.368
308.577
299.224
290.286
281.746
273.582
265.78
258.318
251.187
244.357
237.827
231.562
225.573
219.804
214.295
208.959
203.878
198.912
194.208
189.559
185.195
180.813
176.751
172.601
168.811
164.869
161.315
157.587
154.242
150.759
147.612
144.39
141.457
138.503
135.832
133.149
130.763
128.361
126.293
124.178
122.434
120.549
119.104
117.418
116.24
114.661
113.701
112.112
111.403
109.789
109.286
107.638
107.141
105.575
105.046
103.721
103.2
101.952
101.512
100.089
675.171
655.979
666.727
732.632
836.373
921.876
960.614
959.761
936.402
903.186
867.523
833.226
801.181
771.586
744.364
719.135
695.472
673.104
651.681
631.128
611.238
591.967
573.191
554.835
536.788
519.207
501.956
485.308
468.906
452.992
437.53
422.484
408.023
394.17
380.924
368.275
356.227
344.715
333.703
323.173
313.105
303.485
294.292
285.508
277.117
269.097
261.433
254.106
247.104
240.398
233.988
227.837
221.958
216.293
210.885
205.646
200.657
195.78
191.164
186.601
182.32
178.026
174.049
169.99
166.291
162.452
159.001
155.391
152.166
148.825
145.821
142.771
140.009
137.261
134.793
132.344
130.185
128.037
126.204
124.35
122.82
121.186
119.901
118.441
117.341
115.952
114.975
113.528
112.731
111.198
110.58
108.939
108.337
106.696
106.102
104.606
104.091
102.588
102.196
100.506
530.551
531.095
526.782
527.668
540.651
566.656
598.749
629.805
653.247
668.129
674.713
675.74
672.695
666.544
657.879
647.301
635.083
621.738
607.336
592.297
576.754
560.995
545.028
529.167
513.304
497.632
482.092
466.892
451.96
437.372
423.251
409.5
396.187
383.24
370.721
358.695
347.192
336.119
325.48
315.284
305.529
296.208
287.305
278.804
270.688
262.937
255.534
248.46
241.7
235.228
229.041
223.104
217.428
211.958
206.735
201.672
196.852
192.139
187.68
183.271
179.14
174.997
171.168
167.265
163.72
160.05
156.767
153.347
150.313
147.19
144.408
141.614
139.112
136.661
134.486
132.366
130.522
128.716
127.193
125.673
124.408
123.077
121.973
120.765
119.732
118.54
117.51
116.204
115.271
113.809
113.03
111.378
110.643
108.902
108.231
106.536
106.024
104.244
103.899
101.937
439.296
441.192
439.565
434.496
427.954
422.571
418.228
416.341
416.705
420.688
427.729
437.888
450.454
464.601
478.781
491.959
502.664
510.319
514.133
514.289
510.897
504.914
496.603
486.76
475.77
464.057
451.8
439.152
426.594
414.059
401.71
389.55
377.52
365.908
354.646
343.767
333.254
322.948
312.996
303.453
294.327
285.616
277.303
269.373
261.804
254.577
247.669
241.065
234.749
228.694
222.897
217.327
211.996
206.849
201.93
197.155
192.608
188.157
183.947
179.782
175.886
171.981
168.383
164.722
161.414
158.002
154.976
151.842
149.097
146.297
143.847
141.424
139.299
137.266
135.502
133.827
132.403
131.038
129.902
128.782
127.818
126.815
125.883
124.919
123.902
122.88
121.722
120.528
119.37
117.957
116.936
115.25
114.323
112.459
111.672
109.757
109.219
107.146
106.834
104.595
369.17
371.218
371.07
367.563
360.887
352.132
341.78
330.737
319.454
308.882
299.41
291.893
287.108
285.895
288.855
296.287
307.879
322.817
339.619
356.809
372.234
385.52
394.173
399.257
401.177
400.274
397.093
391.922
385.432
377.883
369.586
360.765
351.369
341.994
332.359
322.72
313.138
304.042
295.366
287.084
279.172
271.613
264.382
257.462
250.83
244.467
238.357
232.486
226.843
221.409
216.183
211.14
206.296
201.603
197.108
192.733
188.561
184.473
180.608
176.784
173.215
169.645
166.373
163.055
160.087
157.044
154.39
151.664
149.336
146.998
145.023
143.121
141.524
140.057
138.844
137.742
136.843
136.004
135.304
134.607
133.928
133.215
132.38
131.583
130.469
129.53
128.109
126.962
125.441
124.042
122.647
120.916
119.691
117.699
116.713
114.576
113.95
111.586
111.274
108.761
309.707
309.589
308.543
305.204
299.411
291.477
282.164
272.06
262.274
253.041
245.436
239.547
235.683
233.663
233.469
234.482
236.932
240.112
244.901
250.221
257.665
265.101
275.436
286.407
296.962
306.189
313.705
319.028
322.153
323.113
322.063
319.223
314.698
308.644
302.156
295.471
288.494
281.808
275.363
269.127
263.075
257.195
251.47
245.897
240.469
235.185
230.041
225.039
220.179
215.455
210.877
206.427
202.129
197.947
193.929
190.008
186.269
182.603
179.146
175.733
172.567
169.417
166.562
163.693
161.176
158.629
156.482
154.315
152.565
150.858
149.534
148.332
147.435
146.693
146.164
145.735
145.416
145.111
144.802
144.438
143.908
143.321
142.397
141.576
140.163
139.14
137.259
136.053
133.979
132.558
130.605
128.844
127.155
125.07
123.748
121.434
120.61
117.997
117.625
114.875
235.953
236.737
237.138
236.705
235.497
233.947
232.743
232.514
233.871
236.759
241.382
246.94
253.335
259.947
266.04
271.314
275.553
278.866
281.406
283.087
284.194
285.085
285.777
286.6
287.63
288.814
290.057
291.163
292.028
292.427
292.282
291.349
289.644
286.875
283.502
279.742
275.585
271.171
266.592
261.911
257.17
252.404
247.634
242.886
238.175
233.519
228.933
224.43
220.022
215.714
211.523
207.441
203.492
199.653
195.97
192.391
188.994
185.688
182.596
179.579
176.82
174.12
171.733
169.388
167.419
165.49
163.99
162.545
161.547
160.655
160.168
159.835
159.784
159.862
160.051
160.253
160.394
160.426
160.246
159.9
159.18
158.367
157.017
155.845
153.848
152.489
149.921
148.515
145.679
144.218
141.482
139.768
137.376
135.322
133.447
131.102
129.894
127.177
126.632
123.764
255.236
255.711
256.43
258.121
261.058
265.607
271.55
278.931
287.002
295.638
304.131
312.19
319.118
324.759
329.275
332.782
335.432
337.467
339.004
340.12
340.943
341.257
341.156
340.647
339.821
338.66
337.179
335.38
333.271
330.794
327.981
324.722
321.121
317.005
312.391
307.402
302.074
296.485
290.711
284.832
278.915
273.019
267.181
261.442
255.823
250.344
245.025
239.875
234.901
230.11
225.512
221.096
216.881
212.847
209.033
205.393
201.993
198.757
195.792
192.98
190.482
188.133
186.153
184.316
182.91
181.649
180.867
180.233
180.079
180.082
180.481
181.001
181.709
182.404
183.015
183.426
183.531
183.33
182.696
181.779
180.334
178.788
176.604
174.701
171.863
169.919
166.526
164.8
161.1
159.616
155.924
154.412
151.059
149.312
146.598
144.547
142.678
140.203
139.288
136.617
326.402
325.738
325.71
327.011
329.863
334.196
339.761
346.309
353.347
360.741
368.106
375.092
381.469
387.113
391.999
396.077
399.468
402.049
403.921
405.188
405.942
406.219
406.051
405.431
404.363
402.802
400.742
398.233
395.17
391.629
387.48
382.827
377.574
371.795
365.595
359.016
352.046
344.782
337.31
329.723
322.1
314.512
307.012
299.663
292.495
285.545
278.843
272.412
266.256
260.391
254.827
249.556
244.59
239.915
235.562
231.492
227.756
224.297
221.2
218.375
215.954
213.81
212.121
210.705
209.795
209.142
209.02
209.115
209.691
210.404
211.429
212.414
213.392
214.071
214.41
214.254
213.584
212.42
210.716
208.675
206.095
203.469
200.252
197.435
193.74
191.128
187.015
184.936
180.495
179.002
174.384
173.241
168.812
167.728
163.922
162.647
159.802
158.132
156.568
154.67
385.165
384.675
384.952
386.679
390.147
395.276
401.94
409.786
418.517
427.481
436.202
444.401
451.818
458.38
463.967
468.643
472.379
475.282
477.325
478.618
479.124
478.922
477.99
476.384
474.058
471.081
467.441
463.168
458.271
452.813
446.743
440.202
433.126
425.682
417.963
409.921
401.692
393.358
384.961
376.557
368.183
359.876
351.67
343.622
335.75
328.087
320.679
313.556
306.718
300.196
294.016
288.176
282.691
277.559
272.808
268.415
264.426
260.805
257.628
254.83
252.524
250.612
249.243
248.256
247.833
247.737
248.178
248.829
249.889
250.941
252.121
252.958
253.527
253.426
252.776
251.361
249.376
246.776
243.704
240.304
236.507
232.752
228.573
224.899
220.522
217.317
212.723
210.303
205.364
203.839
198.523
197.826
192.407
192.268
187.231
187.245
183.134
182.973
180.41
180.14
455.5
455.36
456.07
458.395
462.702
468.942
476.91
486.303
496.619
507.465
518.202
528.464
537.886
546.181
553.138
558.691
562.754
565.401
566.589
566.453
564.951
562.252
558.41
553.516
547.706
541.11
533.918
526.213
518.175
509.807
501.281
492.609
483.911
475.175
466.36
457.494
448.709
440.018
431.417
422.933
414.57
406.333
398.237
390.323
382.588
375.049
367.764
360.751
353.998
347.544
341.431
335.657
330.239
325.179
320.512
316.228
312.381
308.957
306.031
303.558
301.64
300.197
299.35
298.937
299.09
299.55
300.472
301.475
302.704
303.643
304.42
304.451
303.946
302.416
300.269
297.17
293.62
289.398
284.929
280.168
275.274
270.506
265.565
261.186
256.358
252.684
247.841
245.086
239.934
238.339
232.679
232.395
226.266
227.223
221
222.797
217.182
219.4
215.414
218.053
547.075
547.435
548.856
552.292
558.284
566.784
577.617
590.332
604.369
619.001
633.386
646.86
658.783
668.539
675.875
680.576
682.641
682.157
679.299
674.334
667.483
659.131
649.538
638.983
627.848
616.301
604.657
593.01
581.551
570.345
559.53
549.09
539.073
529.447
520.143
511.178
502.467
493.972
485.674
477.576
469.67
461.945
454.411
447.102
439.99
433.075
426.443
420.082
413.953
408.122
402.648
397.498
392.684
388.214
384.131
380.44
377.208
374.436
372.199
370.46
369.308
368.661
368.607
368.953
369.772
370.76
372.012
373.083
374.065
374.358
374.125
372.726
370.599
367.211
363.299
358.343
353.198
347.372
341.64
335.65
329.87
324.265
318.818
313.933
308.889
304.855
299.968
296.927
291.905
290.218
284.686
284.71
278.399
280.439
273.423
277.372
270.232
275.86
270.041
277.48
688.254
689.312
691.756
696.936
705.674
717.961
733.508
751.511
771.084
790.676
809.198
825.148
837.595
845.692
849.312
848.336
843.235
834.453
822.742
808.753
793.172
776.629
759.597
742.561
725.861
709.601
694.094
679.243
665.221
652.038
639.693
628.165
617.389
607.316
597.89
589.05
580.667
572.652
564.955
557.541
550.387
543.473
536.803
530.406
524.237
518.271
512.633
507.312
502.184
497.326
492.9
488.822
485.043
481.59
478.529
475.88
473.719
472.052
470.946
470.353
470.332
470.778
471.721
472.916
474.351
475.684
476.929
477.612
477.759
476.77
474.871
471.501
467.363
461.895
456.117
449.312
442.671
435.385
428.604
421.603
415.216
409.006
403.307
398.125
393.076
388.824
384.163
381.015
376.546
374.853
370.065
370.328
364.694
367.651
360.792
366.978
358.887
368.958
361.111
375.994
930.65
932.685
936.613
944.583
957.81
976.171
998.646
1023.69
1049.15
1072.49
1092.03
1105.2
1111.25
1109.64
1101.08
1086.22
1066.68
1043.58
1018.46
992.422
966.373
941.06
916.695
893.814
872.354
852.446
834.227
817.387
802.012
787.932
775.026
763.196
752.349
742.433
733.342
724.999
717.282
710.084
703.322
696.936
690.894
685.156
679.716
674.596
669.741
665.097
660.828
656.952
653.254
649.814
646.863
644.267
641.947
639.949
638.37
637.235
636.617
636.509
636.948
637.852
639.213
640.886
642.804
644.676
646.362
647.542
648.108
647.671
646.138
643.103
638.867
633.12
626.697
619.086
611.451
602.957
595
586.531
578.976
571.288
564.646
558.222
552.637
547.419
542.647
538.53
534.551
531.728
528.396
527.072
523.861
524.546
520.814
524.498