/*--------------------------------*- C++ -*----------------------------------*\
| =========                 |                                                 |
| \\      /  F ield         | OpenFOAM: The Open Source CFD Toolbox           |
|  \\    /   O peration     | Version:  v2012                                 |
|   \\  /    A nd           | Website:  www.openfoam.com                      |
|    \\/     M anipulation  |                                                 |
\*---------------------------------------------------------------------------*/
FoamFile
{
    version     2.0;
    format      ascii;
    class       vectorField;
    location    "0.024/lagrangian/kinematicCloud";
    object      UCorrect;
}
// * * * * * * * * * * * * * * * * * * * * * * * * * * * * * * * * * * * * * //


25
(
(0 0 0)
(0 0 0)
(0 0 0)
(0 0 0)
(-3.72703e-26 -9.66526e-28 0)
(0 0 0)
(0 0 0)
(0 0 0)
(0 0 0)
(-2.7262e-12 -1.53528e-13 0)
(-3.60364e-13 1.30342e-13 0)
(0 0 0)
(1.55322e-08 -2.76296e-11 0)
(-9.93967e-26 8.78874e-27 0)
(-1.57487e-08 3.05835e-11 0)
(0 0 0)
(-2.44913e-28 1.49016e-29 0)
(-7.63546e-29 2.4682e-31 0)
(0 0 0)
(0 0 0)
(-2.56076e-25 1.65129e-28 0)
(-6.98763e-26 1.04678e-28 0)
(0 0 0)
(0 0 0)
(0 0 0)
)


// ************************************************************************* //
