/*--------------------------------*- C++ -*----------------------------------*\
| =========                 |                                                 |
| \\      /  F ield         | OpenFOAM: The Open Source CFD Toolbox           |
|  \\    /   O peration     | Version:  v2012                                 |
|   \\  /    A nd           | Website:  www.openfoam.com                      |
|    \\/     M anipulation  |                                                 |
\*---------------------------------------------------------------------------*/
FoamFile
{
    version     2.0;
    format      ascii;
    class       Cloud<basicKinematicParcel>;
    location    "0.118/lagrangian/kinematicCloud";
    object      coordinates;
}
// * * * * * * * * * * * * * * * * * * * * * * * * * * * * * * * * * * * * * //

54
(
(0.084164 0.457918 0.408978 0.0489399) 377 555 1
(0.88531 0.0573452 0.021086 0.0362592) 879 1759 1
(0.0981596 0.45092 0.229726 0.221194) 1178 2356 2
(0.125455 0.0138981 0.437273 0.423375) 577 1155 2
(0.243487 0.378256 0.373482 0.00477418) 1477 2952 2
(0.257477 0.371261 0.31127 0.0599914) 1176 2352 2
(0.768468 0.115766 0.0851209 0.0306452) 57 114 2
(0.372742 0.295829 0.0177997 0.313629) 1673 3147 2
(0.00572727 0.0209224 0.476214 0.497136) 1572 3144 1
(0.05748 0.47126 0.0127291 0.458531) 774 1546 2
(0.170874 0.0537406 0.360823 0.414563) 873 1746 1
(0.224441 0.35347 0.0343098 0.38778) 572 945 2
(0.23631 0.169361 0.381845 0.212484) 1864 3726 1
(0.362428 0.284985 0.0338014 0.318786) 163 127 2
(0.423543 0.288228 0.146939 0.14129) 1864 3728 2
(0.60021 0.0898267 0.199895 0.110068) 970 1938 1
(0.423033 0.288483 0.0945778 0.193905) 367 535 1
(0.269455 0.365272 0.0594616 0.305811) 1764 3529 1
(0.6445 0.17775 0.168781 0.00896869) 567 1134 2
(0.143965 0.305916 0.428018 0.122101) 1566 3133 2
(0.233314 0.383343 0.119595 0.263748) 1367 2535 1
(0.692453 0.153774 0.0979845 0.0557891) 1763 3327 1
(0.610138 0.194931 0.146172 0.0487587) 1365 2730 2
(0.406752 0.254259 0.296624 0.0423648) 464 926 1
(0.20504 0.39748 0.17581 0.22167) 864 1728 2
(0.24023 0.379885 0.332039 0.0478464) 1364 2726 2
(0.20016 0.193317 0.39992 0.206603) 362 722 1
(0.0911556 0.33196 0.454422 0.122462) 1463 2924 1
(0.543321 0.0298304 0.228339 0.198509) 158 314 1
(0.104189 0.447905 0.0545458 0.39336) 1562 2925 1
(0.0988949 0.450553 0.279163 0.171389) 33 22253 2
(0.765071 0.117464 0.066979 0.0504854) 258 516 2
(0.0320433 0.483978 0.283568 0.200411) 1852 3705 1
(0.58165 0.150793 0.0583818 0.209175) 1059 2118 1
(0.031431 0.484284 0.477781 0.00650372) 659 1119 1
(0.165039 0.161837 0.417481 0.255643) 1259 2516 1
(0.565709 0.217145 0.0372708 0.179875) 758 1317 1
(0.44024 0.27988 0.0115175 0.268362) 857 1714 2
(0.00535685 0.162412 0.33491 0.497322) 1256 2512 1
(0.35784 0.32108 0.168544 0.152536) 49 99 1
(0.429452 0.0356885 0.285274 0.249585) 655 1311 2
(0.0169679 0.491516 0.421501 0.070015) 1254 2508 2
(0.303812 0.348094 0.332121 0.0159727) 554 1109 1
(0.315892 0.342054 0.332642 0.00941232) 553 907 1
(0.0506859 0.474657 0.045209 0.429448) 752 1504 2
(0.302801 0.3486 0.198068 0.150532) 1152 2305 1
(0.19093 0.404535 0.192944 0.211591) 1551 2903 1
(0.135437 0.421619 0.0106631 0.432282) 950 1900 1
(0.221581 0.389209 0.0762612 0.312948) 850 1501 1
(0.111285 0.444357 0.0276057 0.416752) 1349 2699 1
(0.0972472 0.451376 0.123974 0.327402) 347 694 2
(0.0941091 0.452945 0.301817 0.151129) 748 1497 1
(0.0496285 0.475186 0.423741 0.0514449) 1547 3095 1
(0.0755236 0.0460784 0.462238 0.41616) 144 289 2
)


// ************************************************************************* //
