/*--------------------------------*- C++ -*----------------------------------*\
| =========                 |                                                 |
| \\      /  F ield         | OpenFOAM: The Open Source CFD Toolbox           |
|  \\    /   O peration     | Version:  v2012                                 |
|   \\  /    A nd           | Website:  www.openfoam.com                      |
|    \\/     M anipulation  |                                                 |
\*---------------------------------------------------------------------------*/
FoamFile
{
    version     2.0;
    format      ascii;
    class       volScalarField;
    location    "0.32";
    object      k.air;
}
// * * * * * * * * * * * * * * * * * * * * * * * * * * * * * * * * * * * * * //

dimensions      [0 2 -2 0 0 0 0];


internalField   nonuniform List<scalar> 
5600
(
0.606306
0.840806
0.955127
0.978155
0.949174
0.897592
0.839549
0.787282
0.743285
0.707301
0.679331
0.658387
0.643339
0.632664
0.625307
0.620033
0.616294
0.61328
0.610969
0.608788
0.607125
0.605412
0.604254
0.603088
0.602461
0.601746
0.601452
0.601024
0.600895
0.600561
0.600428
0.600035
0.599812
0.599332
0.599047
0.598521
0.598212
0.597673
0.59737
0.596845
0.596576
0.596093
0.59588
0.595448
0.595307
0.59494
0.594867
0.594557
0.594534
0.59427
0.594294
0.594045
0.594126
0.593905
0.59404
0.593852
0.594049
0.593899
0.594152
0.594047
0.594365
0.594281
0.594669
0.594604
0.595057
0.595007
0.595527
0.595487
0.596077
0.596037
0.596703
0.596655
0.597407
0.597342
0.598182
0.598095
0.599026
0.598914
0.599927
0.599796
0.600869
0.600742
0.601824
0.601768
0.602746
0.602919
0.603555
0.604312
0.604079
0.606241
0.603959
0.609307
0.602118
0.615277
0.595185
0.630229
0.571116
0.676617
0.47816
0.841581
0.371629
0.31558
0.288647
0.27568
0.274957
0.284659
0.307358
0.344947
0.38711
0.430215
0.471454
0.509006
0.54177
0.569437
0.591938
0.60977
0.62352
0.633878
0.641781
0.647724
0.652603
0.656353
0.660046
0.662978
0.665957
0.668038
0.670341
0.671698
0.673322
0.673899
0.674915
0.674947
0.675598
0.675392
0.675887
0.675579
0.676006
0.675672
0.676094
0.67579
0.676261
0.676021
0.67657
0.676404
0.677031
0.676874
0.677524
0.677331
0.678
0.677769
0.678471
0.67825
0.679005
0.678796
0.679642
0.679454
0.680407
0.680226
0.681297
0.681097
0.682272
0.682056
0.683335
0.683082
0.684469
0.684164
0.685658
0.685293
0.686903
0.686475
0.688227
0.6877
0.689625
0.688974
0.691099
0.690298
0.692632
0.69166
0.694192
0.693042
0.695742
0.694455
0.697243
0.695947
0.698636
0.697625
0.699794
0.69972
0.700415
0.702702
0.699721
0.707652
0.6961
0.716975
0.685831
0.736468
0.658753
0.780967
0.585058
0.884305
0.369149
0.281901
0.22774
0.192986
0.168609
0.153769
0.145639
0.143596
0.14699
0.155076
0.167044
0.18195
0.199271
0.218584
0.239119
0.260639
0.282474
0.304539
0.326402
0.348225
0.369531
0.390356
0.409291
0.425533
0.439952
0.452046
0.463019
0.471867
0.480057
0.486545
0.492846
0.497675
0.502736
0.506455
0.510612
0.513503
0.516999
0.519313
0.522367
0.524305
0.527068
0.528744
0.531299
0.532741
0.535143
0.536362
0.538584
0.539584
0.541674
0.542505
0.544516
0.545232
0.547219
0.547847
0.549849
0.550402
0.552436
0.552899
0.554971
0.555329
0.557446
0.557687
0.559861
0.559972
0.562228
0.562193
0.564547
0.564374
0.566849
0.566535
0.569152
0.56868
0.571473
0.570802
0.573806
0.57289
0.576133
0.574924
0.578419
0.576892
0.580648
0.578807
0.582804
0.580714
0.584869
0.58268
0.586785
0.584833
0.588401
0.587403
0.589396
0.590856
0.589101
0.596245
0.586032
0.605705
0.577059
0.62299
0.557509
0.636896
0.370108
0.280635
0.224132
0.186021
0.158595
0.138144
0.123012
0.11129
0.102978
0.0969379
0.0935988
0.092266
0.0929893
0.0953128
0.0995203
0.105275
0.112842
0.121901
0.13284
0.145234
0.159467
0.175122
0.192515
0.210422
0.229128
0.247347
0.265547
0.281941
0.297802
0.311721
0.32522
0.336653
0.347919
0.357349
0.366867
0.374671
0.38285
0.389442
0.396618
0.402231
0.40854
0.413234
0.418732
0.422616
0.427385
0.43048
0.434694
0.437278
0.441139
0.443358
0.446987
0.448936
0.452414
0.454142
0.457512
0.459012
0.462281
0.463549
0.466742
0.467786
0.470934
0.471762
0.474899
0.475517
0.47868
0.479095
0.482318
0.482533
0.485857
0.485862
0.489318
0.489101
0.492715
0.49223
0.49603
0.495235
0.499272
0.498117
0.50242
0.500865
0.505461
0.503498
0.5084
0.50606
0.511238
0.508603
0.513952
0.511206
0.51645
0.514004
0.518566
0.517252
0.519971
0.521494
0.520035
0.527303
0.518356
0.533807
0.518134
0.529819
0.370309
0.28075
0.224424
0.185991
0.158493
0.137569
0.121629
0.108649
0.0984698
0.089843
0.0830757
0.0772621
0.0729349
0.0691216
0.0667064
0.0645233
0.0638807
0.0633712
0.0644632
0.0657022
0.0687357
0.0720864
0.0775055
0.0834046
0.0915117
0.100071
0.110747
0.121454
0.133838
0.145989
0.159499
0.17259
0.186591
0.199229
0.212517
0.224196
0.236456
0.246989
0.258153
0.26754
0.277627
0.285893
0.295088
0.302336
0.3106
0.316814
0.324223
0.329583
0.336344
0.341043
0.34732
0.351479
0.357344
0.360995
0.366453
0.369544
0.374635
0.37726
0.382083
0.384307
0.388934
0.390804
0.395295
0.396848
0.401267
0.402534
0.40693
0.407927
0.412343
0.41306
0.417527
0.417931
0.422464
0.422534
0.427161
0.426891
0.43163
0.430932
0.435838
0.434738
0.439859
0.438369
0.443721
0.441875
0.447431
0.445323
0.450972
0.448766
0.454283
0.452306
0.457266
0.456098
0.459767
0.460314
0.461706
0.464756
0.463659
0.467964
0.467862
0.465849
0.370344
0.280771
0.224565
0.186139
0.158726
0.137815
0.121904
0.108841
0.0985699
0.0896456
0.0825766
0.0760659
0.0710561
0.0660727
0.062506
0.0585833
0.0560903
0.0530229
0.051398
0.0490562
0.0482227
0.0465782
0.0465904
0.045752
0.0467799
0.0469165
0.0491373
0.0505103
0.0541251
0.0569592
0.0621363
0.0665938
0.0734775
0.0794558
0.0877476
0.0949676
0.104339
0.112417
0.122525
0.131142
0.141777
0.150707
0.161315
0.170034
0.180382
0.188647
0.198525
0.206165
0.215479
0.222438
0.231185
0.237485
0.245704
0.251406
0.259261
0.264411
0.271831
0.276401
0.283413
0.287435
0.294105
0.297641
0.304041
0.307151
0.313355
0.316086
0.322142
0.324512
0.330432
0.332434
0.338217
0.339772
0.345429
0.346588
0.35217
0.352967
0.358511
0.358938
0.364451
0.364549
0.370045
0.369881
0.375338
0.374996
0.380354
0.379955
0.385095
0.384821
0.389538
0.389642
0.393665
0.394441
0.39749
0.399141
0.401167
0.403419
0.405133
0.40668
0.409604
0.408827
0.370352
0.28076
0.224597
0.186171
0.158803
0.137905
0.122029
0.108985
0.0987396
0.089806
0.0827633
0.0761744
0.0711644
0.0660209
0.0623694
0.0582091
0.0554878
0.0520429
0.05001
0.0470746
0.0456173
0.0430378
0.0420908
0.0397957
0.0393142
0.0372906
0.0372508
0.0355137
0.0359496
0.0345433
0.0355315
0.0345621
0.0361919
0.0357831
0.0381434
0.0384399
0.0416258
0.0427547
0.0468521
0.0489133
0.0539968
0.0570816
0.0630936
0.0670665
0.0739338
0.0786952
0.0862897
0.0916589
0.0997992
0.105554
0.114041
0.119988
0.128698
0.134665
0.143269
0.149084
0.157611
0.163189
0.171551
0.176809
0.184943
0.189834
0.197709
0.202214
0.209829
0.213959
0.221327
0.225103
0.232322
0.23582
0.24288
0.246051
0.252898
0.255731
0.262349
0.26487
0.27126
0.273505
0.279654
0.281684
0.287566
0.289472
0.295046
0.296917
0.302127
0.304052
0.308813
0.310904
0.315108
0.31745
0.321034
0.323644
0.326635
0.329405
0.331967
0.33465
0.337082
0.339405
0.341553
0.343859
0.370352
0.28075
0.224593
0.186177
0.158804
0.13794
0.122038
0.109047
0.0987733
0.0898797
0.0828295
0.0762575
0.071246
0.0661227
0.0624327
0.0583213
0.0555095
0.0521191
0.0499682
0.0470451
0.0454573
0.0428306
0.0417043
0.0393062
0.0385345
0.0363296
0.0358555
0.0337868
0.0336029
0.0316246
0.0317181
0.0298285
0.0301819
0.0283951
0.0290005
0.0273386
0.0282168
0.0267025
0.0278891
0.0265737
0.0281168
0.0270625
0.0290123
0.0282907
0.030706
0.0303924
0.0333337
0.0335035
0.0370203
0.0377574
0.0418696
0.0432305
0.047972
0.0499799
0.0552719
0.0578124
0.0636344
0.0666854
0.0729758
0.0764731
0.0831459
0.0870027
0.0939588
0.0980586
0.105185
0.109419
0.116635
0.120921
0.128032
0.132173
0.139163
0.143266
0.150143
0.154184
0.160882
0.164846
0.171307
0.175195
0.181363
0.185193
0.191013
0.194822
0.200255
0.204072
0.209086
0.212942
0.217506
0.221423
0.225533
0.229485
0.23318
0.237128
0.240445
0.244354
0.247294
0.251158
0.253658
0.257575
0.259268
0.263406
0.370346
0.280751
0.224571
0.186191
0.158774
0.137971
0.122008
0.109088
0.0987527
0.0899255
0.0828188
0.0763165
0.07123
0.0662109
0.0624002
0.0584381
0.0554691
0.0522454
0.0499322
0.0471688
0.045415
0.0429582
0.0416276
0.0394388
0.0384032
0.0364406
0.0356546
0.0338345
0.0332962
0.0315617
0.031236
0.0295829
0.0294222
0.0278495
0.0278295
0.0263197
0.0264399
0.024974
0.0252314
0.023808
0.0241961
0.0228231
0.0233391
0.0220185
0.0226802
0.0214121
0.0222375
0.0210423
0.0220276
0.0209648
0.0221151
0.0212087
0.0225616
0.0218466
0.0234478
0.0229532
0.0248227
0.0246217
0.0267806
0.0269233
0.0293943
0.0299323
0.0327513
0.0337262
0.0368969
0.0383331
0.0418778
0.043806
0.0476664
0.0499938
0.0541156
0.0568516
0.061206
0.0643309
0.0688652
0.0723521
0.077024
0.0808345
0.0855657
0.0896414
0.0943574
0.0986472
0.103288
0.107732
0.112232
0.116781
0.121101
0.125713
0.129843
0.13446
0.138403
0.14299
0.146751
0.15133
0.154881
0.159384
0.162638
0.167006
0.16985
0.17385
0.370337
0.280763
0.224546
0.186215
0.158742
0.138001
0.121977
0.109121
0.0987227
0.0899673
0.0827808
0.0763775
0.0711754
0.0662942
0.0623325
0.0585344
0.0553997
0.0523461
0.0498627
0.04728
0.0453335
0.0430919
0.0415249
0.0395955
0.0382831
0.0366103
0.0355214
0.0340128
0.0331431
0.0317495
0.0310526
0.0297752
0.0292003
0.0280316
0.027559
0.0264734
0.0260985
0.0250781
0.0247845
0.0238287
0.0235975
0.0227048
0.0225283
0.0216862
0.0215713
0.0207637
0.0207123
0.0199453
0.0199316
0.0192298
0.0192457
0.0186006
0.018658
0.0180651
0.018177
0.0176388
0.0177965
0.0173399
0.017546
0.0171839
0.017443
0.0171937
0.017519
0.0174155
0.0178208
0.0178679
0.0183825
0.0186222
0.0192717
0.0197186
0.0205171
0.0212187
0.0222048
0.0231872
0.0243727
0.0256711
0.0270923
0.0287499
0.0304363
0.0324503
0.0344254
0.0368178
0.0391101
0.0418907
0.0444834
0.0476293
0.0505262
0.0540069
0.0572001
0.0609615
0.0644065
0.0683965
0.0720443
0.0761993
0.0800255
0.084313
0.0882845
0.0925937
0.0966336
0.100799
0.37033
0.28078
0.224531
0.186237
0.158725
0.138022
0.121963
0.109141
0.0987046
0.0899975
0.0827472
0.0764243
0.0711279
0.0663483
0.0622837
0.0585848
0.0553541
0.0523969
0.04981
0.0473434
0.0452655
0.0431694
0.0414466
0.039679
0.0382017
0.0366968
0.0354346
0.0341083
0.0330453
0.0318561
0.0309461
0.0298886
0.0290901
0.0281485
0.027447
0.0265958
0.0259829
0.0252099
0.0246656
0.0239717
0.0234791
0.0228599
0.0224137
0.0218588
0.0214634
0.020959
0.0206181
0.0201683
0.0198669
0.0194854
0.0192241
0.0189066
0.0186946
0.0184443
0.0182929
0.0181167
0.0180294
0.0179462
0.0179368
0.017963
0.0180495
0.018206
0.0184059
0.0187242
0.019069
0.0195639
0.0200857
0.0207954
0.0215254
0.0224702
0.0234348
0.02465
0.0258939
0.0274077
0.0289481
0.0307923
0.0326512
0.0348561
0.0370618
0.0396157
0.0421733
0.0450767
0.0479901
0.0512035
0.0543874
0.0578599
0.0612963
0.0650068
0.0686815
0.0725906
0.076469
0.0805455
0.0845885
0.0887944
0.0929596
0.0972465
0.1015
0.105838
0.110178
0.114614
0.370327
0.280795
0.224531
0.186256
0.158724
0.138036
0.121963
0.10915
0.0986982
0.0900117
0.082726
0.0764457
0.0710976
0.0663654
0.0622562
0.0585909
0.0553281
0.0524009
0.0497738
0.0473557
0.0452168
0.0431855
0.0413965
0.0396908
0.0381566
0.0367088
0.0353909
0.0341322
0.0330035
0.0318981
0.0309192
0.0299538
0.0290958
0.0282522
0.0275059
0.0267648
0.0261251
0.025483
0.0249399
0.0244051
0.0239545
0.0235337
0.0231838
0.0228875
0.022656
0.0224965
0.0224113
0.0224182
0.022506
0.0227157
0.0230171
0.0234682
0.0240291
0.0247666
0.0256336
0.0267032
0.0279229
0.0293752
0.0309978
0.0328752
0.0349426
0.0372817
0.0398253
0.0426538
0.0456917
0.0489775
0.0524206
0.0561012
0.0599258
0.0639765
0.0681515
0.0725359
0.0770225
0.0816864
0.0864193
0.0912978
0.096199
0.101223
0.106219
0.111307
0.116321
0.12141
0.126391
0.131349
0.136167
0.140982
0.145701
0.150409
0.155014
0.159589
0.164054
0.168472
0.172776
0.177024
0.181158
0.185234
0.189208
0.193144
0.19705
0.201004
0.370327
0.280809
0.22454
0.18627
0.15873
0.138042
0.121964
0.109149
0.0986883
0.0900067
0.0827007
0.076437
0.0710619
0.0663453
0.0622186
0.0585579
0.0552884
0.0523661
0.0497282
0.0473318
0.0451734
0.043178
0.0413776
0.0397106
0.0381874
0.0367879
0.0355027
0.0343221
0.0332515
0.0322717
0.0314007
0.0306231
0.0299518
0.0293856
0.0289379
0.0286053
0.0284202
0.0283705
0.0285047
0.028807
0.0293259
0.0300544
0.0310342
0.0322716
0.0337954
0.0356234
0.0377741
0.0402598
0.0430989
0.0462981
0.0498731
0.053789
0.0579998
0.0625397
0.0673547
0.0724684
0.0778196
0.0834242
0.0892109
0.0951902
0.101286
0.107506
0.113781
0.120123
0.126478
0.132756
0.138948
0.14512
0.151231
0.157298
0.163278
0.169189
0.175
0.180722
0.186335
0.191846
0.197244
0.20254
0.207718
0.212792
0.217752
0.222605
0.227356
0.232046
0.236631
0.241139
0.245518
0.2498
0.253947
0.257992
0.261902
0.265706
0.269377
0.272942
0.276385
0.279727
0.282967
0.286141
0.289287
0.292482
0.370328
0.280821
0.224548
0.186273
0.158725
0.138026
0.121939
0.109111
0.0986399
0.0899505
0.0826281
0.076366
0.0709778
0.0662683
0.0621465
0.0584999
0.0552593
0.0523757
0.0497918
0.04748
0.045413
0.0435645
0.0419292
0.0405042
0.0392669
0.0382508
0.0374288
0.0368544
0.0365109
0.0364737
0.0367217
0.0373459
0.0383177
0.0397371
0.0415774
0.0439254
0.0467682
0.0501589
0.0541011
0.0586377
0.0636877
0.0692578
0.0753015
0.0818088
0.0887047
0.0959614
0.103485
0.11124
0.119148
0.127173
0.135301
0.143362
0.15136
0.159296
0.167119
0.174825
0.182368
0.189754
0.196949
0.203969
0.210789
0.217433
0.223883
0.230165
0.236265
0.242262
0.248121
0.253841
0.259389
0.264783
0.270003
0.275073
0.279981
0.284752
0.289379
0.293874
0.298244
0.302499
0.306642
0.310685
0.314628
0.318475
0.322231
0.325886
0.329457
0.33291
0.336243
0.339475
0.342605
0.345645
0.348594
0.35146
0.354239
0.356943
0.359566
0.362125
0.364617
0.367068
0.369527
0.372048
0.370325
0.280828
0.22453
0.186234
0.158661
0.137931
0.121824
0.108965
0.0984883
0.0897909
0.082494
0.0762782
0.0709857
0.0664027
0.0624852
0.0590802
0.0562112
0.0537598
0.0517637
0.0501556
0.0489996
0.0482654
0.0480733
0.0484114
0.0493725
0.0510089
0.0533959
0.0565898
0.0606488
0.0656191
0.0715426
0.0784103
0.0860306
0.0944541
0.103442
0.113009
0.122936
0.133239
0.143798
0.154571
0.165293
0.175908
0.186338
0.196527
0.206402
0.215952
0.225126
0.233961
0.242413
0.250553
0.258314
0.265851
0.273082
0.280028
0.286662
0.293021
0.299095
0.30493
0.310521
0.315916
0.321108
0.326143
0.331007
0.335738
0.340308
0.344749
0.349021
0.353118
0.357043
0.360829
0.364473
0.368002
0.371409
0.374715
0.377902
0.380988
0.383983
0.386891
0.389726
0.392488
0.39519
0.397832
0.400427
0.402963
0.405457
0.407894
0.410283
0.412612
0.414894
0.417119
0.419297
0.421425
0.423507
0.425548
0.427541
0.429503
0.43143
0.433345
0.435292
0.437324
0.370306
0.280789
0.224405
0.186075
0.158443
0.137691
0.1216
0.108821
0.098555
0.0901669
0.0834218
0.0779629
0.0737056
0.0703931
0.0681112
0.0666771
0.066324
0.0667882
0.0684025
0.0709806
0.0749347
0.0801504
0.0869567
0.0951492
0.104967
0.116014
0.128223
0.141238
0.155049
0.169405
0.184267
0.198937
0.213206
0.226998
0.240173
0.252747
0.264649
0.275946
0.286567
0.296607
0.306071
0.314984
0.323339
0.331129
0.338415
0.345254
0.351705
0.357829
0.363648
0.369202
0.374477
0.379491
0.384185
0.388635
0.392844
0.396862
0.400682
0.40435
0.407855
0.411239
0.414489
0.417647
0.420696
0.423674
0.426563
0.429393
0.432143
0.434827
0.437426
0.439957
0.44241
0.444799
0.447124
0.449378
0.45154
0.453642
0.45569
0.457689
0.459647
0.461563
0.463451
0.465303
0.467134
0.468933
0.470717
0.472473
0.474218
0.475928
0.477627
0.47929
0.48094
0.482556
0.484156
0.48573
0.487285
0.488817
0.490347
0.491864
0.493443
0.495134
0.370195
0.280541
0.22423
0.186051
0.158714
0.138519
0.12343
0.112325
0.104418
0.0992855
0.0968356
0.0965731
0.0983696
0.102006
0.107633
0.115004
0.124349
0.135447
0.148589
0.163399
0.180318
0.198736
0.218289
0.238265
0.258308
0.277673
0.295832
0.312659
0.328135
0.34225
0.354976
0.366566
0.37709
0.386681
0.395452
0.403544
0.411029
0.417975
0.424393
0.430297
0.435683
0.440694
0.445267
0.449406
0.453226
0.456777
0.460117
0.463283
0.466299
0.469202
0.47199
0.474697
0.47729
0.479799
0.482201
0.484529
0.486763
0.488935
0.491025
0.493064
0.495034
0.496966
0.498842
0.50069
0.502496
0.504282
0.506036
0.507773
0.509479
0.51116
0.512812
0.514435
0.516029
0.517605
0.519146
0.520658
0.522135
0.523583
0.525004
0.5264
0.527783
0.529138
0.530487
0.531812
0.533138
0.534444
0.535759
0.537049
0.53835
0.539625
0.540909
0.542168
0.543433
0.544678
0.545926
0.54715
0.548404
0.549631
0.550927
0.552346
0.369474
0.281383
0.228614
0.193056
0.170711
0.155954
0.150116
0.150452
0.156552
0.167307
0.181627
0.198812
0.218419
0.23972
0.262348
0.285623
0.3094
0.333092
0.356942
0.380288
0.403307
0.423857
0.441747
0.457306
0.470496
0.482405
0.492497
0.501027
0.508346
0.514613
0.520105
0.524949
0.529231
0.533035
0.53643
0.539498
0.542294
0.544884
0.547296
0.549574
0.551716
0.553735
0.555669
0.557486
0.559194
0.560795
0.562305
0.563747
0.565124
0.566472
0.567776
0.569075
0.570346
0.571616
0.572859
0.574097
0.575308
0.576513
0.577689
0.57886
0.580002
0.58114
0.582256
0.583367
0.584464
0.58556
0.586651
0.587743
0.588835
0.589921
0.591015
0.5921
0.593186
0.594264
0.595332
0.596381
0.597414
0.598426
0.599428
0.600412
0.601397
0.602365
0.603337
0.604295
0.605263
0.606218
0.607191
0.60815
0.609131
0.610097
0.611085
0.612056
0.613046
0.614025
0.615011
0.615999
0.616994
0.61802
0.619068
0.620243
0.372191
0.315455
0.292826
0.279517
0.286388
0.295372
0.331465
0.373612
0.418619
0.463066
0.504553
0.541602
0.573476
0.599925
0.62122
0.637809
0.650547
0.66007
0.667422
0.673048
0.677645
0.681647
0.685132
0.68811
0.690603
0.692635
0.694332
0.695595
0.696478
0.697
0.697263
0.697362
0.697345
0.697261
0.69712
0.696967
0.696796
0.696657
0.696533
0.696465
0.696434
0.696453
0.696524
0.696611
0.696702
0.696788
0.696868
0.696953
0.697037
0.697146
0.697266
0.697426
0.69761
0.69784
0.698098
0.698398
0.698722
0.699084
0.699461
0.69987
0.70029
0.700736
0.701192
0.701665
0.702156
0.702662
0.703189
0.70373
0.704298
0.704875
0.70548
0.706099
0.706736
0.707385
0.708045
0.708711
0.709381
0.710046
0.710716
0.711379
0.712052
0.71272
0.713402
0.714081
0.714777
0.715471
0.716187
0.716902
0.717642
0.718379
0.719142
0.719903
0.720684
0.721472
0.722263
0.723084
0.723862
0.724723
0.725531
0.726374
0.606742
0.839814
0.952197
0.969555
0.937536
0.881262
0.821358
0.769007
0.724418
0.688386
0.66068
0.640129
0.625396
0.614956
0.607663
0.602392
0.59851
0.595429
0.592916
0.590804
0.588978
0.587527
0.586345
0.585459
0.584757
0.5842
0.583767
0.583415
0.583086
0.582738
0.582333
0.581884
0.581386
0.580863
0.580311
0.579755
0.579188
0.578633
0.578087
0.577568
0.577073
0.576609
0.576182
0.575794
0.575442
0.575122
0.574829
0.57456
0.574312
0.574087
0.57388
0.573698
0.573539
0.573412
0.573307
0.573232
0.573183
0.573162
0.573169
0.5732
0.573258
0.573337
0.573444
0.57357
0.573717
0.573884
0.574072
0.57428
0.57451
0.574758
0.575028
0.575317
0.575625
0.57595
0.576293
0.576653
0.577028
0.577414
0.577814
0.578221
0.578641
0.579066
0.579503
0.579946
0.580401
0.580862
0.581335
0.581816
0.582311
0.58281
0.583324
0.583842
0.584382
0.584913
0.585485
0.586004
0.586568
0.587007
0.587306
0.587283
0.0712085
2.29848
2.88279
3.08556
3.23179
3.28879
3.26893
3.19966
3.09925
2.992
2.8838
2.78065
2.68606
2.60083
2.52375
2.45294
2.38674
2.32343
2.26116
2.19969
2.13813
2.07619
2.01403
1.952
1.88966
1.82777
1.76657
1.70685
1.64788
1.59011
1.53385
1.47963
1.42734
1.37693
1.32837
1.28159
1.23657
1.19324
1.15151
1.1113
1.07251
1.03507
0.99891
0.963954
0.930135
0.897395
0.865647
0.834846
0.804947
0.77591
0.747663
0.720196
0.693417
0.667326
0.641818
0.616931
0.592569
0.568819
0.545556
0.522924
0.50081
0.479396
0.458619
0.438704
0.419652
0.401601
0.384598
0.368664
0.354006
0.340423
0.328248
0.316847
0.306973
0.297466
0.28974
0.281693
0.275571
0.268309
0.263355
0.256432
0.252379
0.245173
0.241725
0.234244
0.231545
0.224706
0.222636
0.216975
0.215518
0.211275
0.211077
0.208109
0.209412
0.207094
0.210072
0.208092
0.212506
0.210096
0.213642
0.209487
0.353868
1.13254
2.06972
2.5163
2.74905
2.84796
2.85908
2.81051
2.72787
2.63337
2.53788
2.44928
2.37141
2.30407
2.24542
2.19345
2.14614
2.10163
2.05825
2.01516
1.97139
1.92636
1.8799
1.83221
1.78296
1.73277
1.68185
1.63125
1.58029
1.5296
1.47909
1.42958
1.38151
1.33487
1.28969
1.24591
1.20359
1.16267
1.1231
1.08481
1.04772
1.01181
0.977002
0.943261
0.910531
0.878762
0.847882
0.817859
0.788653
0.76023
0.732532
0.705549
0.679205
0.6535
0.628346
0.603778
0.579723
0.556265
0.533309
0.510986
0.489216
0.468175
0.447827
0.428386
0.409874
0.392423
0.37608
0.360863
0.346965
0.334194
0.322852
0.312306
0.303267
0.294577
0.287628
0.280297
0.274838
0.268116
0.263651
0.257072
0.253345
0.246324
0.243038
0.235604
0.232916
0.226034
0.223871
0.218083
0.216348
0.2118
0.21104
0.207615
0.208207
0.205489
0.207815
0.20556
0.209435
0.206857
0.210099
0.205914
0.550973
0.546572
1.02335
1.5799
1.97709
2.18963
2.28072
2.29142
2.25669
2.19806
2.13193
2.06977
2.01376
1.9657
1.9255
1.89187
1.86291
1.83677
1.81211
1.78752
1.76187
1.73451
1.70502
1.67325
1.63903
1.60282
1.5647
1.52573
1.48542
1.4443
1.40256
1.36009
1.31793
1.27648
1.2359
1.19623
1.1576
1.12
1.08339
1.04775
1.01306
0.979284
0.946412
0.914417
0.88327
0.852927
0.82334
0.794491
0.766344
0.738878
0.712052
0.685855
0.660233
0.635183
0.610641
0.586637
0.563128
0.540194
0.517771
0.495982
0.474782
0.454342
0.434658
0.415927
0.398201
0.381596
0.366165
0.351913
0.339023
0.327304
0.317028
0.307552
0.29955
0.291852
0.285839
0.279356
0.274673
0.268574
0.264669
0.258477
0.255113
0.248301
0.245199
0.237828
0.235166
0.228252
0.226006
0.220104
0.218091
0.213244
0.211879
0.207962
0.207723
0.204511
0.206
0.203369
0.206527
0.203692
0.206507
0.202222
0.530877
0.495107
0.56049
0.767884
1.07076
1.34256
1.5238
1.61869
1.65648
1.65913
1.64319
1.62293
1.60089
1.5809
1.565
1.55338
1.54478
1.53801
1.53123
1.52396
1.5154
1.505
1.4923
1.47661
1.45803
1.43686
1.41313
1.38759
1.36
1.33041
1.3
1.26699
1.23277
1.19823
1.16375
1.12951
1.09578
1.06258
1.02992
0.997836
0.966345
0.93547
0.905231
0.875633
0.846675
0.818324
0.790565
0.763385
0.736762
0.710689
0.685148
0.660122
0.635589
0.611545
0.587951
0.564832
0.542182
0.520074
0.498484
0.477522
0.457193
0.437653
0.41894
0.401229
0.384604
0.369163
0.354962
0.341988
0.330415
0.32004
0.311106
0.302948
0.296206
0.289687
0.284774
0.27926
0.275457
0.27005
0.266757
0.260975
0.25799
0.251391
0.24848
0.241175
0.238548
0.231602
0.229282
0.223269
0.220979
0.215841
0.213836
0.209407
0.208223
0.204437
0.204893
0.201779
0.204011
0.200819
0.203058
0.198581
0.472696
0.463296
0.459951
0.48686
0.557034
0.666842
0.788644
0.897507
0.980119
1.03737
1.07362
1.09956
1.11901
1.13536
1.15072
1.16651
1.1822
1.19802
1.21179
1.22369
1.23339
1.24054
1.24472
1.24562
1.24324
1.23768
1.22914
1.21788
1.20373
1.18649
1.16816
1.14641
1.12234
1.0967
1.07008
1.04288
1.01551
0.987987
0.960424
0.93293
0.9056
0.878507
0.851722
0.825287
0.799233
0.773548
0.74825
0.723331
0.698797
0.674649
0.650892
0.627512
0.604524
0.58192
0.559692
0.537864
0.516471
0.495575
0.475202
0.455446
0.43637
0.418115
0.400767
0.38447
0.369347
0.355464
0.342889
0.331571
0.32168
0.312981
0.305696
0.299113
0.293857
0.288688
0.285013
0.280561
0.277704
0.273017
0.270349
0.264964
0.26234
0.255926
0.25319
0.24593
0.243333
0.236338
0.233944
0.227813
0.225244
0.219817
0.217143
0.21219
0.209961
0.205539
0.204768
0.20107
0.202153
0.198501
0.199997
0.195233
0.410946
0.411374
0.406284
0.402157
0.403527
0.414208
0.431519
0.455636
0.483143
0.514584
0.547148
0.581704
0.617837
0.655354
0.693464
0.732299
0.770839
0.809048
0.845199
0.878643
0.908874
0.935498
0.958035
0.976838
0.991739
1.0025
1.00951
1.01251
1.01236
1.00844
1.00272
0.99386
0.982132
0.967548
0.95082
0.932561
0.913328
0.89304
0.87197
0.850353
0.828376
0.806172
0.783872
0.76156
0.739309
0.717134
0.695089
0.673176
0.651433
0.629874
0.608529
0.587392
0.566517
0.545893
0.525558
0.505527
0.48589
0.466692
0.448018
0.429945
0.412611
0.396126
0.380635
0.366243
0.353116
0.34127
0.330788
0.321561
0.313757
0.307083
0.301749
0.296971
0.293385
0.28968
0.28732
0.283947
0.282033
0.278025
0.275929
0.270868
0.268536
0.262236
0.259622
0.252353
0.249762
0.242676
0.240202
0.233922
0.23107
0.225345
0.221981
0.216502
0.213151
0.208057
0.205891
0.201533
0.201241
0.197054
0.197623
0.192508
0.343509
0.345955
0.344379
0.338864
0.330705
0.321909
0.312471
0.303355
0.29448
0.287216
0.282242
0.281203
0.285702
0.297153
0.316154
0.343017
0.376968
0.416859
0.460749
0.506332
0.55163
0.595075
0.63529
0.671509
0.703722
0.731185
0.75434
0.772235
0.786977
0.797502
0.805074
0.809355
0.810216
0.808048
0.803148
0.795912
0.786764
0.775356
0.76234
0.748094
0.732889
0.716913
0.700354
0.683341
0.66599
0.64835
0.630516
0.612505
0.594398
0.576216
0.558033
0.539849
0.521762
0.503765
0.48595
0.468326
0.451039
0.434121
0.417729
0.401922
0.386918
0.372788
0.359746
0.347842
0.337286
0.328018
0.320136
0.313446
0.308119
0.303768
0.300611
0.297765
0.295916
0.293662
0.292568
0.290168
0.289075
0.285598
0.283929
0.27904
0.276867
0.27055
0.267967
0.26059
0.257959
0.250711
0.248141
0.24166
0.238523
0.232478
0.228416
0.222414
0.217898
0.212135
0.208453
0.203416
0.201558
0.196819
0.196281
0.190839
0.263154
0.267095
0.26807
0.264891
0.257986
0.248324
0.236664
0.223957
0.211009
0.198707
0.187708
0.178659
0.172194
0.168639
0.168631
0.172485
0.18103
0.194538
0.213834
0.238639
0.268925
0.30347
0.340899
0.379493
0.418323
0.455363
0.490285
0.521358
0.549114
0.572828
0.592845
0.609268
0.621734
0.631456
0.637839
0.64112
0.641698
0.639815
0.635827
0.630027
0.622693
0.614021
0.604241
0.593507
0.581985
0.569757
0.556964
0.543639
0.529916
0.515827
0.501496
0.486929
0.47228
0.457541
0.442875
0.428278
0.413964
0.399944
0.386464
0.373557
0.361528
0.350391
0.340436
0.331634
0.324232
0.318056
0.313219
0.309402
0.306792
0.304869
0.303898
0.302877
0.302607
0.301574
0.301497
0.299786
0.299237
0.296009
0.294511
0.289555
0.28734
0.28082
0.278133
0.27051
0.267777
0.260268
0.257593
0.250839
0.247429
0.241029
0.236292
0.22978
0.224113
0.217732
0.212503
0.206856
0.203322
0.198126
0.196336
0.190764
0.175715
0.179281
0.181357
0.180549
0.176865
0.170957
0.163761
0.156331
0.149762
0.144696
0.141703
0.140819
0.141994
0.144875
0.14915
0.154421
0.160614
0.167519
0.175497
0.184499
0.19539
0.208069
0.223953
0.242394
0.263558
0.286714
0.311716
0.337375
0.363121
0.388058
0.411478
0.432979
0.451771
0.467771
0.481094
0.491607
0.49933
0.50516
0.508998
0.510861
0.510902
0.50924
0.506093
0.501591
0.495939
0.489227
0.481638
0.47321
0.464126
0.454419
0.44427
0.433679
0.422857
0.411797
0.40073
0.389637
0.378805
0.368213
0.358198
0.348756
0.34028
0.332713
0.326401
0.321199
0.317367
0.314567
0.312923
0.311966
0.311925
0.312133
0.312958
0.313291
0.314109
0.313782
0.314231
0.312729
0.312288
0.308906
0.307235
0.301908
0.299409
0.292464
0.289516
0.281487
0.2786
0.270725
0.267962
0.260855
0.25723
0.250439
0.24511
0.23812
0.231411
0.224532
0.217875
0.211804
0.206634
0.20124
0.198148
0.192929
0.104561
0.108332
0.111801
0.114521
0.116615
0.118605
0.121202
0.125073
0.13067
0.138071
0.147152
0.157441
0.168475
0.179686
0.190616
0.201034
0.210749
0.219747
0.228108
0.235828
0.243123
0.250213
0.257194
0.264479
0.272296
0.28088
0.290374
0.300735
0.31202
0.324066
0.336685
0.349478
0.362105
0.373822
0.384848
0.394949
0.403735
0.411206
0.417354
0.422085
0.425424
0.427341
0.427951
0.427279
0.425495
0.422641
0.418893
0.414249
0.40891
0.40288
0.396373
0.389361
0.382098
0.374559
0.367042
0.359498
0.352269
0.345287
0.338967
0.333255
0.328605
0.324849
0.322344
0.320774
0.320372
0.320614
0.321642
0.322862
0.324589
0.326047
0.327763
0.328555
0.329632
0.329246
0.32955
0.327654
0.326812
0.322828
0.320629
0.314639
0.311623
0.304039
0.300713
0.292156
0.289119
0.280802
0.278039
0.270522
0.266829
0.259626
0.253904
0.246511
0.239036
0.231882
0.224141
0.21798
0.211456
0.20632
0.202098
0.198088
0.11907
0.123475
0.128306
0.134172
0.14151
0.150575
0.161447
0.174065
0.188054
0.203052
0.218487
0.233794
0.248318
0.261775
0.274061
0.285222
0.295231
0.304193
0.312278
0.319657
0.326483
0.332762
0.338568
0.344074
0.349261
0.354381
0.359221
0.363767
0.368187
0.372421
0.376672
0.380711
0.384828
0.388581
0.391871
0.39479
0.397229
0.3991
0.400441
0.401189
0.40138
0.400938
0.399915
0.398243
0.396031
0.393239
0.389986
0.386196
0.382037
0.377456
0.372651
0.367544
0.362396
0.357147
0.352121
0.347223
0.342803
0.338738
0.335469
0.332874
0.331395
0.33072
0.331138
0.332135
0.333887
0.335744
0.337928
0.339801
0.341811
0.343123
0.344476
0.344637
0.345058
0.343863
0.343426
0.340657
0.339044
0.334182
0.331248
0.324441
0.320824
0.312552
0.30888
0.299818
0.29676
0.288039
0.285482
0.277576
0.274103
0.266531
0.260813
0.253184
0.245511
0.238455
0.230327
0.224558
0.217355
0.213096
0.208392
0.206636
0.205094
0.2092
0.213962
0.220281
0.228693
0.239186
0.251586
0.265429
0.280186
0.295181
0.309857
0.323749
0.336603
0.348327
0.358985
0.368645
0.377518
0.385646
0.393161
0.400157
0.406747
0.412917
0.418694
0.424029
0.4289
0.433197
0.437017
0.440256
0.442962
0.445008
0.44653
0.447307
0.447716
0.447173
0.445798
0.4438
0.441109
0.437789
0.434016
0.429849
0.425419
0.420728
0.415888
0.410862
0.405782
0.400597
0.395409
0.390118
0.384882
0.379615
0.374494
0.369411
0.364616
0.360022
0.355941
0.352229
0.349208
0.346696
0.345109
0.344239
0.344443
0.345252
0.346841
0.348545
0.350555
0.35222
0.353886
0.354933
0.35595
0.356085
0.356267
0.355221
0.354584
0.352343
0.351034
0.347365
0.344983
0.339284
0.335703
0.328226
0.324186
0.315438
0.311634
0.30228
0.29943
0.290488
0.288404
0.280244
0.27734
0.269528
0.264337
0.256737
0.249646
0.243112
0.23549
0.230549
0.223591
0.220773
0.216634
0.217563
0.295815
0.299246
0.303453
0.309248
0.317045
0.326712
0.337973
0.350311
0.363205
0.375999
0.388264
0.399759
0.410414
0.420299
0.429489
0.438132
0.446283
0.454052
0.461404
0.468363
0.474879
0.480871
0.486305
0.491073
0.495098
0.498319
0.50073
0.502262
0.502999
0.502849
0.501909
0.500133