/*--------------------------------*- C++ -*----------------------------------*\
| =========                 |                                                 |
| \\      /  F ield         | OpenFOAM: The Open Source CFD Toolbox           |
|  \\    /   O peration     | Version:  v2012                                 |
|   \\  /    A nd           | Website:  www.openfoam.com                      |
|    \\/     M anipulation  |                                                 |
\*---------------------------------------------------------------------------*/
FoamFile
{
    version     2.0;
    format      ascii;
    class       volScalarField;
    location    "0.212";
    object      nut.air;
}
// * * * * * * * * * * * * * * * * * * * * * * * * * * * * * * * * * * * * * //

dimensions      [0 2 -1 0 0 0 0];


internalField   nonuniform List<scalar> 
5600
(
2.45165e-05
3.473e-05
4.04163e-05
4.24567e-05
4.22774e-05
4.09656e-05
3.92106e-05
3.75397e-05
3.61103e-05
3.49524e-05
3.40544e-05
3.34457e-05
3.30329e-05
3.28048e-05
3.27025e-05
3.26469e-05
3.26875e-05
3.26812e-05
3.27505e-05
3.2756e-05
3.2804e-05
3.28254e-05
3.28371e-05
3.28962e-05
3.28874e-05
3.2966e-05
3.29573e-05
3.30282e-05
3.30392e-05
3.30825e-05
3.31133e-05
3.31272e-05
3.31615e-05
3.31618e-05
3.31837e-05
3.31887e-05
3.31911e-05
3.32061e-05
3.31941e-05
3.32127e-05
3.31987e-05
3.32126e-05
3.32062e-05
3.32095e-05
3.32159e-05
3.32079e-05
3.32263e-05
3.32101e-05
3.32367e-05
3.32161e-05
3.32455e-05
3.3225e-05
3.32522e-05
3.32375e-05
3.32587e-05
3.32517e-05
3.32685e-05
3.32651e-05
3.32832e-05
3.32769e-05
3.33031e-05
3.32922e-05
3.33253e-05
3.33136e-05
3.33443e-05
3.33392e-05
3.33605e-05
3.33655e-05
3.33818e-05
3.3389e-05
3.34133e-05
3.34096e-05
3.34507e-05
3.34322e-05
3.34849e-05
3.34618e-05
3.35114e-05
3.34964e-05
3.35383e-05
3.35297e-05
3.35746e-05
3.3561e-05
3.3616e-05
3.35961e-05
3.36504e-05
3.36398e-05
3.36716e-05
3.36955e-05
3.36773e-05
3.37727e-05
3.36501e-05
3.39094e-05
3.35314e-05
3.42048e-05
3.3134e-05
3.4988e-05
3.17925e-05
3.74985e-05
2.65771e-05
4.69739e-05
0.000151772
0.000137251
0.000112232
9.86367e-05
9.37595e-05
9.51352e-05
0.000101855
0.000110277
0.000116314
0.000124437
0.000132685
0.000141232
0.000149593
0.000157057
0.000164732
0.000170589
0.000177191
0.000181711
0.000187031
0.000190907
0.000194983
0.0001988
0.000201746
0.000205823
0.000207996
0.0002118
0.000213667
0.000216796
0.000218757
0.000220897
0.000222924
0.00022426
0.000226047
0.00022709
0.000228406
0.00022951
0.000230289
0.000231483
0.000231938
0.000233045
0.000233462
0.000234328
0.000234885
0.000235424
0.00023621
0.000236462
0.00023742
0.000237454
0.000238496
0.000238411
0.000239425
0.000239331
0.000240208
0.00024024
0.000240934
0.000241083
0.000241676
0.000241815
0.000242465
0.000242457
0.000243249
0.000243126
0.000244011
0.000243904
0.000244632
0.000244687
0.000245158
0.000245387
0.000245798
0.000245947
0.000246612
0.000246422
0.000247456
0.000246972
0.000248138
0.000247653
0.000248645
0.000248336
0.000249184
0.000248888
0.000249905
0.000249385
0.000250665
0.00024998
0.000251236
0.000250688
0.000251588
0.000251511
0.000251754
0.000252597
0.000251493
0.000254415
0.00025015
0.000257818
0.000246293
0.000265025
0.000236366
0.000281356
0.000211753
0.000287439
0.00015663
0.000151404
0.00014306
0.000135263
0.000124802
0.000121424
0.00011296
0.00011044
0.000108138
0.000110054
0.000112848
0.000116818
0.000124741
0.000130048
0.000141829
0.000148801
0.000162957
0.000172721
0.000187631
0.00020185
0.000216374
0.000233922
0.000244854
0.00025988
0.000268752
0.000282259
0.000289861
0.000298725
0.00030555
0.000311472
0.000318134
0.000322652
0.000328542
0.000332859
0.000337275
0.000341862
0.000344947
0.000349491
0.000351935
0.000355944
0.000358416
0.000361534
0.000364406
0.000366577
0.000369797
0.000371197
0.000374614
0.000375397
0.000378815
0.000379367
0.000382535
0.000383141
0.000385783
0.000386704
0.000388883
0.000389952
0.000391965
0.000392798
0.000395028
0.000395368
0.000397866
0.000397962
0.000400469
0.000400833
0.000402772
0.000403579
0.000404877
0.000405851
0.000407251
0.000407709
0.000409889
0.00040948
0.000412379
0.000411533
0.000414411
0.000413813
0.000416178
0.000415835
0.000418097
0.000417366
0.000420282
0.000418791
0.000422439
0.000420457
0.000424349
0.000422124
0.000426129
0.000423512
0.000428106
0.000424571
0.000430296
0.000425397
0.00043279
0.000425672
0.000436366
0.000424513
0.000442667
0.000420809
0.000433996
0.000409019
0.000157914
0.000153901
0.000149996
0.000147082
0.000141933
0.000140306
0.000134251
0.000132668
0.000127572
0.000124459
0.000124867
0.00011694
0.000121507
0.00011106
0.000120279
0.000112588
0.000122954
0.00012304
0.00013129
0.000141346
0.000147435
0.000165938
0.000172457
0.000194992
0.000204128
0.000225733
0.000237752
0.000253157
0.000267099
0.000279034
0.000294085
0.000304604
0.000318285
0.000329231
0.000340199
0.000352146
0.000360728
0.000372579
0.000380299
0.000390934
0.000398586
0.000407193
0.00041565
0.000421652
0.000429398
0.000433007
0.000440876
0.000443355
0.000450943
0.0004531
0.000459981
0.000462358
0.000468023
0.000470946
0.000475756
0.000478729
0.00048336
0.000485624
0.000490765
0.000492023
0.00049748
0.000498394
0.000503538
0.000505222
0.000509129
0.000511629
0.000514459
0.000516911
0.000520238
0.000521355
0.000526246
0.000525772
0.00053165
0.000530814
0.000536167
0.000536076
0.00054043
0.000540526
0.000545029
0.000543983
0.000549822
0.000547355
0.000554377
0.000551172
0.000558621
0.000554794
0.000562818
0.000557651
0.000567417
0.000559858
0.000572302
0.00056171
0.000577416
0.000563124
0.000583039
0.000564199
0.000588678
0.000566391
0.000592031
0.000572016
0.00015818
0.000154623
0.000151367
0.000149641
0.000145716
0.000145731
0.000141194
0.000141071
0.000138859
0.000134311
0.000139077
0.000126385
0.000139415
0.000119832
0.000135988
0.000118849
0.000127261
0.000122767
0.000115921
0.000128499
0.000110277
0.000133404
0.000115511
0.00013844
0.000131547
0.000147651
0.000154582
0.000164693
0.000180958
0.000189849
0.00020909
0.000221262
0.000235842
0.000248578
0.000259578
0.000275205
0.000284499
0.000300434
0.000310231
0.000324586
0.000336118
0.000348058
0.000361632
0.000371179
0.000385712
0.000393298
0.000408156
0.000414182
0.000428603
0.000434379
0.000447533
0.00045378
0.000464921
0.000472073
0.000481975
0.000488928
0.000498612
0.000504186
0.000514847
0.000518679
0.000529571
0.000532906
0.000542936
0.000547577
0.00055518
0.000561198
0.000567132
0.00057274
0.000579899
0.000582934
0.000592688
0.000593101
0.000603985
0.000604241
0.0006137
0.000615517
0.000622369
0.000623769
0.000631201
0.000630485
0.000639816
0.000637228
0.000647792
0.000644715
0.000655444
0.000651877
0.000663039
0.000657903
0.000670792
0.000663351
0.00067818
0.000669011
0.000684768
0.000675091
0.000690474
0.000682014
0.000694681
0.000690809
0.00069659
0.000700912
0.0001582
0.000154935
0.000151586
0.00015047
0.000146537
0.000147043
0.000143412
0.000142559
0.000143149
0.000136057
0.000145099
0.000129174
0.000146042
0.000125798
0.000141629
0.00012947
0.000130255
0.000139317
0.000115573
0.000148367
0.000106141
0.000147636
0.000108854
0.000135633
0.0001199
0.000122564
0.000129958
0.000118363
0.000135065
0.000125593
0.000138664
0.000141395
0.000146599
0.000160724
0.000162052
0.000181088
0.000184479
0.000202799
0.000211987
0.000227067
0.000242141
0.000251287
0.000265913
0.000272525
0.000289479
0.00029481
0.000313195
0.000318035
0.000335971
0.000341937
0.000358397
0.00036648
0.000380337
0.000390086
0.000403277
0.000412809
0.000426673
0.000434054
0.000449509
0.000454954
0.000470346
0.000475808
0.000489341
0.000497554
0.000507924
0.000517891
0.000526844
0.000535323
0.000546773
0.000551483
0.000566407
0.000568252
0.000583734
0.00058666
0.000599278
0.000604707
0.000615281
0.000620283
0.000631695
0.000633636
0.000646909
0.000647098
0.000660696
0.000661692
0.000673893
0.000675932
0.000686746
0.000688707
0.000699181
0.00070104
0.000710218
0.000713636
0.000720089
0.000725899
0.000730039
0.000736759
0.000741523
0.000745954
0.000755439
0.000761392
0.000158165
0.000155112
0.000151591
0.000150743
0.000146882
0.000147132
0.000144555
0.000142291
0.000145152
0.00013594
0.000147123
0.000130552
0.000146613
0.000130137
0.00014
0.000136873
0.000127403
0.000147789
0.000114288
0.000154624
0.000109564
0.000149341
0.00011853
0.000133144
0.000133934
0.000118068
0.000141341
0.000114678
0.000136007
0.000122617
0.000124285
0.000133015
0.000116222
0.000137289
0.000117311
0.000137257
0.00012492
0.000136491
0.000137588
0.000139833
0.000151458
0.00014865
0.000168618
0.000162618
0.000186566
0.000180671
0.000207191
0.000204176
0.000227232
0.00023013
0.000250185
0.000259637
0.000275028
0.000282419
0.00029466
0.000302004
0.000316978
0.000321473
0.000338851
0.000342291
0.000359074
0.000364441
0.000377916
0.000388514
0.000399387
0.000412105
0.000422725
0.000432006
0.000446416
0.000450717
0.000469074
0.000471814
0.000489405
0.00049532
0.000508954
0.000517994
0.000529975
0.000538028
0.000551575
0.000556073
0.000570962
0.000574472
0.000588794
0.000594389
0.00060698
0.000614328
0.000625581
0.000632789
0.000643671
0.000650526
0.000660163
0.0006681
0.000675697
0.000684711
0.000691642
0.000700107
0.000708637
0.000716119
0.000726348
0.000739037
0.000158136
0.000155177
0.000151654
0.000150705
0.000147253
0.000146836
0.00014528
0.000141976
0.00014573
0.000136443
0.000146573
0.000132893
0.000144318
0.000134421
0.000136808
0.000141293
0.000125803
0.000149254
0.000117026
0.000151385
0.000117394
0.000142966
0.000128522
0.000127799
0.000140679
0.000118135
0.000141736
0.000121322
0.000131931
0.000132019
0.000119973
0.000139614
0.000115374
0.000137666
0.000118551
0.000132643
0.000123313
0.000125663
0.000130597
0.000119804
0.000135007
0.000115065
0.000141827
0.000112456
0.000145838
0.000113596
0.00014879
0.000124774
0.000146936
0.000136714
0.000150188
0.000153575
0.000160562
0.000163382
0.000175519
0.000177008
0.000196913
0.000193286
0.000215999
0.000214374
0.000233596
0.00023904
0.000251033
0.000266231
0.000276652
0.000293976
0.000307138
0.000314289
0.000328697
0.000328338
0.00034618
0.000346974
0.000362469
0.000369512
0.000380536
0.000391308
0.00040169
0.000410774
0.000423993
0.000429744
0.000443748
0.000449507
0.000462037
0.000471115
0.000482588
0.00049406
0.000505349
0.000516264
0.000527571
0.00053779
0.000548558
0.000559658
0.000569412
0.000581373
0.000590927
0.000603137
0.000613446
0.000627097
0.000637823
0.000656107
0.000158138
0.000155129
0.000151822
0.000150476
0.000147656
0.000146537
0.000145563
0.000142214
0.000145109
0.000138032
0.000144471
0.000135982
0.000141308
0.000137667
0.000134961
0.00014208
0.000127716
0.000145579
0.000123689
0.000144214
0.0001262
0.000136545
0.000134051
0.000126793
0.000139559
0.000123543
0.000136221
0.000128973
0.000127574
0.000135746
0.000121307
0.000137179
0.000121879
0.000132558
0.000125862
0.000128447
0.000127931
0.000124961
0.000130664
0.000121778
0.000132282
0.000117854
0.000136987
0.000112078
0.000140821
0.000109143
0.000139539
0.00011568
0.000132104
0.000121877
0.000126231
0.000128078
0.000127658
0.000125027
0.000130899
0.000123228
0.000139895
0.000123318
0.000143835
0.000130273
0.00014385
0.000142679
0.00014264
0.000155222
0.000153107
0.000167377
0.000172963
0.000175154
0.000191569
0.000185539
0.000204403
0.000203806
0.000216718
0.000227546
0.000234854
0.000249435
0.000257978
0.000268889
0.000283285
0.000291108
0.000306068
0.000314569
0.000327131
0.000339761
0.000352319
0.000367845
0.000381362
0.000395344
0.000409035
0.000422037
0.000435097
0.000449329
0.000461967
0.000476801
0.000489168
0.000503402
0.000516207
0.000530657
0.0005435
0.000557884
0.000158167
0.000155022
0.000152022
0.000150218
0.000147962
0.0001464
0.00014548
0.000142844
0.00014398
0.000139884
0.000142263
0.000138512
0.000139213
0.00013911
0.000135041
0.000140452
0.000131479
0.00014045
0.000130363
0.000137869
0.000132095
0.000133251
0.000134923
0.000129325
0.000135271
0.000129479
0.000131427
0.000132811
0.000126791
0.000134659
0.000125202
0.000133043
0.000126886
0.000129307
0.000129185
0.000126709
0.000129659
0.000125447
0.000129583
0.00012487
0.000128657
0.0001243
0.000129434
0.000121475
0.000131434
0.000119391
0.000130851
0.000121019
0.000128512
0.000122108
0.00012639
0.000124068
0.000125128
0.000124916
0.000123004
0.000124989
0.000126042
0.00012147
0.000129413
0.000120055
0.000129267
0.000123994
0.000124075
0.000130209
0.000122342
0.0001336
0.000129489
0.000130567
0.000138768
0.000130438
0.000141809
0.000137186
0.00014219
0.000149496
0.000148226
0.000160154
0.000160388
0.000166897
0.000175256
0.000179655
0.00018972
0.00019565
0.000203426
0.000213484
0.000221946
0.000235671
0.000246595
0.000259094
0.00027075
0.000282981
0.000295673
0.000309499
0.000323221
0.000338741
0.000352171
0.000367818
0.000382155
0.000398402
0.000413998
0.000430323
0.000158196
0.000154933
0.000152153
0.000150054
0.000148101
0.000146388
0.000145283
0.00014336
0.000143139
0.000141026
0.000140994
0.000139687
0.000138438
0.000139191
0.000135866
0.00013863
0.000134224
0.000137122
0.000133887
0.000134812
0.000134131
0.00013269
0.000133834
0.00013172
0.000132274
0.00013215
0.000129855
0.000132832
0.000128121
0.000132372
0.000127708
0.000130953
0.000128039
0.000129038
0.000128867
0.000126879
0.000129756
0.000125048
0.000129876
0.00012476
0.000128028
0.000126168
0.000125868
0.000126591
0.000125349
0.000125838
0.000125477
0.000124579
0.000126916
0.000122038
0.000128293
0.000121667
0.000126765
0.000124669
0.000122729
0.00012775
0.000122476
0.00012644
0.000125808
0.000123956
0.000128993
0.000124349
0.000128556
0.000128771
0.000127487
0.000133516
0.000131118
0.000135042
0.000137995
0.000138302
0.000143886
0.00014476
0.000149597
0.000155328
0.000158096
0.000167279
0.000170544
0.000178004
0.000185654
0.000193125
0.000202476
0.000211059
0.00022022
0.000230681
0.000240486
0.000253202
0.000264661
0.000277219
0.000289359
0.000302069
0.000315357
0.000328975
0.000343396
0.000358266
0.000372486
0.00038779
0.000402536
0.000418586
0.000434664
0.00045122
0.000158211
0.000154883
0.000152204
0.000149978
0.00014812
0.000146405
0.000145113
0.000143607
0.000142707
0.000141436
0.000140524
0.00013987
0.000138408
0.000138672
0.000136612
0.000137325
0.000135505
0.000135589
0.000134885
0.000133976
0.000133965
0.000133164
0.000132365
0.000133001
0.000130671
0.000132606
0.000129742
0.000131388
0.000129627
0.000129914
0.000129259
0.000129304
0.00012805
0.000129194
0.000127261
0.000127996
0.000128069
0.000125606
0.000129346
0.000124159
0.000128693
0.000125303
0.000126148
0.000127571
0.000123936
0.000129133
0.000123523
0.000128763
0.000126148
0.000126372
0.000130198
0.000125741
0.000132493
0.000129305
0.000133081
0.000135613
0.000135672
0.00014211
0.00014194
0.000148878
0.000151889
0.000157299
0.000163945
0.000169122
0.00017735
0.000184263
0.000192777
0.000201328
0.000210488
0.000220395
0.000230152
0.000240958
0.000251674
0.000263385
0.000274831
0.000287591
0.00029952
0.000312509
0.000325555
0.000338979
0.000352711
0.000366535
0.000377703
0.00038792
0.000398213
0.000409202
0.00042019
0.000431796
0.000443377
0.000455403
0.00046782
0.000480369
0.000493811
0.00050727
0.000521127
0.000535457
0.000549573
0.000564606
0.000578745
0.000593321
0.000158216
0.000154853
0.000152213
0.000149927
0.000148089
0.000146388
0.000144963
0.000143672
0.000142422
0.000141503
0.000140253
0.0001397
0.0001384
0.000138037
0.000136962
0.00013628
0.000135966
0.000134505
0.000134999
0.000133281
0.000133391
0.000133036
0.000131115
0.000133207
0.00012919
0.000132544
0.000128688
0.000130519
0.000129377
0.00012819
0.000129663
0.000127161
0.000128519
0.000127586
0.000126987
0.000127923
0.000126882
0.000127269
0.00012819
0.000126766
0.00012971
0.000128373
0.000131195
0.000132543
0.000133958
0.000138824
0.000139611
0.000146788
0.000149381
0.000156599
0.000163011
0.000169523
0.00017918
0.00018606
0.000197024
0.000206021
0.000216916
0.000228593
0.000239222
0.000252879
0.000264173
0.000278359
0.000291284
0.000305093
0.000317603
0.000326525
0.000337072
0.000346243
0.000356747
0.000366873
0.000377075
0.000387831
0.000397992
0.000408927
0.000419449
0.000430383
0.000441152
0.000452133
0.000463157
0.000474235
0.000485428
0.000496487
0.000507686
0.000518803
0.000529989
0.000541284
0.000552367
0.000563748
0.000574808
0.000586024
0.000597089
0.000608012
0.000619225
0.000629985
0.000641001
0.000651794
0.000662328
0.00067303
0.000682793
0.000692753
0.000158212
0.000154824
0.000152182
0.000149848
0.000148002
0.000146262
0.000144762
0.000143509
0.000142065
0.000141257
0.000139773
0.000139243
0.000137893
0.000137244
0.000136466
0.000135145
0.000135393
0.000133129
0.000134226
0.000131713
0.00013237
0.000131301
0.000129792
0.000131403
0.000127335
0.000130887
0.000126236
0.000129206
0.000126837
0.000127236
0.00012794
0.000126528
0.000129247
0.000128631
0.000131811
0.000133831
0.000137481
0.000142147
0.000147488
0.000154138
0.000161873
0.000169989
0.000179758
0.000189684
0.000200753
0.00021277
0.000224661
0.000238546
0.000251335
0.000266243
0.000279194
0.000289786
0.000300634
0.000310994
0.000322587
0.000333003
0.000344741
0.000355793
0.000367027
0.000378919
0.00038967
0.00040194
0.000412812
0.000424693
0.000436181
0.000447522
0.00045964
0.00047074
0.000482737
0.00049387
0.000505216
0.000516492
0.000527229
0.000538344
0.000548865
0.000559559
0.000569973
0.000580323
0.000590541
0.000600628
0.00061065
0.000620411
0.00063022
0.000639729
0.000649389
0.000658794
0.00066806
0.000677439
0.000686426
0.000695547
0.00070427
0.000712935
0.000721542
0.000729663
0.000737989
0.000745787
0.000753573
0.000761084
0.00076771
0.000774284
0.000158191
0.000154768
0.000152064
0.000149656
0.000147728
0.000145854
0.000144242
0.000142811
0.000141196
0.000140207
0.000138482
0.000137804
0.000136159
0.000135352
0.00013425
0.000132772
0.000132623
0.00013006
0.00013077
0.000127725
0.000128511
0.000126543
0.000126141
0.000126164
0.000124511
0.000127269
0.000126225
0.000131123
0.000132941
0.000139367
0.000145323
0.000153215
0.000162811
0.000172382
0.000184505
0.000196247
0.000209976
0.000223905
0.000238855
0.000252162
0.000263686
0.00027557
0.000287626
0.000299736
0.000312112
0.00032442
0.00033668
0.000349282
0.000361232
0.000373981
0.000385797
0.00039834
0.000410435
0.00042235
0.000434506
0.000445727
0.000457573
0.000468422
0.000479548
0.00049038
0.00050061
0.000511451
0.000521103
0.000531533
0.000541094
0.000550861
0.000560719
0.000569905
0.000579616
0.000588467
0.000597665
0.000606461
0.000615052
0.000623693
0.000631832
0.000640025
0.00064783
0.000655585
0.000663075
0.000670436
0.000677663
0.000684672
0.000691625
0.000698234
0.000704885
0.000711258
0.000717601
0.000723946
0.000730021
0.000736207
0.000742062
0.000747907
0.000753663
0.000759067
0.000764704
0.00076981
0.000775048
0.00077993
0.000784186
0.000788395
0.000158122
0.000154597
0.000151649
0.000149052
0.000146724
0.000144478
0.000142381
0.000140409
0.000138254
0.000136664
0.000134516
0.000133101
0.000130757
0.000129219
0.000127366
0.000125658
0.000124405
0.000122076
0.000122488
0.000121566
0.000124488
0.000126695
0.000132448
0.000138931
0.000147455
0.000158228
0.000169413
0.000183557
0.000197305
0.000213642
0.000228689
0.000242304
0.000255582
0.000268853
0.000282552
0.000295532
0.000309169
0.000322154
0.00033537
0.000348369
0.000361153
0.000373848
0.000386125
0.000398056
0.000409615
0.000420719
0.000431493
0.000442014
0.000451965
0.000462022
0.000471227
0.000480705
0.00048955
0.000498289
0.000506889
0.000514913
0.000523197
0.000530718
0.000538452
0.000545744
0.000552756
0.000559942
0.000566338
0.000573232
0.000579366
0.000585697
0.000591825
0.00059762
0.000603684
0.000609149
0.000614914
0.000620291
0.000625676
0.000630485
0.000634803
0.000639187
0.000643299
0.000647451
0.000651419
0.000655348
0.000659188
0.000662916
0.000666654
0.000670206
0.000673833
0.000677278
0.000680709
0.000684094
0.000687342
0.000690657
0.000693801
0.00069696
0.000700104
0.000703034
0.000706154
0.000708922
0.000711912
0.000714664
0.000717334
0.000719978
0.000157855
0.000153922
0.000150132
0.000146663
0.000142626
0.000139276
0.000135288
0.000131835
0.000128145
0.00012613
0.00012341
0.000120874
0.000118479
0.000117921
0.000118509
0.000121038
0.00012563
0.000131764
0.000140584
0.000150588
0.000163625
0.000177503
0.000193474
0.000209713
0.000227091
0.000242521
0.000256976
0.000271695
0.000285285
0.000299418
0.000312112
0.000325118
0.000337142
0.000348882
0.000360171
0.000370754
0.000381256
0.000390957
0.000400445
0.000409326
0.000417807
0.000426081
0.000433041
0.000439184
0.000445023
0.000450508
0.000455751
0.000460807
0.000465496
0.000470238
0.000474509
0.000478899
0.000482937
0.000486907
0.000490834
0.000494419
0.000498194
0.000501548
0.000505043
0.000508334
0.000511468
0.000514749
0.000517601
0.000520763
0.000523526
0.000526426
0.000529217
0.000531839
0.000534619
0.000537087
0.000539728
0.000542168
0.000544613
0.00054704
0.000549319
0.000551641
0.000553798
0.000555999
0.000558075
0.000560148
0.000562157
0.000564122
0.000566095
0.000567964
0.000569898
0.0005717
0.000573537
0.000575312
0.000577047
0.000578812
0.000580486
0.000582187
0.000583867
0.000585438
0.000587134
0.000588588
0.000590243
0.00059166
0.00059306
0.000594357
0.000156647
0.00015119
0.000143379
0.000134586
0.000126128
0.000120942
0.00011504
0.000112494
0.000112442
0.000114229
0.000117904
0.000123533
0.000130535
0.000139185
0.000149013
0.000160176
0.000172612
0.00018617
0.000201344
0.000217212
0.00023359
0.000246832
0.00025978
0.000271785
0.000283137
0.000294103
0.000302573
0.000310141
0.000316629
0.000322993
0.000328517
0.000334017
0.000338885
0.000343495
0.000347822
0.000351705
0.000355531
0.00035893
0.000362276
0.000365367
0.000368309
0.00037114
0.000373811
0.000376348
0.000378755
0.000381006
0.000383159
0.000385215
0.000387118
0.000389051
0.000390763
0.000392566
0.000394184
0.000395818
0.000397411
0.00039887
0.000400429
0.000401778
0.000403238
0.000404566
0.000405869
0.000407222
0.000408384
0.00040972
0.000410836
0.000412073
0.000413215
0.00041432
0.000415494
0.000416523
0.000417665
0.00041869
0.000419756
0.00042079
0.000421784
0.000422794
0.00042373
0.000424701
0.000425599
0.000426516
0.000427388
0.000428258
0.00042913
0.000429958
0.000430825
0.000431619
0.000432453
0.000433239
0.000434032
0.00043483
0.000435593
0.000436379
0.000437148
0.00043788
0.000438672
0.000439334
0.000440127
0.000440745
0.00044137
0.000441855
0.000151627
0.000136799
0.000113493
9.95013e-05
9.76217e-05
9.81131e-05
0.000110587
0.000115037
0.000121822
0.000129689
0.00013797
0.000146248
0.000154195
0.0001617
0.000168563
0.000174838
0.000180482
0.000185571
0.000190203
0.000194408
0.000198363
0.000202034
0.000205592
0.000208815
0.000211896
0.000214666
0.000217306
0.000219749
0.000221854
0.000223865
0.000225476
0.00022705
0.000228337
0.000229557
0.000230641
0.000231586
0.000232512
0.000233277
0.000234058
0.000234733
0.000235393
0.000236007
0.000236594
0.000237175
0.000237732
0.000238261
0.000238772
0.000239251
0.000239699
0.000240152
0.000240542
0.000240975
0.000241336
0.000241737
0.000242106
0.000242463
0.000242849
0.000243173
0.00024356
0.00024388
0.000244236
0.000244582
0.000244893
0.000245261
0.000245548
0.000245905
0.000246203
0.000246522
0.000246848
0.000247139
0.000247475
0.000247765
0.000248093
0.000248396
0.000248707
0.000249022
0.000249318
0.000249631
0.000249916
0.000250216
0.000250495
0.000250782
0.000251066
0.000251341
0.00025163
0.000251892
0.000252177
0.000252436
0.00025271
0.00025298
0.000253241
0.000253521
0.000253781
0.000254053
0.000254326
0.000254575
0.000254864
0.000255061
0.000255303
0.000255462
2.4543e-05
3.47525e-05
4.04099e-05
4.23029e-05
4.20138e-05
4.05605e-05
3.87141e-05
3.70554e-05
3.56107e-05
3.44445e-05
3.35769e-05
3.29759e-05
3.25986e-05
3.23854e-05
3.22863e-05
3.22592e-05
3.22687e-05
3.22989e-05
3.23304e-05
3.23648e-05
3.23944e-05
3.24247e-05
3.24636e-05
3.24968e-05
3.25413e-05
3.25746e-05
3.26146e-05
3.26523e-05
3.26845e-05
3.2719e-05
3.2739e-05
3.27629e-05
3.27733e-05
3.27859e-05
3.27917e-05
3.27953e-05
3.27987e-05
3.27968e-05
3.27982e-05
3.2795e-05
3.27946e-05
3.27924e-05
3.27912e-05
3.27906e-05
3.27904e-05
3.27907e-05
3.27915e-05
3.27925e-05
3.27934e-05
3.27954e-05
3.27959e-05
3.27994e-05
3.28001e-05
3.28045e-05
3.28073e-05
3.28117e-05
3.28171e-05
3.28212e-05
3.28291e-05
3.2834e-05
3.28425e-05
3.28501e-05
3.2858e-05
3.28687e-05
3.28765e-05
3.28884e-05
3.28975e-05
3.29089e-05
3.29203e-05
3.29314e-05
3.29449e-05
3.2957e-05
3.29716e-05
3.29851e-05
3.30001e-05
3.30151e-05
3.303e-05
3.30459e-05
3.30608e-05
3.3077e-05
3.30923e-05
3.31087e-05
3.31251e-05
3.31418e-05
3.31593e-05
3.31761e-05
3.31941e-05
3.32108e-05
3.32288e-05
3.32464e-05
3.32643e-05
3.32829e-05
3.33012e-05
3.33201e-05
3.334e-05
3.33587e-05
3.33801e-05
3.33996e-05
3.34213e-05
3.34417e-05
4.41601e-06
0.000677409
0.0011906
0.00158144
0.00193983
0.00222051
0.00242779
0.00246979
0.00246118
0.00244511
0.00242608
0.00241302
0.00241198
0.00242143
0.00243745
0.00245977
0.00248683
0.00251763
0.00255198
0.00258872
0.00262889
0.00267096
0.00270655
0.00273622
0.0027636
0.0027819
0.00278966
0.00279483
0.00279556
0.00278724
0.00278571
0.00271434
0.00262757
0.00253058
0.00244209
0.00236541
0.00228947
0.00221643
0.0021526
0.00209311
0.0020315
0.00197043
0.00191704
0.00187629
0.00184272
0.00180873
0.0017865
0.00180291
0.00185686
0.00190696
0.00191201
0.00187885
0.00184664
0.00184138
0.00186498
0.00191381
0.0019806
0.00205168
0.00210991
0.00214345
0.00214724
0.00212773
0.0020936
0.00205208
0.00200091
0.00193706
0.00185615
0.00176037
0.00165092
0.00153283
0.00140707
0.00127684
0.0011425
0.00100899
0.000880181
0.000762564
0.000658219
0.00056825
0.000488891
0.000418363
0.00035532
0.000301423
0.000256626
0.000221238
0.000194107
0.000174446
0.000160514
0.000150997
0.000144266
0.00013938
0.000135382
0.000131989
0.000128868
0.000126112
0.000123667
0.000121662
0.000120117
0.000118918
0.000118232
0.000117519
0.00017628
0.000435671
0.000873874
0.00126437
0.00161412
0.00189559
0.00211085
0.00226111
0.00236351
0.00235984
0.00233784
0.0023242
0.00231841
0.00231892
0.00232534
0.00233901
0.0023589
0.00238379
0.00241349
0.00244609
0.00248097
0.00251714
0.00255067
0.00257382
0.00259928
0.00261816
0.00262958
0.00264001
0.00265048
0.00264739
0.00262262
0.00254776
0.00246378
0.00236939
0.00228543
0.00221603
0.00214737
0.00208161
0.0020268
0.0019766
0.00192268
0.00186891
0.0018233
0.00178919
0.0017615
0.00173591
0.00172486
0.00175159
0.00181508
0.00187846
0.00190094
0.00188175
0.00185458
0.00184735
0.00186606
0.00190849
0.00196845
0.00203323
0.00208632
0.00211536
0.00211493
0.00209135
0.00205493
0.0020138
0.00196632
0.00190793
0.00183312
0.00174226
0.00163641
0.00151979
0.00139417
0.00126269
0.00112683
0.000991112
0.000859963
0.000739273
0.00063182
0.000538657
0.000457623
0.000387504
0.000327519
0.000277773
0.000237553
0.000206347
0.000182995
0.000166318
0.000154673
0.000146746
0.000141162
0.000137086
0.000133733
0.000130833
0.000128112
0.000125652
0.000123429
0.000121571
0.000120119
0.000118976
0.00011832
0.000117635
0.000474561
0.000384727
0.000564518
0.000873946
0.00120239
0.00148291
0.00170636
0.00187158
0.00199048
0.00207464
0.00213634
0.00218633
0.00220429
0.00220602
0.00221339
0.0022289
0.00225089
0.00227864
0.0023095
0.00234006
0.00237082
0.0024032
0.00243589
0.00246053
0.00248267
0.00250246
0.00251235
0.00251807
0.00252621
0.00248936
0.00241523
0.00234313
0.00226363
0.00217392
0.00209705
0.00203801
0.00197949
0.00192364
0.00188096
0.00184334
0.00179999
0.00175639
0.00172186
0.0016973
0.00167747
0.00166279
0.00166694
0.0017072
0.00178005
0.00185383
0.00189111
0.00188507
0.00186296
0.00185341
0.00186642
0.00190159
0.00195368
0.00201099
0.00205771
0.00208095
0.00207502
0.00204611
0.00200634
0.00196504
0.00192128
0.00186893
0.0018011
0.0017162
0.00161485
0.00150045
0.00137542
0.00124302
0.00110584
0.00096828
0.000835172
0.000711986
0.000602014
0.000506583
0.000424976
0.000356509
0.00030017
0.00025491
0.000219491
0.00019276
0.000173194
0.000159369
0.000149736
0.000143137
0.000138444
0.000134994
0.000132136
0.000129652
0.000127284
0.000125119
0.000123135
0.00012145
0.00012011
0.000119036
0.000118416
0.000117761
0.000592258
0.000584974
0.000544622
0.000612177
0.000798059
0.00102092
0.00122968
0.00140104
0.00153354
0.00163607
0.00171636
0.00178247
0.00184286
0.00189967
0.00195464
0.00201282
0.00207202
0.00212993
0.0021763
0.00220987
0.00224148
0.00227494
0.00230688
0.00233678
0.00236053
0.00237931
0.00236656
0.00233302
0.00229664
0.00223592
0.00216293
0.00209615
0.00202444
0.00194332
0.00187797
0.001834
0.00178968
0.00174754
0.00172117
0.00170028
0.00167109
0.00164123
0.00162181
0.00161052
0.0016014
0.00160111
0.00162542
0.00168282
0.00176419
0.00184349
0.00189018
0.00189413
0.00187568
0.00186266
0.00186862
0.00189519
0.001938
0.00198626
0.00202485
0.00204039
0.00202715
0.00199139
0.0019471
0.001905
0.0018649
0.00181903
0.0017589
0.00168087
0.00158492
0.00147356
0.00134974
0.00121698
0.00107892
0.000940152
0.000805846
0.000681144
0.000569716
0.000473404
0.000392612
0.000326789
0.000274543
0.000234167
0.000203757
0.00018145
0.000165359
0.000153978
0.000145932
0.000140308
0.000136224
0.000133191
0.000130674
0.000128506
0.000126442
0.000124553
0.000122802
0.000121297
0.000120084
0.000119091
0.000118516
0.000117893
0.00069964
0.000706166
0.000690211
0.00066373
0.000666804
0.000722887
0.000820436
0.000936615
0.0010465
0.00114634
0.00123352
0.00130821
0.00138
0.00144967
0.00151615
0.00158588
0.00165659
0.00172509
0.00179455
0.00185849
0.00191387
0.00196693
0.00201058
0.00203749
0.00205746
0.00206596
0.00204878
0.00201986
0.00198847
0.00193339
0.00186664
0.00181116
0.00175391
0.00168881
0.00164244
0.00161943
0.00159357
0.00156956
0.00156407
0.00156377
0.00155202
0.00153947
0.00153916
0.00154503
0.0015503
0.00156862
0.00161799
0.00169569
0.00178422
0.00186275
0.00191052
0.00191809
0.00189951
0.00188047
0.00187714
0.00189306
0.00192461
0.00196161
0.00198963
0.00199489
0.00197203
0.00192782
0.00187813
0.0018349
0.00179844
0.00175927
0.00170727
0.00163673
0.00154687
0.00143933
0.00131746
0.00118509
0.00104693
0.000907908
0.000773518
0.000648659
0.000537294
0.000441707
0.000362915