/*--------------------------------*- C++ -*----------------------------------*\
| =========                 |                                                 |
| \\      /  F ield         | OpenFOAM: The Open Source CFD Toolbox           |
|  \\    /   O peration     | Version:  v2012                                 |
|   \\  /    A nd           | Website:  www.openfoam.com                      |
|    \\/     M anipulation  |                                                 |
\*---------------------------------------------------------------------------*/
FoamFile
{
    version     2.0;
    format      ascii;
    class       volVectorField;
    location    "0.212";
    object      U.air;
}
// * * * * * * * * * * * * * * * * * * * * * * * * * * * * * * * * * * * * * //

dimensions      [0 1 -1 0 0 0 0];


internalField   nonuniform List<vector> 
1900
(
(39.9676 0.00859688 0)
(39.9239 0.015103 0)
(39.8679 0.0180588 0)
(39.8035 0.0207993 0)
(39.73 0.0237062 0)
(39.6526 0.0267683 0)
(39.5681 0.0297565 0)
(39.4712 0.034433 0)
(39.3801 0.0347839 0)
(39.2118 0.073503 0)
(40.0053 0.0147927 0)
(40.0212 0.0233975 0)
(40.0401 0.0257182 0)
(40.0561 0.0277458 0)
(40.0726 0.0304775 0)
(40.0898 0.0329399 0)
(40.1095 0.0364838 0)
(40.1257 0.0385579 0)
(40.1466 0.0533818 0)
(40.1568 0.0585716 0)
(40.0029 0.00824746 0)
(40.0161 0.0135856 0)
(40.0335 0.0137912 0)
(40.051 0.0145443 0)
(40.0688 0.0163129 0)
(40.0879 0.0182043 0)
(40.1087 0.0208556 0)
(40.1299 0.024805 0)
(40.1543 0.0350813 0)
(40.1844 0.0529455 0)
(40.0018 0.00414496 0)
(40.0132 0.00782145 0)
(40.0301 0.00860527 0)
(40.0479 0.00970547 0)
(40.066 0.0114323 0)
(40.0852 0.0132518 0)
(40.1064 0.0158684 0)
(40.1291 0.0197455 0)
(40.1561 0.0288802 0)
(40.1894 0.0416247 0)
(40.0015 0.001112 0)
(40.012 0.00211927 0)
(40.0285 0.00232728 0)
(40.0464 0.0026624 0)
(40.0645 0.00325309 0)
(40.084 0.00405072 0)
(40.1056 0.00562476 0)
(40.1294 0.00842126 0)
(40.1575 0.0146682 0)
(40.1918 0.0210544 0)
(40.0016 -0.00180292 0)
(40.0122 -0.00371605 0)
(40.0288 -0.00416326 0)
(40.0468 -0.00431399 0)
(40.065 -0.0043608 0)
(40.0846 -0.00401592 0)
(40.1066 -0.00289512 0)
(40.1311 -0.000789724 0)
(40.1597 0.00317612 0)
(40.1936 0.00640825 0)
(40.0019 -0.00486279 0)
(40.0136 -0.00947527 0)
(40.0308 -0.0105123 0)
(40.0489 -0.0114613 0)
(40.0672 -0.0126727 0)
(40.0871 -0.0134371 0)
(40.1094 -0.0134428 0)
(40.1344 -0.0127054 0)
(40.163 -0.0110203 0)
(40.1957 -0.0104531 0)
(40.0032 -0.00926928 0)
(40.0168 -0.0153327 0)
(40.0348 -0.0157394 0)
(40.0527 -0.016477 0)
(40.0709 -0.01804 0)
(40.0911 -0.0194037 0)
(40.1136 -0.0202815 0)
(40.1388 -0.020797 0)
(40.1672 -0.0210301 0)
(40.1987 -0.0225688 0)
(40.0057 -0.0162088 0)
(40.0223 -0.0253699 0)
(40.042 -0.0274341 0)
(40.0582 -0.0288787 0)
(40.0751 -0.0308085 0)
(40.0938 -0.0324197 0)
(40.1145 -0.0335734 0)
(40.1374 -0.0344434 0)
(40.1628 -0.0352272 0)
(40.1893 -0.0366674 0)
(39.9675 -0.0101412 0)
(39.9214 -0.0185951 0)
(39.8645 -0.0229106 0)
(39.797 -0.0265887 0)
(39.7223 -0.0303253 0)
(39.6428 -0.0339089 0)
(39.5582 -0.0373399 0)
(39.4686 -0.0407417 0)
(39.3739 -0.044104 0)
(39.2741 -0.0480425 0)
(39.1724 -0.0392827 0)
(38.0177 -0.354715 0)
(36.4706 -0.795034 0)
(34.9649 -1.35454 0)
(33.857 -1.88883 0)
(33.1084 -2.33222 0)
(32.5394 -2.60362 0)
(32.0825 -2.66912 0)
(31.6443 -2.56944 0)
(31.2132 -2.34953 0)
(30.7877 -2.07017 0)
(30.3629 -1.77867 0)
(29.9531 -1.50937 0)
(29.5501 -1.2729 0)
(29.1565 -1.07492 0)
(28.7761 -0.915445 0)
(28.412 -0.789421 0)
(28.0663 -0.689124 0)
(27.7409 -0.608499 0)
(27.4403 -0.544802 0)
(27.168 -0.495249 0)
(26.9201 -0.454216 0)
(26.696 -0.417951 0)
(26.4937 -0.385949 0)
(26.317 -0.359203 0)
(26.16 -0.336103 0)
(26.0258 -0.315283 0)
(25.9104 -0.296093 0)
(25.8113 -0.278827 0)
(25.7264 -0.26373 0)
(25.6538 -0.250499 0)
(25.5905 -0.238495 0)
(25.5363 -0.227462 0)
(25.4878 -0.216914 0)
(25.4451 -0.207064 0)
(25.4078 -0.198132 0)
(25.3757 -0.190072 0)
(25.3482 -0.182651 0)
(25.3251 -0.175703 0)
(25.306 -0.169087 0)
(25.2907 -0.162924 0)
(25.2787 -0.157292 0)
(25.2697 -0.152159 0)
(25.263 -0.147361 0)
(25.2584 -0.142757 0)
(25.2557 -0.138222 0)
(25.2547 -0.13389 0)
(25.2551 -0.129862 0)
(25.257 -0.126129 0)
(25.2604 -0.122682 0)
(25.2652 -0.11938 0)
(25.2712 -0.116136 0)
(25.2783 -0.11301 0)
(25.2865 -0.110081 0)
(25.2956 -0.107355 0)
(25.3057 -0.104798 0)
(25.3167 -0.102368 0)
(25.3284 -0.100004 0)
(25.3408 -0.0976922 0)
(25.3537 -0.0954671 0)
(25.367 -0.0933756 0)
(25.3809 -0.0914097 0)
(25.3952 -0.0895542 0)
(25.41 -0.0877536 0)
(25.4251 -0.0860059 0)
(25.4405 -0.0843137 0)
(25.4562 -0.0827041 0)
(25.4721 -0.0811699 0)
(25.4882 -0.0797098 0)
(25.5045 -0.0782938 0)
(25.5209 -0.076922 0)
(25.5375 -0.0755825 0)
(25.5541 -0.0742896 0)
(25.5708 -0.0730394 0)
(25.5875 -0.0718385 0)
(25.6042 -0.0706656 0)
(25.6208 -0.0695237 0)
(25.6375 -0.0683915 0)
(25.6539 -0.067292 0)
(25.6704 -0.0662053 0)
(25.6866 -0.065155 0)
(25.7028 -0.0641099 0)
(25.7186 -0.0630928 0)
(25.7345 -0.0620702 0)
(25.75 -0.0610733 0)
(25.7655 -0.0600751 0)
(25.7805 -0.0591087 0)
(25.7956 -0.0581451 0)
(25.8103 -0.0572155 0)
(25.8249 -0.0562921 0)
(25.8391 -0.0554155 0)
(25.8533 -0.0545542 0)
(25.867 -0.0537834 0)
(25.8809 -0.0530296 0)
(25.8941 -0.0525321 0)
(25.9078 -0.0519801 0)
(25.9204 -0.0522652 0)
(25.9349 -0.0520662 0)
(25.9452 -0.0543081 0)
(25.9652 -0.0544219 0)
(40.259 0.20537 0)
(40.4989 0.295872 0)
(40.6487 -0.0460587 0)
(40.4722 -0.66826 0)
(39.9271 -1.33079 0)
(39.098 -1.89413 0)
(38.1065 -2.25375 0)
(37.0575 -2.38365 0)
(36.0571 -2.3226 0)
(35.1534 -2.13318 0)
(34.3666 -1.87922 0)
(33.6972 -1.61193 0)
(33.1366 -1.36203 0)
(32.6585 -1.14084 0)
(32.2417 -0.95387 0)
(31.8681 -0.80246 0)
(31.5231 -0.682185 0)
(31.1927 -0.585195 0)
(30.8668 -0.506628 0)
(30.5439 -0.445382 0)
(30.2264 -0.398653 0)
(29.92 -0.361462 0)
(29.6253 -0.330272 0)
(29.3419 -0.304843 0)
(29.0755 -0.285566 0)
(28.8281 -0.270638 0)
(28.5989 -0.257732 0)
(28.3883 -0.245867 0)
(28.1951 -0.235375 0)
(28.0204 -0.226489 0)
(27.8616 -0.218526 0)
(27.7178 -0.210851 0)
(27.5867 -0.203235 0)
(27.468 -0.195589 0)
(27.3606 -0.188155 0)
(27.2636 -0.181282 0)
(27.1763 -0.175019 0)
(27.0973 -0.169206 0)
(27.0261 -0.163695 0)
(26.9617 -0.1584 0)
(26.9038 -0.153402 0)
(26.8511 -0.148734 0)
(26.8029 -0.144466 0)
(26.7589 -0.140545 0)
(26.7189 -0.136765 0)
(26.6825 -0.133005 0)
(26.6497 -0.129352 0)
(26.62 -0.125959 0)
(26.5934 -0.122896 0)
(26.5698 -0.120088 0)
(26.5488 -0.117377 0)
(26.5302 -0.114663 0)
(26.5139 -0.11203 0)
(26.4997 -0.109544 0)
(26.4874 -0.107224 0)
(26.4769 -0.105052 0)
(26.4681 -0.102944 0)
(26.4606 -0.100832 0)
(26.4543 -0.0987504 0)
(26.4492 -0.0967473 0)
(26.4452 -0.0948787 0)
(26.4423 -0.0931179 0)
(26.4404 -0.0914739 0)
(26.4395 -0.0898691 0)
(26.4393 -0.0883141 0)
(26.4398 -0.086752 0)
(26.441 -0.0852613 0)
(26.4428 -0.083841 0)
(26.4451 -0.0824879 0)
(26.448 -0.0811677 0)
(26.4512 -0.0798771 0)
(26.4549 -0.0786033 0)
(26.4588 -0.0773618 0)
(26.463 -0.0761534 0)
(26.4674 -0.0749856 0)
(26.4719 -0.0738372 0)
(26.4766 -0.0727071 0)
(26.4814 -0.0715789 0)
(26.4863 -0.0704709 0)
(26.4911 -0.0693737 0)
(26.496 -0.068303 0)
(26.5009 -0.0672345 0)
(26.5057 -0.0661873 0)
(26.5106 -0.0651308 0)
(26.5153 -0.0640977 0)
(26.52 -0.0630592 0)
(26.5246 -0.062053 0)
(26.5292 -0.0610448 0)
(26.5336 -0.0600728 0)
(26.538 -0.0591018 0)
(26.5423 -0.0581814 0)
(26.5465 -0.0572724 0)
(26.5506 -0.0564601 0)
(26.5547 -0.0556619 0)
(26.5586 -0.0551295 0)
(26.5626 -0.0545476 0)
(26.5663 -0.0548245 0)
(26.5703 -0.0545623 0)
(26.5737 -0.0569856 0)
(26.5795 -0.0567942 0)
(40.2699 0.127743 0)
(40.4561 0.0177448 0)
(40.6021 -0.368698 0)
(40.4975 -0.908895 0)
(40.0434 -1.44081 0)
(39.2825 -1.86017 0)
(38.3234 -2.09981 0)
(37.2916 -2.15534 0)
(36.2761 -2.06706 0)
(35.3654 -1.88553 0)
(34.5823 -1.65788 0)
(33.9344 -1.42318 0)
(33.4104 -1.20422 0)
(32.9864 -1.00876 0)
(32.6438 -0.842141 0)
(32.369 -0.706687 0)
(32.147 -0.597652 0)
(31.9597 -0.50714 0)
(31.7947 -0.432103 0)
(31.6482 -0.373436 0)
(31.515 -0.328531 0)
(31.3856 -0.292289 0)
(31.253 -0.261543 0)
(31.1138 -0.236332 0)
(30.9671 -0.217322 0)
(30.8134 -0.203196 0)
(30.6524 -0.191635 0)
(30.4837 -0.181301 0)
(30.3081 -0.172633 0)
(30.1288 -0.166122 0)
(29.9482 -0.161131 0)
(29.772 -0.156754 0)
(29.5996 -0.152532 0)
(29.4348 -0.14866 0)
(29.2787 -0.14549 0)
(29.1327 -0.142924 0)
(28.9971 -0.140646 0)
(28.8714 -0.13844 0)
(28.7546 -0.136168 0)
(28.6461 -0.133801 0)
(28.5452 -0.131492 0)
(28.4517 -0.129212 0)
(28.3649 -0.126863 0)
(28.2845 -0.124469 0)
(28.2096 -0.121985 0)
(28.14 -0.119386 0)
(28.0756 -0.116809 0)
(28.0159 -0.114426 0)
(27.961 -0.112264 0)
(27.91 -0.110205 0)
(27.8623 -0.108156 0)
(27.8177 -0.106103 0)
(27.7765 -0.104147 0)
(27.7382 -0.10232 0)
(27.7028 -0.10064 0)
(27.6699 -0.0991077 0)
(27.6397 -0.0976256 0)
(27.6116 -0.0960801 0)
(27.5858 -0.0944962 0)
(27.5619 -0.0929541 0)
(27.5399 -0.0915178 0)
(27.5197 -0.0901621 0)
(27.5011 -0.0888284 0)
(27.4835 -0.0874653 0)
(27.4671 -0.0861225 0)
(27.4516 -0.0848029 0)
(27.4373 -0.0835524 0)
(27.4236 -0.0823403 0)
(27.4109 -0.0811844 0)
(27.3987 -0.0800281 0)
(27.3873 -0.0788904 0)
(27.3762 -0.0777353 0)
(27.3658 -0.0766053 0)
(27.3555 -0.0754827 0)
(27.3458 -0.0743988 0)
(27.3362 -0.0733094 0)
(27.327 -0.0722367 0)
(27.3179 -0.0711421 0)
(27.3091 -0.0700698 0)
(27.3002 -0.0689902 0)
(27.2917 -0.0679431 0)
(27.2832 -0.0668852 0)
(27.2749 -0.0658482 0)
(27.2666 -0.0647954 0)
(27.2585 -0.0637645 0)
(27.2504 -0.0627277 0)
(27.2425 -0.0617206 0)
(27.2346 -0.0607131 0)
(27.2269 -0.0597375 0)
(27.2192 -0.0587664 0)
(27.2116 -0.0578408 0)
(27.2041 -0.0569321 0)
(27.1968 -0.056114 0)
(27.1894 -0.0553163 0)
(27.1823 -0.0547779 0)
(27.1749 -0.0542008 0)
(27.1683 -0.0544651 0)
(27.1605 -0.0542658 0)
(27.1552 -0.0566426 0)
(27.1446 -0.0564506 0)
(40.2634 0.0673393 0)
(40.4034 0.00417038 0)
(40.4966 -0.262169 0)
(40.3657 -0.678569 0)
(39.9156 -1.11199 0)
(39.179 -1.46759 0)
(38.2537 -1.69375 0)
(37.2566 -1.7779 0)
(36.2703 -1.73994 0)
(35.3808 -1.61371 0)
(34.6104 -1.43847 0)
(33.9679 -1.24924 0)
(33.4415 -1.06674 0)
(33.0107 -0.900168 0)
(32.6636 -0.757506 0)
(32.3894 -0.641554 0)
(32.1692 -0.546653 0)
(31.9838 -0.465756 0)
(31.828 -0.398699 0)
(31.7043 -0.347512 0)
(31.6074 -0.308481 0)
(31.523 -0.274614 0)
(31.4432 -0.243496 0)
(31.3736 -0.217875 0)
(31.3186 -0.198802 0)
(31.2709 -0.183102 0)
(31.223 -0.168329 0)
(31.1725 -0.154295 0)
(31.1207 -0.142067 0)
(31.0675 -0.132249 0)
(31.0118 -0.124753 0)
(30.9514 -0.118664 0)
(30.8839 -0.113132 0)
(30.8077 -0.108149 0)
(30.7231 -0.104295 0)
(30.6316 -0.101749 0)
(30.5346 -0.100026 0)
(30.433 -0.0986289 0)
(30.3276 -0.097367 0)
(30.2193 -0.0962123 0)
(30.1092 -0.0952352 0)
(29.9996 -0.0945095 0)
(29.8932 -0.0940547 0)
(29.7905 -0.093722 0)
(29.6913 -0.0933468 0)
(29.5961 -0.0929158 0)
(29.5055 -0.0925241 0)
(29.4199 -0.0922285 0)
(29.3392 -0.0920006 0)
(29.2631 -0.0917168 0)
(29.1909 -0.0912304 0)
(29.1225 -0.0905528 0)
(29.0576 -0.0898125 0)
(28.996 -0.0890442 0)
(28.9378 -0.0882799 0)
(28.8823 -0.0875295 0)
(28.8298 -0.0867253 0)
(28.7799 -0.0858133 0)
(28.7329 -0.0848365 0)
(28.6883 -0.0838616 0)
(28.6462 -0.082942 0)
(28.6059 -0.0820925 0)
(28.5678 -0.0812565 0)
(28.5311 -0.0803392 0)
(28.4963 -0.0793626 0)
(28.4626 -0.078349 0)
(28.4304 -0.0773549 0)
(28.3989 -0.0763745 0)
(28.3686 -0.0754214 0)
(28.3387 -0.074441 0)
(28.31 -0.0734528 0)
(28.2814 -0.0724289 0)
(28.2537 -0.0714127 0)
(28.2261 -0.070396 0)
(28.1993 -0.0694046 0)
(28.1726 -0.068402 0)
(28.1466 -0.0674059 0)
(28.1206 -0.0663871 0)
(28.0953 -0.0653824 0)
(28.07 -0.0643716 0)
(28.0454 -0.0633916 0)
(28.0208 -0.0624033 0)
(27.9969 -0.0614316 0)
(27.973 -0.0604411 0)
(27.9498 -0.0594706 0)
(27.9265 -0.0584919 0)
(27.904 -0.0575436 0)
(27.8815 -0.056592 0)
(27.8596 -0.0556744 0)
(27.8377 -0.0547586 0)
(27.8166 -0.05389 0)
(27.7954 -0.0530378 0)
(27.775 -0.0522729 0)
(27.7544 -0.0515319 0)
(27.7348 -0.0510351 0)
(27.7145 -0.0505168 0)
(27.6962 -0.0507826 0)
(27.6747 -0.0506781 0)
(27.6601 -0.0528894 0)
(27.6311 -0.0531151 0)
(40.2555 0.0314291 0)
(40.3567 -0.0318828 0)
(40.4022 -0.258916 0)
(40.2468 -0.617319 0)
(39.8045 -0.995502 0)
(39.098 -1.30665 0)
(38.2122 -1.50462 0)
(37.2567 -1.57699 0)
(36.3006 -1.54062 0)
(35.4295 -1.4275 0)
(34.6692 -1.27316 0)
(34.0289 -1.10752 0)
(33.497 -0.946898 0)
(33.059 -0.800466 0)
(32.7092 -0.676922 0)
(32.4333 -0.576575 0)
(32.2045 -0.491723 0)
(32.0091 -0.418765 0)
(31.852 -0.360702 0)
(31.7327 -0.317614 0)
(31.6331 -0.282512 0)
(31.5388 -0.249774 0)
(31.4555 -0.221557 0)
(31.3926 -0.200988 0)
(31.3448 -0.185765 0)
(31.3003 -0.17168 0)
(31.2551 -0.157584 0)
(31.2143 -0.145028 0)
(31.1829 -0.135316 0)
(31.1597 -0.127854 0)
(31.1393 -0.121302 0)
(31.1178 -0.114655 0)
(31.0943 -0.107595 0)
(31.074 -0.101335 0)
(31.0572 -0.0960758 0)
(31.0413 -0.0916638 0)
(31.0245 -0.0878738 0)
(31.0048 -0.0841447 0)
(30.9812 -0.0802913 0)
(30.9541 -0.0766831 0)
(30.924 -0.073752 0)
(30.8909 -0.0717654 0)
(30.8538 -0.0704957 0)
(30.8118 -0.0693713 0)
(30.7644 -0.068175 0)
(30.7117 -0.0671355 0)
(30.6542 -0.0665091 0)
(30.593 -0.066328 0)
(30.5289 -0.0663786 0)
(30.4624 -0.0663929 0)
(30.3944 -0.0662859 0)
(30.325 -0.0661699 0)
(30.2549 -0.06615 0)
(30.1846 -0.0662696 0)
(30.1152 -0.0664931 0)
(30.0465 -0.0667287 0)
(29.979 -0.0669385 0)
(29.912 -0.0670685 0)
(29.8467 -0.0671262 0)
(29.7824 -0.06714 0)
(29.7199 -0.0671209 0)
(29.6583 -0.0670515 0)
(29.5982 -0.0668785 0)
(29.5393 -0.0665805 0)
(29.4822 -0.0661721 0)
(29.4259 -0.0656726 0)
(29.3712 -0.0651223 0)
(29.317 -0.0645308 0)
(29.2643 -0.0639154 0)
(29.2119 -0.0632294 0)
(29.161 -0.062495 0)
(29.1102 -0.0616908 0)
(29.0609 -0.0608671 0)
(29.0117 -0.0600251 0)
(28.9639 -0.0591935 0)
(28.9162 -0.0583382 0)
(28.8699 -0.0574819 0)
(28.8236 -0.0565958 0)
(28.7787 -0.0557215 0)
(28.7339 -0.0548425 0)
(28.6904 -0.0539698 0)
(28.647 -0.0530844 0)
(28.6049 -0.0522238 0)
(28.5629 -0.051356 0)
(28.5223 -0.0505123 0)
(28.4817 -0.0496669 0)
(28.4426 -0.0488529 0)
(28.4035 -0.0480388 0)
(28.3658 -0.0472589 0)
(28.3282 -0.0464829 0)
(28.292 -0.0457532 0)
(28.2558 -0.0450426 0)
(28.2211 -0.0444117 0)
(28.1862 -0.0438122 0)
(28.1531 -0.0434232 0)
(28.119 -0.0430504 0)
(28.0883 -0.0433167 0)
(28.0523 -0.0434257 0)
(28.0279 -0.0452806 0)
(27.9796 -0.0464646 0)
(40.2478 0.00636944 0)
(40.3189 -0.0529349 0)
(40.3277 -0.234956 0)
(40.154 -0.518802 0)
(39.7188 -0.818109 0)
(39.0361 -1.06199 0)
(38.1811 -1.21593 0)
(37.2553 -1.27239 0)
(36.324 -1.24525 0)
(35.4678 -1.15991 0)
(34.718 -1.04263 0)
(34.0783 -0.913827 0)
(33.54 -0.786474 0)
(33.099 -0.670462 0)
(32.7479 -0.572698 0)
(32.4638 -0.491401 0)
(32.2216 -0.420216 0)
(32.0197 -0.360017 0)
(31.8663 -0.315197 0)
(31.7457 -0.281443 0)
(31.6326 -0.250119 0)
(31.5291 -0.221323 0)
(31.45 -0.19986 0)
(31.3921 -0.185077 0)
(31.3395 -0.171969 0)
(31.2848 -0.157896 0)
(31.2349 -0.144979 0)
(31.197 -0.135365 0)
(31.1687 -0.128301 0)
(31.1434 -0.121767 0)
(31.1169 -0.114644 0)
(31.0893 -0.107352 0)
(31.0672 -0.10148 0)
(31.0509 -0.0970121 0)
(31.0377 -0.0931975 0)
(31.0248 -0.0895665 0)
(31.0102 -0.0858434 0)
(30.9958 -0.082234 0)
(30.9843 -0.0790191 0)
(30.9753 -0.0761519 0)
(30.9672 -0.0736687 0)
(30.9587 -0.0716203 0)
(30.9489 -0.0696946 0)
(30.9382 -0.0675669 0)
(30.9273 -0.0652202 0)
(30.9161 -0.0629237 0)
(30.9042 -0.0609742 0)
(30.8905 -0.0594146 0)
(30.8743 -0.058054 0)
(30.8551 -0.0567037 0)
(30.8325 -0.0553162 0)
(30.8068 -0.0539904 0)
(30.7778 -0.0528318 0)
(30.7454 -0.0519518 0)
(30.7089 -0.0512944 0)
(30.6683 -0.0507102 0)
(30.6233 -0.0500911 0)
(30.5743 -0.0495 0)
(30.5216 -0.0489729 0)
(30.4655 -0.04852 0)
(30.4064 -0.0481137 0)
(30.3444 -0.0477393 0)
(30.2798 -0.0474004 0)
(30.2129 -0.0470757 0)
(30.1444 -0.0467261 0)
(30.0747 -0.0463423 0)
(30.0041 -0.045934 0)
(29.933 -0.0455226 0)
(29.8617 -0.0451013 0)
(29.79 -0.0446517 0)
(29.7191 -0.0441694 0)
(29.648 -0.043646 0)
(29.5782 -0.0431077 0)
(29.5085 -0.0425533 0)
(29.4403 -0.042008 0)
(29.3723 -0.041443 0)
(29.306 -0.0408811 0)
(29.24 -0.0402871 0)
(29.1758 -0.0397014 0)
(29.112 -0.039106 0)
(29.05 -0.0385524 0)
(28.9885 -0.0379966 0)
(28.929 -0.0374445 0)
(28.8699 -0.03688 0)
(28.8129 -0.036327 0)
(28.7563 -0.0357751 0)
(28.7019 -0.035247 0)
(28.6477 -0.0347235 0)
(28.5959 -0.0342269 0)
(28.5442 -0.0337374 0)
(28.495 -0.0332859 0)
(28.4457 -0.0328528 0)
(28.3989 -0.0324836 0)
(28.3518 -0.0321529 0)
(28.3075 -0.0319758 0)
(28.2617 -0.0318703 0)
(28.2208 -0.0321648 0)
(28.1729 -0.0326443 0)
(28.1403 -0.0339059 0)
(28.076 -0.0366341 0)
(40.2419 -0.0161657 0)
(40.2904 -0.0671901 0)
(40.2717 -0.206837 0)
(40.0832 -0.423795 0)
(39.6529 -0.656251 0)
(38.9885 -0.84919 0)
(38.1576 -0.975721 0)
(37.2546 -1.02822 0)
(36.342 -1.01507 0)
(35.4968 -0.954478 0)
(34.7493 -0.86592 0)
(34.1021 -0.764481 0)
(33.5521 -0.662053 0)
(33.1053 -0.570707 0)
(32.7468 -0.493586 0)
(32.4424 -0.424926 0)
(32.1846 -0.364582 0)
(31.9854 -0.317819 0)
(31.8289 -0.282403 0)
(31.6859 -0.250754 0)
(31.5555 -0.221581 0)
(31.4527 -0.199022 0)
(31.3735 -0.183159 0)
(31.3001 -0.169663 0)
(31.2259 -0.155768 0)
(31.1592 -0.142891 0)
(31.1054 -0.133247 0)
(31.0603 -0.126314 0)
(31.0167 -0.119939 0)
(30.971 -0.112874 0)
(30.9266 -0.105925 0)
(30.888 -0.100443 0)
(30.8538 -0.0963652 0)
(30.821 -0.0927356 0)
(30.7873 -0.0887766 0)
(30.7518 -0.0845717 0)
(30.7173 -0.0808463 0)
(30.6847 -0.0778794 0)
(30.653 -0.0752695 0)
(30.6213 -0.072552 0)
(30.5889 -0.069735 0)
(30.5552 -0.0670841 0)
(30.5207 -0.0647294 0)
(30.4861 -0.0625788 0)
(30.4515 -0.0604768 0)
(30.4167 -0.0584299 0)
(30.3813 -0.056535 0)
(30.3449 -0.0547793 0)
(30.3075 -0.0530449 0)
(30.2693 -0.0512711 0)
(30.2305 -0.0494808 0)
(30.1916 -0.0477388 0)
(30.1523 -0.0460621 0)
(30.1125 -0.0444471 0)
(30.0719 -0.0428119 0)
(30.0304 -0.0410946 0)
(29.988 -0.0393529 0)
(29.945 -0.0376841 0)
(29.9013 -0.036113 0)
(29.8568 -0.034606 0)
(29.8112 -0.0331254 0)
(29.7643 -0.0316811 0)
(29.7161 -0.0303202 0)
(29.6665 -0.0290561 0)
(29.6157 -0.0278754 0)
(29.5635 -0.0267673 0)
(29.5102 -0.0257357 0)
(29.4555 -0.0247942 0)
(29.3996 -0.0239298 0)
(29.3426 -0.0231542 0)
(29.2847 -0.0224559 0)
(29.226 -0.0218255 0)
(29.1667 -0.0212562 0)
(29.107 -0.0207429 0)
(29.047 -0.0202909 0)
(28.9868 -0.019888 0)
(28.9267 -0.0195324 0)
(28.8665 -0.0192036 0)
(28.8071 -0.01891 0)
(28.7476 -0.0186454 0)
(28.6893 -0.0184122 0)
(28.6309 -0.0182026 0)
(28.5741 -0.0180209 0)
(28.5173 -0.0178614 0)
(28.4623 -0.0177233 0)
(28.4074 -0.0176063 0)
(28.3544 -0.0175111 0)
(28.3016 -0.0174342 0)
(28.2508 -0.0173732 0)
(28.2001 -0.0173263 0)
(28.1515 -0.0172979 0)
(28.1029 -0.0172854 0)
(28.0564 -0.0173065 0)
(28.0097 -0.0173684 0)
(27.9654 -0.017503 0)
(27.9196 -0.0177728 0)
(27.8784 -0.0181374 0)
(27.8297 -0.0191002 0)
(27.7968 -0.0196139 0)
(27.7301 -0.0241582 0)
(40.2386 -0.0300089 0)
(40.2709 -0.0704532 0)
(40.2318 -0.171527 0)
(40.0308 -0.327113 0)
(39.6008 -0.494848 0)
(38.9444 -0.634488 0)
(38.1222 -0.726417 0)
(37.2226 -0.765061 0)
(36.3069 -0.75742 0)
(35.4532 -0.717651 0)
(34.6842 -0.656548 0)
(34.0075 -0.584585 0)
(33.439 -0.513669 0)
(32.9685 -0.449752 0)
(32.5654 -0.391526 0)
(32.2234 -0.339491 0)
(31.9447 -0.2966 0)
(31.7136 -0.262625 0)
(31.5055 -0.233636 0)
(31.3196 -0.207821 0)
(31.1613 -0.186376 0)
(31.0246 -0.170101 0)
(30.8961 -0.156982 0)
(30.7728 -0.144708 0)
(30.6597 -0.133172 0)
(30.5579 -0.123469 0)
(30.462 -0.115917 0)
(30.3672 -0.109505 0)
(30.2739 -0.102977 0)
(30.1846 -0.0963347 0)
(30.1 -0.0904979 0)
(30.0177 -0.0858462 0)
(29.9359 -0.0819108 0)
(29.8541 -0.0779614 0)
(29.7736 -0.0736941 0)
(29.6953 -0.0696185 0)
(29.6186 -0.0662643 0)
(29.5423 -0.063473 0)
(29.4662 -0.0607723 0)
(29.3908 -0.0578875 0)
(29.3166 -0.0549527 0)
(29.2438 -0.0523148 0)
(29.1717 -0.0501026 0)
(29.1004 -0.0481053 0)
(29.0299 -0.0460645 0)
(28.9605 -0.0439673 0)
(28.8923 -0.0419416 0)
(28.8252 -0.04006 0)
(28.7591 -0.038296 0)
(28.6944 -0.0366146 0)
(28.6309 -0.0349945 0)
(28.5689 -0.0334406 0)
(28.5081 -0.0319385 0)
(28.4489 -0.0304976 0)
(28.3908 -0.0290949 0)
(28.3345 -0.0277265 0)
(28.2796 -0.0264144 0)
(28.2266 -0.0251969 0)
(28.1748 -0.0240397 0)
(28.1249 -0.0228987 0)
(28.0763 -0.0217318 0)
(28.0296 -0.0205706 0)
(27.9841 -0.019453 0)
(27.9406 -0.0184018 0)
(27.8982 -0.0173855 0)
(27.8574 -0.0163914 0)
(27.8178 -0.0154086 0)
(27.7796 -0.0144628 0)
(27.7423 -0.0135541 0)
(27.7063 -0.0127059 0)
(27.671 -0.0119321 0)
(27.6368 -0.0112145 0)
(27.6031 -0.0105328 0)
(27.5703 -0.00989603 0)
(27.5379 -0.00931626 0)
(27.5061 -0.00880626 0)
(27.4747 -0.00835758 0)
(27.4436 -0.0079735 0)
(27.4129 -0.00764205 0)
(27.3824 -0.00736557 0)
(27.3522 -0.00714162 0)
(27.322 -0.00696544 0)
(27.2921 -0.00683373 0)
(27.2621 -0.00674264 0)
(27.2323 -0.00668786 0)
(27.2025 -0.00666909 0)
(27.1727 -0.00668348 0)
(27.1429 -0.00672963 0)
(27.1132 -0.00679908 0)
(27.0834 -0.00689312 0)
(27.0537 -0.00700735 0)
(27.024 -0.00714427 0)
(26.9945 -0.00730752 0)
(26.9647 -0.00751279 0)
(26.9355 -0.00772834 0)
(26.9049 -0.0081134 0)
(26.8769 -0.00835657 0)
(26.8424 -0.00948511 0)
(26.8199 -0.00918234 0)
(26.7695 -0.0145938 0)
(40.2229 -0.0441214 0)
(40.2345 -0.0683461 0)
(40.1702 -0.129278 0)
(39.943 -0.223499 0)
(39.4859 -0.326545 0)
(38.7965 -0.413768 0)
(37.9306 -0.472622 0)
(36.9718 -0.498684 0)
(35.9909 -0.496149 0)
(35.0462 -0.472357 0)
(34.1775 -0.433684 0)
(33.4043 -0.388475 0)
(32.7269 -0.343471 0)
(32.1355 -0.301292 0)
(31.6226 -0.262991 0)
(31.1832 -0.230035 0)
(30.8012 -0.202599 0)
(30.4628 -0.179455 0)
(30.1587 -0.159322 0)
(29.8879 -0.142336 0)
(29.6433 -0.128144 0)
(29.4192 -0.116354 0)
(29.2104 -0.106133 0)
(29.0164 -0.0971338 0)
(28.8371 -0.0893777 0)
(28.6696 -0.0825526 0)
(28.5108 -0.0763776 0)
(28.3589 -0.0707231 0)
(28.2144 -0.0655354 0)
(28.0776 -0.0607194 0)
(27.9476 -0.0562843 0)
(27.823 -0.0522222 0)
(27.7028 -0.0484725 0)
(27.5872 -0.044957 0)
(27.4766 -0.0415973 0)
(27.3709 -0.0384703 0)
(27.2695 -0.035651 0)
(27.1719 -0.033054 0)
(27.0775 -0.0305803 0)
(26.9869 -0.0281989 0)
(26.9001 -0.0259513 0)
(26.8171 -0.0239182 0)
(26.737 -0.0220915 0)
(26.66 -0.0203852 0)
(26.5856 -0.0187222 0)
(26.5145 -0.017134 0)
(26.446 -0.0156841 0)
(26.3804 -0.0143859 0)
(26.3172 -0.0131869 0)
(26.2567 -0.0120504 0)
(26.1983 -0.0109667 0)
(26.1426 -0.0099589 0)
(26.0889 -0.00903038 0)
(26.0377 -0.00818123 0)
(25.9883 -0.00738627 0)
(25.9413 -0.00662178 0)
(25.8962 -0.00588524 0)
(25.8535 -0.00519927 0)
(25.8123 -0.00456357 0)
(25.7734 -0.00396344 0)
(25.7361 -0.00337794 0)
(25.701 -0.00281804 0)
(25.6674 -0.00229773 0)
(25.6359 -0.00182236 0)
(25.6058 -0.00137421 0)
(25.5776 -0.000945908 0)
(25.5507 -0.000535417 0)
(25.5255 -0.000152647 0)
(25.5015 0.000200707 0)
(25.4792 0.000524636 0)
(25.4577 0.000835993 0)
(25.4376 0.00107015 0)
(25.4184 0.00127189 0)
(25.4002 0.00145643 0)
(25.3827 0.00163165 0)
(25.3662 0.00178056 0)
(25.35 0.00191654 0)
(25.3347 0.00203013 0)
(25.3196 0.00213434 0)
(25.3052 0.00222545 0)
(25.291 0.00230064 0)
(25.2772 0.00235165 0)
(25.2636 0.00239515 0)
(25.2503 0.00243722 0)
(25.2371 0.00247458 0)
(25.224 0.00250531 0)
(25.211 0.00252611 0)
(25.1981 0.00253841 0)
(25.185 0.00253933 0)
(25.172 0.00253258 0)
(25.1588 0.00251216 0)
(25.1455 0.00247938 0)
(25.1321 0.00242656 0)
(25.1184 0.0023178 0)
(25.1048 0.00222385 0)
(25.0899 0.00194255 0)
(25.0767 0.00194542 0)
(25.0582 0.000987137 0)
(25.0479 0.00151906 0)
(25.0178 -0.00294836 0)
(39.1402 -0.0539802 0)
(38.9464 -0.0675466 0)
(38.6586 -0.0934487 0)
(38.1914 -0.131021 0)
(37.4774 -0.172078 0)
(36.5128 -0.207811 0)
(35.3544 -0.233296 0)
(34.0901 -0.246409 0)
(32.7977 -0.248007 0)
(31.5411 -0.24013 0)
(30.3741 -0.225375 0)
(29.3097 -0.206711 0)
(28.3624 -0.186513 0)
(27.5261 -0.166209 0)
(26.7956 -0.14719 0)
(26.1541 -0.130093 0)
(25.5937 -0.114744 0)
(25.0992 -0.100641 0)
(24.6661 -0.0882213 0)
(24.281 -0.0776312 0)
(23.9406 -0.0685665 0)
(23.6346 -0.0607847 0)
(23.3586 -0.0542052 0)
(23.1083 -0.0489481 0)
(22.8792 -0.0445281 0)
(22.6703 -0.0403536 0)
(22.4794 -0.0364839 0)
(22.3047 -0.0332895 0)
(22.1433 -0.030667 0)
(21.9949 -0.0281886 0)
(21.8588 -0.0257322 0)
(21.7343 -0.0235233 0)
(21.6196 -0.0217367 0)
(21.5136 -0.0202484 0)
(21.4159 -0.0188114 0)
(21.3263 -0.0173901 0)
(21.244 -0.0161213 0)
(21.1683 -0.0150843 0)
(21.0983 -0.0142174 0)
(21.0338 -0.0133985 0)
(20.9745 -0.0125734 0)
(20.9205 -0.011806 0)
(20.8706 -0.0111638 0)
(20.8247 -0.0106356 0)
(20.7823 -0.0101462 0)
(20.7436 -0.0096631 0)
(20.708 -0.00919945 0)
(20.6756 -0.0087781 0)
(20.6457 -0.00839767 0)
(20.6185 -0.0080506 0)
(20.5934 -0.00772419 0)
(20.5708 -0.00741805 0)
(20.55 -0.00712271 0)
(20.5313 -0.00684182 0)
(20.5141 -0.00657385 0)
(20.4988 -0.00632291 0)
(20.4848 -0.00609013 0)
(20.4726 -0.00588796 0)
(20.4613 -0.00570633 0)
(20.4515 -0.00553523 0)
(20.4426 -0.00535718 0)
(20.4352 -0.00518396 0)
(20.4285 -0.00501698 0)
(20.423 -0.0048673 0)
(20.4182 -0.00471202 0)
(20.4146 -0.00455448 0)
(20.4115 -0.0043696 0)
(20.4095 -0.00418415 0)
(20.4081 -0.00396335 0)
(20.4076 -0.0037038 0)
(20.4077 -0.00352734 0)
(20.4085 -0.00335103 0)
(20.4099 -0.00319832 0)
(20.4119 -0.00305183 0)
(20.4145 -0.00290784 0)
(20.4176 -0.00277337 0)
(20.4213 -0.00264735 0)
(20.4253 -0.00253972 0)
(20.4297 -0.00244142 0)
(20.4344 -0.00235621 0)
(20.4394 -0.00228889 0)
(20.4446 -0.00226228 0)
(20.45 -0.00225386 0)
(20.4555 -0.00225558 0)
(20.4611 -0.0022642 0)
(20.4668 -0.00227858 0)
(20.4724 -0.00229631 0)
(20.4781 -0.00231519 0)
(20.4837 -0.00233729 0)
(20.4892 -0.00235725 0)
(20.4947 -0.00238234 0)
(20.4999 -0.00240509 0)
(20.5052 -0.00243522 0)
(20.5097 -0.00249622 0)
(20.5146 -0.0025399 0)
(20.518 -0.00268041 0)
(20.5227 -0.0026242 0)
(20.524 -0.00322313 0)
(20.5277 -0.00208139 0)
(20.5227 -0.00798324 0)
(1.95437 0.421238 0)
(1.64907 2.05102 0)
(0.910905 2.40128 0)
(0.110915 2.5677 0)
(-0.665574 2.43237 0)
(-1.46651 1.98152 0)
(-2.15367 1.28401 0)
(-2.51272 0.770952 0)
(10.5778 0.318084 0)
(4.36564 1.81698 0)
(1.74411 2.17481 0)
(-0.155018 2.21102 0)
(-2.00006 2.04563 0)
(-3.87731 1.69172 0)
(-5.71493 1.11972 0)
(-6.92409 0.530807 0)
(16.8868 -0.371862 0)
(7.91511 0.751522 0)
(2.86677 1.2142 0)
(-0.390801 1.32793 0)
(-2.9925 1.24932 0)
(-5.40338 1.0588 0)
(-7.85091 0.75371 0)
(-9.97521 0.288393 0)
(20.5479 -1.17077 0)
(11.239 -0.438567 0)
(4.58037 0.0734927 0)
(0.166287 0.31211 0)
(-3.14767 0.393389 0)
(-6.02668 0.379204 0)
(-8.77042 0.303335 0)
(-11.4791 0.0760387 0)
(22.4346 -1.81035 0)
(13.5547 -1.3272 0)
(6.44274 -0.873378 0)
(1.28495 -0.548981 0)
(-2.61863 -0.328239 0)
(-5.86406 -0.179403 0)
(-8.80814 -0.0646636 0)
(-11.7951 -0.0515922 0)
(23.6384 -2.31559 0)
(15.4317 -1.97617 0)
(8.2598 -1.5757 0)
(2.7433 -1.21556 0)
(-1.47202 -0.904728 0)
(-4.91751 -0.630901 0)
(-7.98474 -0.38078 0)
(-11.1055 -0.205936 0)
(24.3328 -2.60592 0)
(16.9012 -2.37075 0)
(10.0266 -2.03617 0)
(4.4423 -1.67069 0)
(0.115669 -1.30549 0)
(-3.37699 -0.946695 0)
(-6.43093 -0.597697 0)
(-9.51232 -0.307156 0)
(24.7682 -2.67801 0)
(17.9671 -2.50943 0)
(11.515 -2.23408 0)
(6.15517 -1.89314 0)
(1.91899 -1.51311 0)
(-1.51045 -1.11238 0)
(-4.49002 -0.712704 0)
(-7.5282 -0.358451 0)
(25.0646 -2.58809 0)
(18.8342 -2.46099 0)
(12.8346 -2.23087 0)
(7.79371 -1.91913 0)
(3.76291 -1.55073 0)
(0.479123 -1.14694 0)
(-2.3746 -0.74032 0)
(-5.32872 -0.369185 0)
(25.2511 -2.38135 0)
(19.5304 -2.28725 0)
(13.9918 -2.09728 0)
(9.31691 -1.82127 0)
(5.53754 -1.48045 0)
(2.42575 -1.09686 0)
(-0.297023 -0.708846 0)
(-3.17826 -0.353639 0)
(25.3303 -2.11376 0)
(20.0609 -2.05166 0)
(14.9677 -1.89739 0)
(10.6754 -1.65934 0)
(7.16908 -1.35422 0)
(4.24235 -1.00514 0)
(1.65852 -0.650563 0)
(-1.14558 -0.32574 0)
(25.3127 -1.83522 0)
(20.4566 -1.79909 0)
(15.8045 -1.67512 0)
(11.8633 -1.47225 0)
(8.60654 -1.20351 0)
(5.86485 -0.895321 0)
(3.41661 -0.580467 0)
(0.697003 -0.291723 0)
(25.2218 -1.57414 0)
(20.7377 -1.558 0)
(16.5022 -1.45912 0)
(12.89 -1.28634 0)
(9.86463 -1.05227 0)
(7.29295 -0.782726 0)
(4.96289 -0.504864 0)
(2.30899 -0.250374 0)
(25.0839 -1.34484 0)
(20.9389 -1.34146 0)
(17.0856 -1.26281 0)
(13.7726 -1.11617 0)
(10.9568 -0.913498 0)
(8.53866 -0.679416 0)
(6.31457 -0.436052 0)
(3.71825 -0.214284 0)
(24.917 -1.15033 0)
(21.078 -1.15479 0)
(17.572 -1.09148 0)
(14.5311 -0.966769 0)
(11.9027 -0.792554 0)
(9.61994 -0.589994 0)
(7.48719 -0.377302 0)
(4.93588 -0.184433 0)
(24.7432 -0.990629 0)
(21.1862 -0.996928 0)
(17.9781 -0.945219 0)
(15.1713 -0.838385 0)
(12.7158 -0.689713 0)
(10.5573 -0.514625 0)
(8.50733 -0.32782 0)
(5.99383 -0.161615 0)
(24.5807 -0.861897 0)
(21.2811 -0.867018 0)
(18.3234 -0.822481 0)
(15.7147 -0.730166 0)
(13.4159 -0.602535 0)
(11.3715 -0.450401 0)
(9.39995 -0.284203 0)
(6.9158 -0.145768 0)
(24.4343 -0.756497 0)
(21.3685 -0.760173 0)
(18.6246 -0.720109 0)
(16.1856 -0.639404 0)
(14.024 -0.528436 0)
(12.0824 -0.395273 0)
(10.1867 -0.247021 0)
(7.71817 -0.13135 0)
(24.3061 -0.669044 0)
(21.4509 -0.671194 0)
(18.8913 -0.634637 0)
(16.5987 -0.563214 0)
(14.5565 -0.465632 0)
(12.706 -0.34835 0)
(10.8783 -0.216925 0)
(8.42441 -0.115947 0)
(24.1974 -0.597264 0)
(21.5299 -0.597968 0)
(19.1305 -0.564081 0)
(16.9655 -0.500093 0)
(15.0275 -0.413258 0)
(13.257 -0.309022 0)
(11.489 -0.19224 0)
(9.04776 -0.10218 0)
(24.108 -0.53898 0)
(21.6076 -0.538699 0)
(19.3485 -0.506727 0)
(17.2962 -0.448901 0)
(15.4495 -0.37068 0)
(13.7491 -0.276929 0)
(12.0333 -0.172136 0)
(9.60239 -0.0907639 0)
(24.0339 -0.490315 0)
(21.6843 -0.489415 0)
(19.5463 -0.459391 0)
(17.5964 -0.406788 0)
(15.8315 -0.335722 0)
(14.1936 -0.250597 0)
(12.5238 -0.15562 0)
(10.1011 -0.0813984 0)
(23.9718 -0.448176 0)
(21.7581 -0.44659 0)
(19.728 -0.418533 0)
(17.8704 -0.370376 0)
(16.1794 -0.305502 0)
(14.5977 -0.227856 0)
(12.969 -0.141311 0)
(10.5529 -0.0734191 0)
(23.9206 -0.411362 0)
(21.8294 -0.408872 0)
(19.8962 -0.382731 0)
(18.1217 -0.338448 0)
(16.4974 -0.278999 0)
(14.9666 -0.20792 0)
(13.3747 -0.128735 0)
(10.9636 -0.0665559 0)
(23.8796 -0.380221 0)
(21.8974 -0.376893 0)
(20.0519 -0.352211 0)
(18.3529 -0.311142 0)
(16.7894 -0.256309 0)
(15.3048 -0.190863 0)
(13.7461 -0.117984 0)
(11.3386 -0.0607718 0)
(23.8483 -0.354096 0)
(21.9653 -0.34951 0)
(20.1991 -0.326387 0)
(18.5682 -0.288031 0)
(17.0597 -0.237049 0)