/*--------------------------------*- C++ -*----------------------------------*\
| =========                 |                                                 |
| \\      /  F ield         | OpenFOAM: The Open Source CFD Toolbox           |
|  \\    /   O peration     | Version:  v2012                                 |
|   \\  /    A nd           | Website:  www.openfoam.com                      |
|    \\/     M anipulation  |                                                 |
\*---------------------------------------------------------------------------*/
FoamFile
{
    version     2.0;
    format      ascii;
    class       volScalarField;
    location    "0.308";
    object      nut.air;
}
// * * * * * * * * * * * * * * * * * * * * * * * * * * * * * * * * * * * * * //

dimensions      [0 2 -1 0 0 0 0];


internalField   nonuniform List<scalar> 
5600
(
2.45139e-05
3.47341e-05
4.04101e-05
4.2462e-05
4.22726e-05
4.09696e-05
3.92096e-05
3.75385e-05
3.61135e-05
3.49466e-05
3.40609e-05
3.34372e-05
3.30367e-05
3.28049e-05
3.26956e-05
3.26597e-05
3.26714e-05
3.26979e-05
3.27372e-05
3.27663e-05
3.28012e-05
3.2821e-05
3.28512e-05
3.28752e-05
3.29121e-05
3.29409e-05
3.29801e-05
3.30112e-05
3.30505e-05
3.30787e-05
3.31119e-05
3.31318e-05
3.31556e-05
3.31661e-05
3.31822e-05
3.31859e-05
3.31971e-05
3.31963e-05
3.32045e-05
3.32013e-05
3.32081e-05
3.32038e-05
3.32108e-05
3.32063e-05
3.32143e-05
3.32104e-05
3.322e-05
3.32167e-05
3.32271e-05
3.32244e-05
3.32355e-05
3.32322e-05
3.32447e-05
3.32414e-05
3.32551e-05
3.32519e-05
3.32673e-05
3.32645e-05
3.32817e-05
3.32795e-05
3.32989e-05
3.32965e-05
3.33182e-05
3.33157e-05
3.33396e-05
3.33365e-05
3.3363e-05
3.33591e-05
3.33882e-05
3.33833e-05
3.34154e-05
3.3409e-05
3.34445e-05
3.34363e-05
3.34755e-05
3.34653e-05
3.35081e-05
3.34961e-05
3.35422e-05
3.35285e-05
3.35767e-05
3.35629e-05
3.36106e-05
3.36004e-05
3.36414e-05
3.36437e-05
3.36648e-05
3.3699e-05
3.36711e-05
3.37816e-05
3.36401e-05
3.39262e-05
3.35129e-05
3.4232e-05
3.31018e-05
3.50338e-05
3.17322e-05
3.75738e-05
2.64773e-05
4.70239e-05
0.000151653
0.000137414
0.000112242
9.86323e-05
9.38953e-05
9.49569e-05
0.000102094
0.000110122
0.00011648
0.000124317
0.000132728
0.000141232
0.000149475
0.000157245
0.000164434
0.000170929
0.000176816
0.000182051
0.000186794
0.000191043
0.000195009
0.000198595
0.000202116
0.000205342
0.000208509
0.000211309
0.000214079
0.000216509
0.00021889
0.000220889
0.000222821
0.000224386
0.000225926
0.000227151
0.000228417
0.000229395
0.000230461
0.000231251
0.000232169
0.000232822
0.000233637
0.00023419
0.000234934
0.00023541
0.000236128
0.000236563
0.000237251
0.000237631
0.000238282
0.000238609
0.000239214
0.000239489
0.000240081
0.000240308
0.00024089
0.000241079
0.000241666
0.000241821
0.000242419
0.000242551
0.000243156
0.000243252
0.000243876
0.000243934
0.000244581
0.000244597
0.000245272
0.000245244
0.000245951
0.000245869
0.000246625
0.000246488
0.000247297
0.000247094
0.000247965
0.000247694
0.000248632
0.000248289
0.000249294
0.00024888
0.000249938
0.000249471
0.000250544
0.000250078
0.000251081
0.000250742
0.000251491
0.000251555
0.000251651
0.00025275
0.000251289
0.000254692
0.000249812
0.000258245
0.000245752
0.000265724
0.000235369
0.000282708
0.0002098
0.000288313
0.000156519
0.000151559
0.000143045
0.00013516
0.00012525
0.000120737
0.000113756
0.000109718
0.000108698
0.000109813
0.000112684
0.000117417
0.000123697
0.000131343
0.000140275
0.00015034
0.000161506
0.000173771
0.000187121
0.000201705
0.000217063
0.000232813
0.000246166
0.000258356
0.000270149
0.000280999
0.000290618
0.000298311
0.000305524
0.000311687
0.000317721
0.000322968
0.000328299
0.000332833
0.000337509
0.00034139
0.000345501
0.000348845
0.000352508
0.000355428
0.000358744
0.000361324
0.000364371
0.000366675
0.000369501
0.000371526
0.000374116
0.000375882
0.000378278
0.000379826
0.000382072
0.000383435
0.000385575
0.000386784
0.000388846
0.000389917
0.000391928
0.000392866
0.000394842
0.000395656
0.000397611
0.000398297
0.000400247
0.000400804
0.000402768
0.00040319
0.000405186
0.000405469
0.000407518
0.000407659
0.000409779
0.000409766
0.000411987
0.000411796
0.000414144
0.000413745
0.000416252
0.000415605
0.000418305
0.000417368
0.0004203
0.000419032
0.000422244
0.000420601
0.000424158
0.000422073
0.000426068
0.00042344
0.000428012
0.000424665
0.000430095
0.000425598
0.000432576
0.000425899
0.000436103
0.000424846
0.000442176
0.000421375
0.000431748
0.000409287
0.000157822
0.000153986
0.000150103
0.000146747
0.000142711
0.000139208
0.000135597
0.000131458
0.000128252
0.000124826
0.000123096
0.000119874
0.000117514
0.000115598
0.00011564
0.000116643
0.000119892
0.000124564
0.000131348
0.00013972
0.000150231
0.000162291
0.000176365
0.000191121
0.000207239
0.000223396
0.000238997
0.000252573
0.000266713
0.00027963
0.000293121
0.000305198
0.000317786
0.000329044
0.000340722
0.000351052
0.000361847
0.000371325
0.000381321
0.000389957
0.000399132
0.000406845
0.000415372
0.000421998
0.000428666
0.000433738
0.000439814
0.000444297
0.000449919
0.000453914
0.000459184
0.000462764
0.000467756
0.000470975
0.000475743
0.000478632
0.00048323
0.000485814
0.000490282
0.000492582
0.000496948
0.000498972
0.000503269
0.000505018
0.000509286
0.000510756
0.000515029
0.000516217
0.000520534
0.000521431
0.000525827
0.000526415
0.000530936
0.000531176
0.000535874
0.000535716
0.000540665
0.000540008
0.000545285
0.000544036
0.000549757
0.000547803
0.000554124
0.000551306
0.000558455
0.000554518
0.000562827
0.000557393
0.000567334
0.000559848
0.000572137
0.000561749
0.000577401
0.000563088
0.000583079
0.000564266
0.00058845
0.000566648
0.000591868
0.00057179
0.000158123
0.000154595
0.000151654
0.000149053
0.000146758
0.000144465
0.000142503
0.00014031
0.00013854
0.000136341
0.000134895
0.000132676
0.000131223
0.000128828
0.000127451
0.00012533
0.000124294
0.000121709
0.000121048
0.000119677
0.000120881
0.000121783
0.000125831
0.000129842
0.000137219
0.00014456
0.000155152
0.000165622
0.000178857
0.000191874
0.000207189
0.000222
0.000235659
0.000247547
0.000261133
0.000273006
0.000286556
0.000298293
0.000311751
0.000323304
0.000336577
0.000347853
0.000360917
0.000371782
0.000384298
0.000394436
0.000406255
0.000415639
0.000426845
0.000435536
0.000446231
0.000454276
0.000464489
0.000471899
0.000481812
0.000488651
0.000498211
0.000504486
0.000513746
0.000519461
0.000528471
0.00053362
0.000542427
0.000547003
0.000555651
0.000559659
0.00056822
0.000571673
0.000580201
0.000583126
0.000591702
0.00059412
0.000602748
0.000604657
0.000613384
0.000614674
0.000622769
0.000622882
0.000631324
0.00063062
0.000639568
0.00063793
0.000647565
0.000644822
0.000655384
0.000651317
0.00066306
0.000657434
0.000670598
0.000663236
0.00067795
0.000668901
0.000684836
0.000674916
0.000690498
0.000682078
0.000694381
0.000691081
0.000696409
0.000700568
0.000158194
0.000154769
0.000152054
0.000149669
0.000147721
0.000145837
0.000144332
0.000142644
0.000141522
0.000139785
0.000139071
0.00013719
0.000136815
0.00013484
0.000134639
0.000132643
0.000132609
0.000130398
0.000130532
0.000127956
0.000128547
0.000125684
0.000126928
0.000123941
0.000125409
0.000123046
0.000125494
0.000124655
0.00012882
0.000130143
0.00013665
0.000140563
0.000149658
0.000156005
0.000167281
0.000175789
0.000188959
0.000199293
0.000214125
0.00022595
0.00024218
0.000251816
0.000264472
0.000274105
0.000287158
0.000297056
0.000310336
0.000320294
0.000333673
0.00034356
0.00035699
0.000366752
0.000380174
0.000389761
0.000403271
0.000412601
0.000425924
0.000434768
0.000447861
0.00045612
0.000468976
0.000476657
0.000489335
0.000496436
0.000508984
0.000515535
0.000527977
0.000534008
0.000546504
0.00055219
0.000564724
0.000569843
0.000582328
0.000586879
0.000599334
0.000603281
0.000615721
0.000618978
0.000631414
0.000633941
0.000646309
0.000648248
0.000660471
0.000662007
0.000673936
0.000675321
0.00068667
0.000688332
0.000698571
0.000701157
0.000709572
0.000713823
0.000719947
0.000726204
0.000729983
0.000737498
0.000740964
0.000746725
0.000755315
0.000761666
0.000158214
0.000154828
0.00015217
0.00014986
0.000148
0.000146219
0.000144879
0.000143279
0.000142431
0.000140761
0.000140385
0.0001386
0.000138519
0.00013676
0.000136784
0.000135076
0.00013529
0.000133375
0.000134069
0.000131647
0.000132971
0.000130049
0.000131837
0.000128652
0.000130649
0.000127267
0.000129595
0.000125891
0.000128852
0.000124803
0.000128479
0.000124137
0.000128459
0.000124528
0.000129752
0.000126837
0.000133246
0.000131847
0.000139747
0.000140298
0.000149862
0.000152585
0.000163691
0.000168314
0.000180837
0.000187176
0.000201037
0.000208875
0.00022394
0.000233005
0.000249101
0.000259173
0.000275472
0.000282389
0.000295218
0.000302505
0.000315731
0.000323184
0.000336679
0.000344259
0.000357976
0.000365601
0.000379499
0.000387103
0.00040119
0.000408738
0.000422968
0.000430397
0.000444856
0.000452249
0.000466814
0.000473964
0.000488463
0.000495283
0.000509648
0.000516105
0.00053031
0.000536479
0.000550473
0.000556411
0.000570044
0.000575891
0.000589071
0.000594953
0.000607588
0.000613748
0.000625397
0.000632207
0.000642561
0.000650259
0.000659193
0.000667887
0.000675499
0.000684797
0.000691693
0.000700746
0.000708311
0.000716655
0.000726397
0.000738954
0.000158219
0.000154854
0.000152205
0.000149933
0.00014809
0.00014635
0.000145056
0.000143487
0.000142712
0.000141095
0.00014076
0.000139128
0.00013898
0.000137509
0.000137383
0.000135999
0.000136119
0.000134425
0.000135148
0.0001329
0.000134218
0.000131632
0.000133181
0.000130576
0.000132217
0.000129461
0.00013152
0.000128217
0.000131006
0.000127038
0.000130471
0.000126047
0.000129925
0.000125122
0.000129552
0.000124274
0.000129422
0.000123675
0.000129559
0.000123475
0.000129869
0.000123856
0.000130809
0.000125272
0.000132902
0.000128175
0.00013661
0.000133116
0.000142485
0.00014055
0.000150916
0.000150758
0.000162299
0.000163872
0.000176404
0.000179495
0.000192984
0.000197522
0.000211823
0.000217697
0.000232811
0.000239836
0.000255679
0.00026364
0.000280107
0.000288913
0.000305873
0.000312434
0.000325198
0.000330783
0.000343567
0.000349591
0.00036249
0.000369001
0.000381891
0.000388947
0.000401775
0.000409209
0.000421903
0.000429839
0.000442289
0.000450777
0.000462885
0.000471953
0.00048364
0.00049339
0.000504552
0.000515014
0.000525651
0.000536735
0.000547054
0.000558612
0.000568636
0.000580698
0.000590527
0.000603206
0.000612944
0.000627024
0.00063745
0.000655471
0.000158218
0.00015487
0.000152214
0.00014997
0.000148117
0.000146413
0.000145103
0.000143596
0.000142769
0.000141282
0.00014081
0.000139417
0.000139032
0.00013789
0.000137484
0.000136435
0.000136308
0.000134926
0.000135386
0.000133557
0.000134418
0.000132515
0.000133334
0.000131638
0.000132415
0.000130612
0.000131806
0.000129478
0.00013128
0.000128505
0.000130619
0.000127732
0.000129966
0.000126919
0.000129502
0.000126036
0.000129155
0.000125232
0.000128797
0.000124593
0.000128445
0.000124041
0.000128187
0.000123548
0.000128083
0.000123179
0.000128091
0.000123048
0.000128292
0.000123209
0.000128668
0.000123618
0.000129572
0.000124665
0.000131042
0.000126677
0.000133427
0.000130032
0.000137085
0.000134798
0.000142432
0.000141416
0.000149727
0.000150078
0.000159042
0.000161028
0.000170734
0.000174294
0.000184529
0.000189481
0.000200265
0.000206557
0.000217758
0.000225268
0.000236948
0.000245651
0.000257788
0.000267547
0.00027999
0.000290741
0.000303469
0.000315118
0.000328023
0.000340417
0.000353415
0.000366503
0.00037957
0.000393204
0.000406305
0.000420307
0.00043283
0.000447416
0.000460032
0.000475122
0.000488244
0.000502642
0.0005156
0.00052998
0.000542463
0.000556679
0.000158215
0.00015488
0.000152216
0.000149989
0.000148123
0.000146454
0.000145098
0.000143682
0.000142735
0.000141427
0.000140753
0.000139608
0.00013898
0.000138103
0.000137458
0.000136673
0.000136284
0.000135244
0.000135306
0.000134006
0.000134263
0.000133083
0.000133156
0.000132264
0.000132259
0.000131291
0.000131637
0.000130284
0.000131016
0.000129493
0.000130251
0.000128867
0.000129533
0.000128164
0.000128998
0.000127396
0.00012852
0.000126721
0.000127983
0.000126168
0.000127448
0.000125638
0.000126982
0.000125114
0.000126559
0.000124651
0.000126134
0.000124269
0.00012572
0.000123982
0.000125385
0.000123647
0.000125222
0.000123442
0.000125072
0.00012342
0.000125001
0.000123657
0.000125142
0.000124029
0.000125595
0.000124743
0.000126471
0.000125911
0.000127704
0.000127673
0.000129769
0.000130393
0.000132704
0.000134193
0.000136985
0.000139518
0.000142862
0.0001464
0.000150503
0.00015526
0.000160291
0.000166304
0.000172244
0.000179514
0.000186586
0.000195214
0.000203358
0.00021329
0.000222465
0.000233675
0.000243988
0.0002563
0.000267713
0.000281018
0.000293425
0.000307681
0.000321018
0.000336165
0.000350399
0.000366103
0.000380977
0.000396996
0.000412269
0.000428399
0.000158213
0.000154883
0.000152214
0.000149992
0.000148118
0.000146468
0.000145072
0.000143728
0.000142672
0.000141504
0.000140671
0.000139686
0.000138915
0.000138158
0.000137407
0.00013674
0.000136189
0.000135381
0.000135131
0.000134213
0.000134047
0.000133294
0.00013296
0.000132451
0.000132065
0.000131507
0.000131377
0.000130581
0.000130675
0.00012985
0.000129877
0.000129238
0.000129148
0.000128566
0.000128568
0.000127865
0.000128026
0.00012725
0.000127453
0.000126725
0.000126909
0.000126212
0.00012644
0.000125727
0.000126001
0.000125325
0.000125585
0.000125005
0.000125194
0.000124781
0.000124912
0.000124555
0.000124802
0.000124473
0.000124782
0.000124591
0.000124922
0.000124985
0.000125348
0.000125628
0.0001261
0.00012665
0.000127357
0.000128293
0.000129253
0.000130716
0.000132199
0.000134317
0.000136297
0.00013924
0.000141966
0.000145875
0.000149465
0.00015434
0.000158928
0.000164927
0.000170647
0.000177804
0.000184659
0.00019293
0.000201051
0.000210534
0.00021983
0.000230379
0.000240603
0.000252134
0.000263345
0.000275752
0.00028792
0.000301133
0.000314176
0.000328149
0.000341971
0.000356607
0.000371203
0.00038643
0.000401741
0.000417469
0.000433494
0.000449902
0.00015821
0.000154881
0.000152206
0.000149982
0.000148102
0.000146453
0.000145033
0.000143717
0.0001426
0.000141496
0.000140574
0.000139653
0.000138819
0.000138081
0.000137303
0.00013665
0.000136024
0.000135318
0.000134886
0.000134152
0.000133772
0.00013317
0.000132695
0.000132259
0.000131766
0.000131314
0.000130984
0.000130409
0.000130211
0.000129651
0.000129406
0.000128986
0.000128675
0.000128314
0.000128063
0.000127672
0.000127513
0.000127137
0.000127003
0.000126702
0.000126593
0.000126349
0.000126344
0.000126149
0.00012626
0.00012621
0.000126434
0.000126563
0.000126868
0.000127319
0.000127829
0.000128693
0.000129652
0.000131069
0.000132633
0.000134787
0.000137159
0.000140225
0.000143582
0.000147707
0.000152196
0.000157502
0.000163222
0.000169781
0.000176754
0.000184508
0.000192554
0.000201324
0.000210354
0.00022011
0.000230104
0.000240801
0.000251686
0.000263224
0.0002749
0.000287201
0.000299576
0.000312529
0.000325476
0.000338927
0.000352358
0.000366232
0.000377437
0.000387785
0.00039821
0.0004089
0.000419927
0.000431315
0.0004429
0.000454947
0.000467245
0.000479991
0.000493016
0.00050653
0.000520343
0.000534628
0.00054906
0.000563813
0.000578138
0.000592429
0.000158207
0.000154874
0.000152189
0.000149958
0.000148063
0.000146406
0.000144964
0.000143643
0.000142487
0.000141389
0.000140415
0.000139494
0.000138619
0.000137851
0.000137046
0.000136361
0.000135674
0.000134985
0.000134432
0.000133748
0.000133248
0.000132652
0.000132122
0.000131633
0.000131109
0.000130633
0.000130212
0.000129697
0.000129376
0.000128897
0.000128579
0.000128197
0.000127908
0.000127615
0.000127453
0.000127273
0.00012732
0.000127343
0.000127523
0.000127869
0.000128472
0.000129367
0.000130696
0.000132393
0.000134728
0.000137543
0.000141132
0.000145336
0.000150393
0.000156173
0.000162805
0.000170197
0.00017821
0.000186985
0.000196317
0.000206383
0.000216951
0.000228187
0.000239872
0.000252132
0.00026478
0.00027791
0.000291357
0.000305199
0.000317288
0.000326977
0.000336673
0.000346557
0.000356592
0.000366785
0.000377144
0.000387628
0.000398156
0.000408823
0.000419529
0.000430362
0.00044122
0.000452191
0.000463168
0.000474221
0.000485298
0.0004964
0.000507539
0.000518773
0.000530021
0.00054131
0.000552546
0.00056377
0.000574903
0.00058601
0.000597031
0.000608055
0.000619005
0.000629966
0.000640825
0.000651694
0.000662335
0.000672856
0.000682864
0.000692616
0.0001582
0.000154853
0.000152146
0.000149894
0.000147966
0.000146277
0.000144788
0.000143425
0.000142208
0.000141056
0.000140005
0.000139015
0.000138058
0.000137205
0.00013631
0.000135544
0.000134736
0.000133994
0.000133277
0.000132549
0.000131885
0.000131218
0.000130571
0.000129941
0.000129303
0.000128727
0.000128215
0.000127768
0.00012753
0.00012732
0.00012726
0.000127552
0.000128209
0.00012946
0.000131324
0.000134
0.000137513
0.000142036
0.000147548
0.000154182
0.000161716
0.000170216
0.000179569
0.000189787
0.000200807
0.000212555
0.000225028
0.000238077
0.000251771
0.000265892
0.00027941
0.000289751
0.000300457
0.000311292
0.000322235
0.000333352
0.00034453
0.000355843
0.00036718
0.000378612
0.00039005
0.000401556
0.000413056
0.0004246
0.000436111
0.000447744
0.00045938
0.000470993
0.000482522
0.000493939
0.000505227
0.000516375
0.000527376
0.000538227
0.000548975
0.000559566
0.000570043
0.000580366
0.000590577
0.000600629
0.000610598
0.000620379
0.000630094
0.000639752
0.000649373
0.00065891
0.000668265
0.000677502
0.000686586
0.00069555
0.000704323
0.000712994
0.000721462
0.000729807
0.000737943
0.000745892
0.000753682
0.000761095
0.000767905
0.000774293
0.00015818
0.000154798
0.000152024
0.000149709
0.000147678
0.000145884
0.000144253
0.000142735
0.000141344
0.000139986
0.000138748
0.000137532
0.00013637
0.000135267
0.000134138
0.000133132
0.000131996
0.000130923
0.00012976
0.000128729
0.000127695
0.000126982
0.000126196
0.000125613
0.000125488
0.000126051
0.000127488
0.000130019
0.000133762
0.000138903
0.000145439
0.00015338
0.000162459
0.000172785
0.000184124
0.000196519
0.000209806
0.000223955
0.000238876
0.000252113
0.000263733
0.000275577
0.000287596
0.000299796
0.000312074
0.000324413
0.00033676
0.000349112
0.000361441
0.000373751
0.000385976
0.000398233
0.00041042
0.000422466
0.000434317
0.000445968
0.000457373
0.00046857
0.000479522
0.000490279
0.000500817
0.000511179
0.000521349
0.000531349
0.00054116
0.000550919
0.000560592
0.000570086
0.000579429
0.000588592
0.000597608
0.000606432
0.00061512
0.000623605
0.000631913
0.000639996
0.000647893
0.00065559
0.000663103
0.00067046
0.000677646
0.000684643
0.000691518
0.000698227
0.000704845
0.000711329
0.000717705
0.00072396
0.000730106
0.000736161
0.000742095
0.000747911
0.000753591
0.000759161
0.000764651
0.000769896
0.000775093
0.000779891
0.00078428
0.00078834
0.000158113
0.000154623
0.000151611
0.000149106
0.000146665
0.000144526
0.000142365
0.000140369
0.000138365
0.000136475
0.000134765
0.000132823
0.00013101
0.000129049
0.000127397
0.000125803
0.000124084
0.000122544
0.000121917
0.000122156
0.000123948
0.000127096
0.000132225
0.000138942
0.000147626
0.000157902
0.00016984
0.000183111
0.000197724
0.000213314
0.000228934
0.000242196
0.000255553
0.000268978
0.000282358
0.00029572
0.000309004
0.000322248
0.000335343
0.000348354
0.000361187
0.000373827
0.000386138
0.000398077
0.000409591
0.00042074
0.000431501
0.000441954
0.000452059
0.00046189
0.000471349
0.000480609
0.00048959
0.000498319
0.000506801
0.000515051
0.000523055
0.000530841
0.000538389
0.00054573
0.000552851
0.00055978
0.000566513
0.000573071
0.000579456
0.000585678
0.000591773
0.000597723
0.00060356
0.000609253
0.000614853
0.000620301
0.000625694
0.000630431
0.000634844
0.000639141
0.000643333
0.000647426
0.000651428
0.000655341
0.000659178
0.000662928
0.00066662
0.000670225
0.000673785
0.00067726
0.0006807
0.000684051
0.000687373
0.000690607
0.000693817
0.000696939
0.000700044
0.000703061
0.000706065
0.000708971
0.000711863
0.000714638
0.000717336
0.000719896
0.000157849
0.000153943
0.000150098
0.000146714
0.000142566
0.000139333
0.000135252
0.000131831
0.000128205
0.000126006
0.000123581
0.000120689
0.000118655
0.000117784
0.000118584
0.000121034
0.000125561
0.000131895
0.000140403
0.000150793
0.000163413
0.000177687
0.000193333
0.000209787
0.000227093
0.000242473
0.000257123
0.00027149
0.000285536
0.000299174
0.00031229
0.000324998
0.000337193
0.000348898
0.000360094
0.000370858
0.000381149
0.000391037
0.000400403
0.000409337
0.000417819
0.000426068
0.000433041
0.0004392
0.000445008
0.000450519
0.000455761
0.000460766
0.000465559
0.000470157
0.000474582
0.000478843
0.000482955
0.000486931
0.000490773
0.000494503
0.000498108
0.000501617
0.000505012
0.00050832
0.000511528
0.000514658
0.0005177
0.000520674
0.000523572
0.000526409
0.00052918
0.000531895
0.00053455
0.000537148
0.000539693
0.000542181
0.000544621
0.000547011
0.000549339
0.000551608
0.00055382
0.000555976
0.000558083
0.000560142
0.000562163
0.000564135
0.00056608
0.000567976
0.000569857
0.000571689
0.000573514
0.000575288
0.00057706
0.000578779
0.000580499
0.000582164
0.000583838
0.000585449
0.000587078
0.000588624
0.000590196
0.000591649
0.00059304
0.000594295
0.000156641
0.000151208
0.00014335
0.00013463
0.000126075
0.000120993
0.000115007
0.000112504
0.000112458
0.000114186
0.000117965
0.000123459
0.000130607
0.000139123
0.000149055
0.00016016
0.000172602
0.000186208
0.000201282
0.000217286
0.000233491
0.000246947
0.000259666
0.000271867
0.000283092
0.000294115
0.000302631
0.000310054
0.00031674
0.000322879
0.000328612
0.000333954
0.000338909
0.00034351
0.000347778
0.000351759
0.000355474
0.000358969
0.000362254
0.00036537
0.000368317
0.000371132
0.000373814
0.000376353
0.000378747
0.000381013
0.000383159
0.0003852
0.000387147
0.000389011
0.000390803
0.000392531
0.000394203
0.000395821
0.000397386
0.000398909
0.000400382
0.00040182
0.000403211
0.000404571
0.00040589
0.000407181
0.000408437
0.000409668
0.000410868
0.000412048
0.000413204
0.000414343
0.000415461
0.00041656
0.000417643
0.000418706
0.000419752
0.00042078
0.000421789
0.000422776
0.000423741
0.000424683
0.000425607
0.000426509
0.000427398
0.000428266
0.000429125
0.000429964
0.000430801
0.000431615
0.000432433
0.00043323
0.000434033
0.000434811
0.000435599
0.000436361
0.000437138
0.00043788
0.000438645
0.000439354
0.000440096
0.000440744
0.000441343
0.000441816
0.000151621
0.000136817
0.000113477
9.95209e-05
9.76006e-05
9.81316e-05
0.000110572
0.000115046
0.000121818
0.000129686
0.000137977
0.000146235
0.000154212
0.00016168
0.000168584
0.000174823
0.000180491
0.000185569
0.000190196
0.000194425
0.000198336
0.000202069
0.000205554
0.00020885
0.000211871
0.000214679
0.000217312
0.000219723
0.000221894
0.000223822
0.000225516
0.000227018
0.000228355
0.000229554
0.00023063
0.000231604
0.000232488
0.000233297
0.000234044
0.000234739
0.000235393
0.000236005
0.000236596
0.000237175
0.00023773
0.000238264
0.000238769
0.00023925
0.000239705
0.000240141
0.000240557
0.000240959
0.00024135
0.000241731
0.000242104
0.000242472
0.000242833
0.000243191
0.000243542
0.000243891
0.000244234
0.000244573
0.000244909
0.00024524
0.000245565
0.000245888
0.000246207
0.000246524
0.000246839
0.000247153
0.000247465
0.000247776
0.000248087
0.000248397
0.000248706
0.000249014
0.00024932
0.000249621
0.00024992
0.000250212
0.000250501
0.000250785
0.000251067
0.000251343
0.000251621
0.000251892
0.000252165
0.000252433
0.000252706
0.000252972
0.000253244
0.000253511
0.000253782
0.00025405
0.000254319
0.000254583
0.000254848
0.000255066
0.000255286
0.000255445
2.45432e-05
3.47523e-05
4.04101e-05
4.23028e-05
4.20136e-05
4.05608e-05
3.87136e-05
3.7056e-05
3.56101e-05
3.44451e-05
3.35763e-05
3.29762e-05
3.25987e-05
3.2385e-05
3.22871e-05
3.22583e-05
3.22698e-05
3.2298e-05
3.2331e-05
3.23649e-05
3.23934e-05
3.24264e-05
3.24614e-05
3.24994e-05
3.2539e-05
3.25762e-05
3.26142e-05
3.26515e-05
3.26862e-05
3.27167e-05
3.27414e-05
3.27608e-05
3.27749e-05
3.27852e-05
3.27918e-05
3.27959e-05
3.27977e-05
3.2798e-05
3.27971e-05
3.27957e-05
3.27941e-05
3.27925e-05
3.27911e-05
3.27904e-05
3.27903e-05
3.27907e-05
3.27914e-05
3.27924e-05
3.27936e-05
3.2795e-05
3.27967e-05
3.27986e-05
3.28009e-05
3.28039e-05
3.28074e-05
3.28116e-05
3.28164e-05
3.28219e-05
3.2828e-05
3.28348e-05
3.28422e-05
3.28501e-05
3.28587e-05
3.28677e-05
3.28773e-05
3.28873e-05
3.28977e-05
3.29087e-05
3.29201e-05
3.29321e-05
3.29446e-05
3.29577e-05
3.29712e-05
3.29852e-05
3.29996e-05
3.30144e-05
3.30297e-05
3.30451e-05
3.30609e-05
3.30768e-05
3.30929e-05
3.31091e-05
3.31255e-05
3.3142e-05
3.31588e-05
3.31756e-05
3.31928e-05
3.32101e-05
3.32278e-05
3.32455e-05
3.32637e-05
3.32818e-05
3.33007e-05
3.33191e-05
3.33391e-05
3.33578e-05
3.33785e-05
3.33986e-05
3.34187e-05
3.34393e-05
1.95337e-05
0.000682469
0.00119346
0.00158359
0.00194054
0.0022209
0.00242702
0.00246848
0.00246045
0.00244555
0.00242921
0.00242005
0.00242326
0.00243674
0.00245642
0.00248167
0.00251189
0.0025476
0.00259051
0.00263927
0.00269457
0.00275514
0.00281903
0.00288731
0.00296119
0.00303756
0.00311351
0.00319105
0.00326421
0.00333855
0.00335687
0.00336113
0.00336273
0.00336169
0.00335816
0.00335222
0.00334403
0.00333371
0.00332131
0.00330691
0.0032905
0.00327214
0.00325181
0.00322953
0.00320529
0.00317923
0.00315128
0.00312156
0.00308997
0.00305661
0.00302119
0.00298387
0.00294444
0.00290329
0.00285995
0.00281494
0.00276791
0.00272002
0.00267058
0.00262119
0.00257095
0.00252248
0.00247378
0.002428
0.00238248
0.00234179
0.00230198
0.00226722
0.00223247
0.0022031
0.00217424
0.00215067
0.00212487
0.0021029
0.00207713
0.00205737
0.00203206
0.00201076
0.00198034
0.00195466
0.00192478
0.00190392
0.00187884
0.00185523
0.00182535
0.00178798
0.00176659
0.00173167
0.00174258
0.00172998
0.00177204
0.00178524
0.00184116
0.00186155
0.00190773
0.00190977
0.00193133
0.0019065
0.00191049
0.00186484
0.000170884
0.000440102
0.000877543
0.00126711
0.00161511
0.00189616
0.0021102
0.00225973
0.00236365
0.00236038
0.00234118
0.00233169
0.00232925
0.0023329
0.00234262
0.00235898
0.00238193
0.00241131
0.0024484
0.0024904
0.00253626
0.00258616
0.00263997
0.00269795
0.00276219
0.0028312
0.00290337
0.0029793
0.0030631
0.00315012
0.00323758
0.00325273
0.00326027
0.00326464
0.00326612
0.00326488
0.00326114
0.00325502
0.00324662
0.00323598
0.00322315
0.00320816
0.00319101
0.00317168
0.00315019
0.00312664
0.00310099
0.00307332
0.00304358
0.00301183
0.00297785
0.00294172
0.00290333
0.00286303
0.00282047
0.00277608
0.00272967
0.00268232
0.00263359
0.0025849
0.00253567
0.00248829
0.00244119
0.00239712
0.0023539
0.00231571
0.00227915
0.00224782
0.00221704
0.00219172
0.00216723
0.00214821
0.00212673
0.00210904
0.00208662
0.00207044
0.0020478
0.0020298
0.00200157
0.00197845
0.0019504
0.0019321
0.00191029
0.00189043
0.00186454
0.00182929
0.00180862
0.00177122
0.00177926
0.00176124
0.00179932
0.00180689
0.0018588
0.00187501
0.00191707
0.00191654
0.00193408
0.00190867
0.00191017
0.00186607
0.000472517
0.000384912
0.000567019
0.000876934
0.00120364
0.00148375
0.001706
0.00187015
0.00199066
0.00207701
0.00214201
0.00219862
0.00221571
0.00222059
0.00223171
0.00225047
0.00227657
0.00230837
0.00234332
0.00238016
0.00241922
0.00246106
0.002507
0.00255608
0.00261021
0.00266916
0.00273376
0.00280243
0.00288292
0.00296465
0.00306968
0.00311487
0.00312992
0.00314104
0.00314875
0.00315331
0.00315504
0.00315406
0.00315048
0.0031444
0.00313586
0.00312489
0.00311153
0.00309572
0.00307751
0.00305694
0.00303404
0.00300882
0.0029813
0.00295149
0.00291925
0.00288458
0.0028475
0.00280825
0.00276667
0.00272307
0.00267747
0.00263084
0.00258304
0.00253527
0.00248735
0.00244138
0.00239629
0.00235437
0.00231405
0.00227895
0.00224636
0.00221916
0.00219315
0.00217263
0.00215329
0.00213948
0.00212303
0.00211015
0.00209166
0.00207935
0.00205981
0.0020453
0.00201976
0.00199939
0.00197366
0.00195794
0.00193985
0.00192391
0.00190289
0.00187057
0.00185172
0.00181254
0.00181798
0.00179418
0.00182761
0.00182846
0.00187518
0.00188603
0.00192258
0.00191847
0.00193078
0.00190426
0.00190261
0.00186016
0.00059287
0.000584681
0.000544529
0.000614035
0.000798792
0.00102196
0.00122978
0.00139961
0.00153376
0.00163853
0.00172161
0.0017948
0.00186016
0.00192221
0.00198435
0.00204851
0.00211449
0.00217421
0.00221382
0.00225357
0.00229509
0.00233882
0.00238611
0.00243506
0.00248724
0.00254258
0.00260319
0.00266678
0.00273929
0.00281035
0.00290106
0.00293835
0.00296298
0.00298281
0.00299854
0.00301055
0.00301927
0.00302481
0.00302732
0.00302692
0.00302371
0.00301771
0.00300898
0.00299747
0.00298323
0.00296628
0.00294669
0.00292444
0.00289961
0.00287216
0.00284203
0.00280914
0.00277364
0.0027357
0.00269535
0.00265274
0.00260819
0.00256251
0.00251593
0.0024694
0.00242323
0.00237913
0.00233668
0.00229756
0.00226095
0.00222977
0.00220211
0.00217994
0.00215968
0.00214481
0.00213151
0.0021236
0.00211292
0.00210533
0.00209136
0.00208312
0.00206715
0.00205616
0.00203388
0.00201636
0.0019936
0.0019804
0.00196651
0.00195444
0.0019391
0.0019104
0.00189459
0.0018545
0.0018579
0.00182812
0.00185637
0.00184933
0.00188961
0.00189359
0.00192303
0.00191403
0.00191971
0.00189145
0.00188588
0.00184529
0.000700086
0.000706237
0.000689843
0.000664576
0.000666038
0.000723368
0.000820988
0.000935155
0.0010467
0.0011486
0.00123757
0.0013196
0.00139664
0.00147136
0.00154582
0.00162199
0.00169976
0.00177978
0.00185948
0.00193891
0.00201786
0.00209555
0.00217145
0.00224478
0.00231569
0.00238318
0.00244796
0.00250869
0.00256637
0.00261851
0.00266915
0.00271245
0.00274914
0.00278015
0.00280625
0.00282792
0.00284572
0.00285967
0.00287002
0.00287689
0.00288043
0.00288071
0.00287779
0.00287163
0.00286232
0.00284984
0.00283434
0.00281573
0.00279419
0.00276962
0.00274209
0.0027114
0.00267787
0.00264155
0.00260274
0.00256143
0.00251827
0.00247389
0.00242901
0.00238425
0.0023405
0.00229903
0.00226014
0.0022248
0.00219306
0.00216694
0.00214544
0.00212942
0.00211607
0.00210779
0.00210147
0.00210009
0.00209585
0.00209387
0.00208497
0.00208085
0.00206886
0.00206125
0.00204282
0.00202816
0.0020091
0.00199832
0.00198909
0.00198062
0.00197158
0.0019469
0.00193534
0.00189519
0.00189735
0.00186151