/*--------------------------------*- C++ -*----------------------------------*\
| =========                 |                                                 |
| \\      /  F ield         | OpenFOAM: The Open Source CFD Toolbox           |
|  \\    /   O peration     | Version:  v2012                                 |
|   \\  /    A nd           | Website:  www.openfoam.com                      |
|    \\/     M anipulation  |                                                 |
\*---------------------------------------------------------------------------*/
FoamFile
{
    version     2.0;
    format      ascii;
    class       scalarField;
    location    "0.086/lagrangian/kinematicCloud";
    object      age;
}
// * * * * * * * * * * * * * * * * * * * * * * * * * * * * * * * * * * * * * //


54
(
0.0852
0.0842
0.0831
0.082
0.081
0.08
0.079
0.078
0.0769
0.0758
0.075725
0.0747
0.0736
0.0725
0.0714
0.0703
0.0692
0.0681
0.067
0.066925
0.0659
0.0648
0.0637
0.0626
0.062525
0.0615
0.0604
0.060325
0.0593
0.059225
0.0582
0.0571
0.056
0.0549
0.054825
0.0539
0.0529
0.0519
0.0509
0.0499
0.0489
0.0479
0.0469
0.0459
0.0449
0.0439
0.0429
0.0419
0.0409
0.0399
0.0389
0.0379
0.0369
0.0359
)


// ************************************************************************* //
