/*--------------------------------*- C++ -*----------------------------------*\
| =========                 |                                                 |
| \\      /  F ield         | OpenFOAM: The Open Source CFD Toolbox           |
|  \\    /   O peration     | Version:  v2012                                 |
|   \\  /    A nd           | Website:  www.openfoam.com                      |
|    \\/     M anipulation  |                                                 |
\*---------------------------------------------------------------------------*/
FoamFile
{
    version     2.0;
    format      ascii;
    class       vectorField;
    location    "0.086/lagrangian/kinematicCloud";
    object      UCorrect;
}
// * * * * * * * * * * * * * * * * * * * * * * * * * * * * * * * * * * * * * //


54
(
(0 0 0)
(0 0 0)
(0 0 0)
(-7.99933e-27 4.0985e-29 0)
(0 0 0)
(0 0 0)
(0 0 0)
(0 0 0)
(-3.80342e-30 -2.43569e-32 0)
(0 0 0)
(0 0 0)
(0 0 0)
(3.0267e-10 -4.23497e-13 0)
(0 0 0)
(-3.05346e-10 4.11298e-13 0)
(0 0 0)
(-4.45658e-27 2.56874e-29 0)
(0 0 0)
(-5.36159e-30 2.19472e-32 0)
(0 0 0)
(0 0 0)
(-4.7683e-27 -2.47979e-29 0)
(0 0 0)
(0 0 0)
(0 0 0)
(0 0 0)
(0 0 0)
(0 0 0)
(-1.01579e-26 4.68988e-29 0)
(0 0 0)
(5.51754e-27 1.88624e-30 0)
(0 0 0)
(-4.05797e-27 -1.43995e-29 0)
(0 0 0)
(0 0 0)
(0 0 0)
(0 0 0)
(0 0 0)
(-8.62338e-30 6.77358e-33 0)
(0 0 0)
(-1.00133e-26 -6.74629e-30 0)
(0 0 0)
(-1.04971e-26 -3.10754e-30 0)
(-9.58218e-27 3.71848e-30 0)
(-9.75328e-27 -8.03546e-30 0)
(-9.00448e-27 7.27128e-30 0)
(0 0 0)
(0 0 0)
(-9.40007e-27 -5.52241e-30 0)
(0 0 0)
(0 0 0)
(0 0 0)
(0 0 0)
(0 0 0)
)


// ************************************************************************* //
