/*--------------------------------*- C++ -*----------------------------------*\
| =========                 |                                                 |
| \\      /  F ield         | OpenFOAM: The Open Source CFD Toolbox           |
|  \\    /   O peration     | Version:  v2012                                 |
|   \\  /    A nd           | Website:  www.openfoam.com                      |
|    \\/     M anipulation  |                                                 |
\*---------------------------------------------------------------------------*/
FoamFile
{
    version     2.0;
    format      ascii;
    class       volScalarField;
    location    "0.182";
    object      epsilon.air;
}
// * * * * * * * * * * * * * * * * * * * * * * * * * * * * * * * * * * * * * //

dimensions      [0 2 -3 0 0 0 0];


internalField   nonuniform List<scalar> 
1900
(
112.724
141.424
210.097
257.591
369.051
443.457
614.739
724.909
971.319
1128.62
15.4676
16.4471
18.6376
20.45
23.7574
27.727
32.004
39.2875
45.1225
56.7616
14.7926
14.6414
14.5755
14.5063
14.5148
14.5574
14.6409
14.8309
15.0774
15.4133
14.77
14.6304
14.4634
14.3354
14.1726
14.059
13.904
13.8079
13.6653
13.5937
14.7766
14.6215
14.4705
14.3204
14.1749
14.0288
13.8891
13.7471
13.614
13.4768
14.7777
14.6205
14.4714
14.3196
14.1755
14.0283
13.8892
13.7471
13.6134
13.4773
14.7777
14.6207
14.4731
14.3234
14.1841
14.0449
13.9176
13.7912
13.6809
13.5714
14.776
14.6498
14.564
14.5033
14.5107
14.5515
14.637
14.8181
15.0477
15.3924
15.2116
16.6001
18.2804
20.672
23.6032
27.5586
32.2802
38.3847
45.5838
54.7891
105.887
146.616
198.353
265.777
350.043
456.028
585.702
743.602
931.828
1153.92
4099.35
15201.9
19580.4
22434.8
21095.8
17994.3
15064.6
12773.8
11288
10378.1
9883.13
9712.27
9537.46
9265.77
8855.86
8355.08
7798.64
7210.59
6643.98
6126.09
5649.35
5222.51
4838.02
4487.14
4167.86
3878.36
3615.69
3378.1
3162.32
2966.4
2788.03
2625.22
2476.31
2339.75
2214.37
2098.99
1992.69
1894.49
1803.64
1719.37
1641.08
1568.18
1500.18
1436.66
1377.21
1321.5
1269.22
1220.09
1173.87
1130.31
1089.21
1050.37
1013.63
978.798
945.744
914.31
884.392
855.85
828.613
802.553
777.63
753.721
730.819
708.796
687.677
667.32
647.787
628.909
610.799
593.247
576.427
560.076
544.444
529.196
514.676
500.451
486.98
473.702
461.22
448.81
437.254
425.625
414.929
403.989
394.094
383.752
374.614
364.782
356.377
346.974
339.302
330.243
323.326
314.522
308.4
299.744
294.466
285.833
281.437
271.089
113.114
337.787
518.013
922.313
1124.32
1147.57
1119.58
1054.9
1050.01
1089.76
1195.55
1410.58
1699.36
2031.78
2381.6
2694.24
2973.33
3205.29
3359.42
3435.98
3428.23
3389.24
3302.51
3184.34
3055.91
2924.46
2793.32
2666.66
2543.27
2425.94
2313.93
2207.03
2105.74
2009.88
1919.56
1834.48
1754.59
1679.36
1608.6
1541.98
1479.23
1420.04
1364.2
1311.45
1261.59
1214.38
1169.68
1127.28
1087.05
1048.81
1012.46
977.841
944.853
913.372
883.301
854.524
826.974
800.541
775.18
750.791
727.355
704.777
683.064
662.115
641.967
622.498
603.783
585.67
568.274
551.403
535.226
519.496
504.453
489.781
475.806
462.123
449.161
436.399
424.398
412.487
401.391
390.253
380.003
369.551
360.093
350.237
341.526
332.181
324.189
315.273
307.997
299.427
292.882
284.569
278.786
270.629
265.651
257.529
253.396
243.676
16.4275
19.8676
22.8862
29.0939
34.7881
38.7017
41.6595
43.6995
46.6336
50.66
58.6884
70.965
95.6959
130.533
189.975
267.79
374.535
510.279
667.309
838.299
1007.29
1165.48
1304.44
1420.35
1510.15
1572.72
1609.9
1627.03
1624.41
1613.79
1591.25
1561.28
1527.17
1490.18
1451.73
1412.05
1372.21
1331.84
1291.99
1252.8
1214.32
1176.74
1140.19
1104.75
1070.41
1037.13
1004.96
973.829
943.722
914.616
886.484
859.28
832.99
807.563
782.982
759.185
736.171
713.872
692.295
671.374
651.127
631.493
612.507
594.095
576.317
559.077
542.466
526.349
510.853
495.796
481.354
467.288
453.84
440.7
428.193
415.923
404.313
392.857
382.099
371.397
361.449
351.437
342.251
332.853
324.383
315.521
307.725
299.318
292.172
284.147
277.644
269.925
264.074
256.583
251.409
244.057
239.595
232.28
228.565
219.815
13.4531
13.4606
13.5464
13.8031
14.336
15.0075
15.7225
16.341
16.9274
17.3388
17.8926
18.3562
19.3066
20.4912
22.7475
26.2715
31.741
40.9104
54.8474
76.3594
106.778
147.659
199.535
261.25
330.725
405.354
480.331
553.626
620.614
682.099
735.274
779.364
814.265
840.275
858.726
870.089
875.742
875.217
872.545
866.562
857.734
846.96
834.826
821.446
807.168
792.096
776.509
760.321
743.867
727.218
710.412
693.531
676.67
659.886
643.251
626.759
610.515
594.484
578.755
563.282
548.145
533.308
518.836
504.682
490.94
477.532
464.562
451.913
439.719
427.809
416.371
405.165
394.453
383.912
373.892
363.983
354.627
345.303
336.581
327.812
319.707
311.45
303.935
296.138
289.181
281.783
275.355
268.294
262.385
255.608
250.208
243.65
238.768
232.37
228.025
221.724
217.947
211.669
208.487
200.969
13.3299
13.1589
13.0625
13.1169
13.306
13.7176
14.2909
14.9122
15.4535
15.8753
16.209
16.4272
16.6126
16.7555
16.9019
17.0906
17.3317
17.7436
18.325
19.3243
20.8451
23.2794
26.8206
32.1994
39.8179
50.6442
65.01
83.498
106.147
132.992
163.534
196.726
231.88
267.339
302.589
335.753
367.037
395.175
420.166
441.514
459.372
473.678
484.946
493.321
499.193
502.826
504.577
504.287
503.106
500.531
496.697
491.899
486.375
480.161
473.466
466.332
458.923
451.212
443.393
435.388
427.375
419.28
411.21
403.154
395.228
387.353
379.627
371.949
364.453
356.994
349.761
342.532
335.582
328.575
321.916
315.148
308.788
302.27
296.227
289.953
284.228
278.188
272.784
266.959
261.875
256.238
251.471
245.99
241.533
236.166
232.031
226.757
222.964
217.755
214.329
209.155
206.123
200.951
198.337
192.117
13.3251
13.1543
13.0316
13.0865
13.2963
13.7741
14.5016
15.4902
16.5049
17.6028
18.5871
19.5104
20.2501
20.8631
21.2907
21.6
21.7805
21.8593
21.8454
21.8
21.701
21.6042
21.532
21.5577
21.6653
21.9251
22.4636
23.366
24.841
26.9798
30.2123
34.558
40.5637
48.0949
57.5298
68.7382
81.8707
96.5529
112.691
129.765
147.445
165.21
182.662
199.482
215.343
230.045
243.484
255.536
266.274
275.731
283.97
291.041
297.108
302.216
306.501
310.022
312.907
315.113
316.835
317.938
318.693
318.826
318.659
318.207
317.289
315.997
314.414
312.516
310.41
308.033
305.504
302.718
299.856
296.683
293.614
290.143
286.895
283.204
279.85
276.01
272.613
268.671
265.284
261.275
257.946
253.892
250.654
246.566
243.453
239.337
236.371
232.225
229.431
225.256
222.658
218.458
216.083
211.866
209.745
204.653
13.4659
13.36
13.4095
13.6559
14.3041
15.689
18.0327
21.4435
25.4032
29.7139
33.5789
37.0487
39.5873
41.535
42.5907
43.3306
43.3928
43.2668
42.9308
42.3994
41.7812
41.15
40.4917
39.8698
39.331
38.8686
38.5247
38.249
38.1445
38.1959
38.3668
38.7118
39.3595
40.2416
41.5115
43.2181
45.4475
48.3936
52.0678
56.7552
62.424
69.3712
77.4787
86.9647
97.6109
109.513
122.33
136.043
150.255
164.884
179.564
194.169
208.422
222.206
235.365
247.813
259.506
270.366
280.399
289.559
297.859
305.332
311.946
317.806
322.898
327.255
330.909
333.891
336.189
337.949
339.073
339.787
339.768
339.51
338.909
337.631
336.38
334.37
332.641
330.102
327.997
325.054
322.702
319.461
316.973
313.516
310.975
307.359
304.827
301.095
298.617
294.799
292.408
288.531
286.257
282.353
280.226
276.334
274.404
269.776
15.9129
16.8551
18.5479
21.9293
28.4039
39.5091
55.465
75.0392
95.4514
114.274
129.1
140.05
146.507
150.026
150.729
150.354
149.403
147.774
146.224
145.133
144.503
144.65
145.257
146.567
149.014
152.132
156.396
161.137
167.212
173.883
181.86
190.63
200.533
211.444
223.322
236.419
250.378
265.594
281.43
298.258
315.451
333.316
351.295
369.585
387.554
405.452
422.645
439.541
455.661
471.347
486.307
500.633
514.245
527.018
539.099
550.255
560.639
570.046
578.567
586.002
592.477
597.917
602.436
605.989
608.765
610.579
611.792
611.964
611.651
610.847
609.245
607.099
604.453
601.192
597.788
593.535
589.525
584.589
580.177
574.767
570.093
564.39
559.64
553.792
549.111
543.223
538.713
532.85
528.574
522.779
518.78
513.086
509.39
503.826
500.457
495.051
492.049
486.825
484.292
478.385
68.047
90.4147
126.209
184.869
271.972
385.201
511.664
635.899
744.683
831.821
892.159
932.143
953.072
963.32
964.69
963.587
961.385
957.847
956.472
957.438
960.598
966.196
974.459
986.012
1000.4
1016.7
1035.19
1055.34
1077.9
1101.57
1126.75
1152.51
1179.05
1205.84
1232.78
1259.63
1285.93
1311.59
1335.89
1359.16
1380.93
1401.43
1420.27
1437.76
1453.44
1467.75
1480.3
1491.69
1501.59
1510.36
1517.88
1524.03
1529.08
1532.5
1535.05
1535.83
1535.5
1534.26
1531.69
1527.39
1522.36
1515.84
1508.78
1500.41
1491.69
1481.96
1471.76
1461.02
1449.92
1438.24
1426.5
1414.04
1401.81
1388.69
1376.16
1362.64
1349.95
1336.28
1323.71
1310.14
1297.93
1284.62
1272.95
1260.03
1249.04
1236.59
1226.36
1214.41
1205
1193.57
1185.03
1174.13
1166.48
1156.1
1149.37
1139.5
1133.76
1124.38
1119.79
1109.55
1464.62
1897.1
2398.89
2961.83
3563.15
4171.86
4746.25
5251.03
5654.92
5950.7
6131.98
6219.44
6207.04
6160.41
6061.8
5928.62
5778.13
5619.46
5459.06
5301.3
5148.95
5004.1
4867.6
4739.93
4621.09
4511.14
4409.79
4316.58
4231.38
4153.56
4083.2
4019.51
3962.41
3911.15
3865.68
3825.44
3790.09
3759.1
3731.94
3708.37
3688.04
3670.75
3656.06
3643.75
3633.44
3625.09
3618.21
3612.85
3608.55
3605.31
3602.93
3601.1
3599.89
3598.98
3598.5
3598.51
3598.75
3599.27
3600.37
3601.32
3602.89
3604.24
3605.96
3607.38
3608.8
3609.78
3610.44
3610.4
3610.07
3609.12
3607.87
3605.43
3603.1
3599.26
3595.73
3590.42
3585.58
3578.74
3572.53
3564.13
3556.57
3546.66
3537.94
3526.71
3517.14
3504.89
3494.83
3481.81
3471.58
3457.93
3447.74
3433.47
3423.49
3408.45
3398.83
3382.82
3373.75
3356.66
3347.92
3325.91
1108.72
1064.26
1122.18
1210.23
1239.06
1121.56
818.792
1980.35
54608.6
16111.1
7348.86
6105.27
6235.66
6487.35
6558.15
8030.85
74259.6
43599.1
24817.4
18460.4
16103.1
15006.4
14634.8
19676.1
76424.5
71031.4
54256
41203.4
32695.6
27166.7
24554.8
34076.5
69729
75716.1
67761.7
55662.1
44574.8
35846.9
30866.5
42710
57734.2
71179.4
67953.7
59049.5
48381.2
38734.8
32782.6
45226.8
47465.3
61826.7
62488.8
56611.2
47161.9
38170.9
32444.8
44233.1
39064.9
51805.9
53570.6
49820.6
42377.3
34659.7
29575.9
39736.2
32614.1
42977.4
44904.9
42115.1
36284.4
30027.6
25808
34018.9
27603.8
35617.7
37247
35102.5
30530.9
25547.6
22216.3
29363
23492.2
29584.8
30819.5
29116.6
25526.6
21630.3
19156.5
26009.8
20114.5
24699
25575.4
24184.9
21342
18301.2
16498.4
22979.4
17377.2
20787.7
21373.8
20215.1
17945
15562.3
14272
20366.7
15143.8
17663.8
18029.5
17049.6
15221.4
13341
12437.2
18167
13293
15154
15361.2
14525.7
13039.8
11545.5
10935.2
16340.5
11731.3
13112.3
13211.2
12495.6
11278.5
10084.8
9699.43
14818.6
10407.1
11440
11465.8
10850.1
9845.78
8887.76
8676.47
13544.5
9267.81
10052
10033.5
9501.25
8667.97
7897.5
7822.61
12470.3
8285.5
8889.51
8846.1
8384.29
7689.81
7070.26
7102.3
11555.9
7442.57
7911.35
7853.15
7451.68
6870.21
6372.88
6487.98
10770.6
6715.88
7082.92
7016.5
6666.69
6177.7
5779.77
5961.2
10090.1
6089.6
6377.98
6307.31
6001.47
5588.5
5271.81
5506.61
9496.78
5547.43
5774.63
5702.43
5434.2
5084.17
4834.32
5112.27
8977.53
5073.9
5254.07
5182.56
4946.85
4649.54
4455.26
4768.48
8521.41
4657.94
4801.83
4732.51
4525.1
4272.35
4124.72
4467.06
8118.64
4290.88
4406.62
4340.47
4157.8
3943.02
3834.87
4201.44
7761.5
3965.44
4059.21
3996.88
3835.99
3653.78
3579.28
3966.15
7443.4
3676.16
3752.51
3694.27
3552.57
3398.45
3352.76
3756.68
7158.58
3417.87
3480.4
3426.41
3301.7
3171.92
3151.03
3569.34
6902.31
3186.57
3238.07
3188.3
3078.63
2970.07
2970.69
3401.1
6670.73
2978.71
3021.39
2975.78
2879.54
2789.59
2808.52
3249.68
6460.76
2791.28
2826.92
2785.37
2701.12
2627.53
2662.41
3112.85
6269.92
2621.74
2651.78
2614.13
2540.66
2481.5
2530.4
2988.83
6096.11
2467.86
2493.46
2459.58
2395.83
2349.48
2410.78
2876.13
5937.5
2327.82
2349.91
2319.62
2264.65
2229.73
2302.07
2773.47
5792.59
2199.99
2219.32
2192.46
2145.43
2120.77
2202.97
2679.74
5660.02
2083.04
2100.18
2076.57
2036.74
2021.31
2112.38
2593.95
5538.56
1975.72
1991.16
1970.61
1937.35
1930.24
2029.32
2515.22
5427.07
1877.02
1891.12
1873.46
1846.18
1846.63
1952.95
2442.77
5324.53
1785.97
1799.07
1784.15
1762.35
1769.55
1882.59
2375.96
5229.98
1701.82
1714.15
1701.81
1685.04
1698.37
1817.56
2314.18
5142.52
1623.84
1635.63
1625.74
1613.58
1632.51
1757.31
2256.92
5061.39
1551.43
1562.88
1555.29
1547.38
1571.44
1701.37
2203.73
4985.94
1484.08
1495.32
1489.92
1485.94
1514.71
1649.35
2154.24
4915.57
1421.32
1432.49
1429.16
1428.82
1461.92
1600.88
2108.11
4849.8
1362.74
1373.95
1372.6
1375.6
1412.75
1555.68
2065.09
4788.26
1307.99
1319.34
1319.86
1325.95
1366.87
1513.47
2024.91
4730.63
1256.73
1268.29
1270.61
1279.61
1324.02
1474.02
1987.39
4676.69
1208.68
1220.51
1224.55
1236.27
1283.93
1437.09
1952.32
4626.24
1163.57
1175.73
1181.41
1195.68
1246.38
1402.51
1919.54
4579.1
1121.15
1133.7
1140.94
1157.62
1211.15
1370.09
1888.89
4535.15
1081.2
1094.17
1102.93
1121.87
1178.08
1339.66
1860.22
4494.2
1043.52
1056.95
1067.16
1088.24
1146.97
1311.06
1833.4
4456.15
1007.91
1021.84
1033.44
1056.56
1117.66
1284.16
1808.3
4420.77
974.23
988.67
1001.61
1026.66
1090.02
1258.82
1784.78
4387.91
942.294
957.272
971.516
998.402
1063.91
1234.92
1762.71
4357.3
911.985
927.52
943.022
971.655
1039.21
1212.33
1741.98
4328.78
883.157
899.266
915.986
946.291
1015.79
1190.96
1722.48
4302.08
855.722
872.418
890.318
922.219
993.575
1170.71
1704.09
4277.04
829.545
846.84
865.885
899.316
972.449
1151.49
1686.72
4253.41
804.574
822.475
842.628
877.522
952.346
1133.2
1670.27
4231.08
780.677
799.189
820.419
856.717
933.164
1115.79
1654.68
4209.84
757.835
776.958
799.228
836.869
914.86
1099.17
1639.84
4189.66
735.912
755.643
778.921
817.853
897.329
1083.27
1625.71
4170.34
714.924
735.256
759.506
799.67
880.559
1068.06
1612.22
4151.92
694.719
715.641
740.832
782.182
864.431
1053.46
1599.32
4134.18
675.354
696.856
722.953
765.439
848.981
1039.46
1586.99
4117.33
656.652
678.717
705.688
749.267
834.054
1025.95
1575.14
4100.97
638.725
661.341
689.157
733.784
819.763
1013.02
1563.82
4085.56
621.353
644.499
673.125
718.758
805.885
1000.47
1552.88
4070.43
604.717
628.383
657.795
704.401
792.635
988.501
1542.5
4056.38
588.539
612.697
642.859
690.393
779.689
976.802
1532.36
4042.31
573.085
597.731
628.627
677.069
767.403
965.738
1522.86
4029.6
557.995
583.095
614.682
663.979
755.297
954.809
1513.45
4016.45
543.642
569.198
601.471
651.619
743.92
944.613
1504.83
4005.06
529.553
555.523
588.427
639.361
732.574
934.378
1496.07
3992.71
516.234
542.625
576.171
627.906
722.059
925.02
1488.31
3982.63
503.066
529.825
563.941
616.393
711.387
915.399
1480.13
3970.98
490.714
517.86
552.572
605.781
701.681
906.843
1473.22
3962.17
478.381
505.846
541.067
594.921
691.595
897.746
1465.52
3951.13
466.93
494.742
530.513
585.083
682.633
889.935
1459.41
3943.47
455.341
483.421
519.636
574.782
673.036
881.266
1452.09
3932.89
444.72
473.108
509.827
565.645
664.748
874.132
1446.72
3926.25
433.781
462.386
499.485
555.808
655.543
865.787
1439.65
3915.89
423.932
452.802
490.358
547.308
647.862
859.26
1434.94
3910.07
413.552
442.59
480.464
537.85
638.959
851.139
1428
3899.71
404.43
433.692
471.974
529.938
631.832
845.156
1423.86
3894.42
394.525
423.908
462.45
520.782
623.155
837.172
1416.95
3883.95
386.109
415.676
454.575
513.433
616.545
831.681
1413.27
3878.76
376.601
406.247
445.354
504.519
608.038
823.778
1406.33
3868.18
368.894
398.686
438.098
497.728
601.926
818.73
1402.97
3862.99
359.704
389.541
429.118
489.008
593.561
810.905
1396.09
3852.23
352.734
382.68
422.508
482.796
587.949
806.265
1392.91
3847.02
343.776
373.739
413.703
474.223
579.706
798.541
1386.19
3836.18
337.586
367.624
407.786
468.631
574.621
794.303
1383.18
3831.01
328.758
358.798
399.082
460.154
566.488
786.732
1376.71
3820.47
323.403
353.484
393.909
455.226
561.955
782.876
1373.83
3815.18
314.589
344.668
385.223
446.793
553.927
775.532
1367.71
3805.44
310.103
340.184
380.817
442.539
549.929
771.987
1364.92
3800.67
299.51
329.561
370.321
432.321
540.188
763.098
1357.4
3790.04
)
;

boundaryField
{
    frontAndBack
    {
        type            empty;
    }
    inlet
    {
        type            fixedValue;
        value           uniform 14.855;
    }
    outlet
    {
        type            zeroGradient;
    }
    walls
    {
        lowReCorrection 0;
        blending        stepwise;
        n               2;
        type            epsilonWallFunction;
        value           nonuniform List<scalar> 
228
(
112.724
141.424
210.097
257.591
369.051
443.457
614.739
724.909
971.319
1128.62
1108.72
1064.26
1122.18
1210.23
1239.06
1121.56
818.792
1980.35
1980.35
8030.85
19676.1
34076.5
42710
45226.8
44233.1
39736.2
34018.9
29363
26009.8
22979.4
20366.7
18167
16340.5
14818.6
13544.5
12470.3
11555.9
10770.6
10090.1
9496.78
8977.53
8521.41
8118.64
7761.5
7443.4
7158.58
6902.31
6670.73
6460.76
6269.92
6096.11
5937.5
5792.59
5660.02
5538.56
5427.07
5324.53
5229.98
5142.52
5061.39
4985.94
4915.57
4849.8
4788.26
4730.63
4676.69
4626.24
4579.1
4535.15
4494.2
4456.15
4420.77
4387.91
4357.3
4328.78
4302.08
4277.04
4253.41
4231.08
4209.84
4189.66
4170.34
4151.92
4134.18
4117.33
4100.97
4085.56
4070.43
4056.38
4042.31
4029.6
4016.45
4005.06
3992.71
3982.63
3970.98
3962.17
3951.13
3943.47
3932.89
3926.25
3915.89
3910.07
3899.71
3894.42
3883.95
3878.76
3868.18
3862.99
3852.23
3847.02
3836.18
3831.01
3820.47
3815.18
3805.44
3800.67
3790.04
105.887
146.616
198.353
265.777
350.043
456.028
585.702
743.602
931.828
1153.92
1464.62
1897.1
2398.89
2961.83
3563.15
4171.86
4746.25
5251.03
5654.92
5950.7
6131.98
6219.44
6207.04
6160.41
6061.8
5928.62
5778.13
5619.46
5459.06
5301.3
5148.95
5004.1
4867.6
4739.93
4621.09
4511.14
4409.79
4316.58
4231.38
4153.56
4083.2
4019.51
3962.41
3911.15
3865.68
3825.44
3790.09
3759.1
3731.94
3708.37
3688.04
3670.75
3656.06
3643.75
3633.44
3625.09
3618.21
3612.85
3608.55
3605.31
3602.93
3601.1
3599.89
3598.98
3598.5
3598.51
3598.75
3599.27
3600.37
3601.32
3602.89
3604.24
3605.96
3607.38
3608.8
3609.78
3610.44
3610.4
3610.07
3609.12
3607.87
3605.43
3603.1
3599.26
3595.73
3590.42
3585.58
3578.74
3572.53
3564.13
3556.57
3546.66
3537.94
3526.71
3517.14
3504.89
3494.83
3481.81
3471.58
3457.93
3447.74
3433.47
3423.49
3408.45
3398.83
3382.82
3373.75
3356.66
3347.92
3325.91
)
;
    }
}


// ************************************************************************* //
