/*--------------------------------*- C++ -*----------------------------------*\
| =========                 |                                                 |
| \\      /  F ield         | OpenFOAM: The Open Source CFD Toolbox           |
|  \\    /   O peration     | Version:  v2012                                 |
|   \\  /    A nd           | Website:  www.openfoam.com                      |
|    \\/     M anipulation  |                                                 |
\*---------------------------------------------------------------------------*/
FoamFile
{
    version     2.0;
    format      ascii;
    class       volScalarField;
    location    "0.228";
    object      nut.air;
}
// * * * * * * * * * * * * * * * * * * * * * * * * * * * * * * * * * * * * * //

dimensions      [0 2 -1 0 0 0 0];


internalField   nonuniform List<scalar> 
5600
(
2.45114e-05
3.47373e-05
4.04075e-05
4.24619e-05
4.22738e-05
4.09663e-05
3.9217e-05
3.75292e-05
3.61244e-05
3.49372e-05
3.40689e-05
3.34317e-05
3.30343e-05
3.28119e-05
3.26822e-05
3.26752e-05
3.26564e-05
3.27112e-05
3.27267e-05
3.27731e-05
3.27979e-05
3.28202e-05
3.28538e-05
3.28722e-05
3.29134e-05
3.29424e-05
3.2976e-05
3.30179e-05
3.3043e-05
3.30867e-05
3.31051e-05
3.31374e-05
3.31521e-05
3.3168e-05
3.3183e-05
3.31844e-05
3.32012e-05
3.31925e-05
3.32103e-05
3.3196e-05
3.3214e-05
3.31986e-05
3.32156e-05
3.32031e-05
3.32167e-05
3.32097e-05
3.32208e-05
3.32168e-05
3.32285e-05
3.32235e-05
3.32381e-05
3.32303e-05
3.32481e-05
3.32393e-05
3.32569e-05
3.32522e-05
3.3266e-05
3.3268e-05
3.32787e-05
3.32832e-05
3.3297e-05
3.32975e-05
3.33196e-05
3.33136e-05
3.33432e-05
3.33339e-05
3.33644e-05
3.33578e-05
3.33863e-05
3.33842e-05
3.3414e-05
3.3411e-05
3.34467e-05
3.34375e-05
3.34793e-05
3.34651e-05
3.35105e-05
3.34959e-05
3.35427e-05
3.35286e-05
3.35779e-05
3.3563e-05
3.36139e-05
3.35999e-05
3.36458e-05
3.36416e-05
3.36689e-05
3.36938e-05
3.36766e-05
3.37724e-05
3.36494e-05
3.39145e-05
3.35281e-05
3.42169e-05
3.31251e-05
3.50078e-05
3.17751e-05
3.75251e-05
2.65521e-05
4.69941e-05
0.000151677
0.000137256
0.000112444
9.83974e-05
9.42237e-05
9.46325e-05
0.000102407
0.00010993
0.000116652
0.000124269
0.000132702
0.000141328
0.000149276
0.000157489
0.000164118
0.000171239
0.00017655
0.000182236
0.000186675
0.000191087
0.000195035
0.000198536
0.000202198
0.000205297
0.000208512
0.000211371
0.000213974
0.000216659
0.000218736
0.000221034
0.000222704
0.000224473
0.000225889
0.000227158
0.000228462
0.000229333
0.000230566
0.000231145
0.000232302
0.000232696
0.000233763
0.000234082
0.00023502
0.000235356
0.000236167
0.000236558
0.000237258
0.000237629
0.000238311
0.000238569
0.000239275
0.000239427
0.000240148
0.000240264
0.000240903
0.000241102
0.000241609
0.000241907
0.00024234
0.000242612
0.000243128
0.000243234
0.000243922
0.000243862
0.000244653
0.000244548
0.000245278
0.000245234
0.000245879
0.000245878
0.000246584
0.000246498
0.000247346
0.000247096
0.000248038
0.000247687
0.000248659
0.000248284
0.000249282
0.000248869
0.000249948
0.000249451
0.000250599
0.000250056
0.000251158
0.000250705
0.000251568
0.000251452
0.00025175
0.00025256
0.000251454
0.000254485
0.000250053
0.000258003
0.000246125
0.000265317
0.000236037
0.000281916
0.000210953
0.000288093
0.000156559
0.000151342
0.000143487
0.000134447
0.000126259
0.000119643
0.000114669
0.000109108
0.000108936
0.000110049
0.000112039
0.000118429
0.000122486
0.000132579
0.000139083
0.000151291
0.000160795
0.000174132
0.000187106
0.000201565
0.00021733
0.000232612
0.000246416
0.000258284
0.00027011
0.000281244
0.000290243
0.00029873
0.000305135
0.000312041
0.000317481
0.000323117
0.000328295
0.000332767
0.000337692
0.00034117
0.000345812
0.000348545
0.000352861
0.000355121
0.000359046
0.000361109
0.000364537
0.000366603
0.000369561
0.000371534
0.000374144
0.000375846
0.000378386
0.000379707
0.000382236
0.000383277
0.000385712
0.000386748
0.000388811
0.000390049
0.000391735
0.000393083
0.000394691
0.000395746
0.000397624
0.000398182
0.000400403
0.000400614
0.000402903
0.000403146
0.000405154
0.000405538
0.000407345
0.000407659
0.000409695
0.000409716
0.000412105
0.000411786
0.000414299
0.000413788
0.000416303
0.000415653
0.000418278
0.000417357
0.000420313
0.000418988
0.000422325
0.000420586
0.000424267
0.000422072
0.00042619
0.000423336
0.000428143
0.000424447
0.00043023
0.000425408
0.000432724
0.000425775
0.000436361
0.00042465
0.000442576
0.000421167
0.000432954
0.000409547
0.000157901
0.000153676
0.000150683
0.00014583
0.000143937
0.000137932
0.000136672
0.000131032
0.000127676
0.00012669
0.000120022
0.000123541
0.000113583
0.000119281
0.000112653
0.000118755
0.00011877
0.000124848
0.000131754
0.000139085
0.000150946
0.000161817
0.000176647
0.000191288
0.000206792
0.00022418
0.000238148
0.000253505
0.000265903
0.000280346
0.000292676
0.000305479
0.000317847
0.000328873
0.00034117
0.000350603
0.000362508
0.000370737
0.00038205
0.000389397
0.000399718
0.000406495
0.000415654
0.000421942
0.000428741
0.000433786
0.000439896
0.000444188
0.000450191
0.000453654
0.000459532
0.000462488
0.00046797
0.000471019
0.000475601
0.000478974
0.000482842
0.000486219
0.000490077
0.000492669
0.000497105
0.000498682
0.000503626
0.000504696
0.00050947
0.000510795
0.000514917
0.000516447
0.000520262
0.000521414
0.000525741
0.000526246
0.000531157
0.000531162
0.000536117
0.000535877
0.000540741
0.00054016
0.000545263
0.000544035
0.00054979
0.000547741
0.00055423
0.000551333
0.000558589
0.000554606
0.000563006
0.000557334
0.000567493
0.000559634
0.000572187
0.000561627
0.000577406
0.00056309
0.00058327
0.000564211
0.000588743
0.000566756
0.000591725
0.000572284
0.000158255
0.000154167
0.000152348
0.000148044
0.000147935
0.000143465
0.000142968
0.000140946
0.000136489
0.000140078
0.000129707
0.000138845
0.000124853
0.00013444
0.000123368
0.000127411
0.000124188
0.000120455
0.000123114
0.00011762
0.000122377
0.000121196
0.000125438
0.000131158
0.000135345
0.000146763
0.000153041
0.000167478
0.000177488
0.000192789
0.000206866
0.000221976
0.000236026
0.000246984
0.00026203
0.000272063
0.000287714
0.000297274
0.000312895
0.000322468
0.000337416
0.00034745
0.000361251
0.000371804
0.000384414
0.000394588
0.000406458
0.00041548
0.000427414
0.0004351
0.000446863
0.000453897
0.000464867
0.00047209
0.000481614
0.000489323
0.000497639
0.000505229
0.000513561
0.000519539
0.000528939
0.00053313
0.000543131
0.000546566
0.000555984
0.000559878
0.000568064
0.000572177
0.000579848
0.000583153
0.000591697
0.000593926
0.000603174
0.000604656
0.000613721
0.000615042
0.000622917
0.000623213
0.00063138
0.000630644
0.000639652
0.000637846
0.000647681
0.000644909
0.000655549
0.000651534
0.000663372
0.000657482
0.00067086
0.000663054
0.000677925
0.000668791
0.000684736
0.00067491
0.000690864
0.000682053
0.000694766
0.000691371
0.000696376
0.000701027
0.000158378
0.000154247
0.000152792
0.000148698
0.000148634
0.000145388
0.000143899
0.000144497
0.0001381
0.000144845
0.0001329
0.000143723
0.00013091
0.000139034
0.000132706
0.000132077
0.000135145
0.000126824
0.000134022
0.000125596
0.000128979
0.000127405
0.000123179
0.000129058
0.000119626
0.000128669
0.00012073
0.000128211
0.000126676
0.000130962
0.000137086
0.000139248
0.000151682
0.000153551
0.000170134
0.000172859
0.000191807
0.000196848
0.000216294
0.000224376
0.000243306
0.000251389
0.000264733
0.00027418
0.000287197
0.000297158
0.000310747
0.000319775
0.000334556
0.000342833
0.000357837
0.000366303
0.000380336
0.000390369
0.000402654
0.000413717
0.000425022
0.0004356
0.00044783
0.00045592
0.000469798
0.000475847
0.000490261
0.000495971
0.000509086
0.00051609
0.000527565
0.000534804
0.000546256
0.000552016
0.000564835
0.000569208
0.000582755
0.000586875
0.000599709
0.000603899
0.000616004
0.000619468
0.000631652
0.00063396
0.000646564
0.000648085
0.000660679
0.000662068
0.000674287
0.000675595
0.000687375
0.000688367
0.00069918
0.000700751
0.000709646
0.000713361
0.000719931
0.000725803
0.000730606
0.000737191
0.000741653
0.000747068
0.000755408
0.000761894
0.000158426
0.000154288
0.000152832
0.000149094
0.000148473
0.000146437
0.000143573
0.000146066
0.000138215
0.000146217
0.000134439
0.000144112
0.000134429
0.000138564
0.000137467
0.000132208
0.000139277
0.000129483
0.000136485
0.000131442
0.000130544
0.000134825
0.000125327
0.000135966
0.000123419
0.00013341
0.000124894
0.000128706
0.000127958
0.000123556
0.000131676
0.000119249
0.000134462
0.000117643
0.000137185
0.000119351
0.000139847
0.000126497
0.000143586
0.000137737
0.000150792
0.000152602
0.000163244
0.000168421
0.000180878
0.000186612
0.000202511
0.000206839
0.000225779
0.000231514
0.0002503
0.000258801
0.000274862
0.000283575
0.000293834
0.000304066
0.00031441
0.000323569
0.00033696
0.000343381
0.000359299
0.000364295
0.000380332
0.000386738
0.000400615
0.000409509
0.000422259
0.000431267
0.000444917
0.000451706
0.000466864
0.000472659
0.000488387
0.000495073
0.000509922
0.000517096
0.000531051
0.000537451
0.000551187
0.000556576
0.000570428
0.000575674
0.000589156
0.000594929
0.000607868
0.000614085
0.000626399
0.000632592
0.000643567
0.000650213
0.000659275
0.000667414
0.000675212
0.000684147
0.000692037
0.00070053
0.000708894
0.00071738
0.000726866
0.000739614
0.000158414
0.000154404
0.000152672
0.000149495
0.000148094
0.000147084
0.000143291
0.000146467
0.00013873
0.000145726
0.00013626
0.000142691
0.000137134
0.00013721
0.000139664
0.000132425
0.000139711
0.000131951
0.000135446
0.000135012
0.000129913
0.000137366
0.00012688
0.000136468
0.000127318
0.000132873
0.000129516
0.000128786
0.000131863
0.000124382
0.000134911
0.000119802
0.000137359
0.000116268
0.000139194
0.000114187
0.000137998
0.000117082
0.00013332
0.000121853
0.000128999
0.000125584
0.000129245
0.000125258
0.000133832
0.000125444
0.000140959
0.000127984
0.000146082
0.000137884
0.000152209
0.000151589
0.000158593
0.000167561
0.000173114
0.000182399
0.000191389
0.000196211
0.000213848
0.000215058
0.000235617
0.000237872
0.000255915
0.000264091
0.000278274
0.000290216
0.000304824
0.000313188
0.000325833
0.000329869
0.000343558
0.000347544
0.000361501
0.000368411
0.000381833
0.000390295
0.000403154
0.000410884
0.000423448
0.000430368
0.000442859
0.000450556
0.000462747
0.000471829
0.000483802
0.000493719
0.00050578
0.000515905
0.000527215
0.000537463
0.000547444
0.000558391
0.00056818
0.000579845
0.000590526
0.000603129
0.00061363
0.000628269
0.000638646
0.000656774
0.000158354
0.000154587
0.000152442
0.000149845
0.00014783
0.000147274
0.000143517
0.000145914
0.000139975
0.000144217
0.000138323
0.00014098
0.000138823
0.000136709
0.000139703
0.00013389
0.000138191
0.000134443
0.000134029
0.000136554
0.000130356
0.000136826
0.000129458
0.000134574
0.000130593
0.000131423
0.000131766
0.000128974
0.0001324
0.000126453
0.000133786
0.000123374
0.000135214
0.000120603
0.000136478
0.000118794
0.000135148
0.00012115
0.000130594
0.000124671
0.000126936
0.000125987
0.0001269
0.000123487
0.000129449
0.00012005
0.000132815
0.00011767
0.000132451
0.000120402
0.000129227
0.000126872
0.000123095
0.000131237
0.000125713
0.000130545
0.000133192
0.000125845
0.000142465
0.0001294
0.000147037
0.000139545
0.000148433
0.000152726
0.000155486
0.000163265
0.000169441
0.000174369
0.000186944
0.000188047
0.000201143
0.000204443
0.000215966
0.000224728
0.00023626
0.000247289
0.000259767
0.000269868
0.000282548
0.000291661
0.000304209
0.000315056
0.000327805
0.000340513
0.000353601
0.000367014
0.000380779
0.000394516
0.000408384
0.000421936
0.000433927
0.000447708
0.000459732
0.000474276
0.000488008
0.00050287
0.000516625
0.000531374
0.000544101
0.000558365
0.000158282
0.000154763
0.000152263
0.000150046
0.000147798
0.000147093
0.000144108
0.000144954
0.000141369
0.00014269
0.000139886
0.00013992
0.000139338
0.000137209
0.000138588
0.000135756
0.000136513
0.000135976
0.000133607
0.000136342
0.000131785
0.000135212
0.000131702
0.000132966
0.000132258
0.00013084
0.000132357
0.000129508
0.000131879
0.000128453
0.000131614
0.000127169
0.000131576
0.000125692
0.000131953
0.000124208
0.000131402
0.000124691
0.000129138
0.000125801
0.000127399
0.00012602
0.000126567
0.000125621
0.000126245
0.000124464
0.000127351
0.000122317
0.000128109
0.000121758
0.000126742
0.000124661
0.000122316
0.000127187
0.000121651
0.000126225
0.000124896
0.000120938
0.000129408
0.000119768
0.000129054
0.000124135
0.000124664
0.000129373
0.000124252
0.0001303
0.000128921
0.00012965
0.000135729
0.000132306
0.000138599
0.000138725
0.000141503
0.000146795
0.00014966
0.000156413
0.000161701
0.000168006
0.000174929
0.000180412
0.000187309
0.000195271
0.00020328
0.000213789
0.000222949
0.000234442
0.000244874
0.000257433
0.000269655
0.000282961
0.000294938
0.000308358
0.000320961
0.000335675
0.000350374
0.000366597
0.000382411
0.000398647
0.000414172
0.000430296
0.000158233
0.000154862
0.000152186
0.000150089
0.000147894
0.000146813
0.00014462
0.000144223
0.000142226
0.00014183
0.000140543
0.00013962
0.000139145
0.00013788
0.000137586
0.000136819
0.000135734
0.000136222
0.000134001
0.000135429
0.000132962
0.000134087
0.000132539
0.00013252
0.00013233
0.000130975
0.000132153
0.000129661
0.000131661
0.000128935
0.000130609
0.000128812
0.00012928
0.00012861
0.000128605
0.000127622
0.000128526
0.000126598
0.000128335
0.000125626
0.000128212
0.000125064
0.000127077
0.000125965
0.000125021
0.000126662
0.000124588
0.000125311
0.000125855
0.000123465
0.000126366
0.000123952
0.000124472
0.00012566
0.000123239
0.000126242
0.000124393
0.00012415
0.000127305
0.000123576
0.000127833
0.000126358
0.000126467
0.000130055
0.000127563
0.00013219
0.000131635
0.000133997
0.000137798
0.000138276
0.000142829
0.000145776
0.000148935
0.000154697
0.000158553
0.000165339
0.000171043
0.00017849
0.000185935
0.000193399
0.00020147
0.000210541
0.000219925
0.000230713
0.000240922
0.000252649
0.000263518
0.000276191
0.000288724
0.000302216
0.000315193
0.000328822
0.000342257
0.000356605
0.000371352
0.000386756
0.000402684
0.000418342
0.000434611
0.000450933
0.000158212
0.000154889
0.000152173
0.000150049
0.000147991
0.000146591
0.000144887
0.000143836
0.000142532
0.000141508
0.000140597
0.000139645
0.00013876
0.000138258
0.000136984
0.000137094
0.000135502
0.000135838
0.000134442
0.000134466
0.000133589
0.00013327
0.000132621
0.000132346
0.000131715
0.000131235
0.000131327
0.000129755
0.000131136
0.000128645
0.000130244
0.00012858
0.000128503
0.000129048
0.000126963
0.000128877
0.000126486
0.000127748
0.000127035
0.000125921
0.000128055
0.000124598
0.00012786
0.000125383
0.000126092
0.000127194
0.000125035
0.000127974
0.000125843
0.000127796
0.000127873
0.000128402
0.000130123
0.000130593
0.000133018
0.000134655
0.00013731
0.000140037
0.000143836
0.000147567
0.000152271
0.000157692
0.000162958
0.000170115
0.000176533
0.000184734
0.000192454
0.000201291
0.00021058
0.000220006
0.000230343
0.000240919
0.000251721
0.000263337
0.000274801
0.000287197
0.000299491
0.000312624
0.000325717
0.000339082
0.00035257
0.000366274
0.000377576
0.000387829
0.000398352
0.000409029
0.000419894
0.000431517
0.000443132
0.000455456
0.000467773
0.000480495
0.000493318
0.000506632
0.00052035
0.000534679
0.000549418
0.000564229
0.000578965
0.000593295
0.000158203
0.000154887
0.000152168
0.000149988
0.000148034
0.00014642
0.00014498
0.000143584
0.000142582
0.000141288
0.000140467
0.000139553
0.000138391
0.000138262
0.000136477
0.000137001
0.000135078
0.000135414
0.000134253
0.000133664
0.000133533
0.000132292
0.000132421
0.000131493
0.000131088
0.000130731
0.000130188
0.000129522
0.000129811
0.000128272
0.000129234
0.000127737
0.000127989
0.000128001
0.000126634
0.000128384
0.000126134
0.000128356
0.000126903
0.000127934
0.000128976
0.000128456
0.000131744
0.000131515
0.000135256
0.000137438
0.000140869
0.000145878
0.000149742
0.000156804
0.000162307
0.000170512
0.000178132
0.000186848
0.000196581
0.000206107
0.000217234
0.000227981
0.00024
0.000252114
0.000264741
0.000278042
0.000291218
0.000305325
0.000317246
0.000326982
0.000336667
0.000346546
0.000356574
0.00036681
0.000377259
0.000387684
0.000398211
0.000408801
0.000419457
0.000430316
0.000441148
0.000452237
0.000463196
0.000474278
0.000485358
0.00049638
0.000507621
0.00051871
0.000530052
0.000541243
0.000552411
0.000563752
0.000574858
0.000586188
0.000597189
0.000608268
0.000619152
0.000630074
0.000640788
0.000651561
0.00066227
0.000672749
0.000683
0.000692713
0.000158193
0.000154869
0.000152131
0.000149907
0.000147972
0.000146237
0.000144877
0.000143284
0.000142385
0.000140876
0.000140123
0.000139022
0.00013786
0.000137615
0.000135708
0.000136257
0.000134032
0.000134555
0.000132969
0.000132554
0.00013216
0.000130758
0.000131084
0.000129502
0.00012959
0.000128607
0.000128233
0.000127776
0.00012759
0.000127175
0.000127469
0.000127352
0.000128324
0.000129487
0.000131129
0.000134345
0.000137072
0.000142488
0.000147168
0.00015442
0.00016165
0.000170099
0.000179819
0.000189475
0.000201105
0.000212339
0.000225135
0.000238117
0.000251615
0.000266138
0.00027914
0.00029001
0.000300271
0.00031137
0.000322261
0.000333238
0.000344698
0.000355672
0.000367309
0.000378541
0.000390066
0.000401598
0.000412978
0.000424674
0.00043603
0.000447778
0.000459344
0.000470998
0.000482527
0.000493971
0.000505272
0.000516408
0.000527416
0.000538184
0.000548947
0.000559503
0.000569992
0.000580372
0.000590551
0.000600685
0.000610623
0.000620389
0.00063014
0.000639667
0.0006494
0.000658804
0.000668181
0.000677415
0.000686511
0.000695622
0.00070437
0.000713152
0.000721552
0.000729889
0.000737897
0.000745764
0.000753554
0.000760908
0.000767877
0.000774188
0.000158172
0.000154815
0.000152007
0.000149722
0.000147688
0.000145837
0.000144352
0.000142578
0.000141547
0.000139761
0.000138939
0.000137432
0.000136313
0.00013552
0.000133682
0.000133745
0.000131312
0.000131571
0.00012926
0.000129002
0.000127677
0.000126771
0.000126545
0.000125213
0.000125859
0.000125776
0.000127663
0.000129949
0.000133778
0.00013892
0.000145431
0.000153384
0.000162474
0.00017277
0.000184115
0.000196563
0.00020971
0.000224081
0.000238726
0.000252249
0.000263616
0.000275631
0.00028761
0.000299716
0.000312208
0.000324272
0.000336888
0.000349048
0.00036143
0.000373841
0.000385827
0.000398406
0.000410257
0.000422582
0.000434256
0.000445964
0.00045744
0.000468469
0.000479629
0.000490191
0.000500871
0.000511162
0.000521322
0.000531392
0.000541097
0.000550958
0.000560557
0.000570094
0.000579431
0.000588614
0.000597627
0.000606447
0.000615144
0.000623579
0.000631913
0.000639955
0.000647874
0.000655588
0.000663084
0.000670484
0.000677663
0.000684682
0.000691549
0.00069819
0.000704868
0.000711255
0.000717681
0.000723901
0.000730083
0.000736202
0.000742101
0.000748028
0.000753632
0.000759186
0.000764598
0.000769885
0.000775077
0.000779844
0.000784284
0.000788261
0.000158106
0.00015464
0.000151592
0.000149124
0.000146664
0.000144496
0.000142441
0.000140234
0.00013855
0.000136251
0.000134986
0.000132648
0.000131087
0.000129113
0.000127176
0.000126162
0.000123654
0.000122994
0.000121513
0.000122458
0.000123772
0.000127138
0.00013229
0.000138807
0.000147792
0.000157746
0.000169964
0.000183034
0.000197759
0.000213318
0.000228923
0.000242219
0.000255543
0.000268975
0.000282365
0.000295715
0.000308982
0.000322295
0.000335263
0.000348442
0.000361109
0.000373887
0.000386105
0.000398068
0.000409643
0.000420663
0.00043159
0.000441885
0.000452096
0.000461903
0.000471291
0.000480698
0.000489483
0.000498413
0.000506734
0.000515079
0.000523074
0.00053079
0.00053846
0.00054566
0.000552906
0.00055975
0.000566513
0.000573093
0.000579419
0.000585711
0.000591748
0.000597737
0.000603554
0.000609262
0.000614858
0.000620305
0.000625708
0.000630419
0.000634853
0.000639141
0.000643341
0.000647442
0.000651416
0.000655354
0.000659169
0.000662936
0.000666641
0.000670217
0.000673822
0.000677236
0.000680724
0.000684049
0.000687373
0.000690638
0.000693813
0.000696981
0.000700045
0.000703091
0.000706079
0.000708997
0.000711891
0.000714628
0.000717379
0.000719883
0.000157842
0.00015396
0.000150077
0.000146738
0.000142552
0.000139323
0.000135296
0.000131739
0.00012834
0.000125836
0.000123754
0.000120546
0.000118752
0.000117754
0.000118546
0.000121133
0.000125418
0.000132063
0.000140234
0.000150938
0.000163302
0.000177746
0.000193323
0.000209758
0.000227157
0.000242405
0.000257207
0.000271423
0.00028559
0.000299153
0.00031229
0.000325011
0.000337179
0.000348905
0.000360095
0.000370852
0.00038115
0.000391049
0.000400373
0.000409376
0.000417772
0.00042611
0.000433027
0.00043919
0.000445045
0.00045047
0.000455816
0.000460724
0.000465579
0.000470168
0.000474546
0.000478899
0.000482892
0.000486986
0.000490738
0.000494512
0.000498123
0.000501582
0.000505056
0.00050828
0.000511558
0.000514644
0.000517699
0.000520689
0.000523552
0.000526431
0.000529164
0.000531909
0.000534545
0.000537151
0.000539697
0.000542175
0.000544627
0.000547006
0.000549353
0.000551613
0.000553833
0.000555983
0.000558075
0.000560145
0.000562152
0.000564142
0.000566089
0.000567977
0.00056988
0.000571677
0.000573541
0.000575285
0.000577066
0.000578791
0.000580494
0.000582184
0.000583833
0.000585469
0.000587088
0.000588648
0.000590218
0.000591654
0.000593074
0.000594297
0.000156634
0.000151227
0.000143327
0.000134658
0.000126053
0.000121
0.00011502
0.000112469
0.000112509
0.000114123
0.00011803
0.000123399
0.000130649
0.000139102
0.000149051
0.000160189
0.000172554
0.000186272
0.000201211
0.000217354
0.000233409
0.000247019
0.000259618
0.000271888
0.0002831
0.00029409
0.000302671
0.000310019
0.000316767
0.000322867
0.000328613
0.000333961
0.000338902
0.000343516
0.000347778
0.000351757
0.000355473
0.000358976
0.000362236
0.000365393
0.000368289
0.000371154
0.000373801
0.000376354
0.000378763
0.00038099
0.000383189
0.000385174
0.000387163
0.000389012
0.000390789
0.000392558
0.00039417
0.000395853
0.000397363
0.00039892
0.000400384
0.000401805
0.000403233
0.000404548
0.00040591
0.000407169
0.00040844
0.000409673
0.000410859
0.000412062
0.000413195
0.000414353
0.000415457
0.000416561
0.00041764
0.000418701
0.000419753
0.000420779
0.000421801
0.000422782
0.000423752
0.000424684
0.000425602
0.000426508
0.00042739
0.00042827
0.000429127
0.000429967
0.000430811
0.000431612
0.000432454
0.000433228
0.000434042
0.000434815
0.000435598
0.000436368
0.000437131
0.000437889
0.000438647
0.000439368
0.000440109
0.000440753
0.000441368
0.000441826
0.000151613
0.000136837
0.000113464
9.95356e-05
9.75891e-05
9.81381e-05
0.000110568
0.000115042
0.000121824
0.000129674
0.00013799
0.000146218
0.000154228
0.000161664
0.000168597
0.000174819
0.000180488
0.000185578
0.00019018
0.000194448
0.00019831
0.000202095
0.000205534
0.000208863
0.000211868
0.000214674
0.000217327
0.000219706
0.000221909
0.000223812
0.000225519
0.000227019
0.000228352
0.000229558
0.000230629
0.000231605
0.000232489
0.000233298
0.000234039
0.000234746
0.000235383
0.000236015
0.000236587
0.000237181
0.000237731
0.000238258
0.000238779
0.000239238
0.000239716
0.000240135
0.000240558
0.000240965
0.000241339
0.000241745
0.000242091
0.000242482
0.000242827
0.000243191
0.000243548
0.000243883
0.000244244
0.000244565
0.000244914
0.000245239
0.000245563
0.000245893
0.000246204
0.000246529
0.000246837
0.000247154
0.000247462
0.000247774
0.000248086
0.000248398
0.000248713
0.000249018
0.000249326
0.00024962
0.000249919
0.00025021
0.000250497
0.000250785
0.000251066
0.000251346
0.000251625
0.000251894
0.000252176
0.000252434
0.000252712
0.000252972
0.000253242
0.00025351
0.000253775
0.000254053
0.000254319
0.000254589
0.000254855
0.000255072
0.0002553
0.000255454
2.45433e-05
3.47522e-05
4.04102e-05
4.23029e-05
4.20133e-05
4.05612e-05
3.87133e-05
3.70563e-05
3.56098e-05
3.44452e-05
3.35765e-05
3.29757e-05
3.25994e-05
3.23839e-05
3.22882e-05
3.22572e-05
3.22706e-05
3.22975e-05
3.23309e-05
3.23657e-05
3.23921e-05
3.24282e-05
3.24596e-05
3.2501e-05
3.2538e-05
3.25764e-05
3.26148e-05
3.26505e-05
3.26871e-05
3.27159e-05
3.27418e-05
3.27604e-05
3.27749e-05
3.27852e-05
3.27918e-05
3.27959e-05
3.27977e-05
3.2798e-05
3.2797e-05
3.2796e-05
3.27937e-05
3.27931e-05
3.27905e-05
3.2791e-05
3.279e-05
3.27907e-05
3.27917e-05
3.27919e-05
3.27942e-05
3.27945e-05
3.2797e-05
3.27986e-05
3.28007e-05
3.28045e-05
3.28068e-05
3.28123e-05
3.28159e-05
3.28222e-05
3.28281e-05
3.28345e-05
3.28427e-05
3.28497e-05
3.28591e-05
3.28677e-05
3.28774e-05
3.28876e-05
3.28977e-05
3.2909e-05
3.292e-05
3.29319e-05
3.29441e-05
3.29574e-05
3.2971e-05
3.29853e-05
3.30001e-05
3.30149e-05
3.30301e-05
3.30451e-05
3.30609e-05
3.30765e-05
3.30926e-05
3.3109e-05
3.31255e-05
3.31424e-05
3.31593e-05
3.31762e-05
3.31937e-05
3.32104e-05
3.32282e-05
3.32453e-05
3.32634e-05
3.32814e-05
3.33002e-05
3.33192e-05
3.33393e-05
3.33588e-05
3.33795e-05
3.33998e-05
3.34202e-05
3.34406e-05
2.37609e-05
0.000679904
0.00119207
0.00158203
0.00193974
0.00222048
0.00242696
0.00246907
0.00246151
0.00244714
0.00243129
0.00242185
0.00242405
0.00243576
0.0024522
0.00247298
0.00249809
0.002527
0.00256322
0.00260496
0.00265159
0.00270324
0.00275608
0.00280781
0.00286262
0.00291129
0.00295775
0.00299643
0.00303493
0.00306986
0.00307766
0.00303602
0.00298905
0.00293209
0.00286822
0.00280385
0.00273739
0.0026663
0.00259507
0.00252775
0.00246298
0.0023995
0.00233899
0.00228271
0.00222835
0.0021731
0.00211731
0.00206635
0.0020244
0.00198818
0.00194954
0.00191436
0.00190207
0.00192069
0.00194634
0.00194456
0.0019051
0.00185579
0.00182771
0.00183332
0.00186785
0.00192555
0.00199557
0.00206602
0.00212122
0.00215262
0.00215544
0.00213801
0.00210629
0.00206922
0.00202384
0.0019714
0.00190541
0.00182912
0.00173877
0.00164058
0.00153197
0.00141835
0.00129654
0.00117269
0.00104672
0.000927381
0.000815547
0.000716655
0.000626302
0.000544396
0.000465975
0.000394916
0.000331901
0.000280237
0.000238421
0.000206723
0.000183117
0.000166211
0.000154819
0.000146091
0.000141108
0.000135179
0.000133239
0.000127674
0.00017426
0.000437694
0.000875718
0.00126521
0.00161411
0.00189574
0.00211014
0.00226053
0.00236538
0.0023622
0.00234332
0.00233344
0.00233007
0.00233204
0.00233884
0.00235122
0.0023695
0.00239258
0.00242383
0.00245994
0.00249939
0.0025423
0.00258729
0.00263277
0.00267985
0.00272812
0.00277272
0.00281279
0.00285798
0.00290857
0.00293723
0.00289808
0.00285322
0.00279794
0.00273536
0.0026728
0.00260898
0.00254082
0.00247319
0.00241074
0.00235174
0.00229439
0.00224065
0.00219181
0.0021448
0.00209641
0.00204759
0.00200327
0.00196674
0.00193575
0.00190422
0.00187737
0.00187267
0.00189866
0.00193512
0.00194846
0.00192297
0.00187959
0.00184943
0.00184899
0.00187678
0.00192742
0.00199092
0.00205558
0.00210614
0.0021331
0.00213176
0.00211026
0.00207655
0.00203971
0.00199771
0.00194983
0.00188949
0.00181765
0.00173118
0.00163452
0.0015266
0.00141175
0.00128878
0.00116264
0.00103475
0.000912124
0.000797023
0.000693562
0.000599517
0.000514516
0.000436325
0.000367524
0.000308749
0.000261114
0.000223497
0.00019508
0.000174529
0.000159826
0.000150314
0.000142788
0.000138818
0.000133593
0.00013214
0.00012715
0.000473553
0.000384546
0.000566086
0.000874918
0.00120242
0.00148333
0.00170587
0.00187093
0.00199252
0.0020789
0.00214447
0.00220038
0.00221637
0.00221932
0.00222734
0.00224207
0.00226298
0.00228982
0.00232032
0.00235273
0.00238715
0.00242362
0.00246274
0.00250269
0.00254327
0.00259024
0.00263199
0.00267398
0.00271618
0.00275956
0.00276129
0.00272558
0.00268386
0.00263137
0.0025712
0.00251167
0.00245189
0.00238806
0.00232548
0.00226949
0.00221804
0.00216866
0.00212366
0.00208442
0.00204693
0.00200741
0.00196776
0.00193246
0.00190328
0.00187892
0.00185631
0.00184054
0.00184603
0.00188034
0.00192684
0.00195434
0.00194321
0.00190696
0.00187531
0.00186832
0.00188825
0.00193047
0.00198596
0.00204321
0.00208754
0.00210845
0.0021015
0.00207457
0.00203788
0.0020008
0.00196228
0.00191949
0.0018656
0.00179917
0.00171745
0.00162313
0.00151639
0.0014007
0.00127667
0.00114844
0.00101868
0.000893101
0.000774909
0.000667375
0.000570066
0.000482998
0.000405846
0.000340035
0.000285609
0.000242202
0.000208755
0.000183913
0.000166417
0.000153941
0.000146075
0.000139672
0.000136488
0.00013194
0.000130837
0.00012645
0.000592798
0.000584045
0.000545412
0.000612879
0.000797773
0.0010217
0.00122955
0.00140026
0.00153569
0.00164029
0.00172398
0.00179657
0.00185953
0.00191893
0.00197661
0.00203412
0.00209303
0.00215252
0.0021895
0.00222486
0.00226139
0.00229913
0.00233932
0.00237929
0.00241852
0.00246171
0.0025021
0.00254289
0.00256872
0.00256179
0.0025411
0.00251025
0.00247342
0.00242568
0.00237006
0.00231591
0.00226261
0.00220548
0.00215032
0.00210326
0.00206195
0.00202315
0.00198962
0.00196284
0.00193762
0.00190953
0.00188181
0.00185851
0.00183921
0.00182349
0.00181219
0.00181074
0.00182941
0.00187294
0.00192794
0.00196715
0.00196936
0.00194077
0.00190821
0.00189416
0.00190488
0.00193695
0.00198248
0.00203014
0.00206598
0.00207855
0.00206395
0.00202993
0.00198916
0.00195133
0.00191633
0.00187911
0.00183236
0.00177223
0.00169609
0.00160497
0.00149997
0.00138398
0.00125917
0.00112929
0.000997998
0.0008701
0.000749385
0.000638696
0.000539075
0.000451288
0.000375993
0.000313571
0.000263456
0.000224542
0.000195459
0.000174293
0.000159644
0.000149142
0.000142571
0.00013705
0.000134394
0.000130405
0.000129515
0.000125682
0.000700445
0.000705639
0.000690528
0.000664571
0.000665748
0.000723861
0.000820806
0.000935485
0.00104857
0.00114995
0.00123965
0.00132142
0.00139574
0.00146796
0.00153811
0.00160734
0.00167801
0.00174943
0.0018197
0.00189007
0.00195832
0.00202314
0.00208531
0.00213988
0.00218593
0.00222608
0.00225528
0.00227301
0.00228344
0.00228354
0.00226917
0.0022456
0.00221666
0.00217712
0.00213005
0.00208557
0.00204296
0.00199632
0.00195224
0.00191772
0.00189006
0.00186536
0.00184682
0.00183588
0.00182602
0.00181219
0.00179948
0.00179139
0.00178473
0.00178014
0.00178298
0.00179907
0.00183351
0.00188673
0.00194787
0.00199471
0.00200706
0.00198519
0.00195176
0.00193006
0.00193
0.00194972
0.00198277
0.00201799
0.00204232
0.00204352
0.00201875
0.00197586
0.00193006
0.0018912
0.00185987
0.0018286
0.00178951
0.00173633
0.00166647
0.00157929
0.00147673
0.00136112
0.00123615
0.00110535
0.000973284