/*--------------------------------*- C++ -*----------------------------------*\
| =========                 |                                                 |
| \\      /  F ield         | OpenFOAM: The Open Source CFD Toolbox           |
|  \\    /   O peration     | Version:  v2012                                 |
|   \\  /    A nd           | Website:  www.openfoam.com                      |
|    \\/     M anipulation  |                                                 |
\*---------------------------------------------------------------------------*/
FoamFile
{
    version     2.0;
    format      ascii;
    class       volScalarField;
    location    "0.144";
    object      k.air;
}
// * * * * * * * * * * * * * * * * * * * * * * * * * * * * * * * * * * * * * //

dimensions      [0 2 -2 0 0 0 0];


internalField   nonuniform List<scalar> 
5600
(
0.606299
0.840814
0.955117
0.978164
0.94916
0.897608
0.839531
0.787304
0.74326
0.707326
0.679307
0.658408
0.643327
0.632661
0.625331
0.619988
0.616369
0.613178
0.611104
0.608629
0.607297
0.605212
0.604462
0.602851
0.602707
0.601474
0.6017
0.600789
0.601046
0.600489
0.600361
0.600248
0.599436
0.59984
0.598434
0.599134
0.597669
0.597995
0.597335
0.596485
0.597334
0.594966
0.597188
0.594078
0.596472
0.594118
0.595116
0.594916
0.59354
0.595724
0.592554
0.595755
0.59275
0.594614
0.594247
0.592616
0.596297
0.590893
0.597549
0.59078
0.596895
0.59289
0.594453
0.596344
0.591822
0.599027
0.591163
0.599191
0.593234
0.597092
0.596754
0.594928
0.599245
0.595006
0.599208
0.597451
0.597419
0.600418
0.59588
0.601763
0.596116
0.600695
0.597902
0.598333
0.599854
0.596452
0.600577
0.595916
0.60019
0.596107
0.599496
0.596724
0.597627
0.600441
0.590043
0.613346
0.567354
0.653638
0.481466
0.811266
0.371637
0.315566
0.28866
0.275662
0.274972
0.284646
0.307363
0.344941
0.387125
0.430193
0.471486
0.50896
0.541833
0.569352
0.592051
0.609606
0.62374
0.633576
0.642163
0.647244
0.653195
0.655667
0.660835
0.662112
0.666872
0.667111
0.671171
0.671032
0.673655
0.674008
0.674289
0.676076
0.674019
0.677318
0.673819
0.677491
0.674674
0.67603
0.676935
0.673612
0.679546
0.671779
0.681082
0.672189
0.680111
0.675518
0.676813
0.680049
0.673437
0.683422
0.672464
0.683361
0.675841
0.679014
0.682829
0.672733
0.689997
0.668782
0.692808
0.671411
0.688185
0.681045
0.678891
0.692366
0.671587
0.698586
0.672214
0.695541
0.681285
0.686831
0.691854
0.680958
0.696467
0.683337
0.693259
0.692127
0.687178
0.700591
0.684419
0.702959
0.688064
0.698703
0.695214
0.692474
0.700833
0.688683
0.702667
0.687679
0.702441
0.687503
0.70198
0.688362
0.698086
0.696312
0.685102
0.713293
0.663092
0.742801
0.613368
0.816854
0.369149
0.2819
0.227737
0.192991
0.168599
0.153782
0.145627
0.1436
0.147003
0.155045
0.167102
0.181859
0.1994
0.218418
0.239331
0.260371
0.282812
0.304113
0.326935
0.347575
0.370325
0.389425
0.410383
0.424328
0.441222
0.45077
0.464119
0.471148
0.480258
0.487054
0.491644
0.499555
0.500249
0.509323
0.507795
0.515748
0.515937
0.518776
0.524681
0.520186
0.532585
0.522428
0.537399
0.527797
0.538004
0.536267
0.535783
0.545021
0.534272
0.550735
0.536863
0.550804
0.54524
0.545317
0.557272
0.538533
0.567356
0.536968
0.569272
0.54522
0.561302
0.561001
0.549436
0.575897
0.543222
0.581029
0.54912
0.574124
0.563851
0.563236
0.576618
0.558988
0.579483
0.565745
0.573722
0.577946
0.567276
0.587243
0.566977
0.588026
0.574192
0.582493
0.5832
0.576631
0.588913
0.573691
0.590923
0.572163
0.591949
0.570765
0.592289
0.571521
0.588088
0.578607
0.579225
0.586065
0.574501
0.588581
0.572188
0.584401
0.3701
0.280649
0.224112
0.186049
0.158561
0.138183
0.122979
0.111312
0.102982
0.0969004
0.0936862
0.0921174
0.093213
0.0950032
0.099932
0.104743
0.113518
0.121068
0.133861
0.14402
0.160892
0.173524
0.194285
0.208606
0.230938
0.245752
0.26681
0.281216
0.297789
0.312662
0.323277
0.339576
0.34429
0.361249
0.363387
0.376999
0.382458
0.387471
0.401106
0.395557
0.416663
0.404845
0.426095
0.417657
0.429061
0.432614
0.428917
0.446045
0.430667
0.453898
0.438435
0.453767
0.453017
0.447443
0.470301
0.441454
0.482303
0.444195
0.482099
0.45928
0.470649
0.481067
0.457514
0.497921
0.454717
0.500278
0.467153
0.489598
0.486821
0.478218
0.500119
0.477576
0.500293
0.488931
0.492805
0.503385
0.487513
0.512206
0.490708
0.511404
0.500952
0.505797
0.510602
0.501654
0.515699
0.49979
0.518178
0.497731
0.520232
0.495951
0.520095
0.498179
0.514053
0.505856
0.507178
0.508302
0.509857
0.500738
0.521304
0.483853
0.370293
0.280779
0.224388
0.186041
0.158437
0.137627
0.121582
0.108677
0.0984793
0.0897846
0.0832054
0.0770429
0.0732719
0.0686386
0.0673752
0.0636274
0.0650494
0.0618918
0.0662842
0.063545
0.0712202
0.0693642
0.0803858
0.0805954
0.0941172
0.0980055
0.112093
0.121149
0.13293
0.148248
0.155987
0.177113
0.181494
0.204232
0.208668
0.226081
0.237482
0.242792
0.265597
0.257756
0.28872
0.275625
0.303204
0.298146
0.310167
0.322232
0.314518
0.342405
0.322562
0.353628
0.338699
0.354242
0.362145
0.348544
0.385797
0.345794
0.399448
0.355549
0.396802
0.379328
0.382649
0.40744
0.37048
0.42523
0.373693
0.424215
0.393792
0.410866
0.417919
0.401254
0.430647
0.405859
0.428304
0.42166
0.420575
0.437352
0.418019
0.445036
0.425091
0.443304
0.4376
0.439307
0.446765
0.437873
0.451322
0.436929
0.454765
0.434439
0.457502
0.433124
0.456153
0.437447
0.448241
0.445417
0.443146
0.444628
0.448898
0.43473
0.460979
0.422306
0.370323
0.280812
0.224514
0.186206
0.158655
0.137884
0.121852
0.108867
0.0985887
0.0895714
0.0827306
0.0758112
0.0714483
0.0655046
0.0633038
0.0575002
0.0575195
0.0511945
0.0536608
0.0463503
0.0513312
0.0431611
0.0501233
0.0423602
0.0496172
0.0450627
0.0495023
0.0520143
0.0505172
0.0626071
0.0549169
0.0746985
0.0657038
0.0857048
0.0845053
0.0943835
0.109474
0.103266
0.135314
0.11705
0.155989
0.139076
0.168924
0.168165
0.176266
0.198767
0.184274
0.223081
0.199271
0.235603
0.22448
0.236048
0.256978
0.23164
0.286327
0.234741
0.3001
0.254795
0.294581
0.289041
0.279512
0.323002
0.271984
0.340122
0.284663
0.335447
0.313687
0.321753
0.340955
0.317397
0.351933
0.328972
0.348309
0.348652
0.342717
0.364651
0.344637
0.371474
0.355994
0.370333
0.369845
0.369796
0.377914
0.371689
0.382584
0.371325
0.387586
0.368555
0.390713
0.368176
0.38803
0.374301
0.379117
0.381568
0.375944
0.379151
0.381671
0.370739
0.390471
0.364204
0.370326
0.280811
0.224536
0.186247
0.158726
0.137976
0.121978
0.10901
0.0987547
0.0897459
0.082889
0.0759643
0.0714976
0.0655246
0.063084
0.0572232
0.0567995
0.0503638
0.0520773
0.0446291
0.0483744
0.0400953
0.0449783
0.0372854
0.0409705
0.0369915
0.0356385
0.0394231
0.0295763
0.0430588
0.0255835
0.0444385
0.0279248
0.0402289
0.0388353
0.0314007
0.0546646
0.024814
0.0672702
0.028751
0.070622
0.0461722
0.0659063
0.0722844
0.0609317
0.0975601
0.0646102
0.11351
0.081962
0.116665
0.11267
0.110617
0.148978
0.105818
0.177483
0.115558
0.185975
0.145659
0.175469
0.187763
0.161172
0.222814
0.161257
0.235558
0.1843
0.227268
0.219866
0.216223
0.246658
0.220031
0.254733
0.23883
0.251847
0.260579
0.251454
0.27565
0.259555
0.282292
0.275028
0.284231
0.288772
0.289665
0.295432
0.295284
0.301543
0.294958
0.308703
0.292351
0.312062
0.293006
0.308536
0.299937
0.299989
0.305512
0.298181
0.303498
0.301371
0.298223
0.306715
0.294556
0.370325
0.280802
0.224531
0.186251
0.158732
0.138003
0.121994
0.109073
0.0987692
0.089864
0.0828776
0.0761637
0.0714191
0.0658376
0.062874
0.0576881
0.0563683
0.0510182
0.0513129
0.0454864
0.0471665
0.0410986
0.0432665
0.0382026
0.0388324
0.0372407
0.0333941
0.0380164
0.0276676
0.0388099
0.024127
0.0364664
0.025979
0.0285674
0.0339331
0.0168241
0.0435009
0.00794171
0.0467521
0.00962804
0.0386626
0.0236351
0.0225852
0.0426106
0.00837934
0.0557761
0.00596866
0.0554076
0.0211009
0.0404415
0.0505301
0.0198033
0.0799895
0.00940829
0.0935793
0.0218781
0.0843154
0.0584057
0.0621565
0.0989014
0.0489787
0.122976
0.0567106
0.124145
0.0876433
0.112371
0.122076
0.10716
0.14204
0.118967
0.145566
0.140986
0.145287
0.159908
0.151191
0.171748
0.164296
0.178535
0.181072
0.185299
0.192352
0.197034
0.197834
0.204924
0.206154
0.204478
0.214588
0.202722
0.217992
0.203724
0.214797
0.209648
0.208321
0.212735
0.206994
0.212596
0.206723
0.210418
0.2091
0.208518
0.370324
0.280795
0.224521
0.186249
0.158722
0.138015
0.121978
0.10911
0.0987345
0.0899479
0.0827976
0.0763281
0.0712529
0.0661313
0.0625635
0.0581757
0.0558411
0.0517671
0.0505073
0.046523
0.0460951
0.0423172
0.0421311
0.03923
0.0381473
0.0373599
0.0339385
0.0364049
0.0300037
0.0352678
0.0276844
0.0323125
0.0283378
0.0266957
0.0316614
0.0199646
0.0347547
0.015953
0.033669
0.0178187
0.0268499
0.0249563
0.0167555
0.033178
0.0086226
0.036971
0.00799775
0.031836
0.0176922
0.0178223
0.0334647
0.00380409
0.0428513
0.00140471
0.0436351
0.00415053
0.0332626
0.033827
0.0118439
0.0540425
0.00380941
0.05443
0.00939608
0.0447852
0.035275
0.036348
0.0527079
0.0361235
0.0550991
0.0474158
0.0531323
0.06028
0.0563264
0.0682035
0.0649525
0.0734786
0.0769394
0.0788753
0.0892216
0.089074
0.0951227
0.104001
0.0996248
0.111841
0.108566
0.112857
0.115804
0.112224
0.120054
0.111709
0.119154
0.114085
0.116851
0.113873
0.115188
0.116452
0.111336
0.117202
0.110382
0.117429
0.370323
0.280791
0.224516
0.186248
0.158714
0.138021
0.121966
0.109131
0.098708
0.0899955
0.0827406
0.0764235
0.0711403
0.0663047
0.0623598
0.0584667
0.0555052
0.0522131
0.050013
0.0471246
0.0454834
0.042969
0.0415907
0.0396396
0.0380715
0.0370545
0.0348088
0.0349968
0.0319596
0.0330055
0.029937
0.0305306
0.029057
0.0274182
0.0290006
0.0243435
0.0286793
0.0225222
0.0269553
0.0226296
0.0236801
0.0241091
0.0198962
0.0255155
0.0173074
0.0251549
0.0174381
0.0219073
0.0206173
0.0163335
0.0247883
0.0121481
0.0254331
0.0133486
0.0212644
0.0179971
0.0149703
0.0244962
0.00987835
0.0261529
0.0120189
0.0214448
0.0169499
0.015841
0.0228521
0.0147594
0.0227689
0.0189096
0.0183231
0.0240907
0.0164677
0.0263874
0.0184963
0.0267386
0.022507
0.0261673
0.0287542
0.0256437
0.0350056
0.0298883
0.0371321
0.0383362
0.0391425
0.0443473
0.0420106
0.0488887
0.0433476
0.0504863
0.0458871
0.0490313
0.0479186
0.0458405
0.0519718
0.0409123
0.0523356
0.043485
0.0469292
0.0480242
0.040781
0.0537686
0.370323
0.280793
0.224517
0.186252
0.158715
0.138026
0.121964
0.10914
0.0986995
0.090014
0.0827197
0.0764581
0.0710978
0.0663663
0.0622835
0.0585688
0.0553812
0.0523675
0.0498356
0.0473256
0.0452761
0.0431672
0.0414362
0.0397156
0.0381218
0.0368403
0.0352169
0.0344001
0.0327019
0.0322143
0.0306293
0.0301085
0.0290242
0.0280295
0.0277595
0.0261258
0.0265489
0.0246512
0.0251226
0.0237334
0.023443
0.0232269
0.0217637
0.0227279
0.0205874
0.0216417
0.020474
0.0195879
0.0213784
0.0172208
0.0219551
0.0164163
0.0203437
0.0183722
0.0166837
0.0214452
0.0136371
0.0228151
0.0136289
0.0211209
0.0167733
0.0178493
0.0203506
0.0159364
0.0221954
0.0170771
0.0220065
0.0198074
0.0222923
0.0220698
0.0239074
0.0250665
0.0244965
0.0302863
0.0245132
0.0352491
0.0280232
0.037672
0.0360784
0.0391078
0.0458918
0.041112
0.0542926
0.0450697
0.0570195
0.0526181
0.0541136
0.0601019
0.0504087
0.0640966
0.0490978
0.0617495
0.0543893
0.0534517
0.0607429
0.0487381
0.0616718
0.0495115
0.0573934
0.0559151
0.370324
0.2808
0.224526
0.18626
0.158722
0.138034
0.121968
0.109146
0.0986986
0.0900184
0.0827121
0.0764634
0.0710815
0.066375
0.0622555
0.0585843
0.0553384
0.0523921
0.0497785
0.0473558
0.0452147
0.0431873
0.0413958
0.0396945
0.0381428
0.036743
0.0353273
0.0342322
0.0328653
0.0320745
0.0307096
0.0301897
0.0288476
0.0284946
0.0272967
0.026908
0.0260867
0.025385
0.025193
0.0240104
0.0244459
0.0230278
0.0236104
0.0226256
0.0227337
0.0225527
0.0223695
0.0222692
0.0230172
0.0218116
0.0242195
0.0222436
0.024983
0.0243702
0.025437
0.0274237
0.0269862
0.0302942
0.030358
0.0332779
0.0347891
0.0376501
0.0391981
0.0439435
0.0437839
0.0512535
0.050094
0.0576853
0.059737
0.0626695
0.0711994
0.0686088
0.0804293
0.078482
0.0863333
0.0918982
0.0923507
0.10548
0.101844
0.115997
0.114854
0.122274
0.12806
0.125864
0.137007
0.129626
0.139793
0.13431
0.137844
0.1394
0.133575
0.142844
0.131659
0.141317
0.134294
0.136481
0.138636
0.132052
0.141094
0.131893
0.370326
0.280811
0.224538
0.186271
0.158731
0.138039
0.121969
0.109143
0.0986912
0.0900079
0.0826949
0.0764451
0.0710542
0.0663499
0.0622183
0.0585549
0.0552929
0.0523627
0.0497303
0.04733
0.0451774
0.0431693
0.0413919
0.0396916
0.038207
0.0367753
0.0354976
0.0343583
0.0331683
0.0324221
0.0311614
0.0309706
0.0294876
0.0299584
0.0282898
0.0292618
0.0278531
0.028728
0.0284721
0.0284289
0.0301324
0.0288822
0.0324207
0.0308707
0.034983
0.0348162
0.0380886
0.0404235
0.0425527
0.047084
0.0489657
0.054691
0.0571952
0.0631848
0.0670218
0.0723744
0.0784303
0.0821356
0.0910189
0.0930048
0.103508
0.105734
0.114696
0.120232
0.124829
0.135357
0.135251
0.148884
0.147971
0.159325
0.162772
0.1674
0.17715
0.176297
0.188817
0.188457
0.197993
0.202835
0.206481
0.216172
0.215533
0.22557
0.224872
0.230438
0.232769
0.232412
0.237659
0.233415
0.239147
0.234934
0.237431
0.237506
0.234435
0.239216
0.233242
0.238444
0.234645
0.235694
0.237533
0.233605
0.370327
0.280823
0.224546
0.186273
0.158726
0.138023
0.121944
0.109106
0.098644
0.0899486
0.0826271
0.0763688
0.0709744
0.0662706
0.0621462
0.0584991
0.0552603
0.0523755
0.0497918
0.0474782
0.0454192
0.0435522
0.0419484
0.0404776
0.0392998
0.0382156
0.0374579
0.0368439
0.0364864
0.0365566
0.0365524
0.0376304
0.0378976
0.040301
0.0408822
0.044709
0.0459771
0.0508494
0.053631
0.0587729
0.0639586
0.0685652
0.0763649
0.0804962
0.0900791
0.0947392
0.104368
0.110835
0.119047
0.127746
0.13432
0.144628
0.15001
0.160589
0.16608
0.175413
0.18232
0.188999
0.198448
0.201796
0.213372
0.214812
0.225926
0.228802
0.236088
0.243455
0.245475
0.257145
0.25574
0.267784
0.267626
0.275179
0.280162
0.281745
0.291436
0.290289
0.300433
0.301094
0.307618
0.312145
0.313906
0.320916
0.319685
0.326097
0.324652
0.32798
0.328455
0.327831
0.330725
0.3273
0.330975
0.327811
0.32943
0.329175
0.327584
0.330097
0.326821
0.329817
0.327805
0.328728
0.370325
0.280829
0.224528
0.186235
0.158661
0.137929
0.121828
0.10896
0.0984928
0.0897874
0.0824957
0.076278
0.0709848
0.0664038
0.0624847
0.0590806
0.0562101
0.0537622
0.0517608
0.0501567
0.0490026
0.048257
0.0480868
0.0483921
0.0493983
0.0509773
0.0534289
0.0565625
0.0606626
0.0656335
0.0714841
0.0785337
0.0858254
0.0947537
0.103041
0.113508
0.12237
0.133817
0.143282
0.154933
0.165171
0.175726
0.186848
0.195716
0.207417
0.214875
0.226095
0.233275
0.242698
0.250709
0.257732
0.266792
0.27191
0.281291
0.285465
0.293932
0.298576
0.304776
0.311387
0.314301
0.323307
0.323567
0.33336
0.333672
0.341196
0.34473
0.347625
0.355409
0.353912
0.363837
0.361382
0.369329
0.370128
0.373377
0.378918
0.378332
0.386393
0.385082
0.392079
0.392617
0.396274
0.399265
0.399382
0.403831
0.401691
0.405904
0.403592
0.405828
0.405309
0.404588
0.406476
0.403533
0.406559
0.403518
0.405576
0.404465
0.404109
0.405663
0.403293
0.406267
0.370306
0.28079
0.224403
0.186076
0.158442
0.137691
0.121601
0.108818
0.0985591
0.0901631
0.0834248
0.077961
0.0737062
0.0703936
0.0681105
0.0666782
0.066322
0.0667915
0.0683981
0.0709841
0.0749336
0.0801475
0.0869622
0.0951405
0.104979
0.115997
0.128244
0.141217
0.155068
0.169399
0.184255
0.198983
0.213113
0.227152
0.239945
0.253057
0.264264
0.27638
0.286132
0.296974
0.305865
0.314965
0.323619
0.330588
0.339164
0.344373
0.352585
0.357106
0.364085
0.369121
0.374198
0.380116
0.383284
0.389719
0.391706
0.397849
0.399936
0.404604
0.408167
0.410252
0.416083
0.415506
0.42288
0.421464
0.428001
0.428592
0.431753
0.436113
0.435113
0.442483
0.439335
0.446631
0.445091
0.44927
0.451681
0.452154
0.457832
0.456267
0.462574
0.461225
0.465703
0.465988
0.467431
0.469687
0.468203
0.471787
0.4687
0.472082
0.469549
0.470949
0.470788
0.469284
0.471794
0.468241
0.471831
0.468532
0.470664
0.470052
0.469075
0.471767
0.370195
0.280542
0.224228
0.186053
0.158711
0.13852
0.123429
0.112324
0.104421
0.0992822
0.0968384
0.0965707
0.0983712
0.102007
0.107632
0.115006
0.124346
0.13545
0.148586
0.163401
0.180315
0.198736
0.218291
0.238261
0.258314
0.277663
0.295846
0.312645
0.328152
0.342239
0.354972
0.366595
0.377023
0.386797
0.395275
0.40379
0.410718
0.418334
0.424017
0.430643
0.435442
0.440762
0.44541
0.449054
0.453747
0.456117
0.460831
0.462623
0.466781
0.468987
0.471917
0.475067
0.476663
0.480637
0.481231
0.485455
0.485963
0.489405
0.490978
0.492574
0.496061
0.495355
0.50064
0.498658
0.504095
0.503109
0.506334
0.508247
0.50801
0.512989
0.510181
0.516303
0.513778
0.518451
0.518656
0.520383
0.523808
0.522873
0.527986
0.525981
0.530593
0.529152
0.531621
0.53191
0.531525
0.533842
0.531051
0.534523
0.531068
0.533818
0.531946
0.532171
0.533312
0.53055
0.534179
0.530073
0.53375
0.531202
0.532159
0.533318
0.369474
0.281384
0.228611
0.193059
0.170709
0.155957
0.150114
0.150452
0.156553
0.167305
0.181628
0.19881
0.21842
0.23972
0.262347
0.285624
0.309399
0.333094
0.356939
0.38029
0.403305
0.423858
0.441748
0.457303
0.470502
0.482397
0.49251
0.501012
0.508363
0.514599
0.520109
0.524965
0.529185
0.533124
0.536293
0.539692
0.542046
0.545177
0.546984
0.549877
0.551477
0.55386
0.555693
0.55729
0.559534
0.560333
0.562842
0.563192
0.565601
0.566171
0.567857
0.569244
0.569958
0.572196
0.572105
0.57489
0.574541
0.577101
0.577414
0.578746
0.580545
0.580062
0.583584
0.58169
0.586004
0.58427
0.587404
0.587616
0.588158
0.591001
0.589099
0.59374
0.591162
0.595656
0.594551
0.5971
0.598552
0.598531
0.602008
0.600201
0.604171
0.601984
0.604872
0.603745
0.604416
0.605271
0.603445
0.606172
0.602837
0.60599
0.603167
0.604778
0.604386
0.603091
0.605681
0.602053
0.606014
0.602448
0.60497
0.604301
0.372191
0.315456
0.292823
0.279519
0.286386
0.295374
0.331462
0.373614
0.41862
0.463064
0.504554
0.541601
0.573478
0.599924
0.62122
0.637809
0.650546
0.660071
0.66742
0.67305
0.677643
0.681649
0.685133
0.688108
0.690608
0.692628
0.694344
0.695581
0.696494
0.696983
0.697274
0.697365
0.697321
0.697318
0.697026
0.697106
0.696617
0.696872
0.696302
0.696699
0.696228
0.696601
0.696478
0.696537
0.696895
0.696502
0.697223
0.696553
0.697431
0.69684
0.69744
0.697441
0.697422
0.698182
0.697601
0.698982
0.698108
0.699663
0.699085
0.700014
0.70047
0.700156
0.702035
0.700515
0.703411
0.701545
0.704135
0.703285
0.704296
0.705338
0.704445
0.707357
0.705335
0.708946
0.707326
0.710041
0.710036
0.710752
0.712521
0.711337
0.714122
0.711942
0.714591
0.712732
0.714061
0.713676
0.712985
0.714517
0.71204
0.714771
0.711856
0.714145
0.712632
0.712817
0.713896
0.711582
0.714708
0.711259
0.71436
0.712244
0.606742
0.839813
0.952198
0.969554
0.937536
0.881262
0.821359
0.769007
0.724418
0.688386
0.660681
0.640129
0.625397
0.614955
0.607664
0.602391
0.598511
0.595429
0.592916
0.590804
0.588977
0.587528
0.586344
0.585459
0.584759
0.584199
0.583772
0.583411
0.583093
0.582732
0.582341
0.581881
0.581385
0.580873
0.58029
0.579789
0.57914
0.578693
0.578018
0.577644
0.577
0.576678
0.576142
0.575817
0.575471
0.575064
0.574928
0.574437
0.574446
0.573959
0.57398
0.573648
0.573542
0.573492
0.573191
0.573427
0.572997
0.573398
0.573017
0.57335
0.573266
0.573308
0.573698
0.573357
0.57419
0.573598
0.574564
0.574114
0.574783
0.574899
0.57498
0.575834
0.575401
0.576687
0.57611
0.57725
0.576953
0.577463
0.577677
0.577427
0.578093
0.577297
0.578132
0.577256
0.577877
0.577374
0.577426
0.577602
0.576974
0.577758
0.576754
0.577676
0.576878
0.57733
0.577272
0.576841
0.577622
0.576426
0.577318
0.575769
0.0918745
2.13054
2.78335
3.01147
3.14122
3.22909
3.23236
3.19723
3.13214
2.97474
2.76969
2.51765
2.2301
1.9666
1.77645
1.61558
1.51127
1.41216
1.29793
1.15656
0.986066
0.696414
0.386555
0.26121
0.0806782
0.102891
0.145013
0.0717412
0.220752
0.467426
0.644308
0.722003
0.731058
0.710373
0.690103
0.670524
0.635119
0.576997
0.499846
0.413759
0.32912
0.253497
0.191711
0.144448
0.109008
0.0824869
0.062624
0.0479532
0.0373882
0.0299214
0.0246611
0.0209284
0.0182326
0.0162486
0.0147714
0.0136753
0.0128733
0.0123016
0.0118983
0.0116037
0.0113569
0.0111194
0.0108755
0.0106368
0.0104183
0.010238
0.010101
0.0100087
0.00994877
0.00991434
0.00989305
0.00988263
0.00987532
0.00987299
0.00987002
0.00987019
0.00986845
0.00986941
0.00986796
0.00986922
0.00986779
0.00986919
0.00986771
0.00986922
0.00986765
0.00986926
0.0098676
0.00986931
0.00986755
0.00986935
0.0098675
0.00986939
0.00986744
0.00986942
0.00986737
0.00986942
0.00986732
0.00986953
0.00986771
0.00987128
0.450305
1.01664
1.95874
2.43488
2.64996
2.78884
2.82618
2.80852
2.76112
2.61963
2.42876
2.19543
1.92723
1.67459
1.49393
1.33067
1.233
1.14292
1.04372
0.903828
0.721732
0.450359
0.163509
0.12984
0.0597628
0.0608417
0.172376
0.0485583
0.106296
0.346281
0.554176
0.663239
0.691497
0.679253
0.661136
0.641563
0.605182
0.545512
0.467955
0.383206
0.300772
0.228052
0.169555
0.125265
0.0927367
0.0690857
0.0519512
0.0397653
0.0313149
0.0255496
0.0216147
0.018874
0.0168872
0.0153887
0.0142268
0.0133227
0.012629
0.0121132
0.0117368
0.0114583
0.011229
0.0110145
0.0107963
0.0105834
0.010388
0.0102254
0.0100982
0.0100105
0.0099524
0.0099188
0.00989751
0.00988707
0.00987943
0.00987706
0.0098738
0.00987405
0.00987209
0.0098732
0.00987153
0.00987299
0.00987133
0.00987297
0.00987123
0.00987301
0.00987116
0.00987306
0.0098711
0.00987312
0.00987103
0.00987319
0.00987097
0.00987325
0.00987091
0.00987333
0.00987088
0.00987345
0.00987096
0.00987386
0.00987177
0.00987646
0.57775
0.506945
0.938097
1.4973
1.86386
2.12443
2.24544
2.2833
2.28349
2.1788
2.01901
1.81432
1.57246
1.33715
1.17301
1.00388
0.91463
0.83814
0.757883
0.615944
0.413586
0.204011
0.0263448
0.0717574
0.0984718
0.0744547
0.225831
0.144202
0.0451125
0.224159
0.446969
0.588028
0.639042
0.63773
0.622863
0.60358
0.56672
0.506183
0.429285
0.347021
0.268047
0.19944
0.145095
0.104728
0.0760687
0.0560219
0.0421151
0.0326398
0.0263087
0.022121
0.0193193
0.017367
0.0159185
0.0147774
0.0138416
0.0130712
0.0124491
0.0119665
0.0116028
0.0113309
0.0111118
0.010916
0.0107223
0.0105348
0.0103615
0.0102158
0.0100987
0.0100159
0.00995925
0.00992593
0.00990406
0.00989323
0.00988493
0.00988238
0.00987868
0.00987897
0.0098767
0.00987798
0.00987604
0.00987774
0.0098758
0.00987771
0.00987567
0.00987777
0.00987558
0.00987784
0.0098755
0.00987792
0.00987542
0.00987801
0.00987534
0.00987812
0.00987529
0.00987827
0.0098753
0.00987856
0.00987558
0.00987939
0.00987699
0.00988317
0.533092
0.469793
0.51628
0.732631
0.957486
1.26657
1.47576
1.59178
1.66537
1.61954
1.51346
1.35093
1.14499
0.937092
0.797456
0.622035
0.548276
0.492851
0.428274
0.289761
0.116291
0.0582371
0.022514
0.0847807
0.158501
0.141858
0.295086
0.308081
0.0909257
0.131008
0.330355
0.494586
0.570776
0.583047
0.572879
0.554305
0.517297
0.456894
0.38185
0.303403
0.229602
0.166942
0.118505
0.0838117
0.0602072
0.0444145
0.0339466
0.0270817
0.0226161
0.0196998
0.0177386
0.0163415
0.0152621
0.0143634
0.0135801
0.0128979
0.0123195
0.0118532
0.0114917
0.0112192
0.0110051
0.0108241
0.0106534
0.0104907
0.010338
0.0102074
0.0101007
0.0100239
0.00996936
0.00993623
0.00991342
0.00990185
0.0098926
0.00988967
0.0098854
0.00988565
0.009883
0.00988443
0.00988219
0.00988412
0.00988189
0.00988408
0.00988173
0.00988415
0.00988162
0.00988423
0.00988152
0.00988434
0.00988142
0.00988446
0.00988133
0.00988461
0.00988128
0.00988484
0.00988136
0.00988531
0.00988188
0.00988662
0.00988396
0.00989175
0.460365
0.435566
0.419855
0.474681
0.480619
0.60506
0.727663
0.836208
0.952858
0.961873
0.921249
0.810969
0.654097
0.495387
0.383952
0.220849
0.181918
0.163849
0.0841498
0.0241178
0.0258909
0.0660708
0.066302
0.128014
0.235187
0.259137
0.398538
0.487784
0.261024
0.112996
0.225612
0.386916
0.484465
0.51242
0.508693
0.49152
0.454538
0.395254
0.323759
0.251278
0.185448
0.131788
0.0920137
0.0647594
0.046907
0.0354033
0.0280299
0.0232893
0.0202063
0.0181543
0.0167316
0.0156807
0.0148324
0.0140894
0.0134062
0.0127814
0.0122286
0.0117672
0.0114003
0.0111216
0.0109075
0.0107366
0.0105849
0.0104449
0.0103121
0.0101976
0.0101026
0.0100331
0.00998131
0.0099485
0.00992469
0.00991211
0.00990176
0.00989822
0.0098933
0.00989336
0.00989035
0.00989181
0.00988933
0.00989139
0.00988896
0.00989133
0.00988878
0.00989139
0.00988864
0.00989149
0.00988853
0.00989161
0.00988842
0.00989174
0.00988834
0.00989192
0.0098883
0.00989221
0.00988844
0.00989283
0.00988918
0.00989454
0.00989184
0.00990083
0.385283
0.375273
0.364713
0.374997
0.350033
0.36737
0.375207
0.384995
0.420055
0.40806
0.389036
0.318951
0.21675
0.14597
0.0387277
0.004423
0.0495499
0.0374556
0.0292708
0.0147103
0.0597487
0.0996129
0.115654
0.198115
0.340806
0.419598
0.550075
0.67243
0.502698
0.214945
0.172478
0.284042
0.383697
0.424654
0.428547
0.413632
0.377259
0.321177
0.256767
0.194624
0.141416
0.10017
0.0706583
0.0507761
0.0378825
0.0296918
0.0244821
0.021099
0.0188302
0.017257
0.0161237
0.0152618
0.0145481
0.0139039
0.0132891
0.0127044
0.0121678
0.0117051
0.0113276
0.0110374
0.0108171
0.0106494
0.0105107
0.0103903
0.0102785
0.010182
0.0101
0.0100382
0.00998987
0.00995782
0.00993352
0.00992004
0.0099088
0.00990455
0.0098991
0.00989882
0.00989559
0.00989691
0.00989436
0.00989636
0.00989391
0.00989626
0.0098937
0.0098963
0.00989357
0.00989639
0.00989346
0.0098965
0.00989336
0.00989664
0.00989328
0.00989681
0.00989326
0.00989712
0.00989346
0.0098978
0.00989431
0.0098997
0.00989726
0.00990659
0.30286
0.297473
0.297833
0.291274
0.277953
0.269072
0.251375
0.24171
0.220267
0.19778
0.157045
0.117855
0.075726
0.0409499
0.0493333
0.0463033
0.049111
0.0525578
0.0452299
0.0599352
0.108346
0.14872
0.191453
0.309955
0.486102
0.614945
0.74634
0.86979
0.756621
0.429856
0.221392
0.224169
0.289511
0.328057
0.336329
0.323762
0.290103
0.242452
0.193191
0.149726
0.113656
0.0844708
0.061837
0.0454872
0.0345712
0.0276076
0.0231716
0.0202556
0.0182545
0.0168334
0.0157957
0.0150073
0.0143602
0.0137769
0.0132114
0.0126582
0.0121336
0.0116665
0.0112749
0.0109678
0.0107348
0.0105627
0.0104301
0.0103248
0.0102327
0.0101539
0.0100848
0.0100307
0.00998666
0.00995641
0.00993286
0.0099193
0.00990799
0.00990332
0.00989778
0.00989713
0.00989394
0.00989499
0.00989256
0.00989434
0.00989207
0.00989419
0.00989186
0.00989421
0.00989174
0.00989428
0.00989164
0.00989438
0.00989155
0.00989449
0.00989149
0.00989465
0.00989149
0.00989493
0.0098917
0.00989556
0.00989254
0.00989736
0.00989538
0.00990407
0.207689
0.20597
0.211163
0.199393
0.195656
0.18091
0.162687
0.155941
0.126982
0.10777
0.0922773
0.0543979
0.045859
0.0448252
0.0340863
0.0367733
0.0515618
0.0573049
0.0743507
0.12081
0.17738
0.22479
0.303137
0.464812
0.667149
0.833454
0.975894
1.08882
1.0057
0.693751
0.388833
0.256938
0.243665
0.253725
0.255235
0.242266
0.216514
0.188875
0.166918
0.147424
0.124762
0.0983899
0.0727333
0.0524129
0.0385462
0.0297854
0.0243423
0.0208666
0.0185443
0.0169359
0.0157952
0.0149612
0.0143073
0.0137399
0.0131978
0.0126616
0.0121403
0.0116624
0.0112507
0.0109206
0.010668
0.0104841
0.0103499
0.010252
0.0101732
0.0101083
0.0100507
0.0100045
0.00996624
0.00993952
0.00991853
0.00990618
0.00989591
0.00989153
0.00988649
0.00988578
0.00988289
0.00988375
0.00988158
0.00988313
0.0098811
0.00988298
0.0098809
0.009883
0.00988078
0.00988307
0.00988068
0.00988316
0.0098806
0.00988327
0.00988054
0.00988341
0.00988053
0.00988364
0.0098807
0.00988418
0.00988142
0.00988571
0.00988391
0.0098917
0.110447
0.111066
0.114469
0.102424
0.106552
0.0865253
0.0825612
0.0736237
0.0520728
0.0551395
0.0360492
0.0283274
0.0447969
0.040791
0.0587325
0.0910405
0.104511
0.126103
0.167752
0.215131
0.261182
0.329062
0.455265
0.654262
0.869671
1.0596
1.22432
1.32859
1.25539
0.967921
0.622402
0.393195
0.292751
0.253601
0.234772
0.220123
0.212186
0.213845
0.21629
0.206884
0.180616
0.142746
0.104291
0.0733795
0.0518678
0.0380563
0.0294625
0.0240619
0.0205602
0.0182272
0.0166448
0.015544
0.0147292
0.0140614
0.0134517
0.012862
0.0122908
0.0117621
0.0113016
0.010928
0.0106415
0.0104341
0.0102873
0.010186
0.0101113
0.0100541
0.0100055
0.0099675
0.00993624
0.00991493
0.0098981
0.00988867
0.00988037
0.00987733
0.00987301
0.00987295
0.00987017
0.00987146
0.00986909
0.00987105
0.00986864
0.00987103
0.00986839
0.00987114
0.0098682
0.0098713
0.00986801
0.00987148
0.00986784
0.00987167
0.00986769
0.00987191
0.00986759
0.00987225
0.00986767
0.00987287
0.00986835
0.0098745
0.00987101
0.00988058
0.0378749
0.0494747
0.0421807
0.0412924
0.0464406
0.031075
0.0445386
0.0330515
0.0369665
0.0475244
0.0437315
0.0683433
0.0886715
0.105596
0.144831
0.171394
0.18418
0.224125
0.26967
0.306199
0.362838
0.476882
0.649012
0.853981
1.0691
1.27433
1.45056
1.54922
1.48524
1.23373
0.89156
0.608646
0.438042
0.353291
0.317874
0.309777
0.318099
0.328603
0.325194
0.299658
0.254382
0.200045
0.148508
0.106688
0.0762254
0.0555439
0.0419681
0.0330613
0.0271205
0.0231251
0.0204255
0.0185508
0.0171559
0.0160092
0.014978
0.0140139
0.0131225
0.0123344
0.0116748
0.0111563
0.010769
0.0104953
0.010307
0.0101829
0.0100985
0.0100422
0.00999961
0.0099711
0.00994813
0.00993539
0.00992362
0.00991987
0.00991332
0.00991406
0.00990923
0.00991221
0.00990751
0.00991189
0.00990659
0.00991216
0.00990592
0.00991265
0.00990529
0.00991326
0.0099046
0.00991399
0.00990384
0.00991478
0.0099031
0.00991559
0.00990239
0.0099166
0.00990174
0.00991796
0.00990161
0.00992016
0.00990314
0.00992499
0.0099101
0.00993875
0.0511633
0.0602378
0.0500837
0.0633869
0.0583968
0.0651512
0.0773125
0.0754571
0.0975472
0.106926
0.122973
0.157693
0.177088
0.209829
0.250693
0.266404
0.293629
0.344571
0.374572
0.405756
0.500372
0.656676
0.836603
1.01512
1.20619
1.40616
1.58184
1.68121
1.63809
1.43363
1.13206
0.846896
0.647648
0.538847
0.493882
0.479259
0.47155
0.455922
0.423983
0.374721
0.313518
0.250002
0.192617
0.145672
0.109826
0.0837817
0.065377
0.0524585
0.0433328
0.0369161
0.0324053
0.0290629
0.0263013
0.0237631
0.0213006
0.0189332
0.0167729
0.0149425
0.0134909
0.0124122
0.0116426
0.0111247
0.0107806
0.0105708
0.0104413
0.010379
0.010343
0.0103384
0.0103323
0.010344
0.0103414
0.0103554
0.0103486
0.0103632
0.0103516
0.0103678
0.0103518
0.0103708
0.0103504
0.0103735
0.0103482
0.0103762
0.0103456
0.0103793
0.0103423
0.010383
0.0103385
0.010387
0.0103348
0.0103911
0.0103313
0.0103963
0.0103277
0.010404
0.0103266
0.0104163
0.0103336
0.0104426
0.0103671
0.0105084
0.139389