/*--------------------------------*- C++ -*----------------------------------*\
| =========                 |                                                 |
| \\      /  F ield         | OpenFOAM: The Open Source CFD Toolbox           |
|  \\    /   O peration     | Version:  v2012                                 |
|   \\  /    A nd           | Website:  www.openfoam.com                      |
|    \\/     M anipulation  |                                                 |
\*---------------------------------------------------------------------------*/
FoamFile
{
    version     2.0;
    format      ascii;
    class       volScalarField;
    location    "0.083";
    object      omega.air;
}
// * * * * * * * * * * * * * * * * * * * * * * * * * * * * * * * * * * * * * //

dimensions      [0 0 -1 0 0 0 0];


internalField   nonuniform List<scalar> 
5600
(
6586.27
7485.52
7886.79
7965.16
7866.39
7687.53
7480.89
7290.07
7125.28
6987.92
6878.76
6796.42
6736.11
6693.64
6663.42
6642.51
6626.86
6615.09
6605.1
6596.73
6589.31
6582.9
6577.71
6573.66
6570.38
6567.92
6566.05
6564.74
6563.74
6562.94
6562.09
6560.97
6559.54
6557.89
6556.16
6554.46
6552.77
6550.99
6549.05
6546.96
6544.7
6542.31
6540.03
6537.92
6536.2
6534.74
6533.85
6532.98
6532.89
6532.26
6532.98
6532.13
6533.83
6532.15
6535
6531.84
6536.25
6531.08
6537.62
6529.82
6539.4
6527.82
6541.89
6525.16
6544.37
6523.79
6543.49
6528.27
6534.36
6542.1
6517.43
6558.82
6506.04
6560.49
6517.9
6534.28
6555.23
6492.73
6592.71
6468.83
6599.6
6481.44
6568.54
6523.96
6516.82
6575.62
6469.82
6606.44
6467.89
6563.69
6560.21
6421.37
6720.35
6285.86
6804.21
6237.66
6817.79
6039.56
7170.05
4245.3
2450.52
2296.6
2571.64
2795.04
2928.27
2997.99
3010.23
2968.23
2969.03
3017.14
3073.62
3118.83
3147.34
3158.27
3155.09
3140.42
3118.26
3091.21
3062.16
3032.57
3003.34
2974.05
2944.79
2916.31
2889.02
2863.4
2839.67
2817.77
2797.4
2778.69
2761.53
2745.93
2731.69
2718.63
2706.65
2695.75
2685.96
2677.14
2669.15
2661.96
2655.56
2649.85
2644.78
2640.45
2636.94
2634.16
2632.11
2630.6
2629.63
2628.94
2628.6
2628.33
2628.39
2628.42
2628.79
2628.8
2629.18
2629.01
2629.43
2629.08
2629.63
2629.05
2629.84
2628.88
2630.13
2628.57
2630.31
2628.71
2629.85
2629.15
2629.29
2630.36
2627.61
2631.53
2627.81
2629.99
2629.26
2628.22
2632.56
2624.11
2635.56
2623.43
2633.27
2625.62
2630.73
2627.65
2627.9
2631.25
2626.62
2627.98
2634.37
2619.63
2646.66
2606.18
2672.44
2585.88
2712.6
2512.4
2847.1
2320.22
2358.55
1859.91
1592.17
1427.78
1346.12
1273.74
1280.08
1309.01
1351.98
1412.37
1482.46
1549.28
1611.33
1663.76
1705
1733.29
1749.25
1752.26
1744.48
1726.3
1702.56
1676.69
1653.64
1634.76
1619.3
1605.67
1593.18
1581.9
1571.34
1561.21
1551.1
1540.95
1531.02
1521.48
1512.47
1504
1496.05
1488.55
1481.46
1474.75
1468.56
1462.89
1457.85
1453.52
1450
1447.3
1445.33
1443.94
1443.08
1442.45
1442.22
1441.93
1442.11
1441.95
1442.51
1442.2
1442.96
1442.31
1443.3
1442.25
1443.63
1442.01
1444.09
1441.51
1444.71
1441.04
1444.87
1441.52
1443.65
1443.62
1440.65
1446.88
1438.16
1447.57
1440.13
1442.97
1446.84
1435.05
1454.24
1430
1456
1432.54
1450.33
1439.87
1441.96
1447.9
1435.07
1451.95
1437.06
1441.54
1457.61
1415.78
1484.47
1392.37
1498.86
1388.56
1504.37
1382.61
1564.12
1397.99
2345.17
1822.36
1493.24
1267.63
1111.19
992.54
906.984
846.795
802.77
776.546
760.708
769.255
791.752
823.92
861.183
902.019
941.539
978.337
1011.49
1039.37
1061.64
1078.93
1091.79
1100.73
1105.89
1106.81
1103.56
1096.9
1087.99
1078.23
1068.77
1060.65
1053.7
1047.6
1042.18
1037.21
1032.47
1027.85
1023.26
1018.47
1013.54
1008.4
1003.47
999.157
995.653
993.036
991.174
989.994
989.252
988.873
988.702
988.649
988.789
988.838
989.255
989.156
989.704
989.351
989.979
989.406
990.202
989.225
990.673
988.581
991.576
987.665
992.352
987.48
991.524
989.654
987.959
993.587
984.852
994.75
986.611
989.657
994.787
979.926
1002.13
975.981
1002.91
980
997.177
988.38
988.272
995.827
982.542
998.51
987.105
987.655
1007.19
968.433
1022.42
965.199
1027.8
977.455
1010.92
989.042
1031.05
1055.42
2341.97
1815.96
1479.82
1247.91
1079.74
952.533
853.249
774.552
710.706
658.816
616.194
581.894
556.276
536.017
523.824
514.551
514.015
520.719
532.45
548.972
568.844
591.64
616.363
641.751
667.421
691.92
714.042
732.81
748.402
760.713
770.295
777.448
782.387
785.418
786.955
787.249
786.247
783.841
779.978
775.159
769.62
764.532
760.14
756.635
753.906
752.079
750.752
750.186
749.741
749.95
749.856
750.401
750.368
751.056
750.976
751.659
751.367
752.157
751.424
752.615
751.367
752.725
751.925
751.675
753.901
749.07
756.782
746.749
757.905
748.646
754.233
755.266
747.485
760.095
746.729
757.831
755.387
749.867
767.681
744.043
768.209
746.532
764.389
750.255
764.16
758.693
760.169
764.455
760.75
754.847
776.236
745.124
795.489
749.121
772.335
785.027
735.182
800.549
721.873
849.792
2341.13
1814.12
1476.76
1243.88
1074.18
945.317
844.344
763.124
696.605
641.002
594.21
554.005
519.709
489.795
464.25
441.812
422.709
406.85
393.633
383.279
375.429
370.209
367.538
368.739
373.25
381.155
391.847
405.106
420.153
437.135
454.961
473.607
491.961
509.19
524.881
539.076
551.924
563.404
573.108
580.689
585.856
589.258
591.271
592.376
592.839
593.143
593.232
593.563
593.773
594.317
594.661
595.248
595.665
596.076
596.544
596.727
597.094
597.272
597.253
597.655
597.476
597.241
598.84
595.069
601.929
591.659
604.782
590.628
603.089
596.233
594.522
606.222
586.893
607.647
593.575
595.131
611.103
577.149
623.351
576.485
611.311
594.003
596.401
604.012
590.105
611.99
584.627
607.59
606.49
568.801
650.597
527.624
666.714
535.655
601.718
625.712
513.179
688.915
453.999
699.679
2340.86
1813.44
1475.75
1242.6
1072.61
943.44
842.127
760.561
693.566
637.528
590.04
549.238
513.867
482.892
455.601
431.368
409.749
390.397
373.014
357.375
343.335
330.685
319.39
309.395
300.715
293.264
287.242
282.366
278.961
276.682
276.458
278.253
282.049
287.684
294.614
302.628
311.758
322.531
335.016
348.571
362.699
375.945
387.583
396.831
404.119
408.863
412.735
414.141
416.468
415.562
417.986
415.113
418.842
413.959
419.937
412.68
421.577
410.991
423.93
408.414
426.924
405.624
428.532
406.332
423.706
416.355
408.389
435.568
388.372
449.297
383.404
436.338
412.27
393.914
460.135
348.961
485.288
339.029
462.401
381.557
405.692
442.647
351.822
484.504
319.451
484.695
340.211
419.511
435.394
312.115
535.623
226.843
546.998
255.446
445.863
371.129
325.654
497.504
250.932
494.521
2340.75
1813.13
1475.32
1242.07
1071.99
942.74
841.331
759.695
692.594
636.478
588.866
547.962
512.448
481.325
453.833
429.368
407.472
387.745
369.911
353.681
338.902
325.341
312.922
301.464
290.917
281.158
272.191
263.887
256.267
249.21
242.793
236.975
231.882
227.396
223.67
220.324
217.7
215.629
214.676
215.096
217.036
220.026
223.743
227.098
230.262
231.78
233.354
232.403
233.076
229.975
231.105
226.16
229.081
222.372
228.269
219.159
229.151
215.914
231.661
212.266
234.575
210.202
233.733
215.231
222.953
232.064
201.58
254.016
183.803
259.443
193.392
231.947
234.109
186.588
273.908
160.35
278.809
173.143
252.371
207.418
214.419
250.143
169.608
293.947
135.124
300.425
156.764
245.412
229.693
168.423
297.556
124.993
309.819
141.954
281.466
176.148
225.103
254.549
176.155
238.783
2340.71
1812.97
1475.11
1241.82
1071.69
942.418
840.978
759.316
692.188
636.046
588.405
547.474
511.93
480.776
453.248
428.747
406.804
387.035
369.138
352.85
337.976
324.33
311.778
300.184
289.447
279.473
270.195
261.542
253.46
245.886
238.777
232.088
225.825
219.942
214.454
209.258
204.366
199.726
195.39
191.414
187.867
184.705
181.912
179.241
176.722
173.951
171.313
168.171
165.537
162.21
160.073
156.882
155.733
152.835
152.99
150.139
151.773
148.337
151.664
147.078
151.904
146.75
151.117
148.506
147.899
152.858
142.871
157.554
140.212
157.45
144.465
150.065
153.69
141.051
160.268
138.545
159.611
141.986
155.742
145.963
150.505
153.602
138.679
167.583
127.134
172.944
132.974
159.931
150.6
142.464
163.761
134.818
166.186
136.691
162.63
142.989
147.179
169.542
125.85
160.655
2340.68
1812.9
1475.01
1241.7
1071.56
942.272
840.821
759.148
692.011
635.86
588.209
547.268
511.715
480.552
453.014
428.503
406.548
386.77
368.859
352.562
337.671
324.013
311.442
299.832
289.073
279.076
269.766
261.079
252.954
245.332
238.163
231.407
225.039
219.039
213.382
208.024
202.927
198.058
193.409
188.996
184.841
180.942
177.281
173.778
170.385
166.987
163.622
160.203
156.933
153.714
150.886
148.228
146.165
144.26
143.047
141.797
141.323
140.439
140.545
139.756
140.231
139.536
139.94
139.77
139.388
140.382
138.703
140.928
138.471
140.747
139.149
139.735
140.3
138.696
141.067
138.238
141.372
137.987
141.564
138.203
140.436
140.644
136.713
144.885
133.139
146.645
134.007
143.437
139.079
137.148
145.928
130.122
152.104
125.681
153.481
128.459
145.013
142.482
128.506
154.575
2340.68
1812.91
1475.02
1241.72
1071.58
942.289
840.838
759.165
692.027
635.876
588.225
547.283
511.729
480.566
453.027
428.517
406.561
386.783
368.871
352.575
337.683
324.025
311.455
299.845
289.086
279.09
269.78
261.093
252.969
245.35
238.181
231.427
225.062
219.067
213.413
208.062
202.97
198.108
193.47
189.072
184.937
181.063
177.426
173.954
170.579
167.214
163.851
160.471
157.178
154.014
151.131
148.557
146.396
144.622
143.248
142.206
141.469
140.92
140.613
140.308
140.263
140.048
140.126
139.978
140.03
140.031
139.896
140.174
139.719
140.348
139.573
140.413
139.656
140.104
140.264
139.165
141.482
137.858
142.535
137.502
141.807
139.482
138.726
143.177
134.915
146.609
132.122
148.364
132.02
145.953
137.649
136.946
148.659
125.154
158.699
117.889
162.05
119.745
154.706
132.129
2340.71
1813
1475.15
1241.86
1071.74
942.467
841.029
759.364
692.236
636.093
588.451
547.518
511.973
480.819
453.29
428.79
406.844
387.078
369.176
352.895
338.017
324.377
311.824
300.236
289.502
279.537
270.264
261.627
253.556
246.006
238.913
232.268
226.036
220.232
214.787
209.698
204.881
200.368
196.204
192.456
189.176
186.338
183.851
181.547
179.265
176.852
174.269
171.51
168.685
165.881
163.241
160.847
158.779
157.104
155.771
154.817
154.089
153.625
153.29
153.073
152.976
152.821
152.906
152.672
152.948
152.576
152.951
152.675
152.644
153.232
151.829
154.202
150.925
154.693
151.257
153.203
154.056
149.372
158.143
146.067
159.539
147.259
155.94
152.564
149.821
158.775
143.33
165.326
137.116
169.592
137.043
163.979
148.5
147.772
166.068
130.754
179.346
121.032
184.479
120.21
2340.76
1813.17
1475.39
1242.15
1072.07
942.821
841.416
759.774
692.677
636.555
588.948
548.037
512.528
481.402
453.915
429.453
407.559
387.848
370.011
353.819
339.035
325.525
313.126
301.735
291.231
281.588
272.703
264.577
257.098
250.323
244.191
238.809
234.156
230.376
227.19
224.806
222.921
222.133
222.698
224.849
228.521
233.262
238.395
243.201
247.134
249.887
251.441
251.93
251.618
250.737
249.53
248.196
246.893
245.81
244.923
244.353
243.875
243.662
243.423
243.373
243.288
243.217
243.349
243.014
243.581
242.722
243.835
242.625
243.574
243.467
241.969
245.873
238.984
248.847
236.894
248.915
239.767
242.697
248.7
232.739
257.173
227.778
257.017
232.453
249.183
242.112
238.248
254.699
223.64
269.127
212.33
272.19
219.473
255.282
243.449
228.103
268.267
204.527
281.884
192.058
2340.87
1813.49
1475.85
1242.71
1072.73
943.558
842.249
760.683
693.691
637.655
590.182
549.376
514.041
483.073
455.852
431.624
410.144
390.84
373.645
358.161
344.364
331.992
321.142
311.709
303.643
297.116
291.999
288.482
286.338
286.3
288.378
292.67
299.151
307.379
316.875
327.191
338.722
351.435
365.348
379.953
394.205
407.106
417.951
426.493
432.829
437.293
440.275
442.187
443.341
444.015
444.366
444.53
444.586
444.616
444.66
444.745
444.799
444.917
444.915
445.051
444.99
445.113
445.063
445.074
445.21
444.885
445.501
444.541
445.846
444.34
445.707
445.054
444.234
447.343
441.286
450.429
438.772
451.298
440.34
446.844
447.531
438.076
455.986
431.412
459.006
432.085
454.713
439.742
444.069
453.366
428.021
468.483
415.038
474.124
416.119
466.355
429.219
448.803
447.367
422.042
2341.15
1814.19
1476.91
1243.99
1074.37
945.466
844.554
763.351
696.854
641.373
594.589
554.639
520.467
490.986
465.758
443.816
425.853
410.612
398.922
389.598
383.749
380.124
380.96
385.303
393.402
404.755
418.997
435.248
453.223
472.111
491.865
511.462
529.962
546.629
561.273
573.962
584.952
594.312
601.594
606.957
610.589
612.672
613.543
613.649
613.414
613.151
613.01
613.073
613.303
613.673
614.113
614.594
615.065
615.473
615.835
616.102
616.335
616.486
616.598
616.693
616.707
616.802
616.731
616.869
616.716
616.904
616.74
616.804
616.981
616.397
617.557
615.727
618.157
615.456
617.789
616.739
615.5
619.801
612.262
622.213
611.697
620.231
616.149
614.271
622.203
609.321
625.293
607.838
625.339
609.523
621.001
617.486
609.709
630.329
596.592
640.486
588.939
642.52
590.555
629.508
2342.03
1815.98
1480.11
1247.96
1080.28
952.708
854.161
775.216
712.324
660.619
619.1
586.942
562.527
545.561
534.575
530.076
534.477
545.042
560.997
581.108
604.594
630.645
657.56
684.778
711.145
734.813
754.855
771.188
784.1
794.327
802.105
807.457
810.492
811.586
811.13
809.409
806.458
802.492
797.624
792.631
787.807
783.266
779.23
775.866
773.278
771.454
770.288
769.656
769.407
769.407
769.53
769.738
770.003
770.28
770.54
770.741
770.917
771.03
771.125
771.186
771.218
771.266
771.247
771.313
771.24
771.345
771.234
771.328
771.318
771.161
771.586
770.809
771.967
770.515
772.024
770.884
771.138
772.291
769.454
773.856
768.536
773.666
770.055
771.14
773.161
768.233
775.414
766.647
776.422
766.337
775.599
769.138
770.911
775.852
762.989
783.981
754.317
790.487
747.545
788.231
2345.25
1822.38
1493.87
1268.16
1113.22
994.179
912.615
852.011
814.456
787.912
783.71
800.052
829.058
866.065
907.642
950.247
990.256
1027
1058.27
1083.63
1103.45
1118.43
1129.08
1135.82
1137.48
1134.62
1127.82
1118.71
1108.83
1099.73
1091.94
1084.98
1078.57
1072.67
1067.22
1062.08
1057.14
1052.2
1047.19
1041.73
1035.92
1030.25
1025.11
1020.77
1017.34
1014.8
1013.03
1011.87
1011.16
1010.77
1010.58
1010.53
1010.58
1010.72
1010.88
1011.04
1011.18
1011.27
1011.35
1011.4
1011.43
1011.46
1011.46
1011.49
1011.47
1011.51
1011.47
1011.5
1011.51
1011.43
1011.62
1011.29
1011.77
1011.18
1011.76
1011.38
1011.32
1012.03
1010.57
1012.72
1010.16
1012.64
1010.87
1011.36
1012.46
1009.83
1013.69
1008.93
1014.29
1008.77
1013.8
1010.1
1011.44
1013.25
1007.47
1017.59
1001.78
1021.77
994.547
1021.7
2358.73
1860.9
1594.78
1434.01
1353.97
1289.02
1305.28
1337.24
1392.09
1465.21
1539.72
1610.25
1672.42
1723.04
1760.09
1783.39
1792.51
1788.87
1773.31
1750.17
1724.18
1700.74
1682.18
1666.49
1652.44
1639.44
1627.41
1616.05
1605.03
1593.85
1582.61
1571.64
1561.13
1551.19
1541.82
1533.03
1524.82
1517.1
1509.91
1503.22
1497.02
1491.39
1486.46
1482.37
1479.06
1476.53
1474.68
1473.38
1472.5
1471.94
1471.62
1471.46
1471.41
1471.48
1471.62
1471.77
1471.89
1471.99
1472.06
1472.11
1472.14
1472.17
1472.17
1472.2
1472.18
1472.21
1472.19
1472.2
1472.22
1472.15
1472.29
1472.08
1472.34
1472.05
1472.3
1472.23
1471.99
1472.64
1471.53
1473.02
1471.37
1472.87
1471.86
1472.04
1472.92
1470.99
1473.76
1470.39
1474.08
1470.43
1473.59
1471.45
1471.92
1473.39
1469.56
1475.44
1465.85
1476.99
1459.54
1473.04
2454.73
2305.74
2580.4
2808.66
2934.28
3009.96
2994.54
2967.47
3014.82
3085.65
3150.03
3196.63
3222.39
3229.89
3222.23
3203.96
3178.35
3148.78
3117.78
3086.39
3054.91
3023.05
2991.87
2961.54
2933.59
2907.33
2883.1
2860.58
2839.82
2820.72
2803.3
2787.49
2773.06
2759.79
2747.66
2736.68
2726.78
2717.88
2709.98
2702.98
2696.77
2691.3
2686.55
2682.55
2679.28
2676.72
2674.78
2673.36
2672.39
2671.77
2671.4
2671.19
2671.11
2671.19
2671.36
2671.53
2671.67
2671.78
2671.85
2671.9
2671.94
2671.96
2671.98
2671.99
2671.99
2672
2671.99
2672
2672
2671.99
2672.02
2671.96
2672.04
2671.94
2672.05
2671.96
2672.01
2672.04
2671.86
2672.24
2671.72
2672.24
2671.75
2672.18
2671.91
2671.84
2672.42
2671.36
2672.68
2671.24
2672.58
2671.3
2672.39
2671.61
2671.6
2671.93
2669.63
2670.77
2662.71
2663.09
6588.07
7481.94
7876.76
7935.98
7826.4
7629.95
7415.05
7222.06
7053.58
6914.37
6805.36
6723.38
6664.08
6621.62
6591.82
6570.24
6554.29
6541.58
6531.2
6522.46
6514.87
6508.87
6504.07
6500.4
6497.43
6495.01
6493.18
6491.71
6490.46
6489.2
6487.75
6485.98
6483.91
6481.68
6479.45
6477.33
6475.28
6473.24
6471.17
6469
6466.71
6464.38
6462.15
6460.13
6458.4
6457
6455.94
6455.21
6454.77
6454.55
6454.52
6454.61
6454.82
6455.05
6455.27
6455.45
6455.58
6455.69
6455.72
6455.8
6455.78
6455.85
6455.8
6455.87
6455.83
6455.84
6455.89
6455.74
6456.05
6455.54
6456.27
6455.36
6456.3
6455.62
6455.63
6456.82
6453.94
6458.77
6452.18
6459.83
6452.4
6458.04
6455.8
6453.54
6460.67
6449.29
6463.71
6447.94
6463.34
6450.43
6458.6
6457.87
6449.17
6468.66
6439.87
6476.77
6438.3
6479.88
6450.62
6487.62
3835.45
2828.33
2187.27
1744.53
1510.25
1411.62
1277.64
1235.33
1277.18
994.577
579.912
302.824
192.821
171.577
166.81
173.962
186.46
195.205
198.931
198.315
194.057
187.363
179.843
172.831
166.943
162.168
158.182
154.657
151.425
148.487
145.948
143.923
142.469
141.53
140.93
140.46
140.003
139.56
139.175
138.873
138.67
138.557
138.504
138.481
138.472
138.468
138.467
138.466
138.465
138.465
138.465
138.465
138.465
138.465
138.465
138.465
138.465
138.465
138.465
138.465
138.465
138.465
138.465
138.465
138.465
138.465
138.465
138.465
138.465
138.465
138.464
138.465
138.464
138.465
138.464
138.465
138.464
138.465
138.464
138.465
138.464
138.465
138.464
138.465
138.464
138.465
138.464
138.465
138.464
138.465
138.464
138.465
138.464
138.464
138.463
138.463
138.461
138.46
138.457
138.455
2884.39
2725.29
2327.85
1906.61
1608.39
1480.75
1297.55
1263.89
1267.94
860.285
440.913
236.232
170.441
161.397
161.348
165.439
173.69
180.421
184.161
185.17
183.513
179.619
174.498
169.237
164.513
160.494
157.023
153.874
150.919
148.171
145.743
143.764
142.31
141.352
140.747
140.303
139.893
139.499
139.153
138.873
138.67
138.55
138.488
138.459
138.445
138.439
138.436
138.434
138.433
138.433
138.432
138.432
138.432
138.432
138.432
138.432
138.432
138.432
138.432
138.432
138.432
138.432
138.432
138.432
138.432
138.432
138.432
138.432
138.432
138.432
138.432
138.433
138.432
138.433
138.432
138.433
138.432
138.433
138.431
138.433
138.431
138.433
138.431
138.433
138.431
138.433
138.431
138.434
138.431
138.434
138.43
138.434
138.43
138.434
138.429
138.433
138.428
138.432
138.427
138.434
1533.33
1960.39
2087.6
1944.9
1674.19
1542.87
1309.34
1302.34
1198.07
664.886
313.15
181.846
148.099
152.931
158.343
161.994
167.867
173.2
176.646
178.146
177.528
174.936
171.067
166.807
162.796
159.266
156.148
153.272
150.531
147.936
145.597
143.649
142.183
141.198
140.584
140.172
139.82
139.48
139.166
138.899
138.697
138.567
138.493
138.453
138.433
138.422
138.417
138.414
138.413
138.412
138.411
138.411
138.411
138.411
138.411
138.411
138.411
138.411
138.411
138.411
138.411
138.411
138.411
138.411
138.411
138.411
138.411
138.411
138.411
138.411
138.41
138.411
138.41
138.411
138.41
138.412
138.41
138.412
138.41
138.412
138.409
138.412
138.409
138.413
138.409
138.413
138.408
138.413
138.408
138.414
138.407
138.414
138.407
138.415
138.407
138.416
138.407
138.418
138.41
138.43
952.517
1189.78
1453.93
1646.84
1605.93
1531.23
1281.86
1323.77
991.079
424.045
215.013
149.621
139.643
154.231
161.781
163.523
166.693
170.532
173.442
174.852
174.448
172.307
168.985
165.226
161.606
158.366
155.478
152.801
150.229
147.765
145.504
143.578
142.091
141.069
140.438
140.05
139.757
139.474
139.196
138.948
138.751
138.614
138.528
138.477
138.448
138.432
138.423
138.418
138.416
138.415
138.414
138.413
138.413
138.413
138.413
138.413
138.413
138.413
138.413
138.413
138.413
138.413
138.413
138.413
138.413
138.413
138.413
138.413
138.413
138.413
138.413
138.413
138.412
138.414
138.412
138.414
138.412
138.414
138.412
138.414
138.411
138.415
138.411
138.415
138.41
138.416
138.41
138.417
138.409
138.417
138.408
138.418
138.408
138.42
138.407
138.422
138.409
138.428
138.417
138.45
707.668
815.907
979.52
973.246
1252.65
1243
1145.45
1189.83
573.161
227.933
172.292
128.924
132.53
158.526
167.969
167.224
167.524
169.779
172.085
173.285
172.862
170.855
167.753
164.219
160.788
157.703
154.957
152.422
149.991
147.645
145.458
143.554
142.042
140.973
140.304
139.918
139.666
139.439
139.208
138.994
138.817
138.681
138.586
138.524
138.486
138.464
138.451
138.444
138.44
138.438
138.436
138.436
138.435
138.435
138.435
138.435
138.435
138.435
138.435
138.435
138.435
138.435
138.435
138.435
138.435
138.435
138.435
138.435
138.435
138.435
138.435
138.436
138.435
138.436
138.434
138.436
138.434
138.436
138.434
138.437
138.433
138.437
138.433
138.438
138.432
138.439
138.431
138.439
138.43
138.44
138.43
138.442
138.429
138.443
138.429
138.447
138.432
138.455
138.443
138.485
500.291
616.257
697.741
621.779
812.925
665.525
859.513
610.313
177.064
180.022
157.095
111.1
138.836
182.616
189.562
179.658
172.736
171.277
172.087
172.725
172.11
170.085
167.044
163.589
160.226
157.208
154.543
152.113
149.801
147.565
145.455
143.579
142.047
140.923
140.195
139.775
139.532
139.352
139.175
139.007
138.857
138.732
138.637
138.569
138.525
138.497
138.481
138.472
138.466
138.464
138.462
138.461
138.461
138.461
138.461
138.461
138.46
138.46
138.46
138.46
138.46
138.46
138.46
138.46
138.46
138.46
138.46
138.461
138.46
138.461
138.46
138.461
138.46
138.461
138.46
138.461
138.459
138.462
138.459
138.462
138.458
138.463
138.458
138.463
138.457
138.464
138.457
138.465
138.456
138.466
138.455
138.467
138.455
138.469
138.455
138.472
138.458
138.482
138.471
138.514
324.863
482.501
386.286
507.046
420.562
441.887
442.509
163.08
149.886
191.318
132.085
103.124
177.274
243.734
241.108
211.147
188.107
177.642
174.333
173.257
171.983
169.744
166.654
163.195
159.833
156.824
154.196
151.838
149.623
147.488
145.46
143.626
142.087
140.914
140.117
139.637
139.372
139.213
139.083
138.956
138.834
138.726
138.639
138.575
138.532
138.505
138.489
138.479
138.474
138.471
138.469
138.468
138.468
138.468
138.468
138.467
138.467
138.467
138.467
138.467
138.467
138.467
138.467
138.467
138.467
138.467
138.467
138.467
138.467
138.468
138.467
138.468
138.467
138.468
138.467
138.468
138.466
138.469
138.466
138.469
138.466
138.47
138.465
138.47
138.464
138.471
138.464
138.471
138.463
138.472
138.463
138.473
138.462
138.475
138.462
138.478
138.466
138.487
138.478
138.517
247.834
253.498
221.96
261.145
259.396
269.066
209.556
155.534
167.684
165.006
101.014
138.636
277.698
365.621
344.601
279.351
225.533
195.668
182.435
176.797
173.497
170.366
166.877
163.217
159.732
156.639
153.967
151.613
149.443
147.38
145.427
143.646
142.125
140.928
140.077
139.537
139.23
139.065
138.956
138.857
138.761
138.674
138.605
138.554
138.519
138.497
138.484
138.476
138.471
138.469
138.467
138.467
138.466
138.466
138.466
138.466
138.466
138.466
138.466
138.466
138.466
138.466
138.466
138.466
138.466
138.466
138.466
138.466
138.466
138.466
138.466
138.466
138.466
138.467
138.465
138.467
138.465
138.467
138.465
138.468
138.464
138.468
138.464
138.468
138.463
138.469
138.463
138.47
138.462
138.47
138.462
138.471
138.461
138.473
138.461
138.475
138.464
138.483
138.474
138.509
161.511
163.422
138.904
154.333
180.512
137.268
174.08
103.942
155.884
157.414
114.557
252.322
451.576
550.56
512.818
403.576
302.058
238.932
206.208
189.724
180.621
174.426
169.268
164.644
160.556
157.054
154.1
151.57
149.325
147.263
145.352
143.619
142.13
140.938
140.067
139.491
139.149
138.962
138.854
138.771
138.697
138.633
138.583
138.548
138.525
138.511
138.503
138.498
138.495
138.494
138.493
138.493
138.492
138.492
138.492
138.492
138.492
138.492
138.492
138.492
138.492
138.492
138.492
138.492
138.492
138.492
138.492
138.492
138.492
138.492
138.492
138.492
138.492
138.493
138.491
138.493
138.491
138.493
138.491
138.493
138.49
138.494
138.49
138.494
138.489
138.495
138.489
138.496
138.488
138.496
138.488
138.497
138.487
138.498
138.487
138.501
138.489
138.506
138.497
138.528
122.658
165.442
106.036
171.929
115.492
155.78
147.234
109.202
204.094
139.708
179.03
457.27
703.527
789.243
735.416
598.807
443.654
325.367
256.296
220.005
199.755
186.662
177.048
169.534
163.574
158.859
155.13
152.14
149.659
147.502
145.556
143.799
142.277
141.051
140.147
139.54
139.17
138.961
138.846
138.773
138.717
138.675
138.645
138.626
138.615
138.609
138.606
138.604
138.604
138.603
138.603
138.603
138.603
138.603
138.603
138.603
138.603
138.603
138.603
138.603
138.603
138.603
138.603
138.603
138.603
138.603
138.603
138.603
138.603
138.603
138.603
138.603
138.603
138.604
138.602
138.604
138.602
138.604
138.602
138.605
138.601
138.605
138.601
138.606
138.6
138.606
138.599
138.607
138.598
138.608
138.597
138.609
138.597
138.611
138.596
138.613
138.597
138.618
138.604
138.637
137.38
149.24
116.381
169.512
99.3627
181.086
108.489
159.036
196.211
157.376
415.291
798.211
1020.98
1043.5
952.587
803.525
633.955
479.566
365.256
291.104
245.304
216.736
197.685
183.896
173.476
165.65
159.917
155.736
152.548
149.902
147.53
145.361
143.456
141.912
140.773
140.004
139.526
139.25
139.099
139.017
138.969
138.942
138.929
138.925
138.925
138.926
138.928
138.93
138.931
138.931
138.932
138.932
138.932
138.932
138.932
138.932
138.932
138.932
138.932
138.932
138.932
138.932
138.932
138.932
138.932
138.932
138.932
138.932
138.932
138.933
138.932
138.933
138.932
138.933
138.931
138.934
138.931
138.934
138.93
138.935
138.929
138.936
138.928
138.938
138.926
138.939
138.925
138.941
138.923
138.943
138.921
138.946
138.919
138.949
138.917
138.953
138.918
138.962
138.929
138.99
174.193
133.71
150.271
158.403
122.568
189.711
118.522
231.347
238.815
370.132
780.148
1135.19
1264.86
1214.5
1097.34
948.297
785.633
629.23
500.055
404.619
337.389
289.967
255.205
228.603
207.984
192.366
180.986
172.689
166.162
160.486
155.359
150.901
147.257
144.5
142.582
141.346
140.601
140.184
139.974
139.886
139.863
139.872
139.897
139.924
139.948
139.966
139.978
139.986
139.991
139.994
139.995
139.996
139.997
139.997
139.997
139.997
139.997
139.997
139.997
139.997
139.997
139.997
139.997
139.997
139.997
139.997
139.997
139.997
139.997
139.998
139.996
139.998
139.996
139.999
139.995
140.001
139.993
140.003
139.99
140.006
139.986
140.011
139.981
140.016
139.976
140.022
139.969
140.03
139.961
140.038
139.953
140.048
139.945
140.061
139.939
140.08
139.944
140.12
139.987
140.219
274.513
193.357
253.786
206.457
231.588
255.717
238.207
384.442
416.24
675.846
1117.81
1388.86
1409.42
1314.07
1195.61
1055.95
900.759
750.255
622.627
524.72
452.92
399.446
357.609
322.644
292.434
266.758
245.618
228.03
212.344
197.514
183.722
171.793
162.188
155.041
150.164
147.088
145.28
144.327
143.941
143.897
144.027
144.222
144.421
144.588
144.712
144.797
144.851
144.884
144.904
144.915
144.921
144.924
144.926
144.927
144.927
144.927
144.928
144.928
144.928
144.928
144.928
144.928
144.928
144.928
144.928
144.928
144.927
144.928
144.927
144.929
144.925
144.931
144.923
144.934
144.92
144.938
144.915
144.945
144.904
144.959
144.887
144.979
144.866
145.001
144.842
145.029
144.811
145.064
144.773
145.107
144.732
145.16
144.688
145.228
144.661
145.332
144.682
145.551
144.895
146.064
462.65
391.669
468.245
373.937
473.589
416.508
490.746
604.941
614.796
976.879
1435.45
1587.61
1476.29
1359.77
1261.2
1139.95
998.003
856.485
736.398
641.952
569.467
513.001
467.016
427.211
391.261
358.903
330.322
304.676
280.529
257.594
236.964
219.149
203.725
190.703
180.5
173.307
168.877
166.711
166.209
166.707
167.643
168.665
169.577
170.293
170.806
171.145
171.355
171.481
171.552
171.592
171.613
171.625
171.63
171.633
171.635
171.636
171.636
171.636
171.636
171.636
171.636
171.636
171.636
171.637
171.636
171.637
171.635
171.639
171.633
171.642
171.628
171.647
171.623
171.653
171.616
171.661
171.604
171.682
171.572
171.728
171.513
171.796
171.441
171.87
171.362
171.961
171.257
172.087
171.122
172.247
170.961
172.459
170.78
172.747
170.65
173.186
170.715
174.085
171.564
176.131
603.975
596.673
622.918
560.992
658.979
563.244
716.053
721.481
801.601
1341.05
1766.45
1695.53
1442.33
1324.53
1260.59
1176.87
1063.7
941.585
832.985
743.079
669.861
609.788
558.949
514.396
474.367
438.35
406.165
376.723
348.377
321.423
299.399
285.229
276.9
270.361
264.169
259.105
256.193
255.785
257.373
259.948
262.68
265.14
267.118
268.555
269.524
270.14
270.514
270.732
270.855
270.922
270.958
270.977
270.986
270.991
270.993
270.994
270.995
270.995
270.995
270.995
270.995
270.996
270.995
270.996
270.995
270.997
270.993
271
270.989
271.006
270.982
271.014
270.972
271.023
270.964
271.032
270.953
271.052
270.915
271.113
270.83
271.219
270.714
271.337
270.595
271.469
270.443
271.661
270.229
271.928
269.955
272.321
269.595
272.931
269.267
273.901
269.312
275.775
270.977
280.015
747.137
767.02
755.351
736.463
795.636
724.465
908.862
827.612
1152.33
1835.77
2054.41
1664.42
1316.68
1218.96
1183
1134.09
1055.77
961.132
867.654
785.038
716.041
659.963
613.865
574.613
540.241
509.812
482.73
458.063
434.576
411.905
392.658
382.723
384.35
391.819
399.763
406.626
412.634
418.221
423.359
427.698
431.11
433.684
435.537
436.786
437.573
438.041
438.309
438.457
438.536
438.576
438.597
438.607
438.613
438.615
438.616
438.617
438.617
438.617
438.617
438.617
438.617
438.617
438.617
438.618
438.617
438.618
438.617
438.619
438.615
438.623
438.61
438.629
438.603
438.636
438.597
438.638
438.599
438.635
438.602
438.639
438.582
438.677
438.53
438.739
438.469
438.8
438.407
438.89
438.298
439.069
438.106
439.413
437.784
440.118
437.336
441.521
437.078
444.407
438.663
450.461
984.245
1008.49
975.003
993.619
1007.02
1005.62
1166.28
1115.83
1760.1
2426.12
2197.39
1524.58
1218.57
1138.08
1098.77
1058.2
999.857
928.358
854.421
789.583
738.231
699.835
670.827
647.371
627.805
611.494
597.822
586.025
575.744
567.582
562.792
562.488
567.935
579.635
594.171
607.647
618.447
626.535
632.38
636.434
639.168
640.992
642.175
642.903
643.326
643.554
643.673
643.733
643.762
643.775
643.781
643.783
643.784
643.784
643.784
643.784
643.784
643.784
643.784
643.784
643.784
643.784
643.785
643.784
643.785
643.784
643.785
643.783
643.786
643.782
643.787
643.782
643.787
643.783
643.785
643.783
643.791
643.768
643.818
643.73
643.862
643.69
643.893
643.673
643.906
643.66
643.931
643.65
643.936