/*--------------------------------*- C++ -*----------------------------------*\
| =========                 |                                                 |
| \\      /  F ield         | OpenFOAM: The Open Source CFD Toolbox           |
|  \\    /   O peration     | Version:  v2012                                 |
|   \\  /    A nd           | Website:  www.openfoam.com                      |
|    \\/     M anipulation  |                                                 |
\*---------------------------------------------------------------------------*/
FoamFile
{
    version     2.0;
    format      ascii;
    class       volVectorField;
    location    "0.083";
    object      U.air;
}
// * * * * * * * * * * * * * * * * * * * * * * * * * * * * * * * * * * * * * //

dimensions      [0 1 -1 0 0 0 0];


internalField   nonuniform List<vector> 
1900
(
(39.9898 0.0007702 0)
(39.9906 0.00172759 0)
(39.9716 0.00331965 0)
(39.9481 0.00394414 0)
(39.9158 0.00616234 0)
(39.8654 0.0144427 0)
(39.7126 0.0297275 0)
(39.599 0.0692175 0)
(38.6403 0.22555 0)
(38.5228 0.568466 0)
(40.0054 0.00261163 0)
(39.9994 0.00667178 0)
(40.0067 0.0114342 0)
(40.0062 0.0131477 0)
(39.9917 0.0202337 0)
(39.9557 0.0440047 0)
(39.869 0.0829158 0)
(39.6907 0.219884 0)
(39.3077 0.477931 0)
(38.7008 1.3598 0)
(40.0025 -0.00127296 0)
(40.0115 0.00223232 0)
(40.0248 0.00601812 0)
(40.0136 0.0134815 0)
(40.0003 0.0274232 0)
(39.9706 0.0596853 0)
(39.9103 0.128602 0)
(39.7837 0.299107 0)
(39.6078 0.703976 0)
(39.3364 1.59501 0)
(39.9725 -0.000321539 0)
(39.9868 0.00189285 0)
(39.9807 0.00568768 0)
(39.9835 0.0155698 0)
(39.9818 0.0321226 0)
(39.9751 0.0730786 0)
(39.9331 0.161734 0)
(39.8713 0.35396 0)
(39.84 0.787078 0)
(39.8368 1.57754 0)
(40.0015 -0.000881723 0)
(40.0217 0.00395079 0)
(40.0164 0.00906067 0)
(40.0199 0.0176518 0)
(40.0223 0.0325168 0)
(40.0242 0.0759225 0)
(40.0272 0.171483 0)
(40.0347 0.364277 0)
(40.1112 0.770492 0)
(40.3213 1.44808 0)
(39.9923 -0.00761824 0)
(40.004 -0.00342783 0)
(40.0152 0.00321295 0)
(40.0302 0.0144237 0)
(40.0227 0.0340174 0)
(40.0102 0.0779965 0)
(40.0253 0.166981 0)
(40.0882 0.340922 0)
(40.2591 0.692833 0)
(40.612 1.25652 0)
(39.9604 -0.00271128 0)
(39.961 -0.00335491 0)
(39.9766 0.00337563 0)
(39.9729 0.0117928 0)
(39.9864 0.0319511 0)
(40.0138 0.0710331 0)
(40.0761 0.148003 0)
(40.1665 0.295106 0)
(40.3889 0.577446 0)
(40.8378 1.01731 0)
(40.008 -0.00134937 0)
(40.0163 -0.000763571 0)
(40.0148 0.00471315 0)
(40.0259 0.0104329 0)
(40.0458 0.0234727 0)
(40.0843 0.0510815 0)
(40.1589 0.109817 0)
(40.3038 0.223822 0)
(40.593 0.429827 0)
(41.1084 0.743792 0)
(39.9956 -0.00964291 0)
(40.0131 -0.00788134 0)
(40.0292 -0.00184122 0)
(40.0496 0.00197313 0)
(40.0643 0.0121775 0)
(40.0939 0.0314815 0)
(40.1777 0.0668672 0)
(40.346 0.135326 0)
(40.6714 0.262723 0)
(41.2093 0.454379 0)
(39.9552 -0.00858526 0)
(39.9456 -0.00703576 0)
(39.9475 -0.00651341 0)
(39.9306 -0.00517426 0)
(39.9398 -0.00153686 0)
(39.971 0.00560822 0)
(40.0554 0.0165857 0)
(40.1972 0.0381691 0)
(40.5167 0.0820668 0)
(41.0795 0.147209 0)
(32.7984 3.18464 0)
(25.8152 6.31762 0)
(26.4958 6.48117 0)
(26.9548 5.39574 0)
(26.7879 3.5817 0)
(26.5174 1.57765 0)
(26.5112 -0.388075 0)
(26.9668 -2.36491 0)
(28.1064 -4.29498 0)
(30.1512 -6.45051 0)
(32.149 -8.37557 0)
(32.3376 -8.67499 0)
(32.0095 -8.06876 0)
(31.2908 -6.71029 0)
(30.4412 -5.07259 0)
(29.743 -3.59181 0)
(29.2915 -2.46034 0)
(29.0163 -1.64919 0)
(28.8514 -1.09367 0)
(28.7542 -0.724791 0)
(28.695 -0.479979 0)
(28.6579 -0.324513 0)
(28.6343 -0.226049 0)
(28.617 -0.158016 0)
(28.6084 -0.118356 0)
(28.5905 -0.0898458 0)
(28.5846 -0.0728016 0)
(28.5817 -0.0599663 0)
(28.5811 -0.0514269 0)
(28.5808 -0.0449985 0)
(28.5798 -0.0405829 0)
(28.5775 -0.0377054 0)
(28.5739 -0.0359717 0)
(28.5691 -0.0352251 0)
(28.5632 -0.0352858 0)
(28.5564 -0.0358995 0)
(28.549 -0.0368694 0)
(28.5409 -0.0380651 0)
(28.5324 -0.0393913 0)
(28.5235 -0.0407736 0)
(28.5143 -0.0421489 0)
(28.5045 -0.0434594 0)
(28.4943 -0.044653 0)
(28.4835 -0.0456933 0)
(28.472 -0.0465623 0)
(28.4599 -0.0472629 0)
(28.4471 -0.0478228 0)
(28.4335 -0.0482931 0)
(28.4194 -0.0487251 0)
(28.4047 -0.0491639 0)
(28.3895 -0.049656 0)
(28.3739 -0.0502423 0)
(28.358 -0.0509515 0)
(28.3417 -0.0517963 0)
(28.3252 -0.0527609 0)
(28.3085 -0.0538125 0)
(28.2915 -0.0549166 0)
(28.2743 -0.0560445 0)
(28.2569 -0.0571762 0)
(28.2394 -0.0583061 0)
(28.2218 -0.0594433 0)
(28.2042 -0.0606072 0)
(28.1866 -0.0618059 0)
(28.169 -0.0630275 0)
(28.1514 -0.0642524 0)
(28.1339 -0.065458 0)
(28.1165 -0.0666208 0)
(28.0991 -0.0677189 0)
(28.0817 -0.0687334 0)
(28.0643 -0.0696483 0)
(28.0469 -0.0704505 0)
(28.0294 -0.0711325 0)
(28.0118 -0.0716961 0)
(27.994 -0.0721493 0)
(27.9761 -0.072503 0)
(27.958 -0.0727694 0)
(27.9398 -0.0729667 0)
(27.9213 -0.0731096 0)
(27.9025 -0.0732104 0)
(27.8836 -0.0732783 0)
(27.8644 -0.0733201 0)
(27.8451 -0.0733382 0)
(27.8255 -0.0733292 0)
(27.8058 -0.073291 0)
(27.7858 -0.0732318 0)
(27.7656 -0.0731618 0)
(27.7451 -0.0730918 0)
(27.7244 -0.0730275 0)
(27.7034 -0.0729791 0)
(27.6822 -0.0729519 0)
(27.6608 -0.0729626 0)
(27.6392 -0.0730211 0)
(27.6175 -0.0731822 0)
(27.5954 -0.0734373 0)
(27.5736 -0.073971 0)
(27.5508 -0.0746295 0)
(27.5297 -0.0759968 0)
(27.5045 -0.0773839 0)
(27.4873 -0.0800798 0)
(27.452 -0.0825533 0)
(38.9783 5.06999 0)
(39.1805 7.477 0)
(39.1196 7.01396 0)
(38.5909 5.53769 0)
(37.9603 3.59224 0)
(37.6004 1.4777 0)
(37.6309 -0.562095 0)
(38.2955 -2.62507 0)
(39.3094 -4.66838 0)
(40.1959 -6.84869 0)
(39.8436 -8.19305 0)
(38.2462 -8.50291 0)
(36.1086 -7.73616 0)
(33.9626 -6.30808 0)
(32.1644 -4.70776 0)
(30.9364 -3.34747 0)
(30.1695 -2.30356 0)
(29.6899 -1.54985 0)
(29.3928 -1.03313 0)
(29.2082 -0.683791 0)
(29.0924 -0.456683 0)
(29.0176 -0.310662 0)
(28.9667 -0.212814 0)
(28.9334 -0.152512 0)
(28.908 -0.110747 0)
(28.892 -0.0870351 0)
(28.8798 -0.0712437 0)
(28.867 -0.0581166 0)
(28.8553 -0.0495489 0)
(28.8451 -0.0436307 0)
(28.8357 -0.0395106 0)
(28.8268 -0.0369261 0)
(28.8178 -0.0355606 0)
(28.8085 -0.0352318 0)
(28.7987 -0.0356514 0)
(28.7886 -0.036582 0)
(28.778 -0.0378661 0)
(28.767 -0.039378 0)
(28.7557 -0.0410133 0)
(28.744 -0.0426851 0)
(28.7318 -0.0443198 0)
(28.7191 -0.0458541 0)
(28.7059 -0.0472355 0)
(28.6921 -0.0484293 0)
(28.6776 -0.0494226 0)
(28.6624 -0.0502281 0)
(28.6466 -0.0508836 0)
(28.6302 -0.0514421 0)
(28.6132 -0.0519492 0)
(28.5958 -0.0524505 0)
(28.5781 -0.0530052 0)
(28.5603 -0.0536657 0)
(28.5424 -0.0544564 0)
(28.5245 -0.0553761 0)
(28.5066 -0.0563997 0)
(28.4886 -0.0574911 0)
(28.4707 -0.058617 0)
(28.4527 -0.0597509 0)
(28.4347 -0.0608746 0)
(28.4165 -0.0619816 0)
(28.3983 -0.0630778 0)
(28.38 -0.0641749 0)
(28.3615 -0.0652773 0)
(28.3428 -0.0663782 0)
(28.3238 -0.0674635 0)
(28.3045 -0.068515 0)
(28.2848 -0.0695131 0)
(28.2648 -0.0704388 0)
(28.2444 -0.071277 0)
(28.2237 -0.0720159 0)
(28.2025 -0.0726458 0)
(28.181 -0.0731607 0)
(28.1593 -0.0735627 0)
(28.1372 -0.0738604 0)
(28.1148 -0.0740662 0)
(28.0923 -0.0741948 0)
(28.0695 -0.0742638 0)
(28.0465 -0.0742882 0)
(28.0234 -0.0742789 0)
(28.0001 -0.0742438 0)
(27.9767 -0.0741885 0)
(27.9531 -0.0741134 0)
(27.9295 -0.0740114 0)
(27.9058 -0.073875 0)
(27.8821 -0.0737109 0)
(27.8582 -0.0735286 0)
(27.8343 -0.0733407 0)
(27.8104 -0.0731531 0)
(27.7863 -0.0729799 0)
(27.7622 -0.072826 0)
(27.738 -0.0727116 0)
(27.7137 -0.0726475 0)
(27.6893 -0.0726777 0)
(27.6646 -0.0728193 0)
(27.6402 -0.073205 0)
(27.6146 -0.0737831 0)
(27.591 -0.0748905 0)
(27.5623 -0.0763044 0)
(27.5432 -0.0783741 0)
(27.5025 -0.0815453 0)
(40.1063 4.63098 0)
(42.9894 7.20865 0)
(46.0826 7.13707 0)
(47.5889 5.83422 0)
(48.3119 3.88484 0)
(48.6246 1.73394 0)
(48.7751 -0.385902 0)
(48.7148 -2.52875 0)
(48.2462 -4.60831 0)
(46.9729 -6.43742 0)
(44.535 -7.6814 0)
(41.3085 -7.76283 0)
(37.9518 -6.92487 0)
(35.0628 -5.59657 0)
(32.9249 -4.20861 0)
(31.4791 -3.01117 0)
(30.557 -2.08679 0)
(29.9612 -1.40968 0)
(29.5884 -0.945738 0)
(29.3576 -0.632679 0)
(29.1901 -0.416121 0)
(29.0924 -0.28717 0)
(29.0266 -0.199995 0)
(28.9752 -0.137092 0)
(28.9469 -0.104869 0)
(28.9236 -0.0800611 0)
(28.8913 -0.0621874 0)
(28.8773 -0.052616 0)
(28.8644 -0.0442165 0)
(28.8528 -0.0373045 0)
(28.8417 -0.0325701 0)
(28.8308 -0.0294556 0)
(28.8202 -0.0273942 0)
(28.8096 -0.0261897 0)
(28.7987 -0.0257277 0)
(28.7876 -0.0258535 0)
(28.7762 -0.026406 0)
(28.7644 -0.0272389 0)
(28.7521 -0.0282325 0)
(28.7393 -0.029286 0)
(28.726 -0.0303145 0)
(28.7121 -0.0312488 0)
(28.6975 -0.0320365 0)
(28.6824 -0.0326487 0)
(28.6667 -0.0330855 0)
(28.6505 -0.0333682 0)
(28.634 -0.0335368 0)
(28.6172 -0.0336514 0)
(28.6001 -0.0337787 0)
(28.5831 -0.0339833 0)
(28.5662 -0.0343228 0)
(28.5495 -0.0348332 0)
(28.533 -0.0355157 0)
(28.5166 -0.0363468 0)
(28.5002 -0.0372967 0)
(28.4839 -0.0383316 0)
(28.4674 -0.0394169 0)
(28.4509 -0.0405227 0)
(28.4341 -0.0416288 0)
(28.4171 -0.0427264 0)
(28.3997 -0.0438187 0)
(28.382 -0.0449147 0)
(28.3639 -0.0460175 0)
(28.3452 -0.047119 0)
(28.326 -0.0482025 0)
(28.3062 -0.0492485 0)
(28.2858 -0.0502376 0)
(28.2649 -0.0511525 0)
(28.2433 -0.0519802 0)
(28.2211 -0.0527114 0)
(28.1985 -0.0533392 0)
(28.1754 -0.0538607 0)
(28.1518 -0.0542799 0)
(28.128 -0.0546041 0)
(28.1039 -0.0548411 0)
(28.0796 -0.0550015 0)
(28.0551 -0.0551009 0)
(28.0304 -0.0551546 0)
(28.0056 -0.055176 0)
(27.9806 -0.0551774 0)
(27.9556 -0.0551688 0)
(27.9305 -0.0551528 0)
(27.9054 -0.0551204 0)
(27.8803 -0.0550621 0)
(27.8552 -0.0549844 0)
(27.8302 -0.0548957 0)
(27.8054 -0.0548073 0)
(27.7806 -0.0547208 0)
(27.7559 -0.0546496 0)
(27.7313 -0.0545933 0)
(27.7068 -0.0545704 0)
(27.6823 -0.0545922 0)
(27.658 -0.0546941 0)
(27.6333 -0.0549076 0)
(27.6091 -0.0553227 0)
(27.5837 -0.0559681 0)
(27.5603 -0.057002 0)
(27.5317 -0.0585566 0)
(27.5127 -0.0602878 0)
(27.4724 -0.0641985 0)
(40.7393 3.76735 0)
(43.7817 5.97854 0)
(47.7692 6.24797 0)
(50.9621 5.16029 0)
(52.7882 3.51171 0)
(53.8054 1.52288 0)
(54.0702 -0.460989 0)
(53.5282 -2.44005 0)
(52.0771 -4.25822 0)
(49.6348 -5.793 0)
(46.2445 -6.70618 0)
(42.406 -6.70827 0)
(38.6207 -5.96939 0)
(35.5877 -4.86164 0)
(33.3468 -3.68351 0)
(31.8109 -2.65797 0)
(30.7874 -1.85262 0)
(30.1202 -1.26304 0)
(29.6971 -0.852617 0)
(29.4201 -0.569712 0)
(29.2361 -0.378785 0)
(29.1192 -0.258571 0)
(29.0407 -0.182456 0)
(28.9842 -0.130787 0)
(28.9415 -0.0966256 0)
(28.91 -0.0745948 0)
(28.8858 -0.0612747 0)
(28.8656 -0.0525372 0)
(28.8487 -0.046983 0)
(28.8329 -0.0418549 0)
(28.8177 -0.0385356 0)
(28.8034 -0.0366845 0)
(28.7899 -0.0357412 0)
(28.7767 -0.0355631 0)
(28.7636 -0.0359961 0)
(28.7505 -0.0368634 0)
(28.7373 -0.0380092 0)
(28.7238 -0.0393083 0)
(28.7101 -0.0406699 0)
(28.6961 -0.0420212 0)
(28.6816 -0.0433013 0)
(28.6669 -0.044462 0)
(28.6518 -0.0454698 0)
(28.6364 -0.0463092 0)
(28.621 -0.0469855 0)
(28.6054 -0.0475238 0)
(28.5898 -0.0479632 0)
(28.5745 -0.0483569 0)
(28.5593 -0.0487705 0)
(28.5443 -0.0492649 0)
(28.5295 -0.049874 0)
(28.5148 -0.0506075 0)
(28.5001 -0.0514558 0)
(28.4854 -0.0523949 0)
(28.4705 -0.0533985 0)
(28.4554 -0.0544361 0)
(28.44 -0.0554732 0)
(28.424 -0.0564808 0)
(28.4076 -0.0574416 0)
(28.3905 -0.0583502 0)
(28.3729 -0.0592126 0)
(28.3546 -0.06004 0)
(28.3356 -0.0608387 0)
(28.3159 -0.0616069 0)
(28.2956 -0.0623363 0)
(28.2747 -0.0630159 0)
(28.2531 -0.0636346 0)
(28.231 -0.0641826 0)
(28.2083 -0.0646538 0)
(28.1852 -0.0650453 0)
(28.1616 -0.0653568 0)
(28.1377 -0.0655912 0)
(28.1135 -0.0657549 0)
(28.0891 -0.0658542 0)
(28.0646 -0.0658928 0)
(28.0398 -0.0658775 0)
(28.015 -0.0658202 0)
(27.99 -0.065733 0)
(27.9649 -0.0656257 0)
(27.9396 -0.0655077 0)
(27.9141 -0.0653868 0)
(27.8886 -0.0652647 0)
(27.863 -0.0651342 0)
(27.8373 -0.0649889 0)
(27.8118 -0.064833 0)
(27.7865 -0.0646724 0)
(27.7614 -0.0645148 0)
(27.7365 -0.0643596 0)
(27.712 -0.0642168 0)
(27.6877 -0.0640845 0)
(27.6638 -0.0639786 0)
(27.64 -0.0639085 0)
(27.6166 -0.0639072 0)
(27.5931 -0.0640078 0)
(27.5702 -0.0642783 0)
(27.5461 -0.0647697 0)
(27.5242 -0.0655649 0)
(27.497 -0.0669139 0)
(27.4794 -0.0682797 0)
(27.4404 -0.0720712 0)
(41.3044 3.09035 0)
(44.0874 4.76939 0)
(47.9816 5.07344 0)
(51.6461 4.28761 0)
(53.974 2.92701 0)
(55.3098 1.20648 0)
(55.5604 -0.44502 0)
(54.8227 -2.11138 0)
(53.0329 -3.62074 0)
(50.2422 -4.86008 0)
(46.6398 -5.59618 0)
(42.6959 -5.614 0)
(38.9055 -5.01599 0)
(35.8766 -4.10673 0)
(33.6084 -3.13442 0)
(32.0105 -2.27711 0)
(30.9242 -1.59706 0)
(30.2084 -1.09475 0)
(29.7505 -0.747595 0)
(29.4252 -0.492605 0)
(29.2256 -0.332063 0)
(29.1092 -0.232464 0)
(28.983 -0.152436 0)
(28.9165 -0.107419 0)
(28.8727 -0.0802916 0)
(28.8331 -0.0573774 0)
(28.8032 -0.0432471 0)
(28.7873 -0.0347007 0)
(28.7559 -0.0256693 0)
(28.739 -0.0197102 0)
(28.7218 -0.0152813 0)
(28.707 -0.0122826 0)
(28.6937 -0.0102594 0)
(28.6813 -0.00915019 0)
(28.6694 -0.00879866 0)
(28.6579 -0.00900031 0)
(28.6465 -0.00958675 0)
(28.6351 -0.0104138 0)
(28.6235 -0.0113641 0)
(28.6118 -0.0123466 0)
(28.5998 -0.0132933 0)
(28.5876 -0.0141549 0)
(28.5752 -0.0148989 0)
(28.5626 -0.0155086 0)
(28.5498 -0.0159843 0)
(28.537 -0.0163517 0)
(28.5242 -0.0166561 0)
(28.5115 -0.0169451 0)
(28.4987 -0.0172681 0)
(28.4858 -0.0176688 0)
(28.4728 -0.0181734 0)
(28.4597 -0.0187953 0)
(28.4462 -0.0195333 0)
(28.4322 -0.0203665 0)
(28.4178 -0.0212609 0)
(28.4028 -0.02218 0)
(28.3871 -0.023091 0)
(28.3708 -0.0239712 0)
(28.3537 -0.0248114 0)
(28.3359 -0.0256144 0)
(28.3174 -0.0263926 0)
(28.2983 -0.027161 0)
(28.2786 -0.027929 0)
(28.2582 -0.0286959 0)
(28.2373 -0.0294521 0)
(28.2158 -0.0301839 0)
(28.1938 -0.0308764 0)
(28.1715 -0.0315168 0)
(28.1487 -0.0320965 0)
(28.1255 -0.0326109 0)
(28.1021 -0.0330582 0)
(28.0784 -0.033439 0)
(28.0546 -0.033756 0)
(28.0306 -0.0340086 0)
(28.0064 -0.0341913 0)
(27.9822 -0.0343028 0)
(27.9578 -0.0343519 0)
(27.9332 -0.0343507 0)
(27.9085 -0.0343135 0)
(27.8835 -0.0342574 0)
(27.8584 -0.0342 0)
(27.8331 -0.0341549 0)
(27.8077 -0.0341305 0)
(27.7823 -0.0341328 0)
(27.757 -0.0341633 0)
(27.7319 -0.0342226 0)
(27.7071 -0.0343093 0)
(27.6826 -0.0344196 0)
(27.6586 -0.0345487 0)
(27.6348 -0.0346928 0)
(27.6115 -0.0348542 0)
(27.5883 -0.0350397 0)
(27.5657 -0.0352698 0)
(27.5429 -0.0355752 0)
(27.5208 -0.0360143 0)
(27.4975 -0.0366419 0)
(27.4764 -0.037512 0)
(27.4502 -0.0389177 0)
(27.4332 -0.0402731 0)
(27.3957 -0.0442105 0)
(41.6986 2.49428 0)
(44.2986 3.82473 0)
(47.8313 4.07587 0)
(51.4693 3.44044 0)
(53.9661 2.36899 0)
(55.3467 0.991068 0)
(55.6316 -0.343038 0)
(54.8619 -1.71721 0)
(52.9999 -2.95026 0)
(50.1571 -3.94242 0)
(46.5843 -4.52629 0)
(42.7216 -4.54565 0)
(39.0498 -4.07504 0)
(36.0643 -3.35177 0)
(33.7938 -2.57786 0)
(32.1546 -1.88331 0)
(31.0272 -1.32963 0)
(30.2809 -0.919942 0)
(29.7558 -0.61999 0)
(29.4236 -0.421507 0)
(29.2036 -0.287153 0)
(29.0529 -0.195069 0)
(28.9541 -0.13885 0)
(28.8869 -0.104553 0)
(28.8359 -0.0817778 0)
(28.798 -0.0672906 0)
(28.7709 -0.0595593 0)
(28.7486 -0.0527042 0)
(28.7303 -0.0481825 0)
(28.7148 -0.044488 0)
(28.6996 -0.0423686 0)
(28.6864 -0.0412089 0)
(28.6746 -0.0406305 0)
(28.6635 -0.0406046 0)
(28.6529 -0.0410053 0)
(28.6426 -0.041695 0)
(28.6322 -0.0425807 0)
(28.6217 -0.0435806 0)
(28.6109 -0.0446163 0)
(28.5998 -0.0456259 0)
(28.5883 -0.0465652 0)
(28.5764 -0.0474037 0)
(28.564 -0.0481226 0)
(28.5514 -0.0487148 0)
(28.5385 -0.0491865 0)
(28.5253 -0.0495605 0)
(28.512 -0.0498695 0)
(28.4985 -0.0501488 0)
(28.4848 -0.0504393 0)
(28.4708 -0.0507797 0)
(28.4565 -0.051191 0)
(28.4418 -0.0516778 0)
(28.4267 -0.0522311 0)
(28.411 -0.0528289 0)
(28.3947 -0.053445 0)
(28.3777 -0.0540548 0)
(28.3601 -0.054637 0)
(28.3419 -0.0551775 0)
(28.3231 -0.055672 0)
(28.3036 -0.0561251 0)
(28.2836 -0.0565483 0)
(28.2631 -0.0569542 0)
(28.242 -0.0573506 0)
(28.2205 -0.0577372 0)
(28.1985 -0.0581076 0)
(28.176 -0.058452 0)
(28.1531 -0.0587608 0)
(28.1299 -0.0590263 0)
(28.1064 -0.059244 0)
(28.0827 -0.0594126 0)
(28.0588 -0.0595327 0)
(28.0347 -0.0596067 0)
(28.0107 -0.0596374 0)
(27.9865 -0.0596225 0)
(27.9624 -0.059553 0)
(27.9382 -0.0594255 0)
(27.914 -0.0592488 0)
(27.8897 -0.059034 0)
(27.8652 -0.0587916 0)
(27.8407 -0.058536 0)
(27.816 -0.058284 0)
(27.7912 -0.0580537 0)
(27.7664 -0.0578631 0)
(27.7416 -0.0577227 0)
(27.7169 -0.0576279 0)
(27.6925 -0.0575749 0)
(27.6683 -0.0575566 0)
(27.6444 -0.057569 0)
(27.6209 -0.0575999 0)
(27.5977 -0.0576455 0)
(27.575 -0.0577014 0)
(27.5523 -0.057774 0)
(27.5302 -0.0578786 0)
(27.5079 -0.0580316 0)
(27.4862 -0.0583004 0)
(27.4634 -0.058698 0)
(27.4428 -0.0593365 0)
(27.4168 -0.0603537 0)
(27.4004 -0.0615185 0)
(27.3625 -0.0646727 0)
(41.9839 1.91631 0)
(44.4581 2.90959 0)
(47.7196 3.12896 0)
(51.1183 2.63752 0)
(53.5736 1.8137 0)
(54.9588 0.729201 0)
(55.2188 -0.290873 0)
(54.4527 -1.35257 0)
(52.6155 -2.28857 0)
(49.8489 -3.03739 0)
(46.4047 -3.48045 0)
(42.7079 -3.50572 0)
(39.149 -3.15873 0)
(36.2121 -2.61469 0)
(33.9381 -2.0219 0)
(32.2728 -1.48639 0)
(31.1012 -1.04977 0)
(30.3033 -0.718998 0)
(29.7738 -0.486494 0)
(29.409 -0.3194 0)
(29.173 -0.208751 0)
(29.0225 -0.137725 0)
(28.9067 -0.0848075 0)
(28.8332 -0.0546614 0)
(28.7931 -0.0359871 0)
(28.7369 -0.0180109 0)
(28.7107 -0.0101926 0)
(28.6901 -0.00309477 0)
(28.6583 0.00266589 0)
(28.6458 0.00531687 0)
(28.6322 0.00787237 0)
(28.6204 0.00960128 0)
(28.6099 0.0104452 0)
(28.6001 0.0105868 0)
(28.5905 0.0102251 0)
(28.5809 0.00952312 0)
(28.571 0.00859869 0)
(28.5609 0.00755788 0)
(28.5502 0.00649285 0)
(28.539 0.00546482 0)
(28.5273 0.00451102 0)
(28.5151 0.00365474 0)
(28.5025 0.00291024 0)
(28.4895 0.00228392 0)
(28.4762 0.00177252 0)
(28.4627 0.00135888 0)
(28.449 0.0010144 0)
(28.4351 0.000706495 0)
(28.4209 0.000397645 0)
(28.4065 5.22237e-05 0)
(28.3916 -0.000350179 0)
(28.3763 -0.000817547 0)
(28.3605 -0.00134875 0)
(28.3441 -0.00193102 0)
(28.3271 -0.00254432 0)
(28.3095 -0.00316656 0)
(28.2913 -0.00377741 0)
(28.2725 -0.0043631 0)
(28.2533 -0.00491916 0)
(28.2335 -0.00544983 0)
(28.2133 -0.00596575 0)
(28.1926 -0.00647927 0)
(28.1715 -0.00699891 0)
(28.1499 -0.0075265 0)
(28.1279 -0.00805785 0)
(28.1055 -0.00858518 0)
(28.0826 -0.00909972 0)
(28.0595 -0.00959358 0)
(28.0361 -0.0100605 0)
(28.0125 -0.0104958 0)
(27.9887 -0.0108961 0)
(27.9648 -0.0112591 0)
(27.9408 -0.0115821 0)
(27.9168 -0.0118542 0)
(27.8928 -0.0120534 0)
(27.8688 -0.0121675 0)
(27.8447 -0.0122031 0)
(27.8207 -0.0121751 0)
(27.7967 -0.0121028 0)
(27.7727 -0.012009 0)
(27.7488 -0.0119193 0)
(27.725 -0.0118623 0)
(27.7013 -0.0118664 0)
(27.6777 -0.0119469 0)
(27.6542 -0.0121007 0)
(27.6309 -0.0123239 0)
(27.6077 -0.0126039 0)
(27.5847 -0.0129317 0)
(27.5618 -0.0132836 0)
(27.5392 -0.0136534 0)
(27.5167 -0.0140226 0)
(27.4944 -0.0143926 0)
(27.4722 -0.0147719 0)
(27.4499 -0.0151671 0)
(27.428 -0.0156535 0)
(27.4049 -0.0162068 0)
(27.3838 -0.0170015 0)
(27.3573 -0.0180283 0)
(27.3403 -0.0193688 0)
(27.3017 -0.0222913 0)
(42.2735 1.35257 0)
(44.6366 2.03603 0)
(47.7296 2.20816 0)
(50.9564 1.86237 0)
(53.3883 1.28524 0)
(54.7075 0.516753 0)
(54.9144 -0.199544 0)
(54.164 -0.960487 0)
(52.3883 -1.62371 0)
(49.6963 -2.15768 0)
(46.3546 -2.48039 0)
(42.7664 -2.51074 0)
(39.2506 -2.27458 0)
(36.3129 -1.89726 0)
(34.0276 -1.48403 0)
(32.303 -1.10408 0)
(31.0992 -0.797346 0)
(30.2817 -0.567696 0)
(29.7128 -0.39775 0)
(29.3343 -0.280404 0)
(29.0981 -0.20753 0)
(28.9241 -0.1518 0)
(28.8087 -0.115594 0)
(28.7412 -0.0995412 0)
(28.6842 -0.0830976 0)
(28.6428 -0.0719594 0)
(28.6163 -0.0657935 0)
(28.5932 -0.0603846 0)
(28.5752 -0.0559475 0)
(28.5607 -0.0540534 0)
(28.5471 -0.0519534 0)
(28.5356 -0.0502897 0)
(28.5254 -0.0493581 0)
(28.516 -0.0489291 0)
(28.5068 -0.0488296 0)
(28.4975 -0.0489862 0)
(28.4879 -0.049327 0)
(28.4779 -0.0497667 0)
(28.4674 -0.0502369 0)
(28.4561 -0.0506954 0)
(28.4443 -0.0511166 0)
(28.4317 -0.0514844 0)
(28.4186 -0.0517876 0)
(28.405 -0.0520199 0)
(28.3909 -0.052181 0)
(28.3764 -0.0522804 0)
(28.3616 -0.0523347 0)
(28.3465 -0.0523626 0)
(28.331 -0.0523881 0)
(28.315 -0.0524369 0)
(28.2986 -0.0525223 0)
(28.2816 -0.0526487 0)
(28.2639 -0.0528149 0)
(28.2456 -0.0530117 0)
(28.2266 -0.053225 0)
(28.2069 -0.0534401 0)
(28.1866 -0.0536438 0)
(28.1658 -0.053827 0)
(28.1444 -0.0539861 0)
(28.1226 -0.0541232 0)
(28.1004 -0.0542444 0)
(28.0777 -0.0543569 0)
(28.0547 -0.0544659 0)
(28.0313 -0.0545727 0)
(28.0076 -0.0546756 0)
(27.9835 -0.0547711 0)
(27.9592 -0.0548556 0)
(27.9346 -0.0549261 0)
(27.9098 -0.0549804 0)
(27.8848 -0.0550169 0)
(27.8597 -0.0550346 0)
(27.8344 -0.0550332 0)
(27.8091 -0.0550117 0)
(27.7838 -0.0549609 0)
(27.7584 -0.0548613 0)
(27.733 -0.0547026 0)
(27.7078 -0.0544936 0)
(27.6829 -0.0542506 0)
(27.6582 -0.0539928 0)
(27.6337 -0.0537383 0)
(27.6096 -0.0535032 0)
(27.5859 -0.0533025 0)
(27.5623 -0.0531492 0)
(27.539 -0.0530497 0)
(27.5158 -0.0530038 0)
(27.4928 -0.0530135 0)
(27.4697 -0.0530719 0)
(27.4468 -0.0531718 0)
(27.4238 -0.0532937 0)
(27.4008 -0.0534305 0)
(27.3778 -0.0535649 0)
(27.3548 -0.0536925 0)
(27.3317 -0.0538238 0)
(27.3083 -0.0539539 0)
(27.2854 -0.0541705 0)
(27.2609 -0.0543775 0)
(27.2388 -0.0548723 0)
(27.2104 -0.0553269 0)
(27.1927 -0.0565226 0)
(27.1501 -0.0580366 0)
(42.4231 0.811484 0)
(44.7318 1.21294 0)
(47.7162 1.32723 0)
(50.9158 1.1099 0)
(53.2309 0.781252 0)
(54.6733 0.291312 0)
(54.7863 -0.111921 0)
(54.0518 -0.572509 0)
(52.2923 -0.966142 0)
(49.6161 -1.27169 0)
(46.2811 -1.44495 0)
(42.6808 -1.44181 0)
(39.1844 -1.28526 0)
(36.227 -1.05309 0)
(33.908 -0.800966 0)
(32.1576 -0.573227 0)
(30.9194 -0.393952 0)
(30.0581 -0.254086 0)
(29.4629 -0.15425 0)
(29.0944 -0.0899196 0)
(28.8191 -0.0423314 0)
(28.6404 -0.0126295 0)
(28.5474 0.00454962 0)
(28.4478 0.0168803 0)
(28.3799 0.0230314 0)
(28.3471 0.0266358 0)
(28.302 0.0291228 0)
(28.2796 0.02986 0)
(28.2599 0.0306264 0)
(28.2443 0.0304316 0)
(28.2305 0.0305397 0)
(28.2189 0.0303976 0)
(28.2088 0.0298318 0)
(28.1992 0.0290475 0)
(28.1895 0.0281398 0)
(28.1795 0.0271346 0)
(28.1687 0.0260925 0)
(28.1572 0.0250815 0)
(28.1446 0.0241445 0)
(28.1311 0.0232995 0)
(28.1167 0.0225493 0)
(28.1015 0.0218905 0)
(28.0855 0.0213193 0)
(28.0689 0.0208337 0)
(28.0518 0.0204315 0)
(28.0344 0.0201061 0)
(28.0166 0.0198474 0)
(27.9984 0.019645 0)
(27.98 0.0194793 0)
(27.9613 0.0193233 0)
(27.9421 0.0191612 0)
(27.9226 0.0189825 0)
(27.9026 0.0187764 0)
(27.8821 0.0185378 0)
(27.8611 0.0182689 0)
(27.8397 0.0179766 0)
(27.8177 0.0176708 0)
(27.7952 0.017361 0)
(27.7723 0.0170537 0)
(27.7489 0.0167508 0)
(27.7252 0.0164492 0)
(27.7011 0.0161431 0)
(27.6766 0.0158266 0)
(27.6518 0.015496 0)
(27.6266 0.0151505 0)
(27.6011 0.0147921 0)
(27.5753 0.0144255 0)
(27.5493 0.0140563 0)
(27.523 0.0136905 0)
(27.4965 0.0133344 0)
(27.4698 0.0129937 0)
(27.4429 0.0126744 0)
(27.4158 0.0123822 0)
(27.3885 0.0121212 0)
(27.3612 0.0118936 0)
(27.3339 0.0117009 0)
(27.3068 0.0115415 0)
(27.28 0.0114095 0)
(27.2535 0.0112961 0)
(27.2274 0.0111909 0)
(27.2015 0.0110821 0)
(27.1758 0.0109569 0)
(27.1503 0.0108017 0)
(27.1248 0.0106068 0)
(27.0994 0.0103705 0)
(27.0737 0.0100941 0)
(27.0479 0.009784 0)
(27.0218 0.00944721 0)
(26.9953 0.00909663 0)
(26.9685 0.0087402 0)
(26.9413 0.00838936 0)
(26.9137 0.00805151 0)
(26.8859 0.00771258 0)
(26.8576 0.00739435 0)
(26.8294 0.00698994 0)
(26.7996 0.00667762 0)
(26.7722 0.00602142 0)
(26.7378 0.00570848 0)
(26.7155 0.00420484 0)
(26.6641 0.00354757 0)
(42.2894 0.263652 0)
(44.5791 0.394626 0)
(47.4826 0.434858 0)
(50.7268 0.356726 0)
(52.8659 0.255751 0)
(54.4627 0.072697 0)
(54.4382 -0.0484501 0)
(53.6647 -0.205482 0)
(51.8859 -0.348824 0)
(49.191 -0.473643 0)
(45.8563 -0.564084 0)
(42.2679 -0.598347 0)
(38.7688 -0.575273 0)
(35.7817 -0.513989 0)
(33.4245 -0.432097 0)
(31.6512 -0.350602 0)
(30.3521 -0.278856 0)
(29.4588 -0.219879 0)
(28.8384 -0.177141 0)
(28.4044 -0.144502 0)
(28.1141 -0.120926 0)
(27.9119 -0.105817 0)
(27.7618 -0.0923845 0)
(27.6613 -0.0821453 0)
(27.5842 -0.0763855 0)
(27.5173 -0.0712758 0)
(27.4645 -0.0669396 0)
(27.4182 -0.0642337 0)
(27.3754 -0.0617139 0)
(27.3368 -0.0596894 0)
(27.3009 -0.0578631 0)
(27.267 -0.0564544 0)
(27.2341 -0.05547 0)
(27.2011 -0.0547488 0)
(27.1676 -0.0542186 0)
(27.1329 -0.0538433 0)
(27.0968 -0.0535662 0)
(27.0593 -0.0533394 0)
(27.0204 -0.0531373 0)
(26.9801 -0.0529516 0)
(26.9388 -0.0527804 0)
(26.8964 -0.0526215 0)
(26.8532 -0.0524691 0)
(26.8094 -0.0523142 0)
(26.7649 -0.0521485 0)
(26.7202 -0.0519675 0)
(26.6752 -0.0517714 0)
(26.6301 -0.051562 0)
(26.5851 -0.0513498 0)
(26.5401 -0.05115 0)
(26.4951 -0.0509705 0)
(26.4502 -0.0508142 0)
(26.4051 -0.0506832 0)
(26.3599 -0.0505749 0)
(26.3143 -0.0504826 0)
(26.2685 -0.050398 0)
(26.2222 -0.0503131 0)
(26.1756 -0.0502226 0)
(26.1285 -0.0501249 0)
(26.0812 -0.0500219 0)
(26.0335 -0.0499181 0)
(25.9854 -0.0498189 0)
(25.937 -0.0497285 0)
(25.8882 -0.0496485 0)
(25.8389 -0.0495783 0)
(25.7892 -0.0495146 0)
(25.7389 -0.0494528 0)
(25.6881 -0.0493881 0)
(25.6368 -0.0493163 0)
(25.5851 -0.0492341 0)
(25.5329 -0.04914 0)
(25.4803 -0.0490343 0)
(25.4273 -0.0489206 0)
(25.3741 -0.0488068 0)
(25.3207 -0.048703 0)
(25.2671 -0.0486114 0)
(25.2133 -0.0485255 0)
(25.1594 -0.0484394 0)
(25.1055 -0.04835 0)
(25.0515 -0.0482567 0)
(24.9975 -0.0481598 0)
(24.9435 -0.0480613 0)
(24.8895 -0.0479649 0)
(24.8353 -0.0478743 0)
(24.7808 -0.0477893 0)
(24.7261 -0.0477084 0)
(24.6711 -0.0476313 0)
(24.6156 -0.0475601 0)
(24.5596 -0.0474956 0)
(24.5032 -0.0474387 0)
(24.4462 -0.0473889 0)
(24.3887 -0.0473414 0)
(24.3308 -0.0473079 0)
(24.2721 -0.047265 0)
(24.2138 -0.0472845 0)
(24.1524 -0.0472226 0)
(24.0959 -0.0473976 0)
(24.0262 -0.047241 0)
(23.9803 -0.0479396 0)
(23.8777 -0.0477884 0)
(5.37599 5.41233 0)
(6.0521 7.17413 0)
(2.13709 8.70661 0)
(-0.191252 8.64903 0)
(-2.78837 7.80098 0)
(-4.73257 5.92838 0)
(-6.00456 3.65627 0)
(-6.1958 2.43255 0)
(13.8936 7.54314 0)
(10.2733 8.33733 0)
(2.93279 8.76247 0)
(-3.07232 8.51326 0)
(-9.40354 7.61624 0)
(-14.8738 5.95961 0)
(-19.0415 3.69046 0)
(-20.7031 2.09117 0)
(18.3425 7.2757 0)
(11.5648 7.37671 0)
(2.82562 7.06979 0)
(-5.40621 6.56414 0)
(-13.7866 5.7327 0)
(-21.6471 4.5392 0)
(-28.3894 2.84751 0)
(-31.9398 1.3111 0)
(18.8864 5.71521 0)
(10.1748 5.22234 0)
(0.793423 4.71292 0)
(-8.17387 4.1344 0)
(-17.1949 3.46793 0)
(-25.9308 2.69673 0)
(-34.0455 1.73015 0)
(-39.308 0.683335 0)
(17.9295 3.58989 0)
(7.85636 3.02089 0)
(-1.34298 2.68398 0)
(-10.536 2.27832 0)
(-19.8804 1.86499 0)
(-28.8158 1.41387 0)
(-37.2763 0.919215 0)
(-43.5622 0.322305 0)
(16.9278 1.51928 0)
(6.37223 1.21418 0)
(-2.83547 1.05298 0)
(-11.8346 0.935119 0)
(-21.3615 0.757759 0)
(-30.4262 0.577242 0)
(-38.9365 0.393312 0)
(-45.7227 0.112804 0)
(16.8098 -0.279467 0)
(6.23527 -0.374423 0)
(-3.57365 -0.198331 0)
(-12.217 -0.0841296 0)
(-21.7161 -0.0826473 0)
(-30.8274 -0.0509839 0)
(-39.3525 0.00897578 0)
(-46.3455 -0.0437372 0)
(17.2954 -2.11796 0)
(7.84544 -2.04377 0)
(-1.4644 -1.71161 0)
(-11.1112 -1.38431 0)
(-20.8777 -1.12271 0)
(-30.1162 -0.807827 0)
(-38.7544 -0.481815 0)
(-45.8754 -0.186249 0)
(18.1332 -3.84436 0)
(9.18342 -3.49162 0)
(-0.102636 -3.0764 0)
(-9.57962 -2.67607 0)
(-19.046 -2.1749 0)
(-28.0049 -1.58815 0)
(-36.3738 -0.978777 0)
(-43.3049 -0.364201 0)
(20.2462 -5.83524 0)
(11.3407 -5.23611 0)
(2.18982 -4.61297 0)
(-7.10785 -3.92652 0)
(-16.1825 -3.14031 0)
(-24.895 -2.2884 0)
(-33.1487 -1.40805 0)
(-40.1166 -0.498304 0)
(23.6909 -7.90039 0)
(15.4452 -7.18008 0)
(6.78986 -6.36362 0)
(-2.04234 -5.40603 0)
(-10.817 -4.31264 0)
(-19.4358 -3.16072 0)
(-27.4962 -1.95073 0)
(-34.2507 -0.67199 0)
(25.5443 -8.48037 0)
(18.5978 -7.96181 0)
(10.9252 -7.17862 0)
(2.81121 -6.20301 0)
(-5.41312 -5.07569 0)
(-13.5813 -3.75505 0)
(-21.1585 -2.30716 0)
(-27.878 -0.768352 0)
(26.7479 -8.00814 0)
(21.0732 -7.63036 0)
(14.5965 -6.98623 0)
(7.58996 -6.11147 0)
(0.293319 -5.02592 0)
(-7.0354 -3.73423 0)
(-14.1738 -2.29179 0)
(-20.5433 -0.745476 0)
(27.4992 -6.74258 0)
(23.0553 -6.47906 0)
(17.7124 -5.97793 0)
(11.7144 -5.26292 0)
(5.30186 -4.34098 0)
(-1.31213 -3.24521 0)
(-7.94308 -1.9996 0)
(-14.0839 -0.622556 0)
(27.8159 -5.15989 0)
(24.4512 -5.00202 0)
(20.1253 -4.64816 0)
(15.0401 -4.11221 0)
(9.4121 -3.40887 0)
(3.48396 -2.54213 0)
(-2.61073 -1.56617 0)
(-8.50785 -0.463808 0)
(27.8959 -3.67369 0)
(25.3491 -3.60216 0)
(21.8375 -3.37122 0)
(17.4932 -2.99311 0)
(12.5092 -2.48621 0)
(7.10048 -1.8655 0)
(1.56832 -1.14245 0)
(-4.22344 -0.313588 0)
(27.9084 -2.51393 0)
(25.9129 -2.47675 0)
(22.9942 -2.32982 0)
(19.204 -2.0721 0)
(14.6955 -1.71909 0)
(9.65889 -1.28502 0)
(4.30901 -0.786516 0)
(-1.10465 -0.229818 0)
(27.9161 -1.68002 0)
(26.2719 -1.65844 0)
(23.7563 -1.56642 0)
(20.3559 -1.39665 0)
(16.1897 -1.16027 0)
(11.4429 -0.867534 0)
(6.352 -0.537507 0)
(1.23379 -0.172754 0)
(27.9276 -1.11067 0)
(26.5043 -1.09491 0)
(24.253 -1.03497 0)
(21.1153 -0.921578 0)
(17.1771 -0.762149 0)
(12.6036 -0.562619 0)
(7.60689 -0.340539 0)
(2.43142 -0.0904625 0)
(27.9424 -0.731714 0)
(26.6589 -0.720667 0)
(24.5798 -0.681533 0)
(21.6174 -0.606522 0)
(17.833 -0.501712 0)
(13.3823 -0.36899 0)
(8.48066 -0.224045 0)
(3.3922 -0.0594665 0)
(27.9558 -0.483874 0)
(26.7618 -0.477237 0)
(24.7945 -0.451811 0)
(21.9468 -0.402767 0)
(18.2646 -0.334294 0)
(13.8969 -0.245237 0)
(9.05334 -0.148912 0)
(3.98561 -0.0410971 0)
(27.9651 -0.327699 0)
(26.8284 -0.322483 0)
(24.9333 -0.305813 0)
(22.1622 -0.272711 0)
(18.5498 -0.227015 0)
(14.238 -0.166183 0)
(9.42982 -0.100253 0)
(4.36468 -0.0302877 0)
(27.9717 -0.225643 0)
(26.8728 -0.222671 0)
(25.0266 -0.211359 0)
(22.308 -0.188457 0)
(18.7438 -0.157597 0)
(14.4702 -0.115408 0)
(9.68709 -0.0684935 0)
(4.62033 -0.0245973 0)
(27.976 -0.158619 0)
(26.903 -0.157213 0)
(25.0905 -0.14952 0)
(22.4085 -0.133666 0)
(18.8788 -0.112341 0)
(14.6334 -0.0824971 0)
(9.86935 -0.0473894 0)
(4.79758 -0.0220969 0)
(27.9788 -0.117827 0)
(26.9233 -0.116914 0)
(25.1344 -0.111266 0)
(22.4802 -0.099378 0)
(18.9775 -0.0836348 0)
(14.7536 -0.0618509 0)
(10.0039 -0.0330621 0)
(4.92379 -0.0204754 0)
(27.9814 -0.0924361 0)
(26.9388 -0.0903561 0)
(25.1682 -0.0860938 0)
(22.5359 -0.0766092 0)
(19.0538 -0.064248 0)
(14.8458 -0.0483205 0)
(10.1062 -0.0228049 0)
(5.0162 -0.0190487 0)
(27.9844 -0.0727369 0)
(26.9522 -0.0713258 0)
(25.1962 -0.0679591 0)
(22.5808 -0.0601552 0)
(19.1141 -0.0499869 0)