/*--------------------------------*- C++ -*----------------------------------*\
| =========                 |                                                 |
| \\      /  F ield         | OpenFOAM: The Open Source CFD Toolbox           |
|  \\    /   O peration     | Version:  v2012                                 |
|   \\  /    A nd           | Website:  www.openfoam.com                      |
|    \\/     M anipulation  |                                                 |
\*---------------------------------------------------------------------------*/
FoamFile
{
    version     2.0;
    format      ascii;
    class       volScalarField;
    location    "0.359";
    object      p;
}
// * * * * * * * * * * * * * * * * * * * * * * * * * * * * * * * * * * * * * //

dimensions      [0 2 -2 0 0 0 0];


internalField   nonuniform List<scalar> 
5600
(
-0.672266
-1.13042
-1.51086
-1.82938
-2.14024
-2.45048
-2.75184
-3.03358
-3.29665
-3.54681
-3.78338
-4.00806
-4.22249
-4.42879
-4.629
-4.82484
-5.01711
-5.20685
-5.39402
-5.57897
-5.76176
-5.94207
-6.11983
-6.29613
-6.47096
-6.64449
-6.81676
-6.988
-7.15879
-7.32902
-7.49877
-7.66771
-7.8359
-8.00365
-8.17095
-8.33753
-8.50361
-8.66901
-8.83388
-8.99805
-9.16168
-9.32473
-9.48715
-9.64886
-9.81011
-9.97081
-10.1311
-10.2908
-10.45
-10.6088
-10.7671
-10.9249
-11.0823
-11.2392
-11.3957
-11.5518
-11.7075
-11.8627
-12.0175
-12.1718
-12.3258
-12.4794
-12.6326
-12.7854
-12.9379
-13.09
-13.2417
-13.3931
-13.5442
-13.6949
-13.8453
-13.9955
-14.1454
-14.2949
-14.4442
-14.5932
-14.7419
-14.8904
-15.0386
-15.1867
-15.3344
-15.482
-15.6293
-15.7765
-15.9234
-16.0702
-16.2167
-16.3632
-16.5095
-16.6554
-16.8012
-16.9467
-17.0927
-17.2384
-17.3848
-17.5314
-17.6806
-17.8336
-17.9899
-18.229
-0.731301
-1.1506
-1.52748
-1.8472
-2.15823
-2.46881
-2.7701
-3.0521
-3.31552
-3.56573
-3.80253
-4.0275
-4.24228
-4.44894
-4.64951
-4.84566
-5.03823
-5.22822
-5.41556
-5.60057
-5.78358
-5.964
-6.14181
-6.31823
-6.4932
-6.66685
-6.83921
-7.01055
-7.18143
-7.35175
-7.52158
-7.69059
-7.85881
-8.02659
-8.19392
-8.36054
-8.52666
-8.69207
-8.85698
-9.02118
-9.18485
-9.34793
-9.51039
-9.67212
-9.8334
-9.9941
-10.1544
-10.3141
-10.4733
-10.6321
-10.7904
-10.9482
-11.1056
-11.2625
-11.419
-11.5751
-11.7308
-11.886
-12.0407
-12.195
-12.349
-12.5026
-12.6558
-12.8086
-12.9611
-13.1131
-13.2649
-13.4162
-13.5673
-13.718
-13.8685
-14.0186
-14.1685
-14.318
-14.4673
-14.6163
-14.765
-14.9135
-15.0617
-15.2098
-15.3575
-15.5051
-15.6524
-15.7996
-15.9465
-16.0933
-16.2398
-16.3864
-16.5324
-16.6786
-16.8241
-16.9699
-17.1155
-17.2619
-17.4072
-17.5555
-17.7016
-17.8587
-18.0099
-18.2418
-0.769547
-1.16323
-1.54023
-1.86056
-2.16944
-2.47752
-2.77772
-3.05931
-3.32251
-3.57239
-3.80892
-4.03398
-4.24878
-4.45543
-4.65602
-4.8522
-5.04477
-5.23479
-5.42212
-5.60717
-5.79015
-5.97063
-6.1486
-6.32507
-6.49995
-6.67357
-6.84587
-7.0172
-7.18798
-7.35826
-7.52801
-7.69697
-7.86524
-8.03303
-8.20034
-8.36695
-8.53304
-8.69843
-8.86329
-9.02745
-9.19106
-9.35409
-9.51646
-9.67811
-9.83932
-10
-10.1603
-10.32
-10.4793
-10.638
-10.7964
-10.9542
-11.1116
-11.2685
-11.4251
-11.5812
-11.737
-11.8922
-12.0471
-12.2014
-12.3555
-12.5091
-12.6624
-12.8153
-12.9678
-13.1199
-13.2717
-13.4231
-13.5742
-13.725
-13.8754
-14.0256
-14.1755
-14.3251
-14.4744
-14.6234
-14.7722
-14.9207
-15.0689
-15.217
-15.3647
-15.5124
-15.6596
-15.8069
-15.9538
-16.1006
-16.2471
-16.3937
-16.5398
-16.686
-16.8315
-16.9774
-17.1229
-17.2694
-17.4147
-17.563
-17.7096
-17.8672
-18.0176
-18.2409
-0.81827
-1.1797
-1.55561
-1.87741
-2.18501
-2.49215
-2.79273
-3.07495
-3.33877
-3.58898
-3.82608
-4.05115
-4.26644
-4.47328
-4.67392
-4.87003
-5.06246
-5.25222
-5.43926
-5.62399
-5.80682
-5.98721
-6.1652
-6.34176
-6.51675
-6.69066
-6.86333
-7.03501
-7.20601
-7.37652
-7.54644
-7.71555
-7.88382
-8.05169
-8.21906
-8.38576
-8.55193
-8.71743
-8.8824
-9.04668
-9.21043
-9.37362
-9.53617
-9.69802
-9.85941
-10.0201
-10.1805
-10.3402
-10.4996
-10.6584
-10.8168
-10.9747
-11.1321
-11.2891
-11.4456
-11.6016
-11.7574
-11.9125
-12.0672
-12.2215
-12.3754
-12.529
-12.6822
-12.8349
-12.9874
-13.1395
-13.2912
-13.4425
-13.5936
-13.7443
-13.8947
-14.0448
-14.1947
-14.3443
-14.4935
-14.6425
-14.7912
-14.9398
-15.0879
-15.236
-15.3837
-15.5313
-15.6786
-15.8258
-15.9727
-16.1195
-16.266
-16.4125
-16.5587
-16.7047
-16.8504
-16.9961
-17.1419
-17.2879
-17.4336
-17.5811
-17.7284
-17.884
-18.0392
-18.2411
-0.867897
-1.19683
-1.57136
-1.8956
-2.20161
-2.5079
-2.80819
-3.09022
-3.35407
-3.60409
-3.8414
-4.06623
-4.28171
-4.48879
-4.68962
-4.88591
-5.07853
-5.26841
-5.45559
-5.64043
-5.82322
-6.00363
-6.1816
-6.35801
-6.53284
-6.70656
-6.87901
-7.05052
-7.22126
-7.39169
-7.56151
-7.7306
-7.89893
-8.0669
-8.23427
-8.40101
-8.56716
-8.73267
-8.89759
-9.06186
-9.22551
-9.38863
-9.55102
-9.71282
-9.87409
-10.0348
-10.1951
-10.3548
-10.5141
-10.6728
-10.8312
-10.9889
-11.1463
-11.3032
-11.4597
-11.6158
-11.7717
-11.9269
-12.0818
-12.2361
-12.3901
-12.5438
-12.6971
-12.85
-13.0026
-13.1547
-13.3065
-13.4579
-13.6091
-13.7599
-13.9104
-14.0605
-14.2104
-14.36
-14.5093
-14.6584
-14.8072
-14.9557
-15.1039
-15.252
-15.3997
-15.5474
-15.6947
-15.8419
-15.9889
-16.1356
-16.2822
-16.4287
-16.575
-16.7209
-16.8667
-17.0124
-17.1582
-17.3042
-17.4499
-17.5974
-17.7444
-17.8997
-18.0519
-18.2463
-0.917932
-1.21615
-1.58865
-1.91585
-2.22023
-2.52556
-2.82547
-3.10753
-3.37161
-3.62181
-3.85936
-4.08455
-4.3003
-4.50765
-4.70868
-4.90508
-5.09781
-5.28769
-5.47492
-5.6598
-5.84239
-6.0228
-6.20084
-6.37728
-6.55218
-6.72594
-6.89844
-7.06998
-7.24077
-7.41106
-7.58089
-7.74992
-7.91824
-8.08608
-8.25334
-8.41999
-8.58606
-8.75151
-8.91638
-9.08063
-9.24427
-9.4076
-9.57005
-9.73195
-9.89328
-10.0541
-10.2144
-10.3742
-10.5336
-10.6924
-10.8508
-11.0087
-11.1662
-11.3231
-11.4796
-11.6358
-11.7916
-11.9468
-12.1017
-12.256
-12.4101
-12.5636
-12.7168
-12.8696
-13.0221
-13.1742
-13.326
-13.4773
-13.6284
-13.7792
-13.9297
-14.0798
-14.2297
-14.3793
-14.5285
-14.6776
-14.8264
-14.9749
-15.1231
-15.2712
-15.4189
-15.5666
-15.7139
-15.8611
-16.008
-16.1548
-16.3014
-16.4479
-16.5941
-16.7401
-16.8858
-17.0316
-17.1773
-17.3233
-17.469
-17.6163
-17.7632
-17.9171
-18.0681
-18.2532
-0.96735
-1.23796
-1.60772
-1.93814
-2.24106
-2.54535
-2.84497
-3.12711
-3.39137
-3.64169
-3.87935
-4.10479
-4.32061
-4.52812
-4.72928
-4.92577
-5.11857
-5.30849
-5.49575
-5.68063
-5.86323
-6.04367
-6.22178
-6.39824
-6.57319
-6.74693
-6.91946
-7.09101
-7.2619
-7.43209
-7.60194
-7.77097
-7.93933
-8.10714
-8.27442
-8.44106
-8.60712
-8.77256
-8.93737
-9.10163
-9.26522
-9.42849
-9.59092
-9.75272
-9.91397
-10.0747
-10.2349
-10.3947
-10.5539
-10.7127
-10.8711
-11.029
-11.1864
-11.3434
-11.4999
-11.656
-11.8119
-11.9671
-12.122
-12.2764
-12.4304
-12.584
-12.7372
-12.8901
-13.0427
-13.1948
-13.3466
-13.498
-13.6491
-13.7998
-13.9503
-14.1005
-14.2504
-14.4
-14.5493
-14.6984
-14.8472
-14.9957
-15.1439
-15.292
-15.4398
-15.5874
-15.7348
-15.882
-16.0289
-16.1757
-16.3223
-16.4688
-16.615
-16.7611
-16.9068
-17.0525
-17.1983
-17.3443
-17.4899
-17.6369
-17.7836
-17.9359
-18.0852
-18.2602
-1.01433
-1.26246
-1.62912
-1.96261
-2.26432
-2.5676
-2.86702
-3.14923
-3.4136
-3.66402
-3.90177
-4.12743
-4.34334
-4.55103
-4.75235
-4.94896
-5.14185
-5.33181
-5.5191
-5.70401
-5.88661
-6.06702
-6.24517
-6.42164
-6.59662
-6.77035
-6.94291
-7.11448
-7.28539
-7.45559
-7.62542
-7.79446
-7.96283
-8.13064
-8.29792
-8.46456
-8.63062
-8.79607
-8.96088
-9.12518
-9.28882
-9.45193
-9.61439
-9.7762
-9.93747
-10.0982
-10.2584
-10.4182
-10.5774
-10.7362
-10.8945
-11.0524
-11.2097
-11.3668
-11.5233
-11.6794
-11.8352
-11.9904
-12.1452
-12.2995
-12.4535
-12.6071
-12.7603
-12.9132
-13.0657
-13.2178
-13.3696
-13.521
-13.6722
-13.8229
-13.9734
-14.1236
-14.2735
-14.4231
-14.5724
-14.7215
-14.8704
-15.0188
-15.1671
-15.3151
-15.4629
-15.6105
-15.7579
-15.9051
-16.0521
-16.1988
-16.3454
-16.4919
-16.6382
-16.7842
-16.9299
-17.0757
-17.2214
-17.3673
-17.5129
-17.6596
-17.8059
-17.9563
-18.1033
-18.2678
-1.05731
-1.28953
-1.65346
-1.9894
-2.29022
-2.59268
-2.89196
-3.17419
-3.43864
-3.68915
-3.92699
-4.15282
-4.36881
-4.57664
-4.77807
-4.97475
-5.16769
-5.35766
-5.54496
-5.72989
-5.91248
-6.09285
-6.27102
-6.44751
-6.62252
-6.79626
-6.96882
-7.14042
-7.31135
-7.48159
-7.65136
-7.82041
-7.98879
-8.15661
-8.32389
-8.49053
-8.65658
-8.82203
-8.98684
-9.15115
-9.31479
-9.47786
-9.64034
-9.80216
-9.96344
-10.1242
-10.2844
-10.4441
-10.6034
-10.7622
-10.9205
-11.0784
-11.2357
-11.3928
-11.5493
-11.7054
-11.8611
-12.0163
-12.1711
-12.3254
-12.4794
-12.633
-12.7862
-12.939
-13.0915
-13.2435
-13.3953
-13.5468
-13.6979
-13.8487
-13.9991
-14.1493
-14.2992
-14.4487
-14.598
-14.747
-14.8958
-15.0444
-15.1926
-15.3406
-15.4884
-15.636
-15.7834
-15.9306
-16.0776
-16.2243
-16.3709
-16.5174
-16.6637
-16.8097
-16.9555
-17.1012
-17.2469
-17.3927
-17.5383
-17.6846
-17.8303
-17.9788
-18.123
-18.2762
-1.09449
-1.31872
-1.6813
-2.01867
-2.31896
-2.62098
-2.92022
-3.2024
-3.46691
-3.7175
-3.95538
-4.1813
-4.39733
-4.60522
-4.80672
-5.00345
-5.19643
-5.38642
-5.57373
-5.75868
-5.94127
-6.12159
-6.29979
-6.47629
-6.65132
-6.82505
-6.99762
-7.16922
-7.34018
-7.51045
-7.68017
-7.84921
-8.01762
-8.18544
-8.35271
-8.51936
-8.6854
-8.85085
-9.01565
-9.17999
-9.34363
-9.50669
-9.66917
-9.831
-9.99227
-10.153
-10.3132
-10.473
-10.6322
-10.791
-10.9493
-11.1072
-11.2645
-11.4216
-11.5781
-11.7342
-11.8899
-12.0451
-12.1999
-12.3543
-12.5082
-12.6618
-12.815
-12.9678
-13.1203
-13.2724
-13.4242
-13.5757
-13.7267
-13.8775
-14.0279
-14.1781
-14.328
-14.4776
-14.6268
-14.7758
-14.9246
-15.0731
-15.2213
-15.3693
-15.5171
-15.6647
-15.812
-15.9592
-16.1061
-16.2529
-16.3994
-16.5458
-16.6922
-16.8382
-16.9839
-17.1297
-17.2753
-17.4211
-17.5665
-17.7124
-17.8574
-18.0037
-18.1445
-18.2864
-1.12184
-1.34802
-1.71172
-2.04902
-2.34918
-2.65137
-2.95068
-3.23273
-3.49724
-3.74789
-3.98575
-4.21167
-4.42767
-4.63556
-4.83707
-5.0338
-5.22679
-5.41678
-5.60409
-5.78907
-5.97163
-6.1519
-6.33009
-6.5066
-6.68164
-6.85536
-7.02791
-7.19951
-7.37051
-7.54079
-7.71047
-7.87951
-8.04793
-8.21577
-8.38302
-8.54968
-8.71572
-8.88117
-9.04596
-9.21032
-9.37397
-9.53701
-9.69947
-9.86131
-10.0226
-10.1833
-10.3435
-10.5033
-10.6625
-10.8213
-10.9796
-11.1375
-11.2948
-11.4519
-11.6084
-11.7645
-11.9202
-12.0754
-12.2302
-12.3846
-12.5386
-12.6921
-12.8453
-12.9981
-13.1506
-13.3027
-13.4545
-13.606
-13.757
-13.9079
-14.0582
-14.2084
-14.3583
-14.5079
-14.6571
-14.8061
-14.9549
-15.1034
-15.2516
-15.3996
-15.5474
-15.6949
-15.8423
-15.9895
-16.1365
-16.2832
-16.4297
-16.5762
-16.7225
-16.8685
-17.0143
-17.16
-17.3056
-17.4513
-17.5966
-17.742
-17.8863
-18.0303
-18.1678
-18.3
-1.13663
-1.37466
-1.74177
-2.07749
-2.37797
-2.68091
-2.98039
-3.26223
-3.5267
-3.77739
-4.01517
-4.24098
-4.45691
-4.6647
-4.86616
-5.06286
-5.25583
-5.44581
-5.63309
-5.81809
-6.00063
-6.18084
-6.35902
-6.53553
-6.71057
-6.88428
-7.05683
-7.2284
-7.39946
-7.56973
-7.73938
-7.90842
-8.07685
-8.24469
-8.41194
-8.5786
-8.74463
-8.91008
-9.07484
-9.23926
-9.40289
-9.5659
-9.72836
-9.89021
-10.0515
-10.2122
-10.3725
-10.5322
-10.6914
-10.8502
-11.0085
-11.1664
-11.3238
-11.4809
-11.6374
-11.7934
-11.9491
-12.1043
-12.2591
-12.4135
-12.5674
-12.721
-12.8742
-13.027
-13.1795
-13.3316
-13.4834
-13.6349
-13.786
-13.9367
-14.0872
-14.2374
-14.3873
-14.5368
-14.6861
-14.8352
-14.984
-15.1325
-15.2807
-15.4288
-15.5766
-15.7241
-15.8715
-16.0187
-16.1656
-16.3124
-16.459
-16.6055
-16.7518
-16.8979
-17.0437
-17.1895
-17.3351
-17.4806
-17.6258
-17.7708
-17.9144
-18.0566
-18.1911
-18.3158
-1.14035
-1.39823
-1.76981
-2.10284
-2.40402
-2.70808
-3.00781
-3.28937
-3.5538
-3.8045
-4.04215
-4.2678
-4.48361
-4.69126
-4.89261
-5.08924
-5.28217
-5.47214
-5.65938
-5.84443
-6.02693
-6.20707
-6.38522
-6.56173
-6.73676
-6.91044
-7.08297
-7.2545
-7.42562
-7.59588
-7.7655
-7.93454
-8.10298
-8.27082
-8.43808
-8.60473
-8.77076
-8.93622
-9.10098
-9.26543
-9.42905
-9.59205
-9.7545
-9.91634
-10.0776
-10.2383
-10.3986
-10.5583
-10.7175
-10.8763
-11.0346
-11.1925
-11.3499
-11.507
-11.6635
-11.8196
-11.9752
-12.1305
-12.2853
-12.4397
-12.5937
-12.7473
-12.9005
-13.0534
-13.2058
-13.358
-13.5098
-13.6613
-13.8124
-13.9632
-14.1137
-14.264
-14.4138
-14.5634
-14.7127
-14.8618
-15.0106
-15.1591
-15.3074
-15.4554
-15.6032
-15.7508
-15.8981
-16.0452
-16.1922
-16.3389
-16.4855
-16.6318
-16.7781
-16.9241
-17.07
-17.2158
-17.3614
-17.507
-17.6521
-17.7968
-17.9397
-18.0805
-18.2128
-18.3322
-1.13527
-1.41956
-1.79578
-2.12549
-2.42773
-2.73307
-3.03308
-3.31429
-3.57865
-3.82936
-4.06684
-4.29229
-4.50798
-4.71545
-4.91666
-5.11321
-5.30608
-5.49603
-5.68321
-5.86831
-6.05078
-6.23085
-6.40897
-6.58548
-6.76051
-6.93415
-7.10665
-7.27815
-7.44932
-7.61955
-7.78916
-7.95819
-8.12664
-8.29446
-8.46172
-8.62835
-8.79439
-8.95977
-9.12458
-9.28906
-9.45266
-9.61566
-9.77812
-9.93996
-10.1012
-10.262
-10.4223
-10.582
-10.7413
-10.9001
-11.0584
-11.2162
-11.3738
-11.5309
-11.6875
-11.8436
-11.9993
-12.1546
-12.3094
-12.4638
-12.6179
-12.7715
-12.9247
-13.0775
-13.23
-13.382
-13.5338
-13.6853
-13.8364
-13.9872
-14.1378
-14.288
-14.4378
-14.5874
-14.7367
-14.8857
-15.0346
-15.1831
-15.3314
-15.4794
-15.6272
-15.7748
-15.9221
-16.0693
-16.2163
-16.3631
-16.5099
-16.6564
-16.8027
-16.9487
-17.0944
-17.2401
-17.3857
-17.5312
-17.6762
-17.8208
-17.9635
-18.1025
-18.2331
-18.3486
-1.12394
-1.43901
-1.81941
-2.14572
-2.44926
-2.75597
-3.05637
-3.33722
-3.6015
-3.85217
-4.08947
-4.31462
-4.53014
-4.73743
-4.9385
-5.13492
-5.3277
-5.51761
-5.70474
-5.88986
-6.07227
-6.25227
-6.43033
-6.60685
-6.78185
-6.95551
-7.12791
-7.29945
-7.47065
-7.64084
-7.81043
-7.97946
-8.14794
-8.31578
-8.48306
-8.6497
-8.8158
-8.98118
-9.14614
-9.31056
-9.47419
-9.63725
-9.79978
-9.96169
-10.123
-10.2838
-10.4441
-10.6039
-10.7633
-10.9221
-11.0804
-11.2381
-11.3956
-11.5527
-11.7093
-11.8654
-12.0211
-12.1763
-12.3312
-12.4856
-12.6396
-12.7932
-12.9464
-13.0992
-13.2516
-13.4037
-13.5555
-13.707
-13.8581
-14.0089
-14.1594
-14.3096
-14.4594
-14.609
-14.7583
-14.9073
-15.056
-15.2045
-15.3528
-15.5008
-15.6485
-15.7961
-15.9434
-16.0904
-16.2373
-16.384
-16.5305
-16.6768
-16.8231
-16.9691
-17.115
-17.2608
-17.4064
-17.552
-17.6969
-17.8411
-17.9832
-18.1225
-18.252
-18.3646
-1.1084
-1.457
-1.84064
-2.16389
-2.46881
-2.77675
-3.07762
-3.35813
-3.62241
-3.87303
-4.1102
-4.3351
-4.55034
-4.7574
-4.95839
-5.1547
-5.34746
-5.53727
-5.72448
-5.90963
-6.092
-6.27193
-6.44991
-6.62638
-6.80132
-6.97495
-7.14731
-7.31895
-7.49013
-7.66037
-7.82998
-7.99905
-8.16763
-8.33559
-8.50296
-8.66971
-8.83587
-9.00135
-9.16632
-9.33066
-9.49424
-9.65729
-9.81979
-9.98169
-10.143
-10.3038
-10.4641
-10.6239
-10.7832
-10.942
-11.1003
-11.2581
-11.4156
-11.5727
-11.7292
-11.8853
-12.041
-12.1963
-12.3511
-12.5055
-12.6595
-12.8131
-12.9664
-13.1192
-13.2716
-13.4237
-13.5755
-13.727
-13.8781
-14.0289
-14.1795
-14.3297
-14.4796
-14.6292
-14.7785
-14.9275
-15.0763
-15.2248
-15.3731
-15.5212
-15.669
-15.8166
-15.964
-16.1112
-16.2582
-16.4051
-16.5517
-16.6983
-16.8446
-16.9906
-17.1364
-17.2821
-17.4276
-17.5731
-17.7179
-17.8622
-18.004
-18.1411
-18.2696
-18.3802
-1.08967
-1.47369
-1.8597
-2.18074
-2.48699
-2.79584
-3.09692
-3.37693
-3.64119
-3.89159
-4.12844
-4.35359
-4.56837
-4.77505
-4.97582
-5.17191
-5.36455
-5.5542
-5.74147
-5.92648
-6.10887
-6.28886
-6.46697
-6.64361
-6.81871
-6.99245
-7.16499
-7.33677
-7.50801
-7.67832
-7.84788
-8.01684
-8.18535
-8.35324
-8.52054
-8.68722
-8.85332
-9.01874
-9.18365
-9.34795
-9.51152
-9.67451
-9.83694
-9.99878
-10.1601
-10.3208
-10.4811
-10.6408
-10.8001
-10.9588
-11.1171
-11.2748
-11.4323
-11.5893
-11.7458
-11.9019
-12.0575
-12.2128
-12.3675
-12.5219
-12.6759
-12.8294
-12.9826
-13.1354
-13.2878
-13.4398
-13.5916
-13.743
-13.8941
-14.0448
-14.1953
-14.3454
-14.4952
-14.6447
-14.7939
-14.9429
-15.0916
-15.2401
-15.3883
-15.5363
-15.684
-15.8315
-15.9788
-16.1259
-16.2728
-16.4194
-16.5659
-16.7123
-16.8585
-17.0045
-17.1503
-17.296
-17.4416
-17.5871
-17.7319
-17.8761
-18.0182
-18.1565
-18.2848
-18.3947
-1.06881
-1.48802
-1.87529
-2.19569
-2.50386
-2.81432
-3.11574
-3.39527
-3.65955
-3.90982
-4.14641
-4.37183
-4.58627
-4.79282
-4.99359
-5.18982
-5.38264
-5.57264
-5.76022
-5.94548
-6.12806
-6.30811
-6.4863
-6.66294
-6.83796
-7.01147
-7.1838
-7.35548
-7.52663
-7.69692
-7.86649
-8.03548
-8.20401
-8.37193
-8.53925
-8.70596
-8.87208
-9.03754
-9.20247
-9.36679
-9.53038
-9.69339
-9.85579
-10.0176
-10.1789
-10.3397
-10.5
-10.6598
-10.819
-10.9778
-11.1361
-11.2939
-11.4514
-11.6085
-11.765
-11.9211
-12.0768
-12.2321
-12.3869
-12.5413
-12.6953
-12.8489
-13.0021
-13.1549
-13.3074
-13.4595
-13.6113
-13.7627
-13.9139
-14.0647
-14.2152
-14.3654
-14.5152
-14.6648
-14.8141
-14.9631
-15.1119
-15.2604
-15.4087
-15.5567
-15.7045
-15.8521
-15.9994
-16.1466
-16.2936
-16.4404
-16.587
-16.7335
-16.8797
-17.0258
-17.1716
-17.3173
-17.4629
-17.6083
-17.7531
-17.8972
-18.0387
-18.1755
-18.3024
-18.4108
-1.0542
-1.5026
-1.88753
-2.20524
-2.51422
-2.82646
-3.1284
-3.40738
-3.67184
-3.9221
-4.15858
-4.38362
-4.59787
-4.80431
-5.00497
-5.20108
-5.39379
-5.58366
-5.77112
-5.9562
-6.13848
-6.31812
-6.49611
-6.67253
-6.84743
-7.02083
-7.19296
-7.36453
-7.53559
-7.7058
-7.8753
-8.0442
-8.21264
-8.38047
-8.54772
-8.71435
-8.8804
-9.0458
-9.21065
-9.37491
-9.53845
-9.7014
-9.86376
-10.0256
-10.1868
-10.3475
-10.5078
-10.6675
-10.8267
-10.9855
-11.1437
-11.3015
-11.4589
-11.6159
-11.7724
-11.9285
-12.0841
-12.2393
-12.3941
-12.5485
-12.7024
-12.856
-13.0092
-13.1619
-13.3143
-13.4664
-13.6181
-13.7696
-13.9206
-14.0714
-14.2219
-14.372
-14.5218
-14.6713
-14.8206
-14.9696
-15.1183
-15.2668
-15.415
-15.563
-15.7108
-15.8583
-16.0056
-16.1527
-16.2997
-16.4464
-16.5929
-16.7393
-16.8856
-17.0316
-17.1774
-17.3231
-17.4687
-17.6141
-17.7589
-17.9031
-18.0448
-18.1825
-18.3098
-18.4188
-1.02373
-1.51743
-1.91114
-2.22939
-2.53857
-2.85131
-3.15401
-3.43204
-3.69681
-3.94718
-4.18356
-4.4084
-4.62245
-4.8286
-5.02899
-5.22487
-5.4174
-5.60712
-5.79449
-5.97949
-6.1618
-6.34149
-6.51946
-6.69587
-6.87071
-7.04409
-7.21623
-7.38775
-7.55877
-7.72894
-7.89841
-8.0673
-8.23573
-8.40356
-8.5708
-8.73743
-8.90348
-9.06888
-9.23373
-9.39799
-9.56154
-9.72449
-9.88686
-10.0487
-10.2099
-10.3706
-10.5309
-10.6906
-10.8498
-11.0086
-11.1668
-11.3246
-11.482
-11.6391
-11.7956
-11.9516
-12.1073
-12.2625
-12.4173
-12.5717
-12.7256
-12.8792
-13.0324
-13.1852
-13.3376
-13.4897
-13.6414
-13.7928
-13.9439
-14.0947
-14.2452
-14.3953
-14.5451
-14.6947
-14.8439
-14.9929
-15.1417
-15.2902
-15.4384
-15.5864
-15.7342
-15.8817
-16.029
-16.1761
-16.3231
-16.4698
-16.6164
-16.7628
-16.9091
-17.0551
-17.2009
-17.3466
-17.4921
-17.6376
-17.7824
-17.9265
-18.0681
-18.2054
-18.3325
-18.441
-18.2171
-18.4794
-19.2158
-19.3404
-18.799
-17.7158
-16.2562
-14.5528
-12.7922
-11.0699
-9.47628
-8.03935
-6.77524
-5.67862
-4.73605
-3.92766
-3.23592
-2.64104
-2.12753
-1.68343
-1.29703
-0.958473
-0.660989
-0.398575
-0.165869
0.0417605
0.227062
0.392366
0.540445
0.67352
0.793797
0.90188
0.997494
1.08232
1.15756
1.22397
1.28232
1.33329
1.37745
1.41534
1.44743
1.47419
1.49602
1.51331
1.52641
1.53564
1.54133
1.54373
1.54312
1.53975
1.53384
1.5256
1.51523
1.50293
1.48886
1.47321
1.45603
1.43745
1.41763
1.39666
1.3746
1.35152
1.32747
1.3025
1.27664
1.24997
1.2225
1.19422
1.16514
1.13528
1.1047
1.07347
1.04158
1.00914
0.976145
0.942798
0.908966
0.87475
0.84009
0.805099
0.76975
0.734156
0.698298
0.662281
0.626121
0.589914
0.55355
0.517256
0.480845
0.44444
0.407921
0.371231
0.334363
0.296995
0.25888
0.219995
0.178278
0.13499
0.0837831
0.0359198
-18.2575
-18.4059
-19.1093
-19.2509
-18.7215
-17.6587
-16.2212
-14.5374
-12.7925
-11.0816
-9.49641
-8.06416
-6.80252
-5.70692
-4.76417
-3.95487
-3.26159
-2.66496
-2.14971
-1.70391
-1.31601
-0.976209
-0.677625
-0.414128
-0.180566
0.0276815
0.213422
0.37917
0.527411
0.660527
0.780008
0.887903
0.983631
1.06852
1.14383
1.21031
1.26873
1.31977
1.36399
1.40192
1.43406
1.46086
1.48272
1.50004
1.51318
1.52244
1.52815
1.53057
1.52999
1.52664
1.52075
1.51252
1.50218
1.4899
1.47585
1.4602
1.44306
1.4245
1.4047
1.38375
1.36169
1.33862
1.31457
1.2896
1.26373
1.23704
1.20955
1.18124
1.15213
1.12224
1.09163
1.06036
1.02843
0.995942
0.962916
0.929535
0.895668
0.861426
0.826745
0.791745
0.756389
0.720802
0.684948
0.648949
0.612812
0.57663
0.540312
0.504062
0.467715
0.431393
0.394967
0.358414
0.321708
0.284621
0.246834
0.208554
0.168011
0.126243
0.0779687
0.0328672
-18.2518
-18.413
-19.0344
-19.1593
-18.6346
-17.5894
-16.1744
-14.5126
-12.7871
-11.0919
-9.51719
-8.09196
-6.83465
-5.74062
-4.79748
-3.98692
-3.29172
-2.69305
-2.17584
-1.72813
-1.33856
-0.997247
-0.697323
-0.43257
-0.197943
0.011175
0.197588
0.364117
0.512859
0.646535
0.765448
0.872463
0.968134
1.05313
1.12854
1.19512
1.25363
1.30475
1.34903
1.38703
1.41923
1.44607
1.46799
1.48535
1.49852
1.50781
1.51356
1.51601
1.51545
1.51213
1.50626
1.49807
1.48775
1.47549
1.46147
1.44582
1.42872
1.41018
1.39041
1.36949
1.34743
1.32436
1.30031
1.27534
1.24946
1.22276
1.19524
1.16691
1.13776
1.10783
1.07718
1.04587
1.01389
0.981354
0.948288
0.914865
0.880959
0.846686
0.81198
0.776966
0.741602
0.706019
0.670169
0.634187
0.598077
0.561928
0.525655
0.489469
0.453187
0.416965
0.380633
0.344238
0.307706
0.270928
0.233519
0.195919
0.156677
0.116586
0.0716084
0.0294827
-18.2769
-18.433
-18.9723
-19.0757
-18.5459
-17.5138
-16.1195
-14.4829
-12.7783
-11.1013
-9.53905
-8.12281
-6.87112
-5.77915
-4.83572
-4.02379
-3.32657
-2.72595
-2.2068
-1.75685
-1.36517
-1.02196
-0.720356
-0.454126
-0.218217
-0.0080084
0.17927
0.346666
0.496028
0.630356
0.749168
0.855199
0.95078
1.03595
1.1115
1.1782
1.23682
1.28805
1.33243
1.3705
1.40277
1.42968
1.45165
1.46906
1.48228
1.49162
1.4974
1.49989
1.49937
1.49608
1.49024
1.48207
1.47178
1.45955
1.44556
1.42994
1.41287
1.39435
1.37461
1.35372
1.33166
1.30863
1.28458
1.2596
1.2337
1.20699
1.17944
1.15107
1.12189
1.09191
1.06121
1.02985
0.997813
0.965227
0.932114
0.89864
0.864688
0.830378
0.795643
0.760609
0.72523
0.689647
0.653805
0.617861
0.581757
0.545682
0.509421
0.473336
0.43711
0.401007
0.364772
0.32855
0.292212
0.255764
0.218794
0.181971
0.144151
0.105927
0.0646112
0.0257696
-18.2962
-18.4437
-18.9098
-18.9904
-18.4588
-17.4383
-16.0618
-14.4522
-12.7699
-11.113
-9.56507
-8.15898
-6.91303
-5.82354
-4.88015
-4.06691
-3.36754
-2.76465
-2.24315
-1.7905
-1.39627
-1.05081
-0.747227
-0.479306
-0.241948
-0.0305354
0.157702
0.325906
0.475899
0.610683
0.729793
0.835566
0.931305
1.01671
1.09245
1.15933
1.2181
1.26946
1.31396
1.35214
1.38449
1.41148
1.43352
1.451
1.46427
1.47366
1.4795
1.48203
1.48155
1.4783
1.47251
1.46437
1.45411
1.44192
1.42797
1.41239
1.39534
1.37686
1.35715
1.33628
1.31424
1.29123
1.26719
1.2422
1.21631
1.18958
1.16198
1.13358
1.10435
1.07432
1.04357
1.01215
0.980046
0.947394
0.914226
0.880691
0.84668
0.812317
0.777555
0.742501
0.707106
0.671529
0.635692
0.599809
0.563676
0.527721
0.491443
0.455486
0.419321
0.383341
0.347217
0.31118
0.275063
0.238969
0.202502
0.166559
0.13029
0.0941456
0.0568758
0.0216935
-18.3135
-18.4517
-18.8438
-18.8961
-18.3648
-17.3565
-16.0026
-14.4228
-12.7646
-11.1295
-9.59732
-8.20273
-6.9631
-5.87653
-4.93335
-4.11852
-3.41644
-2.81028
-2.28557
-1.82976
-1.43262
-1.08463
-0.778815
-0.508972
-0.269979
-0.0572162
0.132127
0.301193
0.451961
0.587185
0.707014
0.813319
0.909399
0.995091
1.0711
1.13821
1.19718
1.24872
1.29337
1.33168
1.36416
1.39124
1.41337
1.43093
1.44427
1.45373
1.45964
1.46223
1.4618
1.4586
1.45286
1.44477
1.43455
1.4224
1.4085
1.39297
1.37596
1.35753
1.33785
1.317
1.29499
1.272
1.24796
1.22297
1.19709
1.17034
1.1427
1.11425
1.08497
1.05489
1.02407
0.992571
0.960414
0.927675
0.894427
0.860821
0.826744
0.792321
0.757528
0.722464
0.687055
0.651487
0.61563
0.579822
0.543659
0.507832
0.47156
0.435711
0.399632
0.363769
0.327785
0.291937
0.256076
0.220359
0.184475
0.149501
0.11493
0.0810908
0.0482766
0.0171896
-18.3293
-18.4558
-18.7737
-18.7924
-18.2611
-17.266
-15.9367
-14.389
-12.7597
-11.1496
-9.63576
-8.25467
-7.02255
-5.93904
-4.99597
-4.1792
-3.47378
-2.86363
-2.33492
-1.87537
-1.47481
-1.12386
-0.815447
-0.543364
-0.30245
-0.0881396
0.102545
0.272684
0.424474
0.560353
0.681074
0.78819
0.884693
0.970753
1.04712
1.11454
1.17378
1.22554
1.27039
1.30887
1.34149
1.36871
1.39095
1.40861
1.42205
1.43159
1.43758
1.44025
1.43988
1.43675
1.43107
1.42304
1.41287
1.40077
1.38693
1.37146
1.35451
1.33613
1.3165
1.29568
1.27371
1.25073
1.2267
1.20172
1.17583
1.14905
1.12137
1.09288
1.06354
1.0334
1.00251
0.970923
0.938691
0.905852
0.872509
0.838817
0.804687
0.770205
0.735359
0.700262
0.664837
0.629292
0.593408
0.557677
0.521514
0.485774
0.449576
0.41379
0.377833
0.342079
0.306273
0.270614
0.235053
0.199735
0.164508
0.130592
0.0978744
0.0665772
0.0386518
0.0121611
-18.3438
-18.4554
-18.7005
-18.6812
-18.1496
-17.1689
-15.865
-14.3505
-12.7521
-11.1689
-9.67558
-8.30974
-7.08674
-6.00568
-5.06274
-4.24452
-3.53623
-2.92245
-2.38977
-1.92632
-1.522
-1.16771
-0.856285
-0.581657
-0.338553
-0.122808
0.0692604
0.240609
0.393546
0.530238
0.651867
0.759878
0.856902
0.943443
1.02026
1.08805
1.14761
1.19964
1.24471
1.28339
1.31619
1.34356
1.36595
1.38373
1.39729
1.40694
1.41304
1.4158
1.41552
1.41247
1.40688
1.39892
1.38882
1.37678
1.36302
1.34763
1.33074
1.31243
1.29285
1.27209
1.25016
1.2272
1.2032
1.17822
1.15231
1.12551
1.0978
1.06925
1.03984
1.00963
0.978652
0.946983
0.914644
0.881708
0.848261
0.814453
0.780228
0.745683
0.710794
0.675657
0.640212
0.604686
0.568798
0.533116
0.497023
0.461303
0.425239
0.389487
0.353694
0.318037
0.282457
0.246982
0.211774
0.176882
0.142361
0.109594
0.0788933
0.0503725
0.027793
0.00646064
-18.3573
-18.4516
-18.6258
-18.5642
-18.031
-17.0659
-15.7889
-14.3062
-12.7387
-11.1827
-9.71138
-8.36239
-7.14985
-6.07432
-5.13327
-4.31417
-3.60307
-2.9856
-2.44891
-1.98159
-1.57364
-1.21611
-0.901781
-0.624635
-0.379316
-0.161767
0.0319188
0.204706
0.358931
0.496624
0.619242
0.728233
0.825889
0.91299
0.990296
1.05848
1.11837
1.17069
1.21602
1.25493
1.28793
1.3155
1.33806
1.35599
1.36966
1.37945
1.38568
1.38857
1.38841
1.38547
1.37999
1.37213
1.3621
1.35016
1.3365
1.3212
1.3044
1.28617
1.26667
1.24596
1.22409
1.20115
1.17721
1.15225
1.12634
1.0995
1.07175
1.04314
1.01366
0.983345
0.952255
0.920447
0.88797
0.854927
0.821375
0.787456
0.753111
0.718487
0.683546
0.648378
0.612915
0.577398
0.541548
0.505863
0.469894
0.434174
0.398271
0.362549
0.32696
0.291397
0.256092
0.220797
0.185997
0.151567
0.117767
0.0862173
0.0577107
0.0321832
0.015432
-0.000146637
-18.3701
-18.4451
-18.5512
-18.4434
-17.9061
-16.9569
-15.7068
-14.2593
-12.7264
-11.1999
-9.75146
-8.41946
-7.21707
-6.1485
-5.2094
-4.38889
-3.67452
-3.05297
-2.51195
-2.04051
-1.62872
-1.26779
-0.950495
-0.670822
-0.423383
-0.203728
-0.00849503
0.165499
0.320775
0.459343
0.582854
0.692762
0.791038
0.87867
0.956478
1.0251
1.08537
1.13807
1.18374
1.22295
1.25623
1.28404
1.30684
1.32499
1.33884
1.34882
1.35524
1.3583
1.35828
1.35548
1.35013
1.3424
1.33247
1.32064
1.30709
1.29191
1.27522
1.2571
1.23767
1.21704
1.19524
1.17234
1.14842
1.12347
1.09755
1.07068
1.04288
1.01419
0.984632
0.954207
0.922994
0.891025
0.858401
0.825226
0.791538
0.757493
0.723034
0.688325
0.653317
0.618113
0.582649
0.547107
0.51134
0.475638
0.439812
0.404112
0.368381
0.332712
0.297358
0.261901
0.226923
0.191804
0.157465
0.123377
0.0905177
0.0601848
0.0340117
0.0116305
0.00122434
-0.0080525
-18.3822
-18.4382
-18.4859
-18.3341
-17.7913
-16.8574
-15.6324
-14.2197
-12.7204
-11.2219
-9.79489
-8.47845
-7.28546
-6.22136
-5.28292
-4.4608
-3.74343
-3.11826
-2.57341
-2.09829
-1.68307
-1.31903
-0.999008
-0.716966
-0.46753
-0.246082
-0.0493312
0.12584
0.282089
0.421403
0.545636
0.656241
0.754982
0.842932
0.921034
0.989931
1.05052
1.10357
1.14957
1.18909
1.22266
1.25076
1.27381
1.29221
1.30634
1.31654
1.32315
1.3264
1.32654
1.32389
1.31871
1.31111
1.30128
1.28956
1.27616
1.26111
1.24452
1.22651
1.20718
1.18663
1.1649
1.14206
1.11814
1.0932
1.06727
1.04036
1.0125
0.983727
0.954075
0.923524
0.892184
0.860067
0.827286
0.79396
0.760104
0.725919
0.691317
0.656514
0.621445
0.586178
0.550744
0.51518
0.479511
0.443821
0.408149
0.372509
0.33695
0.301377
0.266278
0.230949
0.196335
0.161314
0.127342
0.093695
0.0618837
0.0326647
0.00877698
-0.0105818
-0.0144305
-0.0174221
-18.3944
-18.4345
-18.4383
-18.2508
-17.7026
-16.7816
-15.5777
-14.1911
-12.7174
-11.2409
-9.8315
-8.52821
-7.34342
-6.28347
-5.34631
-4.52349
-3.80394
-3.17587
-2.62787
-2.14976
-1.73173
-1.36517
-1.04294
-0.759061
-0.50807
-0.285283
-0.0872593
0.0889338
0.24604
0.38599
0.510871
0.622006
0.721339
0.810052
0.888597
0.957731
1.0185
1.07174
1.11794
1.15766
1.1914
1.21967
1.24289
1.26145
1.27573
1.28607
1.29284
1.29624
1.2965
1.29397
1.28893
1.28145
1.27168
1.26006
1.24678
1.23184
1.21536
1.19744
1.1782
1.15772
1.13604
1.11324
1.08934
1.06441
1.03847
1.01151
0.983592
0.954725
0.924976
0.894285
0.862807
0.830524
0.797565
0.764077
0.730036
0.695714
0.660974
0.626071
0.59097
0.555668
0.52028
0.484724
0.44916
0.413524
0.378023
0.342494
0.307084
0.271657
0.236801
0.201617
0.167123
0.13237
0.0986621
0.0656168
0.0346072
0.00627396
-0.0156037
-0.0323978
-0.0301364
-0.0277607
-18.4069
-18.4347
-18.4074
-18.1932
-17.6401
-16.7285
-15.54
-14.1724
-12.718
-11.2587
-9.86314
-8.57002
-7.39165
-6.33499
-5.39886
-4.57548
-3.85427
-3.22394
-2.67348
-2.19305
-1.77286
-1.40435
-1.08041
-0.795095
-0.542844
-0.319025
-0.120216
0.0566474
0.214292
0.354629
0.479922
0.591384
0.691087
0.780457
0.859432
0.929045
0.99026
1.04371
1.0901
1.12998
1.16388
1.19227
1.21561
1.23428
1.24864
1.25908
1.26594
1.26945
1.26975
1.26724
1.26235
1.25496
1.24521
1.23364
1.22045
1.2056
1.18918
1.17133
1.15214
1.1317
1.11006
1.08727
1.06338
1.03843
1.01245
0.985427
0.957444
0.928469
0.898613
0.867769
0.836147
0.80369
0.770549
0.736907
0.702694
0.668256
0.633417
0.59845
0.563357
0.528064
0.492739
0.457242
0.421786
0.386206
0.350851
0.315517
0.280249
0.244992
0.210329
0.17515
0.140764
0.106409
0.0729883
0.0403384
0.00994111
-0.0176948
-0.0379999
-0.0526894
-0.0451178
-0.0385795
-18.4198
-18.4386
-18.3893
-18.1556
-17.5985
-16.6938
-15.5167
-14.163
-12.723
-11.2768
-9.89151