/*--------------------------------*- C++ -*----------------------------------*\
| =========                 |                                                 |
| \\      /  F ield         | OpenFOAM: The Open Source CFD Toolbox           |
|  \\    /   O peration     | Version:  v2012                                 |
|   \\  /    A nd           | Website:  www.openfoam.com                      |
|    \\/     M anipulation  |                                                 |
\*---------------------------------------------------------------------------*/
FoamFile
{
    version     2.0;
    format      ascii;
    class       volVectorField;
    location    "0.108";
    object      U.air;
}
// * * * * * * * * * * * * * * * * * * * * * * * * * * * * * * * * * * * * * //

dimensions      [0 1 -1 0 0 0 0];


internalField   nonuniform List<vector> 
5600
(
(9.20613 0.00896207 0)
(8.83522 0.0172511 0)
(8.45617 0.0174856 0)
(8.07886 0.0144928 0)
(7.73095 0.00998022 0)
(7.42074 0.00527199 0)
(7.15458 0.000854258 0)
(6.93592 -0.0026685 0)
(6.75337 -0.00525074 0)
(6.60589 -0.00717334 0)
(6.48841 -0.00847296 0)
(6.39676 -0.00921688 0)
(6.32489 -0.00951442 0)
(6.26922 -0.00946922 0)
(6.22479 -0.00919149 0)
(6.18965 -0.00879373 0)
(6.16032 -0.00833848 0)
(6.13622 -0.00788316 0)
(6.11513 -0.00747795 0)
(6.0973 -0.00722328 0)
(6.08161 -0.00699068 0)
(6.06825 -0.00681211 0)
(6.05694 -0.00671012 0)
(6.04768 -0.00662237 0)
(6.0401 -0.00651509 0)
(6.03385 -0.00638644 0)
(6.02868 -0.0062617 0)
(6.02432 -0.0061414 0)
(6.0207 -0.00601977 0)
(6.01748 -0.00588513 0)
(6.01428 -0.00574966 0)
(6.01096 -0.00561236 0)
(6.00786 -0.00552323 0)
(6.00444 -0.00544524 0)
(6.00131 -0.0053833 0)
(5.99787 -0.00532925 0)
(5.99496 -0.00527567 0)
(5.99154 -0.00523255 0)
(5.98895 -0.00518677 0)
(5.98555 -0.00514931 0)
(5.98344 -0.00510701 0)
(5.98009 -0.00506821 0)
(5.97859 -0.00501898 0)
(5.97512 -0.00498601 0)
(5.97439 -0.00493773 0)
(5.9708 -0.00492996 0)
(5.97067 -0.00491097 0)
(5.96723 -0.00492888 0)
(5.96753 -0.00490508 0)
(5.96451 -0.00493794 0)
(5.96487 -0.00489097 0)
(5.96256 -0.00493047 0)
(5.96212 -0.00491928 0)
(5.96146 -0.00481996 0)
(5.95844 -0.0048736 0)
(5.95976 -0.00472183 0)
(5.95453 -0.0048148 0)
(5.95649 -0.00466844 0)
(5.95134 -0.00478714 0)
(5.95219 -0.00484015 0)
(5.95047 -0.00473168 0)
(5.94707 -0.00504048 0)
(5.95065 -0.00487887 0)
(5.94373 -0.00516562 0)
(5.95026 -0.00506747 0)
(5.94311 -0.00521129 0)
(5.94879 -0.00520595 0)
(5.94477 -0.00519247 0)
(5.94615 -0.00535154 0)
(5.94834 -0.00510865 0)
(5.94295 -0.00538265 0)
(5.9508 -0.00518315 0)
(5.94249 -0.00533539 0)
(5.9506 -0.00518944 0)
(5.94431 -0.00524045 0)
(5.94729 -0.00537654 0)
(5.94997 -0.00492885 0)
(5.94015 -0.00552833 0)
(5.9559 -0.00500643 0)
(5.93697 -0.00535318 0)
(5.95604 -0.00514157 0)
(5.93927 -0.00515069 0)
(5.95014 -0.00542417 0)
(5.94804 -0.00473295 0)
(5.93756 -0.00571493 0)
(5.95837 -0.0048519 0)
(5.93192 -0.00523444 0)
(5.95711 -0.00513584 0)
(5.93509 -0.00486582 0)
(5.94778 -0.00554352 0)
(5.94612 -0.00453499 0)
(5.93247 -0.00548371 0)
(5.95227 -0.00509 0)
(5.9316 -0.00460443 0)
(5.94146 -0.00574306 0)
(5.94576 -0.00393057 0)
(5.91047 -0.00704872 0)
(5.97701 -0.00359118 0)
(5.87498 -0.00506442 0)
(5.94742 -0.0104462 0)
(9.39288 0.0365643 0)
(9.38796 0.0381889 0)
(9.35655 0.0375707 0)
(9.29944 0.037614 0)
(9.22386 0.0368807 0)
(9.13562 0.0351056 0)
(9.03684 0.0325827 0)
(8.9311 0.0296898 0)
(8.82326 0.0267995 0)
(8.71593 0.0238919 0)
(8.61151 0.0210199 0)
(8.51245 0.0184245 0)
(8.41912 0.0161252 0)
(8.3332 0.0141345 0)
(8.25409 0.0124446 0)
(8.18291 0.0110461 0)
(8.11821 0.00989071 0)
(8.06098 0.00894527 0)
(8.00935 0.00813131 0)
(7.96457 0.00738216 0)
(7.92472 0.00673323 0)
(7.89087 0.00615853 0)
(7.86047 0.00568762 0)
(7.83345 0.00526916 0)
(7.8091 0.00488301 0)
(7.78743 0.00452637 0)
(7.76783 0.00421496 0)
(7.74959 0.00394521 0)
(7.73269 0.00370089 0)
(7.71679 0.00350707 0)
(7.70221 0.00335 0)
(7.68829 0.00320381 0)
(7.67593 0.0030954 0)
(7.66383 0.00301824 0)
(7.65345 0.0029424 0)
(7.64296 0.0028652 0)
(7.63417 0.00279689 0)
(7.62508 0.00272313 0)
(7.61755 0.00266041 0)
(7.60956 0.00258605 0)
(7.60324 0.00251373 0)
(7.59613 0.00243527 0)
(7.59099 0.00236006 0)
(7.58475 0.00226726 0)
(7.58069 0.00220024 0)
(7.57501 0.00212946 0)
(7.57167 0.00208719 0)
(7.56638 0.00203427 0)
(7.56348 0.00200358 0)
(7.559 0.00194745 0)
(7.55611 0.00194044 0)
(7.55318 0.00190253 0)
(7.54943 0.00188934 0)
(7.54834 0.0019031 0)
(7.54346 0.00186883 0)
(7.54343 0.00191295 0)
(7.53823 0.00186834 0)
(7.53747 0.00189917 0)
(7.53433 0.00185036 0)
(7.53124 0.00186195 0)
(7.53142 0.00190506 0)
(7.5266 0.00189542 0)
(7.52856 0.00195399 0)
(7.5241 0.00196851 0)
(7.52628 0.00199533 0)
(7.52369 0.00200863 0)
(7.52428 0.00200562 0)
(7.52472 0.00203495 0)
(7.52254 0.00197911 0)
(7.52567 0.00205537 0)
(7.52223 0.00201509 0)
(7.52619 0.00202283 0)
(7.52293 0.00201366 0)
(7.52532 0.00203962 0)
(7.52514 0.00201956 0)
(7.52252 0.00197094 0)
(7.52783 0.00209976 0)
(7.52091 0.00197153 0)
(7.52849 0.00201909 0)
(7.52096 0.00202866 0)
(7.5265 0.00200428 0)
(7.52358 0.00205319 0)
(7.52167 0.00189972 0)
(7.52783 0.00216373 0)
(7.51854 0.00187983 0)
(7.52798 0.00202716 0)
(7.51803 0.00206167 0)
(7.52461 0.00195995 0)
(7.52103 0.00208443 0)
(7.51776 0.00176251 0)
(7.52412 0.00222703 0)
(7.51513 0.00190685 0)
(7.52073 0.00193931 0)
(7.51518 0.00214842 0)
(7.51465 0.00162491 0)
(7.51797 0.00267774 0)
(7.50913 0.00141077 0)
(7.5096 0.00268835 0)
(7.52287 0.00438458 0)
(7.46418 -0.00555329 0)
(9.40085 0.0229775 0)
(9.42974 0.0304832 0)
(9.4607 0.0319626 0)
(9.47751 0.0330085 0)
(9.48908 0.0320168 0)
(9.48978 0.0301503 0)
(9.48381 0.0271905 0)
(9.46897 0.0241446 0)
(9.44572 0.0213407 0)
(9.41436 0.0186678 0)
(9.37566 0.0161995 0)
(9.33021 0.0139065 0)
(9.27895 0.0119647 0)
(9.22318 0.0102927 0)
(9.16428 0.00881965 0)
(9.10382 0.00751875 0)
(9.04279 0.00633711 0)
(8.98299 0.0052559 0)
(8.92493 0.00424607 0)
(8.87016 0.00328546 0)
(8.81858 0.00241352 0)
(8.77098 0.00159248 0)
(8.72722 0.000910157 0)
(8.68749 0.000331996 0)
(8.6511 -0.000151874 0)
(8.61811 -0.000546611 0)
(8.5879 -0.00081767 0)
(8.55998 -0.00100539 0)
(8.53431 -0.00115745 0)
(8.51053 -0.00127771 0)
(8.48902 -0.00136919 0)
(8.46884 -0.00146922 0)
(8.45102 -0.00155575 0)
(8.43374 -0.00163201 0)
(8.41888 -0.00170478 0)
(8.40395 -0.00177536 0)
(8.39142 -0.00183258 0)
(8.3786 -0.00188834 0)
(8.36799 -0.00192394 0)
(8.35681 -0.00196934 0)
(8.34786 -0.00199947 0)
(8.33806 -0.00203167 0)
(8.33069 -0.00204421 0)
(8.32218 -0.0020598 0)
(8.31604 -0.00204437 0)
(8.30829 -0.00206875 0)
(8.30304 -0.00206858 0)
(8.29595 -0.00211719 0)
(8.29118 -0.00212235 0)
(8.28523 -0.00216989 0)
(8.28034 -0.00217785 0)
(8.27653 -0.00218527 0)
(8.27074 -0.00220181 0)
(8.26922 -0.00215319 0)
(8.26295 -0.00219005 0)
(8.26227 -0.00210759 0)
(8.25666 -0.00214664 0)
(8.25463 -0.0021097 0)
(8.25202 -0.0021208 0)
(8.2469 -0.00223288 0)
(8.24781 -0.00218814 0)
(8.24214 -0.00239427 0)
(8.24399 -0.00238785 0)
(8.23952 -0.00261021 0)
(8.24077 -0.00261234 0)
(8.23916 -0.0027232 0)
(8.23817 -0.00277495 0)
(8.23997 -0.00276073 0)
(8.23674 -0.00285293 0)
(8.24024 -0.00279116 0)
(8.23675 -0.00292353 0)
(8.24032 -0.00279766 0)
(8.23792 -0.00290363 0)
(8.23885 -0.0028235 0)
(8.24079 -0.0027794 0)
(8.23618 -0.00290967 0)
(8.24256 -0.00269842 0)
(8.23562 -0.00294775 0)
(8.24219 -0.00267324 0)
(8.23653 -0.00285675 0)
(8.23932 -0.00276012 0)
(8.24011 -0.00266851 0)
(8.23443 -0.00294154 0)
(8.24245 -0.00254682 0)
(8.23339 -0.00293437 0)
(8.24091 -0.00256762 0)
(8.2341 -0.00271495 0)
(8.23638 -0.00274412 0)
(8.23806 -0.00238437 0)
(8.23057 -0.00292363 0)
(8.23769 -0.00234431 0)
(8.2307 -0.00260468 0)
(8.23347 -0.00263635 0)
(8.23125 -0.00216822 0)
(8.22922 -0.00296753 0)
(8.23031 -0.00155509 0)
(8.22981 -0.00289522 0)
(8.21723 -0.0023935 0)
(8.24457 -6.2235e-05 0)
(8.19783 -0.00824752 0)
(9.3996 0.0218065 0)
(9.43084 0.0295993 0)
(9.46788 0.03031 0)
(9.49941 0.0313243 0)
(9.52916 0.0312122 0)
(9.55561 0.0300576 0)
(9.58009 0.0284808 0)
(9.59923 0.0269613 0)
(9.61519 0.0255052 0)
(9.62559 0.0241799 0)
(9.63332 0.0227071 0)
(9.63467 0.021699 0)
(9.63265 0.0205994 0)
(9.62644 0.0196103 0)
(9.61586 0.0186993 0)
(9.60084 0.0178372 0)
(9.58139 0.0169723 0)
(9.55748 0.0160814 0)
(9.52932 0.0151427 0)
(9.49714 0.014128 0)
(9.46139 0.0130732 0)
(9.42262 0.0120305 0)
(9.3821 0.0110487 0)
(9.341 0.0101121 0)
(9.30002 0.00923007 0)
(9.26016 0.00840363 0)
(9.22205 0.00768482 0)
(9.18638 0.00705673 0)
(9.1532 0.00649087 0)
(9.12244 0.00598469 0)
(9.09425 0.0055532 0)
(9.06792 0.00515378 0)
(9.04411 0.00481296 0)
(9.02068 0.00449904 0)
(9.00011 0.00422409 0)
(8.97939 0.00396151 0)
(8.96167 0.00371961 0)
(8.94362 0.00349756 0)
(8.92849 0.00330202 0)
(8.91276 0.00311139 0)
(8.8999 0.00292857 0)
(8.88619 0.00275023 0)
(8.87542 0.00257682 0)
(8.86332 0.00242501 0)
(8.85432 0.00230578 0)
(8.84369 0.00217699 0)
(8.83608 0.00206241 0)
(8.82669 0.00193522 0)
(8.8198 0.00180701 0)
(8.81204 0.0016938 0)
(8.80489 0.00151251 0)
(8.79979 0.0014346 0)
(8.79198 0.00125123 0)
(8.78933 0.00125297 0)
(8.78164 0.00112096 0)
(8.77976 0.00116724 0)
(8.77355 0.00114685 0)
(8.7701 0.00102731 0)
(8.76734 0.00108282 0)
(8.76078 0.000787762 0)
(8.76162 0.000765445 0)
(8.75541 0.000581197 0)
(8.75702 0.000514798 0)
(8.75246 0.000415932 0)
(8.75319 0.000288743 0)
(8.75204 0.000295625 0)
(8.75027 0.000131182 0)
(8.75236 0.000172317 0)
(8.74896 9.79454e-05 0)
(8.75244 8.6244e-05 0)
(8.74901 3.99849e-05 0)
(8.75231 3.82859e-05 0)
(8.75045 7.52342e-05 0)
(8.75056 2.83769e-06 0)
(8.75352 0.000178786 0)
(8.74826 1.60255e-05 0)
(8.7548 0.000159482 0)
(8.74799 8.85442e-05 0)
(8.75415 0.000112832 0)
(8.74935 0.000240985 0)
(8.75086 -9.33495e-06 0)
(8.75314 0.00041685 0)
(8.74662 -2.94526e-05 0)
(8.75434 0.000318169 0)
(8.74604 0.000160584 0)
(8.7525 0.000214291 0)
(8.74747 0.000475013 0)
(8.74765 -3.66531e-05 0)
(8.75121 0.000753054 0)
(8.74369 5.92958e-05 0)
(8.74943 0.000515068 0)
(8.7444 0.000500512 0)
(8.74569 0.000168497 0)
(8.74497 0.000913462 0)
(8.74289 -4.28926e-05 0)
(8.74323 0.000953087 0)
(8.74516 0.000551962 0)
(8.73502 -5.7366e-05 0)
(8.7521 0.00326338 0)
(8.73886 -0.00622452 0)
(9.39777 0.0183358 0)
(9.42811 0.0258212 0)
(9.46497 0.0260946 0)
(9.49884 0.0271401 0)
(9.53109 0.0271814 0)
(9.56229 0.0262976 0)
(9.59297 0.0248723 0)
(9.62049 0.0232915 0)
(9.64608 0.0217627 0)
(9.66884 0.0202724 0)
(9.69 0.0189347 0)
(9.70842 0.0177057 0)
(9.72528 0.0166312 0)
(9.73972 0.0157987 0)
(9.7528 0.0151274 0)
(9.76352 0.0146123 0)
(9.77288 0.014169 0)
(9.7796 0.0138046 0)
(9.78471 0.0134391 0)
(9.78665 0.0130468 0)
(9.78586 0.012774 0)
(9.78227 0.0123544 0)
(9.77546 0.0118895 0)
(9.76525 0.0113854 0)
(9.75165 0.0108396 0)
(9.7347 0.0102327 0)
(9.7148 0.00961162 0)
(9.69251 0.00895835 0)
(9.66842 0.0083105 0)
(9.64299 0.00762031 0)
(9.61686 0.00700138 0)
(9.59015 0.0063614 0)
(9.56428 0.00581644 0)
(9.53813 0.00528345 0)
(9.51399 0.00481519 0)
(9.4895 0.00433644 0)
(9.46765 0.00390276 0)
(9.44529 0.00347126 0)
(9.42597 0.00310763 0)
(9.40591 0.002729 0)
(9.38907 0.0023925 0)
(9.37122 0.00207815 0)
(9.35608 0.00180289 0)
(9.33953 0.00150105 0)
(9.32636 0.00127478 0)
(9.31167 0.00103781 0)
(9.30032 0.000883043 0)
(9.28771 0.000711739 0)
(9.27735 0.000539534 0)
(9.26716 0.000443026 0)
(9.25636 0.000168818 0)
(9.24917 0.000110483 0)
(9.23836 -0.000145417 0)
(9.23336 -0.000171358 0)
(9.22359 -0.000343126 0)
(9.21903 -0.000344932 0)
(9.21194 -0.000333588 0)
(9.20514 -0.000546639 0)
(9.2024 -0.000413914 0)
(9.19377 -0.000683107 0)
(9.19422 -0.000757205 0)
(9.18759 -0.000820094 0)
(9.18829 -0.000915358 0)
(9.18457 -0.00102924 0)
(9.18385 -0.00123312 0)
(9.18383 -0.00121356 0)
(9.18107 -0.00139645 0)
(9.18334 -0.00138155 0)
(9.18002 -0.00145029 0)
(9.18313 -0.00148182 0)
(9.18042 -0.00154816 0)
(9.18263 -0.00153459 0)
(9.18224 -0.00146457 0)
(9.18068 -0.0016365 0)
(9.18473 -0.0013853 0)
(9.17955 -0.00152711 0)
(9.18522 -0.00143767 0)
(9.18002 -0.00149358 0)
(9.18384 -0.00144261 0)
(9.18205 -0.00132056 0)
(9.18058 -0.00161966 0)
(9.1848 -0.00120564 0)
(9.17862 -0.00149967 0)
(9.18447 -0.00134507 0)
(9.17913 -0.00138598 0)
(9.182 -0.00138253 0)
(9.18169 -0.00111125 0)
(9.1779 -0.00159069 0)
(9.1829 -0.00109321 0)
(9.1777 -0.00134128 0)
(9.18002 -0.00128302 0)
(9.17995 -0.001052 0)
(9.17741 -0.00135354 0)
(9.17935 -0.00108332 0)
(9.17813 -0.00142301 0)
(9.17707 -0.00102487 0)
(9.18268 -0.000874364 0)
(9.17342 -0.00162355 0)
(9.18594 0.000535355 0)
(9.18273 -0.0051497 0)
(9.39592 0.0145866 0)
(9.42522 0.0219354 0)
(9.46142 0.0220253 0)
(9.49592 0.0229266 0)
(9.52813 0.0230121 0)
(9.56006 0.0222583 0)
(9.59152 0.0210425 0)
(9.62062 0.0197386 0)
(9.648 0.0185262 0)
(9.67335 0.0174219 0)
(9.69754 0.0163978 0)
(9.71986 0.0155795 0)
(9.74126 0.0148802 0)
(9.76118 0.0143364 0)
(9.78043 0.0139156 0)
(9.7985 0.0135847 0)
(9.81616 0.0133105 0)
(9.83267 0.0130699 0)
(9.84877 0.0128439 0)
(9.86373 0.0126509 0)
(9.87808 0.0123917 0)
(9.89111 0.0121204 0)
(9.90338 0.0118733 0)
(9.91403 0.0116586 0)
(9.92376 0.0114569 0)
(9.93156 0.0112515 0)
(9.93811 0.0110497 0)
(9.9423 0.0108449 0)
(9.94506 0.0105812 0)
(9.9449 0.0103917 0)
(9.94293 0.0101299 0)
(9.93879 0.00979379 0)
(9.93251 0.00948401 0)
(9.92435 0.00911228 0)
(9.91435 0.0087256 0)
(9.9028 0.00829905 0)
(9.88983 0.00785784 0)
(9.87571 0.00741132 0)
(9.86072 0.00696529 0)
(9.845 0.00653529 0)
(9.82915 0.00606999 0)
(9.81266 0.00564828 0)
(9.79705 0.00529255 0)
(9.78049 0.00491436 0)
(9.76549 0.00457536 0)
(9.74955 0.00423746 0)
(9.73541 0.0039021 0)
(9.72146 0.00366109 0)
(9.70768 0.00330153 0)
(9.69636 0.00320743 0)
(9.68254 0.00281009 0)
(9.67328 0.00268097 0)
(9.65998 0.00241094 0)
(9.65137 0.00224323 0)
(9.6399 0.00214687 0)
(9.63042 0.00192946 0)
(9.62232 0.00207004 0)
(9.61078 0.00166852 0)
(9.60727 0.00175291 0)
(9.59723 0.00131488 0)
(9.59562 0.00103673 0)
(9.5898 0.000835663 0)
(9.58797 0.000289932 0)
(9.58669 0.000185151 0)
(9.58338 -0.000293622 0)
(9.58469 -0.000216332 0)
(9.58164 -0.000529944 0)
(9.58371 -0.000580473 0)
(9.58135 -0.00064676 0)
(9.58313 -0.000806971 0)
(9.58218 -0.000760843 0)
(9.58217 -0.000926534 0)
(9.58418 -0.000652862 0)
(9.5813 -0.000970522 0)
(9.58515 -0.000651802 0)
(9.58175 -0.000750505 0)
(9.58443 -0.000806092 0)
(9.58356 -0.000582506 0)
(9.58205 -0.000842455 0)
(9.58556 -0.000369356 0)
(9.58121 -0.000904816 0)
(9.5857 -0.000321773 0)
(9.58199 -0.00061888 0)
(9.58385 -0.000676206 0)
(9.58517 -0.000332584 0)
(9.58087 -0.000730241 0)
(9.58678 -1.90809e-05 0)
(9.58082 -0.000716834 0)
(9.58562 -7.51818e-05 0)
(9.5848 -0.000197987 0)
(9.58079 -0.000552201 0)
(9.58777 1.39333e-05 0)
(9.5827 -0.000365875 0)
(9.58703 7.50432e-05 0)
(9.58641 -0.000343761 0)
(9.58408 -0.000147177 0)
(9.59225 0.000266153 0)
(9.58433 -0.00085524 0)
(9.59364 0.000652023 0)
(9.59331 -0.00348896 0)
(9.395 0.0113283 0)
(9.42268 0.0175863 0)
(9.45809 0.0175071 0)
(9.49302 0.0182261 0)
(9.52498 0.0183633 0)
(9.55692 0.0177368 0)
(9.58834 0.0167455 0)
(9.61772 0.0157011 0)
(9.64531 0.0147285 0)
(9.67116 0.0138418 0)
(9.69582 0.013006 0)
(9.71892 0.0123335 0)
(9.74112 0.0117226 0)
(9.7622 0.0112256 0)
(9.78269 0.0108354 0)
(9.80242 0.0105266 0)
(9.82185 0.0102748 0)
(9.84067 0.0100699 0)
(9.85927 0.00988519 0)
(9.87729 0.00971894 0)
(9.8951 0.00956117 0)
(9.91233 0.00939238 0)
(9.9293 0.00924723 0)
(9.94568 0.00912518 0)
(9.96179 0.009016 0)
(9.97741 0.00889887 0)
(9.99251 0.00880051 0)
(10.0073 0.00869789 0)
(10.0212 0.00863472 0)
(10.0351 0.00854553 0)
(10.0475 0.00845914 0)
(10.06 0.00834381 0)
(10.0706 0.00826746 0)
(10.0815 0.00815859 0)
(10.0898 0.00805907 0)
(10.0987 0.00792104 0)
(10.1044 0.00778852 0)
(10.1109 0.00761311 0)
(10.1137 0.00747665 0)
(10.1175 0.00722517 0)
(10.1173 0.00708405 0)
(10.1174 0.00686761 0)
(10.1152 0.00663674 0)
(10.1131 0.00638387 0)
(10.1081 0.00610449 0)
(10.1038 0.00584438 0)
(10.0964 0.00547993 0)
(10.0904 0.0052434 0)
(10.0816 0.00480634 0)
(10.0745 0.0046353 0)
(10.0656 0.00421733 0)
(10.0566 0.00396582 0)
(10.0477 0.00370689 0)
(10.0365 0.00336627 0)
(10.0285 0.00326443 0)
(10.0153 0.00287825 0)
(10.0087 0.00291817 0)
(9.99682 0.00226177 0)
(9.9909 0.00202804 0)
(9.98478 0.0015043 0)
(9.97687 0.000684941 0)
(9.97676 0.000452191 0)
(9.9706 -0.000179342 0)
(9.97239 -0.000184713 0)
(9.96833 -0.000522151 0)
(9.9698 -0.000646189 0)
(9.96852 -0.000789904 0)
(9.96814 -0.000944378 0)
(9.96952 -0.000916513 0)
(9.96743 -0.00112197 0)
(9.97017 -0.00107079 0)
(9.96742 -0.00125048 0)
(9.97089 -0.00106863 0)
(9.96901 -0.00118444 0)
(9.9694 -0.00112959 0)
(9.97217 -0.000907838 0)
(9.96659 -0.00116422 0)
(9.97344 -0.000875524 0)
(9.96586 -0.00108746 0)
(9.97326 -0.000966184 0)
(9.9686 -0.00109741 0)
(9.97068 -0.0010076 0)
(9.97426 -0.000809839 0)
(9.96691 -0.00117439 0)
(9.97639 -0.000749615 0)
(9.96686 -0.000989493 0)
(9.9769 -0.000842307 0)
(9.97129 -0.000962751 0)
(9.97282 -0.0011095 0)
(9.97951 -0.000553353 0)
(9.97126 -0.000967381 0)
(9.98055 -0.000986507 0)
(9.97526 -0.000898035 0)
(9.98069 -0.00100544 0)
(9.98012 -0.000849532 0)
(9.97887 -0.00114903 0)
(9.98496 -0.000726051 0)
(9.98115 -0.00121785 0)
(9.98483 -0.000584438 0)
(9.98659 -0.00365885 0)
(9.39444 0.00798855 0)
(9.42062 0.0126868 0)
(9.45547 0.0125427 0)
(9.49057 0.0130647 0)
(9.5224 0.0132115 0)
(9.55424 0.0127476 0)
(9.58559 0.0120299 0)
(9.61503 0.0112648 0)
(9.64256 0.0105405 0)
(9.66852 0.00987504 0)
(9.69316 0.00924677 0)
(9.71643 0.00874062 0)
(9.7387 0.0082863 0)
(9.76001 0.00792767 0)
(9.78067 0.00766017 0)
(9.80075 0.00745951 0)
(9.82044 0.00730516 0)
(9.83973 0.00718725 0)
(9.85876 0.00707851 0)
(9.87741 0.00698425 0)
(9.89583 0.00689627 0)
(9.91394 0.00678163 0)
(9.93178 0.00667563 0)
(9.94935 0.0065886 0)
(9.96672 0.00650608 0)
(9.9839 0.00642615 0)
(10.0008 0.00634866 0)
(10.0177 0.00629076 0)
(10.0342 0.00623804 0)
(10.0507 0.00620373 0)
(10.0668 0.00616171 0)
(10.083 0.0061027 0)
(10.0986 0.00606384 0)
(10.1144 0.0060278 0)
(10.1294 0.0059889 0)
(10.1447 0.00594531 0)
(10.159 0.00588877 0)
(10.1736 0.00584427 0)
(10.187 0.00580051 0)
(10.2011 0.00575852 0)
(10.2132 0.00573503 0)
(10.2265 0.00565049 0)
(10.2371 0.00557721 0)
(10.2496 0.00551072 0)
(10.2583 0.00544902 0)
(10.2696 0.00539001 0)
(10.2766 0.00529564 0)
(10.2859 0.00522102 0)
(10.2918 0.00506948 0)
(10.2975 0.00496511 0)
(10.3043 0.00481442 0)
(10.3057 0.00473582 0)
(10.312 0.00471956 0)
(10.311 0.00461989 0)
(10.3143 0.00466856 0)
(10.3119 0.00443749 0)
(10.3123 0.00441659 0)
(10.3111 0.0039486 0)
(10.3071 0.00319459 0)
(10.309 0.00293606 0)
(10.3033 0.00188945 0)
(10.3067 0.00150489 0)
(10.3019 0.000780175 0)
(10.3049 0.000399222 0)
(10.303 -4.1398e-05 0)
(10.3033 -0.000377562 0)
(10.3055 -0.000519843 0)
(10.3023 -0.000842094 0)
(10.3072 -0.000852505 0)
(10.3025 -0.00103163 0)
(10.3083 -0.0010405 0)
(10.3042 -0.00112712 0)
(10.3072 -0.00109165 0)
(10.3078 -0.000970994 0)
(10.3035 -0.00117603 0)
(10.3114 -0.00081781 0)
(10.3028 -0.00103334 0)
(10.3125 -0.000825025 0)
(10.3042 -0.00091407 0)
(10.311 -0.000913593 0)
(10.3082 -0.000785817 0)
(10.3063 -0.00107786 0)
(10.3134 -0.000609071 0)
(10.3043 -0.000978914 0)
(10.3143 -0.000719655 0)
(10.306 -0.000838381 0)
(10.3127 -0.000821528 0)
(10.3109 -0.000570296 0)
(10.3088 -0.00107991 0)
(10.3141 -0.000479948 0)
(10.3106 -0.000731907 0)
(10.3139 -0.000813911 0)
(10.312 -0.000680456 0)
(10.3139 -0.000805638 0)
(10.3142 -0.000502948 0)
(10.313 -0.000889946 0)
(10.3153 -0.000563929 0)
(10.3161 -0.000826645 0)
(10.3153 -0.00044661 0)
(10.317 -0.00315428 0)
(9.39406 0.00454674 0)
(9.41913 0.00728634 0)
(9.45366 0.00712473 0)
(9.48882 0.0074328 0)
(9.52055 0.00752937 0)
(9.5523 0.00723813 0)
(9.58361 0.00680991 0)
(9.61306 0.00633737 0)
(9.64057 0.00588114 0)
(9.66656 0.00547221 0)
(9.69118 0.00509128 0)
(9.71448 0.00478574 0)
(9.73675 0.00451173 0)
(9.75809 0.00429541 0)
(9.77876 0.00413199 0)
(9.79889 0.00400696 0)
(9.81859 0.00390748 0)
(9.83795 0.00383027 0)
(9.85701 0.00375781 0)
(9.87578 0.00370001 0)
(9.89429 0.00364471 0)
(9.91252 0.00356447 0)
(9.9305 0.00349037 0)
(9.94827 0.0034353 0)
(9.96586 0.00338519 0)
(9.98329 0.00333996 0)
(10.0005 0.00329088 0)
(10.0177 0.0032565 0)
(10.0347 0.00322867 0)
(10.0516 0.00322218 0)
(10.0684 0.00320074 0)
(10.0851 0.00316497 0)
(10.1017 0.00314187 0)
(10.1182 0.00313088 0)
(10.1345 0.00311304 0)
(10.1509 0.00309718 0)
(10.1669 0.00306505 0)
(10.183 0.00304507 0)
(10.1988 0.00302452 0)
(10.2146 0.00300408 0)
(10.2301 0.00300414 0)
(10.2457 0.00297251 0)
(10.2607 0.00293641 0)
(10.276 0.00293007 0)
(10.2906 0.00291742 0)
(10.3057 0.00291484 0)
(10.3198 0.00289866 0)
(10.3343 0.00287876 0)
(10.3481 0.00287812 0)
(10.3614 0.00278847 0)
(10.3752 0.00281895 0)
(10.387 0.00282757 0)
(10.4009 0.00286582 0)
(10.4118 0.00292751 0)
(10.4254 0.00311211 0)
(10.4362 0.00315885 0)
(10.4476 0.00308559 0)
(10.4592 0.00290933 0)
(10.4662 0.00249973 0)
(10.4771 0.00198942 0)
(10.4806 0.00138171 0)
(10.4883 0.000692283 0)
(10.4898 0.000303425 0)
(10.4938 -0.000251896 0)
(10.4949 -0.000383761 0)
(10.4957 -0.000779326 0)
(10.4975 -0.000807691 0)
(10.4964 -0.00100372 0)
(10.4986 -0.00100891 0)
(10.4966 -0.00117531 0)
(10.4985 -0.00118874 0)
(10.4968 -0.00119305 0)
(10.4972 -0.0012767 0)
(10.4978 -0.00095996 0)
(10.4957 -0.00126241 0)
(10.4982 -0.00095202 0)
(10.4958 -0.00109218 0)
(10.4981 -0.000978791 0)
(10.4965 -0.000974761 0)
(10.4973 -0.00116379 0)
(10.4974 -0.000791785 0)
(10.496 -0.00127514 0)
(10.4979 -0.00077938 0)
(10.4961 -0.000983588 0)
(10.4979 -0.000934068 0)
(10.497 -0.000919515 0)
(10.4967 -0.00117883 0)
(10.4979 -0.00068379 0)
(10.4969 -0.00124516 0)
(10.4968 -0.000910499 0)
(10.4979 -0.000870814 0)
(10.4967 -0.00106785 0)
(10.4977 -0.000897582 0)
(10.4969 -0.00107398 0)
(10.4977 -0.000749035 0)
(10.4971 -0.00106809 0)
(10.497 -0.00102724 0)
(10.4986 -0.00107071 0)
(10.4976 -0.000871116 0)
(10.4989 -0.00330804 0)
(9.39387 0.000961651 0)
(9.41838 0.00131714 0)
(9.45277 0.00114402 0)
(9.48797 0.00123364 0)
(9.51964 0.00123523 0)
(9.55134 0.00113505 0)
(9.58264 0.0010304 0)
(9.61208 0.00088104 0)
(9.63959 0.000724631 0)
(9.66559 0.000603318 0)
(9.6902 0.000491028 0)
(9.71352 0.000402873 0)
(9.73577 0.000318769 0)
(9.75713 0.000251379 0)
(9.7778 0.000200964 0)
(9.79794 0.000167676 0)
(9.81764 0.00014473 0)
(9.83701 0.000133641 0)
(9.85606 0.000121769 0)
(9.87485 0.000123909 0)
(9.89336 0.000126878 0)
(9.9116 0.000104898 0)
(9.92958 8.04588e-05 0)
(9.94737 6.44739e-05 0)
(9.96499 5.07122e-05 0)
(9.98245 3.72246e-05 0)
(9.99975 1.68866e-05 0)
(10.0169 -1.95159e-06 0)
(10.034 -1.05565e-05 0)
(10.051 -3.02551e-06 0)
(10.0679 -9.43847e-06 0)
(10.0847 -2.49571e-05 0)
(10.1013 -3.15035e-05 0)
(10.118 -2.75291e-05 0)
(10.1345 -2.91563e-05 0)
(10.151 -2.55363e-05 0)
(10.1673 -3.61208e-05 0)
(10.1836 -3.33685e-05 0)
(10.1997 -4.05827e-05 0)
(10.2158 -3.44134e-05 0)
(10.2317 -1.85929e-05 0)
(10.2477 -1.39791e-05 0)
(10.2634 -2.92221e-05 0)
(10.2791 -1.22725e-05 0)
(10.2947 -1.48172e-05 0)
(10.3102 2.37359e-06 0)
(10.3257 9.86078e-06 0)
(10.341 7.0294e-06 0)
(10.3562 6.14594e-05 0)
(10.371 -1.1238e-05 0)
(10.3858 6.85979e-05 0)
(10.4004 7.30788e-05 0)
(10.415 0.000124887 0)
(10.4296 0.000168856 0)
(10.4445 0.000236437 0)
(10.4596 0.000288774 0)
(10.4749 0.000206699 0)
(10.4899 0.000350886 0)
(10.5033 6.81624e-05 0)
(10.5156 7.9921e-05 0)
(10.5252 -0.000201467 0)
(10.5333 -0.000313067 0)
(10.5389 -0.000374671 0)
(10.5431 -0.000550521 0)
(10.5457 -0.000554825 0)
(10.5471 -0.000826127 0)
(10.5478 -0.000750169 0)
(10.5479 -0.000924103 0)
(10.5479 -0.000912387 0)
(10.5472 -0.00101102 0)
(10.5465 -0.00109214 0)
(10.5457 -0.00101145 0)
(10.5446 -0.0011865 0)
(10.5443 -0.000855843 0)
(10.5435 -0.00112417 0)
(10.5434 -0.000925783 0)
(10.5431 -0.0010066 0)
(10.5426 -0.000977635 0)
(10.5429 -0.000866275 0)
(10.5423 -0.00110711 0)
(10.5427 -0.000718849 0)
(10.5423 -0.00109627 0)
(10.5425 -0.000760125 0)
(10.5425 -0.000927211 0)
(10.5422 -0.000964701 0)
(10.5427 -0.000750927 0)
(10.5421 -0.00103612 0)
(10.5427 -0.00066081 0)
(10.5424 -0.000992001 0)
(10.5425 -0.000792016 0)
(10.5427 -0.000748667 0)
(10.5425 -0.000910742 0)
(10.5428 -0.000742274 0)
(10.5424 -0.000896256 0)
(10.543 -0.000628839 0)
(10.5426 -0.000859966 0)
(10.543 -0.000912136 0)
(10.5428 -0.000901895 0)
(10.5434 -0.000842291 0)
(10.544 -0.00310702 0)
(9.39391 -0.0027465 0)
(9.41859 -0.00496394 0)
(9.45306 -0.00513826 0)
(9.48829 -0.00526956 0)
(9.51996 -0.00538177 0)
(9.55167 -0.00527967 0)
(9.58298 -0.00503935 0)
(9.61241 -0.00485129 0)
(9.63992 -0.00469226 0)
(9.66593 -0.00450961 0)
(9.69054 -0.00434283 0)
(9.71386 -0.00420143 0)
(9.73611 -0.0040866 0)
(9.75747 -0.00399705 0)
(9.77814 -0.00392551 0)
(9.79828 -0.0038596 0)
(9.81799 -0.00380209 0)
(9.83736 -0.00374496 0)
(9.85641 -0.00370111 0)
(9.8752 -0.00364418 0)
(9.89371 -0.00358768 0)
(9.91195 -0.00355987 0)
(9.92993 -0.00354277 0)
(9.94772 -0.00352745 0)
(9.96535 -0.00350799 0)
(9.9828 -0.00348977 0)
(10.0001 -0.0034779 0)
(10.0173 -0.00347665 0)
(10.0343 -0.00346221 0)
(10.0513 -0.00343737 0)
(10.0682 -0.00342132 0)
(10.085 -0.00341195 0)
(10.1017 -0.00339914 0)
(10.1183 -0.00338179 0)
(10.1348 -0.00336913 0)
(10.1513 -0.00335016 0)
(10.1676 -0.00334035 0)
(10.1839 -0.00331865 0)
(10.2 -0.00331376 0)
(10.2161 -0.00329213 0)
(10.232 -0.0032656 0)
(10.2479 -0.0032474 0)
(10.2637 -0.00324188 0)
(10.2793 -0.00321521 0)
(10.2948 -0.00320121 0)
(10.3103 -0.00317494 0)
(10.3257 -0.00315088 0)
(10.341 -0.00312294 0)
(10.3561 -0.00303972 0)
(10.3709 -0.00304797 0)
(10.3856 -0.00295435 0)
(10.4 -0.00292911 0)
(10.4145 -0.0028809 0)
(10.429 -0.00285438 0)
(10.4436 -0.00283613 0)
(10.4587 -0.00283 0)
(10.4738 -0.00289406 0)
(10.4884 -0.00265331 0)
(10.5018 -0.00260031 0)
(10.5135 -0.00229369 0)
(10.5232 -0.00210441 0)
(10.5308 -0.00190277 0)
(10.5365 -0.00159706 0)
(10.5405 -0.00145335 0)
(10.5432 -0.00115901 0)
(10.5445 -0.00112541 0)
(10.5453 -0.000942167 0)
(10.5454 -0.00097714 0)
(10.5453 -0.000894275 0)
(10.5448 -0.000850581 0)
(10.5439 -0.000884126 0)
(10.5433 -0.00079201 0)
(10.542 -0.000952902 0)
(10.5419 -0.000763417 0)
(10.5409 -0.000995602 0)
(10.5409 -0.000895047 0)
(10.5404 -0.000928693 0)
(10.5403 -0.000955133 0)
(10.5403 -0.00086148 0)
(10.5398 -0.00104554 0)
(10.5402 -0.000791606 0)
(10.5396 -0.00106483 0)
(10.5401 -0.000850857 0)
(10.5397 -0.000927339 0)
(10.54 -0.000948813 0)
(10.5399 -0.00083931 0)
(10.5398 -0.00105084 0)
(10.54 -0.000778599 0)
(10.5398 -0.00100256 0)
(10.54 -0.000920861 0)
(10.5396 -0.000831107 0)
(10.5403 -0.000942715 0)
(10.5397 -0.000863168 0)
(10.5402 -0.000950185 0)
(10.5399 -0.000777516 0)
(10.5402 -0.000953399 0)
(10.5404 -0.00100683 0)
(10.5397 -0.000996069 0)
(10.5408 -0.00108919 0)
(10.5403 -0.00328687 0)
(9.39419 -0.0064048 0)
(9.41974 -0.0109656 0)
(9.45454 -0.0111163 0)
(9.48975 -0.011468 0)
(9.52148 -0.0116782 0)
(9.55327 -0.0113831 0)
(9.58462 -0.0108151 0)
(9.61401 -0.0103136 0)
(9.64155 -0.00985721 0)
(9.66755 -0.00938273 0)
(9.69217 -0.00894943 0)
(9.71548 -0.00858559 0)
(9.73773 -0.00827817 0)
(9.75909 -0.00803814 0)
(9.77976 -0.00785157 0)
(9.79989 -0.00769365 0)
(9.81961 -0.00756243 0)
(9.83898 -0.00743831 0)
(9.85803 -0.00733988 0)
(9.87682 -0.00722557 0)
(9.89531 -0.00711325 0)
(9.91354 -0.00703482 0)
(9.93151 -0.00697522 0)
(9.94929 -0.00692788 0)
(9.96688 -0.00687679 0)
(9.98429 -0.00683181 0)
(10.0015 -0.00679592 0)
(10.0187 -0.00678144 0)
(10.0357 -0.0067496 0)
(10.0526 -0.00671179 0)
(10.0693 -0.0066757 0)
(10.086 -0.0066471 0)
(10.1025 -0.00661821 0)
(10.119 -0.0065857 0)
(10.1353 -0.00655357 0)
(10.1515 -0.00651272 0)
(10.1675 -0.00647684 0)
(10.1834 -0.0064317 0)
(10.1991 -0.00640429 0)
(10.2148 -0.00635684 0)
(10.2302 -0.0063058 0)
(10.2454 -0.00625982 0)
(10.2604 -0.0062212 0)
(10.2751 -0.00617181 0)
(10.2896 -0.00613791 0)
(10.304 -0.0061025 0)
(10.3181 -0.0060608 0)
(10.3317 -0.00600072 0)
(10.3451 -0.00588884 0)
(10.3579 -0.00583796 0)
(10.3703 -0.00571506 0)
(10.3821 -0.00566455 0)
(10.3937 -0.00562065 0)
(10.4049 -0.00563218 0)
(10.4162 -0.00565145 0)
(10.4265 -0.00565809 0)
(10.4368 -0.0055991 0)
(10.4453 -0.00522271 0)
(10.4536 -0.0048203 0)
(10.4598 -0.004234 0)
(10.4652 -0.00362578 0)
(10.4695 -0.00301867 0)
(10.4722 -0.00242581 0)
(10.4751 -0.00188582 0)
(10.4764 -0.00147508 0)
(10.4778 -0.00126986 0)
(10.4785 -0.00101616 0)
(10.4788 -0.000964372 0)
(10.4792 -0.000846024 0)
(10.4789 -0.000775867 0)
(10.4792 -0.000794239 0)
(10.4787 -0.000734586 0)
(10.4786 -0.000859694 0)
(10.4786 -0.000751953 0)
(10.4781 -0.000916792 0)
(10.4784 -0.000879626 0)
(10.4777 -0.000898521 0)
(10.4783 -0.000932005 0)
(10.4776 -0.000883991 0)
(10.4782 -0.000996342 0)
(10.4777 -0.000859348 0)
(10.4779 -0.00102847 0)
(10.478 -0.000890284 0)
(10.4775 -0.000896122 0)
(10.4783 -0.000969885 0)
(10.4773 -0.000870425 0)
(10.4787 -0.000985601 0)
(10.4771 -0.000826709 0)
(10.4788 -0.000973189 0)
(10.4774 -0.000910618 0)
(10.4784 -0.000883622 0)
(10.4783 -0.000906475 0)
(10.4773 -0.000872418 0)
(10.4791 -0.000929521 0)
(10.4771 -0.000779956 0)
(10.4796 -0.000920415 0)
(10.4773 -0.000960971 0)
(10.4791 -0.00103623 0)
(10.4787 -0.00114891 0)
(10.4777 -0.00318876 0)
(9.39466 -0.00995992 0)
(9.42161 -0.0164556 0)
(9.45695 -0.0165727 0)
(9.49208 -0.0171221 0)
(9.52392 -0.0173726 0)
(9.5558 -0.0168879 0)
(9.58723 -0.016013 0)
(9.61658 -0.0152318 0)
(9.64414 -0.0145122 0)
(9.67012 -0.01378 0)
(9.69478 -0.0131093 0)
(9.71804 -0.0125474 0)
(9.74032 -0.0120638 0)
(9.76161 -0.0116818 0)
(9.7823 -0.0113853 0)
(9.80236 -0.0111454 0)
(9.82207 -0.0109548 0)
(9.84135 -0.0107752 0)
(9.86035 -0.0106324 0)
(9.879 -0.010468 0)
(9.89738 -0.0103083 0)
(9.91543 -0.010183 0)
(9.9332 -0.0100816 0)
(9.95079 -0.00998995 0)
(9.96802 -0.00989624 0)
(9.98518 -0.00981107 0)
(10.0019 -0.0097419 0)
(10.0187 -0.00970173 0)
(10.0351 -0.00963969 0)
(10.0514 -0.00957731 0)
(10.0673 -0.00951482 0)
(10.0832 -0.0094626 0)
(10.0986 -0.00941111 0)
(10.1138 -0.00935889 0)
(10.1286 -0.00930047 0)
(10.1431 -0.00924004 0)
(10.1571 -0.009174 0)
(10.1707 -0.00912597 0)
(10.1837 -0.00907169 0)
(10.1961 -0.00899144 0)
(10.2079 -0.00889931 0)
(10.2189 -0.00880005 0)
(10.2291 -0.00870029 0)