/*--------------------------------*- C++ -*----------------------------------*\
| =========                 |                                                 |
| \\      /  F ield         | OpenFOAM: The Open Source CFD Toolbox           |
|  \\    /   O peration     | Version:  v2012                                 |
|   \\  /    A nd           | Website:  www.openfoam.com                      |
|    \\/     M anipulation  |                                                 |
\*---------------------------------------------------------------------------*/
FoamFile
{
    version     2.0;
    format      ascii;
    class       volScalarField;
    location    "0.076";
    object      k.air;
}
// * * * * * * * * * * * * * * * * * * * * * * * * * * * * * * * * * * * * * //

dimensions      [0 2 -2 0 0 0 0];


internalField   nonuniform List<scalar> 
5600
(
0.606306
0.840803
0.955128
0.978166
0.949157
0.897591
0.83956
0.7873
0.743245
0.707321
0.679318
0.658436
0.64328
0.632702
0.62527
0.620103
0.616232
0.613342
0.610882
0.608876
0.607114
0.60556
0.604211
0.603132
0.602354
0.601806
0.601393
0.601094
0.600854
0.600642
0.600422
0.60018
0.599899
0.599544
0.599084
0.598513
0.597865
0.597196
0.596547
0.595969
0.595484
0.595116
0.594864
0.594709
0.594632
0.594611
0.594642
0.5947
0.594793
0.594853
0.594948
0.594948
0.595058
0.594963
0.595159
0.594898
0.5953
0.594749
0.595505
0.594517
0.595777
0.594217
0.596118
0.593822
0.596607
0.593202
0.597402
0.592272
0.59836
0.591598
0.598338
0.592836
0.595446
0.597443
0.589648
0.6033
0.585699
0.603828
0.589949
0.59454
0.602961
0.58033
0.615827
0.572618
0.617744
0.577007
0.60734
0.590016
0.59087
0.60634
0.575596
0.615541
0.579363
0.589392
0.628123
0.520194
0.707965
0.420661
0.819123
0.088847
0.371638
0.315584
0.288617
0.275677
0.275016
0.284584
0.30734
0.345058
0.387087
0.430145
0.471444
0.509056
0.541789
0.569392
0.591938
0.609825
0.623432
0.633937
0.641742
0.647758
0.652488
0.656458
0.659914
0.66295
0.665659
0.668104
0.670259
0.672095
0.673357
0.674093
0.674414
0.67457
0.674772
0.675084
0.675446
0.675749
0.67591
0.67588
0.675657
0.675275
0.674827
0.674373
0.67396
0.673615
0.673364
0.673201
0.673144
0.673128
0.673251
0.673301
0.673552
0.673445
0.673855
0.673389
0.674217
0.673082
0.674749
0.672489
0.675516
0.671631
0.676505
0.670535
0.677772
0.669013
0.679702
0.666549
0.682726
0.66326
0.685553
0.6622
0.683077
0.669834
0.669492
0.688269
0.649428
0.705277
0.641897
0.69776
0.666493
0.658344
0.713122
0.614037
0.746776
0.598442
0.738495
0.625225
0.694227
0.676673
0.636968
0.733066
0.591632
0.750682
0.626589
0.645111
0.789356
0.45575
0.944584
0.334205
0.942325
0.351667
0.369151
0.281907
0.227719
0.192991
0.168626
0.153765
0.145585
0.143684
0.14696
0.15506
0.167
0.182004
0.199308
0.218533
0.239075
0.260725
0.282411
0.30456
0.326376
0.348211
0.36945
0.390485
0.409176
0.425508
0.439588
0.452053
0.462925
0.472306
0.480226
0.486891
0.49243
0.497255
0.501728
0.506013
0.510059
0.513706
0.516815
0.519301
0.521139
0.522357
0.52306
0.52338
0.523442
0.523357
0.523224
0.523078
0.523009
0.52294
0.523055
0.523026
0.523357
0.523109
0.523749
0.522948
0.524278
0.522457
0.52506
0.521593
0.526141
0.520398
0.527509
0.518862
0.529336
0.516592
0.532252
0.512934
0.536481
0.508842
0.539038
0.509846
0.532072
0.524256
0.51034
0.550577
0.485312
0.566895
0.48547
0.544867
0.527994
0.488296
0.587229
0.439087
0.615719
0.436257
0.588471
0.483123
0.524788
0.553869
0.449535
0.624024
0.400861
0.625871
0.466985
0.478021
0.666293
0.27306
0.799955
0.230489
0.709055
0.426002
0.370102
0.280649
0.224107
0.186047
0.158568
0.138192
0.122934
0.111381
0.102907
0.0970029
0.0935161
0.0923331
0.0929592
0.0953773
0.0993758
0.105431
0.112719
0.121995
0.132768
0.145295
0.159298
0.175289
0.192453
0.210534
0.228764
0.247214
0.265333
0.282414
0.298141
0.312265
0.324884
0.336179
0.346733
0.3568
0.366368
0.375266
0.383211
0.389921
0.395257
0.399218
0.401937
0.403641
0.404596
0.40503
0.405163
0.405105
0.405054
0.404934
0.405058
0.404934
0.405358
0.404924
0.405847
0.404642
0.406569
0.403948
0.407618
0.402805
0.409018
0.401271
0.410772
0.399253
0.413233
0.39611
0.417246
0.391199
0.422485
0.386813
0.423741
0.391307
0.410786
0.413738
0.380493
0.446552
0.353405
0.457485
0.365643
0.41813
0.426767
0.346719
0.492309
0.299852
0.507424
0.313919
0.46018
0.379697
0.380763
0.465465
0.293857
0.538093
0.252758
0.512829
0.353986
0.331018
0.571836
0.127149
0.676254
0.119513
0.565329
0.335428
0.370295
0.280779
0.224384
0.186044
0.158429
0.137651
0.121532
0.108755
0.0983678
0.0899512
0.0829606
0.0773774
0.0728152
0.06928
0.0665053
0.0647381
0.0636687
0.0635673
0.0642842
0.0659107
0.0684679
0.0723203
0.0772949
0.0837009
0.0912616
0.100108
0.110309
0.121787
0.133997
0.146738
0.159429
0.172356
0.185245
0.198392
0.21184
0.225195
0.237752
0.248817
0.257968
0.26506
0.270177
0.273582
0.275654
0.276737
0.277202
0.277242
0.277184
0.276952
0.277021
0.276731
0.277213
0.276555
0.277735
0.276135
0.27859
0.275275
0.279821
0.273949
0.281418
0.272205
0.28344
0.269811
0.286451
0.265914
0.291347
0.260206
0.296823
0.256697
0.29539
0.265935
0.275941
0.295486
0.240172
0.32981
0.217153
0.329911
0.244409
0.274605
0.317505
0.19922
0.377115
0.165192
0.373441
0.197964
0.312371
0.273457
0.228479
0.360416
0.144871
0.41798
0.127047
0.364912
0.246889
0.187379
0.439733
0.0266664
0.502134
0.0351685
0.441915
0.20021
0.370323
0.280814
0.224508
0.186215
0.158638
0.137917
0.121794
0.108956
0.0984532
0.089774
0.0824368
0.0762234
0.0708783
0.0662817
0.0622717
0.058835
0.0558309
0.0532819
0.0511373
0.0493455
0.0479106
0.0468916
0.0462472
0.0461335
0.0464429
0.0472818
0.0486402
0.0508616
0.0538063
0.0576009
0.0619874
0.0669832
0.0725308
0.0789738
0.0866881
0.0956437
0.105329
0.114982
0.123834
0.131293
0.137044
0.141057
0.143525
0.144801
0.145288
0.145213
0.14496
0.144448
0.144261
0.143693
0.144014
0.14318
0.144284
0.142622
0.144969
0.141794
0.146012
0.140637
0.147371
0.139114
0.149202
0.136839
0.152154
0.133034
0.156741
0.128166
0.160577
0.127315
0.155757
0.139971
0.134139
0.168689
0.103108
0.193577
0.092873
0.180903
0.128795
0.126074
0.190194
0.0714035
0.224018
0.0613307
0.205837
0.09717
0.157435
0.152976
0.0953928
0.217088
0.0375808
0.248431
0.0420242
0.199216
0.129142
0.0857968
0.245623
0.0172499
0.277981
0.0174267
0.292511
0.0610591
0.370325
0.280814
0.224529
0.186258
0.158706
0.13801
0.121923
0.109095
0.0986252
0.0899384
0.0826106
0.0763563
0.0709573
0.0662546
0.0621195
0.0584713
0.0552197
0.052318
0.0497232
0.047387
0.0452833
0.0433965
0.0417001
0.0402136
0.0388924
0.0377572
0.0367571
0.0359834
0.0354256
0.0351206
0.0350626
0.0352032
0.0355234
0.0361314
0.0372276
0.0389731
0.0413823
0.044289
0.0473432
0.0501565
0.052423
0.0539884
0.0548601
0.0551494
0.0550431
0.0546449
0.0541711
0.0535661
0.0531864
0.0526306
0.0526279
0.052035
0.0525231
0.0515949
0.0527376
0.0511417
0.0531708
0.0505911
0.0537887
0.0498387
0.0547394
0.0485852
0.0563995
0.0464885
0.0587863
0.0442548
0.0600499
0.0451289
0.0558387
0.0535944
0.0432465
0.0686101
0.0288334
0.0776266
0.0292129
0.0658531
0.0515527
0.0380626
0.0780924
0.0192957
0.0846008
0.0242028
0.0735521
0.0376607
0.0604451
0.0540887
0.0367051
0.084606
0.00669684
0.103093
0.00670371
0.0844776
0.0401961
0.0404674
0.0889803
0.00193226
0.102682
0.00459522
0.120189
0.0109997
0.370324
0.280805
0.224526
0.18626
0.158717
0.138027
0.121955
0.109133
0.0986781
0.0899988
0.0826832
0.0764367
0.071044
0.0663425
0.0622083
0.0585476
0.0552827
0.0523549
0.049716
0.0473252
0.0451501
0.0431655
0.0413477
0.0396827
0.0381498
0.0367382
0.0354306
0.0342278
0.033127
0.0321259
0.0312199
0.0303906
0.0296233
0.0289277
0.0283385
0.0278966
0.0276269
0.0275081
0.027487
0.027473
0.027389
0.0271906
0.0268767
0.0264697
0.0260191
0.0255492
0.0251204
0.0247096
0.0244151
0.0241141
0.0240052
0.0237678
0.0238393
0.0235695
0.0238218
0.0234333
0.0238854
0.0233039
0.0240144
0.0231132
0.0242752
0.0227372
0.0247884
0.0220967
0.0254872
0.021518
0.0256894
0.0220562
0.0241053
0.024869
0.0202342
0.0291681
0.0166087
0.0309288
0.0179063
0.0265494
0.0247391
0.0191861
0.0303318
0.0171827
0.0288629
0.0205543
0.0266404
0.0200661
0.0291175
0.0190389
0.0246795
0.0300452
0.010475
0.04126
0.00782702
0.0354199
0.019228
0.0234683
0.0286268
0.0191126
0.0272122
0.0228475
0.0309024
0.0182806
0.370323
0.280796
0.224519
0.186253
0.158714
0.138027
0.121958
0.10914
0.0986894
0.0900141
0.0827027
0.0764605
0.0710718
0.0663742
0.0622442
0.0585862
0.0553246
0.052399
0.0497601
0.0473682
0.0451907
0.0432011
0.0413765
0.0396972
0.0381458
0.0367082
0.0353731
0.0341321
0.0329777
0.0319017
0.0308951
0.0299481
0.0290538
0.028211
0.0274242
0.0266989
0.0260362
0.0254273
0.0248573
0.0243054
0.0237555
0.0232007
0.0226466
0.0221053
0.0215985
0.0211369
0.0207443
0.0204082
0.02016
0.0199459
0.0198305
0.0196949
0.0196799
0.0195724
0.0196266
0.0195163
0.0196137
0.0194913
0.0196185
0.0194642
0.0196612
0.0193818
0.0197897
0.0192047
0.0199941
0.019024
0.0200722
0.0191519
0.0196466
0.0199228
0.0185839
0.0210958
0.0176192
0.0215126
0.0180523
0.020244
0.0198565
0.0185574
0.0207317
0.018886
0.0195023
0.0200982
0.0194144
0.0185689
0.0218736
0.0169346
0.0209646
0.020823
0.0157954
0.0243176
0.0164301
0.0198668
0.0225026
0.0153684
0.0238665
0.0172303
0.0192601
0.0236978
0.0134017
0.0274384
0.370323
0.280792
0.224515
0.18625
0.158712
0.138026
0.121959
0.109141
0.0986922
0.0900184
0.0827084
0.0764678
0.0710804
0.0663844
0.0622559
0.0585993
0.0553391
0.0524149
0.0497775
0.0473867
0.0452103
0.0432217
0.041398
0.039719
0.0381673
0.0367289
0.0353928
0.0341505
0.0329933
0.0319122
0.0308974
0.0299404
0.0290358
0.0281821
0.0273806
0.0266315
0.0259318
0.0252731
0.0246437
0.0240312
0.0234274
0.0228305
0.0222477
0.0216903
0.0211767
0.020717
0.020329
0.0200046
0.0197613
0.0195622
0.0194421
0.0193267
0.0192918
0.0192169
0.0192318
0.0191731
0.019208
0.0191625
0.0191941
0.0191646
0.0191892
0.0191578
0.0192064
0.0191266
0.0192465
0.0190864
0.0192718
0.0190958
0.0192075
0.0192312
0.0189986
0.0194912
0.0187459
0.0196517
0.018773
0.0193963
0.0192094
0.0189399
0.0194819
0.0189806
0.0191951
0.0192582
0.0192116
0.018893
0.0196187
0.0189827
0.0186889
0.020542
0.0173898
0.0204933
0.0194456
0.016742
0.0237892
0.0131227
0.0257086
0.0136199
0.0219442
0.0215177
0.0108251
0.0326204
0.370323
0.280793
0.224517
0.186252
0.158714
0.138028
0.121961
0.109144
0.0986946
0.0900207
0.0827107
0.0764699
0.0710825
0.0663863
0.0622578
0.058601
0.0553408
0.0524166
0.049779
0.0473881
0.0452117
0.043223
0.0413993
0.0397203
0.0381686
0.0367302
0.0353941
0.0341518
0.0329947
0.0319138
0.0308993
0.0299427
0.0290384
0.028185
0.027384
0.0266359
0.0259377
0.0252809
0.0246535
0.0240431
0.0234411
0.0228456
0.0222636
0.0217068
0.0211931
0.0207336
0.0203448
0.020021
0.0197756
0.019579
0.0194543
0.0193453
0.0193008
0.0192388
0.0192366
0.0191988
0.0192094
0.0191904
0.0191948
0.0191921
0.01919
0.0191878
0.0191986
0.0191745
0.0192105
0.0191689
0.0192051
0.0191862
0.019179
0.0192163
0.0191478
0.0192491
0.0191119
0.0192849
0.0190901
0.0192713
0.0191605
0.0191349
0.0193568
0.0188966
0.0196092
0.018687
0.0196616
0.018972
0.0188636
0.0203205
0.0172007
0.0217702
0.0166262
0.0209476
0.0190447
0.0171392
0.0238072
0.0119937
0.0285197
0.0089564
0.0279326
0.014798
0.0169343
0.0283486
0.370324
0.280801
0.224525
0.186261
0.158722
0.138035
0.121966
0.109148
0.0986965
0.090021
0.0827091
0.0764668
0.0710777
0.0663798
0.0622496
0.0585912
0.0553294
0.0524036
0.0497648
0.0473726
0.0451951
0.0432054
0.0413811
0.0397021
0.0381516
0.0367147
0.0353805
0.0341408
0.0329884
0.0319159
0.030914
0.0299723
0.0290834
0.0282472
0.0274695
0.0267583
0.0261147
0.0255306
0.0249865
0.0244593
0.0239302
0.0233909
0.0228465
0.0223106
0.0218045
0.0213432
0.0209455
0.0206101
0.0203513
0.0201454
0.0200102
0.0198987
0.0198453
0.0197872
0.0197752
0.0197463
0.0197452
0.0197378
0.0197302
0.0197384
0.0197268
0.0197323
0.0197371
0.019717
0.0197519
0.0197069
0.0197537
0.0197135
0.0197408
0.0197308
0.0197174
0.0197667
0.0196602
0.0198485
0.0195646
0.0199284
0.0195487
0.0198195
0.019846
0.0192895
0.0205894
0.0184746
0.0211689
0.0185594
0.0200538
0.0207834
0.0171264
0.0235944
0.0153281
0.0237315
0.0170251
0.0203888
0.0217873
0.0145225
0.0282904
0.00845589
0.0321106
0.00855157
0.0270108
0.0177642
0.370325
0.280812
0.224537
0.186272
0.15873
0.13804
0.121967
0.109145
0.0986893
0.09001
0.082693
0.0764464
0.0710534
0.0663509
0.0622173
0.0585559
0.0552912
0.0523646
0.0497271
0.0473374
0.0451662
0.0431831
0.041372
0.0397127
0.0381926
0.0367899
0.0354982
0.0343144
0.0332408
0.0322805
0.0314232
0.0306475
0.0299416
0.0293228
0.0288362
0.0285345
0.0284427
0.0285358
0.0287254
0.0289059
0.0289828
0.0289032
0.0286644
0.0282986
0.0278581
0.0273885
0.0269346
0.0265189
0.0261767
0.0259003
0.0257107
0.0255626
0.025482
0.0254099
0.0253845
0.0253538
0.0253442
0.0253407
0.0253257
0.0253403
0.0253212
0.0253342
0.0253313
0.025318
0.0253495
0.0252993
0.0253679
0.0252795
0.0253899
0.0252595
0.0253925
0.025303
0.0252663
0.025544
0.0249017
0.0259963
0.0244588
0.0262617
0.0246025
0.0254707
0.0261841
0.023223
0.0285785
0.0215415
0.0285883
0.023744
0.0244803
0.0286839
0.020152
0.0313231
0.0194308
0.0304126
0.0216852
0.0266436
0.027542
0.0189884
0.0360282
0.0116359
0.0399528
0.0106703
0.370326
0.280824
0.224545
0.186275
0.158724
0.138025
0.121942
0.109108
0.0986415
0.0899521
0.0826238
0.0763699
0.070975
0.0662703
0.0621459
0.0585008
0.0552575
0.0523744
0.049796
0.0474797
0.0454152
0.0435558
0.0419281
0.0405038
0.039294
0.0382458
0.0374103
0.0368107
0.0365071
0.0365208
0.0368334
0.0373806
0.0381716
0.0393564
0.0411589
0.0437386
0.0470757
0.0509128
0.0548209
0.0583551
0.0611374
0.0630459
0.0641275
0.0645351
0.0644641
0.0640916
0.0635669
0.0629959
0.0624826
0.0620646
0.0617767
0.0615666
0.0614503
0.0613592
0.0613248
0.0612919
0.0612797
0.0612817
0.0612595
0.0612882
0.0612507
0.06129
0.0612553
0.0612786
0.0612745
0.0612495
0.0613207
0.0611755
0.0614331
0.061025
0.0615966
0.0609122
0.0615515
0.0612545
0.0607749
0.0625404
0.0590443
0.0644295
0.0575308
0.0647902
0.0590728
0.0609497
0.0648776
0.0545276
0.0699349
0.0526248
0.0677186
0.0580516
0.0608406
0.0646373
0.05538
0.0697336
0.0501942
0.0740089
0.048558
0.0702755
0.0579842
0.0562213
0.0728784
0.0404627
0.370323
0.280832
0.224525
0.186238
0.15866
0.137932
0.121824
0.108963
0.0984904
0.0897942
0.0824862
0.0762822
0.0709868
0.0664036
0.0624797
0.0590934
0.0561892
0.0537732
0.0517714
0.0501484
0.0490051
0.0482363
0.0480834
0.0484423
0.0494261
0.0509382
0.053294
0.0565112
0.0607684
0.0658773
0.0717884
0.0782125
0.0852562
0.0932945
0.102591
0.112972
0.123839
0.134417
0.143951
0.151853
0.157751
0.161777
0.164237
0.16551
0.165966
0.165917
0.165606
0.165204
0.164842
0.164566
0.164404
0.164304
0.164271
0.164246
0.164257
0.164256
0.164266
0.16428
0.164266
0.164306
0.164256
0.164325
0.164248
0.164331
0.164253
0.164313
0.164298
0.164223
0.16446
0.163966
0.164814
0.163561
0.165147
0.163513
0.164622
0.164902
0.162195
0.168277
0.158385
0.171519
0.157003
0.169741
0.16253
0.16103
0.172615
0.152269
0.177631
0.151711
0.174112
0.157592
0.166843
0.166733
0.155201
0.180287
0.141872
0.188631
0.140821
0.179523
0.155603
0.156316
0.370304
0.280795
0.224396
0.186081
0.158443
0.137691
0.121597
0.108819
0.0985622
0.0901701
0.0834023
0.0779748
0.073716
0.0703856
0.0680987
0.0667104
0.0662667
0.0668408
0.0684079
0.0709516
0.0749279
0.0801242
0.08703
0.0952465
0.104915
0.115768
0.12804
0.141334
0.155478
0.169845
0.184256
0.198166
0.211863
0.225616
0.239406
0.252809
0.265154
0.275855
0.284581
0.291256
0.29606
0.299239
0.301141
0.302126
0.302509
0.302534
0.302394
0.30223
0.30212
0.302069
0.302075
0.302099
0.302147
0.302179
0.302222
0.302241
0.302266
0.302282
0.302279
0.302312
0.302271
0.302337
0.302256
0.302353
0.302249
0.302352
0.302271
0.302295
0.302388
0.302087
0.302714
0.301647
0.303205
0.301261
0.303223
0.301941
0.301528
0.304808
0.297676
0.308999
0.294275
0.310202
0.296421
0.304222
0.305416
0.294117
0.314317
0.288375
0.316214
0.289823
0.311821
0.296972
0.300987
0.311775
0.283785
0.327891
0.272376
0.330003
0.276444
0.313371
0.370193
0.280548
0.224215
0.186059
0.158722
0.138509
0.123426
0.112328
0.104439
0.0992705
0.0968037
0.0966068
0.0983954
0.101964
0.107638
0.115035
0.124295
0.135517
0.148579
0.163334
0.18032
0.198811
0.218412
0.238256
0.258078
0.277416
0.29581
0.312972
0.328586
0.342451
0.354623
0.365646
0.375877
0.385543
0.394698
0.403176
0.410666
0.416908
0.421792
0.425347
0.427729
0.429185
0.429961
0.430277
0.430319
0.430227
0.430104
0.430015
0.429995
0.43003
0.430099
0.430165
0.430234
0.430278
0.430325
0.430346
0.430371
0.430383
0.430385
0.430408
0.43038
0.43043
0.430365
0.430448
0.430353
0.430454
0.43036
0.430425
0.43043
0.430288
0.430662
0.429946
0.431095
0.429508
0.431359
0.429681
0.43045
0.431569
0.427544
0.435183
0.423964
0.437629
0.423816
0.43465
0.429872
0.426458
0.43849
0.419234
0.443102
0.417532
0.441976
0.421414
0.434456
0.43308
0.418949
0.450047
0.403474
0.459462
0.399017
0.452125
0.369476
0.281391
0.228588
0.193072
0.170734
0.155919
0.15011
0.150485
0.156574
0.167248
0.181606
0.198887
0.218415
0.239666
0.262375
0.285647
0.309367
0.333143
0.356903
0.380244
0.403351
0.423961
0.441782
0.457207
0.470316
0.482295
0.492566
0.501279
0.508624
0.514637
0.519665
0.524093
0.52821
0.53211
0.535756
0.539039
0.54183
0.544045
0.545671
0.546747
0.547324
0.547556
0.547558
0.547421
0.547228
0.547056
0.546941
0.54688
0.546887
0.546951
0.54704
0.547116
0.547185
0.547229
0.54727
0.547289
0.547311
0.54732
0.547324
0.547338
0.547321
0.547355
0.547308
0.54737
0.547296
0.54738
0.547295
0.547368
0.547333
0.547287
0.547478
0.547057
0.547797
0.546688
0.548116
0.546594
0.547751
0.54765
0.545871
0.550275
0.542899
0.55288
0.541587
0.552055
0.544929
0.546495
0.55168
0.539863
0.557018
0.536521
0.558176
0.537668
0.554057
0.545274
0.542579
0.559396
0.527786
0.571264
0.518642
0.57143
0.372196
0.315461
0.292785
0.279544
0.286426
0.295288
0.331481
0.373686
0.418608
0.462991
0.504565
0.541662
0.57345
0.599904
0.621244
0.637807
0.650526
0.660114
0.667404
0.673011
0.677655
0.681705
0.68514
0.688038
0.6905
0.69258
0.694418
0.695798
0.696645
0.696913
0.696833
0.696679
0.696631
0.696708
0.69684
0.696949
0.696963
0.696835
0.696559
0.696168
0.695708
0.695243
0.694812
0.694446
0.694169
0.693993
0.693906
0.693887
0.693935
0.694027
0.694126
0.694206
0.69427
0.694312
0.694347
0.694364
0.694382
0.694387
0.694393
0.6944
0.694392
0.694412
0.694383
0.694424
0.694372
0.694435
0.694367
0.694433
0.694383
0.694393
0.694461
0.69426
0.694662
0.693997
0.694945
0.693788
0.694928
0.69422
0.693922
0.695847
0.691816
0.69807
0.690075
0.698646
0.691227
0.695599
0.695744
0.690456
0.700633
0.686525
0.703233
0.685589
0.702077
0.689359
0.695237
0.698934
0.684039
0.709965
0.674574
0.715432
0.606741
0.839814
0.952196
0.969565
0.937518
0.881267
0.821371
0.76901
0.724399
0.688383
0.660701
0.640126
0.625383
0.614949
0.60768
0.602388
0.59851
0.595412
0.592898
0.590814
0.589012
0.587551
0.586315
0.585399
0.584721
0.584203
0.583815
0.583495
0.5832
0.58288
0.58252
0.582141
0.581739
0.581285
0.580746
0.580125
0.579459
0.578791
0.578154
0.577585
0.577113
0.576748
0.576488
0.576321
0.576229
0.576195
0.576207
0.576254
0.57632
0.576384
0.576439
0.576479
0.576509
0.576528
0.576542
0.57655
0.576557
0.576559
0.576561
0.576563
0.576562
0.576566
0.576559
0.57657
0.576556
0.576573
0.576554
0.576574
0.576556
0.576568
0.576571
0.57654
0.576618
0.576472
0.576702
0.576391
0.576749
0.576428
0.576574
0.576789
0.57603
0.577454
0.575392
0.577891
0.57537
0.577393
0.576409
0.575975
0.578
0.574534
0.579167
0.573841
0.579435
0.574349
0.578272
0.576915
0.575644
0.581538
0.575247
0.589603
1.34808
1.7496
1.90593
2.77983
2.90934
3.00305
3.48585
2.68669
1.11594
0.327586
0.097852
0.0479255
0.0386824
0.0364892
0.0370786
0.0368934
0.0368806
0.0379371
0.0386077
0.0378633
0.0360291
0.0338961
0.0319873
0.0304211
0.029078
0.0278009
0.026511
0.0252257
0.0240201
0.0229731
0.0221225
0.0214471
0.0208931
0.0204237
0.0200363
0.0197377
0.0195243
0.0193869
0.0193088
0.0192684
0.0192485
0.019239
0.0192345
0.0192324
0.0192313
0.0192308
0.0192305
0.0192304
0.0192303
0.0192303
0.0192303
0.0192302
0.0192302
0.0192302
0.0192302
0.0192302
0.0192302
0.0192302
0.0192302
0.0192302
0.0192302
0.0192302
0.0192302
0.0192302
0.0192302
0.0192302
0.0192302
0.0192302
0.0192303
0.0192302
0.0192303
0.0192302
0.0192302
0.0192303
0.0192302
0.0192303
0.0192301
0.0192305
0.01923
0.0192305
0.01923
0.0192304
0.01923
0.0192305
0.0192299
0.0192306
0.0192299
0.0192306
0.0192299
0.0192306
0.0192298
0.0192306
0.0192298
0.0192305
0.0192295
0.0192301
0.019229
0.0192292
0.0192279
0.0192279
0.741158
1.53027
1.71352
2.60143
2.68859
2.753
3.13874
2.11274
0.71084
0.176924
0.0566498
0.0344535
0.0326312
0.0333922
0.0348605
0.0356254
0.0359338
0.0365628
0.0368471
0.0361427
0.0346258
0.0328356
0.0311761
0.0297722
0.0285502
0.0273815
0.0261884
0.0249796
0.0238244
0.0228047
0.0219689
0.0213102
0.0207834
0.0203483
0.0199933
0.0197197
0.0195216
0.0193897
0.0193119
0.0192702
0.0192489
0.0192383
0.0192331
0.0192305
0.0192292
0.0192285
0.0192282
0.019228
0.019228
0.0192279
0.0192279
0.0192279
0.0192279
0.0192279
0.0192279
0.0192279
0.0192279
0.0192279
0.0192279
0.0192279
0.0192279
0.0192279
0.0192279
0.0192279
0.0192279
0.0192279
0.0192279
0.0192279
0.0192279
0.0192279
0.0192279
0.0192279
0.0192279
0.0192279
0.0192278
0.019228
0.0192276
0.0192282
0.0192275
0.0192282
0.0192275
0.0192282
0.0192275
0.0192283
0.0192274
0.0192284
0.0192273
0.0192285
0.0192272
0.0192286
0.0192271
0.0192286
0.019227
0.0192286
0.0192269
0.0192285
0.0192265
0.0192282
0.0192262
0.0192289
0.42139
0.938815
1.07137
2.12978
2.26616
2.37934
2.62683
1.40558
0.351822
0.0728817
0.035674
0.0315865
0.0328276
0.0337807
0.0344289
0.0351533
0.0356551
0.0360531
0.0359822
0.0351444
0.0337155
0.0320864
0.0305628
0.029255
0.0281123
0.0270222
0.0259052
0.0247591
0.0236462
0.0226491
0.0218256
0.0211826
0.0206844
0.0202864
0.0199649
0.0197137
0.0195278
0.0194006
0.0193218
0.0192771
0.0192531
0.0192406
0.0192341
0.0192308
0.0192291
0.0192282
0.0192278
0.0192276
0.0192275
0.0192274
0.0192274
0.0192274
0.0192274
0.0192274
0.0192274
0.0192274
0.0192274
0.0192274
0.0192274
0.0192274
0.0192274
0.0192274
0.0192274
0.0192274
0.0192274
0.0192274
0.0192274
0.0192273
0.0192274
0.0192273
0.0192274
0.0192273
0.0192273
0.0192274
0.0192272
0.0192276
0.0192271
0.0192278
0.0192269
0.0192278
0.0192268
0.0192279
0.0192268
0.019228
0.0192266
0.0192282
0.0192265
0.0192283
0.0192264
0.0192285
0.0192262
0.0192287
0.019226
0.0192288
0.0192259
0.0192292
0.019226
0.0192299
0.019227
0.0192335
0.275426
0.706808
0.283467
1.31158
1.51347
1.79995
1.83009
0.66416
0.0958018
0.0328334
0.0333558
0.0299892
0.0301308
0.0320864
0.0331415
0.0341646
0.0350953
0.0356177
0.0354348
0.0345058
0.0330896
0.0315285
0.0300735
0.0288213
0.0277322
0.0267028
0.0256494
0.024558
0.0234822
0.0225042
0.0216902
0.0210602
0.0205881
0.0202269
0.0199396
0.0197121
0.0195402
0.0194191
0.0193401
0.0192923
0.0192649
0.0192497
0.0192415
0.0192372
0.0192349
0.0192337
0.019233
0.0192327
0.0192325
0.0192325
0.0192324
0.0192324
0.0192324
0.0192324
0.0192324
0.0192324
0.0192324
0.0192324
0.0192324
0.0192324
0.0192324
0.0192324
0.0192324
0.0192324
0.0192324
0.0192324
0.0192324
0.0192324
0.0192324
0.0192324
0.0192324
0.0192324
0.0192324
0.0192325
0.0192322
0.0192326
0.019232
0.0192329
0.0192318
0.019233
0.0192317
0.0192331
0.0192316
0.0192333
0.0192314
0.0192335
0.0192312
0.0192337
0.019231
0.0192339
0.0192308
0.0192342
0.0192306
0.0192346
0.0192306
0.0192353
0.0192311
0.0192371
0.0192336
0.0192439
0.156443
0.542781
0.0979836
0.632985
0.614588
1.04038
0.781024
0.109205
0.00736564
0.0360208
0.0322574
0.0274201
0.0274643
0.0301646
0.0319684
0.0332598
0.0344274
0.035102
0.0349447
0.034005
0.0326004
0.0310713
0.0296522
0.0284354
0.0273886
0.0264126
0.0254176
0.0243774
0.0233358
0.0223739
0.0215651
0.0209414
0.0204869
0.0201556
0.0199016
0.0197012
0.0195483
0.0194375
0.0193612
0.0193116
0.019281
0.019263
0.0192528
0.0192472
0.0192442
0.0192425
0.0192417
0.0192412
0.019241
0.0192408
0.0192408
0.0192408
0.0192407
0.0192407
0.0192407
0.0192407
0.0192407
0.0192407
0.0192407
0.0192407
0.0192407
0.0192407
0.0192407
0.0192407
0.0192407
0.0192407
0.0192407
0.0192407
0.0192407
0.0192407
0.0192407
0.0192407
0.0192407
0.0192408
0.0192405
0.019241
0.0192403
0.0192413
0.0192401
0.0192414
0.01924
0.0192415
0.0192398
0.0192417
0.0192396
0.019242
0.0192394
0.0192422
0.0192392
0.0192424
0.0192389
0.0192428
0.0192388
0.0192433
0.0192388
0.0192443
0.0192397
0.0192468
0.0192432
0.0192557
0.137913
0.287401
0.200907
0.256505
0.250747
0.415239
0.0813534
0.0213775
0.042844
0.0477179
0.0300465
0.0252216
0.0258944
0.0276087
0.0295589
0.0313437
0.0330201
0.0341135
0.034231
0.0334491
0.0321309
0.03065
0.0292626
0.0280778
0.0270746
0.026155
0.02522
0.0242301
0.02322
0.0222696
0.0214589
0.0208308
0.02038
0.0200663
0.0198403
0.0196683
0.0195374
0.0194402
0.0193698
0.0193212
0.0192896
0.01927
0.0192584
0.0192518
0.0192482
0.0192462
0.0192451
0.0192446
0.0192443
0.0192442
0.0192441
0.019244
0.019244
0.019244
0.019244
0.019244
0.019244
0.019244
0.019244
0.019244
0.019244
0.019244
0.019244
0.019244
0.019244
0.019244
0.019244
0.019244
0.019244
0.019244
0.019244
0.019244
0.019244
0.0192441
0.0192438
0.0192443
0.0192436
0.0192445
0.0192434
0.0192447
0.0192433
0.0192448
0.0192431
0.019245
0.0192429
0.0192452
0.0192427
0.0192454
0.0192425
0.0192457
0.0192423
0.019246
0.0192422
0.0192464
0.0192423
0.0192474
0.0192433
0.0192501
0.0192471
0.0192595
0.0886795
0.119245
0.12676
0.0764626
0.154192
0.0691707
0.0782898
0.0738736
0.0323301
0.0398034
0.0230521
0.0248588
0.0309056
0.0304352
0.0301036
0.0307602
0.031991
0.0330913
0.0334102
0.0328384
0.0316629
0.0302563
0.0289067
0.0277572
0.0268052
0.0259516
0.0250831
0.0241437
0.0231593
0.0222114
0.0213878
0.0207423
0.0202798
0.0199681
0.0197589
0.0196102
0.0194993
0.0194157
0.0193537
0.0193097
0.0192803
0.0192617
0.0192505
0.0192441
0.0192404
0.0192384
0.0192374
0.0192368
0.0192365
0.0192363
0.0192362
0.0192362
0.0192362
0.0192362
0.0192362
0.0192362
0.0192362
0.0192362
0.0192362
0.0192362
0.0192362
0.0192362
0.0192362
0.0192362
0.0192362
0.0192362
0.0192362
0.0192362
0.0192362
0.0192362
0.0192362
0.0192362
0.0192361
0.0192362
0.019236
0.0192364
0.0192358
0.0192367
0.0192356
0.0192368
0.0192355
0.0192369
0.0192354
0.019237
0.0192352
0.0192372
0.019235
0.0192374
0.0192349
0.0192376
0.0192347
0.0192378
0.0192347
0.0192382
0.0192348
0.019239
0.0192357
0.0192413
0.0192391
0.0192499
0.0206472
0.0644322
0.0253087
0.0304482
0.0445635
0.0304165
0.0419378
0.0164832
0.018351
0.0458036
0.0212118
0.028839
0.044347
0.0401017
0.0342405
0.0323815
0.0324609
0.0328791
0.0328914
0.0322816
0.0311714
0.0298318
0.0285321
0.027436
0.0265577
0.0257938
0.0250102
0.0241302
0.0231709
0.0222177
0.0213702
0.0206949
0.0202074
0.0198825
0.0196748
0.0195381
0.0194413
0.0193697
0.0193174
0.0192807
0.0192564
0.019241
0.0192316
0.0192262
0.0192231
0.0192214
0.0192206
0.0192201
0.0192199
0.0192197
0.0192197
0.0192196
0.0192196
0.0192196
0.0192196
0.0192196
0.0192196
0.0192196
0.0192196
0.0192196
0.0192196
0.0192196
0.0192196
0.0192196
0.0192196
0.0192196
0.0192196
0.0192196
0.0192196
0.0192196
0.0192196
0.0192196
0.0192196
0.0192197
0.0192195
0.0192198
0.0192193
0.01922
0.0192191
0.0192201
0.0192191
0.0192202
0.019219
0.0192203
0.0192188
0.0192205
0.0192187
0.0192206
0.0192186
0.0192207
0.0192185
0.0192209
0.0192184
0.0192212
0.0192185
0.0192218
0.0192192
0.0192235
0.0192218
0.0192305
0.00853675
0.0385144
0.00994692
0.0215953
0.024325
0.0109319
0.0377525
0.00530385
0.0353235
0.0364686
0.00767902
0.0367289
0.0754072
0.0654189
0.0458179
0.0355144
0.0325248
0.032219
0.0321166
0.0315033
0.0304137
0.0291088
0.0278689
0.0268716
0.0261299
0.0255194
0.0248767
0.0241007
0.0231986
0.0222605
0.0213988
0.0206951
0.0201778
0.0198296
0.0196098
0.0194725
0.0193822
0.0193192
0.0192752
0.0192456
0.0192268
0.0192153
0.0192087
0.0192049
0.0192028
0.0192016
0.019201
0.0192007
0.0192005
0.0192004
0.0192004
0.0192003
0.0192003
0.0192003
0.0192003
0.0192003
0.0192003
0.0192003
0.0192003
0.0192003
0.0192003
0.0192003
0.0192003
0.0192003
0.0192003
0.0192003
0.0192003
0.0192003
0.0192003
0.0192003
0.0192003
0.0192003
0.0192003
0.0192004
0.0192002
0.0192005
0.0192001
0.0192006
0.0192
0.0192007
0.0191999
0.0192007
0.0191999
0.0192008
0.0191997
0.0192009
0.0191996
0.019201
0.0191996
0.0192011
0.0191995
0.0192013
0.0191994
0.0192015
0.0191994
0.0192018
0.0191998
0.0192029
0.0192015
0.0192079
0.00421214
0.0336191
0.00780632
0.0244568
0.0194632
0.0136907
0.0339863
0.00122883
0.0380139
0.0347473
0.00427217
0.107719
0.183723
0.149314
0.0916967
0.0569882
0.0418599
0.0359404
0.0333543
0.0316998
0.0301709
0.0286645
0.0273402
0.02634
0.0256521
0.0251261
0.0245794
0.0238983
0.0230787
0.0222021
0.021377
0.0206866
0.0201657
0.0198057
0.0195732
0.0194281
0.0193365
0.0192767
0.0192377
0.0192132
0.0191984
0.0191899
0.0191851
0.0191826
0.0191814
0.0191807
0.0191804
0.0191802
0.0191801
0.0191801
0.0191801
0.0191801
0.01918
0.01918
0.01918
0.01918
0.01918
0.01918
0.01918
0.01918
0.01918
0.01918
0.01918
0.01918
0.01918
0.01918
0.0191801
0.01918
0.0191801
0.01918
0.0191801
0.01918
0.0191801
0.0191801
0.01918
0.0191801
0.0191799
0.0191802
0.0191799
0.0191803
0.0191798
0.0191803
0.0191798
0.0191803
0.0191798
0.0191804
0.0191797
0.0191804
0.0191796
0.0191805
0.0191796
0.0191806
0.0191795
0.0191807
0.0191794
0.0191808
0.0191795
0.0191813
0.0191801
0.0191842
0.00589763
0.0342506
0.00191621
0.0351059
0.00680748
0.0251679
0.0248103
0.0084878
0.0479804
0.0267796
0.0748619
0.29434
0.435143
0.361075
0.217903
0.117732
0.0694813
0.049556
0.0407703
0.0359135
0.0325437
0.0299733
0.0280477
0.0266831
0.0257311
0.0249947
0.0242964
0.0235345
0.0227016
0.0218616
0.0211004
0.0204793
0.0200174
0.0196994
0.0194933
0.0193642
0.0192833
0.0192316
0.0191989
0.019179
0.0191675
0.0191612
0.019158
0.0191563
0.0191556
0.0191552
0.019155
0.019155
0.0191549
0.0191549
0.0191549
0.0191549
0.0191549
0.0191549
0.0191549
0.0191549
0.0191549
0.0191549
0.0191549
0.0191549
0.0191549
0.0191549
0.0191549
0.0191549
0.0191549
0.0191549
0.0191549
0.0191549
0.0191549
0.0191549
0.019155
0.0191549