/*--------------------------------*- C++ -*----------------------------------*\
| =========                 |                                                 |
| \\      /  F ield         | OpenFOAM: The Open Source CFD Toolbox           |
|  \\    /   O peration     | Version:  v2012                                 |
|   \\  /    A nd           | Website:  www.openfoam.com                      |
|    \\/     M anipulation  |                                                 |
\*---------------------------------------------------------------------------*/
FoamFile
{
    version     2.0;
    format      ascii;
    class       volVectorField;
    location    "0.044";
    object      U.air;
}
// * * * * * * * * * * * * * * * * * * * * * * * * * * * * * * * * * * * * * //

dimensions      [0 1 -1 0 0 0 0];


internalField   nonuniform List<vector> 
5600
(
(9.20613 0.00896133 0)
(8.83523 0.0172515 0)
(8.45616 0.0174825 0)
(8.07903 0.0144915 0)
(7.7309 0.00999275 0)
(7.42038 0.00525485 0)
(7.1553 0.000832743 0)
(6.93643 -0.00263738 0)
(6.7528 -0.00522244 0)
(6.60564 -0.00722417 0)
(6.49026 -0.0085402 0)
(6.39826 -0.0091875 0)
(6.32426 -0.00939149 0)
(6.26597 -0.00938176 0)
(6.22164 -0.00923069 0)
(6.18828 -0.00891289 0)
(6.16248 -0.00841965 0)
(6.14187 -0.00789893 0)
(6.1249 -0.00749317 0)
(6.11104 -0.00714362 0)
(6.10037 -0.0068115 0)
(6.09263 -0.0064572 0)
(6.08736 -0.00608255 0)
(6.08426 -0.00585096 0)
(6.08261 -0.00574225 0)
(6.08191 -0.00592382 0)
(6.0818 -0.00614258 0)
(6.08216 -0.00626001 0)
(6.08281 -0.00628962 0)
(6.0834 -0.00626495 0)
(6.08382 -0.00622664 0)
(6.0841 -0.00619156 0)
(6.08427 -0.00616627 0)
(6.08436 -0.00614982 0)
(6.08442 -0.00613946 0)
(6.08445 -0.00613311 0)
(6.08447 -0.00612937 0)
(6.08448 -0.00612727 0)
(6.08448 -0.00612614 0)
(6.08448 -0.00612555 0)
(6.08448 -0.00612526 0)
(6.08449 -0.00612511 0)
(6.08449 -0.00612505 0)
(6.08449 -0.00612502 0)
(6.08449 -0.006125 0)
(6.08449 -0.006125 0)
(6.08449 -0.00612499 0)
(6.08449 -0.00612499 0)
(6.08449 -0.00612499 0)
(6.08449 -0.00612499 0)
(6.08449 -0.00612499 0)
(6.08449 -0.00612499 0)
(6.08449 -0.00612499 0)
(6.08449 -0.00612499 0)
(6.08449 -0.00612499 0)
(6.08449 -0.00612499 0)
(6.08449 -0.00612499 0)
(6.08449 -0.00612499 0)
(6.08449 -0.00612499 0)
(6.08449 -0.00612499 0)
(6.08449 -0.00612499 0)
(6.08449 -0.006125 0)
(6.08449 -0.00612498 0)
(6.08449 -0.00612501 0)
(6.08449 -0.00612494 0)
(6.08449 -0.00612511 0)
(6.08449 -0.00612473 0)
(6.08448 -0.00612554 0)
(6.0845 -0.00612388 0)
(6.08446 -0.00612715 0)
(6.08455 -0.00612097 0)
(6.08439 -0.00613208 0)
(6.08468 -0.00611313 0)
(6.08418 -0.00614342 0)
(6.085 -0.00609813 0)
(6.08371 -0.0061602 0)
(6.0856 -0.00608267 0)
(6.08301 -0.00616901 0)
(6.08629 -0.00608739 0)
(6.08246 -0.00614911 0)
(6.08659 -0.00611247 0)
(6.08234 -0.00614453 0)
(6.08687 -0.0060504 0)
(6.0811 -0.00630719 0)
(6.08992 -0.00576704 0)
(6.07552 -0.00657283 0)
(6.09731 -0.00566257 0)
(6.06848 -0.006328 0)
(6.09971 -0.00622399 0)
(6.07253 -0.00559787 0)
(6.0837 -0.00730728 0)
(6.09966 -0.00471993 0)
(6.04696 -0.00737037 0)
(6.12134 -0.00571647 0)
(6.03949 -0.00506076 0)
(6.08634 -0.00791739 0)
(6.0808 -0.00355245 0)
(5.94639 -0.00732667 0)
(5.97248 -0.00532075 0)
(5.97998 0.0172905 0)
(9.39288 0.0365654 0)
(9.38797 0.0381857 0)
(9.35658 0.037565 0)
(9.29946 0.0376176 0)
(9.22377 0.0369005 0)
(9.13563 0.0350744 0)
(9.03704 0.03254 0)
(8.93114 0.0297499 0)
(8.8229 0.0268217 0)
(8.71653 0.0237635 0)
(8.61261 0.0209707 0)
(8.51206 0.0185712 0)
(8.41805 0.0163317 0)
(8.33226 0.0142106 0)
(8.25424 0.0123647 0)
(8.183 0.0108636 0)
(8.11812 0.0096081 0)
(8.05991 0.00847772 0)
(8.00962 0.00746494 0)
(7.96828 0.00652596 0)
(7.93635 0.00560952 0)
(7.91335 0.00472877 0)
(7.89778 0.00387305 0)
(7.88802 0.00329697 0)
(7.8824 0.00284344 0)
(7.87952 0.00286524 0)
(7.87841 0.00300707 0)
(7.87827 0.00304071 0)
(7.87871 0.00305104 0)
(7.87952 0.0030544 0)
(7.88023 0.00304751 0)
(7.88071 0.00303804 0)
(7.88101 0.00303039 0)
(7.88119 0.00302469 0)
(7.8813 0.00302069 0)
(7.88136 0.00301804 0)
(7.88139 0.00301637 0)
(7.88141 0.00301538 0)
(7.88142 0.00301482 0)
(7.88142 0.00301451 0)
(7.88142 0.00301435 0)
(7.88142 0.00301427 0)
(7.88142 0.00301424 0)
(7.88142 0.00301422 0)
(7.88143 0.00301421 0)
(7.88143 0.0030142 0)
(7.88143 0.0030142 0)
(7.88143 0.0030142 0)
(7.88143 0.0030142 0)
(7.88143 0.0030142 0)
(7.88143 0.0030142 0)
(7.88143 0.0030142 0)
(7.88143 0.0030142 0)
(7.88143 0.0030142 0)
(7.88143 0.0030142 0)
(7.88143 0.0030142 0)
(7.88143 0.0030142 0)
(7.88143 0.0030142 0)
(7.88143 0.0030142 0)
(7.88143 0.0030142 0)
(7.88143 0.0030142 0)
(7.88143 0.0030142 0)
(7.88143 0.0030142 0)
(7.88143 0.0030142 0)
(7.88143 0.00301421 0)
(7.88143 0.00301417 0)
(7.88143 0.00301426 0)
(7.88142 0.00301407 0)
(7.88144 0.00301447 0)
(7.8814 0.00301367 0)
(7.88148 0.00301519 0)
(7.88134 0.00301244 0)
(7.88158 0.00301705 0)
(7.88119 0.00300988 0)
(7.88179 0.00301994 0)
(7.88092 0.00300739 0)
(7.88208 0.00302042 0)
(7.88061 0.00301206 0)
(7.88228 0.00301014 0)
(7.88047 0.00302851 0)
(7.88229 0.00299462 0)
(7.88032 0.00303257 0)
(7.88283 0.00301641 0)
(7.87884 0.00297703 0)
(7.88499 0.0030877 0)
(7.87544 0.0029056 0)
(7.88686 0.00307777 0)
(7.8742 0.00306285 0)
(7.88363 0.00278824 0)
(7.88106 0.00359981 0)
(7.87032 0.00214551 0)
(7.89173 0.00386663 0)
(7.86403 0.00280238 0)
(7.88769 0.00287453 0)
(7.86232 0.00488724 0)
(7.87538 0.00145229 0)
(7.85281 0.00887401 0)
(7.83858 0.011758 0)
(7.70562 0.0118627 0)
(7.83255 0.111636 0)
(9.40084 0.0229779 0)
(9.42976 0.0304787 0)
(9.46069 0.0319594 0)
(9.47752 0.0330156 0)
(9.48901 0.0320314 0)
(9.48982 0.0301115 0)
(9.48391 0.0271521 0)
(9.46896 0.024219 0)
(9.44563 0.0213515 0)
(9.41452 0.0184919 0)
(9.37599 0.0161521 0)
(9.33019 0.0141446 0)
(9.27835 0.0122355 0)
(9.22263 0.0103306 0)
(9.16459 0.00863452 0)
(9.10477 0.00726809 0)
(9.04357 0.00613964 0)
(8.98094 0.0050095 0)
(8.91943 0.00370747 0)
(8.86426 0.00214784 0)
(8.81897 0.000534801 0)
(8.78509 -0.000930741 0)
(8.76182 -0.00214778 0)
(8.74714 -0.00275805 0)
(8.73874 -0.00301435 0)
(8.73443 -0.00340664 0)
(8.73259 -0.0038457 0)
(8.73221 -0.00404464 0)
(8.73264 -0.00413275 0)
(8.73366 -0.00413871 0)
(8.73461 -0.00408832 0)
(8.73526 -0.00403146 0)
(8.73567 -0.00399032 0)
(8.73592 -0.00396304 0)
(8.73607 -0.00394556 0)
(8.73616 -0.00393471 0)
(8.7362 -0.00392824 0)
(8.73623 -0.00392455 0)
(8.73624 -0.00392254 0)
(8.73625 -0.00392149 0)
(8.73625 -0.00392095 0)
(8.73625 -0.00392069 0)
(8.73626 -0.00392057 0)
(8.73626 -0.00392051 0)
(8.73626 -0.00392049 0)
(8.73626 -0.00392047 0)
(8.73626 -0.00392047 0)
(8.73626 -0.00392046 0)
(8.73626 -0.00392047 0)
(8.73626 -0.00392047 0)
(8.73626 -0.00392046 0)
(8.73626 -0.00392046 0)
(8.73626 -0.00392046 0)
(8.73626 -0.00392047 0)
(8.73626 -0.00392046 0)
(8.73626 -0.00392046 0)
(8.73626 -0.00392046 0)
(8.73626 -0.00392046 0)
(8.73626 -0.00392046 0)
(8.73626 -0.00392047 0)
(8.73626 -0.00392046 0)
(8.73626 -0.00392048 0)
(8.73626 -0.00392045 0)
(8.73626 -0.0039205 0)
(8.73626 -0.00392037 0)
(8.73626 -0.00392067 0)
(8.73626 -0.00392003 0)
(8.73626 -0.00392133 0)
(8.73627 -0.0039188 0)
(8.73625 -0.00392353 0)
(8.73628 -0.0039151 0)
(8.73623 -0.00392932 0)
(8.73631 -0.00390664 0)
(8.7362 -0.00394027 0)
(8.73634 -0.00389354 0)
(8.73618 -0.00395179 0)
(8.73634 -0.0038851 0)
(8.73622 -0.00395133 0)
(8.73624 -0.00389365 0)
(8.73632 -0.0039381 0)
(8.7362 -0.00389529 0)
(8.73618 -0.00397467 0)
(8.73657 -0.003787 0)
(8.73558 -0.00413454 0)
(8.73701 -0.00358495 0)
(8.73541 -0.00421074 0)
(8.73573 -0.00367274 0)
(8.73736 -0.00380436 0)
(8.73236 -0.00431902 0)
(8.73995 -0.0027876 0)
(8.73129 -0.00491097 0)
(8.73797 -0.00256743 0)
(8.7363 -0.00387689 0)
(8.72712 -0.00361621 0)
(8.7361 -0.00236852 0)
(8.73934 -0.00369418 0)
(8.71031 0.00364941 0)
(8.73112 0.00736352 0)
(8.59701 0.0127955 0)
(8.66156 0.142912 0)
(9.39958 0.0218034 0)
(9.43089 0.0296002 0)
(9.46769 0.0303059 0)
(9.4996 0.031332 0)
(9.52904 0.031231 0)
(9.55564 0.0300125 0)
(9.58023 0.0284421 0)
(9.59914 0.0270463 0)
(9.61489 0.025512 0)
(9.62584 0.0239832 0)
(9.63353 0.0226999 0)
(9.63469 0.0219424 0)
(9.63236 0.0208437 0)
(9.62608 0.0195904 0)
(9.61582 0.0184615 0)
(9.60156 0.0176115 0)
(9.58243 0.0169855 0)
(9.55718 0.0162916 0)
(9.52561 0.0150696 0)
(9.48911 0.0130789 0)
(9.4522 0.0105487 0)
(9.42219 0.0080547 0)
(9.40073 0.00596232 0)
(9.38716 0.00424838 0)
(9.37957 0.00291562 0)
(9.37611 0.00202635 0)
(9.37513 0.00163492 0)
(9.37542 0.00130651 0)
(9.37687 0.00109125 0)
(9.37875 0.00103129 0)
(9.38029 0.00108485 0)
(9.38128 0.00115595 0)
(9.38192 0.00120707 0)
(9.38232 0.00123988 0)
(9.38256 0.00126007 0)
(9.38269 0.00127204 0)
(9.38277 0.00127886 0)
(9.3828 0.0012826 0)
(9.38283 0.00128458 0)
(9.38284 0.00128559 0)
(9.38284 0.00128608 0)
(9.38284 0.00128632 0)
(9.38284 0.00128643 0)
(9.38285 0.00128648 0)
(9.38285 0.0012865 0)
(9.38285 0.00128651 0)
(9.38285 0.00128652 0)
(9.38285 0.00128652 0)
(9.38285 0.00128652 0)
(9.38285 0.00128652 0)
(9.38285 0.00128652 0)
(9.38285 0.00128652 0)
(9.38285 0.00128652 0)
(9.38285 0.00128652 0)
(9.38285 0.00128652 0)
(9.38285 0.00128652 0)
(9.38285 0.00128652 0)
(9.38285 0.00128652 0)
(9.38285 0.00128652 0)
(9.38285 0.00128652 0)
(9.38285 0.00128652 0)
(9.38285 0.00128651 0)
(9.38285 0.00128653 0)
(9.38285 0.00128649 0)
(9.38285 0.00128659 0)
(9.38285 0.00128636 0)
(9.38285 0.00128685 0)
(9.38286 0.00128587 0)
(9.38284 0.00128773 0)
(9.38288 0.00128436 0)
(9.38281 0.00129016 0)
(9.38294 0.00128082 0)
(9.38271 0.00129495 0)
(9.38309 0.00127564 0)
(9.38249 0.00130011 0)
(9.38339 0.00127406 0)
(9.38215 0.00129709 0)
(9.38375 0.00128811 0)
(9.38187 0.00127854 0)
(9.38394 0.00130574 0)
(9.38183 0.00127833 0)
(9.38405 0.00127014 0)
(9.38138 0.00137281 0)
(9.38536 0.00117263 0)
(9.3791 0.00150842 0)
(9.38878 0.00124964 0)
(9.37622 0.00130108 0)
(9.39051 0.00168018 0)
(9.37827 0.000834722 0)
(9.38485 0.00214183 0)
(9.39129 0.000618131 0)
(9.37019 0.00181114 0)
(9.39917 0.00212145 0)
(9.36963 0.00128474 0)
(9.39474 0.00215042 0)
(9.38155 0.00237044 0)
(9.35831 0.00671217 0)
(9.39533 0.0171834 0)
(9.2974 0.0265024 0)
(9.29839 0.168302 0)
(9.39776 0.0183334 0)
(9.42817 0.0258286 0)
(9.46476 0.0260857 0)
(9.49902 0.0271388 0)
(9.53099 0.0272025 0)
(9.56241 0.026246 0)
(9.59292 0.0248403 0)
(9.62046 0.0233903 0)
(9.64601 0.0217612 0)
(9.6689 0.0200708 0)
(9.68973 0.018888 0)
(9.70861 0.0179597 0)
(9.72546 0.016938 0)
(9.73982 0.0158307 0)
(9.75234 0.0148595 0)
(9.76349 0.0142647 0)
(9.77351 0.0141024 0)
(9.78078 0.0140568 0)
(9.78283 0.0137373 0)
(9.78208 0.0124922 0)
(9.77879 0.0100731 0)
(9.77427 0.00682915 0)
(9.77039 0.00362669 0)
(9.76832 0.00100522 0)
(9.76793 -0.000877117 0)
(9.76893 -0.00215687 0)
(9.7707 -0.00273128 0)
(9.77296 -0.00302122 0)
(9.77563 -0.00316488 0)
(9.77812 -0.00314471 0)
(9.78007 -0.00301816 0)
(9.78148 -0.00289727 0)
(9.78244 -0.00281282 0)
(9.78305 -0.00275689 0)
(9.78343 -0.00272071 0)
(9.78365 -0.00269812 0)
(9.78377 -0.00268462 0)
(9.78384 -0.0026769 0)
(9.78388 -0.00267265 0)
(9.7839 -0.00267041 0)
(9.78391 -0.00266926 0)
(9.78391 -0.00266869 0)
(9.78391 -0.00266842 0)
(9.78392 -0.00266829 0)
(9.78392 -0.00266823 0)
(9.78392 -0.0026682 0)
(9.78392 -0.00266819 0)
(9.78392 -0.00266819 0)
(9.78392 -0.00266819 0)
(9.78392 -0.00266819 0)
(9.78392 -0.00266819 0)
(9.78392 -0.00266818 0)
(9.78392 -0.00266818 0)
(9.78392 -0.00266819 0)
(9.78392 -0.00266819 0)
(9.78392 -0.00266818 0)
(9.78392 -0.00266818 0)
(9.78392 -0.00266818 0)
(9.78392 -0.00266818 0)
(9.78392 -0.00266818 0)
(9.78392 -0.00266819 0)
(9.78392 -0.00266819 0)
(9.78392 -0.00266819 0)
(9.78392 -0.00266818 0)
(9.78392 -0.00266819 0)
(9.78392 -0.00266815 0)
(9.78392 -0.00266824 0)
(9.78393 -0.00266808 0)
(9.78391 -0.00266839 0)
(9.78394 -0.0026678 0)
(9.78389 -0.00266884 0)
(9.78399 -0.00266713 0)
(9.78382 -0.00266973 0)
(9.78409 -0.0026662 0)
(9.78369 -0.00267052 0)
(9.78425 -0.00266655 0)
(9.78352 -0.00266883 0)
(9.78442 -0.00267139 0)
(9.78341 -0.00266284 0)
(9.78449 -0.00267787 0)
(9.78336 -0.00266107 0)
(9.78466 -0.00266869 0)
(9.78289 -0.00267987 0)
(9.78568 -0.00264879 0)
(9.78141 -0.00269945 0)
(9.78764 -0.00268826 0)
(9.78033 -0.00262331 0)
(9.78807 -0.00278158 0)
(9.78255 -0.00258294 0)
(9.78314 -0.0029743 0)
(9.79079 -0.00250395 0)
(9.77608 -0.00239473 0)
(9.79471 -0.00273748 0)
(9.77845 -0.00212695 0)
(9.79253 -0.00240597 0)
(9.77449 0.000480889 0)
(9.76846 0.00337291 0)
(9.7819 0.0148865 0)
(9.72587 0.0347136 0)
(9.69555 0.176007 0)
(9.39591 0.0145833 0)
(9.42525 0.0219468 0)
(9.46135 0.0220171 0)
(9.49595 0.0229199 0)
(9.5281 0.0230301 0)
(9.56021 0.0222146 0)
(9.59135 0.0210188 0)
(9.62064 0.0198242 0)
(9.64809 0.0185259 0)
(9.67336 0.0172499 0)
(9.69704 0.0163494 0)
(9.71992 0.015788 0)
(9.74168 0.0151562 0)
(9.76169 0.0143965 0)
(9.78027 0.0136791 0)
(9.79806 0.0132206 0)
(9.81566 0.0131702 0)
(9.83294 0.0134747 0)
(9.84894 0.0133909 0)
(9.86271 0.0122659 0)
(9.87379 0.0101525 0)
(9.88214 0.00758399 0)
(9.88821 0.00514868 0)
(9.89252 0.00320953 0)
(9.89544 0.00191099 0)
(9.89749 0.00112294 0)
(9.89908 0.000353694 0)
(9.90059 -0.000250541 0)
(9.90229 -0.000581379 0)
(9.90388 -0.000573817 0)
(9.9052 -0.000366185 0)
(9.9062 -0.000139518 0)
(9.90691 3.95482e-05 0)
(9.90738 0.000166064 0)
(9.90767 0.000249586 0)
(9.90785 0.000301791 0)
(9.90796 0.000332934 0)
(9.90801 0.000350746 0)
(9.90805 0.000360549 0)
(9.90806 0.000365754 0)
(9.90807 0.000368423 0)
(9.90808 0.00036975 0)
(9.90808 0.000370388 0)
(9.90808 0.000370686 0)
(9.90808 0.000370829 0)
(9.90808 0.000370902 0)
(9.90808 0.000370936 0)
(9.90808 0.000370948 0)
(9.90808 0.000370949 0)
(9.90808 0.000370947 0)
(9.90808 0.000370948 0)
(9.90808 0.000370949 0)
(9.90808 0.000370948 0)
(9.90808 0.000370947 0)
(9.90808 0.000370947 0)
(9.90808 0.000370949 0)
(9.90808 0.000370951 0)
(9.90808 0.00037095 0)
(9.90808 0.000370951 0)
(9.90808 0.00037095 0)
(9.90809 0.000370946 0)
(9.90809 0.000370947 0)
(9.90809 0.000370939 0)
(9.90809 0.000370956 0)
(9.90809 0.000370929 0)
(9.90809 0.000370991 0)
(9.90809 0.000370858 0)
(9.90809 0.000371134 0)
(9.90809 0.000370592 0)
(9.90809 0.000371585 0)
(9.90808 0.000369861 0)
(9.9081 0.000372727 0)
(9.90807 0.000368281 0)
(9.90811 0.000374913 0)
(9.90806 0.000366034 0)
(9.90813 0.000377441 0)
(9.90804 0.000364413 0)
(9.90814 0.000379366 0)
(9.90804 0.000363873 0)
(9.90815 0.000380654 0)
(9.90803 0.000360171 0)
(9.90819 0.000390871 0)
(9.90795 0.000349063 0)
(9.90836 0.000418946 0)
(9.90774 0.000341945 0)
(9.90871 0.000449313 0)
(9.90759 0.000353026 0)
(9.90897 0.000447942 0)
(9.90792 0.000482167 0)
(9.90836 0.000265097 0)
(9.909 0.000683906 0)
(9.90698 0.000602626 0)
(9.91081 0.000837408 0)
(9.90728 0.000774229 0)
(9.9102 0.00168847 0)
(9.90454 0.0042727 0)
(9.90142 0.00641977 0)
(9.89734 0.0197316 0)
(9.86865 0.0463469 0)
(9.84934 0.177656 0)
(9.395 0.011327 0)
(9.42267 0.017595 0)
(9.45812 0.0175001 0)
(9.49302 0.0182192 0)
(9.52497 0.0183732 0)
(9.55703 0.0177046 0)
(9.58817 0.0167269 0)
(9.61774 0.0157621 0)
(9.6455 0.0147341 0)
(9.67112 0.0137217 0)
(9.69531 0.0129558 0)
(9.71883 0.0124668 0)
(9.74153 0.0119483 0)
(9.76285 0.0113265 0)
(9.78282 0.0106893 0)
(9.802 0.0102297 0)
(9.82099 0.0101239 0)
(9.84023 0.0103376 0)
(9.8595 0.0103747 0)
(9.87728 0.00963493 0)
(9.89232 0.0079644 0)
(9.90399 0.00563769 0)
(9.91241 0.00314864 0)
(9.91823 0.000891262 0)
(9.92201 -0.0009828 0)
(9.92392 -0.002024 0)
(9.92464 -0.00241826 0)
(9.92495 -0.00262792 0)
(9.92523 -0.0027229 0)
(9.92556 -0.00264006 0)
(9.92591 -0.00245318 0)
(9.9262 -0.0022862 0)
(9.92644 -0.00216697 0)
(9.92661 -0.00208586 0)
(9.92673 -0.00203175 0)
(9.9268 -0.0019968 0)
(9.92685 -0.00197516 0)
(9.92688 -0.00196234 0)
(9.9269 -0.00195505 0)
(9.92691 -0.00195106 0)
(9.92691 -0.00194895 0)
(9.92692 -0.00194788 0)
(9.92692 -0.00194734 0)
(9.92692 -0.00194709 0)
(9.92692 -0.00194697 0)
(9.92692 -0.00194692 0)
(9.92692 -0.00194689 0)
(9.92692 -0.00194688 0)
(9.92692 -0.00194687 0)
(9.92692 -0.00194687 0)
(9.92692 -0.00194687 0)
(9.92692 -0.00194687 0)
(9.92692 -0.00194687 0)
(9.92692 -0.00194687 0)
(9.92692 -0.00194687 0)
(9.92692 -0.00194687 0)
(9.92692 -0.00194687 0)
(9.92692 -0.00194687 0)
(9.92692 -0.00194687 0)
(9.92692 -0.00194687 0)
(9.92692 -0.00194687 0)
(9.92692 -0.00194687 0)
(9.92692 -0.00194688 0)
(9.92692 -0.00194687 0)
(9.92692 -0.00194689 0)
(9.92693 -0.00194683 0)
(9.92693 -0.00194694 0)
(9.92693 -0.00194674 0)
(9.92693 -0.00194713 0)
(9.92693 -0.00194641 0)
(9.92693 -0.00194764 0)
(9.92693 -0.00194568 0)
(9.92693 -0.00194857 0)
(9.92693 -0.00194463 0)
(9.92693 -0.00194948 0)
(9.92693 -0.00194437 0)
(9.92693 -0.00194901 0)
(9.92693 -0.001946 0)
(9.92693 -0.00194693 0)
(9.92693 -0.00194751 0)
(9.92692 -0.00194991 0)
(9.92694 -0.00193672 0)
(9.92692 -0.00196547 0)
(9.92695 -0.00191816 0)
(9.92691 -0.00197607 0)
(9.92698 -0.00194298 0)
(9.92689 -0.00194101 0)
(9.92703 -0.00201317 0)
(9.92694 -0.00184491 0)
(9.92697 -0.00217529 0)
(9.92689 -0.00177447 0)
(9.92684 -0.00184919 0)
(9.92732 -0.00192841 0)
(9.92642 -0.00143213 0)
(9.92631 -0.00121222 0)
(9.92536 0.00171138 0)
(9.9224 0.00493459 0)
(9.91634 0.0193279 0)
(9.902 0.0512611 0)
(9.89912 0.168727 0)
(9.39444 0.00798632 0)
(9.42062 0.0126932 0)
(9.45547 0.0125378 0)
(9.49057 0.0130585 0)
(9.52241 0.0132159 0)
(9.5543 0.0127292 0)
(9.58546 0.0120149 0)
(9.615 0.0112992 0)
(9.64274 0.0105516 0)
(9.66848 0.00980679 0)
(9.69279 0.00920054 0)
(9.71627 0.00880984 0)
(9.73896 0.00845482 0)
(9.76059 0.00803938 0)
(9.78102 0.00758631 0)
(9.80052 0.00724513 0)
(9.81967 0.00716884 0)
(9.83895 0.00738077 0)
(9.85853 0.00755023 0)
(9.87721 0.00711547 0)
(9.89359 0.00588121 0)
(9.90663 0.00415731 0)
(9.91587 0.00247869 0)
(9.92159 0.00127527 0)
(9.92459 0.000757472 0)
(9.92585 0.000148552 0)
(9.9262 -0.000444008 0)
(9.92591 -0.00104984 0)
(9.92522 -0.00143736 0)
(9.92441 -0.00145932 0)
(9.92375 -0.00122964 0)
(9.9233 -0.000952478 0)
(9.92304 -0.000717921 0)
(9.92288 -0.000543988 0)
(9.92279 -0.000424959 0)
(9.92274 -0.000348277 0)
(9.92272 -0.000301254 0)
(9.92271 -0.000273653 0)
(9.9227 -0.000258092 0)
(9.9227 -0.00024964 0)
(9.9227 -0.000245211 0)
(9.9227 -0.000242969 0)
(9.9227 -0.000241874 0)
(9.9227 -0.000241358 0)
(9.9227 -0.000241101 0)
(9.9227 -0.000240966 0)
(9.9227 -0.0002409 0)
(9.9227 -0.000240878 0)
(9.9227 -0.000240874 0)
(9.9227 -0.000240876 0)
(9.9227 -0.000240877 0)
(9.9227 -0.000240877 0)
(9.9227 -0.000240877 0)
(9.9227 -0.000240877 0)
(9.9227 -0.000240876 0)
(9.9227 -0.000240874 0)
(9.9227 -0.000240872 0)
(9.9227 -0.000240873 0)
(9.9227 -0.000240872 0)
(9.9227 -0.000240874 0)
(9.9227 -0.000240878 0)
(9.9227 -0.000240877 0)
(9.9227 -0.000240886 0)
(9.9227 -0.000240874 0)
(9.9227 -0.000240891 0)
(9.9227 -0.000240846 0)
(9.9227 -0.000240933 0)
(9.9227 -0.000240757 0)
(9.9227 -0.0002411 0)
(9.9227 -0.000240477 0)
(9.9227 -0.000241542 0)
(9.92271 -0.000239819 0)
(9.92271 -0.000242412 0)
(9.92271 -0.00023872 0)
(9.92271 -0.000243405 0)
(9.92271 -0.000237927 0)
(9.92271 -0.000243423 0)
(9.92271 -0.000238227 0)
(9.92271 -0.000242528 0)
(9.92271 -0.000238317 0)
(9.92271 -0.000244841 0)
(9.92271 -0.000229932 0)
(9.92271 -0.000255208 0)
(9.92271 -0.000212038 0)
(9.92272 -0.000263679 0)
(9.92271 -0.000206587 0)
(9.92272 -0.000242725 0)
(9.9227 -0.000225369 0)
(9.92276 -0.000151398 0)
(9.92271 -0.000346576 0)
(9.92266 1.03054e-05 0)
(9.92277 -4.1873e-05 0)
(9.92274 8.86973e-05 0)
(9.92266 0.000308423 0)
(9.92207 0.00131659 0)
(9.9215 0.00405149 0)
(9.91955 0.00764203 0)
(9.91513 0.0221895 0)
(9.91008 0.0562688 0)
(9.92266 0.159752 0)
(9.39406 0.00454514 0)
(9.41913 0.0072913 0)
(9.45367 0.00712198 0)
(9.48883 0.00742545 0)
(9.52055 0.00752953 0)
(9.55234 0.0072294 0)
(9.58352 0.00679808 0)
(9.61303 0.00635219 0)
(9.64068 0.00589405 0)
(9.66658 0.00543995 0)
(9.69095 0.0050551 0)
(9.71426 0.00481463 0)
(9.73685 0.00462066 0)
(9.75859 0.00438556 0)
(9.77928 0.00410989 0)
(9.79888 0.00389505 0)
(9.81789 0.00384482 0)
(9.83691 0.00399729 0)
(9.85643 0.00416856 0)
(9.87556 0.0039699 0)
(9.89237 0.00323744 0)
(9.90555 0.00214119 0)
(9.91469 0.00091424 0)
(9.92032 -0.000336135 0)
(9.92314 -0.00135146 0)
(9.92402 -0.00173526 0)
(9.92396 -0.00182322 0)
(9.92305 -0.00181309 0)
(9.92146 -0.0017434 0)
(9.91977 -0.00163507 0)
(9.9184 -0.00153635 0)
(9.9174 -0.00147984 0)
(9.91673 -0.00145081 0)
(9.9163 -0.00143318 0)
(9.91604 -0.00142049 0)
(9.91588 -0.00141117 0)
(9.91579 -0.00140469 0)
(9.91575 -0.00140044 0)
(9.91572 -0.00139782 0)
(9.91571 -0.00139627 0)
(9.9157 -0.0013954 0)
(9.9157 -0.00139493 0)
(9.9157 -0.00139468 0)
(9.9157 -0.00139457 0)
(9.9157 -0.00139453 0)
(9.9157 -0.00139451 0)
(9.9157 -0.00139449 0)
(9.9157 -0.00139448 0)
(9.9157 -0.00139448 0)
(9.9157 -0.00139447 0)
(9.9157 -0.00139447 0)
(9.9157 -0.00139447 0)
(9.9157 -0.00139447 0)
(9.9157 -0.00139447 0)
(9.9157 -0.00139447 0)
(9.9157 -0.00139447 0)
(9.9157 -0.00139447 0)
(9.9157 -0.00139447 0)
(9.9157 -0.00139447 0)
(9.9157 -0.00139447 0)
(9.9157 -0.00139448 0)
(9.9157 -0.00139447 0)
(9.91571 -0.00139448 0)
(9.91571 -0.00139447 0)
(9.91571 -0.00139448 0)
(9.91571 -0.00139445 0)
(9.91571 -0.00139451 0)
(9.91571 -0.0013944 0)
(9.91571 -0.0013946 0)
(9.91571 -0.00139424 0)
(9.91571 -0.00139486 0)
(9.91571 -0.00139387 0)
(9.91571 -0.00139531 0)
(9.91571 -0.00139332 0)
(9.91571 -0.00139575 0)
(9.91571 -0.00139311 0)
(9.91571 -0.00139559 0)
(9.91571 -0.00139358 0)
(9.91571 -0.00139482 0)
(9.91571 -0.00139385 0)
(9.91571 -0.00139668 0)
(9.91571 -0.00138799 0)
(9.91571 -0.00140316 0)
(9.91571 -0.00137819 0)
(9.91572 -0.00140625 0)
(9.91571 -0.00138564 0)
(9.91573 -0.00138846 0)
(9.91571 -0.00141283 0)
(9.91575 -0.00134109 0)
(9.9157 -0.00148719 0)
(9.91567 -0.00128236 0)
(9.91577 -0.00125013 0)
(9.91574 -0.00123172 0)
(9.91562 -0.000836809 0)
(9.91527 -0.00026636 0)
(9.91513 0.00246016 0)
(9.91429 0.00695322 0)
(9.91247 0.0217015 0)
(9.91478 0.0566885 0)
(9.94108 0.146002 0)
(9.39387 0.000960659 0)
(9.41838 0.00132081 0)
(9.45277 0.00114235 0)
(9.48796 0.00122614 0)
(9.51963 0.00123307 0)
(9.55138 0.00113164 0)
(9.58259 0.00102443 0)
(9.61201 0.000885279 0)
(9.63966 0.000731631 0)
(9.66563 0.000593813 0)
(9.69003 0.000477359 0)
(9.71326 0.000411402 0)
(9.73579 0.000360333 0)
(9.75761 0.000289579 0)
(9.77841 0.000213808 0)
(9.79807 0.00017868 0)
(9.817 0.000199916 0)
(9.83586 0.000304046 0)
(9.85518 0.000452958 0)
(9.87446 0.000491042 0)
(9.89164 0.000321111 0)
(9.90516 5.63333e-06 0)
(9.91438 -0.000285778 0)
(9.91968 -0.000384311 0)
(9.92205 -0.000416777 0)
(9.92268 -0.000521922 0)
(9.92243 -0.000822732 0)
(9.92113 -0.001244 0)
(9.91901 -0.00157717 0)
(9.91669 -0.00165121 0)
(9.91481 -0.00151149 0)
(9.91345 -0.00131114 0)
(9.91252 -0.00113499 0)
(9.91193 -0.00100417 0)
(9.91156 -0.00091512 0)
(9.91133 -0.000857912 0)
(9.91121 -0.000822784 0)
(9.91114 -0.000802063 0)
(9.9111 -0.000790298 0)
(9.91108 -0.000783855 0)
(9.91107 -0.000780452 0)
(9.91107 -0.000778715 0)
(9.91106 -0.00077786 0)
(9.91106 -0.000777451 0)
(9.91106 -0.000777258 0)
(9.91106 -0.000777151 0)
(9.91106 -0.000777088 0)
(9.91106 -0.000777067 0)
(9.91106 -0.000777065 0)
(9.91106 -0.000777066 0)
(9.91106 -0.000777069 0)
(9.91107 -0.000777069 0)
(9.91107 -0.000777069 0)
(9.91107 -0.000777069 0)
(9.91107 -0.000777067 0)
(9.91107 -0.000777065 0)
(9.91107 -0.000777062 0)
(9.91107 -0.000777064 0)
(9.91107 -0.000777063 0)
(9.91107 -0.000777065 0)
(9.91107 -0.00077707 0)
(9.91107 -0.00077707 0)
(9.91107 -0.000777076 0)
(9.91107 -0.000777069 0)
(9.91107 -0.000777076 0)
(9.91107 -0.000777053 0)
(9.91107 -0.000777093 0)
(9.91107 -0.000777011 0)
(9.91107 -0.000777166 0)
(9.91107 -0.000776887 0)
(9.91107 -0.000777367 0)
(9.91107 -0.000776596 0)
(9.91107 -0.000777728 0)
(9.91107 -0.000776156 0)
(9.91107 -0.000778072 0)
(9.91107 -0.000775949 0)
(9.91107 -0.000777928 0)
(9.91107 -0.000776238 0)
(9.91107 -0.000777358 0)
(9.91107 -0.000776284 0)
(9.91107 -0.000778564 0)
(9.91108 -0.000771687 0)
(9.91107 -0.000783127 0)
(9.91108 -0.000763586 0)
(9.91108 -0.000785209 0)
(9.91108 -0.000765286 0)
(9.91109 -0.000771222 0)
(9.91108 -0.000776832 0)
(9.91111 -0.00072558 0)
(9.91108 -0.000828618 0)
(9.91107 -0.000628992 0)
(9.91115 -0.000587659 0)
(9.9112 -0.00051672 0)
(9.91121 -0.000162272 0)
(9.91107 0.00073219 0)
(9.91119 0.00332476 0)
(9.91142 0.00812121 0)
(9.91243 0.0223333 0)
(9.92113 0.0558897 0)
(9.95819 0.13066 0)
(9.39391 -0.00274711 0)
(9.41859 -0.00496139 0)
(9.45307 -0.00513812 0)
(9.48828 -0.00527608 0)
(9.51995 -0.00538758 0)
(9.55171 -0.00528085 0)
(9.58293 -0.00503844 0)
(9.61236 -0.00485327 0)
(9.63997 -0.00469287 0)
(9.66597 -0.00450073 0)
(9.69037 -0.00433004 0)
(9.71361 -0.00420849 0)
(9.73613 -0.004115 0)
(9.75795 -0.00401914 0)
(9.77876 -0.00388566 0)
(9.79842 -0.00372373 0)
(9.81734 -0.00361401 0)
(9.8362 -0.00354551 0)
(9.85553 -0.00343577 0)
(9.87487 -0.00319535 0)
(9.89207 -0.00279303 0)
(9.90554 -0.00231041 0)
(9.91463 -0.00189146 0)
(9.91979 -0.00162407 0)
(9.92209 -0.00145437 0)
(9.92272 -0.00128361 0)
(9.92245 -0.00093952 0)
(9.92113 -0.00049222 0)
(9.91907 -0.000144234 0)
(9.91683 -7.44713e-05 0)
(9.91497 -0.000211579 0)
(9.91359 -0.000392123 0)
(9.91265 -0.000543936 0)
(9.91203 -0.000653685 0)
(9.91164 -0.000726677 0)
(9.91141 -0.000772497 0)
(9.91127 -0.000799966 0)
(9.9112 -0.000815772 0)
(9.91116 -0.000824524 0)
(9.91114 -0.000829193 0)
(9.91113 -0.000831599 0)
(9.91113 -0.000832796 0)
(9.91113 -0.000833372 0)
(9.91112 -0.000833648 0)
(9.91112 -0.000833778 0)
(9.91112 -0.00083385 0)
(9.91112 -0.000833898 0)
(9.91113 -0.000833913 0)
(9.91113 -0.000833911 0)
(9.91113 -0.000833906 0)
(9.91113 -0.000833905 0)
(9.91113 -0.000833905 0)
(9.91113 -0.000833905 0)
(9.91113 -0.000833904 0)
(9.91113 -0.000833902 0)
(9.91113 -0.000833899 0)
(9.91113 -0.000833898 0)
(9.91113 -0.000833901 0)
(9.91113 -0.000833899 0)
(9.91113 -0.000833901 0)
(9.91113 -0.000833907 0)
(9.91113 -0.000833907 0)
(9.91113 -0.000833909 0)
(9.91113 -0.000833903 0)
(9.91113 -0.000833907 0)
(9.91113 -0.000833894 0)
(9.91113 -0.000833918 0)
(9.91113 -0.000833871 0)
(9.91113 -0.000833958 0)
(9.91113 -0.000833802 0)
(9.91113 -0.000834075 0)
(9.91113 -0.000833631 0)
(9.91113 -0.000834265 0)
(9.91113 -0.000833394 0)
(9.91113 -0.000834427 0)
(9.91113 -0.000833318 0)
(9.91113 -0.000834323 0)
(9.91113 -0.000833502 0)
(9.91113 -0.000833949 0)
(9.91113 -0.000833505 0)
(9.91113 -0.000834816 0)
(9.91114 -0.000830462 0)
(9.91114 -0.000837228 0)
(9.91114 -0.000825736 0)
(9.91114 -0.000837795 0)
(9.91114 -0.000828494 0)
(9.91115 -0.000827511 0)
(9.91114 -0.000837322 0)
(9.91116 -0.000802655 0)
(9.91114 -0.000865417 0)
(9.91113 -0.000748338 0)
(9.91122 -0.000677929 0)
(9.91126 -0.000615213 0)
(9.91126 -0.000275853 0)
(9.91136 0.000583943 0)
(9.912 0.00304175 0)
(9.91342 0.0079735 0)
(9.9172 0.0213945 0)
(9.9312 0.0521973 0)
(9.97561 0.113737 0)
(9.39419 -0.00640545 0)
(9.41973 -0.0109634 0)
(9.45455 -0.0111144 0)
(9.48975 -0.0114747 0)
(9.52148 -0.0116865 0)
(9.55329 -0.0113783 0)
(9.58452 -0.0108116 0)
(9.61402 -0.0103276 0)
(9.64167 -0.00985874 0)
(9.66752 -0.00934898 0)
(9.6919 -0.00891581 0)
(9.71525 -0.00861814 0)
(9.73787 -0.00837522 0)
(9.75963 -0.00810857 0)
(9.78029 -0.00777472 0)
(9.79988 -0.00743619 0)
(9.81891 -0.00726108 0)
(9.83798 -0.00724078 0)
(9.85752 -0.00714987 0)
(9.87661 -0.00667829 0)
(9.89343 -0.00571934 0)
(9.90667 -0.0044667 0)
(9.91588 -0.00321187 0)
(9.92142 -0.0021704 0)
(9.92412 -0.00148069 0)
(9.92493 -0.00114215 0)
(9.92484 -0.00105465 0)
(9.92387 -0.00114267 0)
(9.92213 -0.00130957 0)
(9.92025 -0.00139516 0)
(9.91874 -0.00140028 0)
(9.91768 -0.00137846 0)
(9.91698 -0.00135876 0)
(9.91652 -0.0013473 0)
(9.91624 -0.00134208 0)
(9.91608 -0.00134013 0)
(9.91598 -0.00133951 0)
(9.91593 -0.00133932 0)
(9.9159 -0.00133924 0)
(9.91589 -0.00133919 0)
(9.91588 -0.00133916 0)
(9.91588 -0.00133914 0)
(9.91588 -0.00133913 0)
(9.91588 -0.00133912 0)
(9.91588 -0.00133911 0)
(9.91588 -0.00133909 0)
(9.91588 -0.00133908 0)
(9.91588 -0.00133909 0)
(9.91588 -0.00133909 0)
(9.91588 -0.00133909 0)
(9.91588 -0.00133909 0)
(9.91588 -0.00133909 0)
(9.91588 -0.00133909 0)
(9.91588 -0.00133909 0)
(9.91588 -0.00133909 0)
(9.91588 -0.00133908 0)
(9.91588 -0.00133908 0)
(9.91588 -0.00133909 0)
(9.91588 -0.00133908 0)
(9.91588 -0.00133908 0)
(9.91588 -0.00133909 0)
(9.91588 -0.00133909 0)
(9.91588 -0.00133909 0)
(9.91588 -0.00133909 0)
(9.91588 -0.00133909 0)
(9.91588 -0.00133908 0)
(9.91588 -0.0013391 0)
(9.91588 -0.00133907 0)
(9.91588 -0.00133912 0)
(9.91588 -0.00133902 0)
(9.91588 -0.00133921 0)
(9.91588 -0.0013389 0)
(9.91589 -0.00133933 0)
(9.91589 -0.00133874 0)
(9.91589 -0.00133944 0)
(9.91589 -0.00133869 0)
(9.91589 -0.00133936 0)
(9.91589 -0.00133877 0)
(9.91589 -0.0013391 0)
(9.91589 -0.00133874 0)
(9.91589 -0.00133966 0)
(9.91589 -0.00133641 0)
(9.91589 -0.00134125 0)
(9.91589 -0.00133287 0)
(9.91589 -0.0013413 0)
(9.91589 -0.00133431 0)
(9.9159 -0.00133315 0)
(9.9159 -0.00133922 0)
(9.91591 -0.0013116 0)
(9.91591 -0.00135637 0)
(9.91591 -0.00125346 0)
(9.91599 -0.00118752 0)
(9.9161 -0.00111794 0)
(9.91625 -0.000765703 0)
(9.91652 -8.46225e-05 0)
(9.91744 0.00218144 0)
(9.91981 0.00699386 0)
(9.92586 0.0193258 0)
(9.94383 0.0466726 0)
(9.99267 0.0969704 0)
(9.39466 -0.00996071 0)
(9.42161 -0.0164545 0)
(9.45697 -0.0165697 0)
(9.49205 -0.0171301 0)
(9.52395 -0.0173836 0)
(9.55586 -0.0168714 0)
(9.58708 -0.0160124 0)
(9.61665 -0.0152677 0)
(9.64433 -0.0145021 0)
(9.67005 -0.0137058 0)
(9.69439 -0.0130666 0)
(9.71789 -0.0126243 0)
(9.74059 -0.0122255 0)
(9.76223 -0.0117757 0)
(9.78268 -0.0112557 0)
(9.80217 -0.0107816 0)
(9.82131 -0.0105779 0)
(9.84061 -0.010614 0)
(9.86027 -0.0105141 0)
(9.87898 -0.00978863 0)
(9.89527 -0.00830195 0)
(9.90806 -0.00636407 0)
(9.91703 -0.00443463 0)
(9.92259 -0.00281807 0)
(9.92555 -0.00165248 0)
(9.92678 -0.000886868 0)
(9.92705 -0.000239969 0)
(9.92666 0.000431686 0)
(9.92591 0.00089118 0)
(9.92503 0.000905579 0)
(9.92424 0.000637993 0)
(9.92368 0.000353245 0)
(9.92333 0.000128569 0)
(9.92311 -3.20281e-05 0)
(9.92298 -0.000139455 0)
(9.92291 -0.00020745 0)
(9.92287 -0.000248506 0)
(9.92285 -0.00027227 0)
(9.92284 -0.000285496 0)
(9.92283 -0.000292589 0)