/*--------------------------------*- C++ -*----------------------------------*\
| =========                 |                                                 |
| \\      /  F ield         | OpenFOAM: The Open Source CFD Toolbox           |
|  \\    /   O peration     | Version:  v2012                                 |
|   \\  /    A nd           | Website:  www.openfoam.com                      |
|    \\/     M anipulation  |                                                 |
\*---------------------------------------------------------------------------*/
FoamFile
{
    version     2.0;
    format      ascii;
    class       volScalarField;
    location    "0.134";
    object      omega.air;
}
// * * * * * * * * * * * * * * * * * * * * * * * * * * * * * * * * * * * * * //

dimensions      [0 0 -1 0 0 0 0];


internalField   nonuniform List<scalar> 
5600
(
6586.26
7485.53
7886.76
7965.21
7866.36
7687.51
7480.9
7290.13
7125.23
6987.9
6878.77
6796.45
6736.1
6693.57
6663.49
6642.46
6626.94
6614.92
6605.3
6596.44
6589.74
6582.41
6578.19
6572.68
6570.99
6567
6567.03
6563.76
6565.03
6561.55
6563.42
6559.13
6561.03
6556.25
6557.6
6553.64
6553
6551.71
6547.78
6550.11
6542.86
6547.99
6539.95
6543.99
6540.34
6537.95
6543.25
6531.79
6545.51
6528.67
6544.15
6530.59
6538.33
6536.7
6530.61
6543.17
6525.64
6545.48
6527.35
6540.82
6536.82
6530.11
6550.33
6519.77
6559.7
6518.85
6557.37
6531.88
6542.84
6553.31
6525.48
6569.41
6519.33
6567.85
6529.81
6550.15
6548.69
6531.54
6558.91
6528.05
6551.04
6541.28
6531.84
6558.96
6517.21
6565.07
6518.8
6554.02
6534.83
6535.15
6548.88
6528.69
6542.31
6545.78
6512.81
6586.68
6438.14
6733.91
6068.83
7363.69
2450.53
2296.57
2571.64
2795.1
2928.18
2998.04
3010.3
2968.14
2969.05
3017.13
3073.6
3118.82
3147.33
3158.31
3155.05
3140.41
3118.32
3091.18
3062.25
3032.43
3003.38
2973.83
2945.2
2916.3
2889.46
2863.07
2839.8
2817.28
2797.7
2778.5
2762.05
2745.9
2732.1
2718.75
2707.02
2696.24
2685.94
2677.37
2668.49
2661.31
2653.98
2647.83
2641.9
2636.15
2631.51
2625.92
2622.13
2616.79
2614.01
2608.73
2606.51
2602.31
2599.45
2596.73
2593.18
2591.84
2587.81
2587.68
2583.86
2583.31
2580.94
2579.39
2578.5
2575.24
2576.94
2571.65
2574.62
2570.25
2571.79
2570.26
2569.16
2571.38
2566.69
2571.47
2566.73
2569.32
2567.48
2566.82
2567.96
2565.09
2567.16
2565.42
2564.78
2566.77
2562.3
2568.39
2561.38
2567.68
2562.7
2566.32
2563.03
2568.02
2558.7
2577.28
2543.61
2602.41
2498.03
2685.99
2334.23
2968.82
2358.55
1859.91
1592.17
1427.76
1346.16
1273.7
1280.05
1309.04
1352.04
1412.32
1482.4
1549.37
1611.27
1663.81
1704.95
1733.38
1749.09
1752.51
1744.19
1726.64
1702.17
1677
1653.4
1635.03
1619.38
1605.68
1593.4
1581.58
1571.48
1560.81
1551.33
1540.84
1531.43
1521.61
1512.8
1504.38
1496.06
1488.97
1481.44
1475.58
1468.66
1463.85
1457.71
1453.11
1448.25
1443.27
1440.27
1434.39
1433.23
1426.87
1426.37
1421.12
1419.5
1416.75
1413.02
1413.12
1407.56
1409.18
1403.94
1404.47
1401.95
1399.12
1401.15
1393.8
1399.92
1390.46
1396.55
1390.18
1391.47
1392.24
1386.18
1394
1383.75
1392.77
1385.21
1388.6
1388.54
1384.45
1389.79
1383.86
1387.31
1386.67
1382.57
1390.34
1379.3
1391.36
1379.9
1388.55
1383.8
1385.13
1384.92
1388.08
1378.05
1399
1364.74
1415.94
1341.09
1452.35
1287.95
1507.3
2345.17
1822.36
1493.25
1267.62
1111.21
992.532
906.96
846.803
802.809
776.55
760.602
769.315
791.782
823.986
861.001
902.249
941.205
978.836
1010.89
1040.1
1060.76
1079.95
1090.67
1102.08
1104.46
1108.48
1102.15
1098.52
1086.39
1078.97
1067.85
1061.07
1053.8
1048.01
1042.67
1037.09
1032.72
1027.7
1023.47
1019.44
1014.76
1011.03
1005.63
1001.85
996.64
992.337
988.778
983.222
981.639
975.487
974.515
969.323
967.487
964.505
960.761
960.414
954.966
955.744
950.691
950.157
947.938
943.855
946.271
938.11
943.727
934.674
939.014
933.777
932.687
934.871
926.783
935.042
924.596
932.185
926.231
927.28
929.29
923.791
929.57
924.408
926.183
927.899
921.667
931.13
919.615
930.822
921.748
926.961
926.017
923.947
926.73
926.743
921.721
932.886
917.254
935.968
915.033
939.456
912.458
929.919
2341.97
1815.96
1479.83
1247.91
1079.75
952.532
853.241
774.553
710.714
658.821
616.18
581.874
556.294
536.115
523.615
514.805
513.682
521.121
531.904
549.783
567.716
593.07
614.6
644.312
664.662
695.046
710.747
736.51
745.167
763.556
767.553
778.861
781.608
785.547
788.967
784.95
789.456
779.71
782.745
773.711
771.765
768.307
762.473
763.574
756.098
757.361
752.321
750.094
749.147
744.056
744.808
739.952
739.703
736.6
734.171
733.424
728.587
729.25
724.077
723.494
721.247
716.523
719.315
710.704
716.027
707.544
710.279
706.933
702.995
707.257
697.173
705.515
695.437
700.867
697.579
695.274
699.93
692.92
698.628
695.165
694.349
699.061
690.742
701.045
690.488
699.111
694.255
694.597
698.455
692.42
698.574
694.734
695.952
696.855
696.439
695.023
699.011
693.852
700.93
687.527
2341.13
1814.12
1476.76
1243.88
1074.18
945.317
844.343
763.122
696.609
641
594.216
553.988
519.72
489.817
464.208
441.85
422.667
406.907
393.514
383.541
375.006
370.812
366.666
369.617
372.099
382.663
389.755
407.425
417.875
439.882
453.208
474.152
492.45
505.781
530.425
532.708
560.86
556.042
578.812
577.147
585.384
594.559
586.948
606.196
589.314
609.103
594.47
604.08
600.324
595.706
602.501
589.46
598.386
587.656
591.153
587.716
584.061
587.509
579.607
584.065
579.409
577.464
580.612
572.135
578.773
571.037
573.138
572.737
566.215
573.681
561.614
570.953
561.544
564.542
564.952
558.504
566.58
557.769
563.208
562.187
558.137
566.181
555.908
566.708
557.761
563.187
562.886
558.522
566.484
557.522
565.891
559.252
564.899
559.847
565.472
559.531
565.467
560.949
564.952
558.56
2340.86
1813.44
1475.75
1242.6
1072.61
943.439
842.13
760.555
693.574
637.517
590.057
549.21
513.907
482.836
455.688
431.232
409.952
390.103
373.418
356.837
344.052
329.744
320.576
307.875
302.504
291.217
289.484
279.728
281.701
273.589
280.108
274.53
285.815
282.766
298.784
298.107
317.134
321.103
336.711
351.344
354.219
384.972
372.195
413.933
395.743
432.102
424.696
439.664
452.239
443.718
470.885
450.939
477.838
462.369
476.225
475.372
470.42
486.27
467.001
489.319
470.901
482.648
479.265
473.535
483.942
469.828
480.607
473.886
472.214
478.89
465.852
476.731
467.724
467.932
473.078
461.408
474.06
463.03
468.018
470.04
462.341
473.803
461.597
473.197
465.307
468.457
471.584
463.898
474.291
463.985
473.537
464.508
473.537
465.304
471.961
467.473
469.522
470.2
467.934
468.132
2340.75
1813.13
1475.32
1242.07
1071.99
942.738
841.335
759.688
692.604
636.464
588.889
547.926
512.504
481.239
453.964
429.174
407.755
387.342
370.469
352.922
339.918
324.006
314.64
299.285
293.593
277.949
275.924
259.673
260.679
244.798
246.578
234.449
232.429
229.336
218.338
228.26
207.02
227.538
203.268
223.645
211.353
217.542
227.2
215.075
243.824
221.401
257.59
237.711
269.302
260.231
282.182
283.876
296.398
307.686
308.878
330.813
320.192
349.02
336.941
356.95
357.786
359.484
378.983
361.677
386.518
373.167
383.549
389.428
377.53
400.61
378.01
398.058
389.879
386.427
401.623
380.423
402.099
386.585
392.703
397.161
385.692
401.604
385.314
400.524
390.422
394.217
398.264
389.574
400.263
390.114
400.593
388.902
401.369
390.382
398.418
393.76
394.105
399.061
389.698
398.753
2340.71
1812.97
1475.11
1241.82
1071.69
942.416
840.981
759.312
692.194
636.037
588.421
547.449
511.968
480.718
453.336
428.619
406.99
386.772
369.5
352.357
338.634
323.47
312.881
298.799
291.133
277.496
272.434
259.187
255.73
244.038
239.761
232.532
223.531
224.554
207.494
218.008
194.716
208.438
189.853
191.807
194.714
169.687
203.284
151.425
203.823
148.652
188.923
164.018
164.486
186.213
143.509
201.611
137.718
201.313
154.612
185.482
189.447
164.921
225.066
154.339
244.241
168
239.43
208.031
223.286
251.875
212.091
280.875
219.789
286.309
250.482
276.29
287.245
268.966
307.083
277.363
307.097
294.242
300.725
305.932
298.516
309.756
299.694
309.118
302.982
306.943
304.104
307.609
304.088
304.656
309.652
298.851
312.968
297.989
312.13
300.475
307.063
306.695
301.29
309.746
2340.68
1812.9
1475.01
1241.7
1071.56
942.271
840.822
759.147
692.013
635.856
588.215
547.259
511.729
480.529
453.046
428.455
406.618
386.673
368.991
352.382
337.91
323.704
311.836
299.34
289.66
278.403
270.507
260.349
253.587
244.927
238.158
232.006
223.743
221.165
210.571
211.23
199.794
200.429
192.701
187.699
188.992
174.454
185.732
164.517
178.953
160.86
167.011
162.827
152.095
166.584
139.195
167.073
133.771
159.232
139.831
140.591
155.762
118.372
168.828
109.088
165.477
120.981
145.231
144.712
123.253
164.27
114.398
167.215
126.319
155.167
149.406
145.388
164.109
152.811
165.341
168.067
166.18
175.587
172.241
176.378
177.199
174.957
181.634
170.921
181.828
174.509
172.886
179.618
170.29
177.33
170.439
177.026
170.749
174.278
170.982
176.139
170.247
171.078
177.372
166.127
2340.68
1812.91
1475.02
1241.72
1071.58
942.289
840.838
759.165
692.027
635.875
588.226
547.281
511.732
480.56
453.035
428.505
406.578
386.76
368.902
352.533
337.74
323.955
311.544
299.731
289.217
278.942
269.945
260.941
253.091
245.275
238.146
231.601
224.754
219.573
212.767
208.754
202.239
198.677
193.23
189.089
185.54
180.155
178.646
172.316
171.978
165.894
165.226
160.967
158.428
157.321
152.176
154.075
147.682
150.058
145.809
145.264
145.824
141.462
146.294
139.756
147.112
139.998
148.399
143.154
149.463
149.958
149.569
159.494
150.159
169.468
155.315
176.968
168.274
179.402
186.532
178.591
202.357
179.953
208.439
187.518
203.287
200.229
191.625
211.776
183.374
213.238
186.673
203.133
198.316
189.181
209.286
180.317
211.962
182.091
204.813
193.051
190.387
207.987
178.209
213.232
2340.71
1813
1475.15
1241.86
1071.74
942.467
841.028
759.365
692.235
636.094
588.45
547.519
511.973
480.819
453.29
428.789
406.846
387.075
369.18
352.89
338.024
324.37
311.833
300.221
289.52
279.517
270.298
261.593
253.587
245.956
238.951
232.258
226.067
220.255
214.68
209.816
204.589
200.894
195.72
193.468
188.22
187.306
182.573
182.052
179.353
177.639
178.658
175.026
179.911
175.872
182.13
181.097
185.255
190.423
190.369
202.136
199.032
213.778
212.45
223.87
230.38
233.168
249.817
243.859
266.321
257.596
277.375
274.22
284.781
291.499
291.915
306.122
299.899
316.623
307.45
322.666
314.985
323.022
323.917
318.862
332.026
315.619
334.95
317.665
331.423
324.797
323.217
333.976
315.524
338.46
315.884
333.857
323.935
323.956
334.363
314.477
339.893
315.39
333.306
326.164
2340.76
1813.17
1475.39
1242.15
1072.07
942.822
841.415
759.775
692.676
636.557
588.945
548.039
512.526
481.405
453.912
429.457
407.554
387.852
370.008
353.823
339.03
325.537
313.106
301.747
291.223
281.609
272.695
264.567
257.085
250.304
244.272
238.813
234.252
230.165
227.158
224.672
223.251
222.869
223.323
225.633
227.757
232.98
236.686
244.607
249.986
259.743
267.126
277.224
286.845
295.705
307.451
314.621
326.689
333.654
343.184
351.865
357.095
367.515
369.615
379.471
380.888
387.728
390.067
392.78
396.98
395.7
402.107
398.04
405.306
400.561
406.356
403.042
405.35
405.78
402.676
408.778
400.252
410.177
400.916
408.142
405.133
403.931
410.234
400.635
412.983
400.932
411.31
405.476
406.083
411.245
401.65
413.9
401.29
412.108
405.237
406.682
411.25
401.852
413.76
402.715
2340.87
1813.49
1475.85
1242.7
1072.73
943.557
842.25
760.681
693.693
637.656
590.181
549.374
514.046
483.071
455.849
431.632
410.131
390.849
373.642
358.168
344.358
332.005
321.098
311.744
303.652
297.156
291.924
288.44
286.296
286.47
288.56
292.788
298.889
306.898
316.683
327.673
340.299
352.841
367.067
379.806
394.412
406.323
419.835
430.786
441.753
451.814
459.241
468.09
472.334
478.974
481.826
485.392
488.372
489.608
492.533
492.658
494.399
494.736
494.597
495.396
493.519
494.453
491.665
492.119
489.891
488.959
488.755
485.73
487.467
482.96
485.434
480.964
482.644
480.284
479.49
481.061
476.948
482.05
476.366
481.659
478.115
479.801
481.009
477.705
483.307
476.948
483.492
478.401
481.417
481.224
478.73
483.416
477.425
483.649
478.312
481.776
480.944
479.189
483.116
478.623
2341.15
1814.19
1476.91
1243.99
1074.37
945.465
844.557
763.343
696.863
641.371
594.589
554.62
520.503
490.96
465.765
443.829
425.82
410.636
398.924
389.607
383.741
380.082
380.945
385.401
393.437
404.675
418.822
435.26
453.394
472.446
491.877
511.262
529.509
546.689
561.786
575.027
586.013
594.802
602.186
607.3
612.52
615.326
618.825
619.882
621.348
621.218
620.472
619.709
617.172
616.001
612.942
611.131
609.061
607.012
605.743
603.552
602.37
600.592
598.806
597.696
595.293
594.707
592.265
591.699
589.831
588.751
587.537
585.392
585.004
581.652
582.076
578.405
578.984
576.32
576.082
575.665
573.742
575.818
572.494
575.759
572.725
574.858
574.021
573.528
575.457
572.525
576.129
572.522
575.583
573.595
574.227
575.006
572.958
575.945
572.456
575.898
573.098
574.943
574.605
574.066
2342.03
1815.98
1480.11
1247.96
1080.28
952.708
854.158
775.206
712.346
660.619
619.073
586.933
562.597
545.508
534.583
530.077
534.449
545.065
561.027
581.08
604.565
630.612
657.653
684.791
711.045
734.718
754.967
771.339
784.171
794.185
801.823
807.334
810.739
812.261
811.847
809.934
806.637
802.636
798.255
794.079
790.73
787.363
784.542
781.424
778.571
775.689
772.879
770.266
767.651
765.323
762.847
760.473
757.952
755.149
752.644
749.773
747.301
744.565
741.962
739.654
736.85
735.004
732.248
730.684
728.122
726.545
724.454
722.409
721.151
718.586
718.232
715.503
715.667
713.466
713.472
712.547
711.636
712.366
710.425
712.288
710.042
711.789
710.496
710.894
711.261
710.015
711.851
709.571
711.893
709.83
711.306
710.604
710.409
711.485
709.621
712.104
709.384
712.136
710.191
711.858
2345.25
1822.39
1493.86
1268.16
1113.23
994.18
912.589
852.018
814.513
787.87
783.657
800.119
829.082
866.042
907.631
950.233
990.287
1026.99
1058.27
1083.61
1103.43
1118.45
1129.08
1135.73
1137.46
1134.74
1127.99
1118.69
1108.64
1099.46
1091.81
1085.13
1079.04
1073.27
1067.82
1062.63
1057.74
1053.01
1048.35
1043.57
1038.42
1033.38
1028.18
1023.31
1018.4
1013.95
1009.52
1005.45
1001.61
997.918
994.536
991.248
988.324
985.232
982.603
979.733
977.214
974.592
972.178
969.94
967.465
965.677
963.226
961.699
959.346
957.914
955.939
954.347
953.205
951.417
951.143
949.259
949.543
947.877
948.107
947.152
946.735
946.911
945.633
946.752
945.016
946.385
944.999
945.699
945.392
944.945
945.865
944.406
946.116
944.301
945.939
944.695
945.341
945.428
944.603
946.218
944.07
946.798
944.511
947.277
2358.73
1860.91
1594.77
1434.01
1353.99
1288.99
1305.25
1337.3
1392.12
1465.15
1539.73
1610.28
1672.38
1723.06
1760.08
1783.38
1792.54
1788.85
1773.31
1750.18
1724.15
1700.71
1682.17
1666.51
1652.51
1639.48
1627.39
1615.94
1604.93
1593.83
1582.74
1571.91
1561.58
1551.71
1542.47
1533.7
1525.56
1517.93
1510.78
1504.21
1497.87
1492.1
1486.4
1481.38
1476.34
1471.94
1467.47
1463.54
1459.71
1456.09
1452.89
1449.64
1446.92
1444
1441.66
1439.03
1436.87
1434.63
1432.61
1430.78
1428.76
1427.36
1425.26
1424.12
1422.13
1421.07
1419.53
1418.47
1417.8
1416.63
1416.75
1415.48
1416
1414.73
1415.07
1414.25
1414
1413.91
1412.91
1413.65
1412.19
1413.26
1411.91
1412.71
1412.12
1412.03
1412.48
1411.49
1412.77
1411.26
1412.81
1411.45
1412.44
1412.08
1411.81
1412.81
1411.33
1413.68
1411.67
1415
2454.74
2305.68
2580.44
2808.67
2934.22
3010.01
2994.58
2967.46
3014.83
3085.65
3150.03
3196.61
3222.41
3229.88
3222.22
3203.95
3178.36
3148.8
3117.79
3086.34
3054.82
3023.05
2991.97
2961.67
2933.61
2907.2
2882.91
2860.48
2839.91
2820.98
2803.66
2787.81
2773.4
2760.21
2748.22
2737.2
2727.15
2717.95
2709.46
2701.8
2694.54
2688.15
2681.92
2676.36
2670.85
2665.88
2660.93
2656.46
2652.18
2648.05
2644.5
2640.79
2637.69
2634.56
2631.75
2629.05
2626.52
2624.32
2622.04
2620.17
2618.19
2616.61
2614.68
2613.3
2611.66
2610.38
2609.24
2608.35
2607.71
2607.09
2606.89
2606.34
2606.26
2605.73
2605.45
2604.97
2604.49
2604.03
2603.56
2603.49
2602.8
2603
2602.3
2602.64
2602.09
2602.3
2602.11
2601.97
2602.31
2601.76
2602.47
2601.74
2602.47
2601.96
2602.33
2602.33
2602.31
2603.14
2602.6
2605.48
6588.08
7481.92
7876.77
7936
7826.39
7629.93
7415.08
7222.09
7053.55
6914.35
6805.38
6723.41
6664.04
6621.62
6591.85
6570.23
6554.28
6541.58
6531.21
6522.47
6514.92
6508.91
6504.01
6500.33
6497.42
6495.11
6493.3
6491.85
6490.47
6489.03
6487.35
6485.47
6483.42
6481.2
6478.96
6476.57
6474.29
6471.9
6469.68
6467.51
6465.37
6463.64
6461.52
6460.37
6458.28
6457.68
6455.64
6455.34
6453.59
6453.17
6452.19
6451.15
6451.28
6449.5
6450.63
6448.67
6450.06
6448.94
6449.54
6450.02
6449.25
6451.36
6449.45
6452.73
6450.7
6453.97
6453.37
6454.81
6456.95
6455.21
6460
6455.51
6461.04
6456.18
6459.69
6457.37
6456.83
6458.73
6454.01
6459.3
6452.71
6458.5
6453.3
6456.44
6455.16
6454.02
6457.24
6452.21
6458.47
6451.88
6458.05
6453.38
6455.94
6456.16
6453.11
6458.73
6450.99
6459.02
6450.35
6454.06
5386.52
3379.29
2434.05
1962.22
1670.04
1483.3
1349.72
1251.69
1173.1
1101.87
1046.13
992.263
939.535
898.119
853.534
800.508
762.092
749.976
746.69
623.902
478.148
304.531
212.973
278.474
182.607
324.989
460.126
506.606
504.724
482.417
454.458
428.425
406.964
388.685
370.013
347.453
319.827
288.159
255.932
226.283
200.192
177.403
157.636
140.968
127.48
116.998
109.146
103.364
99.091
95.912
93.5567
91.8616
90.7185
90.0354
89.6987
89.5612
89.4615
89.2888
89.0148
88.6796
88.3391
88.0452
87.826
87.6852
87.602
87.5577
87.5336
87.5226
87.5157
87.5136
87.5111
87.5112
87.5097
87.5106
87.5093
87.5104
87.5091
87.5104
87.509
87.5104
87.5089
87.5105
87.5088
87.5105
87.5088
87.5106
87.5087
87.5106
87.5087
87.5106
87.5086
87.5106
87.5084
87.5103
87.5079
87.5096
87.5068
87.5081
87.5055
87.5097
1758.19
2569.55
2377.03
2012.44
1718.9
1515.92
1364.96
1254.06
1168.29
1088.81
1030.87
975.448
921.449
882.324
836.229
779.252
748.159
740.448
710.141
525.401
285.56
239.075
185.589
296.925
235.673
219.962
391.08
473.934
489.084
474.132
448.957
423.691
402.414
384.137
365.054
341.335
311.658
277.575
243.632
212.953
186.632
164.355
145.748
130.798
119.358
110.985
104.995
100.658
97.4165
94.9222
92.9873
91.5265
90.4949
89.8478
89.5072
89.3584
89.2631
89.1158
88.8784
88.5848
88.2842
88.0169
87.8058
87.6648
87.5788
87.5324
87.5057
87.4935
87.485
87.4828
87.4792
87.4798
87.4774
87.479
87.4767
87.4788
87.4765
87.4789
87.4763
87.479
87.4761
87.4791
87.476
87.4792
87.4758
87.4794
87.4757
87.4795
87.4755
87.4797
87.4753
87.4798
87.4751
87.4799
87.4748
87.4798
87.4744
87.4798
87.4752
87.4858
1225.47
1400.51
1769.13
1816.97
1667.87
1505.64
1358.05
1242.14
1152.84
1065.92
1006.04
949.708
896.473
860.668
812.238
753.276
733.723
725.736
591.998
328.209
159.354
230.311
256.147
323.619
366.6
211.162
312.467
426.647
465.318
461.627
440.931
417.07
396.275
378.268
358.858
333.634
301.076
264.002
227.693
196.027
170.239
149.604
133.418
121.208
112.41
106.251
101.909
98.7237
96.2542
94.2535
92.6131
91.3092
90.3434
89.7055
89.345
89.1739
89.0761
88.9541
88.759
88.5097
88.2459
88.0039
87.8036
87.6637
87.5737
87.5235
87.4926
87.4782
87.4672
87.4644
87.4594
87.4604
87.4569
87.4593
87.456
87.4591
87.4556
87.4592
87.4553
87.4594
87.4551
87.4596
87.4548
87.4599
87.4546
87.4602
87.4543
87.4605
87.454
87.4608
87.4537
87.4611
87.4535
87.4616
87.4533
87.4623
87.4539
87.4644
87.4576
87.476
930.303
884.443
1009.45
1232.57
1353.69
1359.51
1276.05
1182.6
1100.67
1012.54
951.646
894.775
849.87
818.837
767.88
715.533
713.188
634.001
326.372
162.995
174.486
273.139
351.461
369.267
462.36
337.251
267.386
369.124
431.073
442.713
428.936
407.522
387.729
370.263
350.235
322.497
285.96
245.238
207.102
176.042
152.563
135.188
122.554
113.597
107.364
103.012
99.8692
97.4686
95.5111
93.837
92.3913
91.1867
90.2528
89.6039
89.2117
89.0109
88.905
88.8063
88.6561
88.4528
88.2218
88.0024
87.8168
87.6829
87.5907
87.5362
87.5
87.4822
87.468
87.4641
87.4574
87.4584
87.4538
87.4568
87.4525
87.4566
87.4519
87.4567
87.4515
87.457
87.4511
87.4573
87.4508
87.4577
87.4504
87.4581
87.45
87.4585
87.4496
87.459
87.4492
87.4596
87.4489
87.4604
87.4491
87.4621
87.4507
87.4665
87.4576
87.4845
706.542
686.973
698.81
732.299
842.634
956.252
1005.18
998.939
942.793
876.708
815.538
748.047
735.158
703.956
658.163
643.808
594.243
298.761
130.138
178.392
246.769
339.998
441.832
447.321
509.842
484.012
305.428
319.786
386.976
414.846
410.839
393.326
375.401
358.648
336.891
304.639
263.118
220.091
183.407
156.085
136.975
123.87
114.889
108.673
104.284
101.089
98.664
96.7223
95.0707
93.6015
92.2828
91.1407
90.2181
89.5449
89.1115
88.8725
88.7491
88.6635
88.551
88.3919
88.1977
88.009
87.845
87.7215
87.6295
87.571
87.5291
87.5072
87.4892
87.4835
87.4747
87.4755
87.4697
87.4732
87.4679
87.4727
87.467
87.4728
87.4665
87.4731
87.4661
87.4735
87.4656
87.4739
87.4652
87.4744
87.4647
87.475
87.4642
87.4756
87.4637
87.4764
87.4635
87.4776
87.4639
87.48
87.4665
87.4866
87.4763
87.5103
566.301
558.508
568.136
547.809
578.412
585.417
621.987
674.39
618.478
598.179
544.011
448.82
447.078
409.32
411.048
400.068
154.11
81.8924
163.85
240.293
328.824
425.927
521.325
535.633
546.155
569.489
437.838
311.756
339.263
377.079
383.68
371.632
356.893
340.381
314.045
275.323
231.746
192.698
162.698
141.5
127.116
117.482
110.913
106.253
102.802
100.154
98.0563
96.3317
94.8419
93.4967
92.2636
91.1646
90.2437
89.5393
89.0564
88.7676
88.6106
88.5194
88.431
88.3155
88.168
88.0187
87.881
87.7705
87.6812
87.6206
87.5745
87.549
87.5275
87.5198
87.5092
87.5093
87.5026
87.5061
87.5001
87.5053
87.4991
87.5053
87.4985
87.5056
87.498
87.5061
87.4975
87.5066
87.497
87.5071
87.4965
87.5077
87.496
87.5083
87.4955
87.5092
87.4953
87.5106
87.4959
87.5135
87.4992
87.5213
87.5109
87.5486
469.884
467.996
476.966
457.544
470.627
448.996
444.819
443.083
398.931
359.574
331.19
272.529
202.58
261.972
130.787
57.1809
102.653
214.573
264.052
325.423
423.551
521.541
595.667
608.232
592.824
603.181
549.358
405.442
323.542
330.438
341.343
337.239
327.175
307.71
274.851
237.444
205.057
178.608
156.444
138.712
125.733
116.727
110.484
105.998
102.623
100
97.9162
96.2186
94.7773
93.4941
92.3175
91.2509
90.3284
89.5899
89.0507
88.6993
88.4909
88.374
88.2932
88.2145
88.1151
88.0062
87.895
87.7993
87.7168
87.6585
87.6124
87.586
87.5635
87.5549
87.5434
87.543
87.5358
87.5391
87.533
87.5382
87.5318
87.5381
87.5312
87.5384
87.5307
87.5389
87.5302
87.5394
87.5297
87.5399
87.5292
87.5404
87.5287
87.5411
87.5282
87.542
87.5281
87.5433
87.5288
87.5463
87.5322
87.5542
87.5442
87.5821
391.277
396.43
396.909
385.495
391.342
366.812
366.184
339.146
304.967
286.614
236.529
202.417
203.753
172.579
139.115
166.79
252.974
285.897
318.909
403.286
520.846
612.822
662.111
665.312
641.357
631.939
602.146
512.151
402.406
335.624
309.205
296.952
282.383
261.401
244.336
234.787
223.441
203.589
178.321
154.561
136.114
123.189
114.447
108.427
104.107
100.894
98.4472
96.5397
94.9964
93.6834
92.5129
91.4524
90.5131
89.7293
89.1231
88.6968
88.4219
88.2611
88.1668
88.1035
88.0363
87.9602
87.8743
87.7973
87.7281
87.6791
87.6388
87.6163
87.5959
87.5888
87.578
87.5784
87.5711
87.5749
87.5685
87.574
87.5674
87.5741
87.5667
87.5744
87.5662
87.5749
87.5656
87.5754
87.5651
87.576
87.5645
87.5766
87.564
87.5773
87.5635
87.5782
87.5633
87.5795
87.5639
87.5824
87.5671
87.5899
87.5787
87.6166
299.329
306.799
298.928
299.852
286.646
279.924
258.206
242.093
218.652
178.955
171.535
154.44
155.748
167.864
188.156
235.239
289.546
338.705
413.052
525.034
636.228
701.067
721.103
713.857
688.702
667.363
640.515
579.971
496.023
418.68
363.263
329.382
313.023
312.687
318.46
315.896
297.761
265.749
227.697
191.83
162.732
141.405
126.633
116.521
109.49
104.508
100.924
98.2897
96.2825
94.6726
93.3076
92.1059
91.0419
90.133
89.4024
88.8617
88.4915
88.2613
88.1252
88.0481
87.9884
87.9329
87.8702
87.8167
87.7671
87.7355
87.7071
87.6947
87.6793
87.6775
87.6677
87.6712
87.663
87.6694
87.661
87.6692
87.6599
87.6697
87.659
87.6704
87.6582
87.6712
87.6573
87.6721
87.6564
87.673
87.6554
87.6741
87.6544
87.6752
87.6535
87.6766
87.6528
87.6786
87.6531
87.6822
87.6565
87.6911
87.67
87.7203
180.074
161.17
178.634
163.456
166.232
160.15
146.786
159.225
135.42
171.125
192.025
209.986
264.208
281.41
310.087
374.505
419.284
456.76
537.373
650.76
742.06
774.365
767.259
751.12
729.223
706.675
680.502
633.418
568.921
504.238
454.64
428.165
419.506
416.143
407.483
388.809
359.234
321.061
279.615
239.877
205.146
176.845
154.934
138.437
126.236
117.343
110.914
106.203
102.608
99.7032
97.2359
95.0976
93.2679
91.7554
90.558
89.672
89.0561
88.66
88.4158
88.28
88.1979
88.1542
88.117
88.1019
88.0829
88.0846
88.0739
88.0833
88.0733
88.086
88.0733
88.0885
88.0725
88.0906
88.071
88.0928
88.0689
88.0952
88.0665
88.0977
88.0639
88.1005
88.0611
88.1035
88.0579
88.107
88.0543
88.1107
88.0508
88.1148
88.0472
88.1197
88.0441
88.1265
88.0432
88.1379
88.0503
88.1622
88.0847
88.2283
182.422
205.616
195.546
196.051
217.774
199.716
243.251
239.431
275.242
318.954
327.374
372.876
390.903
392.284
436.797
474.018
488.972
547.274
663.144
782.673
837.877
817.996
783.392
763.177
750.501
738.164
719.268
681.783
628.813
576.795
538.882
516.751
502.427
486.916
465.681
437.533
402.507
363.199
323.353
286.053
252.86
224.173
200.057
180.279
164.338
151.704
141.693
133.569
126.651
120.357
114.361
108.701
103.671
99.5157
96.2716
93.9039
92.2693
91.2165
90.5647
90.2247
90.0678
90.0732
90.1196
90.242
90.3202
90.4418
90.4803
90.5699
90.5638
90.6341
90.5969
90.6639
90.6052
90.6798
90.602
90.692
90.5932
90.704
90.5818
90.7168
90.5688
90.7307
90.5542
90.7465
90.5375
90.7646
90.519
90.7846
90.4997
90.8068
90.4804
90.8331
90.4643
90.8693
90.459
90.9317
90.4938
91.0618
90.6655
91.3853
323.628
335.366
320.697
343.06
334.502
351.121
364.546
370.12
404.535
414.141
432.125
460.326
458.961
481.701
523.105
534.769
570.957
686.544
827.788
912.259
887.048
809.964
759.214
742.71
744.095
749.053
745.211
721.025
678.951
636.72
604.403
579.174
556.184
531.721
502.947
469.838
432.779
394.793
358.972
326.356
296.817
270.24
246.92
227.341
211.227
198.007
186.985
177.428
168.888
160.916
152.895
144.394
135.545
127.028
119.559
113.598
109.172
106.185
104.323
103.49
103.31
103.731
104.252
105.005
105.501
106.111
106.341
106.743
106.747
107.035
106.901
107.161
106.942
107.224
106.933
107.271
106.899
107.32
106.852
107.373
106.798
107.431
106.736
107.499
106.663
107.579
106.579
107.671
106.489
107.775
106.398
107.891
106.333
108.036
106.323
108.293
106.484
108.841
107.223
110.195
411.252
408.419
409.519
417.578
415.299
429.707
434.494
448.658
470.492
481.15
508.483
524.125
530.358
568.622
593.703
610.06
706.91
866.863
987.036
979.817
866.422
760.72
714.611
708.787
721.205
738.908
749.08
739.918
711.48
677.875
646.75
614.405
580.372
547.866
514.913
480.531
445.696
412.819
383.225
356.409
331.683
308.877
288.29
270.287
254.79
241.421
229.775
219.465
210.559
203.304
197.397
192.038
186.413
180.371
174.229
168.664
164.132
161.068
159.41
159.293
160.123
161.803
163.4
165.224
166.382
167.665
168.137
168.927
168.929
169.476
169.221
169.701
169.301
169.806
169.293
169.882
169.238
169.964
169.158
170.053
169.067
170.153
168.958
170.275
168.822
170.43
168.654
170.622
168.455
170.853
168.252
171.108
168.107
171.406
168.103
171.923
168.444
173.094
169.926
176.013
483.698
481.141
485.226
488.418
492.187
502.999
509.768
529.314
546.709
567.035
596.361
605.775
629.501
668.12
682.325
747.223
909.958
1067.56
1094.91
963.978
801.762
710.681
683.296
684.851
698.977
718.499
733.585
734.228
716.971
688.61
654.683
615.49
574.98
539.07
507.029
475.715
446.293
419.896
396.223
374.921
355.7
338.441
323.193
309.714
297.621
286.473
275.918
266.1
257.599
251.343
247.87
247
247.728
249.01
250.197
251.205
252.132
253.302
254.827
256.863
259.099
261.4
263.293
265
266.114
267.136
267.564
268.124
268.159
268.514
268.366
268.661
268.425
268.719
268.431
268.752
268.412
268.787
268.377
268.829
268.333
268.879
268.277
268.948
268.191
269.061
268.053
269.238
267.856
269.49
267.61
269.834
267.349
270.309
267.198
271.053
267.46
272.565
269.055
276.169
576.747
575.027
580.603
581.314
590.069
598.243
610.651
632.628
652.922
686.749
713.461
730.258
767.412
793.521
829.726
968.094
1155.12
1231.81
1104.68
889.376
745.686
688.778
676.469
678.841
687.447
700.231
711.137
712.628
699.505
673.222
638.02
598.804
561.509
529.947
503.448
478.168
454.752
433.635
414.649
398.034
383.78
371.829
361.931
353.565
346.402
340.26
334.985
330.399
326.333
322.932
321.032
321.729
325.145
330.143
335.427
340.216
344.239
347.575
350.484
353.11
355.488
357.425
358.986
360.117
360.962
361.514
361.875
362.103
362.221
362.317
362.34
362.387
362.376
362.406
362.391
362.405
362.403
362.398
362.411
362.396
362.412
362.397
362.408
362.411
362.383
362.46
362.311
362.575
362.172
362.787
361.946
363.157
361.617
363.782
361.287
364.795
361.331
366.669
362.841
370.792
712.679
713.031
718.242
720.387
732.523
741.63
762.876
788.222
821.705
866.38
893.116
923.958
952.961
975.222
1070.66
1262.14
1394.57
1295.28
1034.88
826.842
729.466
702.681
699.602
698.336
697.157
698.294
699.43
695.095
680.554
655.577
624.228
592.977
566.996
546.873
529.592
512.047
494.633
478.126
463.171
450.592
440.749
433.761
429.272
426.637
425.421
425.283
425.952
427.214
428.952
431.174
433.949
437.102
440.42
443.792
447.079
450.119
452.884
455.433
457.933
460.39
462.718
464.7
466.35
467.6
468.542
469.171
469.581
469.844
469.98
470.093
470.118
470.176
470.159
470.201
470.172
470.207
470.178
470.209
470.179
470.214
470.172
470.226
470.156
470.253
470.117
470.317
470.032
470.451
469.876
470.695
469.622
471.125
469.253
471.885
468.845
473.258
468.781
475.954
470.59
481.765
947.244
949.715
954.746
960.665
976.065
990.938
1022.33
1056.3
1108.37
1157.23
1186.76
1215.3
1214.8
1265.09
1429.28
1601.87
1555.44
1268.62
983.97
823.817
770.23
766.978
769.681
762.97
750.184
736.973
724.71
711.024
692.985
670.706
648.887
634.019
627.473
625.541
621.169
612.822
601.458
589.37
578.214
569.739
564.869
563.818
565.862
570.05
575.611
581.817
588.177
594.44
600.46
606.072
611.162
615.654
619.518
622.757
625.467
627.804
629.977
632.114
634.287
636.397
638.316
639.912
641.196
642.178
642.892
643.372
643.658
643.851
643.931
644.016
644.018
644.068
644.044
644.084
644.052
644.088
644.055
644.088
644.057
644.089
644.055
644.094
644.049
644.107
644.033
644.14
643.991
644.22
643.905
644.387
643.749
644.749
643.492
645.573
643.104
647.446
642.82
651.717