/*--------------------------------*- C++ -*----------------------------------*\
| =========                 |                                                 |
| \\      /  F ield         | OpenFOAM: The Open Source CFD Toolbox           |
|  \\    /   O peration     | Version:  v2012                                 |
|   \\  /    A nd           | Website:  www.openfoam.com                      |
|    \\/     M anipulation  |                                                 |
\*---------------------------------------------------------------------------*/
FoamFile
{
    version     2.0;
    format      ascii;
    class       volVectorField;
    location    "0.075";
    object      U.air;
}
// * * * * * * * * * * * * * * * * * * * * * * * * * * * * * * * * * * * * * //

dimensions      [0 1 -1 0 0 0 0];


internalField   nonuniform List<vector> 
5600
(
(18.5968 0.0138606 0)
(18.1351 0.0316016 0)
(17.5522 0.0442202 0)
(16.8974 0.0496924 0)
(16.2195 0.047974 0)
(15.5634 0.0415078 0)
(14.9534 0.0328279 0)
(14.4129 0.0235332 0)
(13.9491 0.0153118 0)
(13.5497 0.00859123 0)
(13.219 0.00289707 0)
(12.9526 -0.00192822 0)
(12.7491 -0.00570868 0)
(12.5958 -0.00844651 0)
(12.4907 -0.0100951 0)
(12.4151 -0.0107951 0)
(12.3715 -0.0107576 0)
(12.3377 -0.0100853 0)
(12.3243 -0.00938295 0)
(12.3101 -0.00848905 0)
(12.3063 -0.00794197 0)
(12.2994 -0.00721547 0)
(12.2982 -0.00677764 0)
(12.2933 -0.00630739 0)
(12.2932 -0.00611258 0)
(12.2914 -0.00597919 0)
(12.2926 -0.00585895 0)
(12.2927 -0.00580713 0)
(12.2946 -0.00567908 0)
(12.2968 -0.0056769 0)
(12.2988 -0.00558033 0)
(12.3019 -0.00541912 0)
(12.3023 -0.00528578 0)
(12.3039 -0.00503344 0)
(12.3033 -0.00491289 0)
(12.3024 -0.00466972 0)
(12.3014 -0.00452451 0)
(12.2977 -0.00440167 0)
(12.2976 -0.00423093 0)
(12.2912 -0.00417376 0)
(12.2917 -0.00406432 0)
(12.2847 -0.00401088 0)
(12.2848 -0.00391684 0)
(12.2789 -0.00391558 0)
(12.2775 -0.00390738 0)
(12.2748 -0.00380356 0)
(12.2698 -0.00389119 0)
(12.2704 -0.00378414 0)
(12.2643 -0.00386723 0)
(12.2653 -0.00377608 0)
(12.2607 -0.00388544 0)
(12.2605 -0.00386465 0)
(12.2597 -0.00378711 0)
(12.2551 -0.0038635 0)
(12.2582 -0.00372758 0)
(12.2511 -0.00391708 0)
(12.2561 -0.00368392 0)
(12.2493 -0.00393111 0)
(12.253 -0.00380348 0)
(12.2501 -0.00383953 0)
(12.2491 -0.00406938 0)
(12.2533 -0.00380053 0)
(12.2464 -0.00414809 0)
(12.2556 -0.00389806 0)
(12.247 -0.00410137 0)
(12.2556 -0.00403087 0)
(12.2502 -0.0040912 0)
(12.2548 -0.004261 0)
(12.2562 -0.00397348 0)
(12.2534 -0.00434391 0)
(12.2617 -0.00413845 0)
(12.2566 -0.00426771 0)
(12.2643 -0.00431335 0)
(12.2635 -0.00412087 0)
(12.264 -0.0044216 0)
(12.2718 -0.00409739 0)
(12.2651 -0.00429767 0)
(12.2767 -0.00417865 0)
(12.2691 -0.004096 0)
(12.2772 -0.00410434 0)
(12.2727 -0.00386573 0)
(12.2746 -0.00405448 0)
(12.2753 -0.00374455 0)
(12.2714 -0.0038625 0)
(12.274 -0.00385211 0)
(12.2709 -0.00362877 0)
(12.2691 -0.00396691 0)
(12.2716 -0.00363798 0)
(12.2657 -0.00378071 0)
(12.2673 -0.00404336 0)
(12.2701 -0.00347672 0)
(12.2574 -0.00421394 0)
(12.2753 -0.00383295 0)
(12.2564 -0.00353969 0)
(12.2654 -0.00475766 0)
(12.2761 -0.00302801 0)
(12.24 -0.00465494 0)
(12.2933 -0.00600283 0)
(12.2837 0.000617302 0)
(12.1261 -0.0183436 0)
(18.7901 0.0365929 0)
(18.8039 0.0482866 0)
(18.7962 0.0516431 0)
(18.7578 0.0559002 0)
(18.6851 0.0582904 0)
(18.5783 0.0586746 0)
(18.4415 0.0574965 0)
(18.2776 0.0549971 0)
(18.0938 0.0510503 0)
(17.8979 0.0467982 0)
(17.6956 0.0420925 0)
(17.49 0.0369093 0)
(17.2876 0.0317082 0)
(17.0878 0.0266062 0)
(16.902 0.0219781 0)
(16.7235 0.0178801 0)
(16.5658 0.0146161 0)
(16.4149 0.01184 0)
(16.2893 0.00967117 0)
(16.1668 0.00789772 0)
(16.0705 0.00657002 0)
(15.9744 0.0055518 0)
(15.9024 0.0047678 0)
(15.8305 0.0040985 0)
(15.7783 0.00358659 0)
(15.7253 0.0032125 0)
(15.6852 0.00292267 0)
(15.6454 0.00266613 0)
(15.6133 0.00245654 0)
(15.5837 0.00226867 0)
(15.5539 0.00219084 0)
(15.5291 0.00213443 0)
(15.5028 0.0020939 0)
(15.4805 0.0020882 0)
(15.4585 0.00199626 0)
(15.4378 0.00202314 0)
(15.421 0.00198179 0)
(15.4014 0.00190085 0)
(15.3882 0.00194189 0)
(15.3709 0.00180667 0)
(15.3597 0.00180615 0)
(15.3453 0.00164155 0)
(15.335 0.00165425 0)
(15.3243 0.00152228 0)
(15.3135 0.00144802 0)
(15.3062 0.00149931 0)
(15.2951 0.00133499 0)
(15.2895 0.00138607 0)
(15.2798 0.00123345 0)
(15.274 0.00128601 0)
(15.2674 0.00112196 0)
(15.2595 0.00109051 0)
(15.2568 0.00113507 0)
(15.247 0.00103092 0)
(15.2466 0.0011075 0)
(15.2374 0.000884312 0)
(15.2369 0.00104304 0)
(15.2311 0.000844616 0)
(15.228 0.000920244 0)
(15.2269 0.000912742 0)
(15.2202 0.000801275 0)
(15.2226 0.000938719 0)
(15.2164 0.000759724 0)
(15.2194 0.000908685 0)
(15.2145 0.0007873 0)
(15.2154 0.00087219 0)
(15.2147 0.000840534 0)
(15.2127 0.000727314 0)
(15.2155 0.000934102 0)
(15.2127 0.00069384 0)
(15.2156 0.000826204 0)
(15.2144 0.000738733 0)
(15.2154 0.000713328 0)
(15.218 0.00085171 0)
(15.2162 0.00063731 0)
(15.221 0.000815251 0)
(15.2188 0.00072255 0)
(15.2229 0.00075613 0)
(15.222 0.00084103 0)
(15.223 0.000791382 0)
(15.2241 0.000937586 0)
(15.2224 0.000797781 0)
(15.2233 0.000975422 0)
(15.2211 0.000901301 0)
(15.2204 0.000891323 0)
(15.2198 0.00100553 0)
(15.2167 0.000825417 0)
(15.2163 0.00100502 0)
(15.2161 0.000967627 0)
(15.2111 0.000776475 0)
(15.2164 0.0011079 0)
(15.2076 0.000747396 0)
(15.2152 0.000915366 0)
(15.2074 0.00112347 0)
(15.213 0.000332088 0)
(15.2052 0.00144354 0)
(15.2217 0.000407712 0)
(15.19 -0.000927424 0)
(15.2557 0.00588802 0)
(15.1468 -0.0255049 0)
(18.7905 0.025975 0)
(18.8273 0.0395347 0)
(18.8715 0.0482506 0)
(18.9163 0.0560288 0)
(18.9581 0.060483 0)
(18.9943 0.0615619 0)
(19.0214 0.0601775 0)
(19.0364 0.0562392 0)
(19.0337 0.0532603 0)
(19.0183 0.0489579 0)
(18.9878 0.0443258 0)
(18.9408 0.0395594 0)
(18.8771 0.0351729 0)
(18.7962 0.0310455 0)
(18.7002 0.0275292 0)
(18.5896 0.0241554 0)
(18.4689 0.0214402 0)
(18.3387 0.0189455 0)
(18.2067 0.0167843 0)
(18.0691 0.0148292 0)
(17.9426 0.0129991 0)
(17.8123 0.0112951 0)
(17.7011 0.00957293 0)
(17.5879 0.00799004 0)
(17.4957 0.00641329 0)
(17.4036 0.00516853 0)
(17.3287 0.0040356 0)
(17.2565 0.00319402 0)
(17.1937 0.00240366 0)
(17.1377 0.00201403 0)
(17.082 0.00171614 0)
(17.0367 0.00150312 0)
(16.9903 0.00134587 0)
(16.9516 0.00122385 0)
(16.9152 0.00105022 0)
(16.8807 0.000863416 0)
(16.8535 0.000729928 0)
(16.8225 0.000521287 0)
(16.8008 0.000415944 0)
(16.7743 0.000192663 0)
(16.7559 8.48301e-05 0)
(16.7344 -0.000148626 0)
(16.7175 -0.000236195 0)
(16.7017 -0.000366623 0)
(16.6841 -0.000495532 0)
(16.6728 -0.000446023 0)
(16.656 -0.000614821 0)
(16.646 -0.000601044 0)
(16.6321 -0.000749171 0)
(16.6216 -0.00075067 0)
(16.6122 -0.000849698 0)
(16.5991 -0.000932263 0)
(16.5946 -0.000886647 0)
(16.5805 -0.00100156 0)
(16.5781 -0.000946035 0)
(16.5661 -0.00112191 0)
(16.5628 -0.00102329 0)
(16.5563 -0.00119893 0)
(16.5487 -0.00119139 0)
(16.5479 -0.00117305 0)
(16.5375 -0.00139663 0)
(16.5396 -0.00132735 0)
(16.5312 -0.00164967 0)
(16.533 -0.00141409 0)
(16.5273 -0.00159961 0)
(16.5257 -0.0016401 0)
(16.5258 -0.00168714 0)
(16.5208 -0.00187682 0)
(16.5235 -0.00172764 0)
(16.5193 -0.0019843 0)
(16.521 -0.00186033 0)
(16.5198 -0.00197418 0)
(16.5186 -0.00207714 0)
(16.5214 -0.00193623 0)
(16.5185 -0.00215861 0)
(16.5221 -0.00199466 0)
(16.5202 -0.00208169 0)
(16.5224 -0.00202318 0)
(16.5227 -0.00188668 0)
(16.5222 -0.00192597 0)
(16.5241 -0.00168713 0)
(16.5219 -0.00171452 0)
(16.5224 -0.00153908 0)
(16.5213 -0.00148942 0)
(16.5188 -0.00155302 0)
(16.5193 -0.00132538 0)
(16.5158 -0.00148304 0)
(16.5147 -0.00147233 0)
(16.5153 -0.00136232 0)
(16.5097 -0.0016799 0)
(16.5139 -0.00131948 0)
(16.5078 -0.00173342 0)
(16.5104 -0.00162294 0)
(16.509 -0.00145358 0)
(16.5081 -0.00200898 0)
(16.5057 -0.00160135 0)
(16.5165 -0.00151603 0)
(16.4946 -0.00414217 0)
(16.535 0.00286882 0)
(16.5022 -0.0236742 0)
(18.7889 0.0234475 0)
(18.8253 0.0378526 0)
(18.8727 0.0450479 0)
(18.924 0.051198 0)
(18.9779 0.0545643 0)
(19.0328 0.0552317 0)
(19.0874 0.054182 0)
(19.1386 0.0523827 0)
(19.1849 0.0496786 0)
(19.226 0.0469215 0)
(19.2616 0.0442714 0)
(19.2912 0.0416632 0)
(19.3141 0.0393277 0)
(19.33 0.0372194 0)
(19.3388 0.0351534 0)
(19.3379 0.0340198 0)
(19.3292 0.0327207 0)
(19.3118 0.0314108 0)
(19.2841 0.0302746 0)
(19.2455 0.028953 0)
(19.1964 0.0274748 0)
(19.1354 0.0258767 0)
(19.0647 0.0240071 0)
(18.9828 0.022237 0)
(18.8943 0.020213 0)
(18.8 0.0184928 0)
(18.7041 0.0165829 0)
(18.6084 0.0150395 0)
(18.514 0.0131665 0)
(18.4306 0.0119596 0)
(18.3456 0.0107081 0)
(18.2762 0.0095398 0)
(18.2066 0.00866873 0)
(18.1467 0.00767436 0)
(18.0935 0.00703709 0)
(18.0393 0.0063364 0)
(17.9969 0.00589371 0)
(17.9487 0.00543393 0)
(17.913 0.00504936 0)
(17.8715 0.00466898 0)
(17.8403 0.00429544 0)
(17.8067 0.00399151 0)
(17.7775 0.0036299 0)
(17.7524 0.00340152 0)
(17.7239 0.00306705 0)
(17.705 0.00293832 0)
(17.6802 0.00266697 0)
(17.6637 0.00250919 0)
(17.6438 0.00228496 0)
(17.6271 0.00210355 0)
(17.6133 0.00200495 0)
(17.5941 0.00173843 0)
(17.5861 0.0017203 0)
(17.5671 0.00152929 0)
(17.5613 0.00145545 0)
(17.5457 0.00117704 0)
(17.5386 0.001145 0)
(17.53 0.000928085 0)
(17.5178 0.000778609 0)
(17.5159 0.000822911 0)
(17.5013 0.00037126 0)
(17.5025 0.000340725 0)
(17.491 -0.00017559 0)
(17.4913 4.25565e-05 0)
(17.4841 -0.000121484 0)
(17.4793 -0.000303624 0)
(17.4788 -0.000287401 0)
(17.4708 -0.00056964 0)
(17.4727 -0.000430143 0)
(17.4664 -0.000735062 0)
(17.4668 -0.000699431 0)
(17.4649 -0.000745318 0)
(17.4608 -0.00097498 0)
(17.4628 -0.000833735 0)
(17.4585 -0.00106034 0)
(17.4604 -0.000951301 0)
(17.458 -0.000998838 0)
(17.4584 -0.00103546 0)
(17.459 -0.000788548 0)
(17.4572 -0.00083956 0)
(17.4584 -0.000552041 0)
(17.4564 -0.000518845 0)
(17.4558 -0.000340367 0)
(17.4553 -0.000184473 0)
(17.4517 -0.00028416 0)
(17.4523 -2.04136e-05 0)
(17.4487 -0.000156963 0)
(17.4474 -0.000226124 0)
(17.4475 -2.75048e-05 0)
(17.4429 -0.000423275 0)
(17.4444 -7.25998e-05 0)
(17.4426 -0.000413789 0)
(17.4397 -0.00054745 0)
(17.4437 -0.000175162 0)
(17.4378 -0.000769946 0)
(17.4413 -0.00064133 0)
(17.4415 -0.000148813 0)
(17.4379 -0.003741 0)
(17.4477 0.00200728 0)
(17.459 -0.0250015 0)
(18.7873 0.0198406 0)
(18.8224 0.033417 0)
(18.8695 0.0390005 0)
(18.9212 0.0442421 0)
(18.9759 0.0475129 0)
(19.0324 0.0484117 0)
(19.0895 0.0478259 0)
(19.1449 0.0461934 0)
(19.1968 0.0440568 0)
(19.2466 0.041678 0)
(19.2918 0.0392446 0)
(19.3357 0.0366626 0)
(19.3736 0.0343731 0)
(19.4114 0.0321243 0)
(19.4432 0.030553 0)
(19.4758 0.029008 0)
(19.5022 0.0279752 0)
(19.5307 0.0271806 0)
(19.5518 0.0268011 0)
(19.5761 0.0264417 0)
(19.5908 0.0262126 0)
(19.6088 0.0259871 0)
(19.6158 0.0258044 0)
(19.6217 0.0254973 0)
(19.6187 0.0251037 0)
(19.6106 0.0246643 0)
(19.5932 0.0238604 0)
(19.5686 0.0232603 0)
(19.5342 0.0220344 0)
(19.4931 0.0211462 0)
(19.4442 0.0201146 0)
(19.39 0.0186945 0)
(19.3319 0.0177394 0)
(19.2685 0.0161494 0)
(19.2086 0.0152005 0)
(19.1395 0.0137566 0)
(19.0844 0.0127312 0)
(19.0178 0.0116407 0)
(18.9677 0.0106568 0)
(18.9084 0.00974484 0)
(18.862 0.00866259 0)
(18.8155 0.00808749 0)
(18.7691 0.0071089 0)
(18.7334 0.00658482 0)
(18.6895 0.00589712 0)
(18.6592 0.00540652 0)
(18.6223 0.00497465 0)
(18.5947 0.00455168 0)
(18.5655 0.00429784 0)
(18.5365 0.00379724 0)
(18.516 0.00369889 0)
(18.4857 0.00317386 0)
(18.4714 0.00299915 0)
(18.4439 0.00272771 0)
(18.4311 0.00242137 0)
(18.4101 0.0020326 0)
(18.3951 0.00171094 0)
(18.3832 0.00160861 0)
(18.363 0.00123328 0)
(18.3584 0.00125143 0)
(18.3378 0.000759683 0)
(18.3359 0.00051788 0)
(18.3203 0.000125079 0)
(18.3146 0.00014062 0)
(18.3058 0.000206195 0)
(18.2936 -0.000160213 0)
(18.2918 -0.000120525 0)
(18.2785 -0.000386366 0)
(18.2781 -0.000420082 0)
(18.2691 -0.000600878 0)
(18.265 -0.000743189 0)
(18.2615 -0.000632516 0)
(18.2527 -0.000946166 0)
(18.2533 -0.000906836 0)
(18.2457 -0.00108868 0)
(18.2459 -0.00110842 0)
(18.2418 -0.00110909 0)
(18.2399 -0.00127031 0)
(18.2395 -0.000997341 0)
(18.2361 -0.00103985 0)
(18.2362 -0.000826586 0)
(18.234 -0.000689457 0)
(18.2315 -0.000619516 0)
(18.2313 -0.000348863 0)
(18.2267 -0.000457981 0)
(18.2272 -0.000270201 0)
(18.2234 -0.000291878 0)
(18.2219 -0.000510219 0)
(18.2215 -0.000218392 0)
(18.2175 -0.000550432 0)
(18.2176 -0.000514398 0)
(18.2175 -0.00053001 0)
(18.2132 -0.000845298 0)
(18.2173 -0.000574167 0)
(18.2123 -0.00091327 0)
(18.2148 -0.00117715 0)
(18.2161 -0.000532051 0)
(18.2149 -0.00383754 0)
(18.2177 -0.000348941 0)
(18.2314 -0.0228393 0)
(18.786 0.0160668 0)
(18.8196 0.0284118 0)
(18.8663 0.0329996 0)
(18.9179 0.0375752 0)
(18.9723 0.0405562 0)
(19.0287 0.0413333 0)
(19.0858 0.040743 0)
(19.1415 0.0392751 0)
(19.1942 0.0374703 0)
(19.2446 0.0354448 0)
(19.2914 0.0333117 0)
(19.3364 0.0311716 0)
(19.3771 0.029245 0)
(19.4168 0.0275104 0)
(19.4526 0.0261643 0)
(19.4884 0.0251252 0)
(19.5215 0.0244054 0)
(19.555 0.0238999 0)
(19.586 0.0236106 0)
(19.6184 0.0233725 0)
(19.6479 0.0231748 0)
(19.6795 0.023001 0)
(19.7074 0.022892 0)
(19.7376 0.0227372 0)
(19.7636 0.0224372 0)
(19.7909 0.0222201 0)
(19.815 0.0220047 0)
(19.837 0.0219254 0)
(19.8608 0.0216239 0)
(19.8744 0.0216035 0)
(19.8928 0.0214254 0)
(19.9004 0.021098 0)
(19.9095 0.0209606 0)
(19.9095 0.0205381 0)
(19.9055 0.0203358 0)
(19.8977 0.0197978 0)
(19.8827 0.0191331 0)
(19.8657 0.0185829 0)
(19.8404 0.0177004 0)
(19.8148 0.0170152 0)
(19.7825 0.0156395 0)
(19.7523 0.0151208 0)
(19.712 0.0140115 0)
(19.6783 0.0134769 0)
(19.6304 0.0126397 0)
(19.5948 0.0115867 0)
(19.5506 0.0107287 0)
(19.5132 0.00958524 0)
(19.478 0.00930375 0)
(19.4347 0.00809568 0)
(19.4103 0.00783193 0)
(19.3666 0.0069186 0)
(19.3463 0.0063258 0)
(19.3084 0.00586743 0)
(19.2883 0.00509641 0)
(19.2624 0.00485713 0)
(19.2352 0.00401862 0)
(19.221 0.0040064 0)
(19.1893 0.00342473 0)
(19.1801 0.00320131 0)
(19.1539 0.00274838 0)
(19.1433 0.00221724 0)
(19.1226 0.00201541 0)
(19.1041 0.00176962 0)
(19.0921 0.00202849 0)
(19.0699 0.00136377 0)
(19.0646 0.00123036 0)
(19.0455 0.000950258 0)
(19.0381 0.000588049 0)
(19.0258 0.000584804 0)
(19.0129 0.000195685 0)
(19.0066 0.000405054 0)
(18.9919 -3.92672e-05 0)
(18.9883 -0.000210484 0)
(18.9774 -0.000320325 0)
(18.9722 -0.000604141 0)
(18.9667 -0.000526277 0)
(18.9593 -0.000855005 0)
(18.9568 -0.000641269 0)
(18.9507 -0.000646007 0)
(18.9477 -0.000537484 0)
(18.9444 -0.000243639 0)
(18.9388 -0.000256407 0)
(18.9382 7.30852e-05 0)
(18.9325 -1.95034e-05 0)
(18.9318 0.000107757 0)
(18.9289 0.000188984 0)
(18.9254 -0.000199599 0)
(18.9252 0.000113174 0)
(18.9221 -0.000158431 0)
(18.9204 -0.000399964 0)
(18.9218 -0.000267202 0)
(18.9173 -0.000647371 0)
(18.92 -0.000548354 0)
(18.9182 -0.000658036 0)
(18.9168 -0.00125735 0)
(18.9216 -0.000864544 0)
(18.921 -0.00349465 0)
(18.9214 -0.00188319 0)
(18.9342 -0.021381 0)
(18.7853 0.0126064 0)
(18.8172 0.0228427 0)
(18.8634 0.0264633 0)
(18.9148 0.030171 0)
(18.969 0.0326513 0)
(19.0252 0.0332581 0)
(19.0821 0.0327455 0)
(19.1377 0.0315842 0)
(19.1904 0.0301276 0)
(19.2407 0.0284811 0)
(19.2879 0.026746 0)
(19.3326 0.0250393 0)
(19.3741 0.0234918 0)
(19.4135 0.0220973 0)
(19.4504 0.0209911 0)
(19.4862 0.0201564 0)
(19.5203 0.0195312 0)
(19.554 0.0190496 0)
(19.5867 0.018767 0)
(19.6194 0.0185381 0)
(19.6514 0.0183599 0)
(19.6837 0.0181876 0)
(19.7151 0.0181286 0)
(19.7469 0.0179722 0)
(19.7778 0.0178135 0)
(19.8087 0.0176825 0)
(19.8395 0.0176027 0)
(19.8691 0.0174871 0)
(19.8999 0.0173169 0)
(19.9283 0.0173742 0)
(19.9584 0.0172698 0)
(19.9862 0.0171301 0)
(20.0134 0.0171951 0)
(20.0429 0.0171213 0)
(20.0654 0.0171698 0)
(20.0964 0.0169988 0)
(20.1142 0.0168941 0)
(20.1433 0.0168809 0)
(20.1566 0.0167327 0)
(20.182 0.0166643 0)
(20.192 0.0162628 0)
(20.2045 0.0161794 0)
(20.2162 0.0158799 0)
(20.2186 0.0158154 0)
(20.2288 0.0156629 0)
(20.2244 0.0150794 0)
(20.2258 0.0149168 0)
(20.2166 0.0140091 0)
(20.2103 0.0139994 0)
(20.1975 0.0132699 0)
(20.1818 0.0126995 0)
(20.168 0.0124033 0)
(20.1417 0.0114497 0)
(20.1271 0.0107952 0)
(20.1043 0.00941293 0)
(20.0885 0.00949668 0)
(20.0571 0.0083143 0)
(20.0443 0.0082891 0)
(20.0079 0.00759398 0)
(19.9948 0.00661594 0)
(19.969 0.00612432 0)
(19.9489 0.00547197 0)
(19.9247 0.00582014 0)
(19.8929 0.00487479 0)
(19.882 0.00478565 0)
(19.8533 0.00367829 0)
(19.8448 0.00313887 0)
(19.8234 0.00317087 0)
(19.8071 0.00245766 0)
(19.7923 0.00260614 0)
(19.7713 0.00194305 0)
(19.7624 0.00199276 0)
(19.7445 0.00156225 0)
(19.7327 0.00104772 0)
(19.7209 0.00101943 0)
(19.7055 0.000505949 0)
(19.6987 0.000544927 0)
(19.6841 0.000202296 0)
(19.6771 0.000217426 0)
(19.6669 0.000253756 0)
(19.6573 0.000188695 0)
(19.6518 0.000495605 0)
(19.6418 0.000406433 0)
(19.6388 0.000552917 0)
(19.6329 0.000510087 0)
(19.6285 0.000424149 0)
(19.6269 0.000575901 0)
(19.6215 0.000159673 0)
(19.6207 0.000257852 0)
(19.6198 0.000164525 0)
(19.6154 -0.000275573 0)
(19.6183 -0.000147822 0)
(19.614 -0.00048039 0)
(19.6153 -0.000619452 0)
(19.6168 -0.000528529 0)
(19.6124 -0.00128786 0)
(19.6173 -0.00133983 0)
(19.6182 -0.00352761 0)
(19.6169 -0.00319897 0)
(19.628 -0.0206545 0)
(18.7848 0.00894507 0)
(18.8152 0.0166399 0)
(18.861 0.019291 0)
(18.9123 0.0220257 0)
(18.9663 0.023903 0)
(19.0223 0.0243555 0)
(19.079 0.0239798 0)
(19.1345 0.0231469 0)
(19.1873 0.0220764 0)
(19.2374 0.0208643 0)
(19.2847 0.0195897 0)
(19.3292 0.0183356 0)
(19.3709 0.0171858 0)
(19.4102 0.01613 0)
(19.4474 0.0152852 0)
(19.483 0.0146604 0)
(19.5174 0.0141927 0)
(19.5509 0.0138246 0)
(19.5839 0.0136057 0)
(19.6167 0.0134548 0)
(19.6491 0.013359 0)
(19.6811 0.0132836 0)
(19.7129 0.0132557 0)
(19.7447 0.0131385 0)
(19.7763 0.0130362 0)
(19.8077 0.0129344 0)
(19.8389 0.012902 0)
(19.8697 0.0128129 0)
(19.9003 0.0126873 0)
(19.9307 0.0127151 0)
(19.9613 0.0126187 0)
(19.9916 0.0125931 0)
(20.0216 0.0125645 0)
(20.0522 0.0125531 0)
(20.0817 0.0125569 0)
(20.1124 0.0124055 0)
(20.1408 0.0123659 0)
(20.1712 0.0123688 0)
(20.1992 0.012276 0)
(20.2291 0.0120803 0)
(20.2568 0.012077 0)
(20.2836 0.0120933 0)
(20.3133 0.0120182 0)
(20.3367 0.0120967 0)
(20.368 0.0120661 0)
(20.3895 0.0119243 0)
(20.419 0.0118844 0)
(20.439 0.011663 0)
(20.46 0.0116872 0)
(20.4879 0.0115079 0)
(20.4983 0.0114701 0)
(20.5285 0.0114918 0)
(20.5342 0.0113152 0)
(20.5607 0.0111685 0)
(20.5594 0.010549 0)
(20.5744 0.0105621 0)
(20.5807 0.0102783 0)
(20.5794 0.0101674 0)
(20.5924 0.0100852 0)
(20.5836 0.00897888 0)
(20.5919 0.00896864 0)
(20.5789 0.00857487 0)
(20.5846 0.00910502 0)
(20.5746 0.00827399 0)
(20.5727 0.00794907 0)
(20.565 0.00752805 0)
(20.5492 0.00630783 0)
(20.5465 0.00656432 0)
(20.5265 0.0058227 0)
(20.5219 0.00581294 0)
(20.5065 0.00513289 0)
(20.4961 0.00473721 0)
(20.4858 0.00470693 0)
(20.4659 0.00387919 0)
(20.4591 0.00378134 0)
(20.4389 0.00298246 0)
(20.4326 0.0026687 0)
(20.4167 0.00243844 0)
(20.4052 0.00219157 0)
(20.3934 0.00228796 0)
(20.3783 0.00191725 0)
(20.3711 0.00192906 0)
(20.3595 0.00163999 0)
(20.3536 0.00138781 0)
(20.3485 0.00131254 0)
(20.3411 0.000989174 0)
(20.34 0.000972694 0)
(20.3361 0.000652865 0)
(20.333 0.000374466 0)
(20.3343 0.000420892 0)
(20.3296 -0.000106096 0)
(20.3321 -0.000140798 0)
(20.3299 -0.00031449 0)
(20.3295 -0.000700792 0)
(20.3321 -0.000509128 0)
(20.3293 -0.00122688 0)
(20.3313 -0.00163063 0)
(20.3332 -0.00347587 0)
(20.3331 -0.00435188 0)
(20.3384 -0.0197525 0)
(18.7845 0.00518214 0)
(18.8138 0.00981471 0)
(18.8592 0.0114127 0)
(18.9105 0.0130944 0)
(18.9643 0.0142642 0)
(19.0201 0.0145392 0)
(19.0767 0.0143078 0)
(19.1322 0.0138002 0)
(19.185 0.0131431 0)
(19.235 0.0123994 0)
(19.2823 0.0116172 0)
(19.3268 0.0108445 0)
(19.3686 0.0101346 0)
(19.4079 0.00947652 0)
(19.445 0.00894561 0)
(19.4806 0.00856554 0)
(19.5151 0.00828515 0)
(19.5488 0.00805528 0)
(19.5817 0.00791116 0)
(19.6143 0.00781488 0)
(19.6467 0.00775271 0)
(19.6789 0.00771208 0)
(19.711 0.00769334 0)
(19.7428 0.0076181 0)
(19.7741 0.00753233 0)
(19.8054 0.00742718 0)
(19.8366 0.00740084 0)
(19.8676 0.00735229 0)
(19.8984 0.00728894 0)
(19.929 0.00730927 0)
(19.9595 0.00725072 0)
(19.9899 0.0072275 0)
(20.0203 0.00716554 0)
(20.0509 0.00720899 0)
(20.0811 0.00721152 0)
(20.1111 0.00716928 0)
(20.141 0.00713876 0)
(20.171 0.00713869 0)
(20.2009 0.00709463 0)
(20.2305 0.00697082 0)
(20.26 0.00711676 0)
(20.2892 0.00699355 0)
(20.3187 0.00694977 0)
(20.3474 0.00694276 0)
(20.3769 0.0068839 0)
(20.4054 0.00686426 0)
(20.4342 0.00678452 0)
(20.4625 0.00686469 0)
(20.4903 0.00666835 0)
(20.5195 0.00669306 0)
(20.5456 0.00666489 0)
(20.575 0.00668871 0)
(20.6005 0.00655368 0)
(20.6301 0.00636279 0)
(20.6535 0.00640788 0)
(20.6796 0.00653902 0)
(20.7065 0.0066363 0)
(20.7269 0.006664 0)
(20.7597 0.00654095 0)
(20.7746 0.00617579 0)
(20.8051 0.00642849 0)
(20.8172 0.00638657 0)
(20.8463 0.00668298 0)
(20.8643 0.00651604 0)
(20.8794 0.0059718 0)
(20.9072 0.00613709 0)
(20.9118 0.00574776 0)
(20.9363 0.00595636 0)
(20.9425 0.00588653 0)
(20.9603 0.00569331 0)
(20.9707 0.00565287 0)
(20.9762 0.00525437 0)
(20.9921 0.00544914 0)
(20.9933 0.00514331 0)
(21.0062 0.00497043 0)
(21.0063 0.00474238 0)
(21.0127 0.0043507 0)
(21.0131 0.00445924 0)
(21.0146 0.00424694 0)
(21.0154 0.0044026 0)
(21.0151 0.00409506 0)
(21.0143 0.00382413 0)
(21.0142 0.00353448 0)
(21.0119 0.00278747 0)
(21.0123 0.00267093 0)
(21.0102 0.00212495 0)
(21.0099 0.00174054 0)
(21.0105 0.00138583 0)
(21.0083 0.000915514 0)
(21.0107 0.000568113 0)
(21.009 0.000245094 0)
(21.0107 -0.000129415 0)
(21.0113 -0.000180969 0)
(21.0103 -0.000726615 0)
(21.0127 -0.000708861 0)
(21.0122 -0.00112606 0)
(21.0126 -0.00183818 0)
(21.0139 -0.00350067 0)
(21.015 -0.0054245 0)
(21.0164 -0.0185755 0)
(18.7843 0.00122976 0)
(18.8131 0.00226543 0)
(18.8584 0.00270193 0)
(18.9096 0.00325458 0)
(18.9633 0.00361095 0)
(19.019 0.0036766 0)
(19.0756 0.00360327 0)
(19.131 0.00344736 0)
(19.1838 0.00325349 0)
(19.2338 0.00303399 0)
(19.2811 0.00279847 0)
(19.3256 0.00256015 0)
(19.3674 0.00234252 0)
(19.4067 0.00213467 0)
(19.4439 0.00195549 0)
(19.4795 0.00183327 0)
(19.5139 0.00173627 0)
(19.5476 0.00164341 0)
(19.5806 0.00160481 0)
(19.6132 0.00158457 0)
(19.6455 0.00155275 0)
(19.6776 0.00151723 0)
(19.7097 0.00152316 0)
(19.7416 0.00152998 0)
(19.7732 0.00153077 0)
(19.8043 0.00147568 0)
(19.8354 0.00145326 0)
(19.8664 0.00144098 0)
(19.8972 0.00143581 0)
(19.9279 0.00147708 0)
(19.9584 0.00144793 0)
(19.9888 0.0014241 0)
(20.0192 0.00136284 0)
(20.0496 0.00141586 0)
(20.0799 0.00145376 0)
(20.11 0.00146761 0)
(20.1401 0.00140649 0)
(20.1701 0.00140562 0)
(20.2001 0.00138789 0)
(20.2296 0.00132648 0)
(20.2592 0.00143201 0)
(20.2887 0.00132074 0)
(20.3179 0.0013322 0)
(20.3471 0.00132266 0)
(20.3763 0.0013243 0)
(20.4054 0.0013448 0)
(20.4343 0.00132209 0)
(20.4632 0.0014266 0)
(20.4917 0.00117418 0)
(20.5201 0.00129434 0)
(20.5484 0.00123535 0)
(20.5768 0.00128226 0)
(20.6048 0.00120076 0)
(20.6328 0.00120362 0)
(20.6606 0.00143454 0)
(20.6881 0.00119366 0)
(20.7162 0.00149287 0)
(20.7435 0.00114627 0)
(20.7712 0.00111957 0)
(20.7979 0.00104311 0)
(20.8252 0.00117771 0)
(20.8515 0.00119394 0)
(20.8783 0.000923689 0)
(20.9049 0.00131802 0)
(20.9305 0.000943725 0)
(20.9578 0.00128133 0)
(20.9823 0.00117236 0)
(21.0086 0.00111492 0)
(21.0334 0.00123147 0)
(21.0586 0.000924214 0)
(21.0837 0.00134979 0)
(21.1065 0.00113326 0)
(21.1313 0.00136692 0)
(21.1539 0.00128487 0)
(21.1777 0.00125383 0)
(21.1999 0.00130963 0)
(21.2215 0.00112027 0)
(21.244 0.00145656 0)
(21.2656 0.00142003 0)
(21.2881 0.00165044 0)
(21.3108 0.00160526 0)
(21.3307 0.00151103 0)
(21.3535 0.00150017 0)
(21.3688 0.00124001 0)
(21.3877 0.00118264 0)
(21.399 0.00108323 0)
(21.4126 0.000686843 0)
(21.4214 0.000647443 0)
(21.4288 0.000226634 0)
(21.4369 0.00010989 0)
(21.4395 -0.000133431 0)
(21.4451 -0.000526429 0)
(21.4462 -0.000398216 0)
(21.4485 -0.000896415 0)
(21.4496 -0.000814299 0)
(21.4496 -0.00121342 0)
(21.4512 -0.00200066 0)
(21.4498 -0.00362324 0)
(21.4516 -0.0059284 0)
(21.4489 -0.0168461 0)
(18.7843 -0.00286844 0)
(18.8133 -0.00567299 0)
(18.8586 -0.00644558 0)
(18.9099 -0.00706496 0)
(18.9636 -0.00757349 0)
(19.0193 -0.0077314 0)
(19.0759 -0.00763624 0)
(19.1313 -0.00742183 0)
(19.1841 -0.00712759 0)
(19.2341 -0.00680019 0)
(19.2814 -0.00646286 0)
(19.3259 -0.00613692 0)
(19.3677 -0.00583957 0)
(19.4069 -0.00558996 0)
(19.4442 -0.00541302 0)
(19.4798 -0.00525841 0)
(19.5143 -0.00515047 0)
(19.5478 -0.00510181 0)
(19.5809 -0.00504293 0)
(19.6135 -0.00499261 0)
(19.6459 -0.00496618 0)
(19.678 -0.00495726 0)
(19.71 -0.00492128 0)
(19.7418 -0.00487601 0)
(19.7734 -0.00481279 0)
(19.8048 -0.00480964 0)
(19.8359 -0.00482257 0)
(19.8669 -0.00480958 0)
(19.8976 -0.00478513 0)
(19.9283 -0.00473673 0)
(19.9588 -0.00474607 0)
(19.9893 -0.00474406 0)
(20.0196 -0.00478288 0)
(20.0499 -0.00473706 0)
(20.0802 -0.00467893 0)
(20.1105 -0.00466563 0)
(20.1406 -0.00468785 0)
(20.1705 -0.00465477 0)
(20.2003 -0.00461592 0)
(20.2298 -0.00465522 0)
(20.2595 -0.00456237 0)
(20.2889 -0.00458827 0)
(20.3182 -0.00456752 0)
(20.3475 -0.00456833 0)
(20.3766 -0.00454519 0)
(20.4057 -0.00451374 0)
(20.4345 -0.00453206 0)
(20.4635 -0.00443256 0)
(20.492 -0.0045755 0)
(20.5204 -0.00446923 0)
(20.5488 -0.00450959 0)
(20.5769 -0.0044348 0)
(20.605 -0.00449011 0)
(20.6328 -0.00445662 0)
(20.6608 -0.0043226 0)
(20.6885 -0.00451322 0)
(20.7163 -0.00425794 0)
(20.7438 -0.00444726 0)
(20.7711 -0.00433811 0)
(20.7981 -0.00439911 0)
(20.825 -0.00425021 0)
(20.8519 -0.00417582 0)
(20.8782 -0.00419319 0)
(20.9047 -0.003778 0)
(20.9309 -0.00430283 0)
(20.9565 -0.00409969 0)
(20.9826 -0.00416634 0)
(21.0079 -0.00418621 0)
(21.0332 -0.00401086 0)
(21.058 -0.00422625 0)
(21.0821 -0.00379355 0)
(21.1063 -0.00402665 0)
(21.1294 -0.00390076 0)
(21.1517 -0.00400399 0)
(21.1747 -0.00403226 0)
(21.1955 -0.00395312 0)
(21.2178 -0.00421034 0)
(21.2381 -0.00412025 0)
(21.2589 -0.00434874 0)
(21.2808 -0.00429685 0)
(21.2984 -0.00430906 0)
(21.321 -0.00429933 0)
(21.3354 -0.00397451 0)
(21.3544 -0.00371168 0)
(21.3671 -0.00326365 0)
(21.3792 -0.00285365 0)
(21.3932 -0.00252797 0)
(21.3979 -0.0020154 0)
(21.4094 -0.0018907 0)
(21.4121 -0.00156371 0)
(21.4175 -0.00137206 0)
(21.4214 -0.00133965 0)
(21.4213 -0.00105108 0)
(21.4257 -0.00123607 0)
(21.4245 -0.00110364 0)
(21.4267 -0.00142068 0)
(21.4267 -0.00193716 0)
(21.4246 -0.00343883 0)
(21.4263 -0.0060302 0)
(21.4207 -0.0153906 0)
(18.7846 -0.00688566 0)
(18.8144 -0.0132496 0)
(18.86 -0.0151548 0)
(18.9114 -0.0169109 0)
(18.9651 -0.0182333 0)
(19.021 -0.0185989 0)
(19.0776 -0.0183449 0)
(19.1331 -0.0177786 0)
(19.1859 -0.0170186 0)
(19.2359 -0.0161724 0)
(19.2833 -0.0152864 0)
(19.3277 -0.0144145 0)
(19.3695 -0.0136175 0)
(19.4087 -0.01293 0)
(19.4459 -0.0124168 0)
(19.4816 -0.011991 0)
(19.516 -0.01168 0)
(19.5496 -0.0114977 0)
(19.5826 -0.0113601 0)
(19.6153 -0.0112629 0)
(19.6477 -0.0111897 0)
(19.6798 -0.0111281 0)
(19.7117 -0.011053 0)
(19.7435 -0.0109874 0)
(19.7752 -0.0108929 0)
(19.8067 -0.0108351 0)
(19.8377 -0.0107905 0)
(19.8685 -0.0107238 0)
(19.8993 -0.0106691 0)
(19.93 -0.0106097 0)
(19.9605 -0.0106038 0)
(19.991 -0.010579 0)
(20.0213 -0.0106085 0)
(20.0517 -0.0105671 0)
(20.082 -0.0104829 0)
(20.112 -0.0104621 0)
(20.1421 -0.0104587 0)
(20.172 -0.0104073 0)
(20.2018 -0.0103436 0)
(20.2314 -0.0103483 0)
(20.2608 -0.010271 0)
(20.2902 -0.0102306 0)
(20.3193 -0.0102396 0)
(20.3484 -0.010209 0)
(20.3773 -0.0101543 0)
(20.406 -0.0100826 0)
(20.4347 -0.0100466 0)
(20.4629 -0.00994869 0)
(20.4911 -0.00997331 0)
(20.5187 -0.00991164 0)
(20.5463 -0.00987897 0)
(20.5736 -0.00977935 0)
(20.6002 -0.00978576 0)
(20.6267 -0.00975604 0)
(20.6528 -0.00965193 0)
(20.6784 -0.00973672 0)
(20.7034 -0.00958381 0)
(20.7283 -0.00967483 0)
(20.7514 -0.00959898 0)
(20.7744 -0.0096251 0)
(20.7967 -0.00943169 0)
(20.8166 -0.00935948 0)
(20.8382 -0.0093208 0)
(20.855 -0.00906177 0)
(20.875 -0.00932264 0)
(20.8887 -0.00905269 0)
(20.9052 -0.0089771 0)
(20.9174 -0.00885011 0)
(20.9287 -0.00861263 0)
(20.9406 -0.00852923 0)
(20.9459 -0.00805231 0)
(20.9557 -0.00797591 0)
(20.9585 -0.00766318 0)
(20.9644 -0.00743507 0)
(20.9659 -0.00730966 0)
(20.9671 -0.00699936 0)
(20.9678 -0.0070334 0)
(20.9647 -0.0066514 0)
(20.9646 -0.006707 0)
(20.9593 -0.00626628 0)
(20.9576 -0.0060958 0)
(20.9532 -0.00583739 0)
(20.9494 -0.00520743 0)
(20.9477 -0.00492399 0)
(20.9432 -0.00399828 0)
(20.9434 -0.00378745 0)
(20.9405 -0.0032137 0)
(20.9409 -0.00260495 0)
(20.94 -0.00245719 0)
(20.9394 -0.00194373 0)
(20.9406 -0.00168156 0)
(20.939 -0.00156388 0)
(20.9409 -0.00117042 0)
(20.9396 -0.00139103 0)
(20.9405 -0.00120755 0)
(20.9406 -0.00137177 0)
(20.9389 -0.00190795 0)
(20.9402 -0.00325841 0)
(20.9364 -0.00582544 0)
(20.9328 -0.0136681 0)
(18.785 -0.0107631 0)
(18.8161 -0.0201367 0)
(18.8623 -0.0230435 0)
(18.9137 -0.025854 0)
(18.9676 -0.0278777 0)
(19.0237 -0.0284133 0)
(19.0804 -0.0280131 0)
(19.136 -0.0271252 0)
(19.1888 -0.0259474 0)
(19.2389 -0.0246424 0)
(19.2862 -0.0232696 0)
(19.3307 -0.0219128 0)
(19.3724 -0.0206707 0)
(19.4116 -0.0195863 0)
(19.4488 -0.0187676 0)
(19.4844 -0.0180836 0)
(19.5189 -0.0175756 0)
(19.5525 -0.017258 0)
(19.5854 -0.0170347 0)
(19.6181 -0.016882 0)
(19.6504 -0.0167599 0)
(19.6826 -0.0166545 0)
(19.7146 -0.0165553 0)
(19.7464 -0.0164801 0)
(19.778 -0.0163582 0)
(19.8093 -0.0162571 0)
(19.8403 -0.0161752 0)
(19.8712 -0.0160836 0)
(19.902 -0.0160115 0)
(19.9325 -0.0159313 0)
(19.9629 -0.0158978 0)
(19.9929 -0.0158578 0)
(20.0231 -0.0158774 0)
(20.0531 -0.0158358 0)
(20.083 -0.0157074 0)
(20.1126 -0.0156626 0)
(20.1422 -0.0156236 0)
(20.1711 -0.0155365 0)
(20.1998 -0.0154674 0)
(20.2289 -0.0154132 0)
(20.2563 -0.0153232 0)
(20.2846 -0.0152253 0)
(20.3107 -0.0152286 0)
(20.3379 -0.0152309 0)
(20.3627 -0.0151522 0)
(20.3878 -0.0150775 0)
(20.4115 -0.0149593 0)
(20.4328 -0.0148903 0)
(20.4557 -0.014826 0)
(20.473 -0.0147151 0)
(20.4927 -0.0145989 0)
(20.5066 -0.0144277 0)
(20.5222 -0.0142698 0)
(20.5322 -0.01409 0)
(20.5423 -0.0138315 0)
(20.5495 -0.0136049 0)
(20.5527 -0.0132892 0)
(20.556 -0.0129749 0)
(20.5548 -0.0127093 0)
(20.5533 -0.0124398 0)
(20.5485 -0.0119196 0)
(20.5429 -0.0115093 0)
(20.5351 -0.0110977 0)
(20.5256 -0.0104521 0)