/*--------------------------------*- C++ -*----------------------------------*\
| =========                 |                                                 |
| \\      /  F ield         | OpenFOAM: The Open Source CFD Toolbox           |
|  \\    /   O peration     | Version:  v2012                                 |
|   \\  /    A nd           | Website:  www.openfoam.com                      |
|    \\/     M anipulation  |                                                 |
\*---------------------------------------------------------------------------*/
FoamFile
{
    version     2.0;
    format      ascii;
    class       vectorField;
    location    "0.079/lagrangian/kinematicCloud";
    object      U;
}
// * * * * * * * * * * * * * * * * * * * * * * * * * * * * * * * * * * * * * //


54
(
(15.8363 0.00925671 0)
(17.7029 0.00500164 0)
(17.6561 -0.00671529 0)
(17.1502 0.0111269 0)
(17.0567 -0.013277 0)
(17.4878 -0.00743366 0)
(11.0752 0.00108918 0)
(16.0108 -0.012867 0)
(16.0863 -0.0133276 0)
(17.205 0.00909891 0)
(17.2573 0.00390893 0)
(16.5798 0.0125279 0)
(13.3993 -0.00684777 0)
(13.3516 0.00575948 0)
(14.0276 -0.00779151 0)
(16.9397 0.000611207 0)
(15.4344 0.0113195 0)
(14.4942 -0.00996333 0)
(16.4103 0.0135679 0)
(15.7963 -0.014791 0)
(16.6055 -0.0135371 0)
(14.8324 -0.0124406 0)
(16.4454 -0.0143666 0)
(15.9128 0.0140948 0)
(16.4406 0.0062365 0)
(16.3399 -0.0135919 0)
(15.4561 0.0137266 0)
(16.0528 -0.016207 0)
(13.8391 0.00921469 0)
(15.8804 -0.0165222 0)
(5.45414 9.62482e-05 0)
(14.5955 0.0112322 0)
(12.226 -0.00731748 0)
(15.9078 -0.00343678 0)
(15.859 0.013448 0)
(15.8354 -0.0117879 0)
(15.759 0.00950735 0)
(15.6867 0.00608932 0)
(15.6084 -0.0117858 0)
(12.2717 0.00497235 0)
(15.453 0.0109051 0)
(15.3722 -0.0102181 0)
(15.2766 0.0134278 0)
(15.161 0.0147811 0)
(15.1244 0.00960642 0)
(15.0384 -0.00782029 0)
(14.901 -0.0168524 0)
(14.8617 0.00097119 0)
(14.7719 0.00593105 0)
(14.6836 -0.0137126 0)
(14.2743 0.0154053 0)
(14.4959 0.00627569 0)
(14.3166 -0.0171591 0)
(13.4625 0.0133204 0)
)


// ************************************************************************* //
