/*--------------------------------*- C++ -*----------------------------------*\
| =========                 |                                                 |
| \\      /  F ield         | OpenFOAM: The Open Source CFD Toolbox           |
|  \\    /   O peration     | Version:  v2012                                 |
|   \\  /    A nd           | Website:  www.openfoam.com                      |
|    \\/     M anipulation  |                                                 |
\*---------------------------------------------------------------------------*/
FoamFile
{
    version     2.0;
    format      ascii;
    class       vectorField;
    location    "0.079/lagrangian/kinematicCloud";
    object      UCorrect;
}
// * * * * * * * * * * * * * * * * * * * * * * * * * * * * * * * * * * * * * //


26
(
(0 0 0)
(-2.57851e-26 1.23318e-27 0)
(-1.95207e-26 -5.76871e-29 0)
(0 0 0)
(0 0 0)
(-9.83537e-27 -1.41997e-27 0)
(-1.49123e-26 -4.53216e-29 0)
(0 0 0)
(0 0 0)
(0 0 0)
(0 0 0)
(-1.87129e-26 -2.21916e-27 0)
(-1.42612e-26 -1.10374e-27 0)
(-2.35025e-26 -4.37019e-28 0)
(0 0 0)
(-1.32775e-26 -1.19813e-27 0)
(0 0 0)
(-2.89239e-26 -4.76038e-28 0)
(0 0 0)
(-2.25498e-26 -5.8721e-28 0)
(0 0 0)
(0 0 0)
(-1.42637e-26 -1.37304e-27 0)
(0 0 0)
(0 0 0)
(0 0 0)
)


// ************************************************************************* //
