/*--------------------------------*- C++ -*----------------------------------*\
| =========                 |                                                 |
| \\      /  F ield         | OpenFOAM: The Open Source CFD Toolbox           |
|  \\    /   O peration     | Version:  v2012                                 |
|   \\  /    A nd           | Website:  www.openfoam.com                      |
|    \\/     M anipulation  |                                                 |
\*---------------------------------------------------------------------------*/
FoamFile
{
    version     2.0;
    format      ascii;
    class       volScalarField;
    location    "0.168";
    object      epsilon.air;
}
// * * * * * * * * * * * * * * * * * * * * * * * * * * * * * * * * * * * * * //

dimensions      [0 2 -3 0 0 0 0];


internalField   nonuniform List<scalar> 
1900
(
112.724
141.424
210.098
257.591
369.051
443.457
614.739
724.907
971.323
1128.61
15.4676
16.4471
18.6377
20.45
23.7575
27.7268
32.0041
39.2872
45.1205
56.757
14.7926
14.6414
14.5755
14.5063
14.5148
14.5573
14.6409
14.8308
15.0774
15.4132
14.77
14.6304
14.4634
14.3354
14.1726
14.059
13.9039
13.808
13.6653
13.5938
14.7767
14.6215
14.4705
14.3204
14.1748
14.0289
13.889
13.7472
13.6138
13.477
14.7778
14.6204
14.4714
14.3195
14.1754
14.0284
13.8891
13.7472
13.6133
13.4774
14.7778
14.6205
14.4732
14.3233
14.1842
14.0449
13.9176
13.7914
13.6806
13.5716
14.7765
14.6497
14.5638
14.5033
14.5106
14.5517
14.6362
14.8205
15.0444
15.3958
15.2178
16.5963
18.2788
20.6769
23.5917
27.5719
32.2619
38.407
45.5625
54.8191
105.99
146.541
198.397
265.732
350.016
456.015
585.642
743.629
931.813
1154
4100.75
15196.2
19577.3
22452.2
21117.9
18021.5
15081
12782.8
11282.9
10367.8
9868.96
9695.91
9524.42
9259.48
8854.59
8355.22
7799.49
7212.21
6645.58
6126.78
5649.33
5222.28
4838.07
4487.19
4167.84
3878.38
3615.97
3378.5
3162.81
2966.98
2788.65
2625.8
2476.77
2340.03
2214.46
2098.86
1992.35
1893.98
1802.99
1718.67
1640.39
1567.58
1499.73
1436.38
1377.12
1321.59
1269.47
1220.45
1174.3
1130.77
1089.65
1050.76
1013.94
979.022
945.874
914.356
884.363
855.763
828.478
802.387
777.442
753.522
730.616
708.596
687.488
667.149
647.647
628.808
610.749
593.253
576.496
560.202
544.625
529.414
514.916
500.69
487.197
473.878
461.335
448.859
437.226
425.532
414.772
403.793
393.869
383.525
374.4
364.601
356.244
346.891
339.284
330.275
323.42
314.647
308.567
299.917
294.652
286.001
281.59
271.189
113.097
337.582
517.968
923.196
1126.27
1150.33
1121.99
1056.73
1049.63
1088.59
1193.42
1406.98
1694.25
2026.87
2378.69
2692.45
2970.16
3202.7
3358.54
3435.47
3427.6
3388.7
3303.05
3185.36
3056.95
2925.35
2794.4
2667.48
2543.82
2426.32
2314.08
2207.05
2105.68
2009.75
1919.41
1834.31
1754.39
1679.12
1608.27
1541.6
1478.81
1419.65
1363.84
1311.17
1261.4
1214.32
1169.74
1127.46
1087.31
1049.14
1012.81
978.183
945.153
913.606
883.457
854.605
826.982
800.492
775.085
750.669
727.218
704.635
682.924
661.98
641.841
622.383
603.684
585.591
568.223
551.384
535.249
519.56
504.56
489.924
475.974
462.301
449.332
436.548
424.507
412.548
401.393
390.201
379.898
369.408
359.921
350.058
341.353
332.03
324.075
315.198
307.974
299.445
292.949
284.664
278.914
270.763
265.796
257.659
253.514
243.753
16.4267
19.8627
22.8817
29.0991
34.8044
38.747
41.7065
43.7458
46.6447
50.6354
58.6392
70.8553
95.3377
130.145
189.242
267.372
373.595
508.361
665.696
837.129
1005.95
1164.12
1304.42
1421.62
1512.14
1574.72
1612.36
1628.84
1625.9
1614.72
1591.26
1560.93
1526.56
1489.43
1451.04
1411.45
1371.83
1331.62
1291.82
1252.68
1214.22
1176.65
1140.09
1104.62
1070.28
1037.03
1004.92
973.86
943.833
914.794
886.717
859.54
833.241
807.775
783.135
759.273
736.188
713.832
692.207
671.26
651.002
631.37
612.397
594
576.239
559.013
542.415
526.31
510.828
495.787
481.369
467.328
453.91
440.799
428.315
416.06
404.452
392.985
382.202
371.466
361.472
351.415
342.182
332.748
324.248
315.371
307.575
299.18
292.06
284.065
277.605
269.921
264.113
256.648
251.505
244.164
239.714
232.392
228.668
219.888
13.453
13.4604
13.546
13.8021
14.3336
15.0055
15.7205
16.3403
16.9299
17.3479
17.8994
18.3621
19.2888
20.5099
22.7008
26.2443
31.7437
40.728
54.6456
76.1121
106.56
147.237
199.194
261.314
331.394
406.456
482.009
555.722
622.775
683.905
736.402
779.851
814.119
839.567
857.772
868.975
874.983
874.584
872.094
866.379
857.669
847.013
834.909
821.524
807.211
792.111
776.525
760.354
743.935
727.333
710.576
693.734
676.882
660.077
643.395
626.841
610.525
594.432
578.647
563.14
547.99
533.152
518.698
504.569
490.853
477.467
464.518
451.885
439.706
427.81
416.39
405.204
394.516
384.001
374.002
364.111
354.761
345.437
336.698
327.905
319.762
311.467
303.907
296.072
289.08
281.659
275.221
268.158
262.264
255.504
250.137
243.607
238.763
232.392
228.079
221.796
218.036
211.764
208.58
201.048
13.3297
13.1591
13.0622
13.1162
13.3046
13.7156
14.2878
14.9101
15.4562
15.8866
16.213
16.4433
16.6131
16.7667
16.8903
17.0877
17.3274
17.724
18.3182
19.296
20.8521
23.2409
26.8037
32.1447
39.873
50.7451
65.2598
83.9084
106.824
133.844
164.451
197.587
232.539
267.66
302.506
335.321
366.381
394.471
419.433
440.872
458.813
473.313
484.733
493.243
499.193
502.868
504.675
504.406
503.26
500.728
496.941
492.174
486.667
480.443
473.698
466.499
459.003
451.22
443.318
435.254
427.203
419.076
411.005
402.962
395.049
387.192
379.485
371.833
364.359
356.929
349.725
342.528
335.616
328.649
322.022
315.285
308.947
302.443
296.396
290.111
284.358
278.284
272.837
266.967
261.841
256.165
251.372
245.868
241.406
236.037
231.917
226.658
222.893
217.709
214.313
209.167
206.157
201.009
198.403
192.194
13.3249
13.1544
13.0314
13.086
13.2952
13.7744
14.4964
15.49
16.5084
17.6076
18.6008
19.5255
20.2574
20.8601
21.2838
21.5945
21.7663
21.8478
21.8359
21.7951
21.7101
21.6101
21.5365
21.5611
21.669
21.9309
22.4839
23.369
24.8809
27.057
30.3211
34.735
40.7496
48.3281
57.7041
68.8593
81.831
96.4048
112.364
129.317
146.843
164.538
181.983
198.839
214.799
229.588
243.192
255.366
266.285
275.854
284.242
291.409
297.564
302.722
307.001
310.49
313.294
315.428
317.038
318.045
318.717
318.727
318.522
318.012
317.024
315.7
314.09
312.202
310.1
307.764
305.268
302.537
299.747
296.64
293.631
290.237
287.048
283.407
280.083
276.258
272.857
268.896
265.48
261.426
258.051
253.94
250.655
246.514
243.364
239.212
236.228
232.07
229.276
225.115
222.532
218.366
216.013
211.839
209.738
204.69
13.4656
13.3601
13.4096
13.6559
14.303
15.6898
18.0228
21.4474
25.4045
29.7171
33.6282
37.0813
39.578
41.504
42.595
43.3154
43.3626
43.2337
42.9205
42.4163
41.822
41.1453
40.5031
39.8809
39.3459
38.8571
38.484
38.2136
38.1275
38.1893
38.3718
38.7751
39.3516
40.3075
41.5338
43.2937
45.4827
48.4252
52.0308
56.6765
62.2781
69.1404
77.1838
86.5523
97.1831
108.984
121.872
135.573
149.959
164.684
179.563
194.309
208.719
222.655
235.916
248.468
260.166
271.034
280.991
290.088
298.293
305.654
312.149
317.879
322.813
327.049
330.554
333.453
335.657
337.417
338.497
339.264
339.317
339.11
338.602
337.504
336.374
334.488
332.859
330.402
328.361
325.448
323.111
319.844
317.322
313.798
311.189
307.487
304.874
301.061
298.51
294.637
292.196
288.302
286.006
282.124
280.002
276.156
274.252
269.696
15.9083
16.8598
18.5478
21.9465
28.3799
39.4951
55.4386
75.0452
95.4659
114.301
129.319
140.099
146.382
149.984
150.724
150.328
149.245
147.658
146.344
145.179
144.56
144.675
145.266
146.612
149.023
152.155
156.091
161.175
166.984
174.068
181.77
190.811
200.542
211.621
223.478
236.659
250.563
265.663
281.319
298.087
315.269
333.214
351.275
369.504
387.568
405.324
422.773
439.596
455.968
471.502
486.468
500.581
514.088
526.83
538.882
550.154
560.58
570.132
578.746
586.388
593.004
598.615
603.183
606.746
609.356
611.007
611.91
611.817
611.312
610.216
608.42
606.126
603.494
600.234
596.96
592.918
589.112
584.402
580.201
574.984
570.487
564.896
560.24
554.412
549.736
543.795
539.219
533.262
528.877
522.977
518.853
513.065
509.254
503.626
500.169
494.735
491.687
486.462
483.936
478.075
68.0174
90.4609
126.186
184.888
271.851
385.139
511.483
635.962
745.137
831.665
892.568
932.519
952.958
962.788
964.477
963.475
960.755
957.341
957.13
958.119
960.716
965.783
975.015
986.441
1000.19
1016.11
1034.54
1055.4
1077.79
1101.7
1126.55
1152.66
1179.22
1206.39
1233.35
1260.16
1286.2
1311.48
1335.64
1358.9
1380.64
1401.07
1419.85
1437.16
1452.99
1467.21
1480.22
1491.58
1501.88
1510.48
1518.12
1524.09
1529.15
1532.6
1535.1
1536
1535.67
1534.47
1531.95
1527.95
1523.04
1516.84
1509.79
1501.56
1492.65
1482.64
1472.15
1461.06
1449.53
1437.52
1425.47
1412.78
1400.45
1387.38
1374.96
1361.67
1349.26
1335.86
1323.57
1310.21
1298.22
1285.05
1273.52
1260.66
1249.73
1237.29
1227.06
1215.09
1205.62
1194.14
1185.46
1174.47
1166.65
1156.15
1149.25
1139.26
1133.37
1123.88
1119.24
1108.95
1464.7
1897.18
2399.05
2961.86
3563.07
4171.91
4745.92
5251.34
5654.91
5950.4
6132.07
6219.13
6206.57
6159.82
6061.31
5928.47
5778.28
5619.95
5459.5
5301.6
5149.22
5004.05
4867.33
4739.37
4620.7
4510.82
4409.69
4316.77
4231.8
4154.34
4083.9
4020.18
3962.65
3911.24
3865.42
3824.99
3789.33
3758.21
3731.12
3707.97
3688.03
3671.11
3656.55
3644.28
3633.98
3625.34
3618.39
3612.57
3608.23
3604.65
3602.3
3600.42
3599.51
3598.98
3599.07
3599.35
3599.98
3600.58
3601.58
3602.47
3603.64
3604.71
3605.99
3607.01
3608.24
3608.95
3609.67
3609.72
3609.47
3608.69
3607.48
3605.02
3602.6
3598.61
3594.92
3589.5
3584.6
3577.79
3571.74
3563.57
3556.42
3546.91
3538.69
3527.87
3518.64
3506.58
3496.54
3483.4
3472.85
3458.84
3448.15
3433.44
3423
3407.67
3397.81
3381.75
3372.66
3355.75
3347.13
3325.43
1109.47
1064.73
1122.16
1209.96
1238.62
1120.97
818.324
1979.49
54694.4
16167.2
7361.44
6106.29
6232.27
6482.88
6553.21
8024.35
74281.1
43628.2
24824.8
18455.1
16093.9
14996
14623.6
19659
76435.5
71022
54235.1
41182.3
32677.5
27152.2
24541.4
34051.3
69748.9
75709.9
67744
55644
44562
35840
30862.7
42699.4
57762.5
71182.2
67953.4
59049.1
48382.6
38737.3
32786.1
45228.7
47484
61841.2
62501.6
56623.3
47174.2
38183.1
32457.2
44253.2
39074.1
51818.6
53589.3
49842.1
42397.4
34676.7
29592.4
39770.6
32607.8
42981.3
44916.4
42128.8
36297.4
30037.8
25817.1
34042.6
27591.3
35615.2
37251.1
35108.4
30536.1
25550.4
22218
29373.6
23479.6
29578.7
30817.3
29115
25524.1
21626.1
19151.3
26007.9
20102.3
24690.6
25568.5
24177.8
21334
18292.4
16488.6
22967.1
17368.5
20780
21365.7
20206.2
17935.3
15552
14260.2
20347.2
15139.6
17658.4
18022.5
17041.5
15212.4
13331.2
12425.5
18143.2
13291.6
15150.8
15356.3
14519.6
13033
11538.1
10925.7
16316.9
11731.6
13111.2
13208.7
12492.2
11274.9
10080.9
9693.99
14800.4
10408.3
11440.4
11465.4
10849.5
9845.28
8887.27
8675.12
13534.4
9269.62
10053.4
10034.8
9502.75
8669.76
7899.5
7824.39
12467.8
8287.24
8891.26
8848.04
8386.65
7692.61
7073.52
7105.97
11559.2
7443.51
7912.58
7854.78
7453.92
6873.09
6376.52
6492.67
10778.4
6716.14
7083.54
7017.6
6668.47
6180.22
5783.22
5966.17
10101.2
6089.5
6378.15
6307.92
6002.7
5590.4
5274.6
5511.01
9508.98
5547.24
5774.53
5702.65
5434.85
5085.31
4836.15
5115.5
8988.41
5073.55
5253.74
5182.42
4946.97
4649.98
4456.16
4770.42
8529.51
4657.57
4801.45
4732.24
4524.95
4272.35
4124.97
4467.94
8123.78
4290.67
4406.4
4340.3
4157.66
3942.87
3834.75
4201.56
7763.97
3965.56
4059.34
3997.01
3836.04
3653.69
3579.01
3965.77
7443.58
3676.57
3752.97
3694.7
3552.86
3398.5
3352.49
3756.04
7157.03
3418.53
3481.15
3427.1
3302.2
3172.15
3150.89
3568.71
6899.89
3187.42
3238.99
3189.15
3079.29
2970.45
2970.73
3400.65
6668.32
2979.61
3022.35
2976.66
2880.22
2790.03
2808.69
3249.45
6458.95
2792.1
2827.76
2786.11
2701.68
2627.9
2662.59
3112.77
6268.9
2622.36
2652.37
2614.61
2540.99
2481.69
2530.48
2988.79
6095.81
2468.2
2493.72
2459.71
2395.84
2349.41
2410.66
2876
5937.69
2327.84
2349.81
2319.39
2264.32
2229.37
2301.69
2773.15
5792.88
2199.7
2218.87
2191.89
2144.79
2120.11
2202.33
2679.14
5659.97
2082.48
2099.46
2075.74
2035.87
2020.43
2111.49
2593.03
5537.79
1974.96
1990.25
1969.63
1936.34
1929.22
2028.27
2514.03
5425.37
1876.14
1890.13
1872.43
1845.15
1845.59
1951.84
2441.39
5321.84
1785.09
1798.12
1783.19
1761.41
1768.6
1881.53
2374.52
5226.44
1701.02
1713.34
1701.03
1684.29
1697.61
1816.66
2312.83
5138.48
1623.21
1635.04
1625.2
1613.09
1632.01
1756.68
2255.81
5057.32
1551.02
1562.54
1555.03
1547.18
1571.24
1701.06
2202.99
4982.33
1483.9
1495.25
1489.94
1486.03
1514.82
1649.4
2153.97
4912.91
1421.37
1432.66
1429.43
1429.17
1462.31
1601.28
2108.36
4848.49
1362.99
1374.33
1373.08
1376.16
1413.38
1556.39
2065.84
4788.53
1308.39
1319.86
1320.48
1326.66
1367.68
1514.42
2026.12
4732.55
1257.23
1268.89
1271.3
1280.38
1324.92
1475.13
1988.95
4680.11
1209.22
1221.13
1225.24
1237.05
1284.85
1438.28
1954.1
4630.85
1164.1
1176.32
1182.05
1196.41
1247.25
1403.68
1921.4
4584.49
1121.63
1134.21
1141.5
1158.25
1211.92
1371.15
1890.68
4540.81
1081.6
1094.58
1103.36
1122.36
1178.69
1340.55
1861.82
4499.62
1043.82
1057.25
1067.46
1088.58
1147.4
1311.72
1834.68
4460.82
1008.11
1022.02
1033.6
1056.74
1117.9
1284.56
1809.17
4424.31
974.324
988.731
1001.65
1026.68
1090.06
1258.94
1785.18
4390.01
942.296
957.231
971.43
998.273
1063.75
1234.76
1762.64
4357.87
911.907
927.39
942.83
971.393
1038.87
1211.91
1741.44
4327.8
883.015
899.064
915.708
945.919
1015.3
1190.31
1721.53
4299.74
855.528
872.156
889.967
921.755
992.957
1169.87
1702.78
4273.55
829.314
846.536
865.485
898.791
971.747
1150.51
1685.17
4249.12
804.316
822.14
842.195
876.958
951.593
1132.14
1668.56
4226.34
780.405
798.841
819.976
856.148
932.405
1114.71
1652.92
4205.01
757.561
776.613
798.797
836.323
914.138
1098.14
1638.15
4185.09
735.647
755.317
778.525
817.361
896.684
1082.35
1624.18
4166.27
714.681
734.968
759.171
799.266
880.038
1067.31
1610.97
4148.65
694.511
715.409
740.576
781.888
864.058
1052.91
1598.38
4131.78
675.198
696.699
722.802
765.286
848.797
1039.17
1586.45
4116
656.558
678.646
705.649
749.258
834.059
1025.92
1574.99
4100.61
638.708
661.37
689.245
733.938
819.979
1013.28
1564.12
4086.29
621.413
644.624
673.329
719.054
806.284
1000.98
1553.56
4072
604.859
628.605
658.116
704.839
793.215
989.266
1543.56
4058.85
588.749
612.997
643.265
690.929
780.394
977.745
1533.71
4045.39
573.356
598.094
629.101
677.682
768.206
966.826
1524.46
4033.22
558.299
583.487
615.179
664.614
756.131
955.957
1515.18
4020.36
543.96
569.593
601.961
652.24
744.737
945.754
1506.58
4009.03
529.855
555.886
588.869
639.918
733.317
935.447
1497.77
3996.63
516.494
542.927
576.53
628.356
722.668
925.924
1489.8
3986.06
503.264
530.045
564.196
616.714
711.841
916.12
1481.4
3974.01
490.828
517.973
552.693
605.932
701.916
907.271
1474.07
3964.24
478.411
505.856
541.062
594.919
691.639
897.933
1466.05
3952.5
466.863
494.635
530.363
584.895
682.43
889.774
1459.41
3943.63
455.197
483.225
519.379
574.462
672.659
880.865
1451.73
3932.19
444.501
472.821
509.458
565.175
664.16
873.411
1445.84
3924.36
433.519
462.051
499.058
555.263
654.844
864.888
1438.46
3913.24
423.638
452.43
489.881
546.689
647.043
858.152
1433.36
3906.52
413.261
442.223
479.992
537.227
638.114
849.953
1426.23
3895.73
404.158
433.349
471.527
529.337
630.992
843.93
1421.95
3890.08
394.296
423.616
462.063
520.246
622.375
835.983
1415.01
3879.67
385.94
415.459
454.28
513.009
615.901
830.642
1411.49
3874.76
376.496
406.107
445.152
504.206
607.522
822.89
1404.75
3864.81
368.872
398.651
438.03
497.592
601.645
818.138
1401.68
3860.27
359.743
389.58
429.146
488.995
593.443
810.557
1395.33
3850.79
352.854
382.825
422.679
482.981
588.107
806.284
1392.51
3846.39
343.936
373.938
413.948
474.513
580.029
798.856
1386.49
3837.13
337.805
367.904
408.145
469.089
575.189
794.956
1383.81
3832.68
328.988
359.096
399.475
460.675
567.176
787.638
1377.98
3823.43
323.654
353.816
394.357
455.836
562.788
784.009
1375.36
3818.87
314.822
344.984
385.662
447.414
554.819
776.833
1369.7
3809.74
310.316
340.479
381.233
443.14
550.813
773.317
1367.01
3805.07
299.657
329.774
370.639
432.811
540.959
764.35
1359.49
3794.21
)
;

boundaryField
{
    frontAndBack
    {
        type            empty;
    }
    inlet
    {
        type            fixedValue;
        value           uniform 14.855;
    }
    outlet
    {
        type            zeroGradient;
    }
    walls
    {
        lowReCorrection 0;
        blending        stepwise;
        n               2;
        type            epsilonWallFunction;
        value           nonuniform List<scalar> 
228
(
112.724
141.424
210.098
257.591
369.051
443.457
614.739
724.907
971.323
1128.61
1109.47
1064.73
1122.16
1209.96
1238.62
1120.97
818.324
1979.49
1979.49
8024.35
19659
34051.3
42699.4
45228.7
44253.2
39770.6
34042.6
29373.6
26007.9
22967.1
20347.2
18143.2
16316.9
14800.4
13534.4
12467.8
11559.2
10778.4
10101.2
9508.98
8988.41
8529.51
8123.78
7763.97
7443.58
7157.03
6899.89
6668.32
6458.95
6268.9
6095.81
5937.69
5792.88
5659.97
5537.79
5425.37
5321.84
5226.44
5138.48
5057.32
4982.33
4912.91
4848.49
4788.53
4732.55
4680.11
4630.85
4584.49
4540.81
4499.62
4460.82
4424.31
4390.01
4357.87
4327.8
4299.74
4273.55
4249.12
4226.34
4205.01
4185.09
4166.27
4148.65
4131.78
4116
4100.61
4086.29
4072
4058.85
4045.39
4033.22
4020.36
4009.03
3996.63
3986.06
3974.01
3964.24
3952.5
3943.63
3932.19
3924.36
3913.24
3906.52
3895.73
3890.08
3879.67
3874.76
3864.81
3860.27
3850.79
3846.39
3837.13
3832.68
3823.43
3818.87
3809.74
3805.07
3794.21
105.99
146.541
198.397
265.732
350.016
456.015
585.642
743.629
931.813
1154
1464.7
1897.18
2399.05
2961.86
3563.07
4171.91
4745.92
5251.34
5654.91
5950.4
6132.07
6219.13
6206.57
6159.82
6061.31
5928.47
5778.28
5619.95
5459.5
5301.6
5149.22
5004.05
4867.33
4739.37
4620.7
4510.82
4409.69
4316.77
4231.8
4154.34
4083.9
4020.18
3962.65
3911.24
3865.42
3824.99
3789.33
3758.21
3731.12
3707.97
3688.03
3671.11
3656.55
3644.28
3633.98
3625.34
3618.39
3612.57
3608.23
3604.65
3602.3
3600.42
3599.51
3598.98
3599.07
3599.35
3599.98
3600.58
3601.58
3602.47
3603.64
3604.71
3605.99
3607.01
3608.24
3608.95
3609.67
3609.72
3609.47
3608.69
3607.48
3605.02
3602.6
3598.61
3594.92
3589.5
3584.6
3577.79
3571.74
3563.57
3556.42
3546.91
3538.69
3527.87
3518.64
3506.58
3496.54
3483.4
3472.85
3458.84
3448.15
3433.44
3423
3407.67
3397.81
3381.75
3372.66
3355.75
3347.13
3325.43
)
;
    }
}


// ************************************************************************* //
