/*--------------------------------*- C++ -*----------------------------------*\
| =========                 |                                                 |
| \\      /  F ield         | OpenFOAM: The Open Source CFD Toolbox           |
|  \\    /   O peration     | Version:  v2012                                 |
|   \\  /    A nd           | Website:  www.openfoam.com                      |
|    \\/     M anipulation  |                                                 |
\*---------------------------------------------------------------------------*/
FoamFile
{
    version     2.0;
    format      ascii;
    class       volScalarField;
    location    "0.168";
    object      k.air;
}
// * * * * * * * * * * * * * * * * * * * * * * * * * * * * * * * * * * * * * //

dimensions      [0 2 -2 0 0 0 0];


internalField   nonuniform List<scalar> 
5600
(
0.606314
0.840791
0.955161
0.978113
0.949232
0.897502
0.839661
0.787136
0.743465
0.707092
0.679567
0.658134
0.643587
0.632456
0.625443
0.620006
0.616202
0.613489
0.610663
0.609159
0.606722
0.605743
0.604012
0.603154
0.602573
0.601427
0.601916
0.600442
0.601473
0.600008
0.600814
0.599859
0.59969
0.59972
0.598422
0.599266
0.59742
0.598295
0.596969
0.596826
0.597033
0.59518
0.59713
0.594012
0.596738
0.593744
0.595623
0.594384
0.594045
0.595387
0.59275
0.595834
0.592397
0.595375
0.593091
0.594282
0.594186
0.593399
0.594867
0.59342
0.594813
0.594239
0.59438
0.595273
0.59419
0.595976
0.594629
0.596219
0.595591
0.59622
0.596748
0.596333
0.597841
0.59669
0.598827
0.597226
0.599708
0.598039
0.600426
0.599116
0.601012
0.600284
0.601686
0.601168
0.602822
0.601642
0.604237
0.602379
0.604954
0.604519
0.603759
0.608765
0.600434
0.614723
0.594453
0.62574
0.574534
0.666565
0.484111
0.832788
0.371685
0.315479
0.288744
0.275533
0.275131
0.284445
0.307582
0.344736
0.387334
0.430002
0.471655
0.508837
0.54189
0.5694
0.591849
0.61005
0.622975
0.63463
0.640893
0.648622
0.651763
0.656956
0.659933
0.66252
0.667012
0.666515
0.672161
0.669648
0.675247
0.672408
0.675687
0.675163
0.674494
0.677313
0.673482
0.678166
0.673729
0.677147
0.675851
0.674605
0.678859
0.672162
0.681257
0.671495
0.681392
0.673915
0.678607
0.678444
0.67481
0.682631
0.672591
0.684276
0.673779
0.682562
0.677828
0.679455
0.681894
0.677983
0.683692
0.679446
0.682959
0.682777
0.681541
0.685752
0.681419
0.687124
0.683165
0.686972
0.685996
0.686499
0.688789
0.686495
0.691196
0.686877
0.693271
0.687713
0.694791
0.689402
0.695606
0.691796
0.696106
0.694004
0.697305
0.694823
0.699969
0.694437
0.702937
0.695352
0.703271
0.700813
0.699129
0.710582
0.692963
0.719612
0.688807
0.728537
0.673959
0.763519
0.606365
0.866284
0.369222
0.281756
0.227925
0.192718
0.168944
0.153351
0.146121
0.14304
0.147586
0.15449
0.167599
0.181507
0.199517
0.218567
0.238829
0.261227
0.281584
0.305665
0.325157
0.349434
0.368602
0.390863
0.40944
0.424557
0.441777
0.449488
0.466049
0.468897
0.482595
0.484997
0.493192
0.498747
0.50049
0.509663
0.506975
0.517021
0.514428
0.520386
0.523285
0.52136
0.531961
0.522462
0.538236
0.526309
0.540171
0.533933
0.538174
0.543074
0.535721
0.55026
0.536261
0.552931
0.541463
0.551337
0.549087
0.548977
0.555291
0.549704
0.557836
0.55403
0.557334
0.559615
0.556743
0.563842
0.558193
0.565653
0.561858
0.565841
0.566228
0.566011
0.570161
0.566853
0.573634
0.567937
0.576645
0.569569
0.578687
0.572369
0.579765
0.575904
0.58065
0.578716
0.582869
0.579331
0.586935
0.578703
0.590684
0.580266
0.590846
0.586949
0.587044
0.596072
0.58512
0.599728
0.590416
0.598619
0.591423
0.611272
0.569436
0.633268
0.370202
0.280442
0.224389
0.185648
0.159076
0.137529
0.123754
0.11043
0.103905
0.0960195
0.0943975
0.0917181
0.0931606
0.0956475
0.0986412
0.106704
0.110993
0.124037
0.13071
0.147092
0.158334
0.17532
0.193521
0.208242
0.232424
0.243409
0.269716
0.278084
0.300756
0.310295
0.324897
0.338932
0.344127
0.362186
0.361915
0.378988
0.380369
0.389571
0.399408
0.396765
0.416366
0.40421
0.427878
0.415138
0.432188
0.429589
0.431729
0.444014
0.431911
0.454124
0.436673
0.457591
0.446992
0.456522
0.458384
0.455811
0.466406
0.459734
0.469576
0.46738
0.469703
0.475103
0.47055
0.480285
0.47409
0.482578
0.479802
0.483515
0.485629
0.484746
0.490721
0.486686
0.495424
0.488644
0.499429
0.49132
0.501964
0.495502
0.503412
0.500337
0.504966
0.503747
0.508515
0.504358
0.513938
0.504072
0.518134
0.506924
0.517992
0.514927
0.514729
0.523567
0.515948
0.5246
0.52539
0.521372
0.530485
0.528034
0.523797
0.532463
0.370423
0.280516
0.224737
0.185537
0.159077
0.136827
0.122505
0.107671
0.0994696
0.0889376
0.0837295
0.0770407
0.0725404
0.0702783
0.0647403
0.067236
0.0606708
0.0667075
0.0615417
0.067631
0.0683786
0.0705311
0.0811284
0.078129
0.0981098
0.0932472
0.117269
0.116502
0.136847
0.145675
0.157412
0.177033
0.18067
0.206118
0.206428
0.228866
0.234841
0.245292
0.263816
0.25868
0.289185
0.273936
0.306338
0.294404
0.31429
0.318538
0.317597
0.340581
0.323282
0.355015
0.335293
0.360394
0.353065
0.36155
0.369437
0.364429
0.379819
0.37325
0.384355
0.385234
0.386316
0.395661
0.389862
0.402245
0.39646
0.405803
0.404843
0.408398
0.412566
0.411478
0.41932
0.415012
0.425801
0.418309
0.431101
0.422586
0.434256
0.428492
0.436292
0.434777
0.438893
0.438889
0.444004
0.439879
0.450647
0.440577
0.4551
0.445067
0.454863
0.454233
0.452602
0.462427
0.456323
0.462653
0.467287
0.460502
0.473144
0.466429
0.471032
0.469893
0.370466
0.280522
0.224895
0.185661
0.159336
0.137055
0.122774
0.107916
0.0994358
0.0889905
0.0828309
0.0764156
0.0699254
0.0680875
0.0596386
0.0620935
0.0523533
0.0563722
0.0491714
0.0493895
0.0503875
0.0416223
0.0541954
0.0362026
0.0571364
0.0372261
0.0566686
0.0463651
0.0541032
0.0611995
0.0544566
0.0768252
0.0627263
0.0896526
0.0806524
0.0984496
0.106147
0.105958
0.13401
0.117021
0.158009
0.135653
0.1738
0.163109
0.181319
0.194872
0.18711
0.222047
0.198975
0.238717
0.218922
0.245186
0.244055
0.249256
0.26493
0.257655
0.277546
0.273051
0.284354
0.290263
0.28989
0.303965
0.29796
0.31276
0.308895
0.31883
0.320803
0.324528
0.331113
0.330627
0.340349
0.336472
0.349445
0.341859
0.356648
0.34855
0.361053
0.356902
0.364384
0.365179
0.368783
0.370526
0.375958
0.372701
0.383982
0.375243
0.388993
0.381744
0.389374
0.392043
0.388859
0.400028
0.394892
0.400689
0.406333
0.400797
0.412295
0.407185
0.412311
0.412047
0.37046
0.280542
0.224887
0.185752
0.159332
0.137256
0.122745
0.108273
0.0993191
0.0895226
0.0825641
0.0770375
0.0695136
0.0684807
0.0592427
0.0616582
0.0522573
0.0543337
0.0494193
0.0452695
0.0502236
0.0356379
0.051676
0.0290673
0.0494672
0.0292336
0.0413192
0.0362398
0.02976
0.0453658
0.0211776
0.0499439
0.0217686
0.0460232
0.0334758
0.0354649
0.0518114
0.0259022
0.0680186
0.0257747
0.0759573
0.0385909
0.0740774
0.0652414
0.0655128
0.0948706
0.0653068
0.114852
0.0801929
0.122959
0.103421
0.124027
0.131387
0.129197
0.151412
0.141222
0.162419
0.161547
0.170481
0.181946
0.17958
0.197082
0.191938
0.207277
0.206367
0.215786
0.22076
0.22482
0.233168
0.233993
0.245213
0.242364
0.257537
0.250606
0.267131
0.26067
0.273467
0.272106
0.27898
0.28285
0.286082
0.290102
0.295909
0.294577
0.305675
0.29988
0.312103
0.30849
0.314527
0.319611
0.316856
0.327846
0.324782
0.330656
0.335752
0.333774
0.34219
0.340463
0.344574
0.345741
0.370425
0.280603
0.224788
0.185892
0.159163
0.137506
0.122499
0.10863
0.0990333
0.0899134
0.0823611
0.077282
0.0696149
0.0683104
0.0598865
0.0608665
0.0534715
0.053051
0.0507234
0.0441757
0.0505592
0.0357842
0.0498799
0.031134
0.0451681
0.0325641
0.0355414
0.0386274
0.0243566
0.0440997
0.0174958
0.0431312
0.0197172
0.0331492
0.0308721
0.017752
0.0437781
0.0065666
0.0482485
0.00679192
0.0442175
0.0136339
0.0330956
0.0372507
0.00718288
0.0568307
0.00286407
0.0621776
0.0194419
0.0520501
0.0360673
0.0379629
0.0570294
0.0398217
0.0627027
0.049131
0.0634878
0.0677871
0.0689684
0.0840579
0.0781604
0.0940598
0.0897218
0.100977
0.10268
0.109753
0.116264
0.12049
0.128276
0.130222
0.141227
0.139036
0.154996
0.1489
0.165297
0.161099
0.172683
0.174263
0.180033
0.186456
0.189432
0.19532
0.200982
0.20227
0.211769
0.209897
0.219898
0.21947
0.225091
0.230514
0.23038
0.239526
0.238993
0.245849
0.249068
0.251752
0.257134
0.258269
0.262484
0.263879
0.370379
0.280685
0.224662
0.186054
0.158951
0.137757
0.122226
0.108917
0.0988038
0.0900803
0.0823808
0.0770926
0.0701172
0.067593
0.0609096
0.0597929
0.0545704
0.0523505
0.0509206
0.0449278
0.0488624
0.0386294
0.0462538
0.0353262
0.0411689
0.0358283
0.0336957
0.0384947
0.0264152
0.0398222
0.0229128
0.0365693
0.025312
0.0280862
0.0322281
0.0176306
0.0384729
0.0114843
0.0379979
0.0136647
0.0304862
0.0212702
0.0193084
0.0328077
0.00623726
0.0400934
0.00402024
0.0360892
0.013408
0.0250817
0.0256194
0.0128815
0.0308127
0.0156255
0.0269067
0.0239643
0.0237693
0.0301665
0.0219647
0.032363
0.0270681
0.0340764
0.0321329
0.0340499
0.0362424
0.0392657
0.0425085
0.046782
0.0479606
0.0501612
0.0564467
0.0539632
0.0667105
0.0610787
0.0730892
0.0697263
0.078139
0.0798007
0.0846784
0.0906338
0.0934946
0.0998047
0.103379
0.108121
0.113219
0.115757
0.122827
0.123927
0.130535
0.133562
0.137658
0.143432
0.145298
0.15339
0.154582
0.161158
0.164833
0.167549
0.173132
0.173254
0.370345
0.280748
0.224571
0.186173
0.158801
0.137926
0.122051
0.109074
0.0987063
0.0900867
0.0825289
0.0767757
0.0706475
0.0669069
0.0617175
0.0590437
0.0551269
0.0522585
0.050409
0.0462458
0.0467993
0.0413701
0.0432442
0.0382303
0.0389865
0.0368616
0.0342333
0.0363076
0.0301547
0.0350382
0.0281019
0.0318887
0.0285712
0.0269844
0.0304683
0.022193
0.0312217
0.0202767
0.0285787
0.0221483
0.0232775
0.0255003
0.0180365
0.0279619
0.0148478
0.0273342
0.0162229
0.0225797
0.0202116
0.0180438
0.0221583
0.0160197
0.0209588
0.0181811
0.0169167
0.0208519
0.0155236
0.0208761
0.0154311
0.0192679
0.0172626
0.0177929
0.0191125
0.0162877
0.0192966
0.017841
0.0191107
0.0209683
0.018988
0.0210822
0.0209084
0.0215923
0.023934
0.0238557
0.0261867
0.0249697
0.0288997
0.0270769
0.0321203
0.0317772
0.0356549
0.0381279
0.0384634
0.0449469
0.0432913
0.049284
0.0512081
0.0531419
0.0590371
0.0585346
0.066007
0.0670392
0.0712719
0.0779471
0.078801
0.0869812
0.0889133
0.094314
0.0990239
0.100123
0.37033
0.28078
0.224534
0.18623
0.15874
0.138
0.121986
0.109129
0.0986898
0.0900544
0.082639
0.0765844
0.0709274
0.0665692
0.0620718
0.0587547
0.0552628
0.0523779
0.0499633
0.0470511
0.0456789
0.0426863
0.0419247
0.0393066
0.0383794
0.0367912
0.0350519
0.0347508
0.0322564
0.0326454
0.030369
0.0300827
0.0294533
0.0272069
0.0289074
0.0248968
0.0275847
0.0241794
0.0248343
0.0249107
0.0215994
0.0254564
0.0196326
0.0244597
0.019542
0.0220552
0.020614
0.0194012
0.0212293
0.0182243
0.0202679
0.0184585
0.0187616
0.0189921
0.017559
0.0191183
0.017185
0.0192334
0.0164975
0.019925
0.0162499
0.0198414
0.0179028
0.0184522
0.0204646
0.0177784
0.0224716
0.0190557
0.0233601
0.0216915
0.023485
0.0260342
0.0240172
0.0303774
0.0268535
0.0325599
0.0323134
0.0342615
0.0387808
0.0375177
0.0445632
0.0438579
0.0483953
0.0524828
0.0529734
0.0598847
0.0599733
0.0658676
0.0683679
0.0711979
0.077479
0.0783669
0.0852223
0.088496
0.0931169
0.0989373
0.101577
0.107899
0.110532
0.114339
0.370326
0.280797
0.22453
0.186254
0.158729
0.138026
0.121974
0.109143
0.0986944
0.0900332
0.0826825
0.0765114
0.0710129
0.0664642
0.0621489
0.0587016
0.0552202
0.0524989
0.0496961
0.0474008
0.0452182
0.0431275
0.0415154
0.0395185
0.0383664
0.036488
0.0355959
0.0339685
0.0331176
0.0318252
0.0309905
0.0298331
0.0293278
0.027881
0.0280027
0.0262358
0.0265513
0.0253307
0.0247147
0.025036
0.0230487
0.024515
0.0223944
0.0233372
0.0226317
0.0222421
0.0227815
0.0222591
0.022275
0.0235165
0.0218057
0.024886
0.0228578
0.0254165
0.0258101
0.0257995
0.0293624
0.028
0.0319139
0.0328621
0.034132
0.038805
0.038169
0.0441769
0.0448183
0.0491745
0.0531365
0.0548868
0.0616493
0.0624002
0.0693654
0.0720767
0.0766972
0.0827637
0.0850249
0.0929351
0.0948867
0.102126
0.105914
0.110751
0.117207
0.12009
0.127364
0.130668
0.13624
0.141243
0.144647
0.150999
0.153409
0.159486
0.163286
0.167515
0.173269
0.176443
0.18238
0.185851
0.1901
0.194377
0.196906
0.200809
0.370326
0.280811
0.224539
0.186269
0.158733
0.138036
0.121972
0.10914
0.0986925
0.0900105
0.0826851
0.0764664
0.0710161
0.0664109
0.062128
0.05868
0.0551298
0.0525626
0.049501
0.0475725
0.0449486
0.0433477
0.0413068
0.0396423
0.0384218
0.0363829
0.0360538
0.0336793
0.0339085
0.0316851
0.0318398
0.0303801
0.0299824
0.0295485
0.0286216
0.0290286
0.0279295
0.0288896
0.028008
0.0291985
0.0291589
0.0298736
0.031648
0.0312332
0.035141
0.034201
0.0389782
0.0395718
0.0430619
0.0471325
0.048367
0.0557328
0.0559847
0.0642471
0.0662838
0.0727309
0.0783298
0.082353
0.0905327
0.0939901
0.10208
0.107263
0.113527
0.120759
0.125711
0.133504
0.138512
0.145232
0.151552
0.156715
0.163927
0.168595
0.175271
0.180768
0.185955
0.192484
0.196449
0.203162
0.207103
0.212711
0.21793
0.221803
0.228004
0.231338
0.236762
0.240932
0.244688
0.24993
0.252484
0.257994
0.261005
0.265353
0.269805
0.272877
0.277845
0.280518
0.284441
0.287401
0.289863
0.29276
0.370327
0.280823
0.224547
0.186273
0.158727
0.138021
0.121947
0.109102
0.0986484
0.089945
0.0826274
0.076376
0.0709541
0.0663122
0.0620737
0.0586128
0.0550961
0.0525967
0.0495136
0.047804
0.0450689
0.0438875
0.0416799
0.0406197
0.039339
0.0379543
0.0379548
0.0361334
0.037354
0.0356091
0.0374865
0.036791
0.0385748
0.0398102
0.0411937
0.0445513
0.0459835
0.0509982
0.0533186
0.0592474
0.0633492
0.0692423
0.0757029
0.0810092
0.0898421
0.0946186
0.104829
0.110126
0.11984
0.127044
0.134838
0.1444
0.149911
0.160894
0.165676
0.17585
0.181914
0.189608
0.197602
0.20302
0.211757
0.216682
0.224271
0.230167
0.235969
0.242688
0.247708
0.254123
0.259325
0.26462
0.270239
0.274755
0.280155
0.284704
0.289219
0.294137
0.297785
0.302785
0.306195
0.310607
0.314642
0.317951
0.322584
0.325333
0.329479
0.332644
0.335548
0.339447
0.341452
0.345684
0.347947
0.351493
0.354832
0.357411
0.361293
0.363447
0.366658
0.368888
0.371055
0.37314
0.370324
0.28083
0.224528
0.186235
0.158662
0.137928
0.12183
0.108957
0.0984977
0.0897815
0.0825008
0.0762765
0.0709782
0.0664251
0.0624401
0.0591584
0.0560888
0.0539359
0.0515288
0.0504463
0.0486666
0.0486139
0.0477474
0.0486636
0.0492455
0.0509673
0.0536284
0.0561752
0.0612164
0.0649635
0.0722133
0.0778217
0.086448
0.0942662
0.103388
0.113284
0.12247
0.133836
0.143156
0.155163
0.164829
0.176159
0.186352
0.196197
0.207045
0.215041
0.226194
0.232895
0.243287
0.250043
0.25834
0.266321
0.272154
0.281257
0.285368
0.29415
0.298329
0.305233
0.310691
0.315356
0.321868
0.325383
0.331599
0.335405
0.340385
0.344871
0.348793
0.353357
0.356861
0.360865
0.364455
0.367914
0.371422
0.374711
0.377775
0.381095
0.383708
0.386949
0.389476
0.392326
0.395221
0.397422
0.400652
0.40255
0.405409
0.407672
0.409678
0.412588
0.41401
0.41726
0.418952
0.42179
0.424379
0.426444
0.429552
0.431238
0.433852
0.435597
0.437347
0.438936
0.370306
0.28079
0.224403
0.186076
0.158442
0.13769
0.121603
0.108815
0.0985631
0.0901575
0.0834311
0.0779559
0.0737078
0.0703998
0.0680907
0.0667186
0.0662537
0.0668949
0.0682546
0.0711695
0.0747096
0.0803983
0.0867071
0.0953752
0.104792
0.116105
0.128242
0.141104
0.155304
0.169057
0.184681
0.19851
0.213573
0.22674
0.240273
0.252814
0.264405
0.276331
0.286091
0.297108
0.305632
0.315291
0.323231
0.330987
0.338811
0.344614
0.352529
0.356916
0.364492
0.368578
0.37476
0.379602
0.383676
0.389472
0.39182
0.39789
0.399837
0.404881
0.407699
0.411035
0.414955
0.417047
0.421285
0.423216
0.42684
0.429296
0.432096
0.434952
0.437253
0.440058
0.442277
0.444839
0.447027
0.449433
0.451388
0.453703
0.455488
0.457654
0.459515
0.461357
0.46354
0.464945
0.467333
0.46859
0.470659
0.472302
0.473706
0.475972
0.476974
0.4796
0.480866
0.483231
0.485281
0.486949
0.489505
0.490769
0.492945
0.494258
0.49563
0.496899
0.370195
0.280542
0.224228
0.186054
0.158711
0.13852
0.12343
0.112322
0.104423
0.099278
0.096844
0.0965654
0.098375
0.102006
0.107627
0.115022
0.124316
0.135499
0.148516
0.163494
0.180198
0.198877
0.218134
0.238421
0.258169
0.277778
0.295797
0.31262
0.328274
0.342014
0.355291
0.366218
0.377412
0.38642
0.395592
0.403547
0.410872
0.418261
0.424021
0.430712
0.435288
0.441009
0.445102
0.449376
0.453459
0.456353
0.460702
0.462579
0.467018
0.468588
0.472383
0.474604
0.477072
0.480307
0.481471
0.485363
0.485974
0.489544
0.490693
0.493103
0.49525
0.496566
0.499325
0.500234
0.502849
0.504061
0.50612
0.507776
0.509372
0.511249
0.51265
0.514537
0.515872
0.51773
0.518943
0.520737
0.521959
0.523531
0.52495
0.526192
0.527942
0.528818
0.530709
0.53151
0.533124
0.534302
0.535371
0.53718
0.537916
0.540136
0.541064
0.54312
0.544716
0.546092
0.548181
0.549069
0.550896
0.551767
0.552829
0.553814
0.369474
0.281384
0.228611
0.193059
0.170708
0.155957
0.150115
0.150451
0.156555
0.167302
0.181632
0.198806
0.218423
0.239719
0.262346
0.285631
0.309384
0.333119
0.356902
0.380341
0.40323
0.42396
0.441613
0.457458
0.470356
0.482524
0.492431
0.501025
0.508437
0.514427
0.520367
0.524646
0.529525
0.532779
0.536595
0.539455
0.542206
0.545088
0.547012
0.549904
0.55139
0.554023
0.555467
0.557551
0.559296
0.560539
0.562694
0.563243
0.56569
0.565923
0.568214
0.568846
0.570337
0.571873
0.572399
0.574701
0.574653
0.577111
0.577263
0.579072
0.580022
0.580938
0.582584
0.582983
0.584825
0.585269
0.586828
0.587645
0.588815
0.589951
0.590896
0.592219
0.593014
0.594433
0.595093
0.596514
0.597232
0.598433
0.599405
0.600269
0.6016
0.602111
0.60361
0.604038
0.605349
0.606112
0.606986
0.608366
0.608927
0.610774
0.611415
0.613185
0.614321
0.615476
0.617085
0.617664
0.619167
0.619625
0.62047
0.621169
0.37219
0.315456
0.292823
0.279519
0.286385
0.295375
0.331462
0.373612
0.41862
0.463064
0.504556
0.541598
0.57348
0.599922
0.621222
0.63781
0.650539
0.660086
0.667393
0.673094
0.677577
0.681742
0.685009
0.688254
0.690458
0.692777
0.694221
0.695649
0.696507
0.69688
0.697458
0.697121
0.697606
0.697025
0.697301
0.696876
0.696787
0.696769
0.696343
0.6967
0.696194
0.696682
0.696336
0.696728
0.696706
0.696668
0.697097
0.696637
0.697423
0.696732
0.697656
0.697152
0.697737
0.697911
0.697867
0.69877
0.698269
0.699567
0.699047
0.700172
0.700172
0.700699
0.701361
0.701407
0.702442
0.702379
0.703405
0.703568
0.70437
0.704834
0.705456
0.706188
0.706608
0.707559
0.707842
0.708894
0.709217
0.710144
0.710718
0.711366
0.712277
0.712597
0.713722
0.713928
0.714991
0.71544
0.71621
0.717199
0.717683
0.719122
0.71956
0.721006
0.721716
0.722674
0.723768
0.724134
0.725249
0.725334
0.725962
0.726213
0.606742
0.839813
0.952198
0.969555
0.937536
0.881261
0.821357
0.769007
0.724418
0.688387
0.660681
0.640128
0.625398
0.614953
0.607666
0.602389
0.598512
0.595429
0.592911
0.590816
0.588955
0.587563
0.586297
0.585518
0.584689
0.584267
0.583712
0.583447
0.583078
0.582719
0.582376
0.581823
0.581461
0.580787
0.580379
0.579707
0.579213
0.578639
0.578056
0.577631
0.577002
0.576695
0.576113
0.575865
0.575413
0.575129
0.574871
0.574487
0.574424
0.573955
0.574021
0.573573
0.573637
0.573377
0.573294
0.573322
0.573059
0.573326
0.573011
0.573342
0.573179
0.573388
0.573473
0.57353
0.573812
0.5738
0.574177
0.574214
0.574582
0.57474
0.575065
0.575357
0.575623
0.576042
0.576268
0.57678
0.57702
0.577546
0.577879
0.578329
0.5788
0.579134
0.579728
0.579998
0.580634
0.580963
0.581525
0.582031
0.582442
0.58312
0.583392
0.584065
0.584325
0.58478
0.585113
0.585242
0.585563
0.585434
0.585385
0.584775
0.0269217
2.23752
2.85147
3.05697
3.20337
3.25858
3.24154
3.17084
3.06683
2.95548
2.84646
2.7504
2.65749
2.5681
2.46262
2.34205
2.18567
2.01515
1.82232
1.621
1.44147
1.25889
1.1144
1.02746
0.928965
0.838201
0.785711
0.713616
0.624611
0.545721
0.453978
0.392433
0.388435
0.39444
0.434309
0.527897
0.620248
0.675249
0.694607
0.685638
0.663963
0.649156
0.643902
0.638163
0.623368
0.595962
0.557601
0.513149
0.464237
0.410768
0.353637
0.295325
0.239312
0.188856
0.145951
0.111132
0.0839557
0.0634454
0.0483369
0.0373458
0.0293528
0.0235312
0.0193052
0.0162669
0.0141094
0.0126069
0.011579
0.0108934
0.0104384
0.0101299
0.00989137
0.00967666
0.00945757
0.00923798
0.00902527
0.00883959
0.00868755
0.00857791
0.00850106
0.00845405
0.0084229
0.00840674
0.008395
0.00839071
0.00838585
0.00838565
0.00838298
0.00838412
0.00838208
0.00838368
0.00838178
0.00838358
0.00838166
0.00838356
0.00838159
0.00838357
0.00838157
0.00838374
0.00838206
0.00838567
0.393449
1.0977
2.03454
2.48486
2.71975
2.82007
2.83617
2.78822
2.70252
2.60439
2.50644
2.42283
2.34361
2.2698
2.17926
2.07399
1.93064
1.77247
1.59247
1.40055
1.23401
1.06272
0.921082
0.846115
0.756276
0.664361
0.623414
0.558547
0.46507
0.403565
0.336705
0.289609
0.314734
0.341798
0.369632
0.453824
0.556472
0.62908
0.663388
0.663725
0.645488
0.630165
0.622985
0.614964
0.597237
0.567139
0.52811
0.484513
0.43756
0.386585
0.332127
0.276521
0.222974
0.174546
0.133266
0.0999251
0.0742649
0.0553022
0.0416752
0.0320567
0.0253078
0.0205759
0.0172468
0.0148916
0.0132167
0.0120312
0.0111973
0.0106235
0.0102302
0.00995814
0.00974711
0.00955968
0.0093677
0.00917408
0.00898426
0.00881742
0.00867742
0.0085748
0.00850117
0.00845624
0.00842566
0.00841011
0.00839809
0.00839409
0.0083888
0.00838889
0.00838579
0.00838729
0.00838482
0.00838684
0.00838449
0.00838675
0.00838436
0.00838679
0.00838433
0.00838692
0.00838447
0.00838741
0.00838542
0.00839022
0.556743
0.547739
1.00134
1.54745
1.94561
2.16274
2.26134
2.27493
2.2374
2.17529
2.10496
2.04536
1.98722
1.93081
1.85617
1.76798
1.64072
1.49791
1.33577
1.15531
1.00306
0.844124
0.702846
0.642273
0.563312
0.466155
0.439476
0.390131
0.294452
0.263026
0.24846
0.228218
0.283665
0.342392
0.348793
0.394398
0.488603
0.573277
0.622909
0.634369
0.620877
0.605491
0.596305
0.58563
0.564865
0.532572
0.493311
0.450977
0.406281
0.358176
0.30686
0.254486
0.203966
0.158149
0.119088
0.0878127
0.0641886
0.0471405
0.0352724
0.0272107
0.0217867
0.0181307
0.0156169
0.0138435
0.0125572
0.0116146
0.0109216
0.0104236
0.0100681
0.00981615
0.00962059
0.00945207
0.00928284
0.00911361
0.00894609
0.00879829
0.0086712
0.00857607
0.00850554
0.00846218
0.00843165
0.00841624
0.00840365
0.00839965
0.0083938
0.00839406
0.00839048
0.00839228
0.00838938
0.00839178
0.008389
0.0083917
0.00838887
0.00839179
0.00838888
0.00839207
0.0083892
0.00839292
0.00839067
0.00839674
0.530951
0.498995
0.557315
0.752661
1.04476
1.3174
1.50689
1.60674
1.64182
1.64021
1.61802
1.59767
1.57197
1.5413
1.48832
1.42055
1.31244
1.18727
1.04455
0.876651
0.739217
0.594345
0.454408
0.411567
0.353351
0.25572
0.249576
0.23662
0.161737
0.175509
0.230696
0.247649
0.318411
0.409496
0.405525
0.382573
0.432531
0.512453
0.573172
0.596204
0.588754
0.574005
0.562893
0.549239
0.525394
0.491625
0.452904
0.41276
0.371065
0.326357
0.278627
0.229846
0.182753
0.140068
0.103883
0.0753251
0.054218
0.039454
0.0295632
0.0231252
0.0189737
0.0162613
0.0144154
0.0130942
0.0120975
0.0113283
0.0107303
0.0102787
0.00994207
0.00969772
0.00950872
0.00935263
0.00920248
0.0090564
0.00891033
0.00878005
0.00866557
0.00857902
0.00851261
0.00847105
0.00844041
0.00842482
0.00841138
0.00840715
0.00840061
0.00840088
0.00839681
0.00839882
0.0083955
0.00839822
0.00839504
0.00839813
0.00839489
0.00839827
0.00839495
0.00839869
0.00839547
0.00839993
0.00839749
0.00840482
0.472994
0.466249
0.458923
0.484947
0.547433
0.651744
0.776229
0.888272
0.967643
1.01951
1.04715
1.07055
1.08233
1.08539
1.06103
1.01735
0.932806
0.828892
0.706832
0.557683
0.437929
0.31854
0.200564
0.186525
0.169185
0.105588
0.135275
0.172216
0.146941
0.191463
0.28851
0.336165
0.409171
0.522254
0.534461
0.448687
0.416161
0.459886
0.518209
0.549416
0.548345
0.534968
0.522168
0.505447
0.478888
0.444811
0.408385
0.372037
0.334636
0.294134
0.250305
0.205079
0.16134
0.121928
0.0889886
0.0635396
0.0452686
0.0329495
0.0250193
0.0200541
0.0169513
0.0149595
0.0135985
0.0125949
0.011797
0.0111435
0.0106047
0.0101771
0.00984522
0.00959883
0.00940931
0.0092598
0.00912427
0.00899857
0.0088728
0.00875963
0.00865836
0.00858154
0.00852044
0.00848118
0.00845063
0.00843464
0.00842029
0.00841556
0.0084083
0.0084084
0.00840387
0.00840592
0.00840229
0.00840518
0.00840173
0.00840505
0.00840156
0.00840522
0.00840167
0.00840576
0.00840236
0.00840732
0.00840485
0.00841314
0.411752
0.413917
0.404661
0.401884
0.400285
0.407371
0.425099
0.44739
0.471849
0.49749
0.519209
0.548281
0.57208
0.593625
0.593865
0.569999
0.51258
0.437388
0.341976
0.232028
0.147982
0.0910698
0.0660152
0.097603
0.12252
0.12442
0.170898
0.214774
0.212545
0.269284
0.385123
0.457745
0.534492
0.659886
0.701651
0.59116
0.467361
0.439537
0.470389
0.4986
0.500908
0.488859
0.474587
0.455176
0.427291
0.395295
0.364122
0.334272
0.303252
0.268066
0.228153
0.185709
0.144298
0.107328
0.0770969
0.054416
0.0386749
0.0284216
0.0220231
0.0181112
0.0157024
0.0141641
0.0131016
0.0122939
0.01162
0.0110376
0.010532
0.0101124
0.00977468
0.00951821
0.00932136
0.00917175
0.00904472
0.00893481
0.00882816
0.00873335
0.00864693
0.00858045
0.00852521
0.00848854
0.00845859
0.00844235
0.00842737
0.00842205
0.00841426
0.00841399
0.00840916
0.00841106
0.00840729
0.00841013
0.00840663
0.00840995
0.00840644
0.00841011
0.00840658
0.0084107
0.00840738
0.00841244
0.00841014
0.00841881
0.344143
0.34797
0.342085
0.337727
0.327363
0.3163
0.307307
0.294142
0.283143
0.271668
0.258798
0.250844
0.24385
0.235768
0.229613
0.203824
0.168176
0.131556
0.080162
0.0467742
0.0649612
0.102735
0.134557
0.169565
0.190887
0.202224
0.245548
0.283229
0.296063
0.370581
0.50198
0.596848
0.684448
0.817804
0.887159
0.781294
0.593298
0.477813
0.452621
0.457865
0.454171
0.440777
0.424709
0.403911
0.378079
0.352668
0.330967
0.311188
0.288707
0.259441
0.222596
0.18094
0.139257
0.102138
0.0723959
0.0506829
0.0360061
0.0266419
0.0208738
0.0173704
0.0152195
0.0138493
0.0129035
0.0121798
0.0115631
0.011013
0.0105174
0.0100908
0.00973639
0.00946062
0.00924812
0.00909036
0.00896469
0.00886505
0.00877491
0.00869786
0.00862617
0.00856975
0.00852065
0.00848724
0.00845885
0.00844315
0.00842826
0.00842278
0.0084148
0.00841433
0.00840935
0.00841113
0.00840729
0.00841007
0.00840655
0.00840983
0.00840634
0.00840997
0.00840648
0.00841055
0.00840731
0.00841229
0.00841012
0.00841872
0.263129
0.267813
0.264743
0.262325
0.252149
0.241235
0.228451
0.211727
0.195777
0.179586
0.161826
0.148037
0.133752
0.120311
0.106412
0.0956516
0.086032
0.0810894
0.0960302
0.128641
0.16024
0.18525
0.209594
0.242033
0.266705
0.288294
0.329128
0.362931
0.395888
0.494
0.638409
0.750238
0.855144
0.995825
1.08334
0.995807
0.777542
0.586919
0.490553
0.451701
0.42801
0.40701
0.387777
0.368238
0.349835
0.336294
0.327789
0.319553
0.305049
0.279689
0.24296
0.198453
0.152392
0.111039
0.0781711
0.0544644
0.0385426
0.0283576
0.0220291
0.0181463
0.0157468
0.0142195
0.0131778
0.0123955
0.0117398
0.0111567
0.0106257
0.0101596
0.00976416
0.00945071
0.00920777
0.00903025
0.00889587
0.00879834
0.00871746
0.00865353
0.00859366
0.00854714
0.00850451
0.00847631
0.00845053
0.00843734
0.00842305
0.00841896
0.00841069
0.00841122
0.00840556
0.00840827
0.00840355
0.00840731
0.00840278
0.00840712
0.00840253
0.00840732
0.00840266
0.00840797
0.00840354
0.00840983
0.00840663
0.00841657
0.175761
0.17827
0.177256
0.17606
0.167708
0.160836
0.150292
0.137727
0.128879
0.116416
0.108997
0.104498
0.0979167
0.0975477
0.100934
0.103159
0.115968
0.139158
0.162112
0.191972
0.229936
0.265226
0.298236
0.331495
0.355232
0.378638
0.417107
0.457583
0.51798
0.641093
0.791491
0.912381
1.03112
1.17358
1.26786
1.21172
0.997444
0.758222
0.59637
0.504599
0.450797
0.416392
0.393039
0.377395
0.369523
0.3684
0.369937
0.367406
0.354081
0.32615
0.284224
0.232939
0.179559
0.131473
0.0932509
0.0655949
0.046813
0.0345084
0.0265929
0.0215594
0.0183405
0.0162257
0.0147458
0.0136209
0.0126857
0.0118727
0.0111497
0.0105268
0.0100028
0.00959102
0.00927376
0.00904786
0.00888167
0.00877099
0.00868485
0.00862728
0.00857316
0.00853829
0.00850129
0.00848328
0.00845977
0.00845426
0.00843902
0.00844103
0.00842956
0.00843575
0.00842544
0.00843398
0.00842361
0.00843368
0.0084227
0.00843402
0.00842225
0.00843482
0.00842235
0.00843636
0.00842388
0.00844003
0.00842977
0.00845123
0.104873
0.105383
0.107853
0.107419
0.105271
0.105554
0.102124
0.103245
0.103941
0.106016
0.113708
0.119404
0.128663
0.14163
0.153746
0.172832
0.197944
0.224874
0.257672
0.296457
0.332877
0.362807
0.392995
0.42235
0.444769
0.473656
0.519828
0.579709
0.670043
0.799539
0.931478
1.0464
1.17097
1.31128
1.40614
1.37999
1.21237
0.96935
0.759399
0.623315
0.542295
0.495088
0.468093
0.45411
0.449433
0.448333
0.445619
0.435814
0.413601
0.376456
0.325694
0.266946
0.20776
0.155151
0.113169
0.0823902
0.0610419
0.0466211
0.0369186
0.0304135
0.0259519
0.0227404
0.0202454
0.0181618
0.0163137
0.0146742
0.0132316
0.0120343
0.0110605
0.0103279
0.00977502
0.00940158
0.00912833
0.00896611
0.00883996
0.00878319
0.00872302
0.00871336
0.00867853
0.00868954
0.00866271
0.00868318
0.00865679
0.00868292
0.00865353
0.00868454
0.00865103
0.00868662
0.00864883
0.00868902
0.00864678
0.00869194
0.00864518
0.00869619
0.00864511
0.00870356
0.00865054
0.00871945
0.00867289
0.00876055
0.117639
0.119653
0.123378
0.125456
0.130567
0.136202
0.143517
0.154015
0.164196
0.178004
0.192369
0.205962
0.221737
0.237588
0.254708
0.276316
0.301239
0.328863
0.360279
0.393056
0.423105
0.452372
0.483185
0.510211
0.535609
0.576624
0.639009
0.715852
0.806067
0.904992
1.00485
1.11094
1.23676
1.3719
1.4641
1.46108
1.34941
1.15286
0.94404
0.78481
0.685412
0.628497
0.592892
0.567334
0.547217
0.528848
0.509342
0.484095
0.448408
0.401421
0.345464
0.285611
0.227746
0.176757
0.135409
0.104211
0.081811
0.0662703
0.0556127
0.0482264
0.0427387
0.038324
0.0343726
0.0306288
0.0269031
0.0233665
0.0200977
0.0173518
0.0150908
0.0134298
0.0121659
0.0113545
0.010741
0.010428
0.0101691
0.0101336
0.0100512
0.0101435
0.0101095
0.0102335
0.0101849
0.0103068
0.0102287
0.0103513
0.0102443
0.0103776
0.0102451
0.0103942
0.0102401
0.0104072
0.0102332
0.0104208
0.0102269
0.0104409
0.0102264
0.0104766
0.0102502
0.0105534
0.010349
0.0107433
0.202785
0.205884
0.208781
0.21273
0.219638
0.227215
0.238037
0.250013
0.262718
0.277684
0.291214
0.305039
0.319723
0.333754
0.350131
0.369577
0.391068
0.415643
0.442691
0.47105
0.500394
0.531387
0.561172
0.587728
0.622748
0.678091
0.744073