/*--------------------------------*- C++ -*----------------------------------*\
| =========                 |                                                 |
| \\      /  F ield         | OpenFOAM: The Open Source CFD Toolbox           |
|  \\    /   O peration     | Version:  v2012                                 |
|   \\  /    A nd           | Website:  www.openfoam.com                      |
|    \\/     M anipulation  |                                                 |
\*---------------------------------------------------------------------------*/
FoamFile
{
    version     2.0;
    format      ascii;
    class       surfaceScalarField;
    location    "0.168";
    object      phi.air;
}
// * * * * * * * * * * * * * * * * * * * * * * * * * * * * * * * * * * * * * //

dimensions      [0 3 -1 0 0 0 0];
oriented        oriented;


internalField   nonuniform List<scalar> 
3672
(
0.0064006
7.14517e-06
0.00639136
8.99623e-06
0.00638142
9.68684e-06
0.00637056
1.06126e-05
0.0063586
1.17119e-05
0.00634559
1.27593e-05
0.00633129
1.40467e-05
0.00631578
1.52582e-05
0.00629637
1.91627e-05
2.80585e-05
0.00626806
0.00641089
4.26003e-06
0.00641309
6.79313e-06
0.00641555
7.2261e-06
0.00641823
7.93235e-06
0.00642104
8.90607e-06
0.00642399
9.8076e-06
0.00642694
1.10891e-05
0.00642967
1.25285e-05
0.00643129
1.75454e-05
2.48537e-05
0.0064345
0.00640988
2.38202e-06
0.00641223
4.44505e-06
0.00641473
4.71802e-06
0.00641752
5.14462e-06
0.00642056
5.87155e-06
0.00642375
6.60995e-06
0.00642716
7.68595e-06
0.00643042
9.26281e-06
0.0064346
1.33659e-05
1.8425e-05
0.00644103
0.00640936
1.0263e-06
0.00641175
2.05189e-06
0.00641429
2.17918e-06
0.00641704
2.39546e-06
0.00642008
2.82902e-06
0.00642335
3.34014e-06
0.00642686
4.1794e-06
0.00643058
5.54008e-06
0.00643542
8.52207e-06
1.19254e-05
0.00644192
0.00640916
-1.33129e-07
0.00641153
-3.17988e-07
0.00641408
-3.68049e-07
0.0064168
-3.30658e-07
0.00641985
-2.20073e-07
0.00642318
1.20081e-08
0.0064268
5.59744e-07
0.0064308
1.54157e-06
0.00643581
3.50706e-06
5.35648e-06
0.00644238
0.00640918
-1.30997e-06
0.00641156
-2.70308e-06
0.00641412
-2.92489e-06
0.00641686
-3.07022e-06
0.00641993
-3.29409e-06
0.00642331
-3.36794e-06
0.00642702
-3.15054e-06
0.00643117
-2.6108e-06
0.00643623
-1.55006e-06
-9.18203e-07
0.00644251
0.00640941
-2.72028e-06
0.00641185
-5.1427e-06
0.00641442
-5.49271e-06
0.00641721
-5.85951e-06
0.00642032
-6.40729e-06
0.00642374
-6.78915e-06
0.00642751
-6.92237e-06
0.00643175
-6.8458e-06
0.00643674
-6.54489e-06
-6.7483e-06
0.00644257
0.00640999
-4.70719e-06
0.0064124
-7.5559e-06
0.00641495
-8.04444e-06
0.00641781
-8.71402e-06
0.00642095
-9.55364e-06
0.0064244
-1.02353e-05
0.00642821
-1.0735e-05
0.00643249
-1.11202e-05
0.00643739
-1.14533e-05
-1.21458e-05
0.00644279
0.00641105
-7.76188e-06
0.00641334
-9.83864e-06
0.00641585
-1.05521e-05
0.00641858
-1.14513e-05
0.00642152
-1.24901e-05
0.00642469
-1.34058e-05
0.00642817
-1.42168e-05
0.00643204
-1.49858e-05
0.00643631
-1.57293e-05
-1.68101e-05
0.00644098
0.00640049
0.0063909
0.0063806
0.0063694
0.00635716
0.006344
0.00633004
0.0063153
0.00629982
0.00628326
0.00618912
0.000122524
-4.35877e-05
0.00598884
8.26133e-05
0.000117663
0.00572442
-0.000168605
0.000433026
0.00550756
-0.000541278
0.000758141
0.00535911
-0.000908013
0.00105646
0.00525264
-0.00120372
0.00131019
0.00517181
-0.00137931
0.00146014
0.00510269
-0.00142733
0.00149645
0.00503452
-0.00137463
0.0014428
0.00496658
-0.00125506
0.001323
0.00489908
-0.00110323
0.00117073
0.00483228
-0.00094534
0.00101215
0.00476686
-0.000798307
0.000863724
0.00470305
-0.000670781
0.000734589
0.00464115
-0.00056494
0.000626834
0.00458128
-0.000478266
0.000538141
0.00452399
-0.000408662
0.000465954
0.0044702
-0.00035443
0.000408216
0.00442035
-0.000312379
0.000362226
0.00437447
-0.000278588
0.000324475
0.00433245
-0.000250561
0.000292577
0.00429449
-0.000227797
0.000265759
0.00426055
-0.000209884
0.000243822
0.00423036
-0.000195138
0.000225328
0.00420353
-0.000182064
0.0002089
0.00418004
-0.000170427
0.000193913
0.00416
-0.000160645
0.000180687
0.0041429
-0.000152364
0.000169463
0.00412822
-0.000144983
0.000159661
0.0041156
-0.000138073
0.000150695
0.00410469
-0.000131638
0.000142544
0.00409526
-0.000125722
0.000135159
0.00408702
-0.000120301
0.000128539
0.00407972
-0.000115265
0.000122566
0.00407332
-0.000110643
0.000117042
0.00406777
-0.000106288
0.000111835
0.004063
-0.000102145
0.00010692
0.00405894
-9.82925e-05
0.00010235
0.00405555
-9.48135e-05
9.81998e-05
0.00405278
-9.16458e-05
9.44153e-05
0.0040506
-8.8735e-05
9.092e-05
0.00404894
-8.59988e-05
8.76617e-05
0.00404769
-8.33198e-05
8.45689e-05
0.00404677
-8.0693e-05
8.1607e-05
0.00404617
-7.82418e-05
7.88439e-05
0.00404586
-7.60151e-05
7.63242e-05
0.00404582
-7.39483e-05
7.39876e-05
0.00404603
-7.19203e-05
7.17116e-05
0.00404647
-6.99174e-05
6.94822e-05
0.00404711
-6.80018e-05
6.73561e-05
0.00404796
-6.62459e-05
6.53979e-05
0.004049
-6.46382e-05
6.35969e-05
0.00405023
-6.31275e-05
6.19009e-05
0.00405163
-6.16627e-05
6.02628e-05
0.00405318
-6.02213e-05
5.86686e-05
0.00405487
-5.88156e-05
5.71289e-05
0.00405667
-5.74831e-05
5.56769e-05
0.00405859
-5.62381e-05
5.43225e-05
0.00406061
-5.50763e-05
5.30581e-05
0.00406272
-5.39605e-05
5.18478e-05
0.00406491
-5.28624e-05
5.06694e-05
0.00406718
-5.17745e-05
4.95131e-05
0.0040695
-5.07407e-05
4.8415e-05
0.00407189
-4.9769e-05
4.73831e-05
0.00407433
-4.88634e-05
4.64208e-05
0.00407682
-4.7983e-05
4.54926e-05
0.00407935
-4.71305e-05
4.45978e-05
0.00408192
-4.62944e-05
4.37257e-05
0.00408452
-4.54864e-05
4.28884e-05
0.00408714
-4.47025e-05
4.2081e-05
0.00408978
-4.3955e-05
4.1314e-05
0.00409244
-4.32337e-05
4.05766e-05
0.00409511
-4.25382e-05
3.98693e-05
0.00409778
-4.18527e-05
3.91779e-05
0.00410046
-4.1183e-05
3.8507e-05
0.00410313
-4.05211e-05
3.78506e-05
0.00410579
-3.98809e-05
3.7218e-05
0.00410844
-3.92502e-05
3.65998e-05
0.00411108
-3.86389e-05
3.60032e-05
0.00411369
-3.80289e-05
3.54127e-05
0.00411629
-3.74328e-05
3.48387e-05
0.00411886
-3.68359e-05
3.42674e-05
0.0041214
-3.62552e-05
3.37142e-05
0.00412391
-3.56731e-05
3.31617e-05
0.00412639
-3.5106e-05
3.26253e-05
0.00412884
-3.45361e-05
3.2088e-05
0.00413125
-3.39822e-05
3.15673e-05
0.00413363
-3.3428e-05
3.1048e-05
0.00413598
-3.28938e-05
3.05485e-05
0.00413829
-3.23633e-05
3.00537e-05
0.00414056
-3.18597e-05
2.95852e-05
0.0041428
-3.1364e-05
2.91247e-05
0.00414501
-3.09195e-05
2.87132e-05
0.00414718
-3.04841e-05
2.83106e-05
0.00414933
-3.01955e-05
2.80475e-05
0.00415145
-2.98778e-05
2.77547e-05
0.00415358
-3.004e-05
2.79141e-05
0.00415568
-2.99111e-05
2.78114e-05
0.00415787
-3.12141e-05
2.90193e-05
-3.11761e-05
2.92143e-05
0.00647836
7.8656e-05
0.00651174
4.92389e-05
0.00650174
-0.000158606
0.0064363
-0.000475833
0.00632498
-0.000796696
0.00617908
-0.00105782
0.00601662
-0.00121685
0.00585463
-0.00126534
0.00570341
-0.00122341
0.00556877
-0.00112042
0.00545281
-0.000987273
0.00535428
-0.000846815
0.0052707
-0.000714724
0.00519907
-0.000599151
0.00513601
-0.000501886
0.0050783
-0.000420559
0.00502363
-0.000353991
0.00497088
-0.000301675
0.00491932
-0.000260817
0.00486823
-0.000227497
0.00481781
-0.000200148
0.00476927
-0.000179253
0.0047232
-0.000163818
0.00467957
-0.000151501
0.00463837
-0.000140864
0.00459988
-0.000131946
0.00456449
-0.000125249
0.00453225
-0.00012013
0.00450294
-0.000115672
0.00447627
-0.000111399
0.00445195
-0.000107318
0.00442984
-0.000103618
0.00440983
-0.000100291
0.00439178
-9.72128e-05
0.00437546
-9.43176e-05
0.00436067
-9.15037e-05
0.0043473
-8.87763e-05
0.00433525
-8.62427e-05
0.0043244
-8.39622e-05
0.00431463
-8.18746e-05
0.00430579
-7.98927e-05
0.00429771
-7.7921e-05
0.00429032
-7.59249e-05
0.00428357
-7.3945e-05
0.00427744
-7.21115e-05
0.0042719
-7.04726e-05
0.0042669
-6.89545e-05
0.00426241
-6.74303e-05
0.00425839
-6.58904e-05
0.0042548
-6.44169e-05
0.00425162
-6.3069e-05
0.00424882
-6.18357e-05
0.00424638
-6.06827e-05
0.00424426
-5.95494e-05
0.00424245
-5.84117e-05
0.00424091
-5.72725e-05
0.00423959
-5.61638e-05
0.00423848
-5.51247e-05
0.00423756
-5.41638e-05
0.00423684
-5.32379e-05
0.00423629
-5.2314e-05
0.00423591
-5.13903e-05
0.00423568
-5.05129e-05
0.00423559
-4.96756e-05
0.00423561
-4.88891e-05
0.00423575
-4.8119e-05
0.00423599
-4.73715e-05
0.00423633
-4.66287e-05
0.00423674
-4.59031e-05
0.00423723
-4.5189e-05
0.00423778
-4.45045e-05
0.00423838
-4.38373e-05
0.00423903
-4.31891e-05
0.00423972
-4.25414e-05
0.00424044
-4.19016e-05
0.00424118
-4.12623e-05
0.00424194
-4.06396e-05
0.00424271
-4.00214e-05
0.00424349
-3.94182e-05
0.00424427
-3.88117e-05
0.00424506
-3.82157e-05
0.00424584
-3.76147e-05
0.00424661
-3.70282e-05
0.00424737
-3.64381e-05
0.00424813
-3.58619e-05
0.00424887
-3.52811e-05
0.00424961
-3.47157e-05
0.00425033
-3.41488e-05
0.00425104
-3.36018e-05
0.00425173
-3.30576e-05
0.00425241
-3.25405e-05
0.00425308
-3.20309e-05
0.00425373
-3.15734e-05
0.00425437
-3.11252e-05
0.004255
-3.0825e-05
0.00425563
-3.0501e-05
0.00425624
-3.06516e-05
0.00425686
-3.05292e-05
0.00425752
-3.18829e-05
-3.17337e-05
0.00647001
4.96756e-05
0.00650349
1.57558e-05
0.00650081
-0.000155926
0.00644848
-0.000423502
0.00634924
-0.000697456
0.00621162
-0.00092019
0.00605285
-0.00105808
0.00589065
-0.00110314
0.00573783
-0.00107059
0.00560304
-0.000985625
0.005489
-0.00087323
0.00539491
-0.000752731
0.00531873
-0.000638546
0.00525782
-0.00053824
0.00520866
-0.000452721
0.0051682
-0.000380104
0.00513466
-0.000320452
0.00510671
-0.000273718
0.00508246
-0.000236573
0.00506002
-0.000205054
0.00503837
-0.000178495
0.00501697
-0.000157855
0.0049953
-0.000142152
0.00497285
-0.000129045
0.00494905
-0.000117062
0.00492368
-0.000106584
0.00489693
-9.85004e-05
0.00486922
-9.24158e-05
0.00484092
-8.73691e-05
0.00481231
-8.27863e-05
0.00478371
-7.87242e-05
0.00475559
-7.54929e-05
0.00472853
-7.32313e-05
0.00470296
-7.16423e-05
0.0046789
-7.02602e-05
0.00465632
-6.89284e-05
0.00463527
-6.77226e-05
0.00461575
-6.67253e-05
0.00459771
-6.59185e-05
0.00458102
-6.51825e-05
0.00456551
-6.43904e-05
0.00455107
-6.34767e-05
0.00453762
-6.24728e-05
0.00452513
-6.14618e-05
0.00451358
-6.0555e-05
0.00450288
-5.97793e-05
0.00449297
-5.9039e-05
0.00448378
-5.82362e-05
0.00447526
-5.73706e-05
0.00446734
-5.64991e-05
0.00445996
-5.56941e-05
0.0044531
-5.4974e-05
0.00444673
-5.43099e-05
0.00444082
-5.36427e-05
0.00443536
-5.29475e-05
0.0044303
-5.22165e-05
0.00442563
-5.14883e-05
0.00442131
-5.08072e-05
0.00441733
-5.01828e-05
0.00441366
-4.95685e-05
0.00441028
-4.89357e-05
0.00440717
-4.82779e-05
0.00440427
-4.76103e-05
0.00440154
-4.69532e-05
0.00439899
-4.63345e-05
0.0043966
-4.57268e-05
0.00439436
-4.51308e-05
0.00439225
-4.45199e-05
0.00439025
-4.39109e-05
0.00438836
-4.32967e-05
0.00438656
-4.27026e-05
0.00438484
-4.21132e-05
0.00438318
-4.15334e-05
0.00438158
-4.09429e-05
0.00438003
-4.03527e-05
0.00437853
-3.97552e-05
0.00437706
-3.91695e-05
0.00437562
-3.85822e-05
0.0043742
-3.80065e-05
0.00437282
-3.74231e-05
0.00437145
-3.68486e-05
0.0043701
-3.62669e-05
0.00436877
-3.56986e-05
0.00436746
-3.51253e-05
0.00436616
-3.45653e-05
0.00436488
-3.40001e-05
0.00436362
-3.34501e-05
0.00436237
-3.28983e-05
0.00436113
-3.23664e-05
0.00435991
-3.1837e-05
0.0043587
-3.13345e-05
0.00435751
-3.08402e-05
0.00435633
-3.03959e-05
0.00435517
-2.99633e-05
0.00435402
-2.96737e-05
0.00435289
-2.93657e-05
0.00435176
-2.95213e-05
0.00435065
-2.94243e-05
0.0043495
-3.07294e-05
-3.06853e-05
0.0064645
2.71008e-05
0.00648861
-8.35572e-06
0.00648172
-0.000149034
0.00642849
-0.000370271
0.00633104
-0.000600007
0.00619799
-0.000787141
0.0060446
-0.000904696
0.00588728
-0.000945826
0.00573866
-0.000921967
0.0056066
-0.000853563
0.00549366
-0.000760296
0.00539968
-0.00065875
0.00532332
-0.000562184
0.0052619
-0.00047682
0.00521186
-0.000402681
0.00517088
-0.000339121
0.00513805
-0.000287622
0.00511201
-0.000247687
0.00509041
-0.000214964
0.00507158
-0.000186227
0.00505562
-0.000162534
0.00504292
-0.000145156
0.00503254
-0.000131771
0.00502284
-0.000119343
0.00501342
-0.000107643
0.00500489
-9.80519e-05
0.00499722
-9.08379e-05
0.00498976
-8.49546e-05
0.00498189
-7.94957e-05
0.00497317
-7.4067e-05
0.00496342
-6.89785e-05
0.00495271
-6.47746e-05
0.00494105
-6.15758e-05
0.00492839
-5.89812e-05
0.00491463
-5.64965e-05
0.0048997
-5.39981e-05
0.00488371
-5.17344e-05
0.00486692
-4.99405e-05
0.00484966
-4.86588e-05
0.00483221
-4.77296e-05
0.00481477
-4.69536e-05
0.00479753
-4.62291e-05
0.00478065
-4.56017e-05
0.00476438
-4.51884e-05
0.00474885
-4.50258e-05
0.00473408
-4.501e-05
0.00472003
-4.49837e-05
0.00470667
-4.48753e-05
0.00469402
-4.47242e-05
0.0046821
-4.45784e-05
0.00467086
-4.44548e-05
0.00466023
-4.43457e-05
0.00465013
-4.4211e-05
0.00464053
-4.40356e-05
0.00463139
-4.38146e-05
0.00462272
-4.35462e-05
0.00461452
-4.32906e-05
0.00460678
-4.30642e-05
0.00459945
-4.28504e-05
0.00459249
-4.26131e-05
0.00458589
-4.23297e-05
0.00457961
-4.19995e-05
0.00457362
-4.16248e-05
0.0045679
-4.12291e-05
0.00456241
-4.08406e-05
0.00455712
-4.04436e-05
0.00455202
-4.00283e-05
0.00454707
-3.95735e-05
0.00454226
-3.90983e-05
0.00453756
-3.8598e-05
0.00453297
-3.8106e-05
0.00452846
-3.76064e-05
0.00452403
-3.71077e-05
0.00451968
-3.65891e-05
0.00451539
-3.60659e-05
0.00451117
-3.55299e-05
0.004507
-3.50045e-05
0.0045029
-3.4475e-05
0.00449884
-3.39547e-05
0.00449485
-3.34279e-05
0.00449091
-3.29085e-05
0.00448702
-3.23823e-05
0.00448319
-3.1868e-05
0.00447942
-3.1349e-05
0.00447569
-3.08433e-05
0.00447203
-3.03329e-05
0.00446842
-2.98381e-05
0.00446486
-2.93416e-05
0.00446136
-2.88655e-05
0.00445791
-2.83917e-05
0.00445452
-2.79446e-05
0.00445119
-2.75066e-05
0.00444791
-2.7115e-05
0.00444468
-2.67384e-05
0.0044415
-2.64912e-05
0.00443838
-2.62405e-05
0.00443525
-2.63972e-05
0.00443222
-2.63886e-05
0.00442904
-2.75546e-05
-2.78748e-05
0.00645963
9.85234e-06
0.00647551
-2.42333e-05
0.00646423
-0.000137754
0.00641073
-0.000316773
0.00631603
-0.00050531
0.00618843
-0.000659537
0.00604147
-0.000757737
0.00588974
-0.000794096
0.00574509
-0.000777321
0.00561513
-0.000723602
0.0055028
-0.000647966
0.00540882
-0.000564765
0.00533215
-0.000485523
0.00526972
-0.000414391
0.00521825
-0.000351207
0.00517651
-0.000297382
0.00514368
-0.000254793
0.00511716
-0.000221159
0.00509415
-0.000191959
0.00507438
-0.000166457
0.00505883
-0.00014698
0.00504671
-0.000133037
0.00503588
-0.000120943
0.00502551
-0.00010898
0.00501655
-9.86739e-05
0.00500966
-9.11705e-05
0.00500428
-8.54564e-05
0.00499935
-8.00217e-05
0.00499428
-7.44297e-05
0.00498951
-6.92956e-05
0.00498571
-6.51791e-05
0.00498282
-6.18863e-05
0.00498027
-5.90209e-05
0.00497753
-5.62426e-05
0.00497444
-5.34091e-05
0.00497121
-5.07677e-05
0.00496799
-4.85073e-05
0.00496464
-4.65946e-05
0.00496098
-4.49991e-05
0.00495676
-4.35128e-05
0.00495178
-4.1968e-05
0.00494595
-4.04014e-05
0.00493933
-3.89778e-05
0.00493199
-3.78544e-05
0.004924
-3.70366e-05
0.00491536
-3.63625e-05
0.00490603
-3.56553e-05
0.00489604
-3.48857e-05
0.0048855
-3.41827e-05
0.00487459
-3.36768e-05
0.00486351
-3.33748e-05
0.00485237
-3.32018e-05
0.00484122
-3.30606e-05
0.00483008
-3.2895e-05
0.00481898
-3.27124e-05
0.00480802
-3.25838e-05
0.00479725
-3.25225e-05
0.00478668
-3.25015e-05
0.00477632
-3.24816e-05
0.00476615
-3.24426e-05
0.00475618
-3.23653e-05
0.00474643
-3.22492e-05
0.00473691
-3.21085e-05
0.00472763
-3.19443e-05
0.00471855
-3.17582e-05
0.00470965
-3.15472e-05
0.00470092
-3.12989e-05
0.00469236
-3.10079e-05
0.00468394
-3.06831e-05
0.00467567
-3.03238e-05
0.00466753
-2.99652e-05
0.00465951
-2.95926e-05
0.00465162
-2.92171e-05
0.00464385
-2.88197e-05
0.0046362
-2.84147e-05
0.00462867
-2.79952e-05
0.00462125
-2.75862e-05
0.00461394
-2.71714e-05
0.00460676
-2.67668e-05
0.00459968
-2.63539e-05
0.00459272
-2.59486e-05
0.00458588
-2.55356e-05
0.00457914
-2.51346e-05
0.00457252
-2.47317e-05
0.00456602
-2.43409e-05
0.00455964
-2.3948e-05
0.00455337
-2.35696e-05
0.00454722
-2.31917e-05
0.00454119
-2.28328e-05
0.00453527
-2.24776e-05
0.00452947
-2.21471e-05
0.0045238
-2.18269e-05
0.00451823
-2.15462e-05
0.00451277
-2.12857e-05
0.00450741
-2.11285e-05
0.00450217
-2.09952e-05
0.00449693
-2.116e-05
0.00449186
-2.13207e-05
0.00448653
-2.22253e-05
-2.32467e-05
0.00645566
-3.30162e-06
0.00646519
-3.37649e-05
0.00645042
-0.000122979
0.00639697
-0.000263324
0.00630461
-0.000412948
0.00618117
-0.000536097
0.00603901
-0.00061558
0.00589156
-0.000646642
0.00575011
-0.000635871
0.00562183
-0.000595329
0.00551022
-0.00053635
0.00541657
-0.000471113
0.00533939
-0.000408349
0.0052755
-0.000350495
0.00522279
-0.0002985
0.00518072
-0.00025531
0.00514738
-0.000221458
0.00511916
-0.000192943
0.0050945
-0.00016729
0.00507471
-0.000146668
0.00505974
-0.000132014
0.00504685
-0.000120143
0.00503435
-0.00010845
0.00502331
-9.79326e-05
0.00501485
-9.02182e-05
0.00500833
-8.46497e-05
0.00500234
-7.94635e-05
0.00499618
-7.3862e-05
0.00499042
-6.86742e-05
0.0049859
-6.47739e-05
0.00498249
-6.17677e-05
0.00497956
-5.89548e-05
0.00497652
-5.59837e-05
0.00497334
-5.30592e-05
0.00497053
-5.06021e-05
0.00496839
-4.86275e-05
0.0049667
-4.68184e-05
0.00496514
-4.50306e-05
0.00496343
-4.32959e-05
0.0049616
-4.16835e-05
0.00495991
-4.02699e-05
0.00495844
-3.89324e-05
0.00495706
-3.75974e-05
0.0049556
-3.64023e-05
0.00495395
-3.5378e-05
0.00495199
-3.44068e-05
0.00494973
-3.3392e-05
0.00494718
-3.23422e-05
0.00494434
-3.13401e-05
0.00494111
-3.04507e-05
0.00493739
-2.96517e-05
0.00493307
-2.88832e-05
0.00492811
-2.80935e-05
0.00492249
-2.72748e-05
0.00491623
-2.64619e-05
0.00490937
-2.57215e-05
0.0049019
-2.50514e-05
0.00489382
-2.44188e-05
0.00488513
-2.37954e-05
0.00487588
-2.31911e-05
0.00486613
-2.26165e-05
0.00485596
-2.20798e-05
0.00484544
-2.15852e-05
0.00483462
-2.11284e-05
0.00482357
-2.07039e-05
0.00481233
-2.031e-05
0.00480097
-1.99372e-05
0.00478954
-1.95815e-05
0.00477809
-1.92324e-05
0.00476668
-1.89076e-05
0.00475531
-1.85995e-05
0.00474403
-1.83138e-05
0.00473285
-1.80377e-05
0.0047218
-1.7766e-05
0.00471089
-1.75036e-05
0.00470013
-1.72384e-05
0.00468954
-1.69909e-05
0.00467911
-1.67422e-05
0.00466885
-1.65131e-05
0.00465878
-1.62799e-05
0.00464889
-1.60603e-05
0.0046392
-1.58414e-05
0.0046297
-1.5634e-05
0.0046204
-1.54322e-05
0.00461129
-1.52396e-05
0.0046024
-1.50522e-05
0.0045937
-1.48743e-05
0.00458522
-1.4703e-05
0.00457693
-1.45435e-05
0.00456884
-1.4392e-05
0.00456095
-1.4256e-05
0.00455325
-1.41298e-05
0.00454574
-1.40309e-05
0.00453841
-1.39552e-05
0.00453122
-1.39426e-05
0.00452421
-1.39887e-05
0.00451723
-1.4174e-05
0.00451049
-1.45794e-05
0.00450335
-1.50867e-05
-1.71154e-05
0.00645273
-1.34586e-05
0.00645752
-3.85543e-05
0.00643989
-0.000105347
0.00638638
-0.000209819
0.00629583
-0.000322397
0.00617559
-0.000415856
0.00603716
-0.000477153
0.00589301
-0.000502488
0.00575377
-0.000496636
0.00562633
-0.00046789
0.00551461
-0.000424622
0.00542013
-0.000376636
0.00534097
-0.000329191
0.00527457
-0.000284093
0.00522064
-0.00024457
0.00517795
-0.000212614
0.00514226
-0.000185774
0.00511114
-0.000161823
0.00508571
-0.000141859
0.00506599
-0.000126949
0.00504906
-0.000115077
0.00503297
-0.000104057
0.0050187
-9.41803e-05
0.00500728
-8.65181e-05
0.00499783
-8.0768e-05
0.00498881
-7.56277e-05
0.00497975
-7.0399e-05
0.00497139
-6.55077e-05
0.00496434
-6.16163e-05
0.00495817
-5.86114e-05
0.00495223
-5.58195e-05
0.00494608
-5.28044e-05
0.00493991
-4.98223e-05
0.00493419
-4.73389e-05
0.00492894
-4.53455e-05
0.00492387
-4.35621e-05
0.00491875
-4.16929e-05
0.00491342
-3.97091e-05
0.004908
-3.78733e-05
0.00490266
-3.63422e-05
0.00489739
-3.5004e-05
0.00489213
-3.36695e-05
0.00488681
-3.22711e-05
0.00488133
-3.09286e-05
0.00487567
-2.972e-05
0.00486987
-2.86078e-05
0.004864
-2.7522e-05
0.00485811
-2.64425e-05
0.00485216
-2.53959e-05
0.00484612
-2.44145e-05
0.00483995
-2.34792e-05
0.00483363
-2.25645e-05
0.00482719
-2.16534e-05
0.00482067
-2.07559e-05
0.0048141
-1.98876e-05
0.00480745
-1.9074e-05
0.00480069
-1.82862e-05
0.00479376
-1.74956e-05
0.00478666
-1.66941e-05
0.00477939
-1.59161e-05
0.00477195
-1.51765e-05
0.00476434
-1.44719e-05
0.00475654
-1.37872e-05
0.00474853
-1.31169e-05
0.00474029
-1.24635e-05
0.00473182
-1.18422e-05
0.00472314
-1.12586e-05
0.00471427
-1.07128e-05
0.00470524
-1.01954e-05
0.00469604
-9.71383e-06
0.00468672
-9.27108e-06
0.00467727
-8.86665e-06
0.00466773
-8.50072e-06
0.00465813
-8.16849e-06
0.0046485
-7.87017e-06
0.00463887
-7.60313e-06
0.00462924
-7.36532e-06
0.00461966
-7.16133e-06
0.00461013
-6.98593e-06
0.00460069
-6.83973e-06
0.00459135
-6.71587e-06
0.00458212
-6.6158e-06
0.00457302
-6.53585e-06
0.00456407
-6.4774e-06
0.00455526
-6.43554e-06
0.00454662
-6.41076e-06
0.00453815
-6.39883e-06
0.00452985
-6.40099e-06
0.00452172
-6.41358e-06
0.00451376
-6.43775e-06
0.00450598
-6.47094e-06
0.00449836
-6.51293e-06
0.0044909
-6.57101e-06
0.0044836
-6.6527e-06
0.00447641
-6.75761e-06
0.00446937
-6.95102e-06
0.00446232
-7.1213e-06
0.00445547
-7.72728e-06
0.00444816
-7.77471e-06
-1.07112e-05
0.0064508
-2.14627e-05
0.00645216
-3.99198e-05
0.00643219
-8.53722e-05
0.00637824
-0.000155876
0.00628837
-0.000232521
0.0061693
-0.000296784
0.00603183
-0.000339684
0.0058878
-0.000358459
0.00574714
-0.000355977
0.0056172
-0.000337953
0.00550276
-0.000310178
0.00540394
-0.000277822
0.00531926
-0.000244511
0.00524869
-0.000213519
0.00519073
-0.000186611
0.00514155
-0.000163429
0.00509887
-0.000143096
0.00506288
-0.000125836
0.00503279
-0.000111765
0.00500607
-0.00010023
0.00498129
-9.02959e-05
0.00495898
-8.17504e-05
0.00493938
-7.45801e-05
0.00492146
-6.86016e-05
0.00490419
-6.34978e-05
0.0048875
-5.89366e-05
0.00487183
-5.47271e-05
0.00485721
-5.08864e-05
0.00484314
-4.75453e-05
0.00482919
-4.46643e-05
0.00481538
-4.20096e-05
0.00480196
-3.93825e-05
0.004789
-3.68629e-05
0.00477632
-3.46556e-05
0.00476371
-3.27403e-05
0.00475113
-3.09777e-05
0.00473867
-2.92316e-05
0.00472644
-2.74874e-05
0.00471444
-2.58718e-05
0.00470257
-2.44651e-05
0.00469076
-2.32019e-05
0.00467907
-2.19794e-05
0.00466756
-2.07532e-05
0.00465622
-1.95898e-05
0.00464504
-1.85393e-05
0.00463401
-1.75835e-05
0.00462316
-1.66724e-05
0.00461251
-1.57864e-05
0.00460205
-1.4937e-05
0.00459178
-1.41483e-05
0.00458171
-1.34117e-05
0.00457186
-1.27089e-05
0.00456223
-1.20289e-05
0.00455285
-1.13757e-05
0.00454372
-1.07541e-05
0.00453482
-1.01749e-05
0.00452616
-9.62345e-06
0.00451774
-9.08125e-06
0.00450959
-8.54517e-06
0.00450171
-8.0329e-06
0.00449409
-7.55101e-06
0.00448671
-7.09619e-06
0.00447958
-6.65427e-06
0.00447268
-6.22258e-06
0.00446602
-5.80106e-06
0.00445958
-5.40203e-06
0.00445335
-5.0244e-06
0.0044473
-4.67011e-06
0.00444144
-4.32713e-06
0.00443572
-4.00256e-06
0.00443016
-3.70469e-06
0.00442472
-3.42804e-06
0.00441939
-3.17344e-06
0.00441417
-2.94211e-06
0.00440902
-2.72848e-06
0.00440396
-2.53813e-06
0.00439896
-2.36349e-06
0.00439401
-2.2136e-06
0.00438911
-2.08333e-06
0.00438424
-1.97324e-06
0.0043794
-1.87938e-06
0.00437459
-1.79963e-06
0.00436979
-1.73764e-06
0.004365
-1.68953e-06
0.00436022
-1.65692e-06
0.00435545
-1.63647e-06
0.00435068
-1.62914e-06
0.00434591
-1.63308e-06
0.00434115
-1.64935e-06
0.00433638
-1.67629e-06
0.00433163
-1.71378e-06
0.00432688
-1.76307e-06
0.00432213
-1.82452e-06
0.00431739
-1.91325e-06
0.00431263
-1.99981e-06
0.00430788
-2.19228e-06
0.00430301
-2.25818e-06
0.00429815
-2.86563e-06
0.00429293
-2.55738e-06
-5.63601e-06
0.00644653
-2.70128e-05
0.00644397
-3.73618e-05
0.00642001
-6.141e-05
0.00636214
-9.80093e-05
0.00626748
-0.000137856
0.00614211
-0.000171423
0.00599645
-0.000194018
0.00584204
-0.000204053
0.00568915
-0.000203084
0.00554504
-0.000193839
0.00541375
-0.000178892
0.00529705
-0.000161125
0.00519557
-0.000143028
0.00510802
-0.000125968
0.00503189
-0.000110478
0.00496522
-9.67669e-05
0.00490705
-8.49203e-05
0.00485605
-7.48422e-05
0.00481045
-6.61626e-05
0.00476882
-5.85992e-05
0.00473069
-5.21651e-05
0.00469605
-4.71072e-05
0.00466423
-4.27634e-05
0.00463447
-3.88364e-05
0.00460638
-3.54078e-05
0.00457994
-3.24975e-05
0.0045551
-2.98953e-05
0.00453164
-2.74166e-05
0.00450923
-2.51356e-05
0.00448771
-2.3152e-05
0.00446711
-2.14095e-05
0.00444747
-1.9738e-05
0.00442873
-1.81246e-05
0.00441074
-1.66696e-05
0.0043934
-1.53998e-05
0.00437669
-1.4267e-05
0.00436065
-1.31928e-05
0.00434531
-1.21431e-05
0.0043306
-1.11655e-05
0.00431644
-1.03066e-05
0.00430279
-9.54729e-06
0.00428965
-8.83956e-06
0.00427705
-8.1498e-06
0.00426496
-7.50133e-06
0.00425334
-6.92017e-06
0.00424216
-6.40164e-06
0.0042314
-5.91957e-06
0.00422108
-5.45896e-06
0.00421117
-5.02576e-06
0.00420165
-4.6316e-06
0.00419251
-4.27189e-06
0.00418374
-3.93737e-06
0.00417533
-3.62187e-06
0.00416728
-3.32586e-06
0.00415958
-3.05001e-06
0.0041522
-2.79971e-06
0.00414515
-2.5697e-06
0.00413842
-2.35072e-06
0.00413201
-2.13838e-06
0.00412592
-1.94025e-06
0.00412013
-1.75815e-06
0.00411462
-1.59177e-06
0.0041094
-1.43265e-06
0.00410446
-1.27989e-06
0.00409979
-1.1307e-06
0.00409538
-9.915e-07
0.00409121
-8.58475e-07
0.00408727
-7.34428e-07
0.00408356
-6.09575e-07
0.00408004
-4.84224e-07
0.00407672
-3.82122e-07
0.00407356
-2.77465e-07
0.00407057
-1.78933e-07
0.00406772
-8.69176e-08
0.00406499
1.27421e-09
0.00406237
8.14597e-08
0.00405984
1.57672e-07
0.00405741
2.21227e-07
0.00405505
2.7698e-07
0.00405275
3.22825e-07
0.00405051
3.6141e-07
0.00404832
3.95147e-07
0.00404616
4.188e-07
0.00404404
4.35538e-07
0.00404193
4.45785e-07
0.00403985
4.50498e-07
0.00403777
4.51453e-07
0.00403568
4.48884e-07
0.0040336
4.38961e-07
0.00403149
4.26207e-07
0.00402938
4.04305e-07
0.00402723
3.78537e-07
0.00402507
3.38653e-07
0.00402287
2.8829e-07
0.00402062
2.49424e-07
0.0040183
1.26119e-07
0.00401589
1.51189e-07
0.00401334
-3.1129e-07
0.00401062
1.60256e-07
-2.32751e-06
0.00625665
0.00621968
0.00615866
0.00606105
0.00592359
0.00575257
0.00555895
0.00535531
0.00515263
0.00495921
0.00478074
0.00462003
0.00447743
0.00435189
0.00424184
0.00414551
0.00406103
0.00398662
0.0039209
0.00386274
0.00381102
0.00376435
0.00372203
0.00368364
0.00364868
0.00361663
0.00358718
0.00356022
0.00353553
0.00351283
0.00349187
0.00347258
0.00345491
0.00343869
0.00342374
0.00340993
0.00339719
0.0033855
0.00337478
0.00336493
0.00335584
0.00334745
0.00333976
0.00333271
0.00332624
0.0033203
0.00331483
0.00330983
0.00330526
0.00330108
0.00329726
0.00329378
0.00329061
0.00328774
0.00328515
0.0032828
0.00328069
0.00327879
0.00327711
0.00327562
0.00327432
0.00327318
0.00327221
0.00327138
0.00327071
0.00327017
0.00326977
0.00326949
0.00326933
0.00326931
0.00326938
0.00326956
0.00326983
0.0032702
0.00327066
0.00327119
0.00327181
0.00327248
0.00327321
0.00327399
0.00327481
0.00327566
0.00327653
0.00327742
0.00327832
0.00327923
0.00328013
0.00328104
0.00328193
0.00328281
0.00328367
0.0032845
0.0032853
0.00328604
0.00328674
0.00328732
0.00328793
0.00328807
0.00328869
-0.000831931
0.000788343
-0.00121946
0.000387527
-0.00139906
0.000179604
-0.00140205
2.98392e-06
-0.00126096
-0.00014109
-0.000964944
-0.000296012
-0.000524487
-0.000440457
-0.000525013
-0.000754951
0.00166096
-0.00111808
0.000750658
-0.00122824
0.000289766
-0.00120009
-2.51742e-05
-0.00105429
-0.000286883
-0.00080876
-0.000541545
-0.000456447
-0.000792769
-0.000981964
-0.000156196
0.00225018
-0.000557935
0.0011524
-0.000717708
0.000449539
-0.000731038
-1.18447e-05
-0.000650844
-0.000367076
-0.000507296
-0.000685094
-0.000303369
-0.000996696
-0.00128582
0.000429659
0.00257866
9.69571e-05
0.0014851
-0.000111095
0.000657591
-0.000205854
8.29144e-05
-0.000222049
-0.000350881
-0.000187708
-0.000719434
-0.000121698
-0.00106271
-0.00140799
0.000870298
0.00276483
0.000617314
0.00173808
0.000395233
0.000879672
0.000239666
0.000238482
0.000137926
-0.000249141
7.01143e-05
-0.000651623
2.21306e-05
-0.00101472
-0.00138632
0.00119707
0.00287795
0.000996735
0.00193841
0.000781884
0.00109452
0.000592636
0.00042773
0.000428775
-8.52788e-05
0.000279855
-0.000502703
0.000137295
-0.000872162
-0.00124949
0.00139124
0.00294685
0.00123794
0.00209171
0.00104153
0.00129093
0.000835827
0.000633432
0.000631628
0.000118921
0.000426454
-0.000297529
0.000215939
-0.000661648
-0.00103402
0.0014507
0.0029926
0.00133263
0.00220978
0.00116188
0.00146168
0.00095858
0.000836733
0.000737564
0.000339937
0.000503689
-6.36544e-05
0.00025704
-0.000414999
-0.000777451
0.0014129
0.0030225
0.00131813
0.00230455
0.00116837
0.00161144
0.000977286
0.00102782
0.000758593
0.00055863
0.000520551
0.000174387
0.000266333
-0.000160781
-0.000511602
0.00130654
0.00303897
0.00123227
0.00237881
0.00110356
0.00174016
0.000929911
0.00120146
0.000724741
0.0007638
0.000497963
0.000401165
0.000254454
8.27286e-05
-0.000257644
0.00116669
0.003043
0.00111078
0.00243473
0.00100164
0.00184929
0.000848468
0.00135464
0.000663885
0.000948382
0.000457029
0.000608021
0.000233451
0.000306306
-2.47004e-05
0.00101865
0.00303649
0.00097801
0.00247537
0.000885876
0.00194143
0.000752859
0.00148766
0.00059092
0.00111032
0.000407667
0.000791274
0.000209248
0.000504725
0.000184036
0.000877644
0.00302258
0.000848811
0.00250421
0.000771949
0.00201829
0.000657326
0.00160228
0.000516224
0.00125142
0.000355692
0.000951806
0.000181741
0.000678676
0.000365271
0.000752959
0.00300421
0.000732664
0.0025245
0.000668585
0.00208237
0.000570197
0.00170067
0.000447972
0.00137365
0.000308429
0.00109135
0.000157192
0.000829913
0.00052196
0.000647268
0.00298377
0.000632406
0.00253936
0.000578797
0.00213598
0.00049481
0.00178466
0.000389198
0.00147926
0.000268027
0.00121252
0.0001365
0.00096144
0.000657963
0.000558491
0.00296342
0.000546328
0.00255153
0.000501182
0.00218112
0.000430058
0.00185578
0.000339138
0.00157018
0.000233919
0.00131774
0.00011906
0.0010763
0.000776528
0.000484735
0.00294464
0.000473938
0.00256232
0.000435249
0.00221981
0.000374453
0.00191658
0.000295997
0.00164864
0.000204512
0.00140922
0.000103795
0.00117702
0.000879832
0.000424733
0.00292813
0.000414665
0.00257239
0.000380713
0.00225376
0.000327761
0.00196953
0.000259398
0.001717
0.000179405
0.00148922
9.08203e-05
0.0012656
0.000970162
0.000376331
0.00291402
0.0003666
0.00258212
0.000336175
0.00228419
0.00028929
0.00201641
0.000228986
0.0017773
0.000158422
0.00155978
8.02165e-05
0.00134381
0.00104989
0.000336381
0.00290211
0.000326872
0.00259163