/*--------------------------------*- C++ -*----------------------------------*\
| =========                 |                                                 |
| \\      /  F ield         | OpenFOAM: The Open Source CFD Toolbox           |
|  \\    /   O peration     | Version:  v2012                                 |
|   \\  /    A nd           | Website:  www.openfoam.com                      |
|    \\/     M anipulation  |                                                 |
\*---------------------------------------------------------------------------*/
FoamFile
{
    version     2.0;
    format      ascii;
    class       Cloud<basicKinematicParcel>;
    location    "0.072/lagrangian/kinematicCloud";
    object      positions;
}
// * * * * * * * * * * * * * * * * * * * * * * * * * * * * * * * * * * * * * //

75
(
(0.239436 0.003684 0.03) 218
(0.259589 0.0113459 0.03) 520
(0.25438 0.0164201 0.03) 720
(0.23923 0.00782077 0.03) 318
(0.239474 0.0214495 0.03) 918
(0.233223 0.0184813 0.03) 717
(0.131192 0.00303542 0.03) 206
(0.219299 0.022922 0.03) 916
(0.211643 0.0238594 0.03) 915
(0.204313 0.0114401 0.03) 514
(0.202411 0.0108068 0.03) 514
(0.190183 0.00775558 0.03) 313
(0.020289 0.0265748 0.03) 93
(0.0188257 5.95891e-05 0.03) 2
(0.0913083 0.0255946 0.03) 1002
(0.169049 0.0141181 0.03) 610
(0.149741 0.00446699 0.03) 208
(0.151627 0.0246266 0.03) 1009
(0.144097 0.00670853 0.03) 308
(0.149416 0.0225062 0.03) 908
(0.142811 0.0202522 0.03) 808
(0.0545622 0.0258399 0.03) 98
(0.130386 0.0209756 0.03) 806
(0.119682 0.00473067 0.03) 205
(0.122069 0.00991751 0.03) 405
(0.117709 0.0208039 0.03) 805
(0.109706 0.00478597 0.03) 204
(0.112413 0.0219765 0.03) 904
(0.0607085 0.00115436 0.03) 9
(0.106824 0.0232967 0.03) 904
(0.0149942 0.00017211 0.03) 2
(0.0874763 0.00225934 0.03) 102
(0.0352291 0.0259297 0.03) 95
(0.0869453 0.0151513 0.03) 602
(0.0861056 0.0060427 0.03) 302
(0.0834575 0.0185381 0.03) 701
(0.0787202 0.0103384 0.03) 401
(0.075641 0.0103267 0.03) 400
(0.0715245 0.0186656 0.03) 700
(0.0234436 0.000635016 0.03) 3
(0.0649571 0.00715843 0.03) 29
(0.0608925 0.0175014 0.03) 69
(0.0572112 0.00351279 0.03) 18
(0.0547231 0.00532656 0.03) 18
(0.0512621 0.00796319 0.03) 27
(0.0481517 0.0162223 0.03) 67
(0.0448496 0.0222202 0.03) 86
(0.0422279 0.0120449 0.03) 46
(0.0390011 0.0105163 0.03) 35
(0.0364336 0.0210719 0.03) 75
(0.0336402 0.00264395 0.03) 5
(0.0314978 0.00828313 0.03) 34
(0.029157 0.0234981 0.03) 84
(0.0118589 0.000694916 0.03) 1
(0.0239364 0.0179309 0.03) 63
(0.0225397 0.0181398 0.03) 63
(0.0205218 0.0241202 0.03) 93
(0.0183336 0.0133613 0.03) 52
(0.0159316 0.0105345 0.03) 32
(0.0150624 0.0135569 0.03) 52
(0.0135504 0.0230342 0.03) 82
(0.0113928 0.014524 0.03) 51
(0.00996456 0.0148776 0.03) 51
(0.00867853 0.0219005 0.03) 81
(0.00621081 0.0250367 0.03) 90
(0.00593226 0.0160365 0.03) 60
(0.00508227 0.00681832 0.03) 20
(0.00336292 0.00166568 0.03) 0
(0.00317314 0.00940364 0.03) 30
(0.00322866 0.0131923 0.03) 40
(0.00292037 0.0190823 0.03) 70
(0.00226726 0.0166479 0.03) 60
(0.00160222 0.00299932 0.03) 10
(0.00119276 0.0212685 0.03) 70
(0.00149278 0.0243024 0.03) 90
)


// ************************************************************************* //
