/*--------------------------------*- C++ -*----------------------------------*\
| =========                 |                                                 |
| \\      /  F ield         | OpenFOAM: The Open Source CFD Toolbox           |
|  \\    /   O peration     | Version:  v2012                                 |
|   \\  /    A nd           | Website:  www.openfoam.com                      |
|    \\/     M anipulation  |                                                 |
\*---------------------------------------------------------------------------*/
FoamFile
{
    version     2.0;
    format      ascii;
    class       vectorField;
    location    "0.072/lagrangian/kinematicCloud";
    object      U;
}
// * * * * * * * * * * * * * * * * * * * * * * * * * * * * * * * * * * * * * //


75
(
(5.98239 -0.103327 0)
(6.91283 -0.0232813 0)
(6.894 -0.0159179 0)
(6.59175 -0.0331532 0)
(6.82538 -0.00661836 0)
(6.82062 -0.00946025 0)
(3.70204 0.130655 0)
(6.7443 -0.00259242 0)
(6.69999 -0.00192247 0)
(6.67515 0.00538069 0)
(6.65232 0.00680905 0)
(6.26424 0.0048911 0)
(0.404509 -1.29358e-05 0)
(0.371836 3.06036e-06 0)
(2.97673 0.00584684 0)
(6.40308 0.0532056 0)
(4.95416 0.0915875 0)
(5.88203 0.0135363 0)
(5.39789 0.143081 0)
(6.00917 0.0303786 0)
(5.86775 0.0532236 0)
(1.81234 0.000163075 0)
(5.53493 0.0539102 0)
(4.62866 0.157726 0)
(5.25209 0.16977 0)
(5.16703 0.0557655 0)
(4.49669 0.15469 0)
(4.99063 0.0430252 0)
(2.35574 0.001808 0)
(4.80837 0.0288274 0)
(0.413162 1.03365e-05 0)
(3.71511 0.0659406 0)
(1.3935 -6.8343e-05 0)
(4.17505 0.055727 0)
(4.07695 0.0901313 0)
(4.07362 0.0336991 0)
(3.9178 0.0484813 0)
(3.81435 0.0387965 0)
(3.74423 0.0158757 0)
(1.02272 5.16479e-05 0)
(3.51331 0.0132929 0)
(3.44134 0.00702869 0)
(3.32816 0.00340462 0)
(3.24024 0.00390512 0)
(3.14969 0.0034916 0)
(3.05986 0.00235163 0)
(2.96714 0.00063304 0)
(2.86969 0.00159185 0)
(2.77312 0.00116573 0)
(2.67935 0.000285291 0)
(2.5792 0.000404765 0)
(2.4826 0.000444964 0)
(2.38493 -0.000115465 0)
(0.827233 5.45359e-05 0)
(2.18875 0.000139146 0)
(2.08878 0.000121193 0)
(1.98546 -0.000159331 0)
(1.88951 -9.67822e-06 0)
(1.7885 9.38938e-06 0)
(1.68662 -4.9739e-05 0)
(1.58473 -0.000191256 0)
(1.48139 -6.54008e-05 0)
(1.37812 -5.17721e-05 0)
(1.27578 -0.000104828 0)
(0.996849 -5.16964e-05 0)
(1.0674 8.90727e-07 0)
(0.962029 -2.82781e-06 0)
(0.73141 2.40786e-05 0)
(0.749951 -2.77697e-06 0)
(0.643053 -1.33917e-05 0)
(0.535502 -6.08631e-06 0)
(0.427157 -1.59068e-06 0)
(0.318664 1.00808e-05 0)
(0.209329 -2.58619e-06 0)
(0.0994269 -3.22603e-06 0)
)


// ************************************************************************* //
