/*--------------------------------*- C++ -*----------------------------------*\
| =========                 |                                                 |
| \\      /  F ield         | OpenFOAM: The Open Source CFD Toolbox           |
|  \\    /   O peration     | Version:  v2012                                 |
|   \\  /    A nd           | Website:  www.openfoam.com                      |
|    \\/     M anipulation  |                                                 |
\*---------------------------------------------------------------------------*/
FoamFile
{
    version     2.0;
    format      ascii;
    class       surfaceScalarField;
    location    "0.391";
    object      phi.air;
}
// * * * * * * * * * * * * * * * * * * * * * * * * * * * * * * * * * * * * * //

dimensions      [0 3 -1 0 0 0 0];
oriented        oriented;


internalField   nonuniform List<scalar> 
10964
(
0.000657106
2.51273e-05
0.000628902
2.73627e-05
0.000601317
2.6741e-05
0.000575027
2.54447e-05
0.000551118
2.30604e-05
0.000530162
2.01068e-05
0.000512502
1.68085e-05
0.000497901
1.37488e-05
0.000485909
1.11383e-05
0.000476267
8.7875e-06
0.000468659
6.75293e-06
0.000462713
5.09054e-06
0.000458072
3.78548e-06
0.000454434
2.78285e-06
0.00045154
2.03747e-06
0.000449195
1.4895e-06
0.000447253
1.08553e-06
0.00044561
7.86853e-07
0.000444195
5.59586e-07
0.000442977
3.62216e-07
0.000441919
2.01349e-07
0.000441019
4.45973e-08
0.000440275
-1.12389e-07
0.000439661
-2.41259e-07
0.000439158
-3.53378e-07
0.00043874
-4.37411e-07
0.000438398
-5.14401e-07
0.000438106
-5.63185e-07
0.000437852
-6.02375e-07
0.000437613
-6.16378e-07
0.000437379
-6.21195e-07
0.000437142
-6.19041e-07
0.000436906
-6.19157e-07
0.00043667
-6.20337e-07
0.000436435
-6.20381e-07
0.000436206
-6.25971e-07
0.000435979
-6.28599e-07
0.00043576
-6.36862e-07
0.000435547
-6.42074e-07
0.000435344
-6.52797e-07
0.000435151
-6.62694e-07
0.000434969
-6.73712e-07
0.000434797
-6.83655e-07
0.000434641
-6.99415e-07
0.000434499
-7.13235e-07
0.000434371
-7.27916e-07
0.000434255
-7.39485e-07
0.000434151
-7.51536e-07
0.000434056
-7.60483e-07
0.00043397
-7.69764e-07
0.000433893
-7.78193e-07
0.000433825
-7.87195e-07
0.000433759
-7.89631e-07
0.000433703
-7.99643e-07
0.000433657
-8.09366e-07
0.000433621
-8.19786e-07
0.000433592
-8.2589e-07
0.000433572
-8.3546e-07
0.000433563
-8.46491e-07
0.000433563
-8.55066e-07
0.000433568
-8.60702e-07
0.000433584
-8.71185e-07
0.000433605
-8.77281e-07
0.000433637
-8.86615e-07
0.000433674
-8.93001e-07
0.000433722
-9.02675e-07
0.000433774
-9.07717e-07
0.000433836
-9.17698e-07
0.000433903
-9.21492e-07
0.000433978
-9.31128e-07
0.000434059
-9.35787e-07
0.000434149
-9.44967e-07
0.000434242
-9.49186e-07
0.000434344
-9.56878e-07
0.000434451
-9.62609e-07
0.000434566
-9.69475e-07
0.000434685
-9.74802e-07
0.000434811
-9.80755e-07
0.000434942
-9.86363e-07
0.000435078
-9.91177e-07
0.00043522
-9.96717e-07
0.000435363
-9.98691e-07
0.000435514
-1.00568e-06
0.000435663
-1.00374e-06
0.000435821
-1.013e-06
0.000435973
-1.00704e-06
0.000436141
-1.0239e-06
0.000436294
-1.00788e-06
0.000436489
-1.04914e-06
0.000436646
-1.01232e-06
0.000436858
-1.06723e-06
0.000437011
-1.00727e-06
0.00043723
-1.07462e-06
0.000437353
-9.77443e-07
0.000437638
-1.14013e-06
0.000437739
-9.54985e-07
0.00043815
-1.26621e-06
0.000438864
-1.56867e-06
0.00043746
5.47723e-07
-1.11873e-05
0.000447795
0.000757085
2.43227e-05
0.000754877
2.95708e-05
0.000751202
3.04159e-05
0.000745928
3.07184e-05
0.000739361
2.96276e-05
0.000731832
2.76356e-05
0.000723576
2.50644e-05
0.000714971
2.23545e-05
0.000706311
1.97973e-05
0.000697783
1.73164e-05
0.000689587
1.49487e-05
0.00068184
1.28377e-05
0.00067462
1.10056e-05
0.000667976
9.42618e-06
0.000661923
8.09077e-06
0.000656454
6.95865e-06
0.000651544
5.99519e-06
0.000647161
5.17044e-06
0.000643277
4.44289e-06
0.000639871
3.7683e-06
0.000636901
3.17129e-06
0.000634312
2.63367e-06
0.000632004
2.19568e-06
0.000629934
1.8292e-06
0.00062808
1.49991e-06
0.000626416
1.22695e-06
0.000624894
1.00726e-06
0.000623479
8.52646e-07
0.000622159
7.17632e-07
0.000620928
6.14186e-07
0.000619781
5.25577e-07
0.000618716
4.46606e-07
0.000617735
3.61708e-07
0.000616828
2.8655e-07
0.00061599
2.17526e-07
0.000615213
1.50945e-07
0.000614493
9.16636e-08
0.000613824
3.17609e-08
0.000613204
-2.16887e-08
0.000612629
-7.79388e-08
0.000612098
-1.32014e-07
0.000611606
-1.8185e-07
0.000611153
-2.30617e-07
0.000610736
-2.81753e-07
0.000610349
-3.26571e-07
0.000609989
-3.67998e-07
0.000609653
-4.03355e-07
0.00060934
-4.38576e-07
0.000609048
-4.68266e-07
0.000608777
-4.99046e-07
0.000608526
-5.27004e-07
0.000608294
-5.55781e-07
0.000608081
-5.76674e-07
0.000607888
-6.05947e-07
0.000607712
-6.3412e-07
0.000607557
-6.64551e-07
0.000607418
-6.86733e-07
0.000607297
-7.13935e-07
0.000607191
-7.41319e-07
0.000607103
-7.66812e-07
0.00060703
-7.87189e-07
0.000606972
-8.13229e-07
0.000606927
-8.32527e-07
0.000606896
-8.5595e-07
0.00060688
-8.76968e-07
0.000606876
-8.98157e-07
0.000606882
-9.1392e-07
0.000606901
-9.36358e-07
0.00060693
-9.50888e-07
0.000606973
-9.74022e-07
0.000607025
-9.88141e-07
0.00060709
-1.0098e-06
0.000607164
-1.02305e-06
0.000607249
-1.04206e-06
0.000607344
-1.05734e-06
0.000607449
-1.07472e-06
0.000607562
-1.08803e-06
0.000607685
-1.10309e-06
0.000607814
-1.11557e-06
0.000607952
-1.12925e-06
0.000608095
-1.13995e-06
0.000608247
-1.15072e-06
0.000608403
-1.1611e-06
0.000608568
-1.16962e-06
0.000608733
-1.1778e-06
0.000608915
-1.189e-06
0.00060909
-1.1984e-06
0.00060929
-1.20854e-06
0.000609473
-1.23133e-06
0.00060969
-1.22933e-06
0.000609875
-1.25293e-06
0.000610111
-1.24349e-06
0.000610286
-1.24911e-06
0.00061057
-1.26144e-06
0.000610717
-1.2873e-06
0.000611135
-1.37243e-06
0.000611259
-1.3907e-06
0.000611962
-2.27181e-06
0.000612193
3.16973e-07
-1.52363e-05
0.000616242
0.000840343
2.13132e-05
0.000842332
2.75816e-05
0.000844302
2.84453e-05
0.000845633
2.93883e-05
0.000846213
2.90476e-05
0.000845985
2.78629e-05
0.000845037
2.60131e-05
0.000843329
2.40619e-05
0.000840904
2.22225e-05
0.000837777
2.04436e-05
0.000834026
1.86995e-05
0.000829712
1.71515e-05
0.00082494
1.5778e-05
0.000819829
1.45372e-05
0.000814506
1.34131e-05
0.000809098
1.23671e-05
0.000803704
1.13893e-05
0.000798449
1.04251e-05
0.000793418
9.47384e-06
0.000788679
8.50791e-06
0.000784255
7.59504e-06
0.000780181
6.7078e-06
0.000776458
5.91802e-06
0.000773064
5.22333e-06
0.000769972
4.59226e-06
0.000767153
4.04621e-06
0.000764562
3.59769e-06
0.000762171
3.24361e-06
0.00075997
2.91872e-06
0.000757948
2.63638e-06
0.000756091
2.38262e-06
0.000754388
2.14947e-06
0.000752828
1.92161e-06
0.000751391
1.72344e-06
0.000750067
1.54196e-06
0.000748842
1.37572e-06
0.000747711
1.22291e-06
0.000746664
1.07896e-06
0.000745697
9.45127e-07
0.000744802
8.1661e-07
0.000743979
6.91634e-07
0.000743216
5.80443e-07
0.000742515
4.70315e-07
0.000741859
3.74302e-07
0.000741242
2.9037e-07
0.000740662
2.12376e-07
0.000740117
1.41348e-07
0.000739608
7.04723e-08
0.000739133
6.92912e-09
0.000738692
-5.76135e-08
0.000738282
-1.17034e-07
0.000737903
-1.76881e-07
0.000737555
-2.28474e-07
0.000737236
-2.87287e-07
0.000736945
-3.43471e-07
0.000736683
-4.02287e-07
0.000736445
-4.49215e-07
0.000736233
-5.01702e-07
0.000736043
-5.51424e-07
0.000735877
-6.00108e-07
0.000735731
-6.41694e-07
0.000735606
-6.87985e-07
0.000735499
-7.25928e-07
0.000735411
-7.67952e-07
0.000735341
-8.06309e-07
0.000735287
-8.44719e-07
0.000735249
-8.7613e-07
0.000735228
-9.14534e-07
0.000735224
-9.4736e-07
0.000735233
-9.83125e-07
0.000735256
-1.01131e-06
0.000735295
-1.04855e-06
0.000735347
-1.07521e-06
0.000735414
-1.10836e-06
0.000735493
-1.1364e-06
0.000735584
-1.16653e-06
0.000735686
-1.18956e-06
0.000735798
-1.21507e-06
0.000735918
-1.23612e-06
0.000736049
-1.26018e-06
0.000736187
-1.27796e-06
0.000736336
-1.29954e-06
0.00073649
-1.31536e-06
0.000736658
-1.33668e-06
0.000736826
-1.34605e-06
0.000737013
-1.37661e-06
0.000737196
-1.38115e-06
0.000737407
-1.41904e-06
0.0007376
-1.425e-06
0.000737832
-1.46051e-06
0.000738034
-1.45549e-06
0.000738279
-1.48802e-06
0.000738486
-1.45643e-06
0.000738768
-1.54339e-06
0.000738976
-1.49582e-06
0.000739345
-1.74093e-06
0.000739578
-1.62375e-06
0.000740208
-2.9017e-06
0.00074138
-8.55292e-07
-1.5909e-05
0.000742053
0.000930296
1.80904e-05
0.000933078
2.47989e-05
0.000936234
2.52899e-05
0.000939314
2.63085e-05
0.00094213
2.62311e-05
0.000944657
2.5336e-05
0.000946786
2.38844e-05
0.000948508
2.23392e-05
0.000949817
2.09134e-05
0.000950712
1.9549e-05
0.000951157
1.82543e-05
0.000951127
1.71821e-05
0.000950718
1.61863e-05
0.000949891
1.53647e-05
0.000948629
1.46754e-05
0.000946927
1.40685e-05
0.000944789
1.35274e-05
0.000942218
1.2996e-05
0.000939239
1.24532e-05
0.000935888
1.18591e-05
0.000932207
1.12756e-05
0.000928293
1.06215e-05
0.000924255
9.95651e-06
0.000920212
9.26629e-06
0.000916222
8.58188e-06
0.000912372
7.89669e-06
0.00090873
7.23972e-06
0.000905329
6.64463e-06
0.000902176
6.07103e-06
0.000899264
5.54903e-06
0.000896575
5.07106e-06
0.000894091
4.63417e-06
0.000891765
4.24768e-06
0.000889587
3.9007e-06
0.000887553
3.57599e-06
0.000885656
3.27296e-06
0.000883891
2.98843e-06
0.000882249
2.72053e-06
0.000880728
2.46622e-06
0.000879317
2.22711e-06
0.000878019
1.9905e-06
0.000876813
1.78565e-06
0.000875696
1.58726e-06
0.000874656
1.41431e-06
0.000873689
1.25804e-06
0.000872786
1.11487e-06
0.000871945
9.82326e-07
0.000871161
8.54283e-07
0.000870432
7.36267e-07
0.000869755
6.19748e-07
0.000869127
5.10824e-07
0.000868546
4.04201e-07
0.000868011
3.06191e-07
0.000867518
2.05303e-07
0.000867068
1.06793e-07
0.000866657
8.61892e-09
0.000866281
-7.28062e-08
0.000865938
-1.58479e-07
0.000865626
-2.39687e-07
0.000865344
-3.18047e-07
0.000865089
-3.87297e-07
0.000864862
-4.60095e-07
0.000864658
-5.22633e-07
0.00086448
-5.89229e-07
0.000864323
-6.50215e-07
0.00086419
-7.11309e-07
0.000864078
-7.63784e-07
0.000863987
-8.23796e-07
0.000863918
-8.78308e-07
0.000863869
-9.33994e-07
0.000863841
-9.83907e-07
0.000863831
-1.03783e-06
0.00086384
-1.08406e-06
0.000863864
-1.1325e-06
0.000863905
-1.17788e-06
0.000863959
-1.22066e-06
0.000864025
-1.25523e-06
0.000864102
-1.29193e-06
0.000864191
-1.32514e-06
0.000864291
-1.36053e-06
0.000864404
-1.39035e-06
0.000864527
-1.4229e-06
0.000864663
-1.4511e-06
0.000864809
-1.48296e-06
0.000864966
-1.50342e-06
0.000865137
-1.54684e-06
0.000865317
-1.56137e-06
0.00086551
-1.61224e-06
0.000865711
-1.62647e-06
0.000865922
-1.67124e-06
0.000866145
-1.67863e-06
0.000866373
-1.71605e-06
0.00086662
-1.70336e-06
0.000866866
-1.78912e-06
0.000867148
-1.77761e-06
0.00086743
-2.02356e-06
0.000867801
-1.99428e-06
0.000868271
-3.37214e-06
0.000869615
-2.19901e-06
-1.56852e-05
0.000869391
0.00102962
1.48958e-05
0.00103284
2.15826e-05
0.0010364
2.1732e-05
0.00104004
2.2663e-05
0.00104357
2.27019e-05
0.00104697
2.19401e-05
0.00105012
2.07321e-05
0.00105301
1.94473e-05
0.00105566
1.82633e-05
0.00105807
1.71462e-05
0.00106022
1.60977e-05
0.00106216
1.52489e-05
0.00106386
1.4479e-05
0.00106537
1.38587e-05
0.00106667
1.33733e-05
0.00106777
1.29701e-05
0.00106865
1.26481e-05
0.0010693
1.23475e-05
0.00106968
1.20705e-05
0.00106975
1.17934e-05
0.00106951
1.15159e-05
0.00106894
1.11918e-05
0.00106801
1.08855e-05
0.0010667
1.05688e-05
0.00106504
1.02509e-05
0.00106302
9.9111e-06
0.00106071
9.54553e-06
0.00105818
9.18066e-06
0.00105547
8.77613e-06
0.00105266
8.36708e-06
0.00104977
7.95925e-06
0.00104689
7.51217e-06
0.00104405
7.08812e-06
0.0010413
6.65267e-06
0.00103864
6.23079e-06
0.00103611
5.80726e-06
0.0010337
5.39896e-06
0.00103142
5.00061e-06
0.00102927
4.61562e-06
0.00102725
4.24733e-06
0.00102536
3.88254e-06
0.00102355
3.58921e-06
0.00102184
3.30225e-06
0.00102022
3.03099e-06
0.00101871
2.77284e-06
0.00101729
2.53272e-06
0.00101596
2.30632e-06
0.00101473
2.09101e-06
0.00101357
1.88852e-06
0.0010125
1.693e-06
0.0010115
1.50755e-06
0.00101058
1.33058e-06
0.00100972
1.16168e-06
0.00100893
9.9973e-07
0.00100819
8.42552e-07
0.00100751
6.93286e-07
0.00100687
5.64509e-07
0.00100628
4.33896e-07
0.00100573
3.11749e-07
0.00100522
1.93011e-07
0.00100474
8.42379e-08
0.00100431
-2.53558e-08
0.00100391
-1.22953e-07
0.00100354
-2.24046e-07
0.00100321
-3.18647e-07
0.00100291
-4.11673e-07
0.00100265
-4.9612e-07
0.00100241
-5.86651e-07
0.0010022
-6.73023e-07
0.00100203
-7.55547e-07
0.00100188
-8.35686e-07
0.00100175
-9.12359e-07
0.00100165
-9.84763e-07
0.00100157
-1.05299e-06
0.00100152
-1.1224e-06
0.00100148
-1.18286e-06
0.00100146
-1.23865e-06
0.00100146
-1.29401e-06
0.00100148
-1.34453e-06
0.00100152
-1.39455e-06
0.00100157
-1.44396e-06
0.00100164
-1.4896e-06
0.00100173
-1.53949e-06
0.00100182
-1.58057e-06
0.00100195
-1.62434e-06
0.00100207
-1.67473e-06
0.00100223
-1.71424e-06
0.00100238
-1.76798e-06
0.00100256
-1.80928e-06
0.00100274
-1.84997e-06
0.00100295
-1.89006e-06
0.00100316
-1.92169e-06
0.0010034
-1.94369e-06
0.00100363
-2.02183e-06
0.0010039
-2.04686e-06
0.00100418
-2.30355e-06
0.00100454
-2.35253e-06
0.00100493
-3.75685e-06
0.00100612
-3.39305e-06
-1.54115e-05
0.00100585
0.00113955
1.17858e-05
0.00114322
1.79105e-05
0.00114711
1.78446e-05
0.00115114
1.86308e-05
0.00115511
1.87344e-05
0.00115895
1.80907e-05
0.00116259
1.70992e-05
0.00116599
1.60432e-05
0.00116919
1.50632e-05
0.00117219
1.4146e-05
0.001175
1.32905e-05
0.00117765
1.25979e-05
0.00118015
1.19813e-05
0.00118252
1.14881e-05
0.00118478
1.11113e-05
0.00118694
1.08098e-05
0.00118901
1.05783e-05
0.00119098
1.03733e-05
0.00119286
1.01909e-05
0.00119464
1.00194e-05
0.0011963
9.85875e-06
0.00119782
9.66333e-06
0.00119921
9.49778e-06
0.00120045
9.33295e-06
0.00120151
9.19269e-06
0.00120238
9.04088e-06
0.00120302
8.89958e-06
0.00120345
8.75647e-06
0.0012036
8.6204e-06
0.00120347
8.49394e-06
0.0012031
8.33078e-06
0.00120247
8.14263e-06
0.0012016
7.96189e-06
0.0012005
7.7521e-06
0.00119919
7.53605e-06
0.00119771
7.2915e-06
0.00119607
7.03689e-06
0.00119431
6.76044e-06
0.00119246
6.46937e-06
0.00119054
6.16213e-06
0.00118859
5.83253e-06
0.00118664
5.54123e-06
0.0011847
5.24274e-06
0.0011828
4.93146e-06
0.00118095
4.62777e-06
0.00117916
4.32248e-06
0.00117743
4.02753e-06
0.00117579
3.73469e-06
0.00117423
3.45319e-06
0.00117274
3.17723e-06
0.00117134
2.91047e-06
0.00117001
2.6573e-06
0.00116876
2.41404e-06
0.00116756
2.20433e-06
0.0011664
1.99614e-06
0.0011653
1.79189e-06
0.00116426
1.60936e-06
0.00116327
1.42458e-06
0.00116233
1.24653e-06
0.00116145
1.0746e-06
0.00116063
9.10636e-07
0.00115985
7.51055e-07
0.00115913
5.98867e-07
0.00115845
4.49298e-07
0.00115783
3.03491e-07
0.00115725
1.65144e-07
0.00115673
3.32083e-08
0.00115624
-9.94712e-08
0.00115579
-2.28685e-07
0.00115538
-3.45492e-07
0.00115501
-4.62591e-07
0.00115467
-5.70102e-07
0.00115436
-6.74148e-07
0.00115408
-7.70529e-07
0.00115382
-8.70588e-07
0.0011536
-9.58282e-07
0.00115341
-1.04625e-06
0.00115324
-1.12965e-06
0.00115311
-1.21012e-06
0.001153
-1.28348e-06
0.00115291
-1.3614e-06
0.00115286
-1.43057e-06
0.00115282
-1.50587e-06
0.00115281
-1.57086e-06
0.00115283
-1.64225e-06
0.00115286
-1.70312e-06
0.00115292
-1.77619e-06
0.00115299
-1.83947e-06
0.00115309
-1.91005e-06
0.0011532
-1.95963e-06
0.00115334
-2.02933e-06
0.00115349
-2.07286e-06
0.00115367
-2.11724e-06
0.00115386
-2.21324e-06
0.00115407
-2.2588e-06
0.00115431
-2.54804e-06
0.00115464
-2.68267e-06
0.00115499
-4.10038e-06
0.00115601
-4.4203e-06
-1.50334e-05
0.00115564
0.0012613
8.7211e-06
0.00126542
1.37888e-05
0.00126966
1.36041e-05
0.00127409
1.42035e-05
0.00127848
1.43382e-05
0.00128274
1.38305e-05
0.00128678
1.30623e-05
0.00129058
1.22418e-05
0.00129417
1.14733e-05
0.00129756
1.07594e-05
0.00130075
1.00976e-05
0.00130379
9.55863e-06
0.00130669
9.08409e-06
0.00130947
8.70234e-06
0.00131217
8.41361e-06
0.00131479
8.18603e-06
0.00131736
8.01421e-06
0.00131986
7.86606e-06
0.00132232
7.73613e-06
0.00132472
7.61869e-06
0.00132707
7.51021e-06
0.00132936
7.37544e-06
0.00133159
7.26144e-06
0.00133377
7.15477e-06
0.0013359
7.06746e-06
0.00133796
6.98016e-06
0.00133996
6.89992e-06
0.00134188
6.82929e-06
0.00134374
6.76624e-06
0.0013455
6.72998e-06
0.00134717
6.66334e-06
0.00134872
6.59222e-06
0.00135015
6.52842e-06
0.00135145
6.46033e-06
0.00135259
6.3888e-06
0.00135358
6.30812e-06
0.00135439
6.2271e-06
0.00135502
6.12791e-06
0.00135545
6.035e-06
0.0013557
5.91811e-06
0.00135571
5.8194e-06
0.00135557
5.6851e-06
0.00135526
5.5471e-06
0.0013548
5.39498e-06
0.00135418
5.24187e-06
0.00135343
5.07261e-06
0.00135256
4.90009e-06
0.00135158
4.71134e-06
0.00135052
4.51791e-06
0.00134939
4.31047e-06
0.0013482
4.09652e-06
0.00134698
3.8779e-06
0.00134574
3.65265e-06
0.0013445
3.44372e-06
0.00134327
3.22968e-06
0.00134205
3.00651e-06
0.00134086
2.80407e-06
0.00133969
2.592e-06
0.00133856
2.37726e-06
0.00133747
2.16895e-06
0.00133642
1.961e-06
0.00133541
1.75946e-06
0.00133445
1.55967e-06
0.00133353
1.36535e-06
0.00133266
1.17267e-06
0.00133184
9.87802e-07
0.00133106
8.11855e-07
0.00133031
6.50656e-07
0.00132959
4.95801e-07
0.00132889
3.53551e-07
0.00132822
2.04823e-07
0.00132758
6.61876e-08
0.00132698
-7.28264e-08
0.00132641
-2.02262e-07
0.00132588
-3.40422e-07
0.00132539
-4.61617e-07
0.00132493
-5.86771e-07
0.0013245
-7.06006e-07
0.00132412
-8.24565e-07
0.00132377
-9.33583e-07
0.00132346
-1.04878e-06
0.00132318
-1.15291e-06
0.00132294
-1.2633e-06
0.00132273
-1.36108e-06
0.00132255
-1.46711e-06
0.00132241
-1.55802e-06
0.00132229
-1.66373e-06
0.00132221
-1.75806e-06
0.00132215
-1.85223e-06
0.00132213
-1.93769e-06
0.00132213
-2.02499e-06
0.00132215
-2.09559e-06
0.0013222
-2.16377e-06
0.00132227
-2.28253e-06
0.00132237
-2.36724e-06
0.0013225
-2.67322e-06
0.00132273
-2.91696e-06
0.00132296
-4.3274e-06
0.00132376
-5.21904e-06
-1.45029e-05
0.00132323
0.00139614
5.65797e-06
0.00140075
9.1844e-06
0.00140539
8.9588e-06
0.00141024
9.3536e-06
0.00141511
9.47386e-06
0.00141982
9.11933e-06
0.00142428
8.59745e-06
0.00142849
8.03222e-06
0.00143247
7.49565e-06
0.00143623
7.00356e-06
0.00143977
6.54985e-06
0.00144315
6.17783e-06
0.00144639
5.85251e-06
0.0014495
5.58794e-06
0.00145252
5.3895e-06
0.00145548
5.23496e-06
0.00145837
5.12056e-06
0.00146121
5.02446e-06
0.00146401
4.94038e-06
0.00146676
4.86729e-06
0.00146947
4.80104e-06
0.00147213
4.71144e-06
0.00147476
4.63352e-06
0.00147735
4.56169e-06
0.00147991
4.50533e-06
0.00148245
4.4493e-06
0.00148495
4.39776e-06
0.00148742
4.35288e-06
0.00148987
4.31733e-06
0.0014923
4.30554e-06
0.00149469
4.27039e-06
0.00149705
4.23313e-06
0.00149938
4.20185e-06
0.00150166
4.17448e-06
0.00150391
4.14298e-06
0.0015061
4.1122e-06
0.00150825
4.07975e-06
0.00151034
4.0434e-06
0.00151236
4.00836e-06
0.00151431
3.96918e-06
0.00151619
3.94408e-06
0.00151797
3.90351e-06
0.00151966
3.8559e-06
0.00152124
3.80939e-06
0.00152272
3.762e-06
0.00152408
3.71255e-06
0.00152532
3.66147e-06
0.00152643
3.60531e-06
0.0015274
3.54799e-06
0.00152823
3.48166e-06
0.00152891
3.41752e-06
0.00152945
3.33848e-06
0.00152983
3.26854e-06
0.0015301
3.17026e-06
0.00153024
3.09577e-06
0.00153026
2.98817e-06
0.00153017
2.89074e-06
0.00152999
2.77466e-06
0.00152971
2.65483e-06
0.00152935
2.53048e-06
0.00152891
2.39965e-06
0.00152841
2.26272e-06
0.00152785
2.11955e-06
0.00152724
1.96982e-06
0.0015266
1.81354e-06
0.00152593
1.65716e-06
0.00152525
1.49536e-06
0.00152456
1.34303e-06
0.00152386
1.18719e-06
0.00152318
1.04255e-06
0.00152249
8.85508e-07
0.00152182
7.37035e-07
0.00152117
5.84483e-07
0.00152052
4.39025e-07
0.00151991
2.79327e-07
0.00151931
1.38477e-07
0.00151873
-9.97614e-09
0.00151818
-1.56089e-07
0.00151766
-3.0134e-07
0.00151716
-4.39568e-07
0.0015167
-5.8308e-07
0.00151626
-7.17748e-07
0.00151585
-8.55911e-07
0.00151548
-9.84298e-07
0.00151513
-1.11708e-06
0.00151481
-1.23799e-06
0.00151451
-1.37061e-06
0.00151425
-1.49538e-06
0.00151401
-1.60859e-06
0.00151379
-1.72218e-06
0.00151359
-1.82421e-06
0.00151342
-1.9225e-06
0.00151326
-2.01077e-06
0.00151313
-2.14606e-06
0.00151303
-2.26589e-06
0.00151293
-2.57863e-06
0.00151293
-2.91494e-06
0.00151291
-4.30454e-06
0.00151332
-5.63687e-06
-1.36972e-05
0.00151252
0.00154551
2.52714e-06
0.00155064
4.05343e-06
0.00155576
3.84617e-06
0.00156107
4.03755e-06
0.00156645
4.09187e-06
0.00157167
3.9062e-06
0.0015766
3.65936e-06
0.00158126
3.37242e-06
0.00158567
3.09144e-06
0.00158983
2.84507e-06
0.00159376
2.61953e-06
0.0015975
2.434e-06
0.00160108
2.27139e-06
0.00160453
2.13647e-06
0.00160789
2.03727e-06
0.00161116
1.96223e-06
0.00161437
1.91002e-06
0.00161752
1.8692e-06
0.00162063
1.83282e-06
0.00162369
1.80616e-06
0.00162671
1.78372e-06
0.00162968
1.73873e-06
0.00163262
1.69615e-06
0.00163552
1.65762e-06
0.0016384
1.62983e-06
0.00164125
1.60089e-06
0.00164407
1.57362e-06
0.00164688
1.54665e-06
0.00164966
1.53131e-06
0.00165244
1.53338e-06
0.00165519
1.51832e-06
0.00165792
1.49866e-06
0.00166064
1.48486e-06
0.00166334
1.47553e-06
0.00166602
1.46306e-06
0.00166868
1.45206e-06
0.00167132
1.43937e-06
0.00167394
1.42628e-06
0.00167654
1.41008e-06
0.00167911
1.39833e-06
0.00168165
1.39549e-06
0.00168417
1.38358e-06
0.00168667
1.36431e-06
0.00168913
1.34921e-06
0.00169156
1.3331e-06
0.00169395
1.31974e-06
0.00169631
1.30435e-06
0.00169862
1.29064e-06
0.00170089
1.27495e-06
0.00170312
1.25922e-06
0.00170529
1.24372e-06
0.0017074
1.22639e-06
0.00170946
1.21108e-06
0.00171144
1.18742e-06
0.00171336
1.1779e-06
0.00171519
1.15318e-06
0.00171695
1.13348e-06
0.00171862
1.10643e-06
0.0017202
1.07659e-06
0.00172168
1.0487e-06
0.00172306
1.01729e-06
0.00172434
9.84632e-07
0.00172551
9.48535e-07
0.00172657
9.08222e-07
0.00172752
8.64974e-07
0.00172836
8.1953e-07
0.00172908
7.7252e-07
0.00172971
7.16512e-07
0.00173024
6.55427e-07
0.00173069
5.96844e-07
0.00173105
5.26365e-07
0.00173133
4.55552e-07
0.00173152
3.87236e-07
0.00173166
3.02501e-07
0.00173172
2.23947e-07
0.00173171
1.40068e-07
0.00173166
4.09181e-08
0.00173156
-5.45754e-08
0.00173142
-1.54682e-07
0.00173123
-2.54372e-07
0.00173101
-3.62125e-07
0.00173076
-4.68448e-07
0.00173048
-5.79508e-07
0.00173019
-6.87207e-07
0.00172987
-8.00238e-07
0.00172954
-9.04983e-07
0.00172919
-1.02618e-06
0.00172883
-1.13771e-06
0.00172846
-1.236e-06
0.00172808
-1.33892e-06
0.00172768
-1.43057e-06
0.00172728
-1.51863e-06
0.00172687
-1.59878e-06
0.00172644
-1.71896e-06
0.00172601
-1.83723e-06
0.00172557
-2.13139e-06
0.00172516
-2.50961e-06
0.0017247
-3.84153e-06
0.00172456
-5.49851e-06
-1.24119e-05
0.00172327
0.001711
-7.93985e-07
0.00171671
-1.64987e-06
0.00172235
-1.79973e-06
0.0017282
-1.81418e-06
0.00173416
-1.86637e-06
0.00173993
-1.86475e-06
0.0017454
-1.80347e-06
0.00175056
-1.78645e-06
0.00175543
-1.78559e-06
0.00176004
-1.75901e-06
0.00176439
-1.73339e-06
0.00176853
-1.71089e-06
0.0017725
-1.69456e-06
0.00177632
-1.68565e-06
0.00178003
-1.67489e-06
0.00178366
-1.66197e-06
0.00178721
-1.6451e-06
0.00179071
-1.62466e-06
0.00179415
-1.60905e-06
0.00179754
-1.58388e-06
0.00180088
-1.55755e-06
0.00180417
-1.555e-06
0.00180743
-1.55879e-06
0.00181065
-1.56164e-06
0.00181384
-1.55841e-06
0.001817
-1.55872e-06
0.00182013
-1.56068e-06
0.00182325
-1.56984e-06
0.00182634
-1.5648e-06
0.00182943
-1.54815e-06
0.00183249
-1.54479e-06
0.00183553
-1.54759e-06
0.00183856
-1.54523e-06
0.00184158
-1.53887e-06
0.00184458
-1.53453e-06
0.00184756
-1.52919e-06
0.00185052
-1.52559e-06
0.00185347
-1.5206e-06
0.0018564
-1.52368e-06
0.00185932
-1.5154e-06
0.00186222
-1.50266e-06
0.0018651
-1.49737e-06
0.00186796
-1.49795e-06
0.0018708
-1.4963e-06
0.00187363
-1.49474e-06
0.00187644
-1.49125e-06
0.00187924
-1.48901e-06
0.00188201
-1.48508e-06
0.00188477
-1.48281e-06
0.00188751
-1.47935e-06
0.00189023
-1.47686e-06
0.00189293
-1.47104e-06
0.00189561
-1.47117e-06
0.00189826
-1.46683e-06
0.0019009
-1.45603e-06
0.0019035
-1.45282e-06
0.00190608
-1.44809e-06
0.00190864
-1.44497e-06
0.00191116
-1.44446e-06
0.00191365
-1.43939e-06
0.0019161
-1.43625e-06
0.00191851
-1.43025e-06
0.00192089
-1.42674e-06
0.00192322
-1.42189e-06
0.0019255
-1.41823e-06
0.00192773
-1.41109e-06
0.00192991
-1.40276e-06
0.00193202
-1.39839e-06
0.00193407
-1.39288e-06
0.00193605
-1.38427e-06
0.00193796
-1.38047e-06
0.00193979
-1.37411e-06
0.00194153
-1.35725e-06
0.00194319
-1.35467e-06
0.00194475
-1.33809e-06
0.00194622
-1.32718e-06
0.00194758
-1.31835e-06
0.00194883
-1.30859e-06
0.00194997
-1.29302e-06
0.001951
-1.27898e-06
0.0019519
-1.26359e-06
0.00195268
-1.24938e-06
0.00195333
-1.23161e-06
0.00195386
-1.2141e-06
0.00195425
-1.19762e-06
0.00195452
-1.17507e-06
0.00195467
-1.17075e-06
0.00195467
-1.13763e-06
0.00195456
-1.12916e-06
0.00195434
-1.1187e-06
0.00195401
-1.09787e-06
0.00195357
-1.07623e-06
0.00195302
-1.05404e-06
0.00195237
-1.06908e-06
0.00195164
-1.1027e-06
0.0019508
-1.29339e-06
0.00194992
-1.6253e-06
0.00194887
-2.79641e-06
0.00194791
-4.53999e-06
-1.03229e-05
0.00194582
0.00171104
-4.14954e-06
0.00171675
-7.36516e-06
0.0017224
-7.44967e-06
0.00172826
-7.67163e-06
0.00173422
-7.82874e-06
0.00174
-7.6366e-06
0.00174546
-7.26418e-06
0.00175062
-6.94628e-06
0.00175549
-6.66376e-06
0.0017601
-6.36285e-06
0.00176445
-6.08688e-06
0.0017686
-5.8557e-06
0.00177256
-5.6606e-06
0.00177638
-5.50823e-06
0.0017801
-5.3874e-06
0.00178372
-5.28669e-06
0.00178728
-5.20061e-06
0.00179077
-5.11861e-06
0.00179421
-5.05188e-06
0.0017976
-4.97394e-06
0.00180094
-4.89803e-06
0.00180424
-4.84911e-06
0.00180749
-4.81386e-06
0.00181071
-4.78139e-06
0.0018139
-4.7466e-06
0.00181706
-4.71851e-06
0.0018202
-4.69478e-06
0.00182331
-4.68735e-06
0.00182641
-4.66113e-06
0.00182949
-4.62894e-06
0.00183255
-4.60785e-06
0.0018356
-4.59383e-06
0.00183863
-4.57488e-06
0.00184164
-4.55255e-06
0.00184464
-4.53121e-06
0.00184762
-4.50896e-06
0.00185058
-4.4889e-06
0.00185353
-4.46473e-06
0.00185646
-4.45524e-06
0.00185937
-4.42606e-06
0.00186226
-4.39644e-06
0.00186514
-4.37359e-06
0.001868
-4.35477e-06
0.00187083
-4.33509e-06
0.00187365
-4.31491e-06
0.00187646
-4.29326e-06
0.00187924
-4.2718e-06
0.001882
-4.24862e-06
0.00188475
-4.22614e-06
0.00188747
-4.20152e-06
0.00189017
-4.17811e-06
0.00189284
-4.14591e-06
0.0018955
-4.12716e-06
0.00189813
-4.09252e-06
0.00190073
-4.0547e-06
0.00190329
-4.02085e-06
0.00190583
-3.98388e-06
0.00190833
-3.94617e-06
0.00191079
-3.90679e-06
0.00191322
-3.86234e-06
0.00191559
-3.81428e-06
0.00191793
-3.76194e-06
0.0019202
-3.70607e-06
0.00192243
-3.64697e-06
0.00192459
-3.58171e-06
0.00192669
-3.51106e-06
0.00192872
-3.43391e-06
0.00193068
-3.35596e-06
0.00193256
-3.27385e-06
0.00193436
-3.17973e-06
0.00193607
-3.09297e-06
0.00193769
-2.99105e-06
0.00193921
-2.88113e-06
0.00194063
-2.77477e-06
0.00194195
-2.65632e-06
0.00194316
-2.53633e-06
0.00194426
-2.41606e-06
0.00194524
-2.29061e-06
0.00194611
-2.16003e-06
0.00194685
-2.02588e-06
0.00194748
-1.89328e-06
0.00194799
-1.75784e-06
0.00194839
-1.63215e-06
0.00194868
-1.50699e-06
0.00194887
-1.38806e-06
0.00194896
-1.2585e-06
0.00194893
-1.14028e-06
0.00194881
-1.01969e-06
0.00194859
-9.12165e-07
0.00194828
-8.04779e-07
0.00194787
-6.9011e-07
0.00194737
-5.76754e-07
0.00194679
-4.67583e-07
0.00194611
-3.93489e-07
0.00194536
-3.48483e-07
0.0019445
-4.41062e-07
0.00194358
-7.02324e-07
0.00194248
-1.6923e-06
0.00194129
-3.35367e-06
-8.15038e-06
0.00193912
0.0015456
-7.37359e-06
0.00155077
-1.2526e-05
0.00155589
-1.25734e-05
0.00156122
-1.30026e-05
0.00156661
-1.32211e-05
0.00157183
-1.28526e-05
0.00157676
-1.21967e-05
0.00158142
-1.16086e-05
0.00158583
-1.10711e-05
0.00158999
-1.05205e-05
0.00159392
-1.00189e-05
0.00159766
-9.59906e-06
0.00160125
-9.24205e-06
0.0016047
-8.96068e-06
0.00160805
-8.74063e-06
0.00161133
-8.56061e-06
0.00161454
-8.41224e-06
0.00161769
-8.27378e-06
0.0016208
-8.162e-06
0.00162386
-8.03468e-06
0.00162688
-7.91299e-06
0.00162985
-7.82229e-06
0.00163279
-7.75098e-06
0.00163569
-7.68572e-06
0.00163857
-7.62062e-06
0.00164141
-7.56542e-06
0.00164423
-7.51598e-06
0.00164704
-7.49326e-06
0.00164982
-7.44408e-06
0.00165259
-7.39504e-06
0.00165534
-7.35506e-06
0.00165806
-7.32204e-06
0.00166077
-7.28396e-06
0.00166346
-7.242e-06
0.00166613
-7.19979e-06
0.00166878
-7.15552e-06
0.0016714
-7.11305e-06
0.001674
-7.06167e-06
0.00167658
-7.03196e-06
0.00167912
-6.97025e-06
0.00168164
-6.91138e-06
0.00168412
-6.85646e-06
0.00168657
-6.80149e-06
0.00168897
-6.74424e-06
0.00169134
-6.68276e-06
0.00169367
-6.61722e-06
0.00169594
-6.54679e-06
0.00169816
-6.47111e-06
0.00170033
-6.39025e-06
0.00170243
-6.30238e-06
0.00170446
-6.21011e-06
0.00170641
-6.09981e-06
0.00170829
-6.00492e-06
0.00171008
-5.87914e-06
0.00171177
-5.75025e-06
0.00171337
-5.61747e-06
0.00171486
-5.47709e-06
0.00171625
-5.3295e-06
0.00171752
-5.17573e-06
0.00171867
-5.01237e-06
0.00171969
-4.84238e-06
0.0017206
-4.66464e-06
0.00172137
-4.48276e-06
0.00172202
-4.29643e-06
0.00172256
-4.11434e-06
0.00172298
-3.93935e-06
0.00172331
-3.76299e-06
0.00172355
-3.5879e-06
0.00172369
-3.41401e-06
0.00172374
-3.23016e-06
0.0017237
-3.05828e-06
0.0017236
-2.88916e-06
0.00172343
-2.71525e-06
0.00172321
-2.54676e-06
0.00172292
-2.37553e-06
0.0017226
-2.20869e-06
0.00172223
-2.04765e-06
0.00172183
-1.88902e-06
0.0017214
-1.73124e-06
0.00172095
-1.57609e-06
0.00172048
-1.42735e-06
0.00172001
-1.28201e-06
0.00171953
-1.15097e-06
0.00171904
-1.02381e-06
0.00171856
-9.02313e-07
0.00171807
-7.75234e-07
0.00171759
-6.55773e-07
0.00171711
-5.36937e-07
0.00171662
-4.28724e-07
0.00171614
-3.218e-07
0.00171566
-2.08667e-07
0.00171518
-9.75688e-08
0.0017147
1.12099e-08
0.00171422
8.87559e-08
0.00171373
1.36527e-07
0.00171322
6.83572e-08
0.00171269
-1.67573e-07
0.00171203
-1.03187e-06
0.00171123
-2.55582e-06
-6.57016e-06
0.00170965
0.00139628
-1.05773e-05
0.00140093
-1.71734e-05
0.00140559
-1.72371e-05
0.00141046
-1.78706e-05
0.00141534
-1.80988e-05
0.00142006
-1.75694e-05
0.00142451
-1.6653e-05
0.00142873
-1.58222e-05
0.00143271
-1.50531e-05
0.00143646
-1.42749e-05
0.00144001
-1.35692e-05
0.00144339
-1.29787e-05
0.00144663
-1.24739e-05
0.00144974
-1.20757e-05
0.00145277
-1.17656e-05
0.00145572
-1.15118e-05
0.00145861
-1.13057e-05
0.00146145
-1.11119e-05
0.00146424
-1.09585e-05
0.00146699
-1.07808e-05
0.00146969
-1.06139e-05
0.00147235
-1.04804e-05
0.00147497
-1.03718e-05
0.00147756
-1.02703e-05
0.00148011
-1.0171e-05
0.00148262
-1.0083e-05
0.00148511
-1.00005e-05
0.00148757
-9.95349e-06
0.00148999
-9.86911e-06