/*--------------------------------*- C++ -*----------------------------------*\
| =========                 |                                                 |
| \\      /  F ield         | OpenFOAM: The Open Source CFD Toolbox           |
|  \\    /   O peration     | Version:  v2012                                 |
|   \\  /    A nd           | Website:  www.openfoam.com                      |
|    \\/     M anipulation  |                                                 |
\*---------------------------------------------------------------------------*/
FoamFile
{
    version     2.0;
    format      ascii;
    class       volScalarField;
    location    "0.035";
    object      nut.air;
}
// * * * * * * * * * * * * * * * * * * * * * * * * * * * * * * * * * * * * * //

dimensions      [0 2 -1 0 0 0 0];


internalField   nonuniform List<scalar> 
1900
(
1.07826e-05
1.25664e-05
1.64255e-05
1.88861e-05
2.41587e-05
2.74149e-05
3.43191e-05
3.84515e-05
4.70967e-05
5.21756e-05
0.000160683
0.000159704
0.000159989
0.000159317
0.000160014
0.00015984
0.00016105
0.000161629
0.000163502
0.00016599
0.000160405
0.000159934
0.00015935
0.000158942
0.000158375
0.00015803
0.000157477
0.000157201
0.000156664
0.00015647
0.000160436
0.000159919
0.000159412
0.000158936
0.000158464
0.00015802
0.000157584
0.000157164
0.000156761
0.000156363
0.00016044
0.000159919
0.000159423
0.00015894
0.000158481
0.000158031
0.000157605
0.000157183
0.000156786
0.000156391
0.000160439
0.00015992
0.000159422
0.000158941
0.00015848
0.000158033
0.000157603
0.000157186
0.000156784
0.000156394
0.000160424
0.000159933
0.000159398
0.000158952
0.000158449
0.000158038
0.000157566
0.000157185
0.000156741
0.000156389
0.000160357
0.000159983
0.000159302
0.000158991
0.000158328
0.000158077
0.000157435
0.000157244
0.000156628
0.0001565
0.000160176
0.000160261
0.00015943
0.000159946
0.000159442
0.000160538
0.000160508
0.000162325
0.000162915
0.0001652
1.03829e-05
1.28368e-05
1.58178e-05
1.9266e-05
2.33074e-05
2.79227e-05
3.31945e-05
3.91035e-05
4.56952e-05
5.29226e-05
0.000196169
0.000641261
0.00141963
0.0021099
0.00247612
0.00267452
0.00269351
0.00258624
0.00247287
0.00238522
0.00233175
0.00233283
0.00236
0.00246614
0.00260014
0.00278296
0.00301783
0.00329012
0.00356483
0.00383851
0.0040462
0.00417299
0.00429448
0.00440469
0.00447607
0.00452248
0.00455452
0.00457889
0.00460951
0.00465138
0.00470967
0.00479647
0.00491299
0.00500556
0.00513098
0.00529145
0.00547579
0.00569405
0.00596283
0.00624639
0.00650723
0.00671678
0.00685249
0.00691702
0.00693748
0.00687957
0.00662621
0.00624878
0.0058304
0.00540174
0.00498537
0.00459266
0.00422812
0.00389295
0.00358726
0.00331061
0.00306191
0.00283947
0.00264111
0.00246449
0.00230724
0.00216691
0.00204123
0.00192545
0.00181599
0.00171604
0.00162433
0.0015396
0.00146085
0.00138743
0.00131842
0.00125298
0.001184
0.00111645
0.00105097
0.000987693
0.000926833
0.000868575
0.000812734
0.000758765
0.000706139
0.000654284
0.00060266
0.000550957
0.000499185
0.000448151
0.000399384
0.000354098
0.00031376
0.000278805
0.00025025
0.000226764
0.000209225
0.000194746
0.000184975
0.000175927
0.000170632
0.000164147
0.000161314
0.000155111
0.000172471
0.00018274
0.000219865
0.00032538
0.000480837
0.000625775
0.000699652
0.000748495
0.000767565
0.000765341
0.000763247
0.000771297
0.000802125
0.000832689
0.000885881
0.000966329
0.00106526
0.00119893
0.00135687
0.00153746
0.00173761
0.00193196
0.00211806
0.00229508
0.00245823
0.0026028
0.00272965
0.00284703
0.00296654
0.00309052
0.0032285
0.00338365
0.00354914
0.00373157
0.00392975
0.00416701
0.00441479
0.00469407
0.00500811
0.00533154
0.00562209
0.00585151
0.00600355
0.00607477
0.00610434
0.0060743
0.00587062
0.00550865
0.00507921
0.00465084
0.00425307
0.00389784
0.00356483
0.00324262
0.00294624
0.00267547
0.00242952
0.00220721
0.00200692
0.00182677
0.00166502
0.00152015
0.00139094
0.00127564
0.00117259
0.00108022
0.000996877
0.00092129
0.000852407
0.000788988
0.000729981
0.000675209
0.00062475
0.000578204
0.000535172
0.000495436
0.000458821
0.000425116
0.000394054
0.00036535
0.000338793
0.000314205
0.000291455
0.000270412
0.000251233
0.000233967
0.000219018
0.000206187
0.00019589
0.000187285
0.000180941
0.000175297
0.000171508
0.000167385
0.000164909
0.000161348
0.000159429
0.000155998
0.000154343
0.000150383
0.00015588
0.000156047
0.000155667
0.000156125
0.00015936
0.00016502
0.00017268
0.000180636
0.000185969
0.000190787
0.000194777
0.000198711
0.000204875
0.000211698
0.000221519
0.000235651
0.000254594
0.000283687
0.000323405
0.000374587
0.000442386
0.000521502
0.000612578
0.000703805
0.000796035
0.00088844
0.000973865
0.00106133
0.00115409
0.0012507
0.0013718
0.00151962
0.00168327
0.00190381
0.00218411
0.0025073
0.00286237
0.00323016
0.00361566
0.00399809
0.00433053
0.00458297
0.00468581
0.00466054
0.00468286
0.00469736
0.00456264
0.00427445
0.00394493
0.00359498
0.00323179
0.00290038
0.00259635
0.00231319
0.00205239
0.00181422
0.00159848
0.00140546
0.00123503
0.00108542
0.000955063
0.000842357
0.000745298
0.000662027
0.000590718
0.000529795
0.000477969
0.000433953
0.000396606
0.00036513
0.000338917
0.000316868
0.000297643
0.000280674
0.000265895
0.000253084
0.000242001
0.000232422
0.000224118
0.000216808
0.000210244
0.000204214
0.000198679
0.000193581
0.000189077
0.00018506
0.000181744
0.000178749
0.000176407
0.000173963
0.000172127
0.000169678
0.000167971
0.000165182
0.000163441
0.000160265
0.000158504
0.00015509
0.000153432
0.000149461
0.000155914
0.00015542
0.000154971
0.00015462
0.000154432
0.00015443
0.000154553
0.000154734
0.000154928
0.000155059
0.00015511
0.000155192
0.0001551
0.000155174
0.000155214
0.000155261
0.000155722
0.000156117
0.000157364
0.000159
0.000162874
0.000167533
0.000174761
0.000185017
0.000197575
0.000215289
0.000233082
0.000254426
0.000282178
0.000308729
0.000345282
0.000406344
0.000466137
0.00053949
0.000677772
0.000876707
0.00110912
0.00141065
0.00181591
0.00225323
0.00262539
0.00290993
0.00306701
0.00306317
0.00312137
0.00314673
0.00303236
0.00277644
0.00247864
0.00218876
0.00193759
0.00171845
0.00152472
0.0013548
0.00120178
0.0010614
0.000932311
0.000813824
0.000706172
0.000611811
0.000531843
0.000466056
0.000413568
0.000372825
0.000341989
0.000319221
0.0003028
0.000291131
0.000283112
0.000278051
0.000275562
0.000275047
0.00027528
0.000276229
0.000278683
0.000280703
0.000281701
0.000282373
0.000282868
0.000282626
0.000280279
0.000275392
0.000268464
0.000259883
0.000250515
0.000240908
0.000231578
0.000222552
0.000214333
0.000206438
0.000199538
0.000192539
0.000186728
0.00018026
0.000175433
0.000169379
0.000165611
0.000159975
0.000157415
0.000151674
0.000155942
0.000155439
0.000154983
0.000154569
0.000154295
0.000154101
0.00015411
0.000154173
0.000154319
0.000154406
0.000154425
0.000154435
0.000154295
0.000154175
0.000154063
0.000153791
0.000153648
0.000153521
0.000153185
0.000153037
0.000153114
0.000152667
0.000152769
0.000153279
0.000152809
0.000153576
0.000154845
0.00015443
0.000156525
0.000157919
0.000159093
0.000162627
0.000167929
0.000173843
0.000187645
0.000217173
0.000278288
0.000359951
0.000487192
0.000754347
0.0010215
0.00122063
0.00134098
0.00140626
0.00143908
0.00145834
0.00141933
0.0013233
0.00124891
0.00118176
0.00110272
0.00102172
0.000941166
0.000864853
0.000795159
0.000731029
0.000673649
0.000624765
0.00058517
0.000554337
0.000531222
0.000514617
0.000503555
0.000497098
0.000494498
0.000494905
0.000497415
0.000500341
0.000504212
0.000511095
0.000519172
0.00052814
0.00053793
0.000548153
0.000557958
0.00056574
0.000570468
0.000572579
0.000574421
0.000575213
0.000572494
0.000560252
0.000540916
0.000515994
0.00048669
0.000454405
0.000420899
0.000387478
0.000355672
0.000325827
0.000298843
0.000274032
0.000252608
0.000232686
0.000216711
0.000200838
0.000190112
0.000177142
0.00017163
0.000159899
0.000155938
0.000155438
0.00015496
0.000154535
0.000154239
0.000154042
0.000154108
0.000154205
0.000154449
0.000154731
0.000155057
0.000155481
0.00015596
0.000156437
0.000157049
0.000157648
0.000158185
0.000158798
0.000159373
0.000159835
0.000160563
0.000161247
0.000161975
0.000163168
0.000164409
0.000165886
0.000167889
0.00016974
0.000171344
0.000173288
0.000174881
0.000174487
0.000173899
0.000174509
0.000172505
0.000170698
0.000174555
0.00018057
0.000189005
0.000212234
0.000269747
0.00036348
0.000450722
0.000523798
0.000580625
0.000620549
0.000649103
0.000686243
0.0007401
0.000804469
0.000873681
0.000934764
0.000968663
0.00097998
0.00097245
0.000954277
0.000929651
0.000909026
0.000893297
0.000882438
0.000876002
0.000873304
0.000873589
0.000876145
0.000880434
0.000886072
0.000892772
0.000900256
0.000907831
0.000916903
0.000927387
0.000937962
0.000948623
0.000959003
0.000967936
0.000974381
0.000979144
0.000983857
0.000987023
0.000985712
0.000974589
0.000954632
0.00092604
0.00088915
0.000845012
0.000795214
0.000741407
0.000679325
0.000610638
0.000545516
0.000485804
0.000431223
0.000383354
0.00033977
0.000304017
0.000270202
0.000246135
0.0002197
0.000207201
0.000184228
0.000155876
0.000155441
0.000154868
0.000154539
0.000154121
0.000154122
0.000154391
0.000155118
0.00015649
0.000158801
0.000162028
0.000165548
0.000169773
0.000174085
0.000178721
0.000183165
0.000187349
0.000191316
0.000195281
0.000198913
0.000202794
0.000207021
0.000211913
0.000216863
0.000223153
0.000230679
0.000237801
0.000244789
0.000252921
0.00026051
0.00026408
0.00026495
0.000265942
0.000265344
0.00026382
0.00026085
0.000256058
0.000253786
0.000254462
0.000259739
0.00027631
0.000315648
0.000384671
0.000436806
0.000494781
0.00058452
0.000715391
0.000881407
0.00105755
0.00115003
0.00121454
0.00125767
0.00129872
0.0013274
0.00132913
0.00132615
0.00132218
0.0013193
0.00131839
0.00131975
0.00132303
0.00132763
0.00133325
0.00133968
0.0013467
0.00135421
0.0013621
0.00137048
0.00137951
0.00138902
0.00139849
0.00140759
0.00141604
0.00142386
0.00143084
0.00143623
0.00143938
0.00143924
0.00143406
0.00142167
0.00140002
0.00136737
0.00132186
0.0012639
0.00119515
0.0011186
0.00103786
0.000956303
0.000876516
0.000800611
0.000729639
0.000656046
0.000591311
0.000535299
0.000487996
0.000448868
0.000417139
0.000390686
0.000373745
0.000353332
0.000155794
0.000155737
0.000155026
0.000155437
0.000155767
0.000160092
0.000164391
0.000172725
0.000186202
0.000201463
0.000218183
0.000234478
0.00025047
0.000264468
0.00027789
0.000289728
0.000300968
0.00031111
0.000321728
0.000331888
0.000343075
0.00035574
0.000369639
0.000384489
0.000401207
0.000419665
0.000438381
0.000455997
0.000473294
0.000491216
0.000506672
0.000515327
0.000519352
0.000523199
0.000527258
0.000527681
0.000525386
0.000525849
0.000528863
0.000541973
0.000579626
0.000679498
0.00077263
0.000818665
0.000911352
0.00106511
0.00121086
0.00132457
0.00142149
0.00150828
0.00159637
0.00166284
0.00168669
0.00169564
0.00169379
0.00168975
0.0016864
0.00168315
0.00167427
0.00166391
0.00165518
0.00164809
0.00164249
0.00163822
0.00163508
0.0016328
0.00163122
0.00163038
0.00163029
0.00163042
0.00163
0.001629
0.00162798
0.00162686
0.00162478
0.00162109
0.00161656
0.00161118
0.00160311
0.00159113
0.00157407
0.00155009
0.00151744
0.00146908
0.00140725
0.00133797
0.00126509
0.0011919
0.00112093
0.00105417
0.000988309
0.000928113
0.000878623
0.000837484
0.000806175
0.000781276
0.000765141
0.000753023
0.000748298
0.000743471
0.000166526
0.000169618
0.000176165
0.000188746
0.000212058
0.000244441
0.000282788
0.000323043
0.000361962
0.000397679
0.000429664
0.000457661
0.000482983
0.000505659
0.000527895
0.00054961
0.000571763
0.000594049
0.000619995
0.000646459
0.000675381
0.00068595
0.000697904
0.000711363
0.000726167
0.000741671
0.000757547
0.000773282
0.00078825
0.000802806
0.000818161
0.000831943
0.000840487
0.000847773
0.000855539
0.000858412
0.000860974
0.000861947
0.000863133
0.00086688
0.000880056
0.000832173
0.000758344
0.000742688
0.000833765
0.000962857
0.00107996
0.00117953
0.00127966
0.00136761
0.00140368
0.00141393
0.00140812
0.00139283
0.00137258
0.00135059
0.00132923
0.00130993
0.00129318
0.00127888
0.00126696
0.00125715
0.00124906
0.0012423
0.00123664
0.0012318
0.00122752
0.00122364
0.00121991
0.00121576
0.00121077
0.00120505
0.00119892
0.00119225
0.00118471
0.00117628
0.00116708
0.00115719
0.0011465
0.00113483
0.00112183
0.00110721
0.0010909
0.00107285
0.00105335
0.00103284
0.00101204
0.0009918
0.000973018
0.000956577
0.000943252
0.000932987
0.000925507
0.000920386
0.000917485
0.000915581
0.000915345
0.000917313
0.000919151
0.000922888
6.23868e-05
7.45853e-05
8.79656e-05
0.000102459
0.000118163
0.000134702
0.000151708
0.000168224
0.00018368
0.000197052
0.000208116
0.000216272
0.000221554
0.0002252
0.000226481
0.000226069
0.000224476
0.000222077
0.000219177
0.000216038
0.000212749
0.000209512
0.000206366
0.000203285
0.000200272
0.000197403
0.000194683
0.000192052
0.000189593
0.000187506
0.000185817
0.000184319
0.000183125
0.000182531
0.000182188
0.000181932
0.000182404
0.000183082
0.000183189
0.000183246
0.000183144
0.000179406
0.000166002
0.000156868
0.000155409
0.00015853
0.00016309
0.000170103
0.000174808
0.000176673
0.000176825
0.000175786
0.000174065
0.000172403
0.000170913
0.000169599
0.000168478
0.000167552
0.000166807
0.000166215
0.000165742
0.00016536
0.000165044
0.000164777
0.000164544
0.000164335
0.000164142
0.000163952
0.000163749
0.000163515
0.000163241
0.000162925
0.000162563
0.000162147
0.000161672
0.000161138
0.000160549
0.000159913
0.000159241
0.00015854
0.00015782
0.000157096
0.000156383
0.000155701
0.000155067
0.000154497
0.000154004
0.000153598
0.000153292
0.000153084
0.000152946
0.000152859
0.000152875
0.000152938
0.000153016
0.000153148
0.000153251
0.000153445
0.000153512
0.000153762
0.000132114
0.00100923
0.0014427
0.00162066
0.00157271
0.00130302
0.000974726
0.000295024
0.00294522
0.00274319
0.00298845
0.00314244
0.00283999
0.00217184
0.00114335
0.000457737
0.00467229
0.00460649
0.00549992
0.00623763
0.00591598
0.00462957
0.00246917
0.000595149
0.00542862
0.00584608
0.0071326
0.00894567
0.00857684
0.00696577
0.00395389
0.000754776
0.00574988
0.00657479
0.00809166
0.00987313
0.00989446
0.00828771
0.00495149
0.000857647
0.0058718
0.00677504
0.00821038
0.00998284
0.0102978
0.00879199
0.00535449
0.000886388
0.00577294
0.00692726
0.00824553
0.00985517
0.0103961
0.00898436
0.00553451
0.00089297
0.00550995
0.00679022
0.00826748
0.0098194
0.0103336
0.00900523
0.00561256
0.000883477
0.00522784
0.00657746
0.00809598
0.00963282
0.0100791
0.00881358
0.00552279
0.000851014
0.00498982
0.0063777
0.00793048
0.00943077
0.00975412
0.00852395
0.0053526
0.000811865
0.00481099
0.00622365
0.00780772
0.00927846
0.00942195
0.0082078
0.00515355
0.00077011
0.00471416
0.00615113
0.00773134
0.00898899
0.00908327
0.00787269
0.00492603
0.000735354
0.00466316
0.00613295
0.00770093
0.00872487
0.00875428
0.00753081
0.00467623
0.000711625
0.00468282
0.00617273
0.00770964
0.00848906
0.00844525
0.0072043
0.00443671
0.000688826
0.00472257
0.00625137
0.00776265
0.00828858
0.00816769
0.00690443
0.0042178
0.000667909
0.00478606
0.00633919
0.00769487
0.00810533
0.00791119
0.00663612
0.00401614
0.000648792
0.00487549
0.00642539
0.00757142
0.00793108
0.0076707
0.00638744
0.0038354
0.000600494
0.00499189
0.00651227
0.00746356
0.00776666
0.00744748
0.00616065
0.00368324
0.000519165
0.0051212
0.00659283
0.00736668
0.00761297
0.00724139
0.00595282
0.00354548
0.000459194
0.00526069
0.00666527
0.0072811
0.00747136
0.00705272
0.00576324
0.00342021
0.000413557
0.00541248
0.00668403
0.00720322
0.00733969
0.00687959
0.00559064
0.00330676
0.000377719
0.00553904
0.0066556
0.00712308
0.00721191
0.0067177
0.00543213
0.0032036
0.00034873
0.00564392
0.00661809
0.00703836
0.00708563
0.00656416
0.00528503
0.00310894
0.000324661
0.00572463
0.00657056
0.00694788
0.00695964
0.00641716
0.00514727
0.00302122
0.000304213
0.0057747
0.00651148
0.00685147
0.00683338
0.00627507
0.00501664
0.00293869
0.000286432
0.00579585
0.00644061
0.00674879
0.00670593
0.00613589
0.00489028
0.00285915
0.000270647
0.00579045
0.00636206
0.00664255
0.0065784
0.00599896
0.00476667
0.00278146
0.000256512
0.00574477
0.006282
0.00653751
0.00645377
0.00586711
0.00464609
0.00270571
0.000243892
0.00570157
0.00620713
0.00643906
0.00633606
0.00574198
0.00453002
0.00263248
0.000232689
0.00566478
0.00614052
0.00635001
0.0062274
0.00562438
0.00441884
0.00256192
0.000222799
0.00563895
0.00608561
0.00627278
0.0061295
0.00551518
0.0043131
0.00249452
0.000214184
0.0056307
0.00604783
0.00621085
0.0060452
0.0054169
0.00421463
0.00243156
0.000206874
0.00564474
0.0060326
0.00617018
0.00597893
0.00533262
0.00412598
0.00237485
0.000200922
0.00568819
0.00604827
0.00615871
0.00593678
0.00526714
0.00405101
0.00232667
0.000196375
0.00576902
0.00610264
0.00618278
0.00592514
0.00522564
0.00399459
0.00228977
0.000193238
0.00589241
0.00620054
0.00624643
0.00594916
0.0052125
0.0039615
0.00226692
0.000191292
0.00605984
0.00634035
0.00634813
0.00600775
0.00522953
0.00395302
0.00225782
0.000190104
0.00625522
0.00651113
0.00647964
0.00609406
0.00527194
0.00396416
0.00225642
0.000189881
0.00647352
0.00669077
0.00661963
0.0061908
0.00532709
0.00398847
0.00226504
0.000190613
0.00672655
0.00690092
0.00678502
0.00631452
0.00541459
0.0040438
0.00228879
0.000191677
0.00696005
0.00710547
0.00695839
0.0064535
0.0055181
0.0041095
0.0023145
0.00019245
0.00714593
0.00726599
0.00709379
0.00656355
0.00560235
0.00416458
0.00233655
0.000192451
0.00726243
0.00736343
0.00717505
0.00663187
0.00565893
0.00420453
0.00235218
0.000191296
0.00731544
0.00740768
0.00721471
0.0066714
0.00569795
0.00423392
0.00236067
0.000188991
0.00732211
0.00740368
0.00720487
0.00665944
0.00568428
0.00421319
0.00233701
0.000184917
0.00723234
0.00728509
0.00706483
0.00650981
0.00554578
0.00410787
0.00227958
0.000179249
0.00694085
0.00698191
0.00677466
0.00625481
0.00534359
0.00396699
0.00220758
0.000173254
0.00656095
0.00661227
0.00643019
0.00595415
0.00510172
0.00379646
0.00212239
0.000167117
0.00614345
0.00620871
0.00605459
0.00562383
0.0048315
0.00360308
0.00202754
0.000161152
0.00571666
0.00579601
0.00566832
0.00528038
0.00454589
0.00339604
0.00192723
0.000155667
0.00530086
0.00539247
0.00528783
0.00493839
0.00425793
0.0031861
0.00182655
0.000150883
0.00490768
0.00500968
0.00492479
0.00460931
0.00397879
0.00298346
0.00173277
0.000146862
0.00454289
0.00465419
0.00458681
0.00430108
0.00371667
0.00279463
0.00164878
0.000143581
0.00420892
0.00432917
0.00427876
0.00401883
0.0034777
0.00262431
0.00157339
0.000140942
0.00390654
0.00403595
0.0040024
0.00376603
0.00326611
0.00247642
0.00150981
0.000138779
0.0036354
0.0037746
0.00375757
0.00354392
0.00308271
0.00235151
0.00144275
0.000136975
0.00339414
0.00354378
0.00354291
0.00335169
0.00292588
0.00224718
0.00137871
0.000135505
0.0031807
0.00334123
0.00335591
0.00318692
0.00279286
0.00216042
0.00132607
0.000134328
0.00299246
0.00316404
0.00319362
0.00304545
0.00268016
0.0020877
0.00128296
0.000133386
0.00282651
0.00300905
0.00305273
0.0029237
0.00258442
0.00202656
0.0012474
0.000132626
0.00267991
0.00287307
0.00292997
0.00281846
0.0025025
0.0019747
0.00121769
0.000132005
0.00254987
0.00275314
0.00282228
0.00272665
0.00243144
0.00192962
0.00119245
0.000131491
0.00243385
0.00264662
0.00272707
0.00264586
0.0023693
0.0018905
0.00117069
0.000131057
0.0023295
0.00255118
0.00264214
0.00257409
0.00231439
0.00185618
0.00115163
0.000130684
0.00223449
0.00246483
0.00256559
0.00250959
0.00226517
0.00182531
0.00113466
0.000130358
0.00213955
0.00238608
0.00249603
0.00245119
0.00222073
0.00179742
0.00111936
0.000130069
0.00204564
0.00231356
0.00243218
0.00239774
0.00218012
0.00177194
0.00110541
0.000129811
0.00195763
0.00224596
0.00237282
0.00234814
0.00214246
0.00174838
0.0010926
0.000129576
0.00187417
0.00218201
0.00231719
0.00230197
0.0021076
0.00172658
0.00108069
0.000129357
0.00179445
0.00211284
0.0022646
0.00225851
0.00207484
0.00170607
0.0010694
0.000129145
0.00171827
0.00204193
0.00221427
0.00221688
0.00204327
0.0016863
0.00105849
0.000128938
0.00164514
0.00197285
0.00216561
0.00217672
0.00201289
0.00166713
0.00104794
0.000128735
0.00157444
0.00190491
0.00211794
0.00213748
0.00198334
0.00164829
0.00103789
0.000128532
0.00150583
0.00183729
0.0020704
0.00209838
0.00195335
0.00162934
0.00102813
0.000128324
0.00143926
0.00176962
0.0020158
0.00205952
0.00192359
0.00161039
0.00101828
0.000128111
0.00137469
0.00170203
0.00195558
0.00202133
0.00189499
0.0015919
0.00100869
0.000127902
0.00131225
0.00163457
0.00189507
0.00198395
0.00186726
0.00157424
0.00100008
0.000127703
0.00125188
0.00156772
0.0018346
0.00194725
0.00183983
0.00155731
0.000992332
0.000127509
0.00119359
0.00150197
0.00177404
0.001911
0.00181305
0.00154097
0.000985007
0.000127314
0.00113722
0.00143739
0.00171241
0.00186907
0.00178646
0.00152483
0.000977845
0.000127114
0.00108248
0.00137292
0.00164854
0.00181712
0.00175929
0.00150833
0.000970601
0.000126908
0.00102891
0.00130682
0.00158011
0.00175985
0.00172981
0.00149064
0.000963144
0.000126699
0.000975983
0.00123825
0.00150522
0.00169522
0.00169632
0.00147104
0.000955617
0.000126491
0.000921479
0.00116682
0.00142281
0.00162067
0.00165665
0.00144867
0.000948243
0.000126288
0.000863661
0.0010935
0.00133464
0.0015361
0.00161029
0.00142335
0.000940206
0.000126092
0.000784555
0.00101837
0.00124157
0.00144184
0.00154592
0.00139536
0.000931987
0.000125916
0.000699358
0.000942268
0.00114707
0.00134304
0.00147234
0.00136583
0.000924165
0.000125767
0.000616307
0.000864698
0.00105152
0.00124147
0.00139551
0.00133536
0.000916778
0.000125646
0.000538108
0.000775004
0.000960115
0.00114456
0.00132042
0.00130561
0.000910008
0.000125551
0.000467706
0.000676359
0.000870459
0.00105046
0.00124787
0.00127693
0.000903851
0.000125479
0.000406329
0.00058639
0.000789553
0.000967234
0.00118302
0.00125096
0.000898481
0.000125426
0.000353885
0.000508176
0.000707709
0.000887889
0.00112324
0.00122704
0.000893917
0.000125383
0.000310697
0.000441174
0.000628049
0.000823534
0.00107357
0.00120678
0.000890224
0.000125355
0.000274689
0.000384587
0.000553197
0.000760829
0.00102751
0.00118829
0.000887095
0.000125339
0.00024726
0.000338679
0.000497295
0.000715028
0.000992029
0.00117388
0.000884741
0.000125328
0.000223451
0.000297894
0.000439793
0.000667022
0.000957521
0.00115999
0.000882621
0.000125321
0.000207778
0.000269268
0.00040366
0.000636923
0.0009341
0.00115067
0.000881292
0.000125314
0.000190986
0.000237621
0.000356923
0.000600405
0.000908265
0.00114006
0.000879793
0.000125312
0.000183938
0.000224165
0.000336794
0.000582833
0.000894686
0.00113489
0.000879414
0.000125299
0.000169393
0.000195551
0.000293261
0.000550487
0.000872547
0.00112558
0.000878461
0.000125287
)
;

boundaryField
{
    frontAndBack
    {
        type            empty;
    }
    inlet
    {
        type            calculated;
        value           nonuniform List<scalar> 10(9.54769e-06 0.000160714 0.000160714 0.000160714 0.000160714 0.000160714 0.000160714 0.000160714 0.000160714 9.54735e-06);
    }
    outlet
    {
        type            calculated;
        value           nonuniform List<scalar> 
18
(
0.000169393
0.000195551
0.000293261
0.000560388
0.000875196
0.00112558
0.000879427
0.00015842
0.000155111
0.000150383
0.000149461
0.000151674
0.000159899
0.000184228
0.000353332
0.000743471
0.000923916
0.000161415
)
;
    }
    walls
    {
        type            nutkWallFunction;
        blending        stepwise;
        Cmu             0.09;
        kappa           0.41;
        E               9.8;
        value           nonuniform List<scalar> 
228
(
2.20337e-05
2.44559e-05
2.91026e-05
3.17398e-05
3.68056e-05
3.96162e-05
4.50184e-05
4.79443e-05
5.35672e-05
5.65374e-05
0.00022833
0.000216735
0.000219126
0.000225674
0.000229898
0.000225554
0.000199565
3.3751e-05
3.3751e-05
5.9221e-05
7.99947e-05
9.57461e-05
0.000104039
0.000107453
0.000108233
0.000107108
0.000103249
9.85735e-05
9.35587e-05
8.93637e-05
8.64859e-05
8.37119e-05
8.11579e-05
7.88151e-05
7.65712e-05
7.44465e-05
7.2545e-05
7.08584e-05
6.93636e-05
6.80324e-05
6.68375e-05
6.57559e-05
6.4762e-05
6.38303e-05
6.29496e-05
6.21234e-05
6.13562e-05
6.06482e-05
6.00073e-05
5.94531e-05
5.90119e-05
5.87087e-05
5.85586e-05
5.8537e-05
5.85839e-05
5.87497e-05
5.90585e-05
5.94336e-05
5.98003e-05
6.00934e-05
6.02399e-05
6.02162e-05
5.98977e-05
5.93075e-05
5.86653e-05
5.79979e-05
5.73438e-05
5.67389e-05
5.62096e-05
5.57623e-05
5.53917e-05
5.50839e-05
5.48144e-05
5.45719e-05
5.43661e-05
5.42003e-05
5.40703e-05
5.39702e-05
5.38937e-05
5.38355e-05
5.37914e-05
5.37573e-05
5.37305e-05
5.37093e-05
5.36924e-05
5.36786e-05
5.36663e-05
5.36537e-05
5.364e-05
5.36249e-05
5.36071e-05
5.35847e-05
5.35569e-05
5.35258e-05
5.34929e-05
5.34568e-05
5.34161e-05
5.33701e-05
5.33189e-05
5.32637e-05
5.32066e-05
5.31491e-05
5.30939e-05
5.30452e-05
5.30058e-05
5.29764e-05
5.29571e-05
5.29462e-05
5.29423e-05
5.29425e-05
5.29466e-05
5.29536e-05
5.29607e-05
5.29686e-05
5.29755e-05
5.29844e-05
5.29904e-05
5.3007e-05
2.14592e-05
2.48065e-05
2.84142e-05
3.213e-05
3.603e-05
4.0038e-05
4.41787e-05
4.83966e-05
5.26937e-05
5.70167e-05
6.21933e-05
6.8217e-05
7.41248e-05
7.97773e-05
8.51006e-05
8.99056e-05
9.41163e-05
9.75695e-05
0.000100278
0.00010216
0.000103348
0.000103827
0.00010371
0.000103337
0.000102562
0.000101541
0.00010038
9.91471e-05
9.78942e-05
9.66539e-05
9.54301e-05
9.42475e-05
9.31001e-05
9.19711e-05
9.08588e-05
8.97843e-05
8.87575e-05
8.77744e-05
8.68676e-05
8.61036e-05
8.55096e-05
8.50459e-05
8.47224e-05
8.46049e-05
8.46126e-05
8.46917e-05
8.49445e-05
8.52085e-05
8.52863e-05
8.52158e-05
8.47192e-05
8.27147e-05
7.78868e-05
7.41447e-05
7.26147e-05
7.24956e-05
7.29306e-05
7.40595e-05
7.48052e-05
7.50465e-05
7.50154e-05
7.48072e-05
7.45083e-05
7.42537e-05
7.40466e-05
7.38816e-05
7.37493e-05
7.36405e-05
7.35488e-05
7.34694e-05
7.33987e-05
7.33341e-05
7.3274e-05
7.32174e-05
7.31626e-05
7.31074e-05
7.30501e-05
7.2988e-05
7.29171e-05
7.28331e-05
7.27332e-05
7.26164e-05
7.24814e-05
7.2326e-05
7.21489e-05
7.1951e-05
7.17349e-05
7.15049e-05
7.12658e-05
7.10223e-05
7.07793e-05
7.05415e-05
7.03144e-05
7.0104e-05
6.99161e-05
6.9756e-05
6.96279e-05
6.95341e-05
6.94751e-05
6.94477e-05
6.94447e-05
6.94574e-05
6.94976e-05
6.95479e-05
6.96021e-05
6.96656e-05
6.97213e-05
6.97942e-05
6.98331e-05
6.99107e-05
)
;
    }
}


// ************************************************************************* //
