/*--------------------------------*- C++ -*----------------------------------*\
| =========                 |                                                 |
| \\      /  F ield         | OpenFOAM: The Open Source CFD Toolbox           |
|  \\    /   O peration     | Version:  v2012                                 |
|   \\  /    A nd           | Website:  www.openfoam.com                      |
|    \\/     M anipulation  |                                                 |
\*---------------------------------------------------------------------------*/
FoamFile
{
    version     2.0;
    format      ascii;
    class       volScalarField;
    location    "0.035";
    object      omega.air;
}
// * * * * * * * * * * * * * * * * * * * * * * * * * * * * * * * * * * * * * //

dimensions      [0 0 -1 0 0 0 0];


internalField   nonuniform List<scalar> 
5600
(
6747.4
9444.53
11869.9
13302.4
13896.4
13967.6
13766.1
13437.2
13078.5
12745.5
12449.1
12202.7
12011.5
11872.5
11780.5
11728.7
11708.3
11708.8
11719.8
11733.8
11747
11757.7
11766.9
11774.6
11781
11786.3
11791.8
11797.6
11803.1
11807.1
11809
11808.4
11806
11802.6
11798.9
11795.6
11793
11791.3
11790.5
11790.4
11790.8
11791.6
11792.6
11793.9
11795
11796
11796.8
11797.4
11797.9
11798.1
11798.4
11798.5
11798.7
11798.5
11798.9
11798.4
11799.2
11797.9
11800
11796.7
11801.7
11794.5
11804.7
11790.7
11809.3
11785.2
11815.8
11777.8
11824.3
11768.3
11835.1
11756.9
11846.2
11748.9
11848
11758.1
11823.3
11799.3
11766.9
11860.8
11716
11883.4
11739.1
11805.1
11868
11643.3
12030.1
11523.8
12095.4
11524.3
12037.4
11599.7
11906.3
11731.4
11754.9
11719.3
12062.8
10668.8
13682.8
4580.07
2508.85
2646.16
3495.13
4412.89
5085.85
5505.89
5763.67
5918.45
5999.63
6001.24
6090.99
6224.11
6348.26
6437.58
6481.88
6480.77
6439.61
6367.28
6274.92
6172.44
6066.04
5961.04
5861.66
5769.84
5684.52
5604.29
5528.03
5457.14
5392.46
5334.13
5281.54
5235.16
5195.48
5162.38
5135.49
5114.39
5098.49
5087.01
5079.14
5074.1
5071.02
5069.16
5068.09
5067.82
5068.2
5068.86
5069.5
5070.04
5070.48
5070.8
5071.04
5071.2
5071.32
5071.39
5071.44
5071.47
5071.48
5071.5
5071.51
5071.5
5071.53
5071.47
5071.59
5071.39
5071.71
5071.24
5071.89
5071.03
5072.16
5070.73
5072.56
5070.22
5073.32
5069.2
5074.33
5068.7
5073.62
5069.47
5073.14
5070.14
5070.41
5074.27
5069.34
5071.19
5072.31
5068.86
5081.06
5058.41
5098.1
5050.62
5107.76
5043.76
5124.04
5017.03
5182.96
4935.12
5331.49
4736.68
5715.78
4346.19
2557.71
2209.46
2000.89
1889.88
1868.72
1941.08
2044.51
2166.85
2318.96
2453.91
2598.88
2763.5
2939.41
3110.77
3267.21
3400.77
3506.48
3582.11
3628.34
3646.54
3637.06
3600.59
3539.17
3462.26
3385.12
3318.27
3262.81
3214.45
3168.85
3125.88
3086.87
3052.23
3021.28
2993.02
2968.97
2949.58
2934.65
2923.66
2915.96
2910.85
2907.71
2905.92
2904.95
2904.59
2904.76
2905.23
2905.76
2906.23
2906.61
2906.9
2907.12
2907.28
2907.38
2907.45
2907.5
2907.52
2907.56
2907.53
2907.62
2907.45
2907.77
2907.25
2908.06
2906.86
2908.54
2906.26
2909.2
2905.47
2910.07
2904.3
2911.49
2902.29
2913.87
2899.71
2915.89
2899.22
2914.59
2903.75
2906.42
2913.89
2896.62
2918.34
2900.71
2905.53
2923.97
2872.7
2953.32
2846.51
2973.2
2837.78
2983.26
2837.3
2993.09
2820.13
3053.47
2745.05
3204.73
2647.53
3361.86
2695.55
2552.87
2194.9
1927.09
1721.34
1562.47
1441.25
1351.33
1280.86
1233.84
1202.67
1188.08
1196.72
1228.58
1280.97
1351.97
1438.61
1539.72
1648.38
1760.98
1872.44
1978.06
2071.14
2146.72
2202.64
2242.43
2269.43
2286.8
2295.89
2294.85
2281.72
2257.09
2225.54
2192.52
2164.9
2142.24
2124.43
2111.02
2101.33
2094.67
2090.37
2087.81
2086.47
2085.91
2085.86
2086.19
2086.75
2087.32
2087.85
2088.25
2088.6
2088.8
2089.03
2089.05
2089.27
2089.12
2089.46
2089.03
2089.69
2088.79
2090.02
2088.43
2090.46
2087.97
2091.02
2087.38
2091.84
2086.54
2093.04
2085.62
2094.06
2086.08
2092.61
2090.76
2085.94
2100.36
2075.86
2109.69
2071.95
2108.39
2084.64
2093.35
2100.98
2083.34
2102.8
2097.04
2091.34
2143.51
2061.2
2179.82
2037.82
2196.43
2014.51
2226.49
2026.72
2234.85
2057.59
2264.68
2102.46
2121.33
2381.35
2551.15
2191.54
1920.38
1709.15
1540.32
1402.8
1289.16
1193.94
1113.21
1045.34
986.562
937.673
895.737
862.997
835.369
816.631
803.121
800.672
808.654
827.472
858.617
900.994
953.502
1014.92
1082.2
1151.96
1222.92
1294.11
1365.97
1434.19
1492.75
1537.79
1569.06
1590.23
1603.35
1610.82
1614.78
1616.8
1617.9
1618.64
1619.3
1620
1620.78
1621.63
1622.52
1623.4
1624.19
1624.88
1625.4
1625.84
1626.09
1626.37
1626.42
1626.66
1626.54
1626.82
1626.55
1626.9
1626.57
1626.86
1626.73
1626.62
1627.07
1626.26
1627.39
1626.14
1627.34
1626.39
1627.47
1625.52
1630.45
1620.01
1639.21
1608.93
1650.11
1601.43
1651.38
1611.22
1633.7
1638.49
1609.27
1647.2
1624.66
1609.14
1680.28
1546.77
1738.94
1503.36
1735.49
1535.17
1688.77
1590.7
1612.63
1698.65
1489.06
1696.07
1552.54
1577.18
1613.8
1555.41
2550.73
2190.48
1918.71
1706.89
1537.24
1398.59
1283.08
1185.59
1102
1029.95
966.876
911.589
862.481
819.024
780.099
745.256
714.078
686.16
661.634
640.089
622.018
606.828
595.281
586.97
583.454
584.851
591.37
602.71
621.056
649.505
688.724
736.309
787.234
836.685
880.631
916.589
943.963
963.587
976.881
985.383
990.483
993.308
994.729
995.415
995.861
996.295
996.808
997.271
997.803
998.074
998.629
998.473
999.359
998.317
1000.33
997.339
1002.09
995.033
1005.38
990.734
1010.89
983.894
1018.98
974.313
1029.61
961.945
1042.67
946.865
1056.96
932.043
1065.4
929.989
1050.42
963.015
994.784
1038.37
910.944
1112.43
859.926
1100.68
928.2
961.729
1112.86
763.695
1272.83
638.707
1252.76
732.224
1052.8
966.708
812.591
1222.95
569.44
1299.05
588.339
1088.26
835.428
738.819
1318.01
441.87
2550.6
2190.09
1918.15
1706.13
1536.36
1397.5
1281.83
1184.05
1100.28
1027.77
964.356
908.452
858.799
814.393
774.492
738.365
705.612
675.693
648.355
623.269
600.263
579.049
559.53
541.509
525.001
509.959
496.308
483.853
472.721
463.202
456.185
451.684
450.366
451.516
453.966
456.485
458.047
458.103
456.586
453.773
450.099
446.006
441.908
438.183
435.125
432.807
431.204
430.086
429.474
428.945
428.939
428.456
429.021
428.013
429.574
427.192
430.755
425.607
432.886
422.871
436.355
418.557
441.667
412.013
449.649
402.282
460.993
389.53
473.356
379.46
476.357
387.342
452.519
429.423
395.177
495.602
333.509
533.212
329.502
489.172
412.684
382.738
524.607
289.561
579.15
280.469
547.97
351.619
451.434
483.944
295.812
644.941
175.874
666.763
215.291
581.881
343.131
353.908
695.379
104.641
2550.55
2189.92
1917.92
1705.82
1536
1397.07
1281.36
1183.52
1099.71
1027.13
963.672
907.705
857.982
813.502
773.485
737.275
704.364
674.311
646.767
621.436
598.072
576.446
556.369
537.679
520.256
503.995
488.786
474.506
461.062
448.4
436.56
425.535
415.355
405.922
397.056
388.542
380.193
371.909
363.711
355.729
348.159
341.214
335.074
329.866
325.64
322.352
319.902
318.131
316.92
316.079
315.586
315.188
315.091
314.804
314.994
314.572
315.103
314.326
315.35
314.01
315.693
313.623
316.131
313.106
316.797
312.234
317.982
310.827
319.575
309.684
319.877
311.509
315.458
319.24
305.018
330.61
295.617
335.475
298.558
326.564
312.333
312.485
322.897
307.408
326.011
305.176
333.304
295.802
339.035
302.73
310.427
349.617
252.652
401.596
216.902
419.333
225.295
367.136
319.621
283.855
2550.52
2189.84
1917.81
1705.67
1535.82
1396.87
1281.14
1183.28
1099.45
1026.86
963.382
907.401
857.66
813.167
773.13
736.908
703.978
673.906
646.341
620.987
597.594
575.935
555.817
537.08
519.598
503.26
487.955
473.567
459.996
447.171
435.062
423.659
412.941
402.849
393.271
384.065
375.1
366.305
357.701
349.404
341.594
334.471
328.207
322.908
318.6
315.232
312.7
310.862
309.579
308.705
308.142
307.769
307.56
307.406
307.353
307.277
307.289
307.232
307.278
307.201
307.314
307.123
307.434
306.952
307.637
306.766
307.725
306.888
307.296
307.686
306.189
308.97
305.008
309.812
304.692
309.586
305.332
308.833
306.103
308.421
306.188
308.886
305.252
309.899
305.198
307.715
310.5
299.908
318.185
296.217
314.675
307.77
297.31
325.938
283.334
333.785
287.036
317.523
318.749
290.682
2550.51
2189.81
1917.75
1705.6
1535.74
1396.78
1281.04
1183.17
1099.34
1026.74
963.255
907.269
857.523
813.023
772.98
736.753
703.815
673.738
646.167
620.809
597.411
575.747
555.624
536.881
519.391
503.045
487.731
473.336
459.757
446.92
434.794
423.368
412.622
402.498
392.887
383.649
374.656
365.836
357.209
348.892
341.065
333.928
327.651
322.339
318.019
314.638
312.094
310.243
308.953
308.067
307.504
307.116
306.92
306.738
306.72
306.592
306.667
306.538
306.65
306.539
306.613
306.584
306.559
306.616
306.581
306.497
306.826
306.134
307.243
305.789
307.341
306.106
306.528
307.322
305.199
308.327
304.936
307.654
306.363
306.013
307.573
305.639
307.238
306.068
307.451
304.87
309.289
303.362
309.362
305.557
304.628
312.639
296.176
320.744
290.924
320.499
299.056
302.63
326.869
268.423
2550.51
2189.81
1917.76
1705.61
1535.75
1396.79
1281.05
1183.18
1099.35
1026.75
963.266
907.279
857.531
813.031
772.989
736.762
703.825
673.748
646.177
620.819
597.42
575.757
555.633
536.89
519.4
503.053
487.74
473.344
459.764
446.928
434.802
423.376
412.63
402.506
392.895
383.658
374.664
365.844
357.218
348.901
341.073
333.936
327.658
322.346
318.026
314.645
312.1
310.25
308.959
308.075
307.508
307.126
306.92
306.754
306.713
306.616
306.653
306.567
306.636
306.56
306.615
306.584
306.573
306.635
306.516
306.686
306.485
306.678
306.557
306.514
306.825
306.162
307.19
305.913
307.161
306.349
306.311
307.436
305.337
307.897
305.652
306.8
307.301
304.882
309.343
302.712
311.549
300.941
311.976
302.922
306.77
311.628
294.538
326.533
278.395
340.186
271.947
334.619
292.734
300.413
2550.52
2189.85
1917.82
1705.69
1535.85
1396.9
1281.17
1183.3
1099.48
1026.89
963.412
907.431
857.689
813.195
773.158
736.936
704.004
673.931
646.365
621.012
597.619
575.961
555.843
537.107
519.626
503.288
487.982
473.595
460.024
447.2
435.094
423.696
412.985
402.9
393.329
384.129
375.169
366.379
357.779
349.484
341.675
334.553
328.289
322.99
318.682
315.313
312.781
310.943
309.661
308.786
308.223
307.849
307.641
307.485
307.435
307.355
307.371
307.314
307.348
307.311
307.329
307.326
307.31
307.338
307.306
307.332
307.318
307.319
307.326
307.316
307.338
307.27
307.443
307.102
307.633
306.988
307.527
307.453
306.636
308.692
305.319
309.623
305.362
308.036
308.842
302.711
315.385
295.995
320.913
293.037
320.208
298.766
308.252
317.852
281.343
349.168
248.821
373.748
237.951
366.311
2550.55
2189.94
1917.94
1705.85
1536.03
1397.11
1281.4
1183.56
1099.76
1027.18
963.717
907.75
858.024
813.547
773.528
737.321
704.41
674.355
646.814
621.486
598.125
576.506
556.434
537.753
520.34
504.096
488.907
474.649
461.229
448.62
436.836
425.924
415.882
406.601
397.894
389.53
381.312
373.136
365.023
357.106
349.585
342.673
336.556
331.364
327.151
323.875
321.433
319.674
318.459
317.638
317.117
316.774
316.587
316.448
316.405
316.337
316.349
316.306
316.328
316.308
316.308
316.324
316.291
316.334
316.291
316.321
316.315
316.288
316.359
316.217
316.488
315.989
316.847
315.506
317.372
315.116
317.368
315.824
315.674
318.658
311.795
323.067
307.904
324.947
309.9
317.736
322.676
300.39
341.496
282.969
354.406
277.185
352.551
289.872
327.839
327.531
277.534
380.39
224.437
415.704
2550.6
2190.11
1918.2
1706.17
1536.42
1397.55
1281.9
1184.1
1100.35
1027.83
964.424
908.519
858.869
814.481
774.575
738.476
705.735
675.83
648.54
623.493
600.542
579.435
560
542.137
525.822
511.065
497.731
485.685
475.05
466.446
460.417
457.65
458.342
461.588
466.134
470.546
473.71
475.057
474.553
472.521
469.438
465.785
462.012
458.531
455.648
453.473
451.946
450.927
450.288
449.899
449.696
449.572
449.545
449.498
449.536
449.488
449.556
449.489
449.569
449.497
449.564
449.516
449.545
449.537
449.531
449.542
449.542
449.506
449.632
449.301
450.063
448.481
451.458
446.366
454.271
443.164
457.104
441.902
455.152
448.713
442.377
467.213
420.347
487.725
407.197
485.753
428.005
446.079
481.133
388.142
530.895
348.663
548.165
346.333
528.86
385.287
470.49
456.952
385.216
520.541
2550.74
2190.49
1918.79
1706.92
1537.35
1398.63
1283.22
1185.63
1102.17
1030.05
967.118
911.792
862.837
819.461
780.67
746.034
715.095
687.584
663.53
642.688
625.362
611.5
601.113
594.94
593.808
598.558
608.473
623.979
647.515
681.714
726.575
778.506
832.716
884.134
928.842
964.672
991.635
1010.83
1023.8
1032.14
1037.21
1040.1
1041.63
1042.44
1042.96
1043.45
1043.94
1044.4
1044.82
1045.17
1045.45
1045.65
1045.81
1045.91
1046.01
1046.02
1046.1
1046.05
1046.16
1046.04
1046.2
1046.02
1046.21
1046.04
1046.17
1046.09
1046.13
1046.1
1046.17
1045.98
1046.42
1045.52
1047.22
1044.17
1049.36
1041.07
1053.34
1036.69
1056.86
1035.7
1053.15
1045.84
1035.92
1069.14
1009.52
1092.19
994.281
1091.45
1011.96
1057.81
1058.84
1006.37
1109.1
958.769
1138.69
940.3
1124.32
974.968
1053.45
1023.4
2551.16
2191.56
1920.48
1709.18
1540.53
1402.87
1289.67
1194.17
1114.22
1046.22
988.393
939.761
899.32
867.419
841.868
824.799
814.591
816.698
828.544
853.293
889.864
938.993
997.165
1064.52
1135.93
1209.95
1283.12
1356.18
1427.18
1491.68
1544.61
1583.4
1610.47
1627.82
1637.72
1642.79
1645.04
1645.88
1646.2
1646.45
1646.84
1647.4
1648.12
1648.93
1649.78
1650.59
1651.31
1651.91
1652.37
1652.73
1652.97
1653.16
1653.27
1653.36
1653.4
1653.45
1653.45
1653.48
1653.48
1653.48
1653.5
1653.46
1653.52
1653.46
1653.52
1653.47
1653.5
1653.5
1653.46
1653.55
1653.37
1653.71
1653.08
1654.19
1652.44
1654.85
1652.05
1654.55
1653.53
1651.53
1658.13
1645.78
1663.82
1642.12
1663.35
1648.88
1649.98
1667.79
1629.11
1684.97
1620.04
1682.93
1633.61
1661.99
1661.63
1630.22
1691.65
1598.4
1697.08
1579.45
2552.73
2195.16
1927.01
1721.93
1563.05
1443.41
1354.59
1285.47
1242.34
1212.75
1203.69
1219.19
1258.23
1319.2
1397.75
1492.81
1599.58
1713.62
1829.59
1942.48
2047.17
2136.38
2206.05
2256.31
2291.29
2313.89
2327.51
2331.4
2324.48
2305.15
2275.93
2241.98
2211.31
2184.91
2163.04
2145.8
2132.77
2123.35
2116.88
2112.69
2110.21
2108.91
2108.37
2108.32
2108.63
2109.14
2109.67
2110.14
2110.51
2110.8
2111.01
2111.16
2111.26
2111.33
2111.37
2111.41
2111.42
2111.44
2111.43
2111.44
2111.44
2111.44
2111.45
2111.44
2111.46
2111.44
2111.45
2111.45
2111.43
2111.47
2111.39
2111.54
2111.26
2111.77
2110.91
2112.23
2110.43
2112.57
2110.52
2111.76
2112.28
2109.05
2115.65
2105.73
2117.88
2105.99
2114.46
2113.09
2105.26
2122.77
2097.4
2126.56
2098.74
2120.82
2109.1
2106.63
2125.09
2082.7
2133.96
2047.44
2557.13
2210.51
2001.67
1895.4
1877.51
1963.03
2066.98
2205.15
2360.2
2499.47
2656.16
2833.16
3017.18
3192.92
3349.65
3479.9
3580.81
3649.11
3687.91
3696.05
3676.8
3627.62
3557.05
3475.57
3401.28
3339.78
3287.63
3240.01
3194.93
3152.76
3114.84
3080.92
3049.14
3020.81
2996.98
2977.83
2963.15
2952.4
2944.9
2939.93
2936.86
2935.09
2934.13
2933.75
2933.9
2934.34
2934.83
2935.26
2935.62
2935.88
2936.08
2936.22
2936.31
2936.38
2936.42
2936.45
2936.46
2936.47
2936.48
2936.48
2936.49
2936.48
2936.49
2936.47
2936.5
2936.47
2936.49
2936.48
2936.49
2936.49
2936.48
2936.49
2936.48
2936.5
2936.45
2936.55
2936.41
2936.52
2936.56
2936.18
2937.11
2935.51
2937.74
2935.08
2937.63
2935.98
2935.74
2938.58
2932.92
2940.68
2931.84
2940.32
2934.05
2935.67
2938.77
2927.91
2943.82
2913.07
2937.89
2875.76
2510.03
2651.97
3507.87
4429.86
5106.9
5525.7
5790.76
5943.97
6009.86
6038.21
6166.42
6318.21
6448
6534.46
6571.69
6561.1
6510.57
6429.7
6331.04
6222.79
6112.67
6005.71
5905.76
5812.95
5725.75
5643.69
5566.31
5495.65
5431.07
5372.71
5320.31
5274.55
5235.64
5203.35
5177.29
5156.94
5141.68
5130.7
5123.16
5118.31
5115.35
5113.56
5112.52
5112.21
5112.53
5113.12
5113.71
5114.21
5114.61
5114.9
5115.11
5115.26
5115.36
5115.43
5115.47
5115.49
5115.51
5115.52
5115.53
5115.53
5115.53
5115.53
5115.54
5115.53
5115.54
5115.53
5115.54
5115.53
5115.54
5115.53
5115.53
5115.54
5115.53
5115.55
5115.52
5115.56
5115.5
5115.58
5115.5
5115.54
5115.6
5115.36
5115.81
5115.22
5115.9
5115.03
5115.97
5115.53
5114.89
5116.53
5114.31
5116.59
5114.08
5115.99
5114.47
5113.02
5112.82
5098.19
5099.89
5046.1
6742.27
9445.11
11866.6
13287.6
13861.3
13917
13698.5
13355.9
12992.5
12655.4
12355.2
12108.8
11920.2
11785.5
11698.9
11652.9
11637.1
11640.6
11652.6
11667.5
11679.9
11690.3
11699
11706.6
11713
11718.9
11724.8
11730.9
11736.4
11740.2
11741.6
11740.6
11737.8
11734
11730
11726.6
11723.9
11722.2
11721.3
11721.1
11721.4
11722.1
11723.1
11724.2
11725.3
11726.3
11727
11727.5
11727.9
11728.2
11728.4
11728.5
11728.6
11728.7
11728.7
11728.7
11728.7
11728.7
11728.8
11728.7
11728.8
11728.7
11728.8
11728.7
11728.8
11728.7
11728.8
11728.7
11728.8
11728.7
11728.8
11728.6
11728.9
11728.4
11729.3
11727.9
11730.1
11726.7
11731.7
11724.8
11733.7
11723.5
11733.4
11726.4
11727.1
11736.2
11715.4
11747.6
11707.5
11749.6
11713.8
11735.6
11735
11711.1
11762
11690.9
11785.4
11697.7
11811.4
11786.7
6943.35
4923.16
3371.36
2870.32
2647
2574.27
2888.23
2305.7
1284.15
665.487
455.742
415.385
407.853
403.067
404.298
405.674
400.792
390.723
379.284
368.822
359.833
351.906
344.495
337.337
330.615
324.834
320.479
317.639
315.853
314.398
312.847
311.253
309.829
308.738
308.06
307.713
307.555
307.488
307.458
307.441
307.429
307.421
307.415
307.41
307.407
307.405
307.404
307.404
307.403
307.403
307.403
307.403
307.403
307.403
307.403
307.403
307.403
307.403
307.403
307.403
307.403
307.403
307.403
307.403
307.403
307.403
307.403
307.403
307.403
307.403
307.403
307.403
307.403
307.403
307.403
307.403
307.402
307.403
307.402
307.404
307.402
307.404
307.402
307.403
307.402
307.403
307.403
307.403
307.403
307.402
307.403
307.401
307.404
307.4
307.404
307.398
307.402
307.392
307.395
307.375
5642.35
5437.46
3972.65
3272.01
2865.37
2731.21
2965.8
2059.47
1005.07
540.139
417.324
398.249
399.711
398.973
398.682
397.903
393.095
384.63
375.004
365.939
357.87
350.549
343.583
336.771
330.26
324.527
320.115
317.232
315.507
314.198
312.789
311.302
309.962
308.889
308.14
307.702
307.474
307.357
307.294
307.26
307.239
307.227
307.219
307.215
307.212
307.21
307.209
307.209
307.209
307.208
307.208
307.208
307.208
307.208
307.208
307.208
307.208
307.208
307.208
307.208
307.208
307.208
307.208
307.208
307.208
307.208
307.208
307.208
307.208
307.208
307.208
307.208
307.208
307.208
307.208
307.209
307.208
307.209
307.207
307.21
307.207
307.21
307.207
307.21
307.207
307.209
307.207
307.209
307.207
307.209
307.208
307.208
307.208
307.208
307.208
307.207
307.206
307.204
307.202
307.196
3383.12
4848.05
4230.87
3655.1
3085.33
2928.75
2940.72
1673.91
728.97
437.921
381.527
385.461
395.498
397.259
395.82
393.183
387.83
380.055
371.548
363.492
356.158
349.347
342.783
336.314
330.041
324.361
319.831
316.805
315.093
314.003
312.895
311.638
310.421
309.36
308.507
307.918
307.563
307.361
307.248
307.185
307.15
307.13
307.119
307.114
307.11
307.109
307.108
307.107
307.107
307.107
307.107
307.107
307.107
307.107
307.107
307.107
307.107
307.107
307.107
307.107
307.107
307.107
307.107
307.107
307.107
307.107
307.107
307.107
307.107
307.107
307.107
307.107
307.106
307.107
307.106
307.107
307.106
307.108
307.105
307.108
307.104
307.109
307.104
307.109
307.105
307.109
307.104
307.109
307.104
307.109
307.104
307.109
307.104
307.11
307.104
307.11
307.104
307.112
307.105
307.116
2000.35
3449.57
3798.09
3813.07
3165.48
3110.56
2643.96
1128.24
505.218
397.067
379.83
385.225
396.822
399.91
397.113
392.138
385.293
377.17
368.979
361.453
354.635
348.264
342.088
335.973
329.97
324.384
319.723
316.445
314.591
313.66
312.954
312.09
311.092
310.075
309.148
308.416
307.917
307.607
307.423
307.316
307.255
307.221
307.201
307.191
307.185
307.182
307.18
307.179
307.179
307.179
307.179
307.179
307.178
307.178
307.178
307.178
307.178
307.178
307.178
307.178
307.178
307.178
307.178
307.178
307.178
307.178
307.178
307.178
307.178
307.178
307.178
307.179
307.178
307.179
307.178
307.179
307.178
307.18
307.177
307.18
307.176
307.181
307.176
307.181
307.176
307.181
307.176
307.182
307.175
307.182
307.175
307.183
307.174
307.184
307.174
307.186
307.176
307.19
307.182
307.205
1691.65
1697.92
2418.85
3220.3
2788.26
3034.78
1796.48
564.874
413.351
382.803
365.431
369.868
385.746
395.413
395.773
391.053
383.69
375.26
367.083
359.786
353.313
347.335
341.553
335.798
330.076
324.614
319.854
316.276
314.107
313.105
312.66
312.19
311.476
310.581
309.659
308.856
308.255
307.852
307.6
307.449
307.36
307.309
307.281
307.265
307.256
307.252
307.249
307.248
307.247
307.247
307.246
307.246
307.246
307.246
307.246
307.246
307.246
307.246
307.246
307.246
307.246
307.246
307.246
307.246
307.246
307.246
307.246
307.246
307.246
307.246
307.246
307.246
307.246
307.246
307.246
307.247
307.245
307.247
307.245
307.248
307.244
307.249
307.244
307.249
307.244
307.249
307.243
307.249
307.243
307.25
307.243
307.25
307.242
307.251
307.243
307.253
307.245
307.259
307.252
307.276
1303.88
785.233
1528.9
1651.26
1828.79
1977.3
545.999
338.989
417.907
368.566
350.327
360.317
377.178
390.934
394.605
390.686
382.977
374.103
365.69
358.398
352.143
346.526
341.154
335.776
330.338
325.016
320.199
316.356
313.807
312.496
311.974
311.639
311.117
310.386
309.582
308.843
308.257
307.844
307.577
307.413
307.317
307.263
307.232
307.215
307.205
307.2
307.198
307.196
307.196
307.195
307.195
307.195
307.195
307.195
307.195
307.195
307.195
307.195
307.195
307.195
307.195
307.195
307.195
307.195
307.195
307.195
307.195
307.195
307.195
307.195
307.195
307.195
307.195
307.195
307.194
307.195
307.194
307.196
307.193
307.196
307.193
307.197
307.193
307.197
307.193
307.197
307.192
307.197
307.192
307.198
307.192
307.198
307.192
307.199
307.192
307.201
307.194
307.205
307.2
307.22
766.403
423.177
1053.04
628.75
1091.99
524.536
283.123
430.986
424.879
315.839
314.176
344.713
363.038
378.943
387.984
387.705
381.263
372.428
363.721
356.274
350.185
345.014
340.211
335.375
330.364
325.313
320.57
316.583
313.707
311.999
311.164
310.708
310.234
309.651
309.027
308.446
307.974
307.633
307.409
307.27
307.189
307.143
307.117
307.103
307.096
307.091
307.089
307.088
307.087
307.087
307.087
307.087
307.087
307.087
307.087
307.087
307.087
307.087
307.087
307.087
307.087
307.087
307.087
307.087
307.087
307.087
307.087
307.087
307.087
307.087
307.087
307.087
307.087
307.087
307.086
307.087
307.086
307.087
307.086
307.088
307.085
307.088
307.085
307.088
307.085
307.088
307.085
307.089
307.084
307.089
307.084
307.089
307.084
307.09
307.084
307.091
307.086
307.095
307.091
307.107
320.373
403.248
455.495
445.854
424.787
367.63
349.944
386.856
327.728
243.297
308.865
370.511
378.595
379.288
383.492
384.236
379.522
371.583
362.987
355.291
348.941
343.637
338.836
334.152
329.464
324.845
320.476
316.632
313.612
311.567
310.381
309.731
309.267
308.819
308.373
307.964
307.631
307.391
307.233
307.135
307.077
307.044
307.025
307.015
307.01
307.007
307.005
307.004
307.004
307.004
307.004
307.004
307.004
307.004
307.004
307.004
307.004
307.004
307.004
307.004
307.004
307.004
307.004
307.004
307.004
307.004
307.004
307.004
307.004
307.004
307.004
307.004
307.004
307.004
307.003
307.004
307.003
307.004
307.003
307.005
307.002
307.005
307.002
307.005
307.002
307.005
307.002
307.005
307.002
307.006
307.002
307.006
307.002
307.006
307.002
307.007
307.003
307.01
307.007
307.019
310.635
328.471
337.955
333.893
297.763
363.836
265.472
372.182
328.014
265.056
403.558
489.117
460.475
417.466
395.913
387.293
381.051
373.622
365.394
357.428
350.132
343.368
336.995
331.142
326.059
321.844
318.38
315.501
313.154
311.373
310.155
309.38
308.848
308.405
308.007
307.671
307.413
307.235
307.121
307.053
307.015
306.993
306.982
306.976
306.972
306.97
306.97
306.969
306.969
306.969
306.969
306.968
306.968
306.968
306.968
306.968
306.968
306.968
306.968
306.968
306.968
306.968
306.968
306.968
306.968
306.968
306.968
306.968
306.968
306.968
306.968
306.968
306.968
306.969
306.968
306.969
306.968
306.969
306.968
306.969
306.967
306.97
306.967
306.97
306.967
306.97
306.967
306.97
306.967
306.97
306.967
306.97
306.967
306.971
306.967
306.971
306.967
306.973
306.97
306.98
353.499
254.635
377.763
242.51
365.98
298.75
277.586
437.808
284.87
304.232
599.217
737.11
653.631
531.152
452.505
411.348
388.296
373.546
363.561
356.052
349.082
341.799
334.487
327.816
322.179
317.621
314.064
311.444
309.677
308.62
308.082
307.857
307.756
307.648
307.501
307.345
307.214
307.122
307.064
307.03
307.012
307.002
306.997
306.995
306.994
306.993
306.993
306.993
306.993
306.993
306.993
306.993
306.993
306.993
306.993
306.993
306.993
306.993
306.993
306.993
306.993
306.993
306.993
306.993
306.993
306.993
306.993
306.993
306.993
306.993
306.993
306.993
306.993
306.993
306.993
306.993
306.992
306.993
306.992
306.993
306.992
306.994
306.992
306.994
306.992
306.994
306.992
306.994
306.992
306.994
306.992
306.994
306.991
306.994
306.991
306.995
306.992
306.996
306.993
306.999
333.519
265.535
368.307
230.225
403.313
214.141
379.961
383.582
176.023
530.955
1048.07
1210.97
1033.16
770.983
585.036
484.288
430.45
398.37
376.684
360.802
349.426
342.183
338.16
335.702
333.106
329.433
324.78
319.918
315.66
312.445
310.303
309.016
308.286
307.859
307.58
307.388
307.264
307.191
307.154
307.136
307.129
307.127
307.127
307.128
307.128
307.128
307.129
307.129
307.129
307.129
307.129
307.129
307.129
307.129
307.129
307.129
307.129
307.129
307.129
307.129
307.129
307.129
307.129
307.129
307.129
307.129
307.129
307.129
307.129
307.129
307.129
307.129
307.129
307.129
307.129
307.129
307.129
307.129
307.129
307.13
307.128
307.13
307.128
307.13
307.128
307.13
307.128
307.13
307.128
307.13
307.128
307.13
307.128
307.13
307.128
307.131
307.128
307.131
307.128
307.132
267.417
330.354
305.327
281.299
371.331
202.629
456.978
252.436
411.217
1265.63
1872.36
1946.95
1661.71
1249.31
889.708
654.551
523.634
452.225
409.967
382.826
365.047
353.538
345.827
339.866
334.333
328.753
323.307
318.468
314.615
311.852
310.051
308.968
308.349
307.987
307.758
307.611
307.524
307.482
307.466
307.465
307.47
307.475
307.479
307.482
307.484
307.485
307.486
307.486
307.487
307.487
307.487
307.487
307.487
307.487
307.487
307.487
307.487
307.487
307.487
307.487
307.487
307.487
307.487
307.487
307.487
307.487
307.487
307.487
307.487
307.487
307.487
307.487
307.487
307.487
307.487
307.487
307.487
307.487
307.486
307.488
307.486
307.488
307.486
307.488
307.486
307.488
307.486
307.489
307.485
307.489
307.485
307.489
307.485
307.49
307.484
307.49
307.484
307.491
307.485
307.493
203.952
413.035
202.688
389.32
265.312
301.746
465.376
337.913
1175.47
2194.19
2657.45
2570.09
2211.18
1766.4
1350.15
1022.07
790.539
632.854
528.013
460.132
417.434
391.374
375.121
363.29
352.657
342.243
332.542
324.39
318.256
314.088
311.49
309.989
309.176
308.75
308.528
308.423
308.391
308.401
308.429
308.458
308.484
308.503
308.516
308.525
308.53
308.533
308.535
308.536
308.536
308.536
308.536
308.537
308.537
308.537
308.537
308.537
308.537
308.537
308.537
308.537
308.537
308.537
308.537
308.537
308.537
308.537
308.537
308.537
308.537
308.537
308.537
308.537
308.536
308.537
308.536
308.537
308.535
308.538
308.535
308.539
308.534
308.54
308.533
308.541
308.532
308.542
308.531
308.543
308.529
308.545
308.527
308.547
308.525
308.55
308.524
308.554
308.524
308.562
308.531
308.58
290.282
521.778
207.756
495.256
249.361
542.384
600.088
1017.85
2158.62
2995.42
3189.8
2955.92
2587.81
2167.49
1762.89
1429.87
1182.91
1003.51
866.341
755.91
667.717
599.422
545.033
497.048
451.629
410.19
376.267
351.289
334.46
324.01
317.95
314.662
313.08
312.494
312.442
312.662
312.996
313.337
313.629
313.85
314.005
314.106
314.169
314.207
314.228
314.241
314.248
314.251
314.253
314.254
314.255
314.255
314.255
314.255
314.255
314.255
314.255
314.255
314.255
314.255
314.255
314.255
314.255
314.255
314.255
314.255
314.255
314.255
314.255
314.256
314.255
314.256
314.254
314.258
314.252
314.261
314.248
314.265
314.243
314.27
314.239
314.274
314.235
314.277
314.231
314.283
314.222
314.296
314.208
314.312
314.191
314.331
314.176
314.354
314.164
314.391
314.166
314.466
314.231
314.639
953.914
986.287
849.199
961.525
853.448
1193.24
1282.98
1906.87
2994.23
3602.06
3496.52
3187.45
2869.17
2490.07
2108.85
1789.47
1547.96
1368.66
1229.43
1113.82
1014.93
927.934
845.9
763.027
679.439
598.266
522.988
459.463
411.774
379.621
360.234
350.182
346.405
346.445
348.416
351.175
354.011
356.452
358.322
359.642
360.511
361.056
361.385
361.577
361.687
361.747
361.78
361.797
361.806
361.811
361.814
361.815
361.816
361.816
361.816
361.816
361.816
361.816
361.816
361.816
361.816
361.816
361.816
361.816
361.816
361.816
361.816
361.817
361.815
361.818
361.813
361.822
361.807
361.831
361.793
361.85
361.769
361.878
361.739
361.909
361.713
361.928
361.701
361.934
361.693
361.954
361.655
362.019
361.568
362.127
361.458
362.254
361.351
362.419
361.252
362.676
361.251
363.184
361.651
364.333
1641.98
1552.03
1551.34
1581.04
1517.7
1870.69
1832.04
2627.05
3844.86
4100.95
3599.81
3243.23
2991.29
2694.92
2368.02
2076.44
1839.17
1649.6
1497.19
1372.09
1266.89
1174.02
1084.36
992.909
906.442
835.276
777.141
723.029
672.469
631.552
604.821
593.549
595.123
604.264
616.219
628.121
638.391
646.349
652.022
655.823
658.243
659.722
660.594
661.093
661.372
661.524
661.606
661.649
661.672
661.683
661.689
661.692
661.694
661.695
661.695
661.695
661.695
661.696
661.696
661.696
661.696
661.696
661.696
661.696
661.696
661.696
661.695
661.697
661.694
661.701
661.688
661.711
661.671
661.739
661.63
661.796
661.554
661.89
661.449
661.995
661.359
662.057
661.335
662.044
661.369
662.024
661.342
662.132
661.155
662.401
660.866
662.747
660.56
663.224
660.227
663.998
660.125
665.429
661.155
668.493
2099.08
2005.54
2017.95
2021.12
2003.66
2335.43
2307.35
3705.09
4911.39
4411.56
3429.38
3043.13
2841.26
2624.84
2376.49
2138.83
1934.95
1771.65
1643.2
1539.41
1452.88
1377.62
1307.17
1236.8
1169.99
1125.46
1121.87
1139.58
1156.2
1169.73
1183.55
1200.24
1219.45
1238.36
1254.79
1268.15
1278.35
1285.61
1290.45
1293.5
1295.35
1296.44
1297.07
1297.42
1297.62
1297.72
1297.78
1297.81
1297.82
1297.83
1297.83
1297.84
1297.84
1297.84
1297.84
1297.84
1297.84
1297.84
1297.84
1297.84
1297.84
1297.84
1297.84
1297.84
1297.84
1297.84
1297.84
1297.84
1297.84
1297.84
1297.84
1297.84
1297.83
1297.85
1297.82
1297.88
1297.78
1297.93
1297.72
1297.99
1297.65
1298.05
1297.62
1298.05
1297.65
1297.99
1297.72
1297.95