/*--------------------------------*- C++ -*----------------------------------*\
| =========                 |                                                 |
| \\      /  F ield         | OpenFOAM: The Open Source CFD Toolbox           |
|  \\    /   O peration     | Version:  v2012                                 |
|   \\  /    A nd           | Website:  www.openfoam.com                      |
|    \\/     M anipulation  |                                                 |
\*---------------------------------------------------------------------------*/
FoamFile
{
    version     2.0;
    format      ascii;
    class       volScalarField;
    location    "0.035";
    object      p;
}
// * * * * * * * * * * * * * * * * * * * * * * * * * * * * * * * * * * * * * //

dimensions      [0 2 -2 0 0 0 0];


internalField   nonuniform List<scalar> 
5600
(
0.120625
-0.337526
-0.718104
-1.03648
-1.34705
-1.6574
-1.95934
-2.24026
-2.50231
-2.75418
-2.99246
-3.21682
-3.43054
-3.63524
-3.83169
-4.02033
-4.20076
-4.37247
-4.53737
-4.69807
-4.85742
-5.01471
-5.17089
-5.32672
-5.48312
-5.63979
-5.79667
-5.95369
-6.11078
-6.2679
-6.42505
-6.5822
-6.73937
-6.89653
-7.0537
-7.21086
-7.36803
-7.5252
-7.68236
-7.83952
-7.99669
-8.15385
-8.31102
-8.46818
-8.62534
-8.78251
-8.93968
-9.09685
-9.25401
-9.41118
-9.56835
-9.72552
-9.88269
-10.0399
-10.197
-10.3542
-10.5114
-10.6685
-10.8257
-10.9829
-11.14
-11.2972
-11.4544
-11.6116
-11.7687
-11.9259
-12.0831
-12.2402
-12.3974
-12.5546
-12.7117
-12.8689
-13.0261
-13.1833
-13.3404
-13.4976
-13.6547
-13.8121
-13.969
-14.1265
-14.2832
-14.441
-14.5975
-14.7552
-14.9122
-15.0692
-15.2266
-15.3842
-15.5392
-15.7013
-15.8499
-16.0159
-16.1674
-16.3186
-16.4851
-16.5999
-16.7455
-16.7461
-16.6325
-15.4796
0.0615927
-0.357715
-0.734709
-1.05427
-1.36508
-1.67577
-1.97755
-2.25869
-2.52122
-2.77324
-3.01165
-3.23616
-3.45016
-3.65538
-3.85245
-4.04188
-4.22248
-4.39468
-4.56025
-4.72132
-4.88079
-5.03767
-5.19392
-5.34968
-5.50608
-5.66276
-5.81966
-5.9767
-6.13379
-6.29092
-6.44807
-6.60523
-6.76239
-6.91956
-7.07672
-7.23389
-7.39106
-7.54822
-7.70539
-7.86255
-8.01972
-8.17688
-8.33404
-8.49121
-8.64837
-8.80554
-8.9627
-9.11987
-9.27704
-9.43421
-9.59138
-9.74855
-9.90572
-10.0629
-10.2201
-10.3772
-10.5344
-10.6916
-10.8487
-11.0059
-11.1631
-11.3202
-11.4774
-11.6346
-11.7918
-11.9489
-12.1061
-12.2633
-12.4204
-12.5776
-12.7348
-12.8919
-13.0491
-13.2063
-13.3635
-13.5207
-13.6778
-13.835
-13.9921
-14.1495
-14.3064
-14.4639
-14.6207
-14.7781
-14.9353
-15.0923
-15.2495
-15.407
-15.563
-15.7226
-15.8752
-16.037
-16.192
-16.3427
-16.5035
-16.6277
-16.7617
-16.776
-16.6653
-15.5931
0.023346
-0.370345
-0.747445
-1.06762
-1.37632
-1.6845
-1.98509
-2.2659
-2.52842
-2.78
-3.01783
-3.24245
-3.45653
-3.66158
-3.85865
-4.04823
-4.22917
-4.40146
-4.5662
-4.72713
-4.88667
-5.04459
-5.20086
-5.35675
-5.51314
-5.66977
-5.82661
-5.98362
-6.14069
-6.29781
-6.45495
-6.6121
-6.76926
-6.92642
-7.08359
-7.24076
-7.39792
-7.55509
-7.71225
-7.86942
-8.02658
-8.18374
-8.34091
-8.49807
-8.65524
-8.8124
-8.96957
-9.12674
-9.28391
-9.44108
-9.59824
-9.75541
-9.91258
-10.0697
-10.2269
-10.3841
-10.5413
-10.6984
-10.8556
-11.0128
-11.1699
-11.3271
-11.4843
-11.6415
-11.7986
-11.9558
-12.113
-12.2701
-12.4273
-12.5845
-12.7416
-12.8988
-13.056
-13.2132
-13.3703
-13.5275
-13.6847
-13.8419
-13.999
-14.1563
-14.3133
-14.4706
-14.6277
-14.7849
-14.9421
-15.0992
-15.2565
-15.4136
-15.5703
-15.7285
-15.8833
-16.0428
-16.1987
-16.3513
-16.5071
-16.6453
-16.762
-16.7998
-16.7057
-15.8255
-0.0253856
-0.386815
-0.762818
-1.08445
-1.39191
-1.69915
-2.00002
-2.28159
-2.54473
-2.79658
-3.0349
-3.25963
-3.47419
-3.67938
-3.87648
-4.06605
-4.24742
-4.42033
-4.58629
-4.74856
-4.90816
-5.06471
-5.22082
-5.37679
-5.5332
-5.68994
-5.84685
-6.0039
-6.16101
-6.31815
-6.4753
-6.63246
-6.78963
-6.94679
-7.10396
-7.26113
-7.41829
-7.57546
-7.73262
-7.88979
-8.04695
-8.20412
-8.36128
-8.51844
-8.67561
-8.83277
-8.98994
-9.14711
-9.30428
-9.46145
-9.61862
-9.77578
-9.93295
-10.0901
-10.2473
-10.4045
-10.5616
-10.7188
-10.876
-11.0331
-11.1903
-11.3475
-11.5047
-11.6618
-11.819
-11.9762
-12.1333
-12.2905
-12.4477
-12.6048
-12.762
-12.9192
-13.0764
-13.2335
-13.3907
-13.5479
-13.7051
-13.8622
-14.0194
-14.1765
-14.3338
-14.4909
-14.6481
-14.8053
-14.9624
-15.1197
-15.2769
-15.4336
-15.5919
-15.7475
-15.9056
-16.0629
-16.2183
-16.3766
-16.5219
-16.6689
-16.7847
-16.8262
-16.7621
-16.1432
-0.0750215
-0.403934
-0.778545
-1.10264
-1.40853
-1.71493
-2.01536
-2.29695
-2.5602
-2.8116
-3.05005
-3.27471
-3.48954
-3.6949
-3.89191
-4.08121
-4.2625
-4.43509
-4.60036
-4.76103
-4.92001
-5.07911
-5.23537
-5.39128
-5.54761
-5.70423
-5.86104
-6.01802
-6.17508
-6.33218
-6.48932
-6.64647
-6.80363
-6.96079
-7.11796
-7.27512
-7.43229
-7.58945
-7.74662
-7.90378
-8.06095
-8.21811
-8.37527
-8.53244
-8.6896
-8.84677
-9.00394
-9.1611
-9.31827
-9.47544
-9.63261
-9.78978
-9.94695
-10.1041
-10.2613
-10.4185
-10.5756
-10.7328
-10.89
-11.0471
-11.2043
-11.3615
-11.5186
-11.6758
-11.833
-11.9902
-12.1473
-12.3045
-12.4617
-12.6188
-12.776
-12.9332
-13.0904
-13.2475
-13.4047
-13.5619
-13.7191
-13.8762
-14.0334
-14.1905
-14.3478
-14.5049
-14.6621
-14.8192
-14.9765
-15.1336
-15.2909
-15.4477
-15.6056
-15.7618
-15.9194
-16.0764
-16.2323
-16.3878
-16.5374
-16.6873
-16.8053
-16.8591
-16.8354
-16.48
-0.125061
-0.423255
-0.795807
-1.1229
-1.42718
-1.73259
-2.03254
-2.31431
-2.57796
-2.82925
-3.06779
-3.29299
-3.50818
-3.71384
-3.91093
-4.10005
-4.28128
-4.45441
-4.62064
-4.78364
-4.94275
-5.1005
-5.25658
-5.41253
-5.569
-5.72574
-5.88263
-6.03967
-6.19676
-6.3539
-6.51105
-6.66821
-6.82537
-6.98254
-7.1397
-7.29687
-7.45404
-7.6112
-7.76837
-7.92553
-8.08269
-8.23986
-8.39702
-8.55419
-8.71135
-8.86852
-9.02568
-9.18285
-9.34002
-9.49719
-9.65436
-9.81153
-9.96869
-10.1259
-10.283
-10.4402
-10.5974
-10.7545
-10.9117
-11.0689
-11.2261
-11.3832
-11.5404
-11.6976
-11.8547
-12.0119
-12.1691
-12.3262
-12.4834
-12.6406
-12.7978
-12.9549
-13.1121
-13.2693
-13.4264
-13.5836
-13.7408
-13.898
-14.0552
-14.2123
-14.3695
-14.5266
-14.6838
-14.841
-14.9982
-15.1554
-15.3126
-15.4695
-15.6273
-15.7837
-15.9413
-16.0986
-16.2547
-16.412
-16.5619
-16.7095
-16.8333
-16.9038
-16.9269
-16.8075
-0.174477
-0.445077
-0.814853
-1.1452
-1.44803
-1.75238
-2.05195
-2.33391
-2.59794
-2.84908
-3.08757
-3.31316
-3.52858
-3.73441
-3.93145
-4.12034
-4.30137
-4.4744
-4.64038
-4.80043
-4.96148
-5.11991
-5.27623
-5.43225
-5.58866
-5.74528
-5.90208
-6.05904
-6.21609
-6.3732
-6.53033
-6.68748
-6.84464
-7.0018
-7.15897
-7.31613
-7.4733
-7.63046
-7.78763
-7.94479
-8.10195
-8.25912
-8.41628
-8.57345
-8.73061
-8.88778
-9.04494
-9.20211
-9.35928
-9.51645
-9.67362
-9.83079
-9.98796
-10.1451
-10.3023
-10.4595
-10.6166
-10.7738
-10.931
-11.0881
-11.2453
-11.4025
-11.5597
-11.7168
-11.874
-12.0312
-12.1883
-12.3455
-12.5027
-12.6598
-12.817
-12.9742
-13.1314
-13.2885
-13.4457
-13.6029
-13.7601
-13.9172
-14.0744
-14.2316
-14.3888
-14.5459
-14.7031
-14.8603
-15.0175
-15.1746
-15.3319
-15.4888
-15.6465
-15.803
-15.9604
-16.1176
-16.2738
-16.4294
-16.5811
-16.7326
-16.8639
-16.9544
-17.0303
-17.1148
-0.221455
-0.469573
-0.836244
-1.16968
-1.47131
-1.77464
-2.07394
-2.35603
-2.62036
-2.87139
-3.10983
-3.33573
-3.55136
-3.75741
-3.95448
-4.14327
-4.32425
-4.49744
-4.6639
-4.82726
-4.98681
-5.1447
-5.3009
-5.45704
-5.61358
-5.77028
-5.92712
-6.08412
-6.2412
-6.39832
-6.55546
-6.71262
-6.86978
-7.02695
-7.18411
-7.34128
-7.49845
-7.65561
-7.81278
-7.96994
-8.1271
-8.28427
-8.44143
-8.5986
-8.75576
-8.91293
-9.07009
-9.22726
-9.38443
-9.5416
-9.69877
-9.85594
-10.0131
-10.1703
-10.3274
-10.4846
-10.6418
-10.7989
-10.9561
-11.1133
-11.2705
-11.4276
-11.5848
-11.742
-11.8991
-12.0563
-12.2135
-12.3707
-12.5278
-12.685
-12.8422
-12.9993
-13.1565
-13.3137
-13.4709
-13.628
-13.7852
-13.9424
-14.0996
-14.2567
-14.4139
-14.5711
-14.7283
-14.8854
-15.0426
-15.1998
-15.357
-15.514
-15.6715
-15.8283
-15.9857
-16.1431
-16.2997
-16.4571
-16.6104
-16.761
-16.8997
-17.0129
-17.1443
-17.3984
-0.264434
-0.496649
-0.860563
-1.19646
-1.49723
-1.79972
-2.09883
-2.38098
-2.64554
-2.89655
-3.13493
-3.36102
-3.57687
-3.78315
-3.98023
-4.16886
-4.34972
-4.52297
-4.68941
-4.85107
-5.01104
-5.16943
-5.32573
-5.48181
-5.63834
-5.79502
-5.95184
-6.10881
-6.26587
-6.42297
-6.5801
-6.73725
-6.89441
-7.05157
-7.20874
-7.36591
-7.52307
-7.68024
-7.8374
-7.99456
-8.15173
-8.30889
-8.46606
-8.62322
-8.78039
-8.93755
-9.09472
-9.25189
-9.40905
-9.56622
-9.72339
-9.88056
-10.0377
-10.1949
-10.3521
-10.5092
-10.6664
-10.8236
-10.9807
-11.1379
-11.2951
-11.4523
-11.6094
-11.7666
-11.9238
-12.0809
-12.2381
-12.3953
-12.5525
-12.7096
-12.8668
-13.024
-13.1811
-13.3383
-13.4955
-13.6527
-13.8098
-13.967
-14.1242
-14.2813
-14.4385
-14.5957
-14.7529
-14.9101
-15.0672
-15.2244
-15.3816
-15.5387
-15.6961
-15.853
-16.0103
-16.1676
-16.3243
-16.4805
-16.635
-16.7908
-16.939
-17.0774
-17.2644
-17.6544
-0.301616
-0.525846
-0.888394
-1.22574
-1.52598
-1.82803
-2.12706
-2.40918
-2.67389
-2.92492
-3.16325
-3.38945
-3.60545
-3.81185
-4.00893
-4.19749
-4.37827
-4.55151
-4.71852
-4.88103
-5.04093
-5.19952
-5.35595
-5.51214
-5.66867
-5.8253
-5.98206
-6.13902
-6.29607
-6.45318
-6.61032
-6.76747
-6.92463
-7.0818
-7.23896
-7.39613
-7.5533
-7.71046
-7.86763
-8.02479
-8.18195
-8.33912
-8.49628
-8.65345
-8.81061
-8.96778
-9.12494
-9.28211
-9.43928
-9.59645
-9.75362
-9.91079
-10.068
-10.2251
-10.3823
-10.5395
-10.6966
-10.8538
-11.011
-11.1681
-11.3253
-11.4825
-11.6397
-11.7968
-11.954
-12.1112
-12.2683
-12.4255
-12.5827
-12.7398
-12.897
-13.0542
-13.2114
-13.3685
-13.5257
-13.6829
-13.8401
-13.9972
-14.1544
-14.3116
-14.4688
-14.6259
-14.7831
-14.9403
-15.0975
-15.2546
-15.4118
-15.5689
-15.7263
-15.8833
-16.0406
-16.1981
-16.3553
-16.5133
-16.6701
-16.8265
-16.984
-17.1485
-17.3886
-17.8823
-0.328974
-0.555142
-0.918795
-1.25609
-1.55622
-1.85841
-2.15753
-2.43949
-2.70422
-2.95533
-3.19363
-3.41985
-3.63586
-3.84226
-4.03934
-4.22791
-4.40867
-4.58186
-4.74851
-4.9106
-5.0703
-5.22849
-5.38453
-5.54058
-5.69727
-5.85409
-6.01095
-6.16794
-6.325
-6.48211
-6.63925
-6.7964
-6.95356
-7.11072
-7.26789
-7.42505
-7.58222
-7.73938
-7.89655
-8.05371
-8.21088
-8.36804
-8.5252
-8.68237
-8.83953
-8.9967
-9.15386
-9.31103
-9.4682
-9.62537
-9.78254
-9.93971
-10.0969
-10.254
-10.4112
-10.5684
-10.7256
-10.8827
-11.0399
-11.1971
-11.3542
-11.5114
-11.6686
-11.8257
-11.9829
-12.1401
-12.2973
-12.4544
-12.6116
-12.7688
-12.9259
-13.0831
-13.2403
-13.3975
-13.5546
-13.7118
-13.869
-14.0261
-14.1833
-14.3405
-14.4977
-14.6548
-14.812
-14.9692
-15.1264
-15.2836
-15.4408
-15.5979
-15.7552
-15.9123
-16.0696
-16.227
-16.3842
-16.5415
-16.6989
-16.8617
-17.0298
-17.2194
-17.5057
-18.0687
-0.343762
-0.581793
-0.948841
-1.28455
-1.58501
-1.88795
-2.18728
-2.46897
-2.73361
-2.98483
-3.22313
-3.44926
-3.66518
-3.87144
-4.06851
-4.25715
-4.43791
-4.61104
-4.77772
-4.94002
-5.10025
-5.25876
-5.41545
-5.57164
-5.72794
-5.88447
-6.04122
-6.19817
-6.35521
-6.51232
-6.66945
-6.8266
-6.98376
-7.14092
-7.29809
-7.45525
-7.61242
-7.76959
-7.92675
-8.08391
-8.24108
-8.39824
-8.55541
-8.71257
-8.86973
-9.0269
-9.18407
-9.34124
-9.4984
-9.65557
-9.81274
-9.96991
-10.1271
-10.2842
-10.4414
-10.5986
-10.7558
-10.9129
-11.0701
-11.2273
-11.3844
-11.5416
-11.6988
-11.856
-12.0131
-12.1703
-12.3275
-12.4846
-12.6418
-12.799
-12.9561
-13.1133
-13.2705
-13.4277
-13.5848
-13.742
-13.8992
-14.0564
-14.2135
-14.3707
-14.5279
-14.6851
-14.8422
-14.9994
-15.1566
-15.3138
-15.471
-15.6281
-15.7854
-15.9426
-16.0999
-16.2574
-16.4151
-16.574
-16.7344
-16.8973
-17.0736
-17.2837
-17.6049
-18.2082
-0.347477
-0.605367
-0.976865
-1.30991
-1.61106
-1.91512
-2.21476
-2.49607
-2.76058
-3.01196
-3.25026
-3.47622
-3.69196
-3.89798
-4.09506
-4.28384
-4.46467
-4.63768
-4.80406
-4.96599
-5.12578
-5.28342
-5.43909
-5.59522
-5.75195
-5.90887
-6.06576
-6.22277
-6.37985
-6.53697
-6.69411
-6.85126
-7.00842
-7.16559
-7.32276
-7.47992
-7.63709
-7.79425
-7.95142
-8.10858
-8.26574
-8.42291
-8.58007
-8.73724
-8.8944
-9.05157
-9.20873
-9.3659
-9.52307
-9.68024
-9.83741
-9.99458
-10.1517
-10.3089
-10.4661
-10.6233
-10.7804
-10.9376
-11.0948
-11.2519
-11.4091
-11.5663
-11.7234
-11.8806
-12.0378
-12.195
-12.3521
-12.5093
-12.6665
-12.8236
-12.9808
-13.138
-13.2952
-13.4523
-13.6095
-13.7667
-13.9238
-14.081
-14.2382
-14.3954
-14.5525
-14.7097
-14.8669
-15.0241
-15.1813
-15.3384
-15.4956
-15.6528
-15.8101
-15.9672
-16.1245
-16.2821
-16.4398
-16.598
-16.7579
-16.9271
-17.111
-17.3371
-17.6836
-18.3088
-0.342398
-0.626699
-1.00282
-1.33256
-1.63476
-1.94012
-2.24011
-2.52091
-2.78527
-3.03687
-3.27512
-3.50084
-3.71641
-3.92218
-4.11924
-4.30815
-4.48904
-4.66198
-4.8283
-4.99037
-5.15048
-5.30871
-5.4657
-5.62152
-5.77782
-5.9342
-6.09098
-6.24793
-6.40497
-6.56207
-6.7192
-6.87635
-7.03351
-7.19068
-7.34784
-7.50501
-7.66218
-7.81934
-7.9765
-8.13367
-8.29083
-8.448
-8.60516
-8.76232
-8.91949
-9.07665
-9.23382
-9.39099
-9.54816
-9.70533
-9.8625
-10.0197
-10.1768
-10.334
-10.4912
-10.6483
-10.8055
-10.9627
-11.1198
-11.277
-11.4342
-11.5914
-11.7485
-11.9057
-12.0629
-12.22
-12.3772
-12.5344
-12.6916
-12.8487
-13.0059
-13.1631
-13.3202
-13.4774
-13.6346
-13.7918
-13.9489
-14.1061
-14.2633
-14.4205
-14.5776
-14.7348
-14.892
-15.0492
-15.2063
-15.3635
-15.5207
-15.6779
-15.8351
-15.9924
-16.1497
-16.3074
-16.4654
-16.6249
-16.788
-16.9558
-17.1447
-17.3827
-17.7471
-18.3841
-0.331069
-0.646163
-1.02643
-1.3528
-1.65627
-1.96303
-2.26351
-2.54373
-2.80794
-3.0598
-3.29794
-3.52325
-3.73862
-3.94419
-4.14127
-4.33035
-4.51122
-4.68386
-4.84967
-5.01116
-5.17058
-5.32807
-5.48374
-5.6396
-5.79623
-5.95319
-6.11012
-6.26716
-6.42426
-6.58139
-6.73854
-6.89569
-7.05286
-7.21002
-7.36719
-7.52436
-7.68152
-7.83869
-7.99585
-8.15302
-8.31018
-8.46734
-8.62451
-8.78167
-8.93884
-9.096
-9.25317
-9.41034
-9.56751
-9.72468
-9.88184
-10.039
-10.1962
-10.3533
-10.5105
-10.6677
-10.8249
-10.982
-11.1392
-11.2964
-11.4535
-11.6107
-11.7679
-11.9251
-12.0822
-12.2394
-12.3966
-12.5537
-12.7109
-12.8681
-13.0252
-13.1824
-13.3396
-13.4968
-13.6539
-13.8111
-13.9683
-14.1255
-14.2826
-14.4398
-14.597
-14.7542
-14.9113
-15.0685
-15.2257
-15.3829
-15.5401
-15.6972
-15.8545
-16.0117
-16.169
-16.3267
-16.4846
-16.6436
-16.8053
-16.9784
-17.1727
-17.4201
-17.7976
-18.4406
-0.315541
-0.664147
-1.04765
-1.37098
-1.6758
-1.98384
-2.28487
-2.56452
-2.82865
-3.08078
-3.31887
-3.54381
-3.75882
-3.96416
-4.16128
-4.35073
-4.53192
-4.70456
-4.87036
-5.03208
-5.19179
-5.34992
-5.50651
-5.6625
-5.81863
-5.97514
-6.13193
-6.28889
-6.44594
-6.60305
-6.76018
-6.91733
-7.07449
-7.23166
-7.38882
-7.54599
-7.70315
-7.86032
-8.01748
-8.17465
-8.33181
-8.48898
-8.64614
-8.8033
-8.96047
-9.11763
-9.2748
-9.43197
-9.58914
-9.74631
-9.90348
-10.0606
-10.2178
-10.375
-10.5321
-10.6893
-10.8465
-11.0037
-11.1608
-11.318
-11.4752
-11.6323
-11.7895
-11.9467
-12.1039
-12.261
-12.4182
-12.5754
-12.7325
-12.8897
-13.0469
-13.204
-13.3612
-13.5184
-13.6756
-13.8327
-13.9899
-14.1471
-14.3043
-14.4614
-14.6186
-14.7758
-14.933
-15.0901
-15.2473
-15.4045
-15.5617
-15.7189
-15.8761
-16.0334
-16.1907
-16.3485
-16.5067
-16.6667
-16.8311
-17.0026
-17.1985
-17.4522
-17.8387
-18.4845
-0.296811
-0.680835
-1.0667
-1.38783
-1.69395
-2.00296
-2.30426
-2.58318
-2.84731
-3.0995
-3.33717
-3.56237
-3.77689
-3.9819
-4.17895
-4.36838
-4.54912
-4.72129
-4.88651
-5.04754
-5.20659
-5.36387
-5.51967
-5.67551
-5.832
-5.98887
-6.14584
-6.3029
-6.46
-6.61714
-6.77429
-6.93145
-7.08861
-7.24578
-7.40294
-7.56011
-7.71728
-7.87444
-8.03161
-8.18877
-8.34593
-8.5031
-8.66026
-8.81743
-8.97459
-9.13176
-9.28892
-9.44609
-9.60326
-9.76043
-9.9176
-10.0748
-10.2319
-10.3891
-10.5463
-10.7034
-10.8606
-11.0178
-11.175
-11.3321
-11.4893
-11.6465
-11.8036
-11.9608
-12.118
-12.2751
-12.4323
-12.5895
-12.7467
-12.9038
-13.061
-13.2182
-13.3753
-13.5325
-13.6897
-13.8469
-14.004
-14.1612
-14.3184
-14.4756
-14.6327
-14.7899
-14.9471
-15.1043
-15.2614
-15.4186
-15.5758
-15.733
-15.8903
-16.0475
-16.2048
-16.3626
-16.5206
-16.6802
-16.8431
-17.0179
-17.2189
-17.478
-17.871
-18.5187
-0.275962
-0.69516
-1.0823
-1.40278
-1.7108
-2.02145
-2.32314
-2.60147
-2.8656
-3.11771
-3.35518
-3.58073
-3.79494
-3.99988
-4.19713
-4.38694
-4.5678
-4.74012
-4.90559
-5.06699
-5.22665
-5.38439
-5.54063
-5.69654
-5.85286
-6.00945
-6.16628
-6.32327
-6.48033
-6.63745
-6.79458
-6.95174
-7.1089
-7.26606
-7.42323
-7.58039
-7.73756
-7.89472
-8.05189
-8.20905
-8.36622
-8.52338
-8.68055
-8.83771
-8.99487
-9.15204
-9.30921
-9.46637
-9.62354
-9.78071
-9.93788
-10.0951
-10.2522
-10.4094
-10.5666
-10.7237
-10.8809
-11.0381
-11.1952
-11.3524
-11.5096
-11.6667
-11.8239
-11.9811
-12.1383
-12.2954
-12.4526
-12.6098
-12.7669
-12.9241
-13.0813
-13.2385
-13.3956
-13.5528
-13.71
-13.8671
-14.0243
-14.1815
-14.3387
-14.4958
-14.653
-14.8102
-14.9674
-15.1245
-15.2817
-15.4389
-15.5961
-15.7533
-15.9105
-16.0678
-16.2252
-16.3829
-16.5412
-16.7014
-16.866
-17.0405
-17.2397
-17.5011
-17.8975
-18.5464
-0.261365
-0.70973
-1.09454
-1.41233
-1.72114
-2.0336
-2.33587
-2.61354
-2.87771
-3.13001
-3.36753
-3.5926
-3.80665
-4.01156
-4.20843
-4.39753
-4.57765
-4.74922
-4.914
-5.07481
-5.23388
-5.39123
-5.54729
-5.703
-5.8594
-6.01614
-6.17305
-6.33009
-6.48719
-6.64431
-6.80146
-6.95861
-7.11578
-7.27294
-7.43011
-7.58728
-7.74444
-7.90161
-8.05877
-8.21593
-8.3731
-8.53026
-8.68743
-8.84459
-9.00176
-9.15892
-9.31609
-9.47326
-9.63042
-9.78759
-9.94476
-10.1019
-10.2591
-10.4163
-10.5734
-10.7306
-10.8878
-11.0449
-11.2021
-11.3593
-11.5165
-11.6736
-11.8308
-11.988
-12.1451
-12.3023
-12.4595
-12.6167
-12.7738
-12.931
-13.0882
-13.2453
-13.4025
-13.5597
-13.7169
-13.874
-14.0312
-14.1884
-14.3455
-14.5027
-14.6599
-14.8171
-14.9743
-15.1314
-15.2886
-15.4458
-15.603
-15.7602
-15.9174
-16.0747
-16.2321
-16.3897
-16.548
-16.7079
-16.8717
-17.0473
-17.2495
-17.5147
-17.9137
-18.5635
-0.230892
-0.724555
-1.11815
-1.4365
-1.74547
-2.0584
-2.36157
-2.63828
-2.90258
-3.15493
-3.3925
-3.61756
-3.83143
-4.0359
-4.23228
-4.42094
-4.60074
-4.77212
-4.93684
-5.09766
-5.25683
-5.41432
-5.57036
-5.72618
-5.88256
-6.03925
-6.19613
-6.35316
-6.51024
-6.66736
-6.8245
-6.98166
-7.13882
-7.29598
-7.45315
-7.61032
-7.76748
-7.92465
-8.08181
-8.23898
-8.39614
-8.5533
-8.71047
-8.86763
-9.0248
-9.18196
-9.33913
-9.4963
-9.65347
-9.81064
-9.9678
-10.125
-10.2821
-10.4393
-10.5965
-10.7536
-10.9108
-11.068
-11.2252
-11.3823
-11.5395
-11.6967
-11.8538
-12.011
-12.1682
-12.3254
-12.4825
-12.6397
-12.7969
-12.954
-13.1112
-13.2684
-13.4255
-13.5827
-13.7399
-13.8971
-14.0542
-14.2114
-14.3686
-14.5258
-14.6829
-14.8401
-14.9973
-15.1545
-15.3117
-15.4688
-15.626
-15.7832
-15.9404
-16.0977
-16.2551
-16.4128
-16.5712
-16.7311
-16.8954
-17.0709
-17.2722
-17.5367
-17.9352
-18.5846
-16.736
-27.5874
-35.2004
-33.5106
-21.7783
-8.46195
-1.55119
1.76272
3.0214
3.42658
3.57667
3.64031
3.6608
3.65024
3.61853
3.57543
3.5377
3.5053
3.46926
3.42904
3.38659
3.34737
3.30691
3.26546
3.22393
3.1823
3.14057
3.09877
3.05695
3.0151
2.97324
2.93137
2.8895
2.84763
2.80575
2.76388
2.72201
2.68013
2.63826
2.59639
2.55451
2.51264
2.47076
2.42888
2.38701
2.34514
2.30326
2.26139
2.21952
2.17765
2.13578
2.09391
2.05204
2.01017
1.96829
1.92642
1.88455
1.84268
1.8008
1.75893
1.71706
1.6752
1.63333
1.59146
1.54959
1.50772
1.46585
1.42398
1.38211
1.34024
1.29837
1.2565
1.21464
1.17277
1.1309
1.08903
1.04716
1.00529
0.963419
0.921549
0.879681
0.837813
0.795946
0.754078
0.712207
0.670332
0.628454
0.586568
0.544666
0.502733
0.460745
0.418659
0.376393
0.333813
0.290621
0.246445
0.200168
0.151353
0.0953208
0.0386484
-17.0036
-27.416
-34.5844
-32.9835
-21.169
-8.54211
-1.80729
1.49934
2.82761
3.30434
3.50146
3.59312
3.63004
3.62792
3.60023
3.56012
3.52445
3.49281
3.45599
3.41572
3.37406
3.33461
3.29423
3.2528
3.21123
3.16957
3.12782
3.08601
3.04418
3.00233
2.96047
2.9186
2.87673
2.83485
2.79298
2.75111
2.70923
2.66736
2.62549
2.58361
2.54174
2.49986
2.45799
2.41611
2.37424
2.33236
2.29049
2.24862
2.20675
2.16488
2.12301
2.08114
2.03927
1.9974
1.95552
1.91365
1.87178
1.8299
1.78803
1.74616
1.70429
1.66242
1.62055
1.57868
1.53681
1.49494
1.45307
1.4112
1.36933
1.32746
1.2856
1.24373
1.20186
1.16
1.11813
1.07626
1.03439
0.992516
0.950646
0.908776
0.866908
0.82504
0.783173
0.741305
0.699435
0.657561
0.615685
0.573803
0.531908
0.489989
0.448026
0.405985
0.363801
0.321369
0.278452
0.234754
0.189386
0.141998
0.0888577
0.0351286
-17.4056
-27.0733
-33.6891
-32.1386
-20.4946
-8.63996
-2.07996
1.21653
2.61936
3.17161
3.41926
3.54146
3.59644
3.60359
3.58029
3.54307
3.50946
3.47899
3.44143
3.40109
3.36022
3.32058
3.28015
3.23877
3.19717
3.15547
3.11371
3.07188
3.03005
2.98819
2.94633
2.90446
2.86258
2.82071
2.77884
2.73696
2.69509
2.65321
2.61134
2.56947
2.52759
2.48572
2.44385
2.40197
2.36009
2.31822
2.27635
2.23447
2.1926
2.15074
2.10886
2.06699
2.02512
1.98325
1.94138
1.8995
1.85763
1.81576
1.77389
1.73202
1.69015
1.64828
1.60641
1.56454
1.52267
1.4808
1.43893
1.39706
1.35519
1.31332
1.27145
1.22959
1.18772
1.14585
1.10398
1.06211
1.02024
0.978373
0.936503
0.894633
0.852765
0.810897
0.769031
0.727163
0.685294
0.643422
0.601548
0.55967
0.517784
0.47588
0.433944
0.391953
0.349863
0.307597
0.264988
0.221827
0.177477
0.131686
0.0817684
0.0312907
-17.7713
-26.4833
-32.5401
-30.9288
-19.8683
-8.7384
-2.3725
0.91571
2.39569
3.02778
3.32975
3.48522
3.55984
3.57708
3.55864
3.52429
3.49248
3.46364
3.42536
3.38517
3.34496
3.30508
3.26456
3.22322
3.18159
3.13986
3.09807
3.05624
3.0144
2.97254
2.93067
2.8888
2.84693
2.80505
2.76318
2.72131
2.67943
2.63756
2.59568
2.55381
2.51194
2.47006
2.42819
2.38631
2.34444
2.30256
2.26069
2.21882
2.17695
2.13508
2.09321
2.05134
2.00947
1.96759
1.92572
1.88385
1.84197
1.8001
1.75823
1.71636
1.67449
1.63262
1.59075
1.54888
1.50701
1.46514
1.42327
1.3814
1.33953
1.29766
1.25579
1.21393
1.17206
1.13019
1.08833
1.04646
1.00459
0.962715
0.920845
0.878975
0.837107
0.795239
0.753373
0.711505
0.669637
0.627767
0.585896
0.544023
0.502146
0.460259
0.418354
0.37642
0.334432
0.292352
0.250087
0.207526
0.164312
0.120307
0.0739645
0.027093
-18.12
-25.7715
-31.2335
-29.5319
-19.2808
-8.83117
-2.68006
0.597639
2.1563
2.87259
3.23283
3.42434
3.5201
3.5482
3.53513
3.50377
3.47339
3.44642
3.40777
3.36768
3.32799
3.28794
3.24734
3.20598
3.16434
3.12259
3.08083
3.03893
2.99708
2.95521
2.91334
2.87147
2.82959
2.78772
2.74584
2.70397
2.66209
2.62022
2.57835
2.53647
2.4946
2.45273
2.41085
2.36897
2.3271
2.28523
2.24335
2.20148
2.15961
2.11774
2.07587
2.034
1.99213
1.95026
1.90838
1.86651
1.82464
1.78277
1.74089
1.69902
1.65715
1.61528
1.57341
1.53154
1.48968
1.44781
1.40594
1.36407
1.3222
1.28033
1.23846
1.19659
1.15472
1.11286
1.07099
1.02912
0.98725
0.945379
0.903509
0.861639
0.819771
0.777904
0.736037
0.69417
0.652303
0.610434
0.568567
0.5267
0.484832
0.442964
0.401094
0.359222
0.31735
0.275476
0.233593
0.1917
0.149745
0.107728
0.0653332
0.0224826
-18.4382
-25.0363
-29.865
-28.1162
-18.6915
-8.91583
-2.99924
0.261949
1.90094
2.70592
3.1285
3.35892
3.47714
3.51682
3.5096
3.48144
3.4522
3.42694
3.38856
3.34839
3.30908
3.26903
3.22835
3.18692
3.14523
3.10342
3.06123
3.01972
2.97788
2.93602
2.89415
2.85227
2.8104
2.76852
2.72665
2.68477
2.6429
2.60102
2.55915
2.51728
2.4754
2.43353
2.39165
2.34978
2.3079
2.26603
2.22416
2.18228
2.14041
2.09854
2.05667
2.0148
1.97293
1.93106
1.88919
1.84731
1.80544
1.76357
1.7217
1.67983
1.63796
1.59609
1.55422
1.51235
1.47048
1.42861
1.38674
1.34487
1.303
1.26113
1.21926
1.17739
1.13553
1.09366
1.05179
1.00992
0.968052
0.926182
0.884312
0.842443
0.800574
0.758707
0.716841
0.674974
0.633107
0.591241
0.549377
0.507516
0.46566
0.423812
0.38198
0.340178
0.298433
0.256788
0.215327
0.174172
0.133608
0.0937907
0.0557438
0.0173887
-18.7152
-24.312
-28.4884
-26.7132
-18.0939
-8.9997
-3.32943
-0.09194
1.62964
2.52804
3.01709
3.28917
3.43096
3.48285
3.48193
3.45715
3.42897
3.4048
3.36752
3.32712
3.28809
3.24811
3.20732
3.16582
3.1241
3.08231
3.04076
2.99856
2.95668
2.91481
2.87292
2.83104
2.78916
2.74729
2.70541
2.66354
2.62166
2.57979
2.53792
2.49604
2.45417
2.41229
2.37042
2.32854
2.28667
2.2448
2.20292
2.16105
2.11918
2.07731
2.03544
1.99357
1.9517
1.90983
1.86795
1.82608
1.78421
1.74234
1.70046
1.65859
1.61672
1.57485
1.53298
1.49111
1.44924
1.40737
1.36551
1.32364
1.28177
1.2399
1.19803
1.15616
1.11429
1.07243
1.03056
0.988688
0.946818
0.904947
0.863078
0.821209
0.779341
0.737473
0.695607
0.653741
0.611875
0.570011
0.528151
0.486297
0.444453
0.402627
0.360836
0.319109
0.277501
0.236104
0.195104
0.154757
0.115717
0.0783179
0.0450508
0.0117168
-18.9506
-23.6218
-27.138
-25.3337
-17.4942
-9.08631
-3.67092
-0.464429
1.34272
2.33972
2.8994
3.21559
3.38172
3.44621
3.45191
3.4307
3.40366
3.37991
3.3443
3.30368
3.26481
3.22495
3.18406
3.14245
3.10062
3.05868
3.01612
2.97488
2.93306
2.8912
2.84932
2.80745
2.76557
2.72369
2.68182
2.63995
2.59807
2.5562
2.51432
2.47245
2.43057
2.3887
2.34683
2.30495
2.26308
2.2212
2.17933
2.13746
2.09559
2.05372
2.01184
1.96997
1.9281
1.88623
1.84436
1.80249
1.76061
1.71874
1.67687
1.635
1.59313
1.55126
1.50939
1.46752
1.42565
1.38378
1.34191
1.30004
1.25817
1.2163
1.17443
1.13257
1.0907
1.04883
1.00696
0.965095
0.923225
0.881355
0.839485
0.797616
0.755748
0.713881
0.672015
0.630149
0.588285
0.546424
0.504568
0.462722
0.420892
0.379093
0.33735
0.29571
0.25426
0.213142
0.172651
0.133189
0.0958171
0.0610591
0.033047
0.00531509
-19.142
-22.9774
-25.8359
-24.0056
-16.9025
-9.17363
-4.02507
-0.856231
1.04081
2.14225
2.7765
3.13876
3.32992
3.40726
3.41959
3.40194
3.37618
3.35227
3.31855
3.27781
3.23894
3.19927
3.15828
3.11663
3.07488
3.03307
2.99172
2.94921
2.90728
2.86537
2.82347
2.78158
2.73969
2.69782
2.65594
2.61406
2.57219
2.53032
2.48844
2.44657
2.40469
2.36282
2.32094
2.27907
2.2372
2.19532
2.15345
2.11158
2.0697
2.02783
1.98596
1.94409
1.90222
1.86035
1.81848
1.77661
1.73473
1.69286
1.65099
1.60912
1.56725
1.52538
1.48351
1.44164
1.39977
1.3579
1.31603
1.27416
1.23229
1.19042
1.14855
1.10669
1.06482
1.02295
0.981082
0.939213
0.897343
0.855473
0.813604
0.771735
0.729867
0.688
0.646134
0.604269
0.562406
0.520547
0.478694
0.436854
0.395035
0.353257
0.311555
0.26999
0.228683
0.187835
0.147864
0.109327
0.0737365
0.0418066
0.0195446
-0.00199186
-19.2855
-22.3791
-24.6025
-22.743
-16.321
-9.26042
-4.39686
-1.26928
0.72492
1.93796
2.65042
3.05962
3.27591
3.36606
3.38492
3.37077
3.34639
3.32185
3.29001
3.24927
3.21023
3.17082
3.12968
3.08782
3.04579
3.00363
2.96065
2.91978
2.87797
2.8361
2.79423
2.75236
2.71048
2.6686
2.62673
2.58485
2.54298
2.5011
2.45923
2.41736
2.37548
2.33361
2.29173
2.24986
2.20799
2.16611
2.12424
2.08237
2.0405
1.99862
1.95675
1.91488
1.87301
1.83114
1.78927
1.7474
1.70552
1.66365
1.62178
1.57991
1.53804
1.49617
1.4543
1.41243
1.37056
1.32869
1.28682
1.24495
1.20308
1.16121
1.11934
1.07748
1.03561
0.993741
0.951872
0.910003
0.868133
0.826264
0.784395
0.742526
0.700658
0.658791
0.616925
0.575061
0.5332
0.491345
0.449499
0.407671
0.365874
0.324134
0.282502
0.241058
0.19996
0.159464
0.120107
0.082598
0.0489444
0.0200321
0.0040749
-0.0106143
-19.3764
-21.8595
-23.5177
-21.6194
-15.7821
-9.34634
-4.77574
-1.68466
0.413136
1.74023
2.52987
2.98384
3.2235
3.32511
3.34968
3.33867
3.31562
3.29031
3.25997
3.21945
3.18009
3.14085
3.09975
3.05804
3.01632
2.97458
2.93336
2.89051
2.84847
2.80653
2.76462
2.72272
2.68083
2.63895
2.59708
2.5552
2.51332
2.47145
2.42958
2.3877
2.34583
2.30395
2.26208
2.2202
2.17833
2.13646
2.09458
2.05271
2.01084
1.96897
1.9271
1.88523
1.84336
1.80149
1.75961
1.71774
1.67587
1.634
1.59212
1.55025
1.50838
1.46651
1.42464
1.38277
1.3409
1.29904
1.25717
1.2153
1.17343
1.13156
1.08969
1.04782
1.00595
0.964086
0.922217
0.880347
0.838478
0.796609
0.75474
0.712871
0.671003
0.629136
0.58727
0.545406
0.503546
0.461691
0.419846
0.378019
0.336225
0.294494
0.252877
0.211473
0.170469
0.130184
0.0912927
0.0546721
0.0228591
-0.00317378
-0.0126653
-0.0203636
-19.4255
-21.4551
-22.6611
-20.7133
-15.3224
-9.42284
-5.12911
-2.06199
0.137742
1.5698
2.42727
2.9196
3.17877
3.28914
3.31778
3.30894
3.28694
3.26097
3.23133
3.1912
3.15153
3.11222
3.0709
3.02877
2.98648
2.9441
2.90199
2.86037
2.81852
2.77664
2.73476
2.69288
2.651
2.60912
2.56725
2.52537
2.4835
2.44162
2.39975
2.35788
2.316
2.27413
2.23225
2.19038
2.14851
2.10663
2.06476
2.02289
1.98101
1.93914
1.89727
1.8554
1.81353
1.77166
1.72979
1.68792
1.64604
1.60417
1.5623
1.52043
1.47856
1.43669
1.39482
1.35295
1.31108
1.26921
1.22734
1.18547
1.1436
1.10173
1.05986
1.018
0.976128
0.93426
0.892391
0.850522
0.808653
0.766783
0.724914
0.683046
0.641178
0.599311
0.557447
0.515584
0.473726
0.431876
0.390039
0.348229
0.306463
0.264782
0.223254
0.181999
0.141243
0.101344
0.0630774
0.0274009
-0.00264709
-0.0261396
-0.0295987
-0.030863
-19.4484
-21.15
-22.0139
-20.0081
-14.938
-9.48156
-5.441
-2.38713
-0.0915183
1.43233
2.34566
2.86849
3.14248
3.25893
3.2902
3.28272
3.26141
3.2353
3.20548
3.16571
3.12583
3.0866
3.04555
3.00387
2.96219
2.92064
2.87839
2.83604
2.794
2.75204
2.71012
2.66822
2.62633
2.58445
2.54257
2.5007
2.45882
2.41695
2.37507
2.3332
2.29132
2.24945
2.20757
2.1657
2.12383
2.08195
2.04008
1.99821
1.95634
1.91446
1.87259
1.83072
1.78885
1.74698
1.70511
1.66324
1.62136
1.57949
1.53762
1.49575
1.45388
1.41201
1.37014
1.32827
1.2864
1.24453
1.20266
1.16079
1.11892
1.07705
1.03518
0.993316
0.951449
0.909581
0.867712
0.825843
0.783974
0.742105
0.700236
0.658367
0.616499
0.574632
0.532768
0.490904
0.449046
0.407194
0.365355
0.323539
0.281764
0.240068
0.198517
0.157233
0.116451
0.0765772
0.0384856
0.00328298
-0.0255249
-0.0471646
-0.0454618
-0.0413609
-19.4586
-20.9203
-21.5218
-19.4505
-14.6106
-9.53363
-5.72939
-2.67154
-0.282305
1.32266
2.28159
2.82833
3.11315
3.23345
3.26638
3.25965
3.23847
3.21297
3.18226
3.14268
3.10237
3.06273
3.02119
2.97879
2.93634
2.89341
2.85221
2.81035
2.76845
2.72655
2.68466
2.64277
2.60089
2.55902
2.51714
2.47526
2.43339
2.39151
2.34964
2.30777
2.26589
2.22402
2.18214
2.14027
2.09839
2.05652
2.01465
1.97278
1.9309
1.88903
1.84716
1.80529
1.76342
1.72155
1.67968
1.6378
1.59593
1.55406
1.51219
1.47032
1.42845
1.38658
1.34471
1.30284
1.26097
1.2191
1.17723
1.13536