/*--------------------------------*- C++ -*----------------------------------*\
| =========                 |                                                 |
| \\      /  F ield         | OpenFOAM: The Open Source CFD Toolbox           |
|  \\    /   O peration     | Version:  v2012                                 |
|   \\  /    A nd           | Website:  www.openfoam.com                      |
|    \\/     M anipulation  |                                                 |
\*---------------------------------------------------------------------------*/
FoamFile
{
    version     2.0;
    format      ascii;
    class       volVectorField;
    location    "0.035";
    object      U.air;
}
// * * * * * * * * * * * * * * * * * * * * * * * * * * * * * * * * * * * * * //

dimensions      [0 1 -1 0 0 0 0];


internalField   nonuniform List<vector> 
1900
(
(39.9607 0.00298111 0)
(39.9699 0.00196119 0)
(39.9438 0.00197025 0)
(39.9307 0.0028602 0)
(39.8782 0.00558938 0)
(39.8485 0.0128323 0)
(39.6584 0.0334302 0)
(39.6094 0.0607735 0)
(38.5183 0.261314 0)
(38.8542 0.572585 0)
(39.9936 0.00678147 0)
(39.9966 0.00790827 0)
(39.9834 0.0113984 0)
(39.9817 0.0156179 0)
(39.9513 0.0232883 0)
(39.9143 0.0493531 0)
(39.825 0.081798 0)
(39.6606 0.221727 0)
(39.2714 0.454703 0)
(38.7881 1.36698 0)
(39.9928 0.00259142 0)
(40.0042 0.0048828 0)
(40.0135 0.010077 0)
(40.0126 0.0164493 0)
(40.0045 0.0299902 0)
(39.9793 0.0622361 0)
(39.925 0.128551 0)
(39.7879 0.293556 0)
(39.6354 0.688973 0)
(39.3815 1.55849 0)
(39.976 0.00546606 0)
(39.973 0.00719184 0)
(39.9762 0.00816672 0)
(39.9857 0.0159864 0)
(39.9666 0.0359928 0)
(39.9407 0.0750562 0)
(39.9163 0.158739 0)
(39.8688 0.344297 0)
(39.846 0.763719 0)
(39.8597 1.50472 0)
(40.0024 0.0034592 0)
(40.023 0.00715984 0)
(40.0327 0.00949197 0)
(40.019 0.01962 0)
(40.0197 0.0415759 0)
(40.0221 0.0812111 0)
(40.0249 0.168797 0)
(40.0331 0.353027 0)
(40.1206 0.74151 0)
(40.3284 1.35673 0)
(39.9915 -0.000572155 0)
(40.0025 0.000371167 0)
(40.0154 0.00722915 0)
(40.0254 0.0194749 0)
(40.0352 0.038793 0)
(40.0495 0.0762376 0)
(40.0792 0.159501 0)
(40.1461 0.329049 0)
(40.3008 0.663872 0)
(40.6324 1.17101 0)
(39.9925 -0.00370859 0)
(40.005 -0.00345709 0)
(40.0194 0.00316564 0)
(40.0317 0.0143841 0)
(40.0457 0.0311255 0)
(40.0762 0.0659361 0)
(40.1168 0.139298 0)
(40.2206 0.281042 0)
(40.452 0.54987 0)
(40.8752 0.944068 0)
(39.9992 -0.00287758 0)
(39.9824 -0.00410941 0)
(39.9939 -0.00158319 0)
(40.0068 0.00840512 0)
(40.0253 0.0208924 0)
(40.0625 0.047462 0)
(40.1408 0.106091 0)
(40.2633 0.213042 0)
(40.5345 0.407305 0)
(41.0152 0.687871 0)
(39.9776 -0.00307026 0)
(40.0012 -0.00452638 0)
(40.0011 -0.0045359 0)
(40.0098 0.00244627 0)
(40.0389 0.0131161 0)
(40.0519 0.0293855 0)
(40.1319 0.0661125 0)
(40.2897 0.132666 0)
(40.5932 0.249227 0)
(41.1095 0.416437 0)
(39.9836 -0.00237439 0)
(39.991 -0.00460346 0)
(39.9662 -0.00578052 0)
(39.9668 -0.00397913 0)
(39.9724 -0.000533886 0)
(40.0032 0.00596526 0)
(40.0793 0.0177538 0)
(40.2327 0.0391261 0)
(40.534 0.0769077 0)
(41.0501 0.131679 0)
(31.7778 3.46689 0)
(27.0399 5.26169 0)
(27.6065 4.68126 0)
(27.8415 3.02866 0)
(27.8773 0.802694 0)
(28.2358 -1.43152 0)
(29.538 -3.54009 0)
(31.8391 -5.82777 0)
(33.7859 -8.08946 0)
(33.4935 -8.4648 0)
(32.4497 -7.8117 0)
(31.1021 -6.33475 0)
(29.8634 -4.60682 0)
(29.0406 -3.17401 0)
(28.5575 -2.12764 0)
(28.2755 -1.41043 0)
(28.1034 -0.93843 0)
(27.991 -0.633824 0)
(27.9118 -0.438603 0)
(27.8524 -0.314416 0)
(27.8046 -0.236284 0)
(27.7635 -0.187956 0)
(27.7258 -0.15879 0)
(27.6897 -0.14214 0)
(27.6531 -0.133331 0)
(27.6156 -0.129091 0)
(27.5775 -0.127343 0)
(27.5388 -0.12682 0)
(27.4995 -0.126869 0)
(27.4597 -0.127152 0)
(27.4193 -0.127511 0)
(27.3783 -0.127901 0)
(27.3368 -0.128324 0)
(27.2946 -0.128759 0)
(27.2517 -0.129151 0)
(27.2082 -0.12944 0)
(27.164 -0.129594 0)
(27.1194 -0.129585 0)
(27.0743 -0.129364 0)
(27.029 -0.128886 0)
(26.9838 -0.128181 0)
(26.9389 -0.127327 0)
(26.8946 -0.126366 0)
(26.851 -0.125319 0)
(26.8082 -0.124207 0)
(26.7662 -0.123021 0)
(26.7249 -0.121741 0)
(26.6841 -0.120374 0)
(26.6438 -0.11898 0)
(26.6036 -0.117608 0)
(26.5637 -0.11628 0)
(26.5238 -0.115045 0)
(26.484 -0.11394 0)
(26.4444 -0.112966 0)
(26.405 -0.112079 0)
(26.366 -0.111226 0)
(26.3275 -0.110371 0)
(26.2895 -0.109491 0)
(26.2518 -0.10855 0)
(26.2146 -0.107488 0)
(26.1776 -0.106256 0)
(26.1411 -0.104821 0)
(26.105 -0.103141 0)
(26.0693 -0.101173 0)
(26.0341 -0.0989109 0)
(25.9994 -0.0964066 0)
(25.9652 -0.0937603 0)
(25.9315 -0.0910715 0)
(25.8985 -0.0883957 0)
(25.8661 -0.0857465 0)
(25.8346 -0.0830998 0)
(25.804 -0.0804086 0)
(25.7742 -0.077609 0)
(25.7453 -0.0746295 0)
(25.7171 -0.0714255 0)
(25.6898 -0.0680488 0)
(25.6636 -0.0647134 0)
(25.639 -0.0617522 0)
(25.6162 -0.0594679 0)
(25.5955 -0.0579849 0)
(25.577 -0.0573249 0)
(25.5606 -0.0575603 0)
(25.5469 -0.0587083 0)
(25.5362 -0.0605236 0)
(25.5288 -0.0625406 0)
(25.5247 -0.0642706 0)
(25.5232 -0.0653796 0)
(25.5232 -0.0655144 0)
(25.5239 -0.0636078 0)
(25.5246 -0.0588969 0)
(25.5245 -0.0514806 0)
(25.5225 -0.0421619 0)
(25.5176 -0.0320321 0)
(25.509 -0.0216314 0)
(25.4976 -0.0112059 0)
(25.4839 -0.00170566 0)
(25.47 0.00734153 0)
(25.4528 0.0141515 0)
(25.4407 0.0195772 0)
(25.4162 0.0170076 0)
(39.0946 5.25675 0)
(39.93 6.29374 0)
(40.325 5.33444 0)
(40.1717 3.36306 0)
(40.0347 1.02829 0)
(40.3192 -1.33601 0)
(40.9264 -3.68083 0)
(41.2562 -6.01379 0)
(40.3294 -7.69039 0)
(38.02 -8.13236 0)
(35.2425 -7.31838 0)
(32.6817 -5.79514 0)
(30.8498 -4.23003 0)
(29.6935 -2.9325 0)
(29.0005 -1.97708 0)
(28.5821 -1.31781 0)
(28.3211 -0.879903 0)
(28.1508 -0.594886 0)
(28.0337 -0.411117 0)
(27.9487 -0.293665 0)
(27.8833 -0.219598 0)
(27.8293 -0.173559 0)
(27.782 -0.145837 0)
(27.7378 -0.129954 0)
(27.6944 -0.121238 0)
(27.6512 -0.116809 0)
(27.6079 -0.114943 0)
(27.5644 -0.114539 0)
(27.5206 -0.11484 0)
(27.4767 -0.115409 0)
(27.4327 -0.11604 0)
(27.3885 -0.116665 0)
(27.344 -0.117283 0)
(27.2991 -0.117881 0)
(27.2537 -0.118419 0)
(27.2079 -0.118851 0)
(27.1617 -0.119144 0)
(27.1152 -0.119268 0)
(27.0686 -0.119179 0)
(27.0219 -0.118862 0)
(26.9753 -0.118365 0)
(26.9291 -0.117755 0)
(26.8834 -0.117076 0)
(26.8384 -0.116332 0)
(26.7942 -0.115509 0)
(26.7507 -0.114573 0)
(26.7079 -0.113502 0)
(26.6657 -0.112291 0)
(26.624 -0.11096 0)
(26.5826 -0.109567 0)
(26.5416 -0.108208 0)
(26.501 -0.106975 0)
(26.4606 -0.105915 0)
(26.4206 -0.105026 0)
(26.3811 -0.104268 0)
(26.3419 -0.103581 0)
(26.3034 -0.102913 0)
(26.2654 -0.102222 0)
(26.228 -0.101482 0)
(26.1911 -0.100666 0)
(26.1546 -0.0997262 0)
(26.1186 -0.0985933 0)
(26.0831 -0.0971981 0)
(26.0481 -0.0954988 0)
(26.0138 -0.0934936 0)
(25.9802 -0.0912306 0)
(25.9474 -0.0888021 0)
(25.9154 -0.0863148 0)
(25.8841 -0.0838355 0)
(25.8536 -0.0813877 0)
(25.8238 -0.0789635 0)
(25.7946 -0.0765288 0)
(25.7663 -0.0740262 0)
(25.7389 -0.0713823 0)
(25.7126 -0.0685424 0)
(25.6879 -0.065554 0)
(25.6651 -0.0626314 0)
(25.6444 -0.0600972 0)
(25.6261 -0.058219 0)
(25.6098 -0.0570842 0)
(25.595 -0.0567045 0)
(25.5812 -0.0572135 0)
(25.5686 -0.0587224 0)
(25.5575 -0.0610342 0)
(25.5481 -0.063685 0)
(25.5408 -0.0661455 0)
(25.535 -0.0679591 0)
(25.5299 -0.0684264 0)
(25.5246 -0.0665738 0)
(25.5185 -0.0618366 0)
(25.5109 -0.0543457 0)
(25.5014 -0.0448575 0)
(25.4895 -0.0342871 0)
(25.4749 -0.0229033 0)
(25.4592 -0.0113057 0)
(25.4432 0.000273622 0)
(25.4298 0.00969421 0)
(25.4145 0.0168679 0)
(25.4046 0.0224576 0)
(25.3851 0.0203271 0)
(40.4047 4.61839 0)
(43.2844 6.14773 0)
(46.0297 5.31336 0)
(47.4939 3.45914 0)
(48.1679 1.14056 0)
(48.2303 -1.28685 0)
(47.5941 -3.59901 0)
(46.0305 -5.61295 0)
(43.2758 -7.04844 0)
(39.7297 -7.22732 0)
(36.1112 -6.38847 0)
(33.2656 -5.09035 0)
(31.2831 -3.75556 0)
(30.0018 -2.62865 0)
(29.2074 -1.78839 0)
(28.713 -1.20101 0)
(28.3984 -0.805778 0)
(28.1919 -0.546026 0)
(28.0507 -0.37746 0)
(27.95 -0.269252 0)
(27.8741 -0.200631 0)
(27.8132 -0.157883 0)
(27.7613 -0.131976 0)
(27.714 -0.116762 0)
(27.6687 -0.108103 0)
(27.6243 -0.103508 0)
(27.5801 -0.101393 0)
(27.5358 -0.100621 0)
(27.4915 -0.100454 0)
(27.447 -0.100509 0)
(27.4026 -0.100608 0)
(27.358 -0.10069 0)
(27.3133 -0.100751 0)
(27.2684 -0.100792 0)
(27.2234 -0.100794 0)
(27.1782 -0.10073 0)
(27.1328 -0.100585 0)
(27.0874 -0.100332 0)
(27.042 -0.0999337 0)
(26.9966 -0.099395 0)
(26.9514 -0.0987673 0)
(26.9066 -0.0981063 0)
(26.8622 -0.0974444 0)
(26.8183 -0.0967744 0)
(26.775 -0.096061 0)
(26.7323 -0.0952521 0)
(26.6901 -0.0943014 0)
(26.6485 -0.0931985 0)
(26.6074 -0.0919837 0)
(26.5667 -0.0907321 0)
(26.5265 -0.0895256 0)
(26.4867 -0.0884356 0)
(26.4474 -0.0875074 0)
(26.4085 -0.0867476 0)
(26.3701 -0.0861252 0)
(26.3323 -0.0855871 0)
(26.295 -0.0850778 0)
(26.2582 -0.0845454 0)
(26.222 -0.0839384 0)
(26.1863 -0.0832044 0)
(26.1509 -0.0822951 0)
(26.1158 -0.0811706 0)
(26.0811 -0.0798014 0)
(26.0469 -0.0781712 0)
(26.0133 -0.0762865 0)
(25.9806 -0.074189 0)
(25.9487 -0.0719553 0)
(25.9178 -0.0696679 0)
(25.8877 -0.0673795 0)
(25.8585 -0.0651083 0)
(25.83 -0.0628457 0)
(25.8021 -0.0605672 0)
(25.7751 -0.058243 0)
(25.749 -0.0558477 0)
(25.7243 -0.053391 0)
(25.7015 -0.0509745 0)
(25.6811 -0.0488092 0)
(25.6634 -0.04714 0)
(25.6482 -0.0461047 0)
(25.6349 -0.0456607 0)
(25.6224 -0.0458005 0)
(25.6101 -0.0467534 0)
(25.5975 -0.0486974 0)
(25.5843 -0.0514482 0)
(25.5706 -0.054511 0)
(25.5566 -0.0572452 0)
(25.5423 -0.058991 0)
(25.5275 -0.0590687 0)
(25.5116 -0.0566435 0)
(25.4943 -0.051048 0)
(25.4758 -0.0424364 0)
(25.4565 -0.0316655 0)
(25.4376 -0.020137 0)
(25.42 -0.00870473 0)
(25.4046 0.00170654 0)
(25.3908 0.0111706 0)
(25.3798 0.0197567 0)
(25.3693 0.0262563 0)
(25.3625 0.0317016 0)
(25.35 0.0286036 0)
(40.9245 3.62488 0)
(43.8789 5.02679 0)
(47.2917 4.48032 0)
(49.5223 2.85908 0)
(50.5795 0.794161 0)
(50.5459 -1.3027 0)
(49.3982 -3.26931 0)
(47.1531 -4.92521 0)
(43.901 -6.01666 0)
(40.1355 -6.14938 0)
(36.4637 -5.47788 0)
(33.6307 -4.41312 0)
(31.6091 -3.28973 0)
(30.257 -2.32578 0)
(29.3897 -1.5963 0)
(28.8355 -1.07933 0)
(28.477 -0.72724 0)
(28.2399 -0.493748 0)
(28.0784 -0.341361 0)
(27.9642 -0.243178 0)
(27.8795 -0.180874 0)
(27.813 -0.14215 0)
(27.7575 -0.118773 0)
(27.708 -0.105164 0)
(27.6616 -0.0976512 0)
(27.6169 -0.0939552 0)
(27.5728 -0.0925704 0)
(27.5288 -0.0924586 0)
(27.4849 -0.0929472 0)
(27.4409 -0.0936578 0)
(27.3969 -0.0944019 0)
(27.3528 -0.0951018 0)
(27.3086 -0.0957453 0)
(27.2643 -0.096333 0)
(27.2199 -0.0968483 0)
(27.1754 -0.0972655 0)
(27.1309 -0.0975628 0)
(27.0864 -0.0977085 0)
(27.042 -0.0976711 0)
(26.9977 -0.0974652 0)
(26.9536 -0.0971452 0)
(26.9097 -0.0967686 0)
(26.8663 -0.0963698 0)
(26.8232 -0.0959427 0)
(26.7806 -0.0954512 0)
(26.7383 -0.0948461 0)
(26.6965 -0.0940893 0)
(26.6551 -0.0931769 0)
(26.6141 -0.092144 0)
(26.5734 -0.0910563 0)
(26.5333 -0.0899949 0)
(26.4935 -0.0890372 0)
(26.4543 -0.0882333 0)
(26.4156 -0.0875928 0)
(26.3775 -0.0870892 0)
(26.3399 -0.0866733 0)
(26.303 -0.0862865 0)
(26.2668 -0.0858693 0)
(26.2311 -0.085365 0)
(26.1958 -0.0847282 0)
(26.1609 -0.0839291 0)
(26.1263 -0.0829448 0)
(26.0919 -0.0817571 0)
(26.0578 -0.0803577 0)
(26.0243 -0.0787556 0)
(25.9917 -0.0769825 0)
(25.96 -0.07509 0)
(25.9294 -0.0731313 0)
(25.8998 -0.0711382 0)
(25.8711 -0.0691233 0)
(25.8431 -0.0670954 0)
(25.8158 -0.0650711 0)
(25.7893 -0.0630718 0)
(25.764 -0.0611105 0)
(25.7403 -0.0592095 0)
(25.7189 -0.0574503 0)
(25.7001 -0.0559764 0)
(25.684 -0.0549171 0)
(25.6704 -0.0542652 0)
(25.6583 -0.0538462 0)
(25.6467 -0.0536543 0)
(25.6347 -0.0540434 0)
(25.6216 -0.0552937 0)
(25.6067 -0.0573141 0)
(25.5897 -0.0597708 0)
(25.5706 -0.0621915 0)
(25.5496 -0.0638772 0)
(25.5263 -0.0639668 0)
(25.5003 -0.0615976 0)
(25.4716 -0.0562629 0)
(25.4415 -0.0483176 0)
(25.4124 -0.0387917 0)
(25.3858 -0.0285246 0)
(25.3625 -0.0177727 0)
(25.3434 -0.00642885 0)
(25.3296 0.00272489 0)
(25.3195 0.011347 0)
(25.3134 0.0171533 0)
(25.3101 0.0227928 0)
(25.3058 0.0200129 0)
(41.3579 2.92176 0)
(43.994 3.97957 0)
(47.2812 3.6201 0)
(49.7303 2.30064 0)
(50.8236 0.637992 0)
(50.7593 -1.0877 0)
(49.5056 -2.72604 0)
(47.152 -4.0887 0)
(43.9038 -4.98211 0)
(40.2405 -5.12577 0)
(36.6904 -4.59498 0)
(33.8992 -3.7252 0)
(31.8605 -2.79896 0)
(30.458 -1.99471 0)
(29.5339 -1.3783 0)
(28.9316 -0.936731 0)
(28.5365 -0.633151 0)
(28.2737 -0.430205 0)
(28.0947 -0.296801 0)
(27.9691 -0.210165 0)
(27.877 -0.154574 0)
(27.806 -0.119466 0)
(27.7478 -0.0976885 0)
(27.697 -0.0844205 0)
(27.6502 -0.0765464 0)
(27.6057 -0.0721199 0)
(27.5622 -0.069859 0)
(27.5191 -0.0688735 0)
(27.4761 -0.0685508 0)
(27.4332 -0.0685119 0)
(27.3904 -0.0685554 0)
(27.3475 -0.0685976 0)
(27.3045 -0.0686245 0)
(27.2614 -0.0686429 0)
(27.2182 -0.0686459 0)
(27.1749 -0.0686148 0)
(27.1316 -0.0685287 0)
(27.0883 -0.0683584 0)
(27.0449 -0.0680753 0)
(27.0017 -0.0676911 0)
(26.9587 -0.0672596 0)
(26.9159 -0.066837 0)
(26.8733 -0.0664493 0)
(26.8311 -0.0660755 0)
(26.7892 -0.0656599 0)
(26.7476 -0.0651366 0)
(26.7062 -0.0644575 0)
(26.6652 -0.0636165 0)
(26.6244 -0.0626578 0)
(26.584 -0.0616628 0)
(26.544 -0.0607262 0)
(26.5045 -0.05993 0)
(26.4655 -0.059323 0)
(26.427 -0.0589122 0)
(26.3891 -0.0586686 0)
(26.3517 -0.058537 0)
(26.3149 -0.0584454 0)
(26.2787 -0.0583122 0)
(26.2431 -0.0580529 0)
(26.2079 -0.0575986 0)
(26.1731 -0.0569134 0)
(26.1386 -0.0559909 0)
(26.1044 -0.054848 0)
(26.0706 -0.0535206 0)
(26.0374 -0.0520526 0)
(26.0051 -0.0504862 0)
(25.9737 -0.0488546 0)
(25.9434 -0.0471729 0)
(25.914 -0.0454341 0)
(25.8855 -0.0436297 0)
(25.8578 -0.0417798 0)
(25.8308 -0.0399451 0)
(25.8047 -0.0382089 0)
(25.7798 -0.0366394 0)
(25.7568 -0.0352955 0)
(25.7359 -0.0342678 0)
(25.7177 -0.0336608 0)
(25.7023 -0.0335089 0)
(25.6892 -0.0336802 0)
(25.6774 -0.0338993 0)
(25.6658 -0.0341343 0)
(25.6533 -0.0347107 0)
(25.6387 -0.0358472 0)
(25.6211 -0.0374326 0)
(25.5996 -0.0391658 0)
(25.5742 -0.0406067 0)
(25.5448 -0.041007 0)
(25.5115 -0.0394862 0)
(25.4746 -0.0354217 0)
(25.4353 -0.0286326 0)
(25.3968 -0.0199585 0)
(25.3618 -0.0103647 0)
(25.3314 -0.000954685 0)
(25.3065 0.00741569 0)
(25.2868 0.0154202 0)
(25.2731 0.0227965 0)
(25.2641 0.0296344 0)
(25.26 0.0338548 0)
(25.2571 0.0387676 0)
(25.2589 0.0350305 0)
(41.6949 2.31969 0)
(44.0722 3.17485 0)
(46.9823 2.92915 0)
(49.4288 1.84407 0)
(50.4752 0.502196 0)
(50.3985 -0.886697 0)
(49.1628 -2.21556 0)
(46.8664 -3.30784 0)
(43.7436 -4.01306 0)
(40.2548 -4.13821 0)
(36.8387 -3.72577 0)
(34.1023 -3.04047 0)
(32.0624 -2.30308 0)
(30.6254 -1.65373 0)
(29.6573 -1.14997 0)
(29.0159 -0.786301 0)
(28.5903 -0.534982 0)
(28.3056 -0.366752 0)
(28.1117 -0.256425 0)
(27.9764 -0.185362 0)
(27.8785 -0.140538 0)
(27.8042 -0.112996 0)
(27.7444 -0.0965687 0)
(27.6931 -0.0871052 0)
(27.6466 -0.0819494 0)
(27.6026 -0.0794637 0)
(27.5599 -0.0785992 0)
(27.5177 -0.0786449 0)
(27.4757 -0.0791074 0)
(27.4337 -0.0796801 0)
(27.3916 -0.0802137 0)
(27.3495 -0.0806587 0)
(27.3072 -0.08102 0)
(27.2648 -0.081317 0)
(27.2222 -0.0815531 0)
(27.1795 -0.0817172 0)
(27.1367 -0.0817938 0)
(27.0938 -0.0817611 0)
(27.0511 -0.0815968 0)
(27.0084 -0.0813123 0)
(26.9658 -0.0809611 0)
(26.9234 -0.0805987 0)
(26.8812 -0.0802472 0)
(26.8393 -0.0798834 0)
(26.7976 -0.0794553 0)
(26.756 -0.0789092 0)
(26.7147 -0.0782148 0)
(26.6735 -0.0773815 0)
(26.6327 -0.0764589 0)
(26.5922 -0.0755222 0)
(26.5521 -0.0746522 0)
(26.5125 -0.0739155 0)
(26.4734 -0.0733483 0)
(26.4348 -0.0729516 0)
(26.3967 -0.0726994 0)
(26.3592 -0.0725461 0)
(26.3221 -0.072431 0)
(26.2855 -0.0722789 0)
(26.2494 -0.0720052 0)
(26.2137 -0.0715437 0)
(26.1785 -0.0708719 0)
(26.1435 -0.0700021 0)
(26.109 -0.0689669 0)
(26.0751 -0.06781 0)
(26.0419 -0.0665716 0)
(26.0097 -0.0652763 0)
(25.9784 -0.0639293 0)
(25.9483 -0.0625185 0)
(25.9191 -0.0610224 0)
(25.8908 -0.0594376 0)
(25.8632 -0.0578096 0)
(25.8364 -0.0562389 0)
(25.8105 -0.0548486 0)
(25.7858 -0.053731 0)
(25.7628 -0.0529474 0)
(25.7419 -0.0525615 0)
(25.7236 -0.0525939 0)
(25.708 -0.052929 0)
(25.6947 -0.0532515 0)
(25.6825 -0.0531547 0)
(25.6703 -0.0526389 0)
(25.6567 -0.0521436 0)
(25.6403 -0.0519844 0)
(25.6197 -0.0521689 0)
(25.5939 -0.0525692 0)
(25.5624 -0.0529589 0)
(25.5253 -0.0526211 0)
(25.4829 -0.0505927 0)
(25.4362 -0.0464778 0)
(25.3878 -0.0405276 0)
(25.3418 -0.0335085 0)
(25.3004 -0.0257671 0)
(25.2654 -0.0174254 0)
(25.2379 -0.00909038 0)
(25.2179 -0.00227854 0)
(25.2053 0.00370377 0)
(25.1981 0.00953829 0)
(25.1963 0.0133308 0)
(25.1961 0.0179486 0)
(25.2066 0.013547 0)
(41.9557 1.75849 0)
(44.1613 2.40107 0)
(46.7834 2.24633 0)
(49.1284 1.41003 0)
(50.0915 0.371948 0)
(50.0047 -0.692155 0)
(48.8166 -1.71684 0)
(46.6058 -2.5468 0)
(43.61 -3.08011 0)
(40.2733 -3.1871 0)
(36.9671 -2.88671 0)
(34.2717 -2.37198 0)
(32.2253 -1.80853 0)
(30.7549 -1.30429 0)
(29.7455 -0.907605 0)
(29.0668 -0.617839 0)
(28.6122 -0.415394 0)
(28.3062 -0.278161 0)
(28.098 -0.18699 0)
(27.9535 -0.127236 0)
(27.85 -0.0886447 0)
(27.7725 -0.064213 0)
(27.7111 -0.0490554 0)
(27.6592 -0.0398515 0)
(27.6128 -0.0344732 0)
(27.5694 -0.0315813 0)
(27.5274 -0.0303024 0)
(27.4859 -0.030026 0)
(27.4444 -0.0302799 0)
(27.4028 -0.0307323 0)
(27.3611 -0.0312026 0)
(27.3191 -0.0316163 0)
(27.2769 -0.031968 0)
(27.2345 -0.0322804 0)
(27.1918 -0.0325639 0)
(27.149 -0.0328093 0)
(27.1061 -0.0329983 0)
(27.0631 -0.0331046 0)
(27.0201 -0.0331043 0)
(26.9772 -0.0330092 0)
(26.9344 -0.0328719 0)
(26.8917 -0.0327476 0)
(26.8493 -0.0326554 0)
(26.807 -0.0325645 0)
(26.7649 -0.0324118 0)
(26.723 -0.0321347 0)
(26.6812 -0.0316998 0)
(26.6397 -0.0311203 0)
(26.5985 -0.0304546 0)
(26.5577 -0.0297887 0)
(26.5174 -0.0292113 0)
(26.4777 -0.0287907 0)
(26.4385 -0.0285591 0)
(26.3998 -0.0285138 0)
(26.3615 -0.0286281 0)
(26.3235 -0.0288549 0)
(26.2858 -0.0291242 0)
(26.2484 -0.0293451 0)
(26.2113 -0.0294143 0)
(26.1746 -0.0292546 0)
(26.1382 -0.0288483 0)
(26.1023 -0.0282225 0)
(26.0672 -0.0274324 0)
(26.0329 -0.0265451 0)
(25.9996 -0.0256155 0)
(25.9677 -0.0246659 0)
(25.937 -0.0236824 0)
(25.9074 -0.0226243 0)
(25.8789 -0.021448 0)
(25.8512 -0.0201436 0)
(25.8243 -0.0187705 0)
(25.7982 -0.0174618 0)
(25.7731 -0.0163824 0)
(25.7493 -0.0156654 0)
(25.727 -0.0154169 0)
(25.7067 -0.0157435 0)
(25.6886 -0.0166646 0)
(25.6728 -0.0179914 0)
(25.6589 -0.0192815 0)
(25.6457 -0.0199757 0)
(25.6318 -0.0198899 0)
(25.6154 -0.0192767 0)
(25.5947 -0.0183222 0)
(25.5683 -0.0170132 0)
(25.5348 -0.0153472 0)
(25.4944 -0.0133484 0)
(25.4479 -0.01049 0)
(25.3964 -0.00626645 0)
(25.3426 -0.00094274 0)
(25.2906 0.00519704 0)
(25.2434 0.0112916 0)
(25.203 0.0162837 0)
(25.1705 0.0212272 0)
(25.1465 0.0263669 0)
(25.1305 0.0309619 0)
(25.1223 0.0346404 0)
(25.1189 0.0383081 0)
(25.1224 0.0406147 0)
(25.128 0.0429823 0)
(25.1508 0.0373028 0)
(42.1084 1.23205 0)
(44.2048 1.67668 0)
(46.6273 1.58488 0)
(48.9393 0.98381 0)
(49.831 0.254396 0)
(49.7232 -0.489815 0)
(48.5744 -1.22602 0)
(46.4302 -1.81517 0)
(43.5217 -2.19386 0)
(40.2835 -2.27872 0)
(37.0416 -2.0768 0)
(34.3582 -1.72088 0)
(32.2921 -1.32759 0)
(30.7876 -0.973847 0)
(29.7406 -0.693675 0)
(29.0308 -0.488391 0)
(28.5532 -0.344651 0)
(28.2312 -0.247237 0)
(28.0122 -0.18275 0)
(27.8605 -0.140831 0)
(27.7524 -0.114071 0)
(27.6719 -0.0972917 0)
(27.6086 -0.0868813 0)
(27.5555 -0.0804419 0)
(27.5085 -0.0764915 0)
(27.4646 -0.074137 0)
(27.4223 -0.0728238 0)
(27.3805 -0.0721617 0)
(27.3385 -0.0718342 0)
(27.2964 -0.0716258 0)
(27.2538 -0.0714223 0)
(27.2109 -0.071179 0)
(27.1677 -0.070903 0)
(27.1242 -0.0706186 0)
(27.0805 -0.0703341 0)
(27.0365 -0.0700417 0)
(26.9925 -0.0697282 0)
(26.9484 -0.069367 0)
(26.9042 -0.0689385 0)
(26.8602 -0.0684615 0)
(26.8164 -0.0679786 0)
(26.7728 -0.0675234 0)
(26.7295 -0.067096 0)
(26.6864 -0.0666594 0)
(26.6435 -0.0661604 0)
(26.6009 -0.0655558 0)
(26.5585 -0.0648336 0)
(26.5165 -0.0640216 0)
(26.475 -0.063181 0)
(26.4341 -0.0623878 0)
(26.3938 -0.0617094 0)
(26.3542 -0.061185 0)
(26.3153 -0.0608171 0)
(26.2767 -0.0605821 0)
(26.2385 -0.0604522 0)
(26.2004 -0.0604017 0)
(26.1625 -0.0603932 0)
(26.1247 -0.0603611 0)
(26.087 -0.0602131 0)
(26.0496 -0.0598886 0)
(26.0126 -0.059398 0)
(25.9761 -0.0587911 0)
(25.9404 -0.0581295 0)
(25.9059 -0.0574674 0)
(25.8726 -0.0568247 0)
(25.8406 -0.056175 0)
(25.81 -0.055456 0)
(25.7806 -0.0545981 0)
(25.7522 -0.0535619 0)
(25.7247 -0.0523731 0)
(25.6981 -0.0511401 0)
(25.6725 -0.0500382 0)
(25.648 -0.0492533 0)
(25.6246 -0.0489138 0)
(25.6024 -0.0491136 0)
(25.5814 -0.0499368 0)
(25.562 -0.0512903 0)
(25.5443 -0.0527558 0)
(25.5279 -0.05367 0)
(25.512 -0.0533734 0)
(25.4951 -0.0517759 0)
(25.4755 -0.0493318 0)
(25.4513 -0.0464281 0)
(25.4214 -0.0431758 0)
(25.3846 -0.0397813 0)
(25.3413 -0.036629 0)
(25.2926 -0.0330959 0)
(25.2402 -0.0286268 0)
(25.1881 -0.0230789 0)
(25.1398 -0.0178262 0)
(25.0977 -0.0132063 0)
(25.0638 -0.00975934 0)
(25.0388 -0.00697432 0)
(25.0226 -0.00460846 0)
(25.014 -0.00239757 0)
(25.012 -0.000241609 0)
(25.0164 0.00251486 0)
(25.0312 0.00317039 0)
(25.0471 0.00384083 0)
(25.0851 -0.00169084 0)
(42.2076 0.728783 0)
(44.2294 0.9917 0)
(46.5355 0.943403 0)
(48.7963 0.595536 0)
(49.7116 0.116362 0)
(49.5388 -0.280812 0)
(48.3977 -0.722216 0)
(46.2764 -1.06706 0)
(43.3957 -1.27723 0)
(40.1856 -1.31157 0)
(36.9591 -1.1779 0)
(34.2588 -0.957836 0)
(32.1629 -0.719558 0)
(30.62 -0.506528 0)
(29.539 -0.339495 0)
(28.8028 -0.217919 0)
(28.3057 -0.13339 0)
(27.9699 -0.0767493 0)
(27.7416 -0.0399533 0)
(27.5839 -0.0167558 0)
(27.4717 -0.00267382 0)
(27.3884 0.00545597 0)
(27.3226 0.00986267 0)
(27.2675 0.0120332 0)
(27.2185 0.0128672 0)
(27.1728 0.0128691 0)
(27.1286 0.0123292 0)
(27.0847 0.0114566 0)
(27.0405 0.0104479 0)
(26.9959 0.00945482 0)
(26.9508 0.00856487 0)
(26.9052 0.00780869 0)
(26.8592 0.00715956 0)
(26.8129 0.00657337 0)
(26.7664 0.0060312 0)
(26.7197 0.00553713 0)
(26.6728 0.00510315 0)
(26.6259 0.00474783 0)
(26.5791 0.00448 0)
(26.5325 0.0042764 0)
(26.4861 0.00409331 0)
(26.4401 0.00389665 0)
(26.3943 0.00368743 0)
(26.3488 0.00350134 0)
(26.3036 0.0033873 0)
(26.2589 0.0033822 0)
(26.2147 0.0034929 0)
(26.1712 0.00369007 0)
(26.1285 0.00391621 0)
(26.0868 0.00410386 0)
(26.0458 0.00419742 0)
(26.0054 0.00417017 0)
(25.9654 0.00402909 0)
(25.9256 0.00379726 0)
(25.8859 0.00349157 0)
(25.846 0.00313048 0)
(25.8061 0.00274807 0)
(25.7659 0.00239766 0)
(25.7256 0.00215777 0)
(25.6854 0.00208474 0)
(25.6457 0.00216124 0)
(25.6067 0.00232548 0)
(25.5686 0.00250846 0)
(25.5315 0.00265744 0)
(25.4955 0.00276343 0)
(25.4607 0.00287065 0)
(25.4268 0.00305888 0)
(25.3941 0.00340573 0)
(25.3625 0.00394542 0)
(25.3323 0.00464106 0)
(25.3036 0.00538404 0)
(25.2764 0.0060242 0)
(25.2504 0.00642521 0)
(25.2252 0.00650115 0)
(25.2001 0.00612728 0)
(25.1747 0.0051004 0)
(25.1486 0.0033347 0)
(25.1216 0.00107065 0)
(25.0944 -0.00100601 0)
(25.0674 -0.00186951 0)
(25.0397 -0.000942815 0)
(25.0102 0.0016189 0)
(24.9781 0.0055151 0)
(24.944 0.0104272 0)
(24.9108 0.0157848 0)
(24.881 0.0210224 0)
(24.8556 0.0253532 0)
(24.8346 0.0293013 0)
(24.8179 0.0335424 0)
(24.8057 0.0366086 0)
(24.7983 0.0385902 0)
(24.7951 0.0399025 0)
(24.7957 0.0408051 0)
(24.8025 0.0414988 0)
(24.8164 0.0419455 0)
(24.8385 0.0417719 0)
(24.8665 0.0410302 0)
(24.9052 0.0389634 0)
(24.9353 0.0370463 0)
(24.9913 0.0321594 0)
(42.1318 0.232944 0)
(44.0979 0.319334 0)
(46.3293 0.304148 0)
(48.5635 0.188575 0)
(49.4668 0.0179014 0)
(49.221 -0.100969 0)
(48.0566 -0.256284 0)
(45.9245 -0.390703 0)
(43.0368 -0.490344 0)
(39.8214 -0.535273 0)
(36.5845 -0.518671 0)
(33.8616 -0.460262 0)
(31.7331 -0.383541 0)
(30.1526 -0.307207 0)
(29.0302 -0.24208 0)
(28.2531 -0.191185 0)
(27.7182 -0.153406 0)
(27.3481 -0.126317 0)
(27.0881 -0.107309 0)
(26.8998 -0.0940978 0)
(26.7571 -0.0849123 0)
(26.6426 -0.0784467 0)
(26.5452 -0.0737648 0)
(26.4581 -0.0702398 0)
(26.3773 -0.0674953 0)
(26.3004 -0.0653254 0)
(26.2254 -0.0636053 0)
(26.1512 -0.0622322 0)
(26.0769 -0.0610999 0)
(26.0023 -0.0601122 0)
(25.9273 -0.0592034 0)
(25.8523 -0.0583451 0)
(25.7772 -0.0575452 0)
(25.7023 -0.0568193 0)
(25.6274 -0.0561671 0)
(25.5525 -0.0555727 0)
(25.4778 -0.0550181 0)
(25.4031 -0.0544907 0)
(25.3287 -0.0539837 0)
(25.2548 -0.0535 0)
(25.1812 -0.0530529 0)
(25.108 -0.0526508 0)
(25.035 -0.0522827 0)
(24.9623 -0.0519211 0)
(24.8898 -0.0515362 0)
(24.8179 -0.0511113 0)
(24.7468 -0.0506504 0)
(24.6767 -0.0501759 0)
(24.6079 -0.0497196 0)
(24.5401 -0.0493099 0)
(24.4732 -0.0489624 0)
(24.4068 -0.0486766 0)
(24.3408 -0.0484398 0)
(24.2747 -0.0482416 0)
(24.2085 -0.048079 0)
(24.142 -0.0479414 0)
(24.075 -0.0478097 0)
(24.0076 -0.0476696 0)
(23.9399 -0.0475058 0)
(23.8722 -0.047309 0)
(23.8049 -0.0470974 0)
(23.7382 -0.0469053 0)
(23.672 -0.0467602 0)
(23.6064 -0.0466689 0)
(23.5411 -0.0466068 0)
(23.476 -0.0465217 0)
(23.4113 -0.0463544 0)
(23.3474 -0.0460668 0)
(23.2848 -0.0456604 0)
(23.2241 -0.0451809 0)
(23.1654 -0.0447039 0)
(23.1088 -0.0443121 0)
(23.0537 -0.0440715 0)
(22.9992 -0.0440333 0)
(22.9446 -0.0442909 0)
(22.8881 -0.0449619 0)
(22.8278 -0.0460418 0)
(22.7618 -0.04726 0)
(22.6894 -0.047931 0)
(22.6133 -0.0470935 0)
(22.5405 -0.0444095 0)
(22.4767 -0.0404139 0)
(22.426 -0.0359366 0)
(22.3904 -0.0317897 0)
(22.3698 -0.0285915 0)
(22.3618 -0.0265012 0)
(22.363 -0.0249881 0)
(22.3768 -0.0231002 0)
(22.4028 -0.0213083 0)
(22.4386 -0.0196335 0)
(22.482 -0.0182601 0)
(22.5302 -0.0174321 0)
(22.5819 -0.017849 0)
(22.6316 -0.0192119 0)
(22.6811 -0.0210604 0)
(22.7251 -0.0227557 0)
(22.7664 -0.0241238 0)
(22.8044 -0.025183 0)
(22.8304 -0.0262176 0)
(22.8631 -0.0269062 0)
(5.09144 5.76969 0)
(5.52296 7.69949 0)
(1.47674 9.31451 0)
(-1.01595 9.3051 0)
(-3.83694 8.44948 0)
(-6.12406 6.47595 0)
(-7.77448 4.02866 0)
(-8.31025 2.68813 0)
(14.2977 6.65899 0)
(11.0043 7.52281 0)
(3.68832 8.08534 0)
(-2.48855 8.01001 0)
(-9.30394 7.27656 0)
(-15.3221 5.80081 0)
(-20.2934 3.62875 0)
(-22.6178 1.92122 0)
(19.2026 5.43691 0)
(13.1123 5.75251 0)
(4.34309 5.49117 0)
(-3.8009 5.12365 0)
(-12.3481 4.48667 0)
(-20.452 3.61526 0)
(-27.9057 2.3259 0)
(-32.4917 0.972614 0)
(19.9546 3.6177 0)
(12.4433 3.36028 0)
(2.71894 2.8943 0)
(-5.80393 2.58135 0)
(-14.7728 2.12936 0)
(-23.3351 1.67508 0)
(-31.593 1.11435 0)
(-37.8097 0.383831 0)
(20.014 1.29238 0)
(11.2778 0.906034 0)
(0.996495 0.809112 0)
(-7.01472 0.804282 0)
(-16.1716 0.634849 0)
(-24.8889 0.479094 0)
(-33.2051 0.333618 0)
(-40.1209 0.07379 0)
(20.0895 -0.991218 0)
(11.6749 -1.03744 0)
(2.42238 -0.99905 0)
(-6.74735 -0.641787 0)
(-16.0428 -0.51317 0)
(-24.9457 -0.365479 0)
(-33.4066 -0.150025 0)
(-40.5398 -0.0896664 0)
(20.4085 -2.96574 0)
(12.2865 -2.69947 0)
(3.68907 -2.44796 0)
(-5.25772 -2.11838 0)
(-14.572 -1.78872 0)
(-23.4382 -1.28503 0)
(-31.7788 -0.783768 0)
(-39.0276 -0.304229 0)
(22.288 -5.14671 0)
(13.7893 -4.52438 0)
(5.11186 -3.97161 0)
(-3.89731 -3.40755 0)
(-12.9222 -2.75269 0)
(-21.1832 -1.9857 0)
(-29.2491 -1.20511 0)
(-36.204 -0.450068 0)
(25.9663 -7.65712 0)
(18.046 -6.90067 0)
(9.60945 -6.05636 0)
(1.07294 -5.15524 0)
(-7.35437 -4.09398 0)
(-15.6689 -2.95092 0)
(-23.925 -1.82245 0)
(-31.1292 -0.639581 0)
(27.6643 -8.42555 0)
(21.3195 -7.98587 0)
(14.0682 -7.23041 0)
(6.25804 -6.24404 0)
(-1.85479 -5.07199 0)
(-10.1038 -3.76481 0)
(-17.9165 -2.35086 0)
(-24.6247 -0.79346 0)
(28.227 -7.91075 0)
(23.2639 -7.65486 0)
(17.3467 -7.08872 0)
(10.7474 -6.25799 0)
(3.72637 -5.198 0)
(-3.446 -3.92813 0)
(-10.566 -2.42733 0)
(-17.1694 -0.77975 0)
(28.3712 -6.51025 0)
(24.7639 -6.36729 0)
(20.1147 -5.95558 0)
(14.6577 -5.30019 0)
(8.62737 -4.42503 0)
(2.2729 -3.33168 0)
(-4.25687 -2.08085 0)
(-10.4631 -0.651977 0)
(28.1812 -4.80255 0)
(25.7016 -4.74688 0)
(22.1646 -4.48176 0)
(17.7226 -4.01245 0)
(12.5868 -3.36077 0)
(6.9902 -2.54317 0)
(1.2149 -1.58415 0)
(-4.68397 -0.464091 0)
(27.9482 -3.29517 0)
(26.2373 -3.29095 0)
(23.5467 -3.13504 0)
(19.9041 -2.81719 0)
(15.4665 -2.35905 0)
(10.4428 -1.78082 0)
(5.07669 -1.10441 0)
(-0.323789 -0.33061 0)
(27.7996 -2.19853 0)
(26.5558 -2.19966 0)
(24.4433 -2.10823 0)
(21.3784 -1.90076 0)
(17.4538 -1.59139 0)
(12.8515 -1.19698 0)
(7.80211 -0.743631 0)
(2.58324 -0.216318 0)
(27.7179 -1.45138 0)
(26.7555 -1.45137 0)
(25.0177 -1.39604 0)
(22.3474 -1.26192 0)
(18.7787 -1.05637 0)
(14.465 -0.789859 0)
(9.62762 -0.488753 0)
(4.56367 -0.131535 0)
(27.6702 -0.963136 0)
(26.8807 -0.962858 0)
(25.383 -0.928612 0)
(22.9766 -0.841517 0)
(19.6507 -0.705736 0)
(15.534 -0.525964 0)
(10.8407 -0.327112 0)
(5.86802 -0.0837231 0)
(27.6369 -0.650004 0)
(26.9573 -0.650321 0)
(25.6162 -0.628826 0)
(23.3874 -0.57115 0)
(20.227 -0.480612 0)
(16.243 -0.357544 0)
(11.6447 -0.224734 0)
(6.70862 -0.0561966 0)
(27.6099 -0.450256 0)
(27.0034 -0.451275 0)
(25.7684 -0.437616 0)
(23.6623 -0.398186 0)
(20.6169 -0.336597 0)
(16.725 -0.250012 0)
(12.1947 -0.158733 0)
(7.27366 -0.0400167 0)
(27.586 -0.323616 0)
(27.0307 -0.325271 0)
(25.8712 -0.316533 0)
(23.8534 -0.288485 0)
(20.891 -0.24545 0)
(17.0672 -0.182271 0)
(12.5899 -0.116445 0)
(7.6754 -0.0312565 0)
(27.5639 -0.244413 0)
(27.0462 -0.246388 0)
(25.9432 -0.240944 0)
(23.9919 -0.220039 0)
(21.0925 -0.188865 0)
(17.3222 -0.140666 0)
(12.8889 -0.0899536 0)
(7.9754 -0.0275224 0)
(27.542 -0.195536 0)
(27.0537 -0.198016 0)
(25.9955 -0.194608 0)
(24.0966 -0.178519 0)
(21.2479 -0.154811 0)
(17.5234 -0.116115 0)
(13.1283 -0.0736959 0)
(8.21355 -0.0264891 0)
(27.5198 -0.166506 0)
(27.0549 -0.168915 0)
(26.0338 -0.167493 0)
(24.179 -0.154504 0)
(21.375 -0.135418 0)
(17.6927 -0.102736 0)
(13.3327 -0.0640704 0)
(8.4171 -0.0266789 0)
(27.4974 -0.150078 0)
(27.0516 -0.153513 0)
(26.0625 -0.15255 0)
(24.247 -0.14193 0)
(21.4856 -0.125563 0)
(17.8446 -0.0965699 0)
(13.5187 -0.0588457 0)
(8.60367 -0.0275452 0)
(27.4726 -0.141036 0)
(27.0454 -0.145785 0)
(26.0843 -0.14523 0)
(24.3064 -0.136369 0)
(21.5874 -0.121391 0)
(17.9883 -0.0945677 0)
(13.6961 -0.0562971 0)
(8.78355 -0.0287211 0)
(27.4458 -0.136907 0)
(27.0357 -0.141931 0)
(26.1008 -0.142476 0)
(24.3604 -0.134652 0)
(21.6846 -0.120198 0)
(18.129 -0.0946364 0)
(13.8704 -0.0551058 0)
(8.96181 -0.0298403 0)
(27.4174 -0.135478 0)
(27.0231 -0.140631 0)
(26.114 -0.142012 0)
(24.4115 -0.134817 0)
(21.7802 -0.120385 0)
(18.2698 -0.0955775 0)
(14.045 -0.0545241 0)
(9.1403 -0.0308009 0)
(27.3878 -0.135369 0)