/*--------------------------------*- C++ -*----------------------------------*\
| =========                 |                                                 |
| \\      /  F ield         | OpenFOAM: The Open Source CFD Toolbox           |
|  \\    /   O peration     | Version:  v2012                                 |
|   \\  /    A nd           | Website:  www.openfoam.com                      |
|    \\/     M anipulation  |                                                 |
\*---------------------------------------------------------------------------*/
FoamFile
{
    version     2.0;
    format      ascii;
    class       volScalarField;
    location    "0.344";
    object      p;
}
// * * * * * * * * * * * * * * * * * * * * * * * * * * * * * * * * * * * * * //

dimensions      [0 2 -2 0 0 0 0];


internalField   nonuniform List<scalar> 
1900
(
-299.623
-300.722
-301.622
-302.283
-302.96
-303.727
-304.532
-305.361
-305.974
-306.578
-300.077
-300.876
-301.704
-302.38
-303.06
-303.821
-304.632
-305.47
-306.23
-307.05
-300.363
-300.928
-301.696
-302.409
-303.106
-303.867
-304.693
-305.577
-306.47
-307.715
-300.547
-300.991
-301.726
-302.468
-303.178
-303.94
-304.784
-305.709
-306.722
-308.095
-300.645
-301.039
-301.754
-302.505
-303.221
-303.986
-304.847
-305.807
-306.888
-308.277
-300.662
-301.061
-301.78
-302.535
-303.254
-304.027
-304.904
-305.889
-307.004
-308.371
-300.597
-301.056
-301.807
-302.557
-303.277
-304.061
-304.951
-305.952
-307.079
-308.402
-300.445
-301.036
-301.83
-302.557
-303.27
-304.065
-304.969
-305.979
-307.11
-308.391
-300.188
-301.03
-301.891
-302.579
-303.277
-304.077
-304.985
-305.995
-307.118
-308.36
-299.754
-300.929
-301.881
-302.562
-303.26
-304.073
-304.992
-306.009
-307.135
-308.357
-305.92
-318.28
-337.562
-339.208
-320.079
-286.052
-243.02
-198.244
-157.318
-122.529
-94.1822
-71.761
-54.2974
-40.7512
-30.1837
-21.8439
-15.2097
-9.87608
-5.51428
-1.89283
1.12479
3.6462
5.78636
7.63006
9.2219
10.586
11.7536
12.7747
13.6686
14.4476
15.1231
15.7043
16.2041
16.6316
16.9933
17.2994
17.5546
17.7612
17.9251
18.0518
18.1455
18.209
18.2428
18.2477
18.2258
18.1811
18.1166
18.0332
17.9311
17.8113
17.6744
17.5217
17.3551
17.1759
16.9841
16.7804
16.5651
16.3384
16.1013
15.855
15.5995
15.3351
15.062
14.7801
14.4897
14.1911
13.8849
13.5714
13.2505
12.9221
12.5865
12.2441
11.8948
11.5389
11.1764
10.8073
10.4318
10.05
9.66199
9.26803
8.86795
8.46216
8.05044
7.63314
7.2101
6.78156
6.34746
5.908
5.46326
5.01339
4.55852
4.09881
3.63413
3.16498
2.69015
2.21244
1.72484
1.24264
0.733538
0.279209
-309.337
-321.606
-333.413
-332.127
-313.079
-280.334
-239.752
-197.438
-158.319
-124.592
-96.6713
-74.2439
-56.5641
-42.6951
-31.7835
-23.1298
-16.225
-10.6616
-6.11363
-2.35549
0.752881
3.34508
5.54991
7.44485
9.06952
10.4601
11.6515
12.689
13.592
14.3767
15.0559
15.6392
16.1362
16.5606
16.9254
17.236
17.4947
17.7049
17.8724
18.0027
18.0999
18.1667
18.2019
18.2075
18.1864
18.1425
18.0784
17.9958
17.8947
17.7757
17.6397
17.4875
17.3213
17.1424
16.951
16.7477
16.5329
16.3068
16.0701
15.824
15.5687
15.3046
15.0319
14.7502
14.4598
14.1614
13.8555
13.5422
13.2215
12.8932
12.5578
12.2154
11.8663
11.5104
11.1479
10.7788
10.4033
10.0215
9.63356
9.23953
8.83943
8.43358
8.02182
7.60445
7.18137
6.7528
6.31868
5.87924
5.43455
4.98478
4.53006
4.07057
3.60637
3.13768
2.6645
2.18742
1.70545
1.22185
0.729552
0.251892
-310.271
-317.92
-326.263
-324.073
-306.103
-275.372
-237.271
-197.127
-159.467
-126.593
-99.0052
-76.5642
-58.6852
-44.5328
-33.3251
-24.4119
-17.2857
-11.5312
-6.82739
-2.95139
0.253461
2.93606
5.22501
7.18475
8.85356
10.2805
11.5113
12.5811
13.5052
14.303
14.9916
15.5829
16.0837
16.5092
16.8774
17.1914
17.4519
17.6629
17.831
17.9619
18.0586
18.1234
18.1574
18.1629
18.1428
18.1004
18.0381
17.9569
17.8569
17.7397
17.6054
17.4548
17.29
17.1117
16.9209
16.7176
16.5023
16.276
16.0394
15.7935
15.5383
15.2743
15.0021
14.7207
14.4305
14.1325
13.8269
13.5138
13.1933
12.8651
12.5298
12.1875
11.8385
11.4826
11.1201
10.7511
10.3756
9.99372
9.60571
9.21162
8.81146
8.40551
7.99368
7.57623
7.1531
6.72445
6.29033
5.85088
5.40623
4.95653
4.50197
4.04268
3.57897
3.11075
2.63926
2.1629
1.68653
1.20186
0.727118
0.223767
-310.492
-316.294
-321.939
-318.557
-301.089
-271.666
-235.203
-196.608
-160.105
-127.984
-100.751
-78.3697
-60.3695
-46.0093
-34.573
-25.4507
-18.138
-12.221
-7.38875
-3.41702
-0.131393
2.61873
4.95458
6.94407
8.63535
10.0808
11.3285
12.4138
13.351
14.1586
14.8584
15.4651
15.9849
16.4276
16.8081
17.1324
17.4021
17.6214
17.7959
17.9313
18.0292
18.093
18.127
18.1328
18.1132
18.0715
18.0095
17.928
17.827
17.708
17.5725
17.422
17.2579
17.0803
16.8901
16.6869
16.4713
16.2451
16.0092
15.7638
15.5092
15.2454
14.9725
14.6908
14.4009
14.1032
13.7979
13.485
13.1646
12.8365
12.5015
12.1593
11.8102
11.4544
11.0919
10.7228
10.3473
9.96538
9.57725
9.18307
8.78281
8.37672
7.9648
7.54723
7.12404
6.69532
6.2612
5.82173
5.37717
4.92754
4.47317
4.01409
3.55089
3.08315
2.61336
2.13775
1.66709
1.18109
0.723996
0.196001
-310.518
-314.805
-318.112
-313.455
-296.276
-267.995
-233.033
-195.92
-160.559
-129.164
-102.282
-79.9746
-61.8743
-47.3365
-35.7048
-26.3974
-18.9191
-12.8597
-7.91073
-3.84886
-0.488705
2.32517
4.70767
6.73017
8.4498
9.92145
11.1902
12.2905
13.241
14.0594
14.7663
15.3758
15.8996
16.3466
16.7272
17.0514
17.3228
17.5443
17.7214
17.8598
17.9614
18.0308
18.0717
18.0841
18.0705
18.0339
17.9759
17.8975
17.7988
17.6812
17.5468
17.3974
17.2338
17.0565
16.8666
16.6636
16.4479
16.2217
15.9857
15.7401
15.4852
15.2206
14.9464
14.6636
14.3733
14.0752
13.7696
13.456
13.1352
12.8067
12.4714
12.1288
11.7796
11.4235
11.0608
10.6916
10.316
9.93401
9.54581
9.15161
8.75148
8.3455
7.93365
7.51608
7.09296
6.66426
6.23024
5.79084
5.34644
4.89694
4.44284
3.98403
3.52136
3.05419
2.58602
2.11132
1.64591
1.15932
0.718408
0.171099
-310.4
-313.509
-315.041
-309.398
-292.508
-265.228
-231.494
-195.545
-161.049
-130.18
-103.556
-81.2969
-63.1072
-48.4194
-36.6306
-27.1732
-19.5556
-13.3796
-8.33928
-4.20402
-0.783321
2.08093
4.50135
6.55125
8.29361
9.7849
11.0696
12.1794
13.1382
13.9651
14.6786
15.2935
15.8226
16.2759
16.662
16.9889
17.2625
17.4873
17.6683
17.8098
17.9136
17.9825
18.0221
18.0343
18.0205
17.9834
17.9246
17.8454
17.7467
17.6299
17.497
17.3493
17.1873
17.0119
16.8238
16.6227
16.4092
16.1848
15.9501
15.7056
15.4515
15.1877
14.9142
14.6321
14.342
14.0439
13.7379
13.424
13.1028
12.7738
12.4381
12.0952
11.7457
11.3894
11.0265
10.6572
10.2816
9.89958
9.5115
9.11734
8.71734
8.31139
7.89966
7.48219
7.05921
6.63063
6.19679
5.75754
5.31336
4.86408
4.41029
3.95183
3.4897
3.02318
2.55647
2.0829
1.62173
1.13607
0.707818
0.152309
-310.21
-312.446
-312.668
-306.232
-289.501
-262.955
-230.135
-195.076
-161.265
-130.84
-104.469
-82.2816
-64.0492
-49.2689
-37.3703
-27.8034
-20.0796
-13.8087
-8.69833
-4.5086
-1.03691
1.87239
4.3224
6.39068
8.1519
9.66301
10.9623
12.0801
13.0444
13.8799
14.6017
15.2216
15.7553
16.2123
16.6018
16.9328
17.2089
17.4349
17.618
17.7611
17.8665
17.9373
17.978
17.9919
17.9803
17.9448
17.8869
17.8083
17.7105
17.5947
17.4623
17.3142
17.1514
16.9748
16.7854
16.5834
16.3692
16.1437
15.9078
15.6624
15.4076
15.1433
14.8695
14.5873
14.2971
13.9991
13.6934
13.3799
13.059
12.7307
12.3957
12.0534
11.7045
11.3488
10.9865
10.6176
10.2426
9.86099
9.47347
9.07967
8.67999
8.27431
7.86295
7.44587
7.02324
6.59504
6.16153
5.72264
5.27879
4.82987
4.37644
3.9184
3.45682
2.99099
2.52543
2.05317
1.5947
1.11178
0.690373
0.143277
-310.014
-311.622
-310.914
-303.872
-287.218
-261.199
-229.052
-194.666
-161.384
-131.313
-105.166
-83.0526
-64.7947
-49.9577
-37.9845
-28.3245
-20.5118
-14.1761
-9.01285
-4.76669
-1.2439
1.69504
4.16205
6.25154
8.03683
9.56429
10.8691
11.9911
12.9649
13.8111
14.5389
15.1601
15.6938
16.1548
16.5496
16.8838
17.1604
17.3859
17.5696
17.7152
17.8231
17.895
17.9355
17.9494
17.9384
17.9034
17.8455
17.7668
17.6689
17.5531
17.4205
17.2721
17.109
16.9324
16.743
16.5413
16.3272
16.1015
15.8653
15.6197
15.3647
15.1001
14.8261
14.5433
14.2526
13.9541
13.6479
13.334
13.0127
12.684
12.3487
12.0061
11.6569
11.3011
10.9388
10.5698
10.1949
9.81344
9.42612
9.03265
8.63331
8.22815
7.81735
7.40093
6.97891
6.5514
6.11854
5.68033
5.2371
4.7888
4.33594
3.87847
3.41753
2.95241
2.48775
2.01697
1.55964
1.08119
0.660176
0.13864
-309.857
-311.036
-309.718
-302.257
-285.629
-259.948
-228.242
-194.297
-161.363
-131.533
-105.534
-83.4751
-65.2198
-50.3542
-38.3284
-28.6152
-20.7622
-14.393
-9.19518
-4.91916
-1.37379
1.58208
4.0624
6.1639
7.95714
9.48837
10.7968
11.9239
12.9027
13.7517
14.4807
15.1033
15.6396
16.1038
16.5009
16.8359
17.1129
17.3397
17.5252
17.6725
17.7816
17.854
17.8949
17.9097
17.8999
17.866
17.8088
17.7305
17.6332
17.5182
17.3863
17.2386
17.0761
16.9
16.711
16.5095
16.2957
16.0702
15.8343
15.5889
15.3342
15.07
14.7963
14.514
14.2238
13.9259
13.6204
13.3072
12.9865
12.6586
12.3244
11.9824
11.6337
11.2783
10.9165
10.5482
10.1736
9.79265
9.40561
9.01239
8.61317
8.20793
7.79709
7.38059
6.95855
6.53096
6.09808
5.65983
5.21659
4.76826
4.31542
3.85805
3.39724
2.93225
2.46758
1.99757
1.53982
1.06573
0.639705
0.148963
-309.799
-310.776
-309.167
-301.515
-284.923
-259.448
-228.001
-194.311
-161.572
-131.866
-105.94
-83.9014
-65.6282
-50.7247
-38.6591
-28.9103
-21.0225
-14.6199
-9.39613
-5.10201
-1.53774
1.44371
3.94046
6.04981
7.84855
9.38676
10.7018
11.8324
12.813
13.6643
14.3965
15.0217
15.5597
16.0253
16.4241
16.7607
17.0393
17.2674
17.4538
17.6021
17.7122
17.7858
17.8277
17.8432
17.8342
17.801
17.7444
17.6668
17.57
17.4556
17.3243
17.1771
17.015
16.8393
16.6508
16.4498
16.2366
16.0116
15.7761
15.5311
15.2769
15.013
14.7397
14.4577
14.1677
13.87
13.5646
13.2514
12.9308
12.6028
12.2684
11.9274
11.5791
11.2238
10.8621
10.4939
10.1195
9.73885
9.35201
8.95905
8.56018
8.15554
7.74497
7.32869
6.90683
6.47938
6.04658
5.60838
5.1652
4.71686
4.2641
3.80675
3.34617
2.88157
2.41694
1.94792
1.48893
1.0201
0.591365
0.112924
-314.074
-315.342
-316.519
-316.764
-316.246
-314.976
-313.67
-313.762
-333.208
-334.725
-335.671
-336.006
-335.684
-334.97
-334.106
-333.757
-348.321
-351.158
-352.673
-353.24
-353.129
-352.819
-352.512
-352.172
-346.898
-350.263
-352.116
-352.862
-352.69
-352.175
-351.696
-351.058
-325.752
-328.652
-330.387
-330.946
-330.606
-329.869
-329.084
-328.157
-289.994
-292.05
-293.341
-293.795
-293.469
-292.521
-291.108
-289.508
-244.965
-246.037
-246.888
-247.289
-247.031
-246.003
-244.218
-242.159
-198.427
-198.458
-198.712
-198.927
-198.648
-197.567
-195.616
-193.372
-156.289
-155.594
-155.332
-155.236
-154.834
-153.718
-151.763
-149.557
-120.786
-119.664
-119.118
-118.846
-118.356
-117.253
-115.405
-113.362
-92.2225
-90.9966
-90.3494
-89.9551
-89.3937
-88.3494
-86.6751
-84.849
-69.8828
-68.7298
-68.0931
-67.629
-67.0283
-66.0688
-64.5947
-63.0109
-52.6398
-51.6296
-51.0407
-50.5748
-49.9942
-49.1303
-47.8522
-46.4907
-39.3748
-38.5376
-38.033
-37.602
-37.0667
-36.3061
-35.2169
-34.0628
-29.0852
-28.4047
-27.9616
-27.5639
-27.0891
-26.4337
-25.5123
-24.5355
-21.0001
-20.4616
-20.0598
-19.6812
-19.2653
-18.7066
-17.9282
-17.0861
-14.5736
-14.1492
-13.7977
-13.4545
-13.0899
-12.6107
-11.9502
-11.1934
-9.4
-9.06436
-8.76752
-8.47018
-8.15139
-7.73805
-7.17553
-6.49723
-5.15791
-4.89269
-4.646
-4.39246
-4.1151
-3.75629
-3.27321
-2.68438
-1.62121
-1.41187
-1.20729
-0.992288
-0.75181
-0.438995
-0.0195547
0.491297
1.34592
1.51793
1.69395
1.87579
2.08347
2.35687
2.72357
3.16969
3.8357
3.98273
4.13852
4.29559
4.47755
4.71904
5.04262
5.43589
5.94665
6.07063
6.20549
6.34392
6.50736
6.72443
7.01363
7.36428
7.7656
7.87077
7.98681
8.10944
8.25697
8.45313
8.71334
9.02853
9.33982
9.43171
9.53491
9.64556
9.77976
9.95792
10.1931
10.478
10.6971
10.7843
10.8757
10.9757
11.0987
11.2618
11.4758
11.7347
11.8623
11.9496
12.0331
12.124
12.2369
12.3866
12.5821
12.8188
12.8725
12.9525
13.0289
13.1135
13.219
13.358
13.5381
13.756
13.7559
13.8284
13.8985
13.9775
14.0762
14.2057
14.3723
14.5739
14.5256
14.5921
14.6577
14.7321
14.8251
14.9463
15.1008
15.2879
15.1931
15.2543
15.3156
15.386
15.4739
15.5876
15.7315
15.9057
15.7677
15.8239
15.8817
15.9484
16.0318
16.1389
16.2732
16.436
16.2633
16.3144
16.3683
16.4315
16.5106
16.6117
16.7374
16.8901
16.6876
16.7347
16.7853
16.8454
16.9207
17.0163
17.1344
17.2781
17.0464
17.0912
17.1398
17.1975
17.2696
17.3605
17.4718
17.6075
17.35
17.3929
17.4397
17.4952
17.5643
17.6509
17.756
17.8844
17.6029
17.6441
17.6892
17.7425
17.8089
17.8916
17.991
18.1128
17.8075
17.8474
17.8911
17.9427
18.0067
18.0859
18.1802
18.2959
17.9696
18.0082
18.0506
18.1006
18.1624
18.2384
18.328
18.4384
18.0944
18.1318
18.173
18.2216
18.2813
18.3543
18.4397
18.5452
18.1863
18.2225
18.2625
18.3097
18.3675
18.4378
18.5192
18.6202
18.248
18.2829
18.3217
18.3675
18.4236
18.4912
18.569
18.6659
18.2805
18.3143
18.352
18.3965
18.4509
18.5161
18.5906
18.6837
18.2843
18.3173
18.3543
18.3978
18.4507
18.5138
18.5852
18.6748
18.2616
18.2941
18.3304
18.3731
18.4247
18.4859
18.5545
18.641
18.2163
18.2481
18.2837
18.3255
18.3759
18.4353
18.5013
18.5848
18.1513
18.1824
18.2171
18.258
18.3071
18.3647
18.4283
18.5091
18.067
18.0975
18.1317
18.1718
18.2198
18.2758
18.3371
18.4154
17.9642
17.9943
18.028
18.0674
18.1144
18.1689
18.228
18.304
17.8437
17.8734
17.9066
17.9453
17.9913
18.0443
18.1014
18.1753
17.7063
17.7355
17.7681
17.8062
17.8513
17.903
17.9582
18.0301
17.5532
17.5821
17.6143
17.6518
17.696
17.7465
17.8
17.87
17.3863
17.4149
17.4468
17.4837
17.5271
17.5765
17.6284
17.6967
17.2067
17.235
17.2665
17.3029
17.3456
17.3939
17.4443
17.5109
17.0147
17.0426
17.0738
17.1097
17.1517
17.1989
17.2478
17.313
16.8106
16.8382
16.869
16.9044
16.9457
16.9919
17.0395
17.1032
16.5948
16.6221
16.6525
16.6875
16.7281
16.7733
16.8196
16.882
16.3678
16.3948
16.425
16.4595
16.4995
16.5439
16.5889
16.6501
16.1305
16.1573
16.1872
16.2213
16.2607
16.3043
16.3483
16.4082
15.8839
15.9105
15.9401
15.9739
16.0127
16.0555
16.0983
16.1572
15.6282
15.6546
15.6839
15.7173
15.7556
15.7976
15.8394
15.8973
15.3636
15.3898
15.4188
15.4518
15.4896
15.5309
15.5717
15.6286
15.0902
15.1161
15.1448
15.1774
15.2147
15.2553
15.2951
15.3511
14.808
14.8337
14.8622
14.8944
14.9311
14.971
15.01
15.0651
14.5174
14.5428
14.5711
14.603
14.6392
14.6786
14.7167
14.771
14.2187
14.244
14.2721
14.3038
14.3396
14.3783
14.4157
14.4692
13.9124
13.9376
13.9655
13.9968
14.0323
14.0705
14.1071
14.16
13.5988
13.6239
13.6515
13.6826
13.7176
13.7552
13.7911
13.8433
13.2776
13.3025
13.33
13.3608
13.3954
13.4326
13.4678
13.5193
12.9491
12.9739
13.0012
13.0318
13.066
13.1027
13.1372
13.1882
12.6134
12.6381
12.6652
12.6956
12.7295
12.7657
12.7997
12.8501
12.2709
12.2955
12.3225
12.3526
12.3861
12.4219
12.4553
12.5051
11.9215
11.946
11.9729
12.0028
12.0361
12.0714
12.1043
12.1536
11.5656
11.59
11.6167
11.6464
11.6794
11.7143
11.7466
11.7955
11.203
11.2273
11.2539
11.2834
11.3161
11.3507
11.3825
11.431
10.8339
10.8581
10.8846
10.9139
10.9463
10.9806
11.0119
11.0599
10.4583
10.4825
10.5089
10.5381
10.5702
10.6042
10.635
10.6826
10.0765
10.1006
10.1269
10.1559
10.1878
10.2214
10.2517
10.299
9.68846
9.71258
9.73879
9.76765
9.79935
9.83261
9.86259
9.90947
9.29449
9.31856
9.34467
9.37335
9.40478
9.43771
9.46725
9.51375
8.89443
8.91849
8.94454
8.97311
9.00435
9.03701
9.06619
9.11237
8.48864
8.51266
8.53863
8.56703
8.59803
8.63038
8.65914
8.70498
8.07693
8.10094
8.12686
8.15516
8.18598
8.2181
8.24655
8.29212
7.65966
7.68365
7.7095
7.73767
7.76828
7.80013
7.82829
7.87363
7.23664
7.26062
7.28643
7.31451
7.34495
7.3766
7.40485
7.45064
6.8081
6.83205
6.85779
6.88573
6.91595
6.94729
6.97535
7.02125
6.37398
6.39788
6.42354
6.45136
6.48141
6.51251
6.54028
6.58595
5.93448
5.95832
5.98389
6.01156
6.04143
6.0723
6.09979
6.1452
5.48967
5.51343
5.53887
5.56637
5.596
5.62662
5.65379
5.69888
5.0397
5.06337
5.08869
5.11605
5.14549
5.17591
5.20283
5.2477
4.58466
4.60816
4.63328
4.66039
4.68953
4.71962
4.74615
4.7906
4.12476
4.1481
4.17306
4.19997
4.2289
4.2588
4.28514
4.3295
3.65965
3.68262
3.7072
3.73373
3.76226
3.79178
3.81769
3.86164
3.19013
3.21277
3.23702
3.2632
3.29136
3.32051
3.34611
3.38982
2.71391
2.73547
2.75877
2.78414
2.81163
2.84032
2.86561
2.9092
2.23573
2.25686
2.27966
2.30443
2.33125
2.35925
2.38391
2.42682
1.74348
1.76112
1.78104
1.8036
1.82891
1.85614
1.88072
1.92464
1.2628
1.28123
1.30121
1.3231
1.34703
1.37227
1.39484
1.43517
0.739328
0.746898
0.757988
0.773183
0.792879
0.81596
0.834906
0.883325
0.302165
0.320222
0.336609
0.351741
0.366663
0.383733
0.400925
0.376907
)
;

boundaryField
{
    frontAndBack
    {
        type            empty;
    }
    inlet
    {
        type            zeroGradient;
    }
    outlet
    {
        type            fixedValue;
        value           uniform 0;
    }
    walls
    {
        type            zeroGradient;
    }
}


// ************************************************************************* //
