/*--------------------------------*- C++ -*----------------------------------*\
| =========                 |                                                 |
| \\      /  F ield         | OpenFOAM: The Open Source CFD Toolbox           |
|  \\    /   O peration     | Version:  v2012                                 |
|   \\  /    A nd           | Website:  www.openfoam.com                      |
|    \\/     M anipulation  |                                                 |
\*---------------------------------------------------------------------------*/
FoamFile
{
    version     2.0;
    format      ascii;
    class       volVectorField;
    location    "0.07";
    object      U.air;
}
// * * * * * * * * * * * * * * * * * * * * * * * * * * * * * * * * * * * * * //

dimensions      [0 1 -1 0 0 0 0];


internalField   nonuniform List<vector> 
1900
(
(39.9676 0.00859687 0)
(39.9239 0.015103 0)
(39.8679 0.0180588 0)
(39.8035 0.0207993 0)
(39.73 0.0237062 0)
(39.6526 0.0267683 0)
(39.5681 0.0297565 0)
(39.4712 0.034433 0)
(39.3801 0.0347839 0)
(39.2118 0.073503 0)
(40.0053 0.0147927 0)
(40.0212 0.0233975 0)
(40.0401 0.0257182 0)
(40.0561 0.0277458 0)
(40.0726 0.0304775 0)
(40.0898 0.0329399 0)
(40.1095 0.0364838 0)
(40.1257 0.0385578 0)
(40.1466 0.0533817 0)
(40.1568 0.0585716 0)
(40.0029 0.00824746 0)
(40.0161 0.0135856 0)
(40.0335 0.0137912 0)
(40.051 0.0145443 0)
(40.0688 0.0163129 0)
(40.0879 0.0182043 0)
(40.1087 0.0208556 0)
(40.1299 0.024805 0)
(40.1543 0.0350812 0)
(40.1844 0.0529455 0)
(40.0018 0.00414497 0)
(40.0132 0.00782146 0)
(40.0301 0.00860528 0)
(40.0479 0.00970547 0)
(40.066 0.0114323 0)
(40.0852 0.0132518 0)
(40.1064 0.0158683 0)
(40.1291 0.0197454 0)
(40.1561 0.0288801 0)
(40.1894 0.0416246 0)
(40.0015 0.00111202 0)
(40.012 0.00211928 0)
(40.0285 0.00232728 0)
(40.0464 0.00266239 0)
(40.0645 0.00325308 0)
(40.084 0.00405071 0)
(40.1056 0.00562476 0)
(40.1294 0.00842125 0)
(40.1575 0.0146682 0)
(40.1918 0.0210544 0)
(40.0016 -0.00180291 0)
(40.0122 -0.00371605 0)
(40.0288 -0.00416326 0)
(40.0468 -0.004314 0)
(40.065 -0.00436081 0)
(40.0846 -0.00401593 0)
(40.1066 -0.00289512 0)
(40.1311 -0.000789733 0)
(40.1597 0.0031761 0)
(40.1936 0.00640821 0)
(40.0019 -0.00486278 0)
(40.0136 -0.00947527 0)
(40.0308 -0.0105124 0)
(40.0489 -0.0114613 0)
(40.0672 -0.0126727 0)
(40.0871 -0.0134371 0)
(40.1094 -0.0134428 0)
(40.1344 -0.0127054 0)
(40.163 -0.0110203 0)
(40.1957 -0.0104531 0)
(40.0032 -0.00926928 0)
(40.0168 -0.0153327 0)
(40.0348 -0.0157394 0)
(40.0527 -0.016477 0)
(40.0709 -0.01804 0)
(40.0911 -0.0194037 0)
(40.1136 -0.0202815 0)
(40.1388 -0.020797 0)
(40.1672 -0.0210301 0)
(40.1987 -0.0225688 0)
(40.0057 -0.0162088 0)
(40.0223 -0.0253699 0)
(40.042 -0.0274342 0)
(40.0582 -0.0288787 0)
(40.0751 -0.0308085 0)
(40.0938 -0.0324197 0)
(40.1145 -0.0335734 0)
(40.1374 -0.0344434 0)
(40.1628 -0.0352272 0)
(40.1893 -0.0366674 0)
(39.9675 -0.0101413 0)
(39.9214 -0.0185951 0)
(39.8645 -0.0229106 0)
(39.797 -0.0265887 0)
(39.7223 -0.0303253 0)
(39.6428 -0.0339089 0)
(39.5582 -0.0373399 0)
(39.4686 -0.0407417 0)
(39.3739 -0.044104 0)
(39.2741 -0.0480425 0)
(39.1724 -0.039283 0)
(38.0177 -0.354716 0)
(36.4706 -0.795031 0)
(34.9649 -1.35455 0)
(33.8571 -1.88882 0)
(33.1084 -2.33222 0)
(32.5393 -2.60363 0)
(32.0827 -2.66918 0)
(31.6443 -2.56938 0)
(31.2128 -2.34932 0)
(30.7876 -2.07035 0)
(30.3636 -1.77905 0)
(29.9527 -1.50882 0)
(29.5494 -1.27255 0)
(29.157 -1.07566 0)
(28.7771 -0.916052 0)
(28.4118 -0.788775 0)
(28.0652 -0.688311 0)
(27.7408 -0.608882 0)
(27.4413 -0.54571 0)
(27.1681 -0.495135 0)
(26.919 -0.453199 0)
(26.6955 -0.41749 0)
(26.4943 -0.386548 0)
(26.3177 -0.359918 0)
(26.1601 -0.336102 0)
(26.0255 -0.314852 0)
(25.9103 -0.295958 0)
(25.8115 -0.279139 0)
(25.7266 -0.264073 0)
(25.6539 -0.250557 0)
(25.5905 -0.238269 0)
(25.5362 -0.227158 0)
(25.4877 -0.21676 0)
(25.4449 -0.207111 0)
(25.4077 -0.19824 0)
(25.3756 -0.190084 0)
(25.3481 -0.182549 0)
(25.3251 -0.175605 0)
(25.306 -0.169125 0)
(25.2907 -0.163113 0)
(25.2788 -0.157543 0)
(25.2699 -0.152316 0)
(25.2632 -0.147332 0)
(25.2586 -0.142623 0)
(25.2558 -0.138167 0)
(25.2548 -0.133982 0)
(25.2552 -0.129983 0)
(25.2572 -0.126169 0)
(25.2605 -0.122593 0)
(25.2652 -0.119229 0)
(25.2711 -0.116019 0)
(25.2782 -0.112956 0)
(25.2864 -0.110061 0)
(25.2955 -0.107333 0)
(25.3057 -0.104746 0)
(25.3166 -0.102286 0)
(25.3283 -0.0999361 0)
(25.3406 -0.0976876 0)
(25.3536 -0.0955249 0)
(25.367 -0.0934408 0)
(25.3809 -0.0914261 0)
(25.3952 -0.0895189 0)
(25.41 -0.0877107 0)
(25.4251 -0.0859969 0)
(25.4405 -0.0843497 0)
(25.4561 -0.0827733 0)
(25.4721 -0.0812492 0)
(25.4882 -0.0797808 0)
(25.5045 -0.0783595 0)
(25.5209 -0.0769961 0)
(25.5375 -0.0756736 0)
(25.5542 -0.07439 0)
(25.5709 -0.0731313 0)
(25.5876 -0.0718947 0)
(25.6044 -0.0706671 0)
(25.621 -0.0694454 0)
(25.6377 -0.0682279 0)
(25.6541 -0.0670434 0)
(25.6705 -0.0658914 0)
(25.6866 -0.0647987 0)
(25.7026 -0.0637462 0)
(25.7183 -0.0627628 0)
(25.734 -0.0618303 0)
(25.7494 -0.0609781 0)
(25.7649 -0.0601842 0)
(25.78 -0.0594595 0)
(25.7952 -0.0587718 0)
(25.8101 -0.0581265 0)
(25.8251 -0.05749 0)
(25.8398 -0.0568817 0)
(25.8546 -0.0562721 0)
(25.8689 -0.0557281 0)
(25.8834 -0.0551906 0)
(25.8972 -0.0549324 0)
(25.9115 -0.0546732 0)
(25.9246 -0.0553663 0)
(25.94 -0.0557817 0)
(25.9507 -0.0586632 0)
(25.9726 -0.0600775 0)
(40.259 0.20537 0)
(40.4989 0.295871 0)
(40.6487 -0.0460566 0)
(40.4722 -0.668259 0)
(39.9271 -1.3308 0)
(39.098 -1.89412 0)
(38.1064 -2.25376 0)
(37.0578 -2.38372 0)
(36.0569 -2.32246 0)
(35.1528 -2.13292 0)
(34.3672 -1.87969 0)
(33.6981 -1.61226 0)
(33.136 -1.36126 0)
(32.6574 -1.14045 0)
(32.2419 -0.954857 0)
(31.8695 -0.803181 0)
(31.5232 -0.681283 0)
(31.1912 -0.584186 0)
(30.8662 -0.507222 0)
(30.5452 -0.446521 0)
(30.2273 -0.398341 0)
(29.919 -0.360131 0)
(29.6241 -0.329967 0)
(29.3425 -0.30586 0)
(29.0769 -0.286345 0)
(28.8286 -0.27033 0)
(28.5984 -0.257099 0)
(28.3878 -0.245831 0)
(28.1951 -0.235855 0)
(28.0208 -0.226852 0)
(27.8618 -0.218497 0)
(27.7176 -0.210566 0)
(27.5863 -0.202925 0)
(27.4677 -0.195443 0)
(27.3605 -0.188195 0)
(27.2635 -0.181381 0)
(27.1761 -0.175042 0)
(27.0971 -0.169129 0)
(27.026 -0.163625 0)
(26.9617 -0.158457 0)
(26.904 -0.153599 0)
(26.8513 -0.148992 0)
(26.8031 -0.144635 0)
(26.7591 -0.140523 0)
(26.719 -0.136628 0)
(26.6826 -0.132928 0)
(26.6498 -0.12942 0)
(26.6201 -0.126093 0)
(26.5935 -0.122939 0)
(26.5698 -0.119983 0)
(26.5487 -0.117197 0)
(26.53 -0.114518 0)
(26.5136 -0.111965 0)
(26.4995 -0.109541 0)
(26.4873 -0.107223 0)
(26.4769 -0.105006 0)
(26.468 -0.102851 0)
(26.4605 -0.100757 0)
(26.4542 -0.0987494 0)
(26.4491 -0.0968207 0)
(26.4452 -0.0949561 0)
(26.4423 -0.0931372 0)
(26.4405 -0.0914362 0)
(26.4395 -0.0898242 0)
(26.4393 -0.0883035 0)
(26.4398 -0.0867847 0)
(26.441 -0.0853309 0)
(26.4428 -0.0839241 0)
(26.4451 -0.0825604 0)
(26.448 -0.0812306 0)
(26.4512 -0.0799507 0)
(26.4549 -0.0787012 0)
(26.4588 -0.077473 0)
(26.463 -0.076261 0)
(26.4675 -0.0750571 0)
(26.4721 -0.0738461 0)
(26.4768 -0.0726267 0)
(26.4816 -0.0714065 0)
(26.4864 -0.0702058 0)
(26.4912 -0.0690336 0)
(26.4959 -0.067913 0)
(26.5007 -0.0668324 0)
(26.5054 -0.0658186 0)
(26.5101 -0.0648613 0)
(26.5147 -0.0639857 0)
(26.5194 -0.063175 0)
(26.5241 -0.0624312 0)
(26.5288 -0.0617298 0)
(26.5335 -0.0610716 0)
(26.5383 -0.0604203 0)
(26.543 -0.0597917 0)
(26.5478 -0.0591495 0)
(26.5524 -0.0585679 0)
(26.557 -0.0579851 0)
(26.5614 -0.0576802 0)
(26.5659 -0.0573858 0)
(26.57 -0.0580828 0)
(26.5746 -0.058438 0)
(26.5782 -0.0615757 0)
(26.5855 -0.0627661 0)
(40.2699 0.127743 0)
(40.4561 0.0177445 0)
(40.6021 -0.368697 0)
(40.4975 -0.908896 0)
(40.0434 -1.44081 0)
(39.2826 -1.86016 0)
(38.3233 -2.09983 0)
(37.2918 -2.15541 0)
(36.2755 -2.06681 0)
(35.3651 -1.88542 0)
(34.5836 -1.65856 0)
(33.9349 -1.42329 0)
(33.4087 -1.20303 0)
(32.9854 -1.00856 0)
(32.6456 -0.843728 0)
(32.3708 -0.707384 0)
(32.1455 -0.596056 0)
(31.9573 -0.505974 0)
(31.795 -0.43328 0)
(31.6506 -0.374852 0)
(31.5156 -0.327945 0)
(31.3848 -0.29084 0)
(31.2514 -0.261121 0)
(31.1133 -0.237341 0)
(30.9682 -0.218315 0)
(30.8147 -0.203041 0)
(30.6527 -0.190896 0)
(30.483 -0.181105 0)
(30.3074 -0.173118 0)
(30.1287 -0.166555 0)
(29.9487 -0.161037 0)
(29.7718 -0.156313 0)
(29.5989 -0.15224 0)
(29.4343 -0.14869 0)
(29.2788 -0.145623 0)
(29.133 -0.142964 0)
(28.9972 -0.140572 0)
(28.8712 -0.138333 0)
(28.7543 -0.136151 0)
(28.6461 -0.133945 0)
(28.5456 -0.131742 0)
(28.4521 -0.129459 0)
(28.3651 -0.12699 0)
(28.2844 -0.124417 0)
(28.2096 -0.121842 0)
(28.1401 -0.119319 0)
(28.0757 -0.116886 0)
(28.0161 -0.114548 0)
(27.961 -0.112283 0)
(27.9098 -0.110081 0)
(27.862 -0.10796 0)
(27.8175 -0.10594 0)
(27.7762 -0.10407 0)
(27.738 -0.102324 0)
(27.7025 -0.100658 0)
(27.6698 -0.0990711 0)
(27.6395 -0.097532 0)
(27.6115 -0.0960048 0)
(27.5857 -0.094504 0)
(27.5619 -0.0930404 0)
(27.5399 -0.0916078 0)
(27.5198 -0.09019 0)
(27.5011 -0.0887958 0)
(27.4835 -0.0874203 0)
(27.4672 -0.086104 0)
(27.4516 -0.0848302 0)
(27.4373 -0.0836206 0)
(27.4236 -0.0824245 0)
(27.4109 -0.0812549 0)
(27.3987 -0.0800863 0)
(27.3873 -0.0789629 0)
(27.3762 -0.07784 0)
(27.3658 -0.0767284 0)
(27.3556 -0.0756072 0)
(27.3459 -0.0744835 0)
(27.3364 -0.0733198 0)
(27.3271 -0.0721483 0)
(27.318 -0.0709595 0)
(27.3091 -0.0697897 0)
(27.3002 -0.0686254 0)
(27.2916 -0.0675189 0)
(27.2829 -0.066443 0)
(27.2745 -0.0654431 0)
(27.2661 -0.0644967 0)
(27.2579 -0.0636427 0)
(27.2498 -0.0628512 0)
(27.242 -0.0621335 0)
(27.2342 -0.0614566 0)
(27.2268 -0.0608305 0)
(27.2195 -0.0602051 0)
(27.2124 -0.0595931 0)
(27.2054 -0.0589571 0)
(27.1985 -0.0583639 0)
(27.1916 -0.0577722 0)
(27.1848 -0.0574454 0)
(27.1778 -0.0571438 0)
(27.1713 -0.0578332 0)
(27.1641 -0.0582588 0)
(27.1588 -0.0613838 0)
(27.1491 -0.0626431 0)
(40.2634 0.0673391 0)
(40.4034 0.00417011 0)
(40.4966 -0.262168 0)
(40.3657 -0.678569 0)
(39.9156 -1.11199 0)
(39.179 -1.46758 0)
(38.2537 -1.69379 0)
(37.2568 -1.77789 0)
(36.2695 -1.73966 0)
(35.3811 -1.61387 0)
(34.612 -1.4392 0)
(33.9671 -1.24878 0)
(33.439 -1.06548 0)
(33.0115 -0.900726 0)
(32.6672 -0.759408 0)
(32.3895 -0.641351 0)
(32.1648 -0.54434 0)
(31.9818 -0.465207 0)
(31.832 -0.401007 0)
(31.7081 -0.34889 0)
(31.605 -0.306709 0)
(31.5179 -0.272364 0)
(31.4434 -0.243987 0)
(31.3784 -0.220025 0)
(31.3211 -0.199684 0)
(31.2688 -0.18215 0)
(31.2197 -0.167138 0)
(31.1714 -0.154112 0)
(31.1219 -0.142799 0)
(31.0696 -0.133083 0)
(31.0131 -0.124855 0)
(30.951 -0.117996 0)
(30.8823 -0.112412 0)
(30.8062 -0.108041 0)
(30.7228 -0.104639 0)
(30.6323 -0.102017 0)
(30.5355 -0.100013 0)
(30.4335 -0.0984833 0)
(30.3274 -0.0972994 0)
(30.2189 -0.0963526 0)
(30.1093 -0.0955374 0)
(30.0002 -0.0947626 0)
(29.8936 -0.0941123 0)
(29.7903 -0.0936293 0)
(29.6909 -0.0932485 0)
(29.5959 -0.0929204 0)
(29.5057 -0.092609 0)
(29.4201 -0.0922728 0)
(29.3391 -0.0919322 0)
(29.2627 -0.0915635 0)
(29.1904 -0.0910617 0)
(29.1221 -0.0904245 0)
(29.0573 -0.0897453 0)
(28.9958 -0.0890375 0)
(28.9375 -0.0882888 0)
(28.8821 -0.0874971 0)
(28.8295 -0.0866485 0)
(28.7798 -0.0857586 0)
(28.7329 -0.0848617 0)
(28.6883 -0.0839613 0)
(28.6462 -0.0830425 0)
(28.606 -0.0821269 0)
(28.5678 -0.0812257 0)
(28.5312 -0.0802914 0)
(28.4964 -0.0793379 0)
(28.4626 -0.0783705 0)
(28.4304 -0.0774212 0)
(28.3989 -0.0764583 0)
(28.3686 -0.0754876 0)
(28.3387 -0.0744948 0)
(28.3099 -0.0735259 0)
(28.2814 -0.0725404 0)
(28.2537 -0.0715489 0)
(28.2262 -0.0705344 0)
(28.1994 -0.0694965 0)
(28.1727 -0.0684093 0)
(28.1466 -0.0673066 0)
(28.1207 -0.0661886 0)
(28.0952 -0.0650842 0)
(28.07 -0.063985 0)
(28.0452 -0.0629321 0)
(28.0206 -0.061921 0)
(27.9965 -0.0609899 0)
(27.9725 -0.0601178 0)
(27.9492 -0.0593398 0)
(27.926 -0.0586264 0)
(27.9035 -0.05799 0)
(27.8811 -0.0573962 0)
(27.8594 -0.0568572 0)
(27.8379 -0.0563132 0)
(27.8172 -0.0557719 0)
(27.7964 -0.0551897 0)
(27.7763 -0.0546384 0)
(27.7561 -0.0540862 0)
(27.7367 -0.0537872 0)
(27.7166 -0.0535235 0)
(27.6983 -0.0542057 0)
(27.677 -0.0547695 0)
(27.6623 -0.0577067 0)
(27.6338 -0.0594228 0)
(40.2555 0.031429 0)
(40.3567 -0.031883 0)
(40.4022 -0.258916 0)
(40.2468 -0.61732 0)
(39.8045 -0.995502 0)
(39.098 -1.30664 0)
(38.2122 -1.50466 0)
(37.2567 -1.57692 0)
(36.3 -1.54039 0)
(35.4306 -1.42795 0)
(34.6702 -1.27367 0)
(34.0265 -1.10648 0)
(33.4952 -0.946014 0)
(33.0625 -0.802063 0)
(32.7124 -0.678356 0)
(32.4292 -0.57489 0)
(32.1995 -0.489633 0)
(32.0122 -0.420052 0)
(31.8586 -0.363363 0)
(31.7317 -0.317205 0)
(31.6259 -0.279639 0)
(31.537 -0.249005 0)
(31.4616 -0.223741 0)
(31.3972 -0.202649 0)
(31.3422 -0.184949 0)
(31.2947 -0.169938 0)
(31.2537 -0.157192 0)
(31.218 -0.14616 0)
(31.187 -0.136531 0)
(31.1597 -0.128019 0)
(31.1358 -0.120448 0)
(31.1143 -0.113596 0)
(31.0949 -0.107405 0)
(31.0769 -0.101806 0)
(31.0594 -0.0966682 0)
(31.0418 -0.0919043 0)
(31.0232 -0.0875618 0)
(31.0029 -0.0836478 0)
(30.9804 -0.0801531 0)
(30.9548 -0.0770458 0)
(30.9255 -0.0743407 0)
(30.8921 -0.0720962 0)
(30.8541 -0.0703393 0)
(30.8112 -0.0689945 0)
(30.7634 -0.0679894 0)
(30.711 -0.0672735 0)
(30.6542 -0.0667659 0)
(30.5935 -0.0664156 0)
(30.5292 -0.0662181 0)
(30.4623 -0.0661201 0)
(30.3938 -0.0660618 0)
(30.3243 -0.066062 0)
(30.2544 -0.06615 0)
(30.1845 -0.066309 0)
(30.1151 -0.0664947 0)
(30.0463 -0.06668 0)
(29.9787 -0.066878 0)
(29.912 -0.0670479 0)
(29.8468 -0.0671714 0)
(29.7826 -0.0672435 0)
(29.72 -0.0672285 0)
(29.6583 -0.0671004 0)
(29.5983 -0.0668594 0)
(29.5395 -0.0665342 0)
(29.4823 -0.066136 0)
(29.426 -0.0656756 0)
(29.3712 -0.065175 0)
(29.317 -0.0646131 0)
(29.2642 -0.0639845 0)
(29.2119 -0.0632819 0)
(29.1609 -0.062568 0)
(29.1102 -0.0618068 0)
(29.0609 -0.0610109 0)
(29.0118 -0.0601697 0)
(28.9639 -0.0592905 0)
(28.9163 -0.0583444 0)
(28.8698 -0.0573735 0)
(28.8237 -0.0563833 0)
(28.7786 -0.0554092 0)
(28.7339 -0.0544347 0)
(28.6902 -0.0534914 0)
(28.6468 -0.0525789 0)
(28.6045 -0.0517584 0)
(28.5626 -0.0510154 0)
(28.5218 -0.050375 0)
(28.4813 -0.0498079 0)
(28.4421 -0.0493232 0)
(28.4031 -0.0488876 0)
(28.3655 -0.0485089 0)
(28.3281 -0.0481262 0)
(28.2921 -0.0477323 0)
(28.2561 -0.047283 0)
(28.2216 -0.0468483 0)
(28.1868 -0.0464181 0)
(28.1538 -0.046208 0)
(28.1196 -0.0460614 0)
(28.0887 -0.0467286 0)
(28.0525 -0.0474903 0)
(28.0279 -0.0500972 0)
(27.9793 -0.0527751 0)
(40.2478 0.00636939 0)
(40.3189 -0.052935 0)
(40.3277 -0.234956 0)
(40.154 -0.518803 0)
(39.7188 -0.818108 0)
(39.0361 -1.06199 0)
(38.1811 -1.21596 0)
(37.2552 -1.27227 0)
(36.3237 -1.24525 0)
(35.4695 -1.16043 0)
(34.7171 -1.04243 0)
(34.0752 -0.912773 0)
(33.5413 -0.786701 0)
(33.1036 -0.672226 0)
(32.7471 -0.572792 0)
(32.4572 -0.488977 0)
(32.221 -0.419613 0)
(32.0278 -0.362777 0)
(31.8688 -0.316467 0)
(31.7373 -0.278805 0)
(31.6276 -0.248103 0)
(31.5354 -0.222966 0)
(31.457 -0.202152 0)
(31.3901 -0.184701 0)
(31.3325 -0.169925 0)
(31.2827 -0.157268 0)
(31.2395 -0.146326 0)
(31.2017 -0.136725 0)
(31.1684 -0.128195 0)
(31.1392 -0.120595 0)
(31.1135 -0.113787 0)
(31.0907 -0.107683 0)
(31.0706 -0.102206 0)
(31.0527 -0.0973443 0)
(31.0366 -0.0929597 0)
(31.0221 -0.0890186 0)
(31.0091 -0.0854897 0)
(30.9973 -0.0823165 0)
(30.9864 -0.079402 0)
(30.9764 -0.0766732 0)
(30.9667 -0.0740646 0)
(30.9574 -0.0716354 0)
(30.948 -0.0693472 0)
(30.9383 -0.0671842 0)
(30.928 -0.0651319 0)
(30.9168 -0.0631758 0)
(30.9043 -0.0612893 0)
(30.8901 -0.0594793 0)
(30.8736 -0.0578113 0)
(30.8544 -0.0563331 0)
(30.8321 -0.0550359 0)
(30.8067 -0.0539054 0)
(30.7779 -0.0529047 0)
(30.7453 -0.052036 0)
(30.7086 -0.0512856 0)
(30.6679 -0.0506492 0)
(30.6231 -0.0500601 0)
(30.5744 -0.049533 0)
(30.522 -0.0490456 0)
(30.4659 -0.0486048 0)
(30.4064 -0.0481893 0)
(30.3443 -0.0477884 0)
(30.2798 -0.0474058 0)
(30.213 -0.0470473 0)
(30.1446 -0.0466903 0)
(30.0748 -0.0463297 0)
(30.0042 -0.0459606 0)
(29.9329 -0.0455764 0)
(29.8614 -0.0451612 0)
(29.7899 -0.0447159 0)
(29.7189 -0.0442571 0)
(29.6479 -0.0437676 0)
(29.5781 -0.0432514 0)
(29.5084 -0.0426897 0)
(29.4401 -0.0420987 0)
(29.3722 -0.0414496 0)
(29.3058 -0.040783 0)
(29.2401 -0.0400827 0)
(29.1758 -0.0393876 0)
(29.1122 -0.0386933 0)
(29.0501 -0.0380411 0)
(28.9887 -0.0374566 0)
(28.929 -0.0369466 0)
(28.87 -0.0365124 0)
(28.8128 -0.0361686 0)
(28.7561 -0.0358987 0)
(28.7015 -0.0357059 0)
(28.6473 -0.0355723 0)
(28.5953 -0.0354909 0)
(28.5436 -0.0354109 0)
(28.4942 -0.0352977 0)
(28.4449 -0.0351118 0)
(28.3979 -0.0349186 0)
(28.3506 -0.03474 0)
(28.306 -0.0347248 0)
(28.2599 -0.0348135 0)
(28.2185 -0.0354785 0)
(28.1698 -0.0365718 0)
(28.1367 -0.0386003 0)
(28.0709 -0.0427758 0)
(40.2419 -0.0161657 0)
(40.2904 -0.0671902 0)
(40.2717 -0.206836 0)
(40.0832 -0.423796 0)
(39.6529 -0.656249 0)
(38.9885 -0.84919 0)
(38.1576 -0.975735 0)
(37.2545 -1.02811 0)
(36.3423 -1.01521 0)
(35.4977 -0.954929 0)
(34.7472 -0.865229 0)
(34.1003 -0.763654 0)
(33.5568 -0.663454 0)
(33.1078 -0.571829 0)
(32.7399 -0.491693 0)
(32.4391 -0.42358 0)
(32.1926 -0.366619 0)
(31.9896 -0.319483 0)
(31.8213 -0.280655 0)
(31.6804 -0.248775 0)
(31.5612 -0.222603 0)
(31.4593 -0.201035 0)
(31.3709 -0.183066 0)
(31.2936 -0.167937 0)
(31.2252 -0.155086 0)
(31.1642 -0.144075 0)
(31.1091 -0.13454 0)
(31.0588 -0.126184 0)
(31.0124 -0.1188 0)
(30.9693 -0.112258 0)
(30.9289 -0.106419 0)
(30.8908 -0.10117 0)
(30.8544 -0.0964323 0)
(30.8193 -0.0921584 0)
(30.7852 -0.0882437 0)
(30.7518 -0.0846262 0)
(30.7188 -0.0812868 0)
(30.6862 -0.0781981 0)
(30.6535 -0.0752873 0)
(30.6208 -0.0724759 0)
(30.5878 -0.0697614 0)
(30.5545 -0.0671852 0)
(30.5208 -0.064774 0)
(30.4866 -0.0625397 0)
(30.4519 -0.0604603 0)
(30.4165 -0.0584898 0)
(30.3806 -0.0565618 0)
(30.344 -0.0546547 0)
(30.3068 -0.0528114 0)
(30.269 -0.051061 0)
(30.2307 -0.0493811 0)
(30.1918 -0.047744 0)
(30.1523 -0.0460846 0)
(30.1122 -0.0444045 0)
(30.0716 -0.0427293 0)
(30.0303 -0.0410779 0)
(29.9883 -0.0394387 0)
(29.9455 -0.0378157 0)
(29.9017 -0.0362012 0)
(29.857 -0.034628 0)
(29.8112 -0.0331244 0)
(29.7643 -0.0317052 0)
(29.7161 -0.030352 0)
(29.6667 -0.0290663 0)
(29.6158 -0.0278574 0)
(29.5636 -0.0267345 0)
(29.5101 -0.0257136 0)
(29.4553 -0.0247928 0)
(29.3993 -0.0239652 0)
(29.3423 -0.0232315 0)
(29.2844 -0.0225646 0)
(29.2257 -0.0219569 0)
(29.1664 -0.0213994 0)
(29.1067 -0.0208717 0)
(29.0467 -0.0203816 0)
(28.9865 -0.0199136 0)
(28.9266 -0.0194734 0)
(28.8665 -0.0190342 0)
(28.8072 -0.0186192 0)
(28.7479 -0.018238 0)
(28.6897 -0.0179142 0)
(28.6315 -0.0176689 0)
(28.5746 -0.0175161 0)
(28.518 -0.017475 0)
(28.4627 -0.0175359 0)
(28.4078 -0.0176903 0)
(28.3544 -0.0179167 0)
(28.3013 -0.0182176 0)
(28.25 -0.0185679 0)
(28.1988 -0.0189434 0)
(28.1497 -0.019259 0)
(28.1005 -0.0194763 0)
(28.0534 -0.0196489 0)
(28.0059 -0.0198439 0)
(27.9609 -0.020124 0)
(27.9141 -0.0205615 0)
(27.8721 -0.0212609 0)
(27.8218 -0.0227613 0)
(27.788 -0.0240188 0)
(27.718 -0.0298989 0)
(40.2386 -0.030009 0)
(40.2709 -0.0704533 0)
(40.2318 -0.171527 0)
(40.0309 -0.327113 0)
(39.6008 -0.494846 0)
(38.9444 -0.634493 0)
(38.1223 -0.726401 0)
(37.2224 -0.765069 0)
(36.3085 -0.757648 0)
(35.4513 -0.717342 0)
(34.6819 -0.655956 0)
(34.0119 -0.58534 0)
(33.4413 -0.514545 0)
(32.9631 -0.448856 0)
(32.5631 -0.390482 0)
(32.229 -0.34026 0)
(31.9472 -0.297731 0)
(31.7084 -0.262184 0)
(31.5026 -0.232485 0)
(31.3236 -0.207823 0)
(31.1646 -0.187346 0)
(31.0222 -0.170449 0)
(30.8928 -0.156248 0)
(30.7736 -0.144068 0)
(30.6629 -0.133539 0)
(30.5587 -0.124331 0)
(30.4599 -0.116199 0)
(30.3653 -0.108906 0)
(30.2743 -0.102345 0)
(30.1861 -0.0964294 0)
(30.1005 -0.0910624 0)
(30.0167 -0.0861285 0)
(29.9347 -0.0815845 0)
(29.8539 -0.077403 0)
(29.7745 -0.0735615 0)
(29.696 -0.0699817 0)
(29.6187 -0.066635 0)
(29.5419 -0.0635082 0)
(29.466 -0.0605733 0)
(29.3907 -0.0577668 0)
(29.3165 -0.0551125 0)
(29.2434 -0.0525978 0)
(29.1714 -0.0502104 0)
(29.0999 -0.0479703 0)
(29.0296 -0.0458809 0)
(28.96 -0.0438898 0)
(28.8918 -0.0419456 0)
(28.8245 -0.0400359 0)
(28.7588 -0.0382138 0)
(28.6941 -0.0365012 0)
(28.6309 -0.0348969 0)
(28.5688 -0.0333713 0)
(28.5082 -0.0318931 0)
(28.4489 -0.0304672 0)
(28.3912 -0.0291057 0)
(28.3349 -0.0278085 0)
(28.28 -0.0265431 0)
(28.2268 -0.0253016 0)
(28.1751 -0.0240667 0)
(28.1251 -0.022871 0)
(28.0765 -0.0217208 0)
(28.0297 -0.0206117 0)
(27.9843 -0.0194975 0)
(27.9407 -0.0184049 0)
(27.8981 -0.017341 0)
(27.8574 -0.0163175 0)
(27.8176 -0.0153482 0)
(27.7794 -0.0144436 0)
(27.7421 -0.0135837 0)
(27.706 -0.0127771 0)
(27.6706 -0.0120237 0)
(27.6364 -0.0113283 0)
(27.6027 -0.010664 0)
(27.5698 -0.0100278 0)
(27.5374 -0.00942773 0)
(27.5057 -0.00887079 0)
(27.4744 -0.00835077 0)
(27.4435 -0.00786814 0)
(27.4131 -0.00742812 0)
(27.3828 -0.00703193 0)
(27.3529 -0.00670329 0)
(27.323 -0.00646793 0)
(27.2932 -0.00633475 0)
(27.2634 -0.00632887 0)
(27.2335 -0.00643495 0)
(27.2034 -0.00664412 0)
(27.1732 -0.0069501 0)
(27.143 -0.00733937 0)
(27.1126 -0.0077707 0)
(27.0819 -0.0082388 0)
(27.0511 -0.00867033 0)
(27.0203 -0.00901354 0)
(26.9895 -0.0093067 0)
(26.9584 -0.00961907 0)
(26.9278 -0.00994168 0)
(26.8956 -0.0104456 0)
(26.8661 -0.0109489 0)
(26.829 -0.0124666 0)
(26.8051 -0.0127886 0)
(26.7492 -0.019383 0)
(40.2229 -0.0441214 0)
(40.2345 -0.0683461 0)
(40.1702 -0.129278 0)
(39.943 -0.223499 0)
(39.4859 -0.326545 0)
(38.7965 -0.413769 0)
(37.9306 -0.472611 0)
(36.972 -0.498751 0)
(35.9901 -0.496121 0)
(35.0461 -0.472138 0)
(34.1798 -0.433812 0)
(33.4043 -0.388815 0)
(32.724 -0.343322 0)
(32.1349 -0.300903 0)
(31.6253 -0.263095 0)
(31.1844 -0.23042 0)
(30.7991 -0.202574 0)
(30.4612 -0.179117 0)
(30.1598 -0.159272 0)
(29.8897 -0.142564 0)
(29.643 -0.128207 0)
(29.4176 -0.116183 0)
(29.2103 -0.106047 0)
(29.0177 -0.0972434 0)
(28.838 -0.0895004 0)
(28.6689 -0.0825949 0)
(28.5095 -0.0763823 0)
(28.3584 -0.0707002 0)
(28.215 -0.0654891 0)
(28.0781 -0.060701 0)
(27.9474 -0.0562929 0)
(27.8221 -0.0521972 0)
(27.7023 -0.0483948 0)
(27.5874 -0.0448717 0)
(27.4772 -0.0416133 0)
(27.3711 -0.0385803 0)
(27.2694 -0.0357199 0)
(27.1715 -0.0330486 0)
(27.0774 -0.0305658 0)
(26.987 -0.0282161 0)
(26.9001 -0.0260439 0)
(26.8165 -0.024026 0)
(26.7365 -0.0220926 0)
(26.6594 -0.0202791 0)
(26.5853 -0.0186296 0)
(26.5141 -0.017123 0)
(26.4458 -0.0156987 0)
(26.38 -0.0143393 0)
(26.317 -0.0130828 0)
(26.2565 -0.0119376 0)
(26.1985 -0.0109017 0)
(26.1427 -0.00995073 0)
(26.0892 -0.00905999 0)
(26.0379 -0.00821352 0)
(25.9888 -0.00741414 0)
(25.9417 -0.00666499 0)
(25.8966 -0.00595621 0)
(25.8536 -0.00527458 0)
(25.8125 -0.00460634 0)
(25.7736 -0.00395776 0)
(25.7362 -0.0033664 0)
(25.701 -0.00284454 0)
(25.6674 -0.00232163 0)
(25.6359 -0.00179104 0)
(25.6057 -0.00131199 0)
(25.5776 -0.00087086 0)
(25.5507 -0.000471573 0)
(25.5256 -0.000129615 0)
(25.5015 0.000192858 0)
(25.4791 0.000476272 0)
(25.4575 0.000769511 0)
(25.4373 0.000991394 0)
(25.4179 0.00117218 0)
(25.3997 0.00134608 0)
(25.3821 0.00152943 0)
(25.3655 0.00170838 0)
(25.3494 0.00189657 0)
(25.3342 0.00208028 0)
(25.3194 0.00226232 0)
(25.3053 0.00240953 0)
(25.2916 0.00253369 0)
(25.2783 0.00263625 0)
(25.2651 0.00270893 0)
(25.2522 0.00272151 0)
(25.2392 0.00267387 0)
(25.2261 0.0025725 0)
(25.2128 0.00241973 0)
(25.1993 0.00218822 0)
(25.1853 0.00191492 0)
(25.1709 0.00162519 0)
(25.1561 0.0013489 0)
(25.1409 0.00114931 0)
(25.1253 0.00100638 0)
(25.1094 0.000778112 0)
(25.0934 0.000556638 0)
(25.0758 0.000174065 0)
(25.0602 -6.47876e-05 0)
(25.0376 -0.00135415 0)
(25.0252 -0.00117179 0)
(24.9863 -0.00637804 0)
(39.1402 -0.0539802 0)
(38.9464 -0.0675466 0)
(38.6586 -0.0934487 0)
(38.1914 -0.131021 0)
(37.4774 -0.172078 0)
(36.5128 -0.207809 0)
(35.3544 -0.233306 0)
(34.0901 -0.2464 0)
(32.7978 -0.247956 0)
(31.5412 -0.240187 0)
(30.374 -0.225485 0)
(29.3095 -0.206602 0)
(28.3626 -0.186339 0)
(27.5263 -0.16632 0)
(26.7955 -0.147423 0)
(26.1538 -0.130038 0)
(25.5938 -0.114502 0)
(25.0994 -0.100645 0)
(24.6661 -0.0884474 0)
(24.2806 -0.0776374 0)
(23.9408 -0.0683341 0)
(23.6351 -0.0607472 0)
(23.3586 -0.0544372 0)
(23.108 -0.0490407 0)
(22.8793 -0.044353 0)
(22.6706 -0.0402577 0)
(22.4792 -0.036652 0)
(22.3039 -0.0334462 0)
(22.1428 -0.0305717 0)
(21.995 -0.0279948 0)
(21.8592 -0.0256873 0)
(21.7343 -0.0236241 0)
(21.6195 -0.0218009 0)
(21.5137 -0.0201761 0)
(21.4164 -0.0187192 0)
(21.3266 -0.0174111 0)
(21.2441 -0.0162198 0)
(21.1681 -0.0151612 0)
(21.0981 -0.0142217 0)
(21.0336 -0.0133478 0)
(20.9746 -0.0125694 0)
(20.9199 -0.0118733 0)
(20.8699 -0.0112061 0)
(20.8241 -0.0105914 0)
(20.7822 -0.0100691 0)
(20.7435 -0.00961985 0)
(20.708 -0.00918291 0)
(20.6755 -0.00874925 0)
(20.646 -0.00835802 0)
(20.6189 -0.00801298 0)
(20.5942 -0.00770514 0)
(20.5715 -0.00741643 0)
(20.5508 -0.00714015 0)
(20.5319 -0.00686862 0)
(20.5147 -0.00661048 0)
(20.4992 -0.00637092 0)
(20.4851 -0.00615171 0)
(20.4725 -0.00594069 0)
(20.4612 -0.00572734 0)
(20.4513 -0.00551296 0)
(20.4426 -0.00533515 0)
(20.435 -0.0051978 0)
(20.4283 -0.00502971 0)
(20.4228 -0.00483086 0)
(20.4183 -0.00465309 0)
(20.4147 -0.00447605 0)
(20.412 -0.0043054 0)
(20.4099 -0.00414229 0)
(20.4087 -0.00397842 0)
(20.408 -0.00374658 0)
(20.4081 -0.00359503 0)
(20.4087 -0.0034256 0)
(20.4098 -0.00328475 0)
(20.4114 -0.00314642 0)
(20.4137 -0.00300123 0)
(20.4165 -0.00285226 0)
(20.4199 -0.00269127 0)
(20.4239 -0.00253034 0)
(20.4285 -0.00236702 0)
(20.4337 -0.00226817 0)
(20.4395 -0.00220506 0)
(20.4457 -0.0021602 0)
(20.4522 -0.00213093 0)
(20.4589 -0.00213419 0)
(20.4654 -0.00216641 0)
(20.4717 -0.00221796 0)
(20.4774 -0.00228745 0)
(20.4824 -0.00244919 0)
(20.4865 -0.00267317 0)
(20.4897 -0.00291323 0)
(20.4919 -0.00311997 0)
(20.4934 -0.00324702 0)
(20.4946 -0.00337 0)
(20.495 -0.00354656 0)
(20.4953 -0.00367902 0)
(20.4941 -0.00403413 0)
(20.4942 -0.00403743 0)
(20.4886 -0.00504072 0)
(20.4893 -0.004106 0)
(20.4704 -0.010476 0)
(1.95437 0.421238 0)
(1.64907 2.05102 0)
(0.910904 2.40128 0)
(0.110913 2.5677 0)
(-0.665576 2.43237 0)
(-1.46651 1.98152 0)
(-2.15368 1.28401 0)
(-2.51272 0.770952 0)
(10.5778 0.318084 0)
(4.36564 1.81698 0)
(1.74411 2.17481 0)
(-0.155017 2.21102 0)
(-2.00006 2.04563 0)
(-3.87731 1.69172 0)
(-5.71493 1.11972 0)
(-6.92409 0.530807 0)
(16.8868 -0.371863 0)
(7.91511 0.751521 0)
(2.86677 1.2142 0)
(-0.390799 1.32792 0)
(-2.9925 1.24932 0)
(-5.40338 1.0588 0)
(-7.85091 0.75371 0)
(-9.97521 0.288393 0)
(20.5479 -1.17077 0)
(11.239 -0.438564 0)
(4.58037 0.0734951 0)
(0.166287 0.312113 0)
(-3.14767 0.393391 0)
(-6.02669 0.379205 0)
(-8.77042 0.303336 0)
(-11.4791 0.0760388 0)
(22.4346 -1.81034 0)
(13.5547 -1.3272 0)
(6.44274 -0.873378 0)
(1.28495 -0.548982 0)
(-2.61863 -0.32824 0)
(-5.86405 -0.179405 0)
(-8.80814 -0.0646651 0)
(-11.7951 -0.051593 0)
(23.6383 -2.31559 0)
(15.4317 -1.97617 0)
(8.25979 -1.5757 0)
(2.7433 -1.21556 0)
(-1.47203 -0.904727 0)
(-4.91752 -0.6309 0)
(-7.98474 -0.380779 0)
(-11.1055 -0.205936 0)
(24.3328 -2.60591 0)
(16.9012 -2.37074 0)
(10.0265 -2.03616 0)
(4.44228 -1.67068 0)
(0.115656 -1.30548 0)
(-3.377 -0.946689 0)
(-6.43094 -0.597694 0)
(-9.51232 -0.307156 0)
(24.7683 -2.67806 0)
(17.9672 -2.50947 0)
(11.5151 -2.23413 0)
(6.15519 -1.89319 0)
(1.91901 -1.51315 0)
(-1.51042 -1.11241 0)
(-4.48998 -0.712726 0)
(-7.52817 -0.35846 0)
(25.0647 -2.58806 0)
(18.8342 -2.46097 0)
(12.8346 -2.23086 0)
(7.79372 -1.91912 0)
(3.76294 -1.55072 0)
(0.479159 -1.14694 0)
(-2.37456 -0.740313 0)
(-5.32868 -0.369177 0)
(25.2508 -2.38117 0)
(19.5302 -2.2871 0)
(13.9916 -2.09715 0)
(9.31682 -1.82115 0)
(5.53746 -1.48034 0)
(2.42567 -1.09677 0)
(-0.297106 -0.708784 0)
(-3.17833 -0.353615 0)
(25.3302 -2.11392 0)
(20.0609 -2.05178 0)
(14.9677 -1.89747 0)
(10.6753 -1.65941 0)
(7.16904 -1.35428 0)
(4.2423 -1.00519 0)
(1.65847 -0.650604 0)
(-1.14564 -0.325766 0)
(25.3131 -1.83555 0)
(20.4569 -1.79934 0)
(15.8047 -1.67534 0)
(11.8634 -1.47244 0)
(8.60667 -1.20366 0)
(5.86498 -0.895441 0)
(3.41676 -0.580551 0)
(0.69716 -0.291751 0)
(25.2217 -1.57367 0)
(20.7377 -1.55769 0)
(16.5022 -1.45885 0)
(12.89 -1.28611 0)
(9.86465 -1.05207 0)
(7.29298 -0.782572 0)
(4.96291 -0.50475 0)
(2.30903 -0.250308 0)
(25.0834 -1.34446 0)
(20.9386 -1.3411 0)
(17.0852 -1.26249 0)
(13.7723 -1.1159 0)
(10.9565 -0.913284 0)
(8.53836 -0.679251 0)
(6.31425 -0.43594 0)
(3.71789 -0.214251 0)
(24.9174 -1.15096 0)
(21.078 -1.15526 0)
(17.5719 -1.09187 0)
(14.5309 -0.967097 0)
(11.9025 -0.792817 0)
(9.61977 -0.590194 0)
(7.48699 -0.377443 0)
(4.93564 -0.184514 0)
(24.7439 -0.991281 0)
(21.1867 -0.997536 0)
(17.9786 -0.945752 0)
(15.1717 -0.838825 0)
(12.7162 -0.690065 0)
(10.5576 -0.514892 0)
(8.50765 -0.328 0)
(5.99416 -0.16168 0)
(24.5805 -0.861411 0)
(21.2814 -0.866666 0)
(18.3238 -0.822212 0)
(15.7151 -0.72994 0)
(13.4163 -0.602361 0)
(11.3719 -0.450272 0)
(9.40033 -0.284112 0)
(6.91621 -0.145706 0)
(24.4336 -0.755669 0)
(21.3683 -0.759433 0)
(18.6243 -0.719474 0)
(16.1853 -0.638888 0)
(14.0238 -0.528031 0)
(12.0822 -0.39497 0)
(10.1866 -0.246817 0)
(7.71801 -0.131271 0)
(24.3061 -0.669282 0)
(21.4505 -0.671344 0)
(18.8908 -0.634744 0)
(16.5983 -0.563314 0)
(14.5561 -0.465711 0)
(12.7056 -0.348409 0)
(10.8779 -0.21697 0)
(8.42403 -0.115996 0)
(24.1979 -0.598173 0)
(21.53 -0.598782 0)
(19.1306 -0.564792 0)
(16.9657 -0.500687 0)
(15.0277 -0.413733 0)
(13.2572 -0.309383 0)
(11.4892 -0.192486 0)
(9.04798 -0.102288 0)
(24.1079 -0.539022 0)
(21.608 -0.538818 0)
(19.3489 -0.50685 0)
(17.2967 -0.449006 0)
(15.45 -0.370772 0)
(13.7497 -0.277002 0)
(12.0339 -0.172183 0)
(9.60311 -0.0907553 0)
(24.0333 -0.489338 0)
(21.6841 -0.488551 0)
(19.5462 -0.458639 0)
(17.5965 -0.406157 0)
(15.8316 -0.335217 0)
(14.1937 -0.250216 0)
(12.524 -0.155364 0)
(10.1014 -0.081272 0)
(23.9714 -0.447568 0)
(21.7575 -0.445965 0)
(19.7273 -0.417967 0)
(17.8698 -0.36989 0)
(16.1789 -0.305099 0)
(14.5972 -0.227546 0)
(12.9685 -0.141107 0)
(10.5524 -0.0733485 0)
(23.9207 -0.41188 0)
(21.8291 -0.409277 0)
(19.8957 -0.383069 0)
(18.1213 -0.338716 0)
(16.4969 -0.279202 0)
(14.966 -0.208068 0)
(13.374 -0.128835 0)
(10.9629 -0.066619 0)
(23.8799 -0.381009 0)
(21.8976 -0.377625 0)
(20.052 -0.352852 0)
(18.353 -0.311677 0)
(16.7894 -0.25674 0)
(15.3048 -0.191187 0)
(13.746 -0.118195 0)
(11.3385 -0.0608569 0)
(23.8484 -0.354149 0)
(21.9656 -0.34961 0)
(20.1994 -0.326477 0)
(18.5685 -0.288112 0)
(17.06 -0.237119 0)