/*--------------------------------*- C++ -*----------------------------------*\
| =========                 |                                                 |
| \\      /  F ield         | OpenFOAM: The Open Source CFD Toolbox           |
|  \\    /   O peration     | Version:  v2012                                 |
|   \\  /    A nd           | Website:  www.openfoam.com                      |
|    \\/     M anipulation  |                                                 |
\*---------------------------------------------------------------------------*/
FoamFile
{
    version     2.0;
    format      ascii;
    class       volVectorField;
    location    "0.07";
    object      U.air;
}
// * * * * * * * * * * * * * * * * * * * * * * * * * * * * * * * * * * * * * //

dimensions      [0 1 -1 0 0 0 0];


internalField   nonuniform List<vector> 
5600
(
(18.5969 0.0138394 0)
(18.1356 0.0315894 0)
(17.5526 0.0442447 0)
(16.8974 0.0497337 0)
(16.2189 0.0479961 0)
(15.5627 0.0414952 0)
(14.953 0.0327906 0)
(14.4131 0.0235162 0)
(13.9494 0.0153134 0)
(13.5499 0.00860921 0)
(13.2187 0.00288709 0)
(12.953 -0.00193852 0)
(12.7489 -0.00572065 0)
(12.5966 -0.00842601 0)
(12.4896 -0.0100842 0)
(12.4159 -0.0107886 0)
(12.37 -0.0107472 0)
(12.3392 -0.0101165 0)
(12.3233 -0.00934009 0)
(12.3109 -0.00853603 0)
(12.3063 -0.00794605 0)
(12.3 -0.00721117 0)
(12.2979 -0.00676023 0)
(12.2935 -0.00630304 0)
(12.2932 -0.00610737 0)
(12.2912 -0.00596755 0)
(12.2926 -0.00586553 0)
(12.2922 -0.00582624 0)
(12.2957 -0.00568704 0)
(12.2958 -0.00567182 0)
(12.3002 -0.00554533 0)
(12.3003 -0.0054336 0)
(12.3032 -0.0052417 0)
(12.303 -0.0051011 0)
(12.3033 -0.00485618 0)
(12.3025 -0.00471027 0)
(12.3004 -0.00454051 0)
(12.2994 -0.00435852 0)
(12.2954 -0.00428076 0)
(12.2939 -0.00414081 0)
(12.2896 -0.00409409 0)
(12.2868 -0.00400134 0)
(12.2841 -0.00392419 0)
(12.2787 -0.00391778 0)
(12.2789 -0.00383604 0)
(12.2714 -0.00387952 0)
(12.2732 -0.0037982 0)
(12.2663 -0.00387994 0)
(12.2678 -0.00378662 0)
(12.2625 -0.00385711 0)
(12.2623 -0.00387544 0)
(12.2609 -0.00376573 0)
(12.2566 -0.00388088 0)
(12.2588 -0.00375031 0)
(12.253 -0.00388321 0)
(12.2558 -0.00372281 0)
(12.2515 -0.00389635 0)
(12.2525 -0.00387151 0)
(12.2528 -0.00379853 0)
(12.2485 -0.00397703 0)
(12.2541 -0.00370775 0)
(12.2457 -0.00405038 0)
(12.2542 -0.00383709 0)
(12.2463 -0.00409162 0)
(12.2533 -0.00401575 0)
(12.2502 -0.00399114 0)
(12.2501 -0.00429517 0)
(12.2574 -0.00388786 0)
(12.2478 -0.00430146 0)
(12.2623 -0.00402823 0)
(12.2499 -0.00416698 0)
(12.2626 -0.00401349 0)
(12.2539 -0.00390143 0)
(12.2583 -0.00409714 0)
(12.2595 -0.00358934 0)
(12.2515 -0.00399379 0)
(12.2607 -0.00366585 0)
(12.2492 -0.00367609 0)
(12.2549 -0.00383836 0)
(12.2516 -0.00351242 0)
(12.2456 -0.00408214 0)
(12.2562 -0.00357931 0)
(12.2393 -0.00388687 0)
(12.2548 -0.00387423 0)
(12.2393 -0.00381328 0)
(12.2503 -0.00405797 0)
(12.2432 -0.00369028 0)
(12.2438 -0.00419081 0)
(12.2481 -0.00375646 0)
(12.2403 -0.00385538 0)
(12.2454 -0.00420635 0)
(12.246 -0.00346982 0)
(12.2348 -0.00438513 0)
(12.253 -0.00371555 0)
(12.2327 -0.00356616 0)
(12.2428 -0.00466149 0)
(12.2517 -0.00261947 0)
(12.2131 -0.00661716 0)
(12.2977 -0.00106253 0)
(12.1219 -0.0172515 0)
(18.7901 0.0365684 0)
(18.8039 0.0482754 0)
(18.7962 0.0516602 0)
(18.7578 0.0559405 0)
(18.685 0.0583246 0)
(18.5782 0.0586763 0)
(18.4415 0.0574495 0)
(18.2777 0.0549572 0)
(18.094 0.0510353 0)
(17.8982 0.046829 0)
(17.6957 0.0420944 0)
(17.4904 0.036924 0)
(17.2868 0.0316892 0)
(17.0883 0.0266474 0)
(16.9007 0.0219809 0)
(16.7242 0.0178888 0)
(16.5644 0.0145695 0)
(16.4166 0.0118322 0)
(16.2879 0.00967802 0)
(16.1686 0.00788367 0)
(16.0695 0.0065731 0)
(15.9753 0.00557434 0)
(15.9019 0.00478891 0)
(15.8305 0.00409208 0)
(15.7785 0.00357714 0)
(15.7252 0.00322541 0)
(15.6857 0.00291971 0)
(15.6447 0.00264466 0)
(15.6144 0.00243721 0)
(15.5819 0.00229472 0)
(15.5556 0.00220212 0)
(15.5274 0.00216565 0)
(15.5038 0.00209636 0)
(15.4799 0.00203485 0)
(15.4583 0.00207691 0)
(15.4389 0.00199794 0)
(15.4188 0.00192955 0)
(15.4036 0.00194111 0)
(15.3865 0.00183928 0)
(15.3728 0.00187938 0)
(15.3591 0.00172615 0)
(15.3457 0.00170678 0)
(15.3359 0.00165374 0)
(15.3224 0.00153903 0)
(15.3156 0.00154374 0)
(15.3032 0.00140162 0)
(15.2975 0.00141992 0)
(15.2873 0.0012679 0)
(15.2811 0.00131517 0)
(15.2741 0.00119992 0)
(15.2659 0.00113164 0)
(15.2622 0.00121347 0)
(15.2528 0.00105639 0)
(15.2507 0.00114059 0)
(15.2427 0.000939289 0)
(15.24 0.0010354 0)
(15.2359 0.000880593 0)
(15.2301 0.000887567 0)
(15.2307 0.000910744 0)
(15.2232 0.000841266 0)
(15.2251 0.000956836 0)
(15.2178 0.000789176 0)
(15.2198 0.000941306 0)
(15.2156 0.000769043 0)
(15.2147 0.000866472 0)
(15.2159 0.000899494 0)
(15.2109 0.000710075 0)
(15.2156 0.000929424 0)
(15.2096 0.000703063 0)
(15.2151 0.000876941 0)
(15.2107 0.000785177 0)
(15.2128 0.000868922 0)
(15.2129 0.000909099 0)
(15.2092 0.000751617 0)
(15.2129 0.00103001 0)
(15.2063 0.000822181 0)
(15.2091 0.000969789 0)
(15.2042 0.000926519 0)
(15.2025 0.000865689 0)
(15.2038 0.00103408 0)
(15.1968 0.000790577 0)
(15.2006 0.00102048 0)
(15.194 0.000938853 0)
(15.1964 0.000926736 0)
(15.1939 0.000995321 0)
(15.1925 0.00081495 0)
(15.1946 0.00106938 0)
(15.1908 0.000769677 0)
(15.1934 0.00101187 0)
(15.1909 0.0009691 0)
(15.1915 0.000757453 0)
(15.1917 0.00116687 0)
(15.1915 0.000709434 0)
(15.1873 0.000996187 0)
(15.1981 0.00115428 0)
(15.1771 0.000236293 0)
(15.209 0.00169655 0)
(15.1683 -0.000487099 0)
(15.2301 0.00283205 0)
(15.1477 -0.0216502 0)
(18.7905 0.0259535 0)
(18.8272 0.0395229 0)
(18.8715 0.048269 0)
(18.9162 0.0560697 0)
(18.9582 0.0605178 0)
(18.9944 0.0615616 0)
(19.0214 0.0601247 0)
(19.0364 0.0562067 0)
(19.0337 0.0532429 0)
(19.0184 0.0489847 0)
(18.9879 0.0443211 0)
(18.9409 0.0395837 0)
(18.8769 0.0351681 0)
(18.7961 0.0310885 0)
(18.6999 0.0275522 0)
(18.5897 0.0241538 0)
(18.4687 0.0213747 0)
(18.3392 0.0188955 0)
(18.2066 0.0167902 0)
(18.0702 0.0147962 0)
(17.9424 0.0130403 0)
(17.8127 0.0113003 0)
(17.7008 0.00962814 0)
(17.5877 0.0079579 0)
(17.4959 0.00640989 0)
(17.403 0.00515654 0)
(17.3298 0.00406936 0)
(17.2549 0.00316444 0)
(17.1958 0.00244697 0)
(17.1345 0.00200349 0)
(17.0849 0.00171855 0)
(17.0339 0.00153564 0)
(16.992 0.00134058 0)
(16.951 0.00118058 0)
(16.9142 0.00105226 0)
(16.8829 0.000904464 0)
(16.8506 0.000674777 0)
(16.8255 0.000519302 0)
(16.7987 0.000330875 0)
(16.7766 0.000242847 0)
(16.7556 4.10139e-05 0)
(16.7341 -0.00010612 0)
(16.7191 -0.000187172 0)
(16.6988 -0.000373313 0)
(16.6874 -0.000387088 0)
(16.6693 -0.000547954 0)
(16.6587 -0.000554539 0)
(16.6442 -0.000691352 0)
(16.6327 -0.000706521 0)
(16.6227 -0.000772018 0)
(16.6092 -0.000871568 0)
(16.6032 -0.000812492 0)
(16.5898 -0.000965418 0)
(16.585 -0.000917261 0)
(16.5744 -0.00107209 0)
(16.5683 -0.00103478 0)
(16.563 -0.00110508 0)
(16.5529 -0.00118559 0)
(16.5535 -0.00119769 0)
(16.5424 -0.0012689 0)
(16.5437 -0.00114671 0)
(16.5344 -0.00148829 0)
(16.5346 -0.00132812 0)
(16.5307 -0.00155932 0)
(16.5256 -0.00158705 0)
(16.5281 -0.00156983 0)
(16.52 -0.00179923 0)
(16.5247 -0.0015946 0)
(16.5172 -0.00194159 0)
(16.5212 -0.00171365 0)
(16.5174 -0.00183124 0)
(16.5167 -0.00177122 0)
(16.519 -0.00159128 0)
(16.5126 -0.00170445 0)
(16.5168 -0.00137277 0)
(16.5099 -0.00150528 0)
(16.5114 -0.00133087 0)
(16.5085 -0.00123798 0)
(16.5037 -0.00147705 0)
(16.5062 -0.00119919 0)
(16.4987 -0.00147442 0)
(16.5014 -0.00133609 0)
(16.4962 -0.00144795 0)
(16.4961 -0.00159017 0)
(16.4961 -0.00148018 0)
(16.4921 -0.00173427 0)
(16.4949 -0.00155704 0)
(16.4914 -0.00176031 0)
(16.4929 -0.00164871 0)
(16.4926 -0.00161265 0)
(16.4906 -0.0018709 0)
(16.4927 -0.00151706 0)
(16.4921 -0.00170672 0)
(16.4878 -0.00189101 0)
(16.4973 -0.00117134 0)
(16.4832 -0.00240344 0)
(16.4983 -0.00070939 0)
(16.4861 -0.00352864 0)
(16.5001 9.82542e-06 0)
(16.4904 -0.0198266 0)
(18.7889 0.0234291 0)
(18.8253 0.037842 0)
(18.8727 0.0450655 0)
(18.924 0.0512338 0)
(18.9779 0.0545896 0)
(19.0328 0.0552335 0)
(19.0876 0.0541344 0)
(19.1384 0.0523495 0)
(19.185 0.0496554 0)
(19.2257 0.0469558 0)
(19.2619 0.0442636 0)
(19.291 0.0416947 0)
(19.3143 0.0393325 0)
(19.3297 0.0372757 0)
(19.3389 0.0351561 0)
(19.3378 0.0339901 0)
(19.3294 0.0326501 0)
(19.3119 0.0313645 0)
(19.2841 0.030271 0)
(19.2455 0.02892 0)
(19.1964 0.0275372 0)
(19.1352 0.0258962 0)
(19.0646 0.0240905 0)
(18.9825 0.0221919 0)
(18.8949 0.0202322 0)
(18.799 0.0184269 0)
(18.7057 0.0166726 0)
(18.606 0.0149161 0)
(18.518 0.013306 0)
(18.426 0.01192 0)
(18.35 0.0106679 0)
(18.2729 0.00965297 0)
(18.2082 0.00852928 0)
(18.1474 0.00778071 0)
(18.0905 0.00696894 0)
(18.0432 0.0063956 0)
(17.9933 0.00584985 0)
(17.9527 0.00537125 0)
(17.9105 0.00501339 0)
(17.8736 0.0046291 0)
(17.8406 0.00437418 0)
(17.8048 0.00398709 0)
(17.7798 0.00372686 0)
(17.7481 0.00338874 0)
(17.7279 0.00315251 0)
(17.7009 0.00286929 0)
(17.6832 0.00266938 0)
(17.662 0.00246682 0)
(17.6439 0.00225898 0)
(17.6291 0.00217746 0)
(17.6093 0.00191542 0)
(17.5992 0.00188129 0)
(17.5808 0.00166014 0)
(17.572 0.00157056 0)
(17.5578 0.00136208 0)
(17.5474 0.0012387 0)
(17.5398 0.00116803 0)
(17.5251 0.000841495 0)
(17.5241 0.000765733 0)
(17.5089 0.000634483 0)
(17.5089 0.000734685 0)
(17.4967 0.000180042 0)
(17.4947 0.000205905 0)
(17.4899 2.87285e-05 0)
(17.4808 -0.000159782 0)
(17.4831 -0.000141115 0)
(17.4717 -0.00043024 0)
(17.4757 -0.000240284 0)
(17.4659 -0.000625809 0)
(17.4683 -0.000490428 0)
(17.4641 -0.00050525 0)
(17.4603 -0.000593347 0)
(17.4629 -0.00030216 0)
(17.4548 -0.000402979 0)
(17.4581 -3.48506e-05 0)
(17.4509 -0.000107237 0)
(17.4509 -2.17902e-05 0)
(17.449 0.00025792 0)
(17.4423 -0.000100729 0)
(17.4446 0.000176523 0)
(17.4372 -6.50937e-05 0)
(17.4387 -5.90583e-06 0)
(17.4342 -3.17578e-05 0)
(17.4327 -0.00037781 0)
(17.4332 -0.000148909 0)
(17.4294 -0.000490206 0)
(17.431 -0.00035459 0)
(17.4293 -0.000544603 0)
(17.4286 -0.000520785 0)
(17.4305 -0.000369385 0)
(17.4271 -0.000711009 0)
(17.4301 -0.000352012 0)
(17.4276 -0.000423468 0)
(17.4272 -0.000862842 0)
(17.4301 0.000136554 0)
(17.427 -0.00121477 0)
(17.4254 0.000194459 0)
(17.4338 -0.00260249 0)
(17.4235 -4.89891e-05 0)
(17.4376 -0.0203594 0)
(18.7873 0.0198248 0)
(18.8223 0.0334071 0)
(18.8695 0.0390152 0)
(18.9212 0.0442714 0)
(18.9759 0.0475381 0)
(19.0324 0.0484095 0)
(19.0897 0.0477898 0)
(19.1445 0.0461654 0)
(19.1972 0.0440407 0)
(19.246 0.0417096 0)
(19.2924 0.0392246 0)
(19.335 0.0367039 0)
(19.3743 0.0343587 0)
(19.4108 0.0321924 0)
(19.4437 0.0305538 0)
(19.4753 0.0289961 0)
(19.5026 0.0279035 0)
(19.5301 0.0271465 0)
(19.5521 0.0268033 0)
(19.5753 0.0264265 0)
(19.5912 0.0262664 0)
(19.6079 0.0260142 0)
(19.6165 0.0258264 0)
(19.6219 0.0254482 0)
(19.619 0.0251146 0)
(19.6109 0.0245995 0)
(19.5936 0.0239473 0)
(19.5687 0.0231417 0)
(19.5347 0.0221535 0)
(19.493 0.0212185 0)
(19.4441 0.0199705 0)
(19.3901 0.0189633 0)
(19.3306 0.0174342 0)
(19.2705 0.0163824 0)
(19.2046 0.0149531 0)
(19.1451 0.0138147 0)
(19.0799 0.0127137 0)
(19.0229 0.0115322 0)
(18.9651 0.0107494 0)
(18.9093 0.00956947 0)
(18.8637 0.00900107 0)
(18.8091 0.0079799 0)
(18.7731 0.00722384 0)
(18.7257 0.00654015 0)
(18.6939 0.00591008 0)
(18.6549 0.00541781 0)
(18.6251 0.00489297 0)
(18.5946 0.00464213 0)
(18.5633 0.00412133 0)
(18.5409 0.00398392 0)
(18.5101 0.0035381 0)
(18.4924 0.00331082 0)
(18.4656 0.00300886 0)
(18.4488 0.00267412 0)
(18.4291 0.00241598 0)
(18.4098 0.00196352 0)
(18.3987 0.00193164 0)
(18.3766 0.00138551 0)
(18.3713 0.00122098 0)
(18.35 0.00109823 0)
(18.345 0.000991727 0)
(18.3299 0.000557669 0)
(18.3213 0.000271137 0)
(18.3151 0.000385937 0)
(18.2988 4.73647e-05 0)
(18.2999 9.10883e-06 0)
(18.2827 -0.000182612 0)
(18.284 -0.000156625 0)
(18.2709 -0.000482038 0)
(18.2692 -0.000568603 0)
(18.2645 -0.000362401 0)
(18.2546 -0.000641277 0)
(18.2567 -0.000369495 0)
(18.2456 -0.000397967 0)
(18.2474 -0.000224798 0)
(18.2394 -0.000152662 0)
(18.2369 -0.000310779 0)
(18.2355 0.000117076 0)
(18.227 -0.00018863 0)
(18.2288 -0.000111327 0)
(18.2215 -0.000161495 0)
(18.2217 -0.000266385 0)
(18.2188 -0.000156324 0)
(18.2155 -0.000584243 0)
(18.2162 -0.000424803 0)
(18.2127 -0.000656999 0)
(18.2132 -0.000726336 0)
(18.2127 -0.000753926 0)
(18.2105 -0.000901629 0)
(18.2131 -0.000721657 0)
(18.2098 -0.000967747 0)
(18.2126 -0.00081065 0)
(18.2112 -0.000692439 0)
(18.2107 -0.00119326 0)
(18.2127 -0.00058326 0)
(18.2127 -0.00118816 0)
(18.209 -0.00084823 0)
(18.2187 -0.00269519 0)
(18.2133 -0.00120624 0)
(18.2187 -0.0191066 0)
(18.7859 0.016056 0)
(18.8195 0.0284029 0)
(18.8663 0.033011 0)
(18.9179 0.0375988 0)
(18.9723 0.040578 0)
(19.0288 0.041324 0)
(19.086 0.0407218 0)
(19.1413 0.0392462 0)
(19.1944 0.0374658 0)
(19.2443 0.0354586 0)
(19.2917 0.0333099 0)
(19.336 0.0311898 0)
(19.3774 0.0292441 0)
(19.4165 0.0275709 0)
(19.4529 0.02617 0)
(19.4883 0.0251093 0)
(19.5215 0.0243452 0)
(19.5548 0.0238588 0)
(19.5861 0.023619 0)
(19.6181 0.0233676 0)
(19.648 0.0232264 0)
(19.6793 0.0230129 0)
(19.7074 0.0228608 0)
(19.7382 0.0227009 0)
(19.7631 0.0224317 0)
(19.7921 0.0222047 0)
(19.8131 0.0220263 0)
(19.8403 0.0218838 0)
(19.8564 0.0217257 0)
(19.8786 0.0216104 0)
(19.8893 0.021394 0)
(19.9029 0.0212309 0)
(19.9085 0.020831 0)
(19.9088 0.0207423 0)
(19.9058 0.0201942 0)
(19.8967 0.0196348 0)
(19.8838 0.019213 0)
(19.8642 0.0183334 0)
(19.8422 0.0179471 0)
(19.8124 0.0167972 0)
(19.7837 0.0163022 0)
(19.7447 0.0153085 0)
(19.7124 0.0141614 0)
(19.6694 0.0133277 0)
(19.6335 0.0122497 0)
(19.5919 0.0115182 0)
(19.5517 0.0103366 0)
(19.5165 0.0100172 0)
(19.4713 0.00887149 0)
(19.444 0.00841644 0)
(19.4008 0.00765487 0)
(19.3761 0.00698044 0)
(19.3396 0.00647999 0)
(19.314 0.0055811 0)
(19.2898 0.00545776 0)
(19.2585 0.0045147 0)
(19.2441 0.00441307 0)
(19.2122 0.00374175 0)
(19.1986 0.00332175 0)
(19.17 0.00326919 0)
(19.1552 0.00283451 0)
(19.1376 0.00258277 0)
(19.116 0.00192908 0)
(19.1078 0.00223729 0)
(19.0814 0.0016979 0)
(19.0779 0.00149004 0)
(19.0538 0.00135056 0)
(19.0476 0.00104198 0)
(19.0327 0.000867179 0)
(19.0198 0.000367242 0)
(19.0142 0.000862714 0)
(18.9957 0.0003494 0)
(18.9957 0.000449493 0)
(18.9807 0.000577646 0)
(18.9784 0.000500435 0)
(18.971 0.000832906 0)
(18.9622 0.000411665 0)
(18.9612 0.000938417 0)
(18.9511 0.000587618 0)
(18.951 0.000482961 0)
(18.9456 0.000543167 0)
(18.9417 0.000144293 0)
(18.9417 0.000309927 0)
(18.9365 -0.000220046 0)
(18.9373 -0.000204965 0)
(18.9344 -0.000388322 0)
(18.9337 -0.000646677 0)
(18.9344 -0.000584057 0)
(18.9316 -0.000776568 0)
(18.9338 -0.00069692 0)
(18.932 -0.000835341 0)
(18.9326 -0.000850047 0)
(18.9348 -0.00059886 0)
(18.9328 -0.00110503 0)
(18.9345 -0.000732876 0)
(18.9374 -0.000843438 0)
(18.9322 -0.00100522 0)
(18.9429 -0.00287243 0)
(18.9413 -0.00173179 0)
(18.9417 -0.0181796 0)
(18.7853 0.0125974 0)
(18.8171 0.022835 0)
(18.8634 0.0264724 0)
(18.9148 0.03019 0)
(18.969 0.0326694 0)
(19.0252 0.0332468 0)
(19.0822 0.0327347 0)
(19.1376 0.031559 0)
(19.1905 0.0301263 0)
(19.2405 0.0284902 0)
(19.288 0.0267462 0)
(19.3325 0.0250527 0)
(19.3741 0.0234869 0)
(19.4135 0.0221489 0)
(19.4505 0.0209989 0)
(19.4862 0.0201544 0)
(19.5204 0.0194836 0)
(19.5539 0.0190104 0)
(19.5866 0.0187607 0)
(19.6194 0.018532 0)
(19.6514 0.0183995 0)
(19.6837 0.0182146 0)
(19.7151 0.0180879 0)
(19.7471 0.0179427 0)
(19.7777 0.0178081 0)
(19.8092 0.0176775 0)
(19.8389 0.0176088 0)
(19.8698 0.0175089 0)
(19.8986 0.0174418 0)
(19.929 0.0173391 0)
(19.9574 0.0172692 0)
(19.9859 0.017176 0)
(20.0149 0.0171471 0)
(20.04 0.0172373 0)
(20.0697 0.0170203 0)
(20.0913 0.0169254 0)
(20.1186 0.0169265 0)
(20.1383 0.0167771 0)
(20.159 0.0168012 0)
(20.1808 0.0165811 0)
(20.1901 0.0166119 0)
(20.2134 0.0163498 0)
(20.2135 0.0160043 0)
(20.2283 0.0157955 0)
(20.225 0.0153351 0)
(20.2297 0.015192 0)
(20.223 0.0144593 0)
(20.2188 0.014432 0)
(20.2098 0.0138799 0)
(20.1954 0.0132117 0)
(20.1846 0.012799 0)
(20.1636 0.011989 0)
(20.1488 0.0115946 0)
(20.126 0.0101632 0)
(20.1114 0.0101154 0)
(20.0829 0.00915008 0)
(20.0659 0.00871385 0)
(20.0378 0.00856272 0)
(20.0105 0.00787267 0)
(19.9847 0.00725632 0)
(19.9625 0.00594458 0)
(19.9458 0.0060905 0)
(19.9122 0.00500953 0)
(19.9026 0.00515578 0)
(19.8701 0.0044721 0)
(19.8597 0.00387813 0)
(19.8343 0.00388877 0)
(19.8182 0.00301467 0)
(19.8039 0.0030401 0)
(19.7784 0.00207344 0)
(19.7733 0.00250137 0)
(19.7498 0.00196622 0)
(19.7424 0.00156014 0)
(19.7281 0.00184604 0)
(19.7143 0.00139523 0)
(19.7086 0.00184491 0)
(19.6927 0.0013507 0)
(19.6899 0.00162194 0)
(19.6809 0.00142059 0)
(19.6742 0.000894231 0)
(19.6732 0.00109825 0)
(19.6639 0.00051397 0)
(19.6657 0.000509583 0)
(19.6595 0.000122708 0)
(19.66 -4.86788e-05 0)
(19.6588 -0.000168298 0)
(19.6563 -0.000583534 0)
(19.6583 -0.000544253 0)
(19.6559 -0.000703785 0)
(19.6572 -0.000754888 0)
(19.6579 -0.000780112 0)
(19.6554 -0.000965354 0)
(19.6597 -0.000798594 0)
(19.6579 -0.00102635 0)
(19.6576 -0.00105901 0)
(19.664 -0.000896569 0)
(19.6572 -0.00130037 0)
(19.6668 -0.0034207 0)
(19.6673 -0.00254213 0)
(19.6659 -0.0170108 0)
(18.7848 0.0089387 0)
(18.8152 0.0166344 0)
(18.861 0.0192977 0)
(18.9123 0.0220392 0)
(18.9663 0.0239164 0)
(19.0223 0.0243449 0)
(19.0791 0.0239735 0)
(19.1345 0.0231296 0)
(19.1872 0.0220775 0)
(19.2373 0.020869 0)
(19.2847 0.0195836 0)
(19.3292 0.018349 0)
(19.3709 0.0171915 0)
(19.4101 0.0161745 0)
(19.4475 0.0152801 0)
(19.4832 0.0146467 0)
(19.5175 0.0141639 0)
(19.5507 0.0138144 0)
(19.5837 0.013615 0)
(19.6164 0.0134451 0)
(19.6489 0.0133592 0)
(19.6813 0.013272 0)
(19.7132 0.0132098 0)
(19.7448 0.0131392 0)
(19.7762 0.0130364 0)
(19.8076 0.0129488 0)
(19.8386 0.0129058 0)
(19.8696 0.0128467 0)
(19.9003 0.0127838 0)
(19.9311 0.0126748 0)
(19.9615 0.012671 0)
(19.9916 0.0125649 0)
(20.0219 0.012576 0)
(20.0517 0.0126221 0)
(20.0822 0.0124303 0)
(20.1115 0.0123919 0)
(20.1414 0.0123526 0)
(20.1706 0.0123306 0)
(20.1992 0.012246 0)
(20.2294 0.0121879 0)
(20.2558 0.0122196 0)
(20.2871 0.0120425 0)
(20.311 0.0120589 0)
(20.3423 0.0119667 0)
(20.3644 0.0118481 0)
(20.3937 0.0118735 0)
(20.4161 0.0117399 0)
(20.4384 0.0117933 0)
(20.4667 0.0116568 0)
(20.4805 0.0115964 0)
(20.5086 0.0116236 0)
(20.5171 0.011389 0)
(20.5431 0.0112864 0)
(20.5495 0.0107836 0)
(20.5599 0.0106958 0)
(20.5755 0.0104729 0)
(20.5727 0.010249 0)
(20.5897 0.0105056 0)
(20.5849 0.010289 0)
(20.597 0.0102274 0)
(20.587 0.00897132 0)
(20.591 0.0090085 0)
(20.585 0.00861055 0)
(20.5748 0.00820206 0)
(20.5774 0.00828141 0)
(20.5548 0.00720297 0)
(20.5603 0.00737994 0)
(20.5362 0.00633246 0)
(20.5376 0.00659676 0)
(20.5146 0.00564432 0)
(20.5089 0.0053194 0)
(20.4985 0.00535274 0)
(20.4762 0.00456512 0)
(20.4708 0.00494178 0)
(20.4451 0.00398094 0)
(20.4423 0.00395643 0)
(20.4262 0.00329886 0)
(20.4185 0.00278982 0)
(20.4153 0.00280667 0)
(20.4018 0.00175616 0)
(20.4045 0.00179643 0)
(20.3943 0.00119094 0)
(20.3965 0.000929027 0)
(20.3918 0.000491616 0)
(20.3913 -3.0271e-06 0)
(20.3917 1.86193e-05 0)
(20.3892 -0.000444533 0)
(20.3909 -0.000563552 0)
(20.3899 -0.000622377 0)
(20.3897 -0.00083248 0)
(20.3921 -0.000782457 0)
(20.3895 -0.000958753 0)
(20.3922 -0.000989735 0)
(20.3923 -0.000942807 0)
(20.3899 -0.00131186 0)
(20.3956 -0.00111142 0)
(20.3917 -0.00143161 0)
(20.3962 -0.00382591 0)
(20.3979 -0.00334985 0)
(20.3991 -0.0167512 0)
(18.7845 0.00517839 0)
(18.8138 0.00981109 0)
(18.8592 0.0114164 0)
(18.9105 0.0131023 0)
(18.9643 0.0142728 0)
(19.0202 0.0145317 0)
(19.0768 0.0143052 0)
(19.1322 0.0137908 0)
(19.1849 0.0131433 0)
(19.235 0.0124016 0)
(19.2823 0.0116109 0)
(19.3268 0.0108555 0)
(19.3686 0.0101402 0)
(19.4079 0.00950909 0)
(19.4451 0.00894303 0)
(19.4806 0.0085541 0)
(19.5151 0.00826425 0)
(19.5488 0.00805095 0)
(19.5818 0.00793609 0)
(19.6143 0.00782703 0)
(19.6465 0.00774219 0)
(19.6788 0.00767365 0)
(19.7109 0.00763882 0)
(19.7427 0.00761239 0)
(19.7742 0.00753842 0)
(19.8053 0.00747461 0)
(19.8364 0.00741836 0)
(19.8675 0.00736869 0)
(19.8985 0.00731709 0)
(19.9291 0.00727287 0)
(19.9596 0.00730338 0)
(19.99 0.00721547 0)
(20.0204 0.00722714 0)
(20.0508 0.00724674 0)
(20.0811 0.00715864 0)
(20.1111 0.00713041 0)
(20.141 0.00710697 0)
(20.171 0.00714241 0)
(20.2008 0.0070201 0)
(20.2307 0.00707766 0)
(20.26 0.00705761 0)
(20.2895 0.00699831 0)
(20.3186 0.00701699 0)
(20.348 0.00688929 0)
(20.3766 0.00689486 0)
(20.4055 0.00681794 0)
(20.4341 0.0068883 0)
(20.4621 0.0066892 0)
(20.4912 0.00672233 0)
(20.5181 0.00670399 0)
(20.5473 0.00670315 0)
(20.5734 0.00660991 0)
(20.6021 0.00644318 0)
(20.6279 0.00655119 0)
(20.6529 0.00652039 0)
(20.6815 0.00657635 0)
(20.7023 0.00663169 0)
(20.7323 0.0067161 0)
(20.7529 0.00663903 0)
(20.784 0.00653535 0)
(20.8004 0.00625531 0)
(20.8232 0.00642713 0)
(20.8476 0.00655695 0)
(20.8612 0.00631708 0)
(20.8926 0.00651928 0)
(20.8977 0.0062223 0)
(20.9297 0.00632652 0)
(20.9309 0.0059118 0)
(20.9565 0.00601017 0)
(20.9653 0.00610104 0)
(20.973 0.00550939 0)
(20.9916 0.00604692 0)
(20.9907 0.0057377 0)
(21.0093 0.00596845 0)
(21.0084 0.00572494 0)
(21.0193 0.00517041 0)
(21.0215 0.00501062 0)
(21.0226 0.00408071 0)
(21.0301 0.00365255 0)
(21.0277 0.00305494 0)
(21.0334 0.00239769 0)
(21.0318 0.00201606 0)
(21.0351 0.00114672 0)
(21.0353 0.000909519 0)
(21.0362 0.000200385 0)
(21.0374 1.71141e-05 0)
(21.0383 -0.000383395 0)
(21.0383 -0.000636625 0)
(21.04 -0.000685673 0)
(21.0388 -0.000925905 0)
(21.0408 -0.000910187 0)
(21.0397 -0.000991261 0)
(21.04 -0.00113603 0)
(21.0413 -0.000925546 0)
(21.0392 -0.00138606 0)
(21.0411 -0.00129943 0)
(21.0402 -0.00154682 0)
(21.0404 -0.00386869 0)
(21.0421 -0.00412145 0)
(21.0419 -0.0159618 0)
(18.7843 0.00122863 0)
(18.8131 0.00226388 0)
(18.8583 0.00270273 0)
(18.9096 0.00325673 0)
(18.9633 0.00361449 0)
(19.0191 0.00367249 0)
(19.0756 0.00360517 0)
(19.131 0.00344419 0)
(19.1837 0.00325152 0)
(19.2338 0.0030355 0)
(19.2811 0.00279755 0)
(19.3256 0.00256657 0)
(19.3674 0.00233744 0)
(19.4067 0.00215049 0)
(19.444 0.00196673 0)
(19.4795 0.00184506 0)
(19.5138 0.00172319 0)
(19.5475 0.00161981 0)
(19.5806 0.00160351 0)
(19.6133 0.00159357 0)
(19.6456 0.00155627 0)
(19.6777 0.00150415 0)
(19.7097 0.00149912 0)
(19.7415 0.0015256 0)
(19.773 0.00152535 0)
(19.8043 0.00150564 0)
(19.8354 0.0014699 0)
(19.8663 0.00144175 0)
(19.8972 0.00143578 0)
(19.9279 0.00145126 0)
(19.9585 0.00149627 0)
(19.989 0.0014284 0)
(20.0194 0.00141571 0)
(20.0498 0.00143996 0)
(20.08 0.00141195 0)
(20.1101 0.00139602 0)
(20.1401 0.00138697 0)
(20.17 0.00141828 0)
(20.1998 0.00131022 0)
(20.2296 0.00138075 0)
(20.2593 0.00137025 0)
(20.2888 0.00138003 0)
(20.3182 0.00136643 0)
(20.3474 0.00131164 0)
(20.3764 0.0013227 0)
(20.4053 0.00127739 0)
(20.4343 0.0013652 0)
(20.463 0.00118075 0)
(20.4915 0.00132096 0)
(20.5199 0.00131299 0)
(20.5484 0.00133171 0)
(20.5767 0.00127798 0)
(20.6048 0.00116738 0)
(20.6329 0.00145084 0)
(20.6606 0.00117535 0)
(20.6884 0.00131387 0)
(20.7157 0.00124373 0)
(20.7433 0.00122608 0)
(20.7705 0.00111701 0)
(20.798 0.00125455 0)
(20.8252 0.00144181 0)
(20.8519 0.00108504 0)
(20.8792 0.00142719 0)
(20.9052 0.000927232 0)
(20.9323 0.00126789 0)
(20.9577 0.00105023 0)
(20.9842 0.00111568 0)
(21.0087 0.00133435 0)
(21.0343 0.00103021 0)
(21.0598 0.00150737 0)
(21.084 0.000899154 0)
(21.1103 0.00149844 0)
(21.1353 0.00148412 0)
(21.1628 0.00160567 0)
(21.1889 0.00172854 0)
(21.2134 0.00144003 0)
(21.2396 0.00168671 0)
(21.2594 0.00115132 0)
(21.2803 0.00129932 0)
(21.2961 0.00101254 0)
(21.3097 0.000733117 0)
(21.3226 0.000559289 0)
(21.3297 0.000223978 0)
(21.3378 2.49485e-05 0)
(21.3417 -0.000323585 0)
(21.3455 -0.000480034 0)
(21.3478 -0.000636405 0)
(21.3483 -0.000833357 0)
(21.3497 -0.000722641 0)
(21.3489 -0.000971983 0)
(21.3497 -0.000895297 0)
(21.3482 -0.000901379 0)
(21.3484 -0.00110588 0)
(21.3471 -0.00085808 0)
(21.3466 -0.0012749 0)
(21.3463 -0.00120587 0)
(21.3454 -0.00153192 0)
(21.3454 -0.00363943 0)
(21.3447 -0.00469593 0)
(21.3436 -0.0139151 0)
(18.7843 -0.00286691 0)
(18.8133 -0.00567239 0)
(18.8586 -0.00644777 0)
(18.9099 -0.00706882 0)
(18.9636 -0.00757485 0)
(19.0194 -0.00773259 0)
(19.0759 -0.00762946 0)
(19.1313 -0.00741858 0)
(19.184 -0.00712918 0)
(19.2341 -0.00680126 0)
(19.2814 -0.00646391 0)
(19.3259 -0.00613386 0)
(19.3677 -0.0058472 0)
(19.407 -0.00558462 0)
(19.4442 -0.00540118 0)
(19.4799 -0.00523717 0)
(19.5143 -0.00514993 0)
(19.5478 -0.00512123 0)
(19.5808 -0.00505838 0)
(19.6135 -0.00499353 0)
(19.646 -0.00496388 0)
(19.6782 -0.00497126 0)
(19.7102 -0.00493442 0)
(19.7419 -0.00486941 0)
(19.7734 -0.00481879 0)
(19.8047 -0.00480231 0)
(19.8358 -0.00479446 0)
(19.8667 -0.00479101 0)
(19.8975 -0.00478363 0)
(19.9282 -0.00477172 0)
(19.9589 -0.00473361 0)
(19.9895 -0.00475071 0)
(20.0198 -0.00474588 0)
(20.05 -0.00468949 0)
(20.0802 -0.00469675 0)
(20.1104 -0.0046962 0)
(20.1403 -0.00469026 0)
(20.1703 -0.00464095 0)
(20.2001 -0.00469958 0)
(20.2299 -0.00464427 0)
(20.2596 -0.00460793 0)
(20.2891 -0.00458008 0)
(20.3185 -0.00454711 0)
(20.3477 -0.00456261 0)
(20.3768 -0.00452604 0)
(20.4056 -0.00454947 0)
(20.4345 -0.00448249 0)
(20.4632 -0.0045871 0)
(20.4917 -0.00446212 0)
(20.5203 -0.0044835 0)
(20.5487 -0.00444865 0)
(20.5772 -0.00446564 0)
(20.6051 -0.00452847 0)
(20.6332 -0.00432083 0)
(20.6608 -0.00451894 0)
(20.6886 -0.00436008 0)
(20.716 -0.00434735 0)
(20.7435 -0.00425927 0)
(20.7707 -0.00428065 0)
(20.7977 -0.00414976 0)
(20.8253 -0.004095 0)
(20.8518 -0.00439957 0)
(20.8789 -0.00404696 0)
(20.9051 -0.00436721 0)
(20.9315 -0.00399205 0)
(20.9573 -0.00406712 0)
(20.9827 -0.00389864 0)
(21.0082 -0.00381229 0)
(21.0327 -0.00414995 0)
(21.0578 -0.00370927 0)
(21.0824 -0.00432865 0)
(21.1076 -0.00408695 0)
(21.1328 -0.00440207 0)
(21.1587 -0.00450219 0)
(21.1834 -0.00432108 0)
(21.2081 -0.00456336 0)
(21.2309 -0.00399063 0)
(21.2514 -0.00400777 0)
(21.271 -0.00334133 0)
(21.2854 -0.00297724 0)
(21.301 -0.00254347 0)
(21.3098 -0.00202767 0)
(21.3201 -0.00179612 0)
(21.3252 -0.00143849 0)
(21.3303 -0.00137834 0)
(21.3344 -0.00109637 0)
(21.3347 -0.00100843 0)
(21.3378 -0.000991461 0)
(21.3366 -0.000837409 0)
(21.3384 -0.000901596 0)
(21.3369 -0.000766964 0)
(21.3367 -0.00077836 0)
(21.3373 -0.000855337 0)
(21.3344 -0.000690497 0)
(21.3361 -0.00102613 0)
(21.3333 -0.00117671 0)
(21.3341 -0.00146181 0)
(21.3333 -0.00324479 0)
(21.3309 -0.00489813 0)
(21.3305 -0.0129453 0)
(18.7846 -0.00688145 0)
(18.8144 -0.013247 0)
(18.86 -0.0151601 0)
(18.9114 -0.0169207 0)
(18.9652 -0.0182393 0)
(19.021 -0.0185974 0)
(19.0777 -0.0183329 0)
(19.1331 -0.0177695 0)
(19.1858 -0.0170182 0)
(19.2359 -0.0161758 0)
(19.2832 -0.015291 0)
(19.3278 -0.0144167 0)
(19.3695 -0.0136253 0)
(19.4087 -0.0129276 0)
(19.446 -0.0124061 0)
(19.4817 -0.0119693 0)
(19.5161 -0.0116716 0)
(19.5495 -0.0115026 0)
(19.5824 -0.0113718 0)
(19.6152 -0.0112807 0)
(19.6478 -0.011216 0)
(19.6801 -0.0111589 0)
(19.7118 -0.0110562 0)
(19.7435 -0.0109582 0)
(19.7751 -0.0108653 0)
(19.8064 -0.0108097 0)
(19.8375 -0.0107614 0)
(19.8684 -0.0107236 0)
(19.8993 -0.0106925 0)
(19.93 -0.01066 0)
(19.9606 -0.0106063 0)
(19.9911 -0.0105833 0)
(20.0214 -0.0105748 0)
(20.0518 -0.0104958 0)
(20.082 -0.0104835 0)
(20.1121 -0.0104632 0)
(20.142 -0.0104535 0)
(20.1719 -0.0103989 0)
(20.2017 -0.010431 0)
(20.2313 -0.0103974 0)
(20.261 -0.0103145 0)
(20.2903 -0.0102669 0)
(20.3196 -0.0102006 0)
(20.3486 -0.0101881 0)
(20.3774 -0.0101264 0)
(20.4062 -0.0100711 0)
(20.4344 -0.010015 0)
(20.4629 -0.010035 0)
(20.4907 -0.00994234 0)
(20.5187 -0.00991694 0)
(20.5464 -0.00985635 0)
(20.5734 -0.00982719 0)
(20.6006 -0.00983667 0)
(20.6268 -0.0096391 0)
(20.6529 -0.00970896 0)
(20.6785 -0.00961183 0)
(20.7031 -0.00959223 0)
(20.7282 -0.00954696 0)
(20.7511 -0.00955539 0)
(20.7745 -0.00945475 0)
(20.796 -0.00941131 0)
(20.8177 -0.00951454 0)
(20.8371 -0.00924293 0)
(20.8566 -0.00936623 0)
(20.8733 -0.00906081 0)
(20.8898 -0.00900398 0)
(20.9053 -0.00876319 0)
(20.917 -0.00860149 0)
(20.9312 -0.00864141 0)
(20.9389 -0.00826074 0)
(20.9506 -0.0086171 0)
(20.9548 -0.00839242 0)
(20.9629 -0.00844307 0)
(20.9659 -0.00835304 0)
(20.9691 -0.00796105 0)
(20.9732 -0.00769666 0)
(20.9726 -0.00705924 0)
(20.9764 -0.00632739 0)
(20.9753 -0.00568554 0)
(20.9781 -0.00459491 0)
(20.9778 -0.00420667 0)
(20.9785 -0.00326106 0)
(20.9805 -0.00265962 0)
(20.9794 -0.00221185 0)
(20.9822 -0.0018311 0)
(20.9806 -0.00158353 0)
(20.9827 -0.0011822 0)
(20.9821 -0.00117645 0)
(20.982 -0.000929903 0)
(20.9835 -0.000912845 0)
(20.9816 -0.000772687 0)
(20.9834 -0.000719896 0)
(20.9816 -0.000809303 0)
(20.9826 -0.000621709 0)
(20.9821 -0.000951148 0)
(20.9808 -0.00102104 0)
(20.9824 -0.0013111 0)
(20.9793 -0.00323884 0)
(20.9802 -0.00460175 0)
(20.9746 -0.0116024 0)
(18.785 -0.0107563 0)
(18.8161 -0.020132 0)
(18.8623 -0.0230514 0)
(18.9137 -0.0258695 0)
(18.9677 -0.0278882 0)
(19.0237 -0.0284102 0)
(19.0804 -0.0279958 0)
(19.136 -0.0271105 0)
(19.1887 -0.0259454 0)
(19.2388 -0.0246478 0)
(19.2862 -0.0232773 0)
(19.3307 -0.0219185 0)
(19.3724 -0.0206794 0)
(19.4117 -0.0195877 0)
(19.4489 -0.0187589 0)
(19.4845 -0.0180594 0)
(19.5189 -0.0175573 0)
(19.5524 -0.0172522 0)
(19.5854 -0.0170488 0)
(19.6181 -0.016918 0)
(19.6505 -0.0168028 0)
(19.6827 -0.0166864 0)
(19.7147 -0.016545 0)
(19.7465 -0.0164386 0)
(19.7781 -0.0163129 0)
(19.8093 -0.016219 0)
(19.8401 -0.0161478 0)
(19.871 -0.0160935 0)
(19.9017 -0.0160367 0)
(19.9322 -0.0159811 0)
(19.9627 -0.0159178 0)
(19.9931 -0.0158592 0)
(20.023 -0.0158513 0)
(20.0531 -0.0157588 0)
(20.0829 -0.0157196 0)
(20.1126 -0.0156589 0)
(20.142 -0.0156144 0)
(20.1711 -0.0155502 0)
(20.2002 -0.0155271 0)
(20.2284 -0.0154905 0)
(20.257 -0.0153696 0)
(20.2842 -0.0152848 0)
(20.3115 -0.0152072 0)
(20.3377 -0.0151732 0)
(20.3627 -0.0151422 0)
(20.3885 -0.0150183 0)
(20.4104 -0.0149472 0)
(20.4344 -0.0149168 0)
(20.4535 -0.0148072 0)
(20.4747 -0.0147232 0)
(20.4909 -0.014593 0)
(20.5078 -0.0144824 0)
(20.5214 -0.0143006 0)
(20.5317 -0.014034 0)
(20.5437 -0.0138248 0)
(20.5478 -0.0135352 0)
(20.5546 -0.013196 0)
(20.555 -0.0129586 0)
(20.5555 -0.0126455 0)
(20.553 -0.0122693 0)
(20.5489 -0.0118921 0)
(20.5432 -0.0116267 0)