/*--------------------------------*- C++ -*----------------------------------*\
| =========                 |                                                 |
| \\      /  F ield         | OpenFOAM: The Open Source CFD Toolbox           |
|  \\    /   O peration     | Version:  v2012                                 |
|   \\  /    A nd           | Website:  www.openfoam.com                      |
|    \\/     M anipulation  |                                                 |
\*---------------------------------------------------------------------------*/
FoamFile
{
    version     2.0;
    format      ascii;
    class       volScalarField;
    location    "0.365";
    object      omega.air;
}
// * * * * * * * * * * * * * * * * * * * * * * * * * * * * * * * * * * * * * //

dimensions      [0 0 -1 0 0 0 0];


internalField   nonuniform List<scalar> 
5600
(
6586.29
7485.5
7886.8
7965.17
7866.41
7687.44
7480.98
7290.03
7125.34
6987.77
6878.92
6796.29
6736.28
6693.39
6663.68
6642.28
6627.09
6614.8
6605.37
6596.45
6589.64
6582.63
6577.87
6573.09
6570.52
6567.58
6566.37
6564.61
6564.08
6562.72
6562.16
6560.56
6559.63
6557.67
6556.48
6554.33
6553.04
6550.83
6549.57
6547.42
6546.3
6544.32
6543.43
6541.66
6541.06
6539.57
6539.26
6537.98
6537.91
6536.75
6536.91
6535.86
6536.19
6535.31
6535.85
6535.09
6535.89
6535.27
6536.31
6535.88
6537.18
6536.84
6538.44
6538.18
6540.04
6539.84
6541.99
6541.82
6544.26
6544.08
6546.84
6546.63
6549.73
6549.46
6552.92
6552.56
6556.4
6555.93
6560.11
6559.55
6563.98
6563.45
6567.9
6567.66
6571.69
6572.39
6575.02
6578.11
6577.16
6586.01
6576.68
6598.54
6569.15
6622.87
6540.66
6683.47
6440.62
6868.28
6038.29
7486.38
2450.54
2296.55
2571.65
2795.1
2928.19
2998.04
3010.26
2968.23
2968.91
3017.27
3073.44
3119
3147.16
3158.48
3154.9
3140.53
3118.26
3091.29
3062.13
3032.56
3003.22
2973.99
2945.02
2916.51
2889.21
2863.29
2839.67
2817.46
2797.58
2778.6
2761.96
2745.94
2732.07
2718.69
2707.17
2696
2686.39
2677.03
2668.96
2661.1
2654.29
2647.66
2641.88
2636.28
2631.28
2626.33
2621.88
2617.44
2613.47
2609.56
2606.02
2602.6
2599.56
2596.5
2593.88
2591.24
2588.99
2586.7
2584.8
2582.73
2581.11
2579.33
2577.93
2576.38
2575.18
2573.82
2572.79
2571.63
2570.71
2569.77
2568.97
2568.19
2567.52
2566.89
2566.35
2565.86
2565.42
2565.06
2564.68
2564.45
2564.06
2564.03
2563.56
2563.84
2563.14
2563.98
2562.67
2564.68
2561.81
2566.36
2559.4
2570.77
2552.86
2582.38
2534.75
2614.68
2478.28
2715.96
2277.75
3070.9
2358.54
1859.93
1592.13
1427.83
1346.08
1273.82
1279.96
1309.15
1351.9
1412.45
1482.27
1549.53
1611.13
1663.94
1704.86
1733.43
1749.09
1752.48
1744.29
1726.49
1702.37
1676.78
1653.6
1634.9
1619.45
1605.79
1593.23
1581.77
1571.23
1561
1551.15
1540.95
1531.32
1521.67
1512.9
1504.19
1496.4
1488.69
1481.88
1475.16
1469.22
1463.35
1458.13
1452.87
1448.27
1443.65
1439.6
1435.5
1431.93
1428.31
1425.17
1421.97
1419.25
1416.43
1414.07
1411.58
1409.54
1407.33
1405.55
1403.55
1401.98
1400.16
1398.78
1397.11
1395.91
1394.36
1393.32
1391.9
1391
1389.73
1388.94
1387.81
1387.13
1386.12
1385.53
1384.64
1384.09
1383.34
1382.76
1382.21
1381.5
1381.3
1380.25
1380.67
1378.9
1380.52
1377.22
1381.14
1374.73
1383.23
1370.37
1388.33
1361.8
1400.03
1343.69
1425.85
1304.76
1478.93
1228.57
1557.19
2345.16
1822.38
1493.22
1267.66
1111.15
992.612
906.861
846.934
802.648
776.732
760.405
769.456
791.624
824.1
860.913
902.277
941.251
978.66
1011.2
1039.64
1061.38
1079.17
1091.62
1100.98
1105.7
1107.17
1103.57
1097.11
1087.6
1078.02
1068.45
1060.71
1053.94
1048.04
1042.52
1037.34
1032.49
1027.85
1023.56
1019.24
1015.12
1010.64
1006.17
1001.44
996.998
992.456
988.341
984.181
980.476
976.737
973.446
970.122
967.222
964.272
961.705
959.012
956.663
954.156
951.989
949.643
947.645
945.45
943.621
941.571
939.91
938.003
936.505
934.745
933.407
931.786
930.587
929.115
928.022
926.679
925.651
924.437
923.437
922.424
921.386
920.649
919.422
919.126
917.48
917.932
915.456
917.2
913.172
917.142
910.309
918.136
906.348
920.829
900.499
926.194
891.801
934.598
880.737
942.228
875.168
926.801
2341.97
1815.97
1479.81
1247.93
1079.72
952.569
853.193
774.613
710.644
658.901
616.092
581.963
556.199
536.187
523.572
514.783
513.793
520.898
532.266
549.211
568.533
591.933
616.095
642.244
667.063
692.203
713.806
733.356
748.186
760.889
769.721
777.427
782.148
786.059
787.264
787.763
785.851
783.563
779.519
775.789
771.22
767.608
764.174
761.32
758.407
755.729
753.025
750.456
747.968
745.575
743.34
741.145
739.065
736.962
734.805
732.432
730.122
727.684
725.392
723
720.802
718.509
716.44
714.275
712.358
710.342
708.584
706.724
705.12
703.398
701.915
700.287
698.864
697.324
695.922
694.502
693.079
691.837
690.353
689.385
687.742
687.179
685.215
685.27
682.71
683.731
680.149
682.614
677.431
681.995
674.472
681.902
671.327
682.083
668.517
681.437
667.678
677.19
671.781
664.963
2341.13
1814.12
1476.76
1243.88
1074.17
945.326
844.331
763.138
696.59
641.021
594.191
554.015
519.691
489.845
464.18
441.875
422.651
406.903
393.56
383.412
375.254
370.386
367.303
368.997
373.101
381.375
391.42
405.411
419.973
437.798
454.607
473.78
490.926
509.291
524.58
540.269
552.272
564.145
572.373
580.454
585.553
590.728
593.885
597.31
598.934
600.763
600.932
601.293
600.188
599.324
597.307
595.62
593.225
591.222
589.085
587.473
585.726
584.281
582.705
581.301
579.831
578.44
577.072
575.715
574.467
573.174
572.032
570.811
569.7
568.501
567.3
565.927
564.59
563.186
561.773
560.43
558.946
557.718
556.137
555.106
553.394
552.652
550.735
550.393
548.162
548.349
545.671
546.514
543.263
544.845
540.979
543.233
538.941
541.425
537.392
539.051
536.589
535.866
535.991
532.42
2340.86
1813.43
1475.76
1242.6
1072.62
943.433
842.136
760.548
693.582
637.511
590.061
549.212
513.895
482.867
455.627
431.338
409.783
390.357
373.052
357.345
343.366
330.649
319.417
309.354
300.767
293.28
287.197
282.343
278.877
276.859
276.532
278.448
281.701
287.355
293.958
303.047
312.461
324.199
335.45
348.566
360.513
374.023
385.574
398.385
408.863
420.298
429.171
438.691
445.601
452.907
457.795
462.934
466.095
469.463
471.444
473.824
475.087
476.673
477.311
478.182
478.25
478.473
478.039
477.699
476.86
476.071
474.97
473.878
472.744
471.57
470.536
469.567
468.668
467.8
466.922
466.124
465.204
464.481
463.47
462.853
461.719
461.255
459.973
459.701
458.25
458.177
456.542
456.658
454.83
455.082
453.099
453.38
451.329
451.466
449.446
449.384
447.355
447.302
444.541
445.252
2340.76
1813.12
1475.33
1242.06
1072
942.724
841.353
759.668
692.627
636.44
588.911
547.909
512.508
481.257
453.91
429.282
407.567
387.638
370.029
353.553
339.044
325.186
313.092
301.271
291.125
280.947
272.43
263.624
256.519
248.92
243.114
236.718
232.204
227.014
223.81
219.932
218.121
215.727
215.445
215.056
216.678
218.397
221.92
225.781
231.145
237.031
244.022
251.605
259.822
268.516
277.406
286.645
295.678
304.877
313.429
322.035
329.86
337.621
344.539
351.264
357.146
362.71
367.488
371.832
375.515
378.667
381.362
383.452
385.37
386.692
388.077
388.991
390.04
390.616
391.338
391.626
392.008
392.055
392.094
391.945
391.638
391.341
390.701
390.305
389.359
388.914
387.693
387.237
385.78
385.33
383.678
383.236
381.421
381.044
379.058
378.757
376.459
376.301
373.408
373.32
2340.71
1812.97
1475.12
1241.81
1071.71
942.4
841.001
759.287
692.222
636.005
588.454
547.418
511.994
480.702
453.331
428.654
406.909
386.918
369.266
352.708
338.133
324.159
311.964
299.977
289.669
279.236
270.458
261.264
253.752
245.557
239.116
231.74
226.231
219.538
214.858
208.753
204.829
199.248
196.037
190.97
188.481
183.93
182.166
178.174
177.166
173.814
173.616
171.013
171.701
170.123
171.863
171.43
174.249
175.071
179
181.098
186.09
189.402
195.342
199.718
206.419
211.63
218.848
224.568
232.02
237.97
245.38
251.279
258.314
263.84
270.286
275.32
281.096
285.585
290.631
294.539
298.809
302.114
305.58
308.28
310.932
313.044
314.898
316.462
317.563
318.646
319.069
319.751
319.592
319.955
319.332
319.471
318.491
318.541
317.242
317.103
315.457
315.103
313.102
312.283
2340.68
1812.89
1475.02
1241.7
1071.57
942.26
840.837
759.13
692.034
635.833
588.241
547.232
511.756
480.504
453.067
428.444
406.615
386.696
368.938
352.474
337.767
323.91
311.553
299.709
289.201
278.94
269.919
260.924
253.117
245.146
238.347
231.216
225.267
218.831
213.604
207.752
203.149
197.79
193.732
188.795
185.221
180.65
177.512
173.265
170.527
166.573
164.209
160.53
158.523
155.122
153.472
150.357
149.067
146.259
145.34
142.878
142.348
140.284
140.169
138.561
138.898
137.813
138.636
138.231
139.584
139.88
141.762
142.786
145.184
146.921
149.779
152.17
155.417
158.376
161.922
165.344
169.092
172.86
176.706
180.694
184.533
188.612
192.345
196.392
199.928
203.83
207.093
210.742
213.664
216.966
219.489
222.339
224.413
226.69
228.401
230.311
231.756
233.221
234.382
235.266
2340.68
1812.91
1475.03
1241.71
1071.58
942.284
840.844
759.157
692.036
635.865
588.236
547.27
511.744
480.549
453.046
428.496
406.585
386.758
368.897
352.547
337.714
323.996
311.487
299.808
289.121
279.054
269.825
261.055
253.007
245.298
238.221
231.392
225.124
219.034
213.449
207.987
202.984
198.065
193.563
189.122
185.06
181.048
177.376
173.758
170.441
167.194
164.213
161.332
158.689
156.18
153.88
151.761
149.828
148.133
146.607
145.379
144.315
143.61
143.076
143.002
143.13
143.744
144.583
145.929
147.526
149.63
151.995
154.816
157.896
161.355
165.053
169.04
173.225
177.596
182.113
186.711
191.391
196.05
200.721
205.283
209.789
214.113
218.322
222.252
226.012
229.477
232.751
235.747
238.535
241.07
243.391
245.48
247.35
249.018
250.446
251.685
252.682
253.533
254.166
254.743
2340.71
1813
1475.15
1241.86
1071.74
942.466
841.029
759.363
692.237
636.092
588.453
547.516
511.975
480.817
453.292
428.788
406.847
387.075
369.179
352.893
338.019
324.377
311.823
300.233
289.502
279.54
270.27
261.626
253.55
245.996
238.915
232.285
226.059
220.23
214.76
209.651
204.874
200.445
196.362
192.622
189.237
186.216
183.577
181.34
179.533
178.179
177.323
177.082
177.427
178.417
180.043
182.357
185.325
188.967
193.241
198.122
203.567
209.502
215.888
222.582
229.581
236.718
244.001
251.239
258.47
265.442
272.232
278.657
284.858
290.643
296.168
301.245
306.032
310.354
314.366
317.91
321.134
323.907
326.359
328.397
330.129
331.504
332.599
333.434
334.046
334.468
334.771
334.91
334.933
334.808
334.56
334.177
333.664
333.032
332.267
331.406
330.42
329.383
328.283
327.243
2340.76
1813.17
1475.39
1242.15
1072.07
942.822
841.415
759.775
692.675
636.558
588.944
548.04
512.525
481.406
453.91
429.458
407.552
387.853
370.006
353.826
339.027
325.54
313.105
301.747
291.222
281.613
272.688
264.579
257.063
250.34
244.219
238.886
234.158
230.276
227.046
224.765
223.202
222.817
223.49
225.321
228.241
232.325
237.479
243.716
250.896
258.951
267.703
276.959
286.611
296.424
306.334
316.026
325.444
334.473
343.073
351.154
358.691
365.616
371.917
377.553
382.531
386.842
390.518
393.589
396.111
398.167
399.859
401.301
402.535
403.551
404.386
405.011
405.477
405.751
405.88
405.832
405.656
405.325
404.887
404.323
403.676
402.941
402.144
401.332
400.47
399.632
398.809
397.988
397.148
396.291
395.397
394.476
393.502
392.496
391.433
390.343
389.203
388.067
386.941
385.924
2340.87
1813.49
1475.85
1242.71
1072.73
943.558
842.249
760.682
693.692
637.656
590.18
549.374
514.045
483.073
455.847
431.634
410.13
390.85
373.64
358.172
344.353
332.009
321.097
311.741
303.656
297.151
291.93
288.43
286.31
286.459
288.568
292.782
298.884
306.929
316.616
327.792
340.094
353.153
366.645
380.344
393.806
406.909
419.349
431.063
441.761
451.454
459.898
467.212
473.25
478.259
482.204
485.389
488.036
490.206
491.941
493.26
494.188
494.741
494.945
494.822
494.404
493.726
492.829
491.758
490.568
489.343
488.134
487.05
486.032
485.059
484.103
483.158
482.212
481.269
480.322
479.374
478.428
477.49
476.564
475.654
474.762
473.88
473.022
472.147
471.29
470.376
469.404
468.4
467.363
466.316
465.248
464.183
463.096
462.023
460.928
459.859
458.778
457.745
456.781
455.976
2341.15
1814.19
1476.91
1243.99
1074.37
945.465
844.556
763.344
696.862
641.371
594.589
554.62
520.503
490.959
465.765
443.829
425.82
410.635
398.925
389.606
383.741
380.084
380.942
385.399
393.439
404.669
418.831
435.246
453.414
472.412
491.919
511.213
529.564
546.64
561.813
575.036
585.95
594.933
601.976
607.592
612.152
615.742
618.424
620.21
621.134
621.254
620.628
619.39
617.624
615.553
613.243
611.017
609.053
607.253
605.537
603.877
602.236
600.621
599.018
597.451
595.911
594.428
592.986
591.609
590.256
588.946
587.589
586.136
584.6
583.038
581.445
579.859
578.271
576.702
575.139
573.603
572.092
570.619
569.186
567.794
566.446
565.145
563.891
562.68
561.51
560.375
559.263
558.177
557.102
556.056
555.011
554.002
552.986
552.02
551.038
550.119
549.202
548.372
547.654
547.153
2342.03
1815.98
1480.11
1247.96
1080.28
952.708
854.159
775.206
712.345
660.618
619.074
586.932
562.599
545.504
534.588
530.074
534.451
545.063
561.028
581.077
604.569
630.609
657.65
684.795
711.041
734.719
754.97
771.335
784.177
794.173
801.84
807.312
810.765
812.231
811.876
809.914
806.642
802.65
798.214
794.142
790.649
787.471
784.453
781.474
778.553
775.676
772.905
770.233
767.704
765.258
762.9
760.507
757.93
755.277
752.583
749.907
747.251
744.655
742.108
739.643
737.243
734.939
732.708
730.582
728.531
726.584
724.699
722.889
721.107
719.383
717.678
716.026
714.396
712.815
711.265
709.774
708.327
706.939
705.598
704.312
703.073
701.888
700.748
699.661
698.614
697.621
696.663
695.749
694.86
694.016
693.183
692.399
691.612
690.886
690.146
689.479
688.822
688.272
687.879
687.786
2345.25
1822.39
1493.86
1268.16
1113.23
994.179
912.591
852.017
814.511
787.869
783.658
800.118
829.082
866.04
907.634
950.23
990.289
1026.98
1058.27
1083.61
1103.44
1118.45
1129.08
1135.73
1137.46
1134.74
1127.99
1118.69
1108.64
1099.46
1091.81
1085.13
1079.05
1073.27
1067.82
1062.62
1057.75
1052.99
1048.38
1043.52
1038.47
1033.33
1028.23
1023.25
1018.46
1013.89
1009.56
1005.45
1001.59
997.954
994.541
991.334
988.274
985.352
982.537
979.836
977.226
974.723
972.304
969.989
967.755
965.622
963.568
961.616
959.741
957.964
956.26
954.649
953.098
951.622
950.194
948.83
947.506
946.247
945.041
943.895
942.789
941.739
940.724
939.761
938.84
937.961
937.122
936.325
935.565
934.85
934.169
933.531
932.919
932.355
931.803
931.304
930.799
930.365
929.906
929.545
929.188
928.982
928.984
929.415
2358.73
1860.91
1594.77
1434.01
1353.99
1288.99
1305.25
1337.29
1392.12
1465.15
1539.73
1610.28
1672.38
1723.06
1760.08
1783.38
1792.54
1788.85
1773.31
1750.18
1724.15
1700.71
1682.17
1666.51
1652.51
1639.48
1627.39
1615.94
1604.93
1593.83
1582.73
1571.91
1561.57
1551.73
1542.45
1533.71
1525.55
1517.91
1510.81
1504.16
1497.94
1492.03
1486.48
1481.29
1476.43
1471.85
1467.55
1463.51
1459.72
1456.17
1452.85
1449.75
1446.84
1444.13
1441.57
1439.17
1436.9
1434.76
1432.72
1430.8
1428.96
1427.22
1425.57
1424
1422.51
1421.1
1419.76
1418.5
1417.31
1416.18
1415.12
1414.12
1413.19
1412.29
1411.45
1410.64
1409.86
1409.11
1408.41
1407.74
1407.11
1406.52
1405.97
1405.45
1404.97
1404.53
1404.13
1403.76
1403.43
1403.14
1402.86
1402.64
1402.41
1402.27
1402.07
1402.06
1401.95
1402.22
1402.69
1403.85
2454.74
2305.68
2580.44
2808.67
2934.22
3010.01
2994.58
2967.45
3014.83
3085.64
3150.03
3196.61
3222.41
3229.88
3222.22
3203.95
3178.36
3148.8
3117.79
3086.34
3054.82
3023.05
2991.97
2961.67
2933.61
2907.2
2882.91
2860.48
2839.9
2820.98
2803.65
2787.82
2773.39
2760.22
2748.2
2737.21
2727.14
2717.94
2709.48
2701.76
2694.61
2688.06
2682
2676.3
2670.91
2665.81
2660.99
2656.44
2652.17
2648.16
2644.41
2640.9
2637.62
2634.57
2631.73
2629.08
2626.6
2624.29
2622.12
2620.1
2618.18
2616.4
2614.71
2613.13
2611.67
2610.28
2609.01
2607.8
2606.71
2605.68
2604.74
2603.89
2603.1
2602.38
2601.71
2601.1
2600.53
2600.01
2599.52
2599.09
2598.69
2598.35
2598.05
2597.8
2597.6
2597.44
2597.33
2597.27
2597.24
2597.27
2597.33
2597.44
2597.55
2597.76
2597.92
2598.33
2598.52
2599.46
2600.42
2602.42
6588.08
7481.93
7876.77
7936
7826.39
7629.93
7415.07
7222.09
7053.54
6914.35
6805.38
6723.41
6664.03
6621.63
6591.85
6570.23
6554.28
6541.58
6531.21
6522.48
6514.92
6508.91
6504.01
6500.33
6497.42
6495.11
6493.3
6491.84
6490.47
6489.03
6487.34
6485.47
6483.4
6481.23
6478.93
6476.61
6474.25
6471.94
6469.66
6467.49
6465.43
6463.49
6461.71
6460.09
6458.62
6457.29
6456.06
6454.94
6453.9
6452.96
6452.09
6451.33
6450.67
6450.13
6449.7
6449.38
6449.18
6449.09
6449.12
6449.25
6449.5
6449.82
6450.27
6450.8
6451.42
6452.11
6452.9
6453.77
6454.73
6455.77
6456.9
6458.1
6459.39
6460.74
6462.18
6463.68
6465.24
6466.85
6468.52
6470.22
6471.97
6473.74
6475.56
6477.41
6479.3
6481.22
6483.19
6485.19
6487.25
6489.32
6491.46
6493.61
6495.85
6498.06
6500.43
6502.58
6504.92
6506.74
6507.98
6507.89
5492.97
3367.89
2415.04
1948.15
1665.21
1480.72
1346.83
1245.98
1163.92
1095.6
1037.19
985.885
940.035
898.603
860.797
825.751
793.042
762.102
732.468
704.054
676.674
650.283
624.9
600.526
577.093
554.655
533.18
512.692
493.155
474.545
456.861
440.141
424.352
409.441
395.347
382.004
369.36
357.367
345.976
335.144
324.834
315.012
305.65
296.718
288.195
280.055
272.283
264.85
257.751
250.952
244.459
238.225
232.275
226.542
221.078
215.782
210.751
205.831
201.182
196.582
192.27
187.939
183.92
179.82
176.044
172.156
168.575
164.885
161.459
157.952
154.676
151.338
148.222
145.041
142.098
139.084
136.339
133.486
130.981
128.29
126.089
123.574
121.715
119.353
117.884
115.661
114.606
112.518
111.781
109.899
109.345
107.816
107.262
106.101
105.413
104.533
103.936
103.073
102.897
101.724
1531.38
2570.84
2357.59
1985.38
1701.81
1501.81
1354.81
1243.71
1154.09
1081.1
1019.82
966.813
920.523
879.588
842.858
809.249
778.142
748.882
720.987
694.309
668.631
643.837
619.874
596.737
574.299
552.654
531.747
511.721
492.407
473.944
456.186
439.412
423.617
408.713
394.624
381.276
368.618
356.599
345.171
334.293
323.929
314.046
304.62
295.623
287.035
278.83
270.995
263.502
256.346
249.492
242.948
236.665
230.671
224.895
219.394
214.061
208.998
204.046
199.371
194.744
190.411
186.06
182.025
177.913
174.125
170.232
166.645
162.96
159.534
156.042
152.775
149.463
146.369
143.225
140.318
137.354
134.659
131.875
129.429
126.825
124.685
122.275
120.47
118.226
116.792
114.689
113.645
111.661
110.905
109.094
108.499
106.994
106.399
105.196
104.494
103.488
102.907
101.877
101.708
100.407
1128.37
1419.17
1804.33
1801.26
1642.33
1475.58
1336.8
1225.23
1133.64
1058.29
995.294
941.385
895.03
854.654
818.917
786.625
757.046
729.405
703.317
678.51
654.692
631.704
609.423
587.806
566.707
546.239
526.293
507.121
488.449
470.541
453.103
436.539
420.928
406.183
392.225
378.983
366.413
354.463
343.086
332.24
321.895
312.021
302.596
293.595
284.999
276.785
268.94
261.436
254.269
247.405
240.851
234.559
228.558
222.774
217.268
211.928
206.862
201.906
197.231
192.603
188.272
183.924
179.894
175.791
172.013
168.136
164.563
160.903
157.5
154.045
150.811
147.549
144.502
141.424
138.581
135.702
133.088
130.409
128.056
125.579
123.534
121.272
119.549
117.466
116.091
114.145
113.13
111.277
110.519
108.79
108.17
106.688
106.07
104.811
104.115
102.967
102.416
101.212
101.052
99.6261
895.221
846.416
1029.32
1250.71
1340.49
1313.67
1239.05
1156.52
1080.02
1012.59
954.451
904.226
860.594
822.4
788.636
758.256
730.534
704.725
680.491
657.532
635.527
614.327
593.778
573.742
554.109
535.015
516.311
498.293
480.643
463.635
447.032
431.06
415.876
401.464
387.775
374.757
362.383
350.6
339.361
328.632
318.386
308.6
299.253
290.323
281.794
273.642
265.856
258.408
251.294
244.481
237.976
231.73
225.773
220.032
214.566
209.265
204.237
199.318
194.679
190.086
185.79
181.479
177.485
173.422
169.683
165.853
162.325
158.721
155.371
151.985
148.817
145.641
142.677
139.706
136.967
134.217
131.729
129.204
126.99
124.693
122.785
120.725
119.122
117.249
115.961
114.213
113.245
111.548
110.802
109.162
108.53
107.061
106.434
105.1
104.424
103.116
102.602
101.216
101.065
99.5129
675.199
655.895
666.653
732.714
836.553
922.027
960.694
959.794
936.413
903.189
867.523
833.225
801.179
771.584
744.362
719.133
695.47
673.102
651.679
631.125
611.235
591.965
573.189
554.833
536.786
519.206
501.955
485.307
468.905
452.991
437.53
422.485
408.025
394.173
380.928
368.28
356.234
344.726
333.718
323.192
313.129
303.513
294.327
285.552
277.173
269.167
261.521
254.209
247.227
240.54
234.157
228.027
222.182
216.547
211.184
205.979
201.045
196.215
191.662
187.152
182.937
178.707
174.791
170.811
167.152
163.41
159.968
156.464
153.21
149.939
146.883
143.843
141.014
138.204
135.626
133.067
130.765
128.462
126.445
124.396
122.68
120.885
119.444
117.838
116.661
115.154
114.243
112.725
111.99
110.443
109.797
108.324
107.689
106.255
105.603
104.111
103.634
102.055
101.905
100.222
530.564
531.08
526.747
527.665
540.703
566.745
598.836
629.869
653.286
668.152
674.724
675.744
672.694
666.541
657.875
647.297
635.079
621.735
607.332
592.292
576.749
560.991
545.025
529.164
513.302
497.631
482.093
466.892
451.959
437.372
423.252
409.502
396.19
383.244
370.726
358.701
347.202
336.133
325.499
315.309
305.559
296.242
287.347
278.856
270.752
263.016
255.633
248.575
241.837
235.386
229.227
223.312
217.671
212.23
207.051
202.022
197.254
192.584
188.183
183.823
179.749
175.661
171.881
168.041
164.517
160.921
157.621
154.275
151.178
148.084
145.206
142.37
139.747
137.175
134.836
132.551
130.514
128.518
126.776
125.058
123.598
122.142
120.906
119.622
118.573
117.34
116.476
115.147
114.401
112.934
112.251
110.747
110.083
108.516
107.87
106.169
105.714
103.924
103.763
101.936
439.3
441.192
439.556
434.49
427.959
422.587
418.247
416.362
416.723
420.704
427.741
437.896
450.455
464.598
478.775
491.952
502.655
510.311
514.124
514.279
510.888
504.906
496.597
486.755
475.767
464.057
451.801
439.153
426.595
414.06
401.711
389.552
377.524
365.913
354.653
343.776
333.266
322.965
313.019
303.482
294.362
285.656
277.351
269.431
261.874
254.662
247.775
241.187
234.892
228.857
223.089
217.539
212.239
207.118
202.239
197.493
192.99
188.573
184.411
180.283
176.429
172.56
168.989
165.365
162.049
158.673
155.591
152.48
149.621
146.789
144.177
141.639
139.32
137.089
135.093
133.192
131.525
129.943
128.569
127.275
126.14
125.09
124.091
123.168
122.234
121.286
120.419
119.268
118.44
117.025
116.238
114.664
113.917
112.176
111.496
109.555
109.091
107.066
106.871
104.88
369.172
371.219
371.069
367.562
360.887
352.133
341.781
330.739
319.456
308.885
299.413
291.895
287.107
285.893
288.851
296.282
307.87
322.807
339.607
356.796
372.219
385.506
394.162
399.247
401.17
400.272
397.094
391.925
385.435
377.886
369.589
360.769
351.374
342
332.366
322.73
313.151
304.061
295.392
287.116
279.209
271.654
264.43
257.518
250.897
244.548
238.456
232.599
226.973
221.554
216.351
211.321
206.502
201.826
197.358
192.999
188.857
184.784
180.945
177.133
173.58
170.012
166.731
163.405
160.383
157.316
154.544
151.766
149.249
146.788
144.559
142.442
140.555
138.801
137.284
135.903
134.733
133.684
132.776
131.991
131.231
130.624
129.849
129.275
128.383
127.677
126.685
125.657
124.612
123.196
122.18
120.488
119.554
117.605
116.81
114.604
114.075
111.791
111.529
109.352
309.708
309.59
308.544
305.204
299.411
291.477
282.163
272.059
262.274
253.041
245.437
239.548
235.684
233.663
233.47
234.483
236.934
240.112
244.901
250.221
257.663
265.098
275.429
286.4
296.955
306.185
313.705
319.031
322.156
323.117
322.067
319.229
314.704
308.651
302.162
295.479
288.504
281.821
275.381
269.15
263.101
257.221
251.5
245.932
240.511
235.235
230.102
225.105
220.253
215.532
210.962
206.511
202.221
198.035
194.021
190.09
186.35
182.665
179.197
175.753
172.555
169.35
166.427
163.477
160.832
158.166
155.809
153.477
151.428
149.473
147.774
146.234
144.941
143.829
142.95
142.239
141.694
141.282
140.904
140.653
140.244
140.018
139.352
139.006
137.97
137.369
136.031
135.015
133.525
132.04
130.593
128.749
127.464
125.295
124.257
121.786
121.101
118.552
118.173
115.806
235.952
236.736
237.137
236.705
235.497
233.947
232.743
232.514
233.871
236.76
241.383
246.941
253.337
259.948
266.043
271.317
275.557
278.869
281.41
283.092
284.198
285.09
285.781
286.602
287.629
288.812
290.055
291.161
292.026
292.425
292.281
291.35
289.644
286.876
283.5
279.738
275.579
271.165
266.586
261.904
257.16
252.389
247.616
242.864
238.15
233.49
228.899
224.383
219.964
215.635
211.424
207.311
203.338
199.457
195.738
192.1
188.651
185.266
182.1
178.978
176.11
173.264
170.712
168.172
165.96
163.774
161.929
160.159
158.717
157.42
156.424
155.633
155.116
154.812
154.721
154.788
154.925
155.14
155.215
155.348
155.079
154.968
154.112
153.684
152.176
151.411
149.398
148.224
145.982
144.369
142.218
140.239
138.368
136.037
134.561
131.895
130.912
128.15
127.579
125.078
255.235
255.711
256.43
258.121
261.057
265.607
271.549
278.933
287.002
295.64
304.133
312.193
319.119
324.761
329.278
332.784
335.435
337.469
339.007
340.125
340.948
341.261
341.159
340.649
339.82
338.657
337.175
335.376
333.265
330.788
327.976
324.718
321.117
316.998
312.379
307.383
302.05
296.454
290.674
284.787
278.857
272.946
267.095
261.337
255.7
250.199
244.849
239.657
234.64
229.789
225.125
220.631
216.34
212.205
208.288
204.516
200.984
197.581
194.445
191.421
188.697
186.069
183.785
181.593
179.786
178.085
176.793
175.651
174.909
174.37
174.192
174.246
174.586
175.109
175.769
176.473
177.067
177.565
177.679
177.689
177.046
176.492
174.957
173.949
171.572
170.28
167.286
165.774
162.517
160.781
157.667
155.691
152.969
150.679
148.504
145.87
144.382
141.616
140.739
138.306
326.402
325.739
325.71
327.012
329.863
334.198
339.762
346.311
353.347
360.743
368.106
375.094
381.47
387.115
392.001
396.08
399.471
402.052
403.925
405.193
405.946
406.223
406.053
405.433
404.361
402.798
400.736
398.227
395.162
391.622
387.474
382.822
377.568
371.785
365.579
358.993
352.014
344.74
337.259
329.66
322.016
314.407
306.886
299.503
292.302
285.312
278.553
272.044
265.81
259.841
254.157
248.749
243.644
238.798
234.261
229.972
226.01
222.279
218.895
215.729
212.942
210.36
208.203
206.253
204.773
203.507
202.735
202.195
202.132
202.306
202.881
203.642
204.646
205.677
206.682
207.476
207.916
207.994
207.46
206.643
205.035
203.463
200.858
198.864
195.435
193.374
189.364
187.431
183.162
181.381
177.236
175.484
171.736
169.811
166.699
164.502
162.261
159.909
158.558
156.604
385.165
384.675
384.952
386.679
390.147
395.276
401.941
409.788
418.518
427.483
436.202
444.403
451.819
458.383
463.969
468.646
472.381
475.285
477.329
478.622
479.128
478.925
477.991
476.385
474.054
471.077
467.433
463.163
458.263
452.806
446.735
440.196
433.119
425.671
417.945
409.897
401.658
393.314
384.908
376.488
368.089
359.763
351.534
343.441
335.524
327.814
320.324
313.09
306.147
299.489
293.139
287.107
281.425
276.057
271.049
266.359
262.053
258.058
254.478
251.207
248.392
245.886
243.889
242.207
241.083
240.267
240.016
240.042
240.586
241.327
242.446
243.589
244.845
245.828
246.561
246.734
246.334
245.31
243.57
241.432
238.532
235.661
231.888
228.782
224.392
221.515
216.7
214.34
209.292
207.517
202.476
201.104
196.301
195.069
190.859
189.581
186.322
184.967
182.894
182.049
455.499
455.36
456.07
458.395
462.702
468.942
476.911
486.305
496.621
507.466
518.202
528.466
537.886
546.185
553.14
558.695
562.757
565.405
566.593
566.457
564.955
562.255
558.411
553.514
547.701
541.104
533.908
526.206
518.165
509.801
501.273
492.604
483.904
475.165
466.342
457.47
448.672
439.972
431.362
422.859
414.47
406.215
398.093
390.122
382.335
374.744
367.349
360.194
353.319
346.705
340.374
334.358
328.694
323.35
318.371
313.727
309.484
305.59
302.147
299.076
296.514
294.339
292.735
291.526
290.931
290.689
291.032
291.62
292.688
293.805
295.178
296.277
297.267
297.581
297.409
296.319
294.548
291.967
288.731
285.054
280.79
276.577
271.728
267.561
262.426
258.789
253.464
250.679
245.183
243.38
237.701
236.756
231.039
230.762
225.389
225.544
221
221.416
218.243
219.484
547.075
547.435
548.857
552.293
558.284
566.785
577.618
590.334
604.371
619.002
633.386
646.862
658.784
668.543
675.877
680.58
682.644
682.162
679.303
674.339
667.487
659.134
649.538
638.979
627.841
616.291
604.647
593
581.543
570.338
559.524
549.086
539.065
529.434
520.124
511.148
502.426
493.918
485.611
477.492
469.556
461.811
454.246
446.859
439.684
432.716
425.934
419.39
413.134
407.11
401.35
395.909
390.82
386.035
381.597
377.486
373.777
370.435
367.567
365.112
363.202
361.728
360.856
360.412
360.582
361.075
362.081
363.199
364.637
365.863
367.091
367.647
367.797
366.847
365.225
362.415
358.972
354.633
349.836
344.609
339.074
333.626
327.889
322.798
317.163
312.876
307.366
304.171
298.583
296.644
290.742
290.171
283.928
284.721
278.364
280.427
274.435
277.604
272.837
277.703
688.254
689.312
691.756
696.936
705.674
717.962
733.51
751.513
771.086
790.676
809.199
825.151
837.597
845.696
849.315
848.34
843.239
834.459
822.746
808.759
793.175
776.629
759.593
742.553
725.851
709.589
694.083
679.231
665.216
652.031
639.69
628.159
617.38
607.298
597.863
589.01
580.616
572.582
564.875
557.437
550.246
543.303
536.588
530.086
523.831
517.81
511.975
506.386
501.134
496.113
491.3
486.82
482.755
478.982
475.521
472.379
469.646
467.3
465.451
464.047
463.206
462.818
463.014
463.606
464.718
466.029
467.638
469.119
470.601
471.521
472.047
471.486
470.179
467.445
463.958
459.186
453.952
447.839
441.556
434.901
428.281
421.789
415.409
409.612
403.744
398.955
393.562
389.999
384.711
382.585
377.078
376.772
370.734
372.533
365.856
370.109
362.921
369.929
363.058
373.933
930.65
932.686
936.614
944.584
957.81
976.172
998.648
1023.69
1049.15
1072.49
1092.03
1105.2
1111.25
1109.64
1101.08
1086.23
1066.68
1043.59
1018.46
992.426
966.373
941.056
916.686
893.801
872.34
852.431
834.216
817.375
802.009
787.925
775.024
763.186
752.335
742.407
733.303
724.944
717.212
709.993
703.214
696.798
690.707
684.924
679.415
674.157
669.183
664.477
659.964
655.703
651.863
648.281
644.861
641.797
639.187
636.856
634.815
633.097
631.804
630.92
630.548
630.627
631.241
632.263
633.751
635.502
637.521
639.495
641.36
642.761
643.653
643.621
642.661
640.319
636.887
631.979
626.332
619.535
612.491
604.744
597.14
589.301
581.862
574.624
567.901
561.722
555.975
551.019
546.054
542.331
537.858
535.753
531.455
531.432
526.76
529.386
523.799