/*--------------------------------*- C++ -*----------------------------------*\
| =========                 |                                                 |
| \\      /  F ield         | OpenFOAM: The Open Source CFD Toolbox           |
|  \\    /   O peration     | Version:  v2012                                 |
|   \\  /    A nd           | Website:  www.openfoam.com                      |
|    \\/     M anipulation  |                                                 |
\*---------------------------------------------------------------------------*/
FoamFile
{
    version     2.0;
    format      ascii;
    class       volScalarField;
    location    "0.253";
    object      nut.air;
}
// * * * * * * * * * * * * * * * * * * * * * * * * * * * * * * * * * * * * * //

dimensions      [0 2 -1 0 0 0 0];


internalField   nonuniform List<scalar> 
5600
(
2.45102e-05
3.47396e-05
4.04036e-05
4.24663e-05
4.22678e-05
4.09748e-05
3.92071e-05
3.75405e-05
3.61127e-05
3.49467e-05
3.40603e-05
3.34367e-05
3.30339e-05
3.28074e-05
3.2691e-05
3.26643e-05
3.26675e-05
3.27021e-05
3.27344e-05
3.27678e-05
3.28016e-05
3.28191e-05
3.28542e-05
3.28716e-05
3.29154e-05
3.29375e-05
3.29824e-05
3.30088e-05
3.30522e-05
3.30775e-05
3.3113e-05
3.31315e-05
3.31562e-05
3.31657e-05
3.3183e-05
3.31851e-05
3.31983e-05
3.31953e-05
3.32053e-05
3.32009e-05
3.32076e-05
3.32048e-05
3.32093e-05
3.32079e-05
3.32131e-05
3.32114e-05
3.32201e-05
3.32166e-05
3.32283e-05
3.32235e-05
3.32369e-05
3.3232e-05
3.3245e-05
3.32418e-05
3.32545e-05
3.32526e-05
3.32669e-05
3.32647e-05
3.3282e-05
3.32792e-05
3.32993e-05
3.32962e-05
3.33184e-05
3.33158e-05
3.33394e-05
3.33366e-05
3.33629e-05
3.3359e-05
3.33883e-05
3.33829e-05
3.34155e-05
3.34086e-05
3.34447e-05
3.34356e-05
3.34756e-05
3.34642e-05
3.35086e-05
3.34949e-05
3.35429e-05
3.35273e-05
3.35772e-05
3.35611e-05
3.36109e-05
3.35981e-05
3.36424e-05
3.36419e-05
3.36671e-05
3.36984e-05
3.3675e-05
3.37803e-05
3.36455e-05
3.39227e-05
3.35197e-05
3.42265e-05
3.31102e-05
3.50246e-05
3.17485e-05
3.75548e-05
2.6512e-05
4.70332e-05
0.000151583
0.000137464
0.000112304
9.85901e-05
9.40267e-05
9.48441e-05
0.000102205
0.000110094
0.000116524
0.000124322
0.0001327
0.000141258
0.000149405
0.000157298
0.000164355
0.000170986
0.000176781
0.000182061
0.0001868
0.000191027
0.000195054
0.000198543
0.000202187
0.000205272
0.000208574
0.000211244
0.000214124
0.000216468
0.000218922
0.00022087
0.000222838
0.000224381
0.000225939
0.000227139
0.000228439
0.000229373
0.000230488
0.00023123
0.00023218
0.000232823
0.000233616
0.00023422
0.000234896
0.000235448
0.000236103
0.000236575
0.000237261
0.000237614
0.000238306
0.000238584
0.000239238
0.000239485
0.000240074
0.00024032
0.000240873
0.000241092
0.000241661
0.000241817
0.000242427
0.000242541
0.000243162
0.000243247
0.000243872
0.000243934
0.000244573
0.000244597
0.00024527
0.000245237
0.000245952
0.000245858
0.000246626
0.000246477
0.000247301
0.000247079
0.000247971
0.000247667
0.000248641
0.000248264
0.00024931
0.000248862
0.000249951
0.000249438
0.00025055
0.000250026
0.000251089
0.000250697
0.000251517
0.000251531
0.000251711
0.000252711
0.000251384
0.000254627
0.000249914
0.000258158
0.00024587
0.00026557
0.000235616
0.000282386
0.000210265
0.000288288
0.000156443
0.000151639
0.000143055
0.000135121
0.000125444
0.000120568
0.000113935
0.000109655
0.000108694
0.000109934
0.0001125
0.000117632
0.000123457
0.000131509
0.000140128
0.000150375
0.00016152
0.000173679
0.000187261
0.00020157
0.000217264
0.00023263
0.000246406
0.00025815
0.000270363
0.000280827
0.000290729
0.00029822
0.000305583
0.000311649
0.000317752
0.000322952
0.000328342
0.00033279
0.000337578
0.00034133
0.000345567
0.000348809
0.000352513
0.000355465
0.000358665
0.000361418
0.000364277
0.000366751
0.000369474
0.000371525
0.000374163
0.000375832
0.000378346
0.000379782
0.000382097
0.000383456
0.000385542
0.000386825
0.000388812
0.000389936
0.000391936
0.000392846
0.000394869
0.000395637
0.000397624
0.000398301
0.000400234
0.000400812
0.000402754
0.000403188
0.000405191
0.000405454
0.000407524
0.000407637
0.000409782
0.000409746
0.000412001
0.000411766
0.000414165
0.000413691
0.000416268
0.000415554
0.000418326
0.00041734
0.000420331
0.000418986
0.000422264
0.000420521
0.000424146
0.000422
0.000426069
0.000423404
0.000428091
0.000424634
0.000430224
0.000425577
0.000432662
0.000425888
0.000436167
0.00042476
0.000442316
0.000421262
0.000432237
0.000409445
0.000157755
0.000154044
0.000150135
0.00014667
0.000142913
0.000139064
0.000135716
0.000131561
0.000127951
0.000125383
0.000122382
0.000120571
0.000116841
0.000116077
0.000115322
0.000116706
0.000120019
0.000124271
0.00013174
0.000139291
0.000150738
0.000161802
0.00017686
0.000190705
0.000207624
0.000223092
0.000239205
0.000252395
0.000266791
0.00027956
0.000293162
0.000305168
0.000317879
0.000328957
0.000340875
0.000350934
0.000361978
0.000371261
0.000381336
0.000390032
0.000398979
0.000407038
0.00041519
0.000422113
0.00042866
0.000433691
0.000439946
0.000444185
0.000450049
0.000453863
0.000459199
0.000462844
0.000467685
0.000471063
0.000475699
0.000478649
0.000483279
0.00048577
0.000490341
0.000492564
0.000496967
0.000499006
0.000503246
0.000505041
0.000509273
0.000510753
0.000515055
0.000516198
0.000520556
0.000521406
0.000525838
0.000526388
0.000530974
0.000531133
0.000535928
0.000535638
0.00054069
0.000539936
0.000545309
0.000544003
0.000549813
0.000547752
0.000554165
0.000551209
0.000558413
0.000554423
0.000562786
0.000557341
0.000567429
0.000559837
0.000572296
0.000561813
0.000577476
0.000563158
0.000583138
0.000564205
0.000588541
0.000566653
0.000591748
0.000572059
0.000158077
0.0001546
0.000151737
0.000148935
0.000146946
0.000144408
0.000142454
0.000140676
0.000137935
0.000137243
0.000133845
0.000133745
0.00013027
0.000129443
0.000127218
0.00012504
0.00012502
0.000120637
0.000122353
0.000118262
0.000122339
0.000120417
0.000127043
0.000128852
0.000137989
0.000144008
0.000155499
0.000165383
0.000178954
0.000191766
0.000207281
0.000221855
0.000235857
0.000247339
0.000261407
0.000272808
0.000286733
0.000298267
0.000311654
0.000323546
0.000336248
0.000348178
0.000360652
0.000371946
0.000384349
0.000394321
0.000406522
0.000415454
0.000427064
0.00043549
0.00044625
0.000454461
0.000464372
0.00047207
0.00048179
0.000488672
0.00049836
0.000504418
0.000513869
0.000519466
0.000528539
0.000533707
0.000542403
0.000547065
0.000555667
0.00055968
0.00056829
0.000571659
0.000580261
0.000583115
0.000591752
0.000594101
0.000602843
0.000604601
0.000613506
0.000614584
0.000622807
0.000622789
0.000631343
0.000630577
0.000639668
0.000637892
0.000647651
0.000644734
0.000655306
0.000651183
0.000662953
0.000657317
0.0006707
0.000663236
0.000678165
0.000669074
0.00068498
0.000675053
0.000690751
0.000682025
0.000694478
0.000691158
0.000696288
0.000700789
0.000158179
0.000154714
0.000152176
0.000149537
0.000147841
0.000145931
0.000144061
0.000143277
0.000140687
0.000140861
0.000137983
0.000138171
0.000136127
0.000135045
0.000134957
0.000131672
0.000134128
0.000128342
0.000132955
0.0001253
0.000131259
0.000123128
0.000129177
0.000122184
0.000126691
0.000122283
0.000125912
0.000124431
0.000128995
0.000129876
0.000137055
0.000139962
0.000150406
0.000155266
0.000167903
0.000175427
0.000189069
0.000199518
0.000213639
0.000226573
0.000241567
0.000252262
0.000264173
0.000274172
0.000287361
0.00029674
0.000310759
0.000320021
0.000333905
0.000343614
0.000356854
0.00036708
0.000380011
0.00038996
0.000403303
0.000412552
0.000426169
0.000434668
0.000448007
0.000456149
0.000469024
0.000476813
0.000489305
0.000496504
0.000509029
0.000515533
0.000528087
0.000533998
0.000546592
0.000552188
0.000564796
0.000569794
0.000582477
0.000586803
0.000599537
0.000603172
0.000615793
0.000618839
0.000631466
0.000633867
0.000646522
0.00064821
0.000660653
0.000661867
0.000673829
0.000675019
0.00068654
0.000688028
0.000698789
0.000701113
0.000709995
0.000714059
0.000720323
0.000726327
0.000730369
0.000737339
0.000741167
0.000746813
0.000755224
0.000761822
0.000158227
0.000154731
0.000152294
0.000149763
0.000147999
0.000146485
0.000144403
0.000144087
0.000141519
0.000141792
0.000139508
0.000139246
0.000138289
0.000136458
0.00013763
0.000133604
0.000137246
0.000130927
0.000136781
0.000128778
0.000135755
0.000127525
0.00013393
0.000127154
0.000131513
0.000126986
0.00012959
0.000125836
0.000129234
0.000123915
0.000129857
0.000122308
0.000130408
0.000122854
0.000130699
0.000126683
0.000132535
0.000133192
0.000137971
0.000141909
0.000148695
0.000153057
0.000163777
0.000167615
0.000181897
0.000186152
0.000201774
0.000208565
0.000223929
0.000233458
0.000248518
0.000259675
0.000275248
0.000282536
0.000295339
0.000302262
0.000316033
0.000323074
0.000336742
0.000344331
0.000357864
0.000365801
0.000379496
0.000387111
0.000401245
0.000408636
0.000423081
0.000430373
0.000444943
0.000452233
0.000466878
0.000473831
0.000488606
0.000495139
0.000509886
0.000516011
0.000530382
0.000536283
0.000550442
0.000556208
0.000570258
0.000575856
0.000589342
0.000594918
0.000607494
0.000613356
0.000625095
0.000631592
0.000642542
0.000650068
0.000659576
0.000668308
0.000676097
0.000685211
0.00069233
0.000700891
0.000708532
0.000716873
0.000726351
0.000739044
0.000158248
0.000154755
0.000152288
0.000149909
0.000147964
0.000146726
0.000144499
0.000144268
0.000141946
0.000141853
0.000140262
0.00013936
0.000139166
0.000136875
0.000138465
0.000134431
0.000138036
0.00013214
0.00013757
0.000130415
0.000136516
0.000129653
0.000134679
0.000129701
0.00013248
0.000129692
0.000131203
0.000128216
0.000131604
0.000125728
0.000132352
0.000123733
0.00013211
0.00012356
0.000129841
0.000125346
0.000127019
0.000126913
0.000126156
0.000125991
0.000128817
0.000123194
0.000132788
0.000122394
0.000135718
0.000126248
0.000137156
0.000133549
0.00014126
0.000142184
0.000149502
0.000151244
0.00016251
0.00016342
0.000177129
0.000178665
0.000193324
0.000197675
0.000211641
0.000217911
0.000232454
0.000240005
0.00025587
0.00026356
0.000280211
0.000288669
0.000305957
0.000312404
0.000325276
0.000330738
0.000343626
0.000349319
0.000362589
0.000368725
0.000382118
0.000388882
0.000401878
0.000408989
0.00042177
0.000429411
0.000442344
0.000450687
0.000463232
0.000472155
0.000483722
0.000493042
0.000504073
0.000514033
0.000525121
0.00053621
0.00054719
0.00055917
0.000569571
0.000581611
0.000591597
0.000603902
0.000613387
0.0006274
0.000637543
0.000655465
0.000158245
0.000154806
0.000152237
0.000150013
0.000147932
0.000146769
0.000144644
0.000144148
0.000142309
0.000141663
0.000140677
0.000139349
0.000139402
0.000137244
0.000138408
0.000135229
0.000137707
0.000133311
0.000137062
0.00013185
0.000135977
0.000131195
0.00013429
0.000131176
0.000132408
0.000130989
0.000131438
0.000129527
0.000131771
0.000127455
0.000132071
0.000126024
0.000131486
0.000125997
0.000129336
0.000127396
0.000126756
0.000128189
0.000126047
0.000126246
0.000128486
0.000122232
0.000131205
0.000120038
0.000130801
0.000122052
0.000127267
0.000125228
0.000125448
0.000125819
0.000127345
0.000123159
0.0001311
0.000122918
0.000132689
0.000125586
0.000133239
0.000130932
0.000136351
0.000135343
0.000141931
0.000141214
0.000150318
0.000149821
0.000159224
0.000160653
0.000170673
0.000174435
0.000184616
0.000189453
0.00020044
0.000206172
0.000217934
0.000224926
0.000237133
0.000245712
0.000258047
0.000267455
0.000279878
0.000290118
0.000303352
0.000315018
0.000328411
0.000340983
0.000353824
0.000366438
0.000379101
0.000392098
0.000405302
0.000419451
0.000432669
0.000447969
0.000461365
0.000476435
0.000489509
0.000503731
0.000516246
0.000530422
0.000542721
0.000556681
0.000158227
0.000154863
0.000152194
0.00015006
0.000147967
0.000146685
0.000144837
0.000143946
0.000142566
0.00014152
0.00014082
0.000139433
0.000139319
0.000137648
0.000138025
0.000136026
0.000136965
0.000134506
0.000136055
0.000133213
0.000135045
0.000132344
0.000133773
0.000131884
0.000132375
0.000131436
0.00013143
0.000130406
0.000131113
0.000129166
0.000130789
0.000128131
0.000130316
0.000127563
0.00012909
0.000127998
0.00012725
0.000128401
0.000126399
0.000127106
0.000127581
0.000124411
0.000128944
0.000123011
0.000128011
0.000124389
0.000125126
0.000126146
0.000123633
0.000125566
0.00012501
0.000122778
0.000126755
0.000121955
0.000126223
0.000123057
0.000124407
0.000124752
0.00012435
0.000124498
0.000125576
0.000124174
0.00012722
0.000125609
0.000127925
0.000127528
0.000129584
0.000130717
0.000132681
0.000134228
0.000137237
0.000139203
0.000143107
0.000146192
0.000150634
0.000155299
0.000160612
0.000166361
0.000172376
0.000178982
0.000186504
0.000195039
0.000203585
0.000213819
0.00022302
0.000234019
0.000243871
0.000255633
0.000266731
0.000280026
0.000293092
0.000307999
0.000322182
0.00033757
0.000351735
0.000367356
0.000381792
0.000397663
0.000412688
0.000428527
0.000158212
0.000154894
0.000152182
0.000150049
0.00014803
0.000146573
0.000144969
0.000143811
0.000142642
0.000141489
0.000140771
0.000139524
0.000139168
0.000137857
0.000137729
0.000136458
0.000136388
0.00013526
0.000135197
0.000134122
0.000134213
0.000133013
0.000133338
0.000132052
0.000132413
0.000131291
0.000131472
0.00013061
0.000130556
0.000130034
0.000129708
0.000129274
0.000129304
0.000128264
0.000128827
0.000127846
0.000127697
0.000127877
0.000126755
0.000127212
0.000126897
0.000125685
0.000127381
0.00012471
0.000126692
0.000125294
0.000124896
0.000126206
0.000123911
0.000125672
0.000124811
0.000123927
0.000125819
0.000123524
0.000125474
0.000124458
0.000124487
0.000125728
0.000124799
0.000125908
0.000126207
0.000126227
0.000127848
0.000128098
0.000129408
0.000130643
0.000132118
0.000134527
0.00013623
0.000139343
0.000142038
0.000145831
0.000149528
0.000154334
0.000158987
0.000164923
0.000170828
0.000177876
0.000184791
0.000192716
0.000201051
0.000210387
0.000219883
0.000230563
0.000240923
0.000252525
0.000263514
0.000275762
0.000287507
0.000300602
0.000313846
0.000328154
0.000342508
0.000357308
0.000371931
0.000387159
0.000402264
0.000418018
0.000433843
0.000450084
0.000158203
0.0001549
0.000152182
0.000150014
0.000148069
0.00014648
0.000145014
0.000143726
0.000142605
0.000141476
0.000140632
0.000139553
0.000138986
0.000137874
0.000137518
0.000136495
0.000136065
0.000135411
0.000134682
0.000134392
0.000133581
0.00013323
0.000132806
0.00013199
0.000132142
0.000130917
0.000131325
0.000130212
0.000130207
0.000129876
0.000129019
0.000129404
0.000128359
0.000128447
0.000128079
0.00012759
0.000127568
0.00012714
0.000126975
0.000126691
0.000126708
0.000126116
0.000126659
0.000125862
0.00012639
0.000126345
0.000126028
0.000127142
0.000126308
0.000127668
0.000127824
0.000128432
0.000130015
0.000130758
0.000132858
0.00013473
0.000137053
0.000140413
0.000143456
0.00014778
0.000152227
0.000157414
0.000163323
0.000169756
0.000176809
0.000184467
0.000192578
0.000201331
0.000210366
0.000220149
0.000230113
0.000240848
0.000251669
0.000263275
0.000274893
0.000287203
0.000299621
0.000312566
0.00032554
0.000338884
0.000352362
0.000366106
0.00037744
0.000387814
0.000398374
0.000409118
0.000420079
0.000431418
0.000442712
0.000454718
0.000466976
0.000479936
0.000493218
0.000506919
0.000520846
0.000535162
0.000549524
0.000564258
0.000578396
0.000592621
0.000158197
0.000154894
0.000152169
0.000149976
0.000148059
0.000146396
0.000144987
0.000143614
0.000142513
0.000141368
0.000140442
0.000139446
0.000138705
0.00013773
0.000137182
0.000136259
0.000135697
0.000135076
0.000134231
0.000134023
0.000132965
0.000132869
0.00013203
0.000131567
0.000131326
0.000130304
0.000130584
0.00012937
0.000129567
0.000128904
0.000128364
0.000128562
0.000127486
0.000127996
0.000127165
0.000127442
0.000127262
0.00012729
0.000127676
0.00012764
0.00012873
0.000129133
0.000130866
0.00013232
0.000134707
0.000137655
0.000140968
0.000145524
0.000150228
0.000156279
0.000162782
0.00017016
0.000178266
0.000186925
0.000196368
0.000206348
0.000216949
0.000228199
0.000239863
0.000252147
0.000264784
0.000277905
0.000291372
0.000305206
0.000317299
0.000326955
0.000336699
0.000346525
0.00035662
0.00036678
0.000377158
0.00038765
0.000398138
0.000408854
0.0004195
0.000430377
0.000441224
0.000452197
0.000463176
0.000474174
0.000485276
0.00049632
0.00050755
0.000518777
0.000530134
0.000541434
0.000552671
0.0005639
0.000574861
0.000585945
0.000596868
0.000607989
0.000618984
0.000630009
0.000640926
0.000651837
0.000662477
0.000673012
0.000682919
0.000692668
0.00015819
0.000154875
0.000152126
0.000149913
0.000147963
0.00014626
0.000144823
0.000143378
0.000142253
0.000141016
0.000140034
0.000138985
0.000138097
0.000137149
0.000136378
0.000135489
0.000134755
0.000134041
0.000133157
0.000132735
0.000131662
0.000131436
0.000130403
0.000130019
0.000129335
0.000128583
0.000128446
0.000127497
0.000127776
0.000127162
0.000127304
0.000127633
0.000128029
0.000129694
0.000131076
0.000134214
0.000137354
0.000142115
0.000147551
0.000154109
0.000161834
0.000170092
0.00017968
0.000189722
0.000200834
0.000212576
0.000224983
0.000238144
0.000251707
0.000265947
0.000279378
0.000289763
0.000300456
0.000311277
0.000322248
0.000333328
0.000344542
0.000355831
0.000367189
0.000378613
0.00039005
0.000401562
0.000413055
0.000424604
0.000436116
0.00044773
0.000459392
0.000470969
0.000482551
0.00049392
0.000505249
0.000516376
0.000527372
0.000538244
0.00054895
0.000559574
0.000570032
0.000580368
0.000590569
0.0006006
0.000610572
0.000620323
0.000630104
0.00063975
0.000649453
0.000658975
0.000668377
0.000677588
0.00068659
0.000695531
0.000704208
0.000712924
0.000721369
0.000729785
0.000737954
0.000745939
0.000753721
0.000761146
0.000767892
0.000774297
0.000158171
0.000154819
0.000152001
0.000149734
0.000147666
0.000145878
0.00014428
0.000142689
0.000141398
0.000139929
0.000138795
0.000137494
0.0001364
0.000135241
0.000134162
0.000133115
0.000132
0.000130946
0.000129706
0.000128819
0.000127576
0.000127115
0.000126069
0.000125717
0.000125424
0.00012606
0.000127533
0.000129933
0.000133872
0.000138796
0.000145525
0.000153332
0.000162456
0.000172829
0.000184039
0.000196614
0.00020971
0.00022403
0.000238835
0.000252125
0.000263761
0.000275525
0.000287661
0.000299742
0.000312115
0.000324402
0.000336753
0.000349144
0.000361402
0.000373792
0.000385944
0.00039825
0.000410406
0.000422466
0.000434317
0.000445954
0.000457382
0.000468557
0.000479533
0.000490275
0.000500822
0.000511183
0.000521349
0.000531352
0.000541158
0.000550918
0.000560596
0.000570074
0.000579448
0.000588576
0.000597627
0.000606425
0.000615124
0.000623611
0.0006319
0.000640002
0.000647882
0.000655592
0.00066309
0.000670452
0.000677627
0.000684611
0.000691521
0.000698215
0.000704898
0.000711366
0.000717781
0.000723996
0.000730109
0.00073617
0.000742029
0.000747881
0.000753535
0.000759178
0.000764661
0.000769922
0.000775096
0.000779914
0.000784269
0.00078835
0.000158106
0.000154642
0.000151587
0.000149135
0.000146642
0.000144535
0.000142375
0.000140334
0.000138415
0.000136411
0.000134826
0.000132771
0.000131048
0.000129029
0.000127404
0.00012581
0.000124071
0.000122563
0.000121893
0.000122181
0.000123915
0.000127133
0.000132179
0.000138989
0.000147584
0.000157933
0.000169831
0.000183104
0.000197753
0.000213273
0.00022898
0.000242149
0.000255581
0.000268968
0.000282334
0.000295762
0.000308947
0.000322307
0.000335298
0.000348379
0.000361185
0.000373812
0.000386173
0.000398042
0.000409627
0.000420721
0.000431508
0.000441965
0.000452042
0.000461913
0.000471326
0.000480625
0.000489576
0.000498321
0.000506799
0.000515044
0.000523061
0.000530833
0.000538397
0.000545726
0.000552857
0.000559782
0.000566515
0.000573073
0.000579455
0.000585678
0.000591776
0.000597718
0.000603572
0.000609243
0.000614866
0.000620295
0.000625699
0.000630436
0.000634839
0.000639151
0.000643326
0.000647428
0.000651419
0.000655332
0.00065918
0.000662921
0.000666636
0.000670224
0.000673812
0.000677262
0.000680718
0.000684059
0.000687371
0.000690623
0.000693805
0.000696962
0.000700038
0.000703079
0.000706069
0.000708986
0.00071188
0.000714655
0.000717339
0.000719905
0.000157843
0.00015396
0.000150075
0.000146744
0.000142536
0.000139353
0.000135247
0.000131811
0.000128245
0.000125948
0.000123641
0.000120637
0.000118694
0.000117764
0.00011859
0.000121041
0.000125549
0.00013191
0.000140388
0.000150802
0.000163402
0.000177696
0.000193319
0.000209806
0.000227075
0.000242499
0.000257104
0.000271503
0.000285537
0.000299158
0.000312311
0.000324971
0.000337216
0.000348881
0.000360093
0.000370872
0.000381122
0.000391071
0.000400373
0.000409359
0.00041781
0.000426063
0.000433064
0.000439176
0.000445031
0.000450506
0.000455766
0.000460773
0.000465548
0.000470173
0.000474567
0.000478853
0.000482947
0.000486931
0.000490773
0.000494498
0.000498112
0.000501612
0.000505017
0.000508318
0.00051153
0.00051466
0.000517701
0.000520676
0.000523572
0.000526408
0.000529183
0.000531892
0.000534557
0.000537143
0.000539701
0.000542178
0.000544625
0.000547012
0.000549339
0.000551613
0.000553814
0.000555976
0.000558075
0.000560139
0.000562167
0.000564136
0.000566092
0.000567976
0.00056987
0.000571682
0.000573521
0.000575288
0.000577064
0.000578791
0.000580499
0.000582184
0.000583836
0.000585464
0.000587078
0.000588634
0.000590202
0.000591656
0.000593038
0.000594303
0.000156636
0.000151225
0.000143327
0.000134661
0.000126043
0.000121017
0.000114996
0.0001125
0.000112474
0.000114159
0.000117995
0.00012343
0.000130631
0.000139109
0.000149062
0.000160163
0.000172596
0.000186217
0.000201272
0.00021729
0.000233489
0.000246949
0.000259662
0.000271875
0.000283083
0.000294128
0.000302621
0.000310061
0.000316739
0.000322873
0.000328623
0.000333939
0.000338921
0.0003435
0.000347777
0.000351767
0.000355459
0.000358988
0.000362237
0.000365383
0.000368312
0.000371128
0.000373824
0.000376339
0.000378762
0.000381004
0.000383164
0.000385202
0.000387141
0.00038902
0.000390794
0.000392538
0.000394197
0.000395822
0.000397385
0.000398907
0.000400384
0.000401817
0.000403214
0.00040457
0.000405892
0.000407183
0.000408437
0.000409669
0.000410869
0.000412048
0.000413206
0.000414342
0.000415464
0.000416557
0.000417647
0.000418704
0.000419755
0.00042078
0.00042179
0.000422777
0.000423738
0.000424682
0.000425601
0.000426509
0.000427402
0.00042827
0.000429133
0.000429964
0.000430806
0.000431608
0.000432434
0.000433226
0.000434036
0.000434817
0.000435602
0.000436374
0.000437139
0.000437891
0.000438644
0.000439361
0.000440095
0.000440744
0.000441339
0.000441823
0.000151615
0.000136833
0.000113464
9.95357e-05
9.75863e-05
9.81419e-05
0.000110563
0.000115048
0.000121817
0.000129682
0.000137982
0.000146228
0.000154219
0.000161675
0.000168589
0.000174822
0.000180491
0.000185569
0.000190195
0.000194426
0.000198335
0.000202069
0.000205554
0.000208852
0.000211867
0.000214684
0.000217306
0.000219728
0.000221891
0.000223821
0.00022552
0.000227013
0.000228361
0.000229548
0.000230633
0.000231605
0.000232484
0.000233304
0.000234036
0.000234746
0.000235388
0.000236006
0.000236598
0.00023717
0.000237737
0.000238258
0.000238773
0.000239248
0.000239705
0.000240143
0.000240553
0.000240962
0.000241346
0.000241733
0.000242103
0.000242473
0.000242834
0.000243191
0.000243544
0.00024389
0.000244235
0.000244573
0.000244909
0.00024524
0.000245565
0.000245888
0.000246208
0.000246525
0.00024684
0.000247152
0.000247466
0.000247775
0.000248088
0.000248396
0.000248707
0.000249014
0.000249319
0.000249621
0.000249918
0.000250214
0.000250505
0.000250789
0.000251071
0.000251343
0.00025162
0.000251886
0.000252163
0.000252429
0.000252707
0.000252975
0.000253248
0.000253518
0.000253784
0.000254055
0.000254316
0.000254585
0.000254845
0.000255064
0.000255282
0.000255451
2.45433e-05
3.47521e-05
4.04103e-05
4.23028e-05
4.20134e-05
4.05611e-05
3.87133e-05
3.70563e-05
3.56097e-05
3.44454e-05
3.35761e-05
3.29763e-05
3.25987e-05
3.23849e-05
3.22872e-05
3.22581e-05
3.22699e-05
3.22978e-05
3.23312e-05
3.23648e-05
3.23935e-05
3.24263e-05
3.24614e-05
3.24995e-05
3.25388e-05
3.25765e-05
3.26138e-05
3.26518e-05
3.26859e-05
3.27168e-05
3.27415e-05
3.27605e-05
3.27752e-05
3.27849e-05
3.27921e-05
3.27958e-05
3.27976e-05
3.27982e-05
3.27967e-05
3.27961e-05
3.27938e-05
3.27927e-05
3.2791e-05
3.27904e-05
3.27905e-05
3.27904e-05
3.27916e-05
3.27922e-05
3.27936e-05
3.2795e-05
3.27965e-05
3.27987e-05
3.28008e-05
3.2804e-05
3.28073e-05
3.28117e-05
3.28164e-05
3.28219e-05
3.28281e-05
3.28348e-05
3.28423e-05
3.28501e-05
3.28587e-05
3.28678e-05
3.28773e-05
3.28873e-05
3.28978e-05
3.29088e-05
3.29202e-05
3.29321e-05
3.29447e-05
3.29577e-05
3.29713e-05
3.29852e-05
3.29997e-05
3.30145e-05
3.30297e-05
3.30452e-05
3.30609e-05
3.3077e-05
3.30931e-05
3.31093e-05
3.31256e-05
3.31417e-05
3.31584e-05
3.31749e-05
3.31923e-05
3.32096e-05
3.32278e-05
3.32456e-05
3.32641e-05
3.32824e-05
3.33011e-05
3.33195e-05
3.33391e-05
3.3358e-05
3.33782e-05
3.33985e-05
3.34187e-05
3.34399e-05
2.39326e-06
0.000681427
0.00119297
0.00158305
0.00194028
0.00222081
0.00242679
0.00246846
0.00246033
0.00244545
0.00242936
0.00242048
0.00242417
0.00243823
0.00245844
0.00248401
0.00251428
0.00254939
0.00259119
0.00263785
0.00268934
0.00274514
0.00280266
0.00286242
0.00292698
0.0029938
0.00305981
0.00312628
0.00319167
0.00324948
0.00326736
0.00325612
0.00323878
0.00321529
0.00318672
0.00315314
0.00311421
0.00307081
0.00302436
0.00297525
0.00292297
0.00286852
0.00281349
0.00275814
0.00270232
0.002647
0.00259249
0.00253889
0.00248642
0.00243639
0.00238861
0.00234327
0.00229976
0.00225777
0.00221526
0.00217406
0.00213618
0.00210213
0.00206593
0.00202784
0.00199489
0.00197832
0.00197291
0.00196338
0.00193146
0.00188267
0.00183476
0.00181034
0.00181345
0.00184454
0.00189394
0.00195757
0.00202052
0.00207624
0.00210934
0.00212259
0.00211118
0.00209009
0.00205562
0.00202208
0.00197774
0.00193589
0.00187935
0.00182502
0.00175169
0.00168226
0.00159176
0.00150708
0.001401
0.00130205
0.00118761
0.00108455
0.000977502
0.000885492
0.000793574
0.000709513
0.000623412
0.000528149
0.000461786
0.00034892
0.000172283
0.000439202
0.000876874
0.00126642
0.00161473
0.00189605
0.00210995
0.00225948
0.00236336
0.0023603
0.00234135
0.00233218
0.0023302
0.00233437
0.00234457
0.00236121
0.00238418
0.00241309
0.0024492
0.0024894
0.00253235
0.00257839
0.00262702
0.00267792
0.00273416
0.00279464
0.00285778
0.00292327
0.002997
0.00306892
0.00314584
0.0031401
0.00312723
0.00310737
0.00308188
0.00305099
0.0030144
0.00297295
0.00292827
0.00288095
0.00283042
0.00277769
0.00272458
0.00267138
0.00261798
0.00256544
0.0025142
0.00246429
0.00241606
0.00237096
0.00232884
0.0022894
0.002252
0.0022163
0.00218018
0.00214459
0.00211153
0.00208213
0.00205143
0.00201898
0.00199111
0.00197915
0.00198034
0.00198044
0.00195996
0.00191923
0.0018733
0.00184499
0.00184186
0.00186574
0.00190842
0.00196536
0.00202298
0.0020735
0.00210254
0.00211107
0.00209641
0.00207241
0.00203831
0.00200589
0.00196573
0.00192717
0.0018758
0.00182388
0.0017542
0.00168456
0.00159541
0.00150814
0.00140204
0.00129961
0.00118448
0.00107738
0.000968011
0.00087069
0.000774533
0.000685614
0.000596185
0.000502264
0.000435689
0.000330092
0.000472919
0.000384813
0.000566697
0.00087618
0.00120312
0.00148362
0.00170571
0.00186987
0.00199037
0.0020767
0.00214212
0.0021993
0.00221672
0.0022221
0.00223364
0.00225266
0.00227863
0.00231004
0.00234383
0.00237922
0.00241608
0.00245488
0.00249664
0.00254055
0.00258834
0.00264041
0.00269704
0.00275768
0.00282687
0.00289958
0.00299126
0.00299318
0.00298608
0.00297103
0.00294966
0.00292244
0.00288911
0.00285044
0.00280829
0.0027635
0.00271548
0.00266515
0.00261464
0.00256426
0.00251398
0.00246495
0.00241781
0.00237251
0.00232962
0.00229074
0.00225574
0.00222374
0.00219399
0.00216612
0.00213793
0.00210935
0.00208223
0.00205828
0.00203402
0.00200844
0.00198707
0.0019806
0.00198859
0.00199816
0.00198966
0.00195847
0.00191634
0.00188507
0.00187557
0.00189116
0.0019257
0.00197418
0.00202473
0.0020682
0.00209154
0.00209373
0.00207459
0.00204667
0.00201255
0.00198118
0.00194564
0.00191089
0.0018655
0.00181672
0.00175154
0.00168226
0.00159502
0.00150542
0.00139953
0.00129379
0.00117816
0.00106716
0.000955686
0.000852741
0.000752723
0.0006584
0.000567335
0.000474338
0.000409537
0.000310823
0.000592861
0.000584447
0.000544919
0.000613629
0.000798248
0.00102188
0.00122945
0.00139929
0.00153348
0.00163816
0.00172167
0.00179552
0.0018612
0.00192395
0.00198648
0.00205069
0.00211631
0.00217558
0.00221382
0.00225201
0.0022913
0.00233194
0.00237518
0.00241956
0.00246588
0.00251479
0.00256726
0.00262334
0.00268402
0.00274971
0.00279613
0.00280614
0.00280664
0.00279811
0.00278244
0.00276042
0.00273181
0.00269727
0.0026589
0.00261785
0.0025735
0.00252666
0.00247982
0.00243331
0.00238722
0.00234282
0.00230103
0.00226179
0.00222588
0.00219506
0.00216919
0.00214666
0.00212654
0.00210833
0.00208984
0.00206984
0.0020499
0.00203233
0.00201546
0.00199808
0.0019848
0.00198493
0.00199988
0.00201835
0.00202164
0.00200095
0.00196447
0.00193159
0.00191598
0.00192226
0.0019471
0.00198503
0.00202634
0.00206035
0.00207578
0.00206951
0.00204432
0.00201135
0.00197679
0.00194646
0.001916
0.00188561
0.001847
0.00180209
0.00174221
0.00167397
0.00158911
0.00149764
0.00139212
0.00128355
0.00116762
0.00105339
0.000940019
0.000831925
0.000728342
0.000629111
0.000537797
0.000445823
0.000384411
0.000291696
0.000700319
0.000706053
0.000690155
0.000664766
0.000665737
0.000723609
0.000820741
0.000934846
0.00104651
0.00114818
0.00123753
0.00132038
0.0013976
0.00147306
0.00154791
0.00162406
0.00170144
0.00178039
0.00185788
0.00193441
0.00200906
0.00208126
0.00215047
0.00221575
0.00227706
0.00233444
0.00238721
0.00243542
0.00247944
0.00251665
0.0025484
0.00256901
0.00257951
0.00257986
0.00257224
0.0025577
0.00253605
0.00250776
0.00247517
0.00243977
0.0024009
0.00235932
0.00231784
0.00227683
0.00223661
0.00219864
0.00216422
0.00213327
0.00210683
0.00208672
0.00207262
0.00206206
0.00205384
0.00204729
0.00204022
0.00203024
0.00201868
0.00200837
0.00199975
0.00199174
0.00198802
0.0019958
0.00201764
0.00204382
0.00205771
0.00204746
0.00201801
0.00198497
0.00196385
0.00196
0.00197351
0.00199853
0.002028
0.00204959
0.00205435
0.00203705
0.0020041
0.00196498
0.00192977
0.00190064
0.00187582
0.00185032
0.00181917
0.00177877
0.0017249