/*--------------------------------*- C++ -*----------------------------------*\
| =========                 |                                                 |
| \\      /  F ield         | OpenFOAM: The Open Source CFD Toolbox           |
|  \\    /   O peration     | Version:  v2012                                 |
|   \\  /    A nd           | Website:  www.openfoam.com                      |
|    \\/     M anipulation  |                                                 |
\*---------------------------------------------------------------------------*/
FoamFile
{
    version     2.0;
    format      ascii;
    class       vectorField;
    location    "0.152/lagrangian/kinematicCloud";
    object      U;
}
// * * * * * * * * * * * * * * * * * * * * * * * * * * * * * * * * * * * * * //


54
(
(9.06885 -0.000796856 0)
(10.3306 -0.00246046 0)
(10.3318 -0.00170674 0)
(9.96 -0.000655721 0)
(9.90264 -0.00124258 0)
(10.3267 -0.00118529 0)
(5.42556 -0.0020395 0)
(9.30001 -0.0017003 0)
(9.37503 -0.00209008 0)
(10.2366 0.000507686 0)
(10.3731 -0.000246651 0)
(9.77036 0.00120665 0)
(7.75694 -0.00135791 0)
(7.76342 0.000555273 0)
(8.16866 -0.000904746 0)
(10.4089 -0.000332714 0)
(9.16785 0.00178107 0)
(8.55843 -0.00241376 0)
(9.88136 0.0029385 0)
(9.42056 -0.00374736 0)
(10.1288 -0.00436704 0)
(8.86121 -0.00390668 0)
(10.0726 -0.00476364 0)
(9.65234 0.00275027 0)
(10.3229 0.00198158 0)
(10.1268 -0.00488189 0)
(9.4032 0.00292514 0)
(9.83003 -0.00486162 0)
(8.40205 0.00228192 0)
(9.72429 -0.00481829 0)
(2.05972 -0.000454471 0)
(8.90809 0.00105086 0)
(7.47794 -0.00298483 0)
(10.3616 -0.0021244 0)
(10.0346 0.00349506 0)
(10.1995 -0.00484539 0)
(10.2261 0.0031181 0)
(10.3078 0.00215339 0)
(10.1937 -0.00497513 0)
(7.34382 -0.0011097 0)
(10.1731 0.00347068 0)
(10.2395 -0.00482184 0)
(10.0308 0.0038405 0)
(9.89399 0.00361159 0)
(10.2116 0.00346685 0)
(10.283 -0.00428509 0)
(9.80492 -0.00543572 0)
(10.3273 1.48154e-05 0)
(10.287 0.00248609 0)
(10.0603 -0.00569891 0)
(9.37134 0.00279085 0)
(10.2766 0.00273016 0)
(9.60759 -0.00490298 0)
(8.83467 0.00266312 0)
)


// ************************************************************************* //
