/*--------------------------------*- C++ -*----------------------------------*\
| =========                 |                                                 |
| \\      /  F ield         | OpenFOAM: The Open Source CFD Toolbox           |
|  \\    /   O peration     | Version:  v2012                                 |
|   \\  /    A nd           | Website:  www.openfoam.com                      |
|    \\/     M anipulation  |                                                 |
\*---------------------------------------------------------------------------*/
FoamFile
{
    version     2.0;
    format      ascii;
    class       Cloud<basicKinematicParcel>;
    location    "0.067/lagrangian/kinematicCloud";
    object      positions;
}
// * * * * * * * * * * * * * * * * * * * * * * * * * * * * * * * * * * * * * //

70
(
(0.210007 0.00417257 0.03) 215
(0.225461 0.0114531 0.03) 516
(0.220354 0.0164915 0.03) 716
(0.206748 0.00795929 0.03) 314
(0.20582 0.0214744 0.03) 914
(0.19962 0.018511 0.03) 714
(0.113441 0.00236777 0.03) 104
(0.186144 0.0229215 0.03) 912
(0.178774 0.0238545 0.03) 911
(0.171648 0.0113153 0.03) 511
(0.169888 0.010664 0.03) 411
(0.159794 0.00754738 0.03) 309
(0.0182797 0.0265749 0.03) 92
(0.0169708 5.95743e-05 0.03) 2
(0.0772072 0.0255738 0.03) 1001
(0.138514 0.0136962 0.03) 607
(0.126061 0.00387829 0.03) 206
(0.123834 0.0245416 0.03) 1006
(0.11864 0.00589119 0.03) 305
(0.121233 0.022321 0.03) 905
(0.115439 0.0199512 0.03) 805
(0.0458238 0.0258396 0.03) 96
(0.104749 0.0207078 0.03) 804
(0.0976338 0.00401379 0.03) 203
(0.0977928 0.00914473 0.03) 403
(0.0938561 0.0205609 0.03) 802
(0.0883611 0.00415196 0.03) 202
(0.0893713 0.0217997 0.03) 902
(0.049413 0.00114929 0.03) 7
(0.0845974 0.0231858 0.03) 901
(0.0129555 0.00017206 0.03) 1
(0.0695723 0.00207478 0.03) 100
(0.0285271 0.0259301 0.03) 94
(0.0674919 0.0149891 0.03) 600
(0.0669779 0.00580117 0.03) 300
(0.0644692 0.0184407 0.03) 69
(0.0603878 0.0102177 0.03) 39
(0.0577906 0.0102328 0.03) 38
(0.0540546 0.0186241 0.03) 68
(0.0185648 0.000634789 0.03) 2
(0.0485327 0.0071282 0.03) 27
(0.0448857 0.0174835 0.03) 66
(0.0417179 0.00350453 0.03) 16
(0.0396892 0.00531667 0.03) 15
(0.0366973 0.00795399 0.03) 25
(0.034055 0.0162162 0.03) 65
(0.0312258 0.0222189 0.03) 84
(0.0290902 0.0120402 0.03) 44
(0.0263512 0.0105129 0.03) 33
(0.0242637 0.0210714 0.03) 73
(0.0219697 0.00264249 0.03) 3
(0.02032 0.0082818 0.03) 33
(0.0184753 0.0234988 0.03) 82
(0.00806837 0.00069467 0.03) 1
(0.0142484 0.0179305 0.03) 62
(0.0133579 0.0181395 0.03) 62
(0.0118583 0.0241209 0.03) 91
(0.0101614 0.0133615 0.03) 51
(0.00827146 0.0105345 0.03) 31
(0.00791814 0.0135571 0.03) 51
(0.00692267 0.023035 0.03) 81
(0.00528841 0.0145243 0.03) 50
(0.00438321 0.0148778 0.03) 50
(0.00361629 0.021901 0.03) 80
(0.00228101 0.0250369 0.03) 90
(0.00192658 0.0160365 0.03) 60
(0.00161017 0.00681836 0.03) 20
(0.000991926 0.00166562 0.03) 0
(0.000776197 0.00940365 0.03) 30
(0.00137387 0.0131923 0.03) 40
)


// ************************************************************************* //
