/*--------------------------------*- C++ -*----------------------------------*\
| =========                 |                                                 |
| \\      /  F ield         | OpenFOAM: The Open Source CFD Toolbox           |
|  \\    /   O peration     | Version:  v2012                                 |
|   \\  /    A nd           | Website:  www.openfoam.com                      |
|    \\/     M anipulation  |                                                 |
\*---------------------------------------------------------------------------*/
FoamFile
{
    version     2.0;
    format      ascii;
    class       Cloud<basicKinematicParcel>;
    location    "0.067/lagrangian/kinematicCloud";
    object      positions;
}
// * * * * * * * * * * * * * * * * * * * * * * * * * * * * * * * * * * * * * //

54
(
(0.675079 0.00412984 0.03) 345
(0.671475 0.0157931 0.03) 844
(0.663193 0.0238291 0.03) 1144
(0.652098 0.00939468 0.03) 543
(0.641057 0.0307985 0.03) 1442
(0.631293 0.0242878 0.03) 1142
(0.526739 0.000637278 0.03) 35
(0.606532 0.0347555 0.03) 1640
(0.595828 0.0344306 0.03) 1639
(0.588657 0.0128992 0.03) 739
(0.586155 0.0165772 0.03) 839
(0.575552 0.00759625 0.03) 538
(0.532135 0.0385307 0.03) 1835
(0.521737 0.00137865 0.03) 134
(0.521846 0.0380369 0.03) 1834
(0.531465 0.0188226 0.03) 935
(0.517602 0.00420195 0.03) 334
(0.498547 0.0374249 0.03) 1733
(0.498998 0.0082474 0.03) 533
(0.497068 0.0344734 0.03) 1633
(0.487406 0.0287824 0.03) 1332
(0.470434 0.0367482 0.03) 1731
(0.464972 0.0295549 0.03) 1330
(0.452349 0.00641142 0.03) 430
(0.45078 0.0148754 0.03) 830
(0.440525 0.0289111 0.03) 1329
(0.428276 0.0049373 0.03) 328
(0.429557 0.0320699 0.03) 1428
(0.409864 0.00194992 0.03) 127
(0.41794 0.0329314 0.03) 1527
(0.298229 7.99659e-05 0.03) 19
(0.392247 0.00304823 0.03) 226
(0.360859 0.0389889 0.03) 1924
(0.372941 0.0217812 0.03) 1024
(0.371911 0.00930692 0.03) 524
(0.36396 0.0278967 0.03) 1224
(0.352414 0.0122773 0.03) 723
(0.343969 0.014754 0.03) 822
(0.332595 0.028093 0.03) 1222
(0.307915 0.000976091 0.03) 20
(0.313879 0.0110712 0.03) 620
(0.302149 0.0270612 0.03) 1220
(0.291257 0.0089646 0.03) 519
(0.282745 0.00755914 0.03) 518
(0.271829 0.0117491 0.03) 618
(0.261488 0.0255342 0.03) 1117
(0.2505 0.0330066 0.03) 1516
(0.24083 0.0185112 0.03) 916
(0.229603 0.0144244 0.03) 815
(0.219628 0.0306461 0.03) 1414
(0.208826 0.00407639 0.03) 313
(0.19949 0.013997 0.03) 713
(0.189366 0.0345928 0.03) 1612
(0.177582 0.00225241 0.03) 111
)


// ************************************************************************* //
