/*--------------------------------*- C++ -*----------------------------------*\
| =========                 |                                                 |
| \\      /  F ield         | OpenFOAM: The Open Source CFD Toolbox           |
|  \\    /   O peration     | Version:  v2012                                 |
|   \\  /    A nd           | Website:  www.openfoam.com                      |
|    \\/     M anipulation  |                                                 |
\*---------------------------------------------------------------------------*/
FoamFile
{
    version     2.0;
    format      ascii;
    class       vectorField;
    location    "0.067/lagrangian/kinematicCloud";
    object      U;
}
// * * * * * * * * * * * * * * * * * * * * * * * * * * * * * * * * * * * * * //


70
(
(5.78585 -0.0891668 0)
(6.73646 -0.0184588 0)
(6.7133 -0.0116557 0)
(6.39581 -0.0191801 0)
(6.62898 -0.00242575 0)
(6.61083 -0.000557876 0)
(3.409 0.130144 0)
(6.49959 0.00413097 0)
(6.42375 0.00507618 0)
(6.35856 0.0520864 0)
(6.32279 0.0581787 0)
(5.85155 0.0856877 0)
(0.398672 -1.21813e-05 0)
(0.370128 2.87136e-06 0)
(2.67921 0.00265142 0)
(5.76528 0.111843 0)
(4.53448 0.132899 0)
(5.20104 0.0191026 0)
(4.79618 0.17037 0)
(5.24613 0.0404239 0)
(5.07345 0.061726 0)
(1.68379 -2.16932e-05 0)
(4.73075 0.0485201 0)
(4.19886 0.119985 0)
(4.4789 0.127036 0)
(4.40238 0.0379003 0)
(4.04781 0.0915621 0)
(4.25862 0.0257461 0)
(2.14303 0.000523217 0)
(4.11681 0.014774 0)
(0.403505 9.42109e-06 0)
(3.43258 0.0129241 0)
(1.26982 -7.72875e-05 0)
(3.63193 0.0146888 0)
(3.59248 0.016645 0)
(3.54155 0.00900523 0)
(3.43069 0.00902296 0)
(3.33686 0.0071143 0)
(3.25307 0.00362141 0)
(0.941302 4.04621e-05 0)
(3.05569 0.00235451 0)
(2.96437 0.00156087 0)
(2.86678 0.000744942 0)
(2.77228 0.00093272 0)
(2.67624 0.000914863 0)
(2.57985 0.000535381 0)
(2.48362 3.59044e-05 0)
(2.386 0.000528811 0)
(2.28739 0.000392106 0)
(2.18944 -3.42822e-06 0)
(2.08929 0.00021575 0)
(1.98908 0.000150445 0)
(1.88845 -0.000138524 0)
(0.690016 4.30807e-05 0)
(1.68703 3.46805e-05 0)
(1.58455 3.13175e-05 0)
(1.4805 -0.000108894 0)
(1.38 -3.08763e-05 0)
(1.2762 -8.27951e-06 0)
(1.17176 -4.48046e-05 0)
(1.06701 -0.000125727 0)
(0.961004 -5.51211e-05 0)
(0.855033 -4.52763e-05 0)
(0.749676 -5.74694e-05 0)
(0.530809 -1.6257e-05 0)
(0.535481 1.91255e-07 0)
(0.427374 -3.76298e-06 0)
(0.241173 5.54017e-06 0)
(0.209352 -5.48881e-07 0)
(0.0994348 -1.71159e-06 0)
)


// ************************************************************************* //
