/*--------------------------------*- C++ -*----------------------------------*\
| =========                 |                                                 |
| \\      /  F ield         | OpenFOAM: The Open Source CFD Toolbox           |
|  \\    /   O peration     | Version:  v2012                                 |
|   \\  /    A nd           | Website:  www.openfoam.com                      |
|    \\/     M anipulation  |                                                 |
\*---------------------------------------------------------------------------*/
FoamFile
{
    version     2.0;
    format      ascii;
    class       volScalarField;
    location    "0.04";
    object      omega.air;
}
// * * * * * * * * * * * * * * * * * * * * * * * * * * * * * * * * * * * * * //

dimensions      [0 0 -1 0 0 0 0];


internalField   nonuniform List<scalar> 
5600
(
6586.22
7485.58
7886.82
7965
7866.34
7688.1
7481.27
7289.28
7125.25
6989.61
6880.26
6794.8
6732.22
6690.24
6663.97
6647.39
6636
6627.6
6621.38
6616.97
6614.13
6612.54
6611.85
6611.79
6612.18
6612.82
6613.46
6613.96
6614.29
6614.5
6614.63
6614.7
6614.74
6614.75
6614.77
6614.77
6614.77
6614.77
6614.77
6614.77
6614.77
6614.77
6614.78
6614.78
6614.78
6614.78
6614.78
6614.78
6614.78
6614.78
6614.78
6614.78
6614.78
6614.78
6614.78
6614.78
6614.78
6614.78
6614.78
6614.78
6614.78
6614.78
6614.78
6614.78
6614.78
6614.78
6614.78
6614.78
6614.79
6614.76
6614.82
6614.69
6614.96
6614.41
6615.48
6613.49
6617.03
6611.1
6620.44
6606.72
6625.42
6602.04
6628.77
6600.79
6628.86
6598.24
6640.41
6570.49
6688.16
6512.96
6737.88
6507.72
6670.99
6653.39
6449.76
6886.24
6305.48
6776.05
6807.75
5021.66
2450.5
2296.76
2571.55
2794.83
2928.42
2998.05
3009.53
2969.05
2968.95
3015.75
3072.52
3120.1
3150.67
3162.53
3157.1
3135.84
3102.67
3066.45
3033.99
3008.67
2991.02
2979.94
2973.78
2970.74
2969.5
2969.25
2969.72
2970.44
2971.04
2971.45
2971.71
2971.86
2971.95
2971.99
2972.02
2972.03
2972.04
2972.04
2972.04
2972.04
2972.04
2972.04
2972.04
2972.04
2972.04
2972.04
2972.04
2972.04
2972.04
2972.04
2972.04
2972.04
2972.04
2972.04
2972.04
2972.04
2972.04
2972.04
2972.04
2972.04
2972.04
2972.04
2972.04
2972.04
2972.04
2972.05
2972.04
2972.05
2972.04
2972.05
2972.04
2972.06
2972.02
2972.1
2971.96
2972.2
2971.81
2972.4
2971.56
2972.66
2971.37
2972.74
2971.5
2972.55
2971.56
2972.95
2970.15
2976.09
2966.18
2979.83
2971.83
2972.73
2983.16
2954.93
3015.53
2944.43
3041.25
2952.89
3121.47
2954.15
2358.56
1859.89
1592.18
1427.89
1345.83
1273.7
1280.39
1309.04
1351.11
1412.19
1483.31
1549.91
1610.59
1664.34
1708.03
1735.63
1743.91
1735.99
1719.79
1703.44
1691.19
1683.86
1680.43
1679.34
1679.45
1680.23
1681.24
1682.1
1682.7
1683.08
1683.3
1683.42
1683.48
1683.51
1683.53
1683.53
1683.54
1683.54
1683.54
1683.54
1683.54
1683.54
1683.54
1683.54
1683.54
1683.54
1683.54
1683.54
1683.54
1683.54
1683.54
1683.54
1683.54
1683.54
1683.54
1683.54
1683.54
1683.54
1683.54
1683.54
1683.54
1683.54
1683.54
1683.54
1683.54
1683.54
1683.54
1683.55
1683.52
1683.59
1683.43
1683.76
1683.12
1684.31
1682.21
1685.71
1680.25
1688.25
1677.46
1690.99
1675.66
1691.69
1675.92
1692.27
1671.4
1704.3
1652.98
1728.19
1646.62
1723.92
1681.17
1654.85
1758.85
1605.11
1757.09
1652.93
1780.67
1479.45
2011.23
1200.82
2345.18
1822.33
1493.27
1267.65
1111.12
992.509
907.031
847.057
802.326
775.917
761.725
770.7
791.289
821.421
859.883
905.077
946.782
979.908
1002.89
1017.44
1026.28
1031.76
1035.39
1037.99
1040.05
1041.83
1043.31
1044.47
1045.33
1045.92
1046.29
1046.52
1046.65
1046.72
1046.76
1046.78
1046.79
1046.79
1046.8
1046.8
1046.8
1046.8
1046.8
1046.8
1046.8
1046.8
1046.8
1046.8
1046.8
1046.8
1046.8
1046.8
1046.8
1046.8
1046.8
1046.8
1046.8
1046.8
1046.8
1046.8
1046.8
1046.8
1046.8
1046.8
1046.8
1046.8
1046.8
1046.79
1046.81
1046.78
1046.84
1046.7
1047
1046.4
1047.53
1045.5
1048.95
1043.43
1051.64
1040.24
1054.67
1037.78
1055.71
1037.33
1057.15
1030.58
1073.14
1000.93
1107.8
964.427
1106.73
999.387
1025.33
1104.19
909.342
1119.27
1018.11
789.681
1450.32
435.026
2341.98
1815.96
1479.83
1247.92
1079.71
952.559
853.167
774.762
710.492
658.732
616.196
582.536
556.442
535.092
522.634
514.33
517.223
525.709
534.696
541.178
544.31
544.651
543.298
541.272
539.296
537.772
536.84
536.426
536.33
536.375
536.46
536.54
536.601
536.642
536.667
536.681
536.689
536.693
536.695
536.696
536.697
536.697
536.697
536.697
536.697
536.697
536.697
536.697
536.697
536.697
536.697
536.697
536.697
536.697
536.697
536.697
536.697
536.697
536.697
536.697
536.698
536.697
536.698
536.697
536.699
536.694
536.706
536.679
536.74
536.607
536.886
536.324
537.409
535.408
538.917
533.078
542.238
528.726
547.275
523.566
551.47
520.719
553.263
516.787
564.472
490.983
607.428
431.427
656.968
406.711
602.983
535.324
415.804
718.052
285.424
668.118
438.951
416.637
788.598
144.684
2341.13
1814.12
1476.76
1243.89
1074.16
945.34
844.303
763.208
696.523
640.992
594.168
554.195
519.829
489.571
463.836
441.544
423.4
408.359
394.99
382.215
369.675
357.646
346.706
337.392
330.008
324.589
320.923
318.628
317.283
316.541
316.155
315.965
315.876
315.838
315.822
315.817
315.815
315.814
315.814
315.814
315.814
315.814
315.814
315.814
315.814
315.814
315.814
315.814
315.814
315.814
315.814
315.814
315.814
315.814
315.814
315.814
315.814
315.814
315.814
315.814
315.814
315.814
315.814
315.814
315.815
315.813
315.817
315.808
315.829
315.784
315.877
315.691
316.047
315.398
316.522
314.679
317.529
313.395
319.006
311.9
320.376
310.619
322.166
306.942
329.96
292.665
351.986
266.012
375.846
260.715
347.062
333.961
233.489
453.039
154.236
436.68
246.836
302.045
375.552
204.801
2340.86
1813.44
1475.75
1242.61
1072.6
943.444
842.125
760.585
693.536
637.496
590.043
549.332
513.941
482.79
455.352
431.218
410.012
391.094
373.695
357.252
341.645
327.192
314.42
303.785
295.492
289.446
285.322
282.682
281.087
280.174
279.677
279.419
279.291
279.231
279.203
279.191
279.186
279.184
279.183
279.183
279.182
279.182
279.182
279.182
279.182
279.182
279.182
279.182
279.182
279.182
279.182
279.182
279.182
279.182
279.182
279.182
279.182
279.182
279.182
279.182
279.182
279.182
279.182
279.182
279.182
279.182
279.183
279.181
279.185
279.177
279.193
279.161
279.224
279.108
279.308
278.984
279.473
278.792
279.662
278.651
279.737
278.579
280.055
277.534
282.558
272.867
289.773
264.106
297.966
261.929
289.329
287.349
247.69
334.671
216.294
331.723
258.236
282.607
284.658
286.435
2340.75
1813.13
1475.32
1242.08
1071.98
942.737
841.34
759.707
692.574
636.44
588.875
548.045
512.513
481.242
453.61
429.231
407.681
388.34
370.502
353.654
337.698
322.955
309.951
299.145
290.732
284.601
280.411
277.718
276.083
275.141
274.625
274.356
274.221
274.156
274.126
274.113
274.107
274.104
274.104
274.103
274.103
274.103
274.103
274.103
274.103
274.103
274.103
274.103
274.103
274.103
274.103
274.103
274.103
274.103
274.103
274.103
274.103
274.103
274.103
274.103
274.103
274.103
274.103
274.103
274.103
274.103
274.103
274.103
274.103
274.102
274.105
274.098
274.113
274.083
274.141
274.036
274.211
273.941
274.326
273.828
274.398
273.847
274.246
274.129
273.935
274.239
274.379
272.959
276.554
270.794
277.24
274.113
268.67
286.321
259.217
287.085
272.297
271.949
276.366
286.235
2340.71
1812.97
1475.11
1241.82
1071.69
942.413
840.988
759.329
692.17
636.007
588.412
547.556
511.998
480.697
453.026
428.603
407.007
387.619
369.732
352.835
336.829
322.038
308.992
298.153
289.716
283.568
279.365
276.662
275.02
274.073
273.553
273.281
273.145
273.079
273.048
273.035
273.029
273.026
273.025
273.025
273.025
273.025
273.025
273.025
273.025
273.025
273.025
273.025
273.025
273.025
273.025
273.025
273.025
273.025
273.025
273.025
273.025
273.025
273.025
273.025
273.025
273.025
273.025
273.025
273.025
273.025
273.025
273.025
273.025
273.024
273.026
273.023
273.028
273.019
273.034
273.011
273.041
273.007
273.04
273.011
273.051
272.948
273.217
272.639
273.646
272.239
273.735
272.781
272.422
274.617
270.73
275.494
270.943
274.625
271.974
273.463
274.189
270.868
274.774
275.217
2340.68
1812.9
1475.01
1241.7
1071.56
942.267
840.83
759.162
691.994
635.82
588.214
547.351
511.786
480.475
452.789
428.353
406.747
387.354
369.462
352.555
336.534
321.726
308.666
297.816
289.371
283.217
279.011
276.305
274.66
273.711
273.191
272.918
272.78
272.714
272.684
272.67
272.664
272.661
272.66
272.66
272.66
272.66
272.66
272.66
272.66
272.66
272.66
272.66
272.66
272.66
272.66
272.66
272.66
272.66
272.66
272.66
272.66
272.66
272.66
272.66
272.66
272.66
272.66
272.66
272.66
272.66
272.66
272.66
272.66
272.659
272.661
272.657
272.666
272.649
272.677
272.633
272.696
272.616
272.701
272.638
272.636
272.757
272.476
272.905
272.438
272.701
272.995
271.792
274.038
271.078
273.854
272.492
271.483
274.81
270.473
273.901
272.598
272.277
272.351
274.113
2340.68
1812.91
1475.02
1241.72
1071.57
942.284
840.848
759.178
692.01
635.835
588.229
547.365
511.801
480.489
452.803
428.366
406.761
387.368
369.476
352.568
336.546
321.737
308.675
297.823
289.376
283.221
279.014
276.308
274.663
273.714
273.193
272.92
272.783
272.717
272.686
272.673
272.667
272.664
272.663
272.663
272.663
272.663
272.663
272.663
272.663
272.663
272.663
272.663
272.663
272.663
272.663
272.663
272.663
272.663
272.663
272.663
272.663
272.663
272.663
272.663
272.663
272.663
272.663
272.663
272.663
272.663
272.663
272.662
272.663
272.662
272.664
272.66
272.668
272.654
272.676
272.643
272.689
272.631
272.695
272.636
272.676
272.669
272.633
272.72
272.568
272.818
272.421
272.978
272.381
272.679
273.19
271.459
274.3
271.211
273.216
273.327
270.981
274.946
269.955
275.901
2340.71
1813
1475.15
1241.87
1071.74
942.462
841.038
759.377
692.217
636.053
588.458
547.601
512.042
480.739
453.067
428.645
407.049
387.662
369.776
352.877
336.87
322.076
309.027
298.184
289.742
283.59
279.385
276.68
275.036
274.088
273.568
273.295
273.158
273.092
273.062
273.048
273.042
273.04
273.039
273.038
273.038
273.038
273.038
273.038
273.038
273.038
273.038
273.038
273.038
273.038
273.038
273.038
273.038
273.038
273.038
273.038
273.038
273.038
273.038
273.038
273.038
273.038
273.038
273.038
273.038
273.038
273.038
273.038
273.038
273.037
273.04
273.036
273.043
273.031
273.049
273.023
273.056
273.019
273.053
273.033
273.029
273.061
273.011
273.056
273.043
273.012
273.057
273.072
272.92
273.22
272.891
272.987
273.464
272.111
274.429
271.53
273.844
274.133
268.977
280.229
2340.76
1813.17
1475.39
1242.15
1072.06
942.819
841.424
759.789
692.654
636.519
588.954
548.124
512.592
481.32
453.689
429.315
407.773
388.441
370.61
353.767
337.814
323.071
310.065
299.256
290.838
284.703
280.51
277.815
276.178
275.236
274.719
274.449
274.314
274.249
274.219
274.206
274.2
274.198
274.197
274.196
274.196
274.196
274.196
274.196
274.196
274.196
274.196
274.196
274.196
274.196
274.196
274.196
274.196
274.196
274.196
274.196
274.196
274.196
274.196
274.196
274.196
274.196
274.196
274.196
274.196
274.196
274.196
274.196
274.197
274.196
274.198
274.194
274.2
274.19
274.205
274.184
274.209
274.184
274.202
274.201
274.179
274.223
274.172
274.204
274.212
274.174
274.18
274.31
273.961
274.486
274.029
273.996
274.997
272.64
276.538
271.252
277.01
273.051
271.22
283.073
2340.87
1813.49
1475.85
1242.71
1072.72
943.558
842.252
760.706
693.662
637.625
590.178
549.485
514.1
482.992
455.569
431.497
410.388
391.575
374.277
357.923
342.391
327.995
315.263
304.654
296.376
290.34
286.224
283.589
281.999
281.089
280.594
280.337
280.21
280.149
280.121
280.109
280.104
280.102
280.101
280.101
280.101
280.101
280.101
280.101
280.101
280.101
280.101
280.101
280.101
280.101
280.101
280.101
280.101
280.101
280.101
280.101
280.101
280.101
280.101
280.101
280.101
280.101
280.101
280.101
280.101
280.101
280.101
280.101
280.101
280.1
280.102
280.099
280.105
280.095
280.109
280.091
280.111
280.095
280.098
280.116
280.074
280.131
280.086
280.078
280.166
280.031
280.077
280.357
279.501
281.02
279.106
280.686
280.565
277.878
284.633
273.012
288.703
272.025
282.235
285.637
2341.15
1814.18
1476.92
1243.99
1074.37
945.46
844.555
763.39
696.817
641.314
594.578
554.844
520.553
490.844
465.147
443.685
426.477
412.317
399.744
387.672
375.728
364.173
353.587
344.523
337.308
332.02
328.461
326.245
324.955
324.245
323.878
323.698
323.614
323.578
323.563
323.557
323.555
323.555
323.555
323.555
323.555
323.555
323.555
323.555
323.555
323.555
323.555
323.555
323.555
323.555
323.555
323.555
323.555
323.555
323.555
323.555
323.555
323.555
323.555
323.555
323.555
323.555
323.555
323.555
323.555
323.555
323.555
323.555
323.555
323.554
323.556
323.553
323.559
323.549
323.563
323.545
323.564
323.552
323.546
323.583
323.507
323.612
323.518
323.534
323.656
323.419
323.576
323.902
322.578
325.237
321.453
325.323
323.14
321.353
329.327
312.827
338.114
304.225
335.026
311.375
2342.03
1815.97
1480.14
1247.95
1080.29
952.665
854.196
775.307
712.213
660.37
619.283
587.557
562.668
544.755
532.924
530.307
537.736
549.399
560.66
568.846
573.348
574.8
574.312
572.944
571.463
570.275
569.54
569.229
569.177
569.235
569.319
569.393
569.448
569.484
569.505
569.518
569.524
569.528
569.529
569.53
569.531
569.531
569.531
569.531
569.531
569.531
569.531
569.531
569.531
569.531
569.531
569.531
569.531
569.531
569.531
569.531
569.531
569.531
569.531
569.531
569.531
569.531
569.531
569.531
569.531
569.531
569.531
569.531
569.531
569.531
569.532
569.53
569.534
569.526
569.54
569.519
569.546
569.518
569.535
569.553
569.47
569.642
569.385
569.669
569.468
569.481
569.629
569.616
568.912
570.921
567.531
571.308
569.083
567.351
574.374
560.687
579.546
550.741
576.886
537.715
2345.26
1822.35
1493.91
1268.16
1113.17
994.11
912.802
852.21
813.864
787.287
784.9
801.493
828.495
863.692
907.079
952.992
993.788
1024.57
1044.83
1057.1
1064.44
1069.08
1072.29
1074.69
1076.65
1078.35
1079.77
1080.88
1081.68
1082.22
1082.56
1082.76
1082.87
1082.93
1082.97
1082.98
1082.99
1083
1083
1083
1083
1083
1083
1083
1083
1083
1083
1083
1083
1083
1083
1083
1083
1083
1083
1083
1083
1083
1083
1083
1083
1083
1083
1083
1083
1083
1083
1083
1083
1083
1083
1083
1083
1083
1083
1083
1083.01
1082.99
1083.02
1082.98
1083.01
1083.02
1082.92
1083.14
1082.83
1083.12
1083.03
1082.75
1083.39
1082.72
1082.82
1083.74
1081.84
1083.75
1082.49
1081.76
1082.04
1075.43
1077.93
1046.67
2358.75
1860.85
1594.83
1434.06
1353.72
1289.09
1305.8
1337.08
1391.07
1464.94
1540.75
1610.54
1671.99
1724.19
1763.5
1784.01
1783.94
1768.4
1746.97
1727.72
1714.03
1705.97
1702.12
1700.74
1700.59
1701.17
1702.04
1702.82
1703.37
1703.73
1703.93
1704.04
1704.1
1704.13
1704.14
1704.15
1704.15
1704.15
1704.15
1704.15
1704.15
1704.15
1704.15
1704.15
1704.15
1704.15
1704.15
1704.15
1704.15
1704.15
1704.15
1704.15
1704.15
1704.15
1704.15
1704.15
1704.15
1704.15
1704.15
1704.15
1704.15
1704.15
1704.15
1704.16
1704.16
1704.16
1704.16
1704.16
1704.15
1704.16
1704.15
1704.16
1704.15
1704.16
1704.15
1704.17
1704.14
1704.17
1704.15
1704.14
1704.2
1704.08
1704.25
1704.08
1704.17
1704.22
1704.06
1704.1
1704.57
1703.29
1705.2
1703.53
1703.39
1706.47
1699.92
1707.87
1697.33
1702.01
1690.43
1672.81
2454.73
2305.89
2580.24
2808.41
2934.76
3009.78
2993.85
2968.11
3014.47
3083.98
3149.12
3197.87
3226.04
3233.93
3223.61
3196.98
3159.91
3121.85
3088.91
3063.65
3046.15
3035.1
3028.75
3025.51
3024.11
3023.71
3024.01
3024.62
3025.14
3025.5
3025.73
3025.86
3025.94
3025.98
3026
3026.01
3026.02
3026.02
3026.02
3026.02
3026.02
3026.02
3026.02
3026.02
3026.02
3026.02
3026.02
3026.02
3026.02
3026.02
3026.02
3026.02
3026.02
3026.02
3026.02
3026.02
3026.02
3026.02
3026.02
3026.02
3026.02
3026.02
3026.02
3026.02
3026.02
3026.02
3026.02
3026.02
3026.02
3026.02
3026.02
3026.02
3026.02
3026.03
3026.02
3026.03
3026.02
3026.03
3026.02
3026.02
3026.03
3026.02
3026.04
3026.01
3026.04
3026.02
3026.02
3026.04
3026.01
3025.99
3026.11
3025.83
3026.04
3025.94
3025.26
3024.95
3022.36
3017.34
3006.24
2988.61
6588.08
7481.91
7876.8
7935.89
7826.31
7630.47
7414.93
7221.08
7053.74
6916.43
6806.58
6721.56
6659.8
6618.7
6593.15
6577.08
6566.05
6557.85
6551.69
6547.3
6544.43
6542.77
6542.03
6541.95
6542.32
6542.92
6543.53
6543.99
6544.3
6544.49
6544.61
6544.67
6544.7
6544.72
6544.73
6544.73
6544.74
6544.74
6544.74
6544.74
6544.74
6544.74
6544.74
6544.74
6544.74
6544.74
6544.74
6544.74
6544.74
6544.74
6544.74
6544.74
6544.74
6544.74
6544.74
6544.74
6544.74
6544.74
6544.74
6544.74
6544.74
6544.74
6544.74
6544.74
6544.74
6544.74
6544.74
6544.74
6544.74
6544.74
6544.74
6544.74
6544.74
6544.74
6544.75
6544.74
6544.76
6544.72
6544.77
6544.72
6544.77
6544.75
6544.69
6544.88
6544.54
6545
6544.53
6544.85
6544.78
6544.7
6544.63
6545.31
6544.21
6545.18
6546.93
6542.69
6555.59
6547.06
6581.35
6592.89
3711.86
1430.69
1497.99
2237.11
1268.95
560.796
371.995
336.857
328.996
323.774
317.255
309.597
301.495
293.691
286.944
281.806
278.344
276.156
274.751
273.837
273.265
272.928
272.763
272.699
272.679
272.673
272.671
272.67
272.67
272.67
272.669
272.669
272.669
272.669
272.669
272.669
272.669
272.669
272.669
272.669
272.669
272.669
272.669
272.669
272.669
272.669
272.669
272.669
272.669
272.669
272.669
272.669
272.669
272.669
272.669
272.669
272.669
272.669
272.669
272.669
272.669
272.669
272.669
272.669
272.669
272.669
272.669
272.669
272.669
272.669
272.669
272.669
272.669
272.669
272.669
272.669
272.669
272.669
272.669
272.669
272.669
272.669
272.669
272.669
272.669
272.67
272.669
272.67
272.668
272.67
272.668
272.67
272.668
272.668
272.668
272.665
272.664
272.657
272.654
272.636
3550.07
2836.01
2381.51
2304.93
992.818
460.821
351.406
330.56
325.69
321.704
315.625
308.221
300.492
293.091
286.616
281.59
278.162
276.029
274.707
273.854
273.303
272.955
272.761
272.672
272.636
272.621
272.616
272.613
272.612
272.611
272.611
272.611
272.611
272.611
272.611
272.611
272.611
272.611
272.611
272.611
272.611
272.611
272.611
272.611
272.611
272.611
272.611
272.611
272.611
272.611
272.611
272.611
272.611
272.611
272.611
272.611
272.611
272.611
272.611
272.611
272.611
272.611
272.611
272.611
272.611
272.611
272.611
272.611
272.611
272.611
272.611
272.611
272.611
272.611
272.611
272.611
272.611
272.611
272.611
272.611
272.611
272.611
272.611
272.611
272.611
272.611
272.61
272.612
272.609
272.612
272.609
272.612
272.609
272.612
272.608
272.611
272.605
272.607
272.6
272.602
2577.75
2572.81
2794.13
1863.94
695.179
378.542
331.345
325.602
323.931
320.696
314.692
307.27
299.706
292.588
286.34
281.405
277.99
275.894
274.663
273.894
273.378
273.029
272.809
272.687
272.627
272.599
272.585
272.579
272.576
272.575
272.574
272.574
272.573
272.573
272.573
272.573
272.573
272.573
272.573
272.573
272.573
272.573
272.573
272.573
272.573
272.573
272.573
272.573
272.573
272.573
272.573
272.573
272.573
272.573
272.573
272.573
272.573
272.573
272.573
272.573
272.573
272.573
272.573
272.573
272.573
272.573
272.573
272.573
272.573
272.573
272.573
272.573
272.573
272.573
272.573
272.573
272.573
272.573
272.573
272.573
272.573
272.573
272.573
272.573
272.573
272.574
272.572
272.574
272.571
272.575
272.571
272.576
272.57
272.577
272.569
272.579
272.568
272.583
272.571
272.598
1674.86
1820.58
2238.04
1115.35
447.896
342.9
330.25
325.181
322.766
319.867
314.139
306.7
299.158
292.197
286.119
281.263
277.844
275.749
274.578
273.893
273.44
273.121
272.897
272.754
272.672
272.629
272.607
272.596
272.59
272.587
272.586
272.585
272.584
272.584
272.584
272.584
272.584
272.584
272.584
272.584
272.584
272.584
272.584
272.584
272.584
272.584
272.584
272.584
272.584
272.584
272.584
272.584
272.584
272.584
272.584
272.584
272.584
272.584
272.584
272.584
272.584
272.584
272.584
272.584
272.584
272.584
272.584
272.584
272.584
272.584
272.584
272.584
272.584
272.584
272.584
272.584
272.584
272.584
272.584
272.584
272.584
272.584
272.584
272.584
272.584
272.585
272.583
272.585
272.582
272.587
272.581
272.588
272.58
272.59
272.579
272.594
272.581
272.604
272.591
272.637
886.304
1231.24
1310.87
612.193
375.273
331.989
318.839
317.148
317.819
317.133
312.949
306.153
298.786
291.93
285.965
281.171
277.741
275.61
274.442
273.809
273.418
273.146
272.946
272.806
272.716
272.663
272.634
272.619
272.611
272.607
272.605
272.604
272.604
272.603
272.603
272.603
272.603
272.603
272.603
272.603
272.603
272.603
272.603
272.603
272.603
272.603
272.603
272.603
272.603
272.603
272.603
272.603
272.603
272.603
272.603
272.603
272.603
272.603
272.603
272.603
272.603
272.603
272.603
272.603
272.603
272.603
272.603
272.603
272.603
272.603
272.603
272.603
272.603
272.603
272.603
272.603
272.603
272.603
272.603
272.603
272.603
272.603
272.603
272.603
272.603
272.603
272.602
272.604
272.601
272.605
272.6
272.607
272.599
272.609
272.599
272.614
272.602
272.626
272.615
272.665
415.156
730.605
647.508
382.089
306.061
304.244
309.843
314.028
315.727
315.316
312.08
306.023
298.859
291.972
285.973
281.166
277.704
275.515
274.303
273.671
273.311
273.079
272.913
272.791
272.708
272.657
272.628
272.613
272.604
272.6
272.598
272.597
272.596
272.596
272.596
272.596
272.596
272.596
272.596
272.596
272.596
272.596
272.596
272.596
272.596
272.596
272.596
272.596
272.596
272.596
272.596
272.596
272.596
272.596
272.596
272.596
272.596
272.596
272.596
272.596
272.596
272.596
272.596
272.596
272.596
272.596
272.596
272.596
272.596
272.596
272.596
272.596
272.596
272.596
272.596
272.596
272.596
272.596
272.596
272.596
272.596
272.596
272.596
272.596
272.595
272.596
272.595
272.597
272.594
272.598
272.593
272.599
272.593
272.601
272.592
272.605
272.595
272.616
272.608
272.653
275.601
398.422
358.085
300.78
307.193
315.349
312.123
312.02
313.163
312.52
310.182
305.531
299.183
292.436
286.283
281.305
277.729
275.461
274.189
273.534
273.184
272.974
272.832
272.732
272.664
272.622
272.598
272.585
272.578
272.575
272.573
272.572
272.572
272.571
272.571
272.571
272.571
272.571
272.571
272.571
272.571
272.571
272.571
272.571
272.571
272.571
272.571
272.571
272.571
272.571
272.571
272.571
272.571
272.571
272.571
272.571
272.571
272.571
272.571
272.571
272.571
272.571
272.571
272.571
272.571
272.571
272.571
272.571
272.571
272.571
272.571
272.571
272.571
272.571
272.571
272.571
272.571
272.571
272.571
272.571
272.571
272.571
272.571
272.571
272.571
272.571
272.57
272.572
272.57
272.573
272.569
272.574
272.568
272.576
272.568
272.579
272.57
272.588
272.581
272.62
263.869
290.631
289.847
291.015
296.198
297.464
298.863
304.915
310.121
310.044
307.518
303.961
299.138
293.281
287.248
281.973
278.032
275.498
274.083
273.38
273.043
272.861
272.748
272.672
272.623
272.593
272.576
272.567
272.562
272.559
272.558
272.557
272.557
272.557
272.557
272.557
272.557
272.557
272.557
272.557
272.557
272.557
272.557
272.557
272.557
272.557
272.557
272.557
272.557
272.557
272.557
272.557
272.557
272.557
272.557
272.557
272.557
272.557
272.557
272.557
272.557
272.557
272.557
272.557
272.557
272.557
272.557
272.557
272.557
272.557
272.557
272.557
272.557
272.557
272.557
272.557
272.557
272.557
272.557
272.557
272.557
272.557
272.556
272.557
272.556
272.557
272.556
272.557
272.556
272.558
272.555
272.559
272.554
272.56
272.554
272.563
272.555
272.57
272.564
272.596
270.859
273.815
281.676
281.029
290.339
297.849
300.511
305.527
310.667
310.376
305.669
300.467
296
291.715
287.245
282.869
279.124
276.368
274.616
273.637
273.135
272.878
272.738
272.66
272.616
272.592
272.58
272.574
272.571
272.569
272.569
272.568
272.568
272.568
272.568
272.568
272.568
272.568
272.568
272.568
272.568
272.568
272.568
272.568
272.568
272.568
272.568
272.568
272.568
272.568
272.568
272.568
272.568
272.568
272.568
272.568
272.568
272.568
272.568
272.568
272.568
272.568
272.568
272.568
272.568
272.568
272.568
272.568
272.568
272.568
272.568
272.568
272.568
272.568
272.568
272.568
272.568
272.568
272.568
272.568
272.568
272.568
272.568
272.568
272.568
272.568
272.567
272.568
272.567
272.569
272.566
272.57
272.565
272.571
272.565
272.573
272.566
272.579
272.571
272.599
272.173
272.837
278.79
274.722
291.782
293.33
293.469
301.995
308.17
309.832
306.051
298.416
290.433
284.221
280.009
277.258
275.453
274.282
273.557
273.142
272.917
272.792
272.717
272.672
272.647
272.635
272.628
272.625
272.624
272.624
272.624
272.624
272.623
272.623
272.623
272.623
272.623
272.623
272.623
272.623
272.623
272.623
272.623
272.623
272.623
272.623
272.623
272.623
272.623
272.623
272.623
272.623
272.623
272.623
272.623
272.623
272.623
272.623
272.623
272.623
272.623
272.623
272.623
272.623
272.623
272.623
272.623
272.623
272.623
272.623
272.623
272.623
272.623
272.623
272.623
272.623
272.623
272.623
272.623
272.623
272.623
272.623
272.623
272.624
272.623
272.624
272.623
272.624
272.623
272.625
272.622
272.625
272.621
272.627
272.62
272.628
272.62
272.632
272.624
272.648
269.997
275.455
275.933
272.079
291.989
284.674
291.348
312.816
320.18
315.977
310.733
306.743
302.331
296.57
290.082
284.092
279.473
276.413
274.619
273.663
273.191
272.965
272.857
272.806
272.784
272.775
272.773
272.773
272.773
272.774
272.774
272.774
272.774
272.774
272.774
272.774
272.774
272.774
272.774
272.774
272.774
272.774
272.774
272.774
272.774
272.774
272.774
272.774
272.774
272.774
272.774
272.774
272.774
272.774
272.774
272.774
272.774
272.774
272.774
272.774
272.774
272.774
272.774
272.774
272.774
272.774
272.774
272.774
272.774
272.774
272.774
272.774
272.774
272.774
272.774
272.774
272.774
272.774
272.774
272.774
272.774
272.774
272.774
272.774
272.774
272.775
272.774
272.775
272.773
272.776
272.773
272.777
272.772
272.778
272.77
272.78
272.769
272.783
272.771
272.795
264.951
280.91
269.735
274.549
293.66
276.088
310.289
353.911
361.033
346.39
328.638
314.411
303.777
295.385
288.476
282.969
278.95
276.316
274.754
273.904
273.475
273.269
273.174
273.133
273.119
273.118
273.121
273.124
273.126
273.127
273.128
273.129
273.129
273.129
273.129
273.129
273.129
273.129
273.129
273.129
273.129
273.129
273.129
273.129
273.129
273.129
273.129
273.129
273.129
273.129
273.129
273.129
273.129
273.129
273.129
273.129
273.129
273.129
273.129
273.129
273.129
273.129
273.129
273.129
273.129
273.129
273.129
273.129
273.129
273.129
273.129
273.129
273.129
273.129
273.129
273.129
273.129
273.129
273.129
273.129
273.129
273.129
273.129
273.129
273.129
273.129
273.129
273.13
273.128
273.131
273.126
273.133
273.125
273.135
273.123
273.138
273.121
273.144
273.123
273.16
259.797
290.837
258.475
286.283
290.981
285.265
394.367
478.707
469.392
419.595
372.997
340.572
319.444
304.917
294.23
286.372
280.988
277.638
275.733
274.733
274.252
274.039
273.954
273.929
273.929
273.937
273.946
273.953
273.958
273.961
273.963
273.964
273.964
273.964
273.965
273.965
273.965
273.965
273.965
273.965
273.965
273.965
273.965
273.965
273.965
273.965
273.965
273.965
273.965
273.965
273.965
273.965
273.965
273.965
273.965
273.965
273.965
273.965
273.965
273.965
273.965
273.965
273.965
273.965
273.965
273.965
273.965
273.965
273.965
273.965
273.965
273.965
273.965
273.965
273.965
273.965
273.965
273.965
273.965
273.965
273.965
273.965
273.965
273.965
273.964
273.965
273.964
273.967
273.962
273.969
273.958
273.974
273.954
273.98
273.949
273.989
273.946
274.005
273.954
274.043
261.165
300.329
251.8
311.568
295.216
391.331
631.2
751.044
706.962
596.262
491.303
415.653
366.041
333.274
311.077
296.203
286.856
281.437
278.506
277.029
276.365
276.116
276.055
276.071
276.112
276.153
276.184
276.204
276.217
276.224
276.228
276.23
276.231
276.232
276.232
276.232
276.232
276.232
276.232
276.232
276.232
276.232
276.232
276.232
276.232
276.232
276.232
276.232
276.232
276.232
276.232
276.232
276.232
276.232
276.232
276.232
276.232
276.232
276.232
276.232
276.232
276.232
276.232
276.232
276.232
276.232
276.232
276.232
276.232
276.232
276.232
276.232
276.232
276.232
276.232
276.232
276.232
276.232
276.232
276.232
276.232
276.233
276.232
276.233
276.232
276.234
276.229
276.238
276.223
276.247
276.213
276.262
276.198
276.283
276.181
276.318
276.171
276.382
276.207
276.522
301.472
324.943
288.706
382.268
412.489
725.915
1087.86
1190.32
1081.98
899.489
724.802
587.667
485.951
412.285
360.642
326.62
306.008
294.36
288.128
285.073
283.845
283.54
283.611
283.803
284.004
284.165
284.275
284.343
284.384
284.407
284.419
284.426
284.429
284.431
284.432
284.432
284.433
284.433
284.433
284.433
284.433
284.433
284.433
284.433
284.433
284.433
284.433
284.433
284.433
284.433
284.433
284.433
284.433
284.433
284.433
284.433
284.433
284.433
284.433
284.433
284.433
284.433
284.433
284.433
284.433
284.433
284.433
284.433
284.433
284.433
284.433
284.433
284.433
284.433
284.433
284.433
284.433
284.433
284.433
284.433
284.433
284.433
284.432
284.434
284.43
284.439
284.422
284.452
284.403
284.481
284.369
284.531
284.319
284.618
284.247
284.779
284.191
285.076
284.336
285.708
540.43
525.803
539.356
657.517
825.295
1326.68
1692.57
1694.83
1491.98
1238.35
1014.97
828.283
676.207
555.996
464.86
401.541
362.402
339.961
327.699
321.971
320.268
320.527
321.455
322.473
323.336
323.971
324.395
324.653
324.8
324.879
324.921
324.943
324.954
324.96
324.963
324.964
324.965
324.965
324.965
324.965
324.965
324.965
324.965
324.965
324.966
324.966
324.966
324.966
324.966
324.966
324.966
324.966
324.966
324.966
324.966
324.966
324.966
324.966
324.966
324.966
324.966
324.966
324.966
324.966
324.966
324.966
324.966
324.966
324.966
324.966
324.966
324.966
324.966
324.966
324.966
324.966
324.966
324.966
324.966
324.966
324.965
324.967
324.964
324.971
324.957
324.985
324.933
325.025
324.882
325.099
324.805
325.221
324.684
325.499
324.437
326.154
324.156
327.451
324.628
330.111
1057.55
1014.72
1078.82
1208.64
1460.84
2057.09
2328
2159.42
1833.35
1538.72
1288.7
1068.16
883.124
734.351
620.882
542.379
500.994
485.857
481.693
482.7
486.508
491.046
495.166
498.496
500.939
502.566
503.563
504.145
504.474
504.653
504.747
504.796
504.82
504.833
504.839
504.842
504.844
504.845
504.845
504.846
504.846
504.846
504.846
504.846
504.846
504.846
504.846
504.846
504.846
504.846
504.846
504.846
504.846
504.846
504.846
504.846
504.846
504.846
504.846
504.846
504.846
504.846
504.846
504.846
504.846
504.846
504.847
504.847
504.847
504.847
504.847
504.847
504.847
504.847
504.847
504.847
504.847
504.847
504.847
504.847
504.846
504.849
504.843
504.856
504.829
504.884
504.787
504.953
504.711
505.048
504.66
505.145
504.635
505.516