/*--------------------------------*- C++ -*----------------------------------*\
| =========                 |                                                 |
| \\      /  F ield         | OpenFOAM: The Open Source CFD Toolbox           |
|  \\    /   O peration     | Version:  v2012                                 |
|   \\  /    A nd           | Website:  www.openfoam.com                      |
|    \\/     M anipulation  |                                                 |
\*---------------------------------------------------------------------------*/
FoamFile
{
    version     2.0;
    format      ascii;
    class       volVectorField;
    location    "0.272";
    object      U.air;
}
// * * * * * * * * * * * * * * * * * * * * * * * * * * * * * * * * * * * * * //

dimensions      [0 1 -1 0 0 0 0];


internalField   nonuniform List<vector> 
1900
(
(39.9676 0.00859687 0)
(39.9239 0.015103 0)
(39.8679 0.0180587 0)
(39.8035 0.0207993 0)
(39.73 0.0237062 0)
(39.6526 0.0267683 0)
(39.5681 0.0297565 0)
(39.4712 0.0344329 0)
(39.3801 0.0347838 0)
(39.2118 0.0735029 0)
(40.0053 0.0147927 0)
(40.0212 0.0233975 0)
(40.0401 0.0257182 0)
(40.0561 0.0277458 0)
(40.0726 0.0304775 0)
(40.0898 0.0329399 0)
(40.1095 0.0364838 0)
(40.1257 0.0385578 0)
(40.1466 0.0533817 0)
(40.1568 0.0585714 0)
(40.0029 0.00824745 0)
(40.0161 0.0135856 0)
(40.0335 0.0137912 0)
(40.051 0.0145443 0)
(40.0688 0.0163129 0)
(40.0879 0.0182043 0)
(40.1087 0.0208556 0)
(40.1299 0.0248049 0)
(40.1543 0.0350812 0)
(40.1844 0.0529454 0)
(40.0018 0.00414496 0)
(40.0132 0.00782145 0)
(40.0301 0.00860527 0)
(40.0479 0.00970547 0)
(40.066 0.0114323 0)
(40.0852 0.0132518 0)
(40.1064 0.0158683 0)
(40.1291 0.0197454 0)
(40.1561 0.0288801 0)
(40.1894 0.0416246 0)
(40.0015 0.00111201 0)
(40.012 0.00211928 0)
(40.0285 0.00232728 0)
(40.0464 0.00266241 0)
(40.0645 0.0032531 0)
(40.084 0.00405072 0)
(40.1056 0.00562475 0)
(40.1294 0.00842123 0)
(40.1575 0.0146681 0)
(40.1918 0.0210543 0)
(40.0016 -0.00180292 0)
(40.0122 -0.00371605 0)
(40.0288 -0.00416325 0)
(40.0468 -0.00431398 0)
(40.065 -0.00436079 0)
(40.0846 -0.00401592 0)
(40.1066 -0.00289513 0)
(40.1311 -0.000789747 0)
(40.1597 0.00317607 0)
(40.1936 0.00640816 0)
(40.0019 -0.00486279 0)
(40.0136 -0.00947526 0)
(40.0308 -0.0105123 0)
(40.0489 -0.0114613 0)
(40.0672 -0.0126727 0)
(40.0871 -0.0134371 0)
(40.1094 -0.0134428 0)
(40.1344 -0.0127054 0)
(40.163 -0.0110203 0)
(40.1957 -0.0104532 0)
(40.0032 -0.00926927 0)
(40.0168 -0.0153327 0)
(40.0348 -0.0157393 0)
(40.0527 -0.016477 0)
(40.0709 -0.01804 0)
(40.0911 -0.0194037 0)
(40.1136 -0.0202815 0)
(40.1388 -0.020797 0)
(40.1672 -0.0210301 0)
(40.1987 -0.0225689 0)
(40.0057 -0.0162088 0)
(40.0223 -0.0253699 0)
(40.042 -0.0274341 0)
(40.0582 -0.0288787 0)
(40.0751 -0.0308084 0)
(40.0938 -0.0324197 0)
(40.1145 -0.0335734 0)
(40.1374 -0.0344434 0)
(40.1628 -0.0352272 0)
(40.1893 -0.0366674 0)
(39.9675 -0.0101412 0)
(39.9214 -0.0185951 0)
(39.8645 -0.0229106 0)
(39.797 -0.0265887 0)
(39.7223 -0.0303253 0)
(39.6428 -0.0339089 0)
(39.5582 -0.0373399 0)
(39.4686 -0.0407417 0)
(39.3739 -0.044104 0)
(39.2741 -0.0480425 0)
(39.1724 -0.0392832 0)
(38.0177 -0.354716 0)
(36.4706 -0.795028 0)
(34.9649 -1.35456 0)
(33.8571 -1.88881 0)
(33.1084 -2.33221 0)
(32.5392 -2.60363 0)
(32.0829 -2.66925 0)
(31.6444 -2.56937 0)
(31.2125 -2.34911 0)
(30.7875 -2.07049 0)
(30.3643 -1.7795 0)
(29.9524 -1.50832 0)
(29.5485 -1.27202 0)
(29.1573 -1.07625 0)
(28.7781 -0.916713 0)
(28.4116 -0.788198 0)
(28.064 -0.687351 0)
(27.7408 -0.609145 0)
(27.4425 -0.546852 0)
(27.1687 -0.495483 0)
(26.9183 -0.452442 0)
(26.6949 -0.416941 0)
(26.4947 -0.386957 0)
(26.3183 -0.360508 0)
(26.16 -0.335976 0)
(26.025 -0.31421 0)
(25.9099 -0.295561 0)
(25.8114 -0.279271 0)
(25.7267 -0.264395 0)
(25.654 -0.250712 0)
(25.5905 -0.238196 0)
(25.5362 -0.226995 0)
(25.4877 -0.216719 0)
(25.445 -0.207302 0)
(25.4078 -0.198535 0)
(25.3758 -0.19024 0)
(25.3482 -0.182458 0)
(25.3252 -0.175383 0)
(25.306 -0.168938 0)
(25.2906 -0.163041 0)
(25.2787 -0.157573 0)
(25.2698 -0.152351 0)
(25.2631 -0.147243 0)
(25.2584 -0.142436 0)
(25.2556 -0.138062 0)
(25.2545 -0.13406 0)
(25.2551 -0.130123 0)
(25.2571 -0.126263 0)
(25.2605 -0.122568 0)
(25.2652 -0.119149 0)
(25.2711 -0.116011 0)
(25.2782 -0.113074 0)
(25.2864 -0.110244 0)
(25.2957 -0.10748 0)
(25.3058 -0.104796 0)
(25.3167 -0.102252 0)
(25.3284 -0.0998766 0)
(25.3407 -0.0976624 0)
(25.3536 -0.0955485 0)
(25.367 -0.0934837 0)
(25.381 -0.0914503 0)
(25.3953 -0.0895078 0)
(25.41 -0.0876786 0)
(25.4251 -0.0859679 0)
(25.4405 -0.0843313 0)
(25.4562 -0.0827494 0)
(25.4721 -0.081203 0)
(25.4882 -0.0797101 0)
(25.5045 -0.0782678 0)
(25.521 -0.0768934 0)
(25.5375 -0.0755734 0)
(25.5541 -0.0743038 0)
(25.5708 -0.073061 0)
(25.5875 -0.0718486 0)
(25.6042 -0.0706581 0)
(25.6208 -0.0695085 0)
(25.6375 -0.0683832 0)
(25.6539 -0.067296 0)
(25.6704 -0.0662155 0)
(25.6866 -0.0651614 0)
(25.7028 -0.0641081 0)
(25.7186 -0.0630865 0)
(25.7345 -0.0620658 0)
(25.75 -0.0610739 0)
(25.7655 -0.0600787 0)
(25.7805 -0.0591114 0)
(25.7956 -0.0581447 0)
(25.8103 -0.0572132 0)
(25.8249 -0.0562904 0)
(25.8391 -0.0554158 0)
(25.8533 -0.0545559 0)
(25.867 -0.053785 0)
(25.8809 -0.0530299 0)
(25.8941 -0.0525313 0)
(25.9078 -0.0519791 0)
(25.9204 -0.0522648 0)
(25.9349 -0.0520664 0)
(25.9452 -0.0543084 0)
(25.9652 -0.0544218 0)
(40.259 0.205369 0)
(40.4989 0.295871 0)
(40.6487 -0.0460549 0)
(40.4722 -0.668259 0)
(39.9271 -1.3308 0)
(39.098 -1.8941 0)
(38.1063 -2.25376 0)
(37.0581 -2.38382 0)
(36.0568 -2.32238 0)
(35.152 -2.13262 0)
(34.3677 -1.88009 0)
(33.6991 -1.61269 0)
(33.1355 -1.36053 0)
(32.6561 -1.13984 0)
(32.242 -0.955683 0)
(31.8708 -0.804005 0)
(31.5237 -0.680496 0)
(31.1899 -0.583017 0)
(30.8654 -0.507685 0)
(30.5465 -0.447942 0)
(30.2285 -0.398537 0)
(29.9181 -0.359006 0)
(29.6226 -0.329453 0)
(29.3425 -0.306652 0)
(29.078 -0.287049 0)
(28.829 -0.269913 0)
(28.5977 -0.256222 0)
(28.3871 -0.24551 0)
(28.195 -0.23617 0)
(28.0211 -0.227238 0)
(27.8622 -0.218606 0)
(27.7177 -0.210468 0)
(27.5862 -0.202787 0)
(27.4678 -0.195431 0)
(27.3608 -0.188391 0)
(27.264 -0.181662 0)
(27.1764 -0.175174 0)
(27.0971 -0.169019 0)
(27.0259 -0.163386 0)
(26.9616 -0.158259 0)
(26.9039 -0.153518 0)
(26.8513 -0.149016 0)
(26.803 -0.144666 0)
(26.7589 -0.140431 0)
(26.7188 -0.136439 0)
(26.6824 -0.132814 0)
(26.6496 -0.129485 0)
(26.6201 -0.126269 0)
(26.5935 -0.123066 0)
(26.5698 -0.11997 0)
(26.5488 -0.117118 0)
(26.5302 -0.114514 0)
(26.5138 -0.112088 0)
(26.4996 -0.109729 0)
(26.4874 -0.107383 0)
(26.477 -0.105059 0)
(26.4682 -0.102805 0)
(26.4606 -0.10068 0)
(26.4543 -0.0987164 0)
(26.4492 -0.0968434 0)
(26.4452 -0.0950026 0)
(26.4423 -0.0931614 0)
(26.4405 -0.0914176 0)
(26.4395 -0.0897847 0)
(26.4393 -0.0882741 0)
(26.4398 -0.0867694 0)
(26.441 -0.0853118 0)
(26.4428 -0.083882 0)
(26.4452 -0.0824921 0)
(26.448 -0.0811386 0)
(26.4512 -0.0798417 0)
(26.4548 -0.07859 0)
(26.4588 -0.0773777 0)
(26.463 -0.0761802 0)
(26.4674 -0.0749989 0)
(26.4719 -0.0738287 0)
(26.4766 -0.0726886 0)
(26.4814 -0.0715685 0)
(26.4863 -0.0704756 0)
(26.4911 -0.0693858 0)
(26.496 -0.0683105 0)
(26.5009 -0.0672324 0)
(26.5057 -0.06618 0)
(26.5106 -0.0651258 0)
(26.5153 -0.0640985 0)
(26.52 -0.0630634 0)
(26.5246 -0.0620561 0)
(26.5292 -0.0610443 0)
(26.5336 -0.0600701 0)
(26.538 -0.0590999 0)
(26.5423 -0.0581818 0)
(26.5465 -0.0572743 0)
(26.5506 -0.0564618 0)
(26.5547 -0.0556622 0)
(26.5586 -0.0551286 0)
(26.5626 -0.0545466 0)
(26.5663 -0.0548242 0)
(26.5703 -0.0545626 0)
(26.5737 -0.0569859 0)
(26.5795 -0.0567941 0)
(40.2699 0.127743 0)
(40.4561 0.0177442 0)
(40.6021 -0.368696 0)
(40.4975 -0.908898 0)
(40.0434 -1.44081 0)
(39.2826 -1.86015 0)
(38.3233 -2.09986 0)
(37.2921 -2.15552 0)
(36.275 -2.0666 0)
(35.3646 -1.88523 0)
(34.5847 -1.65922 0)
(33.9357 -1.42356 0)
(33.4071 -1.20187 0)
(32.984 -1.00803 0)
(32.6471 -0.845175 0)
(32.3728 -0.708302 0)
(32.1446 -0.594631 0)
(31.9547 -0.504515 0)
(31.7952 -0.434304 0)
(31.6529 -0.376589 0)
(31.5167 -0.327881 0)
(31.3837 -0.289482 0)
(31.2497 -0.260483 0)
(31.1124 -0.23808 0)
(30.9689 -0.219219 0)
(30.816 -0.202841 0)
(30.6532 -0.189966 0)
(30.4824 -0.180664 0)
(30.3067 -0.173476 0)
(30.1287 -0.167041 0)
(29.9496 -0.161095 0)
(29.7721 -0.156054 0)
(29.5985 -0.152098 0)
(29.434 -0.148857 0)
(29.2792 -0.145965 0)
(29.1338 -0.1432 0)
(28.9976 -0.140543 0)
(28.8711 -0.138105 0)
(28.7539 -0.135895 0)
(28.6456 -0.133795 0)
(28.5454 -0.131715 0)
(28.4522 -0.129507 0)
(28.3652 -0.12701 0)
(28.2843 -0.124289 0)
(28.2093 -0.121629 0)
(28.1399 -0.119215 0)
(28.0758 -0.116986 0)
(28.0162 -0.114749 0)
(27.961 -0.11242 0)
(27.9098 -0.110081 0)
(27.8622 -0.107902 0)
(27.8177 -0.105949 0)
(27.7765 -0.104186 0)
(27.7382 -0.102502 0)
(27.7028 -0.100822 0)
(27.67 -0.0991264 0)
(27.6397 -0.0974734 0)
(27.6116 -0.0959114 0)
(27.5858 -0.0944601 0)
(27.5619 -0.0930585 0)
(27.5399 -0.0916493 0)
(27.5197 -0.0902097 0)
(27.5011 -0.088776 0)
(27.4835 -0.0873771 0)
(27.4671 -0.0860703 0)
(27.4516 -0.0848162 0)
(27.4372 -0.0836077 0)
(27.4236 -0.0823888 0)
(27.4109 -0.0811915 0)
(27.3987 -0.0799949 0)
(27.3873 -0.0788488 0)
(27.3762 -0.0777199 0)
(27.3658 -0.0766242 0)
(27.3556 -0.0755137 0)
(27.3458 -0.0744135 0)
(27.3362 -0.0732993 0)
(27.327 -0.0722158 0)
(27.3179 -0.0711308 0)
(27.309 -0.0700751 0)
(27.3002 -0.0690037 0)
(27.2917 -0.0679515 0)
(27.2832 -0.0668829 0)
(27.2749 -0.06584 0)
(27.2666 -0.06479 0)
(27.2585 -0.0637656 0)
(27.2504 -0.0627324 0)
(27.2425 -0.0617238 0)
(27.2346 -0.0607124 0)
(27.2269 -0.0597346 0)
(27.2192 -0.0587644 0)
(27.2116 -0.0578413 0)
(27.2041 -0.0569341 0)
(27.1968 -0.0561157 0)
(27.1894 -0.0553166 0)
(27.1823 -0.0547769 0)
(27.1749 -0.0541997 0)
(27.1683 -0.0544647 0)
(27.1605 -0.0542661 0)
(27.1552 -0.056643 0)
(27.1446 -0.0564504 0)
(40.2634 0.067339 0)
(40.4034 0.00416989 0)
(40.4966 -0.262167 0)
(40.3657 -0.67857 0)
(39.9156 -1.11199 0)
(39.179 -1.46757 0)
(38.2537 -1.69383 0)
(37.257 -1.77793 0)
(36.2687 -1.73938 0)
(35.3812 -1.61394 0)
(34.6138 -1.43997 0)
(33.9666 -1.24851 0)
(33.4363 -1.0641 0)
(33.0116 -0.900961 0)
(32.6708 -0.761312 0)
(32.3905 -0.641537 0)
(32.1607 -0.54203 0)
(31.9791 -0.464246 0)
(31.8354 -0.403177 0)
(31.7127 -0.350838 0)
(31.6035 -0.305469 0)
(31.5124 -0.270031 0)
(31.4422 -0.243997 0)
(31.3829 -0.222028 0)
(31.3242 -0.200659 0)
(31.267 -0.181211 0)
(31.2164 -0.165746 0)
(31.1697 -0.153569 0)
(31.1226 -0.143346 0)
(31.072 -0.134057 0)
(31.0152 -0.125248 0)
(30.9513 -0.117554 0)
(30.881 -0.111864 0)
(30.8049 -0.108061 0)
(30.7224 -0.105146 0)
(30.6329 -0.102485 0)
(30.5364 -0.100039 0)
(30.4338 -0.0981369 0)
(30.3271 -0.0969071 0)
(30.2182 -0.0961476 0)
(30.1088 -0.0955275 0)
(30.0004 -0.0948298 0)
(29.8937 -0.0941103 0)
(29.79 -0.0934963 0)
(29.6905 -0.0930955 0)
(29.5959 -0.0928983 0)
(29.5061 -0.0927347 0)
(29.4206 -0.0924308 0)
(29.3394 -0.0920126 0)
(29.2627 -0.0915576 0)
(29.1905 -0.0910563 0)
(29.1223 -0.090499 0)
(29.0578 -0.0898841 0)
(28.9963 -0.0891902 0)
(28.9379 -0.0884152 0)
(28.8822 -0.0875288 0)
(28.8297 -0.0865789 0)
(28.7799 -0.0856593 0)
(28.733 -0.0848095 0)
(28.6884 -0.0839666 0)
(28.6462 -0.0830726 0)
(28.6059 -0.082142 0)
(28.5678 -0.0812039 0)
(28.5311 -0.0802445 0)
(28.4963 -0.0793036 0)
(28.4626 -0.0783617 0)
(28.4304 -0.0774168 0)
(28.3988 -0.0764304 0)
(28.3686 -0.0754296 0)
(28.3388 -0.0744027 0)
(28.31 -0.0734062 0)
(28.2814 -0.0724135 0)
(28.2537 -0.0714352 0)
(28.2261 -0.0704295 0)
(28.1993 -0.0694188 0)
(28.1726 -0.0683899 0)
(28.1466 -0.0673841 0)
(28.1206 -0.0663762 0)
(28.0953 -0.0653887 0)
(28.07 -0.0643854 0)
(28.0454 -0.0633997 0)
(28.0208 -0.0624006 0)
(27.9969 -0.0614233 0)
(27.973 -0.060436 0)
(27.9498 -0.059472 0)
(27.9265 -0.0584965 0)
(27.904 -0.0575466 0)
(27.8814 -0.0565911 0)
(27.8596 -0.0556715 0)
(27.8377 -0.0547568 0)
(27.8166 -0.0538905 0)
(27.7954 -0.0530397 0)
(27.775 -0.0522745 0)
(27.7544 -0.0515321 0)
(27.7348 -0.0510342 0)
(27.7145 -0.0505158 0)
(27.6962 -0.0507822 0)
(27.6747 -0.0506784 0)
(27.6601 -0.0528897 0)
(27.6311 -0.053115 0)
(40.2555 0.0314289 0)
(40.3567 -0.0318832 0)
(40.4022 -0.258915 0)
(40.2468 -0.617321 0)
(39.8045 -0.995504 0)
(39.098 -1.30663 0)
(38.2122 -1.5047 0)
(37.2567 -1.57686 0)
(36.2992 -1.54014 0)
(35.4316 -1.42833 0)
(34.6715 -1.27432 0)
(34.0244 -1.10557 0)
(33.4928 -0.944876 0)
(33.0656 -0.803378 0)
(32.7164 -0.680068 0)
(32.4261 -0.573518 0)
(32.1938 -0.487253 0)
(32.0142 -0.420818 0)
(31.8657 -0.3662 0)
(31.7321 -0.317486 0)
(31.6188 -0.276964 0)
(31.5337 -0.247788 0)
(31.4668 -0.225658 0)
(31.4026 -0.20453 0)
(31.3405 -0.184316 0)
(31.2891 -0.168081 0)
(31.2513 -0.156357 0)
(31.2211 -0.146918 0)
(31.1918 -0.137864 0)
(31.1606 -0.128483 0)
(31.1324 -0.119766 0)
(31.111 -0.112673 0)
(31.0947 -0.107109 0)
(31.0792 -0.10232 0)
(31.062 -0.0974976 0)
(31.0421 -0.0923031 0)
(31.0217 -0.0873255 0)
(31.0009 -0.0830232 0)
(30.9791 -0.0796525 0)
(30.9548 -0.0770222 0)
(30.9266 -0.0746658 0)
(30.8932 -0.0723071 0)
(30.8544 -0.0701782 0)
(30.8107 -0.0686327 0)
(30.7626 -0.0677703 0)
(30.7105 -0.0673727 0)
(30.6543 -0.0670719 0)
(30.5941 -0.0666759 0)
(30.5299 -0.0662699 0)
(30.4627 -0.0660141 0)
(30.3939 -0.0659835 0)
(30.3243 -0.066144 0)
(30.2546 -0.0663573 0)
(30.185 -0.0665126 0)
(30.1156 -0.0665944 0)
(30.0465 -0.0666503 0)
(29.9787 -0.0667751 0)
(29.912 -0.0669495 0)
(29.8468 -0.0671203 0)
(29.7826 -0.0672289 0)
(29.7199 -0.0672299 0)
(29.6582 -0.0671034 0)
(29.5981 -0.066844 0)
(29.5394 -0.0664953 0)
(29.4822 -0.0661065 0)
(29.426 -0.0656744 0)
(29.3712 -0.0651804 0)
(29.317 -0.0645903 0)
(29.2642 -0.0639283 0)
(29.2119 -0.0631924 0)
(29.161 -0.0624469 0)
(29.1102 -0.0616741 0)
(29.0609 -0.0608901 0)
(29.0117 -0.0600596 0)
(28.9639 -0.0592079 0)
(28.9162 -0.058325 0)
(28.8699 -0.057459 0)
(28.8236 -0.0565852 0)
(28.7787 -0.0557288 0)
(28.7339 -0.0548567 0)
(28.6904 -0.0539772 0)
(28.647 -0.053081 0)
(28.6049 -0.0522155 0)
(28.5629 -0.0513514 0)
(28.5223 -0.050514 0)
(28.4817 -0.0496715 0)
(28.4426 -0.0488555 0)
(28.4035 -0.0480377 0)
(28.3658 -0.0472562 0)
(28.3282 -0.0464813 0)
(28.292 -0.0457538 0)
(28.2558 -0.0450443 0)
(28.2211 -0.044413 0)
(28.1862 -0.0438124 0)
(28.1531 -0.0434225 0)
(28.119 -0.0430495 0)
(28.0883 -0.0433164 0)
(28.0523 -0.0434259 0)
(28.0279 -0.0452808 0)
(27.9796 -0.0464644 0)
(40.2478 0.00636932 0)
(40.3189 -0.0529352 0)
(40.3277 -0.234955 0)
(40.154 -0.518804 0)
(39.7188 -0.818108 0)
(39.0361 -1.06198 0)
(38.1811 -1.21599 0)
(37.2552 -1.27214 0)
(36.3233 -1.2452 0)
(35.4713 -1.16098 0)
(34.7167 -1.04239 0)
(34.0719 -0.911676 0)
(33.5418 -0.786639 0)
(33.1084 -0.673959 0)
(32.7475 -0.573264 0)
(32.4507 -0.48662 0)
(32.219 -0.418478 0)
(32.0355 -0.365363 0)
(31.8732 -0.318382 0)
(31.7299 -0.276668 0)
(31.6211 -0.245775 0)
(31.5403 -0.224197 0)
(31.4648 -0.204625 0)
(31.3891 -0.184654 0)
(31.3255 -0.167841 0)
(31.2793 -0.156115 0)
(31.2428 -0.147256 0)
(31.2072 -0.138228 0)
(31.1691 -0.12829 0)
(31.1353 -0.119575 0)
(31.1101 -0.113015 0)
(31.0912 -0.107854 0)
(31.0739 -0.103036 0)
(31.0553 -0.0980104 0)
(31.0354 -0.092901 0)
(31.0194 -0.0885904 0)
(31.0074 -0.0850855 0)
(30.9977 -0.0821075 0)
(30.9882 -0.0794532 0)
(30.9775 -0.076863 0)
(30.9659 -0.0742108 0)
(30.9559 -0.0716106 0)
(30.9471 -0.0690551 0)
(30.9383 -0.0668004 0)
(30.9289 -0.064993 0)
(30.9179 -0.0633854 0)
(30.9049 -0.0616619 0)
(30.8898 -0.059748 0)
(30.873 -0.0578464 0)
(30.8541 -0.0562239 0)
(30.8325 -0.0549712 0)
(30.8076 -0.0539975 0)
(30.7787 -0.0531263 0)
(30.7457 -0.052245 0)
(30.7087 -0.0513412 0)
(30.6677 -0.0505558 0)
(30.6229 -0.0499278 0)
(30.5743 -0.0494411 0)
(30.522 -0.0490091 0)
(30.4659 -0.0485955 0)
(30.4065 -0.0481823 0)
(30.3442 -0.0477682 0)
(30.2795 -0.0473731 0)
(30.2128 -0.0470108 0)
(30.1445 -0.0466735 0)
(30.0748 -0.0463427 0)
(30.0042 -0.0459818 0)
(29.933 -0.0455731 0)
(29.8616 -0.0451134 0)
(29.79 -0.0446222 0)
(29.7191 -0.0441292 0)
(29.6481 -0.0436288 0)
(29.5783 -0.0431221 0)
(29.5085 -0.0425823 0)
(29.4403 -0.0420262 0)
(29.3723 -0.041437 0)
(29.306 -0.0408604 0)
(29.24 -0.0402734 0)
(29.1758 -0.039705 0)
(29.112 -0.0391189 0)
(29.05 -0.0385614 0)
(28.9885 -0.037995 0)
(28.929 -0.0374369 0)
(28.8699 -0.0368751 0)
(28.8129 -0.0363282 0)
(28.7563 -0.0357793 0)
(28.7019 -0.0352495 0)
(28.6477 -0.0347226 0)
(28.5959 -0.0342244 0)
(28.5442 -0.033736 0)
(28.495 -0.0332864 0)
(28.4457 -0.0328542 0)
(28.3989 -0.0324848 0)
(28.3518 -0.0321531 0)
(28.3075 -0.0319752 0)
(28.2617 -0.0318696 0)
(28.2208 -0.0321645 0)
(28.1729 -0.0326444 0)
(28.1403 -0.0339061 0)
(28.076 -0.0366339 0)
(40.2419 -0.0161658 0)
(40.2904 -0.0671903 0)
(40.2717 -0.206836 0)
(40.0832 -0.423797 0)
(39.6529 -0.656249 0)
(38.9885 -0.84919 0)
(38.1577 -0.975757 0)
(37.2544 -1.02798 0)
(36.3425 -1.01531 0)
(35.4989 -0.955452 0)
(34.7453 -0.864674 0)
(34.0978 -0.76263 0)
(33.561 -0.664626 0)
(33.1116 -0.573246 0)
(32.7336 -0.490042 0)
(32.4343 -0.421825 0)
(32.1998 -0.368308 0)
(31.9955 -0.321532 0)
(31.8148 -0.279343 0)
(31.6735 -0.246603 0)
(31.5657 -0.22325 0)
(31.4665 -0.203176 0)
(31.3695 -0.183315 0)
(31.2869 -0.16623 0)
(31.2231 -0.153979 0)
(31.1684 -0.144813 0)
(31.1136 -0.135879 0)
(31.0576 -0.126221 0)
(31.0083 -0.117763 0)
(30.9673 -0.111601 0)
(30.9305 -0.106829 0)
(30.8941 -0.102023 0)
(30.8555 -0.0967412 0)
(30.8175 -0.0917418 0)
(30.7831 -0.087769 0)
(30.751 -0.0846453 0)
(30.7196 -0.0816567 0)
(30.6875 -0.0784074 0)
(30.654 -0.0750719 0)
(30.62 -0.0720517 0)
(30.5869 -0.0695318 0)
(30.554 -0.0672345 0)
(30.521 -0.0648766 0)
(30.4875 -0.0625817 0)
(30.4529 -0.0604888 0)
(30.4171 -0.0585355 0)
(30.3806 -0.0566051 0)
(30.3437 -0.0546825 0)
(30.3067 -0.0528451 0)
(30.2694 -0.0511558 0)
(30.2313 -0.0495527 0)
(30.1924 -0.047928 0)
(30.1526 -0.0462148 0)
(30.1121 -0.0444305 0)
(30.0712 -0.0426443 0)
(30.0299 -0.0409579 0)
(29.9881 -0.0393683 0)
(29.9455 -0.0377936 0)
(29.9018 -0.0361901 0)
(29.8569 -0.0345996 0)
(29.8109 -0.0330786 0)
(29.7639 -0.0316513 0)
(29.7159 -0.0303201 0)
(29.6666 -0.0290651 0)
(29.6159 -0.0278781 0)
(29.5637 -0.0267671 0)
(29.5102 -0.0257399 0)
(29.4554 -0.0248004 0)
(29.3995 -0.023931 0)
(29.3425 -0.0231487 0)
(29.2847 -0.0224481 0)
(29.2261 -0.0218204 0)
(29.1668 -0.0212573 0)
(29.107 -0.0207516 0)
(29.047 -0.0203009 0)
(28.9867 -0.0198891 0)
(28.9267 -0.019523 0)
(28.8665 -0.019194 0)
(28.8071 -0.0189095 0)
(28.7476 -0.018653 0)
(28.6893 -0.0184192 0)
(28.6309 -0.0182029 0)
(28.5741 -0.018016 0)
(28.5173 -0.0178571 0)
(28.4623 -0.0177235 0)
(28.4074 -0.0176096 0)
(28.3544 -0.0175134 0)
(28.3016 -0.0174336 0)
(28.2508 -0.0173712 0)
(28.2001 -0.017325 0)
(28.1515 -0.0172982 0)
(28.1029 -0.0172864 0)
(28.0564 -0.0173074 0)
(28.0097 -0.0173686 0)
(27.9654 -0.0175025 0)
(27.9196 -0.0177723 0)
(27.8784 -0.0181372 0)
(27.8297 -0.0191003 0)
(27.7968 -0.019614 0)
(27.7301 -0.024158 0)
(40.2386 -0.030009 0)
(40.2709 -0.0704534 0)
(40.2318 -0.171527 0)
(40.0309 -0.327113 0)
(39.6008 -0.494846 0)
(38.9444 -0.634499 0)
(38.1223 -0.72639 0)
(37.2222 -0.765059 0)
(36.31 -0.757897 0)
(35.4497 -0.717127 0)
(34.679 -0.655264 0)
(34.0157 -0.585924 0)
(33.4446 -0.515577 0)
(32.9582 -0.44815 0)
(32.5597 -0.38926 0)
(32.2341 -0.340769 0)
(31.9508 -0.298972 0)
(31.7039 -0.261996 0)
(31.4987 -0.231363 0)
(31.327 -0.207671 0)
(31.1686 -0.188324 0)
(31.0203 -0.170988 0)
(30.8889 -0.155617 0)
(30.7736 -0.143256 0)
(30.6659 -0.133617 0)
(30.5601 -0.125066 0)
(30.4582 -0.116481 0)
(30.3634 -0.108404 0)
(30.2747 -0.101753 0)
(30.1881 -0.0964899 0)
(30.1015 -0.0916884 0)
(30.0161 -0.086559 0)
(29.9336 -0.0813851 0)
(29.8537 -0.0769574 0)
(29.7752 -0.0734096 0)
(29.6967 -0.07026 0)
(29.6184 -0.0669874 0)
(29.5412 -0.0634915 0)
(29.4656 -0.0601704 0)
(29.3912 -0.0574041 0)
(29.3173 -0.0550696 0)
(29.244 -0.0527958 0)
(29.1714 -0.0503796 0)
(29.1001 -0.0479755 0)
(29.0299 -0.0457825 0)
(28.9606 -0.0438231 0)
(28.8922 -0.0419826 0)
(28.8251 -0.0401682 0)
(28.7592 -0.038373 0)
(28.6945 -0.0366462 0)
(28.631 -0.0349959 0)
(28.5689 -0.0334149 0)
(28.508 -0.031892 0)
(28.4487 -0.0304388 0)
(28.3908 -0.0290549 0)
(28.3347 -0.0277606 0)
(28.2798 -0.0265136 0)
(28.2266 -0.0252703 0)
(28.1747 -0.0240164 0)
(28.1248 -0.0228073 0)
(28.0763 -0.0216629 0)
(28.0296 -0.0205798 0)
(27.9842 -0.0195146 0)
(27.9406 -0.0184511 0)
(27.8981 -0.0173859 0)
(27.8574 -0.0163577 0)
(27.8177 -0.0153776 0)
(27.7796 -0.0144561 0)
(27.7423 -0.0135678 0)
(27.7063 -0.0127234 0)
(27.671 -0.0119396 0)
(27.6368 -0.0112092 0)
(27.6031 -0.0105228 0)
(27.5703 -0.00989232 0)
(27.5379 -0.00932065 0)
(27.5061 -0.00881169 0)
(27.4747 -0.00835736 0)
(27.4436 -0.00796851 0)
(27.4129 -0.00763912 0)
(27.3824 -0.00736833 0)
(27.3522 -0.00714658 0)
(27.322 -0.00696713 0)
(27.2921 -0.00683114 0)
(27.2621 -0.00673907 0)
(27.2323 -0.00668732 0)
(27.2025 -0.00667159 0)
(27.1727 -0.00668555 0)
(27.1429 -0.00672914 0)
(27.1132 -0.00679737 0)
(27.0834 -0.00689213 0)
(27.0537 -0.00700754 0)
(27.024 -0.00714499 0)
(26.9945 -0.00730809 0)
(26.9647 -0.00751297 0)
(26.9355 -0.00772816 0)
(26.9049 -0.00811308 0)
(26.8769 -0.00835636 0)
(26.8424 -0.00948509 0)
(26.8199 -0.00918237 0)
(26.7695 -0.0145937 0)
(40.2229 -0.0441215 0)
(40.2345 -0.0683461 0)
(40.1702 -0.129278 0)
(39.943 -0.223499 0)
(39.4859 -0.326545 0)
(38.7965 -0.413772 0)
(37.9306 -0.472598 0)
(36.9722 -0.498817 0)
(35.9893 -0.496121 0)
(35.0457 -0.471909 0)
(34.1821 -0.433879 0)
(33.4048 -0.389182 0)
(32.7212 -0.343242 0)
(32.1338 -0.300483 0)
(31.6278 -0.263106 0)
(31.1861 -0.230805 0)
(30.7975 -0.202616 0)
(30.4593 -0.178803 0)
(30.1606 -0.159203 0)
(29.8916 -0.142828 0)
(29.6428 -0.128337 0)
(29.4158 -0.116036 0)
(29.2095 -0.105916 0)
(29.0187 -0.0972783 0)
(28.839 -0.0895499 0)
(28.6687 -0.0825518 0)
(28.5087 -0.0763063 0)
(28.3583 -0.0706582 0)
(28.2157 -0.0655041 0)
(28.0789 -0.060766 0)
(27.9475 -0.0563876 0)
(27.8218 -0.0522543 0)
(27.702 -0.0483653 0)
(27.5876 -0.0448362 0)
(27.4776 -0.0416222 0)
(27.3714 -0.0386122 0)
(27.269 -0.0357354 0)
(27.1711 -0.0329892 0)
(27.0773 -0.0304429 0)
(26.9874 -0.0281504 0)
(26.9007 -0.0260431 0)
(26.8171 -0.0240381 0)
(26.7366 -0.0220927 0)
(26.6597 -0.0202782 0)
(26.5857 -0.0186479 0)
(26.5146 -0.0171709 0)
(26.4461 -0.0157706 0)
(26.3804 -0.0144202 0)
(26.3172 -0.0131443 0)
(26.2567 -0.0119905 0)
(26.1984 -0.0109497 0)
(26.1426 -0.00998805 0)
(26.0888 -0.00907174 0)
(26.0376 -0.00819546 0)
(25.9883 -0.00736212 0)
(25.9414 -0.00659553 0)
(25.8963 -0.00588945 0)
(25.8534 -0.00521969 0)
(25.8122 -0.00456812 0)
(25.7734 -0.00394794 0)
(25.7362 -0.00336645 0)
(25.7011 -0.00282668 0)
(25.6674 -0.00231489 0)
(25.6359 -0.00182689 0)
(25.6057 -0.00136151 0)
(25.5776 -0.000930448 0)
(25.5507 -0.000532497 0)
(25.5256 -0.000162399 0)
(25.5016 0.000190097 0)
(25.4791 0.000521625 0)
(25.4577 0.00083945 0)
(25.4376 0.00107639 0)
(25.4184 0.00127659 0)
(25.4002 0.00145518 0)
(25.3827 0.001625 0)
(25.3661 0.0017748 0)
(25.35 0.00191752 0)
(25.3347 0.00203671 0)
(25.3197 0.00213927 0)
(25.3052 0.00222373 0)
(25.291 0.00229624 0)
(25.2772 0.00234927 0)
(25.2636 0.00239661 0)
(25.2503 0.00244023 0)
(25.2371 0.00247565 0)
(25.224 0.00250368 0)
(25.211 0.00252444 0)
(25.1981 0.00253872 0)
(25.185 0.00254051 0)
(25.172 0.00253315 0)
(25.1588 0.00251196 0)
(25.1455 0.00247898 0)
(25.1321 0.00242637 0)
(25.1184 0.00231778 0)
(25.1048 0.00222383 0)
(25.0899 0.0019426 0)
(25.0767 0.00194553 0)
(25.0582 0.000987225 0)
(25.0479 0.0015191 0)
(25.0178 -0.00294828 0)
(39.1402 -0.0539802 0)
(38.9464 -0.0675467 0)
(38.6586 -0.0934486 0)
(38.1914 -0.131021 0)
(37.4774 -0.172079 0)
(36.5128 -0.207807 0)
(35.3544 -0.233315 0)
(34.0901 -0.246397 0)
(32.7978 -0.247901 0)
(31.5413 -0.240228 0)
(30.3738 -0.22561 0)
(29.3094 -0.206523 0)
(28.3627 -0.18614 0)
(27.5266 -0.166382 0)
(26.7954 -0.147663 0)
(26.1535 -0.130026 0)
(25.5938 -0.114252 0)
(25.0998 -0.100606 0)
(24.6661 -0.0886854 0)
(24.2803 -0.0777123 0)
(23.9407 -0.0681191 0)
(23.6354 -0.0606577 0)
(23.3585 -0.0546338 0)
(23.1076 -0.0491449 0)
(22.8793 -0.0441645 0)
(22.6712 -0.0400945 0)
(22.4796 -0.0367529 0)
(22.3039 -0.0336033 0)
(22.1429 -0.0305342 0)
(21.9955 -0.0278558 0)
(21.8595 -0.0257006 0)
(21.7342 -0.023797 0)
(21.6189 -0.0219087 0)
(21.5133 -0.0201168 0)
(21.4163 -0.0185884 0)
(21.3268 -0.0173579 0)
(21.244 -0.016284 0)
(21.1678 -0.015221 0)
(21.098 -0.0141746 0)
(21.034 -0.0132567 0)
(20.975 -0.0125103 0)
(20.9206 -0.0118772 0)
(20.8703 -0.0112611 0)
(20.8245 -0.0106514 0)
(20.7823 -0.0100906 0)
(20.7438 -0.00961043 0)
(20.7081 -0.0091913 0)
(20.6756 -0.00880087 0)
(20.6456 -0.00842293 0)
(20.6185 -0.0080658 0)
(20.5935 -0.00772705 0)
(20.5709 -0.0074077 0)
(20.55 -0.00710596 0)
(20.5313 -0.00682788 0)
(20.5141 -0.00656858 0)
(20.4989 -0.00633367 0)
(20.4849 -0.0061143 0)
(20.4725 -0.00590534 0)
(20.4612 -0.00569922 0)
(20.4515 -0.00551046 0)
(20.4427 -0.00533879 0)
(20.4352 -0.00518674 0)
(20.4285 -0.00503398 0)
(20.423 -0.0048807 0)
(20.4182 -0.00471163 0)
(20.4146 -0.00454505 0)
(20.4115 -0.00436188 0)
(20.4095 -0.00418291 0)
(20.4081 -0.00396571 0)
(20.4076 -0.00370865 0)
(20.4077 -0.00353227 0)
(20.4085 -0.00335165 0)
(20.4099 -0.0031943 0)
(20.412 -0.00304832 0)
(20.4145 -0.00290874 0)
(20.4176 -0.00277669 0)
(20.4212 -0.00264854 0)
(20.4253 -0.0025374 0)
(20.4297 -0.00243889 0)
(20.4344 -0.00235696 0)
(20.4394 -0.00229007 0)
(20.4446 -0.00226297 0)
(20.45 -0.00225357 0)
(20.4555 -0.00225472 0)
(20.4611 -0.00226388 0)
(20.4668 -0.00227926 0)
(20.4724 -0.00229688 0)
(20.4781 -0.00231484 0)
(20.4837 -0.00233676 0)
(20.4892 -0.00235718 0)
(20.4947 -0.00238257 0)
(20.4999 -0.00240521 0)
(20.5052 -0.00243512 0)
(20.5097 -0.0024961 0)
(20.5146 -0.00254 0)
(20.518 -0.00268054 0)
(20.5227 -0.00262416 0)
(20.524 -0.00322302 0)
(20.5277 -0.0020813 0)
(20.5227 -0.00798318 0)
(1.95437 0.421237 0)
(1.64907 2.05102 0)
(0.910905 2.40128 0)
(0.110914 2.5677 0)
(-0.665574 2.43237 0)
(-1.46651 1.98152 0)
(-2.15367 1.28401 0)
(-2.51272 0.770952 0)
(10.5778 0.318084 0)
(4.36564 1.81698 0)
(1.74411 2.17481 0)
(-0.155017 2.21102 0)
(-2.00006 2.04563 0)
(-3.8773 1.69172 0)
(-5.71493 1.11972 0)
(-6.92409 0.530807 0)
(16.8868 -0.371864 0)
(7.91511 0.75152 0)
(2.86677 1.2142 0)
(-0.390799 1.32792 0)
(-2.9925 1.24932 0)
(-5.40338 1.0588 0)
(-7.85091 0.75371 0)
(-9.97521 0.288393 0)
(20.5479 -1.17077 0)
(11.239 -0.438563 0)
(4.58036 0.0734973 0)
(0.166284 0.312115 0)
(-3.14767 0.393393 0)
(-6.02669 0.379207 0)
(-8.77042 0.303337 0)
(-11.4791 0.0760391 0)
(22.4347 -1.81034 0)
(13.5547 -1.3272 0)
(6.44275 -0.87338 0)
(1.28496 -0.548984 0)
(-2.61863 -0.328243 0)
(-5.86405 -0.179407 0)
(-8.80813 -0.0646672 0)
(-11.7951 -0.0515939 0)
(23.6383 -2.31559 0)
(15.4316 -1.97617 0)
(8.25978 -1.5757 0)
(2.7433 -1.21556 0)
(-1.47203 -0.904725 0)
(-4.91752 -0.630898 0)
(-7.98475 -0.380777 0)
(-11.1055 -0.205934 0)
(24.3327 -2.6059 0)
(16.9012 -2.37073 0)
(10.0265 -2.03613 0)
(4.44226 -1.67066 0)
(0.115633 -1.30546 0)
(-3.37702 -0.946675 0)
(-6.43096 -0.597684 0)
(-9.51235 -0.307153 0)
(24.7684 -2.67811 0)
(17.9673 -2.50952 0)
(11.5151 -2.23417 0)
(6.15523 -1.89322 0)
(1.91903 -1.51318 0)
(-1.5104 -1.11244 0)
(-4.48996 -0.712747 0)
(-7.52816 -0.358469 0)
(25.0647 -2.58808 0)
(18.8342 -2.46099 0)
(12.8346 -2.23089 0)
(7.79375 -1.91914 0)
(3.76297 -1.55074 0)
(0.479195 -1.14695 0)
(-2.37453 -0.740317 0)
(-5.32866 -0.369174 0)
(25.2506 -2.381 0)
(19.53 -2.28697 0)
(13.9915 -2.09703 0)
(9.31677 -1.82104 0)
(5.53742 -1.48025 0)
(2.42561 -1.0967 0)
(-0.297166 -0.708729 0)
(-3.17839 -0.353594 0)
(25.3301 -2.11403 0)
(20.0608 -2.05186 0)
(14.9677 -1.89753 0)
(10.6753 -1.65947 0)
(7.16901 -1.35433 0)
(4.24226 -1.00523 0)
(1.65843 -0.650642 0)
(-1.14569 -0.325792 0)
(25.3135 -1.83595 0)
(20.4572 -1.79964 0)
(15.8049 -1.67561 0)
(11.8636 -1.47268 0)
(8.60685 -1.20386 0)
(5.86516 -0.895594 0)
(3.41695 -0.580659 0)
(0.697373 -0.291793 0)
(25.2216 -1.57327 0)
(20.7378 -1.55743 0)
(16.5023 -1.45863 0)
(12.8901 -1.28592 0)
(9.86477 -1.05192 0)
(7.29311 -0.782453 0)
(4.96306 -0.504661 0)
(2.3092 -0.250251 0)
(25.0828 -1.34392 0)
(20.9382 -1.34063 0)
(17.0849 -1.26208 0)
(13.772 -1.11557 0)
(10.9562 -0.913014 0)
(8.53814 -0.679045 0)
(6.31403 -0.435801 0)
(3.71766 -0.214203 0)
(24.9175 -1.15143 0)
(21.0777 -1.15557 0)
(17.5716 -1.09213 0)
(14.5307 -0.967326 0)
(11.9023 -0.793002 0)
(9.61957 -0.590337 0)
(7.48678 -0.377549 0)
(4.93542 -0.184582 0)
(24.7445 -0.991962 0)
(21.187 -0.998154 0)
(17.9788 -0.946287 0)
(15.172 -0.839266 0)
(12.7164 -0.690417 0)
(10.5579 -0.515161 0)
(8.50793 -0.328183 0)
(5.99448 -0.161749 0)
(24.5803 -0.860998 0)
(21.2817 -0.866371 0)
(18.3242 -0.82198 0)
(15.7154 -0.729735 0)
(13.4166 -0.602196 0)
(11.3722 -0.450149 0)
(9.40069 -0.284024 0)
(6.91664 -0.145637 0)
(24.4328 -0.754698 0)
(21.3679 -0.758558 0)
(18.624 -0.718708 0)
(16.185 -0.638248 0)
(14.0235 -0.527518 0)
(12.082 -0.394578 0)
(10.1863 -0.246549 0)
(7.71775 -0.131153 0)
(24.3061 -0.669351 0)
(21.45 -0.671311 0)
(18.8901 -0.634673 0)
(16.5977 -0.563251 0)
(14.5555 -0.465649 0)
(12.705 -0.348355 0)
(10.8773 -0.216933 0)
(8.42327 -0.11601 0)
(24.1987 -0.599248 0)
(21.5301 -0.599708 0)
(19.1306 -0.565576 0)
(16.9657 -0.501329 0)
(15.0276 -0.414237 0)
(13.2571 -0.30976 0)
(11.489 -0.192739 0)
(9.0477 -0.102409 0)
(24.1085 -0.53952 0)
(21.6087 -0.539329 0)
(19.3496 -0.507317 0)
(17.2973 -0.449397 0)
(15.4505 -0.371093 0)
(13.7501 -0.277248 0)
(12.0344 -0.172344 0)
(9.60355 -0.0908036 0)
(24.0332 -0.488673 0)
(21.6845 -0.488018 0)
(19.5466 -0.458199 0)
(17.5968 -0.405806 0)
(15.8319 -0.334948 0)
(14.194 -0.250017 0)
(12.5244 -0.155228 0)
(10.1017 -0.0811972 0)
(23.9711 -0.446922 0)
(21.7573 -0.445363 0)
(19.7271 -0.417449 0)
(17.8696 -0.369465 0)
(16.1787 -0.304758 0)
(14.597 -0.22729 0)
(12.9683 -0.140939 0)
(10.5521 -0.073291 0)
(23.9208 -0.412222 0)
(21.8288 -0.409542 0)
(19.8955 -0.3833 0)
(18.121 -0.338907 0)
(16.4967 -0.279351 0)
(14.9658 -0.208181 0)
(13.3738 -0.128916 0)
(10.9626 -0.0666745 0)
(23.8802 -0.38169 0)
(21.8978 -0.378261 0)
(20.0523 -0.353416 0)
(18.3533 -0.312153 0)
(16.7897 -0.257127 0)
(15.3051 -0.191481 0)
(13.7463 -0.118391 0)
(11.3388 -0.0609371 0)
(23.8484 -0.354106 0)
(21.9658 -0.349631 0)
(20.1998 -0.326502 0)
(18.5689 -0.288141 0)
(17.0604 -0.237151 0)