/*--------------------------------*- C++ -*----------------------------------*\
| =========                 |                                                 |
| \\      /  F ield         | OpenFOAM: The Open Source CFD Toolbox           |
|  \\    /   O peration     | Version:  v2012                                 |
|   \\  /    A nd           | Website:  www.openfoam.com                      |
|    \\/     M anipulation  |                                                 |
\*---------------------------------------------------------------------------*/
FoamFile
{
    version     2.0;
    format      ascii;
    class       Cloud<basicKinematicParcel>;
    location    "0.008/lagrangian/kinematicCloud";
    object      positions;
}
// * * * * * * * * * * * * * * * * * * * * * * * * * * * * * * * * * * * * * //

7
(
(0.00337423 0.00277933 0.03) 10
(0.00262922 0.00954788 0.03) 30
(0.00306935 0.0152073 0.03) 50
(0.00245357 0.00557976 0.03) 20
(0.00165144 0.0207906 0.03) 70
(0.00146986 0.0174043 0.03) 60
(0.00118525 0.00130689 0.03) 0
)


// ************************************************************************* //
