/*--------------------------------*- C++ -*----------------------------------*\
| =========                 |                                                 |
| \\      /  F ield         | OpenFOAM: The Open Source CFD Toolbox           |
|  \\    /   O peration     | Version:  v2012                                 |
|   \\  /    A nd           | Website:  www.openfoam.com                      |
|    \\/     M anipulation  |                                                 |
\*---------------------------------------------------------------------------*/
FoamFile
{
    version     2.0;
    format      ascii;
    class       vectorField;
    location    "0.027/lagrangian/kinematicCloud";
    object      UCorrect;
}
// * * * * * * * * * * * * * * * * * * * * * * * * * * * * * * * * * * * * * //


30
(
(0 0 0)
(-1.21722e-26 -6.70856e-30 0)
(-1.24244e-26 9.93613e-30 0)
(-1.72228e-26 -2.81848e-29 0)
(0 0 0)
(-1.319e-26 1.31321e-29 0)
(0 0 0)
(0 0 0)
(0 0 0)
(0 0 0)
(-1.43339e-26 -1.01524e-29 0)
(-2.20045e-26 -7.40228e-29 0)
(-1.3181e-26 5.70117e-29 0)
(0 0 0)
(0 0 0)
(-2.00855e-32 -4.77053e-36 0)
(0 0 0)
(0 0 0)
(0 0 0)
(0 0 0)
(0 0 0)
(-3.25918e-26 2.58233e-28 0)
(-2.24388e-26 9.72994e-29 0)
(0 0 0)
(-1.87568e-26 -3.17207e-29 0)
(0 0 0)
(0 0 0)
(0 0 0)
(-4.1618e-26 -1.46499e-28 0)
(-4.62776e-34 6.39582e-37 0)
)


// ************************************************************************* //
