/*--------------------------------*- C++ -*----------------------------------*\
| =========                 |                                                 |
| \\      /  F ield         | OpenFOAM: The Open Source CFD Toolbox           |
|  \\    /   O peration     | Version:  v2012                                 |
|   \\  /    A nd           | Website:  www.openfoam.com                      |
|    \\/     M anipulation  |                                                 |
\*---------------------------------------------------------------------------*/
FoamFile
{
    version     2.0;
    format      ascii;
    class       vectorField;
    location    "0.027/lagrangian/kinematicCloud";
    object      UCorrect;
}
// * * * * * * * * * * * * * * * * * * * * * * * * * * * * * * * * * * * * * //


30
(
(0 0 0)
(6.08984e-28 2.06315e-30 0)
(6.22795e-28 2.46203e-31 0)
(0 0 0)
(8.64325e-28 -1.46283e-30 0)
(0 0 0)
(1.45572e-26 2.31827e-29 0)
(0 0 0)
(0 0 0)
(0 0 0)
(0 0 0)
(0 0 0)
(0 0 0)
(0 0 0)
(0 0 0)
(8.16215e-28 -1.30609e-31 0)
(1.92957e-27 -5.19811e-29 0)
(0 0 0)
(0 0 0)
(1.71351e-27 5.9957e-29 0)
(0 0 0)
(0 0 0)
(0 0 0)
(2.85854e-32 -7.56244e-34 0)
(0 0 0)
(0 0 0)
(0 0 0)
(1.83937e-27 3.95651e-29 0)
(3.18758e-34 -8.44517e-36 0)
(0 0 0)
)


// ************************************************************************* //
