/*--------------------------------*- C++ -*----------------------------------*\
| =========                 |                                                 |
| \\      /  F ield         | OpenFOAM: The Open Source CFD Toolbox           |
|  \\    /   O peration     | Version:  v2012                                 |
|   \\  /    A nd           | Website:  www.openfoam.com                      |
|    \\/     M anipulation  |                                                 |
\*---------------------------------------------------------------------------*/
FoamFile
{
    version     2.0;
    format      ascii;
    class       volScalarField;
    location    "0.369";
    object      p;
}
// * * * * * * * * * * * * * * * * * * * * * * * * * * * * * * * * * * * * * //

dimensions      [0 2 -2 0 0 0 0];


internalField   nonuniform List<scalar> 
1900
(
-299.623
-300.722
-301.622
-302.283
-302.96
-303.727
-304.532
-305.361
-305.973
-306.577
-300.077
-300.876
-301.704
-302.38
-303.06
-303.821
-304.632
-305.47
-306.23
-307.05
-300.363
-300.928
-301.695
-302.409
-303.106
-303.867
-304.693
-305.577
-306.47
-307.715
-300.547
-300.991
-301.726
-302.468
-303.178
-303.94
-304.784
-305.709
-306.721
-308.095
-300.645
-301.039
-301.753
-302.505
-303.221
-303.986
-304.847
-305.807
-306.888
-308.277
-300.662
-301.061
-301.78
-302.535
-303.254
-304.027
-304.904
-305.889
-307.004
-308.371
-300.596
-301.056
-301.807
-302.557
-303.277
-304.06
-304.951
-305.951
-307.078
-308.402
-300.445
-301.036
-301.83
-302.557
-303.269
-304.065
-304.969
-305.979
-307.109
-308.391
-300.188
-301.03
-301.891
-302.579
-303.276
-304.077
-304.985
-305.995
-307.118
-308.36
-299.754
-300.929
-301.881
-302.562
-303.259
-304.073
-304.992
-306.009
-307.135
-308.357
-305.92
-318.28
-337.562
-339.208
-320.079
-286.053
-243.018
-198.247
-157.324
-122.52
-94.1791
-71.7776
-54.3006
-40.727
-30.1777
-21.872
-15.2233
-9.85003
-5.49181
-1.9101
1.09761
3.6494
5.80997
7.63763
9.20702
10.5731
11.7577
12.7866
13.6743
14.4446
15.1164
15.701
16.2064
16.6362
16.9956
17.2974
17.5505
17.7592
17.9267
18.0548
18.1473
18.2082
18.24
18.2461
18.2274
18.1843
18.1182
18.0321
17.9288
17.81
17.675
17.5234
17.3565
17.1759
16.9828
16.7789
16.5646
16.3392
16.1025
15.8555
15.5991
15.3342
15.0614
14.7801
14.4901
14.1915
13.885
13.5712
13.2501
12.9219
12.5866
12.2443
11.8949
11.5389
11.1762
10.8072
10.4317
10.05
9.66204
9.26802
8.86791
8.46213
8.05045
7.6332
7.21018
6.78162
6.3475
5.90803
5.4633
5.01344
4.55856
4.09884
3.63414
3.16499
2.69015
2.21245
1.72484
1.24264
0.733536
0.279208
-309.337
-321.606
-333.412
-332.126
-313.079
-280.334
-239.749
-197.442
-158.324
-124.582
-96.6716
-74.2588
-56.5626
-42.6742
-31.7854
-23.1546
-16.2284
-10.6363
-6.10193
-2.37569
0.734598
3.35317
5.56821
7.44732
9.05664
10.4512
11.656
12.6985
13.5965
14.3744
15.0498
15.6361
16.139
16.5652
16.9271
17.2334
17.4907
17.7033
17.8744
18.0057
18.1014
18.1654
18.199
18.2063
18.1883
18.1456
18.0798
17.9943
17.8924
17.7748
17.6405
17.4891
17.3225
17.1424
16.9497
16.7463
16.5326
16.3076
16.0712
15.8244
15.5683
15.3038
15.0314
14.7502
14.4602
14.1618
13.8556
13.5419
13.2211
12.893
12.5578
12.2156
11.8663
11.5103
11.1477
10.7787
10.4033
10.0216
9.63359
9.23951
8.83939
8.43356
8.02184
7.60451
7.18144
6.75285
6.31873
5.87928
5.43459
4.98482
4.5301
4.07059
3.60638
3.13769
2.66451
2.18742
1.70545
1.22185
0.72955
0.25189
-310.271
-317.92
-326.263
-324.072
-306.103
-275.372
-237.269
-197.132
-159.469
-126.583
-99.0095
-76.5768
-58.6778
-44.5173
-33.3346
-24.4303
-17.2788
-11.5103
-6.82805
-2.9729
0.248159
2.95304
5.23311
7.17398
8.84359
10.2832
11.519
12.5847
13.5054
14.302
14.9878
15.5799
16.0859
16.5138
16.8795
17.1887
17.4474
17.6613
17.8331
17.9651
18.0601
18.1217
18.1543
18.1622
18.1453
18.1035
18.0389
17.955
17.8547
17.7392
17.6066
17.4564
17.2909
17.1114
16.9195
16.7163
16.5022
16.2768
16.0404
15.7938
15.5378
15.2736
15.0016
14.7207
14.4309
14.1329
13.827
13.5135
13.1929
12.8649
12.5299
12.1877
11.8385
11.4825
11.12
10.7509
10.3755
9.99374
9.60572
9.2116
8.81143
8.40549
7.99371
7.57628
7.15316
6.7245
6.29037
5.85092
5.40628
4.95657
4.50201
4.04271
3.57899
3.11076
2.63927
2.1629
1.68653
1.20186
0.727117
0.223765
-310.492
-316.294
-321.939
-318.557
-301.089
-271.666
-235.202
-196.613
-160.105
-127.975
-100.76
-78.3788
-60.3571
-45.9994
-34.5873
-25.4622
-18.1253
-12.2073
-7.39662
-3.43273
-0.129266
2.63425
4.95709
6.93096
8.62761
10.0875
11.3368
12.4128
13.3471
14.1596
14.8603
15.4655
15.9838
16.4273
16.8094
17.1317
17.3998
17.6207
17.7976
17.9332
18.0299
18.0912
18.124
18.1329
18.1164
18.0745
18.0096
17.9256
17.8248
17.7077
17.5739
17.4237
17.2589
17.0798
16.8883
16.6858
16.4715
16.246
16.0099
15.7639
15.5088
15.2448
14.9721
14.6908
14.4012
14.1035
13.798
13.4847
13.1643
12.8364
12.5015
12.1594
11.8102
11.4543
11.0918
10.7228
10.3472
9.96538
9.57724
9.18305
8.78279
8.37673
7.96483
7.54727
7.12409
6.69537
6.26125
5.82178
5.37722
4.92758
4.47321
4.01411
3.5509
3.08316
2.61337
2.13776
1.66709
1.18109
0.723995
0.196
-310.518
-314.805
-318.111
-313.455
-296.275
-267.995
-233.032
-195.925
-160.556
-129.159
-102.294
-79.9771
-61.8602
-47.333
-35.7209
-26.4034
-18.9029
-12.8511
-7.92506
-3.85937
-0.479096
2.33739
4.70336
6.71696
8.44667
9.93088
11.198
12.2877
13.2344
14.0582
14.7692
15.3798
15.9007
16.3439
16.727
17.0518
17.3212
17.5429
17.7223
17.8613
17.9623
18.0301
18.07
18.0841
18.0724
18.0356
17.9759
17.8962
17.7976
17.681
17.5475
17.3984
17.2348
17.0563
16.865
16.6625
16.4483
16.2226
15.9863
15.7401
15.4847
15.2202
14.9461
14.6637
14.3735
14.0754
13.7695
13.4558
13.135
12.8066
12.4714
12.1289
11.7795
11.4234
11.0607
10.6916
10.3159
9.93398
9.54577
9.15159
8.75148
8.34552
7.93368
7.51611
7.09299
6.6643
6.2303
5.7909
5.34649
4.89698
4.44287
3.98406
3.52138
3.0542
2.58603
2.11132
1.6459
1.15932
0.718407
0.171099
-310.4
-313.509
-315.041
-309.398
-292.508
-265.228
-231.493
-195.548
-161.045
-130.181
-103.568
-81.2898
-63.0943
-48.4271
-36.6438
-27.169
-19.5413
-13.3794
-8.35506
-4.20795
-0.769516
2.08834
4.49169
6.5408
8.29543
9.79418
11.0733
12.1754
13.1337
13.9651
14.6826
15.2974
15.8226
16.2715
16.6597
16.9903
17.2649
17.4884
17.6674
17.8079
17.912
17.9828
18.0235
18.0357
18.0215
17.9836
17.9239
17.8445
17.7462
17.6301
17.4977
17.35
17.1879
17.0116
16.8227
16.622
16.4094
16.1853
15.9506
15.7056
15.4511
15.1872
14.9139
14.6322
14.3422
14.044
13.7378
13.4238
13.1027
12.7738
12.4382
12.0952
11.7456
11.3893
11.0265
10.6572
10.2816
9.89951
9.51142
9.11732
8.71736
8.31143
7.89969
7.48221
7.05923
6.63067
6.19685
5.7576
5.31341
4.86411
4.41031
3.95186
3.48972
3.02319
2.55648
2.0829
1.62173
1.13606
0.707816
0.152309
-310.21
-312.445
-312.667
-306.232
-289.501
-262.955
-230.134
-195.077
-161.265
-130.844
-104.473
-82.2722
-64.0428
-49.282
-37.3788
-27.7897
-20.0691
-13.8209
-8.7105
-4.49951
-1.02382
1.86686
4.30969
6.39104
8.15996
9.66585
10.9587
12.0772
13.0458
13.8824
14.6021
15.2225
15.7556
16.2102
16.6011
16.9336
17.2094
17.436
17.6176
17.7591
17.8651
17.9382
17.9801
17.9931
17.9801
17.9441
17.8865
17.8086
17.711
17.595
17.4622
17.3142
17.1516
16.9749
16.7849
16.5828
16.3691
16.1441
15.9083
15.6625
15.4072
15.1428
14.8694
14.5875
14.2974
13.9991
13.6932
13.3797
13.0589
12.7307
12.3957
12.0534
11.7044
11.3487
10.9865
10.6176
10.2426
9.86091
9.47336
9.07963
8.68002
8.27437
7.86299
7.44588
7.02324
6.59508
6.16159
5.72271
5.27884
4.8299
4.37646
3.91842
3.45684
2.991
2.52544
2.05317
1.59469
1.11177
0.690371
0.143277
-310.014
-311.622
-310.914
-303.872
-287.218
-261.198
-229.052
-194.665
-161.387
-131.32
-105.159
-83.0444
-64.8027
-49.966
-37.9773
-28.3162
-20.5179
-14.1843
-9.00782
-4.75899
-1.2477
1.68711
4.16428
6.25864
8.03496
9.55648
10.869
11.9993
12.9693
13.8062
14.5326
15.162
15.7007
16.1565
16.5457
16.8795
17.1599
17.39
17.5724
17.7133
17.8193
17.894
17.938
17.9519
17.9387
17.9025
17.8449
17.767
17.6692
17.553
17.4203
17.2722
17.1095
16.9328
16.7426
16.5403
16.3266
16.1019
15.8661
15.62
15.3643
15.0994
14.8257
14.5435
14.2529
13.9542
13.6478
13.3338
13.0126
12.684
12.3488
12.0061
11.6568
11.3009
10.9387
10.5699
10.1949
9.81337
9.426
9.0326
8.63334
8.22821
7.8174
7.40093
6.97891
6.55143
6.1186
5.68041
5.23715
4.78883
4.33596
3.87849
3.41755
2.95243
2.48776
2.01697
1.55963
1.08118
0.660174
0.138641
-309.856
-311.036
-309.717
-302.257
-285.628
-259.948
-228.241
-194.298
-161.365
-131.531
-105.531
-83.4786
-65.2229
-50.3506
-38.325
-28.6175
-20.7664
-14.3924
-9.19016
-4.91836
-1.37938
1.57961
4.06746
6.16741
7.95176
9.48195
10.8002
11.9328
12.9045
13.7447
14.4751
15.1074
15.6475
16.1045
16.4952
16.8311
17.1139
17.345
17.528
17.6696
17.7768
17.8532
17.8984
17.9128
17.9
17.8644
17.8078
17.7308
17.6338
17.5183
17.3862
17.2387
17.0765
16.9003
16.7106
16.5086
16.2951
16.0707
15.8352
15.5893
15.3337
15.0692
14.796
14.5143
14.2242
13.926
13.6202
13.3069
12.9864
12.6586
12.3245
11.9824
11.6335
11.2781
10.9164
10.5482
10.1737
9.7926
9.40549
9.01233
8.61319
8.20801
7.79715
7.3806
6.95854
6.53099
6.09815
5.65991
5.21664
4.76829
4.31544
3.85808
3.39727
2.93227
2.46759
1.99757
1.53981
1.06573
0.639702
0.148964
-309.799
-310.776
-309.167
-301.515
-284.923
-259.448
-228.001
-194.311
-161.573
-131.867
-105.939
-83.9007
-65.6291
-50.7256
-38.6585
-28.9088
-21.0233
-14.6222
-9.39496
-5.09912
-1.5393
1.43994
3.94171
6.05385
7.84645
9.38063
10.7027
11.8403
12.8165
13.6586
14.3904
15.0245
15.5674
16.0269
16.4189
16.7557
17.0398
17.2724
17.4568
17.5995
17.7076
17.7848
17.8309
17.8463
17.8343
17.7994
17.7435
17.6671
17.5707
17.4557
17.3241
17.1771
17.0154
16.8397
16.6505
16.4489
16.236
16.012
15.777
15.5315
15.2764
15.0122
14.7394
14.4579
14.1681
13.8701
13.5644
13.2511
12.9307
12.6029
12.2685
11.9274
11.5789
11.2236
10.862
10.494
10.1196
9.73881
9.35189
8.95898
8.56021
8.15562
7.74502
7.3287
6.90682
6.4794
6.04665
5.60847
5.16525
4.71689
4.26413
3.80678
3.34619
2.88159
2.41694
1.94792
1.48893
1.0201
0.591362
0.112924
-314.073
-315.342
-316.519
-316.763
-316.246
-314.976
-313.67
-313.762
-333.208
-334.724
-335.67
-336.006
-335.684
-334.97
-334.106
-333.757
-348.321
-351.157
-352.673
-353.239
-353.129
-352.819
-352.512
-352.172
-346.898
-350.263
-352.116
-352.862
-352.689
-352.174
-351.695
-351.058
-325.752
-328.652
-330.387
-330.946
-330.605
-329.869
-329.084
-328.157
-289.994
-292.05
-293.342
-293.795
-293.469
-292.521
-291.108
-289.508
-244.963
-246.036
-246.886
-247.287
-247.03
-246.002
-244.217
-242.158
-198.429
-198.46
-198.714
-198.928
-198.65
-197.569
-195.618
-193.374
-156.295
-155.599
-155.337
-155.241
-154.838
-153.721
-151.766
-149.559
-120.779
-119.658
-119.112
-118.841
-118.352
-117.249
-115.401
-113.358
-92.2172
-90.9907
-90.3437
-89.95
-89.3893
-88.3457
-86.6722
-84.8466
-69.9
-68.746
-68.107
-67.6412
-67.0392
-66.0788
-64.6042
-63.0201
-52.6434
-51.6332
-51.0453
-50.5798
-49.9991
-49.1345
-47.8556
-46.4935
-39.3506
-38.5155
-38.0135
-37.5846
-37.0509
-36.2916
-35.2033
-34.0496
-29.0778
-28.3975
-27.9535
-27.5551
-27.0804
-26.4256
-25.5051
-24.5292
-21.0274
-20.4861
-20.081
-19.7
-19.2823
-18.7224
-17.9432
-17.1009
-14.5895
-14.1644
-13.8132
-13.4704
-13.1055
-12.6255
-11.9639
-11.2063
-9.37602
-9.04381
-8.75069
-8.45599
-8.13889
-7.72658
-7.16444
-6.4861
-5.13357
-4.86972
-4.62369
-4.37034
-4.09371
-3.73595
-3.25388
-2.66589
-1.63541
-1.42264
-1.2145
-0.997081
-0.755263
-0.441814
-0.022361
0.488111
1.31825
1.49216
1.66939
1.85205
2.06078
2.33528
2.7028
3.14947
3.83604
3.98038
4.13335
4.28861
4.46974
4.71104
5.03489
5.42872
5.96911
6.09082
6.22404
6.36127
6.52359
6.73974
7.02845
7.37893
7.77506
7.88184
7.99979
8.12351
8.27135
8.46739
8.72724
9.04192
9.32674
9.42091
9.52603
9.638
9.77318
9.95197
10.1874
10.4721
10.6836
10.7704
10.861
10.9606
11.0838
11.2472
11.4615
11.7207
11.865
11.9507
12.0325
12.1223
12.2346
12.384
12.5795
12.8164
12.884
12.9636
13.0399
13.1243
13.2296
13.3683
13.5483
13.7661
13.762
13.8352
13.9062
13.9857
14.0848
14.2143
14.3807
14.5821
14.523
14.5898
14.6557
14.7304
14.8236
14.9448
15.0994
15.2863
15.1867
15.248
15.3091
15.3793
15.4672
15.5809
15.7248
15.8992
15.7639
15.8199
15.8775
15.9442
16.0276
16.1347
16.2692
16.4321
16.2653
16.3162
16.37
16.4331
16.5121
16.6132
16.7389
16.8917
16.6925
16.7395
16.7902
16.8501
16.9253
17.0209
17.1389
17.2825
17.0492
17.0941
17.1429
17.2006
17.2726
17.3635
17.4747
17.6102
17.3482
17.3913
17.4383
17.4938
17.5631
17.6498
17.7548
17.8832
17.5988
17.6399
17.6851
17.7385
17.805
17.8878
17.9873
18.1091
17.8052
17.8449
17.8885
17.9401
18.0041
18.0833
18.1777
18.2935
17.971
18.0094
18.0516
18.1016
18.1633
18.2392
18.3289
18.4392
18.0975
18.1349
18.176
18.2246
18.2843
18.3572
18.4425
18.548
18.1883
18.2246
18.2646
18.3118
18.3696
18.4399
18.5213
18.6222
18.2473
18.2824
18.3213
18.3671
18.4232
18.4909
18.5687
18.6656
18.2778
18.3117
18.3495
18.3941
18.4486
18.514
18.5885
18.6816
18.2825
18.3155
18.3523
18.3958
18.4488
18.5119
18.5834
18.673
18.263
18.2952
18.3313
18.3738
18.4253
18.4865
18.555
18.6415
18.2193
18.2511
18.2867
18.3283
18.3786
18.4379
18.5039
18.5874
18.1529
18.1842
18.2191
18.2601
18.3093
18.3669
18.4304
18.5112
18.0662
18.0969
18.1312
18.1714
18.2195
18.2755
18.3368
18.4151
17.9619
17.992
18.0257
18.0651
18.1122
18.1667
18.2259
18.3019
17.8422
17.8718
17.9049
17.9435
17.9895
18.0426
18.0997
18.1736
17.7068
17.7359
17.7685
17.8065
17.8515
17.9032
17.9584
18.0303
17.555
17.5839
17.6161
17.6536
17.6978
17.7482
17.8017
17.8717
17.3878
17.4164
17.4483
17.4852
17.5287
17.578
17.6299
17.6982
17.2068
17.2351
17.2666
17.3031
17.3458
17.394
17.4444
17.511
17.0134
17.0413
17.0725
17.1085
17.1505
17.1977
17.2467
17.3119
16.8091
16.8367
16.8675
16.903
16.9443
16.9905
17.0381
17.1018
16.5942
16.6215
16.6519
16.6869
16.7275
16.7727
16.819
16.8814
16.3685
16.3955
16.4256
16.4601
16.5001
16.5444
16.5895
16.6506
16.1316
16.1585
16.1883
16.2225
16.2618
16.3054
16.3493
16.4093
15.8845
15.9111
15.9407
15.9745
16.0133
16.0561
16.0989
16.1578
15.6278
15.6542
15.6836
15.717
15.7553
15.7973
15.8391
15.897
15.3627
15.3889
15.4179
15.451
15.4887
15.53
15.5708
15.6277
15.0895
15.1154
15.1441
15.1768
15.214
15.2546
15.2945
15.3505
14.808
14.8337
14.8622
14.8944
14.9311
14.971
15.01
15.0651
14.5178
14.5433
14.5715
14.6034
14.6397
14.679
14.7172
14.7715
14.2191
14.2445
14.2725
14.3042
14.34
14.3787
14.4161
14.4696
13.9124
13.9377
13.9655
13.9969
14.0323
14.0705
14.1071
14.16
13.5985
13.6236
13.6512
13.6823
13.7173
13.7549
13.7908
13.843
13.2772
13.3021
13.3296
13.3604
13.3951
13.4322
13.4674
13.519
12.9489
12.9737
13.001
13.0316
13.0658
13.1025
13.137
13.188
12.6135
12.6382
12.6653
12.6956
12.7296
12.7658
12.7997
12.8501
12.2711
12.2957
12.3226
12.3527
12.3863
12.4221
12.4554
12.5053
11.9216
11.9461
11.973
12.0029
12.0362
12.0715
12.1044
12.1537
11.5655
11.5899
11.6166
11.6463
11.6793
11.7142
11.7465
11.7954
11.2027
11.2271
11.2537
11.2832
11.3159
11.3505
11.3823
11.4308
10.8337
10.8579
10.8844
10.9137
10.9462
10.9804
11.0117
11.0597
10.4582
10.4824
10.5088
10.538
10.5702
10.6041
10.6349
10.6826
10.0765
10.1007
10.127
10.1559
10.1879
10.2214
10.2518
10.299
9.68852
9.71263
9.73885
9.76771
9.79941
9.83267
9.86265
9.90953
9.29449
9.31855
9.34467
9.37335
9.40479
9.43771
9.46725
9.51376
8.89438
8.91843
8.94449
8.97305
9.00429
9.03695
9.06613
9.11232
8.48861
8.51262
8.53858
8.56699
8.59798
8.63033
8.65909
8.70493
8.07695
8.10095
8.12687
8.15517
8.18598
8.2181
8.24655
8.29213
7.65972
7.68371
7.70957
7.73773
7.76834
7.8002
7.82836
7.8737
7.23672
7.2607
7.28652
7.31459
7.34503
7.37669
7.40493
7.45073
6.80816
6.83211
6.85785
6.88579
6.91602
6.94736
6.97541
7.02132
6.37402
6.39792
6.42358
6.45139
6.48144
6.51254
6.54032
6.58598
5.93451
5.95835
5.98392
6.01159
6.04145
6.07232
6.09981
6.14523
5.4897
5.51346
5.53891
5.56641
5.59604
5.62666
5.65383
5.69891
5.03975
5.06342
5.08874
5.11609
5.14554
5.17596
5.20288
5.24775
4.5847
4.6082
4.63333
4.66043
4.68957
4.71966
4.74619
4.79064
4.12479
4.14813
4.17309
4.2
4.22893
4.25883
4.28517
4.32953
3.65966
3.68263
3.70721
3.73375
3.76228
3.79179
3.81771
3.86166
3.19013
3.21278
3.23703
3.2632
3.29136
3.32052
3.34611
3.38982
2.71391
2.73548
2.75877
2.78414
2.81163
2.84032
2.86561
2.9092
2.23574
2.25687
2.27966
2.30443
2.33125
2.35925
2.38392
2.42683
1.74348
1.76113
1.78104
1.8036
1.82891
1.85615
1.88072
1.92465
1.2628
1.28123
1.30121
1.3231
1.34703
1.37227
1.39485
1.43517
0.739326
0.746896
0.757987
0.773181
0.792877
0.815959
0.834905
0.883324
0.302164
0.32022
0.336607
0.35174
0.366661
0.383732
0.400924
0.376905
)
;

boundaryField
{
    frontAndBack
    {
        type            empty;
    }
    inlet
    {
        type            zeroGradient;
    }
    outlet
    {
        type            fixedValue;
        value           uniform 0;
    }
    walls
    {
        type            zeroGradient;
    }
}


// ************************************************************************* //
