/*--------------------------------*- C++ -*----------------------------------*\
| =========                 |                                                 |
| \\      /  F ield         | OpenFOAM: The Open Source CFD Toolbox           |
|  \\    /   O peration     | Version:  v2012                                 |
|   \\  /    A nd           | Website:  www.openfoam.com                      |
|    \\/     M anipulation  |                                                 |
\*---------------------------------------------------------------------------*/
FoamFile
{
    version     2.0;
    format      ascii;
    class       volScalarField;
    location    "0.307";
    object      epsilon.air;
}
// * * * * * * * * * * * * * * * * * * * * * * * * * * * * * * * * * * * * * //

dimensions      [0 2 -3 0 0 0 0];


internalField   nonuniform List<scalar> 
1900
(
112.724
141.424
210.098
257.591
369.051
443.457
614.739
724.907
971.323
1128.62
15.4676
16.4471
18.6377
20.45
23.7573
27.7276
32.0003
39.3091
44.986
56.9705
14.7926
14.6414
14.5755
14.5063
14.515
14.5558
14.6443
14.829
15.0762
15.4172
14.77
14.6304
14.4634
14.3354
14.1726
14.059
13.9039
13.808
13.6653
13.5938
14.7767
14.6215
14.4705
14.3204
14.1748
14.0289
13.889
13.7472
13.6138
13.477
14.7778
14.6205
14.4714
14.3196
14.1754
14.0284
13.8891
13.7472
13.6132
13.4774
14.7777
14.6206
14.4731
14.3234
14.1841
14.0449
13.9175
13.7915
13.6806
13.5716
14.7763
14.6497
14.564
14.5034
14.511
14.5499
14.64
14.8193
15.0437
15.3962
15.215
16.5968
18.281
20.6752
23.5956
27.5718
32.2644
38.4102
45.5596
54.8242
105.939
146.535
198.416
265.701
350.108
456.006
585.763
743.665
931.877
1154.05
4101.01
15195.9
19575.9
22452.3
21119.1
18025.1
15084.3
12786.4
11285.4
10369.4
9867.49
9694.15
9524.93
9258.91
8852.9
8354.59
7800.12
7212.65
6645.15
6126.47
5649.49
5222.56
4838.07
4487.03
4167.8
3878.42
3615.95
3378.46
3162.81
2967.03
2788.72
2625.87
2476.85
2340.13
2214.54
2098.93
1992.39
1893.99
1802.98
1718.63
1640.34
1567.51
1499.64
1436.29
1377.04
1321.53
1269.42
1220.43
1174.3
1130.78
1089.68
1050.8
1013.98
979.066
945.918
914.396
884.395
855.788
828.496
802.398
777.446
753.52
730.607
708.582
687.47
667.129
647.624
628.785
610.727
593.234
576.482
560.195
544.624
529.42
514.928
500.707
487.217
473.9
461.356
448.878
437.239
425.54
414.773
403.788
393.858
383.509
374.381
364.579
356.224
346.872
339.269
330.263
323.414
314.646
308.571
299.926
294.665
286.018
281.607
271.207
112.939
337.66
517.923
923.212
1126.36
1150.73
1122.44
1057.25
1050.07
1089.06
1193.65
1405.96
1694.57
2027.46
2378.28
2690.95
2970.17
3203.75
3358.04
3434.6
3427.09
3388.81
3303.34
3185.16
3056.92
2925.54
2794.55
2667.54
2543.87
2426.41
2314.19
2207.11
2105.71
2009.79
1919.45
1834.34
1754.39
1679.11
1608.26
1541.59
1478.8
1419.61
1363.79
1311.11
1261.35
1214.27
1169.7
1127.43
1087.3
1049.14
1012.82
978.205
945.182
913.641
883.494
854.639
827.01
800.513
775.101
750.679
727.222
704.634
682.919
661.972
641.83
622.37
603.67
585.575
568.208
551.371
535.237
519.552
504.556
489.924
475.98
462.311
449.345
436.564
424.523
412.563
401.405
390.209
379.901
369.406
359.914
350.046
341.338
332.013
324.059
315.183
307.962
299.435
292.944
284.663
278.918
270.77
265.805
257.672
253.527
243.767
16.4218
19.8651
22.8801
29.0983
34.8032
38.7562
41.7124
43.7588
46.6532
50.6608
58.6486
70.8226
95.3578
130.154
189.406
267.129
373.082
508.707
665.987
836.425
1005.34
1164.12
1304.38
1421.14
1511.8
1574.88
1612.7
1629.03
1626.06
1614.89
1591.49
1561.05
1526.58
1489.42
1451.04
1411.42
1371.78
1331.55
1291.76
1252.66
1214.23
1176.64
1140.07
1104.59
1070.26
1037
1004.9
973.837
943.818
914.79
886.721
859.551
833.259
807.801
783.165
759.302
736.212
713.849
692.218
671.265
651.003
631.367
612.39
593.991
576.229
559.003
542.405
526.299
510.818
495.778
481.361
467.322
453.907
440.798
428.318
416.066
404.461
392.997
382.215
371.479
361.484
351.424
342.187
332.748
324.244
315.363
307.563
299.166
292.046
284.051
277.593
269.911
264.107
256.645
251.506
244.168
239.721
232.401
228.678
219.9
13.453
13.4605
13.546
13.8021
14.3336
15.0052
15.7184
16.3418
16.93
17.3473
17.8996
18.3624
19.2941
20.5004
22.7156
26.2596
31.6772
40.723
54.7412
76.0686
106.407
147.108
199.18
261.216
331.138
406.356
482.123
555.835
622.875
684.138
736.735
780.122
814.259
839.603
857.802
868.974
874.911
874.487
871.98
866.295
857.647
847.005
834.89
821.497
807.194
792.102
776.519
760.347
743.93
727.336
710.586
693.747
676.898
660.099
643.422
626.871
610.549
594.449
578.655
563.141
547.987
533.145
518.687
504.557
490.84
477.455
464.507
451.874
439.696
427.801
416.382
405.197
394.511
383.999
374.003
364.116
354.769
345.447
336.71
327.918
319.775
311.478
303.916
296.076
289.081
281.655
275.213
268.148
262.252
255.491
250.125
243.595
238.753
232.385
228.075
221.795
218.038
211.769
208.586
201.057
13.3297
13.1591
13.0622
13.1162
13.3045
13.715
14.2862
14.9119
15.4553
15.8849
16.2135
16.4468
16.6135
16.7655
16.8943
17.0894
17.3226
17.721
18.3252
19.2949
20.8456
23.223
26.7988
32.1536
39.848
50.6928
65.2426
83.9379
106.849
133.901
164.558
197.73
232.674
267.779
302.626
335.444
366.45
394.454
419.336
440.775
458.755
473.28
484.687
493.178
499.138
502.831
504.658
504.394
503.253
500.734
496.96
492.199
486.692
480.473
473.733
466.539
459.041
451.251
443.341
435.267
427.211
419.075
410.999
402.951
395.036
387.177
379.469
371.816
364.341
356.911
349.708
342.513
335.603
328.64
322.017
315.284
308.95
302.451
296.408
290.126
284.374
278.3
272.852
266.98
261.851
256.17
251.373
245.864
241.399
236.027
231.906
226.646
222.881
217.699
214.303
209.16
206.151
201.006
198.403
192.198
13.3249
13.1545
13.0314
13.086
13.2951
13.7734
14.4974
15.489
16.5062
17.6095
18.6031
19.5235
20.2574
20.8665
21.2876
21.5904
21.7613
21.8473
21.8373
21.7971
21.7064
21.6073
21.5376
21.5631
21.6704
21.9299
22.479
23.3721
24.8799
27.0591
30.3247
34.7543
40.7791
48.3674
57.7438
68.9158
81.8976
96.4649
112.389
129.308
146.826
164.52
181.953
198.776
214.718
229.5
243.11
255.287
266.216
275.804
284.216
291.407
297.574
302.746
307.036
310.537
313.349
315.485
317.095
318.096
318.766
318.759
318.549
318.028
317.03
315.7
314.081
312.187
310.079
307.735
305.238
302.504
299.715
296.613
293.608
290.218
287.035
283.402
280.085
276.267
272.874
268.917
265.503
261.449
258.072
253.958
250.67
246.524
243.37
239.213
236.224
232.063
229.266
225.104
222.519
218.352
215.999
211.826
209.726
204.682
13.4656
13.3601
13.4096
13.6559
14.3032
15.6878
18.0279
21.4375
25.4025
29.7366
33.622
37.0568
39.5943
41.5408
42.5916
43.2806
43.3548
43.2376
42.9448
42.403
41.7979
41.154
40.5275
39.8893
39.3276
38.8453
38.491
38.225
38.1262
38.1842
38.3634
38.7639
39.3515
40.3166
41.5518
43.3044
45.4837
48.4301
52.0479
56.6954
62.2959
69.1367
77.1819
86.528
97.15
108.933
121.813
135.501
149.869
164.583
179.456
194.232
208.669
222.642
235.92
248.481
260.19
271.075
281.057
290.174
298.387
305.742
312.221
317.937
322.86
327.091
330.587
333.473
335.663
337.4
338.469
339.218
339.267
339.06
338.551
337.449
336.324
334.446
332.83
330.387
328.362
325.462
323.135
319.874
317.355
313.831
311.222
307.518
304.901
301.082
298.524
294.646
292.198
288.301
285.997
282.111
279.982
276.132
274.227
269.671
15.9076
16.8597
18.5484
21.9456
28.3847
39.4849
55.4511
75.0075
95.4846
114.38
129.237
140.014
146.529
150.071
150.645
150.233
149.259
147.754
146.288
145.099
144.568
144.728
145.331
146.629
148.902
152.14
156.142
161.249
166.966
173.999
181.711
190.765
200.583
211.672
223.557
236.66
250.493
265.632
281.371
298.2
315.366
333.182
351.177
369.36
387.517
405.378
422.894
439.7
455.989
471.461
486.39
500.566
514.102
526.877
538.888
550.106
560.5
570.058
578.72
586.421
593.064
598.693
603.248
606.806
609.429
611.104
612.008
611.915
611.402
610.263
608.437
606.103
603.448
600.179
596.88
592.823
589.011
584.302
580.115
574.917
570.449
564.885
560.248
554.435
549.769
543.835
539.264
533.311
528.925
523.024
518.894
513.105
509.287
503.656
500.19
494.744
491.683
486.439
483.905
478.031
68.0056
90.4692
126.185
184.868
271.91
385.026
511.585
635.97
744.829
831.958
892.85
932.23
952.864
963.111
964.422
963.214
960.647
958.093
956.809
957.508
960.421
966.68
975.109
985.947
999.916
1016.49
1034.99
1055.38
1077.38
1101.41
1126.52
1152.79
1179.4
1206.42
1233.34
1260.05
1286.13
1311.65
1335.9
1359.02
1380.59
1400.87
1419.7
1437.06
1453.03
1467.31
1480.28
1491.55
1501.75
1510.33
1517.98
1524.09
1529.17
1532.65
1535.08
1535.92
1535.58
1534.39
1531.94
1528.03
1523.11
1516.94
1509.86
1501.61
1492.75
1482.77
1472.29
1461.22
1449.68
1437.6
1425.51
1412.77
1400.42
1387.32
1374.88
1361.56
1349.12
1335.71
1323.43
1310.09
1298.14
1285
1273.5
1260.66
1249.74
1237.31
1227.09
1215.14
1205.67
1194.2
1185.53
1174.55
1166.73
1156.23
1149.34
1139.32
1133.42
1123.88
1119.23
1108.89
1464.61
1897.24
2398.83
2961.79
3563.07
4171.74
4746.24
5251.26
5654.79
5950.9
6132.01
6218.86
6206.39
6159.81
6061.45
5928.45
5778.36
5619.81
5459.49
5301.72
5149.25
5003.98
4867.32
4739.45
4620.71
4510.76
4409.64
4316.78
4231.82
4154.33
4083.84
4020.19
3962.78
3911.39
3865.46
3824.88
3789.22
3758.26
3731.27
3708.04
3687.92
3670.92
3656.44
3644.29
3634.06
3625.46
3618.47
3612.62
3608.19
3604.55
3602.19
3600.4
3599.56
3599
3599.08
3599.32
3599.9
3600.54
3601.66
3602.6
3603.74
3604.77
3605.99
3606.96
3608.23
3608.96
3609.69
3609.75
3609.5
3608.7
3607.48
3605.01
3602.6
3598.64
3594.94
3589.47
3584.54
3577.71
3571.66
3563.52
3556.39
3546.91
3538.69
3527.88
3518.66
3506.6
3496.58
3483.44
3472.89
3458.87
3448.17
3433.46
3423.01
3407.69
3397.82
3381.75
3372.64
3355.72
3347.09
3325.39
1109.53
1064.78
1122.19
1209.97
1238.63
1120.97
818.319
1979.49
54701.4
16172.6
7363.28
6106.92
6232.25
6482.68
6552.98
8024.39
74286
43639.4
24831
18457.5
16094.5
14995.9
14623.3
19659.2
76435.3
71024.1
54237.6
41183.6
32677.8
27151.8
24540.7
34051.2
69749.5
75708.9
67742.6
55642.7
44561
35839.3
30862.1
42699.1
57766.2
71181.5
67951.7
59047.4
48381.4
38736.6
32785.7
45228.3
47487.1
61841.4
62501
56622.8
47174.2
38183.5
32457.9
44253.7
39078.2
51820.8
53591.4
49844.2
42399.6
34678.8
29594.7
39772.9
32610.8
42983.4
44918.6
42131.1
36299.6
30039.9
25819.2
34044
27591.9
35615.8
37252.3
35109.9
30537.6
25551.9
22219.7
29374.4
23478.4
29578.5
30817.8
29116
25525.3
21627.5
19153
26010.3
20101.8
24690.8
25569.1
24178.7
21334.9
18293.1
16489.3
22968.8
17368.4
20780
21365.8
20206.2
17935.1
15551.4
14259.4
20346.3
15138.5
17657.5
18021.7
17040.4
15211.3
13330.1
12424.3
18141.7
13290.5
15149.9
15355.3
14518.5
13032
11537.1
10924.7
16316.6
11731.2
13110.8
13208
12491.5
11274.2
10080
9692.93
14800.3
10408.5
11440.3
11465.2
10849.2
9844.73
8886.51
8673.94
13533.2
9269.76
10053.4
10034.6
9502.37
8669.26
7898.87
7823.44
12466
8287.02
8891.07
8847.79
8386.37
7692.36
7073.28
7105.63
11558.3
7443.43
7912.55
7854.77
7453.97
6873.2
6376.67
6492.82
10778.6
6716.36
7083.73
7017.82
6668.72
6180.48
5783.48
5966.43
10101.6
6089.67
6378.29
6308.07
6002.86
5590.58
5274.8
5511.23
9508.83
5547.19
5774.49
5702.63
5434.89
5085.42
4836.36
5115.82
8988.32
5073.42
5253.63
5182.36
4946.99
4650.09
4456.41
4770.87
8529.99
4657.51
4801.39
4732.22
4525
4272.48
4125.19
4468.36
8124.55
4290.63
4406.37
4340.3
4157.69
3942.94
3834.87
4201.81
7764.48
3965.5
4059.29
3996.97
3836.03
3653.7
3579.05
3965.88
7443.75
3676.52
3752.92
3694.67
3552.84
3398.49
3352.51
3756.11
7157.12
3418.52
3481.15
3427.11
3302.22
3172.16
3150.91
3568.76
6900.04
3187.47
3239.05
3189.2
3079.34
2970.49
2970.76
3400.68
6668.44
2979.69
3022.44
2976.74
2880.3
2790.08
2808.72
3249.46
6458.97
2792.2
2827.87
2786.22
2701.78
2627.97
2662.64
3112.78
6268.86
2622.48
2652.49
2614.73
2541.09
2481.77
2530.54
2988.82
6095.8
2468.32
2493.84
2459.82
2395.93
2349.48
2410.72
2876.05
5937.71
2327.94
2349.9
2319.48
2264.39
2229.41
2301.73
2773.19
5792.9
2199.77
2218.93
2191.94
2144.82
2120.13
2202.34
2679.16
5660
2082.51
2099.47
2075.74
2035.86
2020.41
2111.47
2593.02
5537.81
1974.96
1990.23
1969.59
1936.29
1929.16
2028.21
2513.97
5425.35
1876.11
1890.08
1872.36
1845.07
1845.5
1951.74
2441.28
5321.77
1785.03
1798.04
1783.1
1761.31
1768.48
1881.4
2374.37
5226.34
1700.94
1713.24
1700.92
1684.17
1697.48
1816.52
2312.64
5138.34
1623.11
1634.93
1625.08
1612.97
1631.87
1756.52
2255.6
5057.13
1550.91
1562.43
1554.92
1547.07
1571.11
1700.92
2202.78
4982.11
1483.8
1495.15
1489.84
1485.93
1514.72
1649.27
2153.77
4912.68
1421.29
1432.58
1429.36
1429.11
1462.24
1601.18
2108.2
4848.28
1362.93
1374.28
1373.04
1376.12
1413.34
1556.33
2065.72
4788.34
1308.36
1319.83
1320.47
1326.65
1367.67
1514.4
2026.05
4732.39
1257.22
1268.89
1271.31
1280.4
1324.94
1475.14
1988.94
4680
1209.24
1221.16
1225.28
1237.09
1284.9
1438.33
1954.15
4630.81
1164.13
1176.36
1182.11
1196.47
1247.32
1403.76
1921.5
4584.51
1121.67
1134.26
1141.56
1158.32
1212.01
1371.25
1890.83
4540.88
1081.65
1094.64
1103.43
1122.44
1178.79
1340.67
1862
4499.75
1043.87
1057.31
1067.53
1088.66
1147.5
1311.85
1834.88
4460.99
1008.16
1022.07
1033.67
1056.81
1118
1284.69
1809.39
4424.51
974.372
988.784
1001.7
1026.75
1090.14
1259.06
1785.39
4390.24
942.339
957.277
971.481
998.331
1063.83
1234.87
1762.84
4358.11
911.942
927.427
942.869
971.438
1038.92
1211.99
1741.6
4328.02
883.041
899.09
915.735
945.949
1015.34
1190.37
1721.64
4299.92
855.545
872.172
889.981
921.769
992.974
1169.9
1702.85
4273.68
829.323
846.541
865.486
898.788
971.741
1150.5
1685.18
4249.2
804.317
822.135
842.183
876.939
951.565
1132.11
1668.52
4226.36
780.397
798.826
819.952
856.113
932.358
1114.64
1652.83
4204.97
757.545
776.589
798.762
836.275
914.074
1098.05
1638.02
4185
735.624
755.286
778.483
817.304
896.607
1082.24
1624.02
4166.14
714.654
734.932
759.123
799.204
879.955
1067.19
1610.78
4148.51
694.481
715.37
740.526
781.824
863.973
1052.79
1598.18
4131.62
675.168
696.661
722.754
765.226
848.717
1039.06
1586.26
4115.83
656.529
678.61
705.606
749.205
833.989
1025.82
1574.81
4100.46
638.681
661.34
689.211
733.897
819.925
1013.2
1563.98
4086.15
621.392
644.602
673.306
719.028
806.249
1000.93
1553.45
4071.9
604.846
628.594
658.107
704.83
793.203
989.241
1543.51
4058.81
588.745
612.996
643.27
690.939
780.405
977.753
1533.7
4045.38
573.36
598.104
629.119
677.709
768.24
966.865
1524.5
4033.26
558.312
583.508
615.209
664.655
756.185
956.026
1515.27
4020.44
543.979
569.621
602.001
652.293
744.807
945.846
1506.71
4009.14
529.88
555.921
588.916
639.979
733.398
935.558
1497.94
3996.76
516.522
542.964
576.578
628.42
722.753
926.043
1489.98
3986.2
503.293
530.082
564.244
616.777
711.927
916.244
1481.6
3974.16
490.855
518.006
552.735
605.987
701.993
907.386
1474.26
3964.37
478.433
505.884
541.096
594.965
691.705
898.038
1466.23
3952.62
466.878
494.653
530.386
584.926
682.477
889.854
1459.56
3943.72
455.205
483.233
519.39
574.478
672.689
880.923
1451.85
3932.25
444.5
472.819
509.454
565.173
664.166
873.438
1445.91
3924.38
433.511
462.039
499.043
555.245
654.828
864.885
1438.48
3913.22
423.621
452.409
489.855
546.656
647.007
858.119
1433.34
3906.47
413.239
442.194
479.955
537.181
638.059
849.888
1426.16
3895.64
404.132
433.316
471.486
529.285
630.926
843.847
1421.84
3889.97
394.268
423.58
462.016
520.185
622.294
835.872
1414.85
3879.54
385.914
415.426
454.236
512.95
615.819
830.526
1411.31
3874.63
376.471
406.074
445.107
504.144
607.435
822.761
1404.54
3864.67
368.852
398.625
437.994
497.539
601.566
818.013
1401.47
3860.14
359.728
389.559
429.115
488.949
593.371
810.44
1395.12
3850.67
352.846
382.813
422.659
482.948
588.05
806.179
1392.32
3846.29
343.934
373.933
413.937
474.493
579.988
798.775
1386.33
3837.06
337.81
367.908
408.147
469.084
575.167
794.899
1383.68
3832.63
328.999
359.108
399.488
460.685
567.178
787.618
1377.91
3823.41
323.67
353.835
394.379
455.859
562.807
784.013
1375.33
3818.88
314.843
345.01
385.695
447.454
554.865
776.881
1369.74
3809.78
310.339
340.508
381.271
443.187
550.871
773.385
1367.09
3805.13
299.681
329.806
370.683
432.87
541.041
764.461
1359.64
3794.3
)
;

boundaryField
{
    frontAndBack
    {
        type            empty;
    }
    inlet
    {
        type            fixedValue;
        value           uniform 14.855;
    }
    outlet
    {
        type            zeroGradient;
    }
    walls
    {
        lowReCorrection 0;
        blending        stepwise;
        n               2;
        type            epsilonWallFunction;
        value           nonuniform List<scalar> 
228
(
112.724
141.424
210.098
257.591
369.051
443.457
614.739
724.907
971.323
1128.62
1109.53
1064.78
1122.19
1209.97
1238.63
1120.97
818.319
1979.49
1979.49
8024.39
19659.2
34051.2
42699.1
45228.3
44253.7
39772.9
34044
29374.4
26010.3
22968.8
20346.3
18141.7
16316.6
14800.3
13533.2
12466
11558.3
10778.6
10101.6
9508.83
8988.32
8529.99
8124.55
7764.48
7443.75
7157.12
6900.04
6668.44
6458.97
6268.86
6095.8
5937.71
5792.9
5660
5537.81
5425.35
5321.77
5226.34
5138.34
5057.13
4982.11
4912.68
4848.28
4788.34
4732.39
4680
4630.81
4584.51
4540.88
4499.75
4460.99
4424.51
4390.24
4358.11
4328.02
4299.92
4273.68
4249.2
4226.36
4204.97
4185
4166.14
4148.51
4131.62
4115.83
4100.46
4086.15
4071.9
4058.81
4045.38
4033.26
4020.44
4009.14
3996.76
3986.2
3974.16
3964.37
3952.62
3943.72
3932.25
3924.38
3913.22
3906.47
3895.64
3889.97
3879.54
3874.63
3864.67
3860.14
3850.67
3846.29
3837.06
3832.63
3823.41
3818.88
3809.78
3805.13
3794.3
105.939
146.535
198.416
265.701
350.108
456.006
585.763
743.665
931.877
1154.05
1464.61
1897.24
2398.83
2961.79
3563.07
4171.74
4746.24
5251.26
5654.79
5950.9
6132.01
6218.86
6206.39
6159.81
6061.45
5928.45
5778.36
5619.81
5459.49
5301.72
5149.25
5003.98
4867.32
4739.45
4620.71
4510.76
4409.64
4316.78
4231.82
4154.33
4083.84
4020.19
3962.78
3911.39
3865.46
3824.88
3789.22
3758.26
3731.27
3708.04
3687.92
3670.92
3656.44
3644.29
3634.06
3625.46
3618.47
3612.62
3608.19
3604.55
3602.19
3600.4
3599.56
3599
3599.08
3599.32
3599.9
3600.54
3601.66
3602.6
3603.74
3604.77
3605.99
3606.96
3608.23
3608.96
3609.69
3609.75
3609.5
3608.7
3607.48
3605.01
3602.6
3598.64
3594.94
3589.47
3584.54
3577.71
3571.66
3563.52
3556.39
3546.91
3538.69
3527.88
3518.66
3506.6
3496.58
3483.44
3472.89
3458.87
3448.17
3433.46
3423.01
3407.69
3397.82
3381.75
3372.64
3355.72
3347.09
3325.39
)
;
    }
}


// ************************************************************************* //
