/*--------------------------------*- C++ -*----------------------------------*\
| =========                 |                                                 |
| \\      /  F ield         | OpenFOAM: The Open Source CFD Toolbox           |
|  \\    /   O peration     | Version:  v2012                                 |
|   \\  /    A nd           | Website:  www.openfoam.com                      |
|    \\/     M anipulation  |                                                 |
\*---------------------------------------------------------------------------*/
FoamFile
{
    version     2.0;
    format      ascii;
    class       vectorField;
    location    "0.15/lagrangian/kinematicCloud";
    object      U;
}
// * * * * * * * * * * * * * * * * * * * * * * * * * * * * * * * * * * * * * //


54
(
(14.8646 -0.143041 0)
(16.5763 -0.131393 0)
(16.2421 -0.101935 0)
(16.1553 -0.142384 0)
(15.4941 -0.0586753 0)
(16.4925 -0.094799 0)
(11.413 -0.0305032 0)
(14.8214 -0.0259352 0)
(14.9723 -0.027034 0)
(16.9189 -0.112616 0)
(17.1725 -0.104966 0)
(16.1693 -0.117748 0)
(13.4442 -0.0111557 0)
(13.8099 -0.132232 0)
(13.8886 -0.0136008 0)
(17.5736 -0.0797732 0)
(15.5449 -0.129387 0)
(14.4084 -0.0176247 0)
(16.7465 -0.108372 0)
(15.5197 -0.0288252 0)
(16.8583 -0.0461976 0)
(14.9306 -0.0218493 0)
(16.8502 -0.0450783 0)
(16.5769 -0.11271 0)
(17.9767 -0.0832865 0)
(17.111 -0.0480097 0)
(16.251 -0.114594 0)
(16.5509 -0.0396119 0)
(14.7455 -0.0886599 0)
(16.4288 -0.0374839 0)
(3.34117 -0.00038697 0)
(15.5533 -0.101414 0)
(13.2935 -0.00363935 0)
(18.3784 -0.0674891 0)
(17.638 -0.0919537 0)
(17.7341 -0.0539309 0)
(18.1981 -0.082232 0)
(18.4805 -0.0772447 0)
(17.8777 -0.052973 0)
(13.1947 0.00151898 0)
(18.1296 -0.0754495 0)
(18.1741 -0.0525323 0)
(17.782 -0.0673798 0)
(17.4645 -0.0597746 0)
(18.2772 -0.0599659 0)
(18.4902 -0.0452565 0)
(17.2501 -0.0210016 0)
(18.8255 -0.0446865 0)
(18.5966 -0.0377802 0)
(17.7954 -0.0194142 0)
(16.2557 0.00604591 0)
(18.5195 -0.0135239 0)
(16.7223 -0.00934439 0)
(15.105 0.00529087 0)
)


// ************************************************************************* //
