/*--------------------------------*- C++ -*----------------------------------*\
| =========                 |                                                 |
| \\      /  F ield         | OpenFOAM: The Open Source CFD Toolbox           |
|  \\    /   O peration     | Version:  v2012                                 |
|   \\  /    A nd           | Website:  www.openfoam.com                      |
|    \\/     M anipulation  |                                                 |
\*---------------------------------------------------------------------------*/
FoamFile
{
    version     2.0;
    format      ascii;
    class       vectorField;
    location    "0.15/lagrangian/kinematicCloud";
    object      UCorrect;
}
// * * * * * * * * * * * * * * * * * * * * * * * * * * * * * * * * * * * * * //


54
(
(0 0 0)
(0 0 0)
(0 0 0)
(1.55374e-28 2.8435e-30 0)
(8.54826e-27 1.06823e-28 0)
(0 0 0)
(-1.49737e-27 2.35363e-27 0)
(0 0 0)
(0 0 0)
(0 0 0)
(0 0 0)
(0 0 0)
(0 0 0)
(6.74297e-27 9.28888e-28 0)
(1.47458e-26 -4.84429e-29 0)
(1.71923e-26 2.14161e-28 0)
(0 0 0)
(0 0 0)
(2.26262e-26 1.27964e-28 0)
(2.21434e-29 -1.79816e-31 0)
(0 0 0)
(0 0 0)
(0 0 0)
(0 0 0)
(0 0 0)
(0 0 0)
(0 0 0)
(0 0 0)
(4.61842e-27 1.95614e-27 0)
(0 0 0)
(0 0 0)
(5.94304e-27 1.24047e-27 0)
(-3.2991e-27 -7.88311e-30 0)
(0 0 0)
(0 0 0)
(1.59385e-26 -3.16004e-29 0)
(0 0 0)
(0 0 0)
(0 0 0)
(-2.43048e-27 7.78798e-30 0)
(0 0 0)
(0 0 0)
(0 0 0)
(0 0 0)
(0 0 0)
(0 0 0)
(2.53686e-27 9.20889e-28 0)
(0 0 0)
(0 0 0)
(-6.30814e-31 8.76216e-31 0)
(0 0 0)
(0 0 0)
(0 0 0)
(0 0 0)
)


// ************************************************************************* //
