/*--------------------------------*- C++ -*----------------------------------*\
| =========                 |                                                 |
| \\      /  F ield         | OpenFOAM: The Open Source CFD Toolbox           |
|  \\    /   O peration     | Version:  v2012                                 |
|   \\  /    A nd           | Website:  www.openfoam.com                      |
|    \\/     M anipulation  |                                                 |
\*---------------------------------------------------------------------------*/
FoamFile
{
    version     2.0;
    format      ascii;
    class       volScalarField;
    location    "0.314";
    object      omega.air;
}
// * * * * * * * * * * * * * * * * * * * * * * * * * * * * * * * * * * * * * //

dimensions      [0 0 -1 0 0 0 0];


internalField   nonuniform List<scalar> 
5600
(
6586.3
7485.49
7886.82
7965.16
7866.41
7687.44
7480.97
7290.05
7125.33
6987.79
6878.91
6796.29
6736.27
6693.37
6663.68
6642.26
6627.09
6614.8
6605.36
6596.46
6589.63
6582.64
6577.87
6573.09
6570.52
6567.57
6566.37
6564.62
6564.08
6562.72
6562.16
6560.55
6559.63
6557.66
6556.49
6554.33
6553.05
6550.83
6549.58
6547.42
6546.31
6544.31
6543.44
6541.65
6541.07
6539.56
6539.26
6537.98
6537.89
6536.8
6536.9
6535.87
6536.2
6535.29
6535.86
6535.08
6535.89
6535.27
6536.31
6535.87
6537.19
6536.84
6538.45
6538.17
6540.05
6539.84
6541.99
6541.82
6544.26
6544.09
6546.84
6546.64
6549.73
6549.46
6552.92
6552.57
6556.4
6555.94
6560.11
6559.57
6563.98
6563.46
6567.9
6567.67
6571.69
6572.4
6575.02
6578.12
6577.16
6586.02
6576.67
6598.57
6569.11
6622.94
6540.56
6683.57
6440.52
6868.24
6038.59
7487.29
2450.55
2296.52
2571.67
2795.07
2928.23
2998.01
3010.29
2968.21
2968.93
3017.25
3073.45
3118.99
3147.17
3158.5
3154.91
3140.54
3118.26
3091.31
3062.13
3032.57
3003.23
2973.99
2945.03
2916.51
2889.21
2863.29
2839.66
2817.46
2797.58
2778.6
2761.96
2745.94
2732.08
2718.69
2707.18
2696
2686.39
2677.02
2668.95
2661.09
2654.28
2647.65
2641.87
2636.28
2631.28
2626.33
2621.89
2617.43
2613.51
2609.49
2606.05
2602.59
2599.55
2596.51
2593.89
2591.25
2588.99
2586.7
2584.8
2582.73
2581.11
2579.33
2577.93
2576.38
2575.18
2573.82
2572.79
2571.63
2570.71
2569.77
2568.97
2568.19
2567.52
2566.89
2566.35
2565.86
2565.42
2565.06
2564.68
2564.45
2564.07
2564.03
2563.57
2563.84
2563.15
2563.98
2562.67
2564.68
2561.81
2566.36
2559.41
2570.76
2552.88
2582.36
2534.8
2614.58
2478.57
2715.25
2279.51
3066.9
2358.54
1859.93
1592.14
1427.81
1346.09
1273.8
1279.96
1309.16
1351.9
1412.46
1482.26
1549.54
1611.13
1663.94
1704.88
1733.42
1749.11
1752.48
1744.3
1726.49
1702.38
1676.78
1653.6
1634.91
1619.45
1605.79
1593.23
1581.77
1571.23
1561
1551.15
1540.95
1531.32
1521.67
1512.9
1504.19
1496.4
1488.69
1481.88
1475.15
1469.21
1463.34
1458.12
1452.87
1448.27
1443.64
1439.61
1435.49
1431.95
1428.3
1425.18
1421.97
1419.25
1416.43
1414.08
1411.58
1409.54
1407.33
1405.55
1403.54
1401.98
1400.16
1398.78
1397.11
1395.91
1394.36
1393.32
1391.9
1391
1389.73
1388.94
1387.81
1387.13
1386.12
1385.53
1384.64
1384.09
1383.34
1382.76
1382.21
1381.5
1381.3
1380.25
1380.67
1378.9
1380.51
1377.23
1381.14
1374.74
1383.22
1370.38
1388.32
1361.82
1400.01
1343.74
1425.75
1304.99
1478.48
1229.4
1556.05
2345.16
1822.38
1493.22
1267.66
1111.15
992.616
906.85
846.95
802.631
776.749
760.396
769.442
791.638
824.08
860.934
902.257
941.267
978.652
1011.2
1039.65
1061.38
1079.18
1091.62
1100.99
1105.71
1107.16
1103.57
1097.11
1087.59
1078.02
1068.44
1060.71
1053.93
1048.05
1042.52
1037.35
1032.5
1027.85
1023.56
1019.23
1015.11
1010.62
1006.16
1001.42
996.991
992.447
988.343
984.178
980.482
976.738
973.451
970.125
967.226
964.273
961.707
959.01
956.662
954.153
951.988
949.64
947.644
945.447
943.621
941.571
939.911
938.003
936.507
934.745
933.408
931.785
930.587
929.114
928.02
926.677
925.648
924.434
923.433
922.421
921.383
920.646
919.42
919.124
917.478
917.928
915.456
917.194
913.172
917.135
910.31
918.127
906.353
920.816
900.508
926.175
891.828
934.539
880.849
942.041
875.443
926.561
2341.97
1815.97
1479.81
1247.93
1079.71
952.58
853.18
774.626
710.636
658.898
616.108
581.935
556.232
536.153
523.595
514.775
513.782
520.917
532.243
549.227
568.52
591.935
616.101
642.238
667.079
692.201
713.811
733.36
748.175
760.895
769.704
777.432
782.135
786.065
787.256
787.776
785.845
783.575
779.509
775.789
771.205
767.595
764.156
761.305
758.391
755.718
753.019
750.453
747.969
745.577
743.346
741.15
739.071
736.965
734.809
732.431
730.123
727.68
725.39
722.996
720.8
718.506
716.44
714.274
712.36
710.342
708.587
706.726
705.122
703.398
701.915
700.286
698.862
697.322
695.918
694.498
693.075
691.832
690.348
689.381
687.739
687.175
685.211
685.264
682.707
683.724
680.146
682.606
677.428
681.985
674.471
681.891
671.326
682.072
668.523
681.41
667.715
677.134
671.839
664.943
2341.13
1814.12
1476.76
1243.89
1074.16
945.337
844.319
763.145
696.592
641.008
594.216
553.985
519.718
489.829
464.177
441.897
422.616
406.937
393.535
383.417
375.266
370.359
367.33
368.982
373.106
381.387
391.406
405.432
419.956
437.814
454.585
473.789
490.899
509.299
524.549
540.287
552.249
564.169
572.361
580.474
585.545
590.735
593.869
597.309
598.915
600.757
600.916
601.29
600.182
599.329
597.306
595.629
593.23
591.23
589.09
587.477
585.728
584.281
582.704
581.298
579.828
578.437
577.071
575.713
574.468
573.175
572.035
570.813
569.703
568.502
567.302
565.927
564.588
563.184
561.77
560.426
558.942
557.713
556.132
555.101
553.389
552.647
550.731
550.387
548.158
548.343
545.666
546.507
543.257
544.835
540.972
543.224
538.931
541.417
537.387
539.036
536.595
535.848
535.995
532.428
2340.86
1813.44
1475.75
1242.6
1072.61
943.441
842.131
760.547
693.591
637.494
590.083
549.191
513.906
482.87
455.607
431.369
409.751
390.378
373.05
357.327
343.396
330.619
319.435
309.356
300.747
293.31
287.168
282.363
278.87
276.86
276.534
278.451
281.687
287.37
293.926
303.062
312.432
324.218
335.44
348.596
360.517
374.06
385.576
398.416
408.859
420.314
429.154
438.693
445.584
452.911
457.776
462.942
466.09
469.474
471.445
473.83
475.09
476.68
477.31
478.184
478.246
478.473
478.037
477.696
476.859
476.07
474.974
473.881
472.748
471.572
470.54
469.569
468.668
467.799
466.92
466.123
465.203
464.48
463.467
462.849
461.716
461.251
459.969
459.696
458.244
458.173
456.536
456.652
454.823
455.074
453.088
453.373
451.316
451.457
449.438
449.37
447.353
447.292
444.535
445.255
2340.76
1813.13
1475.33
1242.07
1072
942.726
841.354
759.662
692.638
636.426
588.924
547.903
512.505
481.271
453.889
429.304
407.553
387.639
370.042
353.53
339.067
325.172
313.089
301.288
291.101
280.969
272.419
263.621
256.533
248.902
243.129
236.71
232.203
227.018
223.807
219.927
218.127
215.715
215.457
215.051
216.687
218.409
221.931
225.797
231.158
237.044
244.03
251.609
259.807
268.524
277.379
286.645
295.66
304.878
313.428
322.036
329.863
337.638
344.543
351.278
357.146
362.716
367.493
371.83
375.511
378.661
381.364
383.451
385.371
386.689
388.079
388.995
390.043
390.616
391.338
391.625
392.01
392.059
392.094
391.944
391.636
391.337
390.699
390.302
389.351
388.911
387.685
387.233
385.775
385.325
383.667
383.23
381.408
381.035
379.052
378.746
376.453
376.293
373.398
373.316
2340.71
1812.97
1475.11
1241.81
1071.71
942.397
841.006
759.281
692.229
636
588.455
547.422
511.984
480.715
453.32
428.66
406.911
386.908
369.281
352.694
338.14
324.162
311.952
299.992
289.657
279.239
270.466
261.248
253.77
245.54
239.129
231.73
226.24
219.526
214.875
208.73
204.853
199.224
196.058
190.952
188.497
183.914
182.188
178.154
177.193
173.791
173.643
170.999
171.713
170.109
171.876
171.413
174.258
175.048
179.011
181.087
186.094
189.4
195.35
199.723
206.43
211.63
218.856
224.57
232.021
237.958
245.377
251.27
258.308
263.827
270.275
275.319
281.098
285.585
290.629
294.539
298.812
302.126
305.585
308.28
310.935
313.044
314.902
316.465
317.555
318.644
319.062
319.75
319.59
319.955
319.324
319.47
318.482
318.535
317.241
317.097
315.455
315.099
313.094
312.277
2340.68
1812.9
1475.02
1241.69
1071.57
942.257
840.841
759.126
692.035
635.834
588.237
547.238
511.749
480.51
453.065
428.441
406.622
386.688
368.945
352.471
337.764
323.918
311.544
299.714
289.202
278.934
269.93
260.911
253.128
245.137
238.355
231.208
225.277
218.818
213.621
207.735
203.166
197.775
193.745
188.782
185.235
180.634
177.53
173.248
170.544
166.557
164.225
160.515
158.541
155.099
153.495
150.338
149.083
146.245
145.348
142.871
142.36
140.266
140.184
138.548
138.914
137.807
138.637
138.228
139.588
139.885
141.754
142.783
145.173
146.926
149.772
152.164
155.406
158.375
161.92
165.351
169.086
172.862
176.703
180.699
184.534
188.62
192.343
196.399
199.927
203.834
207.093
210.743
213.661
216.97
219.488
222.344
224.418
226.692
228.409
230.316
231.764
233.228
234.387
235.269
2340.68
1812.91
1475.03
1241.71
1071.58
942.282
840.846
759.157
692.036
635.866
588.234
547.272
511.741
480.551
453.045
428.496
406.587
386.755
368.9
352.544
337.714
323.997
311.483
299.81
289.12
279.053
269.828
261.05
253.011
245.294
238.223
231.391
225.124
219.035
213.448
207.987
202.984
198.064
193.564
189.122
185.061
181.047
177.378
173.756
170.443
167.193
164.212
161.337
158.681
156.189
153.87
151.771
149.822
148.137
146.604
145.382
144.311
143.616
143.069
143.01
143.124
143.751
144.58
145.933
147.526
149.631
151.998
154.817
157.896
161.352
165.049
169.039
173.222
177.594
182.109
186.709
191.393
196.054
200.725
205.283
209.792
214.116
218.326
222.257
226.012
229.476
232.748
235.745
238.533
241.065
243.383
245.472
247.341
249.012
250.44
251.681
252.679
253.528
254.161
254.737
2340.71
1813
1475.15
1241.86
1071.74
942.465
841.03
759.363
692.237
636.091
588.452
547.517
511.974
480.819
453.289
428.79
406.846
387.074
369.182
352.889
338.023
324.375
311.822
300.238
289.497
279.543
270.269
261.623
253.554
245.991
238.917
232.286
226.054
220.236
214.753
209.657
204.868
200.451
196.356
192.628
189.232
186.22
183.575
181.34
179.536
178.176
177.326
177.082
177.424
178.424
180.036
182.363
185.32
188.969
193.24
198.121
203.566
209.503
215.888
222.584
229.583
236.72
244.004
251.244
258.474
265.439
272.235
278.656
284.859
290.636
296.164
301.24
306.032
310.351
314.364
317.909
321.134
323.912
326.363
328.396
330.132
331.503
332.603
333.435
334.044
334.466
334.768
334.907
334.93
334.804
334.555
334.173
333.658
333.028
332.263
331.404
330.419
329.38
328.279
327.236
2340.76
1813.17
1475.39
1242.15
1072.07
942.821
841.416
759.774
692.676
636.557
588.945
548.04
512.523
481.409
453.906
429.462
407.55
387.853
370.009
353.821
339.031
325.537
313.104
301.752
291.216
281.617
272.686
264.577
257.067
250.336
244.221
238.886
234.155
230.28
227.043
224.767
223.199
222.82
223.484
225.326
228.234
232.329
237.476
243.719
250.898
258.951
267.709
276.957
286.616
296.423
306.337
316.022
325.444
334.469
343.073
351.152
358.692
365.615
371.92
377.554
382.535
386.843
390.522
393.59
396.113
398.166
399.859
401.299
402.534
403.547
404.383
405.008
405.477
405.75
405.88
405.833
405.657
405.328
404.888
404.324
403.677
402.94
402.144
401.331
400.467
399.63
398.806
397.985
397.145
396.288
395.394
394.473
393.499
392.494
391.432
390.341
389.203
388.064
386.939
385.92
2340.87
1813.49
1475.85
1242.71
1072.73
943.557
842.25
760.68
693.694
637.654
590.181
549.375
514.043
483.076
455.843
431.638
410.127
390.85
373.643
358.167
344.357
332.006
321.097
311.744
303.651
297.155
291.928
288.429
286.312
286.458
288.569
292.784
298.884
306.931
316.616
327.791
340.093
353.151
366.64
380.344
393.8
406.911
419.347
431.067
441.762
451.458
459.901
467.213
473.252
478.257
482.205
485.386
488.036
490.203
491.941
493.258
494.189
494.741
494.947
494.823
494.407
493.727
492.831
491.758
490.568
489.342
488.133
487.049
486.03
485.057
484.101
483.156
482.211
481.269
480.322
479.376
478.429
477.492
476.565
475.655
474.762
473.88
473.021
472.145
471.288
470.374
469.401
468.397
467.36
466.314
465.245
464.181
463.095
462.022
460.927
459.858
458.778
457.745
456.781
455.974
2341.15
1814.19
1476.91
1243.99
1074.37
945.464
844.557
763.342
696.865
641.369
594.591
554.619
520.502
490.962
465.761
443.833
425.817
410.635
398.927
389.603
383.744
380.082
380.941
385.4
393.436
404.67
418.829
435.247
453.414
472.414
491.919
511.217
529.564
546.642
561.812
575.033
585.948
594.93
601.974
607.591
612.151
615.744
618.425
620.214
621.135
621.258
620.63
619.391
617.623
615.552
613.241
611.015
609.051
607.252
605.537
603.876
602.237
600.622
599.02
597.453
595.912
594.43
592.987
591.61
590.256
588.945
587.587
586.134
584.598
583.037
581.444
579.858
578.27
576.703
575.139
573.604
572.093
570.62
569.186
567.794
566.445
565.144
563.889
562.679
561.507
560.374
559.26
558.175
557.1
556.054
555.009
554.001
552.986
552.019
551.038
550.12
549.202
548.372
547.654
547.152
2342.03
1815.98
1480.11
1247.96
1080.28
952.707
854.16
775.204
712.349
660.615
619.078
586.929
562.6
545.505
534.585
530.078
534.448
545.065
561.028
581.077
604.57
630.609
657.648
684.795
711.038
734.719
754.969
771.336
784.178
794.175
801.84
807.314
810.764
812.231
811.873
809.912
806.64
802.649
798.213
794.142
790.65
787.472
784.455
781.477
778.557
775.679
772.906
770.234
767.703
765.258
762.897
760.507
757.928
755.277
752.583
749.908
747.253
744.656
742.11
739.645
737.244
734.94
732.707
730.582
728.53
726.583
724.697
722.888
721.106
719.382
717.677
716.027
714.396
712.816
711.266
709.775
708.327
706.939
705.598
704.311
703.071
701.886
700.745
699.659
698.612
697.619
696.66
695.747
694.857
694.014
693.181
692.398
691.612
690.886
690.147
689.48
688.823
688.273
687.88
687.785
2345.25
1822.39
1493.86
1268.16
1113.23
994.179
912.592
852.016
814.513
787.867
783.662
800.115
829.085
866.037
907.636
950.229
990.289
1026.99
1058.27
1083.61
1103.44
1118.45
1129.08
1135.73
1137.46
1134.75
1127.99
1118.69
1108.65
1099.46
1091.81
1085.13
1079.04
1073.27
1067.82
1062.62
1057.74
1052.99
1048.38
1043.53
1038.47
1033.33
1028.23
1023.25
1018.47
1013.89
1009.56
1005.45
1001.59
997.953
994.538
991.334
988.272
985.354
982.537
979.838
977.228
974.724
972.305
969.99
967.755
965.622
963.567
961.615
959.739
957.963
956.258
954.647
953.096
951.621
950.194
948.83
947.507
946.248
945.042
943.896
942.789
941.739
940.723
939.76
938.838
937.96
937.12
936.323
935.563
934.848
934.167
933.529
932.917
932.354
931.802
931.305
930.799
930.366
929.907
929.546
929.189
928.983
928.984
929.415
2358.73
1860.91
1594.77
1434.01
1353.99
1289
1305.25
1337.3
1392.12
1465.15
1539.73
1610.28
1672.38
1723.06
1760.09
1783.38
1792.55
1788.85
1773.31
1750.18
1724.15
1700.71
1682.17
1666.51
1652.51
1639.48
1627.39
1615.94
1604.93
1593.83
1582.73
1571.91
1561.57
1551.72
1542.45
1533.71
1525.55
1517.91
1510.81
1504.17
1497.94
1492.03
1486.48
1481.29
1476.43
1471.85
1467.55
1463.51
1459.72
1456.17
1452.85
1449.75
1446.84
1444.13
1441.57
1439.17
1436.9
1434.76
1432.72
1430.8
1428.96
1427.22
1425.57
1424
1422.5
1421.09
1419.76
1418.5
1417.3
1416.18
1415.12
1414.12
1413.19
1412.3
1411.45
1410.64
1409.85
1409.11
1408.41
1407.74
1407.11
1406.52
1405.97
1405.45
1404.97
1404.53
1404.13
1403.76
1403.42
1403.14
1402.86
1402.64
1402.41
1402.28
1402.07
1402.06
1401.95
1402.22
1402.69
1403.85
2454.74
2305.68
2580.44
2808.67
2934.22
3010.01
2994.58
2967.45
3014.83
3085.64
3150.03
3196.61
3222.4
3229.88
3222.23
3203.95
3178.36
3148.8
3117.79
3086.34
3054.82
3023.05
2991.97
2961.67
2933.61
2907.2
2882.91
2860.48
2839.9
2820.98
2803.65
2787.82
2773.39
2760.22
2748.2
2737.21
2727.14
2717.95
2709.48
2701.76
2694.62
2688.07
2682
2676.3
2670.91
2665.8
2660.99
2656.44
2652.17
2648.16
2644.41
2640.9
2637.62
2634.57
2631.73
2629.08
2626.6
2624.29
2622.12
2620.1
2618.18
2616.4
2614.71
2613.13
2611.66
2610.28
2609
2607.8
2606.71
2605.68
2604.74
2603.89
2603.1
2602.38
2601.71
2601.1
2600.53
2600
2599.52
2599.08
2598.69
2598.35
2598.05
2597.8
2597.6
2597.44
2597.33
2597.27
2597.24
2597.27
2597.33
2597.44
2597.56
2597.77
2597.92
2598.33
2598.52
2599.47
2600.42
2602.42
6588.08
7481.92
7876.77
7936
7826.38
7629.93
7415.07
7222.09
7053.54
6914.35
6805.39
6723.41
6664.04
6621.63
6591.85
6570.24
6554.28
6541.58
6531.2
6522.48
6514.92
6508.91
6504.01
6500.33
6497.42
6495.1
6493.31
6491.84
6490.47
6489.03
6487.34
6485.47
6483.4
6481.23
6478.93
6476.61
6474.25
6471.94
6469.66
6467.5
6465.43
6463.5
6461.71
6460.09
6458.62
6457.28
6456.06
6454.93
6453.9
6452.95
6452.1
6451.33
6450.67
6450.13
6449.7
6449.38
6449.17
6449.09
6449.12
6449.25
6449.49
6449.82
6450.27
6450.8
6451.41
6452.11
6452.9
6453.77
6454.73
6455.77
6456.89
6458.1
6459.38
6460.74
6462.17
6463.67
6465.24
6466.85
6468.52
6470.22
6471.97
6473.74
6475.56
6477.41
6479.3
6481.22
6483.2
6485.2
6487.25
6489.33
6491.47
6493.62
6495.86
6498.07
6500.44
6502.59
6504.93
6506.76
6507.99
6507.9
5489.61
3367.76
2415.44
1948.44
1665.39
1480.83
1346.9
1246.02
1163.95
1095.62
1037.21
985.904
940.054
898.624
860.817
825.772
793.064
762.125
732.487
704.074
676.693
650.306
624.923
600.551
577.111
554.668
533.181
512.685
493.135
474.513
456.815
440.081
424.278
409.354
395.248
381.894
369.239
357.232
345.822
334.965
324.619
314.746
305.311
296.283
287.636
279.337
271.367
263.703
256.321
249.2
242.321
235.66
229.212
222.952
216.88
210.971
205.247
199.675
194.29
189.033
183.986
179.082
174.435
169.928
165.722
161.676
157.995
154.44
151.273
148.171
145.563
142.889
140.789
138.362
136.711
134.484
133.288
131.068
130.154
127.848
127.395
125.282
125.22
123.263
123.247
121.955
122.658
122.802
124.388
124.954
125.952
125.443
125.109
123.438
122.424
119.998
118.949
116.06
115.418
112.249
1541.22
2573.11
2358.39
1985.82
1702.06
1501.96
1354.89
1243.76
1154.12
1081.13
1019.84
966.835
920.544
879.611
842.88
809.272
778.166
748.906
721.008
694.33
668.65
643.86
619.896
596.759
574.314
552.663
531.741
511.705
492.374
473.9
456.121
439.331
423.518
408.596
394.487
381.117
368.434
356.387
344.923
334
323.578
313.621
304.098
294.98
286.238
277.846
269.785
262.03
254.561
247.356
240.396
233.66
227.141
220.817
214.688
208.733
202.973
197.381
191.986
186.742
181.72
176.869
172.288
167.875
163.774
159.858
156.315
152.911
149.898
146.943
144.48
141.927
139.94
137.586
136.002
133.803
132.637
130.412
129.482
127.127
126.601
124.407
124.23
122.137
121.895
120.315
120.603
120.333
121.467
121.734
122.525
121.987
121.715
120.171
119.301
117.056
116.159
113.51
112.98
110.11
1129.95
1419.89
1804.62
1801.55
1642.56
1475.73
1336.89
1225.29
1133.68
1058.32
995.318
941.41
895.053
854.679
818.941
786.65
757.072
729.431
703.339
678.532
654.711
631.726
609.443
587.826
566.718
546.243
526.28
507.096
488.404
470.483
453.02
436.438
420.804
406.033
392.047
378.77
366.16
354.163
342.728
331.814
321.385
311.411
301.86
292.707
283.924
275.491
267.385
259.585
252.071
244.825
237.825
231.054
224.503
218.158
212.012
206.055
200.302
194.738
189.385
184.209
179.272
174.538
170.092
165.845
161.925
158.215
154.887
151.709
148.918
146.176
143.91
141.527
139.69
137.439
135.939
133.783
132.65
130.431
129.479
127.085
126.478
124.209
123.91
121.694
121.226
119.37
119.232
118.53
119.159
119.06
119.553
118.906
118.616
117.155
116.38
114.314
113.54
111.175
110.745
108.252
895.444
846.823
1029.27
1250.52
1340.43
1313.69
1239.1
1156.56
1080.06
1012.62
954.479
904.256
860.62
822.429
788.661
758.284
730.561
704.753
680.515
657.555
635.546
614.348
593.797
573.761
554.118
535.015
516.292
498.26
480.588
463.564
446.935
430.94
415.726
401.282
387.553
374.486
362.055
350.204
338.884
328.06
317.701
307.783
298.278
289.163
280.409
272.003
263.92
256.14
248.647
241.422
234.443
227.7
221.18
214.874
208.775
202.883
197.208
191.745
186.511
181.487
176.724
172.2
167.986
164.009
160.371
156.971
153.956
151.1
148.615
146.159
144.149
141.983
140.324
138.202
136.79
134.687
133.574
131.361
130.37
127.937
127.23
124.888
124.449
122.114
121.415
119.295
118.725
117.58
117.657
117.136
117.243
116.405
116.004
114.575
113.828
111.94
111.25
109.217
108.873
106.849
675.189
656.026
666.74
732.581
836.317
921.848
960.609
959.779
936.426
903.225
867.555
833.265
801.212
771.619
744.392
719.166
695.501
673.133
651.704
631.148
611.253
591.984
573.205
554.85
536.795
519.204
501.933
485.267
468.842
452.907
437.42
422.346
407.846
393.954
380.659
367.948
355.825
344.226
333.113
322.464
312.257
302.478
293.103
284.109
275.472
267.179
259.203
251.532
244.144
237.026
230.155
223.527
217.124
210.95
204.993
199.264
193.767
188.514
183.511
178.76
174.295
170.115
166.266
162.696
159.476
156.519
153.937
151.513
149.422
147.328
145.622
143.708
142.234
140.246
138.902
136.841
135.712
133.489
132.419
129.937
129.094
126.67
126.057
123.599
122.652
120.278
119.265
117.677
117.164
116.179
115.82
114.723
114.117
112.669
111.88
110.167
109.521
107.879
107.604
106.16
530.551
531.105
526.801
527.661
540.635
566.638
598.737
629.811
653.263
668.17
674.758
675.801
672.745
666.592
657.917
647.341
635.12
621.775
607.364
592.319
576.767
561.007
545.037
529.178
513.308
497.627
482.067
466.843
451.884
437.269
423.121
409.335
395.973
382.983
370.4
358.294
346.696
335.514
324.749
314.408
304.486
294.979
285.867
277.131
268.747
260.704
252.973
245.547
238.4
231.525
224.897
218.519
212.371
206.467
200.794
195.376
190.21
185.325
180.721
176.418
172.43
168.777
165.478
162.498
159.868
157.514
155.5
153.619
152
150.318
148.93
147.265
145.941
144.05
142.713
140.648
139.43
137.153
135.934
133.373
132.336
129.805
128.964
126.366
125.134
122.511
121.04
119.017
117.881
116.414
115.525
114.126
113.234
111.732
110.838
109.312
108.683
107.508
107.299
106.573
439.298
441.194
439.577
434.497
427.954
422.569
418.228
416.344
416.718
420.708
427.769
437.947
450.513
464.658
478.83
492.012
502.713
510.371
514.174
514.318
510.909
504.917
496.6
486.758
475.767
464.043
451.767
439.088
426.5
413.932
401.555
389.357
377.281
365.607
354.261
343.281
332.652
322.218
312.12
302.413
293.102
284.191
275.661
267.492
259.658
252.149
244.935
238.012
231.352
224.956
218.798
212.891
207.216
201.799
196.626
191.738
187.128
182.846
178.879
175.266
172
169.121
166.606
164.437
162.591
161.003
159.675
158.411
157.284
155.998
154.864
153.365
152.076
150.178
148.721
146.555
145.125
142.712
141.239
138.544
137.225
134.546
133.395
130.624
129.052
126.18
124.228
121.788
120.009
118.069
116.61
114.908
113.685
112.132
111.109
109.813
109.215
108.618
108.502
108.668
369.172
371.218
371.079
367.567
360.89
352.133
341.783
330.739
319.466
308.891
299.435
291.916
287.14
285.922
288.887
296.314
307.911
322.848
339.656
356.839
372.25
385.513
394.155
399.234
401.156
400.241
397.04
391.831
385.306
377.718
369.394
360.538
351.111
341.676
331.938
322.189
312.483
303.25
294.428
285.991
277.91
270.177
262.762
255.65
248.81
242.239
235.91
229.828
223.969
218.346
212.94
207.776
202.842
198.179
193.779
189.697
185.929
182.542
179.51
176.886
174.633
172.801
171.318
170.167
169.254
168.52
167.887
167.181
166.419
165.364
164.277
162.736
161.252
159.154
157.372
154.95
153.133
150.468
148.602
145.695
143.983
141.095
139.532
136.548
134.566
131.445
128.988
126.17
123.745
121.385
119.36
117.42
115.882
114.352
113.253
112.291
111.827
111.966
112.044
113.32
309.707
309.59
308.55
305.21
299.416
291.48
282.166
272.062
262.281
253.049
245.446
239.557
235.69
233.664
233.469
234.48
236.936
240.115
244.907
250.225
257.667
265.098
275.43
286.393
296.95
306.162
313.658
318.937
322.021
322.933
321.852
318.959
314.397
308.256
301.74
295.007
287.97
281.208
274.685
268.372
262.241
256.287
250.492
244.859
239.377
234.057
228.893
223.906
219.089
214.472
210.048
205.863
201.913
198.261
194.904
191.917
189.29
187.106
185.313
183.971
182.995
182.428
182.119
182.038
182.007
181.969
181.771
181.294
180.512
179.296
177.854
175.91
173.885
171.309
168.939
166.067
163.664
160.613
158.204
154.999
152.768
149.604
147.524
144.29
141.832
138.481
135.51
132.384
129.348
126.689
124.167
122.16
120.424
119.111
118.123
117.706
117.63
118.739
119.239
121.851
235.956
236.74
237.142
236.71
235.5
233.949
232.743
232.513
233.868
236.757
241.377
246.937
253.326
259.933
266.023
271.303
275.554
278.874
281.414
283.089
284.188
285.086
285.785
286.623
287.658
288.848
290.083
291.179
292.026
292.41
292.265
291.324
289.631
286.85
283.505
279.782
275.677
271.332
266.837
262.26
257.641
253.019
248.417
243.869
239.392
235.023
230.773
226.682
222.756
219.042
215.549
212.338
209.417
206.865
204.681
202.951
201.65
200.853
200.466
200.518
200.848
201.453
202.084
202.691
203.017
203.046
202.585
201.626
200.135
198.137
195.782
192.976
190.024
186.684
183.482
179.983
176.83
173.284
170.211
166.629
163.781
160.295
157.625
154.135
151.172
147.644
144.197
140.891
137.354
134.623
131.793
130.064
128.4
127.705
127.209
127.736
128.527
130.928
132.247
136.3
255.231
255.707
256.428
258.118
261.054
265.6
271.54
278.921
286.991
295.627
304.125
312.181
319.107
324.741
329.263
332.771
335.437
337.47
339.013
340.118
340.945
341.26
341.17
340.672
339.857
338.706
337.23
335.439
333.334
330.88
328.099
324.901
321.371
317.363
312.877
308.053
302.938
297.611
292.151
286.645
281.155
275.741
270.439
265.3
260.351
255.638
251.176
247.006
243.132
239.611
236.452
233.724
231.43
229.65
228.373
227.669
227.469
227.798
228.478
229.464
230.486
231.467
232.079
232.289
231.844
230.822
229.065
226.719
223.774
220.403
216.701
212.731
208.665
204.446
200.358
196.2
192.284
188.224
184.484
180.517
177.069
173.284
170.067
166.384
163.003
159.414
155.649
152.381
148.614
146.208
143.479
142.616
141.524
142.136
142.719
144.831
147.135
151.127
153.662
158.76
326.397
325.733
325.707
327.009
329.861
334.192
339.755
346.3
353.338
360.731
368.101
375.081
381.461
387.098
391.994
396.071
399.474
402.047
403.927
405.184
405.951
406.224
406.072
405.447
404.395
402.832
400.797
398.292
395.26
391.742
387.652
383.067
377.924
372.288
366.258
359.912
353.243
346.354
339.339
332.305
325.329
318.485
311.827
305.425
299.325
293.593
288.256
283.364
278.932
275.029
271.675
268.934
266.802
265.345
264.529
264.372
264.733
265.532
266.49
267.449
268.054
268.175
267.52
266.143
263.891
260.955
257.273
253.109
248.487
243.659
238.666
233.651
228.667
223.75
218.974
214.285
209.78
205.305
201.06
196.795
192.911
188.929
185.354
181.606
178.026
174.539
170.75
167.801
164.266
162.712
160.721
161.46
161.606
164.36
166.598
171.018
175.17
180.739
184.281
189.391
385.162
384.671
384.95
386.676
390.145
395.271
401.935
409.779
418.512
427.473
436.196
444.389
451.811
458.371
463.968
468.641
472.381
475.278
477.324
478.619
479.133
478.931
478.005
476.39
474.075
471.099
467.491
463.23
458.377
452.938
446.938
440.453
433.512
426.201
418.686
410.905
403.007
395.088
387.199
379.404
371.753
364.297
357.069
350.131
343.532
337.345
331.613
326.398
321.738
317.718
314.375
311.766
309.878
308.74
308.283
308.441
308.983
309.701
310.223
310.289
309.534
307.886
305.209
301.659
297.228
292.199
286.611
280.772
274.736
268.756
262.832
257.109
251.554
246.171
240.949
235.893
231.02
226.268
221.719
217.261
213.141
209.084
205.389
201.72
198.211
195.006
191.57
189.275
186.583
186.487
186.036
189.137
191.243
196.896
201.162
208.392
213.98
220.653
224.143
228.246
455.499
455.358
456.069
458.392
462.701
468.938
476.908
486.298
496.616
507.457
518.195
528.451
537.88
546.175
553.141
558.689
562.754
565.397
566.583
566.459
564.953
562.264
558.412
553.519
547.714
541.138
533.966
526.293
518.282
509.946
501.478
492.872
484.306
475.726
467.151
458.577
450.159
441.924
433.872
426.029
418.437
411.119
404.078
397.353
390.995
385.079
379.662
374.807
370.574
367.052
364.282
362.291
361.033
360.472
360.477
360.869
361.32
361.498
360.968
359.437
356.686
352.792
347.798
341.957
335.401
328.465
321.269
314.103
307.04
300.277
293.803
287.675
281.789
276.108
270.635
265.359
260.31
255.388
250.701
246.139
241.977
237.975
234.414
230.994
227.873
225.209
222.629
221.487
220.493
222.656
224.774
231.036
235.868
244.988
251.38
261.374
267.097
274.038
275.867
278.58
547.075
547.433
548.855
552.29
558.283
566.781
577.615
590.327
604.366
618.991
633.377
646.845
658.776
668.531
675.878
680.571
682.643
682.15
679.294
674.339
667.48
659.143
649.536
638.993
627.863
616.349
604.713
593.114
581.661
570.51
559.755
549.411
539.542
530.138
521.096
512.476
504.198
496.225
488.536
481.135
474.096
467.414
461.04
455.008
449.392
444.275
439.727
435.811
432.592
430.141
428.474
427.546
427.24
427.417
427.857
428.257
428.198
427.256
425.013
421.307
416.175
409.835
402.5
394.488
386.049
377.508
369.049
360.913
353.183
345.972
339.221
332.853
326.792
320.959
315.411
310.048
304.975
299.981
295.304
290.747
286.754
282.998
279.89
276.998
274.701
273.043
272.088
272.946
274.895
280.389
286.31
296.4
304.583
317.257
325.23
336.938
340.713
347.042
345.499
347.507
688.254
689.31
691.754
696.934
705.673
717.958
733.506
751.505
771.079
790.662
809.186
825.131
837.588
845.681
849.317
848.33
843.242
834.443
822.745
808.752
793.176
776.639
759.608
742.582
725.901
709.667
694.172
679.37
665.352
652.264
639.996
628.612
618.038
608.243
599.163
590.764
582.904
575.51
568.525
561.916
555.757
550.056
544.703
539.725
535.236
531.344
528.127
525.638
523.921
522.993
522.797
523.171
523.872
524.636
525.146
524.993
523.702
520.836
516.181
509.842
502.091
493.251
483.671
473.691
463.644
453.816
444.408
435.595
427.509
420.077
413.185
406.704
400.657
394.855
389.424
384.144
379.225
374.321
369.853
365.526
362.026
358.897
356.747
354.939
354.185
354.424
356.366
360.679
367.263
377.336
388.165
402.185
413.904
429.057
437.003
448.237
447.804
453.061
446.756
450.063
930.648
932.683
936.612
944.581
957.808
976.168
998.644
1023.68
1049.14
1072.47
1092.01
1105.18
1111.24
1109.63
1101.09
1086.22
1066.69
1043.58
1018.47
992.42
966.396
941.076
916.737
893.851
872.431
852.53
834.343
817.521
802.221
788.221
775.463
763.857
753.298
743.727
735.114
727.326
720.248
713.804
707.904
702.488
697.583
693.245
689.328
685.806
682.88
680.689
679.305
678.734
678.947
679.849
681.25
682.823
684.164
684.878
684.594
682.858
679.209
673.414
665.666
656.306
645.762
634.431
622.754
611.033
599.642
588.833
578.847
569.76
561.561
554.04
547.2
540.907
535.209
529.788
524.83
520.008
515.605
511.193
507.36
503.844
501.484
499.831
499.584
500.033
502.138
505.917
512.791
522.672
535.687
551.109
566.824
583.89
597.958
612.556
617.9
625.707
619.71
624.088
612.227
620.323
1406.24