/*--------------------------------*- C++ -*----------------------------------*\
| =========                 |                                                 |
| \\      /  F ield         | OpenFOAM: The Open Source CFD Toolbox           |
|  \\    /   O peration     | Version:  v2012                                 |
|   \\  /    A nd           | Website:  www.openfoam.com                      |
|    \\/     M anipulation  |                                                 |
\*---------------------------------------------------------------------------*/
FoamFile
{
    version     2.0;
    format      ascii;
    class       volScalarField;
    location    "0.214";
    object      p;
}
// * * * * * * * * * * * * * * * * * * * * * * * * * * * * * * * * * * * * * //

dimensions      [0 2 -2 0 0 0 0];


internalField   nonuniform List<scalar> 
1900
(
-299.623
-300.723
-301.623
-302.284
-302.96
-303.727
-304.533
-305.362
-305.974
-306.578
-300.077
-300.877
-301.704
-302.38
-303.061
-303.822
-304.632
-305.47
-306.23
-307.05
-300.364
-300.928
-301.696
-302.409
-303.106
-303.868
-304.693
-305.577
-306.47
-307.715
-300.547
-300.991
-301.726
-302.468
-303.178
-303.941
-304.785
-305.709
-306.722
-308.095
-300.645
-301.039
-301.754
-302.506
-303.221
-303.987
-304.848
-305.808
-306.889
-308.277
-300.662
-301.061
-301.781
-302.536
-303.254
-304.027
-304.904
-305.889
-307.004
-308.372
-300.597
-301.057
-301.807
-302.558
-303.277
-304.061
-304.952
-305.952
-307.079
-308.403
-300.445
-301.036
-301.83
-302.557
-303.27
-304.066
-304.969
-305.98
-307.11
-308.391
-300.189
-301.03
-301.891
-302.58
-303.277
-304.078
-304.985
-305.996
-307.118
-308.36
-299.755
-300.929
-301.881
-302.562
-303.26
-304.074
-304.992
-306.009
-307.135
-308.357
-305.92
-318.28
-337.563
-339.208
-320.079
-286.053
-243.019
-198.247
-157.319
-122.524
-94.186
-71.7687
-54.2907
-40.7402
-30.1927
-21.8593
-15.2036
-9.85818
-5.5152
-1.9109
1.11876
3.65932
5.79684
7.62386
9.21077
10.5856
11.7612
12.7794
13.6669
14.4433
15.1205
15.705
16.2065
16.6332
16.9925
17.2967
17.5527
17.7618
17.927
18.0527
18.1448
18.2074
18.2413
18.2479
18.2275
18.1823
18.116
18.0315
17.93
17.8114
17.6754
17.5225
17.355
17.1749
16.983
16.7799
16.5653
16.339
16.1016
15.8546
15.5987
15.3345
15.0618
14.7802
14.4899
14.191
13.8847
13.5711
13.2502
12.9221
12.5866
12.2442
11.8948
11.5388
11.1762
10.8072
10.4318
10.05
9.66196
9.26796
8.86788
8.46213
8.05044
7.63316
7.21012
6.78157
6.34747
5.90802
5.46329
5.01343
4.55855
4.09883
3.63414
3.16499
2.69015
2.21245
1.72484
1.24264
0.733534
0.279208
-309.337
-321.606
-333.413
-332.127
-313.079
-280.334
-239.751
-197.441
-158.319
-124.588
-96.6769
-74.2491
-56.5561
-42.6881
-31.7947
-23.1401
-16.2151
-10.6483
-6.12001
-2.37097
0.752692
3.35784
5.55576
7.43753
9.0612
10.4616
11.6579
12.6919
13.5903
14.3733
15.0538
15.64
16.1386
16.5619
16.9242
17.2332
17.4931
17.7058
17.8743
18.0034
18.099
18.1649
18.2006
18.208
18.1881
18.1434
18.0775
17.994
17.8937
17.7761
17.6406
17.488
17.3211
17.1415
16.95
16.7472
16.5332
16.3073
16.0703
15.8236
15.568
15.3041
15.0317
14.7503
14.46
14.1614
13.8553
13.5419
13.2212
12.8931
12.5579
12.2154
11.8662
11.5102
11.1477
10.7788
10.4033
10.0215
9.63352
9.23946
8.83937
8.43355
8.02182
7.60447
7.18139
6.75281
6.3187
5.87927
5.43458
4.98481
4.53009
4.07059
3.60638
3.13769
2.66451
2.18742
1.70545
1.22185
0.72955
0.251891
-310.271
-317.92
-326.263
-324.073
-306.103
-275.372
-237.27
-197.13
-159.466
-126.59
-99.012
-76.5664
-58.6761
-44.5312
-33.3374
-24.4154
-17.2733
-11.5248
-6.839
-2.96204
0.261362
2.94791
5.22165
7.17417
8.85171
10.2878
11.5153
12.5792
13.5029
14.3018
14.9907
15.583
16.0856
16.5106
16.8764
17.1885
17.4501
17.6639
17.8329
17.9625
18.0576
18.1215
18.1563
18.1638
18.1446
18.101
18.0369
17.9551
17.8563
17.7404
17.6063
17.4551
17.2895
17.1108
16.92
16.7173
16.5026
16.2763
16.0395
15.7931
15.5377
15.2739
15.0019
14.7208
14.4307
14.1325
13.8267
13.5135
13.1931
12.865
12.5299
12.1875
11.8384
11.4825
11.12
10.751
10.3755
9.9937
9.60567
9.21156
8.81141
8.40548
7.99369
7.57624
7.15311
6.72447
6.29035
5.8509
5.40626
4.95656
4.502
4.0427
3.57899
3.11076
2.63927
2.1629
1.68653
1.20186
0.727117
0.223766
-310.493
-316.295
-321.94
-318.558
-301.09
-271.666
-235.203
-196.61
-160.103
-127.983
-100.759
-78.3685
-60.3605
-46.0124
-34.5844
-25.4481
-18.1261
-12.2216
-7.40115
-3.42078
-0.12096
2.6261
4.94714
6.93465
8.63709
10.0897
11.3309
12.4078
13.3482
14.1608
14.8611
15.4646
15.983
16.4274
16.8083
17.1311
17.4013
17.6221
17.797
17.9312
18.0282
18.0914
18.1261
18.1342
18.1152
18.0717
18.0079
17.9262
17.8265
17.7088
17.5734
17.4223
17.2575
17.0792
16.8891
16.6868
16.4717
16.2453
16.009
15.7634
15.5088
15.245
14.9723
14.6908
14.4009
14.1031
13.7978
13.4847
13.1644
12.8365
12.5015
12.1592
11.8101
11.4543
11.0918
10.7228
10.3472
9.96534
9.5772
9.18302
8.78277
8.37671
7.96479
7.54723
7.12405
6.69534
6.26123
5.82176
5.3772
4.92756
4.4732
4.01411
3.5509
3.08316
2.61337
2.13775
1.66709
1.18109
0.723995
0.196001
-310.518
-314.805
-318.112
-313.455
-296.276
-267.995
-233.033
-195.922
-160.557
-129.165
-102.289
-79.9698
-61.8678
-47.3432
-35.7134
-26.3909
-18.9091
-12.8656
-7.92258
-3.84561
-0.477212
2.32606
4.69716
6.72502
8.45605
9.92911
11.1896
12.2832
13.2378
14.0625
14.7705
15.3771
15.8961
16.3443
16.7285
17.0516
17.3218
17.5443
17.7217
17.8593
17.9612
18.0304
18.071
18.0847
18.0715
18.0338
17.9748
17.8966
17.7987
17.6815
17.5472
17.3975
17.2336
17.0556
16.8658
16.6635
16.4483
16.2218
15.9854
15.7397
15.4849
15.2204
14.9462
14.6635
14.3732
14.0751
13.7694
13.4559
13.1351
12.8066
12.4713
12.1288
11.7795
11.4235
11.0608
10.6916
10.3159
9.93395
9.54576
9.15157
8.75146
8.34549
7.93363
7.51608
7.09296
6.66428
6.23027
5.79087
5.34647
4.89697
4.44287
3.98406
3.52138
3.0542
2.58603
2.11132
1.6459
1.15932
0.718408
0.171099
-310.4
-313.509
-315.042
-309.398
-292.508
-265.228
-231.494
-195.546
-161.048
-130.184
-103.559
-81.2884
-63.106
-48.4295
-36.6325
-27.1639
-19.5519
-13.389
-8.34632
-4.1961
-0.774486
2.07603
4.49154
6.55143
8.30138
9.78883
11.0656
12.1744
13.1377
13.969
14.6818
15.2931
15.8186
16.2733
16.6634
16.9913
17.2629
17.4861
17.6667
17.8082
17.9135
17.984
18.0227
18.0341
18.0203
17.9827
17.9239
17.8452
17.7469
17.6301
17.4969
17.349
17.1871
17.0114
16.8233
16.6226
16.4093
16.1846
15.9498
15.7052
15.4512
15.1875
14.914
14.632
14.3419
14.0438
13.7378
13.4239
13.1028
12.7737
12.438
12.0951
11.7456
11.3894
11.0265
10.6571
10.2815
9.89948
9.51143
9.11732
8.71734
8.31138
7.89964
7.48217
7.05921
6.63066
6.19682
5.75758
5.31338
4.8641
4.41031
3.95186
3.48972
3.02319
2.55648
2.0829
1.62173
1.13607
0.707818
0.152309
-310.211
-312.446
-312.668
-306.232
-289.501
-262.955
-230.135
-195.076
-161.267
-130.843
-104.468
-82.2756
-64.0524
-49.2779
-37.3668
-27.7934
-20.0829
-13.8201
-8.69731
-4.49774
-1.03561
1.86233
4.31846
6.3972
8.15691
9.66074
10.9575
12.0794
13.0478
13.8812
14.601
15.2215
15.753
16.2116
16.6034
16.9329
17.2086
17.4347
17.6165
17.7599
17.8668
17.9386
17.9786
17.9912
17.9793
17.9442
17.887
17.8089
17.7107
17.5944
17.4616
17.3138
17.1513
16.9748
16.7852
16.5831
16.369
16.1435
15.9077
15.6621
15.4073
15.1431
14.8694
14.5872
14.2969
13.9989
13.6932
13.3798
13.059
12.7306
12.3956
12.0533
11.7044
11.3487
10.9865
10.6176
10.2425
9.86087
9.47338
9.07965
8.68001
8.27431
7.86292
7.44585
7.02323
6.59507
6.16157
5.72268
5.27881
4.82988
4.37646
3.91842
3.45684
2.991
2.52544
2.05316
1.59469
1.11178
0.690374
0.143277
-310.014
-311.622
-310.914
-303.872
-287.218
-261.199
-229.052
-194.665
-161.387
-131.315
-105.16
-83.0527
-64.8023
-49.9577
-37.9771
-28.3244
-20.5196
-14.1774
-9.00615
-4.76487
-1.25002
1.69195
4.16675
6.25487
8.0332
9.56037
10.8716
11.9953
12.9649
13.8067
14.5371
15.1636
15.6959
16.1531
16.5474
16.8823
17.1615
17.3881
17.5691
17.7126
17.8216
17.8961
17.9372
17.9495
17.9373
17.9025
17.8455
17.7673
17.669
17.5527
17.4199
17.2719
17.1091
16.9324
16.7426
16.5407
16.3269
16.1016
15.8654
15.6195
15.3642
15.0997
14.8259
14.5433
14.2525
13.9539
13.6477
13.3339
13.0126
12.684
12.3486
12.006
11.6568
11.301
10.9388
10.5698
10.1948
9.81332
9.42602
9.03263
8.63333
8.22815
7.81733
7.4009
6.9789
6.55142
6.11858
5.68037
5.23712
4.78881
4.33596
3.87849
3.41755
2.95243
2.48776
2.01697
1.55964
1.08118
0.660177
0.138641
-309.857
-311.037
-309.718
-302.258
-285.629
-259.948
-228.242
-194.298
-161.364
-131.532
-105.534
-83.4783
-65.2199
-50.3509
-38.328
-28.6186
-20.7644
-14.3907
-9.19222
-4.92106
-1.37777
1.58276
4.06631
6.16395
7.95276
9.48687
10.801
11.9271
12.9005
13.7469
14.4803
15.1081
15.6417
16.1008
16.4977
16.8349
17.1151
17.3423
17.5243
17.6691
17.7798
17.8556
17.8973
17.9099
17.8984
17.8647
17.8087
17.7312
17.6335
17.5178
17.3858
17.2384
17.0762
16.9
16.7105
16.5089
16.2955
16.0704
15.8344
15.5886
15.3337
15.0696
14.7963
14.5141
14.2237
13.9257
13.6202
13.307
12.9865
12.6586
12.3243
11.9823
11.6335
11.2782
10.9165
10.5482
10.1736
9.79254
9.40551
9.01236
8.61319
8.20795
7.79707
7.38056
6.95853
6.53099
6.09813
5.65987
5.21661
4.76827
4.31544
3.85808
3.39727
2.93227
2.46759
1.99757
1.53981
1.06573
0.639706
0.148964
-309.799
-310.777
-309.167
-301.515
-284.923
-259.448
-228.001
-194.311
-161.573
-131.867
-105.939
-83.902
-65.629
-50.7245
-38.6584
-28.9107
-21.0243
-14.6204
-9.3941
-5.10136
-1.54042
1.44225
3.94292
6.05142
7.84563
9.38431
10.7046
11.8361
12.8119
13.6597
14.3953
15.0259
15.5622
16.0228
16.4208
16.7595
17.0413
17.27
17.4531
17.5988
17.7104
17.7872
17.83
17.8434
17.8327
17.7997
17.7444
17.6674
17.5703
17.4552
17.3237
17.1768
17.0151
16.8393
16.6504
16.4492
16.2363
16.0117
15.7763
15.5309
15.2763
15.0126
14.7397
14.4578
14.1677
13.8697
13.5644
13.2513
12.9308
12.6028
12.2683
11.9273
11.5789
11.2237
10.8621
10.4939
10.1195
9.73874
9.3519
8.95902
8.5602
8.15556
7.74495
7.32865
6.90681
6.47941
6.04663
5.60842
5.16521
4.71687
4.26413
3.80678
3.34619
2.88159
2.41694
1.94792
1.48893
1.0201
0.591365
0.112924
-314.074
-315.343
-316.519
-316.764
-316.246
-314.977
-313.67
-313.762
-333.208
-334.725
-335.671
-336.006
-335.684
-334.97
-334.107
-333.758
-348.321
-351.158
-352.674
-353.24
-353.129
-352.82
-352.512
-352.172
-346.898
-350.263
-352.116
-352.862
-352.69
-352.175
-351.696
-351.058
-325.752
-328.652
-330.388
-330.946
-330.606
-329.869
-329.085
-328.157
-289.994
-292.05
-293.342
-293.795
-293.469
-292.521
-291.109
-289.508
-244.964
-246.037
-246.888
-247.289
-247.031
-246.003
-244.218
-242.159
-198.429
-198.46
-198.714
-198.928
-198.65
-197.568
-195.617
-193.374
-156.291
-155.595
-155.333
-155.238
-154.835
-153.719
-151.764
-149.557
-120.782
-119.66
-119.114
-118.842
-118.353
-117.25
-115.403
-113.36
-92.2249
-90.9984
-90.3509
-89.9564
-89.3949
-88.3507
-86.6766
-84.8507
-69.8914
-68.7381
-68.1006
-67.6356
-67.0343
-66.0741
-64.5996
-63.0153
-52.6332
-51.6236
-51.036
-50.571
-49.991
-49.1273
-47.8492
-46.4877
-39.3635
-38.5272
-38.0233
-37.593
-37.0584
-36.2985
-35.21
-34.0563
-29.0934
-28.4121
-27.9674
-27.5685
-27.093
-26.4373
-25.5159
-24.5393
-21.016
-20.4763
-20.0733
-19.6939
-19.2772
-18.7178
-17.9387
-17.0962
-14.5691
-14.1456
-13.7957
-13.4536
-13.0897
-12.6108
-11.9501
-11.1931
-9.38206
-9.04815
-8.75289
-8.45657
-8.13868
-7.72613
-7.16415
-6.48617
-5.15684
-4.89076
-4.64282
-4.38825
-4.11047
-3.75163
-3.26877
-2.68029
-1.63846
-1.42713
-1.22077
-1.00456
-0.763143
-0.449591
-0.0297408
0.481248
1.33821
1.50961
1.68471
1.86591
2.07346
2.34702
2.714
3.16047
3.84737
3.99246
4.14648
4.30231
4.48338
4.72427
5.04761
5.44091
5.95784
6.08191
6.21718
6.35582
6.51913
6.7359
7.02482
7.37523
7.761
7.86791
7.9856
8.10933
8.25755
8.4541
8.71441
9.02947
9.32885
9.42118
9.52458
9.63545
9.77001
9.94852
10.184
10.469
10.6954
10.7815
10.8716
10.9708
11.0934
11.2563
11.4703
11.7293
11.8694
11.956
12.0389
12.1293
12.2419
12.3913
12.5867
12.8233
12.8776
12.9581
13.0352
13.1202
13.2259
13.3649
13.545
13.7628
13.7546
13.8276
13.8983
13.9777
14.0767
14.2064
14.373
14.5745
14.5213
14.5877
14.6531
14.7274
14.8205
14.9416
15.0962
15.2833
15.1904
15.2513
15.3123
15.3824
15.4702
15.5838
15.7277
15.902
15.7681
15.8241
15.8818
15.9485
16.0319
16.139
16.2733
16.4362
16.2658
16.317
16.371
16.4342
16.5134
16.6144
16.7401
16.8928
16.6896
16.7368
16.7876
16.8476
16.9229
17.0185
17.1365
17.2802
17.0458
17.0906
17.1393
17.197
17.2691
17.3601
17.4714
17.607
17.3472
17.3901
17.4369
17.4924
17.5616
17.6483
17.7534
17.8818
17.6008
17.6418
17.6868
17.7402
17.8066
17.8893
17.9888
18.1105
17.8079
17.8477
17.8913
17.9428
18.0068
18.0859
18.1802
18.296
17.9715
18.0101
18.0525
18.1025
18.1642
18.2402
18.3298
18.4401
18.0956
18.133
18.1743
18.2229
18.2827
18.3557
18.4411
18.5465
18.1858
18.222
18.2621
18.3093
18.3672
18.4375
18.519
18.6199
18.2463
18.2812
18.3201
18.3659
18.422
18.4897
18.5675
18.6644
18.2789
18.3127
18.3503
18.3949
18.4493
18.5146
18.5891
18.6822
18.2844
18.3173
18.3541
18.3976
18.4505
18.5136
18.585
18.6746
18.2633
18.2957
18.332
18.3745
18.4261
18.4872
18.5558
18.6422
18.2175
18.2494
18.2851
18.3269
18.3773
18.4367
18.5027
18.5862
18.1507
18.1819
18.2168
18.2577
18.307
18.3646
18.4282
18.509
18.0653
18.0959
18.1301
18.1702
18.2183
18.2743
18.3356
18.4139
17.9629
17.9929
18.0266
18.0659
18.1129
18.1674
18.2265
18.3025
17.8437
17.8734
17.9065
17.9451
17.9911
18.0441
18.1012
18.175
17.7073
17.7365
17.7692
17.8072
17.8523
17.9039
17.9592
18.031
17.5541
17.583
17.6153
17.6528
17.697
17.7475
17.801
17.871
17.3862
17.4148
17.4467
17.4837
17.5272
17.5765
17.6284
17.6967
17.2057
17.234
17.2655
17.3019
17.3447
17.3929
17.4433
17.51
17.0135
17.0414
17.0725
17.1085
17.1505
17.1977
17.2467
17.3118
16.81
16.8376
16.8684
16.9038
16.9451
16.9913
17.0389
17.1026
16.595
16.6223
16.6527
16.6877
16.7283
16.7735
16.8198
16.8822
16.3684
16.3955
16.4256
16.4601
16.5001
16.5445
16.5895
16.6507
16.1308
16.1576
16.1875
16.2217
16.2611
16.3046
16.3486
16.4086
15.8835
15.9102
15.9398
15.9735
16.0124
16.0551
16.098
16.1569
15.6274
15.6538
15.6831
15.7165
15.7548
15.7968
15.8386
15.8965
15.3629
15.3891
15.4182
15.4512
15.4889
15.5302
15.571
15.6279
15.09
15.1159
15.1446
15.1772
15.2144
15.255
15.2949
15.3509
14.8082
14.8339
14.8624
14.8946
14.9313
14.9712
15.0102
15.0653
14.5176
14.5431
14.5713
14.6032
14.6395
14.6788
14.717
14.7713
14.2186
14.244
14.2721
14.3037
14.3395
14.3783
14.4156
14.4692
13.9121
13.9373
13.9652
13.9965
14.032
14.0702
14.1068
14.1597
13.5984
13.6235
13.6511
13.6822
13.7172
13.7548
13.7907
13.8429
13.2774
13.3023
13.3297
13.3606
13.3952
13.4323
13.4676
13.5191
12.9491
12.9739
13.0012
13.0317
13.066
13.1026
13.1372
13.1881
12.6135
12.6382
12.6653
12.6957
12.7296
12.7658
12.7998
12.8502
12.271
12.2956
12.3225
12.3526
12.3862
12.422
12.4553
12.5052
11.9215
11.946
11.9728
12.0027
12.036
12.0714
12.1042
12.1536
11.5654
11.5898
11.6165
11.6462
11.6792
11.7141
11.7464
11.7953
11.2028
11.2271
11.2537
11.2832
11.3159
11.3505
11.3823
11.4308
10.8338
10.858
10.8845
10.9138
10.9462
10.9805
11.0118
11.0598
10.4583
10.4825
10.5089
10.5381
10.5702
10.6041
10.635
10.6826
10.0765
10.1006
10.1269
10.1559
10.1878
10.2214
10.2518
10.299
9.68843
9.71255
9.73877
9.76762
9.79932
9.83259
9.86257
9.90945
9.29442
9.31848
9.34459
9.37327
9.40471
9.43763
9.46717
9.51368
8.89436
8.91841
8.94446
8.97303
9.00427
9.03693
9.0661
9.11229
8.48861
8.51263
8.53859
8.567
8.59799
8.63033
8.6591
8.70494
8.07694
8.10095
8.12687
8.15517
8.18599
8.21811
8.24656
8.29213
7.65968
7.68368
7.70953
7.7377
7.76831
7.80017
7.82833
7.87367
7.23666
7.26064
7.28646
7.31453
7.34497
7.37663
7.40487
7.45067
6.80811
6.83206
6.85779
6.88573
6.91596
6.9473
6.97536
7.02126
6.37399
6.39789
6.42355
6.45136
6.48141
6.51251
6.54029
6.58595
5.9345
5.95834
5.98391
6.01158
6.04144
6.07231
6.09981
6.14522
5.4897
5.51346
5.5389
5.56641
5.59604
5.62666
5.65383
5.69891
5.03974
5.06341
5.08873
5.11609
5.14553
5.17595
5.20287
5.24774
4.58469
4.60819
4.63332
4.66042
4.68956
4.71965
4.74618
4.79063
4.12478
4.14812
4.17307
4.19999
4.22892
4.25881
4.28516
4.32951
3.65966
3.68263
3.70721
3.73374
3.76227
3.79178
3.8177
3.86165
3.19013
3.21278
3.23703
3.26321
3.29136
3.32052
3.34611
3.38982
2.71391
2.73548
2.75878
2.78414
2.81164
2.84032
2.86561
2.9092
2.23574
2.25687
2.27966
2.30443
2.33125
2.35925
2.38392
2.42683
1.74348
1.76112
1.78104
1.8036
1.82891
1.85614
1.88072
1.92465
1.26279
1.28123
1.30121
1.3231
1.34703
1.37227
1.39484
1.43516
0.739324
0.746894
0.757984
0.773178
0.792874
0.815956
0.834902
0.883321
0.302164
0.32022
0.336607
0.35174
0.366661
0.383732
0.400924
0.376905
)
;

boundaryField
{
    frontAndBack
    {
        type            empty;
    }
    inlet
    {
        type            zeroGradient;
    }
    outlet
    {
        type            fixedValue;
        value           uniform 0;
    }
    walls
    {
        type            zeroGradient;
    }
}


// ************************************************************************* //
