/*--------------------------------*- C++ -*----------------------------------*\
| =========                 |                                                 |
| \\      /  F ield         | OpenFOAM: The Open Source CFD Toolbox           |
|  \\    /   O peration     | Version:  v2012                                 |
|   \\  /    A nd           | Website:  www.openfoam.com                      |
|    \\/     M anipulation  |                                                 |
\*---------------------------------------------------------------------------*/
FoamFile
{
    version     2.0;
    format      ascii;
    class       volVectorField;
    location    "0.071";
    object      U.air;
}
// * * * * * * * * * * * * * * * * * * * * * * * * * * * * * * * * * * * * * //

dimensions      [0 1 -1 0 0 0 0];


internalField   nonuniform List<vector> 
1900
(
(39.9676 0.00859688 0)
(39.9239 0.015103 0)
(39.8679 0.0180588 0)
(39.8035 0.0207993 0)
(39.73 0.0237062 0)
(39.6526 0.0267683 0)
(39.5681 0.0297565 0)
(39.4712 0.034433 0)
(39.3801 0.0347839 0)
(39.2118 0.073503 0)
(40.0053 0.0147927 0)
(40.0212 0.0233975 0)
(40.0401 0.0257182 0)
(40.0561 0.0277458 0)
(40.0726 0.0304775 0)
(40.0898 0.0329399 0)
(40.1095 0.0364838 0)
(40.1257 0.0385578 0)
(40.1466 0.0533817 0)
(40.1568 0.0585716 0)
(40.0029 0.00824745 0)
(40.0161 0.0135856 0)
(40.0335 0.0137912 0)
(40.051 0.0145443 0)
(40.0688 0.0163129 0)
(40.0879 0.0182043 0)
(40.1087 0.0208556 0)
(40.1299 0.024805 0)
(40.1543 0.0350813 0)
(40.1844 0.0529455 0)
(40.0018 0.00414496 0)
(40.0132 0.00782145 0)
(40.0301 0.00860527 0)
(40.0479 0.00970547 0)
(40.066 0.0114323 0)
(40.0852 0.0132518 0)
(40.1064 0.0158683 0)
(40.1291 0.0197455 0)
(40.1561 0.0288802 0)
(40.1894 0.0416247 0)
(40.0015 0.001112 0)
(40.012 0.00211927 0)
(40.0285 0.00232728 0)
(40.0464 0.0026624 0)
(40.0645 0.00325309 0)
(40.084 0.00405072 0)
(40.1056 0.00562476 0)
(40.1294 0.00842126 0)
(40.1575 0.0146682 0)
(40.1918 0.0210544 0)
(40.0016 -0.00180292 0)
(40.0122 -0.00371606 0)
(40.0288 -0.00416326 0)
(40.0468 -0.00431399 0)
(40.065 -0.0043608 0)
(40.0846 -0.00401592 0)
(40.1066 -0.00289512 0)
(40.1311 -0.000789722 0)
(40.1597 0.00317612 0)
(40.1936 0.00640825 0)
(40.0019 -0.00486279 0)
(40.0136 -0.00947527 0)
(40.0308 -0.0105123 0)
(40.0489 -0.0114613 0)
(40.0672 -0.0126727 0)
(40.0871 -0.0134371 0)
(40.1094 -0.0134428 0)
(40.1344 -0.0127054 0)
(40.163 -0.0110203 0)
(40.1957 -0.0104531 0)
(40.0032 -0.00926928 0)
(40.0168 -0.0153327 0)
(40.0348 -0.0157394 0)
(40.0527 -0.016477 0)
(40.0709 -0.01804 0)
(40.0911 -0.0194037 0)
(40.1136 -0.0202815 0)
(40.1388 -0.020797 0)
(40.1672 -0.0210301 0)
(40.1987 -0.0225688 0)
(40.0057 -0.0162088 0)
(40.0223 -0.0253699 0)
(40.042 -0.0274341 0)
(40.0582 -0.0288787 0)
(40.0751 -0.0308085 0)
(40.0938 -0.0324197 0)
(40.1145 -0.0335734 0)
(40.1374 -0.0344434 0)
(40.1628 -0.0352272 0)
(40.1893 -0.0366674 0)
(39.9675 -0.0101413 0)
(39.9214 -0.0185951 0)
(39.8645 -0.0229106 0)
(39.797 -0.0265887 0)
(39.7223 -0.0303253 0)
(39.6428 -0.0339089 0)
(39.5582 -0.0373399 0)
(39.4686 -0.0407417 0)
(39.3739 -0.044104 0)
(39.2741 -0.0480425 0)
(39.1724 -0.0392827 0)
(38.0177 -0.354715 0)
(36.4706 -0.795032 0)
(34.9649 -1.35455 0)
(33.8571 -1.88882 0)
(33.1084 -2.33222 0)
(32.5393 -2.60363 0)
(32.0827 -2.66918 0)
(31.6443 -2.56939 0)
(31.2128 -2.34932 0)
(30.7876 -2.07035 0)
(30.3636 -1.77904 0)
(29.9527 -1.50881 0)
(29.5494 -1.27254 0)
(29.157 -1.07566 0)
(28.7771 -0.916043 0)
(28.4117 -0.788762 0)
(28.0652 -0.688329 0)
(27.741 -0.608957 0)
(27.4414 -0.545811 0)
(27.1681 -0.495191 0)
(26.9189 -0.453168 0)
(26.6954 -0.417394 0)
(26.4941 -0.38643 0)
(26.3176 -0.359817 0)
(26.16 -0.336043 0)
(26.0255 -0.314845 0)
(25.9103 -0.295996 0)
(25.8116 -0.279205 0)
(25.7267 -0.264147 0)
(25.654 -0.250622 0)
(25.5906 -0.238318 0)
(25.5363 -0.227194 0)
(25.4877 -0.216786 0)
(25.4449 -0.207135 0)
(25.4077 -0.198251 0)
(25.3756 -0.190054 0)
(25.348 -0.182462 0)
(25.325 -0.175489 0)
(25.3059 -0.169027 0)
(25.2906 -0.163066 0)
(25.2788 -0.157552 0)
(25.2698 -0.152364 0)
(25.2632 -0.147388 0)
(25.2586 -0.142666 0)
(25.2558 -0.138195 0)
(25.2548 -0.134002 0)
(25.2553 -0.129997 0)
(25.2572 -0.126178 0)
(25.2606 -0.122597 0)
(25.2653 -0.119241 0)
(25.2712 -0.11606 0)
(25.2783 -0.113022 0)
(25.2864 -0.11011 0)
(25.2956 -0.107325 0)
(25.3057 -0.104688 0)
(25.3166 -0.102225 0)
(25.3283 -0.0999003 0)
(25.3406 -0.097667 0)
(25.3535 -0.0955053 0)
(25.367 -0.0934302 0)
(25.3809 -0.0914359 0)
(25.3952 -0.0895411 0)
(25.41 -0.0877209 0)
(25.425 -0.0859828 0)
(25.4405 -0.0843183 0)
(25.4562 -0.0827345 0)
(25.4721 -0.0812136 0)
(25.4882 -0.0797592 0)
(25.5045 -0.0783518 0)
(25.5209 -0.0769897 0)
(25.5375 -0.0756662 0)
(25.5541 -0.0743875 0)
(25.5709 -0.0731408 0)
(25.5876 -0.0719252 0)
(25.6043 -0.0707284 0)
(25.621 -0.0695464 0)
(25.6377 -0.0683673 0)
(25.6541 -0.0671987 0)
(25.6706 -0.0660245 0)
(25.6867 -0.0648868 0)
(25.7028 -0.0637769 0)
(25.7185 -0.0627299 0)
(25.7342 -0.061723 0)
(25.7496 -0.0607851 0)
(25.7649 -0.0598985 0)
(25.78 -0.0590953 0)
(25.795 -0.0583492 0)
(25.8098 -0.0576711 0)
(25.8246 -0.057031 0)
(25.8391 -0.0564359 0)
(25.8537 -0.0558562 0)
(25.868 -0.0553543 0)
(25.8824 -0.0548517 0)
(25.8963 -0.0545889 0)
(25.9107 -0.054259 0)
(25.9238 -0.0547861 0)
(25.9391 -0.0548837 0)
(25.9497 -0.0574359 0)
(25.9709 -0.0582208 0)
(40.259 0.20537 0)
(40.4989 0.295872 0)
(40.6487 -0.0460571 0)
(40.4722 -0.668259 0)
(39.9271 -1.3308 0)
(39.098 -1.89412 0)
(38.1064 -2.25376 0)
(37.0578 -2.38373 0)
(36.0569 -2.32246 0)
(35.1528 -2.13292 0)
(34.3672 -1.87969 0)
(33.6981 -1.61225 0)
(33.136 -1.36124 0)
(32.6574 -1.14044 0)
(32.242 -0.954858 0)
(31.8695 -0.80317 0)
(31.5232 -0.681273 0)
(31.1913 -0.58422 0)
(30.8662 -0.507305 0)
(30.5452 -0.446607 0)
(30.2272 -0.398375 0)
(29.9189 -0.360083 0)
(29.624 -0.329863 0)
(29.3424 -0.30574 0)
(29.0768 -0.286249 0)
(28.8286 -0.270284 0)
(28.5984 -0.257107 0)
(28.3879 -0.245881 0)
(28.1952 -0.23593 0)
(28.0209 -0.226928 0)
(27.8619 -0.21856 0)
(27.7176 -0.210616 0)
(27.5864 -0.202964 0)
(27.4678 -0.195467 0)
(27.3606 -0.188211 0)
(27.2636 -0.181381 0)
(27.1761 -0.174988 0)
(27.097 -0.169021 0)
(27.0258 -0.163505 0)
(26.9616 -0.158367 0)
(26.9039 -0.153565 0)
(26.8513 -0.149011 0)
(26.8031 -0.14468 0)
(26.7591 -0.140574 0)
(26.719 -0.136676 0)
(26.6826 -0.132969 0)
(26.6498 -0.12945 0)
(26.6202 -0.126114 0)
(26.5936 -0.12295 0)
(26.5699 -0.119986 0)
(26.5488 -0.11721 0)
(26.5301 -0.114564 0)
(26.5138 -0.112028 0)
(26.4995 -0.109572 0)
(26.4872 -0.1072 0)
(26.4768 -0.104949 0)
(26.468 -0.102793 0)
(26.4605 -0.100719 0)
(26.4542 -0.0987254 0)
(26.4491 -0.0967972 0)
(26.4452 -0.0949453 0)
(26.4423 -0.0931518 0)
(26.4404 -0.091462 0)
(26.4395 -0.089833 0)
(26.4393 -0.0882902 0)
(26.4398 -0.0867584 0)
(26.441 -0.0852942 0)
(26.4428 -0.0838855 0)
(26.4451 -0.0825369 0)
(26.448 -0.0812254 0)
(26.4512 -0.0799447 0)
(26.4549 -0.0786874 0)
(26.4588 -0.0774634 0)
(26.463 -0.076266 0)
(26.4675 -0.0750855 0)
(26.472 -0.0739105 0)
(26.4768 -0.0727412 0)
(26.4816 -0.0715605 0)
(26.4864 -0.0703738 0)
(26.4913 -0.0691801 0)
(26.4961 -0.0680126 0)
(26.5009 -0.0668694 0)
(26.5056 -0.0657847 0)
(26.5103 -0.0647438 0)
(26.5149 -0.0637718 0)
(26.5195 -0.0628584 0)
(26.524 -0.0620301 0)
(26.5286 -0.0612652 0)
(26.5331 -0.0605691 0)
(26.5377 -0.0599136 0)
(26.5423 -0.0593037 0)
(26.5469 -0.0587081 0)
(26.5515 -0.0581856 0)
(26.5562 -0.0576522 0)
(26.5606 -0.0573548 0)
(26.5652 -0.0569911 0)
(26.5694 -0.0575003 0)
(26.5739 -0.0575155 0)
(26.5775 -0.0602728 0)
(26.5842 -0.0607786 0)
(40.2699 0.127743 0)
(40.4561 0.0177446 0)
(40.6021 -0.368697 0)
(40.4975 -0.908897 0)
(40.0434 -1.44081 0)
(39.2826 -1.86016 0)
(38.3233 -2.09984 0)
(37.2918 -2.15542 0)
(36.2755 -2.06682 0)
(35.3651 -1.88542 0)
(34.5836 -1.65856 0)
(33.9349 -1.42328 0)
(33.4087 -1.20302 0)
(32.9854 -1.00855 0)
(32.6456 -0.843728 0)
(32.3708 -0.70737 0)
(32.1455 -0.596054 0)
(31.9573 -0.506016 0)
(31.7951 -0.433356 0)
(31.6506 -0.374914 0)
(31.5155 -0.327954 0)
(31.3846 -0.290791 0)
(31.2514 -0.261026 0)
(31.1133 -0.237234 0)
(30.9682 -0.218231 0)
(30.8148 -0.203005 0)
(30.6528 -0.190913 0)
(30.4831 -0.181164 0)
(30.3075 -0.1732 0)
(30.1288 -0.166635 0)
(29.9488 -0.161094 0)
(29.7719 -0.15635 0)
(29.5989 -0.152279 0)
(29.4343 -0.148729 0)
(29.2789 -0.145646 0)
(29.133 -0.142944 0)
(28.9971 -0.140482 0)
(28.871 -0.138198 0)
(28.7541 -0.136027 0)
(28.6459 -0.13387 0)
(28.5455 -0.131736 0)
(28.4521 -0.12951 0)
(28.3653 -0.12705 0)
(28.2846 -0.124453 0)
(28.2096 -0.121868 0)
(28.14 -0.119357 0)
(28.0758 -0.116934 0)
(28.0161 -0.114585 0)
(27.961 -0.112299 0)
(27.9099 -0.110084 0)
(27.8621 -0.107974 0)
(27.8176 -0.105986 0)
(27.7763 -0.104122 0)
(27.738 -0.102336 0)
(27.7025 -0.100627 0)
(27.6697 -0.0990162 0)
(27.6395 -0.0974761 0)
(27.6115 -0.0959641 0)
(27.5856 -0.094476 0)
(27.5618 -0.0930151 0)
(27.5399 -0.0915962 0)
(27.5197 -0.0902058 0)
(27.5011 -0.0888256 0)
(27.4835 -0.0874346 0)
(27.4672 -0.0860962 0)
(27.4517 -0.0848072 0)
(27.4373 -0.0835841 0)
(27.4236 -0.0823846 0)
(27.4109 -0.0812314 0)
(27.3987 -0.0800836 0)
(27.3873 -0.0789552 0)
(27.3762 -0.0778189 0)
(27.3658 -0.0767101 0)
(27.3556 -0.0756063 0)
(27.3459 -0.0745108 0)
(27.3363 -0.0733952 0)
(27.3272 -0.072281 0)
(27.318 -0.0711255 0)
(27.3092 -0.0699632 0)
(27.3003 -0.0687815 0)
(27.2917 -0.0676327 0)
(27.2831 -0.0664896 0)
(27.2747 -0.0654071 0)
(27.2662 -0.0643662 0)
(27.258 -0.0634037 0)
(27.2498 -0.062502 0)
(27.2419 -0.0616946 0)
(27.234 -0.0609496 0)
(27.2264 -0.0602801 0)
(27.2189 -0.0596493 0)
(27.2117 -0.0590678 0)
(27.2045 -0.0584972 0)
(27.1977 -0.0579875 0)
(27.1908 -0.057457 0)
(27.1841 -0.0571471 0)
(27.1773 -0.056776 0)
(27.1709 -0.0572578 0)
(27.1635 -0.0573239 0)
(27.1584 -0.0600332 0)
(27.1482 -0.0605514 0)
(40.2634 0.0673393 0)
(40.4034 0.00417018 0)
(40.4966 -0.262168 0)
(40.3657 -0.678569 0)
(39.9156 -1.11199 0)
(39.179 -1.46758 0)
(38.2537 -1.69379 0)
(37.2568 -1.7779 0)
(36.2695 -1.73966 0)
(35.3811 -1.61387 0)
(34.612 -1.43919 0)
(33.9671 -1.24877 0)
(33.439 -1.06547 0)
(33.0115 -0.900726 0)
(32.6672 -0.759405 0)
(32.3895 -0.641341 0)
(32.1649 -0.544344 0)
(31.9818 -0.465245 0)
(31.832 -0.401063 0)
(31.7081 -0.348934 0)
(31.6049 -0.306713 0)
(31.5178 -0.272318 0)
(31.4433 -0.243906 0)
(31.3784 -0.219936 0)
(31.3212 -0.199621 0)
(31.2689 -0.182132 0)
(31.2198 -0.16716 0)
(31.1715 -0.154162 0)
(31.1219 -0.14287 0)
(31.0696 -0.133158 0)
(31.0131 -0.124908 0)
(30.951 -0.118017 0)
(30.8822 -0.112437 0)
(30.8062 -0.108091 0)
(30.7228 -0.104673 0)
(30.6322 -0.101984 0)
(30.5354 -0.0999006 0)
(30.4334 -0.0983309 0)
(30.3273 -0.0971677 0)
(30.2188 -0.0962834 0)
(30.1092 -0.0955512 0)
(30.0002 -0.0948449 0)
(29.8937 -0.0942026 0)
(29.7905 -0.0936765 0)
(29.6911 -0.0932614 0)
(29.5961 -0.0929354 0)
(29.5057 -0.0926421 0)
(29.4201 -0.0923167 0)
(29.3391 -0.0919641 0)
(29.2628 -0.0915724 0)
(29.1905 -0.091075 0)
(29.1222 -0.0904678 0)
(29.0574 -0.0897863 0)
(28.9958 -0.0890305 0)
(28.9375 -0.0882427 0)
(28.882 -0.0874391 0)
(28.8294 -0.0865944 0)
(28.7797 -0.0857194 0)
(28.7328 -0.0848331 0)
(28.6883 -0.0839331 0)
(28.6461 -0.0830295 0)
(28.6059 -0.0821487 0)
(28.5678 -0.0812651 0)
(28.5312 -0.0803115 0)
(28.4964 -0.0793339 0)
(28.4627 -0.0783508 0)
(28.4304 -0.0773851 0)
(28.3989 -0.0764163 0)
(28.3686 -0.0754646 0)
(28.3388 -0.0744925 0)
(28.3099 -0.0735139 0)
(28.2814 -0.0725122 0)
(28.2537 -0.0715241 0)
(28.2261 -0.0705288 0)
(28.1994 -0.0695282 0)
(28.1727 -0.0684988 0)
(28.1467 -0.0674557 0)
(28.1207 -0.0663675 0)
(28.0954 -0.0652642 0)
(28.0701 -0.0641433 0)
(28.0454 -0.0630543 0)
(28.0207 -0.0619783 0)
(27.9967 -0.0609564 0)
(27.9727 -0.059974 0)
(27.9493 -0.0590764 0)
(27.926 -0.0582461 0)
(27.9034 -0.0575152 0)
(27.8809 -0.0568477 0)
(27.8591 -0.0562598 0)
(27.8374 -0.0557115 0)
(27.8165 -0.0552137 0)
(27.7957 -0.0547231 0)
(27.7757 -0.0542759 0)
(27.7555 -0.0537966 0)
(27.7362 -0.0535178 0)
(27.7162 -0.0531871 0)
(27.698 -0.053654 0)
(27.6768 -0.0538109 0)
(27.6622 -0.0563284 0)
(27.6333 -0.0572614 0)
(40.2555 0.0314291 0)
(40.3567 -0.0318829 0)
(40.4022 -0.258916 0)
(40.2468 -0.61732 0)
(39.8045 -0.995502 0)
(39.098 -1.30664 0)
(38.2122 -1.50466 0)
(37.2567 -1.57692 0)
(36.3 -1.54039 0)
(35.4306 -1.42795 0)
(34.6702 -1.27367 0)
(34.0265 -1.10647 0)
(33.4952 -0.946008 0)
(33.0626 -0.802062 0)
(32.7124 -0.678352 0)
(32.4292 -0.574882 0)
(32.1995 -0.489641 0)
(32.0122 -0.420084 0)
(31.8586 -0.363411 0)
(31.7316 -0.317241 0)
(31.6259 -0.279636 0)
(31.5369 -0.248963 0)
(31.4616 -0.223671 0)
(31.3972 -0.202578 0)
(31.3422 -0.184902 0)
(31.2948 -0.169923 0)
(31.2538 -0.157206 0)
(31.2181 -0.146208 0)
(31.187 -0.136596 0)
(31.1598 -0.128078 0)
(31.1358 -0.120491 0)
(31.1143 -0.113619 0)
(31.0949 -0.10743 0)
(31.0768 -0.101837 0)
(31.0593 -0.0966797 0)
(31.0416 -0.0918599 0)
(31.023 -0.08746 0)
(31.0029 -0.0835161 0)
(30.9804 -0.0800418 0)
(30.9548 -0.076992 0)
(30.9255 -0.0743551 0)
(30.8921 -0.0721725 0)
(30.8541 -0.0704392 0)
(30.8113 -0.0690704 0)
(30.7636 -0.0680236 0)
(30.7111 -0.0672764 0)
(30.6543 -0.0667735 0)
(30.5935 -0.0664591 0)
(30.5292 -0.0662669 0)
(30.4624 -0.0661258 0)
(30.3939 -0.0660515 0)
(30.3244 -0.0660887 0)
(30.2544 -0.0661873 0)
(30.1843 -0.0663036 0)
(30.115 -0.0664408 0)
(30.0462 -0.0666072 0)
(29.9786 -0.0668192 0)
(29.9119 -0.0670174 0)
(29.8467 -0.0671549 0)
(29.7825 -0.0672166 0)
(29.7199 -0.0672037 0)
(29.6583 -0.0671177 0)
(29.5982 -0.0669123 0)
(29.5394 -0.0665718 0)
(29.4823 -0.0661428 0)
(29.4261 -0.0656625 0)
(29.3713 -0.0651409 0)
(29.3171 -0.0645617 0)
(29.2643 -0.0639499 0)
(29.2119 -0.0632773 0)
(29.1609 -0.0625573 0)
(29.1102 -0.061775 0)
(29.0608 -0.0609826 0)
(29.0118 -0.060165 0)
(28.9639 -0.0593258 0)
(28.9163 -0.0584408 0)
(28.8698 -0.057533 0)
(28.8237 -0.0565756 0)
(28.7787 -0.0555965 0)
(28.7339 -0.0545981 0)
(28.6903 -0.0536153 0)
(28.647 -0.0526409 0)
(28.6047 -0.0517243 0)
(28.5627 -0.0508593 0)
(28.5219 -0.0500914 0)
(28.4814 -0.0494033 0)
(28.4421 -0.0488198 0)
(28.403 -0.0483056 0)
(28.3653 -0.0478727 0)
(28.3278 -0.0474844 0)
(28.2917 -0.0471472 0)
(28.2557 -0.0468161 0)
(28.2212 -0.0465066 0)
(28.1866 -0.0461573 0)
(28.1536 -0.0459688 0)
(28.1195 -0.0457622 0)
(28.0888 -0.0462112 0)
(28.0527 -0.0465506 0)
(28.0281 -0.0487064 0)
(27.9795 -0.0505771 0)
(40.2478 0.00636944 0)
(40.3189 -0.052935 0)
(40.3277 -0.234956 0)
(40.154 -0.518803 0)
(39.7188 -0.818108 0)
(39.0361 -1.06199 0)
(38.1811 -1.21596 0)
(37.2552 -1.27227 0)
(36.3237 -1.24525 0)
(35.4695 -1.16043 0)
(34.7171 -1.04243 0)
(34.0752 -0.912766 0)
(33.5413 -0.786697 0)
(33.1036 -0.672224 0)
(32.7472 -0.572787 0)
(32.4572 -0.488972 0)
(32.221 -0.419621 0)
(32.0278 -0.362807 0)
(31.8688 -0.316509 0)
(31.7373 -0.278829 0)
(31.6276 -0.248092 0)
(31.5353 -0.222926 0)
(31.457 -0.202097 0)
(31.3901 -0.184649 0)
(31.3326 -0.169887 0)
(31.2828 -0.15725 0)
(31.2395 -0.14634 0)
(31.2017 -0.136776 0)
(31.1685 -0.128259 0)
(31.1393 -0.120655 0)
(31.1135 -0.113823 0)
(31.0907 -0.107692 0)
(31.0705 -0.102208 0)
(31.0525 -0.0973538 0)
(31.0364 -0.0929675 0)
(31.022 -0.0889925 0)
(31.009 -0.0854069 0)
(30.9973 -0.0821988 0)
(30.9864 -0.0792842 0)
(30.9763 -0.0766118 0)
(30.9667 -0.0741046 0)
(30.9575 -0.0717466 0)
(30.9482 -0.0694641 0)
(30.9385 -0.0672449 0)
(30.9281 -0.0651278 0)
(30.9168 -0.063144 0)
(30.9042 -0.0612891 0)
(30.8899 -0.0595437 0)
(30.8735 -0.0578967 0)
(30.8546 -0.0563804 0)
(30.8325 -0.0550424 0)
(30.807 -0.0538894 0)
(30.7779 -0.0528706 0)
(30.745 -0.0519944 0)
(30.7084 -0.0512324 0)
(30.6677 -0.0505835 0)
(30.623 -0.0500045 0)
(30.5743 -0.0495067 0)
(30.5218 -0.0490458 0)
(30.4658 -0.0486082 0)
(30.4066 -0.0481855 0)
(30.3445 -0.0477908 0)
(30.2797 -0.0474243 0)
(30.2128 -0.0470751 0)
(30.1445 -0.0467201 0)
(30.0749 -0.0463425 0)
(30.0043 -0.0459425 0)
(29.933 -0.0455359 0)
(29.8616 -0.0451178 0)
(29.79 -0.0446788 0)
(29.7188 -0.0442228 0)
(29.6478 -0.0437349 0)
(29.5781 -0.043233 0)
(29.5084 -0.0427003 0)
(29.4401 -0.0421478 0)
(29.3722 -0.0415476 0)
(29.3058 -0.0409273 0)
(29.2399 -0.040261 0)
(29.1756 -0.0395783 0)
(29.112 -0.0388739 0)
(29.0501 -0.0381956 0)
(28.9887 -0.0375394 0)
(28.9291 -0.0369226 0)
(28.8701 -0.0363565 0)
(28.813 -0.0358804 0)
(28.7563 -0.0354896 0)
(28.7017 -0.0351962 0)
(28.6476 -0.0349777 0)
(28.5956 -0.0348315 0)
(28.5438 -0.0347368 0)
(28.4943 -0.0346923 0)
(28.445 -0.0346515 0)
(28.3981 -0.0346004 0)
(28.3509 -0.0345043 0)
(28.3064 -0.0345058 0)
(28.2603 -0.0345442 0)
(28.219 -0.0350037 0)
(28.1705 -0.0356775 0)
(28.1376 -0.0372367 0)
(28.0722 -0.0406054 0)
(40.2419 -0.0161657 0)
(40.2904 -0.0671901 0)
(40.2717 -0.206836 0)
(40.0832 -0.423796 0)
(39.6529 -0.656249 0)
(38.9885 -0.84919 0)
(38.1576 -0.975736 0)
(37.2545 -1.02811 0)
(36.3423 -1.01521 0)
(35.4977 -0.954929 0)
(34.7472 -0.865226 0)
(34.1003 -0.763648 0)
(33.5568 -0.663451 0)
(33.1079 -0.571829 0)
(32.7399 -0.491688 0)
(32.4391 -0.423573 0)
(32.1926 -0.366628 0)
(31.9897 -0.319513 0)
(31.8213 -0.280688 0)
(31.6804 -0.248786 0)
(31.5611 -0.222586 0)
(31.4592 -0.201003 0)
(31.3709 -0.18303 0)
(31.2936 -0.167899 0)
(31.2253 -0.155047 0)
(31.1642 -0.144045 0)
(31.1091 -0.134557 0)
(31.0588 -0.126254 0)
(31.0125 -0.118877 0)
(30.9694 -0.112301 0)
(30.9289 -0.106425 0)
(30.8907 -0.101159 0)
(30.8542 -0.0964277 0)
(30.8192 -0.092166 0)
(30.7851 -0.0882534 0)
(30.7517 -0.0846159 0)
(30.7188 -0.0812264 0)
(30.6861 -0.0780768 0)
(30.6535 -0.0751499 0)
(30.6208 -0.0724036 0)
(30.5879 -0.0698094 0)
(30.5546 -0.0673394 0)
(30.521 -0.0649305 0)
(30.4868 -0.062599 0)
(30.452 -0.060422 0)
(30.4166 -0.0584169 0)
(30.3806 -0.0565366 0)
(30.344 -0.0547287 0)
(30.3069 -0.0529397 0)
(30.2691 -0.0511595 0)
(30.2307 -0.0494003 0)
(30.1917 -0.0476805 0)
(30.1521 -0.0459886 0)
(30.1121 -0.0443346 0)
(30.0714 -0.0426784 0)
(30.0301 -0.0410226 0)
(29.9881 -0.0393885 0)
(29.9453 -0.0377944 0)
(29.9017 -0.0362196 0)
(29.857 -0.0346638 0)
(29.8113 -0.0331457 0)
(29.7643 -0.0316998 0)
(29.7162 -0.0303404 0)
(29.6667 -0.0290802 0)
(29.6159 -0.027904 0)
(29.5637 -0.0267704 0)
(29.5102 -0.0257131 0)
(29.4554 -0.0247711 0)
(29.3995 -0.0239193 0)
(29.3424 -0.0231604 0)
(29.2845 -0.0224999 0)
(29.2257 -0.0219155 0)
(29.1664 -0.0213824 0)
(29.1066 -0.0208871 0)
(29.0466 -0.020434 0)
(28.9864 -0.0200008 0)
(28.9264 -0.0195898 0)
(28.8663 -0.0191915 0)
(28.807 -0.0188134 0)
(28.7476 -0.0184413 0)
(28.6894 -0.018083 0)
(28.6313 -0.0177664 0)
(28.5745 -0.0175109 0)
(28.5179 -0.0173371 0)
(28.4629 -0.017262 0)
(28.408 -0.0172963 0)
(28.3549 -0.0174259 0)
(28.3019 -0.0176473 0)
(28.2508 -0.0179244 0)
(28.1997 -0.0182533 0)
(28.1506 -0.0186326 0)
(28.1015 -0.0190209 0)
(28.0545 -0.0193503 0)
(28.007 -0.01963 0)
(27.962 -0.019925 0)
(27.9154 -0.0203161 0)
(27.8734 -0.0208196 0)
(27.8235 -0.0219316 0)
(27.7899 -0.0227482 0)
(27.721 -0.0278643 0)
(40.2386 -0.0300089 0)
(40.2709 -0.0704533 0)
(40.2318 -0.171527 0)
(40.0309 -0.327113 0)
(39.6008 -0.494846 0)
(38.9444 -0.634493 0)
(38.1223 -0.726402 0)
(37.2224 -0.765069 0)
(36.3085 -0.757649 0)
(35.4512 -0.717342 0)
(34.6819 -0.655953 0)
(34.0119 -0.585335 0)
(33.4413 -0.514545 0)
(32.9631 -0.448856 0)
(32.5631 -0.390477 0)
(32.229 -0.340254 0)
(31.9472 -0.297741 0)
(31.7084 -0.26221 0)
(31.5026 -0.232512 0)
(31.3236 -0.207825 0)
(31.1646 -0.187325 0)
(31.0221 -0.170425 0)
(30.8928 -0.156228 0)
(30.7736 -0.144042 0)
(30.6629 -0.1335 0)
(30.5587 -0.124293 0)
(30.46 -0.116211 0)
(30.3654 -0.108992 0)
(30.2744 -0.102444 0)
(30.1862 -0.0964654 0)
(30.1005 -0.0910327 0)
(30.0166 -0.0860815 0)
(29.9346 -0.0815789 0)
(29.8539 -0.0774346 0)
(29.7744 -0.073566 0)
(29.6958 -0.0699406 0)
(29.6184 -0.0665764 0)
(29.5419 -0.0634339 0)
(29.4663 -0.0605073 0)
(29.3912 -0.0577458 0)
(29.3171 -0.055135 0)
(29.2435 -0.0526784 0)
(29.1711 -0.0503267 0)
(29.0998 -0.0480402 0)
(29.0296 -0.0458699 0)
(28.9602 -0.043841 0)
(28.892 -0.0419351 0)
(28.8247 -0.040097 0)
(28.7587 -0.038299 0)
(28.6939 -0.0365495 0)
(28.6306 -0.0348779 0)
(28.5686 -0.0333004 0)
(28.5079 -0.0318198 0)
(28.4487 -0.0304223 0)
(28.391 -0.0290659 0)
(28.3348 -0.0277582 0)
(28.2799 -0.0265003 0)
(28.2269 -0.0252958 0)
(28.1751 -0.0241039 0)
(28.1252 -0.0229162 0)
(28.0766 -0.0217311 0)
(28.0298 -0.0205979 0)
(27.9843 -0.0195052 0)
(27.9408 -0.0184457 0)
(27.8983 -0.0173951 0)
(27.8575 -0.016351 0)
(27.8177 -0.015344 0)
(27.7795 -0.0144128 0)
(27.7422 -0.0135299 0)
(27.7061 -0.0127105 0)
(27.6708 -0.0119674 0)
(27.6365 -0.0112827 0)
(27.6027 -0.010632 0)
(27.5698 -0.0100215 0)
(27.5374 -0.0094538 0)
(27.5056 -0.00893034 0)
(27.4742 -0.00844273 0)
(27.4432 -0.00800327 0)
(27.4127 -0.0076013 0)
(27.3824 -0.00722756 0)
(27.3524 -0.00688046 0)
(27.3225 -0.00659526 0)
(27.2928 -0.0063797 0)
(27.2632 -0.00625301 0)
(27.2335 -0.00623066 0)
(27.2037 -0.00632894 0)
(27.1738 -0.00652782 0)
(27.1438 -0.00682702 0)
(27.1136 -0.00719754 0)
(27.0832 -0.00762435 0)
(27.0528 -0.00810946 0)
(27.0222 -0.00859894 0)
(26.9915 -0.00902658 0)
(26.9605 -0.00942646 0)
(26.93 -0.00977686 0)
(26.8979 -0.0102538 0)
(26.8686 -0.0105952 0)
(26.8321 -0.0117893 0)
(26.8085 -0.0117484 0)
(26.7544 -0.0176668 0)
(40.2229 -0.0441214 0)
(40.2345 -0.0683461 0)
(40.1702 -0.129278 0)
(39.943 -0.223499 0)
(39.4859 -0.326545 0)
(38.7965 -0.413769 0)
(37.9306 -0.472611 0)
(36.972 -0.498751 0)
(35.9901 -0.496121 0)
(35.0461 -0.472138 0)
(34.1798 -0.433811 0)
(33.4043 -0.388812 0)
(32.724 -0.343321 0)
(32.1349 -0.300904 0)
(31.6253 -0.263093 0)
(31.1844 -0.230417 0)
(30.7991 -0.202579 0)
(30.4612 -0.179134 0)
(30.1598 -0.15929 0)
(29.8897 -0.142567 0)
(29.6429 -0.128192 0)
(29.4175 -0.116163 0)
(29.2102 -0.106032 0)
(29.0177 -0.097227 0)
(28.8381 -0.0894802 0)
(28.6691 -0.0825749 0)
(28.5098 -0.0763866 0)
(28.3584 -0.0707516 0)
(28.2149 -0.0655584 0)
(28.0779 -0.0607353 0)
(27.9474 -0.0562855 0)
(27.8223 -0.0521726 0)
(27.7024 -0.048381 0)
(27.5873 -0.044871 0)
(27.477 -0.0415857 0)
(27.371 -0.0385311 0)
(27.2694 -0.0356986 0)
(27.1716 -0.0330357 0)
(27.0776 -0.0305603 0)
(26.9872 -0.0282339 0)
(26.9004 -0.026029 0)
(26.8167 -0.0240132 0)
(26.7365 -0.0221564 0)
(26.6593 -0.0203686 0)
(26.5853 -0.0186627 0)
(26.5141 -0.0170931 0)
(26.4457 -0.0156828 0)
(26.38 -0.0143724 0)
(26.3169 -0.0131192 0)
(26.2563 -0.0119518 0)
(26.1982 -0.0108857 0)
(26.1425 -0.00989953 0)
(26.089 -0.00899632 0)
(26.0378 -0.00816874 0)
(25.9887 -0.00738741 0)
(25.9417 -0.00664129 0)
(25.8966 -0.0059342 0)
(25.8538 -0.00526987 0)
(25.8126 -0.00463898 0)
(25.7736 -0.00401838 0)
(25.7363 -0.00339295 0)
(25.7012 -0.00281764 0)
(25.6675 -0.00231596 0)
(25.636 -0.00184417 0)
(25.6058 -0.00137401 0)
(25.5776 -0.000903783 0)
(25.5507 -0.000464795 0)
(25.5256 -9.31809e-05 0)
(25.5015 0.000249893 0)
(25.4791 0.000539219 0)
(25.4576 0.000820492 0)
(25.4375 0.00103463 0)
(25.4181 0.00121027 0)
(25.3998 0.00136729 0)
(25.3822 0.00152381 0)
(25.3655 0.00167257 0)
(25.3494 0.00183129 0)
(25.334 0.00198391 0)
(25.3191 0.00213673 0)
(25.3048 0.00229357 0)
(25.2909 0.0024242 0)
(25.2775 0.00254341 0)
(25.2644 0.00265272 0)
(25.2515 0.00273647 0)
(25.2388 0.00278066 0)
(25.226 0.00275678 0)
(25.2131 0.0026693 0)
(25.2 0.00253201 0)
(25.1865 0.00235264 0)
(25.1728 0.00208755 0)
(25.1585 0.00176811 0)
(25.1438 0.00145599 0)
(25.1286 0.00120293 0)
(25.1129 0.000925543 0)
(25.0972 0.000708194 0)
(25.0798 0.000319932 0)
(25.0644 0.000215602 0)
(25.0427 -0.000853208 0)
(25.0306 -0.000419467 0)
(24.9949 -0.00516426 0)
(39.1402 -0.0539802 0)
(38.9464 -0.0675466 0)
(38.6586 -0.0934487 0)
(38.1914 -0.131021 0)
(37.4774 -0.172078 0)
(36.5128 -0.207809 0)
(35.3544 -0.233306 0)
(34.0901 -0.2464 0)
(32.7978 -0.247956 0)
(31.5412 -0.240187 0)
(30.3739 -0.225485 0)
(29.3095 -0.206601 0)
(28.3626 -0.186338 0)
(27.5263 -0.16632 0)
(26.7955 -0.147423 0)
(26.1538 -0.130037 0)
(25.5938 -0.114503 0)
(25.0994 -0.100652 0)
(24.666 -0.0884562 0)
(24.2805 -0.0776403 0)
(23.9407 -0.068326 0)
(23.6351 -0.0607343 0)
(23.3587 -0.0544268 0)
(23.1081 -0.0490343 0)
(22.8794 -0.0443516 0)
(22.6707 -0.040257 0)
(22.4794 -0.0366503 0)
(22.304 -0.0334565 0)
(22.1428 -0.0305988 0)
(21.9948 -0.0280268 0)
(21.8589 -0.0257139 0)
(21.734 -0.0236255 0)
(21.6193 -0.0217684 0)
(21.5136 -0.0201347 0)
(21.4164 -0.0186857 0)
(21.3268 -0.0174001 0)
(21.2442 -0.016237 0)
(21.1682 -0.0151628 0)
(21.0983 -0.0142109 0)
(21.0338 -0.013352 0)
(20.9747 -0.0125569 0)
(20.9203 -0.0118696 0)
(20.8701 -0.0112586 0)
(20.824 -0.0106593 0)
(20.7818 -0.0100841 0)
(20.7432 -0.0095812 0)
(20.7079 -0.00916477 0)
(20.6754 -0.0087767 0)
(20.6456 -0.00838358 0)
(20.6186 -0.00800927 0)
(20.5938 -0.00767492 0)
(20.5713 -0.00736996 0)
(20.5508 -0.00709676 0)
(20.532 -0.00684521 0)
(20.5149 -0.00660324 0)
(20.4994 -0.00636528 0)
(20.4854 -0.00614314 0)
(20.4729 -0.0059417 0)
(20.4615 -0.00575843 0)
(20.4514 -0.00556845 0)
(20.4425 -0.00535682 0)
(20.435 -0.00517077 0)
(20.4284 -0.0050315 0)
(20.4228 -0.00488693 0)
(20.418 -0.00470623 0)
(20.4143 -0.00449972 0)
(20.4116 -0.00429492 0)
(20.4097 -0.00410241 0)
(20.4085 -0.00391447 0)
(20.4081 -0.00368089 0)
(20.4082 -0.00353728 0)
(20.409 -0.00337605 0)
(20.4102 -0.00324089 0)
(20.412 -0.00311801 0)
(20.4143 -0.00299495 0)
(20.4171 -0.0028707 0)
(20.4203 -0.00273709 0)
(20.4241 -0.00260544 0)
(20.4283 -0.00246818 0)
(20.4331 -0.00233302 0)
(20.4384 -0.00225895 0)
(20.4442 -0.00221033 0)
(20.4504 -0.00217151 0)
(20.4569 -0.00214634 0)
(20.4636 -0.00213513 0)
(20.4705 -0.0021589 0)
(20.4769 -0.00221144 0)
(20.4829 -0.00227613 0)
(20.4883 -0.00236955 0)
(20.4929 -0.00256437 0)
(20.4966 -0.00282113 0)
(20.4991 -0.00304735 0)
(20.501 -0.00324475 0)
(20.5018 -0.00342478 0)
(20.5024 -0.00353901 0)
(20.5018 -0.00390125 0)
(20.5018 -0.00384139 0)
(20.498 -0.0046053 0)
(20.4988 -0.00354398 0)
(20.4847 -0.00960144 0)
(1.95437 0.421238 0)
(1.64907 2.05102 0)
(0.910904 2.40128 0)
(0.110914 2.5677 0)
(-0.665575 2.43237 0)
(-1.46651 1.98152 0)
(-2.15367 1.28401 0)
(-2.51272 0.770952 0)
(10.5778 0.318084 0)
(4.36564 1.81698 0)
(1.74411 2.17481 0)
(-0.155018 2.21102 0)
(-2.00006 2.04563 0)
(-3.87731 1.69172 0)
(-5.71493 1.11972 0)
(-6.92409 0.530807 0)
(16.8868 -0.371864 0)
(7.91511 0.751521 0)
(2.86677 1.2142 0)
(-0.390801 1.32792 0)
(-2.9925 1.24932 0)
(-5.40338 1.0588 0)
(-7.85091 0.75371 0)
(-9.97521 0.288393 0)
(20.5479 -1.17077 0)
(11.239 -0.438565 0)
(4.58037 0.073494 0)
(0.166287 0.312112 0)
(-3.14767 0.39339 0)
(-6.02668 0.379205 0)
(-8.77042 0.303336 0)
(-11.4791 0.0760386 0)
(22.4346 -1.81034 0)
(13.5547 -1.3272 0)
(6.44274 -0.873378 0)
(1.28495 -0.548982 0)
(-2.61863 -0.328241 0)
(-5.86405 -0.179405 0)
(-8.80813 -0.0646653 0)
(-11.7951 -0.0515931 0)
(23.6383 -2.31559 0)
(15.4317 -1.97617 0)
(8.25979 -1.5757 0)
(2.7433 -1.21556 0)
(-1.47203 -0.904725 0)
(-4.91752 -0.630899 0)
(-7.98474 -0.380778 0)
(-11.1055 -0.205935 0)
(24.3328 -2.60591 0)
(16.9012 -2.37074 0)
(10.0265 -2.03615 0)
(4.44228 -1.67068 0)
(0.115654 -1.30548 0)
(-3.377 -0.946688 0)
(-6.43095 -0.597693 0)
(-9.51233 -0.307156 0)
(24.7683 -2.67806 0)
(17.9672 -2.50947 0)
(11.5151 -2.23413 0)
(6.15519 -1.89319 0)
(1.91901 -1.51315 0)
(-1.51042 -1.11241 0)
(-4.48998 -0.712727 0)
(-7.52817 -0.358461 0)
(25.0647 -2.58807 0)
(18.8342 -2.46098 0)
(12.8346 -2.23087 0)
(7.79372 -1.91912 0)
(3.76294 -1.55073 0)
(0.479161 -1.14694 0)
(-2.37456 -0.740315 0)
(-5.32868 -0.369178 0)
(25.2508 -2.38117 0)
(19.5302 -2.2871 0)
(13.9916 -2.09715 0)
(9.31682 -1.82115 0)
(5.53747 -1.48034 0)
(2.42567 -1.09678 0)
(-0.297097 -0.708786 0)
(-3.17832 -0.353617 0)
(25.3302 -2.11392 0)
(20.0609 -2.05178 0)
(14.9677 -1.89747 0)
(10.6753 -1.65941 0)
(7.16904 -1.35428 0)
(4.24231 -1.00519 0)
(1.65848 -0.650606 0)
(-1.14562 -0.325766 0)
(25.3131 -1.83554 0)
(20.4569 -1.79933 0)
(15.8047 -1.67534 0)
(11.8634 -1.47244 0)
(8.60668 -1.20366 0)
(5.86499 -0.895439 0)
(3.41677 -0.58055 0)
(0.697179 -0.29175 0)
(25.2216 -1.57366 0)
(20.7377 -1.55767 0)
(16.5022 -1.45883 0)
(12.89 -1.2861 0)
(9.86465 -1.05206 0)
(7.29298 -0.782565 0)
(4.96292 -0.504745 0)
(2.30903 -0.250306 0)
(25.0834 -1.34445 0)
(20.9386 -1.34109 0)
(17.0852 -1.26248 0)
(13.7722 -1.11589 0)
(10.9565 -0.913276 0)
(8.53835 -0.679245 0)
(6.31425 -0.435937 0)
(3.71789 -0.214249 0)
(24.9174 -1.15096 0)
(21.078 -1.15525 0)
(17.5719 -1.09186 0)
(14.5309 -0.967092 0)
(11.9025 -0.792812 0)
(9.61975 -0.59019 0)
(7.48697 -0.377441 0)
(4.93563 -0.184512 0)
(24.7439 -0.991273 0)
(21.1867 -0.997527 0)
(17.9786 -0.945741 0)
(15.1717 -0.838814 0)
(12.7162 -0.690054 0)
(10.5576 -0.514883 0)
(8.50762 -0.327993 0)
(5.99413 -0.161675 0)
(24.5805 -0.861393 0)
(21.2814 -0.866646 0)
(18.3238 -0.822189 0)
(15.715 -0.729918 0)
(13.4162 -0.60234 0)
(11.3718 -0.450255 0)
(9.40027 -0.2841 0)
(6.91615 -0.145698 0)
(24.4337 -0.755669 0)
(21.3683 -0.759425 0)
(18.6243 -0.719462 0)
(16.1853 -0.638876 0)
(14.0237 -0.528019 0)
(12.0822 -0.394959 0)
(10.1865 -0.246808 0)
(7.7179 -0.131267 0)
(24.3062 -0.669343 0)
(21.4506 -0.671392 0)
(18.8908 -0.634785 0)
(16.5983 -0.563347 0)
(14.5561 -0.465736 0)
(12.7056 -0.348428 0)
(10.8779 -0.216981 0)
(8.42392 -0.116004 0)
(24.1981 -0.598279 0)
(21.5301 -0.598882 0)
(19.1307 -0.56488 0)
(16.9658 -0.500762 0)
(15.0277 -0.413796 0)
(13.2572 -0.309432 0)
(11.4892 -0.192519 0)
(9.04796 -0.102306 0)
(24.1081 -0.539102 0)
(21.6081 -0.538898 0)
(19.3491 -0.506932 0)
(17.2968 -0.449083 0)
(15.4501 -0.37084 0)
(13.7498 -0.277058 0)
(12.034 -0.172221 0)
(9.60321 -0.0907734 0)
(24.0334 -0.489326 0)
(21.6843 -0.488565 0)
(19.5463 -0.458667 0)
(17.5966 -0.406191 0)
(15.8317 -0.335251 0)
(14.1939 -0.250245 0)
(12.5242 -0.155384 0)
(10.1016 -0.0812794 0)
(23.9713 -0.44748 0)
(21.7575 -0.445905 0)
(19.7274 -0.417918 0)
(17.8699 -0.369852 0)
(16.179 -0.305069 0)
(14.5973 -0.227525 0)
(12.9686 -0.141094 0)
(10.5526 -0.0733399 0)
(23.9205 -0.411768 0)
(21.8289 -0.409164 0)
(19.8957 -0.382967 0)
(18.1213 -0.338626 0)
(16.497 -0.279127 0)
(14.9661 -0.208011 0)
(13.3741 -0.128799 0)
(10.963 -0.0666007 0)
(23.8798 -0.380906 0)
(21.8975 -0.37752 0)
(20.052 -0.352752 0)
(18.353 -0.311588 0)
(16.7894 -0.256665 0)
(15.3048 -0.191129 0)
(13.746 -0.118157 0)
(11.3385 -0.0608395 0)
(23.8483 -0.354081 0)
(21.9655 -0.349541 0)
(20.1993 -0.32641 0)
(18.5684 -0.288051 0)