/*--------------------------------*- C++ -*----------------------------------*\
| =========                 |                                                 |
| \\      /  F ield         | OpenFOAM: The Open Source CFD Toolbox           |
|  \\    /   O peration     | Version:  v2012                                 |
|   \\  /    A nd           | Website:  www.openfoam.com                      |
|    \\/     M anipulation  |                                                 |
\*---------------------------------------------------------------------------*/
FoamFile
{
    version     2.0;
    format      ascii;
    class       surfaceScalarField;
    location    "0.376";
    object      phi.air;
}
// * * * * * * * * * * * * * * * * * * * * * * * * * * * * * * * * * * * * * //

dimensions      [0 3 -1 0 0 0 0];
oriented        oriented;


internalField   nonuniform List<scalar> 
10964
(
0.000657106
2.51273e-05
0.000628902
2.73626e-05
0.000601317
2.67411e-05
0.000575027
2.54447e-05
0.000551118
2.30604e-05
0.000530162
2.01067e-05
0.000512502
1.68085e-05
0.000497901
1.37488e-05
0.000485909
1.11383e-05
0.000476267
8.78749e-06
0.000468659
6.75296e-06
0.000462713
5.09053e-06
0.000458072
3.78548e-06
0.000454434
2.78284e-06
0.00045154
2.03747e-06
0.000449195
1.48953e-06
0.000447253
1.08552e-06
0.00044561
7.86855e-07
0.000444195
5.59595e-07
0.000442977
3.62215e-07
0.000441919
2.01346e-07
0.000441019
4.4604e-08
0.000440275
-1.12416e-07
0.000439661
-2.41241e-07
0.000439158
-3.53391e-07
0.00043874
-4.37405e-07
0.000438398
-5.14419e-07
0.000438106
-5.63167e-07
0.000437852
-6.02365e-07
0.000437613
-6.16397e-07
0.000437379
-6.21189e-07
0.000437142
-6.19049e-07
0.000436906
-6.19145e-07
0.00043667
-6.2033e-07
0.000436435
-6.20368e-07
0.000436206
-6.25959e-07
0.000435979
-6.28589e-07
0.00043576
-6.36854e-07
0.000435547
-6.42077e-07
0.000435344
-6.52802e-07
0.000435151
-6.62707e-07
0.000434969
-6.73726e-07
0.000434797
-6.83675e-07
0.000434641
-6.99412e-07
0.000434499
-7.13268e-07
0.000434371
-7.27889e-07
0.000434255
-7.39429e-07
0.000434151
-7.51634e-07
0.000434055
-7.59346e-07
0.00043397
-7.70277e-07
0.000433893
-7.78178e-07
0.000433821
-7.84365e-07
0.000433758
-7.9242e-07
0.000433706
-8.02983e-07
0.000433659
-8.08528e-07
0.000433623
-8.19183e-07
0.000433593
-8.25331e-07
0.000433572
-8.35037e-07
0.000433563
-8.46304e-07
0.000433563
-8.55022e-07
0.000433568
-8.60701e-07
0.000433584
-8.71192e-07
0.000433606
-8.7726e-07
0.000433637
-8.86551e-07
0.000433674
-8.92934e-07
0.000433721
-9.02606e-07
0.000433774
-9.07688e-07
0.000433836
-9.17727e-07
0.000433902
-9.21539e-07
0.000433978
-9.31204e-07
0.000434059
-9.35858e-07
0.000434149
-9.45047e-07
0.000434243
-9.49261e-07
0.000434344
-9.56925e-07
0.000434452
-9.62653e-07
0.000434566
-9.69462e-07
0.000434686
-9.74804e-07
0.000434811
-9.8067e-07
0.000434942
-9.86334e-07
0.000435078
-9.91027e-07
0.00043522
-9.96695e-07
0.000435363
-9.98532e-07
0.000435514
-1.0057e-06
0.000435662
-1.00359e-06
0.00043582
-1.01305e-06
0.000435972
-1.00695e-06
0.000436141
-1.02399e-06
0.000436294
-1.00818e-06
0.000436489
-1.04998e-06
0.000436647
-1.01235e-06
0.000436858
-1.06653e-06
0.00043701
-1.00676e-06
0.00043723
-1.07483e-06
0.000437353
-9.77196e-07
0.000437638
-1.14028e-06
0.000437738
-9.54286e-07
0.000438152
-1.26924e-06
0.000438865
-1.56724e-06
0.000437457
5.52077e-07
-1.11658e-05
0.00044777
0.000757085
2.43227e-05
0.000754877
2.95708e-05
0.000751202
3.04159e-05
0.000745928
3.07185e-05
0.000739361
2.96276e-05
0.000731832
2.76355e-05
0.000723576
2.50644e-05
0.000714971
2.23544e-05
0.000706311
1.97974e-05
0.000697783
1.73164e-05
0.000689587
1.49487e-05
0.00068184
1.28376e-05
0.00067462
1.10056e-05
0.000667976
9.42615e-06
0.000661923
8.09078e-06
0.000656454
6.95867e-06
0.000651544
5.99517e-06
0.000647161
5.17044e-06
0.000643277
4.44291e-06
0.000639871
3.7683e-06
0.000636901
3.17129e-06
0.000634312
2.63368e-06
0.000632004
2.19563e-06
0.000629934
1.82924e-06
0.00062808
1.49988e-06
0.000626416
1.22695e-06
0.000624894
1.00723e-06
0.000623479
8.5267e-07
0.000622159
7.17631e-07
0.000620928
6.14173e-07
0.000619781
5.25573e-07
0.000618716
4.46607e-07
0.000617735
3.61725e-07
0.000616828
2.86568e-07
0.00061599
2.17557e-07
0.000615213
1.50974e-07
0.000614493
9.16917e-08
0.000613824
3.17844e-08
0.000613204
-2.16861e-08
0.000612629
-7.7946e-08
0.000612098
-1.3204e-07
0.000611606
-1.81881e-07
0.000611153
-2.30657e-07
0.000610736
-2.81765e-07
0.000610349
-3.26614e-07
0.000609989
-3.67982e-07
0.000609653
-4.03262e-07
0.00060934
-4.38668e-07
0.000609048
-4.66975e-07
0.000608777
-4.99551e-07
0.000608525
-5.2684e-07
0.000608294
-5.52861e-07
0.000608081
-5.79754e-07
0.000607888
-6.09596e-07
0.000607713
-6.33618e-07
0.000607558
-6.63913e-07
0.000607418
-6.86071e-07
0.000607297
-7.1338e-07
0.000607192
-7.4103e-07
0.000607103
-7.66723e-07
0.00060703
-7.8718e-07
0.000606972
-8.13235e-07
0.000606927
-8.32493e-07
0.000606896
-8.5585e-07
0.00060688
-8.76839e-07
0.000606876
-8.98028e-07
0.000606882
-9.13854e-07
0.0006069
-9.36378e-07
0.00060693
-9.50949e-07
0.000606973
-9.74143e-07
0.000607025
-9.8827e-07
0.00060709
-1.00996e-06
0.000607164
-1.02321e-06
0.000607249
-1.04217e-06
0.000607344
-1.05745e-06
0.000607449
-1.07473e-06
0.000607563
-1.08805e-06
0.000607685
-1.10296e-06
0.000607814
-1.11548e-06
0.000607952
-1.129e-06
0.000608095
-1.13985e-06
0.000608247
-1.15048e-06
0.000608402
-1.16106e-06
0.000608568
-1.16942e-06
0.000608733
-1.17783e-06
0.000608915
-1.1889e-06
0.00060909
-1.19855e-06
0.00060929
-1.20885e-06
0.000609473
-1.23227e-06
0.00060969
-1.22959e-06
0.000609876
-1.25231e-06
0.000610112
-1.24285e-06
0.000610286
-1.24918e-06
0.00061057
-1.26128e-06
0.000610717
-1.28726e-06
0.000611135
-1.37185e-06
0.000611259
-1.39358e-06
0.000611963
-2.27139e-06
0.000612192
3.23003e-07
-1.51926e-05
0.000616219
0.000840343
2.13132e-05
0.000842332
2.75816e-05
0.000844302
2.84454e-05
0.000845633
2.93883e-05
0.000846213
2.90476e-05
0.000845985
2.78628e-05
0.000845037
2.60131e-05
0.000843329
2.40619e-05
0.000840904
2.22226e-05
0.000837777
2.04436e-05
0.000834026
1.86995e-05
0.000829712
1.71514e-05
0.00082494
1.5778e-05
0.000819829
1.45372e-05
0.000814506
1.34131e-05
0.000809098
1.23671e-05
0.000803704
1.13893e-05
0.000798449
1.04251e-05
0.000793418
9.47385e-06
0.000788679
8.5079e-06
0.000784255
7.59503e-06
0.000780181
6.70779e-06
0.000776458
5.91797e-06
0.000773064
5.22338e-06
0.000769972
4.59222e-06
0.000767153
4.04623e-06
0.000764562
3.59764e-06
0.000762171
3.24365e-06
0.00075997
2.9187e-06
0.000757948
2.63639e-06
0.000756091
2.3826e-06
0.000754388
2.14949e-06
0.000752828
1.92163e-06
0.000751391
1.72347e-06
0.000750067
1.54201e-06
0.000748842
1.37577e-06
0.000747711
1.22296e-06
0.000746664
1.079e-06
0.000745697
9.4514e-07
0.000744802
8.16603e-07
0.000743979
6.91599e-07
0.000743216
5.80393e-07
0.000742515
4.70251e-07
0.000741859
3.74266e-07
0.000741242
2.9032e-07
0.000740662
2.12366e-07
0.000740117
1.41455e-07
0.000739608
7.04196e-08
0.000739133
8.07279e-09
0.000738692
-5.79052e-08
0.000738282
-1.169e-07
0.000737903
-1.74395e-07
0.000737554
-2.31059e-07
0.000737236
-2.90796e-07
0.000736945
-3.43337e-07
0.000736683
-4.01698e-07
0.000736446
-4.4862e-07
0.000736233
-5.01146e-07
0.000736044
-5.51076e-07
0.000735877
-5.99981e-07
0.000735731
-6.41666e-07
0.000735606
-6.87985e-07
0.000735499
-7.25886e-07
0.000735411
-7.67825e-07
0.000735341
-8.06135e-07
0.000735287
-8.44537e-07
0.000735249
-8.76005e-07
0.000735227
-9.14529e-07
0.000735224
-9.4742e-07
0.000735233
-9.83263e-07
0.000735256
-1.01148e-06
0.000735295
-1.04878e-06
0.000735347
-1.07546e-06
0.000735414
-1.10855e-06
0.000735493
-1.13659e-06
0.000735585
-1.16659e-06
0.000735686
-1.1896e-06
0.000735798
-1.21491e-06
0.000735919
-1.23597e-06
0.00073605
-1.25986e-06
0.000736187
-1.27775e-06
0.000736336
-1.29924e-06
0.00073649
-1.31523e-06
0.000736657
-1.33644e-06
0.000736826
-1.34602e-06
0.000737013
-1.37652e-06
0.000737196
-1.38134e-06
0.000737407
-1.41938e-06
0.0007376
-1.42589e-06
0.000737831
-1.46087e-06
0.000738034
-1.45498e-06
0.000738279
-1.48747e-06
0.000738486
-1.45636e-06
0.000738768
-1.54338e-06
0.000738976
-1.49554e-06
0.000739345
-1.74067e-06
0.000739578
-1.62611e-06
0.000740208
-2.90159e-06
0.000741379
-8.48205e-07
-1.58702e-05
0.000742057
0.000930296
1.80904e-05
0.000933078
2.47988e-05
0.000936234
2.52899e-05
0.000939314
2.63085e-05
0.00094213
2.62312e-05
0.000944657
2.53359e-05
0.000946786
2.38844e-05
0.000948508
2.23391e-05
0.000949817
2.09135e-05
0.000950712
1.9549e-05
0.000951157
1.82543e-05
0.000951127
1.71821e-05
0.000950718
1.61864e-05
0.000949891
1.53646e-05
0.000948629
1.46754e-05
0.000946927
1.40684e-05
0.000944789
1.35274e-05
0.000942218
1.2996e-05
0.000939239
1.24532e-05
0.000935888
1.18591e-05
0.000932207
1.12756e-05
0.000928293
1.06215e-05
0.000924255
9.95653e-06
0.000920212
9.26626e-06
0.000916222
8.58183e-06
0.000912372
7.89673e-06
0.00090873
7.23965e-06
0.000905329
6.64469e-06
0.000902176
6.07098e-06
0.000899264
5.54904e-06
0.000896575
5.07102e-06
0.000894091
4.63419e-06
0.000891765
4.24771e-06
0.000889587
3.90075e-06
0.000887553
3.57606e-06
0.000885656
3.27304e-06
0.00088389
2.9885e-06
0.000882249
2.7206e-06
0.000880728
2.46625e-06
0.000879317
2.2271e-06
0.000878018
1.99045e-06
0.000876813
1.78558e-06
0.000875696
1.58718e-06
0.000874656
1.41424e-06
0.000873689
1.25798e-06
0.000872786
1.11483e-06
0.000871945
9.82421e-07
0.000871161
8.54273e-07
0.000870432
7.37219e-07
0.000869755
6.1961e-07
0.000869127
5.10975e-07
0.000868546
4.06282e-07
0.000868011
3.03996e-07
0.000867518
2.0206e-07
0.000867068
1.06715e-07
0.000866657
9.16367e-09
0.000866281
-7.23191e-08
0.000865938
-1.57951e-07
0.000865626
-2.39312e-07
0.000865344
-3.17892e-07
0.00086509
-3.87246e-07
0.000864862
-4.60087e-07
0.000864658
-5.22585e-07
0.00086448
-5.89085e-07
0.000864324
-6.5001e-07
0.00086419
-7.11083e-07
0.000864078
-7.63597e-07
0.000863987
-8.2376e-07
0.000863918
-8.78348e-07
0.000863869
-9.34127e-07
0.000863841
-9.84127e-07
0.000863831
-1.03812e-06
0.00086384
-1.08439e-06
0.000863864
-1.13278e-06
0.000863905
-1.17817e-06
0.00086396
-1.22081e-06
0.000864025
-1.25532e-06
0.000864102
-1.29178e-06
0.000864191
-1.32495e-06
0.000864291
-1.36015e-06
0.000864404
-1.39004e-06
0.000864527
-1.42256e-06
0.000864663
-1.45086e-06
0.000864809
-1.48267e-06
0.000864966
-1.5033e-06
0.000865136
-1.54678e-06
0.000865317
-1.56155e-06
0.00086551
-1.61264e-06
0.000865711
-1.62725e-06
0.000865922
-1.67172e-06
0.000866145
-1.67814e-06
0.000866374
-1.7157e-06
0.00086662
-1.7032e-06
0.000866866
-1.78897e-06
0.000867148
-1.77728e-06
0.000867431
-2.02356e-06
0.000867801
-1.99625e-06
0.000868271
-3.37214e-06
0.000869614
-2.19091e-06
-1.56515e-05
0.000869395
0.00102962
1.48958e-05
0.00103284
2.15826e-05
0.0010364
2.1732e-05
0.00104004
2.2663e-05
0.00104357
2.2702e-05
0.00104697
2.194e-05
0.00105012
2.07321e-05
0.00105301
1.94473e-05
0.00105566
1.82633e-05
0.00105807
1.71462e-05
0.00106022
1.60977e-05
0.00106216
1.52489e-05
0.00106386
1.4479e-05
0.00106537
1.38587e-05
0.00106667
1.33733e-05
0.00106777
1.29701e-05
0.00106865
1.26482e-05
0.0010693
1.23475e-05
0.00106968
1.20705e-05
0.00106975
1.17934e-05
0.00106951
1.15159e-05
0.00106894
1.11918e-05
0.00106801
1.08855e-05
0.0010667
1.05688e-05
0.00106504
1.02508e-05
0.00106302
9.91113e-06
0.00106071
9.54547e-06
0.00105818
9.1807e-06
0.00105547
8.77607e-06
0.00105266
8.36708e-06
0.00104977
7.95921e-06
0.00104689
7.5122e-06
0.00104405
7.08817e-06
0.0010413
6.65275e-06
0.00103864
6.23089e-06
0.00103611
5.80737e-06
0.0010337
5.39906e-06
0.00103142
5.0007e-06
0.00102927
4.61565e-06
0.00102725
4.24732e-06
0.00102536
3.88249e-06
0.00102355
3.58913e-06
0.00102184
3.30213e-06
0.00102022
3.0309e-06
0.00101871
2.77276e-06
0.00101729
2.53265e-06
0.00101596
2.30639e-06
0.00101473
2.09102e-06
0.00101358
1.88928e-06
0.0010125
1.69295e-06
0.00101151
1.50772e-06
0.00101058
1.33229e-06
0.00100972
1.15981e-06
0.00100893
9.96731e-07
0.00100819
8.4237e-07
0.00100751
6.93827e-07
0.00100687
5.6496e-07
0.00100628
4.34383e-07
0.00100573
3.12141e-07
0.00100522
1.93196e-07
0.00100474
8.43256e-08
0.00100431
-2.53266e-08
0.00100391
-1.22892e-07
0.00100354
-2.23895e-07
0.00100321
-3.18431e-07
0.00100291
-4.11439e-07
0.00100265
-4.95897e-07
0.00100241
-5.86623e-07
0.0010022
-6.73048e-07
0.00100203
-7.55655e-07
0.00100188
-8.3592e-07
0.00100175
-9.12668e-07
0.00100165
-9.85158e-07
0.00100157
-1.05332e-06
0.00100152
-1.12277e-06
0.00100148
-1.18308e-06
0.00100146
-1.2388e-06
0.00100147
-1.29394e-06
0.00100148
-1.34434e-06
0.00100152
-1.39417e-06
0.00100157
-1.4436e-06
0.00100164
-1.48922e-06
0.00100173
-1.53915e-06
0.00100182
-1.58023e-06
0.00100195
-1.62411e-06
0.00100207
-1.67468e-06
0.00100223
-1.71432e-06
0.00100238
-1.7684e-06
0.00100256
-1.80986e-06
0.00100274
-1.85052e-06
0.00100295
-1.88958e-06
0.00100316
-1.92144e-06
0.0010034
-1.94358e-06
0.00100363
-2.02169e-06
0.0010039
-2.04672e-06
0.00100418
-2.30366e-06
0.00100454
-2.35403e-06
0.00100493
-3.75702e-06
0.00100612
-3.38522e-06
-1.53833e-05
0.00100585
0.00113955
1.17858e-05
0.00114322
1.79106e-05
0.00114711
1.78446e-05
0.00115114
1.86308e-05
0.00115511
1.87344e-05
0.00115895
1.80906e-05
0.00116259
1.70992e-05
0.00116599
1.60432e-05
0.00116919
1.50633e-05
0.00117219
1.41461e-05
0.001175
1.32906e-05
0.00117765
1.25979e-05
0.00118015
1.19813e-05
0.00118252
1.14881e-05
0.00118478
1.11113e-05
0.00118694
1.08098e-05
0.00118901
1.05783e-05
0.00119098
1.03733e-05
0.00119286
1.01909e-05
0.00119464
1.00194e-05
0.0011963
9.85873e-06
0.00119782
9.6633e-06
0.00119921
9.49781e-06
0.00120045
9.33293e-06
0.00120151
9.19269e-06
0.00120238
9.04088e-06
0.00120302
8.89957e-06
0.00120345
8.75646e-06
0.0012036
8.62034e-06
0.00120347
8.4939e-06
0.0012031
8.33072e-06
0.00120247
8.14264e-06
0.0012016
7.96194e-06
0.0012005
7.75219e-06
0.00119919
7.5362e-06
0.00119771
7.29165e-06
0.00119607
7.03704e-06
0.00119431
6.76056e-06
0.00119246
6.46941e-06
0.00119054
6.16212e-06
0.00118859
5.83245e-06
0.00118664
5.54113e-06
0.0011847
5.24258e-06
0.0011828
4.93133e-06
0.00118095
4.62766e-06
0.00117916
4.32239e-06
0.00117743
4.02756e-06
0.00117579
3.73471e-06
0.00117423
3.45379e-06
0.00117274
3.17722e-06
0.00117134
2.91061e-06
0.00117001
2.65862e-06
0.00116876
2.41246e-06
0.00116756
2.20157e-06
0.0011664
1.99583e-06
0.0011653
1.79246e-06
0.00116426
1.60986e-06
0.00116327
1.42509e-06
0.00116233
1.24697e-06
0.00116145
1.07487e-06
0.00116063
9.10786e-07
0.00115985
7.51143e-07
0.00115913
5.98971e-07
0.00115845
4.49446e-07
0.00115783
3.03709e-07
0.00115725
1.65313e-07
0.00115673
3.34077e-08
0.00115624
-9.95157e-08
0.00115579
-2.28756e-07
0.00115538
-3.45596e-07
0.00115501
-4.62849e-07
0.00115467
-5.70384e-07
0.00115436
-6.74524e-07
0.00115408
-7.70797e-07
0.00115382
-8.70924e-07
0.0011536
-9.58513e-07
0.00115341
-1.04641e-06
0.00115324
-1.12965e-06
0.00115311
-1.20997e-06
0.001153
-1.28318e-06
0.00115291
-1.36108e-06
0.00115286
-1.43025e-06
0.00115282
-1.50555e-06
0.00115281
-1.57055e-06
0.00115283
-1.642e-06
0.00115286
-1.7031e-06
0.00115292
-1.7761e-06
0.00115299
-1.83986e-06
0.00115309
-1.91047e-06
0.0011532
-1.96014e-06
0.00115334
-2.02882e-06
0.00115349
-2.07254e-06
0.00115367
-2.1172e-06
0.00115386
-2.21309e-06
0.00115407
-2.25892e-06
0.00115431
-2.5482e-06
0.00115464
-2.68386e-06
0.00115499
-4.10053e-06
0.00115601
-4.41286e-06
-1.50108e-05
0.00115564
0.0012613
8.72109e-06
0.00126542
1.37889e-05
0.00126966
1.36041e-05
0.00127409
1.42034e-05
0.00127848
1.43382e-05
0.00128274
1.38304e-05
0.00128678
1.30623e-05
0.00129058
1.22418e-05
0.00129417
1.14733e-05
0.00129756
1.07594e-05
0.00130075
1.00977e-05
0.00130379
9.55866e-06
0.00130669
9.08411e-06
0.00130947
8.70235e-06
0.00131217
8.41365e-06
0.00131479
8.18601e-06
0.00131736
8.01424e-06
0.00131986
7.86604e-06
0.00132232
7.73612e-06
0.00132472
7.61864e-06
0.00132707
7.51018e-06
0.00132936
7.37541e-06
0.00133159
7.26146e-06
0.00133377
7.15476e-06
0.0013359
7.06747e-06
0.00133796
6.98018e-06
0.00133996
6.89993e-06
0.00134188
6.82927e-06
0.00134374
6.76617e-06
0.0013455
6.72991e-06
0.00134717
6.66327e-06
0.00134872
6.59219e-06
0.00135015
6.52846e-06
0.00135145
6.46042e-06
0.00135259
6.38897e-06
0.00135358
6.30831e-06
0.00135439
6.22731e-06
0.00135502
6.12809e-06
0.00135545
6.03509e-06
0.0013557
5.91813e-06
0.00135571
5.81927e-06
0.00135557
5.68496e-06
0.00135526
5.54688e-06
0.0013548
5.39481e-06
0.00135418
5.24172e-06
0.00135343
5.07251e-06
0.00135256
4.90011e-06
0.00135158
4.71137e-06
0.00135052
4.5184e-06
0.00134939
4.3105e-06
0.0013482
4.09658e-06
0.00134698
3.87883e-06
0.00134574
3.6513e-06
0.0013445
3.44112e-06
0.00134327
3.2292e-06
0.00134205
3.00707e-06
0.00134086
2.8046e-06
0.00133969
2.59259e-06
0.00133856
2.3778e-06
0.00133747
2.16941e-06
0.00133642
1.96129e-06
0.00133541
1.75967e-06
0.00133445
1.55988e-06
0.00133353
1.36551e-06
0.00133266
1.1729e-06
0.00133184
9.87882e-07
0.00133106
8.1195e-07
0.00133031
6.50464e-07
0.00132959
4.95607e-07
0.00132889
3.53361e-07
0.00132822
2.04503e-07
0.00132758
6.59135e-08
0.00132698
-7.314e-08
0.00132641
-2.02356e-07
0.00132588
-3.40565e-07
0.00132539
-4.61657e-07
0.00132493
-5.86767e-07
0.0013245
-7.05948e-07
0.00132412
-8.24357e-07
0.00132377
-9.33377e-07
0.00132345
-1.04861e-06
0.00132318
-1.15286e-06
0.00132294
-1.26323e-06
0.00132273
-1.36104e-06
0.00132255
-1.46704e-06
0.00132241
-1.55821e-06
0.00132229
-1.66373e-06
0.00132221
-1.7584e-06
0.00132215
-1.85255e-06
0.00132213
-1.93783e-06
0.00132213
-2.02426e-06
0.00132215
-2.09511e-06
0.0013222
-2.16371e-06
0.00132227
-2.28231e-06
0.00132237
-2.36738e-06
0.0013225
-2.67342e-06
0.00132273
-2.91792e-06
0.00132296
-4.32748e-06
0.00132376
-5.21223e-06
-1.44857e-05
0.00132323
0.00139614
5.65797e-06
0.00140075
9.18444e-06
0.00140539
8.95879e-06
0.00141024
9.35357e-06
0.00141511
9.47387e-06
0.00141982
9.11928e-06
0.00142428
8.59746e-06
0.00142849
8.03219e-06
0.00143247
7.49566e-06
0.00143623
7.00358e-06
0.00143977
6.54985e-06
0.00144315
6.17787e-06
0.00144639
5.85252e-06
0.0014495
5.58797e-06
0.00145252
5.38953e-06
0.00145548
5.23496e-06
0.00145837
5.12058e-06
0.00146121
5.02444e-06
0.00146401
4.94036e-06
0.00146676
4.86724e-06
0.00146947
4.80102e-06
0.00147213
4.71141e-06
0.00147476
4.63354e-06
0.00147735
4.56169e-06
0.00147991
4.50534e-06
0.00148245
4.44932e-06
0.00148495
4.39777e-06
0.00148742
4.35286e-06
0.00148987
4.31726e-06
0.0014923
4.30546e-06
0.00149469
4.27031e-06
0.00149705
4.23309e-06
0.00149938
4.20188e-06
0.00150166
4.17457e-06
0.00150391
4.14317e-06
0.0015061
4.11241e-06
0.00150825
4.07999e-06
0.00151034
4.0436e-06
0.00151236
4.00847e-06
0.00151431
3.96921e-06
0.00151619
3.94394e-06
0.00151797
3.90335e-06
0.00151966
3.85565e-06
0.00152124
3.80919e-06
0.00152272
3.76182e-06
0.00152408
3.71242e-06
0.00152532
3.66148e-06
0.00152643
3.60535e-06
0.0015274
3.54842e-06
0.00152823
3.48174e-06
0.00152891
3.41764e-06
0.00152945
3.33907e-06
0.00152983
3.26726e-06
0.0015301
3.16797e-06
0.00153024
3.09508e-06
0.00153026
2.98856e-06
0.00153017
2.89127e-06
0.00152999
2.77525e-06
0.00152971
2.6554e-06
0.00152935
2.53103e-06
0.00152891
2.4001e-06
0.00152841
2.2631e-06
0.00152785
2.11996e-06
0.00152724
1.97014e-06
0.0015266
1.81389e-06
0.00152593
1.65727e-06
0.00152525
1.49541e-06
0.00152456
1.34262e-06
0.00152386
1.1868e-06
0.00152318
1.04216e-06
0.00152249
8.85027e-07
0.00152182
7.3668e-07
0.00152117
5.84176e-07
0.00152053
4.3914e-07
0.00151991
2.79461e-07
0.0015193
1.38802e-07
0.00151873
-9.61301e-09
0.00151818
-1.55747e-07
0.00151765
-3.00904e-07
0.00151716
-4.3931e-07
0.00151669
-5.83032e-07
0.00151626
-7.1803e-07
0.00151585
-8.56293e-07
0.00151548
-9.84758e-07
0.00151513
-1.11749e-06
0.00151481
-1.23863e-06
0.00151451
-1.37099e-06
0.00151425
-1.49595e-06
0.00151401
-1.60883e-06
0.00151379
-1.72204e-06
0.00151359
-1.82344e-06
0.00151342
-1.92164e-06
0.00151326
-2.01039e-06
0.00151313
-2.14559e-06
0.00151303
-2.26582e-06
0.00151293
-2.57873e-06
0.00151293
-2.9156e-06
0.00151291
-4.30451e-06
0.00151333
-5.63088e-06
-1.36845e-05
0.00151252
0.00154551
2.52714e-06
0.00155064
4.05345e-06
0.00155576
3.84617e-06
0.00156107
4.03752e-06
0.00156645
4.0919e-06
0.00157167
3.90613e-06
0.0015766
3.65937e-06
0.00158126
3.3724e-06
0.00158567
3.09143e-06
0.00158983
2.8451e-06
0.00159376
2.61952e-06
0.0015975
2.43405e-06
0.00160108
2.27138e-06
0.00160453
2.13651e-06
0.00160789
2.03727e-06
0.00161116
1.96223e-06
0.00161437
1.91003e-06
0.00161752
1.86918e-06
0.00162063
1.83281e-06
0.00162369
1.80612e-06
0.00162671
1.7837e-06
0.00162968
1.73871e-06
0.00163262
1.69617e-06
0.00163552
1.65763e-06
0.0016384
1.62983e-06
0.00164125
1.6009e-06
0.00164407
1.57361e-06
0.00164688
1.54662e-06
0.00164967
1.53123e-06
0.00165244
1.5333e-06
0.00165519
1.51826e-06
0.00165792
1.49864e-06
0.00166064
1.48492e-06
0.00166334
1.47563e-06
0.00166602
1.46326e-06
0.00166868
1.45226e-06
0.00167132
1.4396e-06
0.00167394
1.42647e-06
0.00167654
1.41016e-06
0.00167911
1.39834e-06
0.00168165
1.39532e-06
0.00168417
1.38339e-06
0.00168667
1.36402e-06
0.00168913
1.349e-06
0.00169156
1.33289e-06
0.00169395
1.31962e-06
0.00169631
1.30437e-06
0.00169862
1.29071e-06
0.00170089
1.27533e-06
0.00170312
1.25936e-06
0.00170529
1.24385e-06
0.0017074
1.22679e-06
0.00170946
1.21009e-06
0.00171144
1.18545e-06
0.00171336
1.17715e-06
0.00171519
1.15348e-06
0.00171695
1.13394e-06
0.00171862
1.10694e-06
0.0017202
1.07709e-06
0.00172168
1.04921e-06
0.00172306
1.01774e-06
0.00172434
9.85035e-07
0.00172551
9.49035e-07
0.00172657
9.08637e-07
0.00172752
8.65447e-07
0.00172836
8.19754e-07
0.00172908
7.72709e-07
0.00172971
7.16068e-07
0.00173024
6.54999e-07
0.00173069
5.96345e-07
0.00173105
5.25752e-07
0.00173133
4.55084e-07
0.00173152
3.86803e-07
0.00173166
3.02604e-07
0.00173172
2.24181e-07
0.00173171
1.40695e-07
0.00173166
4.15985e-08
0.00173156
-5.38357e-08
0.00173141
-1.53868e-07
0.00173123
-2.53776e-07
0.00173101
-3.6192e-07
0.00173076
-4.68771e-07
0.00173048
-5.80202e-07
0.00173019
-6.88145e-07
0.00172987
-8.01277e-07
0.00172954
-9.0627e-07
0.00172919
-1.02725e-06
0.00172884
-1.13879e-06
0.00172846
-1.23664e-06
0.00172808
-1.33892e-06
0.00172769
-1.42982e-06
0.00172728
-1.51757e-06
0.00172687
-1.59801e-06
0.00172644
-1.7181e-06
0.00172601
-1.83667e-06
0.00172557
-2.13115e-06
0.00172516
-2.50982e-06
0.0017247
-3.84123e-06
0.00172456
-5.49346e-06
-1.24031e-05
0.00172328
0.001711
-7.93987e-07
0.00171671
-1.64985e-06
0.00172235
-1.79973e-06
0.0017282
-1.81421e-06
0.00173416
-1.86634e-06
0.00173993
-1.86481e-06
0.0017454
-1.80345e-06
0.00175056
-1.78645e-06
0.00175543
-1.7856e-06
0.00176004
-1.75897e-06
0.00176439
-1.7334e-06
0.00176853
-1.71083e-06
0.0017725
-1.69457e-06
0.00177632
-1.68562e-06
0.00178003
-1.67489e-06
0.00178366
-1.66197e-06
0.00178721
-1.64509e-06
0.00179071
-1.62468e-06
0.00179415
-1.60906e-06
0.00179754
-1.58392e-06
0.00180088
-1.55755e-06
0.00180417
-1.55501e-06
0.00180743
-1.55877e-06
0.00181065
-1.56163e-06
0.00181384
-1.55842e-06
0.001817
-1.55873e-06
0.00182013
-1.56071e-06
0.00182325
-1.56988e-06
0.00182634
-1.56488e-06
0.00182943
-1.54822e-06
0.00183249
-1.54484e-06
0.00183553
-1.54759e-06
0.00183856
-1.54514e-06
0.00184158
-1.53875e-06
0.00184458
-1.53431e-06
0.00184756
-1.52901e-06
0.00185052
-1.52538e-06
0.00185347
-1.52047e-06
0.0018564
-1.52365e-06
0.00185932
-1.51542e-06
0.00186222
-1.50288e-06
0.0018651
-1.49755e-06
0.00186796
-1.49828e-06
0.0018708
-1.49649e-06
0.00187363
-1.49496e-06
0.00187644
-1.49133e-06
0.00187924
-1.48897e-06
0.00188201
-1.48499e-06
0.00188477
-1.48247e-06
0.00188751
-1.47918e-06
0.00189023
-1.47671e-06
0.00189293
-1.47081e-06
0.00189561
-1.4719e-06
0.00189826
-1.46848e-06
0.0019009
-1.45674e-06
0.0019035
-1.45256e-06
0.00190608
-1.44762e-06
0.00190864
-1.44449e-06
0.00191116
-1.44401e-06
0.00191364
-1.43893e-06
0.0019161
-1.43584e-06
0.00191851
-1.4299e-06
0.00192089
-1.42631e-06
0.00192322
-1.42154e-06
0.0019255
-1.41788e-06
0.00192773
-1.41089e-06
0.00192991
-1.40287e-06
0.00193202
-1.39839e-06
0.00193407
-1.39325e-06
0.00193605
-1.38479e-06
0.00193796
-1.38092e-06
0.00193979
-1.37452e-06
0.00194153
-1.35743e-06
0.00194319
-1.35477e-06
0.00194475
-1.33779e-06
0.00194622
-1.32668e-06
0.00194758
-1.31755e-06
0.00194883
-1.30787e-06
0.00194997
-1.29233e-06
0.001951
-1.27842e-06
0.0019519
-1.26329e-06
0.00195268
-1.24948e-06
0.00195333
-1.23215e-06
0.00195386
-1.21509e-06
0.00195425
-1.19885e-06
0.00195452
-1.17639e-06
0.00195467
-1.17205e-06
0.00195467
-1.13893e-06
0.00195456
-1.1302e-06
0.00195434
-1.11919e-06
0.00195401
-1.09763e-06
0.00195357
-1.07548e-06
0.00195302
-1.0533e-06
0.00195237
-1.06816e-06
0.00195164
-1.10195e-06
0.0019508
-1.29289e-06
0.00194992
-1.62505e-06
0.00194887
-2.79564e-06
0.00194791
-4.53556e-06
-1.03168e-05
0.00194583
0.00171104
-4.14954e-06
0.00171675
-7.36515e-06
0.0017224
-7.44967e-06
0.00172826
-7.67165e-06
0.00173422
-7.82876e-06
0.00174
-7.6366e-06
0.00174546
-7.26418e-06
0.00175062
-6.94627e-06
0.00175549
-6.66378e-06
0.0017601
-6.36281e-06
0.00176445
-6.08688e-06
0.0017686
-5.85567e-06
0.00177256
-5.66059e-06
0.00177638
-5.50823e-06
0.0017801
-5.38738e-06
0.00178372
-5.28672e-06
0.00178728
-5.2006e-06
0.00179077
-5.11863e-06
0.00179421
-5.05189e-06
0.0017976
-4.97396e-06
0.00180094
-4.89804e-06
0.00180424
-4.84911e-06
0.00180749
-4.81384e-06
0.00181071
-4.78138e-06
0.0018139
-4.7466e-06
0.00181706
-4.71854e-06
0.0018202
-4.6948e-06
0.00182331
-4.68742e-06
0.00182641
-4.66119e-06
0.00182949
-4.629e-06
0.00183255
-4.6079e-06
0.0018356
-4.59379e-06
0.00183863
-4.5748e-06
0.00184164
-4.55239e-06
0.00184464
-4.53104e-06
0.00184762
-4.50877e-06
0.00185058
-4.48875e-06
0.00185353
-4.46466e-06
0.00185646
-4.45523e-06
0.00185937
-4.42617e-06
0.00186226
-4.3966e-06
0.00186514
-4.37385e-06
0.001868
-4.35499e-06
0.00187083
-4.33534e-06
0.00187365
-4.31503e-06
0.00187646
-4.29335e-06
0.00187924
-4.27174e-06
0.001882
-4.24848e-06
0.00188475
-4.22588e-06
0.00188747
-4.20129e-06
0.00189017
-4.17804e-06
0.00189284
-4.14574e-06
0.0018955
-4.12782e-06
0.00189813
-4.0938e-06
0.00190072
-4.05536e-06
0.00190329
-4.02059e-06
0.00190583
-3.98335e-06
0.00190833
-3.94573e-06
0.00191079
-3.90626e-06
0.00191322
-3.86192e-06
0.00191559
-3.81391e-06
0.00191792
-3.76158e-06
0.0019202
-3.70581e-06
0.00192243
-3.64662e-06
0.00192459
-3.58164e-06
0.00192669
-3.51096e-06
0.00192872
-3.43417e-06
0.00193068
-3.35597e-06
0.00193256
-3.27421e-06
0.00193436
-3.18014e-06
0.00193607
-3.09323e-06
0.00193769
-2.99122e-06
0.00193921
-2.88098e-06
0.00194063
-2.77479e-06
0.00194195
-2.65598e-06
0.00194316
-2.53596e-06
0.00194426
-2.41538e-06
0.00194524
-2.29015e-06
0.00194611
-2.15971e-06
0.00194685
-2.02578e-06
0.00194748
-1.89325e-06
0.00194799
-1.75799e-06
0.00194839
-1.63262e-06
0.00194869
-1.50789e-06
0.00194888
-1.38912e-06
0.00194896
-1.25944e-06
0.00194893
-1.14115e-06
0.00194881
-1.0206e-06
0.00194859
-9.12954e-07
0.00194828
-8.05248e-07
0.00194787
-6.90026e-07
0.00194737
-5.76215e-07
0.00194678
-4.67013e-07
0.00194611
-3.92783e-07
0.00194536
-3.47956e-07
0.0019445
-4.40736e-07
0.00194358
-7.02124e-07
0.00194248
-1.6915e-06
0.00194129
-3.35002e-06
-8.14609e-06
0.00193912
0.0015456
-7.3736e-06
0.00155077
-1.2526e-05
0.00155589
-1.25734e-05
0.00156122
-1.30026e-05
0.00156661
-1.32212e-05
0.00157183
-1.28526e-05
0.00157676
-1.21967e-05
0.00158142
-1.16086e-05
0.00158583
-1.10711e-05
0.00158999
-1.05205e-05
0.00159392
-1.00189e-05
0.00159766
-9.59904e-06
0.00160125
-9.24204e-06
0.0016047
-8.96068e-06
0.00160805
-8.7406e-06
0.00161133
-8.56063e-06
0.00161454
-8.41222e-06
0.00161769
-8.2738e-06
0.0016208
-8.162e-06
0.00162386
-8.0347e-06
0.00162688
-7.913e-06
0.00162985
-7.82228e-06
0.00163279
-7.75096e-06
0.00163569
-7.68572e-06
0.00163857
-7.62062e-06
0.00164141
-7.56545e-06
0.00164423
-7.516e-06
0.00164704
-7.49332e-06
0.00164982
-7.44412e-06
0.00165259
-7.39508e-06
0.00165534
-7.35508e-06
0.00165806
-7.32199e-06
0.00166077
-7.28386e-06
0.00166346
-7.24187e-06
0.00166613
-7.19966e-06
0.00166878
-7.15535e-06
0.0016714
-7.11295e-06
0.001674
-7.06164e-06
0.00167658
-7.03199e-06
0.00167912
-6.9704e-06
0.00168164
-6.91151e-06
0.00168412
-6.85671e-06
0.00168657
-6.80163e-06
0.00168897
-6.74448e-06
0.00169134
-6.68283e-06
0.00169367
-6.61727e-06
0.00169594
-6.54674e-06
0.00169816
-6.47098e-06
0.00170033
-6.39005e-06
0.00170243
-6.30219e-06
0.00170446
-6.21008e-06
0.00170641
-6.09972e-06
0.00170829
-6.00548e-06
0.00171008
-5.88015e-06
0.00171177
-5.75079e-06
0.00171337
-5.61718e-06
0.00171486
-5.47654e-06
0.00171625
-5.32901e-06
0.00171752
-5.17524e-06
0.00171867
-5.01198e-06
0.00171969
-4.8421e-06
0.0017206
-4.66438e-06
0.00172137
-4.48261e-06
0.00172202
-4.29625e-06
0.00172256
-4.11436e-06
0.00172298
-3.93937e-06
0.00172331
-3.76325e-06
0.00172355
-3.58796e-06
0.00172369
-3.41426e-06
0.00172374
-3.23041e-06
0.0017237
-3.05844e-06
0.0017236
-2.8892e-06
0.00172343
-2.71507e-06
0.00172321
-2.5467e-06
0.00172292
-2.37525e-06
0.0017226
-2.20839e-06
0.00172223
-2.04715e-06
0.00172183
-1.88872e-06
0.0017214
-1.73112e-06
0.00172095
-1.57614e-06
0.00172048
-1.42743e-06
0.00172001
-1.28223e-06
0.00171953
-1.15145e-06
0.00171904
-1.02464e-06
0.00171856
-9.03202e-07
0.00171807
-7.7594e-07
0.00171759
-6.56395e-07
0.00171711
-5.37567e-07
0.00171662
-4.29267e-07
0.00171614
-3.2208e-07
0.00171566
-2.08506e-07
0.00171518
-9.70702e-08
0.0017147
1.17087e-08
0.00171422
8.93599e-08
0.00171373
1.36941e-07
0.00171322
6.85839e-08
0.00171269
-1.67471e-07
0.00171203
-1.03124e-06
0.00171123
-2.55298e-06
-6.56726e-06
0.00170965
0.00139628
-1.05773e-05
0.00140093
-1.71734e-05
0.00140559
-1.72371e-05
0.00141046
-1.78706e-05
0.00141534
-1.80988e-05
0.00142006
-1.75694e-05
0.00142451
-1.6653e-05
0.00142873
-1.58222e-05
0.00143271
-1.50531e-05
0.00143646
-1.42749e-05
0.00144001
-1.35693e-05
0.00144339
-1.29787e-05
0.00144663
-1.24739e-05
0.00144974
-1.20757e-05
0.00145277
-1.17655e-05
0.00145572
-1.15118e-05
0.00145861
-1.13057e-05
0.00146145
-1.1112e-05
0.00146424
-1.09585e-05
0.00146699
-1.07808e-05
0.00146969
-1.06139e-05
0.00147235
-1.04804e-05
0.00147497
-1.03717e-05
0.00147756
-1.02703e-05
0.00148011
-1.0171e-05
0.00148262
-1.0083e-05
0.00148511
-1.00005e-05
0.00148757
-9.95353e-06
0.00148999
-9.86912e-06
0.00149239