/*--------------------------------*- C++ -*----------------------------------*\
| =========                 |                                                 |
| \\      /  F ield         | OpenFOAM: The Open Source CFD Toolbox           |
|  \\    /   O peration     | Version:  v2012                                 |
|   \\  /    A nd           | Website:  www.openfoam.com                      |
|    \\/     M anipulation  |                                                 |
\*---------------------------------------------------------------------------*/
FoamFile
{
    version     2.0;
    format      ascii;
    class       volScalarField;
    location    "0.142";
    object      k.air;
}
// * * * * * * * * * * * * * * * * * * * * * * * * * * * * * * * * * * * * * //

dimensions      [0 2 -2 0 0 0 0];


internalField   nonuniform List<scalar> 
5600
(
0.652656
1.46976
2.41624
3.0783
3.37894
3.41875
3.3153
3.14796
2.97071
2.81217
2.67481
2.56182
2.47567
2.4138
2.37491
2.35234
2.34413
2.34282
2.34763
2.35303
2.35972
2.36445
2.36918
2.37175
2.37488
2.37649
2.37923
2.38067
2.38324
2.38452
2.38696
2.38779
2.38961
2.38972
2.39069
2.39004
2.3904
2.38921
2.3892
2.38768
2.38748
2.38575
2.38556
2.38376
2.38367
2.38199
2.38211
2.38057
2.3809
2.37945
2.37998
2.37856
2.37929
2.37789
2.37879
2.37743
2.37848
2.37721
2.37841
2.3773
2.37869
2.37769
2.37933
2.37834
2.38032
2.37931
2.38162
2.38056
2.38321
2.38207
2.38509
2.38379
2.38723
2.3857
2.38963
2.38779
2.39226
2.39006
2.3951
2.39247
2.39811
2.39504
2.40121
2.39781
2.40431
2.401
2.40714
2.40495
2.40904
2.41062
2.40848
2.42044
2.40174
2.44162
2.37526
2.49873
2.27896
2.68587
1.89364
3.3677
0.40299
0.378516
0.397579
0.451288
0.512338
0.589949
0.674355
0.793051
0.9394
1.10172
1.2841
1.47541
1.6686
1.85293
2.02282
2.17105
2.29626
2.39502
2.47171
2.52503
2.56404
2.58759
2.60642
2.61628
2.62767
2.63296
2.64225
2.64496
2.65172
2.65249
2.6567
2.65481
2.65682
2.65295
2.65386
2.6493
2.65008
2.64562
2.64661
2.64236
2.64368
2.63972
2.64153
2.63804
2.64054
2.63748
2.64045
2.63752
2.64082
2.6378
2.64146
2.63825
2.64228
2.63895
2.64332
2.64
2.64472
2.64154
2.64669
2.64356
2.64923
2.64609
2.65234
2.64905
2.65593
2.6523
2.65989
2.65579
2.66411
2.65941
2.66854
2.66311
2.67331
2.66686
2.67829
2.67059
2.68344
2.67428
2.68879
2.67794
2.69429
2.68161
2.69985
2.68539
2.70532
2.68973
2.71035
2.69525
2.71378
2.70361
2.71294
2.71891
2.70143
2.75037
2.66481
2.82139
2.5629
2.9924
2.27663
3.4005
0.405529
0.34508
0.301215
0.271497
0.25184
0.239728
0.234972
0.235731
0.248224
0.265843
0.295947
0.335037
0.388292
0.451037
0.527044
0.611269
0.70586
0.805641
0.911306
1.01728
1.12454
1.22772
1.33044
1.42702
1.52192
1.60062
1.67209
1.72642
1.77751
1.81403
1.84943
1.8744
1.9012
1.91832
1.93908
1.95127
1.96819
1.97665
1.99062
1.99633
2.00848
2.01248
2.02383
2.02692
2.03784
2.04041
2.05092
2.05268
2.06277
2.06359
2.07346
2.07338
2.08315
2.08246
2.09216
2.09119
2.10093
2.09984
2.10971
2.1084
2.11855
2.11684
2.12744
2.12513
2.13629
2.13316
2.14501
2.14093
2.15352
2.14846
2.16196
2.15575
2.17045
2.16282
2.17893
2.1696
2.18736
2.17606
2.19585
2.18218
2.20439
2.18803
2.21293
2.19369
2.22136
2.1993
2.22962
2.20526
2.23707
2.21228
2.24254
2.22248
2.24316
2.24008
2.23293
2.27425
2.1991
2.34035
2.12518
2.39131
0.406312
0.34437
0.298353
0.262263
0.235312
0.211852
0.195393
0.179014
0.169303
0.158277
0.154263
0.148541
0.150501
0.151078
0.160051
0.168904
0.186975
0.206757
0.236741
0.270091
0.314766
0.362758
0.422873
0.485269
0.560884
0.637515
0.724786
0.808491
0.897574
0.976371
1.05456
1.12083
1.1867
1.23985
1.29295
1.33322
1.3763
1.40735
1.44316
1.46762
1.49885
1.51896
1.54722
1.56366
1.58828
1.60043
1.62148
1.63037
1.64932
1.65567
1.67334
1.67776
1.69457
1.69781
1.71398
1.71659
1.73231
1.73436
1.74974
1.75106
1.76629
1.76665
1.78197
1.78121
1.79681
1.79483
1.81084
1.80764
1.82424
1.81976
1.83726
1.8313
1.85004
1.84249
1.86269
1.85323
1.87507
1.86339
1.88726
1.87297
1.89928
1.88201
1.91108
1.89065
1.92254
1.89886
1.93366
1.90713
1.94405
1.91602
1.95285
1.92677
1.95847
1.94177
1.95837
1.96383
1.95114
1.9893
1.95016
1.97447
0.406501
0.344211
0.298684
0.261895
0.235115
0.210299
0.193581
0.175181
0.164517
0.149912
0.14322
0.1313
0.127272
0.117717
0.115623
0.108339
0.108181
0.103149
0.105726
0.10304
0.109656
0.11014
0.122252
0.128027
0.14735
0.161682
0.190818
0.216961
0.25804
0.296337
0.347724
0.394451
0.453319
0.506531
0.571495
0.628153
0.692548
0.745844
0.806133
0.853667
0.908533
0.949538
0.998829
1.03363
1.07717
1.10547
1.14397
1.16686
1.20134
1.21954
1.2511
1.26575
1.29516
1.30756
1.33522
1.34611
1.37192
1.38057
1.40458
1.41124
1.43409
1.43883
1.46102
1.46389
1.48576
1.4869
1.50865
1.50823
1.53017
1.52823
1.5507
1.54717
1.57039
1.56493
1.58898
1.58138
1.60661
1.59673
1.62343
1.61111
1.63956
1.62469
1.655
1.63756
1.66968
1.64987
1.68364
1.66216
1.69662
1.67505
1.70796
1.68919
1.71689
1.70523
1.72332
1.72274
1.72972
1.73612
1.74532
1.73044
0.406703
0.34394
0.298973
0.261618
0.235513
0.209971
0.194045
0.174747
0.164876
0.149344
0.143104
0.130352
0.126145
0.115636
0.112811
0.103713
0.102453
0.0937776
0.0945394
0.0855476
0.0885385
0.0792255
0.0840163
0.0751381
0.0812634
0.0736058
0.0813066
0.0754987
0.0858409
0.0825931
0.0970828
0.0976584
0.117301
0.123556
0.149395
0.163134
0.195758
0.216517
0.255741
0.282306
0.326826
0.357458
0.405372
0.439001
0.489999
0.526007
0.576757
0.610845
0.660183
0.691039
0.738068
0.765287
0.809254
0.833155
0.873887
0.894785
0.932602
0.95029
0.985573
1.00079
1.03426
1.04681
1.07887
1.08886
1.11983
1.12755
1.15772
1.16349
1.19326
1.19724
1.2269
1.22902
1.25844
1.25812
1.28728
1.28474
1.31389
1.30925
1.33862
1.33204
1.36171
1.35351
1.38333
1.37384
1.40346
1.39331
1.42224
1.41243
1.43973
1.43165
1.45582
1.45093
1.4704
1.46974
1.48426
1.48715
1.4993
1.50123
1.51669
1.51209
0.406925
0.343675
0.299218
0.261303
0.235835
0.209617
0.194411
0.174498
0.165121
0.149374
0.143109
0.130616
0.126052
0.115746
0.112947
0.103224
0.102897
0.092559
0.0948467
0.083714
0.0879256
0.0766486
0.0817236
0.0708746
0.0765208
0.0657055
0.0725057
0.0610431
0.0695099
0.0571907
0.0673116
0.0546881
0.0660396
0.0537963
0.0665222
0.0549257
0.0696938
0.0590348
0.076482
0.0677037
0.087793
0.0823904
0.105188
0.104161
0.13033
0.13411
0.164522
0.172211
0.206871
0.218375
0.256463
0.271666
0.311724
0.329978
0.370976
0.391206
0.432756
0.454793
0.496917
0.51794
0.559389
0.578785
0.619363
0.636821
0.676251
0.691666
0.729727
0.743117
0.779901
0.79128
0.826974
0.836396
0.871025
0.878585
0.912483
0.918685
0.951616
0.95642
0.988251
0.991868
1.02247
1.0254
1.05447
1.05718
1.08433
1.08743
1.11234
1.11658
1.13894
1.14486
1.16425
1.17164
1.18772
1.19622
1.20993
1.21885
1.23151
1.23999
1.25133
1.26041
0.407038
0.343584
0.299313
0.261185
0.23592
0.20954
0.194348
0.174679
0.164741
0.149924
0.14249
0.131285
0.125599
0.116072
0.113017
0.103033
0.103343
0.0922322
0.0950842
0.083791
0.0875603
0.0771574
0.0810107
0.0712329
0.0759827
0.0653909
0.072124
0.0601127
0.0685546
0.0558361
0.0650122
0.0523001
0.061976
0.0488248
0.0598818
0.0454162
0.0583025
0.0427329
0.0567117
0.0411989
0.0552846
0.0404349
0.0549389
0.0401548
0.0561554
0.0408481
0.0589746
0.0437639
0.0633054
0.0497736
0.069946
0.0594476
0.079974
0.0730164
0.0945545
0.0911651
0.114378
0.114358
0.140035
0.142851
0.170878
0.176264
0.20644
0.2144
0.246306
0.256608
0.289714
0.301782
0.335755
0.348919
0.383374
0.397179
0.431857
0.446645
0.480398
0.495066
0.527674
0.542105
0.573257
0.587515
0.61692
0.631287
0.658638
0.673183
0.698179
0.712981
0.735593
0.750912
0.771319
0.787243
0.805513
0.821661
0.837778
0.854066
0.868404
0.884998
0.897441
0.914751
0.924203
0.942658
0.406943
0.343778
0.299132
0.26146
0.235597
0.209983
0.193746
0.175403
0.163831
0.150858
0.141512
0.132129
0.124893
0.116613
0.112619
0.103461
0.102863
0.0930125
0.0940657
0.08518
0.0860142
0.0788185
0.0794637
0.0726414
0.0747449
0.0665718
0.0708594
0.0615919
0.0667403
0.0579008
0.0626914
0.0545119
0.0596574
0.0506866
0.0575958
0.0470742
0.0553841
0.0445912
0.0525741
0.042909
0.0500312
0.0408686
0.0485838
0.0382776
0.0477104
0.0360413
0.0464824
0.0348508
0.0447862
0.034356
0.0433091
0.0341294
0.0424393
0.0341279
0.0422892
0.0346606
0.0430075
0.0358433
0.0448474
0.0381475
0.0479663
0.0420828
0.0524828
0.0480874
0.0590236
0.0564074
0.0681554
0.0673412
0.08028
0.0815133
0.0956827
0.0993219
0.11461
0.120911
0.137186
0.145795
0.163056
0.173859
0.191865
0.204793
0.223367
0.238393
0.257357
0.274161
0.2931
0.31119
0.329778
0.348881
0.367132
0.387089
0.404883
0.425402
0.442581
0.462834
0.478743
0.498669
0.513659
0.533275
0.547424
0.566062
0.406719
0.344154
0.298738
0.262016
0.23501
0.210694
0.193012
0.176151
0.163077
0.151517
0.140846
0.132689
0.124267
0.117259
0.111816
0.104425
0.10173
0.0943359
0.0926594
0.0866944
0.0845327
0.0803012
0.0780372
0.0740923
0.0732129
0.0682476
0.0689905
0.0636345
0.0645504
0.0601794
0.0604003
0.0568258
0.0573493
0.0531163
0.0550483
0.0498482
0.0524401
0.0476776
0.0494165
0.0459744
0.0469285
0.0437735
0.0453882
0.0412868
0.0440068
0.0393913
0.0421247
0.0382261
0.0400655
0.0371645
0.0383724
0.0359512
0.0369866
0.03478
0.0357104
0.0337462
0.0346024
0.0327219
0.0337203
0.0318104
0.0329268
0.0311805
0.032166
0.0308131
0.0316458
0.0306231
0.0314784
0.0307052
0.03166
0.031278
0.0322749
0.0324469
0.0335336
0.0343104
0.0356778
0.0371269
0.0389014
0.0411657
0.0434349
0.046627
0.0495879
0.0538666
0.057721
0.0632629
0.0681085
0.0749945
0.0809522
0.0892208
0.0965871
0.106381
0.115394
0.126742
0.137231
0.149738
0.161313
0.17474
0.187678
0.202068
0.216472
0.231638
0.406568
0.34443
0.298415
0.262461
0.234554
0.211182
0.192617
0.17645
0.162908
0.151566
0.140811
0.132725
0.12406
0.117614
0.111222
0.10516
0.100904
0.0951469
0.0919484
0.0873022
0.0840343
0.080793
0.0774884
0.0747883
0.0723393
0.0692549
0.0678986
0.0646846
0.0635628
0.0610535
0.0595548
0.0576978
0.0563468
0.0542833
0.0537367
0.0512312
0.0510962
0.0489038
0.0483408
0.0469303
0.0459853
0.0447826
0.0442112
0.0425986
0.0425668
0.0408245
0.0407475
0.039445
0.038984
0.0381156
0.0375101
0.0367728
0.0362254
0.0355595
0.0350273
0.0345011
0.0339733
0.0335366
0.0331092
0.0327169
0.0324014
0.0321261
0.0318732
0.0317887
0.0316328
0.0317496
0.0317608
0.0321334
0.0323517
0.0330832
0.0335838
0.0347489
0.0356795
0.0373476
0.0388577
0.0411505
0.043351
0.0464382
0.0494762
0.0534839
0.057543
0.0626196
0.0678552
0.074202
0.0807232
0.0884817
0.0963852
0.105578
0.114951
0.125609
0.136546
0.148547
0.160835
0.174049
0.187482
0.201653
0.216045
0.231083
0.246543
0.262678
0.406538
0.344505
0.2983
0.262642
0.234354
0.211403
0.192465
0.17653
0.162957
0.151411
0.141032
0.132491
0.124198
0.117596
0.111051
0.105457
0.100515
0.0955103
0.0916721
0.0874383
0.0840178
0.0807467
0.0775006
0.0748753
0.0720948
0.0696054
0.0674728
0.0650519
0.0632678
0.0612077
0.0594473
0.0577915
0.0561516
0.0546
0.0533133
0.0517147
0.0506985
0.0492411
0.0482363
0.0470678
0.0460568
0.0450384
0.044206
0.0431986
0.0425728
0.0416741
0.0411288
0.0404704
0.0400039
0.0395693
0.0393098
0.0390943
0.039123
0.0392366
0.0396136
0.0401917
0.0410584
0.0422413
0.0437921
0.0457576
0.0481827
0.0511486
0.0546766
0.0588653
0.0637578
0.0694023
0.0758955
0.0832497
0.0915305
0.100807
0.11103
0.122372
0.134556
0.147663
0.161591
0.176383
0.191944
0.20832
0.225347
0.243093
0.261339
0.280187
0.299382
0.319039
0.338834
0.358924
0.378936
0.399116
0.419121
0.439596
0.459591
0.479573
0.499023
0.518408
0.537131
0.555692
0.573556
0.591309
0.608632
0.626137
0.406533
0.344502
0.298312
0.262655
0.234342
0.211455
0.192424
0.176574
0.162953
0.151364
0.141126
0.132345
0.124332
0.117474
0.111078
0.105487
0.100388
0.0956414
0.0915298
0.0874924
0.0840084
0.0806631
0.077574
0.0747977
0.0720839
0.0696668
0.0673577
0.0651873
0.0632123
0.061298
0.0595601
0.0579047
0.0563843
0.0549513
0.0536711
0.0524544
0.0514346
0.0504725
0.0497694
0.0491117
0.0488439
0.0485961
0.0489033
0.0492903
0.0503362
0.0516888
0.053752
0.0563745
0.0598728
0.0640964
0.0694812
0.0757275
0.083396
0.0920974
0.102405
0.113923
0.127226
0.141749
0.157789
0.175025
0.193688
0.213458
0.234486
0.256441
0.279432
0.303052
0.32747
0.352152
0.37742
0.402667
0.428448
0.454475
0.480217
0.505594
0.530601
0.555191
0.579312
0.602972
0.626095
0.648718
0.67076
0.692328
0.713312
0.733853
0.753803
0.773337
0.792274
0.810833
0.828859
0.84649
0.863734
0.880859
0.897453
0.913839
0.92954
0.944987
0.959755
0.974378
0.988589
1.00304
0.406511
0.344523
0.298321
0.262649
0.234367
0.211437
0.192425
0.176571
0.16292
0.151361
0.141094
0.132305
0.124328
0.117407
0.111067
0.105451
0.100327
0.0956652
0.0914529
0.0875407
0.0840095
0.0807229
0.0777179
0.0749666
0.0724082
0.0701335
0.0679983
0.0661875
0.0645132
0.0632119
0.0621277
0.0614722
0.0611991
0.061497
0.0623722
0.0641203
0.0666774
0.0704819
0.0754269
0.0819746
0.0901023
0.100127
0.112181
0.126474
0.143243
0.162126
0.183314
0.20659
0.231931
0.259077
0.287864
0.317911
0.349049
0.380869
0.413373
0.446566
0.480503
0.513985
0.54698
0.579318
0.610971
0.64181
0.671797
0.700885
0.729043
0.756289
0.782631
0.808101
0.83274
0.856575
0.879611
0.901814
0.923466
0.944489
0.964865
0.984596
1.00367
1.02213
1.03997
1.05725
1.07398
1.09026
1.10607
1.12152
1.13654
1.15127
1.16557
1.17967
1.19326
1.20645
1.2192
1.23166
1.24368
1.25542
1.26666
1.27769
1.28825
1.29879
1.30908
1.31971
0.406477
0.344574
0.298281
0.262672
0.234326
0.211416
0.192374
0.176531
0.162838
0.151335
0.140987
0.132311
0.124242
0.117476
0.111083
0.105675
0.100571
0.0962308
0.092174
0.088775
0.0856558
0.0831896
0.0810736
0.0796838
0.0788584
0.0789864
0.0800423
0.0825017
0.0864883
0.0925423
0.100828
0.111859
0.125927
0.143523
0.165014
0.190295
0.219171
0.251594
0.287025
0.325157
0.365301
0.407182
0.450608
0.496036
0.541951
0.587207
0.631616
0.674721
0.716382
0.756344
0.794569
0.83097
0.865675
0.898621
0.930043
0.959757
0.987874
1.01475
1.04045
1.06496
1.08838
1.11074
1.13213
1.15266
1.17237
1.19141
1.20981
1.22769
1.24503
1.26193
1.2781
1.2935
1.30822
1.3223
1.33581
1.3488
1.3613
1.37338
1.38502
1.3963
1.40723
1.41785
1.4282
1.43827
1.44812
1.45773
1.46718
1.47641
1.48555
1.49449
1.50334
1.51195
1.5204
1.52861
1.5366
1.5444
1.55199
1.55959
1.56712
1.57506
0.406422
0.344639
0.298165
0.262692
0.234172
0.211413
0.192282
0.176613
0.162916
0.151706
0.141474
0.133407
0.1257
0.120062
0.114521
0.11107
0.107773
0.106777
0.106239
0.108439
0.111687
0.118485
0.127277
0.140794
0.157845
0.181264
0.209886
0.245957
0.287845
0.335533
0.387398
0.443269
0.502692
0.565327
0.629535
0.692847
0.754188
0.813142
0.868962
0.92173
0.971095
1.01739
1.06051
1.10018
1.1368
1.17053
1.20174
1.23051
1.25729
1.28224
1.30575
1.32801
1.34931
1.36966
1.38922
1.40745
1.42468
1.44091
1.45634
1.47097
1.48491
1.49821
1.51091
1.5231
1.5348
1.5461
1.55702
1.56765
1.57799
1.58809
1.59802
1.60757
1.61677
1.62565
1.63426
1.64263
1.65076
1.65867
1.66636
1.67385
1.68118
1.68833
1.69534
1.70217
1.70892
1.71547
1.72203
1.72839
1.73481
1.74106
1.74739
1.7535
1.75967
1.76555
1.77151
1.77716
1.78294
1.78859
1.79435
1.80064
0.406239
0.344726
0.297892
0.262964
0.234563
0.212929
0.194637
0.180568
0.168906
0.160812
0.154763
0.152773
0.15286
0.15789
0.165641
0.17965
0.197606
0.223419
0.254711
0.295315
0.342298
0.399002
0.461841
0.534612
0.613766
0.700414
0.789475
0.880909
0.96835
1.05012
1.12509
1.19359
1.25507
1.30946
1.35722
1.39976
1.43752
1.47147
1.5021
1.53043
1.55658
1.58128
1.60374
1.62431
1.64261
1.659
1.674
1.68769
1.70041
1.71221
1.72333
1.73383
1.74393
1.75362
1.76313
1.7723
1.78126
1.78992
1.79836
1.80652
1.81444
1.82211
1.82952
1.83672
1.8437
1.85048
1.85711
1.86356
1.86992
1.87615
1.88231
1.88842
1.89442
1.90033
1.90613
1.91183
1.91743
1.92293
1.92834
1.93364
1.93888
1.944
1.94908
1.95402
1.95897
1.96374
1.9686
1.97326
1.97804
1.98264
1.9874
1.99193
1.99664
2.00101
2.00563
2.00985
2.01444
2.01879
2.02335
2.02846
0.405172
0.345755
0.300576
0.273065
0.251893
0.243161
0.237232
0.242471
0.255972
0.278273
0.311082
0.356785
0.413916
0.48403
0.564619
0.656215
0.755612
0.8624
0.972048
1.08417
1.19386
1.30283
1.40665
1.50932
1.59995
1.67792
1.74301
1.79709
1.84263
1.87977
1.91077
1.9372
1.95935
1.9784
1.99498
2.00954
2.02211
2.03318
2.04282
2.0516
2.05953
2.06712
2.07427
2.08115
2.08789
2.09425
2.10034
2.10601
2.11142
2.11648
2.12131
2.12592
2.13039
2.13473
2.13906
2.14335
2.14767
2.15195
2.15627
2.16057
2.16488
2.16915
2.1734
2.1776
2.18176
2.18584
2.18992
2.19388
2.19787
2.20175
2.20566
2.20953
2.21338
2.21718
2.22092
2.22463
2.2283
2.23194
2.23558
2.23915
2.24273
2.24625
2.2498
2.25325
2.25677
2.26017
2.26369
2.26705
2.27056
2.27389
2.27745
2.28078
2.2843
2.28752
2.29106
2.29423
2.29781
2.30118
2.30479
2.30897
0.402026
0.380612
0.399
0.460065
0.520839
0.609975
0.694886
0.833821
0.986035
1.15951
1.35054
1.54936
1.74675
1.93378
2.10334
2.25031
2.37164
2.46733
2.53843
2.58943
2.62337
2.64674
2.66213
2.67346
2.68251
2.69025
2.69628
2.70103
2.70445
2.70667
2.70744
2.70701
2.70554
2.70352
2.70105
2.69868
2.69624
2.69405
2.69186
2.68997
2.68815
2.68673
2.68553
2.68472
2.6842
2.68383
2.68362
2.68346
2.6834
2.68337
2.6834
2.68348
2.68364
2.68388
2.68424
2.68472
2.68538
2.68617
2.68713
2.68823
2.68949
2.69085
2.69235
2.69392
2.69559
2.6973
2.69911
2.70091
2.70281
2.70471
2.70669
2.70869
2.71076
2.71285
2.71495
2.71706
2.7192
2.72134
2.72353
2.72572
2.72797
2.73019
2.7325
2.73475
2.73712
2.73941
2.74185
2.7442
2.74669
2.74907
2.75164
2.75404
2.75664
2.75906
2.76168
2.76422
2.76684
2.76961
2.77235
2.7754
0.651835
1.46961
2.41427
3.07066
3.36111
3.39274
3.28086
3.10738
2.92911
2.77001
2.63153
2.51962
2.43482
2.37614
2.33913
2.31997
2.31267
2.31367
2.3182
2.32462
2.3304
2.33552
2.33938
2.34239
2.34495
2.34726
2.34949
2.35158
2.35352
2.35535
2.35689
2.35817
2.35896
2.35935
2.35931
2.35895
2.3583
2.35747
2.35645
2.35534
2.35414
2.35292
2.3517
2.35052
2.34942
2.34842
2.34752
2.34669
2.34595
2.34526
2.34464
2.34408
2.34356
2.3431
2.3427
2.34235
2.34208
2.34188
2.34178
2.34176
2.34183
2.34198
2.34222
2.34256
2.34297
2.34346
2.34403
2.34465
2.34535
2.34611
2.34693
2.3478
2.34874
2.34974
2.3508
2.35189
2.35305
2.35424
2.35547
2.35673
2.35805
2.35937
2.36075
2.36214
2.36358
2.36503
2.36654
2.36803
2.36959
2.37114
2.37275
2.37434
2.37601
2.37767
2.37938
2.38114
2.38283
2.3845
2.38566
2.38606
0.427063
9.0535
11.521
12.2988
12.8468
13.0391
12.9409
12.6608
12.2666
11.8523
11.442
11.0543
10.7023
10.3866
10.1013
9.83907
9.59149
9.35417
9.11955
8.88734
8.65387
8.41816
8.1791
7.94031
7.69906
7.4573
7.21696
6.97952
6.74601
6.51532
6.28943
6.0684
5.85439
5.64693
5.4454
5.24985
5.06024
4.87652
4.69821
4.5247
4.35535
4.18987
4.02757
3.86798
3.7112
3.55701
3.40458
3.25368
3.10467
2.95774
2.81271
2.67
2.53071
2.39644
2.2681
2.14673
2.03375
1.93033
1.83631
1.75079
1.67237
1.6002
1.53381
1.47368
1.41927
1.36913
1.3211
1.27624
1.23744
1.20774
1.18411
1.16142
1.13402
1.10409
1.07566
1.05578
1.04526
1.04412
1.04949
1.06019
1.07529
1.08953
1.10132
1.10286
1.09718
1.07811
1.05749
1.02518
1.0025
0.963579
0.94725
0.901544
0.894977
0.839696
0.841914
0.772875
0.780205
0.695715
0.702429
0.605858
1.36121
4.21741
8.10074
9.93274
10.862
11.244
11.2838
11.0993
10.7858
10.431
10.0764
9.75029
9.46782
9.22525
9.01483
8.82794
8.65486
8.49292
8.33346
8.17396
8.01023
7.84017
7.66181
7.47779
7.2866
7.0896
6.88859
6.68512
6.48155
6.27691
6.07398
5.87189
5.67321
5.47951
5.29027
5.1057
4.92587
4.75088
4.58026
4.41334
4.24962
4.08887
3.93044
3.7739
3.61941
3.46691
3.31563
3.16542
3.01682
2.87026
2.72569
2.58371
2.4457
2.31353
2.18824
2.0709
1.96294
1.86542
1.77792
1.69926
1.62789
1.5628
1.50334
1.44963
1.40106
1.35626
1.31336
1.27335
1.23903
1.21322
1.19304
1.17315
1.1476
1.11764
1.08675
1.06198
1.04535
1.03827
1.0388
1.04572
1.05754
1.06928
1.07875
1.07895
1.07206
1.05286
1.03198
1.00068
0.97856
0.94139
0.926226
0.882329
0.877148
0.822893
0.826423
0.757621
0.765773
0.681301
0.688316
0.591856
2.11793
2.00083
3.82936
6.07181
7.69742
8.56507
8.94446
9.01044
8.89922
8.69744
8.46621
8.25046
8.05795
7.89326
7.75726
7.64295
7.54201
7.45412
7.36877
7.28215
7.18962
7.08826
6.97571
6.85309
6.71999
6.57733
6.42578
6.26635
6.1025
5.93355
5.76303
5.59059
5.41686
5.24338
5.07172
4.90274
4.73682
4.57431
4.41476
4.2575
4.1022
3.94869
3.7965
3.64517
3.49497
3.34603
3.19769
3.04987
2.90336
2.7588
2.61639
2.47686
2.34192
2.21373
2.09345
1.98217
1.8813
1.79178
1.7129
1.64314
1.58078
1.52466
1.47387
1.42809
1.38659
1.34816
1.31131
1.277
1.24789
1.22645
1.20994
1.19291
1.1692
1.13911
1.10562
1.07554
1.05201
1.03772
1.03187
1.03347
1.04065
1.04869
1.05494
1.05308
1.04453
1.02497
1.0038
0.973558
0.95226
0.917165
0.903571
0.861912
0.858507
0.805643
0.810765
0.742407
0.751529
0.667167
0.674512
0.578234
2.00305
1.84804
2.07246
2.83669
4.02385
5.12388
5.87926
6.29511
6.48523
6.53835
6.51571
6.47384
6.42133
6.37055
6.33242
6.30572
6.28858
6.27299
6.25669
6.23782
6.2123
6.17655
6.12881
6.06896
5.99711
5.91388
5.81788
5.70984
5.59332
5.46851
5.33909
5.20622
5.06798
4.92269
4.7752
4.62755
4.48067
4.33528
4.19098
4.0472
3.90377
3.76067
3.61765
3.47427
3.33097
3.18807
3.04504
2.90194
2.75978
2.61953
2.48159
2.3469
2.21757
2.09595
1.98336
1.88087
1.78988
1.71113
1.64357
1.58523
1.53425
1.48926
1.44906
1.41279
1.37959
1.34845
1.31845
1.2906
1.26736
1.25073
1.23801
1.22367
1.20151
1.17103
1.13474
1.09904
1.06797
1.04534
1.03152
1.02607
1.02696
1.02984
1.03159
1.02664
1.01567
0.995272
0.97365
0.944474
0.924277
0.891606
0.880062
0.84112
0.83994
0.788875
0.795871
0.728166
0.738382
0.654181
0.661853
0.565763
1.76524
1.72833
1.71182
1.79851
2.04807
2.45803
2.93725
3.38991
3.75636
4.03116
4.22402
4.37327
4.4929
4.59151
4.6812
4.76511
4.84985
4.92249
4.98579
5.04103
5.0859
5.11922
5.13917
5.14518
5.13626
5.11335
5.07403
5.02046
4.95522
4.88028
4.79664
4.70721
4.61059
4.50172
4.3861
4.26678
4.14532
4.02277
3.89878
3.77312
3.64581
3.51707
3.38689
3.2549
3.12179
2.9881
2.85354
2.71825
2.58355
2.45073
2.32046
2.19391
2.07362
1.96207
1.8607
1.7706
1.69309
1.62857
1.57555
1.53153
1.49445
1.46274
1.43489
1.40945
1.38542
1.36212
1.33936
1.31834
1.30132
1.28965
1.28061
1.26857
1.24748
1.21612
1.17668
1.13504
1.09591
1.06394
1.04064
1.02631
1.01906
1.01503
1.01077
1.0014
0.987091
0.965206
0.942956
0.914808
0.89609
0.866215
0.857327
0.821575
0.823156
0.77429
0.783479
0.716629
0.72807
0.644068
0.652057
0.556156
1.52419
1.52694
1.50952
1.49245
1.49332
1.5279
1.58931
1.68167
1.79751
1.93916
2.09721
2.2695
2.45273
2.63779
2.82394
3.00432
3.18319
3.35179
3.50669
3.64799
3.77354
3.88508
3.98001
4.05756
4.11578
4.15493
4.17563
4.18042
4.17057
4.14973
4.11683
4.07492
4.02505
3.96024
3.88509
3.80258
3.71449
3.622
3.52474
3.42308
3.31734
3.20814
3.0957
2.97981
2.86135
2.74124
2.61945
2.49627
2.37333
2.25231
2.13417
2.02036
1.91376
1.81698
1.73154
1.65849
1.59898
1.55285
1.51796
1.49123
1.47042
1.45374
1.43935
1.42527
1.41048
1.39479
1.37896
1.3645
1.35349
1.34652
1.34071
1.33031
1.30965
1.27681
1.23374
1.18579
1.13822
1.09614
1.06203
1.03705
1.01975
1.00691
0.994927
0.979683
0.960981
0.936877
0.913887
0.886785
0.870094
0.843429
0.837942
0.805802
0.810731
0.76439
0.776098
0.71026
0.723037
0.639253
0.647537
0.551824
1.26375
1.27475
1.2717
1.25363
1.22468
1.19284
1.15857
1.12554
1.09461
1.06999
1.05526
1.05625
1.08085
1.13449
1.22307
1.34536
1.50006
1.68103
1.87642
2.07717
2.27293
2.45804
2.62764
2.77912
2.90995
3.01784
3.10634
3.17668
3.22873
3.26617
3.28866
3.29816
3.29687
3.28228
3.25634
3.22017
3.17477
3.12072
3.05762
2.98706
2.9098
2.82676
2.73852
2.64498
2.54727
2.44668
2.34351
2.23827
2.13295
2.02962
1.92962
1.83465
1.74779
1.67179
1.6082
1.55787
1.52154
1.49812
1.48466
1.47748
1.47424
1.47299
1.47167
1.46793
1.46102
1.45143
1.44111
1.43201
1.42609
1.42297
1.41955
1.40996
1.38897
1.35411
1.30699
1.25241
1.1962
1.14352
1.09766
1.06057
1.0315
1.00804
0.986679
0.964089
0.940061
0.913113
0.889512
0.863688
0.849863
0.826883
0.825656
0.797418
0.806235
0.762589
0.777046
0.712317
0.726431
0.642917
0.651412
0.555989
0.945121
0.964078
0.971982
0.964037
0.941058
0.907039
0.864142
0.816151
0.765341
0.715019
0.666917
0.624894
0.590176
0.566533
0.55538
0.561086
0.585948
0.636034
0.712833
0.819416
0.953345
1.10882
1.2792
1.45613
1.6307
1.79529
1.94458
2.07737
2.19145
2.28828
2.36771
2.43078
2.47865
2.51535
2.54066
2.5525
2.55082
2.53753
2.51374
2.48036
2.43795
2.3876
2.33012
2.2655
2.19513
2.12062
2.04265
1.96197
1.88097
1.80212
1.72716
1.6579
1.59755
1.54885
1.5133
1.49124
1.48244
1.48445
1.49344
1.50543
1.51834
1.53017
1.53885
1.54202
1.53953
1.53286
1.5253
1.51936
1.51682
1.51622
1.51412
1.50452
1.48274
1.44562
1.39444
1.33341
1.26867
1.2053
1.14729
1.09733
1.05542
1.02002
0.988068
0.957029
0.927209
0.897265
0.873787
0.849923
0.840237
0.821448
0.825324
0.801033
0.814003
0.772986
0.790082
0.726513
0.741712
0.658601
0.667144
0.572268
0.577085
0.595667
0.608074
0.608387
0.595779
0.57253
0.541734
0.507707
0.474472
0.445947
0.424174
0.411267
0.406694
0.410815
0.421553
0.438418
0.459426
0.485099
0.514552
0.550155
0.592697
0.646161
0.71199
0.791559
0.884222
0.988702
1.10078
1.21674
1.33208
1.44347
1.54746
1.64202
1.72465
1.795
1.85264
1.89789
1.93071
1.9522
1.96471
1.96766
1.96081
1.945
1.92099
1.88872
1.84974
1.80588
1.75803
1.70725
1.6562
1.60761
1.56346
1.52564
1.49734
1.48102
1.47763
1.48628
1.50514
1.53033
1.55778
1.58404
1.60754
1.62646
1.639
1.64311
1.63965
1.63135
1.62299
1.61754
1.61641
1.61691
1.61521
1.60531
1.58287
1.54403
1.48966
1.42313
1.35058
1.27708
1.20735
1.14475
1.08999
1.04233
0.999548
0.959837
0.924792
0.892713
0.87123
0.850709
0.846801
0.832561
0.842
0.821364
0.838064
0.799399
0.818283
0.755982
0.771551
0.689128
0.697472
0.603526
0.246047
0.260898
0.274599
0.284806
0.291194
0.295818
0.301576
0.311747
0.328873
0.354327
0.387908
0.428659
0.473976
0.522029
0.569958
0.616809
0.660639
0.701954
0.740039
0.775203
0.808256
0.83879
0.869015
0.899781
0.932195
0.967555
1.00714
1.05106
1.10021
1.15357
1.20942
1.26696
1.32381
1.37828
1.42786
1.47258
1.5124
1.54605
1.57365
1.59464
1.6084
1.61527
1.61556
1.60885
1.59656
1.58027
1.56085
1.5394
1.51853
1.50078
1.48807
1.48217
1.48584
1.50062
1.52612
1.55956
1.59756
1.63606
1.67194
1.70275
1.72768
1.74512
1.75353
1.75152
1.74124
1.72699
1.71492
1.70809
1.70706
1.7078
1.70636
1.69678
1.67485
1.63591
1.58025
1.51016
1.43147
1.34945
1.26973
1.19607
1.12996
1.07122
1.01893
0.971908
0.934018
0.902399
0.886127
0.870961
0.874179
0.864349
0.878789
0.86112
0.879953
0.843279
0.861993
0.801301
0.8159
0.734772
0.742546
0.650027
0.279281
0.295957
0.314763
0.337798
0.367223
0.403996
0.449142
0.502101
0.561661
0.625886
0.692877
0.759062
0.822071
0.880812
0.934416
0.982812
1.02607
1.06481
1.09919
1.13036
1.15851
1.18509
1.20986
1.23297
1.25507
1.27642
1.29782
1.31879
1.34093
1.36242
1.38279
1.40291
1.4227
1.44197
1.46079
1.47824
1.49376
1.50734
1.51904
1.5284
1.53504
1.53924
1.54087
1.53944
1.53612
1.53182
1.52694
1.52233
1.52012
1.5221
1.52977
1.54457
1.56843
1.6012
1.64032
1.68167
1.72227
1.75926
1.79083
1.81557
1.83303
1.84153
1.83964
1.82681
1.80676
1.78537
1.76955
1.76167
1.76078
1.7621
1.76191
1.75426
1.73478
1.69818
1.64394
1.5732
1.49145
1.40439
1.31843
1.23754
1.16393
1.09769
1.03967
0.989404
0.953566
0.926923
0.919288
0.910766
0.920294
0.913597
0.930603
0.914679
0.932719
0.897695
0.913372
0.854968
0.866825
0.788119
0.79472
0.704362
0.643716
0.661267
0.681567
0.708367
0.743859
0.788115
0.840135
0.897945
0.95911
1.02088
1.0808
1.13756
1.18988
1.23756
1.28066
1.31972
1.35535
1.38781
1.41747
1.44514
1.47112
1.49562
1.51905
1.54106
1.56182
1.58118
1.59899
1.61519
1.62927
1.64207
1.65295
1.66212
1.66939
1.67454
1.67844
1.67963
1.67764
1.67392
1.66851
1.66146
1.65331
1.64469
1.63569
1.62636
1.61801
1.6111
1.60594
1.60332
1.60483
1.61161
1.62473
1.64517
1.67347
1.7072
1.74246
1.77629
1.80719
1.83341
1.85412
1.86835
1.87546
1.87332
1.86062
1.83785
1.81036
1.78499
1.76836
1.7612
1.76152
1.76467
1.76712
1.76288
1.7474
1.71497
1.66428
1.59566
1.51441
1.42687
1.33965
1.25687
1.18103
1.11246
1.05411
1.00672
0.978451
0.960698
0.962009
0.958492
0.97072
0.964915
0.981108
0.96558
0.980183
0.946585
0.957101
0.901897
0.909642
0.83484
0.83949
0.752303
1.01753
1.03242
1.05022
1.07428
1.10594
1.14488
1.18961
1.23838
1.28894
1.33891
1.38652
1.43101
1.47197
1.50987
1.54488
1.57767
1.60839
1.6377
1.66544
1.69202
1.71724
1.74092
1.76314
1.7833
1.80153
1.81742
1.83108
1.84212
1.85072
1.85687
1.86016
1.86092
1.85916
1.85498
1.84865
1.8406
1.83029
1.81898
1.80504
1.78908
1.77221
1.75511
1.73799
1.7215
1.707
1.69482
1.68544
1.67975
1.67908
1.68416
1.69567
1.71372
1.73694
1.7614
1.78457
1.80545
1.82355
1.83786
1.84797
1.85284
1.85128
1.84072
1.82025
1.79149
1.76098
1.73572
1.72084
1.71581
1.71843
1.72437
1.73015
1.72985
1.7188
1.69112
1.64491
1.58017
1.50232
1.41822
1.33425
1.25437
1.18087
1.11471
1.06132
1.0225
1.00505
0.996675
1.00347
1.00134
1.01255
1.00574
1.01883
1.00288
1.01298
0.980795
0.985651
0.934502
0.937351
0.867874
0.869808
0.786524
1.3305
1.34191
1.35596
1.3753
1.40072
1.43183
1.46716
1.50547
1.54465
1.58401
1.6217
1.65787
1.69239
1.72567
1.7575
1.78815
1.81726
1.84509
1.87101
1.89513
1.91677
1.93579
1.9519
1.9647
1.97441
1.98093
1.98462
1.98538
1.98375
1.97974
1.97329
1.96489
1.95488
1.94315
1.93009
1.91593
1.90034
1.88384
1.86573
1.84603
1.82567
1.805
1.78425
1.76443
1.74679
1.73156
1.71934
1.71108
1.70786
1.71007
1.71777
1.72971
1.74291
1.75439
1.76417
1.7724
1.77917
1.78381
1.7859
1.78409
1.77656
1.76059
1.73583
1.7051
1.67525
1.65262
1.64083
1.63877
1.64424
1.65318
1.66224
1.66574
1.65888
1.63587
1.59445
1.53477
1.46272
1.38537
1.30849
1.23535
1.16774
1.10822
1.06484
1.03839
1.0318
1.02979
1.03697
1.0331
1.04093
1.03217
1.04126
1.0247
1.03034
0.999774
0.999534
0.952932
0.950687
0.887593
0.8859
0.80817
1.58325
1.59218
1.60359
1.6196
1.64062
1.66619
1.69519
1.72665
1.75917
1.79226
1.82435
1.85642
1.8881
1.91916
1.94876
1.97661
2.00196
2.02465
2.04381
2.05945
2.07091
2.07846
2.08184
2.08131
2.07738
2.07048
2.06114
2.04953
2.03646
2.02137
2.00478
1.98738
1.96962
1.95123
1.93244
1.91378
1.89486
1.87592
1.85632
1.83572
1.81479
1.79352
1.77222
1.75201
1.73391
1.71799
1.70484
1.69527
1.69006
1.68918
1.69179
1.69521
1.69652
1.69552
1.69377
1.69194
1.69027
1.68815
1.685
1.67904
1.66803
1.6494
1.62334
1.59344
1.56647