/*--------------------------------*- C++ -*----------------------------------*\
| =========                 |                                                 |
| \\      /  F ield         | OpenFOAM: The Open Source CFD Toolbox           |
|  \\    /   O peration     | Version:  v2012                                 |
|   \\  /    A nd           | Website:  www.openfoam.com                      |
|    \\/     M anipulation  |                                                 |
\*---------------------------------------------------------------------------*/
FoamFile
{
    version     2.0;
    format      ascii;
    class       Cloud<basicKinematicParcel>;
    location    "0.022/lagrangian/kinematicCloud";
    object      positions;
}
// * * * * * * * * * * * * * * * * * * * * * * * * * * * * * * * * * * * * * //

22
(
(0.0244735 0.00278036 0.03) 13
(0.0222881 0.00954937 0.03) 33
(0.0211406 0.0152075 0.03) 53
(0.0189231 0.00558071 0.03) 22
(0.0166548 0.0207901 0.03) 72
(0.0150008 0.0174041 0.03) 62
(0.00994563 0.00130715 0.03) 1
(0.0115073 0.022413 0.03) 81
(0.00978395 0.0234801 0.03) 81
(0.00875288 0.00914089 0.03) 31
(0.007908 0.00842522 0.03) 31
(0.00685568 0.00520227 0.03) 11
(0.00206441 0.0265753 0.03) 90
(0.0013211 5.94771e-05 0.03) 0
(0.00283869 0.025567 0.03) 90
(0.00296389 0.0123112 0.03) 40
(0.00305154 0.00259418 0.03) 0
(0.0023388 0.0243778 0.03) 90
(0.00193137 0.00458851 0.03) 10
(0.00209041 0.0219976 0.03) 80
(0.0014173 0.0195215 0.03) 70
(0.00162835 0.025843 0.03) 90
)


// ************************************************************************* //
