/*--------------------------------*- C++ -*----------------------------------*\
| =========                 |                                                 |
| \\      /  F ield         | OpenFOAM: The Open Source CFD Toolbox           |
|  \\    /   O peration     | Version:  v2012                                 |
|   \\  /    A nd           | Website:  www.openfoam.com                      |
|    \\/     M anipulation  |                                                 |
\*---------------------------------------------------------------------------*/
FoamFile
{
    version     2.0;
    format      ascii;
    class       volScalarField;
    location    "0.146";
    object      k.air;
}
// * * * * * * * * * * * * * * * * * * * * * * * * * * * * * * * * * * * * * //

dimensions      [0 2 -2 0 0 0 0];


internalField   nonuniform List<scalar> 
5600
(
0.606299
0.840814
0.955117
0.978163
0.949161
0.897607
0.839532
0.787302
0.743264
0.707321
0.679314
0.658396
0.643343
0.632641
0.625356
0.619957
0.616404
0.613141
0.611138
0.608602
0.607317
0.605188
0.604483
0.602835
0.602707
0.601497
0.601645
0.600884
0.600915
0.600654
0.600183
0.600416
0.5993
0.599902
0.598464
0.598975
0.59796
0.597607
0.597786
0.596048
0.597662
0.594811
0.597105
0.594388
0.595939
0.594816
0.594379
0.595588
0.593081
0.595886
0.592734
0.595196
0.593639
0.593502
0.595432
0.591597
0.596973
0.590745
0.597078
0.591875
0.595321
0.594728
0.59269
0.597718
0.591163
0.598898
0.592116
0.597684
0.595066
0.595438
0.597986
0.594478
0.598948
0.59596
0.597921
0.598858
0.596471
0.601156
0.596282
0.601425
0.597726
0.599946
0.599778
0.598091
0.601109
0.597072
0.601248
0.596847
0.600839
0.596902
0.600145
0.597841
0.597491
0.602356
0.589663
0.614493
0.568278
0.653745
0.482486
0.81375
0.371638
0.315565
0.288662
0.27566
0.274973
0.284644
0.307368
0.344934
0.387132
0.430186
0.471498
0.508944
0.541852
0.569327
0.592087
0.609558
0.623796
0.633501
0.642243
0.647154
0.653287
0.655595
0.660896
0.662093
0.66683
0.667255
0.670901
0.671465
0.67308
0.674627
0.673715
0.676526
0.673722
0.677336
0.674197
0.67666
0.675922
0.674578
0.678338
0.672443
0.680257
0.671782
0.680257
0.673862
0.677853
0.677969
0.674532
0.681802
0.672532
0.683198
0.674022
0.680591
0.6795
0.674999
0.686536
0.669961
0.691169
0.669705
0.689632
0.676496
0.682091
0.687136
0.673886
0.695463
0.671088
0.696199
0.676878
0.689601
0.687151
0.682427
0.69424
0.681198
0.693941
0.68721
0.688727
0.695684
0.684631
0.70086
0.68592
0.69986
0.692218
0.695328
0.698916
0.691354
0.702656
0.689703
0.703596
0.689201
0.703538
0.689035
0.702339
0.691727
0.696075
0.700758
0.684415
0.71405
0.666597
0.740755
0.61705
0.819446
0.36915
0.281899
0.227739
0.192988
0.168603
0.153776
0.145637
0.143587
0.147021
0.155021
0.167134
0.181819
0.199446
0.218361
0.239402
0.260285
0.282913
0.303996
0.327068
0.347435
0.37046
0.389317
0.410445
0.424342
0.441098
0.451061
0.463609
0.471853
0.479426
0.487864
0.490922
0.500102
0.50002
0.509019
0.508752
0.514186
0.517891
0.516717
0.526533
0.518886
0.532991
0.523193
0.535521
0.530653
0.534601
0.539594
0.533013
0.546765
0.534005
0.549314
0.540048
0.546173
0.550649
0.539928
0.561685
0.536084
0.56711
0.540251
0.563238
0.553121
0.552863
0.568538
0.544215
0.577788
0.545099
0.575647
0.556641
0.566083
0.57063
0.559084
0.577646
0.561317
0.574901
0.571177
0.568383
0.581421
0.565384
0.585956
0.569875
0.583543
0.578867
0.578964
0.586536
0.576055
0.590551
0.574863
0.592439
0.573701
0.593388
0.573266
0.59195
0.576563
0.585834
0.583036
0.580537
0.585175
0.580457
0.585382
0.576821
0.588319
0.3701
0.280648
0.224114
0.186045
0.158568
0.138172
0.122996
0.111287
0.103018
0.0968507
0.0937523
0.0920337
0.0933168
0.0948759
0.100086
0.104564
0.113722
0.12085
0.134094
0.143793
0.161091
0.173386
0.194322
0.208711
0.230654
0.246251
0.266092
0.282154
0.296718
0.313752
0.322346
0.340152
0.344319
0.360422
0.365089
0.37456
0.385274
0.384708
0.403326
0.394417
0.416376
0.406725
0.422837
0.42187
0.424549
0.436646
0.426005
0.447281
0.4316
0.45073
0.44365
0.4471
0.460107
0.441083
0.474688
0.440231
0.479781
0.450445
0.472949
0.469818
0.460424
0.489106
0.453311
0.497487
0.459706
0.491772
0.47703
0.480318
0.493463
0.475424
0.499046
0.482177
0.494035
0.495275
0.487454
0.506079
0.48688
0.509325
0.494698
0.506183
0.505449
0.502829
0.513158
0.501649
0.517453
0.500835
0.52047
0.499377
0.521878
0.499677
0.519132
0.504625
0.512319
0.509725
0.510613
0.506544
0.517081
0.497975
0.525227
0.490818
0.370294
0.280777
0.224391
0.186034
0.158448
0.13761
0.121607
0.10864
0.098532
0.0897117
0.0833026
0.0769172
0.0734315
0.0684398
0.0676165
0.0633449
0.0653673
0.0615522
0.0666238
0.0632412
0.071444
0.0692825
0.0802563
0.0809973
0.0933869
0.0990747
0.110709
0.122752
0.131264
0.149779
0.154909
0.177516
0.18205
0.20255
0.211381
0.222594
0.241226
0.239484
0.267841
0.257262
0.287171
0.279103
0.298195
0.303908
0.304534
0.326821
0.311868
0.342567
0.325316
0.348077
0.346446
0.345288
0.37087
0.341665
0.389368
0.346668
0.393823
0.365286
0.384357
0.392315
0.371368
0.414987
0.368342
0.421632
0.382094
0.412749
0.405482
0.401282
0.423464
0.400542
0.427241
0.412454
0.421032
0.428263
0.41597
0.438797
0.418802
0.440809
0.429707
0.438128
0.441181
0.437388
0.448518
0.438179
0.453597
0.437631
0.457914
0.436409
0.45927
0.438206
0.454862
0.444926
0.447658
0.448713
0.448332
0.443063
0.456631
0.433159
0.464401
0.430819
0.370324
0.28081
0.224518
0.186198
0.158668
0.137864
0.121882
0.108823
0.0986512
0.0894856
0.0828444
0.0756644
0.0716339
0.0652749
0.06358
0.0571792
0.0578747
0.0508249
0.0540068
0.0460801
0.0514466
0.0432938
0.0496267
0.0433255
0.0481121
0.0471044
0.047051
0.054644
0.0481068
0.0643905
0.054256
0.073889
0.0681616
0.0816546
0.0896285
0.0888998
0.114562
0.099706
0.136861
0.118173
0.152362
0.144852
0.161862
0.175529
0.169836
0.203239
0.182679
0.221329
0.204525
0.227265
0.234895
0.225094
0.26669
0.225418
0.287774
0.23907
0.290317
0.268514
0.279047
0.30368
0.268527
0.328484
0.273308
0.332426
0.296711
0.321563
0.326046
0.313303
0.344152
0.319454
0.346269
0.336945
0.340953
0.35457
0.339526
0.364642
0.346744
0.366481
0.360463
0.366059
0.371973
0.369126
0.379262
0.371954
0.385976
0.37169
0.391727
0.371235
0.392782
0.374817
0.38701
0.382675
0.380281
0.384892
0.382423
0.378877
0.389841
0.370719
0.394512
0.372523
0.370327
0.280808
0.22454
0.18624
0.158737
0.137957
0.122006
0.108968
0.0988136
0.0896655
0.0829954
0.075827
0.0716708
0.0653114
0.0633382
0.0569318
0.0571146
0.0500502
0.0523441
0.0444722
0.0483302
0.040448
0.044197
0.0385987
0.0390837
0.0394006
0.0329188
0.0420817
0.0274902
0.0439222
0.0264713
0.0413469
0.0332093
0.0332443
0.0466202
0.0241984
0.0599513
0.0225289
0.0657339
0.033866
0.0623089
0.0562995
0.0555334
0.0815161
0.0544867
0.100406
0.0660317
0.107668
0.0916313
0.104139
0.126339
0.0982556
0.158294
0.101865
0.174912
0.124517
0.171608
0.16299
0.158151
0.202099
0.152508
0.224437
0.167016
0.223902
0.199009
0.212827
0.230752
0.210711
0.246406
0.224914
0.247521
0.246873
0.24581
0.264701
0.250267
0.274186
0.262478
0.277481
0.278135
0.28195
0.288868
0.290227
0.296974
0.294948
0.306583
0.295191
0.313909
0.296102
0.314868
0.30121
0.308707
0.309025
0.303413
0.309905
0.305358
0.305747
0.310047
0.300176
0.312449
0.301694
0.370326
0.2808
0.224534
0.186246
0.15874
0.13799
0.122014
0.109043
0.098811
0.089807
0.0829532
0.076066
0.0715424
0.065686
0.0630541
0.0574839
0.0565847
0.0508126
0.0514701
0.0454326
0.0470444
0.0414821
0.0425383
0.0393359
0.0372946
0.0390868
0.0314559
0.0396824
0.0267171
0.0385326
0.0260296
0.0327648
0.0313161
0.0222289
0.0402497
0.011659
0.0460461
0.00867849
0.0420675
0.017781
0.0282053
0.0350542
0.0121802
0.050409
0.00425346
0.0547016
0.0121217
0.0440884
0.036343
0.0236685
0.0664066
0.00754745
0.0857743
0.0101934
0.0843508
0.0378083
0.0641757
0.078671
0.045562
0.109525
0.0454378
0.119146
0.0676807
0.10932
0.102249
0.100414
0.128807
0.106119
0.138403
0.125651
0.13872
0.146983
0.142026
0.161452
0.151989
0.169445
0.166957
0.175152
0.181599
0.185504
0.190428
0.198074
0.199982
0.203652
0.212187
0.204908
0.220325
0.207113
0.221783
0.212468
0.216785
0.218595
0.213565
0.218906
0.213573
0.21777
0.215145
0.21447
0.216257
0.213926
0.370324
0.280794
0.224523
0.186246
0.158726
0.138008
0.121988
0.109095
0.0987556
0.0899192
0.0828356
0.0762787
0.0713153
0.0660545
0.0626546
0.058073
0.0559485
0.0516687
0.0505755
0.0465164
0.0460013
0.0425559
0.0417085
0.0398573
0.0373311
0.0382918
0.0330285
0.0370896
0.0297913
0.0347801
0.0290438
0.0300797
0.031254
0.0234969
0.0345396
0.0180628
0.0351423
0.0174872
0.0303483
0.0226918
0.0210982
0.0307164
0.0117717
0.0363415
0.00797869
0.0345381
0.0137104
0.0234177
0.0277061
0.00806645
0.0406658
0.000199338
0.0432399
0.00282127
0.0387058
0.0178518
0.0141727
0.0455082
0.00284432
0.0558902
0.00726981
0.0501935
0.0216876
0.0323437
0.0414469
0.0299989
0.0525956
0.0396997
0.0513443
0.0523841
0.050681
0.061663
0.0567747
0.0673019
0.0668057
0.0714909
0.0782501
0.0780122
0.0867007
0.0915694
0.0916911
0.104645
0.101661
0.110336
0.113456
0.113541
0.12155
0.11554
0.125111
0.118828
0.123504
0.121207
0.122764
0.121852
0.119508
0.124229
0.117855
0.123429
0.117211
0.121336
0.370323
0.280791
0.224516
0.186247
0.158716
0.138018
0.121969
0.109125
0.0987153
0.0899857
0.0827536
0.0764066
0.0711617
0.0662783
0.0623913
0.0584313
0.0555419
0.0521803
0.0500338
0.0471276
0.0454425
0.0430631
0.0414314
0.0398681
0.0377845
0.0373689
0.0345213
0.0351854
0.0319539
0.0327611
0.030472
0.0297271
0.0300384
0.0264155
0.0298271
0.0239081
0.0286015
0.0232069
0.0257512
0.0242278
0.0219099
0.0257724
0.0186313
0.026136
0.0176205
0.0238978
0.0197052
0.0189112
0.0238218
0.0136428
0.0261499
0.0126499
0.0234458
0.0163998
0.0178761
0.0220097
0.0110415
0.0264415
0.0101624
0.0239812
0.0153465
0.0186849
0.020439
0.0135874
0.0222928
0.0160672
0.0199268
0.0219934
0.0166101
0.0251182
0.0167855
0.0256199
0.0198182
0.0252379
0.024723
0.023978
0.030539
0.0249935
0.0333907
0.0318579
0.0344897
0.0394243
0.0386973
0.045414
0.0427879
0.0506255
0.0468824
0.0520407
0.0509973
0.0514911
0.0545049
0.0478006
0.0577737
0.0471325
0.05358
0.0517702
0.0481489
0.0560934
0.0429004
0.0569807
0.370323
0.280793
0.224517
0.186251
0.158716
0.138026
0.121965
0.109139
0.0987013
0.0900116
0.0827228
0.076454
0.0711031
0.0663596
0.0622915
0.0585596
0.0553909
0.0523587
0.049841
0.0473271
0.0452636
0.043195
0.04139
0.0397808
0.0380412
0.0369271
0.0351389
0.0344502
0.0327006
0.0321507
0.0307656
0.0299069
0.029267
0.0277847
0.0279599
0.0260181
0.0265334
0.0248074
0.0248409
0.024108
0.0230343
0.0235944
0.0215355
0.022724
0.0209149
0.0209768
0.0214226
0.018542
0.0222362
0.0168845
0.0215201
0.017713
0.0184252
0.0205033
0.0148514
0.0225623
0.0134794
0.0219186
0.0154431
0.0188674
0.0189803
0.0162114
0.0212746
0.0159524
0.0213662
0.0182287
0.0209722
0.0205204
0.021931
0.0225382
0.0229929
0.0265824
0.0229301
0.0316526
0.0244641
0.0343065
0.0300523
0.0349038
0.0383563
0.0363844
0.0472317
0.0404131
0.053712
0.04856
0.0550425
0.0586629
0.0540603
0.0656664
0.0538702
0.0673559
0.0574342
0.0617438
0.0644661
0.0555949
0.0668105
0.0548679
0.0641927
0.0587449
0.0577489
0.0643998
0.370324
0.2808
0.224526
0.18626
0.158723
0.138033
0.121968
0.109145
0.0986989
0.0900181
0.0827126
0.0764627
0.0710825
0.0663736
0.0622573
0.0585819
0.0553414
0.0523886
0.0497816
0.0473542
0.0452131
0.0431937
0.0413831
0.0397146
0.0381145
0.0367791
0.0352854
0.0342769
0.0328219
0.032111
0.0306869
0.0301907
0.0288764
0.0284289
0.0274042
0.0267606
0.0262628
0.0252046
0.0253424
0.0239321
0.0244212
0.0231629
0.0234001
0.0228357
0.0226257
0.0224753
0.0226622
0.0218221
0.0234643
0.0215656
0.0241133
0.0227524
0.0241894
0.0252135
0.0247897
0.0277239
0.0270923
0.02995
0.0307877
0.0330001
0.0347291
0.0380182
0.0385942
0.0446111
0.0434725
0.0510759
0.051051
0.0560143
0.0615311
0.061056
0.0718523
0.0693617
0.0789648
0.0812544
0.0840808
0.0938681
0.0912077
0.104658
0.102739
0.113005
0.117413
0.119985
0.130784
0.127158
0.139006
0.134901
0.141757
0.142141
0.140712
0.147676
0.139104
0.148714
0.140671
0.145154
0.144294
0.140714
0.147076
0.138684
0.146414
0.141167
0.370326
0.280811
0.224538
0.186271
0.158731
0.138039
0.121969
0.109143
0.098691
0.0900081
0.0826947
0.0764453
0.0710541
0.0663498
0.0622185
0.0585543
0.0552943
0.0523599
0.0497344
0.0473254
0.0451814
0.043167
0.0413914
0.0396971
0.0381932
0.0368014
0.0354553
0.0344204
0.0330835
0.0325288
0.0310402
0.0310906
0.0293922
0.029998
0.0283417
0.0290869
0.0281646
0.0282946
0.028977
0.0279366
0.0305108
0.0287064
0.0323393
0.0312042
0.0344615
0.0354205
0.0375266
0.0408387
0.0423149
0.0471686
0.0490084
0.0545523
0.0574246
0.0628167
0.0675414
0.0717505
0.0791409
0.0815529
0.0913072
0.0931203
0.102831
0.106861
0.113315
0.1218
0.123637
0.136064
0.135307
0.147822
0.149613
0.157241
0.164898
0.166282
0.177922
0.177156
0.187516
0.190206
0.195736
0.203797
0.205108
0.215719
0.216333
0.224635
0.227846
0.230896
0.23683
0.235471
0.241927
0.239155
0.24313
0.242652
0.241636
0.245148
0.240351
0.245132
0.240969
0.243025
0.242997
0.240501
0.244562
0.240283
0.370327
0.280823
0.224546
0.186273
0.158726
0.138023
0.121944
0.109106
0.0986437
0.089949
0.0826267
0.0763692
0.0709742
0.0662708
0.0621456
0.0584996
0.0552606
0.0523735
0.0497962
0.0474721
0.0454257
0.043546
0.0419538
0.0404744
0.0392971
0.0382295
0.0374273
0.0368967
0.036405
0.0366709
0.0364082
0.037793
0.0377352
0.0404353
0.0408137
0.0446691
0.0461553
0.0505255
0.0540803
0.0582544
0.0644699
0.0681471
0.0766102
0.0804964
0.0898186
0.0952155
0.103759
0.111453
0.118504
0.128167
0.134074
0.144654
0.150187
0.160203
0.166673
0.174684
0.183199
0.188148
0.199076
0.201498
0.213157
0.21559
0.224772
0.230365
0.2346
0.244672
0.244767
0.25699
0.256622
0.26632
0.269661
0.273678
0.2817
0.281418
0.291141
0.291062
0.298645
0.30209
0.305826
0.312695
0.313608
0.321156
0.321479
0.32683
0.328201
0.329936
0.33285
0.331419
0.335014
0.332583
0.334788
0.333952
0.333433
0.334864
0.332466
0.33478
0.332608
0.333775
0.33371
0.333046
0.370324
0.280829
0.224528
0.186235
0.158661
0.137929
0.121828
0.10896
0.0984925
0.0897878
0.0824953
0.0762783
0.0709846
0.0664041
0.0624839
0.0590819
0.0562091
0.0537615
0.051764
0.0501513
0.0490089
0.0482509
0.0480931
0.0483854
0.0494028
0.0509789
0.0534176
0.056587
0.0606197
0.065699
0.0713957
0.0786403
0.0857074
0.0948718
0.102941
0.113561
0.122394
0.133698
0.143507
0.154617
0.165544
0.175351
0.187161
0.19554
0.207409
0.215085
0.2257
0.233778
0.242177
0.251175
0.257378
0.266981
0.271908
0.281093
0.285879
0.293344
0.299348
0.303931
0.312137
0.313767
0.323457
0.323943
0.332579
0.334932
0.339796
0.34608
0.346536
0.355892
0.354098
0.363092
0.3629
0.36797
0.371792
0.372402
0.379344
0.378209
0.385344
0.385594
0.390517
0.393394
0.395423
0.400161
0.400026
0.40496
0.404002
0.407431
0.40715
0.407952
0.409274
0.40763
0.410063
0.407519
0.409594
0.407974
0.408428
0.408766
0.407329
0.409272
0.407178
0.409288
0.370306
0.28079
0.224403
0.186076
0.158442
0.13769
0.121601
0.108817
0.0985588
0.0901634
0.0834246
0.0779612
0.073706
0.0703937
0.0681099
0.0666796
0.0663204
0.0667922
0.0683995
0.0709808
0.0749379
0.0801432
0.0869663
0.0951355
0.104985
0.115994
0.128243
0.141224
0.155051
0.169429
0.18421
0.199042
0.21304
0.227233
0.239863
0.253122
0.264242
0.27634
0.286255
0.296758
0.306144
0.314662
0.323897
0.330387
0.339247
0.344451
0.352332
0.357492
0.363641
0.369547
0.373832
0.380378
0.383164
0.389667
0.391967
0.397423
0.400536
0.403885
0.408886
0.409626
0.416467
0.415551
0.422477
0.422336
0.426869
0.429811
0.430582
0.436924
0.434825
0.442313
0.440309
0.445611
0.446534
0.448087
0.452405
0.451449
0.457347
0.456277
0.461426
0.461866
0.46479
0.467102
0.467483
0.471091
0.469579
0.473274
0.471334
0.473584
0.472914
0.472698
0.474107
0.471669
0.474459
0.471377
0.473762
0.472137
0.472349
0.473431
0.471282
0.474369
0.370195
0.280542
0.224228
0.186053
0.158711
0.13852
0.12343
0.112323
0.104421
0.0992825
0.0968386
0.0965705
0.0983709
0.102007
0.107632
0.115007
0.124345
0.135451
0.148586
0.1634
0.180317
0.198733
0.218293
0.238258
0.258318
0.27766
0.295847
0.312647
0.328142
0.34226
0.354937
0.366642
0.376963
0.386866
0.395203
0.403852
0.410685
0.418325
0.424089
0.430492
0.435661
0.440513
0.445643
0.448871
0.453859
0.456107
0.460703
0.462887
0.466433
0.469345
0.471591
0.475333
0.476487
0.480691
0.481361
0.485173
0.486402
0.488837
0.491584
0.491976
0.496541
0.49519
0.500531
0.49919
0.50325
0.504086
0.505277
0.509146
0.507471
0.513216
0.510665
0.515671
0.514835
0.517293
0.519418
0.519327
0.523755
0.522465
0.527322
0.526393
0.529922
0.530304
0.531478
0.533504
0.532296
0.535469
0.532902
0.535854
0.533775
0.534925
0.534924
0.533473
0.535848
0.532539
0.535823
0.532837
0.534695
0.534269
0.533203
0.53584
0.369474
0.281384
0.228612
0.193059
0.170708
0.155957
0.150114
0.150451
0.156553
0.167305
0.181628
0.19881
0.21842
0.23972
0.262348
0.285624
0.309398
0.333095
0.356939
0.380289
0.403305
0.423856
0.44175
0.4573
0.470505
0.482394
0.492511
0.501013
0.508357
0.514614
0.520081
0.525004
0.529134
0.533183
0.536231
0.539749
0.542008
0.545185
0.547022
0.549779
0.551635
0.553665
0.555892
0.557126
0.559644
0.560279
0.562811
0.563335
0.56536
0.566462
0.567571
0.569483
0.569773
0.572316
0.572119
0.574746
0.574829
0.576672
0.577896
0.578238
0.581028
0.579776
0.583686
0.581912
0.585453
0.584985
0.586541
0.588449
0.587537
0.591478
0.589154
0.59347
0.591765
0.59471
0.595165
0.59598
0.598754
0.597871
0.601802
0.600357
0.603863
0.602974
0.604758
0.605293
0.604811
0.606925
0.604603
0.607463
0.604787
0.606813
0.605578
0.605413
0.60669
0.604124
0.607241
0.603864
0.606716
0.60491
0.605322
0.606639
0.37219
0.315456
0.292824
0.279518
0.286385
0.295375
0.331462
0.373612
0.41862
0.463065
0.504554
0.5416
0.573478
0.599924
0.621221
0.637809
0.650546
0.660072
0.667419
0.67305
0.677643
0.681647
0.685136
0.688105
0.690611
0.692624
0.694346
0.695581
0.696492
0.696992
0.697255
0.697394
0.697281
0.697366
0.696975
0.697156
0.696581
0.696887
0.696313
0.696654
0.696318
0.696468
0.696629
0.696401
0.696989
0.696442
0.697243
0.696602
0.697301
0.697036
0.697218
0.697644
0.697259
0.69831
0.697546
0.698947
0.698248
0.69939
0.699433
0.699626
0.700874
0.699844
0.702236
0.700495
0.703148
0.701954
0.703539
0.703926
0.703752
0.705865
0.704225
0.707336
0.705516
0.708292
0.707708
0.709095
0.710369
0.710104
0.712707
0.711343
0.714217
0.712733
0.714684
0.71409
0.714314
0.715201
0.713632
0.715783
0.713265
0.715513
0.713591
0.714476
0.714517
0.713204
0.715357
0.71253
0.715431
0.712914
0.714463
0.714159
0.606742
0.839813
0.952198
0.969554
0.937536
0.881262
0.821358
0.769008
0.724418
0.688386
0.660681
0.640129
0.625397
0.614955
0.607664
0.602391
0.598511
0.595429
0.592915
0.590804
0.588977
0.587527
0.586345
0.585458
0.58476
0.584197
0.583774
0.583409
0.583094
0.582733
0.582336
0.581889
0.581375
0.580887
0.580275
0.579804
0.579126
0.578701
0.578015
0.577639
0.577019
0.576649
0.576181
0.57577
0.575517
0.575026
0.574949
0.574435
0.574424
0.574005
0.573919
0.573722
0.57347
0.573551
0.573146
0.573436
0.57301
0.573339
0.573105
0.573234
0.573393
0.573177
0.573777
0.573283
0.574158
0.573664
0.574415
0.574302
0.574571
0.57509
0.574808
0.575879
0.575355
0.576555
0.576241
0.577069
0.577256
0.577437
0.578095
0.577695
0.578558
0.577874
0.578594
0.578048
0.578321
0.57826
0.577902
0.578414
0.577584
0.578377
0.577531
0.578096
0.577759
0.577662
0.578102
0.577281
0.578217
0.577122
0.577668
0.576623
0.0438434
2.14533
2.78086
3.02331
3.15026
3.22137
3.22758
3.18163
3.12348
2.99808
2.81649
2.59062
2.32439
2.04022
1.82152
1.6286
1.49462
1.39262
1.29456
1.17442
1.04297
0.859071
0.539202
0.348386
0.196983
0.0770802
0.166988
0.109846
0.143704
0.364045
0.579024
0.698846
0.735306
0.723449
0.699978
0.683023
0.66197
0.622486
0.561268
0.483701
0.39973
0.318257
0.245842
0.186757
0.141263
0.106869
0.080925
0.06143
0.0470376
0.0366843
0.0293586
0.0241841
0.0205025
0.0178435
0.0158909
0.0144481
0.013386
0.012619
0.0120761
0.0116965
0.0114144
0.011175
0.0109385
0.0106981
0.0104618
0.0102503
0.0100749
0.00994582
0.00985671
0.00980206
0.00976786
0.00974974
0.00973794
0.00973313
0.00972876
0.00972819
0.00972603
0.00972679
0.0097252
0.00972641
0.00972493
0.00972633
0.00972482
0.00972635
0.00972475
0.00972638
0.0097247
0.00972642
0.00972465
0.00972646
0.0097246
0.0097265
0.00972454
0.00972653
0.00972448
0.00972654
0.00972443
0.00972667
0.00972485
0.00972845
0.440582
1.03545
1.95541
2.44739
2.66147
2.77936
2.82177
2.79422
2.75188
2.6416
2.47413
2.26501
2.01952
1.74998
1.54478
1.35503
1.22318
1.12615
1.03958
0.931185
0.791596
0.613828
0.304049
0.147794
0.128618
0.0265427
0.146687
0.136252
0.0591999
0.238402
0.473279
0.627659
0.689459
0.690915
0.671951
0.655409
0.633745
0.592589
0.529838
0.452463
0.370191
0.291025
0.22159
0.165638
0.122953
0.0913159
0.068083
0.0511743
0.0391458
0.030812
0.0251214
0.0212307
0.0185129
0.0165433
0.0150614
0.0139225
0.0130442
0.0123799
0.0118897
0.0115359
0.0112705
0.0110499
0.0108371
0.0106228
0.0104118
0.0102229
0.0100638
0.00994379
0.00985865
0.00980586
0.00977221
0.00975431
0.00974224
0.00973738
0.00973269
0.00973216
0.00972974
0.00973064
0.00972882
0.00973022
0.00972852
0.00973014
0.00972838
0.00973017
0.0097283
0.00973021
0.00972824
0.00973027
0.00972817
0.00973033
0.00972811
0.0097304
0.00972805
0.00973048
0.00972802
0.0097306
0.00972811
0.00973102
0.00972894
0.00973365
0.567011
0.529561
0.926414
1.50833
1.87981
2.11391
2.24226
2.271
2.27432
2.20055
2.06328
1.88219
1.66408
1.41445
1.2301
1.04382
0.913008
0.823299
0.75187
0.658072
0.501162
0.332182
0.110365
0.0295503
0.117905
0.0658263
0.159556
0.241208
0.0723363
0.131606
0.355015
0.538544
0.629183
0.647227
0.634558
0.619012
0.596887
0.554543
0.490945
0.41483
0.33535
0.25978
0.19436
0.142326
0.103358
0.0753447
0.055508
0.041668
0.0322315
0.0259355
0.0217739
0.0189892
0.0170445
0.015603
0.01447
0.0135502
0.0127996
0.012203
0.0117437
0.0114021
0.0111437
0.0109349
0.0107417
0.0105522
0.0103661
0.0101988
0.0100556
0.00994509
0.00986411
0.00981284
0.00977913
0.00976096
0.0097482
0.00974306
0.00973784
0.00973727
0.00973449
0.00973552
0.00973341
0.00973504
0.00973305
0.00973495
0.00973288
0.00973498
0.00973278
0.00973504
0.0097327
0.00973513
0.00973261
0.00973522
0.00973254
0.00973532
0.00973249
0.00973547
0.00973251
0.00973576
0.00973279
0.00973659
0.0097342
0.00974038
0.520914
0.491367
0.501254
0.73619
0.979839
1.25623
1.47597
1.58326
1.65766
1.64265
1.55644
1.41933
1.2368
1.01666
0.860141
0.681184
0.553736
0.480846
0.426867
0.344087
0.188278
0.0905373
0.0438681
0.0367189
0.148759
0.150146
0.213538
0.36374
0.216151
0.0939307
0.241599
0.433108
0.551733
0.589451
0.585258
0.571596
0.549147
0.506194
0.442837
0.369082
0.293698
0.223324
0.163565
0.117065
0.083358
0.0600472
0.044241
0.0336997
0.0267857
0.0223041
0.0193879
0.0174327
0.0160388
0.0149633
0.014069
0.0132973
0.0126308
0.012075
0.0116301
0.0112904
0.0110321
0.0108297
0.0106525
0.0104866
0.0103247
0.0101773
0.0100484
0.00994795
0.00987229
0.00982304
0.00978911
0.00977033
0.00975653
0.00975084
0.00974489
0.00974417
0.00974094
0.00974206
0.00973962
0.00974146
0.00973917
0.00974134
0.00973896
0.00974138
0.00973884
0.00974145
0.00973873
0.00974156
0.00973863
0.00974167
0.00973855
0.00974182
0.0097385
0.00974205
0.00973858
0.00974251
0.0097391
0.00974381
0.00974118
0.00974892
0.450539
0.451946
0.413203
0.473349
0.500757
0.595175
0.734177
0.834361
0.949282
0.986212
0.958721
0.877857
0.737648
0.571237
0.442079
0.294074
0.187541
0.15682
0.120491
0.0219878
0.0326002
0.0543503
0.0738609
0.085037
0.202394
0.260622
0.320752
0.493554
0.428676
0.175262
0.169888
0.323697
0.45678
0.514915
0.521392
0.510872
0.48839
0.445234
0.383424
0.313738
0.244522
0.1819
0.130521
0.0919315
0.0650285
0.0470892
0.0353897
0.0278576
0.0230267
0.0199086
0.0178503
0.0164338
0.0153879
0.0145443
0.0138042
0.0131299
0.0125175
0.0119848
0.0115431
0.0111978
0.0109339
0.0107329
0.010567
0.010421
0.0102814
0.0101535
0.0100399
0.00995082
0.00988163
0.00983501
0.00980104
0.00978148
0.00976646
0.00975997
0.00975319
0.00975213
0.00974844
0.00974952
0.0097468
0.00974874
0.00974623
0.00974856
0.00974598
0.00974859
0.00974583
0.00974867
0.00974572
0.00974878
0.00974561
0.00974892
0.00974552
0.00974909
0.00974549
0.00974938
0.00974563
0.00974999
0.00974636
0.00975169
0.00974901
0.00975794
0.380608
0.386393
0.363739
0.376476
0.360694
0.364806
0.382827
0.388032
0.423246
0.429726
0.413359
0.370369
0.267404
0.194719
0.0662134
0.0415077
0.0342329
0.0273393
0.0317625
0.0200666
0.0414918
0.0920869
0.115688
0.150414
0.286028
0.399523
0.480289
0.646284
0.652866
0.375905
0.18815
0.240347
0.354764
0.423896
0.441259
0.435156
0.413208
0.370747
0.313109
0.251132
0.192263
0.141433
0.101177
0.071707
0.0514765
0.0381953
0.0297076
0.0243122
0.020833
0.0185293
0.0169525
0.0158294
0.0149762
0.014269
0.0136271
0.0130189
0.0124437
0.0119243
0.0114796
0.0111233
0.0108483
0.0106425
0.0104812
0.0103492
0.0102295
0.0101223
0.010026
0.00994925
0.00988719
0.0098436
0.00981022
0.00979012
0.00977423
0.00976688
0.00975942
0.00975788
0.00975386
0.00975472
0.00975188
0.00975373
0.00975118
0.00975349
0.0097509
0.00975349
0.00975074
0.00975356
0.00975063
0.00975367
0.00975052
0.00975379
0.00975045
0.00975397
0.00975043
0.00975427
0.00975063
0.00975495
0.00975148
0.00975683
0.00975441
0.00976367
0.304685
0.305041
0.300026
0.296963
0.282701
0.274521
0.256003
0.24577
0.22776
0.206536
0.176406
0.130228
0.0930079
0.0424219
0.0430141
0.0430597
0.0450914
0.0557502
0.0552583
0.0573887
0.0931191
0.142924
0.177659
0.249533
0.411978
0.569265
0.679421
0.831198
0.872894
0.632356
0.327416
0.229318
0.276001
0.330109
0.350174
0.347511
0.326876
0.288282
0.241126
0.195018
0.15377
0.117878
0.0876062
0.063693
0.0464072
0.0349155
0.0276158
0.0229942
0.0199868
0.017954
0.0165324
0.0155081
0.0147312
0.0140919
0.0135104
0.0129489
0.0124018
0.0118912
0.0114399
0.0110683
0.0107768
0.0105592
0.010395
0.0102704
0.0101668
0.010079
0.00999994
0.00993516
0.0098805
0.00984066
0.00980912
0.00978945
0.00977369
0.00976599
0.00975841
0.00975647
0.00975242
0.00975298
0.00975023
0.00975184
0.00974946
0.00975153
0.00974916
0.0097515
0.00974901
0.00975156
0.0097489
0.00975165
0.00974881
0.00975176
0.00974875
0.00975192
0.00974875
0.00975219
0.00974896
0.00975282
0.0097498
0.00975461
0.00975263
0.00976128
0.215185
0.211279
0.216095
0.206983
0.199061
0.190429
0.166991
0.159249
0.138248
0.111017
0.100284
0.0689692
0.0470345
0.0489976
0.0427651
0.0414283
0.0549231
0.0656813
0.0756925
0.109421
0.163484
0.215506
0.26976
0.386171
0.577343
0.763492
0.904318
1.04779
1.09739
0.895914
0.55643
0.329073
0.266504
0.269653
0.274252
0.268331
0.249711
0.222991
0.198438
0.178665
0.158178
0.132405
0.10276
0.0748561
0.0533296
0.0388579
0.0297836
0.024172
0.0206112
0.0182589
0.0166511
0.015525
0.0147034
0.0140571
0.0134898
0.012948
0.0124135
0.0119015
0.0114362
0.0110424
0.0107276
0.0104908
0.0103163
0.0101911
0.0100961
0.0100217
0.00995656
0.00990244
0.00985571
0.00982101
0.00979317
0.00977551
0.00976128
0.00975417
0.00974724
0.00974536
0.00974166
0.00974209
0.00973958
0.00974101
0.00973884
0.00974071
0.00973854
0.00974068
0.00973839
0.00974074
0.00973829
0.00974082
0.0097382
0.00974093
0.00973814
0.00974107
0.00973813
0.00974131
0.0097383
0.00974185
0.00973903
0.0097434
0.00974154
0.0097494
0.12088
0.114637
0.121991
0.108255
0.110679
0.0971369
0.0833824
0.0818673
0.0579956
0.0557422
0.047859
0.0297593
0.0450055
0.0490392
0.0561419
0.0907497
0.11299
0.130051
0.165074
0.210309
0.252865
0.306293
0.396768
0.558872
0.769284
0.969116
1.13983
1.28782
1.33155
1.15901
0.820676
0.517752
0.356653
0.29062
0.26228
0.245372
0.232816
0.229202
0.233223
0.233636
0.21922
0.187523
0.145702
0.105234
0.0735366
0.0517812
0.0378923
0.0292492
0.0238167
0.0203079
0.0179867
0.0164231
0.0153345
0.0145222
0.0138474
0.0132292
0.0126327
0.0120627
0.011541
0.0110945
0.010735
0.0104636
0.0102664
0.0101292
0.0100319
0.00996193
0.00990503
0.00985969
0.00982109
0.00979313
0.00977061
0.00975697
0.00974547
0.00974038
0.00973451
0.00973363
0.00973013
0.0097312
0.00972845
0.00973045
0.00972778
0.00973032
0.00972745
0.0097304
0.00972722
0.00973057
0.00972702
0.00973076
0.00972684
0.00973096
0.00972667
0.00973122
0.00972656
0.00973158
0.00972665
0.00973225
0.00972736
0.00973397
0.00973016
0.00974026
0.0467236
0.0492893
0.051133
0.0413089
0.05225
0.0367966
0.0439534
0.0420069
0.0369749
0.0517269
0.0495138
0.0658095
0.0917599
0.10798
0.142572
0.179429
0.195201
0.22451
0.269357
0.304772
0.344074
0.427188
0.569094
0.755181
0.962901
1.16799
1.35471
1.50366
1.54374
1.39872
1.09342
0.765982
0.535494
0.408109
0.348832
0.326893
0.326735
0.338506
0.346843
0.337734
0.30587
0.255701
0.198809
0.146515
0.104889
0.0749482
0.0547436
0.0414597
0.0327241
0.0268966
0.0229831
0.0203348
0.0184767
0.017068
0.0158881
0.0148206
0.0138267
0.0129202
0.0121284
0.0114768
0.0109692
0.0105964
0.0103324
0.0101546
0.0100345
0.00995648
0.00990028
0.00986277
0.00983264
0.00981488
0.00979894
0.00979281
0.00978408
0.00978408
0.00977809
0.0097811
0.0097756
0.00978039
0.00977438
0.00978056
0.00977357
0.00978105
0.00977284
0.00978172
0.00977206
0.00978253
0.00977124
0.00978336
0.00977046
0.00978425
0.00976967
0.00978539
0.00976895
0.00978688
0.00976883
0.00978933
0.00977052
0.00979469
0.00977823
0.00980974
0.054777
0.0652491
0.0566354
0.064434
0.0678373
0.0669863
0.0834737
0.0831828
0.0992308
0.115801
0.126289
0.15808
0.183255
0.209363
0.252183
0.278193
0.297003
0.340832
0.379055
0.40002
0.460729
0.587847
0.755086
0.927282
1.10246
1.29259
1.47871
1.62588
1.67235
1.56233
1.31015
1.00784
0.759019
0.602167
0.526066
0.498188
0.489273
0.481323
0.461928
0.425221
0.371857
0.308303
0.244289
0.187555
0.141659
0.106881
0.0817639
0.064094
0.0517243
0.0430024
0.0368692
0.0325195
0.0292235
0.0264217
0.0237939
0.0212371
0.0187944
0.0165993
0.0147563
0.0133184
0.0122505
0.0115043
0.010994
0.0106688
0.0104595
0.0103469
0.0102804
0.0102612
0.0102477
0.0102592
0.0102566
0.0102742
0.0102678
0.0102857
0.0102735
0.0102925
0.0102749
0.0102966
0.0102739
0.0102999
0.0102718
0.0103029
0.0102688
0.0103064
0.0102652
0.0103104
0.0102612
0.0103146
0.0102574
0.010319
0.0102534
0.010325
0.0102494
0.0103333
0.0102483
0.0103469
0.0102562
0.0103759
0.0102932