/*--------------------------------*- C++ -*----------------------------------*\
| =========                 |                                                 |
| \\      /  F ield         | OpenFOAM: The Open Source CFD Toolbox           |
|  \\    /   O peration     | Version:  v2012                                 |
|   \\  /    A nd           | Website:  www.openfoam.com                      |
|    \\/     M anipulation  |                                                 |
\*---------------------------------------------------------------------------*/
FoamFile
{
    version     2.0;
    format      ascii;
    class       surfaceScalarField;
    location    "0.146";
    object      phi.air;
}
// * * * * * * * * * * * * * * * * * * * * * * * * * * * * * * * * * * * * * //

dimensions      [0 3 -1 0 0 0 0];
oriented        oriented;


internalField   nonuniform List<scalar> 
10964
(
0.00133692
2.84307e-05
0.00129801
3.81188e-05
0.001253
4.42121e-05
0.00120457
4.76341e-05
0.00115604
4.77299e-05
0.00110999
4.52424e-05
0.00106813
4.10499e-05
0.0010316
3.57166e-05
0.0010002
3.05943e-05
0.000973654
2.57294e-05
0.000951928
2.09102e-05
0.000934819
1.62922e-05
0.000921856
1.21452e-05
0.000912427
8.61056e-06
0.000905882
5.72629e-06
0.000901517
3.54727e-06
0.000898737
1.96148e-06
0.000897021
8.97947e-07
0.000896009
1.949e-07
0.000895381
-1.90172e-07
0.000894993
-4.28744e-07
0.000894688
-5.11881e-07
0.00089445
-5.77964e-07
0.000894275
-6.41843e-07
0.000894181
-7.22525e-07
0.000894152
-7.86948e-07
0.0008942
-8.63238e-07
0.000894291
-9.06916e-07
0.000894427
-9.51586e-07
0.000894605
-9.93119e-07
0.00089477
-9.80011e-07
0.000894907
-9.52346e-07
0.000894998
-9.05743e-07
0.00089502
-8.37121e-07
0.000894982
-7.7632e-07
0.000894894
-7.26815e-07
0.000894758
-6.7844e-07
0.000894589
-6.46016e-07
0.000894385
-6.10027e-07
0.000894166
-5.96435e-07
0.000893929
-5.76866e-07
0.000893687
-5.72624e-07
0.000893441
-5.68955e-07
0.000893202
-5.74713e-07
0.000892967
-5.79436e-07
0.000892754
-6.02395e-07
0.000892558
-6.17625e-07
0.000892378
-6.34761e-07
0.00089221
-6.4693e-07
0.00089206
-6.63898e-07
0.000891919
-6.73941e-07
0.000891793
-6.8833e-07
0.000891675
-6.96367e-07
0.00089157
-7.09579e-07
0.000891473
-7.16711e-07
0.000891389
-7.30604e-07
0.000891314
-7.39062e-07
0.000891252
-7.52591e-07
0.00089121
-7.727e-07
0.000891183
-7.86357e-07
0.000891167
-7.99178e-07
0.000891169
-8.15351e-07
0.000891178
-8.23595e-07
0.000891213
-8.49019e-07
0.000891256
-8.57355e-07
0.00089132
-8.78306e-07
0.000891393
-8.87173e-07
0.000891488
-9.08849e-07
0.000891591
-9.17617e-07
0.000891716
-9.38481e-07
0.000891844
-9.42995e-07
0.000891992
-9.61496e-07
0.000892147
-9.69436e-07
0.000892322
-9.89095e-07
0.000892503
-9.9416e-07
0.000892703
-1.01395e-06
0.000892906
-1.01697e-06
0.000893126
-1.03435e-06
0.00089335
-1.03797e-06
0.000893587
-1.05073e-06
0.000893828
-1.055e-06
0.00089408
-1.06507e-06
0.000894336
-1.0698e-06
0.000894601
-1.07897e-06
0.000894875
-1.08757e-06
0.000895146
-1.08425e-06
0.000895441
-1.10849e-06
0.000895707
-1.08035e-06
0.000896028
-1.13428e-06
0.000896282
-1.06753e-06
0.00089666
-1.19118e-06
0.000896942
-1.09511e-06
0.000897364
-1.23546e-06
0.000897594
-1.04373e-06
0.000898116
-1.33514e-06
0.000898286
-9.8318e-07
0.000898966
-1.49362e-06
0.000900272
-2.11812e-06
0.000897234
2.22215e-06
-1.83381e-05
0.000914763
0.00151471
2.62792e-05
0.00151419
3.86391e-05
0.00151229
4.61134e-05
0.00150787
5.20562e-05
0.00150065
5.49477e-05
0.00149084
5.50497e-05
0.00147871
5.31852e-05
0.0014647
4.97221e-05
0.00144941
4.58875e-05
0.00143338
4.17545e-05
0.00141695
3.7341e-05
0.0014005
3.27474e-05
0.00138431
2.83284e-05
0.00136876
2.41655e-05
0.00135412
2.0365e-05
0.00134055
1.71152e-05
0.00132816
1.43502e-05
0.00131701
1.20545e-05
0.00130705
1.01541e-05
0.00129823
8.62513e-06
0.00129048
7.3287e-06
0.00128371
6.25066e-06
0.00127788
5.25835e-06
0.00127292
4.31257e-06
0.00126866
3.53805e-06
0.00126493
2.9422e-06
0.00126168
2.38871e-06
0.00125882
1.95231e-06
0.00125629
1.57989e-06
0.00125393
1.3644e-06
0.00125173
1.22192e-06
0.00124966
1.12209e-06
0.00124772
1.03508e-06
0.00124591
9.7003e-07
0.00124423
9.03041e-07
0.00124268
8.26128e-07
0.00124125
7.5041e-07
0.00123993
6.7482e-07
0.0012387
6.11576e-07
0.00123757
5.35541e-07
0.00123652
4.73032e-07
0.00123555
4.00693e-07
0.00123465
3.30553e-07
0.00123382
2.59046e-07
0.00123305
1.8758e-07
0.00123233
1.1196e-07
0.00123166
5.42781e-08
0.00123103
-4.479e-09
0.00123044
-5.44809e-08
0.00122989
-1.10179e-07
0.00122937
-1.54583e-07
0.00122888
-2.04979e-07
0.00122843
-2.44528e-07
0.00122801
-2.92215e-07
0.00122763
-3.29417e-07
0.00122727
-3.7726e-07
0.00122695
-4.15804e-07
0.00122666
-4.61556e-07
0.0012264
-5.14968e-07
0.00122618
-5.62219e-07
0.00122598
-6.00877e-07
0.00122581
-6.48441e-07
0.00122567
-6.82135e-07
0.00122556
-7.37382e-07
0.00122547
-7.71841e-07
0.00122541
-8.19434e-07
0.00122539
-8.57656e-07
0.00122538
-9.00959e-07
0.00122539
-9.28648e-07
0.00122542
-9.74192e-07
0.00122548
-9.96408e-07
0.00122556
-1.03947e-06
0.00122565
-1.06459e-06
0.00122577
-1.10641e-06
0.0012259
-1.12605e-06
0.00122605
-1.16727e-06
0.00122622
-1.18267e-06
0.0012264
-1.21977e-06
0.0012266
-1.23502e-06
0.00122682
-1.26472e-06
0.00122704
-1.27899e-06
0.00122728
-1.30722e-06
0.00122753
-1.31765e-06
0.0012278
-1.35264e-06
0.00122807
-1.35862e-06
0.00122838
-1.38683e-06
0.00122867
-1.39673e-06
0.001229
-1.41517e-06
0.0012293
-1.43819e-06
0.00122966
-1.42842e-06
0.00122997
-1.49481e-06
0.00123039
-1.51567e-06
0.00123068
-1.52608e-06
0.0012312
-1.56291e-06
0.00123143
-1.56661e-06
0.0012322
-1.74937e-06
0.00123235
-1.64233e-06
0.00123362
-3.39597e-06
0.00123377
2.07771e-06
-2.52315e-05
0.00124066
0.00167797
2.29735e-05
0.00168094
3.56662e-05
0.00168479
4.2268e-05
0.00168871
4.81414e-05
0.0016922
5.14479e-05
0.00169503
5.22236e-05
0.00169688
5.13405e-05
0.00169741
4.91904e-05
0.0016966
4.66949e-05
0.00169456
4.37939e-05
0.00169111
4.07938e-05
0.00168616
3.76996e-05
0.00167971
3.47733e-05
0.00167181
3.20657e-05
0.00166262
2.95583e-05
0.0016523
2.74354e-05
0.00164112
2.55248e-05
0.00162942
2.37535e-05
0.00161747
2.21105e-05
0.00160566
2.04348e-05
0.00159422
1.87698e-05
0.00158341
1.70548e-05
0.00157339
1.52783e-05
0.00156425
1.34535e-05
0.001556
1.17885e-05
0.00154861
1.03319e-05
0.00154199
9.00621e-06
0.00153605
7.89499e-06
0.00153068
6.95408e-06
0.00152575
6.29136e-06
0.00152124
5.72881e-06
0.00151712
5.24938e-06
0.00151336
4.78662e-06
0.00150996
4.37849e-06
0.00150687
3.98906e-06
0.00150406
3.63724e-06
0.00150151
3.30326e-06
0.00149916
3.0179e-06
0.00149702
2.75759e-06
0.00149504
2.51268e-06
0.00149322
2.29052e-06
0.00149155
2.07545e-06
0.00149001
1.86415e-06
0.00148859
1.68275e-06
0.00148727
1.51167e-06
0.00148602
1.36198e-06
0.00148484
1.23271e-06
0.00148373
1.10085e-06
0.0014827
9.80065e-07
0.00148173
8.56658e-07
0.00148083
7.48468e-07
0.00147999
6.36129e-07
0.0014792
5.39022e-07
0.00147848
4.33283e-07
0.00147781
3.42265e-07
0.00147719
2.38592e-07
0.00147663
1.49046e-07
0.00147611
5.27941e-08
0.00147565
-5.08804e-08
0.00147523
-1.483e-07
0.00147486
-2.27976e-07
0.00147453
-3.19668e-07
0.00147424
-3.92996e-07
0.00147399
-4.87414e-07
0.00147378
-5.5922e-07
0.0014736
-6.42698e-07
0.00147346
-7.13891e-07
0.00147335
-7.90855e-07
0.00147327
-8.48709e-07
0.00147322
-9.22693e-07
0.0014732
-9.80333e-07
0.00147321
-1.04608e-06
0.00147324
-1.09214e-06
0.00147329
-1.16001e-06
0.00147336
-1.20045e-06
0.00147346
-1.26599e-06
0.00147358
-1.30046e-06
0.00147372
-1.36058e-06
0.00147388
-1.39359e-06
0.00147406
-1.444e-06
0.00147425
-1.47473e-06
0.00147447
-1.52444e-06
0.0014747
-1.5481e-06
0.00147496
-1.61088e-06
0.00147522
-1.62234e-06
0.00147552
-1.68214e-06
0.00147581
-1.68641e-06
0.00147614
-1.74924e-06
0.00147646
-1.7541e-06
0.00147684
-1.80982e-06
0.00147717
-1.8262e-06
0.00147758
-1.92858e-06
0.00147793
-1.87204e-06
0.00147841
-2.04618e-06
0.00147876
-1.91503e-06
0.00147939
-2.37663e-06
0.00147975
-2.00755e-06
0.00148077
-4.41262e-06
0.00148262
2.29486e-07
-2.62131e-05
0.0014836
0.00185751
1.96102e-05
0.00186113
3.20415e-05
0.0018658
3.76012e-05
0.00187103
4.2908e-05
0.00187644
4.60374e-05
0.00188185
4.68171e-05
0.00188705
4.61463e-05
0.00189183
4.44058e-05
0.00189615
4.2379e-05
0.00189994
3.99998e-05
0.00190315
3.75833e-05
0.00190574
3.51111e-05
0.00190765
3.28594e-05
0.00190886
3.08576e-05
0.00190926
2.91562e-05
0.00190879
2.79039e-05
0.00190751
2.68096e-05
0.00190528
2.59823e-05
0.00190203
2.5365e-05
0.00189769
2.47757e-05
0.00189225
2.42054e-05
0.00188573
2.35722e-05
0.0018782
2.28058e-05
0.00186981
2.18504e-05
0.00186076
2.08331e-05
0.0018514
1.96949e-05
0.0018419
1.85049e-05
0.00183263
1.7166e-05
0.00182375
1.58382e-05
0.00181547
1.45688e-05
0.00180787
1.33313e-05
0.00180092
1.21942e-05
0.00179462
1.10849e-05
0.00178892
1.00853e-05
0.00178373
9.17901e-06
0.00177893
8.43465e-06
0.00177448
7.74866e-06
0.00177035
7.14969e-06
0.00176652
6.58552e-06
0.00176297
6.06349e-06
0.00175969
5.57192e-06
0.00175666
5.10825e-06
0.00175387
4.65231e-06
0.0017513
4.25499e-06
0.00174895
3.85882e-06
0.00174678
3.52955e-06
0.00174478
3.23417e-06
0.00174292
2.96229e-06
0.00174119
2.70771e-06
0.00173958
2.46689e-06
0.00173808
2.24693e-06
0.00173669
2.03134e-06
0.00173539
1.83609e-06
0.00173419
1.63572e-06
0.00173308
1.45446e-06
0.00173205
1.26352e-06
0.00173111
1.0933e-06
0.00173024
9.20036e-07
0.00172945
7.3897e-07
0.00172873
5.7014e-07
0.00172808
4.26743e-07
0.00172749
2.72834e-07
0.00172695
1.43151e-07
0.00172647
-4.69098e-09
0.00172603
-1.274e-07
0.00172565
-2.59684e-07
0.00172531
-3.74214e-07
0.00172502
-4.95867e-07
0.00172476
-5.95421e-07
0.00172455
-7.08625e-07
0.00172438
-8.08208e-07
0.00172424
-9.06563e-07
0.00172413
-9.84289e-07
0.00172405
-1.07741e-06
0.001724
-1.14954e-06
0.00172397
-1.24066e-06
0.00172398
-1.30908e-06
0.00172401
-1.39407e-06
0.00172408
-1.45701e-06
0.00172417
-1.53303e-06
0.00172428
-1.59248e-06
0.00172442
-1.66526e-06
0.00172459
-1.71794e-06
0.00172479
-1.80245e-06
0.001725
-1.84017e-06
0.00172524
-1.91573e-06
0.0017255
-1.948e-06
0.00172577
-2.02509e-06
0.00172608
-2.06268e-06
0.00172641
-2.13163e-06
0.00172676
-2.18398e-06
0.00172712
-2.28052e-06
0.00172753
-2.28555e-06
0.00172791
-2.42653e-06
0.00172839
-2.39362e-06
0.00172882
-2.81277e-06
0.0017294
-2.58587e-06
0.00173009
-5.10208e-06
0.00173232
-1.99482e-06
-2.52546e-05
0.00173136
0.00205619
1.6276e-05
0.00206033
2.79052e-05
0.00206546
3.24765e-05
0.00207129
3.70777e-05
0.00207741
3.991e-05
0.00208362
4.06143e-05
0.00208974
4.00185e-05
0.00209559
3.85634e-05
0.00210114
3.68263e-05
0.00210635
3.47935e-05
0.00211119
3.27351e-05
0.00211568
3.06289e-05
0.0021198
2.87335e-05
0.00212361
2.70501e-05
0.00212711
2.56546e-05
0.00213036
2.46587e-05
0.00213333
2.38317e-05
0.00213606
2.3258e-05
0.00213851
2.29082e-05
0.00214067
2.26182e-05
0.00214245
2.24281e-05
0.00214382
2.22054e-05
0.00214462
2.20021e-05
0.00214472
2.17477e-05
0.00214412
2.1439e-05
0.00214272
2.1092e-05
0.00214043
2.07941e-05
0.0021372
2.03939e-05
0.00213308
1.99643e-05
0.00212814
1.95035e-05
0.00212252
1.89543e-05
0.00211634
1.83735e-05
0.00210977
1.76586e-05
0.00210297
1.68843e-05
0.00209603
1.61151e-05
0.00208921
1.52516e-05
0.00208256
1.43989e-05
0.0020762
1.35093e-05
0.00207016
1.26301e-05
0.00206447
1.17507e-05
0.00205915
1.08946e-05
0.00205418
1.00752e-05
0.00204957
9.26804e-06
0.00204528
8.5423e-06
0.00204135
7.79147e-06
0.00203766
7.21465e-06
0.00203421
6.68365e-06
0.00203098
6.19737e-06
0.00202795
5.73198e-06
0.00202512
5.29828e-06
0.00202248
4.88993e-06
0.00202001
4.49875e-06
0.00201772
4.13256e-06
0.00201558
3.77108e-06
0.0020136
3.43305e-06
0.00201177
3.09598e-06
0.00201008
2.78151e-06
0.00200852
2.48081e-06
0.00200708
2.17419e-06
0.00200575
1.9017e-06
0.00200452
1.66384e-06
0.00200337
1.42317e-06
0.0020023
1.21139e-06
0.00200131
9.87001e-07
0.00200039
7.91617e-07
0.00199954
5.89316e-07
0.00199876
4.08087e-07
0.00199804
2.20889e-07
0.00199739
5.58162e-08
0.0019968
-1.18199e-07
0.00199627
-2.81192e-07
0.0019958
-4.35169e-07
0.00199539
-5.73493e-07
0.00199503
-7.15812e-07
0.00199472
-8.47788e-07
0.00199446
-9.79559e-07
0.00199426
-1.10524e-06
0.00199409
-1.22657e-06
0.00199397
-1.3382e-06
0.00199389
-1.44591e-06
0.00199384
-1.5481e-06
0.00199383
-1.65569e-06
0.00199386
-1.75084e-06
0.00199391
-1.85007e-06
0.00199401
-1.93802e-06
0.00199412
-2.02172e-06
0.00199428
-2.11099e-06
0.00199444
-2.18696e-06
0.00199467
-2.29248e-06
0.00199489
-2.35125e-06
0.00199517
-2.46791e-06
0.00199545
-2.55223e-06
0.00199579
-2.63155e-06
0.00199612
-2.75361e-06
0.00199654
-2.811e-06
0.00199695
-3.22648e-06
0.00199747
-3.10241e-06
0.00199801
-5.64083e-06
0.00199988
-3.86473e-06
-2.43922e-05
0.00199901
0.00227616
1.29882e-05
0.00228085
2.32197e-05
0.00228645
2.68727e-05
0.00229284
3.06862e-05
0.00229961
3.31369e-05
0.00230649
3.37418e-05
0.00231328
3.32212e-05
0.00231981
3.20319e-05
0.00232605
3.05904e-05
0.00233194
2.89047e-05
0.00233748
2.71953e-05
0.00234266
2.54462e-05
0.00234752
2.38724e-05
0.0023521
2.24743e-05
0.00235644
2.13178e-05
0.0023606
2.04899e-05
0.00236462
1.98182e-05
0.00236853
1.93507e-05
0.00237236
1.90769e-05
0.00237611
1.88673e-05
0.0023798
1.87361e-05
0.0023834
1.86073e-05
0.00238692
1.84821e-05
0.00239031
1.83581e-05
0.00239356
1.81855e-05
0.00239663
1.80243e-05
0.00239951
1.7915e-05
0.00240213
1.777e-05
0.00240444
1.76553e-05
0.00240643
1.75122e-05
0.00240796
1.74281e-05
0.00240905
1.72781e-05
0.00240955
1.71639e-05
0.00240938
1.7051e-05
0.00240864
1.68573e-05
0.00240729
1.65996e-05
0.00240533
1.63562e-05
0.0024028
1.60458e-05
0.00239971
1.57145e-05
0.00239615
1.53138e-05
0.00239217
1.48782e-05
0.00238785
1.43916e-05
0.00238328
1.38421e-05
0.00237853
1.32855e-05
0.00237369
1.26304e-05
0.00236888
1.20262e-05
0.00236413
1.14356e-05
0.00235952
1.08091e-05
0.00235507
1.01841e-05
0.00235081
9.5534e-06
0.00234676
8.93723e-06
0.00234293
8.32883e-06
0.00233933
7.74085e-06
0.00233593
7.16792e-06
0.00233275
6.61594e-06
0.00232975
6.08906e-06
0.00232697
5.56291e-06
0.00232434
5.11579e-06
0.00232183
4.6819e-06
0.00231944
4.29513e-06
0.00231715
3.9446e-06
0.00231499
3.58967e-06
0.00231294
3.2599e-06
0.002311
2.92632e-06
0.00230918
2.61239e-06
0.00230746
2.30424e-06
0.00230587
2.00637e-06
0.00230437
1.71735e-06
0.00230299
1.44011e-06
0.0023017
1.16882e-06
0.00230052
9.0143e-07
0.00229943
6.54905e-07
0.00229844
4.0845e-07
0.00229755
1.78254e-07
0.00229675
-4.49248e-08
0.00229601
-2.47354e-07
0.00229536
-4.47034e-07
0.00229476
-6.28721e-07
0.00229423
-8.06493e-07
0.00229374
-9.62365e-07
0.00229332
-1.12662e-06
0.00229294
-1.27488e-06
0.00229262
-1.43421e-06
0.00229234
-1.56855e-06
0.00229212
-1.71804e-06
0.00229194
-1.84298e-06
0.00229182
-1.98351e-06
0.00229174
-2.10621e-06
0.0022917
-2.25527e-06
0.0022917
-2.34873e-06
0.00229175
-2.52318e-06
0.00229183
-2.6274e-06
0.00229197
-2.7726e-06
0.00229214
-2.92156e-06
0.00229235
-3.02725e-06
0.00229262
-3.49898e-06
0.00229303
-3.50943e-06
0.00229342
-6.03317e-06
0.00229499
-5.42843e-06
-2.34322e-05
0.00229403
0.00251975
9.70111e-06
0.00252499
1.79769e-05
0.00253113
2.07332e-05
0.00253813
2.36854e-05
0.00254561
2.56628e-05
0.0025532
2.61441e-05
0.0025607
2.57244e-05
0.00256792
2.48083e-05
0.00257483
2.36879e-05
0.00258136
2.23765e-05
0.00258751
2.10424e-05
0.00259327
1.96803e-05
0.0025987
1.84497e-05
0.00260381
1.73574e-05
0.00260868
1.64505e-05
0.00261337
1.57983e-05
0.00261791
1.52782e-05
0.00262236
1.49072e-05
0.00262674
1.46923e-05
0.00263108
1.45295e-05
0.00263539
1.44295e-05
0.00263965
1.43384e-05
0.00264389
1.42459e-05
0.00264809
1.41592e-05
0.00265224
1.40341e-05
0.00265635
1.39189e-05
0.00266042
1.38441e-05
0.00266443
1.37548e-05
0.00266841
1.36812e-05
0.00267231
1.36047e-05
0.00267618
1.35646e-05
0.00267995
1.35082e-05
0.00268365
1.34601e-05
0.00268723
1.34674e-05
0.00269069
1.33996e-05
0.00269397
1.3324e-05
0.00269707
1.32537e-05
0.00269993
1.31867e-05
0.00270254
1.31045e-05
0.00270484
1.30141e-05
0.0027068
1.29212e-05
0.00270839
1.2797e-05
0.00270953
1.27009e-05
0.0027103
1.25217e-05
0.00271051
1.24171e-05
0.00271028
1.22588e-05
0.00270965
1.2058e-05
0.00270863
1.18317e-05
0.00270721
1.16065e-05
0.00270542
1.13414e-05
0.00270329
1.1066e-05
0.00270087
1.07496e-05
0.0026982
1.04173e-05
0.00269532
1.00455e-05
0.00269228
9.65363e-06
0.00268914
9.23203e-06
0.00268592
8.78125e-06
0.00268269
8.34154e-06
0.00267949
7.88389e-06
0.00267634
7.44212e-06
0.00267327
7.0231e-06
0.00267027
6.58993e-06
0.00266738
6.1466e-06
0.00266459
5.71525e-06
0.00266193
5.2736e-06
0.00265938
4.85376e-06
0.00265696
4.42347e-06
0.00265466
4.01922e-06
0.00265248
3.61663e-06
0.00265042
3.22877e-06
0.00264848
2.84684e-06
0.00264665
2.48312e-06
0.00264492
2.1364e-06
0.00264326
1.83924e-06
0.00264167
1.54684e-06
0.00264014
1.27868e-06
0.0026387
1.00078e-06
0.00263732
7.45161e-07
0.00263603
4.84107e-07
0.00263481
2.54435e-07
0.00263368
6.19585e-09
0.00263262
-2.15915e-07
0.00263165
-4.57667e-07
0.00263075
-6.6822e-07
0.00262992
-8.96147e-07
0.00262918
-1.09868e-06
0.00262851
-1.31314e-06
0.00262792
-1.51465e-06
0.00262739
-1.72879e-06
0.00262694
-1.90028e-06
0.00262655
-2.12717e-06
0.00262623
-2.3095e-06
0.00262596
-2.50836e-06
0.00262578
-2.73512e-06
0.00262566
-2.90698e-06
0.00262558
-3.41717e-06
0.0026257
-3.63885e-06
0.00262577
-6.09668e-06
0.00262685
-6.5104e-06
-2.22071e-05
0.00262563
0.00278949
6.37534e-06
0.00279533
1.21359e-05
0.00280208
1.39831e-05
0.00280975
1.60109e-05
0.002818
1.7412e-05
0.0028264
1.77451e-05
0.00283468
1.7447e-05
0.00284267
1.68204e-05
0.0028503
1.60529e-05
0.00285753
1.51515e-05
0.00286434
1.4232e-05
0.00287072
1.32945e-05
0.00287673
1.24431e-05
0.0028824
1.16872e-05
0.0028878
1.10523e-05
0.002893
1.05969e-05
0.00289804
1.02376e-05
0.00290297
9.97222e-06
0.00290785
9.81914e-06
0.00291267
9.70481e-06
0.00291747
9.63605e-06
0.00292223
9.5771e-06
0.00292696
9.51771e-06
0.00293166
9.45895e-06
0.00293631
9.37642e-06
0.00294094
9.29587e-06
0.00294553
9.24583e-06
0.0029501
9.18543e-06
0.00295465
9.13524e-06
0.00295917
9.08234e-06
0.00296368
9.05593e-06
0.00296817
9.02269e-06
0.00297264
8.98836e-06
0.0029771
9.0072e-06
0.00298153
8.97146e-06
0.00298592
8.92599e-06
0.00299029
8.88417e-06
0.00299462
8.85736e-06
0.00299891
8.81358e-06
0.00300315
8.77904e-06
0.00300734
8.73481e-06
0.00301144
8.69004e-06
0.00301549
8.65407e-06
0.00301942
8.58647e-06
0.00302328
8.56215e-06
0.003027
8.54178e-06
0.00303058
8.4745e-06
0.003034
8.4161e-06
0.00303724
8.35931e-06
0.00304028
8.30505e-06
0.0030431
8.24334e-06
0.00304567
8.18101e-06
0.00304798
8.11285e-06
0.00304998
8.03603e-06
0.00305168
7.9585e-06
0.00305306
7.85536e-06
0.00305406
7.77858e-06
0.00305477
7.63111e-06
0.00305511
7.5441e-06
0.00305517
7.38033e-06
0.00305494
7.25005e-06
0.00305446
7.07662e-06
0.00305371
6.89515e-06
0.00305272
6.70122e-06
0.00305151
6.48399e-06
0.00305011
6.25508e-06
0.00304854
5.9991e-06
0.00304682
5.73456e-06
0.00304499
5.44901e-06
0.00304306
5.15668e-06
0.00304108
4.83166e-06
0.00303904
4.51478e-06
0.00303701
4.1706e-06
0.00303499
3.86358e-06
0.00303299
3.54175e-06
0.00303103
3.23764e-06
0.00302912
2.91492e-06
0.00302726
2.60447e-06
0.00302546
2.28468e-06
0.00302372
1.99116e-06
0.00302205
1.67395e-06
0.00302046
1.37502e-06
0.00301894
1.0611e-06
0.00301751
7.68185e-07
0.00301614
4.66739e-07
0.00301486
1.80259e-07
0.00301366
-1.09077e-07
0.00301254
-3.97916e-07
0.0030115
-6.82088e-07
0.00301054
-9.41157e-07
0.00300964
-1.2257e-06
0.00300882
-1.49366e-06
0.00300804
-1.72478e-06
0.00300732
-2.01362e-06
0.00300667
-2.25675e-06
0.00300605
-2.80326e-06
0.00300562
-3.20907e-06
0.00300517
-5.64087e-06
0.00300562
-6.96451e-06
-2.05778e-05
0.00300399
0.0030882
2.93867e-06
0.00309468
5.64989e-06
0.00310213
6.53952e-06
0.00311056
7.58074e-06
0.00311967
8.29766e-06
0.00312896
8.4575e-06
0.00313811
8.30037e-06
0.00314694
7.98389e-06
0.00315539
7.60531e-06
0.00316339
7.15377e-06
0.00317093
6.69434e-06
0.003178
6.22229e-06
0.00318465
5.79164e-06
0.00319093
5.40607e-06
0.00319691
5.07052e-06
0.00320267
4.83702e-06
0.00320826
4.65317e-06
0.00321372
4.5059e-06
0.00321912
4.42332e-06
0.00322446
4.36135e-06
0.00322977
4.32878e-06
0.00323504
4.30475e-06
0.00324028
4.28111e-06
0.00324548
4.25363e-06
0.00325065
4.21425e-06
0.00325577
4.17131e-06
0.00326087
4.14691e-06
0.00326594
4.1151e-06
0.00327099
4.08815e-06
0.00327601
4.05733e-06
0.00328102
4.04394e-06
0.00328602
4.02655e-06
0.00329101
4.00266e-06
0.00329599
4.02649e-06
0.00330094
4.01612e-06
0.00330588
3.98665e-06
0.0033108
3.96462e-06
0.0033157
3.95427e-06
0.00332058
3.93463e-06
0.00332544
3.91926e-06
0.00333028
3.90017e-06
0.00333509
3.87933e-06
0.00333988
3.86482e-06
0.00334464
3.82863e-06
0.00334937
3.82248e-06
0.00335409
3.82957e-06
0.00335876
3.79724e-06
0.00336341
3.77026e-06
0.00336802
3.74647e-06
0.0033726
3.73085e-06
0.00337713
3.70685e-06
0.00338162
3.69186e-06
0.00338607
3.66879e-06
0.00339045
3.653e-06
0.00339478
3.63109e-06
0.00339903
3.60721e-06
0.00340321
3.5964e-06
0.00340728
3.55782e-06
0.00341127
3.55108e-06
0.00341513
3.52115e-06
0.00341888
3.50519e-06
0.00342248
3.47946e-06
0.00342593
3.44448e-06
0.00342921
3.42187e-06
0.00343231
3.38147e-06
0.00343521
3.35009e-06
0.00343791
3.30276e-06
0.00344038
3.26257e-06
0.00344262
3.21188e-06
0.00344461
3.16329e-06
0.00344635
3.09385e-06
0.00344783
3.03381e-06
0.00344904
2.95885e-06
0.00345003
2.87236e-06
0.0034508
2.77882e-06
0.00345136
2.67395e-06
0.0034517
2.57787e-06
0.00345186
2.43994e-06
0.0034518
2.34163e-06
0.0034516
2.19193e-06
0.00345125
2.02907e-06
0.00345076
1.86573e-06
0.00345014
1.68288e-06
0.00344941
1.49597e-06
0.00344858
1.29423e-06
0.00344768
1.08348e-06
0.00344671
8.59117e-07
0.00344569
6.16639e-07
0.00344465
3.64813e-07
0.00344359
1.1856e-07
0.00344251
-1.47434e-07
0.00344144
-4.22384e-07
0.00344037
-6.57616e-07
0.00343932
-9.63642e-07
0.00343832
-1.25171e-06
0.00343732
-1.80466e-06
0.00343646
-2.35561e-06
0.00343551
-4.68258e-06
0.00343531
-6.77272e-06
-1.83832e-05
0.00343312
0.00341903
-7.29105e-07
0.00342623
-1.54333e-06
0.00343445
-1.6867e-06
0.00344374
-1.71075e-06
0.00345382
-1.78141e-06
0.0034641
-1.81755e-06
0.00347421
-1.81595e-06
0.00348399
-1.79606e-06
0.00349334
-1.74389e-06
0.0035022
-1.70047e-06
0.00351054
-1.64929e-06
0.00351837
-1.6092e-06
0.00352574
-1.57355e-06
0.00353269
-1.54974e-06
0.00353932
-1.5572e-06
0.0035457
-1.54028e-06
0.00355188
-1.53204e-06
0.00355794
-1.548e-06
0.00356391
-1.55035e-06
0.00356983
-1.55542e-06
0.0035757
-1.5469e-06
0.00358154
-1.53206e-06
0.00358734
-1.51633e-06
0.0035931
-1.50829e-06
0.00359882
-1.50124e-06
0.00360449
-1.50248e-06
0.00361013
-1.49829e-06
0.00361575
-1.49889e-06
0.00362134
-1.50001e-06
0.0036269
-1.50703e-06
0.00363245
-1.50543e-06
0.00363798
-1.50552e-06
0.00364351
-1.52068e-06
0.00364902
-1.48772e-06
0.00365451
-1.47474e-06
0.00365998
-1.48498e-06
0.00366544
-1.48794e-06
0.00367087
-1.48095e-06
0.00367628
-1.47685e-06
0.00368167
-1.47237e-06
0.00368704
-1.46755e-06
0.00369239
-1.46605e-06
0.00369771
-1.45963e-06
0.00370301
-1.47073e-06
0.00370829
-1.45976e-06
0.00371356
-1.43284e-06
0.00371879
-1.43689e-06
0.003724
-1.44255e-06
0.00372919
-1.44295e-06
0.00373436
-1.43825e-06
0.00373951
-1.43869e-06
0.00374463
-1.43347e-06
0.00374973
-1.43325e-06
0.00375481
-1.42782e-06
0.00375987
-1.42666e-06
0.00376491
-1.42668e-06
0.00376992
-1.41847e-06
0.0037749
-1.42447e-06
0.00377987
-1.41719e-06
0.0037848
-1.40977e-06
0.00378971
-1.40082e-06
0.00379458
-1.3957e-06
0.00379943
-1.39831e-06
0.00380424
-1.38888e-06
0.00380901
-1.39208e-06
0.00381375
-1.38558e-06
0.00381844
-1.38911e-06
0.00382308
-1.3824e-06
0.00382768
-1.38143e-06
0.00383221
-1.37466e-06
0.00383668
-1.37547e-06
0.0038411
-1.37815e-06
0.00384542
-1.3646e-06
0.00384966
-1.3731e-06
0.00385381
-1.36336e-06
0.00385785
-1.37006e-06
0.00386178
-1.35354e-06
0.00386558
-1.36045e-06
0.00386925
-1.32821e-06
0.00387277
-1.32652e-06
0.00387613
-1.32823e-06
0.00387932
-1.32108e-06
0.00388232
-1.3173e-06
0.00388512
-1.30651e-06
0.00388771
-1.29771e-06
0.00389008
-1.28463e-06
0.00389221
-1.27613e-06
0.0038941
-1.27445e-06
0.00389574
-1.2744e-06
0.00389714
-1.27493e-06
0.00389825
-1.2646e-06
0.0038991
-1.26748e-06
0.0038997
-1.25767e-06
0.00390001
-1.27328e-06
0.0039001
-1.33897e-06
0.00389991
-1.62241e-06
0.00389961
-2.0506e-06
0.00389888
-3.95489e-06
0.00389838
-6.26734e-06
-1.57286e-05
0.00389572
0.00341906
-4.4281e-06
0.00342627
-8.74894e-06
0.0034345
-9.91436e-06
0.00344379
-1.10072e-05
0.00345388
-1.1864e-05
0.00346415
-1.20926e-05
0.00347427
-1.19328e-05
0.00348405
-1.15785e-05
0.0034934
-1.10924e-05
0.00350225
-1.05557e-05
0.0035106
-9.99226e-06
0.00351843
-9.44084e-06
0.00352579
-8.93813e-06
0.00353275
-8.50459e-06
0.00353938
-8.18702e-06
0.00354575
-7.91661e-06
0.00355194
-7.7171e-06
0.00355799
-7.60282e-06
0.00356397
-7.52356e-06
0.00356989
-7.47257e-06
0.00357576
-7.42293e-06
0.0035816
-7.36822e-06
0.00358739
-7.31403e-06
0.00359316
-7.27013e-06
0.00359887
-7.21611e-06
0.00360455
-7.17713e-06
0.00361019
-7.14335e-06
0.00361581
-7.11319e-06
0.00362139
-7.08851e-06
0.00362696
-7.07234e-06
0.00363251
-7.05435e-06
0.00363804
-7.03789e-06
0.00364357
-7.04616e-06
0.00364908
-7.0002e-06
0.00365457
-6.96626e-06
0.00366004
-6.95664e-06
0.0036655
-6.94119e-06
0.00367093
-6.91525e-06
0.00367634
-6.88864e-06
0.00368173
-6.86417e-06
0.0036871
-6.83482e-06
0.00369245
-6.81205e-06
0.00369777
-6.78287e-06
0.00370307
-6.77142e-06
0.00370835
-6.74166e-06
0.00371361
-6.69361e-06
0.00371885
-6.67102e-06
0.00372406
-6.65412e-06
0.00372925
-6.6308e-06
0.00373441
-6.60507e-06
0.00373956
-6.58209e-06
0.00374468
-6.55502e-06
0.00374978
-6.53154e-06
0.00375485
-6.50346e-06
0.0037599
-6.47852e-06
0.00376493
-6.45377e-06
0.00376994
-6.42289e-06
0.00377491
-6.39729e-06
0.00377986
-6.37051e-06
0.00378478
-6.32742e-06
0.00378967
-6.28755e-06
0.00379452
-6.25011e-06
0.00379934
-6.21415e-06
0.00380412
-6.16999e-06
0.00380885
-6.12765e-06
0.00381355
-6.07928e-06
0.00381819
-6.02779e-06
0.00382277
-5.96879e-06
0.00382729
-5.90205e-06
0.00383175
-5.83099e-06
0.00383613
-5.75211e-06
0.00384042
-5.67187e-06
0.00384462
-5.56334e-06
0.00384871
-5.46758e-06
0.0038527
-5.34937e-06
0.00385655
-5.22525e-06
0.00386028
-5.08431e-06
0.00386386
-4.93286e-06
0.00386728
-4.75391e-06
0.00387053
-4.57901e-06
0.0038736
-4.39811e-06
0.00387648
-4.19897e-06
0.00387915
-3.98646e-06
0.00388161
-3.76122e-06
0.00388383
-3.5249e-06
0.00388583
-3.2808e-06
0.00388758
-3.03053e-06
0.00388909
-2.77986e-06
0.00389034
-2.52576e-06
0.00389134
-2.26902e-06
0.0038921
-2.03414e-06
0.00389264
-1.80183e-06
0.00389296
-1.57452e-06
0.00389303
-1.34666e-06
0.00389288
-1.19273e-06
0.00389251
-1.24742e-06
0.00389194
-1.48737e-06
0.00389096
-2.96518e-06
0.00388987
-5.17805e-06
-1.28563e-05
0.00388699
0.00308828
-7.94938e-06
0.0030948
-1.52656e-05
0.00310225
-1.73623e-05
0.00311069
-1.94503e-05
0.00311981
-2.0987e-05
0.0031291
-2.13809e-05
0.00313825
-2.10807e-05
0.00314709
-2.04215e-05
0.00315554
-1.95375e-05
0.00316354
-1.85563e-05
0.00317107
-1.75275e-05
0.00317815
-1.65137e-05
0.0031848
-1.55882e-05
0.00319107
-1.47823e-05
0.00319706
-1.41756e-05
0.00320282
-1.36726e-05
0.0032084
-1.33019e-05
0.00321387
-1.30713e-05
0.00321927
-1.29181e-05
0.00322461
-1.28178e-05
0.00322992
-1.27306e-05
0.00323519
-1.264e-05
0.00324043
-1.25511e-05
0.00324563
-1.2475e-05
0.0032508
-1.23777e-05
0.00325592
-1.23032e-05
0.00326102
-1.22418e-05
0.00326609
-1.2185e-05
0.00327114
-1.21352e-05
0.00327617
-1.21003e-05
0.00328118
-1.20655e-05
0.00328617
-1.20327e-05
0.00329116
-1.20387e-05
0.00329614
-1.19749e-05
0.0033011
-1.19221e-05
0.00330603
-1.18943e-05
0.00331095
-1.18594e-05
0.00331585
-1.18145e-05
0.00332073
-1.17659e-05
0.00332558
-1.17179e-05
0.00333041
-1.16663e-05
0.00333522
-1.16156e-05
0.00334
-1.15628e-05
0.00334475
-1.15246e-05
0.00334948
-1.14676e-05
0.00335417
-1.13912e-05
0.00335883
-1.13323e-05
0.00336346
-1.12785e-05
0.00336805
-1.12173e-05
0.00337259
-1.11483e-05
0.00337708
-1.10767e-05
0.00338153
-1.09994e-05
0.00338591
-1.09133e-05
0.00339023
-1.08205e-05
0.00339447
-1.07174e-05
0.00339862
-1.06062e-05
0.00340267
-1.04792e-05
0.00340661
-1.03376e-05
0.00341044
-1.01936e-05
0.00341412
-1.00056e-05
0.00341764
-9.81533e-06
0.003421
-9.611e-06
0.00342418
-9.39042e-06
0.00342716
-9.14999e-06
0.00342993
-8.89224e-06
0.00343246
-8.61497e-06
0.00343475
-8.31915e-06
0.00343679
-8.00558e-06
0.00343856
-7.67077e-06
0.00344005
-7.32763e-06
0.00344127
-6.96868e-06
0.00344222
-6.62536e-06
0.00344294
-6.28255e-06
0.00344343
-5.95606e-06
0.0034437
-5.61279e-06
0.00344372
-5.25464e-06
0.00344357
-4.93052e-06
0.00344324
-4.60026e-06
0.00344274
-4.25679e-06
0.00344209
-3.92428e-06
0.00344129
-3.60333e-06
0.00344038
-3.28324e-06
0.00343936
-2.96619e-06
0.00343825
-2.65576e-06
0.00343708
-2.3516e-06
0.00343585
-2.05683e-06
0.00343459
-1.7717e-06
0.00343331
-1.49949e-06
0.00343202
-1.23436e-06
0.00343074
-9.85076e-07
0.00342947
-7.68167e-07
0.00342823
-5.54534e-07
0.003427
-3.52741e-07
0.00342582
-1.58747e-07
0.00342465
-2.55777e-08
0.00342347
-7.29236e-08
0.0034223
-3.13721e-07
0.00342093
-1.59866e-06
0.00341946
-3.7069e-06
-1.01069e-05
0.00341671
0.00278961
-1.14037e-05
0.0027955
-2.11462e-05
0.00280225
-2.41204e-05
0.00280995
-2.71441e-05
0.00281821
-2.92495e-05
0.00282661
-2.97821e-05
0.00283489
-2.93597e-05
0.00284289
-2.84183e-05
0.00285052
-2.71681e-05
0.00285775
-2.57871e-05
0.00286455
-2.43331e-05
0.00287094
-2.29015e-05
0.00287695
-2.15925e-05
0.00288261
-2.04471e-05
0.00288802
-1.95844e-05
0.00289321
-1.88668e-05
0.00289826
-1.83438e-05
0.00290319
-1.80094e-05
0.00290806
-1.77886e-05
0.00291289
-1.76469e-05
0.00291769
-1.75232e-05
0.00292245
-1.74022e-05
0.00292718
-1.72787e-05
0.00293187
-1.71738e-05
0.00293653
-1.7034e-05
0.00294115
-1.6926e-05
0.00294575
-1.68367e-05
0.00295032
-1.67531e-05
0.00295486
-1.66777e-05
0.00295938
-1.662e-05
0.00296388
-1.65666e-05
0.00296836
-1.65102e-05
0.00297283
-1.65115e-05
0.00297727
-1.64165e-05
0.00298169
-1.63364e-05
0.00298607
-1.62758e-05
0.00299041
-1.62053e-05
0.00299471
-1.61147e-05
0.00299897
-1.60194e-05
0.00300316
-1.59095e-05
0.00300728
-1.57906e-05
0.00301133
-1.56587e-05
0.00301528
-1.5513e-05
0.00301912
-1.53662e-05
0.00302283
-1.51811e-05