/*--------------------------------*- C++ -*----------------------------------*\
| =========                 |                                                 |
| \\      /  F ield         | OpenFOAM: The Open Source CFD Toolbox           |
|  \\    /   O peration     | Version:  v2012                                 |
|   \\  /    A nd           | Website:  www.openfoam.com                      |
|    \\/     M anipulation  |                                                 |
\*---------------------------------------------------------------------------*/
FoamFile
{
    version     2.0;
    format      ascii;
    class       volScalarField;
    location    "0.317";
    object      k.air;
}
// * * * * * * * * * * * * * * * * * * * * * * * * * * * * * * * * * * * * * //

dimensions      [0 2 -2 0 0 0 0];


internalField   nonuniform List<scalar> 
5600
(
0.606308
0.840804
0.95513
0.978153
0.949175
0.897592
0.839548
0.787285
0.743282
0.707303
0.67933
0.658387
0.643339
0.632661
0.625308
0.620031
0.616294
0.613281
0.610968
0.60879
0.607124
0.605413
0.604254
0.603087
0.602462
0.601745
0.601451
0.601024
0.600894
0.600562
0.600428
0.600035
0.599812
0.599332
0.599048
0.598522
0.598213
0.597673
0.597371
0.596845
0.596576
0.596092
0.59588
0.595447
0.595307
0.594939
0.594867
0.594556
0.594534
0.59427
0.594294
0.594045
0.594126
0.593905
0.59404
0.593853
0.59405
0.593899
0.594152
0.594046
0.594365
0.59428
0.594669
0.594603
0.595057
0.595007
0.595528
0.595487
0.596078
0.596037
0.596704
0.596655
0.597407
0.597342
0.598182
0.598095
0.599026
0.598914
0.599927
0.599796
0.600869
0.600742
0.601824
0.601768
0.602747
0.602919
0.603556
0.604313
0.604079
0.606241
0.603959
0.609307
0.602117
0.615279
0.595183
0.630229
0.571119
0.676609
0.478138
0.843761
0.37163
0.315582
0.288642
0.275688
0.274945
0.284671
0.307349
0.344952
0.387109
0.430212
0.47146
0.508999
0.541778
0.569433
0.59194
0.609771
0.623514
0.633884
0.641777
0.647726
0.652603
0.656349
0.660051
0.662976
0.665959
0.66804
0.670339
0.6717
0.673318
0.6739
0.674914
0.674946
0.675598
0.675392
0.675886
0.67558
0.676007
0.675673
0.676096
0.675791
0.676262
0.676021
0.676571
0.676404
0.677031
0.676873
0.677524
0.67733
0.677999
0.677768
0.678471
0.678249
0.679005
0.678796
0.679645
0.679454
0.680409
0.680225
0.681297
0.681097
0.682271
0.682055
0.683335
0.68308
0.684468
0.684162
0.685659
0.685292
0.686904
0.686475
0.688229
0.687701
0.689626
0.688975
0.691099
0.690297
0.692632
0.69166
0.694191
0.693043
0.695741
0.694455
0.697243
0.695944
0.698637
0.697624
0.699793
0.699721
0.700416
0.702702
0.699721
0.707655
0.696095
0.716982
0.685825
0.736465
0.658767
0.780945
0.585077
0.884319
0.369149
0.281903
0.227733
0.192995
0.168597
0.15378
0.145631
0.143599
0.146994
0.155067
0.167056
0.181937
0.199281
0.218579
0.239118
0.260644
0.282465
0.304544
0.326397
0.348224
0.369533
0.390352
0.409296
0.425532
0.439953
0.45205
0.463017
0.47187
0.480054
0.486545
0.492845
0.497673
0.502734
0.506455
0.510611
0.513503
0.517
0.519314
0.52237
0.524306
0.527071
0.528745
0.531301
0.532741
0.535144
0.536361
0.538584
0.539583
0.541672
0.542503
0.544515
0.545231
0.54722
0.547847
0.549852
0.550403
0.552438
0.552899
0.554972
0.555329
0.557445
0.557684
0.55986
0.559969
0.562228
0.56219
0.564547
0.564372
0.566851
0.566536
0.569154
0.568681
0.571475
0.570804
0.573807
0.572889
0.576132
0.574924
0.578418
0.576893
0.580647
0.578806
0.582805
0.580711
0.58487
0.582679
0.586784
0.584834
0.588401
0.587404
0.589394
0.590863
0.589092
0.596254
0.586028
0.605699
0.577075
0.622974
0.557515
0.636907
0.370107
0.280639
0.224124
0.186031
0.158583
0.138153
0.123009
0.111286
0.102989
0.0969237
0.0936137
0.0922536
0.0929964
0.0953128
0.0995131
0.105285
0.112831
0.121905
0.132837
0.14523
0.159472
0.175115
0.192521
0.210423
0.229129
0.247353
0.265546
0.281945
0.2978
0.31172
0.325218
0.33665
0.347916
0.357347
0.366865
0.37467
0.382851
0.389443
0.396623
0.402234
0.408545
0.413236
0.418734
0.422616
0.427386
0.430478
0.434693
0.437276
0.441136
0.443355
0.446986
0.448934
0.452415
0.454141
0.457516
0.459013
0.462283
0.46355
0.466743
0.467786
0.470935
0.471759
0.474899
0.475514
0.47868
0.479092
0.482318
0.48253
0.485859
0.485862
0.489319
0.489102
0.492716
0.492232
0.496032
0.495235
0.499271
0.498117
0.502418
0.500866
0.505461
0.503496
0.508402
0.506057
0.511238
0.508604
0.51395
0.511206
0.51645
0.514006
0.518562
0.517262
0.519961
0.521502
0.520036
0.527294
0.51837
0.5338
0.518129
0.529833
0.370306
0.280758
0.224414
0.186002
0.158483
0.137571
0.121634
0.108637
0.098486
0.0898271
0.0830875
0.077257
0.0729324
0.069131
0.0666931
0.0645354
0.0638727
0.0633711
0.0644671
0.065693
0.068744
0.0720794
0.0775077
0.0834079
0.0915085
0.10008
0.110745
0.121458
0.133837
0.145988
0.159498
0.172587
0.186587
0.199227
0.212514
0.224193
0.236457
0.24699
0.258161
0.267545
0.277635
0.285898
0.295093
0.302338
0.310602
0.316811
0.324221
0.329579
0.336339
0.341037
0.347318
0.351476
0.357345
0.360993
0.366458
0.369546
0.374638
0.377263
0.382085
0.384308
0.388936
0.3908
0.395295
0.396844
0.401266
0.40253
0.40693
0.407923
0.412344
0.413061
0.417528
0.417933
0.422465
0.422536
0.427163
0.426891
0.431629
0.430933
0.435835
0.434738
0.439859
0.438366
0.443723
0.441873
0.44743
0.445324
0.450969
0.448766
0.454282
0.452309
0.45726
0.456111
0.459757
0.460319
0.461711
0.464745
0.46367
0.467964
0.467853
0.46586
0.37034
0.280782
0.224554
0.186149
0.158723
0.137808
0.121919
0.10882
0.0985886
0.0896337
0.0825784
0.0760739
0.0710418
0.066089
0.062493
0.0585886
0.0560933
0.0530123
0.05141
0.0490451
0.0482277
0.0465784
0.0465841
0.045761
0.0467716
0.0469241
0.0491343
0.0505134
0.0541252
0.0569591
0.0621369
0.0665941
0.0734735
0.0794551
0.0877465
0.094963
0.10434
0.112414
0.122533
0.131146
0.141786
0.150714
0.161323
0.170037
0.180385
0.188644
0.198522
0.206159
0.215471
0.222429
0.231181
0.237479
0.245705
0.251403
0.259265
0.264415
0.271835
0.276405
0.283417
0.287437
0.294108
0.297637
0.304041
0.307145
0.313354
0.316081
0.322141
0.324507
0.330432
0.332435
0.338219
0.339775
0.345431
0.34659
0.352174
0.352969
0.358511
0.358939
0.364448
0.364549
0.370047
0.369878
0.375339
0.374994
0.380351
0.379956
0.385093
0.384821
0.389536
0.389647
0.393657
0.394454
0.397483
0.399142
0.401175
0.403409
0.405139
0.406685
0.409596
0.408833
0.370345
0.280774
0.224587
0.186176
0.158809
0.137887
0.122053
0.10896
0.0987546
0.0898052
0.0827493
0.0761974
0.0711414
0.0660365
0.0623666
0.0581992
0.0555058
0.0520236
0.0500219
0.0470719
0.0456097
0.0430497
0.0420775
0.0398049
0.03931
0.0372909
0.037252
0.0355147
0.0359483
0.034546
0.0355298
0.0345657
0.0361901
0.0357811
0.0381481
0.0384336
0.0416296
0.0427483
0.046857
0.0489132
0.0540013
0.0570841
0.0631008
0.0670696
0.0739387
0.0786946
0.0862891
0.0916569
0.0997929
0.105543
0.114036
0.119979
0.128698
0.134659
0.143271
0.149088
0.157615
0.163194
0.171557
0.176812
0.184949
0.189831
0.197709
0.202208
0.209827
0.213953
0.221325
0.225098
0.23232
0.235821
0.242882
0.246055
0.252901
0.255734
0.262354
0.264873
0.271259
0.273506
0.279651
0.281682
0.287568
0.289468
0.295046
0.296916
0.302124
0.304054
0.308813
0.310904
0.315105
0.317457
0.321025
0.323656
0.326634
0.329402
0.331977
0.334643
0.337085
0.339413
0.341548
0.34386
0.370344
0.280763
0.224586
0.186176
0.158818
0.137914
0.122067
0.109024
0.0987785
0.089894
0.0827998
0.0762909
0.0712225
0.0661284
0.0624468
0.0582942
0.0555383
0.0520997
0.0499701
0.0470582
0.0454352
0.0428502
0.0416926
0.0393068
0.0385411
0.0363213
0.035859
0.0337905
0.0335957
0.0316324
0.0317142
0.0298304
0.0301856
0.0283883
0.0290094
0.0273317
0.0282212
0.0266979
0.0278908
0.026572
0.0281195
0.0270586
0.0290173
0.0282907
0.030709
0.0303942
0.0333315
0.0335065
0.0370239
0.0377461
0.0418714
0.0432223
0.0479753
0.049974
0.0552666
0.0578156
0.0636373
0.0666867
0.0729801
0.0764727
0.0831546
0.0870031
0.0939605
0.098051
0.105184
0.109414
0.116634
0.120914
0.128027
0.132175
0.139165
0.143269
0.150147
0.154186
0.160888
0.164852
0.171308
0.175196
0.181361
0.185189
0.191016
0.19482
0.200254
0.204072
0.209083
0.212943
0.217507
0.221424
0.225528
0.229494
0.233173
0.237136
0.240449
0.244349
0.247303
0.251156
0.253657
0.257582
0.259268
0.263406
0.370339
0.280762
0.224569
0.186185
0.158794
0.137944
0.122035
0.109073
0.0987469
0.0899513
0.0827813
0.0763502
0.0712143
0.0662029
0.0624288
0.0584016
0.0554985
0.0522348
0.0499199
0.0471957
0.0453856
0.0429761
0.0416253
0.0394271
0.0384195
0.0364287
0.0356554
0.0338441
0.0332827
0.0315724
0.0312329
0.0295804
0.0294307
0.0278405
0.0278377
0.0263157
0.0264415
0.0249724
0.0252322
0.0238046
0.0242006
0.0228166
0.0233431
0.0220185
0.0226784
0.0214185
0.0222331
0.0210425
0.0220388
0.0209531
0.0221219
0.0212031
0.0225642
0.0218488
0.0234375
0.0229542
0.024826
0.0246189
0.0267832
0.0269165
0.0294004
0.029935
0.032757
0.033717
0.036896
0.0383347
0.0418819
0.0438025
0.0476557
0.0499937
0.0541205
0.0568554
0.0612071
0.0643284
0.0688689
0.0723599
0.07703
0.0808336
0.0855622
0.089636
0.094358
0.0986494
0.103287
0.10773
0.11223
0.11678
0.121103
0.125718
0.129836
0.134467
0.1384
0.142993
0.146759
0.151328
0.154888
0.159385
0.162636
0.167009
0.169852
0.173852
0.370332
0.28077
0.224547
0.186208
0.158759
0.13798
0.121995
0.109114
0.0987113
0.0899945
0.0827473
0.0764029
0.0711695
0.0662781
0.0623642
0.058501
0.0554208
0.0523459
0.0498424
0.0473098
0.0453077
0.0431018
0.041532
0.039577
0.0383015
0.0366007
0.035518
0.0340258
0.0331283
0.031759
0.0310516
0.0297704
0.0292086
0.028025
0.0275632
0.0264732
0.0260978
0.0250774
0.024787
0.0238234
0.0236032
0.0226987
0.0225311
0.0216872
0.0215669
0.0207712
0.0207085
0.0199433
0.0199417
0.0192218
0.0192505
0.0185985
0.0186575
0.01807
0.0181697
0.0176385
0.0177984
0.0173379
0.0175474
0.0171791
0.017445
0.0171927
0.017527
0.0174103
0.017817
0.0178712
0.0183871
0.0186245
0.0192632
0.0197158
0.020521
0.0212248
0.0222031
0.0231814
0.024372
0.025672
0.0271046
0.0287488
0.0304293
0.0324465
0.0344237
0.0368262
0.0391129
0.0418841
0.0444813
0.0476287
0.050528
0.0540158
0.0571929
0.0609634
0.0644038
0.0683953
0.0720517
0.0762003
0.0800314
0.0843163
0.0882828
0.0925915
0.0966338
0.100803
0.370328
0.280782
0.224532
0.186232
0.158736
0.138009
0.121973
0.109139
0.0986942
0.0900178
0.0827243
0.0764396
0.0711274
0.0663332
0.062308
0.0585619
0.0553659
0.0524011
0.049792
0.0473663
0.0452485
0.0431729
0.0414562
0.0396625
0.0382159
0.036691
0.0354302
0.0341189
0.0330344
0.0318622
0.0309461
0.0298849
0.0290949
0.0281461
0.0274472
0.0265979
0.0259816
0.0252089
0.0246691
0.0239664
0.0234843
0.022855
0.0224166
0.0218584
0.0214603
0.0209644
0.0206151
0.0201671
0.019872
0.0194825
0.0192255
0.0189063
0.0186942
0.018447
0.0182895
0.0181164
0.0180296
0.017946
0.0179365
0.0179621
0.0180492
0.0182044
0.0184115
0.0187228
0.019065
0.0195657
0.020089
0.0207973
0.0215213
0.0224677
0.0234347
0.0246554
0.0258916
0.0274048
0.0289472
0.0307887
0.0326615
0.0348572
0.0370582
0.0396144
0.0421713
0.0450835
0.0479935
0.0511993
0.0543853
0.057859
0.0612968
0.0650115
0.068677
0.0725899
0.0764657
0.0805428
0.0845888
0.0887944
0.0929633
0.0972496
0.1015
0.105835
0.110177
0.114618
0.370327
0.280795
0.224532
0.186252
0.15873
0.138029
0.121968
0.109151
0.098691
0.0900245
0.0827124
0.0764541
0.0710983
0.0663554
0.062271
0.0585775
0.0553343
0.0524045
0.0497623
0.0473696
0.0452071
0.0431867
0.0414033
0.0396804
0.0381651
0.0367057
0.0353881
0.0341381
0.032998
0.0319006
0.0309199
0.0299517
0.0290976
0.0282523
0.0275039
0.026768
0.0261231
0.0254828
0.0249424
0.0244015
0.0239581
0.0235302
0.0231871
0.0228851
0.0226562
0.0224983
0.0224101
0.0224176
0.0225076
0.0227163
0.0230156
0.0234691
0.0240286
0.0247674
0.0256324
0.0267025
0.027923
0.0293754
0.0309976
0.0328758
0.0349415
0.0372826
0.0398275
0.0426543
0.0456894
0.0489781
0.0524221
0.056101
0.059924
0.0639741
0.0681495
0.0725374
0.0770207
0.0816865
0.0864184
0.0912969
0.0962046
0.101226
0.10622
0.111307
0.116321
0.121413
0.126392
0.131348
0.136166
0.14098
0.145701
0.150409
0.155011
0.159587
0.164051
0.16847
0.172774
0.177024
0.18116
0.185236
0.18921
0.193143
0.19705
0.201006
0.370327
0.280808
0.224541
0.186267
0.158733
0.138039
0.121966
0.109149
0.0986839
0.0900143
0.0826926
0.076442
0.0710618
0.0663401
0.0622265
0.0585507
0.0552919
0.0523678
0.0497224
0.0473389
0.0451684
0.0431787
0.0413809
0.0397055
0.0381915
0.0367864
0.0355014
0.0343246
0.0332496
0.0322718
0.0314018
0.0306216
0.0299526
0.0293862
0.0289358
0.0286082
0.0284178
0.0283715
0.0285052
0.0288056
0.0293274
0.0300527
0.0310367
0.0322692
0.0337977
0.0356228
0.037775
0.040259
0.0430997
0.0462988
0.0498714
0.0537895
0.0579985
0.0625396
0.0673535
0.0724677
0.0778196
0.0834244
0.0892118
0.0951914
0.101286
0.107508
0.113782
0.120124
0.126477
0.132756
0.138948
0.145118
0.15123
0.157295
0.163276
0.169189
0.174999
0.180723
0.186335
0.191848
0.197248
0.202542
0.20772
0.212792
0.217752
0.222607
0.227356
0.232046
0.23663
0.241138
0.245517
0.249799
0.253945
0.257991
0.2619
0.265704
0.269376
0.272943
0.276387
0.27973
0.282969
0.286141
0.289289
0.292484
0.370328
0.280821
0.224549
0.186271
0.158727
0.138024
0.121942
0.109111
0.0986376
0.0899549
0.082623
0.0763697
0.0709766
0.0662666
0.06215
0.0584962
0.0552615
0.0523759
0.0497897
0.047483
0.0454108
0.043565
0.0419304
0.0405023
0.0392683
0.0382504
0.0374282
0.0368552
0.0365105
0.0364731
0.036723
0.0373447
0.0383187
0.0397371
0.0415766
0.0439271
0.0467661
0.0501601
0.0540999
0.0586376
0.0636876
0.0692574
0.0753031
0.0818081
0.0887074
0.095961
0.103487
0.111239
0.119149
0.127173
0.135299
0.143361
0.151357
0.159296
0.167118
0.174824
0.182368
0.189755
0.19695
0.203971
0.21079
0.217435
0.223884
0.230165
0.236264
0.242262
0.24812
0.25384
0.259387
0.264781
0.270002
0.275073
0.27998
0.284753
0.289379
0.293876
0.298247
0.3025
0.306644
0.310685
0.314628
0.318475
0.322231
0.325885
0.329456
0.332909
0.336242
0.339474
0.342603
0.345644
0.348592
0.35146
0.354238
0.356944
0.359568
0.362127
0.364617
0.367069
0.369528
0.37205
0.370325
0.280828
0.22453
0.186232
0.158664
0.137928
0.121827
0.108963
0.0984878
0.089793
0.0824908
0.0762812
0.0709835
0.0664034
0.0624858
0.0590788
0.0562125
0.0537593
0.0517634
0.0501564
0.0489992
0.0482654
0.0480736
0.048411
0.0493725
0.0510088
0.0533954
0.05659
0.0606488
0.0656189
0.0715438
0.0784099
0.0860319
0.0944539
0.103442
0.113009
0.122934
0.133239
0.143796
0.154571
0.165293
0.175909
0.18634
0.196528
0.206405
0.215952
0.225128
0.233961
0.242414
0.250552
0.258312
0.26585
0.27308
0.280027
0.286661
0.293021
0.299096
0.304931
0.310522
0.315917
0.321109
0.326144
0.331008
0.335738
0.340307
0.344748
0.349019
0.353117
0.357041
0.360828
0.364473
0.368002
0.371409
0.374716
0.377902
0.380991
0.383985
0.386891
0.389726
0.392488
0.39519
0.397832
0.400426
0.402963
0.405456
0.407893
0.410282
0.412611
0.414893
0.417118
0.419296
0.421425
0.423506
0.425549
0.427541
0.429504
0.43143
0.433345
0.435294
0.437326
0.370306
0.280789
0.224405
0.186074
0.158445
0.137688
0.121602
0.108819
0.0985561
0.0901672
0.0834202
0.0779652
0.0737031
0.0703952
0.06811
0.0666774
0.0663245
0.0667876
0.068403
0.0709804
0.0749352
0.0801499
0.0869567
0.0951489
0.104966
0.116014
0.128222
0.141238
0.155049
0.169406
0.184269
0.198937
0.213207
0.226997
0.240173
0.252746
0.264647
0.275946
0.286565
0.296607
0.306071
0.314985
0.323341
0.33113
0.338417
0.345254
0.351707
0.357828
0.363649
0.369201
0.374475
0.37949
0.384183
0.388635
0.392843
0.396862
0.400683
0.404351
0.407856
0.41124
0.41449
0.417648
0.420695
0.423674
0.426562
0.429393
0.432142
0.434826
0.437425
0.439956
0.44241
0.444799
0.447124
0.449379
0.45154
0.453644
0.455691
0.457689
0.459648
0.461563
0.463452
0.465303
0.467133
0.468932
0.470716
0.472472
0.474217
0.475927
0.477626
0.479289
0.480939
0.482556
0.484157
0.485732
0.487286
0.488818
0.490348
0.491865
0.493444
0.495135
0.370195
0.280542
0.224229
0.186051
0.158715
0.138517
0.123432
0.112323
0.10442
0.0992844
0.0968353
0.0965745
0.0983674
0.102009
0.107631
0.115006
0.124348
0.135447
0.14859
0.163398
0.180319
0.198735
0.218289
0.238264
0.258307
0.277673
0.295832
0.31266
0.328135
0.342251
0.354977
0.366567
0.377091
0.38668
0.395452
0.403543
0.411028
0.417975
0.424391
0.430298
0.435683
0.440695
0.445268
0.449407
0.453228
0.456776
0.460119
0.463281
0.466299
0.4692
0.471988
0.474697
0.477289
0.479799
0.482201
0.48453
0.486764
0.488936
0.491026
0.493065
0.495035
0.496966
0.498841
0.50069
0.502495
0.504281
0.506034
0.507772
0.509478
0.51116
0.512812
0.514436
0.51603
0.517606
0.519147
0.520659
0.522135
0.523583
0.525004
0.5264
0.527783
0.529137
0.530486
0.531812
0.533138
0.534444
0.535758
0.537049
0.538349
0.539625
0.540909
0.542169
0.543434
0.544679
0.545926
0.547152
0.548404
0.549632
0.550928
0.552346
0.369474
0.281384
0.228613
0.193057
0.170711
0.155953
0.150118
0.150449
0.156554
0.167305
0.181627
0.198812
0.218417
0.239722
0.262346
0.285624
0.3094
0.333092
0.356942
0.380288
0.403308
0.423856
0.441747
0.457306
0.470495
0.482405
0.492497
0.501027
0.508346
0.514614
0.520106
0.524948
0.529232
0.533034
0.53643
0.539497
0.542293
0.544885
0.547295
0.549575
0.551716
0.553737
0.555669
0.557486
0.559195
0.560794
0.562306
0.563745
0.565125
0.566471
0.567776
0.569075
0.570345
0.571616
0.572858
0.574098
0.575308
0.576513
0.57769
0.57886
0.580002
0.58114
0.582255
0.583366
0.584464
0.58556
0.58665
0.587743
0.588834
0.589921
0.591015
0.5921
0.593187
0.594265
0.595332
0.596382
0.597413
0.598426
0.599428
0.600412
0.601397
0.602364
0.603337
0.604294
0.605263
0.606218
0.60719
0.60815
0.609131
0.610097
0.611085
0.612057
0.613047
0.614026
0.615012
0.616
0.616994
0.618021
0.619068
0.620244
0.37219
0.315456
0.292824
0.279518
0.286388
0.295371
0.331466
0.37361
0.418621
0.463064
0.504554
0.541601
0.573476
0.599926
0.621219
0.63781
0.650546
0.66007
0.667422
0.673048
0.677645
0.681647
0.685132
0.68811
0.690603
0.692635
0.694332
0.695596
0.696478
0.697
0.697263
0.697362
0.697345
0.69726
0.69712
0.696966
0.696796
0.696658
0.696532
0.696467
0.696434
0.696454
0.696525
0.696611
0.696703
0.696787
0.696869
0.696951
0.697037
0.697145
0.697266
0.697426
0.69761
0.697841
0.698097
0.698399
0.698722
0.699084
0.699461
0.69987
0.70029
0.700736
0.701191
0.701665
0.702156
0.702662
0.703189
0.70373
0.704298
0.704876
0.70548
0.706099
0.706736
0.707385
0.708046
0.708711
0.70938
0.710046
0.710715
0.711379
0.712052
0.71272
0.713402
0.714081
0.714778
0.715471
0.716187
0.716902
0.717642
0.718379
0.719142
0.719904
0.720685
0.721473
0.722263
0.723084
0.723862
0.724723
0.725531
0.726374
0.606742
0.839813
0.952197
0.969555
0.937535
0.881262
0.821358
0.769007
0.724418
0.688386
0.660681
0.640129
0.625397
0.614956
0.607663
0.602392
0.59851
0.59543
0.592915
0.590804
0.588978
0.587527
0.586345
0.585459
0.584758
0.5842
0.583767
0.583415
0.583086
0.582738
0.582333
0.581883
0.581386
0.580863
0.580311
0.579754
0.579189
0.578633
0.578088
0.577568
0.577073
0.57661
0.576181
0.575794
0.575442
0.575122
0.574829
0.57456
0.574312
0.574086
0.57388
0.573698
0.57354
0.573412
0.573307
0.573232
0.573182
0.573162
0.573168
0.5732
0.573258
0.573337
0.573444
0.57357
0.573717
0.573884
0.574072
0.57428
0.57451
0.574758
0.575028
0.575317
0.575625
0.57595
0.576293
0.576652
0.577027
0.577414
0.577814
0.578221
0.578641
0.579066
0.579503
0.579946
0.580401
0.580862
0.581336
0.581816
0.582311
0.582811
0.583325
0.583843
0.584382
0.584913
0.585485
0.586004
0.586568
0.587008
0.587306
0.587284
0.151761
2.29639
2.88276
3.08555
3.23178
3.2888
3.26894
3.19967
3.09927
2.99202
2.88383
2.78068
2.68608
2.60084
2.52375
2.45294
2.38674
2.32343
2.26116
2.19971
2.13816
2.07621
2.01405
1.95201
1.88966
1.82773
1.76649
1.70673
1.64774
1.58998
1.53372
1.47951
1.42721
1.37676
1.32816
1.28133
1.23625
1.19284
1.15101
1.11067
1.07172
1.0341
0.997731
0.962539
0.928457
0.895418
0.863342
0.832216
0.801969
0.772565
0.743943
0.716079
0.688881
0.66235
0.636393
0.611065
0.586275
0.562109
0.538466
0.515511
0.493139
0.471584
0.450791
0.431027
0.412229
0.39457
0.378052
0.36277
0.348812
0.335989
0.324483
0.313821
0.304586
0.295778
0.288484
0.280822
0.274871
0.267794
0.262868
0.255915
0.251592
0.244247
0.2407
0.233289
0.231051
0.224139
0.2229
0.217174
0.21684
0.212967
0.21379
0.21137
0.213405
0.211833
0.215421
0.213895
0.218259
0.214768
0.217638
0.21118
0.353569
1.13249
2.06972
2.51628
2.74903
2.84796
2.85909
2.81053
2.72789
2.63339
2.5379
2.44931
2.37142
2.30408
2.24542
2.19345
2.14614
2.10162
2.05824
2.01518
1.97142
1.92638
1.87991
1.83222
1.78295
1.73274
1.68177
1.63113
1.58013
1.52945
1.47895
1.42944
1.38135
1.33467
1.28944
1.2456
1.2032
1.16219
1.12251
1.08406
1.04681
1.0107
0.975667
0.941676
0.908665
0.876577
0.845354
0.814983
0.785407
0.756595
0.7285
0.7011
0.674321
0.648161
0.622549
0.597537
0.573062
0.549206
0.525897
0.50329
0.481317
0.460199
0.43991
0.420702
0.402536
0.385565
0.369797
0.355314
0.3422
0.330261
0.319641
0.309867
0.301478
0.293493
0.286953
0.279973
0.274614
0.268011
0.263499
0.256827
0.252769
0.245536
0.242096
0.234669
0.232417
0.225416
0.22403
0.218056
0.217312
0.212959
0.213123
0.210175
0.211529
0.209589
0.212561
0.210826
0.214691
0.211178
0.213782
0.207459
0.550952
0.546575
1.02335
1.57987
1.97707
2.18963
2.28073
2.29144
2.25671
2.19808
2.13195
2.0698
2.01378
1.9657
1.9255
1.89187
1.86291
1.83677
1.81211
1.78753
1.76189
1.73452
1.70502
1.67325
1.63903
1.60279
1.56462
1.52559
1.48526
1.44414
1.4024
1.35993
1.31775
1.27625
1.23561
1.19586
1.15714
1.11943
1.08269
1.04689
1.01201
0.978022
0.944912
0.912651
0.881204
0.850521
0.820579
0.791356
0.762818
0.734945
0.707701
0.681069
0.654998
0.629484
0.604479
0.580036
0.556124
0.532819
0.510082
0.488061
0.46673
0.446295
0.426763
0.408366
0.391095
0.375073
0.36032
0.346896
0.334882
0.32407
0.314566
0.305889
0.298537
0.291535
0.285893
0.279708
0.275035
0.268971
0.264927
0.258567
0.254804
0.247702
0.244392
0.236963
0.234709
0.227631
0.226109
0.219894
0.21873
0.213874
0.213302
0.209742
0.210251
0.207822
0.209985
0.207944
0.211128
0.207538
0.209758
0.203564
0.530871
0.495099
0.560505
0.767865
1.07073
1.34256
1.52381
1.61871
1.6565
1.65914
1.64322
1.62296
1.6009
1.5809
1.565
1.55339
1.54478
1.538
1.53122
1.52397
1.51542
1.50501
1.4923
1.47661
1.45803
1.43683
1.41305
1.38745
1.35983
1.33023
1.29983
1.26681
1.23256
1.19797
1.16341
1.12908
1.09524
1.06192
1.02912
0.996852
0.965154
0.934051
0.90356
0.873683
0.844406
0.815702
0.787571
0.759993
0.732961
0.706467
0.680488
0.655015
0.630028
0.605517
0.581463
0.557919
0.534894
0.512456
0.490608
0.469487
0.44912
0.429689
0.411245
0.39399
0.377952
0.363215
0.349809
0.337767
0.327164
0.317767
0.309645
0.302295
0.296184
0.290328
0.285721
0.280431
0.276525
0.271045
0.2675
0.261461
0.258004
0.251036
0.247863
0.240436
0.238189
0.231036
0.229386
0.222932
0.221346
0.215969
0.214599
0.210353
0.209856
0.206812
0.207951
0.205493
0.207782
0.20405
0.205735
0.199658
0.472696
0.463286
0.459959
0.486861
0.557011
0.666846
0.788648
0.897522
0.980137
1.03738
1.07363
1.09958
1.11903
1.13536
1.15072
1.16651
1.1822
1.198
1.21178
1.2237
1.23341
1.24054
1.24472
1.24561
1.24324
1.23766
1.22907
1.21775
1.20355
1.1863
1.16797
1.14622
1.12211
1.09641
1.0697
1.04238
1.01489
0.987238
0.959515
0.931827
0.904274
0.876939
0.849891
0.823165
0.796778
0.77073
0.745046
0.719715
0.694761
0.670178
0.645972
0.622145
0.598706
0.575642
0.552974
0.530751
0.509028
0.487861
0.467307
0.447489
0.428499
0.410485
0.39355
0.377857
0.363474
0.350434
0.33878
0.3285
0.319666
0.312
0.305542
0.299746
0.295066
0.290492
0.287026
0.282688
0.279587
0.274694
0.27164
0.265895
0.262721
0.255862
0.252815
0.245373
0.243128
0.235886
0.234112
0.227409
0.225401
0.219487
0.217269
0.21228
0.210631
0.206856
0.206747
0.203759
0.204915
0.200973
0.201951
0.195987
0.41095
0.411366
0.406284
0.402161
0.403515
0.414215
0.431521
0.455643
0.483156
0.514579
0.547155
0.581723
0.617854
0.655357
0.693463
0.732299
0.770837
0.80903
0.845186
0.87865
0.908891
0.935501
0.958024
0.976825
0.991733
1.00248
1.00945
1.01239
1.01219
1.00824
1.00252
0.993654
0.981885
0.967232
0.950401
0.93202
0.91265
0.892214
0.870973
0.84915
0.826939
0.804482
0.781912
0.759304
0.736715
0.714176
0.691739
0.669409
0.647247
0.62525
0.60346
0.581886
0.560578
0.539523
0.518787
0.498416
0.478516
0.459132
0.440385
0.422385
0.405291
0.389212
0.374312
0.360698
0.348484
0.337629
0.328195
0.320098
0.313411
0.307784
0.303244
0.299183
0.296067
0.292839
0.290545
0.287139
0.284808
0.280433
0.277801
0.272268
0.269308
0.262493
0.259528
0.25203
0.249764
0.242397
0.240495
0.233514
0.231086
0.224614
0.22152
0.215748
0.212833
0.208238
0.206673
0.203056
0.202839
0.198639
0.198728
0.192911
0.343513
0.345951
0.344376
0.338867
0.330698
0.321914
0.312474
0.303357
0.294489
0.28721
0.282245
0.281208
0.285709
0.297155
0.316163
0.343025
0.376966
0.416833
0.460722
0.50633
0.551647
0.595079
0.63528
0.671492
0.703712
0.731167
0.75429
0.772124
0.786815
0.797308
0.804876
0.809151
0.809973
0.807729
0.802717
0.795346
0.786051
0.774488
0.761296
0.746841
0.731398
0.715165
0.698341
0.681033
0.663354
0.645362
0.627147
0.608732
0.590221
0.571621
0.553018
0.534428
0.515952
0.497579
0.479433
0.46155
0.444101
0.427119
0.410805
0.395246
0.380676
0.367155
0.354915
0.343984
0.334518
0.326378
0.319644
0.314133
0.309921
0.306556
0.30408
0.301804
0.300253
0.298296
0.297075
0.294453
0.292747
0.288722
0.286357
0.280883
0.278011
0.271129
0.268164
0.260531
0.258206
0.250653
0.248612
0.241306
0.238466
0.231411
0.227439
0.220862
0.216621
0.21116
0.207991
0.203689
0.201895
0.197442
0.196473
0.190927
0.263157
0.267094
0.268065
0.264891
0.257981
0.248327
0.236669
0.223959
0.211015
0.198704
0.18771
0.178656
0.17219
0.168637
0.168647
0.172503
0.18104
0.194517
0.213797
0.238617
0.268935
0.303483
0.340911
0.379491
0.418317
0.455346
0.490243
0.521266
0.548977
0.572663
0.592674
0.609094
0.621531
0.631179
0.637446
0.640593
0.641025
0.638988
0.634832
0.628835
0.621272
0.612357
0.602328
0.59132
0.579501
0.566954
0.553813
0.540125
0.526042
0.511582
0.496887
0.481978
0.467015
0.451995
0.437108
0.422375
0.40804
0.394125
0.380923
0.368481
0.357116
0.346822
0.337896
0.330258
0.32409
0.319123
0.315454
0.312766
0.311149
0.310033
0.309521
0.308836
0.30862
0.307646
0.307209
0.305058
0.303686
0.299728
0.297384
0.291745
0.288777
0.281668
0.278588
0.270714
0.26828
0.260461
0.258277
0.250582
0.247362
0.239692
0.234886
0.227512
0.22197
0.215667
0.210853
0.205893
0.202414
0.197806
0.195676
0.190686
0.175718
0.179282
0.181352
0.180546
0.176859
0.170957
0.163764
0.156334
0.149769
0.144697
0.141705
0.140812
0.141986
0.144872
0.149164
0.154438
0.160627
0.167513
0.175471
0.184473
0.195386
0.208079
0.223983
0.242421
0.263569
0.286705
0.311683
0.337312
0.363035
0.387958
0.411374
0.432874
0.451642
0.467581
0.480819
0.491225
0.49883
0.504533
0.508233
0.509932
0.509781
0.507915
0.504556
0.499828
0.493937
0.486971
0.479103
0.470386
0.461021
0.451033
0.440615
0.429786
0.418774
0.407573
0.396444
0.385387
0.374722
0.364447
0.354948
0.346225
0.338666
0.332174
0.327083
0.323162
0.320591
0.318938
0.318317
0.318271
0.318936
0.319631
0.320587
0.320949
0.321532
0.320999
0.320849
0.318691
0.317237
0.312969
0.310332
0.304265
0.300983
0.293459
0.290136
0.281908
0.27933
0.271166
0.268866
0.260722
0.257202
0.248896
0.243383
0.235261
0.228579
0.221553
0.215234
0.20976
0.20467
0.200152
0.196918
0.193004
0.104568
0.108338
0.111799
0.114516
0.116605
0.1186
0.121202
0.125075
0.130678
0.138075
0.147152
0.157433
0.168468
0.179685
0.190627
0.201047
0.21076
0.219746
0.228092
0.235809
0.243116
0.250218
0.257223
0.264513
0.272314
0.280883
0.290353
0.300703
0.311989
0.324042
0.336665
0.34947
0.362094
0.373781
0.384771
0.394823
0.403552
0.410963
0.417041
0.421681
0.424905
0.426694
0.427166
0.426351
0.424427
0.421422
0.417503
0.412688
0.407192
0.401016
0.39438
0.38728
0.379995
0.37251
0.365137
0.357846
0.351004
0.344578
0.339024
0.334277
0.330749
0.328203
0.326953
0.326576
0.327223
0.328307
0.329993
0.331721
0.333724
0.335253
0.336731
0.337246
0.33783
0.337014
0.336529
0.333814
0.33182
0.326858
0.323635
0.316883
0.313092
0.304999
0.301357
0.292708
0.290008
0.281461
0.279141
0.270522
0.266875
0.25795
0.251993
0.243252
0.235805
0.228306
0.220883
0.215196
0.20886
0.204876
0.200903
0.198823
0.119077
0.123481
0.128306
0.134169
0.141502
0.150569
0.161444
0.174066
0.188059
0.203054
0.218486
0.233788
0.248314
0.261776
0.27407
0.28523
0.295238
0.304192
0.312266
0.319645
0.32648
0.332769
0.338593
0.3441
0.349273
0.354383
0.359205
0.363755
0.36818
0.372433
0.37669
0.380755
0.384885
0.388652
0.391955
0.394887
0.397341
0.399235
0.400599
0.401359
0.401551
0.401096
0.400051
0.39836
0.396142
0.393337
0.390056
0.386244
0.382088
0.377525
0.372761
0.367746
0.36277
0.357787
0.35312
0.348679
0.344841
0.341525
0.339196
0.337687
0.337355
0.33779
0.339208
0.341003
0.343328
0.345533
0.347898
0.349822
0.351688
0.352726
0.353584
0.353295
0.353104
0.351383
0.350076
0.346416
0.34361
0.337738
0.333788
0.326264
0.321933
0.313287
0.309395
0.300393
0.297712
0.288857
0.286727
0.277703
0.274249
0.264822
0.25892
0.249846
0.242335
0.234789
0.22704
0.221612
0.21485
0.212027
0.208162
0.208554
0.205098
0.209204
0.213962
0.220278
0.228688
0.239183
0.251584
0.26543
0.280189
0.295181
0.309855
0.323744
0.336602
0.34833
0.358994
0.368651
0.377521
0.385642
0.393149
0.400153
0.406751
0.412927
0.418714
0.424041
0.4289
0.433194
0.437002
0.440253
0.442966
0.445029
0.446557
0.447356
0.447779
0.447267
0.445926
0.443968
0.441329
0.438081
0.434391
0.430304
0.425957
0.421349
0.41659
0.411662
0.406696
0.401616
0.396525
0.39135
0.38626
0.381157
0.376229
0.3714
0.366946
0.362789
0.359226
0.35611
0.353782
0.352105
0.351487
0.351637
0.352791
0.354364
0.356474
0.358458
0.360549
0.362134
0.363624
0.364432
0.365086
0.364817
0.364461
0.362981
0.361776
0.359043
0.35689
0.352313
0.348741
0.342078
0.337555
0.32947
0.324815
0.315852
0.311931
0.302806
0.300367
0.291414
0.289728
0.280489
0.277606
0.267924
0.262724
0.253735
0.247031
0.239917
0.232783
0.228097
0.222006
0.220883
0.218078
0.220718
0.295817
0.299248
0.303452
0.309246
0.317042
0.32671
0.337972
0.350312
0.363207
0.375998
0.388262
0.399755
0.410415
0.420303
0.429499
0.438135
0.446283
0.454046
0.461394
0.468366
0.474886
0.480881
0.486318
0.491071
0.495088
0.498309
0.500719
0.502268
0.50301
0.502872
0.501935
0.500171
0.497692