/*--------------------------------*- C++ -*----------------------------------*\
| =========                 |                                                 |
| \\      /  F ield         | OpenFOAM: The Open Source CFD Toolbox           |
|  \\    /   O peration     | Version:  v2012                                 |
|   \\  /    A nd           | Website:  www.openfoam.com                      |
|    \\/     M anipulation  |                                                 |
\*---------------------------------------------------------------------------*/
FoamFile
{
    version     2.0;
    format      ascii;
    class       volScalarField;
    location    "0.317";
    object      omega.air;
}
// * * * * * * * * * * * * * * * * * * * * * * * * * * * * * * * * * * * * * //

dimensions      [0 0 -1 0 0 0 0];


internalField   nonuniform List<scalar> 
5600
(
6586.3
7485.5
7886.8
7965.17
7866.41
7687.45
7480.97
7290.05
7125.34
6987.77
6878.92
6796.29
6736.28
6693.38
6663.67
6642.27
6627.08
6614.8
6605.36
6596.46
6589.64
6582.63
6577.88
6573.09
6570.52
6567.58
6566.37
6564.62
6564.08
6562.72
6562.16
6560.55
6559.63
6557.66
6556.49
6554.32
6553.05
6550.83
6549.58
6547.42
6546.31
6544.32
6543.44
6541.66
6541.08
6539.56
6539.26
6537.98
6537.89
6536.8
6536.9
6535.87
6536.2
6535.29
6535.85
6535.08
6535.89
6535.27
6536.31
6535.88
6537.19
6536.84
6538.45
6538.17
6540.05
6539.84
6541.99
6541.82
6544.26
6544.09
6546.84
6546.64
6549.73
6549.47
6552.93
6552.57
6556.4
6555.94
6560.11
6559.57
6563.98
6563.46
6567.9
6567.67
6571.69
6572.4
6575.01
6578.12
6577.16
6586.02
6576.67
6598.57
6569.11
6622.94
6540.57
6683.57
6440.54
6868.24
6038.62
7491.79
2450.55
2296.51
2571.67
2795.07
2928.22
2998.03
3010.26
2968.23
2968.92
3017.27
3073.44
3119
3147.16
3158.49
3154.91
3140.54
3118.26
3091.3
3062.14
3032.56
3003.23
2973.99
2945.02
2916.52
2889.21
2863.29
2839.67
2817.46
2797.58
2778.59
2761.96
2745.94
2732.08
2718.69
2707.18
2696
2686.39
2677.03
2668.96
2661.1
2654.28
2647.65
2641.87
2636.28
2631.28
2626.32
2621.89
2617.43
2613.51
2609.49
2606.05
2602.59
2599.54
2596.51
2593.89
2591.25
2589
2586.7
2584.8
2582.73
2581.11
2579.33
2577.93
2576.38
2575.18
2573.82
2572.79
2571.63
2570.71
2569.77
2568.97
2568.19
2567.52
2566.89
2566.35
2565.86
2565.42
2565.06
2564.68
2564.45
2564.07
2564.03
2563.57
2563.84
2563.15
2563.98
2562.67
2564.68
2561.81
2566.36
2559.41
2570.77
2552.87
2582.36
2534.8
2614.58
2478.57
2715.26
2279.51
3067.1
2358.54
1859.93
1592.13
1427.82
1346.08
1273.83
1279.94
1309.16
1351.9
1412.46
1482.26
1549.52
1611.14
1663.93
1704.88
1733.42
1749.1
1752.49
1744.3
1726.5
1702.38
1676.78
1653.6
1634.91
1619.46
1605.79
1593.23
1581.77
1571.23
1561
1551.15
1540.95
1531.32
1521.67
1512.9
1504.19
1496.4
1488.69
1481.88
1475.15
1469.22
1463.34
1458.12
1452.86
1448.27
1443.64
1439.61
1435.49
1431.95
1428.29
1425.18
1421.97
1419.25
1416.43
1414.08
1411.59
1409.55
1407.33
1405.55
1403.54
1401.98
1400.16
1398.78
1397.11
1395.91
1394.36
1393.32
1391.9
1391
1389.73
1388.94
1387.81
1387.13
1386.12
1385.53
1384.64
1384.09
1383.34
1382.76
1382.21
1381.5
1381.3
1380.25
1380.67
1378.9
1380.51
1377.22
1381.14
1374.74
1383.22
1370.37
1388.32
1361.81
1400.01
1343.74
1425.75
1304.99
1478.49
1229.38
1556.05
2345.16
1822.38
1493.22
1267.66
1111.14
992.621
906.851
846.942
802.646
776.727
760.423
769.432
791.642
824.082
860.925
902.271
941.252
978.668
1011.2
1039.65
1061.38
1079.17
1091.62
1100.98
1105.71
1107.17
1103.57
1097.11
1087.59
1078.02
1068.44
1060.7
1053.93
1048.04
1042.52
1037.35
1032.5
1027.86
1023.56
1019.23
1015.11
1010.63
1006.16
1001.42
996.988
992.442
988.336
984.174
980.477
976.734
973.45
970.125
967.226
964.274
961.709
959.013
956.664
954.155
951.989
949.64
947.644
945.447
943.62
941.57
939.911
938.004
936.507
934.746
933.408
931.787
930.587
929.115
928.02
926.677
925.648
924.434
923.434
922.421
921.383
920.646
919.421
919.124
917.48
917.93
915.456
917.196
913.172
917.137
910.31
918.128
906.351
920.819
900.505
926.176
891.829
934.536
880.848
942.049
875.427
926.57
2341.97
1815.98
1479.81
1247.93
1079.71
952.577
853.188
774.611
710.655
658.881
616.118
581.938
556.217
536.18
523.564
514.801
513.77
520.912
532.256
549.208
568.537
591.92
616.104
642.236
667.068
692.21
713.803
733.37
748.176
760.9
769.707
777.431
782.134
786.064
787.25
787.773
785.844
783.576
779.516
775.795
771.215
767.603
764.162
761.307
758.391
755.714
753.012
750.446
747.962
745.572
743.343
741.148
739.071
736.966
734.811
732.435
730.125
727.683
725.392
722.997
720.8
718.505
716.438
714.273
712.359
710.343
708.587
706.727
705.123
703.401
701.917
700.288
698.863
697.322
695.918
694.499
693.075
691.833
690.348
689.38
687.739
687.176
685.213
685.266
682.707
683.726
680.147
682.608
677.429
681.986
674.47
681.893
671.325
682.07
668.527
681.407
667.713
677.139
671.829
664.945
2341.13
1814.13
1476.76
1243.89
1074.17
945.331
844.331
763.13
696.606
641
594.212
554.002
519.691
489.859
464.154
441.903
422.63
406.908
393.569
383.389
375.277
370.366
367.307
369.005
373.086
381.395
391.406
405.429
419.962
437.815
454.591
473.795
490.9
509.306
524.547
540.281
552.246
564.159
572.361
580.469
585.549
590.74
593.876
597.312
598.919
600.757
600.914
601.284
600.173
599.323
597.302
595.625
593.228
591.23
589.093
587.479
585.731
584.285
582.707
581.3
579.829
578.436
577.069
575.712
574.467
573.174
572.035
570.813
569.705
568.505
567.304
565.93
564.591
563.186
561.77
560.426
558.942
557.713
556.131
555.1
553.389
552.648
550.732
550.389
548.159
548.345
545.668
546.509
543.259
544.837
540.972
543.225
538.933
541.413
537.39
539.034
536.592
535.853
535.989
532.424
2340.86
1813.44
1475.75
1242.6
1072.61
943.433
842.141
760.537
693.597
637.496
590.071
549.213
513.882
482.889
455.603
431.356
409.778
390.346
373.074
357.32
343.382
330.648
319.403
309.377
300.742
293.298
287.189
282.344
278.879
276.862
276.527
278.463
281.682
287.372
293.936
303.055
312.437
324.203
335.433
348.582
360.506
374.055
385.577
398.416
408.866
420.321
429.165
438.701
445.581
452.911
457.778
462.934
466.086
469.466
471.446
473.831
475.088
476.682
477.313
478.188
478.249
478.471
478.037
477.696
476.86
476.067
474.971
473.88
472.75
471.575
470.541
469.572
468.672
467.802
466.922
466.122
465.201
464.478
463.466
462.848
461.715
461.251
459.969
459.699
458.245
458.174
456.538
456.654
454.825
455.078
453.09
453.373
451.32
451.453
449.44
449.371
447.348
447.295
444.533
445.248
2340.76
1813.13
1475.33
1242.07
1072
942.721
841.359
759.659
692.636
636.435
588.91
547.919
512.493
481.274
453.897
429.285
407.576
387.621
370.047
353.541
339.044
325.198
313.073
301.289
291.115
280.947
272.44
263.61
256.532
248.913
243.116
236.719
232.204
227.009
223.819
219.921
218.13
215.715
215.448
215.054
216.679
218.402
221.932
225.792
231.163
237.048
244.032
251.63
259.813
268.527
277.394
286.639
295.663
304.865
313.42
322.039
329.85
337.632
344.542
351.28
357.156
362.715
367.494
371.834
375.52
378.66
381.359
383.447
385.373
386.693
388.076
388.992
390.043
390.62
391.342
391.625
392.006
392.055
392.095
391.944
391.637
391.337
390.696
390.305
389.354
388.911
387.687
387.233
385.774
385.329
383.671
383.231
381.414
381.031
379.051
378.746
376.449
376.295
373.401
373.311
2340.71
1812.97
1475.12
1241.81
1071.71
942.396
841.006
759.283
692.224
636.008
588.447
547.427
511.984
480.708
453.331
428.647
406.92
386.907
369.272
352.709
338.124
324.172
311.953
299.981
289.673
279.225
270.473
261.249
253.763
245.548
239.124
231.73
226.244
219.52
214.878
208.733
204.847
199.232
196.051
190.955
188.498
183.909
182.189
178.153
177.192
173.797
173.634
171.006
171.72
170.108
171.878
171.413
174.261
175.055
178.998
181.089
186.09
189.396
195.345
199.717
206.432
211.637
218.858
224.57
232.033
237.966
245.376
251.268
258.305
263.833
270.271
275.307
281.089
285.586
290.632
294.542
298.808
302.116
305.591
308.285
310.938
313.044
314.894
316.467
317.561
318.645
319.064
319.748
319.586
319.957
319.327
319.469
318.489
318.532
317.238
317.097
315.451
315.101
313.1
312.277
2340.68
1812.89
1475.02
1241.69
1071.57
942.258
840.838
759.13
692.031
635.837
588.236
547.236
511.754
480.503
453.071
428.437
406.621
386.693
368.937
352.48
337.76
323.916
311.552
299.704
289.21
278.93
269.929
260.916
253.123
245.139
238.356
231.205
225.28
218.817
213.619
207.74
203.161
197.779
193.744
188.781
185.236
180.634
177.528
173.25
170.542
166.559
164.225
160.512
158.544
155.104
153.487
150.345
149.077
146.251
145.348
142.863
142.365
140.268
140.182
138.548
138.904
137.814
138.641
138.231
139.578
139.888
141.76
142.792
145.17
146.915
149.773
152.167
155.406
158.37
161.91
165.349
169.092
172.867
176.705
180.699
184.531
188.622
192.345
196.399
199.928
203.832
207.091
210.745
213.66
216.967
219.489
222.338
224.418
226.692
228.406
230.316
231.761
233.227
234.389
235.27
2340.68
1812.91
1475.03
1241.71
1071.58
942.283
840.844
759.158
692.034
635.867
588.234
547.271
511.743
480.548
453.048
428.494
406.587
386.756
368.897
352.548
337.711
323.998
311.485
299.806
289.125
279.05
269.829
261.052
253.008
245.297
238.221
231.392
225.124
219.033
213.45
207.986
202.985
198.064
193.564
189.121
185.062
181.046
177.378
173.756
170.441
167.197
164.207
161.34
158.681
156.188
153.874
151.765
149.826
148.136
146.603
145.384
144.308
143.617
143.069
143.008
143.125
143.748
144.582
145.93
147.53
149.63
151.998
154.817
157.898
161.358
165.049
169.036
173.221
177.595
182.111
186.706
191.387
196.048
200.726
205.286
209.792
214.115
218.323
222.258
226.016
229.479
232.75
235.745
238.532
241.068
243.386
245.475
247.343
249.01
250.439
251.678
252.678
253.528
254.163
254.738
2340.71
1813
1475.15
1241.86
1071.74
942.466
841.029
759.363
692.237
636.092
588.452
547.518
511.973
480.818
453.291
428.787
406.849
387.072
369.181
352.892
338.018
324.38
311.819
300.236
289.502
279.538
270.273
261.623
253.551
245.996
238.912
232.289
226.054
220.235
214.755
209.656
204.869
200.45
196.357
192.626
189.235
186.216
183.578
181.337
179.536
178.179
177.32
177.089
177.421
178.424
180.04
182.361
185.323
188.968
193.239
198.122
203.564
209.502
215.886
222.583
229.582
236.721
244.004
251.24
258.48
265.443
272.235
278.655
284.861
290.641
296.166
301.238
306.027
310.352
314.363
317.91
321.132
323.905
326.366
328.398
330.134
331.504
332.6
333.436
334.047
334.467
334.769
334.906
334.929
334.806
334.555
334.174
333.659
333.028
332.263
331.401
330.417
329.381
328.282
327.239
2340.76
1813.17
1475.39
1242.15
1072.07
942.822
841.415
759.775
692.676
636.558
588.944
548.042
512.522
481.409
453.908
429.458
407.554
387.85
370.009
353.824
339.026
325.543
313.1
301.751
291.22
281.611
272.691
264.576
257.065
250.34
244.217
238.889
234.155
230.279
227.043
224.769
223.197
222.822
223.484
225.324
228.237
232.325
237.478
243.714
250.899
258.949
267.708
276.96
286.617
296.424
306.339
316.026
325.444
334.47
343.072
351.151
358.691
365.613
371.918
377.552
382.535
386.844
390.522
393.591
396.115
398.168
399.86
401.299
402.535
403.548
404.383
405.007
405.475
405.749
405.878
405.833
405.656
405.327
404.89
404.325
403.678
402.941
402.144
401.332
400.469
399.63
398.807
397.985
397.145
396.289
395.394
394.473
393.499
392.493
391.431
390.34
389.202
388.065
386.941
385.921
2340.87
1813.49
1475.85
1242.7
1072.73
943.557
842.25
760.681
693.693
637.656
590.179
549.377
514.042
483.075
455.846
431.634
410.132
390.847
373.644
358.17
344.353
332.012
321.093
311.745
303.654
297.151
291.932
288.427
286.31
286.459
288.567
292.784
298.884
306.931
316.617
327.793
340.092
353.155
366.639
380.345
393.8
406.909
419.345
431.064
441.762
451.455
459.902
467.214
473.255
478.259
482.207
485.387
488.036
490.203
491.94
493.257
494.187
494.74
494.946
494.823
494.407
493.727
492.832
491.76
490.57
489.343
488.133
487.049
486.03
485.057
484.101
483.155
482.21
481.268
480.321
479.375
478.429
477.492
476.566
475.655
474.763
473.881
473.021
472.146
471.289
470.374
469.401
468.398
467.36
466.314
465.245
464.181
463.094
462.021
460.927
459.858
458.778
457.745
456.781
455.974
2341.15
1814.19
1476.91
1243.99
1074.37
945.464
844.558
763.342
696.864
641.371
594.589
554.622
520.5
490.962
465.763
443.829
425.822
410.632
398.928
389.604
383.741
380.086
380.939
385.402
393.437
404.669
418.829
435.246
453.412
472.414
491.918
511.216
529.565
546.642
561.814
575.035
585.948
594.931
601.972
607.59
612.149
615.743
618.423
620.212
621.135
621.257
620.631
619.393
617.626
615.553
613.243
611.016
609.051
607.25
605.536
603.875
602.236
600.621
599.019
597.452
595.913
594.431
592.988
591.611
590.257
588.946
587.588
586.135
584.598
583.036
581.443
579.857
578.269
576.702
575.139
573.604
572.094
570.621
569.186
567.795
566.446
565.145
563.89
562.679
561.508
560.374
559.26
558.175
557.1
556.054
555.008
554
552.985
552.019
551.038
550.119
549.202
548.372
547.654
547.152
2342.03
1815.98
1480.11
1247.96
1080.28
952.706
854.161
775.204
712.348
660.617
619.075
586.933
562.597
545.507
534.585
530.076
534.451
545.063
561.03
581.077
604.57
630.611
657.649
684.795
711.039
734.718
754.968
771.335
784.177
794.175
801.84
807.314
810.766
812.232
811.875
809.912
806.64
802.648
798.212
794.141
790.648
787.471
784.454
781.476
778.556
775.68
772.908
770.236
767.705
765.259
762.898
760.506
757.928
755.275
752.583
749.906
747.252
744.656
742.109
739.645
737.244
734.94
732.709
730.583
728.531
726.583
724.697
722.888
721.105
719.381
717.676
716.026
714.395
712.815
711.265
709.775
708.328
706.94
705.598
704.312
703.072
701.887
700.746
699.659
698.612
697.619
696.66
695.747
694.857
694.014
693.181
692.397
691.611
690.885
690.146
689.479
688.823
688.273
687.88
687.785
2345.25
1822.39
1493.86
1268.16
1113.23
994.178
912.593
852.015
814.514
787.866
783.662
800.117
829.083
866.039
907.634
950.231
990.288
1026.98
1058.27
1083.61
1103.44
1118.45
1129.08
1135.73
1137.46
1134.74
1127.99
1118.69
1108.65
1099.46
1091.81
1085.14
1079.05
1073.28
1067.82
1062.62
1057.74
1052.99
1048.38
1043.52
1038.47
1033.33
1028.23
1023.25
1018.47
1013.89
1009.56
1005.45
1001.59
997.955
994.538
991.333
988.272
985.352
982.537
979.837
977.227
974.725
972.306
969.991
967.755
965.623
963.568
961.616
959.74
957.963
956.258
954.647
953.096
951.62
950.192
948.83
947.506
946.248
945.042
943.896
942.79
941.74
940.724
939.761
938.839
937.96
937.12
936.323
935.563
934.848
934.167
933.529
932.917
932.353
931.801
931.303
930.799
930.365
929.907
929.546
929.189
928.983
928.985
929.415
2358.73
1860.91
1594.77
1434.01
1353.99
1289
1305.25
1337.29
1392.12
1465.15
1539.74
1610.27
1672.38
1723.06
1760.08
1783.38
1792.55
1788.85
1773.31
1750.18
1724.15
1700.71
1682.17
1666.51
1652.51
1639.48
1627.39
1615.94
1604.93
1593.83
1582.73
1571.91
1561.57
1551.73
1542.45
1533.71
1525.55
1517.91
1510.81
1504.16
1497.94
1492.03
1486.48
1481.29
1476.43
1471.85
1467.55
1463.51
1459.72
1456.17
1452.85
1449.75
1446.84
1444.13
1441.57
1439.17
1436.9
1434.76
1432.72
1430.8
1428.96
1427.22
1425.57
1424
1422.51
1421.09
1419.76
1418.5
1417.3
1416.18
1415.12
1414.12
1413.19
1412.3
1411.45
1410.64
1409.86
1409.11
1408.41
1407.74
1407.11
1406.52
1405.97
1405.45
1404.97
1404.53
1404.12
1403.76
1403.42
1403.14
1402.86
1402.64
1402.41
1402.27
1402.07
1402.06
1401.95
1402.22
1402.69
1403.85
2454.74
2305.68
2580.44
2808.67
2934.22
3010.01
2994.57
2967.45
3014.83
3085.64
3150.03
3196.61
3222.41
3229.87
3222.23
3203.95
3178.36
3148.8
3117.79
3086.34
3054.81
3023.05
2991.97
2961.67
2933.61
2907.2
2882.91
2860.48
2839.91
2820.98
2803.65
2787.82
2773.39
2760.22
2748.2
2737.21
2727.14
2717.94
2709.48
2701.76
2694.62
2688.07
2682
2676.3
2670.91
2665.81
2660.99
2656.44
2652.17
2648.16
2644.41
2640.9
2637.62
2634.57
2631.73
2629.08
2626.6
2624.29
2622.12
2620.1
2618.18
2616.4
2614.71
2613.13
2611.66
2610.28
2609
2607.8
2606.71
2605.68
2604.74
2603.89
2603.1
2602.38
2601.71
2601.1
2600.53
2600.01
2599.52
2599.08
2598.69
2598.35
2598.05
2597.8
2597.6
2597.44
2597.33
2597.27
2597.24
2597.27
2597.33
2597.44
2597.56
2597.76
2597.92
2598.33
2598.52
2599.47
2600.42
2602.42
6588.08
7481.93
7876.76
7936
7826.38
7629.93
7415.08
7222.08
7053.55
6914.35
6805.38
6723.41
6664.03
6621.63
6591.85
6570.24
6554.28
6541.58
6531.21
6522.48
6514.92
6508.91
6504.01
6500.33
6497.42
6495.1
6493.31
6491.84
6490.47
6489.03
6487.34
6485.47
6483.4
6481.23
6478.93
6476.61
6474.25
6471.94
6469.66
6467.5
6465.43
6463.5
6461.71
6460.09
6458.62
6457.28
6456.06
6454.94
6453.9
6452.96
6452.09
6451.33
6450.67
6450.13
6449.7
6449.38
6449.17
6449.09
6449.12
6449.25
6449.49
6449.82
6450.27
6450.8
6451.41
6452.11
6452.9
6453.77
6454.73
6455.76
6456.89
6458.1
6459.38
6460.74
6462.18
6463.68
6465.24
6466.85
6468.52
6470.22
6471.97
6473.74
6475.56
6477.41
6479.3
6481.22
6483.19
6485.19
6487.25
6489.33
6491.47
6493.62
6495.86
6498.07
6500.44
6502.59
6504.93
6506.76
6507.99
6507.9
5495.19
3367.75
2415.43
1948.44
1665.39
1480.83
1346.9
1246.02
1163.95
1095.62
1037.21
985.902
940.05
898.62
860.814
825.769
793.061
762.124
732.488
704.073
676.69
650.3
624.918
600.548
577.113
554.675
533.192
512.698
493.148
474.527
456.829
440.096
424.293
409.369
395.262
381.907
369.25
357.242
345.833
334.978
324.638
314.775
305.356
296.348
287.725
279.459
271.522
263.896
256.561
249.489
242.668
236.07
229.686
223.492
217.49
211.648
205.985
200.468
195.137
189.93
184.914
180.016
175.358
170.823
166.563
162.425
158.638
154.962
151.694
148.438
145.701
142.855
140.684
138.136
136.431
134.062
132.846
130.596
129.745
127.415
126.812
124.655
124.369
122.614
122.31
120.899
120.841
120.394
121.408
122.01
123.362
123.57
123.948
122.796
122.281
120.057
119.281
116.355
115.779
112.349
1529.5
2572.87
2358.39
1985.82
1702.06
1501.95
1354.89
1243.76
1154.12
1081.12
1019.84
966.832
920.54
879.607
842.877
809.269
778.162
748.905
721.009
694.33
668.648
643.854
619.89
596.756
574.316
552.67
531.754
511.72
492.391
473.916
456.139
439.35
423.538
408.618
394.51
381.141
368.459
356.413
344.953
334.036
323.623
313.68
304.176
295.08
286.368
278.011
269.986
262.274
254.854
247.703
240.804
234.134
227.681
221.426
215.367
209.477
203.774
198.23
192.882
187.676
182.673
177.81
173.2
168.738
164.566
160.537
156.871
153.331
150.211
147.098
144.509
141.79
139.747
137.292
135.672
133.348
132.17
129.934
129.081
126.73
126.071
123.851
123.467
121.619
121.156
119.566
119.196
118.411
118.982
119.198
120.216
120.235
120.554
119.462
119.044
116.992
116.325
113.657
113.155
110.089
1129.82
1419.95
1804.65
1801.55
1642.56
1475.73
1336.89
1225.29
1133.67
1058.32
995.317
941.407
895.049
854.676
818.938
786.646
757.067
729.429
703.34
678.532
654.71
631.721
609.437
587.823
566.72
546.251
526.294
507.113
488.423
470.502
453.042
436.461
420.829
406.061
392.079
378.806
366.201
354.209
342.782
331.878
321.461
311.503
301.975
292.85
284.102
275.705
267.641
259.888
252.426
245.237
238.302
231.599
225.115
218.838
212.76
206.864
201.161
195.635
190.314
185.159
180.22
175.451
170.95
166.628
162.612
158.764
155.293
151.962
149.057
146.156
143.773
141.237
139.364
137.04
135.526
133.272
132.139
129.929
129.072
126.708
125.989
123.712
123.222
121.287
120.664
118.907
118.227
117.103
117.205
116.997
117.61
117.367
117.535
116.445
116.052
114.159
113.554
111.173
110.718
108.081
895.444
846.819
1029.28
1250.53
1340.43
1313.69
1239.09
1156.56
1080.05
1012.62
954.478
904.254
860.618
822.425
788.658
758.279
730.556
704.75
680.515
657.556
635.545
614.344
593.791
573.756
554.119
535.023
516.307
498.279
480.61
463.586
446.959
430.966
415.756
401.316
387.595
374.536
362.113
350.272
338.963
328.153
317.811
307.914
298.435
289.353
280.639
272.274
264.237
256.509
249.069
241.904
234.991
228.315
221.862
215.621
209.584
203.743
198.104
192.662
187.44
182.41
177.615
173.023
168.72
164.632
160.867
157.299
154.118
151.092
148.491
145.882
143.773
141.478
139.814
137.656
136.264
134.095
133
130.821
129.942
127.567
126.769
124.436
123.825
121.802
121.01
119.093
118.1
116.644
116.259
115.596
115.738
115.167
115.087
113.937
113.485
111.732
111.126
109.064
108.621
106.492
675.196
656.015
666.741
732.594
836.321
921.847
960.601
959.774
936.419
903.219
867.553
833.262
801.211
771.617
744.389
719.159
695.494
673.129
651.704
631.151
611.255
591.982
573.2
554.844
536.794
519.211
501.949
485.288
468.866
452.932
437.446
422.374
407.881
393.996
380.711
368.011
355.901
344.317
333.219
322.589
312.405
302.65
293.304
284.349
275.754
267.506
259.58
251.962
244.629
237.572
230.765
224.2
217.86
211.741
205.832
200.136
194.654
189.395
184.371
179.576
175.038
170.745
166.762
163.037
159.652
156.494
153.727
151.122
148.924
146.697
144.924
142.924
141.492
139.519
138.239
136.152
135.068
132.905
131.968
129.566
128.656
126.256
125.493
123.372
122.387
120.311
118.998
117.219
116.326
115.193
114.808
113.858
113.44
112.175
111.571
109.942
109.268
107.565
107.097
105.569
530.557
531.099
526.796
527.669
540.637
566.635
598.732
629.806
653.259
668.163
674.751
675.794
672.746
666.595
657.917
647.334
635.11
621.768
607.363
592.324
576.773
561.008
545.033
529.17
513.305
497.631
482.082
466.866
451.912
437.299
423.151
409.369
396.015
383.033
370.464
358.374
346.794
335.631
324.886
314.569
304.673
295.193
286.113
277.419
269.079
261.082
253.403
246.028
238.934
232.115
225.543
219.218
213.118
207.251
201.601
196.186
191
186.067
181.392
176.99
172.873
169.048
165.56
162.372
159.536
156.952
154.746
152.693
150.997
149.229
147.835
146.151
144.936
143.128
141.909
139.867
138.726
136.537
135.471
133.007
131.926
129.433
128.468
126.225
125.004
122.76
121.107
119.014
117.597
115.991
115.034
113.677
112.848
111.43
110.598
109.088
108.289
107.006
106.481
105.684
439.299
441.19
439.571
434.501
427.956
422.568
418.229
416.339
416.717
420.705
427.758
437.937
450.515
464.669
478.839
492.009
502.704
510.357
514.169
514.324
510.922
504.927
496.601
486.75
475.759
464.045
451.782
439.116
426.534
413.968
401.59
389.396
377.326
365.666
354.338
343.38
332.774
322.363
312.288
302.607
293.325
284.443
275.944
267.815
260.023
252.556
245.387
238.507
231.89
225.536
219.416
213.54
207.884
202.469
197.279
192.345
187.658
183.262
179.154
175.368
171.899
168.774
166.008
163.58
161.499
159.673
158.176
156.788
155.658
154.375
153.333
151.918
150.827
149.095
147.816
145.725
144.407
142.106
140.8
138.21
136.87
134.239
132.995
130.589
129.07
126.639
124.61
122.215
120.257
118.195
116.638
114.877
113.599
112.027
110.929
109.564
108.621
107.855
107.268
107.388
369.169
371.214
371.072
367.566
360.892
352.134
341.786
330.737
319.463
308.888
299.427
291.912
287.141
285.927
288.894
296.321
307.913
322.843
339.646
356.836
372.26
385.531
394.166
399.229
401.146
400.239
397.056
391.865
385.349
377.762
369.437
360.583
351.159
341.737
332.023
322.298
312.617
303.408
294.61
286.197
278.141
270.43
263.04
255.957
249.147
242.605
236.303
230.243
224.403
218.792
213.389
208.215
203.25
198.532
194.047
189.846
185.916
182.323
179.056
176.167
173.625
171.475
169.688
168.252
167.116
166.193
165.481
164.772
164.145
163.237
162.38
161.055
159.874
158.024
156.474
154.171
152.495
149.955
148.26
145.452
143.739
140.907
139.286
136.664
134.765
132.121
129.677
126.997
124.488
122.014
119.858
117.748
116.038
114.37
113.048
111.909
110.888
110.797
110.211
111.516
309.704
309.585
308.543
305.206
299.417
291.481
282.17
272.063
262.279
253.045
245.442
239.554
235.691
233.667
233.472
234.48
236.932
240.112
244.905
250.226
257.671
265.102
275.432
286.389
296.942
306.161
313.675
318.973
322.068
322.981
321.896
319.009
314.452
308.331
301.823
295.101
288.075
281.325
274.812
268.509
262.386
256.437
250.649
245.022
239.543
234.222
229.05
224.047
219.204
214.547
210.068
205.804
201.747
197.952
194.412
191.197
188.295
185.791
183.656
181.956
180.62
179.697
179.094
178.789
178.647
178.58
178.502
178.236
177.794
176.913
175.859
174.262
172.627
170.356
168.245
165.509
163.256
160.322
158.072
154.946
152.734
149.627
147.521
144.629
142.269
139.396
136.501
133.575
130.526
127.732
125.025
122.697
120.662
119.054
117.679
116.945
116.067
116.893
116.509
119.366
235.955
236.739
237.139
236.708
235.5
233.95
232.745
232.514
233.868
236.755
241.376
246.933
253.329
259.938
266.029
271.298
275.541
278.862
281.413
283.099
284.2
285.089
285.778
286.609
287.644
288.84
290.087
291.192
292.048
292.428
292.274
291.326
289.625
286.847
283.497
279.766
275.649
271.286
266.771
262.17
257.525
252.877
248.246
243.664
239.145
234.723
230.409
226.24
222.22
218.391
214.755
211.368
208.231
205.415
202.92
200.831
199.128
197.9
197.089
196.745
196.737
197.078
197.579
198.192
198.686
198.99
198.951
198.477
197.545
196.049
194.197
191.81
189.266
186.221
183.251
179.868
176.843
173.382
170.446
166.912
164.094
160.651
157.978
154.785
151.916
148.823
145.482
142.391
138.86
135.919
132.793
130.518
128.403
127.181
126.12
126.13
125.864
127.963
128.226
133.022
255.23
255.704
256.424
258.116
261.054
265.604
271.545
278.923
286.992
295.624
304.121
312.178
319.112
324.747
329.267
332.765
335.426
337.463
339.014
340.127
340.951
341.26
341.163
340.661
339.845
338.698
337.228
335.443
333.34
330.877
328.081
324.862
321.311
317.276
312.763
307.903
302.74
297.358
291.835
286.256
280.689
275.198
269.815
264.585
259.532
254.697
250.095
245.767
241.714
237.981
234.572
231.551
228.917
226.747
225.032
223.853
223.169
223.036
223.332
224.047
224.951
225.984
226.851
227.474
227.585
227.186
226.131
224.464
222.178
219.346
216.125
212.518
208.77
204.754
200.813
196.713
192.89
188.872
185.239
181.28
177.854
174.083
170.867
167.407
164.089
160.851
157.175
154.069
150.24
147.454
144.211
142.485
140.741
140.5
140.35
141.667
142.754
146.532
148.129
154.877
326.397
325.731
325.704
327.007
329.861
334.194
339.759
346.303
353.34
360.729
368.098
375.08
381.463
387.1
391.992
396.065
399.469
402.048
403.93
405.188
405.95
406.221
406.068
405.445
404.391
402.829
400.79
398.288
395.252
391.727
387.621
383.015
377.842
372.171
366.104
359.706
352.969
346.002
338.899
331.762
324.672
317.713
310.935
304.397
298.14
292.224
286.68
281.557
276.865
272.656
268.946
265.803
263.226
261.278
259.94
259.263
259.16
259.612
260.403
261.415
262.318
262.965
263.017
262.436
261.029
258.912
256.016
252.52
248.464
244.044
239.374
234.558
229.731
224.884
220.177
215.496
211.046
206.572
202.398
198.099
194.216
190.201
186.607
182.984
179.416
176.159
172.387
169.47
165.679
163.45
160.594
160.086
159.322
160.869
162.258
165.598
168.694
174.402
177.735
185.588
385.162
384.67
384.948
386.675
390.145
395.273
401.937
409.78
418.512
427.472
436.196
444.39
451.81
458.368
463.963
468.639
472.383
475.284
477.328
478.617
479.129
478.927
478.008
476.397
474.08
471.097
467.478
463.216
458.358
452.915
446.902
440.399
433.421
426.078
418.516
410.675
402.702
394.698
386.719
378.817
371.042
363.459
356.099
349.011
342.232
335.829
329.848
324.351
319.366
314.959
311.171
308.073
305.667
303.989
302.999
302.695
302.925
303.56
304.286
304.867
304.908
304.225
302.577
300.035
296.541
292.315
287.4
282.054
276.365
270.57
264.751
259.03
253.477
248.084
242.881
237.791
232.933
228.146
223.638
219.109
214.959
210.802
207.044
203.384
199.815
196.685
193.126
190.625
187.333
186.13
184.34
185.796
186.71
190.892
194.301
200.378
205.64
213.225
217.789
225.409
455.498
455.358
456.069
458.393
462.702
468.939
476.908
486.298
496.616
507.457
518.196
528.452
537.877
546.169
553.136
558.69
562.759
565.405
566.585
566.455
564.952
562.261
558.423
553.528
547.717
541.13
533.947
526.271
518.259
509.92
501.443
492.817
484.208
475.592
466.959
458.318
449.82
441.497
433.361
425.416
417.691
410.239
403.07
396.197
389.653
383.499
377.796
372.612
367.991
364.008
360.719
358.185
356.39
355.32
354.892
355.018
355.463
355.973
356.151
355.665
354.142
351.492
347.672
342.865
337.162
330.856
324.095
317.161
310.178
303.35
296.754
290.468
284.51
278.77
273.271
267.916
262.85
257.874
253.208
248.54
244.294
240.098
236.4
232.855
229.569
226.754
223.809
222.057
219.928
220.393
220.628
224.907
228.348
235.96
241.717
251.083
257.907
266.872
271.18
277.443
547.075
547.433
548.856
552.291
558.284
566.781
577.615
590.326
604.365
618.991
633.378
646.845
658.773
668.526
675.874
680.574
682.648
682.16
679.296
674.337
667.482
659.142
649.548
638.997
627.858
616.334
604.691
593.091
581.638
570.481
559.713
549.338
539.42
529.961
520.86
512.164
503.804
495.739
487.971
480.474
473.269
466.438
459.956
453.784
447.963
442.569
437.68
433.369
429.688
426.705
424.471
423.002
422.233
422.058
422.318
422.814
423.222
423.17
422.213
420.003
416.349
411.353
405.166
398.058
390.261
382.094
373.779
365.575
357.648
350.126
343.09
336.495
330.314
324.358
318.737
313.26
308.159
303.104
298.434
293.726
289.564
285.481
282.117
278.926
276.294
274.129
272.381
271.975
272.023
275.128
278.694
286.715
293.566
305.063
313.229
325.72
332.471
341.847
343.722
348.408
688.254
689.31
691.755
696.935
705.674
717.958
733.506
751.504
771.079
790.664
809.187
825.13
837.584
845.677
849.314
848.333
843.247
834.454
822.747
808.755
793.177
776.639
759.614
742.578
725.888
709.649
694.153
679.347
665.328
652.221
639.929
628.499
617.868
608.004
598.849
590.366
582.421
574.928
567.861
561.157
554.812
548.931
543.484
538.365
533.629
529.388
525.745
522.772
520.517
519.012
518.266
518.21
518.676
519.427
520.201
520.693
520.497
519.166
516.285
511.673
505.452
497.876
489.269
479.952
470.255
460.489
450.933
441.764
433.184
425.269
418.035
411.26
404.997
399.005
393.466
388.053
383.11
378.146
373.666
369.116
365.308
361.652
359.043
356.684
355.3
354.449
354.839
356.9
360.686
367.814
376.222
388.639
399.422
414.544
424.434
438.503
442.664
451.334
448.487
452.869
930.649
932.684
936.612
944.581
957.809
976.168
998.644
1023.68
1049.14
1072.48
1092.01
1105.18
1111.23
1109.63
1101.09
1086.23
1066.7
1043.59
1018.47
992.425
966.392
941.074
916.731
893.84
872.413
852.51
834.33
817.495
802.184
788.155
775.351
763.68
753.055
743.404
734.692
726.818
719.644
713.098
707.105
701.581
696.503
691.94
687.92
684.253
681.007
678.36
676.441
675.301
674.945
675.322
676.336
677.787
679.357
680.645
681.287
680.916
679.1
675.394
669.626
661.969
652.806
642.489
631.47
620.087
608.714
597.608
587.115
577.349
568.522
560.473
553.187
546.434
540.397
534.718
529.618
524.654
520.237
515.772
511.873
507.999
505.098
502.612
501.539
501.023
501.97
503.754
507.837
514.261
523.856
536.526
550.724
567.076
581.442
598.372
607.881
620.395