/*--------------------------------*- C++ -*----------------------------------*\
| =========                 |                                                 |
| \\      /  F ield         | OpenFOAM: The Open Source CFD Toolbox           |
|  \\    /   O peration     | Version:  v2012                                 |
|   \\  /    A nd           | Website:  www.openfoam.com                      |
|    \\/     M anipulation  |                                                 |
\*---------------------------------------------------------------------------*/
FoamFile
{
    version     2.0;
    format      ascii;
    class       volScalarField;
    location    "0.317";
    object      p;
}
// * * * * * * * * * * * * * * * * * * * * * * * * * * * * * * * * * * * * * //

dimensions      [0 2 -2 0 0 0 0];


internalField   nonuniform List<scalar> 
5600
(
-0.655928
-1.11408
-1.49451
-1.81304
-2.12391
-2.43414
-2.73551
-3.01723
-3.28031
-3.53048
-3.76704
-3.99173
-4.20615
-4.41245
-4.61267
-4.80849
-5.00078
-5.19052
-5.37768
-5.56263
-5.74542
-5.92574
-6.10349
-6.27979
-6.45463
-6.62815
-6.80042
-6.97167
-7.14245
-7.31268
-7.48243
-7.65137
-7.81957
-7.98732
-8.15461
-8.3212
-8.48728
-8.65267
-8.81754
-8.98172
-9.14535
-9.30841
-9.47083
-9.63254
-9.79379
-9.9545
-10.1148
-10.2744
-10.4337
-10.5924
-10.7507
-10.9086
-11.066
-11.2229
-11.3794
-11.5355
-11.6912
-11.8464
-12.0012
-12.1555
-12.3095
-12.4631
-12.6163
-12.7691
-12.9216
-13.0737
-13.2254
-13.3768
-13.5279
-13.6786
-13.829
-13.9792
-14.129
-14.2786
-14.4278
-14.5769
-14.7256
-14.8741
-15.0223
-15.1704
-15.3181
-15.4657
-15.613
-15.7602
-15.9071
-16.0538
-16.2004
-16.3469
-16.4931
-16.6391
-16.7849
-16.9303
-17.0764
-17.2221
-17.3685
-17.5151
-17.6643
-17.8176
-17.9747
-18.218
-0.714963
-1.13426
-1.51113
-1.83085
-2.1419
-2.45247
-2.75377
-3.03575
-3.29918
-3.5494
-3.78618
-4.01117
-4.22594
-4.43261
-4.63318
-4.82932
-5.0219
-5.21188
-5.39922
-5.58424
-5.76724
-5.94767
-6.12548
-6.30189
-6.47687
-6.65051
-6.82288
-6.99421
-7.16509
-7.33541
-7.50525
-7.67426
-7.84247
-8.01025
-8.17758
-8.3442
-8.51032
-8.67574
-8.84065
-9.00485
-9.16852
-9.33161
-9.49406
-9.6558
-9.81708
-9.97778
-10.138
-10.2977
-10.457
-10.6157
-10.7741
-10.9319
-11.0893
-11.2462
-11.4027
-11.5587
-11.7145
-11.8697
-12.0244
-12.1787
-12.3327
-12.4863
-12.6395
-12.7923
-12.9448
-13.0968
-13.2486
-13.3999
-13.551
-13.7017
-13.8522
-14.0023
-14.1522
-14.3017
-14.451
-14.6
-14.7487
-14.8972
-15.0454
-15.1934
-15.3411
-15.4888
-15.6361
-15.7833
-15.9302
-16.077
-16.2234
-16.37
-16.5161
-16.6622
-16.8078
-16.9536
-17.0992
-17.2456
-17.3909
-17.5392
-17.6854
-17.8427
-17.9947
-18.2307
-0.753209
-1.14689
-1.52387
-1.84422
-2.15312
-2.46118
-2.76139
-3.04296
-3.30617
-3.55606
-3.79257
-4.01765
-4.23244
-4.43909
-4.63969
-4.83586
-5.02844
-5.21845
-5.40578
-5.59084
-5.77381
-5.95429
-6.13226
-6.30873
-6.48362
-6.65723
-6.82953
-7.00087
-7.17164
-7.34193
-7.51168
-7.68064
-7.8489
-8.01669
-8.18401
-8.35061
-8.5167
-8.68209
-8.84696
-9.01112
-9.17473
-9.33776
-9.50014
-9.66179
-9.823
-9.98372
-10.144
-10.3037
-10.463
-10.6217
-10.78
-10.9379
-11.0953
-11.2522
-11.4088
-11.5649
-11.7207
-11.8759
-12.0308
-12.1851
-12.3392
-12.4928
-12.6461
-12.799
-12.9515
-13.1036
-13.2554
-13.4068
-13.5579
-13.7086
-13.8591
-14.0093
-14.1592
-14.3088
-14.4581
-14.6071
-14.7559
-14.9044
-15.0526
-15.2007
-15.3484
-15.4961
-15.6433
-15.7906
-15.9375
-16.0843
-16.2308
-16.3774
-16.5235
-16.6696
-16.8152
-16.961
-17.1066
-17.253
-17.3983
-17.5467
-17.6933
-17.8512
-18.0023
-18.2288
-0.801932
-1.16337
-1.53926
-1.86107
-2.16869
-2.47581
-2.7764
-3.05859
-3.32244
-3.57265
-3.80973
-4.03482
-4.25009
-4.45695
-4.65759
-4.85369
-5.04613
-5.23589
-5.42292
-5.60766
-5.79048
-5.97087
-6.14886
-6.32542
-6.50042
-6.67432
-6.84699
-7.01867
-7.18967
-7.36019
-7.53011
-7.69922
-7.86748
-8.03535
-8.20273
-8.36942
-8.5356
-8.70109
-8.86606
-9.03035
-9.1941
-9.35729
-9.51984
-9.6817
-9.84309
-10.0038
-10.1641
-10.3239
-10.4832
-10.642
-10.8004
-10.9583
-11.1158
-11.2728
-11.4293
-11.5853
-11.741
-11.8962
-12.0509
-12.2052
-12.3591
-12.5127
-12.6659
-12.8187
-12.9711
-13.1232
-13.2749
-13.4262
-13.5773
-13.728
-13.8784
-14.0285
-14.1784
-14.328
-14.4772
-14.6262
-14.7749
-14.9234
-15.0716
-15.2196
-15.3674
-15.515
-15.6623
-15.8095
-15.9564
-16.1031
-16.2497
-16.3962
-16.5424
-16.6884
-16.8341
-16.9798
-17.1255
-17.2716
-17.4173
-17.5648
-17.7121
-17.8679
-18.0238
-18.228
-0.851558
-1.18049
-1.55501
-1.87926
-2.18528
-2.49157
-2.79186
-3.07387
-3.33774
-3.58776
-3.82505
-4.04991
-4.26537
-4.47246
-4.67329
-4.86957
-5.0622
-5.25207
-5.43925
-5.62409
-5.80687
-5.9873
-6.16526
-6.34167
-6.5165
-6.69022
-6.86268
-7.03418
-7.20493
-7.37536
-7.54517
-7.71427
-7.8826
-8.05056
-8.21793
-8.38467
-8.55082
-8.71633
-8.88125
-9.04552
-9.20918
-9.3723
-9.53469
-9.6965
-9.85777
-10.0185
-10.1788
-10.3385
-10.4977
-10.6565
-10.8148
-10.9726
-11.13
-11.2869
-11.4434
-11.5995
-11.7553
-11.9106
-12.0655
-12.2198
-12.3738
-12.5275
-12.6808
-12.8337
-12.9863
-13.1384
-13.2902
-13.4416
-13.5928
-13.7436
-13.894
-14.0442
-14.1941
-14.3437
-14.493
-14.6421
-14.7909
-14.9394
-15.0876
-15.2357
-15.3834
-15.5311
-15.6784
-15.8256
-15.9725
-16.1193
-16.2659
-16.4124
-16.5586
-16.7046
-16.8504
-16.996
-17.1418
-17.2879
-17.4336
-17.5811
-17.7282
-17.8836
-18.0364
-18.2324
-0.901592
-1.19981
-1.5723
-1.89951
-2.20391
-2.50923
-2.80915
-3.09118
-3.35528
-3.60548
-3.84301
-4.06822
-4.28396
-4.49131
-4.69235
-4.88874
-5.08148
-5.27135
-5.45858
-5.64346
-5.82604
-6.00647
-6.1845
-6.36094
-6.53585
-6.7096
-6.8821
-7.05365
-7.22444
-7.39473
-7.56456
-7.73359
-7.9019
-8.06974
-8.23701
-8.40365
-8.56972
-8.73517
-8.90004
-9.0643
-9.22794
-9.39127
-9.55373
-9.71563
-9.87696
-10.0378
-10.1981
-10.3579
-10.5172
-10.6761
-10.8345
-10.9924
-11.1498
-11.3068
-11.4633
-11.6195
-11.7753
-11.9305
-12.0853
-12.2397
-12.3938
-12.5473
-12.7005
-12.8533
-13.0058
-13.1579
-13.3097
-13.461
-13.6121
-13.7629
-13.9133
-14.0635
-14.2134
-14.363
-14.5122
-14.6613
-14.8101
-14.9586
-15.1068
-15.2549
-15.4026
-15.5502
-15.6976
-15.8448
-15.9917
-16.1385
-16.285
-16.4315
-16.5778
-16.7238
-16.8695
-17.0152
-17.161
-17.307
-17.4527
-17.6
-17.7469
-17.9009
-18.0524
-18.2385
-0.95101
-1.22163
-1.59136
-1.9218
-2.22473
-2.52902
-2.82864
-3.11076
-3.37504
-3.62536
-3.863
-4.08846
-4.30427
-4.51179
-4.71295
-4.90943
-5.10224
-5.29215
-5.47941
-5.6643
-5.84689
-6.02733
-6.20544
-6.3819
-6.55685
-6.73059
-6.90313
-7.07468
-7.24557
-7.41576
-7.58561
-7.75464
-7.92299
-8.09081
-8.25809
-8.42472
-8.59078
-8.75622
-8.92104
-9.08529
-9.24888
-9.41217
-9.57459
-9.7364
-9.89765
-10.0584
-10.2186
-10.3784
-10.5376
-10.6964
-10.8547
-11.0126
-11.17
-11.3271
-11.4836
-11.6397
-11.7956
-11.9508
-12.1057
-12.2601
-12.4141
-12.5677
-12.7209
-12.8738
-13.0264
-13.1785
-13.3303
-13.4817
-13.6328
-13.7835
-13.934
-14.0842
-14.2341
-14.3837
-14.533
-14.6821
-14.8309
-14.9794
-15.1276
-15.2757
-15.4235
-15.5711
-15.7185
-15.8657
-16.0126
-16.1594
-16.3059
-16.4525
-16.5987
-16.7448
-16.8905
-17.0362
-17.1819
-17.3279
-17.4736
-17.6206
-17.7673
-17.9197
-18.0693
-18.2448
-0.997987
-1.24612
-1.61278
-1.94627
-2.24799
-2.55128
-2.85069
-3.13288
-3.39727
-3.64769
-3.88543
-4.1111
-4.327
-4.5347
-4.73602
-4.93262
-5.12552
-5.31547
-5.50277
-5.68767
-5.87027
-6.05069
-6.22883
-6.4053
-6.58028
-6.75401
-6.92657
-7.09815
-7.26906
-7.43926
-7.60908
-7.77812
-7.9465
-8.1143
-8.28159
-8.44823
-8.61428
-8.77973
-8.94454
-9.10885
-9.27249
-9.43561
-9.59807
-9.75988
-9.92115
-10.0819
-10.2421
-10.4018
-10.5611
-10.7198
-10.8781
-11.036
-11.1934
-11.3505
-11.507
-11.6631
-11.8189
-11.9741
-12.1289
-12.2832
-12.4372
-12.5908
-12.744
-12.8969
-13.0494
-13.2015
-13.3533
-13.5047
-13.6559
-13.8066
-13.9571
-14.1073
-14.2572
-14.4068
-14.5561
-14.7052
-14.8541
-15.0025
-15.1508
-15.2988
-15.4466
-15.5942
-15.7416
-15.8888
-16.0357
-16.1825
-16.3291
-16.4756
-16.6219
-16.7679
-16.9136
-17.0593
-17.205
-17.351
-17.4966
-17.6432
-17.7896
-17.9401
-18.0873
-18.2518
-1.04097
-1.27319
-1.63711
-1.97306
-2.27388
-2.57635
-2.87563
-3.15784
-3.42231
-3.67282
-3.91065
-4.13649
-4.35247
-4.5603
-4.76174
-4.95841
-5.15136
-5.34132
-5.52863
-5.71355
-5.89615
-6.07651
-6.25468
-6.43117
-6.60618
-6.77992
-6.95249
-7.12408
-7.29502
-7.46526
-7.63503
-7.80407
-7.97246
-8.14027
-8.30755
-8.47419
-8.64024
-8.80569
-8.9705
-9.13482
-9.29845
-9.46153
-9.62402
-9.78584
-9.94712
-10.1078
-10.2681
-10.4278
-10.5871
-10.7458
-10.9041
-11.062
-11.2194
-11.3765
-11.533
-11.6891
-11.8447
-12
-12.1548
-12.3091
-12.4631
-12.6167
-12.7699
-12.9227
-13.0752
-13.2272
-13.379
-13.5305
-13.6816
-13.8324
-13.9828
-14.133
-14.2829
-14.4324
-14.5817
-14.7307
-14.8795
-15.0281
-15.1763
-15.3243
-15.4721
-15.6197
-15.7671
-15.9143
-16.0612
-16.208
-16.3545
-16.501
-16.6474
-16.7934
-16.9391
-17.0849
-17.2306
-17.3764
-17.522
-17.6683
-17.814
-17.9625
-18.1068
-18.2596
-1.07815
-1.30238
-1.66496
-2.00233
-2.30262
-2.60466
-2.90388
-3.18606
-3.45057
-3.70116
-3.93905
-4.16497
-4.38099
-4.58889
-4.79039
-4.98711
-5.18009
-5.37008
-5.5574
-5.74235
-5.92493
-6.10526
-6.28345
-6.45995
-6.63498
-6.80871
-6.98128
-7.15288
-7.32385
-7.49411
-7.66383
-7.83288
-8.00128
-8.16911
-8.33637
-8.50302
-8.66906
-8.83451
-8.99932
-9.16365
-9.3273
-9.49036
-9.65284
-9.81468
-9.97594
-10.1367
-10.2969
-10.4566
-10.6159
-10.7747
-10.933
-11.0908
-11.2482
-11.4053
-11.5618
-11.7179
-11.8736
-12.0288
-12.1836
-12.338
-12.4919
-12.6455
-12.7987
-12.9515
-13.104
-13.2561
-13.4079
-13.5594
-13.7104
-13.8612
-14.0116
-14.1618
-14.3117
-14.4613
-14.6105
-14.7595
-14.9083
-15.0568
-15.205
-15.353
-15.5008
-15.6483
-15.7957
-15.9429
-16.0898
-16.2365
-16.383
-16.5295
-16.6758
-16.8218
-16.9676
-17.1133
-17.259
-17.4047
-17.5502
-17.696
-17.841
-17.9874
-18.1281
-18.2694
-1.1055
-1.33168
-1.69537
-2.03268
-2.33285
-2.63505
-2.93434
-3.21639
-3.4809
-3.73155
-3.96942
-4.19533
-4.41133
-4.61922
-4.82073
-5.01746
-5.21046
-5.40044
-5.58775
-5.77273
-5.95529
-6.13556
-6.31375
-6.49027
-6.6653
-6.83902
-7.01158
-7.18317
-7.35418
-7.52445
-7.69413
-7.86318
-8.0316
-8.19943
-8.36669
-8.53334
-8.69938
-8.86483
-9.02962
-9.19399
-9.35764
-9.52068
-9.68315
-9.84499
-10.0063
-10.167
-10.3272
-10.487
-10.6462
-10.805
-10.9633
-11.1212
-11.2785
-11.4356
-11.5921
-11.7482
-11.9039
-12.0591
-12.2139
-12.3683
-12.5223
-12.6758
-12.829
-12.9819
-13.1343
-13.2864
-13.4382
-13.5897
-13.7407
-13.8915
-14.0419
-14.1921
-14.342
-14.4915
-14.6408
-14.7898
-14.9386
-15.0871
-15.2353
-15.3833
-15.5311
-15.6786
-15.826
-15.9732
-16.1201
-16.2668
-16.4134
-16.5599
-16.7062
-16.8522
-16.9979
-17.1436
-17.2893
-17.4349
-17.5803
-17.7257
-17.8699
-18.014
-18.1512
-18.2826
-1.12029
-1.35832
-1.72543
-2.06115
-2.36163
-2.66458
-2.96406
-3.24589
-3.51037
-3.76105
-3.99883
-4.22464
-4.44057
-4.64837
-4.84983
-5.04652
-5.23949
-5.42947
-5.61675
-5.80176
-5.9843
-6.1645
-6.34268
-6.5192
-6.69424
-6.86794
-7.04049
-7.21206
-7.38312
-7.5534
-7.72304
-7.89208
-8.06052
-8.22835
-8.39561
-8.56226
-8.72829
-8.89374
-9.05851
-9.22292
-9.38656
-9.54958
-9.71204
-9.87389
-10.0352
-10.1959
-10.3561
-10.5159
-10.6751
-10.8339
-10.9922
-11.1501
-11.3074
-11.4645
-11.6211
-11.7771
-11.9328
-12.088
-12.2428
-12.3972
-12.5511
-12.7047
-12.8579
-13.0107
-13.1632
-13.3153
-13.4671
-13.6186
-13.7697
-13.9204
-14.0709
-14.2211
-14.371
-14.5205
-14.6698
-14.8188
-14.9676
-15.1162
-15.2644
-15.4124
-15.5602
-15.7078
-15.8552
-16.0023
-16.1493
-16.296
-16.4427
-16.5892
-16.7355
-16.8816
-17.0274
-17.1731
-17.3187
-17.4643
-17.6095
-17.7545
-17.8981
-18.0401
-18.1744
-18.2982
-1.12401
-1.38189
-1.75347
-2.0865
-2.38769
-2.69175
-2.99147
-3.27303
-3.53746
-3.78817
-4.02581
-4.25146
-4.46728
-4.67492
-4.87628
-5.07291
-5.26584
-5.4558
-5.64305
-5.82809
-6.0106
-6.19073
-6.36888
-6.54539
-6.72043
-6.89411
-7.06664
-7.23817
-7.40929
-7.57954
-7.74917
-7.9182
-8.08664
-8.25448
-8.42174
-8.58839
-8.75443
-8.91989
-9.08464
-9.2491
-9.41272
-9.57572
-9.73817
-9.90002
-10.0613
-10.222
-10.3822
-10.542
-10.7012
-10.86
-11.0183
-11.1761
-11.3336
-11.4907
-11.6472
-11.8033
-11.9589
-12.1142
-12.269
-12.4234
-12.5774
-12.731
-12.8842
-13.0371
-13.1895
-13.3417
-13.4935
-13.645
-13.7961
-13.9469
-14.0974
-14.2477
-14.3975
-14.5471
-14.6964
-14.8455
-14.9943
-15.1428
-15.2911
-15.4391
-15.5869
-15.7345
-15.8818
-16.0289
-16.1758
-16.3225
-16.4691
-16.6155
-16.7617
-16.9078
-17.0537
-17.1995
-17.3451
-17.4907
-17.6358
-17.7805
-17.9233
-18.064
-18.196
-18.3144
-1.11893
-1.40322
-1.77944
-2.10915
-2.41139
-2.71674
-3.01674
-3.29796
-3.56231
-3.81303
-4.05051
-4.27595
-4.49164
-4.69911
-4.90033
-5.09687
-5.28974
-5.47969
-5.66688
-5.85197
-6.03444
-6.21451
-6.39263
-6.56914
-6.74417
-6.91782
-7.09032
-7.26182
-7.43299
-7.60322
-7.77283
-7.94185
-8.11031
-8.27813
-8.44538
-8.61201
-8.77806
-8.94343
-9.10825
-9.27272
-9.43633
-9.59934
-9.76179
-9.92364
-10.0849
-10.2457
-10.4059
-10.5657
-10.725
-10.8838
-11.0421
-11.1999
-11.3575
-11.5146
-11.6711
-11.8273
-11.983
-12.1383
-12.2931
-12.4475
-12.6016
-12.7552
-12.9084
-13.0612
-13.2137
-13.3657
-13.5175
-13.669
-13.8201
-13.9709
-14.1214
-14.2716
-14.4215
-14.5711
-14.7204
-14.8694
-15.0182
-15.1668
-15.3151
-15.4631
-15.6109
-15.7585
-15.9058
-16.053
-16.2
-16.3468
-16.4935
-16.6401
-16.7864
-16.9324
-17.0781
-17.2238
-17.3694
-17.5148
-17.6598
-17.8044
-17.9471
-18.086
-18.2162
-18.3306
-1.1076
-1.42267
-1.80307
-2.12938
-2.43293
-2.73963
-3.04004
-3.32088
-3.58516
-3.83584
-4.07313
-4.29829
-4.51381
-4.72109
-4.92216
-5.11859
-5.31137
-5.50128
-5.68841
-5.87353
-6.05593
-6.23593
-6.414
-6.59051
-6.76551
-6.93917
-7.11158
-7.28312
-7.45431
-7.62451
-7.79409
-7.96312
-8.13161
-8.29945
-8.46672
-8.63337
-8.79946
-8.96485
-9.1298
-9.29423
-9.45785
-9.62093
-9.78345
-9.94537
-10.1067
-10.2675
-10.4278
-10.5876
-10.7469
-10.9057
-11.064
-11.2218
-11.3793
-11.5364
-11.693
-11.8491
-12.0047
-12.16
-12.3149
-12.4693
-12.6233
-12.7769
-12.9301
-13.0829
-13.2353
-13.3874
-13.5392
-13.6907
-13.8418
-13.9926
-14.1431
-14.2933
-14.4431
-14.5927
-14.7419
-14.891
-15.0397
-15.1882
-15.3365
-15.4845
-15.6322
-15.7797
-15.927
-16.0741
-16.221
-16.3677
-16.5141
-16.6605
-16.8067
-16.9528
-17.0987
-17.2444
-17.3901
-17.5356
-17.6805
-17.8247
-17.9668
-18.1059
-18.235
-18.3466
-1.09206
-1.44066
-1.8243
-2.14755
-2.45248
-2.76042
-3.06129
-3.3418
-3.60607
-3.85669
-4.09387
-4.31877
-4.53401
-4.74106
-4.94206
-5.13836
-5.33113
-5.52093
-5.70814
-5.89329
-6.07566
-6.25559
-6.43357
-6.61004
-6.78498
-6.95861
-7.13098
-7.30262
-7.47379
-7.64404
-7.81364
-7.98271
-8.1513
-8.31926
-8.48663
-8.65337
-8.81954
-8.98502
-9.14999
-9.31433
-9.47791
-9.64096
-9.80347
-9.96536
-10.1267
-10.2875
-10.4478
-10.6075
-10.7668
-10.9256
-11.0839
-11.2417
-11.3992
-11.5563
-11.7129
-11.869
-12.0247
-12.18
-12.3348
-12.4892
-12.6432
-12.7968
-12.9501
-13.1029
-13.2553
-13.4074
-13.5592
-13.7107
-13.8618
-14.0126
-14.1632
-14.3134
-14.4632
-14.6128
-14.7621
-14.9112
-15.06
-15.2085
-15.3568
-15.5049
-15.6527
-15.8003
-15.9477
-16.0949
-16.2419
-16.3887
-16.5354
-16.682
-16.8283
-16.9743
-17.1201
-17.2658
-17.4113
-17.5567
-17.7016
-17.8459
-17.9876
-18.1245
-18.2526
-18.3621
-1.07333
-1.45735
-1.84336
-2.1644
-2.47066
-2.7795
-3.08059
-3.3606
-3.62485
-3.87526
-4.1121
-4.33726
-4.55203
-4.75871
-4.95948
-5.15558
-5.34822
-5.53787
-5.72513
-5.91014
-6.09253
-6.27252
-6.45063
-6.62727
-6.80238
-6.97612
-7.14866
-7.32044
-7.49167
-7.66198
-7.83155
-8.0005
-8.16901
-8.3369
-8.5042
-8.67088
-8.83698
-9.00241
-9.16731
-9.33162
-9.49518
-9.65819
-9.82062
-9.98246
-10.1437
-10.3045
-10.4647
-10.6245
-10.7837
-10.9425
-11.1008
-11.2585
-11.416
-11.573
-11.7295
-11.8856
-12.0412
-12.1964
-12.3512
-12.5056
-12.6596
-12.8131
-12.9663
-13.1191
-13.2715
-13.4235
-13.5753
-13.7267
-13.8778
-14.0285
-14.179
-14.3291
-14.4789
-14.6284
-14.7776
-14.9266
-15.0753
-15.2238
-15.372
-15.52
-15.6677
-15.8152
-15.9625
-16.1096
-16.2564
-16.4031
-16.5496
-16.696
-16.8422
-16.9882
-17.134
-17.2797
-17.4253
-17.5708
-17.7156
-17.8598
-18.0018
-18.1399
-18.2678
-18.3766
-1.05247
-1.47168
-1.85894
-2.17935
-2.48753
-2.79798
-3.0994
-3.37894
-3.64321
-3.89349
-4.13008
-4.3555
-4.56994
-4.77648
-4.97726
-5.17348
-5.36631
-5.5563
-5.74388
-5.92914
-6.11172
-6.29177
-6.46997
-6.6466
-6.82162
-6.99514
-7.16747
-7.33914
-7.5103
-7.68058
-7.85016
-8.01915
-8.18768
-8.35559
-8.52292
-8.68962
-8.85574
-9.02121
-9.18613
-9.35045
-9.51405
-9.67706
-9.83946
-10.0013
-10.1626
-10.3234
-10.4837
-10.6434
-10.8027
-10.9615
-11.1198
-11.2776
-11.4351
-11.5922
-11.7487
-11.9048
-12.0605
-12.2158
-12.3706
-12.525
-12.679
-12.8326
-12.9858
-13.1386
-13.2911
-13.4432
-13.595
-13.7464
-13.8976
-14.0484
-14.1989
-14.3491
-14.4989
-14.6485
-14.7978
-14.9468
-15.0956
-15.2441
-15.3924
-15.5404
-15.6882
-15.8358
-15.9831
-16.1303
-16.2773
-16.424
-16.5707
-16.7171
-16.8634
-17.0095
-17.1553
-17.301
-17.4465
-17.592
-17.7367
-17.8808
-18.0222
-18.1589
-18.2854
-18.3927
-1.03786
-1.48626
-1.87118
-2.1889
-2.49789
-2.81012
-3.11206
-3.39105
-3.6555
-3.90577
-4.14224
-4.36728
-4.58154
-4.78797
-4.98863
-5.18475
-5.37745
-5.56733
-5.75478
-5.93987
-6.12214
-6.30178
-6.47977
-6.6562
-6.83109
-7.00449
-7.17663
-7.34819
-7.51926
-7.68947
-7.85896
-8.02786
-8.1963
-8.36414
-8.53138
-8.69802
-8.86407
-9.02946
-9.19432
-9.35858
-9.52211
-9.68507
-9.84743
-10.0092
-10.1705
-10.3312
-10.4914
-10.6512
-10.8104
-10.9691
-11.1274
-11.2851
-11.4426
-11.5996
-11.7561
-11.9122
-12.0678
-12.223
-12.3778
-12.5322
-12.6861
-12.8397
-12.9929
-13.1456
-13.298
-13.4501
-13.6018
-13.7533
-13.9043
-14.0551
-14.2056
-14.3557
-14.5055
-14.655
-14.8043
-14.9533
-15.102
-15.2505
-15.3987
-15.5467
-15.6945
-15.842
-15.9893
-16.1364
-16.2833
-16.4301
-16.5766
-16.723
-16.8693
-17.0153
-17.1611
-17.3068
-17.4523
-17.5978
-17.7426
-17.8867
-18.0284
-18.1659
-18.2927
-18.4006
-1.00739
-1.50109
-1.8948
-2.21305
-2.52223
-2.83498
-3.13768
-3.4157
-3.68047
-3.93085
-4.16722
-4.39207
-4.60612
-4.81226
-5.01266
-5.20854
-5.40106
-5.59079
-5.77815
-5.96316
-6.14546
-6.32516
-6.50312
-6.67953
-6.85437
-7.02775
-7.19989
-7.37142
-7.54243
-7.71261
-7.88208
-8.05097
-8.21939
-8.38722
-8.55446
-8.7211
-8.88714
-9.05254
-9.2174
-9.38166
-9.5452
-9.70816
-9.87053
-10.0323
-10.1936
-10.3543
-10.5146
-10.6743
-10.8335
-10.9923
-11.1505
-11.3083
-11.4657
-11.6228
-11.7793
-11.9353
-12.091
-12.2462
-12.401
-12.5554
-12.7093
-12.8629
-13.0161
-13.1689
-13.3213
-13.4734
-13.6251
-13.7765
-13.9276
-14.0784
-14.2289
-14.379
-14.5288
-14.6784
-14.8276
-14.9766
-15.1254
-15.2739
-15.4221
-15.5701
-15.7179
-15.8654
-16.0127
-16.1598
-16.3068
-16.4535
-16.6001
-16.7465
-16.8927
-17.0388
-17.1846
-17.3303
-17.4758
-17.6212
-17.766
-17.9101
-18.0517
-18.1888
-18.3154
-18.4228
-18.1921
-18.4545
-19.1921
-19.317
-18.7756
-17.6925
-16.2329
-14.5295
-12.769
-11.0468
-9.4533
-8.01649
-6.75247
-5.65589
-4.71332
-3.9049
-3.21313
-2.61819
-2.1046
-1.66043
-1.27401
-0.935457
-0.637943
-0.375455
-0.142669
0.0650491
0.250441
0.415858
0.564086
0.697331
0.817805
0.926059
1.02182
1.10682
1.18229
1.24904
1.30784
1.35939
1.40427
1.44304
1.47618
1.50413
1.52736
1.54622
1.56102
1.57221
1.57998
1.5845
1.58618
1.5852
1.5816
1.57557
1.56731
1.5568
1.54422
1.52964
1.51312
1.4947
1.47448
1.45243
1.42871
1.40356
1.37691
1.34871
1.31909
1.28834
1.25659
1.22414
1.19108
1.15762
1.12381
1.08994
1.05592
1.02196
0.987914
0.953939
0.9198
0.885658
0.85141
0.817178
0.782636
0.747898
0.712726
0.677418
0.641871
0.606432
0.570973
0.535404
0.499696
0.463483
0.426429
0.388666
0.349505
0.310331
0.27098
0.231101
0.185891
0.141789
0.0792649
0.0508267
-18.233
-18.3804
-19.0857
-19.2275
-18.6981
-17.6353
-16.1979
-14.5141
-12.7693
-11.0585
-9.47343
-8.0413
-6.77975
-5.68419
-4.74143
-3.93211
-3.2388
-2.64211
-2.12677
-1.68091
-1.29299
-0.953189
-0.654573
-0.391002
-0.157358
0.0509784
0.236811
0.402676
0.551072
0.684364
0.804042
0.91212
1.008
1.09307
1.16862
1.23545
1.29432
1.34594
1.39089
1.42972
1.4629
1.4909
1.51418
1.53309
1.54793
1.55914
1.56695
1.57151
1.57322
1.57226
1.56866
1.56261
1.55434
1.5438
1.53117
1.51653
1.49994
1.48144
1.46114
1.43899
1.41518
1.38994
1.36321
1.33495
1.3053
1.27453
1.24276
1.21031
1.17726
1.14383
1.11005
1.07623
1.04229
1.00842
0.974463
0.940585
0.906533
0.8725
0.838348
0.804208
0.769719
0.735038
0.699935
0.664713
0.62923
0.593868
0.558489
0.523017
0.487442
0.451387
0.414495
0.376921
0.33804
0.298897
0.259841
0.220472
0.176132
0.133068
0.0741696
0.046134
-18.2279
-18.3881
-19.0108
-19.1359
-18.6112
-17.566
-16.1511
-14.4894
-12.7639
-11.0688
-9.49421
-8.06909
-6.81188
-5.71788
-4.77474
-3.96416
-3.26892
-2.67019
-2.1529
-1.70513
-1.31553
-0.974221
-0.674262
-0.409434
-0.174724
0.0344831
0.220991
0.387641
0.536545
0.670408
0.789515
0.896719
0.992562
1.07775
1.1534
1.22034
1.27931
1.33102
1.37606
1.41495
1.4482
1.47626
1.4996
1.51856
1.53346
1.54469
1.55254
1.55715
1.55893
1.55798
1.55437
1.54833
1.54004
1.52946
1.51678
1.50207
1.48541
1.4668
1.44639
1.42413
1.40022
1.37488
1.34805
1.31972
1.29002
1.25922
1.22744
1.19498
1.16193
1.12854
1.09482
1.06107
1.02721
0.993441
0.95959
0.925818
0.891862
0.857953
0.823902
0.78986
0.755432
0.720817
0.685789
0.650643
0.615241
0.579962
0.544671
0.509304
0.473876
0.438006
0.401289
0.363922
0.32535
0.286331
0.247527
0.208696
0.165377
0.12343
0.0687797
0.04073
-18.2537
-18.4084
-18.9487
-19.0523
-18.5225
-17.4905
-16.0962
-14.4596
-12.7551
-11.0782
-9.51606
-8.09994
-6.84834
-5.75641
-4.81297
-4.00102
-3.30377
-2.70309
-2.18385
-1.73384
-1.34214
-0.998926
-0.697284
-0.430979
-0.194984
0.0153141
0.20269
0.370212
0.519745
0.654271
0.773277
0.879499
0.975278
1.06064
1.13646
1.20353
1.26263
1.31447
1.3596
1.39859
1.43193
1.46006
1.48347
1.50249
1.51746
1.52875
1.53665
1.5413
1.54315
1.54222
1.53861
1.53262
1.52428
1.51366
1.50092
1.48613
1.46937
1.45065
1.43011
1.40772
1.38368
1.35821
1.33127
1.30286
1.2731
1.24224
1.21045
1.17799
1.14496
1.11162
1.07797
1.0443
1.01051
0.976866
0.943132
0.909478
0.875627
0.84186
0.807918
0.773984
0.73963
0.705091
0.670143
0.635067
0.599761
0.564573
0.529398
0.49414
0.458842
0.42318
0.386676
0.349536
0.311299
0.27252
0.233916
0.195615
0.153511
0.112813
0.0629628
0.034703
-18.2735
-18.4195
-18.8864
-18.967
-18.4354
-17.4149
-16.0385
-14.4289
-12.7467
-11.0899
-9.54209
-8.1361
-6.89024
-5.80078
-4.8574
-4.04413
-3.34474
-2.74178
-2.22021
-1.76749
-1.37324
-1.02776
-0.724138
-0.456143
-0.218698
-0.00719501
0.181145
0.349481
0.499653
0.634645
0.753957
0.85993
0.955896
1.04151
1.11754
1.1848
1.24407
1.29606
1.34133
1.38044
1.41389
1.44212
1.46561
1.48471
1.49976
1.51114
1.51912
1.52383
1.52572
1.52481
1.52124
1.51529
1.5069
1.49623
1.48346
1.46859
1.45168
1.43282
1.41213
1.38959
1.3654
1.33977
1.31269
1.28417
1.25434
1.22343
1.19163
1.15917
1.12618
1.09289
1.0593
1.02571
0.992033
0.958523
0.924905
0.891385
0.85766
0.824049
0.790233
0.756418
0.722155
0.687702
0.652841
0.617825
0.582632
0.547543
0.512517
0.477421
0.442262
0.406646
0.370488
0.333616
0.295745
0.257278
0.218937
0.181064
0.14041
0.101117
0.0566251
0.0280547
-18.2913
-18.4279
-18.8205
-18.8727
-18.3414
-17.3332
-15.9793
-14.3995
-12.7414
-11.1064
-9.57433
-8.17985
-6.9403
-5.85376
-4.91058
-4.09574
-3.39362
-2.78741
-2.26262
-1.80675
-1.40957
-1.06157
-0.755706
-0.48579
-0.246706
-0.0338525
0.155601
0.324804
0.475764
0.611207
0.731254
0.837779
0.934109
1.02004
1.09635
1.16387
1.22336
1.27556
1.32101
1.36028
1.39386
1.42221
1.44581
1.46502
1.48018
1.49167
1.49974
1.50455
1.50649
1.50561
1.50207
1.49612
1.48771
1.47701
1.46419
1.44923
1.43216
1.41314
1.39228
1.36955
1.34515
1.31935
1.29212
1.26348
1.23356
1.20263
1.17081
1.13835
1.10537
1.07214
1.03861
1.00514
0.971575
0.938211
0.904717
0.871346
0.837774
0.804334
0.770666
0.736979
0.702833
0.668477
0.633701
0.598744
0.56368
0.528699
0.493815
0.458927
0.42393
0.388356
0.352573
0.315995
0.278528
0.240399
0.202471
0.164892
0.125925
0.0882079
0.0496627
0.0207465
-18.3076
-18.4323
-18.7505
-18.7691
-18.2378
-17.2427
-15.9134
-14.3658
-12.7365
-11.1265
-9.61278
-8.23178
-6.99973
-5.91626
-4.97318
-4.1564
-3.45095
-2.84076
-2.31196
-1.85235
-1.45175
-1.10079
-0.792311
-0.520156
-0.279148
-0.0647448
0.126059
0.296345
0.448343
0.584455
0.705413
0.812776
0.909558
0.995882
1.07258
1.14044
1.20023
1.25268
1.29836
1.33783
1.37159
1.40011
1.42384
1.44318
1.45848
1.4701
1.4783
1.48322
1.48523
1.48442
1.48092
1.47496
1.46654
1.4558
1.44289
1.42781
1.4106
1.39143
1.37036
1.34737
1.32275
1.29674
1.26938
1.24061
1.21058
1.17957
1.14771
1.11526
1.08228
1.04912
1.0157
0.982349
0.948922
0.915698
0.882358
0.849148
0.815766
0.782506
0.749019
0.71547
0.681479
0.647203
0.612515
0.577647
0.542717
0.507849
0.47309
0.438397
0.403567
0.368273
0.332775
0.296497
0.259468
0.22171
0.184276
0.146985
0.109877
0.0739485
0.0419474
0.012718
-18.3225
-18.4322
-18.6773
-18.658
-18.1263
-17.1456
-15.8418
-14.3273
-12.7289
-11.1458
-9.6526
-8.28685
-7.06391
-5.98289
-5.03994
-4.22172
-3.51339
-2.89958
-2.36681
-1.9033
-1.49892
-1.1446
-0.833111
-0.558414
-0.315213
-0.0993738
0.092827
0.264337
0.4175
0.554444
0.676332
0.784629
0.881968
0.96881
1.04599
1.11427
1.17441
1.22717
1.27311
1.31282
1.34679
1.3755
1.3994
1.41891
1.43439
1.44619
1.45454
1.45961
1.46173
1.46099
1.45755
1.4516
1.44319
1.43239
1.41938
1.40417
1.38679
1.36746
1.34614
1.32289
1.29801
1.27173
1.24413
1.21521
1.18508
1.15397
1.12207
1.08963
1.05671
1.02362
0.990332
0.9571
0.923824
0.890749
0.857599
0.824563
0.791413
0.758346
0.725075
0.691686
0.657868
0.623645
0.58906
0.554344
0.519536
0.484783
0.450157
0.415655
0.381053
0.34608
0.31086
0.274921
0.23837
0.201023
0.164037
0.127249
0.0920048
0.0582173
0.0333389
0.00388188
-18.3364
-18.4288
-18.6027
-18.541
-18.0077
-17.0426
-15.7656
-14.283
-12.7156
-11.1597
-9.6884
-8.33949
-7.12701
-6.05151
-5.11045
-4.29134
-3.58021
-2.96271
-2.42595
-1.95857
-1.55055
-1.19298
-0.878564
-0.601348
-0.355932
-0.138283
0.0555521
0.22852
0.382997
0.520967
0.64387
0.753194
0.851215
0.938662
1.01638
1.0851
1.14562
1.19872
1.24497
1.28496
1.31918
1.34814
1.37225
1.39196
1.40767
1.4197
1.42826
1.43352
1.43577
1.43515
1.43178
1.42587
1.41746
1.40663
1.39349
1.37812
1.36053
1.3409
1.31923
1.29568
1.27054
1.244
1.21611
1.18701
1.15677
1.1256
1.09367
1.06125
1.02837
0.995377
0.962223
0.929121
0.896029
0.863116
0.830198
0.797353
0.76448
0.731633
0.698603
0.665397
0.631704
0.597554
0.563161
0.528612
0.493907
0.459278
0.424798
0.390516
0.356164
0.321529
0.286616
0.251056
0.215024
0.178058
0.141519
0.105463
0.0720255
0.0408644
0.0236354
-0.00594897
-18.3494
-18.4226
-18.5283
-18.4203
-17.8829
-16.9336
-15.6836
-14.2361
-12.7033
-11.1769
-9.72848
-8.39656
-7.19422
-6.12567
-5.18657
-4.36605
-3.65165
-3.03006
-2.48899
-2.01748
-1.60562
-1.24463
-0.927238
-0.647486
-0.39995
-0.180189
0.0152121
0.189412
0.34497
0.483848
0.607672
0.717967
0.816669
0.904703
0.982979
1.05219
1.11316
1.16669
1.21334
1.25368
1.28824
1.31751
1.34189
1.36187
1.37787
1.39019
1.39901
1.4045
1.40693
1.40645
1.40318
1.39731
1.38891
1.37802
1.36478
1.34924
1.33141
1.31139
1.28936
1.26548
1.24003
1.21319
1.18505
1.15576
1.12538
1.09415
1.06219
1.02978
0.996984
0.964085
0.931098
0.898151
0.865281
0.832552
0.799913
0.767292
0.734728
0.702139
0.669363
0.636204
0.602748
0.568786
0.534614
0.500184
0.46559
0.431105
0.396789
0.362761
0.328675
0.294417
0.259832
0.224699
0.189182
0.152559
0.11652
0.0812583
0.0497084
0.0215845
0.0125313
-0.0171047
-18.3617
-18.4159
-18.4631
-18.311
-17.7681
-16.8342
-15.6092
-14.1966
-12.6972
-11.1988
-9.77191
-8.45554
-7.26259
-6.19852
-5.26008
-4.43795
-3.72055
-3.09534
-2.55043
-2.07526
-1.65996
-1.29584
-0.975718
-0.693583
-0.444049
-0.222489
-0.0255572
0.149842
0.306402
0.446059
0.570631
0.681686
0.780908
0.869322
0.947955
1.01751
1.07885
1.1328
1.17985
1.22056
1.25548
1.28511
1.30978
1.33004
1.34637
1.35902
1.36813
1.37388
1.37651
1.37619
1.37303
1.36721
1.35882
1.34787
1.33449
1.31876
1.30067
1.28032
1.25794
1.2337
1.20789
1.18072
1.15231
1.12281
1.0923
1.06099
1.02904
0.996649
0.963968
0.931205
0.89842
0.865659
0.833045
0.800543
0.768216
0.735849
0.703617
0.671102
0.638656
0.605624
0.57249
0.538766
0.504728
0.470404
0.435945
0.401623
0.367491
0.33375
0.29994
0.266095
0.23183
0.197181
0.162046
0.125803
0.0901386
0.0556222
0.0261516
0.000862841
0.000117276
-0.0295112
-18.3741
-18.4124
-18.4156
-18.2278
-17.6794
-16.7584
-15.5545
-14.168
-12.6942
-11.2179
-9.80853
-8.50528
-7.32054
-6.26062
-5.32347
-4.50062
-3.78105
-3.15294
-2.60489
-2.12672
-1.70861
-1.34196
-1.01963
-0.73564
-0.484549
-0.261643
-0.0634289
0.113006
0.270446
0.410771
0.536005
0.647654
0.747497
0.836709
0.915848
0.985689
1.04727
1.10149
1.1488
1.18974
1.2249
1.25479
1.27965
1.30011
1.31668
1.32961
1.33896
1.3449
1.34769
1.34748
1.34441
1.33862
1.3302
1.31916
1.30564
1.28969
1.27134
1.25066
1.2279
1.20329
1.17713
1.14964
1.12098
1.0913
1.06069
1.02936
0.997454
0.965122
0.932583
0.900008
0.867449
0.834899
0.802562
0.770319
0.738305
0.706074
0.674048
0.64172
0.609586
0.576886
0.543938
0.510361
0.476444
0.442233
0.407922
0.373766
0.339834
0.30639
0.272856
0.239414
0.205424
0.171258
0.136344
0.100364
0.0648222
0.0310114
0.00385439
-0.0199832
-0.0130271
-0.0422642
-18.3866
-18.4128
-18.3848
-18.1702
-17.6169
-16.7053
-15.5168
-14.1492
-12.6949
-11.2357
-9.84017
-8.54709
-7.36877
-6.31213
-5.37601
-4.55261
-3.83137
-3.201
-2.6505
-2.17001
-1.74974
-1.38113
-1.05707
-0.771648
-0.519294
-0.295354
-0.0963378
0.0807711
0.238772
0.379503
0.505155
0.617188
0.717423
0.807317
0.88694
0.957267
1.01932
1.07381
1.12136
1.1625
1.19782
1.22792
1.2529
1.2735
1.29024
1.30336
1.31286
1.31893
1.32181
1.32166
1.31861
1.31281
1.30431
1.29316
1.27946
1.2633
1.24467
1.22367
1.20056
1.17561
1.14914
1.12139
1.09253
1.06274
1.0321
1.0008
0.968989
0.936764
0.904379
0.872006
0.839697
0.807381
0.775319
0.743339
0.711352
0.679378
0.647533
0.615581
0.583675
0.551176
0.518362
0.484911
0.451121
0.417011
0.382848
0.348855
0.315133
0.281978
0.248722
0.215642
0.181876
0.148025
0.113241
0.0772221
0.0416266
0.0087609
-0.0166974
-0.0401368
-0.0266343
-0.0546893
-18.3996
-18.4168
-18.3668
-18.1326
-17.5754
-16.6706
-15.4935
-14.1398
-12.6999
-11.2537
-9.86855
-8.58293
-7.40944
-6.35527
-5.41987