/*--------------------------------*- C++ -*----------------------------------*\
| =========                 |                                                 |
| \\      /  F ield         | OpenFOAM: The Open Source CFD Toolbox           |
|  \\    /   O peration     | Version:  v2012                                 |
|   \\  /    A nd           | Website:  www.openfoam.com                      |
|    \\/     M anipulation  |                                                 |
\*---------------------------------------------------------------------------*/
FoamFile
{
    version     2.0;
    format      ascii;
    class       volScalarField;
    location    "0.023";
    object      omega.air;
}
// * * * * * * * * * * * * * * * * * * * * * * * * * * * * * * * * * * * * * //

dimensions      [0 0 -1 0 0 0 0];


internalField   nonuniform List<scalar> 
5600
(
6587.43
7484.41
7886.13
7964.52
7867.85
7689.34
7478.3
7279.19
7112.24
6990.11
6912.56
6869.31
6848.29
6839.57
6836.76
6836.29
6836.55
6836.92
6837.18
6837.32
6837.4
6837.43
6837.45
6837.46
6837.46
6837.46
6837.46
6837.46
6837.46
6837.46
6837.46
6837.46
6837.46
6837.46
6837.46
6837.46
6837.46
6837.46
6837.46
6837.46
6837.46
6837.46
6837.46
6837.46
6837.46
6837.46
6837.46
6837.46
6837.46
6837.46
6837.46
6837.47
6837.47
6837.47
6837.47
6837.47
6837.47
6837.47
6837.47
6837.47
6837.47
6837.47
6837.47
6837.47
6837.47
6837.47
6837.47
6837.47
6837.47
6837.47
6837.47
6837.47
6837.47
6837.47
6837.47
6837.47
6837.47
6837.47
6837.47
6837.45
6837.5
6837.37
6837.7
6836.91
6838.71
6834.91
6842.35
6829.05
6850.77
6819.79
6858.36
6820.3
6847.53
6834.99
6855.48
6739.97
7116.59
6179.76
7840.14
3531.49
2451.29
2295.83
2569.52
2795.07
2926.88
3003.12
3015.05
2962.55
2964.13
2993.64
3019.26
3035.54
3044.79
3050.03
3053.6
3056.76
3059.36
3061.12
3062.23
3062.87
3063.21
3063.38
3063.46
3063.5
3063.51
3063.52
3063.52
3063.52
3063.53
3063.53
3063.53
3063.53
3063.53
3063.53
3063.53
3063.53
3063.53
3063.53
3063.53
3063.53
3063.53
3063.53
3063.53
3063.53
3063.53
3063.53
3063.53
3063.53
3063.53
3063.53
3063.53
3063.53
3063.53
3063.53
3063.53
3063.53
3063.53
3063.53
3063.53
3063.53
3063.53
3063.53
3063.53
3063.53
3063.53
3063.53
3063.53
3063.53
3063.53
3063.53
3063.53
3063.53
3063.53
3063.53
3063.53
3063.53
3063.53
3063.53
3063.53
3063.53
3063.51
3063.57
3063.43
3063.75
3063.04
3064.56
3061.55
3067.16
3057.78
3072.5
3052.78
3076.67
3054.24
3065.1
3086.2
3003.74
3188.06
2884.56
3465.16
2653.22
2358.55
1860.01
1591.91
1427.29
1346.45
1272.87
1281.61
1313.92
1362.73
1414.22
1455.39
1480.3
1494.85
1503.28
1508.5
1512.1
1514.57
1516.17
1517.16
1517.73
1518.04
1518.2
1518.27
1518.3
1518.32
1518.32
1518.33
1518.33
1518.33
1518.33
1518.33
1518.33
1518.33
1518.33
1518.33
1518.33
1518.33
1518.33
1518.33
1518.33
1518.33
1518.33
1518.33
1518.33
1518.33
1518.33
1518.33
1518.33
1518.33
1518.33
1518.33
1518.33
1518.33
1518.33
1518.33
1518.33
1518.33
1518.33
1518.33
1518.33
1518.33
1518.33
1518.33
1518.33
1518.33
1518.33
1518.33
1518.33
1518.33
1518.33
1518.33
1518.33
1518.33
1518.33
1518.33
1518.33
1518.33
1518.33
1518.34
1518.3
1518.41
1518.12
1518.83
1517.18
1520.78
1513.48
1527.12
1503.73
1539.43
1490.99
1545.38
1496.35
1526.85
1508.58
1568.51
1347.03
1874.5
894.052
2157.86
597.606
2345.12
1822.37
1493.34
1267.46
1111.34
991.936
907.153
848.349
808.323
779.345
752.142
734.431
720.553
710.13
703.193
699.214
697.283
696.531
696.334
696.339
696.389
696.433
696.461
696.477
696.484
696.488
696.49
696.49
696.49
696.491
696.491
696.491
696.491
696.491
696.491
696.491
696.491
696.491
696.491
696.491
696.491
696.491
696.491
696.491
696.491
696.491
696.491
696.491
696.491
696.491
696.491
696.491
696.491
696.491
696.491
696.491
696.491
696.491
696.491
696.491
696.491
696.491
696.491
696.491
696.491
696.491
696.491
696.491
696.491
696.491
696.491
696.491
696.491
696.491
696.491
696.491
696.492
696.487
696.504
696.456
696.584
696.26
697.036
695.284
698.989
691.687
704.964
682.822
715.982
671.577
722.546
671.831
716.544
667.166
767.613
530.265
999.043
247.786
1097.74
202.41
2341.96
1815.92
1479.9
1247.95
1079.73
952.121
853.177
775.445
712.673
659.511
612.539
572.661
540.553
516.771
500.727
490.89
485.395
482.582
481.252
480.668
480.43
480.339
480.307
480.297
480.294
480.293
480.293
480.293
480.293
480.293
480.293
480.293
480.293
480.293
480.293
480.293
480.293
480.293
480.293
480.293
480.293
480.293
480.293
480.293
480.293
480.293
480.293
480.293
480.293
480.293
480.293
480.293
480.293
480.293
480.293
480.293
480.293
480.293
480.293
480.293
480.293
480.293
480.293
480.293
480.293
480.293
480.293
480.293
480.293
480.293
480.293
480.293
480.293
480.293
480.293
480.293
480.293
480.292
480.296
480.285
480.314
480.239
480.424
479.995
480.924
479.058
482.51
476.712
485.416
474.09
486.2
476.887
479.244
484.42
482.165
451.669
572.818
284.883
789.33
83.5806
2341.13
1814.08
1476.8
1244
1074.11
944.943
844.201
763.989
697.961
641.226
591.399
548.679
514.292
488.862
471.708
461.143
455.174
452.06
450.549
449.864
449.572
449.454
449.409
449.393
449.388
449.386
449.385
449.385
449.385
449.385
449.385
449.385
449.385
449.385
449.385
449.385
449.385
449.385
449.385
449.385
449.385
449.385
449.385
449.385
449.385
449.385
449.385
449.385
449.385
449.385
449.385
449.385
449.385
449.385
449.385
449.385
449.385
449.385
449.385
449.385
449.385
449.385
449.385
449.385
449.385
449.385
449.385
449.385
449.385
449.385
449.385
449.385
449.385
449.385
449.385
449.385
449.385
449.386
449.384
449.389
449.377
449.404
449.344
449.468
449.23
449.648
448.99
449.883
448.953
449.362
450.572
446.132
455.503
440.327
460.36
437.717
464.103
419.183
528.233
290.105
2340.87
1813.4
1475.78
1242.74
1072.54
943.049
841.984
761.401
694.905
637.658
587.385
544.3
509.637
484.017
466.74
456.099
450.079
446.932
445.4
444.702
444.402
444.281
444.234
444.217
444.211
444.209
444.209
444.208
444.208
444.208
444.208
444.208
444.208
444.208
444.208
444.208
444.208
444.208
444.208
444.208
444.208
444.208
444.208
444.208
444.208
444.208
444.208
444.208
444.208
444.208
444.208
444.208
444.208
444.208
444.208
444.208
444.208
444.208
444.208
444.208
444.208
444.208
444.208
444.208
444.208
444.208
444.208
444.208
444.208
444.208
444.208
444.208
444.208
444.208
444.208
444.208
444.208
444.208
444.208
444.208
444.209
444.204
444.222
444.172
444.293
444.034
444.514
443.769
444.642
444.186
443.07
447.391
438.608
451.041
439.578
441.601
458.117
418.546
478.08
405.879
2340.76
1813.09
1475.35
1242.21
1071.93
942.34
841.189
760.523
693.941
636.606
586.24
543.063
508.326
482.659
465.36
454.71
448.687
445.537
444.004
443.305
443.005
442.883
442.836
442.819
442.813
442.811
442.81
442.81
442.81
442.81
442.81
442.81
442.81
442.81
442.81
442.81
442.81
442.81
442.81
442.81
442.81
442.81
442.81
442.81
442.81
442.81
442.81
442.81
442.81
442.81
442.81
442.81
442.81
442.81
442.81
442.81
442.81
442.81
442.81
442.81
442.81
442.81
442.81
442.81
442.81
442.81
442.81
442.81
442.81
442.81
442.81
442.81
442.81
442.81
442.81
442.81
442.81
442.81
442.809
442.81
442.808
442.813
442.804
442.816
442.808
442.787
442.905
442.537
443.445
441.542
444.977
439.724
446.137
441.039
440.173
452.439
426.227
461.327
430.96
440.529
2340.71
1812.93
1475.13
1241.96
1071.64
942.015
840.831
760.139
693.541
636.183
585.782
542.566
507.799
482.119
464.82
454.174
448.157
445.012
443.481
442.783
442.484
442.362
442.315
442.298
442.292
442.29
442.289
442.289
442.289
442.289
442.289
442.289
442.289
442.289
442.289
442.289
442.289
442.289
442.289
442.289
442.289
442.289
442.289
442.289
442.289
442.289
442.289
442.289
442.289
442.289
442.289
442.289
442.289
442.289
442.289
442.289
442.289
442.289
442.289
442.289
442.289
442.289
442.289
442.289
442.289
442.289
442.289
442.289
442.289
442.289
442.289
442.289
442.289
442.289
442.289
442.289
442.289
442.289
442.289
442.289
442.289
442.288
442.291
442.284
442.299
442.273
442.299
442.326
442.107
442.769
441.373
443.533
441.431
441.214
447.152
433.065
453.075
436.129
437.588
458.47
2340.69
1812.86
1475.03
1241.84
1071.5
941.869
840.671
759.969
693.368
636.005
585.588
542.349
507.567
481.881
464.584
453.944
447.931
444.789
443.26
442.563
442.264
442.143
442.096
442.078
442.072
442.07
442.07
442.069
442.069
442.069
442.069
442.069
442.069
442.069
442.069
442.069
442.069
442.069
442.069
442.069
442.069
442.069
442.069
442.069
442.069
442.069
442.069
442.069
442.069
442.069
442.069
442.069
442.069
442.069
442.069
442.069
442.069
442.069
442.069
442.069
442.069
442.069
442.069
442.069
442.069
442.069
442.069
442.069
442.069
442.069
442.069
442.069
442.069
442.069
442.069
442.069
442.069
442.069
442.069
442.069
442.07
442.068
442.074
442.059
442.094
442.017
442.17
441.892
442.346
441.698
442.45
441.914
441.55
443.855
438.671
446.337
439.499
439.078
452.497
427.286
2340.69
1812.87
1475.05
1241.86
1071.52
941.886
840.687
759.986
693.385
636.022
585.604
542.364
507.578
481.889
464.589
453.947
447.933
444.791
443.262
442.565
442.266
442.144
442.098
442.08
442.074
442.072
442.072
442.071
442.071
442.071
442.071
442.071
442.071
442.071
442.071
442.071
442.071
442.071
442.071
442.071
442.071
442.071
442.071
442.071
442.071
442.071
442.071
442.071
442.071
442.071
442.071
442.071
442.071
442.071
442.071
442.071
442.071
442.071
442.071
442.071
442.071
442.071
442.071
442.071
442.071
442.071
442.071
442.071
442.071
442.071
442.071
442.071
442.071
442.071
442.071
442.071
442.071
442.071
442.071
442.071
442.072
442.069
442.076
442.062
442.09
442.036
442.128
441.991
442.162
441.997
442.103
442.06
442.189
441.626
442.933
441.289
441.375
445.843
435.483
447.562
2340.71
1812.96
1475.17
1242
1071.68
942.065
840.881
760.19
693.592
636.234
585.83
542.607
507.832
482.143
464.837
454.187
448.166
445.019
443.488
442.789
442.489
442.367
442.32
442.303
442.297
442.295
442.294
442.294
442.294
442.294
442.294
442.294
442.294
442.294
442.294
442.294
442.294
442.294
442.294
442.294
442.294
442.294
442.294
442.294
442.294
442.294
442.294
442.294
442.294
442.294
442.294
442.294
442.294
442.294
442.294
442.294
442.294
442.294
442.294
442.294
442.294
442.294
442.294
442.294
442.294
442.294
442.294
442.294
442.294
442.294
442.294
442.294
442.294
442.294
442.294
442.294
442.294
442.294
442.294
442.294
442.295
442.292
442.298
442.285
442.312
442.262
442.345
442.225
442.368
442.245
442.273
442.417
442.083
442.506
442.222
442.081
442.919
441.167
443.706
441.736
2340.76
1813.13
1475.41
1242.29
1072.01
942.423
841.273
760.607
694.027
636.69
586.318
543.129
508.379
482.698
465.389
454.731
448.703
445.55
444.016
443.316
443.016
442.894
442.847
442.83
442.824
442.822
442.821
442.821
442.821
442.821
442.821
442.821
442.821
442.821
442.821
442.821
442.821
442.821
442.821
442.821
442.821
442.821
442.821
442.821
442.821
442.821
442.821
442.821
442.821
442.821
442.821
442.821
442.821
442.821
442.821
442.821
442.821
442.821
442.821
442.821
442.821
442.821
442.821
442.821
442.821
442.821
442.821
442.821
442.821
442.821
442.821
442.821
442.821
442.821
442.821
442.821
442.821
442.821
442.821
442.821
442.822
442.819
442.825
442.813
442.836
442.794
442.862
442.769
442.87
442.803
442.777
442.935
442.688
442.859
442.969
442.571
442.817
443.505
441.493
443.847
2340.87
1813.46
1475.87
1242.84
1072.66
943.17
842.107
761.524
695.032
637.789
587.516
544.421
509.743
484.105
466.814
456.161
450.135
446.984
445.45
444.751
444.451
444.33
444.283
444.266
444.26
444.258
444.257
444.257
444.257
444.257
444.257
444.257
444.257
444.257
444.257
444.257
444.257
444.257
444.257
444.257
444.257
444.257
444.257
444.257
444.257
444.257
444.257
444.257
444.257
444.257
444.257
444.257
444.257
444.257
444.257
444.257
444.257
444.257
444.257
444.257
444.257
444.257
444.257
444.257
444.257
444.257
444.257
444.257
444.257
444.257
444.257
444.257
444.257
444.257
444.257
444.257
444.257
444.257
444.257
444.257
444.258
444.255
444.261
444.249
444.271
444.233
444.292
444.217
444.285
444.272
444.169
444.416
444.105
444.24
444.605
443.6
444.849
444.367
442.862
446.986
2341.14
1814.17
1476.92
1244.14
1074.27
945.122
844.391
764.214
698.248
641.567
591.781
549.093
514.731
489.313
472.16
461.593
455.622
452.507
450.996
450.311
450.019
449.901
449.856
449.84
449.835
449.833
449.832
449.832
449.832
449.832
449.832
449.832
449.832
449.832
449.832
449.832
449.832
449.832
449.832
449.832
449.832
449.832
449.832
449.832
449.832
449.832
449.832
449.832
449.832
449.832
449.832
449.832
449.832
449.832
449.832
449.832
449.832
449.832
449.832
449.832
449.832
449.832
449.832
449.832
449.832
449.832
449.832
449.832
449.832
449.832
449.832
449.832
449.832
449.832
449.832
449.832
449.832
449.832
449.832
449.832
449.833
449.83
449.836
449.823
449.848
449.806
449.869
449.794
449.848
449.879
449.679
450.093
449.57
449.841
450.391
448.564
451.382
448.96
448.508
453.829
2341.96
1816.06
1480.05
1248.16
1080.08
952.56
853.786
776.397
714.189
661.44
615.305
576.021
544.394
520.944
505.093
495.359
489.922
487.142
485.831
485.256
485.021
484.931
484.899
484.889
484.886
484.885
484.885
484.885
484.885
484.885
484.885
484.885
484.885
484.885
484.885
484.885
484.885
484.885
484.885
484.885
484.885
484.885
484.885
484.885
484.885
484.885
484.885
484.885
484.885
484.885
484.885
484.885
484.885
484.885
484.885
484.885
484.885
484.885
484.885
484.885
484.885
484.885
484.885
484.885
484.885
484.885
484.885
484.885
484.885
484.885
484.885
484.885
484.885
484.885
484.885
484.885
484.885
484.885
484.885
484.885
484.886
484.882
484.891
484.873
484.907
484.847
484.94
484.821
484.924
484.936
484.655
485.346
484.289
485.238
485.369
482.968
487.841
481.772
484.749
487.893
2345.08
1822.69
1493.61
1268.37
1112.84
994.454
911.557
855.13
818.953
792.186
772.219
758.479
747.328
738.723
732.881
729.502
727.876
727.269
727.135
727.162
727.218
727.262
727.289
727.303
727.31
727.313
727.314
727.315
727.315
727.315
727.315
727.315
727.315
727.315
727.315
727.315
727.315
727.315
727.315
727.315
727.315
727.315
727.315
727.315
727.315
727.315
727.315
727.315
727.315
727.315
727.315
727.315
727.315
727.315
727.315
727.315
727.316
727.316
727.316
727.316
727.316
727.316
727.316
727.316
727.316
727.316
727.316
727.316
727.316
727.316
727.316
727.316
727.316
727.316
727.316
727.316
727.316
727.316
727.316
727.315
727.317
727.313
727.322
727.302
727.345
727.26
727.41
727.179
727.466
727.243
727.131
727.971
726.092
728.75
726.501
726.15
729.997
722.939
726.539
727.579
2358.6
1861.35
1593.89
1433.83
1353.73
1289.31
1305.48
1343.57
1404.37
1463.68
1506.6
1533.07
1548.67
1557.74
1563.27
1567.01
1569.56
1571.17
1572.15
1572.7
1572.99
1573.13
1573.2
1573.23
1573.24
1573.25
1573.25
1573.25
1573.25
1573.25
1573.25
1573.25
1573.25
1573.25
1573.25
1573.25
1573.25
1573.25
1573.25
1573.25
1573.25
1573.25
1573.25
1573.25
1573.25
1573.25
1573.25
1573.25
1573.25
1573.25
1573.25
1573.25
1573.25
1573.25
1573.25
1573.25
1573.25
1573.25
1573.25
1573.25
1573.25
1573.25
1573.25
1573.25
1573.25
1573.25
1573.25
1573.25
1573.25
1573.25
1573.25
1573.25
1573.25
1573.25
1573.25
1573.25
1573.25
1573.25
1573.25
1573.25
1573.25
1573.25
1573.26
1573.24
1573.27
1573.21
1573.33
1573.13
1573.43
1573.06
1573.35
1573.46
1572.5
1574.56
1571.61
1574.01
1572.87
1570.67
1570.79
1572.89
2455.92
2303.58
2577.79
2807.69
2933.23
3016.88
2996.52
2969.87
3013.4
3059.47
3089.8
3106.52
3115.37
3120.25
3123.3
3126.06
3128.47
3130.12
3131.17
3131.77
3132.09
3132.24
3132.31
3132.35
3132.36
3132.37
3132.37
3132.37
3132.37
3132.37
3132.37
3132.37
3132.37
3132.37
3132.37
3132.37
3132.37
3132.37
3132.37
3132.37
3132.37
3132.37
3132.37
3132.37
3132.37
3132.37
3132.37
3132.37
3132.37
3132.37
3132.37
3132.37
3132.37
3132.37
3132.37
3132.37
3132.37
3132.37
3132.37
3132.37
3132.37
3132.37
3132.37
3132.37
3132.37
3132.37
3132.37
3132.37
3132.37
3132.37
3132.37
3132.37
3132.37
3132.37
3132.37
3132.37
3132.37
3132.37
3132.37
3132.37
3132.37
3132.37
3132.37
3132.37
3132.37
3132.38
3132.37
3132.39
3132.36
3132.38
3132.4
3132.27
3132.53
3132.16
3132.26
3132.57
3130.47
3131.77
3127.84
3133.31
6588
7481.94
7874.36
7936.99
7828.03
7631.01
7412.05
7210.67
7041.49
6920.34
6845.66
6805.36
6786.12
6778.11
6775.55
6775.18
6775.48
6775.87
6776.14
6776.29
6776.36
6776.4
6776.41
6776.42
6776.42
6776.42
6776.42
6776.42
6776.42
6776.42
6776.42
6776.42
6776.42
6776.42
6776.42
6776.42
6776.42
6776.42
6776.42
6776.42
6776.42
6776.42
6776.42
6776.42
6776.42
6776.43
6776.43
6776.43
6776.43
6776.43
6776.43
6776.43
6776.43
6776.43
6776.43
6776.43
6776.43
6776.43
6776.43
6776.43
6776.43
6776.43
6776.43
6776.43
6776.43
6776.43
6776.43
6776.43
6776.43
6776.43
6776.43
6776.43
6776.43
6776.43
6776.43
6776.43
6776.43
6776.43
6776.43
6776.43
6776.43
6776.43
6776.43
6776.42
6776.44
6776.41
6776.47
6776.36
6776.53
6776.31
6776.52
6776.5
6776.08
6777.18
6775.69
6777.16
6777.8
6777.43
6781.42
6786.3
3359.49
3012.8
2045.3
960.809
594.133
518.222
495.52
479.66
466.113
455.641
449.113
445.62
443.839
442.966
442.569
442.414
442.358
442.335
442.325
442.32
442.318
442.316
442.316
442.315
442.315
442.315
442.315
442.315
442.315
442.315
442.315
442.315
442.315
442.315
442.315
442.315
442.315
442.315
442.315
442.315
442.315
442.315
442.315
442.315
442.315
442.315
442.315
442.315
442.315
442.315
442.315
442.315
442.315
442.315
442.315
442.315
442.315
442.315
442.315
442.315
442.315
442.315
442.315
442.315
442.315
442.315
442.315
442.315
442.315
442.315
442.315
442.315
442.315
442.315
442.315
442.315
442.315
442.315
442.315
442.315
442.315
442.315
442.315
442.315
442.315
442.315
442.315
442.315
442.315
442.315
442.314
442.315
442.313
442.316
442.31
442.313
442.306
442.299
442.293
442.263
3299.47
3242.22
1786.55
798.405
557.066
508.172
491.156
477.767
465.436
455.441
448.986
445.522
443.787
442.939
442.529
442.338
442.26
442.23
442.219
442.214
442.212
442.212
442.211
442.211
442.211
442.211
442.211
442.211
442.211
442.211
442.211
442.211
442.211
442.211
442.211
442.211
442.211
442.211
442.211
442.211
442.211
442.211
442.211
442.211
442.211
442.211
442.211
442.211
442.211
442.211
442.211
442.211
442.211
442.211
442.211
442.211
442.211
442.211
442.211
442.211
442.211
442.211
442.211
442.211
442.211
442.211
442.211
442.211
442.211
442.211
442.211
442.211
442.211
442.211
442.211
442.211
442.211
442.211
442.211
442.211
442.211
442.211
442.211
442.211
442.211
442.211
442.211
442.211
442.211
442.211
442.21
442.212
442.209
442.213
442.206
442.213
442.203
442.208
442.196
442.2
2019.3
2758.48
1337.81
647.145
525.7
501.258
488.162
476.288
464.889
455.305
448.896
445.431
443.755
442.961
442.567
442.356
442.248
442.2
442.179
442.17
442.166
442.164
442.163
442.163
442.162
442.162
442.162
442.162
442.162
442.162
442.162
442.162
442.162
442.162
442.162
442.162
442.162
442.162
442.162
442.162
442.162
442.162
442.162
442.162
442.162
442.162
442.162
442.162
442.162
442.162
442.162
442.162
442.162
442.162
442.162
442.162
442.162
442.162
442.162
442.162
442.162
442.162
442.162
442.162
442.162
442.162
442.162
442.162
442.162
442.162
442.162
442.162
442.162
442.162
442.162
442.162
442.162
442.162
442.162
442.162
442.162
442.162
442.162
442.162
442.162
442.162
442.162
442.162
442.162
442.162
442.162
442.163
442.16
442.166
442.158
442.17
442.158
442.177
442.162
442.202
1309.32
1976.73
884.781
543.781
510.65
499.539
487.056
475.245
464.346
455.158
448.848
445.366
443.712
442.959
442.601
442.406
442.293
442.235
442.206
442.193
442.186
442.183
442.181
442.181
442.18
442.18
442.18
442.18
442.18
442.18
442.18
442.18
442.18
442.18
442.18
442.18
442.18
442.18
442.18
442.18
442.18
442.18
442.18
442.18
442.18
442.18
442.18
442.18
442.18
442.18
442.18
442.18
442.18
442.18
442.18
442.18
442.18
442.18
442.18
442.18
442.18
442.18
442.18
442.18
442.18
442.18
442.18
442.18
442.18
442.18
442.18
442.18
442.18
442.18
442.18
442.18
442.18
442.18
442.18
442.18
442.18
442.18
442.18
442.18
442.18
442.18
442.18
442.18
442.18
442.18
442.179
442.181
442.179
442.184
442.177
442.189
442.179
442.202
442.191
442.246
964.881
1140.43
583.108
493.128
496.182
493.419
484.57
473.927
463.656
454.858
448.702
445.254
443.617
442.89
442.559
442.388
442.288
442.233
442.204
442.19
442.183
442.18
442.178
442.177
442.177
442.176
442.176
442.176
442.176
442.176
442.176
442.176
442.176
442.176
442.176
442.176
442.176
442.176
442.176
442.176
442.176
442.176
442.176
442.176
442.176
442.176
442.176
442.176
442.176
442.176
442.176
442.176
442.176
442.176
442.176
442.176
442.176
442.176
442.176
442.176
442.176
442.176
442.176
442.176
442.176
442.176
442.176
442.176
442.176
442.176
442.176
442.176
442.176
442.176
442.176
442.176
442.176
442.176
442.176
442.176
442.176
442.176
442.176
442.176
442.176
442.176
442.176
442.176
442.176
442.176
442.176
442.177
442.175
442.18
442.175
442.185
442.177
442.197
442.191
442.241
673.45
600.166
479.401
480.175
488.941
488.409
483.105
473.761
463.78
455.044
448.757
445.157
443.465
442.753
442.454
442.314
442.237
442.194
442.171
442.159
442.153
442.15
442.149
442.148
442.148
442.147
442.147
442.147
442.147
442.147
442.147
442.147
442.147
442.147
442.147
442.147
442.147
442.147
442.147
442.147
442.147
442.147
442.147
442.147
442.147
442.147
442.147
442.147
442.147
442.147
442.147
442.147
442.147
442.147
442.147
442.147
442.147
442.147
442.147
442.147
442.147
442.147
442.147
442.147
442.147
442.147
442.147
442.147
442.147
442.147
442.147
442.147
442.147
442.147
442.147
442.147
442.147
442.147
442.147
442.147
442.147
442.147
442.147
442.147
442.147
442.147
442.147
442.147
442.147
442.147
442.147
442.148
442.147
442.15
442.146
442.154
442.148
442.164
442.16
442.202
482.838
462.206
464.226
478.58
483.164
479.481
477.274
471.728
463.436
455.553
449.616
445.874
443.865
442.908
442.48
442.292
442.204
442.161
442.14
442.131
442.126
442.124
442.123
442.122
442.122
442.122
442.122
442.122
442.122
442.121
442.121
442.121
442.121
442.121
442.121
442.121
442.121
442.121
442.121
442.121
442.121
442.121
442.121
442.121
442.121
442.121
442.121
442.121
442.121
442.121
442.121
442.121
442.121
442.121
442.121
442.121
442.121
442.121
442.121
442.121
442.121
442.121
442.121
442.121
442.121
442.121
442.121
442.121
442.121
442.121
442.121
442.121
442.121
442.121
442.121
442.121
442.121
442.121
442.121
442.121
442.121
442.121
442.121
442.121
442.121
442.121
442.121
442.122
442.121
442.122
442.121
442.122
442.121
442.124
442.12
442.127
442.122
442.135
442.131
442.166
456.209
438.324
466.899
462.384
466.077
466.516
463.705
460.379
454.836
449.054
445.212
443.365
442.646
442.379
442.263
442.2
442.161
442.138
442.125
442.119
442.115
442.114
442.113
442.113
442.112
442.112
442.112
442.112
442.112
442.112
442.112
442.112
442.112
442.112
442.112
442.112
442.112
442.112
442.112
442.112
442.112
442.112
442.112
442.112
442.112
442.112
442.112
442.112
442.112
442.112
442.112
442.112
442.112
442.112
442.112
442.112
442.112
442.112
442.112
442.112
442.112
442.112
442.112
442.112
442.112
442.112
442.112
442.112
442.112
442.112
442.112
442.112
442.112
442.112
442.112
442.112
442.112
442.112
442.112
442.112
442.112
442.112
442.112
442.112
442.112
442.112
442.112
442.112
442.112
442.112
442.112
442.113
442.112
442.114
442.111
442.117
442.112
442.124
442.119
442.149
422.065
460.217
446.655
447.681
490.874
520.118
519.241
504.768
486.847
469.531
456.378
448.537
444.712
443.104
442.488
442.261
442.177
442.144
442.131
442.125
442.123
442.122
442.122
442.121
442.121
442.121
442.121
442.121
442.121
442.121
442.121
442.121
442.121
442.121
442.121
442.121
442.121
442.121
442.121
442.121
442.121
442.121
442.121
442.121
442.121
442.121
442.121
442.121
442.121
442.121
442.121
442.121
442.121
442.121
442.121
442.121
442.121
442.121
442.121
442.121
442.121
442.121
442.121
442.121
442.121
442.121
442.121
442.121
442.121
442.121
442.121
442.121
442.121
442.121
442.121
442.121
442.121
442.121
442.121
442.121
442.121
442.121
442.121
442.121
442.121
442.121
442.121
442.121
442.121
442.121
442.121
442.121
442.121
442.123
442.12
442.125
442.12
442.13
442.125
442.15
453.631
437.664
444.093
482.211
472.168
444.575
430.387
428.671
433.844
439.407
442.241
442.905
442.746
442.489
442.32
442.231
442.188
442.17
442.162
442.159
442.158
442.157
442.157
442.157
442.157
442.157
442.157
442.157
442.157
442.157
442.157
442.157
442.157
442.157
442.157
442.157
442.157
442.157
442.157
442.157
442.157
442.157
442.157
442.157
442.157
442.157
442.157
442.157
442.157
442.157
442.157
442.157
442.157
442.157
442.157
442.157
442.157
442.157
442.157
442.157
442.157
442.157
442.157
442.157
442.157
442.157
442.157
442.157
442.157
442.157
442.157
442.157
442.157
442.157
442.157
442.157
442.157
442.157
442.157
442.157
442.157
442.157
442.157
442.157
442.157
442.157
442.157
442.157
442.157
442.157
442.157
442.157
442.157
442.158
442.156
442.16
442.155
442.164
442.158
442.179
442.968
437.24
454.558
447.271
455.304
478.837
495.5
492.974
478.089
462.674
452.209
446.6
444.013
442.929
442.503
442.341
442.281
442.26
442.254
442.252
442.252
442.252
442.252
442.252
442.252
442.252
442.252
442.252
442.252
442.252
442.252
442.252
442.252
442.252
442.252
442.252
442.252
442.252
442.252
442.252
442.252
442.252
442.252
442.252
442.252
442.252
442.252
442.252
442.252
442.252
442.252
442.252
442.252
442.252
442.252
442.252
442.252
442.252
442.252
442.252
442.252
442.252
442.252
442.252
442.252
442.252
442.252
442.252
442.252
442.252
442.252
442.252
442.252
442.252
442.252
442.252
442.252
442.252
442.252
442.252
442.252
442.252
442.252
442.252
442.252
442.252
442.252
442.252
442.252
442.252
442.252
442.253
442.252
442.253
442.25
442.255
442.249
442.257
442.249
442.268
440.128
447.135
442.604
451.667
471.687
476.782
471.166
465.045
459.286
453.513
448.706
445.551
443.842
443.032
442.683
442.543
442.49
442.472
442.468
442.468
442.469
442.469
442.47
442.47
442.47
442.47
442.47
442.47
442.47
442.47
442.47
442.47
442.47
442.47
442.47
442.47
442.47
442.47
442.47
442.47
442.47
442.47
442.47
442.47
442.47
442.47
442.47
442.47
442.47
442.47
442.47
442.47
442.47
442.47
442.47
442.47
442.47
442.47
442.47
442.47
442.47
442.47
442.47
442.47
442.47
442.47
442.47
442.47
442.47
442.47
442.47
442.47
442.47
442.47
442.47
442.47
442.47
442.47
442.47
442.47
442.47
442.47
442.47
442.47
442.47
442.47
442.47
442.47
442.47
442.47
442.47
442.471
442.47
442.472
442.468
442.474
442.466
442.477
442.465
442.488
443.565
440.553
447.536
453.463
466.036
480.358
485.434
479.496
468.386
457.907
450.606
446.463
444.435
443.534
443.165
443.025
442.977
442.964
442.963
442.964
442.966
442.967
442.968
442.969
442.969
442.969
442.969
442.969
442.969
442.969
442.969
442.969
442.969
442.969
442.969
442.969
442.969
442.969
442.969
442.969
442.969
442.969
442.969
442.969
442.969
442.969
442.969
442.969
442.969
442.969
442.969
442.969
442.969
442.969
442.969
442.969
442.969
442.969
442.969
442.969
442.969
442.969
442.969
442.969
442.969
442.969
442.969
442.969
442.969
442.969
442.969
442.969
442.969
442.969
442.969
442.969
442.969
442.969
442.969
442.969
442.969
442.969
442.969
442.969
442.969
442.969
442.969
442.969
442.969
442.969
442.969
442.97
442.968
442.972
442.966
442.976
442.962
442.984
442.961
443.003
440.595
448.374
444.641
454.279
494.739
516.449
511.817
495.003
476.822
462.463
453.217
448.201
445.82
444.788
444.382
444.24
444.201
444.199
444.206
444.214
444.219
444.222
444.224
444.225
444.226
444.226
444.226
444.226
444.226
444.226
444.226
444.226
444.226
444.226
444.226
444.226
444.226
444.226
444.226
444.226
444.226
444.226
444.226
444.226
444.226
444.226
444.226
444.226
444.226
444.226
444.226
444.226
444.226
444.226
444.226
444.226
444.226
444.226
444.226
444.226
444.226
444.226
444.226
444.226
444.226
444.226
444.226
444.226
444.226
444.226
444.226
444.226
444.226
444.226
444.226
444.226
444.226
444.226
444.226
444.226
444.226
444.226
444.226
444.226
444.226
444.226
444.226
444.226
444.226
444.226
444.226
444.228
444.224
444.232
444.22
444.244
444.213
444.269
444.215
444.322
443.369
458.989
449.188
493.543
582.559
613.572
588.476
543.594
503.841
476.832
461.191
453.344
449.821
448.352
447.815
447.661
447.644
447.666
447.693
447.713
447.726
447.734
447.738
447.74
447.741
447.742
447.742
447.742
447.743
447.743
447.743
447.743
447.743
447.743
447.743
447.743
447.743
447.743
447.743
447.743
447.743
447.743
447.743
447.743
447.743
447.743
447.743
447.743
447.743
447.743
447.743
447.743
447.743
447.743
447.743
447.743
447.743
447.743
447.743
447.743
447.743
447.743
447.743
447.743
447.743
447.743
447.743
447.743
447.743
447.743
447.743
447.743
447.743
447.743
447.743
447.743
447.743
447.743
447.743
447.743
447.743
447.743
447.743
447.743
447.743
447.743
447.743
447.743
447.743
447.743
447.742
447.747
447.738
447.76
447.723
447.8
447.699
447.884
447.711
448.048
478.5
504.249
511.384
666.223
850.004
875.284
791.104
676.248
581.404
520.44
486.548
470.344
463.167
460.165
459.129
458.917
458.97
459.079
459.174
459.241
459.282
459.306
459.318
459.325
459.329
459.33
459.331
459.332
459.332
459.332
459.332
459.332
459.332
459.332
459.332
459.332
459.332
459.332
459.332
459.332
459.332
459.332
459.332
459.332
459.332
459.332
459.332
459.332
459.332
459.332
459.332
459.332
459.332
459.332
459.332
459.332
459.332
459.332
459.332
459.332
459.332
459.332
459.332
459.332
459.332
459.332
459.332
459.332
459.332
459.332
459.332
459.332
459.332
459.332
459.332
459.332
459.332
459.332
459.332
459.332
459.332
459.332
459.332
459.332
459.333
459.333
459.333
459.333
459.333
459.335
459.332
459.345
459.32
459.392
459.272
459.54
459.178
459.876
459.22
460.537
730.368
764.177
879.023
1204.25
1462.92
1415.02
1208.28
969.754
773.245
644.111
571.355
535.212
518.251
511.022
508.815
508.666
509.091
509.58
509.953
510.191
510.331
510.413
510.458
510.483
510.495
510.502
510.505
510.507
510.508
510.509
510.509
510.509
510.509
510.509
510.509
510.509
510.509
510.509
510.509
510.509
510.509
510.509
510.509
510.509
510.509
510.509
510.509
510.509
510.509
510.509
510.509
510.509
510.509
510.509
510.509
510.509
510.509
510.509
510.509
510.509
510.509
510.509
510.509
510.509
510.509
510.509
510.509
510.509
510.509
510.509
510.509
510.509
510.509
510.509
510.509
510.509
510.509
510.509
510.509
510.51
510.51
510.51
510.51
510.51
510.51
510.51
510.51
510.511
510.511