/*--------------------------------*- C++ -*----------------------------------*\
| =========                 |                                                 |
| \\      /  F ield         | OpenFOAM: The Open Source CFD Toolbox           |
|  \\    /   O peration     | Version:  v2012                                 |
|   \\  /    A nd           | Website:  www.openfoam.com                      |
|    \\/     M anipulation  |                                                 |
\*---------------------------------------------------------------------------*/
FoamFile
{
    version     2.0;
    format      ascii;
    class       volVectorField;
    location    "0.383";
    object      U.air;
}
// * * * * * * * * * * * * * * * * * * * * * * * * * * * * * * * * * * * * * //

dimensions      [0 1 -1 0 0 0 0];


internalField   nonuniform List<vector> 
1900
(
(39.9676 0.00859688 0)
(39.9239 0.015103 0)
(39.8679 0.0180588 0)
(39.8035 0.0207993 0)
(39.73 0.0237062 0)
(39.6526 0.0267683 0)
(39.5681 0.0297565 0)
(39.4712 0.034433 0)
(39.3801 0.0347839 0)
(39.2118 0.073503 0)
(40.0053 0.0147927 0)
(40.0212 0.0233975 0)
(40.0401 0.0257182 0)
(40.0561 0.0277458 0)
(40.0726 0.0304775 0)
(40.0898 0.0329399 0)
(40.1095 0.0364838 0)
(40.1257 0.0385578 0)
(40.1466 0.0533817 0)
(40.1568 0.0585716 0)
(40.0029 0.00824746 0)
(40.0161 0.0135856 0)
(40.0335 0.0137912 0)
(40.051 0.0145443 0)
(40.0688 0.0163129 0)
(40.0879 0.0182043 0)
(40.1087 0.0208556 0)
(40.1299 0.024805 0)
(40.1543 0.0350812 0)
(40.1844 0.0529455 0)
(40.0018 0.00414496 0)
(40.0132 0.00782145 0)
(40.0301 0.00860527 0)
(40.0479 0.00970547 0)
(40.066 0.0114323 0)
(40.0852 0.0132518 0)
(40.1064 0.0158683 0)
(40.1291 0.0197454 0)
(40.1561 0.0288801 0)
(40.1894 0.0416247 0)
(40.0015 0.001112 0)
(40.012 0.00211927 0)
(40.0285 0.00232728 0)
(40.0464 0.0026624 0)
(40.0645 0.00325309 0)
(40.084 0.00405071 0)
(40.1056 0.00562475 0)
(40.1294 0.00842125 0)
(40.1575 0.0146682 0)
(40.1918 0.0210544 0)
(40.0016 -0.00180292 0)
(40.0122 -0.00371606 0)
(40.0288 -0.00416326 0)
(40.0468 -0.00431399 0)
(40.065 -0.0043608 0)
(40.0846 -0.00401593 0)
(40.1066 -0.00289513 0)
(40.1311 -0.000789732 0)
(40.1597 0.0031761 0)
(40.1936 0.00640823 0)
(40.0019 -0.00486279 0)
(40.0136 -0.00947527 0)
(40.0308 -0.0105123 0)
(40.0489 -0.0114613 0)
(40.0672 -0.0126727 0)
(40.0871 -0.0134371 0)
(40.1094 -0.0134428 0)
(40.1344 -0.0127054 0)
(40.163 -0.0110203 0)
(40.1957 -0.0104531 0)
(40.0032 -0.00926928 0)
(40.0168 -0.0153327 0)
(40.0348 -0.0157394 0)
(40.0527 -0.016477 0)
(40.0709 -0.01804 0)
(40.0911 -0.0194037 0)
(40.1136 -0.0202815 0)
(40.1388 -0.020797 0)
(40.1672 -0.0210301 0)
(40.1987 -0.0225688 0)
(40.0057 -0.0162088 0)
(40.0223 -0.0253699 0)
(40.042 -0.0274341 0)
(40.0582 -0.0288787 0)
(40.0751 -0.0308085 0)
(40.0938 -0.0324197 0)
(40.1145 -0.0335734 0)
(40.1374 -0.0344434 0)
(40.1628 -0.0352272 0)
(40.1893 -0.0366674 0)
(39.9675 -0.0101412 0)
(39.9214 -0.0185951 0)
(39.8645 -0.0229106 0)
(39.797 -0.0265887 0)
(39.7223 -0.0303253 0)
(39.6428 -0.0339089 0)
(39.5582 -0.0373399 0)
(39.4686 -0.0407417 0)
(39.3739 -0.044104 0)
(39.2741 -0.0480425 0)
(39.1724 -0.039283 0)
(38.0177 -0.354714 0)
(36.4706 -0.795034 0)
(34.9649 -1.35455 0)
(33.8571 -1.88881 0)
(33.1083 -2.33224 0)
(32.5394 -2.60363 0)
(32.0827 -2.66915 0)
(31.6441 -2.56927 0)
(31.2129 -2.34948 0)
(30.7881 -2.07059 0)
(30.3632 -1.77858 0)
(29.9521 -1.5086 0)
(29.55 -1.27325 0)
(29.1578 -1.07593 0)
(28.7765 -0.915177 0)
(28.4107 -0.788189 0)
(28.0656 -0.689039 0)
(27.742 -0.60977 0)
(27.4413 -0.54539 0)
(27.1672 -0.494269 0)
(26.919 -0.453252 0)
(26.6964 -0.418362 0)
(26.4947 -0.386943 0)
(26.3172 -0.359357 0)
(26.1594 -0.335402 0)
(26.0254 -0.314777 0)
(25.9105 -0.296325 0)
(25.8116 -0.279346 0)
(25.7265 -0.263922 0)
(25.6538 -0.250291 0)
(25.5904 -0.238157 0)
(25.5363 -0.227317 0)
(25.4878 -0.217077 0)
(25.4451 -0.207333 0)
(25.4079 -0.198243 0)
(25.3757 -0.189952 0)
(25.3482 -0.18244 0)
(25.3251 -0.175598 0)
(25.306 -0.169164 0)
(25.2907 -0.163105 0)
(25.2788 -0.157419 0)
(25.2697 -0.152094 0)
(25.263 -0.14716 0)
(25.2584 -0.142638 0)
(25.2556 -0.138318 0)
(25.2546 -0.134079 0)
(25.2552 -0.129949 0)
(25.2571 -0.126056 0)
(25.2604 -0.122523 0)
(25.2651 -0.119291 0)
(25.2711 -0.116184 0)
(25.2783 -0.113127 0)
(25.2865 -0.110161 0)
(25.2957 -0.107347 0)
(25.3058 -0.104717 0)
(25.3167 -0.102285 0)
(25.3283 -0.0999862 0)
(25.3407 -0.0977495 0)
(25.3536 -0.0955418 0)
(25.3671 -0.0934026 0)
(25.3809 -0.0913757 0)
(25.3952 -0.0894993 0)
(25.41 -0.0877273 0)
(25.4251 -0.0860216 0)
(25.4405 -0.0843481 0)
(25.4562 -0.0827272 0)
(25.4721 -0.0811681 0)
(25.4882 -0.0796902 0)
(25.5045 -0.078274 0)
(25.5209 -0.0769165 0)
(25.5375 -0.0755927 0)
(25.5541 -0.0743047 0)
(25.5708 -0.0730462 0)
(25.5875 -0.0718331 0)
(25.6042 -0.0706548 0)
(25.6208 -0.0695177 0)
(25.6375 -0.0683946 0)
(25.6539 -0.0672996 0)
(25.6704 -0.06621 0)
(25.6866 -0.0651537 0)
(25.7028 -0.064105 0)
(25.7186 -0.0630892 0)
(25.7345 -0.0620703 0)
(25.75 -0.0610759 0)
(25.7655 -0.0600772 0)
(25.7805 -0.0591086 0)
(25.7956 -0.0581436 0)
(25.8103 -0.0572144 0)
(25.8249 -0.0562925 0)
(25.8391 -0.0554169 0)
(25.8533 -0.0545553 0)
(25.867 -0.0537835 0)
(25.8809 -0.0530289 0)
(25.8941 -0.0525313 0)
(25.9078 -0.0519799 0)
(25.9204 -0.0522655 0)
(25.9349 -0.0520666 0)
(25.9452 -0.0543082 0)
(25.9652 -0.0544217 0)
(40.259 0.20537 0)
(40.4989 0.295873 0)
(40.6487 -0.0460568 0)
(40.4722 -0.668263 0)
(39.9271 -1.3308 0)
(39.098 -1.89412 0)
(38.1064 -2.2538 0)
(37.0579 -2.38366 0)
(36.0564 -2.32232 0)
(35.1534 -2.13325 0)
(34.3679 -1.87989 0)
(33.6972 -1.61156 0)
(33.1351 -1.36107 0)
(32.6581 -1.14139 0)
(32.2432 -0.95515 0)
(31.8692 -0.802028 0)
(31.5218 -0.680608 0)
(31.1912 -0.585209 0)
(30.8678 -0.508283 0)
(30.5457 -0.445942 0)
(30.2259 -0.397237 0)
(29.9181 -0.360425 0)
(29.6251 -0.331168 0)
(29.3436 -0.306094 0)
(29.0764 -0.285372 0)
(28.8274 -0.269552 0)
(28.5979 -0.257284 0)
(28.3881 -0.246382 0)
(28.1956 -0.236015 0)
(28.021 -0.226588 0)
(27.8616 -0.218209 0)
(27.7174 -0.21051 0)
(27.5865 -0.203132 0)
(27.4681 -0.195767 0)
(27.3609 -0.188404 0)
(27.2637 -0.181382 0)
(27.1761 -0.174904 0)
(27.0971 -0.169006 0)
(27.0261 -0.163596 0)
(26.9617 -0.158474 0)
(26.9039 -0.153581 0)
(26.8512 -0.148865 0)
(26.8029 -0.144402 0)
(26.7588 -0.140337 0)
(26.7188 -0.136635 0)
(26.6825 -0.133084 0)
(26.6497 -0.12955 0)
(26.6201 -0.126078 0)
(26.5935 -0.122824 0)
(26.5698 -0.11991 0)
(26.5488 -0.117272 0)
(26.5301 -0.114711 0)
(26.5139 -0.11216 0)
(26.4997 -0.109644 0)
(26.4874 -0.107224 0)
(26.477 -0.104957 0)
(26.4681 -0.102842 0)
(26.4606 -0.100811 0)
(26.4543 -0.0988184 0)
(26.4492 -0.0968337 0)
(26.4452 -0.0949082 0)
(26.4423 -0.0930772 0)
(26.4404 -0.091411 0)
(26.4395 -0.0898428 0)
(26.4393 -0.0883306 0)
(26.4398 -0.0867896 0)
(26.441 -0.085289 0)
(26.4428 -0.0838415 0)
(26.4452 -0.082466 0)
(26.448 -0.0811432 0)
(26.4512 -0.0798686 0)
(26.4549 -0.0786145 0)
(26.4588 -0.0773803 0)
(26.463 -0.0761627 0)
(26.4674 -0.0749794 0)
(26.4719 -0.0738241 0)
(26.4766 -0.0726997 0)
(26.4814 -0.0715824 0)
(26.4863 -0.07048 0)
(26.4911 -0.0693794 0)
(26.496 -0.0683014 0)
(26.5009 -0.0672288 0)
(26.5057 -0.0661832 0)
(26.5106 -0.0651311 0)
(26.5153 -0.0641008 0)
(26.52 -0.0630616 0)
(26.5246 -0.062053 0)
(26.5292 -0.0610431 0)
(26.5336 -0.0600715 0)
(26.538 -0.0591022 0)
(26.5423 -0.0581829 0)
(26.5465 -0.0572735 0)
(26.5506 -0.0564601 0)
(26.5547 -0.0556611 0)
(26.5586 -0.0551287 0)
(26.5626 -0.0545474 0)
(26.5663 -0.0548249 0)
(26.5703 -0.0545628 0)
(26.5737 -0.0569857 0)
(26.5795 -0.056794 0)
(40.2699 0.127743 0)
(40.4561 0.0177451 0)
(40.6021 -0.368698 0)
(40.4975 -0.908899 0)
(40.0434 -1.4408 0)
(39.2825 -1.86017 0)
(38.3234 -2.09987 0)
(37.2916 -2.1553 0)
(36.2753 -2.06676 0)
(35.366 -1.88589 0)
(34.5837 -1.6585 0)
(33.9333 -1.42233 0)
(33.4083 -1.20316 0)
(32.9874 -1.00997 0)
(32.6466 -0.843779 0)
(32.3687 -0.705581 0)
(32.1437 -0.595476 0)
(31.9588 -0.507695 0)
(31.7976 -0.434455 0)
(31.6501 -0.373706 0)
(31.5136 -0.326655 0)
(31.3835 -0.291196 0)
(31.2519 -0.262436 0)
(31.1149 -0.237792 0)
(30.9691 -0.2174 0)
(30.8141 -0.202065 0)
(30.6515 -0.190975 0)
(30.4825 -0.18176 0)
(30.3079 -0.173368 0)
(30.1295 -0.166235 0)
(29.9488 -0.16067 0)
(29.7714 -0.156347 0)
(29.599 -0.152631 0)
(29.435 -0.149041 0)
(29.2795 -0.145672 0)
(29.1331 -0.142823 0)
(28.9969 -0.140428 0)
(28.8709 -0.138278 0)
(28.7543 -0.13617 0)
(28.6462 -0.133953 0)
(28.5456 -0.131678 0)
(28.4519 -0.129295 0)
(28.3648 -0.126748 0)
(28.2842 -0.124243 0)
(28.2096 -0.121873 0)
(28.1402 -0.119496 0)
(28.0758 -0.117023 0)
(28.016 -0.114535 0)
(27.9609 -0.112181 0)
(27.9099 -0.110028 0)
(27.8623 -0.108052 0)
(27.8178 -0.106143 0)
(27.7765 -0.104272 0)
(27.7382 -0.102432 0)
(27.7028 -0.100651 0)
(27.6699 -0.0990062 0)
(27.6396 -0.0975111 0)
(27.6116 -0.0960564 0)
(27.5858 -0.0945708 0)
(27.5619 -0.0930469 0)
(27.5399 -0.0915488 0)
(27.5197 -0.0901205 0)
(27.5011 -0.0887638 0)
(27.4835 -0.0874317 0)
(27.4671 -0.0861367 0)
(27.4516 -0.0848443 0)
(27.4373 -0.0835856 0)
(27.4236 -0.0823428 0)
(27.4109 -0.0811597 0)
(27.3987 -0.0799993 0)
(27.3873 -0.0788802 0)
(27.3762 -0.0777485 0)
(27.3658 -0.0766269 0)
(27.3556 -0.075493 0)
(27.3458 -0.0743914 0)
(27.3362 -0.0732945 0)
(27.327 -0.0722287 0)
(27.3179 -0.0711463 0)
(27.3091 -0.0700799 0)
(27.3002 -0.0689966 0)
(27.2917 -0.0679413 0)
(27.2832 -0.0668789 0)
(27.2749 -0.0658437 0)
(27.2666 -0.0647958 0)
(27.2585 -0.063768 0)
(27.2504 -0.0627303 0)
(27.2425 -0.0617205 0)
(27.2346 -0.0607113 0)
(27.2269 -0.0597362 0)
(27.2192 -0.0587668 0)
(27.2116 -0.0578422 0)
(27.2041 -0.0569332 0)
(27.1968 -0.0561139 0)
(27.1894 -0.0553155 0)
(27.1823 -0.0547771 0)
(27.1749 -0.0542006 0)
(27.1683 -0.0544655 0)
(27.1605 -0.0542664 0)
(27.1552 -0.0566428 0)
(27.1446 -0.0564504 0)
(40.2634 0.0673391 0)
(40.4034 0.00417032 0)
(40.4966 -0.262168 0)
(40.3657 -0.678571 0)
(39.9156 -1.11199 0)
(39.179 -1.46759 0)
(38.2538 -1.6938 0)
(37.2564 -1.77777 0)
(36.2697 -1.73977 0)
(35.3823 -1.61432 0)
(34.6111 -1.43871 0)
(33.9652 -1.2479 0)
(33.4404 -1.06629 0)
(33.0144 -0.902153 0)
(32.666 -0.758538 0)
(32.3854 -0.639259 0)
(32.1648 -0.544709 0)
(31.9867 -0.46774 0)
(31.8341 -0.401512 0)
(31.7039 -0.346558 0)
(31.6007 -0.305251 0)
(31.5202 -0.274022 0)
(31.4486 -0.246141 0)
(31.3786 -0.21971 0)
(31.3166 -0.197743 0)
(31.2661 -0.181142 0)
(31.2207 -0.167654 0)
(31.1742 -0.155209 0)
(31.1241 -0.143336 0)
(31.0695 -0.132647 0)
(31.0113 -0.124069 0)
(30.9493 -0.117755 0)
(30.882 -0.112931 0)
(30.8073 -0.108768 0)
(30.7242 -0.104879 0)
(30.633 -0.101732 0)
(30.5351 -0.0996567 0)
(30.4326 -0.0983315 0)
(30.3268 -0.0973139 0)
(30.2188 -0.0963941 0)
(30.1097 -0.095483 0)
(30.0001 -0.094569 0)
(29.893 -0.0938904 0)
(29.7899 -0.0935442 0)
(29.6912 -0.0933329 0)
(29.5965 -0.0930501 0)
(29.5059 -0.0926591 0)
(29.42 -0.0922384 0)
(29.339 -0.0918917 0)
(29.2628 -0.0915979 0)
(29.1908 -0.0912011 0)
(29.1226 -0.0906191 0)
(29.0579 -0.089907 0)
(28.9961 -0.0891137 0)
(28.9377 -0.0882761 0)
(28.8822 -0.087436 0)
(28.8297 -0.0866251 0)
(28.78 -0.0857984 0)
(28.733 -0.0849116 0)
(28.6883 -0.0839515 0)
(28.6461 -0.082972 0)
(28.6059 -0.0820505 0)
(28.5678 -0.0811888 0)
(28.5311 -0.0803017 0)
(28.4963 -0.0793766 0)
(28.4626 -0.0783947 0)
(28.4304 -0.0773931 0)
(28.3989 -0.076378 0)
(28.3686 -0.0753931 0)
(28.3387 -0.0744082 0)
(28.31 -0.0734422 0)
(28.2814 -0.0724445 0)
(28.2537 -0.0714363 0)
(28.2261 -0.0704059 0)
(28.1993 -0.0693956 0)
(28.1726 -0.0683863 0)
(28.1466 -0.0673984 0)
(28.1206 -0.066392 0)
(28.0953 -0.0653929 0)
(28.07 -0.0643777 0)
(28.0454 -0.0633895 0)
(28.0208 -0.0623968 0)
(27.9969 -0.0614272 0)
(27.973 -0.0604418 0)
(27.9498 -0.0594742 0)
(27.9265 -0.0584944 0)
(27.904 -0.0575434 0)
(27.8815 -0.0565902 0)
(27.8596 -0.0556733 0)
(27.8377 -0.0547591 0)
(27.8166 -0.0538913 0)
(27.7954 -0.0530387 0)
(27.775 -0.0522728 0)
(27.7544 -0.0515311 0)
(27.7348 -0.0510343 0)
(27.7145 -0.0505167 0)
(27.6962 -0.050783 0)
(27.6747 -0.0506786 0)
(27.6601 -0.0528896 0)
(27.6311 -0.0531149 0)
(40.2555 0.031429 0)
(40.3567 -0.0318828 0)
(40.4022 -0.258916 0)
(40.2468 -0.617321 0)
(39.8045 -0.995499 0)
(39.098 -1.30665 0)
(38.2123 -1.50463 0)
(37.2562 -1.57683 0)
(36.3007 -1.54066 0)
(35.4311 -1.4282 0)
(34.6682 -1.27284 0)
(34.0257 -1.10603 0)
(33.4986 -0.947532 0)
(33.0642 -0.802818 0)
(32.7078 -0.676341 0)
(32.426 -0.573501 0)
(32.2044 -0.491648 0)
(32.0175 -0.422192 0)
(31.855 -0.361982 0)
(31.7247 -0.314526 0)
(31.6271 -0.280125 0)
(31.5443 -0.251806 0)
(31.4636 -0.224484 0)
(31.3915 -0.200654 0)
(31.3373 -0.183277 0)
(31.2965 -0.170422 0)
(31.2592 -0.158755 0)
(31.2205 -0.146898 0)
(31.1839 -0.135778 0)
(31.1554 -0.12682 0)
(31.1348 -0.119984 0)
(31.1171 -0.114172 0)
(31.0986 -0.10844 0)
(31.0774 -0.102288 0)
(31.0571 -0.0964266 0)
(31.0394 -0.0913342 0)
(31.022 -0.087115 0)
(31.0034 -0.0836887 0)
(30.982 -0.0805275 0)
(30.9561 -0.077278 0)
(30.9256 -0.074142 0)
(30.8911 -0.071599 0)
(30.8528 -0.0699804 0)
(30.8105 -0.0690664 0)
(30.7637 -0.0683424 0)
(30.7119 -0.0675306 0)
(30.655 -0.0667436 0)
(30.5937 -0.0662397 0)
(30.529 -0.0661054 0)
(30.462 -0.0661863 0)
(30.3938 -0.0662847 0)
(30.3248 -0.0663291 0)
(30.2551 -0.0663209 0)
(30.185 -0.0663282 0)
(30.1152 -0.0664237 0)
(30.0464 -0.0666089 0)
(29.9789 -0.066862 0)
(29.9121 -0.0670773 0)
(29.8468 -0.0671959 0)
(29.7824 -0.0672131 0)
(29.7198 -0.0671488 0)
(29.6582 -0.0670215 0)
(29.5982 -0.0668189 0)
(29.5394 -0.0665387 0)
(29.4822 -0.0661772 0)
(29.4259 -0.0657148 0)
(29.3712 -0.0651635 0)
(29.317 -0.0645386 0)
(29.2643 -0.0638884 0)
(29.2119 -0.0631954 0)
(29.161 -0.0624832 0)
(29.1102 -0.0617063 0)
(29.0609 -0.0608913 0)
(29.0117 -0.0600353 0)
(28.9639 -0.0591839 0)
(28.9162 -0.0583218 0)
(28.8699 -0.0574745 0)
(28.8236 -0.0566015 0)
(28.7787 -0.0557324 0)
(28.7339 -0.0548484 0)
(28.6904 -0.0539671 0)
(28.647 -0.0530778 0)
(28.6049 -0.0522198 0)
(28.5629 -0.051357 0)
(28.5223 -0.0505158 0)
(28.4817 -0.0496693 0)
(28.4426 -0.0488527 0)
(28.4035 -0.0480371 0)
(28.3658 -0.0472579 0)
(28.3282 -0.0464833 0)
(28.292 -0.0457543 0)
(28.2558 -0.0450433 0)
(28.2211 -0.0444114 0)
(28.1862 -0.0438114 0)
(28.1531 -0.0434226 0)
(28.119 -0.0430503 0)
(28.0883 -0.0433171 0)
(28.0523 -0.0434261 0)
(28.0279 -0.0452808 0)
(27.9796 -0.0464644 0)
(40.2478 0.00636938 0)
(40.3189 -0.0529349 0)
(40.3277 -0.234956 0)
(40.154 -0.518804 0)
(39.7188 -0.818105 0)
(39.0361 -1.062 0)
(38.1812 -1.21591 0)
(37.2551 -1.27228 0)
(36.3247 -1.24554 0)
(35.4687 -1.16022 0)
(34.7149 -1.04171 0)
(34.0771 -0.913249 0)
(33.5448 -0.788023 0)
(33.1015 -0.671724 0)
(32.7417 -0.57065 0)
(32.4589 -0.489189 0)
(32.2286 -0.422382 0)
(32.0276 -0.363137 0)
(31.8598 -0.313448 0)
(31.7353 -0.277752 0)
(31.6364 -0.250762 0)
(31.5401 -0.224794 0)
(31.4509 -0.200567 0)
(31.3831 -0.182498 0)
(31.3338 -0.170111 0)
(31.2893 -0.159124 0)
(31.2425 -0.147105 0)
(31.1979 -0.135654 0)
(31.1636 -0.126928 0)
(31.1386 -0.12048 0)
(31.117 -0.114743 0)
(31.0946 -0.108633 0)
(31.0701 -0.102161 0)
(31.0495 -0.0967528 0)
(31.0343 -0.0925431 0)
(31.0225 -0.0890218 0)
(31.0113 -0.0858065 0)
(30.999 -0.0826457 0)
(30.9856 -0.0794351 0)
(30.9743 -0.0764406 0)
(30.9654 -0.0736417 0)
(30.9574 -0.0711773 0)
(30.949 -0.0692025 0)
(30.9395 -0.0674615 0)
(30.9285 -0.0655508 0)
(30.9164 -0.0633825 0)
(30.9035 -0.0611834 0)
(30.8896 -0.0592494 0)
(30.8737 -0.0577084 0)
(30.8552 -0.0564727 0)
(30.8332 -0.0553434 0)
(30.8074 -0.0542017 0)
(30.778 -0.0530397 0)
(30.7451 -0.0519876 0)
(30.7085 -0.0511684 0)
(30.668 -0.0505797 0)
(30.6234 -0.0500539 0)
(30.5746 -0.049542 0)
(30.5219 -0.049036 0)
(30.4656 -0.0485639 0)
(30.4063 -0.0481238 0)
(30.3442 -0.0477151 0)
(30.2797 -0.047357 0)
(30.213 -0.0470434 0)
(30.1445 -0.046729 0)
(30.0747 -0.0463761 0)
(30.0041 -0.0459686 0)
(29.9329 -0.04553 0)
(29.8616 -0.0450796 0)
(29.7901 -0.0446232 0)
(29.7191 -0.0441575 0)
(29.648 -0.0436566 0)
(29.5782 -0.0431277 0)
(29.5085 -0.0425653 0)
(29.4403 -0.0420035 0)
(29.3723 -0.0414286 0)
(29.306 -0.0408714 0)
(29.24 -0.0402897 0)
(29.1758 -0.0397114 0)
(29.112 -0.0391128 0)
(29.05 -0.0385512 0)
(28.9885 -0.0379905 0)
(28.929 -0.0374401 0)
(28.8699 -0.0368805 0)
(28.8129 -0.0363304 0)
(28.7563 -0.0357775 0)
(28.7019 -0.035247 0)
(28.6477 -0.0347221 0)
(28.5959 -0.034226 0)
(28.5442 -0.0337377 0)
(28.495 -0.0332867 0)
(28.4457 -0.0328532 0)
(28.3989 -0.0324834 0)
(28.3518 -0.0321522 0)
(28.3075 -0.0319752 0)
(28.2617 -0.0318703 0)
(28.2208 -0.0321652 0)
(28.1729 -0.0326447 0)
(28.1403 -0.0339061 0)
(28.076 -0.0366338 0)
(40.2419 -0.0161657 0)
(40.2904 -0.0671901 0)
(40.2717 -0.206836 0)
(40.0832 -0.423797 0)
(39.6529 -0.656247 0)
(38.9885 -0.849199 0)
(38.1576 -0.975696 0)
(37.2545 -1.02818 0)
(36.3428 -1.01543 0)
(35.4964 -0.954452 0)
(34.7463 -0.864739 0)
(34.104 -0.764866 0)
(33.558 -0.664121 0)
(33.1013 -0.569894 0)
(32.7384 -0.490878 0)
(32.4475 -0.425867 0)
(32.1947 -0.367696 0)
(31.9807 -0.317205 0)
(31.818 -0.279233 0)
(31.6885 -0.250656 0)
(31.5661 -0.224448 0)
(31.4534 -0.2 0)
(31.3646 -0.181134 0)
(31.2958 -0.167907 0)
(31.2315 -0.156675 0)
(31.1655 -0.144836 0)
(31.1046 -0.133538 0)
(31.0549 -0.124953 0)
(31.0132 -0.118819 0)
(30.9732 -0.113261 0)
(30.9314 -0.107114 0)
(30.8891 -0.100848 0)
(30.8516 -0.0957538 0)
(30.8182 -0.0919761 0)
(30.7862 -0.0886991 0)
(30.7537 -0.0851478 0)
(30.7195 -0.081311 0)
(30.685 -0.0777624 0)
(30.6521 -0.0748689 0)
(30.62 -0.072379 0)
(30.588 -0.0698374 0)
(30.5555 -0.0672253 0)
(30.5218 -0.0647804 0)
(30.487 -0.0625705 0)
(30.4516 -0.0604874 0)
(30.4161 -0.0584556 0)
(30.3805 -0.0564932 0)
(30.3444 -0.054668 0)
(30.3077 -0.0529747 0)
(30.2699 -0.0513222 0)
(30.2311 -0.0496078 0)
(30.1917 -0.0478307 0)
(30.152 -0.0460479 0)
(30.112 -0.044337 0)
(30.0716 -0.0427107 0)
(30.0305 -0.0411004 0)
(29.9884 -0.0394358 0)
(29.9453 -0.037748 0)
(29.9013 -0.0361108 0)
(29.8566 -0.0345667 0)
(29.8109 -0.0330981 0)
(29.7642 -0.031681 0)
(29.7162 -0.0303307 0)
(29.6667 -0.0290612 0)
(29.6158 -0.0278749 0)
(29.5635 -0.0267682 0)
(29.5101 -0.0257391 0)
(29.4554 -0.024795 0)
(29.3996 -0.0239263 0)
(29.3426 -0.023149 0)
(29.2848 -0.0224525 0)
(29.226 -0.0218266 0)
(29.1667 -0.0212611 0)
(29.107 -0.0207484 0)
(29.047 -0.0202916 0)
(28.9868 -0.0198825 0)
(28.9267 -0.019526 0)
(28.8665 -0.0192033 0)
(28.8071 -0.0189155 0)
(28.7476 -0.0186506 0)
(28.6893 -0.0184125 0)
(28.6309 -0.0181988 0)
(28.5741 -0.0180173 0)
(28.5173 -0.0178612 0)
(28.4623 -0.0177258 0)
(28.4074 -0.0176087 0)
(28.3544 -0.0175114 0)
(28.3016 -0.0174331 0)
(28.2508 -0.0173724 0)
(28.2001 -0.0173264 0)
(28.1515 -0.0172984 0)
(28.1029 -0.0172856 0)
(28.0564 -0.0173062 0)
(28.0097 -0.0173678 0)
(27.9654 -0.0175025 0)
(27.9196 -0.0177728 0)
(27.8784 -0.0181378 0)
(27.8297 -0.0191006 0)
(27.7968 -0.019614 0)
(27.7301 -0.024158 0)
(40.2386 -0.030009 0)
(40.2709 -0.0704533 0)
(40.2318 -0.171527 0)
(40.0308 -0.327113 0)
(39.6008 -0.494847 0)
(38.9444 -0.634494 0)
(38.1222 -0.726386 0)
(37.2227 -0.765168 0)
(36.3078 -0.757502 0)
(35.4496 -0.716984 0)
(34.6857 -0.65662 0)
(34.0133 -0.585918 0)
(33.4357 -0.513487 0)
(32.9619 -0.448062 0)
(32.5693 -0.391559 0)
(32.2302 -0.341205 0)
(31.9411 -0.296868 0)
(31.7068 -0.261136 0)
(31.508 -0.232991 0)
(31.326 -0.208946 0)
(31.1605 -0.187313 0)
(31.0191 -0.169479 0)
(30.8951 -0.155856 0)
(30.7769 -0.14475 0)
(30.6622 -0.134191 0)
(30.5558 -0.124028 0)
(30.4589 -0.115355 0)
(30.3672 -0.108594 0)
(30.2763 -0.102911 0)
(30.186 -0.0971131 0)
(30.099 -0.0910526 0)
(30.0161 -0.0855983 0)
(29.9354 -0.0812488 0)
(29.8551 -0.0776405 0)
(29.7747 -0.0740768 0)
(29.6953 -0.0701846 0)
(29.6177 -0.0663223 0)
(29.5418 -0.0630755 0)
(29.4664 -0.0604183 0)
(29.3914 -0.0579258 0)
(29.3169 -0.0552742 0)
(29.2436 -0.0525452 0)
(29.1715 -0.0500333 0)
(29.1003 -0.0478784 0)
(29.0299 -0.0459358 0)
(28.9605 -0.0440113 0)
(28.8922 -0.0420458 0)
(28.8252 -0.0401226 0)
(28.7592 -0.038307 0)
(28.6945 -0.0366 0)
(28.6309 -0.0349669 0)
(28.5688 -0.0334064 0)
(28.5081 -0.0319104 0)
(28.4489 -0.0304853 0)
(28.391 -0.0291165 0)
(28.3346 -0.0277843 0)
(28.2796 -0.0264599 0)
(28.2265 -0.0251827 0)
(28.1748 -0.0239792 0)
(28.1249 -0.0228517 0)
(28.0763 -0.0217388 0)
(28.0296 -0.0206156 0)
(27.9842 -0.0194887 0)
(27.9406 -0.0184008 0)
(27.8981 -0.0173586 0)
(27.8574 -0.0163677 0)
(27.8178 -0.0154051 0)
(27.7796 -0.0144749 0)
(27.7423 -0.0135679 0)
(27.7063 -0.012711 0)
(27.671 -0.0119273 0)
(27.6368 -0.0112065 0)
(27.6031 -0.0105291 0)
(27.5703 -0.00989851 0)
(27.5379 -0.00932075 0)
(27.5061 -0.00880722 0)
(27.4747 -0.00835457 0)
(27.4436 -0.00797145 0)
(27.4129 -0.00764364 0)
(27.3824 -0.00736871 0)
(27.3522 -0.00714286 0)
(27.322 -0.0069635 0)
(27.2921 -0.00683088 0)
(27.2621 -0.00674183 0)
(27.2323 -0.00668961 0)
(27.2025 -0.00667119 0)
(27.1727 -0.00668389 0)
(27.1429 -0.00672867 0)
(27.1132 -0.00679831 0)
(27.0834 -0.00689313 0)
(27.0537 -0.00700761 0)
(27.024 -0.00714426 0)
(26.9945 -0.00730726 0)
(26.9647 -0.00751245 0)
(26.9355 -0.0077281 0)
(26.9049 -0.00811342 0)
(26.8769 -0.00835681 0)
(26.8424 -0.00948537 0)
(26.8199 -0.00918242 0)
(26.7695 -0.0145937 0)
(40.2229 -0.0441214 0)
(40.2345 -0.0683461 0)
(40.1702 -0.129278 0)
(39.943 -0.223499 0)
(39.4859 -0.326545 0)
(38.7965 -0.413766 0)
(37.9306 -0.47262 0)
(36.9719 -0.498752 0)
(35.9898 -0.495999 0)
(35.0477 -0.472257 0)
(34.1792 -0.434072 0)
(33.4015 -0.388586 0)
(32.7244 -0.342968 0)
(32.138 -0.301114 0)
(31.6257 -0.263474 0)
(31.1817 -0.230271 0)
(30.7981 -0.20221 0)
(30.4632 -0.17919 0)
(30.1613 -0.159601 0)
(29.8885 -0.142595 0)
(29.6412 -0.127987 0)
(29.4179 -0.11612 0)
(29.2118 -0.106185 0)
(29.0179 -0.0973059 0)
(28.8368 -0.0894019 0)
(28.6681 -0.0824784 0)
(28.5101 -0.076323 0)
(28.3596 -0.0707121 0)
(28.2154 -0.0655637 0)
(28.0776 -0.0607809 0)
(27.9468 -0.0563034 0)
(27.8223 -0.0521657 0)
(27.703 -0.0484039 0)
(27.5879 -0.0449449 0)
(27.477 -0.0416852 0)
(27.3706 -0.0385544 0)
(27.269 -0.0356093 0)
(27.1717 -0.0329592 0)
(27.0778 -0.0305403 0)
(26.9873 -0.0282514 0)
(26.9002 -0.0260328 0)
(26.8168 -0.0239323 0)
(26.7368 -0.0220277 0)
(26.66 -0.020325 0)
(26.5858 -0.0187333 0)
(26.5146 -0.0171939 0)
(26.446 -0.0157171 0)
(26.3804 -0.0143614 0)
(26.3172 -0.013143 0)
(26.2567 -0.0120353 0)
(26.1983 -0.0109869 0)
(26.1426 -0.00998743 0)
(26.0889 -0.00904226 0)
(26.0377 -0.00816777 0)
(25.9883 -0.00736505 0)
(25.9414 -0.00661939 0)
(25.8962 -0.00589917 0)
(25.8534 -0.00520676 0)
(25.8123 -0.00455613 0)
(25.7735 -0.00395476 0)
(25.7361 -0.00338149 0)
(25.701 -0.00282899 0)
(25.6674 -0.00230156 0)
(25.6359 -0.0018142 0)
(25.6058 -0.00136339 0)
(25.5776 -0.000943685 0)
(25.5507 -0.000542735 0)
(25.5255 -0.000161004 0)
(25.5015 0.000198747 0)
(25.4791 0.000528846 0)
(25.4577 0.000841315 0)
(25.4376 0.00107313 0)
(25.4184 0.00127104 0)
(25.4002 0.00145232 0)
(25.3827 0.00162776 0)
(25.3662 0.00178084 0)
(25.35 0.00192077 0)
(25.3347 0.00203346 0)
(25.3196 0.00213336 0)
(25.3052 0.00222159 0)
(25.291 0.00229858 0)
(25.2772 0.00235258 0)
(25.2636 0.00239746 0)
(25.2503 0.00243827 0)
(25.2371 0.00247356 0)
(25.224 0.00250371 0)
(25.211 0.00252574 0)
(25.1981 0.00253919 0)
(25.185 0.00253992 0)
(25.172 0.00253255 0)
(25.1588 0.00251203 0)
(25.1455 0.00247949 0)
(25.1321 0.00242683 0)
(25.1184 0.00231795 0)
(25.1048 0.00222383 0)
(25.0899 0.00194245 0)
(25.0767 0.00194528 0)
(25.0582 0.000987019 0)
(25.0479 0.00151903 0)
(25.0178 -0.00294824 0)
(39.1402 -0.0539802 0)
(38.9464 -0.0675466 0)
(38.6586 -0.0934487 0)
(38.1914 -0.131021 0)
(37.4774 -0.172078 0)
(36.5128 -0.207811 0)
(35.3544 -0.233304 0)
(34.0901 -0.246377 0)
(32.7978 -0.247997 0)
(31.541 -0.240251 0)
(30.3739 -0.225375 0)
(29.3098 -0.206483 0)
(28.3627 -0.186488 0)
(27.5261 -0.1665 0)
(26.7952 -0.147289 0)
(26.154 -0.129808 0)
(25.5941 -0.114577 0)
(25.0994 -0.100886 0)
(24.6657 -0.0884191 0)
(24.2807 -0.0774169 0)
(23.941 -0.0683551 0)
(23.6348 -0.0609752 0)
(23.3581 -0.0544406 0)
(23.1081 -0.0488052 0)
(22.8797 -0.0442803 0)
(22.6706 -0.0404316 0)
(22.479 -0.0367308 0)
(22.3043 -0.0332894 0)
(22.1435 -0.0304435 0)
(21.9955 -0.0281035 0)
(21.8589 -0.0258859 0)
(21.7339 -0.0236758 0)
(21.6193 -0.0216891 0)
(21.5139 -0.020085 0)
(21.4163 -0.0187596 0)
(21.3263 -0.0174943 0)
(21.2437 -0.0162249 0)
(21.1681 -0.0150733 0)
(21.0984 -0.0141238 0)
(21.0341 -0.0133412 0)
(20.9747 -0.0126104 0)
(20.9203 -0.0118788 0)
(20.8704 -0.0111861 0)
(20.8247 -0.0105959 0)
(20.7824 -0.0101018 0)
(20.7437 -0.00965652 0)
(20.708 -0.0092205 0)
(20.6755 -0.0087988 0)
(20.6456 -0.00840618 0)
(20.6185 -0.00804901 0)
(20.5934 -0.00771549 0)
(20.5708 -0.00740648 0)
(20.55 -0.00711565 0)
(20.5313 -0.00684197 0)
(20.5142 -0.00658128 0)
(20.4989 -0.00633641 0)
(20.4848 -0.00609997 0)
(20.4725 -0.00588356 0)
(20.4613 -0.00569039 0)
(20.4515 -0.00552272 0)
(20.4427 -0.00535921 0)
(20.4352 -0.00519625 0)
(20.4284 -0.00502675 0)
(20.423 -0.00486711 0)
(20.4182 -0.00470481 0)
(20.4146 -0.00454838 0)
(20.4115 -0.00436916 0)
(20.4095 -0.0041871 0)
(20.408 -0.00396568 0)
(20.4076 -0.00370656 0)
(20.4077 -0.00352688 0)
(20.4085 -0.00334808 0)
(20.4099 -0.00319541 0)
(20.4119 -0.00305185 0)
(20.4145 -0.00291013 0)
(20.4176 -0.00277473 0)
(20.4213 -0.00264626 0)
(20.4253 -0.00253804 0)
(20.4297 -0.0024416 0)
(20.4344 -0.00235815 0)
(20.4394 -0.00228974 0)
(20.4446 -0.00226222 0)
(20.45 -0.00225333 0)
(20.4555 -0.0022553 0)
(20.4611 -0.00226453 0)
(20.4668 -0.00227908 0)
(20.4724 -0.00229626 0)
(20.4781 -0.00231474 0)
(20.4837 -0.00233708 0)
(20.4892 -0.00235736 0)
(20.4947 -0.00238241 0)
(20.4999 -0.00240498 0)
(20.5052 -0.00243503 0)
(20.5097 -0.00249623 0)
(20.5146 -0.00254008 0)
(20.518 -0.00268057 0)
(20.5227 -0.00262425 0)
(20.524 -0.00322313 0)
(20.5277 -0.00208134 0)
(20.5227 -0.00798313 0)
(1.95437 0.421238 0)
(1.64907 2.05102 0)
(0.910905 2.40128 0)
(0.110915 2.5677 0)
(-0.665574 2.43237 0)
(-1.46651 1.98152 0)
(-2.15367 1.28401 0)
(-2.51272 0.770952 0)
(10.5778 0.318084 0)
(4.36564 1.81697 0)
(1.74411 2.17481 0)
(-0.155017 2.21102 0)
(-2.00006 2.04563 0)
(-3.87731 1.69172 0)
(-5.71493 1.11972 0)
(-6.92409 0.530807 0)
(16.8868 -0.371863 0)
(7.91511 0.751522 0)
(2.86677 1.2142 0)
(-0.390801 1.32793 0)
(-2.9925 1.24932 0)
(-5.40338 1.0588 0)
(-7.85091 0.753711 0)
(-9.97521 0.288393 0)
(20.5479 -1.17077 0)
(11.239 -0.438564 0)
(4.58037 0.073495 0)
(0.166287 0.312112 0)
(-3.14767 0.39339 0)
(-6.02669 0.379205 0)
(-8.77042 0.303336 0)
(-11.4791 0.0760387 0)
(22.4346 -1.81035 0)
(13.5547 -1.3272 0)
(6.44274 -0.873384 0)
(1.28496 -0.548986 0)
(-2.61863 -0.328243 0)
(-5.86405 -0.179407 0)
(-8.80813 -0.064666 0)
(-11.7951 -0.0515932 0)
(23.6383 -2.31559 0)
(15.4317 -1.97616 0)
(8.25978 -1.57569 0)
(2.74329 -1.21556 0)
(-1.47203 -0.90472 0)
(-4.91752 -0.630895 0)
(-7.98475 -0.380775 0)
(-11.1055 -0.205934 0)
(24.3329 -2.60594 0)
(16.9013 -2.37076 0)
(10.0266 -2.03617 0)
(4.4423 -1.67069 0)
(0.115674 -1.30549 0)
(-3.37698 -0.9467 0)
(-6.43093 -0.597702 0)
(-9.51231 -0.30716 0)
(24.7683 -2.67804 0)
(17.9672 -2.50947 0)
(11.5151 -2.23413 0)
(6.15521 -1.89319 0)
(1.91903 -1.51315 0)
(-1.5104 -1.11241 0)
(-4.48997 -0.712724 0)
(-7.52817 -0.358457 0)
(25.0645 -2.58797 0)
(18.834 -2.46089 0)
(12.8345 -2.23078 0)
(7.79367 -1.91905 0)
(3.76289 -1.55066 0)
(0.479102 -1.14688 0)
(-2.37462 -0.740275 0)
(-5.32874 -0.369164 0)
(25.2508 -2.38129 0)
(19.5302 -2.2872 0)
(13.9917 -2.09723 0)
(9.31684 -1.82121 0)
(5.53746 -1.4804 0)
(2.42565 -1.09682 0)
(-0.297126 -0.708823 0)
(-3.17836 -0.35364 0)
(25.3306 -2.11415 0)
(20.0612 -2.05196 0)
(14.9679 -1.89764 0)
(10.6755 -1.65956 0)
(7.16917 -1.3544 0)
(4.24244 -1.00529 0)
(1.65862 -0.650668 0)
(-1.14548 -0.325784 0)
(25.313 -1.83515 0)
(20.4569 -1.79906 0)
(15.8047 -1.67511 0)
(11.8634 -1.47225 0)
(8.60669 -1.2035 0)
(5.86501 -0.895315 0)
(3.4168 -0.58046 0)
(0.69722 -0.291701 0)
(25.2212 -1.57341 0)
(20.7373 -1.55745 0)
(16.5019 -1.45863 0)
(12.8898 -1.28593 0)
(9.86445 -1.05193 0)
(7.29278 -0.782465 0)
(4.96271 -0.50468 0)
(2.3088 -0.250296 0)
(25.0837 -1.34507 0)
(20.9386 -1.34154 0)
(17.0852 -1.26287 0)
(13.7722 -1.11623 0)
(10.9565 -0.913552 0)
(8.53836 -0.67946 0)
(6.31424 -0.436091 0)
(3.71787 -0.214331 0)
(24.9178 -1.1513 0)
(21.0783 -1.1556 0)
(17.5722 -1.09218 0)
(14.5313 -0.967351 0)
(11.9029 -0.793023 0)
(9.62012 -0.590354 0)
(7.48737 -0.377552 0)
(4.93606 -0.184541 0)
(24.7434 -0.990539 0)
(21.1867 -0.99695 0)
(17.9787 -0.945263 0)
(15.1718 -0.838411 0)
(12.7163 -0.689735 0)
(10.5577 -0.514643 0)
(8.50784 -0.327827 0)
(5.99441 -0.161583 0)
(24.5798 -0.860748 0)
(21.2809 -0.866033 0)
(18.3233 -0.821645 0)
(15.7146 -0.729469 0)
(13.4158 -0.601979 0)
(11.3715 -0.449979 0)
(9.39991 -0.283914 0)
(6.91579 -0.145632 0)
(24.4339 -0.756218 0)
(21.3679 -0.75984 0)
(18.6239 -0.719786 0)
(16.1849 -0.639143 0)
(14.0234 -0.528223 0)
(12.0818 -0.395107 0)
(10.1861 -0.246911 0)
(7.71748 -0.131336 0)
(24.3069 -0.670193 0)
(21.4509 -0.672158 0)
(18.8911 -0.635448 0)
(16.5986 -0.563886 0)
(14.5564 -0.466162 0)
(12.7058 -0.348749 0)
(10.8781 -0.217197 0)
(8.42412 -0.116088 0)
(24.198 -0.598005 0)
(21.5305 -0.598704 0)
(19.1312 -0.564744 0)
(16.9662 -0.500644 0)
(15.0281 -0.413705 0)
(13.2576 -0.309365 0)
(11.4896 -0.19247 0)
(9.04839 -0.102255 0)
(24.1076 -0.538164 0)
(21.608 -0.538048 0)
(19.3489 -0.506186 0)
(17.2966 -0.448459 0)
(15.4499 -0.370338 0)
(13.7496 -0.276675 0)
(12.0338 -0.171961 0)
(9.60299 -0.0906586 0)
(24.0334 -0.489241 0)
(21.6838 -0.488412 0)
(19.5458 -0.458511 0)
(17.596 -0.406053 0)
(15.8312 -0.335127 0)
(14.1932 -0.250145 0)
(12.5235 -0.155318 0)
(10.1008 -0.0812791 0)
(23.9718 -0.448426 0)
(21.7576 -0.446731 0)
(19.7274 -0.41864 0)
(17.8699 -0.370454 0)
(16.1788 -0.305551 0)
(14.5971 -0.227888 0)
(12.9684 -0.141337 0)
(10.5522 -0.0734612 0)
(23.9209 -0.412419 0)
(21.8295 -0.409826 0)
(19.8963 -0.383563 0)
(18.1218 -0.339141 0)
(16.4975 -0.279556 0)
(14.9666 -0.208341 0)
(13.3746 -0.129017 0)
(10.9635 -0.0666801 0)
(23.8798 -0.38051 0)
(21.8978 -0.377227 0)
(20.0524 -0.352513 0)
(18.3534 -0.311405 0)
(16.7899 -0.256533 0)
(15.3054 -0.191035 0)
(13.7466 -0.118094 0)
(11.3392 -0.0607945 0)
(23.8481 -0.35338 0)
(21.9654 -0.348891 0)
(20.1992 -0.325844 0)
(18.5684 -0.28758 0)
(17.0599 -0.236689 0)