/*--------------------------------*- C++ -*----------------------------------*\
| =========                 |                                                 |
| \\      /  F ield         | OpenFOAM: The Open Source CFD Toolbox           |
|  \\    /   O peration     | Version:  v2012                                 |
|   \\  /    A nd           | Website:  www.openfoam.com                      |
|    \\/     M anipulation  |                                                 |
\*---------------------------------------------------------------------------*/
FoamFile
{
    version     2.0;
    format      ascii;
    class       volScalarField;
    location    "0.274";
    object      omega.air;
}
// * * * * * * * * * * * * * * * * * * * * * * * * * * * * * * * * * * * * * //

dimensions      [0 0 -1 0 0 0 0];


internalField   nonuniform List<scalar> 
5600
(
6586.2
7485.62
7886.63
7965.29
7866.31
7687.56
7480.92
7290.03
7125.34
6987.67
6879.05
6796.1
6736.54
6693.17
6664.01
6642.06
6627.35
6614.62
6605.47
6596.33
6589.68
6582.55
6577.93
6573
6570.57
6567.53
6566.39
6564.64
6564.04
6562.81
6562.08
6560.64
6559.57
6557.68
6556.48
6554.29
6553.08
6550.79
6549.61
6547.42
6546.31
6544.34
6543.43
6541.69
6541.07
6539.59
6539.27
6538
6537.92
6536.76
6536.9
6535.88
6536.2
6535.31
6535.86
6535.09
6535.91
6535.27
6536.34
6535.88
6537.22
6536.85
6538.48
6538.18
6540.09
6539.84
6542.02
6541.81
6544.28
6544.07
6546.86
6546.61
6549.75
6549.43
6552.94
6552.53
6556.42
6555.9
6560.13
6559.51
6564.01
6563.4
6567.92
6567.61
6571.71
6572.31
6575.04
6578
6577.2
6585.89
6576.73
6598.41
6569.25
6622.69
6540.8
6683.25
6440.9
6867.76
6039.59
7488.42
2450.57
2296.5
2571.55
2795.12
2928.02
2998.28
3009.99
2968.41
2968.9
3017.44
3073.29
3119.2
3146.9
3158.67
3154.64
3140.63
3118.11
3091.33
3062.04
3032.57
3003.21
2973.96
2945.05
2916.52
2889.25
2863.3
2839.66
2817.52
2797.52
2778.67
2761.89
2745.98
2732.05
2718.68
2707.18
2695.98
2686.37
2677.02
2668.95
2661.1
2654.28
2647.66
2641.89
2636.28
2631.29
2626.31
2621.9
2617.39
2613.48
2609.54
2606.05
2602.57
2599.54
2596.5
2593.88
2591.24
2588.99
2586.7
2584.8
2582.73
2581.12
2579.33
2577.94
2576.38
2575.19
2573.83
2572.79
2571.63
2570.71
2569.77
2568.98
2568.19
2567.52
2566.89
2566.35
2565.86
2565.42
2565.06
2564.68
2564.45
2564.07
2564.03
2563.57
2563.84
2563.16
2563.98
2562.68
2564.66
2561.82
2566.32
2559.44
2570.71
2552.94
2582.27
2534.9
2614.4
2478.75
2714.87
2280.16
3065.67
2358.55
1859.91
1592.13
1427.84
1345.94
1274.06
1279.73
1309.33
1351.75
1412.67
1482.04
1549.81
1610.85
1664.14
1704.64
1733.54
1748.95
1752.55
1744.16
1726.5
1702.28
1676.81
1653.56
1634.94
1619.47
1605.81
1593.23
1581.81
1571.21
1561.03
1551.14
1540.96
1531.31
1521.66
1512.9
1504.17
1496.4
1488.68
1481.88
1475.16
1469.22
1463.35
1458.13
1452.87
1448.28
1443.64
1439.61
1435.48
1431.93
1428.3
1425.17
1421.96
1419.24
1416.42
1414.06
1411.57
1409.54
1407.32
1405.54
1403.53
1401.98
1400.15
1398.78
1397.1
1395.91
1394.35
1393.32
1391.89
1391
1389.71
1388.94
1387.8
1387.12
1386.11
1385.52
1384.63
1384.09
1383.32
1382.76
1382.2
1381.5
1381.28
1380.25
1380.65
1378.91
1380.49
1377.25
1381.11
1374.76
1383.17
1370.41
1388.24
1361.9
1399.88
1343.87
1425.55
1305.18
1478.12
1229.82
1555.43
2345.16
1822.38
1493.21
1267.68
1111.11
992.685
906.761
847.081
802.428
777.004
760.11
769.581
791.432
824.205
860.77
902.381
941.157
978.788
1011.11
1039.77
1061.25
1079.28
1091.51
1101.04
1105.69
1107.15
1103.65
1097.05
1087.69
1077.98
1068.48
1060.7
1053.92
1048.06
1042.5
1037.34
1032.5
1027.84
1023.56
1019.23
1015.12
1010.64
1006.17
1001.44
996.997
992.449
988.337
984.164
980.464
976.722
973.434
970.111
967.213
964.263
961.698
958.997
956.652
954.141
951.977
949.621
947.631
945.427
943.609
941.548
939.898
937.983
936.496
934.725
933.397
931.762
930.575
929.094
928.012
926.658
925.641
924.411
923.426
922.396
921.38
920.62
919.421
919.097
917.482
917.9
915.466
917.163
913.195
917.099
910.342
918.078
906.389
920.738
900.572
926.072
891.913
934.412
880.942
941.857
875.598
926.341
2341.96
1815.99
1479.8
1247.95
1079.69
952.596
853.163
774.646
710.607
658.926
616.083
581.931
556.221
536.147
523.581
514.801
513.745
521.028
532.155
549.421
568.387
592.073
616.005
642.226
667.135
692.01
713.984
733.171
748.31
760.848
769.723
777.509
782.062
786.167
787.181
787.798
785.847
783.526
779.56
775.767
771.234
767.624
764.166
761.341
758.4
755.729
753.025
750.44
747.957
745.56
743.326
741.135
739.056
736.953
734.801
732.42
730.113
727.668
725.382
722.975
720.785
718.48
716.425
714.245
712.337
710.311
708.568
706.7
705.104
703.37
701.898
700.261
698.851
697.3
695.91
694.474
693.066
691.805
690.342
689.351
687.735
687.146
685.211
685.234
682.711
683.691
680.162
682.578
677.458
681.954
674.502
681.834
671.362
682.008
668.554
681.363
667.743
677.07
671.89
664.882
2341.12
1814.14
1476.74
1243.9
1074.16
945.327
844.341
763.112
696.634
640.952
594.285
553.899
519.81
489.74
464.245
441.865
422.601
407.019
393.426
383.56
375.192
370.368
367.433
368.757
373.338
381.072
391.582
405.279
419.931
437.931
454.382
474.087
490.711
509.489
524.54
540.257
552.364
564.023
572.461
580.411
585.53
590.774
593.829
597.372
598.911
600.772
600.95
601.277
600.192
599.305
597.289
595.621
593.208
591.217
589.08
587.471
585.72
584.271
582.693
581.287
579.817
578.421
577.057
575.688
574.447
573.146
572.015
570.787
569.684
568.479
567.288
565.903
564.579
563.163
561.764
560.407
558.939
557.69
556.128
555.074
553.384
552.622
550.732
550.363
548.162
548.316
545.676
546.489
543.283
544.826
541.005
543.2
538.952
541.391
537.38
539.025
536.605
535.836
536.034
532.45
2340.86
1813.44
1475.75
1242.6
1072.63
943.409
842.176
760.49
693.657
637.416
590.169
549.098
513.999
482.789
455.666
431.343
409.743
390.416
373.012
357.339
343.455
330.487
319.641
309.111
300.971
293.151
287.17
282.5
278.56
277.241
276.187
278.694
281.614
287.288
294.177
302.792
312.721
324.038
335.478
348.642
360.325
374.178
385.422
398.45
408.875
420.25
429.247
438.687
445.634
452.927
457.769
462.985
466.081
469.47
471.434
473.837
475.089
476.679
477.281
478.191
478.236
478.484
478.021
477.681
476.846
476.06
474.953
473.859
472.722
471.555
470.536
469.555
468.666
467.784
466.919
466.115
465.212
464.473
463.476
462.835
461.715
461.234
459.978
459.689
458.261
458.167
456.545
456.644
454.842
455.08
453.133
453.393
451.346
451.472
449.42
449.36
447.348
447.288
444.573
445.336
2340.75
1813.12
1475.34
1242.05
1072.03
942.68
841.41
759.599
692.705
636.356
588.995
547.834
512.568
481.217
453.929
429.277
407.571
387.62
370.077
353.47
339.16
325.06
313.202
301.207
291.12
281.035
272.26
263.845
256.286
249.098
243.046
236.643
232.412
226.712
224.128
219.683
218.229
215.801
215.231
215.31
216.455
218.518
221.907
225.665
231.299
236.89
244.096
251.622
259.79
268.63
277.337
286.721
295.693
304.878
313.426
322.043
329.871
337.663
344.488
351.292
357.139
362.754
367.491
371.819
375.512
378.696
381.37
383.457
385.353
386.685
388.098
388.997
390.052
390.611
391.334
391.628
392.026
392.062
392.118
391.944
391.641
391.324
390.705
390.304
389.384
388.926
387.698
387.227
385.774
385.323
383.713
383.286
381.465
381.094
379.05
378.718
376.415
376.261
373.404
373.423
2340.71
1812.96
1475.13
1241.78
1071.75
942.352
841.057
759.228
692.281
635.952
588.498
547.385
512.016
480.685
453.351
428.622
406.96
386.847
369.352
352.625
338.196
324.139
311.933
300.06
289.548
279.372
270.338
261.338
253.745
245.482
239.264
231.544
226.427
219.387
214.923
208.786
204.707
199.418
195.886
191.047
188.5
183.822
182.327
178.007
177.265
173.791
173.576
171.078
171.617
170.191
171.876
171.377
174.306
175.029
179.055
181.06
186.082
189.402
195.361
199.706
206.425
211.611
218.883
224.562
232.02
237.998
245.398
251.304
258.322
263.832
270.323
275.324
281.123
285.583
290.633
294.541
298.832
302.121
305.602
308.296
310.952
313.032
314.907
316.46
317.597
318.682
319.087
319.747
319.576
319.93
319.348
319.521
318.539
318.611
317.263
317.072
315.403
315.034
313.05
312.338
2340.69
1812.89
1475.03
1241.67
1071.6
942.226
840.873
759.096
692.062
635.813
588.253
547.226
511.761
480.493
453.09
428.403
406.67
386.633
368.996
352.439
337.767
323.953
311.476
299.805
289.108
279.008
269.897
260.89
253.204
245.021
238.481
231.105
225.325
218.839
213.536
207.856
203.049
197.851
193.737
188.726
185.33
180.539
177.59
173.243
170.491
166.635
164.161
160.543
158.54
155.072
153.546
150.296
149.095
146.24
145.372
142.852
142.376
140.211
140.257
138.504
138.952
137.74
138.664
138.231
139.628
139.83
141.777
142.756
145.237
146.926
149.78
152.142
155.425
158.357
161.97
165.327
169.106
172.841
176.692
180.686
184.55
188.627
192.378
196.401
199.928
203.826
207.099
210.752
213.695
216.977
219.492
222.338
224.395
226.691
228.414
230.318
231.765
233.221
234.366
235.268
2340.69
1812.9
1475.03
1241.7
1071.59
942.27
840.857
759.148
692.04
635.866
588.233
547.272
511.747
480.536
453.067
428.468
406.615
386.734
368.907
352.556
337.687
324.036
311.445
299.838
289.11
279.046
269.849
261.024
253.035
245.277
238.232
231.388
225.125
219.034
213.449
207.989
202.978
198.078
193.547
189.139
185.05
181.048
177.388
173.739
170.459
167.183
164.213
161.344
158.668
156.2
153.869
151.765
149.833
148.124
146.618
145.382
144.302
143.635
143.047
143.033
143.108
143.763
144.574
145.933
147.515
149.645
151.986
154.824
157.883
161.35
165.062
169.046
173.225
177.605
182.095
186.729
191.382
196.062
200.715
205.286
209.781
214.1
218.312
222.256
226.02
229.497
232.747
235.741
238.513
241.061
243.395
245.499
247.368
249.026
250.433
251.654
252.644
253.506
254.168
254.792
2340.71
1813
1475.15
1241.86
1071.75
942.461
841.033
759.363
692.233
636.099
588.443
547.524
511.972
480.81
453.307
428.766
406.87
387.059
369.182
352.906
337.991
324.414
311.79
300.252
289.506
279.517
270.302
261.6
253.559
246.005
238.892
232.306
226.052
220.214
214.794
209.613
204.897
200.453
196.324
192.681
189.184
186.244
183.585
181.301
179.582
178.141
177.331
177.101
177.389
178.458
180.013
182.365
185.337
188.956
193.254
198.119
203.575
209.51
215.883
222.592
229.57
236.729
243.996
251.24
258.446
265.457
272.219
278.664
284.841
290.638
296.174
301.238
306.043
310.344
314.362
317.907
321.133
323.906
326.349
328.396
330.125
331.497
332.596
333.429
334.048
334.473
334.768
334.906
334.917
334.8
334.553
334.18
333.666
333.038
332.265
331.395
330.401
329.363
328.275
327.267
2340.76
1813.17
1475.39
1242.15
1072.07
942.82
841.418
759.774
692.674
636.564
588.934
548.052
512.514
481.41
453.915
429.443
407.575
387.827
370.027
353.817
339.02
325.563
313.072
301.779
291.202
281.617
272.696
264.567
257.073
250.335
244.22
238.88
234.17
230.251
227.078
224.735
223.217
222.832
223.461
225.364
228.209
232.34
237.488
243.69
250.92
258.929
267.702
276.961
286.594
296.438
306.323
316.031
325.451
334.476
343.075
351.159
358.697
365.616
371.923
377.548
382.534
386.839
390.518
393.586
396.103
398.169
399.854
401.301
402.53
403.551
404.385
405.009
405.48
405.745
405.88
405.828
405.656
405.323
404.882
404.323
403.674
402.94
402.145
401.333
400.471
399.632
398.805
397.986
397.144
396.293
395.396
394.478
393.499
392.494
391.428
390.341
389.201
388.073
386.955
385.955
2340.87
1813.49
1475.85
1242.71
1072.73
943.557
842.252
760.679
693.695
637.658
590.174
549.386
514.031
483.085
455.841
431.629
410.147
390.821
373.675
358.139
344.374
332.006
321.082
311.769
303.626
297.18
291.909
288.448
286.298
286.459
288.573
292.762
298.903
306.901
316.641
327.774
340.108
353.159
366.639
380.364
393.795
406.917
419.348
431.054
441.763
451.446
459.896
467.209
473.249
478.26
482.204
485.392
488.038
490.209
491.941
493.262
494.188
494.741
494.946
494.82
494.406
493.723
492.829
491.755
490.565
489.342
488.131
487.048
486.031
485.058
484.103
483.158
482.211
481.268
480.321
479.374
478.427
477.489
476.561
475.652
474.761
473.882
473.024
472.149
471.291
470.375
469.4
468.403
467.365
466.322
465.247
464.182
463.09
462.02
460.929
459.873
458.796
457.774
456.807
456.003
2341.15
1814.19
1476.91
1243.99
1074.37
945.466
844.557
763.341
696.867
641.369
594.588
554.627
520.49
490.975
465.75
443.836
425.823
410.617
398.955
389.566
383.782
380.052
380.957
385.398
393.436
404.686
418.817
435.271
453.388
472.433
491.898
511.212
529.564
546.627
561.828
575.026
585.964
594.933
601.981
607.596
612.15
615.743
618.421
620.207
621.132
621.251
620.628
619.39
617.625
615.554
613.244
611.018
609.055
607.254
605.538
603.877
602.236
600.622
599.017
597.452
595.909
594.427
592.984
591.607
590.254
588.943
587.588
586.132
584.601
583.037
581.446
579.859
578.269
576.703
575.137
573.603
572.09
570.619
569.183
567.794
566.447
565.149
563.894
562.681
561.509
560.375
559.261
558.182
557.105
556.061
555.009
553.999
552.982
552.022
551.049
550.143
549.227
548.409
547.681
547.173
2342.03
1815.98
1480.11
1247.96
1080.28
952.71
854.157
775.205
712.349
660.615
619.078
586.933
562.594
545.517
534.57
530.09
534.438
545.064
561.029
581.065
604.587
630.592
657.682
684.776
711.066
734.709
754.973
771.337
784.165
794.18
801.825
807.317
810.758
812.232
811.88
809.913
806.65
802.651
798.219
794.142
790.65
787.467
784.451
781.47
778.552
775.675
772.904
770.233
767.704
765.259
762.901
760.508
757.932
755.277
752.586
749.906
747.252
744.655
742.106
739.644
737.239
734.938
732.704
730.58
728.529
726.581
724.698
722.886
721.11
719.381
717.679
716.026
714.395
712.815
711.263
709.774
708.325
706.939
705.596
704.313
703.074
701.892
700.75
699.661
698.613
697.62
696.662
695.753
694.861
694.019
693.182
692.398
691.612
690.892
690.163
689.508
688.852
688.311
687.903
687.795
2345.25
1822.39
1493.86
1268.16
1113.23
994.18
912.59
852.016
814.516
787.865
783.666
800.117
829.087
866.04
907.63
950.233
990.273
1026.99
1058.25
1083.62
1103.44
1118.45
1129.1
1135.73
1137.47
1134.73
1128
1118.68
1108.64
1099.45
1091.81
1085.13
1079.04
1073.28
1067.82
1062.63
1057.75
1053
1048.38
1043.53
1038.47
1033.33
1028.23
1023.24
1018.46
1013.89
1009.56
1005.45
1001.59
997.956
994.542
991.336
988.276
985.354
982.539
979.835
977.227
974.721
972.303
969.988
967.751
965.62
963.564
961.614
959.738
957.963
956.26
954.647
953.1
951.621
950.196
948.829
947.506
946.246
945.04
943.894
942.787
941.738
940.723
939.764
938.841
937.965
937.124
936.326
935.565
934.849
934.168
933.534
932.922
932.359
931.803
931.308
930.802
930.377
929.927
929.575
929.221
929.016
928.996
929.409
2358.73
1860.91
1594.77
1434.01
1354
1288.98
1305.26
1337.29
1392.13
1465.14
1539.74
1610.27
1672.38
1723.06
1760.08
1783.38
1792.54
1788.85
1773.31
1750.19
1724.15
1700.72
1682.17
1666.52
1652.5
1639.48
1627.39
1615.94
1604.93
1593.82
1582.74
1571.91
1561.58
1551.73
1542.45
1533.72
1525.55
1517.92
1510.81
1504.16
1497.93
1492.02
1486.48
1481.29
1476.43
1471.84
1467.55
1463.51
1459.72
1456.17
1452.85
1449.75
1446.84
1444.13
1441.57
1439.17
1436.9
1434.76
1432.72
1430.79
1428.96
1427.22
1425.56
1424
1422.5
1421.1
1419.76
1418.5
1417.31
1416.18
1415.12
1414.12
1413.19
1412.29
1411.45
1410.63
1409.85
1409.11
1408.41
1407.74
1407.11
1406.52
1405.97
1405.45
1404.97
1404.53
1404.13
1403.77
1403.43
1403.14
1402.87
1402.65
1402.42
1402.29
1402.09
1402.09
1401.98
1402.24
1402.68
1403.83
2454.73
2305.71
2580.46
2808.67
2934.24
3010
2994.6
2967.45
3014.84
3085.63
3150.03
3196.6
3222.4
3229.87
3222.23
3203.95
3178.37
3148.79
3117.81
3086.34
3054.83
3023.06
2991.97
2961.68
2933.59
2907.21
2882.89
2860.48
2839.9
2820.98
2803.65
2787.82
2773.4
2760.22
2748.2
2737.22
2727.14
2717.95
2709.47
2701.76
2694.61
2688.06
2682
2676.29
2670.91
2665.8
2660.99
2656.44
2652.17
2648.16
2644.41
2640.9
2637.62
2634.57
2631.73
2629.08
2626.6
2624.29
2622.12
2620.09
2618.18
2616.4
2614.71
2613.13
2611.67
2610.28
2609.01
2607.81
2606.71
2605.68
2604.74
2603.89
2603.1
2602.38
2601.72
2601.1
2600.53
2600.01
2599.53
2599.09
2598.7
2598.36
2598.06
2597.81
2597.6
2597.45
2597.34
2597.28
2597.25
2597.28
2597.34
2597.45
2597.56
2597.78
2597.93
2598.36
2598.54
2599.46
2600.4
2602.38
6588.08
7481.92
7876.78
7935.98
7826.39
7629.93
7415.08
7222.09
7053.54
6914.36
6805.38
6723.42
6664.03
6621.63
6591.84
6570.25
6554.27
6541.6
6531.2
6522.48
6514.93
6508.9
6504.01
6500.33
6497.41
6495.12
6493.28
6491.87
6490.45
6489.04
6487.35
6485.47
6483.42
6481.21
6478.94
6476.6
6474.25
6471.93
6469.65
6467.5
6465.42
6463.5
6461.7
6460.09
6458.62
6457.29
6456.06
6454.94
6453.9
6452.96
6452.09
6451.33
6450.67
6450.13
6449.69
6449.37
6449.18
6449.08
6449.12
6449.24
6449.5
6449.82
6450.27
6450.8
6451.42
6452.12
6452.9
6453.77
6454.73
6455.77
6456.9
6458.1
6459.39
6460.74
6462.18
6463.68
6465.25
6466.86
6468.53
6470.24
6471.98
6473.76
6475.57
6477.42
6479.31
6481.24
6483.21
6485.2
6487.25
6489.34
6491.46
6493.62
6495.85
6498.07
6500.42
6502.59
6504.9
6506.71
6507.92
6507.85
5491.93
3367.89
2415.66
1948.61
1665.55
1480.97
1347.02
1246.13
1164.05
1095.69
1037.27
985.949
940.087
898.642
860.83
825.772
793.064
762.117
732.475
704.037
676.626
650.206
624.794
600.418
576.993
554.591
533.155
512.732
493.216
474.667
456.969
440.216
424.354
409.322
395.064
381.498
368.569
356.234
344.438
333.126
322.241
311.746
301.603
291.767
282.217
272.94
263.931
255.183
246.746
238.664
230.97
223.655
216.794
210.434
204.602
199.218
194.304
189.831
185.778
181.946
178.328
174.912
171.802
168.778
165.825
162.947
160.528
158.445
156.553
154.404
152.54
151.539
152.391
154.56
157.424
159.201
159.786
158.479
156.611
153.614
150.895
147.434
144.708
141.447
139.269
136.44
135.068
132.411
132.028
129.292
130.166
127.244
129.207
125.701
128.344
123.335
126.542
119.525
122.101
114.363
1537.4
2573.46
2358.73
1986.05
1702.24
1502.11
1355.03
1243.88
1154.23
1081.21
1019.91
966.883
920.58
879.626
842.89
809.264
778.162
748.898
721.001
694.302
668.589
643.754
619.739
596.568
574.096
552.444
531.524
511.51
492.174
473.723
455.903
439.057
423.139
408.06
393.742
380.094
367.065
354.604
342.657
331.171
320.094
309.395
299.042
289.002
279.26
269.813
260.662
251.807
243.303
235.206
227.549
220.33
213.61
207.443
201.843
196.719
192.066
187.858
184.057
180.46
177.035
173.795
170.845
167.988
165.155
162.345
159.922
157.833
155.893
153.622
151.394
149.779
149.752
151.031
153.125
154.508
154.982
153.883
152.245
149.584
147.092
143.939
141.439
138.47
136.51
133.862
132.601
129.933
129.585
126.686
127.586
124.394
126.425
122.644
125.357
120.246
123.412
116.461
118.956
111.182
1130.71
1419.86
1804.65
1801.67
1642.69
1475.87
1337.04
1225.41
1133.8
1058.41
995.388
941.462
895.093
854.692
818.947
786.633
757.061
729.419
703.336
678.513
654.66
631.622
609.269
587.584
566.409
545.881
525.869
506.637
487.896
469.931
452.388
435.714
419.919
404.932
390.668
377.034
363.989
351.472
339.437
327.833
316.616
305.761
295.249
285.058
275.184
265.638
256.424
247.556
239.092
231.101
223.617
216.638
210.213
204.398
199.187
194.475
190.225
186.408
182.963
179.692
176.53
173.521
170.772
168.117
165.431
162.712
160.293
158.195
156.197
153.81
151.233
149.018
148.087
148.403
149.58
150.396
150.568
149.535
148.02
145.643
143.34
140.494
138.228
135.595
133.89
131.485
130.373
127.761
127.458
124.473
125.373
121.982
124.023
120.017
122.744
117.56
120.64
113.781
116.165
108.356
895.626
846.963
1029.13
1250.4
1340.39
1313.74
1239.21
1156.66
1080.18
1012.71
954.551
904.309
860.663
822.436
788.665
758.255
730.541
704.735
680.513
657.545
635.507
614.251
593.619
573.487
553.742
534.537
515.717
497.558
479.792
462.653
445.887
429.736
414.29
399.563
385.481
371.969
358.999
346.506
334.454
322.799
311.509
300.572
289.978
279.724
269.821
260.292
251.15
242.421
234.168
226.47
219.36
212.835
206.928
201.686
197.076
192.975
189.302
186.022
183.046
180.184
177.346
174.608
172.08
169.637
167.1
164.473
162.042
159.908
157.815
155.291
152.358
149.554
147.705
146.999
147.133
147.213
146.883
145.745
144.211
142.033
139.857
137.303
135.273
133.017
131.614
129.52
128.6
126.119
125.875
122.894
123.762
120.273
122.241
118.104
120.753
115.562
118.491
111.774
114.019
106.2
675.19
656.123
666.701
732.488
836.233
921.757
960.611
959.8
936.519
903.302
867.62
833.309
801.251
771.612
744.389
719.12
695.465
673.103
651.696
631.14
611.225
591.893
573.026
554.549
536.36
518.614
501.194
484.321
467.767
451.645
435.944
420.607
405.781
391.544
377.815
364.567
351.798
339.438
327.46
315.844
304.58
293.67
283.119
272.948
263.182
253.86
245.003
236.651
228.87
221.744
215.301
209.532
204.443
200.063
196.319
193.058
190.144
187.532
185.109
182.699
180.199
177.727
175.39
173.116
170.68
168.101
165.606
163.372
161.108
158.388
155.069
151.679
148.905
147.146
146.14
145.344
144.325
142.901
141.183
139.094
136.967
134.678
132.886
131.054
130.009
128.299
127.623
125.352
125.185
122.303
123.103
119.638
121.427
117.3
119.733
114.669
117.343
110.87
112.941
105.183
530.538
531.178
526.795
527.611
540.623
566.569
598.646
629.748
653.248
668.192
674.793
675.813
672.761
666.551
657.901
647.267
635.055
621.719
607.337
592.304
576.741
560.91
544.836
528.822
512.778
496.887
481.13
465.642
450.447
435.544
421.078
406.894
393.099
379.723
366.615
353.865
341.517
329.465
317.723
306.318
295.267
284.594
274.328
264.515
255.196
246.426
238.234
230.67
223.793
217.687
212.363
207.798
203.952
200.814
198.249
196.061
194.058
192.186
190.313
188.306
186.061
183.753
181.489
179.257
176.794
174.146
171.47
169.017
166.452
163.433
159.661
155.669
151.964
149.14
146.926
145.152
143.288
141.42
139.356
137.247
135.089
133.053
131.517
130.176
129.563
128.328
127.957
125.976
125.9
123.21
123.894
120.59
122.068
118.144
120.167
115.448
117.705
111.657
113.502
105.94
439.342
441.294
439.618
434.478
427.931
422.521
418.099
416.266
416.588
420.638
427.734
437.906
450.476
464.596
478.809
491.942
502.64
510.293
514.12
514.288
510.88
504.794
496.335
486.273
475.028
463.017
450.478
437.518
424.567
411.63
398.889
386.253
373.796
361.461
349.378
337.645
326.202
314.844
303.752
293.01
282.661
272.755
263.343
254.492
246.253
238.693
231.847
225.76
220.476
216.064
212.499
209.723
207.627
206.132
205.012
204.025
202.927
201.683
200.172
198.331
196.087
193.691
191.246
188.805
186.07
183.136
180.079
177.216
174.158
170.679
166.345
161.716
157.08
153.198
149.756
146.954
144.147
141.734
139.205
137.005
134.773
133.026
131.809
131.082
131.009
130.371
130.364
128.754
128.758
126.34
126.831
123.829
124.839
121.355
122.739
118.668
120.306
114.987
116.517
109.438
369.273
371.36
371.179
367.602
360.87
352.084
341.64
330.631
319.3
308.777
299.34
291.863
287.071
285.917
288.856
296.34
307.923
322.852
339.637
356.835
372.254
385.407
393.861
398.602
400.103
398.719
395.074
389.445
382.51
374.517
365.842
356.661
347.112
336.82
326.311
315.836
305.317
295.324
285.772
276.663
268.013
259.88
252.324
245.424
239.234
233.829
229.233
225.477
222.578
220.576
219.384
218.88
218.847
219.104
219.325
219.249
218.637
217.532
215.865
213.683
210.963
208.047
205.016
201.987
198.63
195.101
191.393
187.878
184.107
179.995
175
169.723
164.2
159.34
154.729
150.943
147.202
144.249
141.242
138.98
136.725
135.41
134.672
134.782
135.404
135.534
135.917
134.744
134.736
132.653
132.806
130.245
130.612
127.801
128.367
125.243
126.145
121.899
123.031
116.891
309.798
309.724
308.673
305.284
299.423
291.448
282.065
271.969
262.157
252.961
245.359
239.516
235.641
233.666
233.425
234.46
236.858
240.067
244.818
250.196
257.602
265.065
275.282
286.027
296.247
304.988
311.957
316.635
319.138
319.442
317.715
314.274
308.818
302.966
296.581
289.866
282.757
275.974
269.524
263.44
257.763
252.58
247.964
244.001
240.758
238.324
236.701
235.891
235.863
236.597
237.9
239.54
241.162
242.499
243.181
243.029
241.913
240.016
237.35
234.091
230.272
226.303
222.215
218.162
213.798
209.351
204.729
200.339
195.676
190.823
185.15
179.294
173.027
167.367
161.768
157.167
152.658
149.332
146.019
143.906
141.878
141.338
141.412
142.744
144.268
145.359
146.031
145.305
145.03
143.319
142.884
140.881
140.447
138.469
138.22
136.18
136.503
133.524
134.266
129.629
235.968
236.76
237.171
236.722
235.499
233.923
232.701
232.457
233.803
236.691
241.31
246.878
253.288
259.889
265.971
271.206
275.404
278.729
281.249
282.996
284.12
285.083
285.861
286.757
287.916
289.165
290.537
291.699
292.618
293.069
292.844
291.99
290.049
287.665
284.876
281.835
278.543
275.195
271.937
268.896
266.176
263.907
262.175
261.071
260.662
261.015
262.076
263.786
266.031
268.684
271.401
273.815
275.483
276.152
275.561
273.748
270.765
266.952
262.399
257.385
251.956
246.525
241.034
235.648
230.032
224.485
218.822
213.472
207.912
202.373
196.162
189.925
183.192
177.03
170.793
165.723
160.851
157.556
154.401
152.938
151.724
152.611
154.101
157.197
159.796
161.902
162.487
162.033
161.035
159.654
158.308
156.925
155.612
154.525
153.705
152.744
152.862
151.181
151.616
149.049
255.315
255.807
256.514
258.168
261.056
265.54
271.439
278.784
286.844
295.479
303.995
312.083
319.043
324.692
329.195
332.677
335.297
337.344
338.865
340.049
340.888
341.303
341.317
341
340.434
339.621
338.592
337.305
335.815
334.063
332.014
329.717
327.082
324.179
321.039
317.779
314.502
311.356
308.463
305.935
303.88
302.419
301.616
301.529
302.181
303.566
305.544
307.978
310.618
313.133
314.984
315.76
315.11
312.974
309.351
304.546
298.795
292.508
285.8
278.955
271.958
265.119
258.31
251.698
244.978
238.478
231.975
225.897
219.744
213.815
207.406
201.109
194.324
188.091
181.786
176.844
172.363
169.821
167.699
167.758
168.385
171.642
175.346
180.544
184.026
186.595
186.323
185.606
183.396
182.114
179.698
178.862
176.818
176.635
175.633
175.762
175.916
175.612
175.671
175.74
326.449
325.803
325.767
327.045
329.856
334.143
339.672
346.192
353.225
360.619
368.011
375.013
381.416
387.051
391.926
395.98
399.369
401.955
403.832
405.13
405.925
406.295
406.288
405.901
405.164
404.044
402.528
400.633
398.372
395.692
392.61
389.154
385.292
381.103
376.692
372.217
367.826
363.655
359.829
356.491
353.783
351.825
350.692
350.413
350.924
352.09
353.67
355.391
356.768
357.226
356.237
353.594
349.241
343.426
336.434
328.732
320.609
312.422
304.215
296.174
288.204
280.475
272.832
265.47
258.136
251.135
244.267
237.921
231.64
225.702
219.454
213.395
206.945
201.091
195.395
191.351
188.225
187.374
187.418
190.061
193.705
200.121
206.394
213.133
216.532
218.258
216.331
214.66
211.132
209.642
206.396
205.972
203.567
204.395
203.43
204.811
204.877
205.944
206.138
208.55
385.2
384.713
384.976
386.682
390.118
395.221
401.863
409.706
418.442
427.418
436.161
444.36
451.785
458.323
463.908
468.573
472.324
475.219
477.279
478.562
479.135
479.016
478.293
476.948
475.024
472.514
469.472
465.876
461.809
457.262
452.289
446.945
441.258
435.359
429.41
423.561
417.953
412.727
408.074
404.147
401.071
398.935
397.79
397.557
397.994
398.777
399.505
399.687
398.627
395.823
391.088
384.58
376.596
367.623
358.085
348.445
338.929
329.754
320.866
312.296
303.878
295.735
287.74
280.093
272.602
265.527
258.703
252.449
246.366
240.67
234.799
229.168
223.348
218.306
213.918
211.632
210.89
212.781
216.16
222.432
230.016
239.73
247.935
254.692
256.542
256.142
252.188
249.212
244.651
242.852
239.229
239.191
236.861
238.809
237.911
240.701
240.465
243.174
243.661
246.863
455.51
455.361
456.05
458.365
462.655
468.898
476.862
486.274
496.592
507.449
518.186
528.442
537.855
546.129
553.085
558.64
562.718
565.347
566.541
566.388
564.965
562.39
558.781
554.243
548.867
542.828
536.266
529.292
522.04
514.604
507.055
499.468
491.966
484.665
477.633
470.976
464.821
459.367
454.793
451.206
448.665
447.195
446.74
447.015
447.506
447.658
446.876
444.505
440.003
433.315
424.706
414.682
403.776
392.566
381.459
370.802
360.707
351.229
342.15
333.403
324.837
316.574
308.543
300.921
293.56
286.66
280.097
274.123
268.401
263.074
257.715
252.694
247.848
244.21
242.049
242.66
245.577
251.501
259.475
270.375
282.29
294.45
302.888
307.586
306.499
303.26
297.366
293.158
288.059
286.089
282.593
283.049
281.211
284.194
283.446
287.656
287.007
291.372
290.714
293.974
547.067
547.413
548.811
552.245
558.227
566.745
577.579
590.32
604.35
618.994
633.363
646.836
658.742
668.491
675.825
680.534
682.594
682.084
679.22
674.253
667.512
659.351
650.046
639.963
629.312
618.442
607.483
596.646
585.986
575.705
565.814
556.39
547.556
539.353
531.834
525.103
519.291
514.568
511.015
508.663
507.449
507.258
507.826
508.583
508.693
507.384
503.961
497.959
489.394
478.72
466.584
453.697
440.668
428.032
416.105
405.077
394.914
385.433
376.337
367.564
359.017
350.799
342.884
335.432
328.325
321.69
315.452
309.819
304.524
299.658
294.986
290.906
287.642
286.438
287.961
293.158
301.444
312.945
326.739
342.846
358.258
370.682
376.803
377.424
372.672
366.584
359.246
354.234
349.224
347.408
344.59
345.688
344.67
348.452
347.966
353.237
351.769
357.018
353.892
358.303
688.231
689.273
691.694
696.879
705.613
717.923
733.472
751.499
771.054
790.66
809.156
825.12
837.551
845.657
849.271
848.293
843.161
834.348
822.634
808.684
793.285
777.003
760.389
743.916
727.809
712.34
697.577
683.617
670.475
658.236
646.85
636.411
626.944
618.479
611.097
604.922
600.108
596.753
594.872
594.332
594.836
595.993
597.255
597.754
596.379
592.234
584.871
574.453
561.605
547.169
531.993
516.859
502.34
488.827
476.538
465.513
455.426
445.973
436.933
428.241
419.805
411.712
403.978
396.746
389.921
383.551
377.62
372.346
367.554
363.335
359.765
357.404
356.992
360.203
367.914
380.266
396.094
414.691
435.053
455.503
471.64
480.898
481.944
477.303
469.015
460.676
452.724
447.615
443.43
442.24
440.673
442.548
442.583
446.839
446.459
451.859
448.841
454.578
448.679
456.232
930.609
932.631
936.539
944.52
957.746
976.134
998.609
1023.67
1049.11
1072.46
1091.98
1105.18
1111.22
1109.64
1101.06
1086.17
1066.58
1043.46
1018.37
992.445
966.685
941.73
917.99
895.73
875.063
856.03
838.62
822.695
808.266
795.143
783.294
772.755
763.467
755.533
749.057
744.179
741.073
739.775
740.123
741.692
743.786
745.619
746.392
745.071
740.445
731.813
719.419
704.126
686.991
669.082
651.282
634.291
618.665
604.664
592.342
581.343
571.256
561.901
553.079
544.646
536.491
528.675
521.252
514.347
507.873
501.815
496.229
491.443
487.452
484.441
483.079
484.375
489.595
501.057
519.1
542.074
567.374
593.765
619.494
640.508
652.487
654.603
648.65
638.807
627.814
618.342
610.887
606.668
604.171
604.242
604.454
607.231
608.4
612.607
611.805
616.387
611.274