/*--------------------------------*- C++ -*----------------------------------*\
| =========                 |                                                 |
| \\      /  F ield         | OpenFOAM: The Open Source CFD Toolbox           |
|  \\    /   O peration     | Version:  v2012                                 |
|   \\  /    A nd           | Website:  www.openfoam.com                      |
|    \\/     M anipulation  |                                                 |
\*---------------------------------------------------------------------------*/
FoamFile
{
    version     2.0;
    format      ascii;
    class       volScalarField;
    location    "0.016";
    object      k.air;
}
// * * * * * * * * * * * * * * * * * * * * * * * * * * * * * * * * * * * * * //

dimensions      [0 2 -2 0 0 0 0];


internalField   nonuniform List<scalar> 
5600
(
0.603809
0.84172
0.958584
0.977715
0.944856
0.890104
0.835611
0.796208
0.773706
0.762509
0.757556
0.755695
0.755149
0.755028
0.75501
0.755015
0.755024
0.755028
0.75503
0.755031
0.755031
0.755031
0.755031
0.755031
0.755031
0.755031
0.755031
0.755031
0.755031
0.755031
0.755031
0.755031
0.755031
0.755031
0.755031
0.755031
0.755031
0.755032
0.755032
0.755032
0.755032
0.755032
0.755032
0.755032
0.755032
0.755032
0.755032
0.755032
0.755032
0.755032
0.755032
0.755032
0.755032
0.755032
0.755032
0.755032
0.755032
0.755032
0.755032
0.755032
0.755032
0.755032
0.755032
0.755032
0.755032
0.755032
0.755032
0.755032
0.755032
0.755032
0.755032
0.755032
0.755032
0.755032
0.755032
0.755032
0.755032
0.755032
0.755032
0.755032
0.755033
0.755032
0.755033
0.755032
0.755035
0.755026
0.755051
0.754987
0.755135
0.754841
0.75532
0.754836
0.754588
0.757894
0.747526
0.77191
0.730205
0.768858
0.875586
0.0886424
0.372197
0.315331
0.286906
0.276831
0.278244
0.289544
0.31001
0.32993
0.339999
0.344837
0.34723
0.348452
0.349153
0.349568
0.349799
0.349919
0.349977
0.350004
0.350015
0.350019
0.350021
0.350022
0.350022
0.350022
0.350022
0.350022
0.350022
0.350022
0.350022
0.350022
0.350022
0.350022
0.350022
0.350022
0.350022
0.350022
0.350022
0.350022
0.350022
0.350022
0.350022
0.350022
0.350022
0.350022
0.350022
0.350022
0.350022
0.350022
0.350022
0.350022
0.350022
0.350022
0.350022
0.350022
0.350022
0.350022
0.350023
0.350023
0.350023
0.350023
0.350023
0.350023
0.350023
0.350023
0.350023
0.350023
0.350023
0.350023
0.350023
0.350023
0.350023
0.350023
0.350023
0.350023
0.350023
0.350023
0.350023
0.350023
0.350023
0.350023
0.350023
0.350021
0.350028
0.350006
0.350075
0.349866
0.350464
0.348865
0.352839
0.343736
0.362756
0.326975
0.386457
0.301572
0.400392
0.318046
0.343156
0.391768
0.347264
0.00550282
0.369569
0.281623
0.227193
0.192957
0.169764
0.155375
0.146255
0.13935
0.13346
0.129183
0.126567
0.12522
0.124623
0.124394
0.124323
0.124306
0.124306
0.124307
0.124309
0.12431
0.12431
0.12431
0.12431
0.12431
0.12431
0.12431
0.12431
0.12431
0.12431
0.12431
0.12431
0.12431
0.12431
0.12431
0.12431
0.12431
0.12431
0.12431
0.12431
0.12431
0.12431
0.12431
0.12431
0.12431
0.12431
0.12431
0.12431
0.12431
0.12431
0.12431
0.12431
0.12431
0.12431
0.12431
0.12431
0.12431
0.12431
0.12431
0.12431
0.12431
0.12431
0.12431
0.12431
0.12431
0.12431
0.12431
0.12431
0.12431
0.12431
0.12431
0.12431
0.12431
0.12431
0.12431
0.12431
0.12431
0.12431
0.12431
0.12431
0.12431
0.124311
0.12431
0.124312
0.124306
0.124326
0.124265
0.124436
0.123982
0.125105
0.122539
0.127916
0.117709
0.135146
0.108964
0.143362
0.105189
0.1403
0.114185
0.130007
0.0976085
0.370256
0.280514
0.22398
0.186108
0.158917
0.13843
0.122393
0.109895
0.100772
0.0947664
0.0912267
0.0893606
0.0884738
0.0880902
0.0879378
0.0878817
0.0878625
0.0878564
0.0878546
0.0878541
0.087854
0.087854
0.087854
0.087854
0.087854
0.087854
0.087854
0.087854
0.087854
0.087854
0.087854
0.087854
0.087854
0.087854
0.087854
0.087854
0.087854
0.087854
0.087854
0.087854
0.087854
0.087854
0.087854
0.087854
0.087854
0.087854
0.087854
0.087854
0.087854
0.087854
0.087854
0.087854
0.087854
0.087854
0.087854
0.087854
0.087854
0.087854
0.087854
0.087854
0.087854
0.087854
0.087854
0.087854
0.087854
0.087854
0.087854
0.087854
0.087854
0.087854
0.087854
0.087854
0.087854
0.087854
0.087854
0.087854
0.087854
0.087854
0.087854
0.087854
0.087854
0.0878538
0.0878547
0.0878515
0.0878619
0.0878306
0.0879188
0.0876874
0.0882476
0.0870072
0.0894908
0.0850736
0.091906
0.0831343
0.0918926
0.0867205
0.0857391
0.091868
0.0873598
0.080603
0.370334
0.280727
0.224332
0.186175
0.158668
0.137564
0.120762
0.107643
0.0981179
0.0918719
0.0882006
0.0862597
0.0853293
0.0849212
0.0847558
0.0846935
0.0846715
0.0846642
0.0846619
0.0846612
0.084661
0.0846609
0.0846609
0.0846609
0.0846609
0.0846609
0.0846609
0.0846609
0.0846609
0.0846609
0.0846609
0.0846609
0.0846609
0.0846609
0.0846609
0.0846609
0.0846609
0.0846609
0.0846609
0.0846609
0.0846609
0.0846609
0.0846609
0.0846609
0.0846609
0.0846609
0.0846609
0.0846609
0.0846609
0.0846609
0.0846609
0.0846609
0.0846609
0.0846609
0.0846609
0.0846609
0.0846609
0.0846609
0.0846609
0.0846609
0.0846609
0.0846609
0.0846609
0.0846609
0.0846609
0.0846609
0.0846609
0.0846609
0.0846609
0.0846609
0.0846609
0.0846609
0.0846609
0.0846609
0.0846609
0.0846609
0.0846609
0.0846609
0.0846609
0.0846609
0.0846609
0.084661
0.0846605
0.0846622
0.0846572
0.0846714
0.0846337
0.0847265
0.0845166
0.0849477
0.0841583
0.0854139
0.083769
0.0853561
0.0847658
0.0833117
0.0871781
0.0823284
0.0845869
0.0902114
0.370334
0.280778
0.224477
0.186352
0.158872
0.13779
0.121003
0.10789
0.0983632
0.092112
0.0884364
0.0864935
0.0855627
0.0851546
0.0849894
0.0849273
0.0849054
0.0848982
0.0848959
0.0848952
0.084895
0.084895
0.084895
0.084895
0.084895
0.084895
0.084895
0.084895
0.084895
0.084895
0.084895
0.084895
0.084895
0.084895
0.084895
0.084895
0.084895
0.084895
0.084895
0.084895
0.084895
0.084895
0.084895
0.084895
0.084895
0.084895
0.084895
0.084895
0.084895
0.084895
0.084895
0.084895
0.084895
0.084895
0.084895
0.084895
0.084895
0.084895
0.084895
0.084895
0.084895
0.084895
0.084895
0.084895
0.084895
0.084895
0.084895
0.084895
0.084895
0.084895
0.084895
0.084895
0.084895
0.084895
0.084895
0.084895
0.084895
0.084895
0.084895
0.084895
0.084895
0.084895
0.084895
0.0848947
0.0848961
0.0848903
0.0849113
0.0848444
0.0850337
0.0845574
0.0856154
0.083572
0.0869156
0.0824946
0.0867612
0.0846522
0.083547
0.0856772
0.0877126
0.0785304
0.370333
0.280779
0.2245
0.186395
0.15894
0.137887
0.121129
0.10804
0.0985312
0.0922914
0.088623
0.0866847
0.0857565
0.08535
0.0851856
0.0851239
0.0851021
0.0850949
0.0850927
0.085092
0.0850918
0.0850918
0.0850918
0.0850918
0.0850918
0.0850918
0.0850918
0.0850918
0.0850918
0.0850918
0.0850918
0.0850918
0.0850917
0.0850918
0.0850918
0.0850918
0.0850917
0.0850918
0.0850918
0.0850918
0.0850917
0.0850918
0.0850918
0.0850918
0.0850917
0.0850918
0.0850918
0.0850918
0.0850918
0.0850918
0.0850918
0.0850918
0.0850918
0.0850918
0.0850917
0.0850917
0.0850918
0.0850918
0.0850918
0.0850918
0.0850918
0.0850918
0.0850918
0.0850917
0.0850918
0.0850918
0.0850918
0.0850917
0.0850918
0.0850918
0.0850917
0.0850917
0.0850918
0.0850918
0.0850917
0.0850918
0.0850918
0.0850918
0.0850917
0.0850918
0.0850917
0.0850918
0.0850915
0.0850926
0.0850894
0.0850984
0.0850745
0.0851337
0.0849972
0.0852863
0.0847341
0.0856594
0.0843701
0.0856887
0.0851845
0.0837688
0.0874874
0.0832133
0.0843142
0.0893361
0.370332
0.280771
0.224495
0.186395
0.158951
0.137909
0.121161
0.10808
0.0985787
0.0923451
0.0886825
0.0867485
0.0858227
0.0854173
0.0852534
0.0851918
0.0851702
0.085163
0.0851608
0.0851601
0.0851599
0.0851599
0.0851599
0.0851598
0.0851598
0.0851598
0.0851598
0.0851598
0.0851598
0.0851598
0.0851598
0.0851598
0.0851598
0.0851598
0.0851598
0.0851598
0.0851598
0.0851598
0.0851598
0.0851598
0.0851598
0.0851598
0.0851598
0.0851598
0.0851598
0.0851598
0.0851598
0.0851598
0.0851598
0.0851598
0.0851598
0.0851598
0.0851598
0.0851598
0.0851598
0.0851598
0.0851598
0.0851598
0.0851598
0.0851598
0.0851598
0.0851598
0.0851598
0.0851598
0.0851598
0.0851598
0.0851598
0.0851598
0.0851598
0.0851598
0.0851598
0.0851598
0.0851598
0.0851598
0.0851598
0.0851598
0.0851598
0.0851598
0.0851598
0.0851598
0.0851598
0.0851599
0.0851598
0.08516
0.0851596
0.0851598
0.0851617
0.0851506
0.0851912
0.0850746
0.0853493
0.0848257
0.0855739
0.0850013
0.0843821
0.0875316
0.0816201
0.0876019
0.086448
0.081078
0.370331
0.280763
0.224487
0.186388
0.158948
0.13791
0.121165
0.108086
0.0985861
0.0923562
0.0886977
0.0867667
0.0858429
0.0854384
0.0852749
0.0852134
0.0851917
0.0851845
0.0851823
0.0851816
0.0851814
0.0851814
0.0851813
0.0851813
0.0851813
0.0851813
0.0851813
0.0851813
0.0851813
0.0851813
0.0851813
0.0851813
0.0851813
0.0851813
0.0851813
0.0851813
0.0851813
0.0851813
0.0851813
0.0851813
0.0851813
0.0851813
0.0851813
0.0851813
0.0851813
0.0851813
0.0851813
0.0851813
0.0851813
0.0851813
0.0851813
0.0851813
0.0851813
0.0851813
0.0851813
0.0851813
0.0851813
0.0851813
0.0851813
0.0851813
0.0851813
0.0851813
0.0851813
0.0851813
0.0851813
0.0851813
0.0851813
0.0851813
0.0851813
0.0851813
0.0851813
0.0851813
0.0851813
0.0851813
0.0851813
0.0851813
0.0851813
0.0851813
0.0851813
0.0851813
0.0851813
0.0851814
0.0851813
0.0851815
0.085181
0.085182
0.0851803
0.0851817
0.0851858
0.0851594
0.0852526
0.0849928
0.085614
0.0843075
0.0867073
0.0830266
0.0871959
0.0851874
0.0814534
0.0908493
0.37033
0.280759
0.224482
0.186384
0.158946
0.137909
0.121165
0.108085
0.0985853
0.0923569
0.0887006
0.0867714
0.0858485
0.0854445
0.0852811
0.0852196
0.085198
0.0851908
0.0851885
0.0851878
0.0851876
0.0851876
0.0851875
0.0851875
0.0851876
0.0851876
0.0851875
0.0851875
0.0851876
0.0851876
0.0851875
0.0851875
0.0851876
0.0851876
0.0851875
0.0851876
0.0851876
0.0851875
0.0851875
0.0851876
0.0851876
0.0851876
0.0851875
0.0851875
0.0851875
0.0851876
0.0851875
0.0851875
0.0851875
0.0851875
0.0851875
0.0851876
0.0851875
0.0851875
0.0851875
0.0851875
0.0851875
0.0851875
0.0851876
0.0851875
0.0851875
0.0851875
0.0851876
0.0851875
0.0851875
0.0851875
0.0851876
0.0851875
0.0851875
0.0851875
0.0851875
0.0851876
0.0851875
0.0851875
0.0851875
0.0851876
0.0851875
0.0851876
0.0851875
0.0851876
0.0851875
0.0851876
0.0851875
0.0851876
0.0851876
0.0851873
0.0851888
0.0851832
0.0852001
0.0851571
0.0852488
0.0850926
0.085275
0.0852414
0.0847714
0.0860679
0.0843704
0.0844088
0.0890861
0.0801607
0.370331
0.28076
0.224484
0.186387
0.158948
0.137912
0.121167
0.108088
0.098587
0.092358
0.0887013
0.0867718
0.0858488
0.0854447
0.0852813
0.0852198
0.0851981
0.0851909
0.0851886
0.085188
0.0851878
0.0851877
0.0851877
0.0851877
0.0851877
0.0851877
0.0851877
0.0851877
0.0851877
0.0851877
0.0851877
0.0851877
0.0851877
0.0851877
0.0851877
0.0851877
0.0851877
0.0851877
0.0851877
0.0851877
0.0851877
0.0851877
0.0851877
0.0851877
0.0851877
0.0851877
0.0851877
0.0851877
0.0851877
0.0851877
0.0851877
0.0851877
0.0851877
0.0851877
0.0851877
0.0851877
0.0851877
0.0851877
0.0851877
0.0851877
0.0851877
0.0851877
0.0851877
0.0851877
0.0851877
0.0851877
0.0851877
0.0851877
0.0851877
0.0851877
0.0851877
0.0851877
0.0851877
0.0851877
0.0851877
0.0851877
0.0851877
0.0851877
0.0851877
0.0851877
0.0851877
0.0851877
0.0851877
0.0851877
0.0851879
0.0851871
0.0851897
0.0851821
0.0852023
0.0851538
0.0852572
0.0850644
0.0853721
0.0849678
0.0853695
0.0851572
0.0849211
0.0859802
0.0836113
0.0869911
0.370331
0.280767
0.224493
0.186396
0.158956
0.137918
0.121172
0.108092
0.0985909
0.0923593
0.0886996
0.0867679
0.0858436
0.0854389
0.0852753
0.0852138
0.0851921
0.0851849
0.0851826
0.0851819
0.0851817
0.0851817
0.0851817
0.0851817
0.0851817
0.0851817
0.0851817
0.0851817
0.0851817
0.0851817
0.0851817
0.0851817
0.0851817
0.0851817
0.0851817
0.0851817
0.0851817
0.0851817
0.0851817
0.0851817
0.0851817
0.0851817
0.0851817
0.0851817
0.0851817
0.0851817
0.0851817
0.0851817
0.0851817
0.0851817
0.0851817
0.0851817
0.0851817
0.0851817
0.0851817
0.0851817
0.0851817
0.0851817
0.0851817
0.0851817
0.0851817
0.0851817
0.0851817
0.0851817
0.0851817
0.0851817
0.0851817
0.0851817
0.0851817
0.0851817
0.0851817
0.0851817
0.0851817
0.0851817
0.0851817
0.0851817
0.0851817
0.0851817
0.0851817
0.0851817
0.0851817
0.0851817
0.0851817
0.0851816
0.0851819
0.085181
0.0851837
0.0851761
0.0851952
0.0851523
0.0852379
0.0850908
0.0852976
0.0850864
0.0851767
0.0853362
0.0849864
0.0850769
0.085894
0.0842571
0.370333
0.280778
0.224506
0.186408
0.158964
0.137922
0.121173
0.10809
0.0985859
0.0923497
0.0886852
0.0867499
0.0858235
0.0854177
0.0852537
0.0851921
0.0851704
0.0851632
0.085161
0.0851603
0.0851601
0.0851601
0.0851601
0.08516
0.08516
0.08516
0.08516
0.08516
0.08516
0.08516
0.08516
0.08516
0.08516
0.08516
0.08516
0.08516
0.08516
0.08516
0.08516
0.08516
0.08516
0.08516
0.08516
0.08516
0.08516
0.08516
0.08516
0.08516
0.08516
0.08516
0.08516
0.08516
0.08516
0.08516
0.08516
0.08516
0.08516
0.08516
0.08516
0.08516
0.08516
0.08516
0.08516
0.08516
0.08516
0.08516
0.08516
0.08516
0.08516
0.08516
0.08516
0.08516
0.08516
0.08516
0.08516
0.08516
0.08516
0.08516
0.08516
0.08516
0.08516
0.08516
0.0851601
0.08516
0.0851603
0.0851594
0.085162
0.085155
0.0851719
0.0851348
0.0852069
0.0850868
0.0852483
0.0850983
0.0851268
0.0853315
0.0849188
0.0852627
0.0853303
0.0848752
0.370335
0.28079
0.224516
0.186412
0.158957
0.137903
0.121144
0.108053
0.0985407
0.0922969
0.0886258
0.0866859
0.0857569
0.0853501
0.0851857
0.0851238
0.0851021
0.0850949
0.0850926
0.085092
0.0850918
0.0850917
0.0850917
0.0850917
0.0850917
0.0850917
0.0850917
0.0850917
0.0850917
0.0850917
0.0850917
0.0850917
0.0850917
0.0850917
0.0850917
0.0850917
0.0850917
0.0850917
0.0850917
0.0850917
0.0850917
0.0850917
0.0850917
0.0850917
0.0850917
0.0850917
0.0850917
0.0850917
0.0850917
0.0850917
0.0850917
0.0850917
0.0850917
0.0850917
0.0850917
0.0850917
0.0850917
0.0850917
0.0850917
0.0850917
0.0850917
0.0850917
0.0850917
0.0850917
0.0850917
0.0850917
0.0850917
0.0850917
0.0850917
0.0850917
0.0850917
0.0850917
0.0850917
0.0850917
0.0850917
0.0850917
0.0850917
0.0850917
0.0850917
0.0850917
0.0850917
0.0850917
0.0850917
0.0850917
0.0850919
0.0850911
0.0850934
0.0850873
0.085102
0.0850703
0.0851307
0.0850329
0.085158
0.0850567
0.0850363
0.0852664
0.0848798
0.0851207
0.0853894
0.0846494
0.370337
0.280793
0.224496
0.186371
0.158892
0.13781
0.121022
0.107907
0.0983782
0.0921238
0.0884457
0.0865012
0.0855695
0.0851611
0.0849958
0.0849337
0.0849118
0.0849045
0.0849023
0.0849016
0.0849014
0.0849014
0.0849014
0.0849014
0.0849014
0.0849014
0.0849014
0.0849014
0.0849014
0.0849014
0.0849014
0.0849014
0.0849014
0.0849014
0.0849014
0.0849014
0.0849014
0.0849014
0.0849014
0.0849014
0.0849014
0.0849014
0.0849014
0.0849014
0.0849014
0.0849014
0.0849014
0.0849014
0.0849014
0.0849014
0.0849014
0.0849014
0.0849014
0.0849014
0.0849014
0.0849014
0.0849014
0.0849014
0.0849014
0.0849014
0.0849014
0.0849014
0.0849014
0.0849014
0.0849014
0.0849014
0.0849014
0.0849014
0.0849014
0.0849014
0.0849014
0.0849014
0.0849014
0.0849014
0.0849014
0.0849014
0.0849014
0.0849014
0.0849014
0.0849014
0.0849014
0.0849014
0.0849014
0.0849013
0.0849015
0.0849008
0.0849028
0.0848976
0.08491
0.0848835
0.0849333
0.0848542
0.0849515
0.0848832
0.0848357
0.0850728
0.0847038
0.0849133
0.0852199
0.0843896
0.370337
0.280745
0.224348
0.186197
0.158698
0.137609
0.12083
0.107728
0.0982147
0.0919746
0.0883062
0.0863667
0.0854372
0.0850297
0.0848647
0.0848026
0.0847807
0.0847734
0.0847711
0.0847705
0.0847703
0.0847702
0.0847702
0.0847702
0.0847702
0.0847702
0.0847702
0.0847702
0.0847702
0.0847702
0.0847702
0.0847702
0.0847702
0.0847702
0.0847702
0.0847702
0.0847702
0.0847702
0.0847702
0.0847702
0.0847702
0.0847702
0.0847702
0.0847702
0.0847702
0.0847702
0.0847702
0.0847702
0.0847702
0.0847702
0.0847702
0.0847702
0.0847702
0.0847702
0.0847702
0.0847702
0.0847702
0.0847702
0.0847702
0.0847702
0.0847702
0.0847702
0.0847702
0.0847702
0.0847702
0.0847702
0.0847702
0.0847702
0.0847702
0.0847702
0.0847702
0.0847702
0.0847702
0.0847702
0.0847702
0.0847702
0.0847702
0.0847702
0.0847702
0.0847702
0.0847702
0.0847702
0.0847702
0.0847702
0.0847703
0.0847698
0.0847713
0.0847675
0.0847766
0.0847569
0.0847943
0.0847347
0.0848069
0.084763
0.0847027
0.0849372
0.0845843
0.0847797
0.0851998
0.0841319
0.370261
0.280535
0.223988
0.186175
0.159098
0.138785
0.123007
0.110715
0.101721
0.0957891
0.0922911
0.0904445
0.0895658
0.0891855
0.0890345
0.088979
0.08896
0.088954
0.0889522
0.0889517
0.0889516
0.0889515
0.0889515
0.0889515
0.0889515
0.0889515
0.0889515
0.0889515
0.0889515
0.0889515
0.0889515
0.0889515
0.0889515
0.0889515
0.0889515
0.0889515
0.0889515
0.0889515
0.0889515
0.0889515
0.0889515
0.0889515
0.0889515
0.0889515
0.0889515
0.0889515
0.0889515
0.0889515
0.0889515
0.0889515
0.0889515
0.0889515
0.0889515
0.0889515
0.0889515
0.0889515
0.0889515
0.0889515
0.0889515
0.0889515
0.0889515
0.0889515
0.0889515
0.0889515
0.0889515
0.0889515
0.0889515
0.0889515
0.0889515
0.0889515
0.0889515
0.0889515
0.0889515
0.0889515
0.0889515
0.0889515
0.0889515
0.0889515
0.0889515
0.0889515
0.0889515
0.0889515
0.0889515
0.0889515
0.0889516
0.0889514
0.088952
0.0889501
0.0889553
0.0889431
0.0889681
0.0889257
0.0889801
0.0889511
0.0888793
0.0891653
0.0887123
0.0891366
0.0897167
0.0885463
0.369562
0.281692
0.22741
0.193702
0.171474
0.158252
0.151027
0.145111
0.13989
0.135986
0.13355
0.132291
0.131738
0.131526
0.131459
0.131443
0.131442
0.131444
0.131445
0.131446
0.131446
0.131446
0.131447
0.131447
0.131447
0.131447
0.131447
0.131447
0.131447
0.131447
0.131447
0.131447
0.131447
0.131447
0.131447
0.131447
0.131447
0.131447
0.131447
0.131447
0.131447
0.131447
0.131447
0.131447
0.131447
0.131447
0.131447
0.131447
0.131447
0.131447
0.131447
0.131447
0.131447
0.131447
0.131447
0.131447
0.131447
0.131447
0.131447
0.131447
0.131447
0.131447
0.131447
0.131447
0.131447
0.131447
0.131447
0.131447
0.131447
0.131447
0.131447
0.131447
0.131447
0.131447
0.131447
0.131447
0.131447
0.131447
0.131447
0.131447
0.131447
0.131447
0.131447
0.131447
0.131447
0.131446
0.131447
0.131444
0.131452
0.131432
0.131478
0.131392
0.131527
0.131397
0.131391
0.131886
0.130867
0.132655
0.132836
0.133421
0.372156
0.316353
0.289671
0.282542
0.28787
0.30384
0.333475
0.354248
0.365865
0.371707
0.374662
0.376197
0.377051
0.377529
0.377783
0.377908
0.377966
0.377991
0.378002
0.378006
0.378007
0.378008
0.378008
0.378008
0.378008
0.378008
0.378008
0.378008
0.378008
0.378008
0.378008
0.378008
0.378008
0.378008
0.378008
0.378008
0.378008
0.378008
0.378008
0.378008
0.378008
0.378008
0.378008
0.378008
0.378008
0.378008
0.378008
0.378008
0.378008
0.378008
0.378008
0.378008
0.378008
0.378008
0.378008
0.378008
0.378008
0.378008
0.378008
0.378008
0.378008
0.378008
0.378008
0.378008
0.378008
0.378008
0.378008
0.378008
0.378008
0.378008
0.378008
0.378008
0.378009
0.378009
0.378008
0.378009
0.378009
0.378009
0.378009
0.378009
0.378009
0.378009
0.378009
0.378009
0.378009
0.378008
0.378012
0.378001
0.37803
0.37796
0.378115
0.377812
0.378327
0.377655
0.378216
0.378616
0.376693
0.381267
0.37882
0.383555
0.60385
0.841153
0.95518
0.969762
0.932194
0.873951
0.81823
0.779506
0.757624
0.746874
0.742094
0.740272
0.73973
0.739606
0.739586
0.739591
0.739599
0.739604
0.739605
0.739606
0.739606
0.739606
0.739606
0.739606
0.739606
0.739606
0.739606
0.739606
0.739606
0.739606
0.739606
0.739606
0.739606
0.739607
0.739607
0.739607
0.739607
0.739607
0.739607
0.739607
0.739607
0.739607
0.739607
0.739607
0.739607
0.739607
0.739607
0.739607
0.739607
0.739607
0.739607
0.739607
0.739607
0.739607
0.739607
0.739607
0.739607
0.739607
0.739607
0.739607
0.739607
0.739607
0.739607
0.739607
0.739607
0.739607
0.739607
0.739607
0.739607
0.739607
0.739607
0.739607
0.739607
0.739607
0.739607
0.739607
0.739607
0.739608
0.739608
0.739608
0.739608
0.739608
0.739608
0.739608
0.739608
0.739608
0.739608
0.739607
0.739609
0.739604
0.739614
0.739589
0.73963
0.739539
0.739605
0.739403
0.739133
0.738484
0.736007
0.730611
3.67441
0.985105
0.192058
0.109461
0.109576
0.105647
0.0985134
0.0923975
0.088637
0.0867536
0.0859056
0.0855508
0.0854123
0.0853558
0.08533
0.0853181
0.0853123
0.0853095
0.0853081
0.0853074
0.085307
0.0853069
0.0853068
0.0853067
0.0853067
0.0853067
0.0853067
0.0853067
0.0853067
0.0853067
0.0853067
0.0853066
0.0853067
0.0853067
0.0853066
0.0853067
0.0853067
0.0853067
0.0853066
0.0853067
0.0853067
0.0853067
0.0853067
0.0853067
0.0853067
0.0853067
0.0853067
0.0853067
0.0853067
0.0853067
0.0853067
0.0853067
0.0853066
0.0853067
0.0853067
0.0853067
0.0853067
0.0853067
0.0853066
0.0853067
0.0853067
0.0853067
0.0853067
0.0853067
0.0853066
0.0853066
0.0853067
0.0853067
0.0853067
0.0853067
0.0853066
0.0853066
0.0853066
0.0853067
0.0853067
0.0853067
0.0853067
0.0853067
0.0853066
0.0853067
0.0853067
0.0853067
0.0853067
0.0853067
0.0853066
0.0853066
0.0853066
0.0853066
0.0853066
0.0853066
0.0853066
0.0853065
0.0853064
0.0853061
0.0853058
0.0853048
0.0853035
0.0853006
0.0852972
0.0852855
1.66702
0.151175
0.0507958
0.102383
0.108955
0.104529
0.0980446
0.0922305
0.0885087
0.0866356
0.0858096
0.0854736
0.0853427
0.085294
0.0852757
0.0852686
0.0852657
0.0852644
0.0852639
0.0852636
0.0852634
0.0852634
0.0852633
0.0852633
0.0852633
0.0852633
0.0852633
0.0852633
0.0852633
0.0852633
0.0852633
0.0852633
0.0852633
0.0852633
0.0852633
0.0852633
0.0852633
0.0852633
0.0852633
0.0852633
0.0852633
0.0852633
0.0852633
0.0852633
0.0852633
0.0852633
0.0852633
0.0852633
0.0852633
0.0852633
0.0852633
0.0852633
0.0852633
0.0852633
0.0852633
0.0852633
0.0852633
0.0852633
0.0852633
0.0852633
0.0852633
0.0852633
0.0852633
0.0852633
0.0852633
0.0852633
0.0852633
0.0852633
0.0852633
0.0852633
0.0852633
0.0852633
0.0852633
0.0852633
0.0852633
0.0852633
0.0852633
0.0852633
0.0852633
0.0852633
0.0852633
0.0852633
0.0852633
0.0852633
0.0852633
0.0852633
0.0852633
0.0852633
0.0852633
0.0852633
0.0852633
0.0852632
0.0852633
0.085263
0.0852631
0.0852625
0.0852619
0.0852622
0.0852582
0.0852603
0.279053
0.119838
0.130491
0.109173
0.108378
0.104377
0.0976124
0.0919422
0.088367
0.0865554
0.085764
0.0854495
0.0853274
0.0852793
0.0852617
0.0852553
0.085253
0.085252
0.0852517
0.0852515
0.0852514
0.0852514
0.0852514
0.0852514
0.0852514
0.0852514
0.0852514
0.0852513
0.0852514
0.0852514
0.0852513
0.0852513
0.0852514
0.0852514
0.0852513
0.0852514
0.0852514
0.0852514
0.0852513
0.0852514
0.0852514
0.0852514
0.0852514
0.0852514
0.0852514
0.0852514
0.0852514
0.0852513
0.0852514
0.0852514
0.0852514
0.0852514
0.0852513
0.0852514
0.0852514
0.0852514
0.0852514
0.0852513
0.0852514
0.0852514
0.0852514
0.0852514
0.0852514
0.0852514
0.0852513
0.0852513
0.0852514
0.0852514
0.0852514
0.0852514
0.0852514
0.0852513
0.0852513
0.0852514
0.0852514
0.0852514
0.0852513
0.0852514
0.0852513
0.0852514
0.0852513
0.0852514
0.0852514
0.0852514
0.0852513
0.0852513
0.0852513
0.0852514
0.0852514
0.0852514
0.0852514
0.0852514
0.0852515
0.0852514
0.085252
0.0852519
0.0852523
0.0852558
0.0852528
0.0852676
0.108155
0.0821645
0.0744899
0.092462
0.103118
0.103734
0.0977532
0.0919204
0.0882877
0.0864923
0.0857287
0.0854348
0.0853265
0.0852844
0.0852681
0.0852622
0.08526
0.0852591
0.0852588
0.0852587
0.0852586
0.0852586
0.0852586
0.0852586
0.0852586
0.0852586
0.0852586
0.0852586
0.0852586
0.0852586
0.0852586
0.0852586
0.0852586
0.0852586
0.0852586
0.0852586
0.0852586
0.0852586
0.0852586
0.0852586
0.0852586
0.0852586
0.0852586
0.0852586
0.0852586
0.0852586
0.0852586
0.0852586
0.0852586
0.0852586
0.0852586
0.0852586
0.0852586
0.0852586
0.0852586
0.0852586
0.0852586
0.0852586
0.0852586
0.0852586
0.0852586
0.0852586
0.0852586
0.0852586
0.0852586
0.0852586
0.0852586
0.0852586
0.0852586
0.0852586
0.0852586
0.0852586
0.0852586
0.0852586
0.0852586
0.0852586
0.0852586
0.0852586
0.0852586
0.0852586
0.0852586
0.0852586
0.0852586
0.0852586
0.0852586
0.0852586
0.0852586
0.0852586
0.0852586
0.0852586
0.0852586
0.0852587
0.0852589
0.0852588
0.0852595
0.0852596
0.0852608
0.0852646
0.0852636
0.0852812
0.0736398
0.0994061
0.120137
0.110984
0.104543
0.102168
0.0969199
0.0916076
0.0881631
0.0864242
0.0856848
0.0854062
0.0853084
0.0852732
0.0852599
0.0852551
0.0852533
0.0852526
0.0852524
0.0852523
0.0852523
0.0852522
0.0852522
0.0852522
0.0852522
0.0852522
0.0852522
0.0852522
0.0852522
0.0852522
0.0852522
0.0852522
0.0852522
0.0852522
0.0852522
0.0852522
0.0852522
0.0852522
0.0852522
0.0852522
0.0852522
0.0852522
0.0852522
0.0852522
0.0852522
0.0852522
0.0852522
0.0852522
0.0852522
0.0852522
0.0852522
0.0852522
0.0852522
0.0852522
0.0852522
0.0852522
0.0852522
0.0852522
0.0852522
0.0852522
0.0852522
0.0852522
0.0852522
0.0852522
0.0852522
0.0852522
0.0852522
0.0852522
0.0852522
0.0852522
0.0852522
0.0852522
0.0852522
0.0852522
0.0852522
0.0852522
0.0852522
0.0852522
0.0852522
0.0852522
0.0852522
0.0852522
0.0852522
0.0852522
0.0852522
0.0852522
0.0852522
0.0852522
0.0852523
0.0852523
0.0852523
0.0852523
0.0852525
0.0852524
0.0852532
0.0852531
0.0852545
0.0852575
0.0852575
0.0852725
0.0912651
0.0853543
0.0847217
0.0992363
0.105171
0.104683
0.0983587
0.0920027
0.088244
0.0864637
0.0857058
0.0854077
0.0852985
0.0852598
0.085246
0.0852412
0.0852395
0.0852389
0.0852387
0.0852387
0.0852386
0.0852386
0.0852386
0.0852386
0.0852386
0.0852386
0.0852386
0.0852386
0.0852386
0.0852386
0.0852386
0.0852386
0.0852386
0.0852386
0.0852386
0.0852386
0.0852386
0.0852386
0.0852386
0.0852386
0.0852386
0.0852386
0.0852386
0.0852386
0.0852386
0.0852386
0.0852386
0.0852386
0.0852386
0.0852386
0.0852386
0.0852386
0.0852386
0.0852386
0.0852386
0.0852386
0.0852386
0.0852386
0.0852386
0.0852386
0.0852386
0.0852386
0.0852386
0.0852386
0.0852386
0.0852386
0.0852386
0.0852386
0.0852386
0.0852386
0.0852386
0.0852386
0.0852386
0.0852386
0.0852386
0.0852386
0.0852386
0.0852386
0.0852386
0.0852386
0.0852386
0.0852386
0.0852386
0.0852386
0.0852386
0.0852386
0.0852386
0.0852386
0.0852387
0.0852387
0.0852387
0.0852387
0.0852388
0.0852388
0.0852394
0.0852393
0.0852404
0.0852428
0.0852429
0.0852551
0.080573
0.0893857
0.102178
0.0989854
0.0945847
0.0974932
0.0966221
0.0917773
0.0879549
0.0861766
0.0855381
0.0853313
0.0852645
0.0852416
0.085233
0.0852298
0.0852286
0.0852281
0.085228
0.0852279
0.0852279
0.0852279
0.0852279
0.0852279
0.0852279
0.0852279
0.0852279
0.0852279
0.0852279
0.0852279
0.0852279
0.0852279
0.0852279
0.0852279
0.0852279
0.0852279
0.0852279
0.0852279
0.0852279
0.0852279
0.0852279
0.0852279
0.0852279
0.0852279
0.0852279
0.0852279
0.0852279
0.0852279
0.0852279
0.0852279
0.0852279
0.0852279
0.0852279
0.0852279
0.0852279
0.0852279
0.0852279
0.0852279
0.0852279
0.0852279
0.0852279
0.0852279
0.0852279
0.0852279
0.0852279
0.0852279
0.0852279
0.0852279
0.0852279
0.0852279
0.0852279
0.0852279
0.0852279
0.0852279
0.0852279
0.0852279
0.0852279
0.0852279
0.0852279
0.0852279
0.0852279
0.0852279
0.0852279
0.0852279
0.0852279
0.0852279
0.0852279
0.0852279
0.0852279
0.0852279
0.0852279
0.0852279
0.085228
0.085228
0.0852284
0.0852284
0.0852292
0.0852312
0.085231
0.0852412
0.0883556
0.0866291
0.0869698
0.101531
0.10087
0.0964048
0.0952662
0.092712
0.0893122
0.0869738
0.0858591
0.0854309
0.0852865
0.0852413
0.0852274
0.0852231
0.0852217
0.0852213
0.0852211
0.0852211
0.085221
0.085221
0.085221
0.085221
0.085221
0.085221
0.085221
0.085221
0.085221
0.085221
0.085221
0.085221
0.085221
0.085221
0.085221
0.085221
0.085221
0.085221
0.085221
0.085221
0.085221
0.085221
0.085221
0.085221
0.085221
0.085221
0.085221
0.085221
0.085221
0.085221
0.085221
0.085221
0.085221
0.085221
0.085221
0.085221
0.085221
0.085221
0.085221
0.085221
0.085221
0.085221
0.085221
0.085221
0.085221
0.085221
0.085221
0.085221
0.085221
0.085221
0.085221
0.085221
0.085221
0.085221
0.085221
0.085221
0.085221
0.085221
0.085221
0.085221
0.085221
0.085221
0.085221
0.085221
0.085221
0.085221
0.085221
0.085221
0.085221
0.0852211
0.0852211
0.0852211
0.0852212
0.0852211
0.0852215
0.0852214
0.0852219
0.0852236
0.0852232
0.0852318
0.0838431
0.0854873
0.089741
0.0934921
0.0982148
0.0931579
0.0875981
0.0859502
0.0857344
0.0855792
0.0854119
0.0853036
0.0852506
0.0852288
0.0852206
0.0852176
0.0852166
0.0852163
0.0852162
0.0852161
0.0852161
0.0852161
0.0852161
0.0852161
0.0852161
0.0852161
0.0852161
0.0852161
0.0852161
0.0852161
0.0852161
0.0852161
0.0852161
0.0852161
0.0852161
0.0852161
0.0852161
0.0852161
0.0852161
0.0852161
0.0852161
0.0852161
0.0852161
0.0852161
0.0852161
0.0852161
0.0852161
0.0852161
0.0852161
0.0852161
0.0852161
0.0852161
0.0852161
0.0852161
0.0852161
0.0852161
0.0852161
0.0852161
0.0852161
0.0852161
0.0852161
0.0852161
0.0852161
0.0852161
0.0852161
0.0852161
0.0852161
0.0852161
0.0852161
0.0852161
0.0852161
0.0852161
0.0852161
0.0852161
0.0852161
0.0852161
0.0852161
0.0852161
0.0852161
0.0852161
0.0852161
0.0852161
0.0852161
0.0852161
0.0852161
0.0852161
0.0852161
0.0852161
0.0852161
0.0852161
0.0852161
0.0852161
0.0852162
0.0852161
0.0852164
0.0852163
0.0852166
0.085218
0.0852173
0.0852244
0.0839959
0.0952078
0.0871421
0.0844334
0.0990936
0.108855
0.104314
0.0955733
0.0896365
0.0868427
0.0857613
0.0853871
0.0852657
0.0852278
0.0852162
0.0852127
0.0852117
0.0852114
0.0852113
0.0852113
0.0852113
0.0852113
0.0852113
0.0852113
0.0852113
0.0852113
0.0852113
0.0852113
0.0852113
0.0852113
0.0852113
0.0852113
0.0852113
0.0852113
0.0852113
0.0852113
0.0852113
0.0852113
0.0852113
0.0852113
0.0852113
0.0852113
0.0852113
0.0852113
0.0852113
0.0852113
0.0852113
0.0852113
0.0852113
0.0852113
0.0852113
0.0852113
0.0852113
0.0852113
0.0852113
0.0852113
0.0852113
0.0852113
0.0852113
0.0852113
0.0852113
0.0852113
0.0852113
0.0852113
0.0852113
0.0852113
0.0852113
0.0852113
0.0852113
0.0852113
0.0852113
0.0852113
0.0852113
0.0852113
0.0852113
0.0852113
0.0852113
0.0852113
0.0852113
0.0852113
0.0852113
0.0852113
0.0852113
0.0852113
0.0852113
0.0852113
0.0852113
0.0852113
0.0852113
0.0852113
0.0852113
0.0852113
0.0852113
0.0852112
0.0852114
0.0852113
0.0852114
0.0852124
0.0852115
0.0852167
0.0863191
0.0797028
0.0924502
0.100272
0.0928431
0.0881876
0.0882888
0.0881115
0.0870781
0.0861303
0.0855902
0.0853487
0.0852551
0.0852219
0.0852108
0.0852073
0.0852062
0.0852059
0.0852058
0.0852058
0.0852058
0.0852058
0.0852058
0.0852058
0.0852058
0.0852058
0.0852058
0.0852058
0.0852058
0.0852058
0.0852058
0.0852058
0.0852058
0.0852058
0.0852058
0.0852058