/*--------------------------------*- C++ -*----------------------------------*\
| =========                 |                                                 |
| \\      /  F ield         | OpenFOAM: The Open Source CFD Toolbox           |
|  \\    /   O peration     | Version:  v2012                                 |
|   \\  /    A nd           | Website:  www.openfoam.com                      |
|    \\/     M anipulation  |                                                 |
\*---------------------------------------------------------------------------*/
FoamFile
{
    version     2.0;
    format      ascii;
    class       Cloud<basicKinematicParcel>;
    location    "0.061/lagrangian/kinematicCloud";
    object      coordinates;
}
// * * * * * * * * * * * * * * * * * * * * * * * * * * * * * * * * * * * * * //

54
(
(0.108552 0.445724 0.00664759 0.439076) 341 483 1
(0.621103 0.117758 0.071691 0.189449) 840 1680 1
(0.26754 0.36623 0.207026 0.159204) 1140 2278 2
(0.132155 0.433922 0.105417 0.328505) 539 1079 1
(0.330523 0.176338 0.158401 0.334739) 1438 2677 2
(0.000534345 0.499733 0.461197 0.0385363) 1137 2274 2
(0.288191 0.326463 0.355904 0.0294419) 32 62 1
(0.561923 0.219039 0.150722 0.0683165) 1636 3073 1
(0.171021 0.212083 0.202406 0.414489) 1635 3071 2
(0.301393 0.349304 0.0429467 0.306357) 735 1468 2
(0.0318813 0.128269 0.355791 0.484059) 834 1668 1
(0.0654402 0.46728 0.261123 0.206156) 534 869 1
(0.229905 0.0614472 0.3236 0.385048) 1831 3662 1
(0.227485 0.386258 0.060981 0.325277) 131 63 1
(0.108226 0.445887 0.0451869 0.4007) 1831 3660 2
(0.666166 0.0553854 0.166917 0.111531) 931 1860 1
(0.160567 0.40632 0.0133959 0.419716) 330 461 2
(0.00852025 0.49574 0.370833 0.124907) 1829 3459 1
(0.345763 0.327119 0.149259 0.177859) 529 1056 2
(0.177284 0.411358 0.378756 0.0326019) 1629 3256 2
(0.5117 0.24415 0.136978 0.107172) 1328 2457 1
(0.829581 0.0296077 0.0852096 0.0556019) 1727 3452 1
(0.208053 0.293506 0.102468 0.395974) 1326 2652 1
(0.141316 0.429342 0.120706 0.308636) 426 850 2
(0.101778 0.449111 0.180235 0.268876) 825 1650 2
(0.528497 0.235752 0.187034 0.0487177) 1325 2648 2
(0.953494 0.0232531 0.0131468 0.0101064) 324 649 1
(0.381411 0.273051 0.309294 0.0362433) 1424 2849 2
(0.915048 0.0150526 0.0424761 0.0274234) 123 244 1
(0.471043 0.264478 0.0271766 0.237302) 1523 3046 2
(0.133915 0.3073 0.125743 0.433042) 17 22237 1
(0.29375 0.353125 0.187375 0.165751) 222 442 2
(0.38172 0.30914 0.24917 0.0599704) 1920 3641 1
(0.495779 0.161905 0.0902053 0.252111) 1020 2040 1
(0.241584 0.195989 0.379208 0.183219) 520 1041 2
(0.259777 0.370111 0.348719 0.0213926) 1220 2441 1
(0.405979 0.29701 0.177714 0.119296) 719 1239 1
(0.367661 0.316169 0.00334827 0.312821) 818 1636 2
(0.101661 0.44917 0.443781 0.00538892) 1218 2437 1
(0.405662 0.0240803 0.297169 0.273088) 16 33 2
(0.389643 0.121313 0.183866 0.305178) 616 1232 1
(0.0434685 0.44782 0.478266 0.0304458) 1216 2430 1
(0.578488 0.210756 0.206091 0.00466482) 515 1031 1
(0.0258189 0.262409 0.224681 0.487091) 514 829 2
(0.0101536 0.00609707 0.488826 0.494923) 613 1226 1
(0.161196 0.419402 0.196352 0.22305) 1113 2227 1
(0.59706 0.13229 0.0691805 0.20147) 1512 2825 2
(0.154961 0.413962 0.00855791 0.42252) 911 1822 1
(0.134825 0.432587 0.104402 0.328186) 811 1423 1
(0.191579 0.400312 0.00389824 0.404211) 1410 2621 2
(0.0128794 0.206007 0.287553 0.49356) 309 419 2
(0.196363 0.401818 0.343138 0.05868) 709 1419 1
(0.370513 0.314744 0.294318 0.0204254) 1608 3017 1
(0.489297 0.0392812 0.255352 0.21607) 107 215 2
)


// ************************************************************************* //
