/*--------------------------------*- C++ -*----------------------------------*\
| =========                 |                                                 |
| \\      /  F ield         | OpenFOAM: The Open Source CFD Toolbox           |
|  \\    /   O peration     | Version:  v2012                                 |
|   \\  /    A nd           | Website:  www.openfoam.com                      |
|    \\/     M anipulation  |                                                 |
\*---------------------------------------------------------------------------*/
FoamFile
{
    version     2.0;
    format      ascii;
    class       Cloud<basicKinematicParcel>;
    location    "0.061/lagrangian/kinematicCloud";
    object      coordinates;
}
// * * * * * * * * * * * * * * * * * * * * * * * * * * * * * * * * * * * * * //

54
(
(0.429347 0.285326 0.0297403 0.255586) 355 708 2
(0.46405 0.112165 0.155811 0.267975) 855 1710 1
(0.410992 0.0559492 0.238555 0.294504) 1154 2109 2
(0.349755 0.325123 0.279925 0.0451975) 653 1107 1
(0.184572 0.407714 0.217917 0.189797) 1352 2705 1
(0.528609 0.235695 0.117147 0.118549) 1151 2300 2
(0.715145 0.142428 0.0739785 0.0684492) 39 79 1
(0.070093 0.464953 0.138163 0.326791) 1548 3097 1
(0.391521 0.30424 0.188054 0.116185) 1547 3095 1
(0.584493 0.15601 0.0517439 0.207754) 746 1492 1
(0.213703 0.388295 0.393148 0.00485375) 846 1693 2
(0.450248 0.274876 0.118889 0.155986) 545 891 1
(0.122031 0.309539 0.129445 0.438984) 1839 3678 1
(0.215053 0.392474 0.183293 0.209181) 138 276 2
(0.369029 0.315486 0.26456 0.0509256) 1839 3676 2
(0.401932 0.181105 0.117929 0.299034) 940 1880 1
(0.361356 0.319322 0.20854 0.110782) 339 676 2
(0.129223 0.137242 0.435389 0.298147) 1737 3472 1
(0.925841 0.0370793 0.0137378 0.0233416) 537 1072 2
(0.158939 0.420531 0.269186 0.151345) 1537 3075 1
(0.320066 0.339967 0.152994 0.186973) 1336 2473 1
(0.694876 0.152562 0.0861085 0.0664535) 1734 3269 1
(0.159923 0.412962 0.420039 0.0070764) 1334 2666 1
(0.266413 0.341937 0.0248567 0.366793) 432 864 1
(0.511602 0.244199 0.00960985 0.234589) 832 1664 2
(0.46604 0.0310953 0.235885 0.26698) 1331 2463 2
(0.637767 0.147113 0.181117 0.0340037) 330 661 2
(0.607475 0.0540919 0.196263 0.142171) 1430 2861 2
(0.650661 0.174669 0.0733843 0.101285) 128 257 1
(0.269394 0.333843 0.0314604 0.365303) 1529 2859 2
(0.16895 0.369056 0.0464688 0.415525) 18 22238 1
(0.0382 0.4809 0.0356522 0.445248) 227 452 2
(0.205565 0.136823 0.260394 0.397217) 1923 3647 2
(0.546324 0.14658 0.226838 0.0802575) 1025 2048 1
(0.0983763 0.450812 0.313939 0.136873) 525 1051 1
(0.349031 0.325484 0.0949353 0.230549) 1224 2449 1
(0.479927 0.260036 0.128558 0.131478) 723 1247 1
(0.416215 0.243391 0.0485014 0.291893) 822 1445 2
(0.177164 0.372775 0.411418 0.0386427) 1221 2443 2
(0.251607 0.374197 0.359426 0.0147707) 19 39 1
(0.378106 0.0893465 0.2216 0.310947) 619 1238 1
(0.404162 0.294785 0.00313353 0.297919) 1218 2436 1
(0.299882 0.0949693 0.25509 0.350059) 517 1034 1
(0.118621 0.440689 0.0108399 0.42985) 517 835 1
(0.0244093 0.487795 0.121862 0.365933) 716 1233 1
(0.188553 0.405723 0.254056 0.151667) 1115 2231 1
(0.511606 0.244197 0.0685067 0.17569) 1514 2829 1
(0.979175 0.0104127 0.0036491 0.00676356) 913 1827 1
(0.151769 0.349732 0.0743833 0.424116) 812 1425 2
(0.147732 0.181167 0.244967 0.426134) 1411 2623 2
(0.0786128 0.0861412 0.374552 0.460694) 310 421 2
(0.182961 0.40852 0.400098 0.00842175) 710 1421 1
(0.323844 0.338078 0.12679 0.211288) 1609 3019 1
(0.440197 0.279902 0.110849 0.169053) 108 217 1
)


// ************************************************************************* //
