/*--------------------------------*- C++ -*----------------------------------*\
| =========                 |                                                 |
| \\      /  F ield         | OpenFOAM: The Open Source CFD Toolbox           |
|  \\    /   O peration     | Version:  v2012                                 |
|   \\  /    A nd           | Website:  www.openfoam.com                      |
|    \\/     M anipulation  |                                                 |
\*---------------------------------------------------------------------------*/
FoamFile
{
    version     2.0;
    format      ascii;
    class       vectorField;
    location    "0.061/lagrangian/kinematicCloud";
    object      U;
}
// * * * * * * * * * * * * * * * * * * * * * * * * * * * * * * * * * * * * * //


54
(
(15.417 0.0116312 0)
(16.6794 0.00502143 0)
(16.6153 -0.0065662 0)
(16.4102 0.0131218 0)
(16.3279 -0.0152376 0)
(16.4102 -0.0071372 0)
(10.9764 0.00184044 0)
(15.4951 -0.0154717 0)
(15.5424 -0.0159499 0)
(16.1181 0.00901786 0)
(16.1117 0.00374734 0)
(15.8426 0.0147983 0)
(13.0696 -0.00836456 0)
(13.0294 0.00710191 0)
(13.6414 -0.0095304 0)
(15.7143 0.000615578 0)
(14.8688 0.0138558 0)
(14.0473 -0.0118796 0)
(15.4141 0.0145211 0)
(15.0963 -0.0171712 0)
(15.3723 -0.0126417 0)
(14.2885 -0.0146947 0)
(15.1904 -0.0133544 0)
(14.9839 0.0156626 0)
(15.0877 0.00561718 0)
(15.0026 -0.0121763 0)
(14.6414 0.0159142 0)
(14.8811 -0.0158538 0)
(13.3419 0.0112828 0)
(14.7652 -0.0166861 0)
(6.56957 0.000497738 0)
(13.9357 0.0138598 0)
(11.8901 -0.00864469 0)
(14.3967 -0.00284626 0)
(14.392 0.0117694 0)
(14.3042 -0.00988061 0)
(14.2023 0.00801285 0)
(14.103 0.00512011 0)
(14.0011 -0.00959102 0)
(11.9366 0.00665511 0)
(13.7922 0.00889685 0)
(13.6813 -0.00806407 0)
(13.5714 0.0107204 0)
(13.4612 0.0118506 0)
(13.3438 0.00743277 0)
(13.2258 -0.00578556 0)
(13.1087 -0.0126599 0)
(12.9831 0.000789767 0)
(12.8585 0.00422519 0)
(12.7347 -0.00924406 0)
(12.5905 0.0118321 0)
(12.4713 0.00398176 0)
(12.3397 -0.0105934 0)
(12.1098 0.0101404 0)
)


// ************************************************************************* //
