/*--------------------------------*- C++ -*----------------------------------*\
| =========                 |                                                 |
| \\      /  F ield         | OpenFOAM: The Open Source CFD Toolbox           |
|  \\    /   O peration     | Version:  v2012                                 |
|   \\  /    A nd           | Website:  www.openfoam.com                      |
|    \\/     M anipulation  |                                                 |
\*---------------------------------------------------------------------------*/
FoamFile
{
    version     2.0;
    format      ascii;
    class       volScalarField;
    location    "0.206";
    object      p;
}
// * * * * * * * * * * * * * * * * * * * * * * * * * * * * * * * * * * * * * //

dimensions      [0 2 -2 0 0 0 0];


internalField   nonuniform List<scalar> 
5600
(
-0.773341
-1.23158
-1.6121
-1.93079
-2.24111
-2.55171
-2.85279
-3.13488
-3.3978
-3.6475
-3.8851
-4.10868
-4.3239
-4.52997
-4.72976
-4.92677
-5.11718
-5.30841
-5.49516
-5.68011
-5.86361
-6.04258
-6.22184
-6.39609
-6.57241
-6.74565
-6.91766
-7.08965
-7.25987
-7.43079
-7.5992
-7.76921
-7.93694
-8.10471
-8.2724
-8.43836
-8.60495
-8.76983
-8.93501
-9.09919
-9.26274
-9.42606
-9.58814
-9.75031
-9.91087
-10.072
-10.2321
-10.3918
-10.551
-10.7097
-10.8681
-11.0259
-11.1835
-11.3401
-11.4969
-11.6528
-11.8086
-11.9639
-12.1186
-12.2731
-12.4269
-12.5803
-12.7332
-12.8859
-13.0387
-13.1909
-13.343
-13.4942
-13.6453
-13.796
-13.9461
-14.0963
-14.2458
-14.3955
-14.5448
-14.6939
-14.8429
-14.9916
-15.14
-15.288
-15.4356
-15.583
-15.7298
-15.877
-16.0238
-16.1708
-16.3175
-16.4639
-16.6104
-16.7565
-16.9022
-17.0477
-17.1937
-17.3395
-17.4858
-17.6323
-17.7813
-17.9349
-18.092
-18.3342
-0.832373
-1.25175
-1.62876
-1.94856
-2.25911
-2.57006
-2.87102
-3.15344
-3.41662
-3.66646
-3.90423
-4.12814
-4.34367
-4.55013
-4.75025
-4.94763
-5.13827
-5.32978
-5.51672
-5.7017
-5.88545
-6.06448
-6.24385
-6.41817
-6.59465
-6.76804
-6.94008
-7.11223
-7.28248
-7.45354
-7.622
-7.79211
-7.95984
-8.12765
-8.29539
-8.46135
-8.628
-8.79289
-8.95812
-9.12234
-9.2859
-9.44927
-9.61136
-9.77358
-9.93414
-10.0953
-10.2554
-10.4151
-10.5743
-10.733
-10.8915
-11.0492
-11.2068
-11.3634
-11.5202
-11.6761
-11.8319
-11.9872
-12.1418
-12.2964
-12.4501
-12.6034
-12.7564
-12.909
-13.0619
-13.214
-13.3662
-13.5173
-13.6684
-13.8191
-13.9692
-14.1195
-14.269
-14.4186
-14.5679
-14.717
-14.8661
-15.0147
-15.1631
-15.3111
-15.4586
-15.6061
-15.7529
-15.9001
-16.0469
-16.1939
-16.3405
-16.4871
-16.6334
-16.7797
-16.9251
-17.071
-17.2165
-17.363
-17.5082
-17.6564
-17.8024
-17.96
-18.112
-18.3466
-0.870621
-1.26435
-1.64157
-1.96187
-2.27033
-2.57877
-2.87863
-3.16069
-3.42354
-3.67324
-3.9105
-4.13467
-4.35018
-4.55655
-4.7569
-4.95398
-5.14498
-5.33629
-5.52325
-5.7084
-5.89187
-6.07121
-6.25057
-6.42505
-6.60135
-6.77482
-6.94675
-7.11881
-7.28909
-7.46001
-7.62845
-7.79846
-7.96631
-8.13407
-8.30183
-8.46775
-8.63437
-8.79926
-8.96441
-9.12863
-9.2921
-9.45543
-9.61742
-9.77957
-9.94008
-10.1012
-10.2614
-10.4211
-10.5802
-10.739
-10.8974
-11.0552
-11.2128
-11.3694
-11.5262
-11.6822
-11.8381
-11.9935
-12.1482
-12.3028
-12.4566
-12.61
-12.763
-12.9157
-13.0686
-13.2208
-13.3729
-13.5242
-13.6753
-13.8261
-13.9761
-14.1265
-14.276
-14.4257
-14.575
-14.7241
-14.8732
-15.0219
-15.1703
-15.3183
-15.4659
-15.6134
-15.7602
-15.9073
-16.0542
-16.2011
-16.3478
-16.4944
-16.6408
-16.7871
-16.9325
-17.0784
-17.2239
-17.3704
-17.5157
-17.6639
-17.8103
-17.9683
-18.1195
-18.3448
-0.919371
-1.28079
-1.657
-1.97867
-2.2859
-2.59343
-2.8936
-3.17639
-3.43975
-3.68988
-3.92763
-4.15187
-4.36782
-4.57435
-4.77494
-4.97162
-5.16289
-5.35355
-5.54042
-5.72528
-5.90838
-6.08798
-6.26699
-6.44188
-6.61813
-6.79187
-6.96425
-7.13656
-7.30717
-7.47822
-7.64693
-7.81698
-7.98496
-8.15271
-8.32055
-8.48656
-8.65327
-8.81828
-8.9835
-9.14788
-9.31146
-9.47495
-9.63714
-9.79948
-9.96016
-10.1213
-10.2815
-10.4413
-10.6005
-10.7593
-10.9178
-11.0757
-11.2333
-11.39
-11.5467
-11.7026
-11.8584
-12.0138
-12.1682
-12.3228
-12.4765
-12.6298
-12.7828
-12.9354
-13.0882
-13.2403
-13.3924
-13.5436
-13.6946
-13.8454
-13.9954
-14.1457
-14.2952
-14.4448
-14.5942
-14.7431
-14.8923
-15.041
-15.1893
-15.3373
-15.4848
-15.6323
-15.7791
-15.9262
-16.0732
-16.22
-16.3668
-16.5133
-16.6597
-16.8058
-16.9514
-17.0971
-17.2429
-17.389
-17.5347
-17.682
-17.8292
-17.985
-18.1408
-18.3442
-0.969027
-1.2979
-1.67273
-1.99683
-2.30253
-2.60918
-2.90904
-3.19168
-3.45504
-3.705
-3.94295
-4.16696
-4.38313
-4.58975
-4.79081
-4.98733
-5.17911
-5.36965
-5.55666
-5.74185
-5.92461
-6.10466
-6.28312
-6.45841
-6.63405
-6.80772
-6.98003
-7.1519
-7.32261
-7.49321
-7.66217
-7.83193
-8.00014
-8.1679
-8.33572
-8.50186
-8.66841
-8.83361
-8.99866
-9.16304
-9.32657
-9.48991
-9.65203
-9.81422
-9.97491
-10.136
-10.2962
-10.4559
-10.615
-10.7738
-10.9322
-11.0899
-11.2475
-11.4041
-11.5608
-11.7169
-11.8727
-12.0281
-12.1828
-12.3375
-12.4912
-12.6447
-12.7978
-12.9504
-13.1034
-13.2556
-13.4078
-13.5591
-13.7102
-13.861
-14.011
-14.1614
-14.311
-14.4605
-14.61
-14.759
-14.9082
-15.0569
-15.2053
-15.3533
-15.5009
-15.6484
-15.7953
-15.9423
-16.0893
-16.2361
-16.3829
-16.5294
-16.6759
-16.822
-16.9677
-17.1134
-17.2592
-17.4052
-17.551
-17.6983
-17.8452
-18.0007
-18.1534
-18.3485
-1.01908
-1.31722
-1.68998
-2.01708
-2.3212
-2.62681
-2.92635
-3.20895
-3.47261
-3.72274
-3.96087
-4.1853
-4.40172
-4.6086
-4.80989
-5.00644
-5.19849
-5.3889
-5.57595
-5.76129
-5.94361
-6.12408
-6.30212
-6.47793
-6.65325
-6.82707
-6.99956
-7.17115
-7.34233
-7.51241
-7.68174
-7.85116
-8.01941
-8.18715
-8.35466
-8.52102
-8.68718
-8.85253
-9.01742
-9.18174
-9.34544
-9.5088
-9.67115
-9.83326
-9.99418
-10.1552
-10.3155
-10.4753
-10.6345
-10.7934
-10.9519
-11.1097
-11.2673
-11.424
-11.5808
-11.7368
-11.8927
-12.0481
-12.2027
-12.3574
-12.5112
-12.6644
-12.8174
-12.97
-13.1229
-13.2751
-13.4272
-13.5785
-13.7295
-13.8803
-14.0304
-14.1806
-14.3303
-14.4797
-14.6293
-14.7782
-14.9274
-15.0762
-15.2245
-15.3725
-15.5201
-15.6675
-15.8145
-15.9615
-16.1085
-16.2554
-16.4021
-16.5486
-16.695
-16.8412
-16.9869
-17.1326
-17.2784
-17.4244
-17.5701
-17.7172
-17.864
-18.018
-18.1695
-18.3548
-1.06851
-1.33906
-1.70901
-2.03937
-2.34206
-2.64657
-2.9459
-3.22845
-3.49241
-3.74265
-3.98078
-4.20561
-4.42199
-4.6291
-4.83048
-5.02708
-5.21936
-5.40965
-5.5968
-5.78213
-5.9644
-6.145
-6.32296
-6.49904
-6.67419
-6.84804
-7.02067
-7.19207
-7.36356
-7.53333
-7.7029
-7.87216
-8.04043
-8.20833
-8.37559
-8.54227
-8.70812
-8.87362
-9.03845
-9.20259
-9.36651
-9.52962
-9.6921
-9.85393
-10.015
-10.1758
-10.336
-10.4957
-10.6549
-10.8137
-10.9721
-11.1299
-11.2875
-11.4444
-11.601
-11.7571
-11.913
-12.0684
-12.2231
-12.3776
-12.5315
-12.6848
-12.8379
-12.9905
-13.1434
-13.2958
-13.4477
-13.5992
-13.7501
-13.9009
-14.0511
-14.2012
-14.351
-14.5004
-14.6501
-14.7991
-14.9482
-15.097
-15.2453
-15.3933
-15.541
-15.6883
-15.8354
-15.9824
-16.1294
-16.2763
-16.423
-16.5696
-16.716
-16.8622
-17.0078
-17.1535
-17.2993
-17.4453
-17.591
-17.7378
-17.8844
-18.0368
-18.1866
-18.3615
-1.11548
-1.36357
-1.73038
-2.06383
-2.36535
-2.66879
-2.96801
-3.2505
-3.51468
-3.76501
-4.00311
-4.22835
-4.44464
-4.65206
-4.85352
-5.05023
-5.24272
-5.43294
-5.62018
-5.80546
-5.9878
-6.16832
-6.34633
-6.52252
-6.6976
-6.87146
-7.04413
-7.21554
-7.38699
-7.55682
-7.72643
-7.89562
-8.06391
-8.23191
-8.39903
-8.5658
-8.73162
-8.89713
-9.06197
-9.2261
-9.39016
-9.55302
-9.71565
-9.87731
-10.0385
-10.1992
-10.3596
-10.5191
-10.6784
-10.8372
-10.9955
-11.1534
-11.3107
-11.4678
-11.6244
-11.7806
-11.9362
-12.0916
-12.2463
-12.4007
-12.5545
-12.7079
-12.8609
-13.0137
-13.1665
-13.3189
-13.4706
-13.6223
-13.7733
-13.9239
-14.0743
-14.2243
-14.3742
-14.5235
-14.6732
-14.8223
-14.9713
-15.1202
-15.2684
-15.4164
-15.5641
-15.7113
-15.8585
-16.0055
-16.1526
-16.2995
-16.4461
-16.5927
-16.7391
-16.8852
-17.031
-17.1767
-17.3224
-17.4684
-17.614
-17.7605
-17.9068
-18.0573
-18.2046
-18.369
-1.15846
-1.39065
-1.75469
-2.09061
-2.39127
-2.69384
-2.993
-3.27539
-3.53975
-3.79018
-4.02825
-4.25383
-4.47004
-4.67772
-4.87921
-5.07598
-5.26863
-5.45877
-5.64607
-5.83127
-6.01371
-6.19408
-6.3722
-6.54844
-6.7235
-6.89736
-7.07005
-7.24152
-7.41285
-7.58284
-7.75241
-7.92155
-8.0899
-8.25786
-8.425
-8.59175
-8.75759
-8.92308
-9.08793
-9.25211
-9.41609
-9.57894
-9.7416
-9.90327
-10.0645
-10.2252
-10.3855
-10.5451
-10.7044
-10.8632
-11.0215
-11.1794
-11.3366
-11.4939
-11.6504
-11.8066
-11.9622
-12.1174
-12.2723
-12.4265
-12.5804
-12.7337
-12.8867
-13.0396
-13.1922
-13.3448
-13.4963
-13.648
-13.799
-13.9495
-14.1001
-14.2499
-14.3998
-14.5492
-14.6986
-14.8479
-14.9967
-15.1458
-15.294
-15.4419
-15.5897
-15.7368
-15.884
-16.031
-16.1781
-16.325
-16.4715
-16.6182
-16.7647
-16.9108
-17.0565
-17.2022
-17.348
-17.4938
-17.6393
-17.7856
-17.9312
-18.0798
-18.2242
-18.3772
-1.19564
-1.41986
-1.78251
-2.11988
-2.42004
-2.72212
-3.0213
-3.30357
-3.56802
-3.81857
-4.05657
-4.28238
-4.4985
-4.70635
-4.90784
-5.10465
-5.29743
-5.48751
-5.67487
-5.86
-6.04254
-6.22278
-6.40097
-6.57727
-6.75231
-6.92616
-7.09882
-7.27037
-7.44158
-7.61172
-7.78124
-7.95034
-8.11876
-8.28665
-8.45385
-8.62055
-8.78644
-8.95191
-9.11675
-9.28099
-9.44489
-9.60779
-9.77041
-9.93211
-10.0934
-10.254
-10.4143
-10.574
-10.7332
-10.892
-11.0503
-11.2082
-11.3655
-11.5227
-11.6792
-11.8354
-11.991
-12.1463
-12.3011
-12.4554
-12.6092
-12.7626
-12.9156
-13.0685
-13.2211
-13.3736
-13.5252
-13.6769
-13.8279
-13.9783
-14.1289
-14.2787
-14.4287
-14.5781
-14.7274
-14.8768
-15.0254
-15.1745
-15.3226
-15.4705
-15.6183
-15.7653
-15.9127
-16.0596
-16.2066
-16.3536
-16.5
-16.6466
-16.7931
-16.9392
-17.085
-17.2307
-17.3764
-17.5221
-17.6676
-17.8134
-17.9583
-18.1047
-18.2457
-18.3873
-1.223
-1.44916
-1.81291
-2.15022
-2.45029
-2.75249
-3.05179
-3.33387
-3.59835
-3.84899
-4.0869
-4.31279
-4.52881
-4.73671
-4.93817
-5.13497
-5.32785
-5.51786
-5.70525
-5.89032
-6.07292
-6.25307
-6.43126
-6.60763
-6.78263
-6.95648
-7.12908
-7.3007
-7.47185
-7.64206
-7.81157
-7.98063
-8.14911
-8.31693
-8.48419
-8.65085
-8.81676
-8.98224
-9.14703
-9.31136
-9.47519
-9.63811
-9.8007
-9.96243
-10.1237
-10.2844
-10.4446
-10.6044
-10.7635
-10.9223
-11.0806
-11.2385
-11.3958
-11.5529
-11.7096
-11.8657
-12.0213
-12.1766
-12.3314
-12.4857
-12.6395
-12.7929
-12.946
-13.0988
-13.2514
-13.4038
-13.5555
-13.7072
-13.8581
-14.0088
-14.1591
-14.3091
-14.459
-14.6084
-14.7577
-14.907
-15.0557
-15.2047
-15.3529
-15.5008
-15.6486
-15.7957
-15.943
-16.09
-16.237
-16.3838
-16.5304
-16.677
-16.8234
-16.9695
-17.1153
-17.261
-17.4067
-17.5524
-17.6977
-17.8431
-17.9873
-18.1314
-18.2689
-18.4008
-1.23779
-1.47582
-1.84296
-2.17867
-2.47909
-2.78201
-3.08153
-3.36336
-3.62781
-3.87851
-4.11627
-4.34213
-4.55802
-4.76587
-4.96726
-5.16401
-5.35693
-5.54687
-5.73428
-5.91931
-6.10194
-6.282
-6.46016
-6.63661
-6.81156
-6.98542
-7.15796
-7.32963
-7.50076
-7.67097
-7.84052
-8.00952
-8.17806
-8.34581
-8.51314
-8.67976
-8.84566
-9.01118
-9.1759
-9.34032
-9.50409
-9.66701
-9.82959
-9.99132
-10.1526
-10.3133
-10.4735
-10.6333
-10.7924
-10.9512
-11.1096
-11.2674
-11.4248
-11.5819
-11.7385
-11.8945
-12.0502
-12.2055
-12.3602
-12.5146
-12.6684
-12.8219
-12.9748
-13.1277
-13.2803
-13.4326
-13.5845
-13.736
-13.8871
-14.0377
-14.1881
-14.3381
-14.4879
-14.6374
-14.7867
-14.936
-15.0848
-15.2337
-15.382
-15.53
-15.6778
-15.825
-15.9722
-16.1192
-16.2661
-16.413
-16.5597
-16.7063
-16.8528
-16.9989
-17.1448
-17.2905
-17.4361
-17.5817
-17.7269
-17.8719
-18.0155
-18.1575
-18.2921
-18.4166
-1.2415
-1.49939
-1.871
-2.20401
-2.50516
-2.80917
-3.10896
-3.3905
-3.65489
-3.90566
-4.14322
-4.36898
-4.5847
-4.79244
-4.99371
-5.19037
-5.38331
-5.5732
-5.76059
-5.9456
-6.12825
-6.30824
-6.48633
-6.66285
-6.83774
-7.0116
-7.18408
-7.35576
-7.5269
-7.69709
-7.86668
-8.03562
-8.20422
-8.37192
-8.53928
-8.7059
-8.87178
-9.03733
-9.20202
-9.36652
-9.53022
-9.69318
-9.85571
-10.0174
-10.1787
-10.3394
-10.4996
-10.6594
-10.8185
-10.9773
-11.1356
-11.2935
-11.4509
-11.608
-11.7646
-11.9207
-12.0764
-12.2317
-12.3865
-12.5408
-12.6947
-12.8481
-13.0012
-13.154
-13.3066
-13.459
-13.6108
-13.7624
-13.9135
-14.0641
-14.2147
-14.3646
-14.5145
-14.664
-14.8133
-14.9626
-15.1114
-15.2603
-15.4087
-15.5567
-15.7044
-15.8517
-15.9988
-16.1457
-16.2926
-16.4395
-16.5861
-16.7327
-16.879
-17.0251
-17.1711
-17.3169
-17.4625
-17.6081
-17.7533
-17.8979
-18.0408
-18.1815
-18.3139
-18.4329
-1.23643
-1.52072
-1.89696
-2.22665
-2.52888
-2.83414
-3.13425
-3.41541
-3.67973
-3.93053
-4.1679
-4.39349
-4.60905
-4.81664
-5.01777
-5.21431
-5.40723
-5.59707
-5.78443
-5.96946
-6.1521
-6.33203
-6.51005
-6.68664
-6.86147
-7.03532
-7.20776
-7.3794
-7.5506
-7.72074
-7.89037
-8.05926
-8.22788
-8.39558
-8.5629
-8.72953
-8.89541
-9.06088
-9.22563
-9.39014
-9.55384
-9.71678
-9.87931
-10.0411
-10.2023
-10.363
-10.5233
-10.6831
-10.8423
-11.0011
-11.1595
-11.3172
-11.4748
-11.6319
-11.7885
-11.9447
-12.1004
-12.2557
-12.4106
-12.5649
-12.7189
-12.8723
-13.0254
-13.1782
-13.3307
-13.483
-13.6348
-13.7865
-13.9375
-14.0882
-14.2387
-14.3886
-14.5385
-14.688
-14.8373
-14.9866
-15.1354
-15.2842
-15.4327
-15.5807
-15.7284
-15.8758
-16.0229
-16.1699
-16.3168
-16.4637
-16.6105
-16.7572
-16.9036
-17.0498
-17.1955
-17.3412
-17.4868
-17.6323
-17.7773
-17.9218
-18.0644
-18.2036
-18.3342
-18.4492
-1.2251
-1.54018
-1.92059
-2.24688
-2.55042
-2.85702
-3.15755
-3.43833
-3.70258
-3.95335
-4.19051
-4.41583
-4.63121
-4.83862
-5.0396
-5.23601
-5.42888
-5.61866
-5.80596
-5.99101
-6.17357
-6.35346
-6.53139
-6.70804
-6.88281
-7.05667
-7.22905
-7.40065
-7.57197
-7.74198
-7.91167
-8.08054
-8.24915
-8.41695
-8.58417
-8.75093
-8.9168
-9.08229
-9.2472
-9.41164
-9.57538
-9.73835
-9.90098
-10.0628
-10.2241
-10.3849
-10.5452
-10.705
-10.8643
-11.023
-11.1814
-11.3391
-11.4967
-11.6538
-11.8103
-11.9665
-12.1221
-12.2775
-12.4323
-12.5866
-12.7406
-12.894
-13.0471
-13.1998
-13.3524
-13.5047
-13.6565
-13.8082
-13.9592
-14.1098
-14.2603
-14.4102
-14.5601
-14.7096
-14.8589
-15.0081
-15.1569
-15.3057
-15.4541
-15.6021
-15.7497
-15.897
-16.044
-16.1909
-16.3378
-16.4846
-16.6311
-16.7776
-16.924
-17.0701
-17.216
-17.3618
-17.5075
-17.6531
-17.798
-17.9423
-18.0843
-18.2234
-18.353
-18.4653
-1.20956
-1.55816
-1.94182
-2.26505
-2.56997
-2.87781
-3.17881
-3.45924
-3.7235
-3.9742
-4.21125
-4.4363
-4.65141
-4.85859
-5.05951
-5.25577
-5.44864
-5.63832
-5.8257
-6.01079
-6.19327
-6.37315
-6.55094
-6.7276
-6.90227
-7.07609
-7.24849
-7.42009
-7.5915
-7.76144
-7.93127
-8.10012
-8.26882
-8.43681
-8.60401
-8.771
-8.93684
-9.10247
-9.26739
-9.43173
-9.59545
-9.75836
-9.921
-10.0828
-10.2441
-10.4049
-10.5651
-10.7249
-10.8842
-11.0429
-11.2013
-11.3591
-11.5166
-11.6737
-11.8302
-11.9865
-12.1421
-12.2975
-12.4522
-12.6066
-12.7606
-12.9139
-13.0671
-13.2198
-13.3724
-13.5247
-13.6765
-13.8282
-13.9792
-14.1299
-14.2804
-14.4304
-14.5802
-14.7297
-14.8791
-15.0283
-15.1772
-15.326
-15.4744
-15.6225
-15.7702
-15.9176
-16.0648
-16.2118
-16.3587
-16.5056
-16.6524
-16.7991
-16.9455
-17.0916
-17.2375
-17.3831
-17.5287
-17.6741
-17.819
-17.9633
-18.1052
-18.2422
-18.3706
-18.4809
-1.19083
-1.57485
-1.96088
-2.28189
-2.58815
-2.8969
-3.1981
-3.47804
-3.74228
-3.99276
-4.2295
-4.45478
-4.66945
-4.87622
-5.07695
-5.27298
-5.46574
-5.65525
-5.84268
-6.02765
-6.21011
-6.39012
-6.56795
-6.74488
-6.91966
-7.09358
-7.2662
-7.43786
-7.60944
-7.77934
-7.9492
-8.11791
-8.28651
-8.45449
-8.62155
-8.78854
-8.95427
-9.11987
-9.28471
-9.44902
-9.61273
-9.77558
-9.93816
-10.0999
-10.2612
-10.4219
-10.5821
-10.7419
-10.9011
-11.0598
-11.2182
-11.3758
-11.5333
-11.6904
-11.8468
-12.0031
-12.1586
-12.314
-12.4686
-12.623
-12.7769
-12.9302
-13.0834
-13.236
-13.3885
-13.5408
-13.6926
-13.8442
-13.9951
-14.1458
-14.2962
-14.4461
-14.5959
-14.7453
-14.8946
-15.0437
-15.1925
-15.3413
-15.4896
-15.6376
-15.7852
-15.9324
-16.0795
-16.2263
-16.3732
-16.52
-16.6666
-16.8131
-16.9594
-17.1055
-17.2514
-17.3971
-17.5427
-17.6882
-17.8331
-17.9773
-18.1192
-18.2575
-18.3857
-18.4954
-1.16997
-1.58918
-1.97647
-2.29684
-2.60502
-2.91539
-3.21691
-3.49639
-3.76064
-4.01099
-4.24748
-4.47302
-4.68737
-4.89397
-5.09474
-5.29086
-5.48384
-5.67369
-5.86142
-6.04666
-6.22927
-6.4094
-6.58726
-6.76422
-6.9389
-7.1126
-7.28503
-7.45653
-7.6281
-7.79792
-7.96782
-8.13656
-8.30517
-8.47319
-8.64025
-8.80728
-8.97303
-9.13868
-9.30352
-9.46786
-9.63159
-9.79446
-9.95701
-10.1187
-10.28
-10.4408
-10.601
-10.7608
-10.9201
-11.0788
-11.2372
-11.3949
-11.5524
-11.7095
-11.866
-12.0223
-12.1779
-12.3333
-12.488
-12.6424
-12.7964
-12.9497
-13.1029
-13.2556
-13.4081
-13.5604
-13.7123
-13.8639
-14.0149
-14.1657
-14.3161
-14.4661
-14.6159
-14.7654
-14.9147
-15.0639
-15.2128
-15.3615
-15.51
-15.658
-15.8058
-15.9531
-16.1002
-16.2472
-16.3941
-16.5409
-16.6877
-16.8343
-16.9807
-17.1268
-17.2727
-17.4184
-17.5639
-17.7094
-17.8542
-17.9983
-18.1398
-18.2766
-18.4033
-18.5115
-1.15537
-1.60376
-1.98871
-2.30639
-2.61538
-2.92753
-3.22956
-3.50851
-3.77291
-4.02327
-4.25965
-4.48479
-4.69898
-4.90545
-5.10613
-5.30212
-5.495
-5.68471
-5.87233
-6.05738
-6.23969
-6.41942
-6.59706
-6.77382
-6.94837
-7.12195
-7.29419
-7.46557
-7.63707
-7.8068
-7.97663
-8.14527
-8.3138
-8.48174
-8.64871
-8.81568
-8.98135
-9.14693
-9.31171
-9.47598
-9.63965
-9.80247
-9.96498
-10.1267
-10.2879
-10.4486
-10.6088
-10.7685
-10.9277
-11.0864
-11.2448
-11.4025
-11.5599
-11.717
-11.8734
-12.0296
-12.1852
-12.3405
-12.4952
-12.6496
-12.8035
-12.9568
-13.1099
-13.2625
-13.4151
-13.5674
-13.7191
-13.8708
-14.0217
-14.1724
-14.3228
-14.4727
-14.6225
-14.7719
-14.9212
-15.0704
-15.2192
-15.368
-15.5163
-15.6643
-15.812
-15.9593
-16.1063
-16.2532
-16.4001
-16.547
-16.6936
-16.8401
-16.9865
-17.1326
-17.2785
-17.4242
-17.5697
-17.7152
-17.86
-18.0042
-18.1459
-18.2835
-18.4107
-18.5194
-1.1249
-1.61859
-2.01232
-2.33054
-2.63973
-2.95239
-3.25518
-3.53316
-3.79788
-4.04835
-4.28463
-4.50958
-4.72356
-4.92974
-5.13016
-5.32591
-5.51861
-5.70817
-5.8957
-6.08067
-6.263
-6.4428
-6.6204
-6.79716
-6.97165
-7.14521
-7.31746
-7.48879
-7.66024
-7.82994
-7.99973
-8.16839
-8.33689
-8.50482
-8.6718
-8.83875
-9.00444
-9.17
-9.33479
-9.49907
-9.66274
-9.82557
-9.98807
-10.1498
-10.311
-10.4717
-10.6319
-10.7917
-10.9509
-11.1095
-11.2679
-11.4256
-11.5831
-11.7401
-11.8966
-12.0528
-12.2084
-12.3637
-12.5184
-12.6728
-12.8267
-12.98
-13.1332
-13.2858
-13.4383
-13.5906
-13.7424
-13.894
-14.045
-14.1957
-14.3461
-14.496
-14.6458
-14.7953
-14.9446
-15.0937
-15.2426
-15.3913
-15.5397
-15.6877
-15.8354
-15.9827
-16.1297
-16.2767
-16.4236
-16.5704
-16.7171
-16.8636
-17.01
-17.1561
-17.302
-17.4476
-17.5932
-17.7387
-17.8835
-18.0276
-18.1692
-18.3065
-18.4333
-18.5416
-18.2997
-18.5919
-19.3131
-19.4376
-18.8976
-17.8244
-16.3731
-14.6754
-12.9117
-11.1803
-9.57352
-8.12447
-6.85024
-5.74421
-4.7947
-3.9815
-3.28391
-2.68275
-2.16244
-1.71073
-1.31728
-0.971775
-0.667177
-0.397396
-0.157418
0.0550866
0.240439
0.402264
0.538757
0.653228
0.749351
0.825939
0.885086
0.92974
0.964008
0.991609
1.01737
1.04443
1.0732
1.10231
1.13007
1.15282
1.1667
1.17337
1.17546
1.17157
1.1706
1.18039
1.20002
1.2409
1.26112
1.24535
1.20827
1.18397
1.16659
1.15459
1.14207
1.13371
1.13121
1.12679
1.12114
1.10627
1.07962
1.04079
1.00366
0.963954
0.928394
0.903923
0.88437
0.869657
0.859797
0.853732
0.848089
0.840168
0.827281
0.809902
0.789091
0.76587
0.740899
0.714596
0.687191
0.658865
0.629516
0.599454
0.568735
0.537151
0.504636
0.47173
0.438748
0.405664
0.37208
0.338915
0.306176
0.272774
0.238085
0.203044
0.165548
0.125496
0.0783323
0.0324678
-18.3458
-18.5173
-19.207
-19.3478
-18.8202
-17.7671
-16.3378
-14.6596
-12.9116
-11.1917
-9.59328
-8.14907
-6.87724
-5.77198
-4.82209
-4.00759
-3.30829
-2.70512
-2.18262
-1.72894
-1.33368
-0.987149
-0.680685
-0.409996
-0.169702
0.0429037
0.22769
0.388231
0.523123
0.636253
0.729913
0.803785
0.861763
0.905929
0.940315
0.968823
0.996037
1.02452
1.05438
1.08405
1.11168
1.13289
1.1444
1.14889
1.15007
1.14562
1.14433
1.15564
1.17893
1.22717
1.25413
1.24286
1.2088
1.18364
1.16487
1.14979
1.13502
1.12458
1.1194
1.11248
1.10541
1.08887
1.06173
1.02298
0.98675
0.947949
0.913214
0.889687
0.870809
0.856522
0.846706
0.840686
0.835079
0.826976
0.813911
0.796508
0.775806
0.752745
0.727915
0.701705
0.674346
0.646019
0.616681
0.586603
0.555815
0.524217
0.491731
0.458909
0.425976
0.392934
0.359503
0.326405
0.293798
0.26064
0.226423
0.191927
0.155496
0.116997
0.0727731
0.0293878
-18.3402
-18.5232
-19.133
-19.2561
-18.7335
-17.6974
-16.2906
-14.6342
-12.9055
-11.2013
-9.61362
-8.17642
-6.9088
-5.80496
-4.85455
-4.0382
-3.33664
-2.731
-2.20587
-1.74966
-1.35217
-1.00468
-0.696178
-0.424098
-0.183511
0.0291008
0.213256
0.372277
0.504895
0.615946
0.707081
0.778515
0.835068
0.878615
0.913149
0.942827
0.971863
1.00225
1.03362
1.0641
1.09129
1.11065
1.11951
1.12152
1.12166
1.11644
1.11463
1.12791
1.15583
1.21176
1.24686
1.24073
1.21103
1.18397
1.16396
1.14514
1.1274
1.11461
1.10682
1.09675
1.08783
1.06938
1.04147
1.00321
0.967951
0.930283
0.896424
0.874007
0.855937
0.842135
0.832484
0.826378
0.820779
0.812424
0.799151
0.781717
0.761151
0.738267
0.71358
0.687462
0.660146
0.631816
0.602484
0.572396
0.541576
0.509925
0.477449
0.444672
0.411788
0.378841
0.345631
0.312638
0.280038
0.247167
0.213511
0.179634
0.144392
0.107628
0.0666487
0.0260412
-18.3681
-18.5416
-19.0717
-19.1727
-18.6452
-17.6216
-16.2352
-14.6036
-12.8958
-11.21
-9.63486
-8.20666
-6.94451
-5.84257
-4.89166
-4.07336
-3.3691
-2.76065
-2.23271
-1.77361
-1.37339
-1.02361
-0.713415
-0.439185
-0.198417
0.0138349
0.197138
0.354273
0.48407
0.592588
0.680943
0.74967
0.804238
0.847105
0.88216
0.913454
0.944877
0.977678
1.01101
1.04234
1.06889
1.08609
1.09183
1.09107
1.09004
1.08379
1.08123
1.09676
1.13018
1.19395
1.2395
1.23924
1.21498
1.18555
1.16403
1.14076
1.11926
1.10365
1.09324
1.07977
1.06825
1.04753
1.01848
0.981284
0.94709
0.910811
0.877916
0.856714
0.839665
0.826427
0.817019
0.810777
0.805111
0.796419
0.782891
0.765425
0.745006
0.7223
0.697755
0.671728
0.644452
0.616113
0.586779
0.55668
0.525833
0.494142
0.461671
0.428911
0.396052
0.363195
0.330281
0.297472
0.264815
0.2322
0.199201
0.166034
0.132118
0.0972927
0.0598917
0.0224016
-18.389
-18.5509
-19.0101
-19.0877
-18.5585
-17.5458
-16.1768
-14.5716
-12.8862
-11.2207
-9.66003
-8.24207
-6.9856
-5.88576
-4.93448
-4.1143
-3.40685
-2.79514
-2.26387
-1.80117
-1.39755
-1.04461
-0.732242
-0.455843
-0.21416
-0.00257875
0.179552
0.33418
0.460962
0.566476
0.651133
0.716806
0.769178
0.811303
0.847375
0.880764
0.91517
0.950793
0.986095
1.01825
1.04412
1.0591
1.06139
1.05756
1.05514
1.04772
1.04415
1.06254
1.10241
1.17238
1.23154
1.23873
1.2206
1.18939
1.16519
1.13674
1.11056
1.09156
1.07814
1.06178
1.04652
1.02306
0.992465
0.957001
0.923983
0.889399
0.857698
0.83758
0.821922
0.80936
0.800213
0.793923
0.787998
0.778884
0.765038
0.747524
0.72724
0.704697
0.680284
0.654344
0.627104
0.598749
0.569405
0.539289
0.50842
0.476692
0.444224
0.411486
0.378654
0.345844
0.313238
0.280629
0.247975
0.215674
0.183372
0.150986
0.118539
0.085874
0.0524237
0.0184284
-18.4077
-18.5576
-18.9447
-18.9938
-18.4649
-17.4636
-16.1167
-14.5406
-12.8793
-11.2358
-9.6911
-8.28464
-7.03455
-5.93717
-4.98541
-4.16298
-3.4515
-2.83554
-2.29995
-1.83252
-1.42464
-1.06793
-0.752482
-0.474209
-0.23124
-0.0199051
0.161081
0.312548
0.436572
0.537748
0.617582
0.680247
0.730492
0.771698
0.808373
0.844018
0.881887
0.921023
0.958616
0.991712
1.01682
1.02952
1.02826
1.02141
1.01709
1.00818
1.0037
1.02569
1.07411
1.14901
1.2201
1.23845
1.22808
1.19617
1.16734
1.13309
1.10125
1.07824
1.06095
1.04293
1.02264
0.99576
0.963357
0.930126
0.898445
0.865913
0.835792
0.816401
0.802657
0.790914
0.782054
0.775755
0.769426
0.759788
0.745523
0.727911
0.707719
0.685306
0.661005
0.635142
0.60793
0.579548
0.550184
0.520046
0.489154
0.45739
0.424927
0.392216
0.359427
0.326645
0.294298
0.261855
0.229368
0.19746
0.16585
0.134318
0.103496
0.0732333
0.0441518
0.0140587
-18.4247
-18.5605
-18.8752
-18.8907
-18.3615
-17.3727
-16.0497
-14.505
-12.8723
-11.254
-9.72791
-8.33488
-7.09223
-5.99748
-5.04482
-4.21954
-3.50313
-2.88162
-2.3407
-1.86745
-1.45414
-1.0927
-0.773307
-0.492761
-0.248768
-0.0373189
0.142154
0.290785
0.411464
0.507295
0.58147
0.639435
0.686796
0.727339
0.765066
0.803551
0.844981
0.887978
0.928544
0.962675
0.986791
0.997063
0.992286
0.982682
0.975935
0.965153
0.960737
0.98559
1.04474
1.12738
1.20525
1.23792
1.23702
1.20609
1.17035
1.12964
1.09126
1.06367
1.04196
1.0228
0.996389
0.96545
0.93116
0.900495
0.870311
0.84024
0.812178
0.793089
0.781741
0.771071
0.762495
0.756187
0.749383
0.739056
0.724242
0.706452
0.686281
0.663945
0.639723
0.613918
0.586722
0.558298
0.528908
0.498749
0.467836
0.436037
0.403582
0.37091
0.338187
0.305464
0.273265
0.241032
0.208824
0.177274
0.146426
0.11585
0.0868183
0.059207
0.0349692
0.00919964
-18.4402
-18.5589
-18.8023
-18.7801
-18.2503
-17.2751
-15.9767
-14.4643
-12.8624
-11.271
-9.76577
-8.38789
-7.15404
-6.06104
-5.10732
-4.27913
-3.55798
-2.93048
-2.38355
-1.90391
-1.48411
-1.11669
-0.792687
-0.509407
-0.264013
-0.0527937
0.123854
0.26772
0.38274
0.472877
0.541921
0.595015
0.639106
0.678621
0.717937
0.759403
0.804163
0.851061
0.895048
0.930416
0.953749
0.961625
0.953662
0.940948
0.930896
0.918051
0.915768
0.943377
1.01266
1.10514
1.19102
1.23841
1.247
1.21837
1.17404
1.1261
1.08044
1.04773
1.02211
1.00004
0.967266
0.932131
0.896375
0.867888
0.83944
0.812282
0.786788
0.768065
0.758681
0.749746
0.74147
0.735145
0.727821
0.716618
0.701094
0.683017
0.662752
0.64042
0.616233
0.590458
0.56326
0.534782
0.505345
0.475158
0.444232
0.412397
0.379945
0.347315
0.314669
0.282036
0.249908
0.217952
0.186051
0.154877
0.124848
0.0953757
0.0682942
0.043579
0.0247382
0.00370367
-18.4546
-18.5543
-18.7277
-18.6636
-18.1318
-17.1715
-15.899
-14.4177
-12.8464
-11.2822
-9.79932
-8.4382
-7.21437
-6.12643
-5.17342
-4.34245
-3.61653
-2.9827
-2.4289
-1.94255
-1.51572
-1.14151
-0.812724
-0.526474
-0.279477
-0.0690434
0.104469
0.242694
0.351254
0.434751
0.497844
0.546389
0.587811
0.627192
0.668391
0.712448
0.760014
0.8106
0.857807
0.894312
0.917366
0.923167
0.912556
0.89668
0.881712
0.866855
0.868476
0.900986
0.977579
1.08104
1.17829
1.23959
1.25746
1.2309
1.17813
1.12216
1.06862
1.03082
1.00209
0.973324
0.934992
0.895938
0.859727
0.832237
0.805935
0.781986
0.75937
0.741915
0.733163
0.726586
0.718794
0.712381
0.704441
0.692272
0.675978
0.657517
0.637009
0.614577
0.590347
0.564538
0.53729
0.508734
0.479286
0.449097
0.418158
0.386301
0.353876
0.321306
0.288741
0.25621
0.224065
0.192395
0.160841
0.130091
0.100871
0.0726872
0.0477113
0.0261092
0.0133155
-0.00264518
-18.4681
-18.547
-18.6532
-18.5433
-18.0071
-17.0617
-15.8153
-14.3683
-12.8313
-11.2968
-9.83698
-8.49278
-7.27851
-6.19718
-5.24488
-4.41055
-3.6794
-3.03896
-2.47785
-1.98446
-1.55015
-1.16887
-0.835439
-0.546315
-0.298093
-0.0887021
0.0816593
0.214939
0.317108
0.393909
0.450929
0.494801
0.533668
0.573852
0.617356
0.663935
0.714335
0.768221
0.817754
0.85466
0.877169
0.880892
0.868181
0.850535
0.829895
0.81489
0.820931
0.859906
0.942454
1.05649
1.16514
1.23981
1.26701
1.24091
1.18191
1.11721
1.05572
1.01388
0.979794
0.942502
0.900049
0.857491
0.821309
0.793992
0.770161
0.749344
0.729581
0.714147
0.706012
0.701082
0.694114
0.687764
0.679002
0.66563
0.64851
0.629572
0.608747
0.58619
0.561877
0.535996
0.508671
0.479978
0.450244
0.420107
0.38917
0.357238
0.324805
0.292333
0.259863
0.227545
0.195343
0.163972
0.13282
0.102545
0.0741024
0.0474197
0.0247463
0.00643081
0.00047477
-0.0102146
-18.4809
-18.5396
-18.5878
-18.4345
-17.8924
-16.9616
-15.7393
-14.3265
-12.8228
-11.3163
-9.87814
-8.54934
-7.34402
-6.26657
-5.3136
-4.47584
-3.73983
-3.0933
-2.52566
-2.02574
-1.58431
-1.19674
-0.859265
-0.567578
-0.318583
-0.11051
0.056682
0.185019
0.281177
0.352157
0.404166
0.444542
0.481651
0.522048
0.567521
0.616549
0.669565
0.725615
0.776334
0.813166
0.834912
0.836782
0.823033
0.803935
0.781241
0.769337
0.780021
0.824469
0.911989
1.03364
1.15179
1.23762
1.27314
1.24684
1.1835
1.11029
1.04249
0.996687
0.954146
0.910134
0.864263
0.819383
0.782839
0.755995
0.73451
0.715934
0.699027
0.68623
0.67963
0.674979
0.669065
0.662264
0.652152
0.637438
0.619597
0.600195
0.57925
0.55642
0.531978
0.506008
0.478683
0.450036
0.42036
0.390016
0.359109
0.327224
0.294838
0.262356
0.229906
0.197641
0.165435
0.134231
0.103449
0.0736082
0.04581
0.0206583
0.000365748
-0.0147727
-0.0133835
-0.0190628
-18.4935
-18.5355
-18.5401
-18.3515
-17.8038
-16.8852
-15.6833
-14.296
-12.8177
-11.3333
-9.9128
-8.597
-7.39961
-6.32571
-5.37293
-4.53301
-3.79314
-3.14157
-2.56866
-2.06316
-1.61575
-1.22331
-0.882569
-0.588847
-0.339418
-0.132831
0.0311717
0.155145
0.246564
0.313246
0.361749
0.399883
0.436253
0.476909
0.523791
0.574797
0.629293
0.685984
0.735944
0.773211
0.794418
0.796337
0.783426
0.762112
0.741453
0.733223
0.748038
0.796694
0.888423
1.01519
1.14
1.23337
1.27458
1.24882
1.18156
1.10117
1.0305
0.978129
0.928035
0.879333
0.830496
0.784786
0.748037
0.722172
0.70249
0.685749
0.671811
0.661408
0.655633
0.650727
0.644977
0.637191
0.625878
0.610349
0.592
0.572169
0.551031
0.527948
0.503432
0.477474
0.450069
0.421442
0.391786
0.361224
0.329989
0.298021
0.265659
0.233269
0.200835
0.168705
0.13673
0.105634
0.0752401
0.0458478
0.0186095
-0.00520588
-0.0233065
-0.0357896
-0.027449
-0.0288496
-18.5063
-18.5356
-18.5091
-18.294
-17.7413
-16.8316
-15.6446
-14.2758
-12.8166
-11.3495
-9.9429
-8.63715
-7.446
-6.37483
-5.42231
-4.58084
-3.83792
-3.18241
-2.60549
-2.09567
-1.64388
-1.24792
-0.904746
-0.609688
-0.360154
-0.154797
0.00671269
0.12731
0.215171
0.278722
0.324599
0.361421
0.397661
0.43874
0.486621
0.539175
0.594456
0.650746
0.700946
0.738368
0.760005
0.762608
0.749773
0.727965
0.709352
0.703973
0.722507
0.775127
0.870668
1.00123
1.13051
1.22864
1.27327
1.24764
1.17665
1.09053
1.01932
0.958887
0.903111
0.850836
0.79999
0.754169
0.718086
0.693473
0.67539
0.660572
0.648418
0.639172
0.633309
0.628205
0.622078
0.613624
0.601664
0.58564
0.566801
0.546642
0.525367
0.502411
0.47796
0.452133
0.424788
0.396257
0.366578
0.336157
0.305064
0.273212
0.240759
0.20814
0.175617
0.143366
0.111331