/*--------------------------------*- C++ -*----------------------------------*\
| =========                 |                                                 |
| \\      /  F ield         | OpenFOAM: The Open Source CFD Toolbox           |
|  \\    /   O peration     | Version:  v2012                                 |
|   \\  /    A nd           | Website:  www.openfoam.com                      |
|    \\/     M anipulation  |                                                 |
\*---------------------------------------------------------------------------*/
FoamFile
{
    version     2.0;
    format      ascii;
    class       volVectorField;
    location    "0.206";
    object      U.air;
}
// * * * * * * * * * * * * * * * * * * * * * * * * * * * * * * * * * * * * * //

dimensions      [0 1 -1 0 0 0 0];


internalField   nonuniform List<vector> 
5600
(
(9.20615 0.00896361 0)
(8.83513 0.0172372 0)
(8.45665 0.0175098 0)
(8.07793 0.014473 0)
(7.73199 0.00999514 0)
(7.41951 0.00525907 0)
(7.15592 0.000860564 0)
(6.93472 -0.00267029 0)
(6.75458 -0.00526437 0)
(6.60529 -0.00716331 0)
(6.48865 -0.00847444 0)
(6.39713 -0.00920033 0)
(6.32393 -0.00952133 0)
(6.27042 -0.00946699 0)
(6.22361 -0.00919152 0)
(6.1902 -0.00879456 0)
(6.16039 -0.00834359 0)
(6.13546 -0.00787773 0)
(6.11631 -0.0074716 0)
(6.09587 -0.00721975 0)
(6.08261 -0.00698761 0)
(6.06717 -0.00681898 0)
(6.05756 -0.00670959 0)
(6.04722 -0.0066326 0)
(6.04013 -0.0065102 0)
(6.03425 -0.00637512 0)
(6.02781 -0.00627501 0)
(6.02505 -0.0061374 0)
(6.01988 -0.00600776 0)
(6.01782 -0.00588271 0)
(6.01366 -0.00575084 0)
(6.01111 -0.00561583 0)
(6.00759 -0.00552517 0)
(6.00431 -0.00545421 0)
(6.00144 -0.00537733 0)
(5.99771 -0.00533551 0)
(5.99507 -0.00527533 0)
(5.99165 -0.00523525 0)
(5.98888 -0.0051881 0)
(5.98612 -0.0051413 0)
(5.98305 -0.00510936 0)
(5.98095 -0.00505649 0)
(5.97791 -0.00502541 0)
(5.97626 -0.00498761 0)
(5.97367 -0.00496059 0)
(5.97221 -0.00494087 0)
(5.9705 -0.00493524 0)
(5.96889 -0.0049364 0)
(5.96784 -0.00491645 0)
(5.96615 -0.00492651 0)
(5.96556 -0.00491853 0)
(5.9639 -0.00493498 0)
(5.96364 -0.00492997 0)
(5.96217 -0.00494736 0)
(5.96213 -0.00495255 0)
(5.96101 -0.00498649 0)
(5.96101 -0.00501124 0)
(5.96032 -0.00503877 0)
(5.96036 -0.00508672 0)
(5.96015 -0.00511633 0)
(5.96034 -0.00514737 0)
(5.96029 -0.00517799 0)
(5.96088 -0.00519847 0)
(5.9609 -0.00523136 0)
(5.96183 -0.00523079 0)
(5.96184 -0.00527378 0)
(5.96305 -0.00529409 0)
(5.96336 -0.00532383 0)
(5.96465 -0.00535133 0)
(5.96542 -0.00535139 0)
(5.96659 -0.00538073 0)
(5.96771 -0.0053805 0)
(5.96896 -0.00539228 0)
(5.97006 -0.0054183 0)
(5.97182 -0.00540964 0)
(5.97266 -0.00546614 0)
(5.97522 -0.00546174 0)
(5.97593 -0.00548139 0)
(5.97872 -0.00550034 0)
(5.97972 -0.00549322 0)
(5.98233 -0.0055173 0)
(5.98374 -0.0055076 0)
(5.98623 -0.00551319 0)
(5.98769 -0.00551929 0)
(5.99042 -0.00551146 0)
(5.99168 -0.00552192 0)
(5.99466 -0.00554231 0)
(5.99617 -0.00550359 0)
(5.9985 -0.00558287 0)
(6.00135 -0.00552298 0)
(6.00273 -0.00563627 0)
(6.00721 -0.00551711 0)
(6.00681 -0.00563813 0)
(6.01317 -0.00544277 0)
(6.01 -0.0057478 0)
(6.02084 -0.00540996 0)
(6.01285 -0.00584913 0)
(6.03071 -0.00659969 0)
(6.03727 -0.00352247 0)
(5.96856 -0.0149489 0)
(9.39288 0.036569 0)
(9.38802 0.0381656 0)
(9.35656 0.0376065 0)
(9.29944 0.037602 0)
(9.22386 0.0368758 0)
(9.13553 0.0351038 0)
(9.03687 0.0325677 0)
(8.93103 0.0297082 0)
(8.82339 0.0267666 0)
(8.71592 0.0239454 0)
(8.61086 0.0209745 0)
(8.5133 0.0184587 0)
(8.41803 0.0161044 0)
(8.33414 0.014131 0)
(8.25358 0.012484 0)
(8.18263 0.0109938 0)
(8.11939 0.00993358 0)
(8.05909 0.00891795 0)
(8.01137 0.00814197 0)
(7.96263 0.00740747 0)
(7.92618 0.00671276 0)
(7.88981 0.00616309 0)
(7.86094 0.00568682 0)
(7.83348 0.00527195 0)
(7.80837 0.00485599 0)
(7.78829 0.00455847 0)
(7.76687 0.00421295 0)
(7.75012 0.00393744 0)
(7.732 0.00370533 0)
(7.71721 0.00351697 0)
(7.70184 0.0033397 0)
(7.6884 0.00320177 0)
(7.6759 0.00309885 0)
(7.66357 0.00300126 0)
(7.65352 0.00294564 0)
(7.64294 0.0028569 0)
(7.63407 0.0027959 0)
(7.62531 0.00271802 0)
(7.61718 0.00264296 0)
(7.61023 0.0025873 0)
(7.60282 0.00250123 0)
(7.59697 0.0024418 0)
(7.59071 0.00234781 0)
(7.58561 0.00226735 0)
(7.58046 0.00217071 0)
(7.57584 0.00210436 0)
(7.57175 0.00205825 0)
(7.5674 0.00200955 0)
(7.56404 0.00197775 0)
(7.56018 0.00194529 0)
(7.55735 0.0019276 0)
(7.55393 0.00190379 0)
(7.55158 0.00188415 0)
(7.54869 0.00185631 0)
(7.54676 0.00184865 0)
(7.54442 0.0018551 0)
(7.54279 0.00185619 0)
(7.54096 0.00186663 0)
(7.53971 0.00187006 0)
(7.53836 0.00189211 0)
(7.5376 0.00189544 0)
(7.53662 0.00189666 0)
(7.53632 0.0019019 0)
(7.53558 0.00190117 0)
(7.53552 0.00191114 0)
(7.5351 0.00191108 0)
(7.53524 0.00191916 0)
(7.53529 0.0019209 0)
(7.53564 0.00191584 0)
(7.53616 0.00192369 0)
(7.53681 0.00191172 0)
(7.53755 0.00191737 0)
(7.53849 0.00191108 0)
(7.53928 0.00190334 0)
(7.54058 0.0019061 0)
(7.54135 0.00188569 0)
(7.543 0.00189326 0)
(7.54408 0.00189057 0)
(7.5459 0.00187852 0)
(7.5474 0.00188928 0)
(7.54948 0.00187119 0)
(7.55111 0.00187812 0)
(7.55351 0.00186656 0)
(7.55493 0.00186296 0)
(7.55761 0.00186045 0)
(7.55879 0.00185791 0)
(7.56189 0.00184425 0)
(7.56289 0.00186749 0)
(7.56665 0.00182225 0)
(7.56723 0.00185465 0)
(7.57198 0.00179885 0)
(7.57167 0.00184777 0)
(7.57779 0.00180902 0)
(7.57578 0.00186219 0)
(7.58487 0.00175964 0)
(7.57891 0.00185004 0)
(7.59564 0.00164848 0)
(7.58051 0.00122446 0)
(7.6172 0.00374474 0)
(7.56975 -0.0137388 0)
(9.40083 0.0229755 0)
(9.42982 0.0304653 0)
(9.46046 0.0319936 0)
(9.47783 0.0329918 0)
(9.4889 0.0320375 0)
(9.48978 0.0301485 0)
(9.48379 0.0271684 0)
(9.46898 0.024159 0)
(9.44573 0.0213058 0)
(9.41435 0.0187331 0)
(9.37558 0.0161626 0)
(9.33019 0.013933 0)
(9.27888 0.0119624 0)
(9.22311 0.0102428 0)
(9.16443 0.0089137 0)
(9.10332 0.00739373 0)
(9.0437 0.00644374 0)
(8.98144 0.00520635 0)
(8.92629 0.00424236 0)
(8.86877 0.00333125 0)
(8.81977 0.00236571 0)
(8.77032 0.0016354 0)
(8.72722 0.00085621 0)
(8.68841 0.000384758 0)
(8.64962 -0.000185788 0)
(8.61922 -0.000531362 0)
(8.58683 -0.000799832 0)
(8.56077 -0.00100958 0)
(8.53353 -0.00115551 0)
(8.51111 -0.00127519 0)
(8.48877 -0.00137295 0)
(8.4688 -0.00148538 0)
(8.45125 -0.00153829 0)
(8.4334 -0.00164769 0)
(8.41892 -0.0017086 0)
(8.40402 -0.00178244 0)
(8.39121 -0.00183504 0)
(8.37905 -0.00188343 0)
(8.36732 -0.00194982 0)
(8.35763 -0.00196632 0)
(8.34734 -0.00201047 0)
(8.33901 -0.00202777 0)
(8.33041 -0.00205339 0)
(8.32308 -0.00205493 0)
(8.31591 -0.00205818 0)
(8.30897 -0.00208468 0)
(8.30307 -0.00210536 0)
(8.29673 -0.00213998 0)
(8.29168 -0.00216064 0)
(8.28611 -0.00218095 0)
(8.2818 -0.00218433 0)
(8.27694 -0.00220178 0)
(8.27329 -0.00220619 0)
(8.26919 -0.00222404 0)
(8.2661 -0.00224845 0)
(8.26274 -0.00229993 0)
(8.2601 -0.00234101 0)
(8.25738 -0.00238459 0)
(8.25526 -0.00245864 0)
(8.25311 -0.0025117 0)
(8.25166 -0.00256399 0)
(8.24999 -0.00261442 0)
(8.24907 -0.00264665 0)
(8.24768 -0.00268927 0)
(8.24701 -0.00270592 0)
(8.24596 -0.00275891 0)
(8.24556 -0.00279654 0)
(8.24516 -0.00284438 0)
(8.24504 -0.00288572 0)
(8.24519 -0.00291243 0)
(8.24544 -0.00294704 0)
(8.24582 -0.00296247 0)
(8.24648 -0.00297953 0)
(8.24694 -0.00301105 0)
(8.24792 -0.0030069 0)
(8.24845 -0.00306034 0)
(8.24958 -0.00307909 0)
(8.25055 -0.00310549 0)
(8.2519 -0.00314235 0)
(8.25332 -0.0031629 0)
(8.25509 -0.00318279 0)
(8.25665 -0.0031981 0)
(8.25883 -0.00318974 0)
(8.26018 -0.00320426 0)
(8.26255 -0.00318592 0)
(8.26376 -0.00321609 0)
(8.26642 -0.00321531 0)
(8.2676 -0.00324597 0)
(8.27092 -0.00325238 0)
(8.27175 -0.00329101 0)
(8.27604 -0.00328845 0)
(8.2761 -0.0033137 0)
(8.28149 -0.0032771 0)
(8.28055 -0.00334707 0)
(8.28785 -0.00330078 0)
(8.28481 -0.00351878 0)
(8.29637 -0.00337912 0)
(8.28887 -0.0045474 0)
(8.31316 -0.00257805 0)
(8.30121 -0.0162358 0)
(9.39956 0.0218012 0)
(9.43095 0.0295989 0)
(9.46742 0.030325 0)
(9.50007 0.0313104 0)
(9.5286 0.0312351 0)
(9.55607 0.0300366 0)
(9.5799 0.028476 0)
(9.5992 0.0269678 0)
(9.61548 0.0254769 0)
(9.62516 0.0242503 0)
(9.63363 0.0226524 0)
(9.63458 0.0217124 0)
(9.63272 0.0206168 0)
(9.62634 0.0195724 0)
(9.61587 0.0187714 0)
(9.60079 0.0177547 0)
(9.58139 0.0170414 0)
(9.55744 0.0160872 0)
(9.52938 0.0150869 0)
(9.49713 0.0141826 0)
(9.46133 0.0130036 0)
(9.42281 0.0121103 0)
(9.38152 0.0109559 0)
(9.34175 0.0101983 0)
(9.2985 0.0092195 0)
(9.26117 0.00838243 0)
(9.22078 0.00770358 0)
(9.18725 0.00702848 0)
(9.15258 0.00650626 0)
(9.12282 0.00595672 0)
(9.09444 0.00558254 0)
(9.06748 0.00513672 0)
(9.04435 0.00482733 0)
(9.0204 0.00450166 0)
(9.00002 0.0042024 0)
(8.9796 0.00396181 0)
(8.96112 0.00369996 0)
(8.94443 0.00351952 0)
(8.9275 0.00327421 0)
(8.91361 0.00309073 0)
(8.89921 0.00291241 0)
(8.88716 0.0027345 0)
(8.87496 0.0025707 0)
(8.86425 0.00241613 0)
(8.85422 0.00230388 0)
(8.84432 0.002146 0)
(8.83605 0.00201281 0)
(8.82732 0.00187457 0)
(8.82021 0.00174574 0)
(8.81256 0.00161176 0)
(8.80649 0.00149382 0)
(8.79987 0.00135393 0)
(8.79471 0.00122819 0)
(8.78913 0.00108213 0)
(8.78468 0.000956926 0)
(8.78004 0.000839862 0)
(8.77621 0.000731405 0)
(8.77237 0.000634251 0)
(8.76917 0.000534937 0)
(8.76602 0.000455342 0)
(8.76369 0.000359985 0)
(8.7611 0.000284456 0)
(8.75934 0.000241744 0)
(8.75708 0.000192821 0)
(8.75558 0.000166229 0)
(8.75372 0.000101961 0)
(8.75252 3.53141e-05 0)
(8.75151 -2.69674e-05 0)
(8.7506 -0.000105086 0)
(8.75026 -0.000146062 0)
(8.7499 -0.000209633 0)
(8.74979 -0.000240914 0)
(8.74996 -0.00028253 0)
(8.74993 -0.00032626 0)
(8.7504 -0.000340985 0)
(8.75051 -0.000402622 0)
(8.751 -0.000446631 0)
(8.75158 -0.000488836 0)
(8.75235 -0.000565444 0)
(8.7534 -0.000606388 0)
(8.75467 -0.000652884 0)
(8.756 -0.000686232 0)
(8.75766 -0.000688775 0)
(8.75894 -0.00070608 0)
(8.76062 -0.000699157 0)
(8.76196 -0.000736707 0)
(8.7637 -0.000759025 0)
(8.76534 -0.0008061 0)
(8.76739 -0.000833985 0)
(8.76922 -0.000895846 0)
(8.77156 -0.000907562 0)
(8.77358 -0.000950764 0)
(8.77609 -0.000911803 0)
(8.77847 -0.00101952 0)
(8.78106 -0.000970424 0)
(8.78394 -0.00129446 0)
(8.78692 -0.00111984 0)
(8.79069 -0.00286632 0)
(8.7977 -0.000243589 0)
(8.80835 -0.0174864 0)
(9.39773 0.0183282 0)
(9.42819 0.0258376 0)
(9.46465 0.0260903 0)
(9.49922 0.0271199 0)
(9.53082 0.0272032 0)
(9.56275 0.0262791 0)
(9.59279 0.0248852 0)
(9.62042 0.023283 0)
(9.6464 0.0217471 0)
(9.66827 0.0203338 0)
(9.69049 0.0188873 0)
(9.70805 0.0177343 0)
(9.72555 0.0166312 0)
(9.73973 0.0157727 0)
(9.7523 0.0151816 0)
(9.76462 0.0145183 0)
(9.77173 0.0142641 0)
(9.78086 0.0137467 0)
(9.78375 0.0134688 0)
(9.78693 0.0130738 0)
(9.78558 0.0127077 0)
(9.78245 0.0124239 0)
(9.77538 0.0118095 0)
(9.76532 0.0114813 0)
(9.75161 0.0108513 0)
(9.73466 0.0101926 0)
(9.71472 0.00965033 0)
(9.69229 0.00890013 0)
(9.66851 0.00833199 0)
(9.64259 0.0075661 0)
(9.61708 0.00705653 0)
(9.5894 0.00635697 0)
(9.56425 0.00580938 0)
(9.53791 0.00530306 0)
(9.51363 0.00476157 0)
(9.48996 0.00436702 0)
(9.46651 0.00384911 0)
(9.4462 0.00351012 0)
(9.42481 0.00307221 0)
(9.40667 0.00269009 0)
(9.38822 0.00236586 0)
(9.37179 0.00205268 0)
(9.3554 0.00178125 0)
(9.34007 0.0014763 0)
(9.32624 0.00126641 0)
(9.31211 0.00102062 0)
(9.30026 0.000823906 0)
(9.28797 0.000643147 0)
(9.27777 0.000474226 0)
(9.26691 0.000305824 0)
(9.25801 0.000161731 0)
(9.24866 -6.86223e-06 0)
(9.24108 -0.00016141 0)
(9.23322 -0.000335898 0)
(9.22648 -0.000452866 0)
(9.21972 -0.000544407 0)
(9.21367 -0.000627562 0)
(9.20798 -0.000702151 0)
(9.20283 -0.000752779 0)
(9.19786 -0.000801302 0)
(9.19393 -0.000847001 0)
(9.18972 -0.000915025 0)
(9.18639 -0.00096631 0)
(9.18254 -0.00102009 0)
(9.17941 -0.00105386 0)
(9.17611 -0.00112415 0)
(9.17334 -0.00121302 0)
(9.17123 -0.00128104 0)
(9.16901 -0.00137069 0)
(9.1676 -0.00143998 0)
(9.16618 -0.00149289 0)
(9.16498 -0.00154457 0)
(9.16424 -0.0015729 0)
(9.16316 -0.00162114 0)
(9.16269 -0.00162659 0)
(9.16192 -0.00168089 0)
(9.16144 -0.00173349 0)
(9.16134 -0.00178301 0)
(9.16126 -0.00185562 0)
(9.16167 -0.00192093 0)
(9.16219 -0.00196973 0)
(9.16306 -0.00201617 0)
(9.16394 -0.00201475 0)
(9.16495 -0.00202102 0)
(9.16578 -0.00201546 0)
(9.167 -0.00204014 0)
(9.16779 -0.00207577 0)
(9.16954 -0.0021259 0)
(9.17042 -0.00215945 0)
(9.17271 -0.00221302 0)
(9.17357 -0.0022369 0)
(9.17642 -0.00227364 0)
(9.17724 -0.0022713 0)
(9.18074 -0.00235025 0)
(9.18149 -0.00235051 0)
(9.18547 -0.00259791 0)
(9.18683 -0.0025831 0)
(9.1912 -0.00399429 0)
(9.19533 -0.0035088 0)
(9.20488 -0.0171964 0)
(9.39589 0.0145792 0)
(9.42526 0.0219571 0)
(9.4613 0.0220155 0)
(9.49605 0.0229045 0)
(9.52803 0.0230255 0)
(9.56033 0.0222388 0)
(9.59145 0.0210717 0)
(9.62059 0.0197207 0)
(9.64815 0.0185317 0)
(9.67302 0.0174718 0)
(9.69778 0.0163495 0)
(9.7197 0.0155914 0)
(9.74123 0.0148799 0)
(9.76143 0.0143419 0)
(9.77997 0.0139141 0)
(9.79918 0.0135445 0)
(9.81563 0.0133588 0)
(9.83341 0.0130661 0)
(9.84826 0.0128461 0)
(9.86436 0.0126679 0)
(9.87786 0.0123632 0)
(9.89101 0.0121377 0)
(9.90423 0.0118338 0)
(9.91313 0.0117207 0)
(9.92524 0.011455 0)
(9.93068 0.0112337 0)
(9.93924 0.0110728 0)
(9.94165 0.0108342 0)
(9.94515 0.0106023 0)
(9.9446 0.0103636 0)
(9.9427 0.0101742 0)
(9.9386 0.00982485 0)
(9.93219 0.00944715 0)
(9.92432 0.00913148 0)
(9.914 0.00866483 0)
(9.90273 0.00833569 0)
(9.88941 0.00782356 0)
(9.87552 0.00740955 0)
(9.86032 0.0069759 0)
(9.84476 0.00646547 0)
(9.82867 0.00607362 0)
(9.81233 0.00562747 0)
(9.79649 0.00528017 0)
(9.78017 0.00485076 0)
(9.76527 0.00456207 0)
(9.74946 0.00421563 0)
(9.73558 0.00387742 0)
(9.72105 0.00356752 0)
(9.70867 0.00330007 0)
(9.69527 0.0030464 0)
(9.68384 0.00279092 0)
(9.67199 0.00254191 0)
(9.66191 0.00231766 0)
(9.65171 0.00215888 0)
(9.6419 0.00199757 0)
(9.63251 0.00182628 0)
(9.6233 0.00163482 0)
(9.61501 0.00146182 0)
(9.60713 0.00125637 0)
(9.59959 0.00104199 0)
(9.59331 0.000864035 0)
(9.58681 0.000690858 0)
(9.58118 0.000555895 0)
(9.57511 0.000436866 0)
(9.56951 0.000321931 0)
(9.5642 0.000161792 0)
(9.55909 -8.78705e-05 0)
(9.55528 -0.00024895 0)
(9.55125 -0.000417659 0)
(9.54811 -0.00057026 0)
(9.54502 -0.000675874 0)
(9.54209 -0.000786905 0)
(9.53971 -0.000855437 0)
(9.53703 -0.000932555 0)
(9.53486 -0.000980374 0)
(9.53274 -0.00104729 0)
(9.53052 -0.00116654 0)
(9.52924 -0.00126777 0)
(9.52759 -0.00141202 0)
(9.52701 -0.00152315 0)
(9.5262 -0.00163022 0)
(9.52612 -0.00169761 0)
(9.5258 -0.00172121 0)
(9.52591 -0.00173019 0)
(9.52568 -0.0017434 0)
(9.52601 -0.00178897 0)
(9.52585 -0.00185059 0)
(9.52684 -0.00193756 0)
(9.5269 -0.00199493 0)
(9.52839 -0.0020809 0)
(9.52865 -0.00213441 0)
(9.53057 -0.00219445 0)
(9.53107 -0.00222528 0)
(9.53337 -0.00231722 0)
(9.53426 -0.00235555 0)
(9.53672 -0.0026398 0)
(9.53853 -0.00272464 0)
(9.54142 -0.00424292 0)
(9.54543 -0.0042384 0)
(9.5515 -0.0163502 0)
(9.39499 0.0113267 0)
(9.42269 0.0176053 0)
(9.45808 0.0174951 0)
(9.49304 0.0182042 0)
(9.52495 0.0183659 0)
(9.55702 0.0177165 0)
(9.58832 0.0167802 0)
(9.61773 0.0156859 0)
(9.64535 0.0147409 0)
(9.67106 0.0138866 0)
(9.69592 0.0129586 0)
(9.71886 0.0123525 0)
(9.74104 0.0117129 0)
(9.76237 0.0112371 0)
(9.78246 0.0108279 0)
(9.80266 0.0104773 0)
(9.82165 0.0103195 0)
(9.84092 0.0100587 0)
(9.8591 0.00989916 0)
(9.87745 0.00971967 0)
(9.89523 0.00955449 0)
(9.91213 0.0093761 0)
(9.9298 0.0092243 0)
(9.94534 0.00916953 0)
(9.96253 0.00901079 0)
(9.97706 0.00889743 0)
(9.99316 0.00882403 0)
(10.0071 0.00872154 0)
(10.0215 0.00864022 0)
(10.0353 0.00854317 0)
(10.0472 0.00849809 0)
(10.0606 0.00835419 0)
(10.0705 0.00824475 0)
(10.0816 0.008166 0)
(10.09 0.00802828 0)
(10.0983 0.00794139 0)
(10.1053 0.00777774 0)
(10.1097 0.00763776 0)
(10.1149 0.00743376 0)
(10.1165 0.00725092 0)
(10.1177 0.00702009 0)
(10.117 0.00684058 0)
(10.1155 0.00663781 0)
(10.1126 0.00631539 0)
(10.1085 0.006079 0)
(10.1033 0.00578996 0)
(10.0972 0.00544532 0)
(10.0902 0.00510391 0)
(10.0827 0.00479537 0)
(10.0743 0.0045252 0)
(10.0656 0.00418743 0)
(10.0564 0.00382602 0)
(10.0472 0.00342852 0)
(10.0382 0.00316719 0)
(10.0286 0.00290935 0)
(10.0195 0.00267474 0)
(10.0102 0.00237645 0)
(10.0015 0.00206742 0)
(9.99299 0.00180418 0)
(9.98461 0.00146791 0)
(9.97732 0.0011788 0)
(9.96982 0.000995934 0)
(9.96295 0.00089863 0)
(9.95577 0.000847868 0)
(9.94857 0.000731622 0)
(9.94215 0.000574002 0)
(9.93556 0.000274368 0)
(9.93024 7.97832e-05 0)
(9.92466 -7.06977e-05 0)
(9.9197 -0.000234185 0)
(9.91476 -0.00032068 0)
(9.90988 -0.000445007 0)
(9.90541 -0.000518345 0)
(9.9009 -0.000593446 0)
(9.89657 -0.000671877 0)
(9.89295 -0.000739323 0)
(9.88886 -0.00088681 0)
(9.88593 -0.00102087 0)
(9.88248 -0.00119644 0)
(9.88021 -0.00137472 0)
(9.87771 -0.00150951 0)
(9.87602 -0.00162048 0)
(9.87406 -0.00165733 0)
(9.87271 -0.00167048 0)
(9.87083 -0.00170507 0)
(9.86985 -0.00174525 0)
(9.86837 -0.00188216 0)
(9.86803 -0.00196264 0)
(9.86725 -0.00208507 0)
(9.86725 -0.00215357 0)
(9.867 -0.00226511 0)
(9.86716 -0.00231374 0)
(9.8673 -0.00238242 0)
(9.86779 -0.00249121 0)
(9.86839 -0.00257188 0)
(9.86928 -0.00287165 0)
(9.87047 -0.00305827 0)
(9.87212 -0.00457766 0)
(9.87486 -0.0052081 0)
(9.87813 -0.0159349 0)
(9.39444 0.00798499 0)
(9.42062 0.012702 0)
(9.45548 0.0125346 0)
(9.49058 0.0130466 0)
(9.52238 0.0132102 0)
(9.55426 0.0127313 0)
(9.58556 0.012062 0)
(9.61505 0.0112545 0)
(9.64254 0.0105508 0)
(9.66853 0.00991155 0)
(9.6932 0.00920809 0)
(9.7164 0.00875877 0)
(9.73868 0.0082733 0)
(9.76008 0.00793992 0)
(9.78059 0.00765257 0)
(9.80082 0.00741752 0)
(9.82034 0.00733974 0)
(9.83982 0.0071837 0)
(9.8587 0.00709195 0)
(9.87741 0.00697116 0)
(9.89596 0.00690305 0)
(9.91384 0.0067583 0)
(9.93187 0.00665832 0)
(9.94925 0.00661589 0)
(9.96689 0.00650129 0)
(9.98383 0.00643081 0)
(10.0009 0.00635736 0)
(10.0177 0.00632559 0)
(10.0342 0.00622454 0)
(10.0509 0.00620832 0)
(10.0668 0.00618925 0)
(10.0832 0.00609703 0)
(10.0987 0.00606172 0)
(10.1143 0.00602767 0)
(10.1298 0.00597883 0)
(10.1443 0.00593997 0)
(10.1596 0.00589958 0)
(10.1733 0.00584376 0)
(10.1878 0.00578498 0)
(10.2006 0.00574935 0)
(10.214 0.00572298 0)
(10.226 0.00563298 0)
(10.2378 0.00556111 0)
(10.2492 0.005457 0)
(10.2587 0.00540239 0)
(10.2694 0.00531756 0)
(10.2773 0.00521084 0)
(10.2862 0.0051144 0)
(10.2918 0.00501277 0)
(10.2991 0.00492395 0)
(10.3033 0.00480455 0)
(10.3085 0.0046316 0)
(10.3105 0.00446408 0)
(10.313 0.00432471 0)
(10.3139 0.00423609 0)
(10.3148 0.00402757 0)
(10.3146 0.00388093 0)
(10.3139 0.00363054 0)
(10.3123 0.00340863 0)
(10.3102 0.00310017 0)
(10.3072 0.00279759 0)
(10.3037 0.00261194 0)
(10.2998 0.00248097 0)
(10.2958 0.00241955 0)
(10.2915 0.00225898 0)
(10.2874 0.0020334 0)
(10.2829 0.00167241 0)
(10.2785 0.00134462 0)
(10.2739 0.00108749 0)
(10.2693 0.000827053 0)
(10.2646 0.000682859 0)
(10.26 0.000518827 0)
(10.2553 0.000384178 0)
(10.2509 0.000275709 0)
(10.2462 9.35437e-05 0)
(10.2425 -2.79092e-05 0)
(10.2385 -0.000264069 0)
(10.2352 -0.000457027 0)
(10.2314 -0.000683515 0)
(10.2284 -0.00092457 0)
(10.2251 -0.00110956 0)
(10.2223 -0.00126061 0)
(10.2192 -0.00132398 0)
(10.2167 -0.00134619 0)
(10.2137 -0.0014038 0)
(10.2116 -0.00149377 0)
(10.2092 -0.00166955 0)
(10.2077 -0.00182442 0)
(10.206 -0.00194491 0)
(10.2047 -0.00206923 0)
(10.2034 -0.00216871 0)
(10.2022 -0.00226434 0)
(10.2011 -0.00235336 0)
(10.2 -0.00249288 0)
(10.1993 -0.00259871 0)
(10.1985 -0.00293737 0)
(10.1982 -0.00319893 0)
(10.1979 -0.00469641 0)
(10.1987 -0.00586885 0)
(10.1986 -0.0152133 0)
(9.39406 0.00454428 0)
(9.41913 0.00729805 0)
(9.45368 0.00711969 0)
(9.48882 0.00741722 0)
(9.52053 0.00752564 0)
(9.5523 0.00722563 0)
(9.58357 0.0068348 0)
(9.61311 0.00633233 0)
(9.64052 0.00588719 0)
(9.66662 0.00550181 0)
(9.69119 0.00506486 0)
(9.71448 0.00479756 0)
(9.73676 0.00450096 0)
(9.75809 0.00430561 0)
(9.77877 0.0041265 0)
(9.79886 0.00397174 0)
(9.81858 0.00393223 0)
(9.83796 0.00383159 0)
(9.85702 0.0037692 0)
(9.87574 0.00368396 0)
(9.89435 0.00364929 0)
(9.91248 0.00354937 0)
(9.93048 0.00347309 0)
(9.94825 0.00345386 0)
(9.96588 0.00338309 0)
(9.98326 0.00334523 0)
(10.0005 0.00329675 0)
(10.0177 0.00329115 0)
(10.0347 0.00321608 0)
(10.0516 0.00322235 0)
(10.0684 0.00322324 0)
(10.0852 0.0031598 0)
(10.1017 0.0031509 0)
(10.1182 0.00311897 0)
(10.1347 0.00311038 0)
(10.1508 0.00308972 0)
(10.1671 0.00306369 0)
(10.183 0.0030413 0)
(10.199 0.00300479 0)
(10.2146 0.00301233 0)
(10.2303 0.00297525 0)
(10.2457 0.00294204 0)
(10.2609 0.00290898 0)
(10.2761 0.00289448 0)
(10.2908 0.00287258 0)
(10.3058 0.00282629 0)
(10.3199 0.00279237 0)
(10.3346 0.00279512 0)
(10.348 0.00276932 0)
(10.3623 0.00274129 0)
(10.3752 0.00271324 0)
(10.3889 0.00269293 0)
(10.401 0.00267698 0)
(10.4134 0.00265498 0)
(10.4251 0.00262985 0)
(10.4368 0.00258408 0)
(10.448 0.00250976 0)
(10.4586 0.00242064 0)
(10.4682 0.00234253 0)
(10.4782 0.00224524 0)
(10.4858 0.00217371 0)
(10.4939 0.00215656 0)
(10.5001 0.00214253 0)
(10.5072 0.00212827 0)
(10.5132 0.00204716 0)
(10.5195 0.00188379 0)
(10.5251 0.00169326 0)
(10.5289 0.00154788 0)
(10.5329 0.00142107 0)
(10.5354 0.0013133 0)
(10.5374 0.0012292 0)
(10.5394 0.00112534 0)
(10.5401 0.00106014 0)
(10.5414 0.00094429 0)
(10.5416 0.000814814 0)
(10.5422 0.00060964 0)
(10.5423 0.000406264 0)
(10.5423 0.00024067 0)
(10.542 3.04235e-05 0)
(10.5412 -0.000206853 0)
(10.5398 -0.000381091 0)
(10.5381 -0.000533209 0)
(10.5359 -0.000612822 0)
(10.5338 -0.000658631 0)
(10.5315 -0.000752959 0)
(10.5296 -0.000897277 0)
(10.5276 -0.00112511 0)
(10.5257 -0.00135551 0)
(10.5237 -0.00152417 0)
(10.5217 -0.00167061 0)
(10.5195 -0.00178339 0)
(10.5171 -0.00188237 0)
(10.5147 -0.00198674 0)
(10.5121 -0.0021402 0)
(10.5095 -0.00228829 0)
(10.5067 -0.00261481 0)
(10.5041 -0.0029857 0)
(10.5011 -0.00449361 0)
(10.4991 -0.00608796 0)
(10.4959 -0.0139691 0)
(9.39387 0.000960207 0)
(9.41839 0.00132527 0)
(9.45278 0.00114145 0)
(9.48796 0.00122143 0)
(9.51962 0.00123098 0)
(9.55133 0.00112493 0)
(9.58261 0.00104703 0)
(9.61213 0.000881015 0)
(9.63954 0.000727722 0)
(9.66565 0.000626975 0)
(9.6902 0.000474356 0)
(9.71353 0.000407863 0)
(9.73579 0.000311275 0)
(9.75713 0.000258907 0)
(9.77784 0.000198351 0)
(9.79789 0.000139803 0)
(9.81765 0.000160478 0)
(9.83699 0.000138202 0)
(9.85609 0.000132246 0)
(9.87482 0.000109884 0)
(9.89337 0.000128711 0)
(9.9116 9.67822e-05 0)
(9.92952 6.29979e-05 0)
(9.9474 7.7677e-05 0)
(9.96496 5.48439e-05 0)
(9.98244 4.46732e-05 0)
(9.99971 1.88483e-05 0)
(10.0169 2.50428e-05 0)
(10.034 -1.50596e-05 0)
(10.051 -4.05308e-06 0)
(10.0679 8.52709e-06 0)
(10.0847 -2.88337e-05 0)
(10.1014 -2.39291e-05 0)
(10.118 -4.12261e-05 0)
(10.1345 -2.77866e-05 0)
(10.1509 -3.11279e-05 0)
(10.1673 -3.73029e-05 0)
(10.1835 -3.78301e-05 0)
(10.1997 -5.3682e-05 0)
(10.2158 -3.12976e-05 0)
(10.2318 -4.54366e-05 0)
(10.2477 -4.23391e-05 0)
(10.2635 -5.39082e-05 0)
(10.2792 -5.04738e-05 0)
(10.2948 -6.51225e-05 0)
(10.3103 -8.17973e-05 0)
(10.3256 -9.2333e-05 0)
(10.341 -6.90867e-05 0)
(10.3562 -7.90485e-05 0)
(10.3714 -0.000100187 0)
(10.3863 -9.64295e-05 0)
(10.4013 -0.000100862 0)
(10.416 -7.30386e-05 0)
(10.4307 -9.41014e-05 0)
(10.4452 -0.000102666 0)
(10.4598 -0.000148568 0)
(10.474 -0.000165937 0)
(10.4882 -0.000172333 0)
(10.5021 -0.000208491 0)
(10.5159 -0.000197169 0)
(10.5292 -0.000164276 0)
(10.5426 -0.000114472 0)
(10.5554 -7.97587e-05 0)
(10.5686 -8.48518e-05 0)
(10.5812 -0.000120295 0)
(10.594 -0.000217273 0)
(10.6063 -0.000244309 0)
(10.6179 -0.000257796 0)
(10.6298 -0.000254324 0)
(10.6403 -0.000195862 0)
(10.6509 -0.000198601 0)
(10.661 -0.000184973 0)
(10.6704 -0.000186743 0)
(10.6804 -0.000193985 0)
(10.6888 -0.000245089 0)
(10.6975 -0.000337491 0)
(10.7053 -0.000424184 0)
(10.7125 -0.00053516 0)
(10.72 -0.00064277 0)
(10.7254 -0.000700437 0)
(10.7308 -0.000715728 0)
(10.7347 -0.000695486 0)
(10.7379 -0.000672624 0)
(10.7409 -0.000681122 0)
(10.7432 -0.000748399 0)
(10.7455 -0.000891366 0)
(10.747 -0.0010444 0)
(10.7473 -0.00115756 0)
(10.7471 -0.00121732 0)
(10.7462 -0.00129203 0)
(10.7447 -0.00134988 0)
(10.7426 -0.00139287 0)
(10.74 -0.00143274 0)
(10.7368 -0.00151103 0)
(10.7329 -0.00159 0)
(10.7284 -0.00184096 0)
(10.7236 -0.00222016 0)
(10.7181 -0.00355808 0)
(10.7127 -0.00543072 0)
(10.7055 -0.0123133 0)
(9.39391 -0.00274736 0)
(9.41859 -0.00495832 0)
(9.45307 -0.00513863 0)
(9.48829 -0.00527947 0)
(9.51995 -0.00538553 0)
(9.55165 -0.00528898 0)
(9.58296 -0.0050286 0)
(9.61243 -0.0048478 0)
(9.63989 -0.00469168 0)
(9.66597 -0.00449078 0)
(9.69054 -0.00435361 0)
(9.71388 -0.00419945 0)
(9.73611 -0.0040925 0)
(9.75748 -0.00399111 0)
(9.77816 -0.00392537 0)
(9.79825 -0.00388161 0)
(9.818 -0.00379277 0)
(9.83734 -0.0037403 0)
(9.85644 -0.00369088 0)
(9.87517 -0.00365537 0)
(9.89372 -0.00358834 0)
(9.91194 -0.00356322 0)
(9.92989 -0.00356211 0)
(9.94775 -0.00351617 0)
(9.96531 -0.00350037 0)
(9.9828 -0.00348237 0)
(10.0001 -0.00348059 0)
(10.0173 -0.00345689 0)
(10.0344 -0.00345924 0)
(10.0513 -0.00344125 0)
(10.0683 -0.00340674 0)
(10.085 -0.00341467 0)
(10.1017 -0.00339509 0)
(10.1183 -0.00339654 0)
(10.1349 -0.003365 0)
(10.1513 -0.00334946 0)
(10.1677 -0.00334559 0)
(10.1839 -0.00332352 0)
(10.2 -0.00332989 0)
(10.2161 -0.00329689 0)
(10.2321 -0.0032899 0)
(10.248 -0.00327657 0)
(10.2637 -0.00327296 0)
(10.2794 -0.00326165 0)
(10.2949 -0.00325502 0)
(10.3104 -0.00324867 0)
(10.3257 -0.00324449 0)
(10.3409 -0.0032069 0)
(10.3561 -0.00320268 0)
(10.3711 -0.00319213 0)
(10.3861 -0.00316597 0)
(10.4008 -0.00314749 0)
(10.4155 -0.00310753 0)
(10.4301 -0.00310095 0)
(10.4444 -0.00308342 0)
(10.4588 -0.00310205 0)
(10.4726 -0.00308549 0)
(10.4866 -0.00307938 0)
(10.5002 -0.0031054 0)
(10.5135 -0.00307223 0)
(10.5268 -0.00303813 0)
(10.5395 -0.00297794 0)
(10.5524 -0.00293895 0)
(10.5648 -0.00293574 0)
(10.5769 -0.00295432 0)
(10.5889 -0.00302062 0)
(10.6 -0.00300666 0)
(10.6111 -0.00300418 0)
(10.6214 -0.00295428 0)
(10.6315 -0.00284777 0)
(10.6412 -0.00279054 0)
(10.6501 -0.00271138 0)
(10.659 -0.00266112 0)
(10.6669 -0.00261461 0)
(10.6747 -0.00255387 0)
(10.6818 -0.00255112 0)
(10.688 -0.00253334 0)
(10.6939 -0.00255496 0)
(10.6989 -0.00248491 0)
(10.7032 -0.00233051 0)
(10.7069 -0.00215996 0)
(10.7097 -0.00194242 0)
(10.712 -0.00178737 0)
(10.714 -0.00169252 0)
(10.7154 -0.00165297 0)
(10.7165 -0.00160716 0)
(10.7166 -0.00154107 0)
(10.7162 -0.00144429 0)
(10.7152 -0.0013453 0)
(10.7137 -0.00122388 0)
(10.7116 -0.00109552 0)
(10.7091 -0.000967815 0)
(10.7061 -0.000842961 0)
(10.7027 -0.000752921 0)
(10.6987 -0.000681843 0)
(10.6942 -0.000787703 0)
(10.6893 -0.00106853 0)
(10.6837 -0.00223763 0)
(10.6776 -0.00411198 0)
(10.6693 -0.00985893 0)
(9.39419 -0.0064054 0)
(9.41974 -0.0109616 0)
(9.45454 -0.0111151 0)
(9.48975 -0.0114765 0)
(9.52147 -0.0116806 0)
(9.55326 -0.0113923 0)
(9.58458 -0.0108077 0)
(9.61404 -0.0103086 0)
(9.64151 -0.00985894 0)
(9.66759 -0.00936672 0)
(9.69216 -0.00895768 0)
(9.71551 -0.00858334 0)
(9.73772 -0.00828451 0)
(9.7591 -0.00803323 0)
(9.77978 -0.00784903 0)
(9.79987 -0.00771285 0)
(9.81963 -0.00755554 0)
(9.83895 -0.00743475 0)
(9.85806 -0.00732961 0)
(9.8768 -0.00723511 0)
(9.89532 -0.00711454 0)
(9.91354 -0.00703412 0)
(9.93147 -0.00699687 0)
(9.94931 -0.00691567 0)
(9.96683 -0.00686801 0)
(9.98429 -0.00682583 0)
(10.0015 -0.00680082 0)
(10.0186 -0.006766 0)
(10.0357 -0.0067414 0)
(10.0525 -0.00671691 0)
(10.0694 -0.00666434 0)
(10.086 -0.00665173 0)
(10.1026 -0.00661411 0)
(10.119 -0.00659772 0)
(10.1353 -0.0065505 0)
(10.1515 -0.00650798 0)
(10.1675 -0.00648624 0)
(10.1834 -0.00643824 0)
(10.1992 -0.00641914 0)
(10.2147 -0.00636077 0)
(10.2302 -0.0063274 0)
(10.2454 -0.00628731 0)
(10.2604 -0.00625762 0)
(10.2753 -0.00622942 0)
(10.2897 -0.00619064 0)
(10.3041 -0.00616652 0)
(10.318 -0.00613609 0)
(10.3317 -0.00609082 0)
(10.3452 -0.00605419 0)
(10.3579 -0.00603301 0)
(10.3709 -0.00599055 0)
(10.3826 -0.00595472 0)
(10.3946 -0.00588855 0)
(10.4056 -0.00583017 0)
(10.4164 -0.00577819 0)
(10.4264 -0.00572827 0)
(10.4356 -0.00566633 0)
(10.4448 -0.00559583 0)
(10.4524 -0.00552995 0)
(10.46 -0.00542373 0)
(10.4664 -0.00529468 0)
(10.4723 -0.00514557 0)
(10.4777 -0.00500323 0)
(10.4817 -0.00489323 0)
(10.4858 -0.00480129 0)
(10.4884 -0.00473607 0)
(10.4908 -0.00459618 0)
(10.4924 -0.00446327 0)
(10.4933 -0.00429487 0)
(10.4941 -0.00401649 0)
(10.494 -0.00388736 0)
(10.4936 -0.00369622 0)
(10.4929 -0.0035228 0)
(10.4917 -0.00333586 0)
(10.4902 -0.00316397 0)
(10.4884 -0.00302184 0)
(10.4863 -0.00287011 0)
(10.484 -0.00276124 0)
(10.4813 -0.00256657 0)
(10.4785 -0.002315 0)
(10.4756 -0.00206827 0)
(10.4727 -0.00177383 0)
(10.4699 -0.00155422 0)
(10.4671 -0.00140476 0)
(10.4642 -0.00130318 0)
(10.4614 -0.00121219 0)
(10.4584 -0.00106913 0)
(10.4555 -0.000948846 0)
(10.4526 -0.000844847 0)
(10.4496 -0.000733441 0)
(10.4466 -0.000598076 0)
(10.4437 -0.00044192 0)
(10.4407 -0.00028151 0)
(10.4378 -0.000130304 0)
(10.4349 -6.11852e-06 0)
(10.432 -3.84769e-05 0)
(10.4289 -0.00031007 0)
(10.4254 -0.00131907 0)
(10.4212 -0.00305806 0)
(10.4147 -0.00785039 0)
(9.39466 -0.0099603 0)
(9.42161 -0.0164528 0)
(9.45696 -0.0165712 0)
(9.49209 -0.0171292 0)
(9.52391 -0.0173738 0)
(9.55582 -0.016896 0)
(9.58715 -0.016008 0)
(9.61664 -0.015226 0)
(9.64406 -0.0145159 0)
(9.6702 -0.0137655 0)
(9.69473 -0.0131164 0)
(9.71808 -0.0125441 0)
(9.7403 -0.0120705 0)
(9.76161 -0.0116786 0)
(9.78234 -0.0113804 0)
(9.80232 -0.0111635 0)
(9.82211 -0.0109487 0)
(9.84131 -0.0107719 0)
(9.86037 -0.0106231 0)
(9.87902 -0.0104767 0)
(9.89735 -0.0103102 0)
(9.91549 -0.010179 0)
(9.93313 -0.0101026 0)
(9.95079 -0.00997779 0)
(9.96799 -0.00988906 0)
(9.98517 -0.00980691 0)
(10.002 -0.00974412 0)
(10.0186 -0.0096918 0)
(10.0352 -0.00962974 0)
(10.0513 -0.00958429 0)
(10.0675 -0.00950516 0)
(10.0831 -0.00946989 0)
(10.0987 -0.00940932 0)
(10.1138 -0.00935819 0)
(10.1285 -0.00930407 0)
(10.1433 -0.00923846 0)
(10.157 -0.00918474 0)
(10.1708 -0.0091334 0)
(10.1836 -0.00908325 0)
(10.1962 -0.00899612 0)
(10.2079 -0.00891514 0)
(10.2188 -0.00883094 0)
(10.2293 -0.00874235 0)
(10.2385 -0.00864607 0)
(10.2471 -0.00853867 0)
(10.2548 -0.00842115 0)
(10.261 -0.0082949 0)
(10.2669 -0.00814089 0)