/*--------------------------------*- C++ -*----------------------------------*\
| =========                 |                                                 |
| \\      /  F ield         | OpenFOAM: The Open Source CFD Toolbox           |
|  \\    /   O peration     | Version:  v2012                                 |
|   \\  /    A nd           | Website:  www.openfoam.com                      |
|    \\/     M anipulation  |                                                 |
\*---------------------------------------------------------------------------*/
FoamFile
{
    version     2.0;
    format      ascii;
    class       scalarField;
    location    "0.056/lagrangian/kinematicCloud";
    object      age;
}
// * * * * * * * * * * * * * * * * * * * * * * * * * * * * * * * * * * * * * //


47
(
0.049
0.0469
0.0458
0.045725
0.0447
0.0436
0.0425
0.0414
0.0403
0.0392
0.0381
0.037
0.036925
0.0359
0.0348
0.0337
0.0326
0.032525
0.0315
0.0304
0.030325
0.0293
0.029225
0.0282
0.0271
0.026
0.0249
0.024825
0.0239
0.0229
0.0219
0.0209
0.0199
0.0189
0.0179
0.0169
0.0159
0.0149
0.0139
0.0129
0.0119
0.0109
0.0099
0.0089
0.0079
0.0069
0.0059
)


// ************************************************************************* //
