/*--------------------------------*- C++ -*----------------------------------*\
| =========                 |                                                 |
| \\      /  F ield         | OpenFOAM: The Open Source CFD Toolbox           |
|  \\    /   O peration     | Version:  v2012                                 |
|   \\  /    A nd           | Website:  www.openfoam.com                      |
|    \\/     M anipulation  |                                                 |
\*---------------------------------------------------------------------------*/
FoamFile
{
    version     2.0;
    format      ascii;
    class       volVectorField;
    location    "0.055";
    object      U.air;
}
// * * * * * * * * * * * * * * * * * * * * * * * * * * * * * * * * * * * * * //

dimensions      [0 1 -1 0 0 0 0];


internalField   nonuniform List<vector> 
1900
(
(39.9676 0.00859686 0)
(39.9239 0.0151031 0)
(39.8679 0.0180588 0)
(39.8035 0.0207991 0)
(39.73 0.0237073 0)
(39.6525 0.0267677 0)
(39.5681 0.0297548 0)
(39.4712 0.0344388 0)
(39.38 0.0347892 0)
(39.2118 0.0735003 0)
(40.0053 0.0147926 0)
(40.0212 0.0233976 0)
(40.0401 0.0257183 0)
(40.0561 0.0277457 0)
(40.0726 0.0304789 0)
(40.0898 0.0329389 0)
(40.1095 0.0364822 0)
(40.1257 0.0385656 0)
(40.1466 0.0533873 0)
(40.1568 0.0585639 0)
(40.0029 0.00824743 0)
(40.0161 0.0135856 0)
(40.0335 0.0137913 0)
(40.051 0.0145443 0)
(40.0688 0.0163135 0)
(40.0879 0.0182042 0)
(40.1087 0.0208559 0)
(40.1299 0.0248087 0)
(40.1543 0.0350817 0)
(40.1844 0.0529358 0)
(40.0018 0.00414495 0)
(40.0132 0.00782146 0)
(40.0301 0.00860534 0)
(40.0479 0.00970549 0)
(40.066 0.0114326 0)
(40.0852 0.013252 0)
(40.1064 0.0158682 0)
(40.1291 0.0197464 0)
(40.1562 0.0288793 0)
(40.1894 0.041617 0)
(40.0015 0.00111199 0)
(40.012 0.00211927 0)
(40.0285 0.00232731 0)
(40.0464 0.00266245 0)
(40.0645 0.00325334 0)
(40.084 0.0040508 0)
(40.1056 0.00562455 0)
(40.1294 0.00842112 0)
(40.1575 0.0146664 0)
(40.1918 0.0210481 0)
(40.0016 -0.00180294 0)
(40.0122 -0.00371607 0)
(40.0288 -0.00416324 0)
(40.0468 -0.00431393 0)
(40.065 -0.00436068 0)
(40.0846 -0.00401596 0)
(40.1066 -0.00289536 0)
(40.1311 -0.000790484 0)
(40.1597 0.00317359 0)
(40.1936 0.00640133 0)
(40.0019 -0.00486281 0)
(40.0136 -0.00947529 0)
(40.0308 -0.0105123 0)
(40.0489 -0.0114613 0)
(40.0672 -0.0126727 0)
(40.0871 -0.0134371 0)
(40.1094 -0.0134431 0)
(40.1344 -0.0127067 0)
(40.163 -0.0110222 0)
(40.1957 -0.01046 0)
(40.0032 -0.00926932 0)
(40.0168 -0.0153327 0)
(40.0348 -0.0157393 0)
(40.0527 -0.0164769 0)
(40.0709 -0.01804 0)
(40.0911 -0.0194039 0)
(40.1136 -0.0202814 0)
(40.1388 -0.0207991 0)
(40.1672 -0.0210324 0)
(40.1987 -0.0225701 0)
(40.0057 -0.0162088 0)
(40.0223 -0.0253699 0)
(40.042 -0.0274342 0)
(40.0582 -0.0288787 0)
(40.0751 -0.0308086 0)
(40.0938 -0.0324199 0)
(40.1145 -0.0335736 0)
(40.1374 -0.0344441 0)
(40.1628 -0.0352281 0)
(40.1893 -0.0366751 0)
(39.9675 -0.0101413 0)
(39.9214 -0.0185952 0)
(39.8645 -0.0229107 0)
(39.797 -0.0265888 0)
(39.7223 -0.0303253 0)
(39.6428 -0.0339089 0)
(39.5582 -0.0373404 0)
(39.4686 -0.0407413 0)
(39.3739 -0.0441047 0)
(39.2741 -0.0480459 0)
(39.1724 -0.03929 0)
(38.0177 -0.354749 0)
(36.4707 -0.795077 0)
(34.965 -1.35457 0)
(33.8569 -1.88878 0)
(33.1082 -2.33212 0)
(32.5393 -2.60357 0)
(32.0827 -2.66918 0)
(31.6444 -2.56943 0)
(31.213 -2.34941 0)
(30.7878 -2.07047 0)
(30.3638 -1.7792 0)
(29.9529 -1.50896 0)
(29.5496 -1.27271 0)
(29.1573 -1.07581 0)
(28.7774 -0.916133 0)
(28.412 -0.788739 0)
(28.0651 -0.688119 0)
(27.7407 -0.608631 0)
(27.4409 -0.545461 0)
(27.1676 -0.494925 0)
(26.9184 -0.453035 0)
(26.6949 -0.417376 0)
(26.4937 -0.386467 0)
(26.3173 -0.359866 0)
(26.1597 -0.336073 0)
(26.0252 -0.314849 0)
(25.9101 -0.295992 0)
(25.8115 -0.279233 0)
(25.7267 -0.26423 0)
(25.6542 -0.250756 0)
(25.5909 -0.238486 0)
(25.5367 -0.22736 0)
(25.4881 -0.216922 0)
(25.4453 -0.207215 0)
(25.408 -0.198272 0)
(25.3757 -0.190023 0)
(25.348 -0.182377 0)
(25.3248 -0.175329 0)
(25.3054 -0.168779 0)
(25.2899 -0.162771 0)
(25.278 -0.157259 0)
(25.269 -0.152142 0)
(25.2624 -0.14729 0)
(25.258 -0.142726 0)
(25.2556 -0.138404 0)
(25.2549 -0.134344 0)
(25.2558 -0.130355 0)
(25.2583 -0.126529 0)
(25.262 -0.122867 0)
(25.2671 -0.119358 0)
(25.2732 -0.115977 0)
(25.2802 -0.112734 0)
(25.2881 -0.109668 0)
(25.2968 -0.106811 0)
(25.3061 -0.104191 0)
(25.3162 -0.10182 0)
(25.3269 -0.099674 0)
(25.3383 -0.097722 0)
(25.3503 -0.0959372 0)
(25.3629 -0.0942881 0)
(25.3764 -0.0926966 0)
(25.3906 -0.0910864 0)
(25.4056 -0.0893962 0)
(25.4213 -0.0875408 0)
(25.4375 -0.0855155 0)
(25.4541 -0.0834826 0)
(25.471 -0.0817398 0)
(25.4884 -0.0806045 0)
(25.5062 -0.0802813 0)
(25.5249 -0.080874 0)
(25.5445 -0.0825089 0)
(25.5654 -0.0853507 0)
(25.5879 -0.0895511 0)
(25.6127 -0.0952121 0)
(25.6404 -0.102091 0)
(25.6719 -0.109195 0)
(25.7069 -0.11503 0)
(25.7448 -0.118387 0)
(25.784 -0.118062 0)
(25.8213 -0.113404 0)
(25.8541 -0.105754 0)
(25.882 -0.0972922 0)
(25.9047 -0.0899766 0)
(25.9238 -0.0849869 0)
(25.941 -0.0827927 0)
(25.958 -0.0834462 0)
(25.9759 -0.0866487 0)
(25.9963 -0.0920593 0)
(26.0204 -0.0992892 0)
(26.0495 -0.10797 0)
(26.0849 -0.117486 0)
(26.1274 -0.127242 0)
(26.1773 -0.136346 0)
(26.2334 -0.144357 0)
(26.2966 -0.149246 0)
(26.3602 -0.151791 0)
(26.4351 -0.14705 0)
(26.489 -0.14577 0)
(26.5864 -0.126857 0)
(40.259 0.205357 0)
(40.4989 0.295826 0)
(40.6487 -0.0461327 0)
(40.4722 -0.668277 0)
(39.9271 -1.33072 0)
(39.098 -1.89403 0)
(38.1065 -2.25371 0)
(37.0579 -2.38373 0)
(36.057 -2.32252 0)
(35.1529 -2.13301 0)
(34.3672 -1.8798 0)
(33.6981 -1.6124 0)
(33.1358 -1.36138 0)
(32.6572 -1.14061 0)
(32.2417 -0.954994 0)
(31.8693 -0.803255 0)
(31.523 -0.68124 0)
(31.191 -0.583993 0)
(30.8659 -0.506928 0)
(30.5447 -0.446199 0)
(30.2268 -0.398085 0)
(29.9183 -0.359943 0)
(29.6235 -0.329858 0)
(29.3419 -0.305801 0)
(29.0764 -0.286319 0)
(28.8282 -0.270332 0)
(28.598 -0.257142 0)
(28.3877 -0.245925 0)
(28.1953 -0.236009 0)
(28.0211 -0.227056 0)
(27.8623 -0.21873 0)
(27.7182 -0.210804 0)
(27.587 -0.203138 0)
(27.4684 -0.195594 0)
(27.3611 -0.188267 0)
(27.2639 -0.181364 0)
(27.1762 -0.174907 0)
(27.0969 -0.168873 0)
(27.0255 -0.163266 0)
(26.9609 -0.158051 0)
(26.903 -0.153222 0)
(26.8502 -0.148705 0)
(26.802 -0.144482 0)
(26.7581 -0.140534 0)
(26.7184 -0.136815 0)
(26.6824 -0.13327 0)
(26.65 -0.129888 0)
(26.6209 -0.126625 0)
(26.5949 -0.123456 0)
(26.5717 -0.120385 0)
(26.5511 -0.117413 0)
(26.5326 -0.114508 0)
(26.5163 -0.1117 0)
(26.5018 -0.109021 0)
(26.4889 -0.10651 0)
(26.4777 -0.104211 0)
(26.4679 -0.102103 0)
(26.4592 -0.100185 0)
(26.4517 -0.0984679 0)
(26.4454 -0.0969454 0)
(26.4405 -0.0955807 0)
(26.4368 -0.0942765 0)
(26.4347 -0.0930019 0)
(26.4339 -0.0916462 0)
(26.434 -0.0899945 0)
(26.4351 -0.0881524 0)
(26.437 -0.0862931 0)
(26.4396 -0.0847286 0)
(26.4431 -0.0837974 0)
(26.4476 -0.0837209 0)
(26.4533 -0.0846191 0)
(26.4603 -0.0866421 0)
(26.469 -0.0899665 0)
(26.4795 -0.0947498 0)
(26.4925 -0.101176 0)
(26.5086 -0.109046 0)
(26.5288 -0.117248 0)
(26.5528 -0.124037 0)
(26.5798 -0.127913 0)
(26.6072 -0.127325 0)
(26.6319 -0.121578 0)
(26.6515 -0.112448 0)
(26.6655 -0.102469 0)
(26.6742 -0.0938617 0)
(26.6788 -0.088222 0)
(26.6808 -0.085964 0)
(26.6828 -0.0865645 0)
(26.686 -0.0901944 0)
(26.6918 -0.096493 0)
(26.7013 -0.104962 0)
(26.7154 -0.115203 0)
(26.7352 -0.126564 0)
(26.7613 -0.138286 0)
(26.7937 -0.149251 0)
(26.8313 -0.158902 0)
(26.8743 -0.16498 0)
(26.917 -0.168466 0)
(26.9672 -0.163561 0)
(27.0026 -0.162845 0)
(27.0662 -0.141047 0)
(40.2699 0.127728 0)
(40.4561 0.0177088 0)
(40.6021 -0.368751 0)
(40.4975 -0.908914 0)
(40.0434 -1.44076 0)
(39.2825 -1.8601 0)
(38.3234 -2.09981 0)
(37.2919 -2.15543 0)
(36.2755 -2.06686 0)
(35.365 -1.8855 0)
(34.5834 -1.65866 0)
(33.9347 -1.42338 0)
(33.4083 -1.20313 0)
(32.985 -1.0087 0)
(32.6451 -0.843862 0)
(32.3704 -0.707458 0)
(32.1449 -0.595948 0)
(31.9565 -0.505759 0)
(31.7945 -0.433001 0)
(31.6503 -0.374557 0)
(31.5155 -0.32769 0)
(31.3846 -0.29065 0)
(31.2513 -0.261015 0)
(31.1133 -0.237297 0)
(30.9682 -0.2183 0)
(30.8147 -0.203051 0)
(30.6527 -0.190961 0)
(30.4831 -0.181245 0)
(30.3076 -0.173334 0)
(30.1291 -0.166825 0)
(29.9493 -0.161327 0)
(29.7725 -0.156579 0)
(29.5996 -0.152454 0)
(29.4349 -0.148824 0)
(29.2793 -0.145652 0)
(29.1333 -0.142866 0)
(28.9971 -0.140333 0)
(28.8708 -0.137963 0)
(28.7535 -0.135686 0)
(28.6449 -0.133464 0)
(28.5442 -0.131333 0)
(28.4507 -0.129182 0)
(28.3638 -0.12688 0)
(28.2833 -0.124496 0)
(28.2088 -0.12213 0)
(28.1398 -0.119803 0)
(28.076 -0.11753 0)
(28.017 -0.115263 0)
(27.9626 -0.112971 0)
(27.9121 -0.110633 0)
(27.8649 -0.108286 0)
(27.8207 -0.105969 0)
(27.7794 -0.103751 0)
(27.7407 -0.101658 0)
(27.7047 -0.0997284 0)
(27.671 -0.0979999 0)
(27.6396 -0.0964594 0)
(27.6103 -0.0950738 0)
(27.5831 -0.0938485 0)
(27.5579 -0.0928127 0)
(27.5347 -0.0919464 0)
(27.5136 -0.0911643 0)
(27.4945 -0.0903123 0)
(27.4769 -0.0892352 0)
(27.4607 -0.0879065 0)
(27.4458 -0.0863679 0)
(27.4318 -0.0847802 0)
(27.4188 -0.0834929 0)
(27.4069 -0.0828839 0)
(27.3963 -0.083197 0)
(27.3872 -0.0845329 0)
(27.3798 -0.0869892 0)
(27.3741 -0.0907724 0)
(27.3702 -0.0961959 0)
(27.3688 -0.103453 0)
(27.3708 -0.112373 0)
(27.3771 -0.121726 0)
(27.3879 -0.129585 0)
(27.4016 -0.134047 0)
(27.4148 -0.133017 0)
(27.425 -0.12614 0)
(27.4296 -0.115429 0)
(27.4281 -0.103796 0)
(27.4211 -0.0937604 0)
(27.4098 -0.0868581 0)
(27.3956 -0.0838996 0)
(27.3806 -0.0849256 0)
(27.3675 -0.0892518 0)
(27.3569 -0.0963883 0)
(27.3494 -0.105948 0)
(27.3456 -0.117578 0)
(27.3464 -0.130534 0)
(27.352 -0.143899 0)
(27.3625 -0.156407 0)
(27.3763 -0.167278 0)
(27.393 -0.174004 0)
(27.4082 -0.177865 0)
(27.4255 -0.172486 0)
(27.4362 -0.172093 0)
(27.4543 -0.148624 0)
(40.2634 0.0673213 0)
(40.4035 0.0041484 0)
(40.4966 -0.262192 0)
(40.3654 -0.678559 0)
(39.9153 -1.11194 0)
(39.1788 -1.46752 0)
(38.2536 -1.69377 0)
(37.2568 -1.77789 0)
(36.2694 -1.73966 0)
(35.381 -1.61392 0)
(34.6119 -1.43928 0)
(33.9669 -1.24886 0)
(33.4388 -1.06557 0)
(33.0112 -0.900863 0)
(32.6669 -0.759528 0)
(32.3891 -0.641393 0)
(32.1644 -0.544256 0)
(31.9815 -0.465044 0)
(31.8318 -0.400778 0)
(31.7081 -0.348661 0)
(31.6051 -0.3065 0)
(31.5181 -0.272209 0)
(31.4436 -0.243894 0)
(31.3787 -0.219983 0)
(31.3214 -0.199684 0)
(31.2691 -0.182182 0)
(31.2201 -0.167222 0)
(31.1717 -0.154259 0)
(31.1222 -0.14302 0)
(31.0699 -0.133371 0)
(31.0134 -0.125173 0)
(30.9513 -0.118275 0)
(30.8825 -0.112618 0)
(30.8063 -0.108162 0)
(30.7228 -0.104637 0)
(30.6321 -0.101854 0)
(30.5351 -0.0996862 0)
(30.4328 -0.0980075 0)
(30.3265 -0.0967241 0)
(30.2178 -0.0957777 0)
(30.108 -0.0950675 0)
(29.9988 -0.0944702 0)
(29.8922 -0.0940413 0)
(29.7891 -0.0938037 0)
(29.6901 -0.0936725 0)
(29.5957 -0.093574 0)
(29.5061 -0.0934469 0)
(29.4212 -0.0932068 0)
(29.341 -0.0928406 0)
(29.2653 -0.0923045 0)
(29.1937 -0.0915173 0)
(29.1257 -0.0905002 0)
(29.061 -0.0893669 0)
(28.999 -0.0882023 0)
(28.94 -0.0871101 0)
(28.8835 -0.0861159 0)
(28.8298 -0.0852182 0)
(28.7787 -0.0844333 0)
(28.7302 -0.0837912 0)
(28.6842 -0.0833381 0)
(28.6406 -0.0830609 0)
(28.5995 -0.0828957 0)
(28.5608 -0.0826728 0)
(28.5243 -0.0821517 0)
(28.4898 -0.0812333 0)
(28.4565 -0.0800043 0)
(28.4244 -0.0787018 0)
(28.3933 -0.0777031 0)
(28.3634 -0.0774016 0)
(28.3348 -0.0780805 0)
(28.3076 -0.0798751 0)
(28.2822 -0.0828513 0)
(28.2585 -0.0871731 0)
(28.2367 -0.0931636 0)
(28.217 -0.101283 0)
(28.2005 -0.111471 0)
(28.1886 -0.122327 0)
(28.1818 -0.13104 0)
(28.1785 -0.135345 0)
(28.1744 -0.133969 0)
(28.1666 -0.125819 0)
(28.1529 -0.113411 0)
(28.1327 -0.100149 0)
(28.1074 -0.0887615 0)
(28.0781 -0.0809097 0)
(28.0463 -0.0774761 0)
(28.0135 -0.0785617 0)
(27.9825 -0.083439 0)
(27.9533 -0.0914066 0)
(27.9266 -0.10179 0)
(27.9017 -0.114505 0)
(27.8797 -0.128567 0)
(27.86 -0.143083 0)
(27.8426 -0.156282 0)
(27.8258 -0.167583 0)
(27.8077 -0.174217 0)
(27.7877 -0.177487 0)
(27.7612 -0.171623 0)
(27.7401 -0.170362 0)
(27.7002 -0.147012 0)
(40.2555 0.0314087 0)
(40.3567 -0.0319154 0)
(40.4022 -0.258922 0)
(40.2469 -0.617291 0)
(39.8045 -0.99546 0)
(39.0981 -1.3066 0)
(38.2123 -1.50466 0)
(37.2568 -1.57693 0)
(36.3003 -1.54042 0)
(35.4309 -1.428 0)
(34.6702 -1.27372 0)
(34.0264 -1.10656 0)
(33.4951 -0.946108 0)
(33.0625 -0.802182 0)
(32.7123 -0.678462 0)
(32.429 -0.574929 0)
(32.1992 -0.489557 0)
(32.012 -0.419899 0)
(31.8585 -0.363162 0)
(31.7317 -0.316993 0)
(31.626 -0.279445 0)
(31.5372 -0.248864 0)
(31.4619 -0.223653 0)
(31.3976 -0.202622 0)
(31.3425 -0.184948 0)
(31.2951 -0.169976 0)
(31.2541 -0.15727 0)
(31.2184 -0.146302 0)
(31.1873 -0.136739 0)
(31.1599 -0.128272 0)
(31.1359 -0.120725 0)
(31.1143 -0.113826 0)
(31.0948 -0.107561 0)
(31.0765 -0.101864 0)
(31.0589 -0.096601 0)
(31.0411 -0.0916883 0)
(31.0224 -0.0871998 0)
(31.0021 -0.083151 0)
(30.9796 -0.0795606 0)
(30.954 -0.0764509 0)
(30.9248 -0.0738459 0)
(30.8914 -0.071793 0)
(30.8536 -0.0702992 0)
(30.8109 -0.0692501 0)
(30.7635 -0.0685289 0)
(30.7114 -0.0680605 0)
(30.655 -0.067761 0)
(30.5947 -0.0675515 0)
(30.5309 -0.0673503 0)
(30.4646 -0.0670648 0)
(30.3965 -0.0666678 0)
(30.3273 -0.0662164 0)
(30.2575 -0.065758 0)
(30.1873 -0.0653475 0)
(30.1172 -0.0650702 0)
(30.0474 -0.0649646 0)
(29.9786 -0.0650606 0)
(29.9107 -0.0652903 0)
(29.844 -0.0656451 0)
(29.7784 -0.0661756 0)
(29.7145 -0.0668859 0)
(29.6522 -0.0676636 0)
(29.5919 -0.0682796 0)
(29.5335 -0.0684932 0)
(29.4769 -0.068163 0)
(29.4211 -0.0673705 0)
(29.3662 -0.0664624 0)
(29.3122 -0.0658956 0)
(29.2593 -0.066064 0)
(29.2075 -0.0672188 0)
(29.157 -0.0695142 0)
(29.1079 -0.0730575 0)
(29.0608 -0.0779493 0)
(29.0155 -0.084481 0)
(28.9715 -0.0933055 0)
(28.9298 -0.104484 0)
(28.8926 -0.116543 0)
(28.8615 -0.126622 0)
(28.8339 -0.131897 0)
(28.806 -0.129607 0)
(28.7748 -0.119819 0)
(28.7381 -0.105569 0)
(28.6959 -0.0906788 0)
(28.6497 -0.0781295 0)
(28.6007 -0.0694785 0)
(28.5501 -0.0655923 0)
(28.4987 -0.0667353 0)
(28.4484 -0.0720419 0)
(28.3987 -0.080393 0)
(28.3493 -0.0911446 0)
(28.2995 -0.104036 0)
(28.2487 -0.118392 0)
(28.1965 -0.133065 0)
(28.1421 -0.146371 0)
(28.0848 -0.157229 0)
(28.0223 -0.162959 0)
(27.9579 -0.165069 0)
(27.8809 -0.158679 0)
(27.8234 -0.156236 0)
(27.7196 -0.135372 0)
(40.2478 0.00634987 0)
(40.3189 -0.0529616 0)
(40.3277 -0.234963 0)
(40.1541 -0.51879 0)
(39.7189 -0.818084 0)
(39.0362 -1.06197 0)
(38.1812 -1.21597 0)
(37.2554 -1.27229 0)
(36.3239 -1.24528 0)
(35.4696 -1.16045 0)
(34.7172 -1.04244 0)
(34.0752 -0.912824 0)
(33.5414 -0.786803 0)
(33.1037 -0.672318 0)
(32.747 -0.572826 0)
(32.4568 -0.488972 0)
(32.2206 -0.419546 0)
(32.0275 -0.362655 0)
(31.8686 -0.316311 0)
(31.7372 -0.278638 0)
(31.6276 -0.247942 0)
(31.5355 -0.22284 0)
(31.4573 -0.202096 0)
(31.3903 -0.184705 0)
(31.3328 -0.169963 0)
(31.2831 -0.157319 0)
(31.2398 -0.146401 0)
(31.2019 -0.136843 0)
(31.1687 -0.128373 0)
(31.1394 -0.120833 0)
(31.1136 -0.114052 0)
(31.0906 -0.10788 0)
(31.0703 -0.102314 0)
(31.0521 -0.0973353 0)
(31.0359 -0.0928463 0)
(31.0213 -0.0887676 0)
(31.0083 -0.0851275 0)
(30.9964 -0.0818365 0)
(30.9856 -0.0788394 0)
(30.9756 -0.0761007 0)
(30.9662 -0.07362 0)
(30.9572 -0.0714209 0)
(30.9481 -0.0694158 0)
(30.9388 -0.067539 0)
(30.9288 -0.0657504 0)
(30.9178 -0.0640329 0)
(30.9055 -0.0623604 0)
(30.8913 -0.0607034 0)
(30.8749 -0.0590458 0)
(30.8559 -0.0573839 0)
(30.8338 -0.055712 0)
(30.8082 -0.0540462 0)
(30.7789 -0.052419 0)
(30.7457 -0.0509174 0)
(30.7083 -0.0496357 0)
(30.6668 -0.0486595 0)
(30.6213 -0.0479477 0)
(30.5718 -0.0474566 0)
(30.5186 -0.0471944 0)
(30.462 -0.0472334 0)
(30.4023 -0.047606 0)
(30.3401 -0.0482079 0)
(30.2757 -0.0488109 0)
(30.2098 -0.0491201 0)
(30.1424 -0.048877 0)
(30.0738 -0.0481135 0)
(30.0041 -0.0472335 0)
(29.9332 -0.0467482 0)
(29.8616 -0.0470752 0)
(29.7894 -0.0484536 0)
(29.7167 -0.0510279 0)
(29.6437 -0.0549377 0)
(29.5706 -0.0603035 0)
(29.4977 -0.0672413 0)
(29.4246 -0.0763175 0)
(29.3508 -0.0884886 0)
(29.2792 -0.102489 0)
(29.2141 -0.114393 0)
(29.1542 -0.120233 0)
(29.0958 -0.117625 0)
(29.0364 -0.106957 0)
(28.9741 -0.0914882 0)
(28.9091 -0.075337 0)
(28.8427 -0.0618251 0)
(28.7758 -0.0525545 0)
(28.7084 -0.0483591 0)
(28.6405 -0.049504 0)
(28.5722 -0.0548622 0)
(28.5029 -0.0630434 0)
(28.4309 -0.0733577 0)
(28.3547 -0.0856143 0)
(28.2733 -0.0990869 0)
(28.1856 -0.112551 0)
(28.0903 -0.124327 0)
(27.9888 -0.133477 0)
(27.8773 -0.137537 0)
(27.7667 -0.137709 0)
(27.6384 -0.131344 0)
(27.5453 -0.127436 0)
(27.3843 -0.11218 0)
(40.2419 -0.0161888 0)
(40.2904 -0.0672159 0)
(40.2717 -0.206839 0)
(40.0833 -0.423781 0)
(39.6529 -0.656222 0)
(38.9886 -0.849166 0)
(38.1577 -0.975749 0)
(37.2546 -1.02815 0)
(36.3423 -1.01524 0)
(35.4977 -0.954945 0)
(34.7471 -0.865254 0)
(34.1002 -0.763734 0)
(33.5566 -0.66356 0)
(33.1076 -0.571898 0)
(32.7396 -0.491716 0)
(32.4388 -0.423569 0)
(32.1922 -0.366557 0)
(31.9893 -0.319366 0)
(31.8209 -0.280503 0)
(31.6802 -0.248623 0)
(31.5612 -0.222487 0)
(31.4594 -0.200957 0)
(31.3711 -0.183016 0)
(31.2937 -0.167903 0)
(31.2252 -0.155092 0)
(31.1642 -0.1441 0)
(31.1091 -0.13461 0)
(31.0589 -0.126328 0)
(31.0126 -0.118996 0)
(30.9694 -0.112456 0)
(30.9288 -0.106595 0)
(30.8903 -0.101294 0)
(30.8538 -0.0964815 0)
(30.8186 -0.0921202 0)
(30.7845 -0.0881078 0)
(30.7511 -0.0843766 0)
(30.7182 -0.0809121 0)
(30.6854 -0.0777029 0)
(30.6529 -0.0747303 0)
(30.6205 -0.0719541 0)
(30.5879 -0.0693947 0)
(30.555 -0.0670669 0)
(30.5216 -0.0649418 0)
(30.4877 -0.062975 0)
(30.4532 -0.0611302 0)
(30.418 -0.0593654 0)
(30.382 -0.0576273 0)
(30.3452 -0.0558636 0)
(30.3077 -0.0540277 0)
(30.2695 -0.0520776 0)
(30.2305 -0.0499786 0)
(30.1909 -0.0477402 0)
(30.1506 -0.0454117 0)
(30.1097 -0.0430834 0)
(30.0682 -0.0408709 0)
(30.0262 -0.0388756 0)
(29.9835 -0.0371238 0)
(29.9404 -0.0355797 0)
(29.8968 -0.0342645 0)
(29.8526 -0.0332712 0)
(29.8078 -0.0326616 0)
(29.7622 -0.0323483 0)
(29.7159 -0.0321112 0)
(29.669 -0.0316438 0)
(29.6213 -0.0306517 0)
(29.5725 -0.0291598 0)
(29.522 -0.0275794 0)
(29.4695 -0.0263956 0)
(29.4146 -0.0260094 0)
(29.3568 -0.0266575 0)
(29.2956 -0.0284854 0)
(29.2306 -0.0316611 0)
(29.1613 -0.0363355 0)
(29.0874 -0.0426569 0)
(29.0091 -0.0511147 0)
(28.9265 -0.0626192 0)
(28.8389 -0.0769526 0)
(28.7514 -0.0902195 0)
(28.6691 -0.0972823 0)
(28.5896 -0.0950922 0)
(28.5102 -0.0843389 0)
(28.4295 -0.0688532 0)
(28.3504 -0.0530996 0)
(28.2752 -0.0400804 0)
(28.2027 -0.0309354 0)
(28.1309 -0.0266217 0)
(28.0591 -0.0275783 0)
(27.9863 -0.0325341 0)
(27.9108 -0.039816 0)
(27.8299 -0.048619 0)
(27.7414 -0.0589218 0)
(27.6436 -0.070129 0)
(27.5365 -0.0810333 0)
(27.4186 -0.0902502 0)
(27.2935 -0.0969214 0)
(27.1561 -0.0993055 0)
(27.0256 -0.0982889 0)
(26.8767 -0.0933762 0)
(26.772 -0.0888944 0)
(26.5946 -0.0816499 0)
(40.2386 -0.0300379 0)
(40.2709 -0.0705002 0)
(40.2319 -0.171542 0)
(40.0309 -0.327104 0)
(39.6008 -0.494836 0)
(38.9444 -0.634488 0)
(38.1222 -0.726398 0)
(37.2222 -0.765068 0)
(36.3083 -0.757652 0)
(35.451 -0.717331 0)
(34.6816 -0.655939 0)
(34.0116 -0.585371 0)
(33.4409 -0.514617 0)
(32.9627 -0.448906 0)
(32.5626 -0.390481 0)
(32.2285 -0.340229 0)
(31.9467 -0.29766 0)
(31.708 -0.262079 0)
(31.5023 -0.232365 0)
(31.3235 -0.207721 0)
(31.1647 -0.18727 0)
(31.0223 -0.170402 0)
(30.893 -0.156206 0)
(30.7739 -0.14405 0)
(30.6632 -0.133555 0)
(30.5591 -0.124372 0)
(30.4602 -0.11628 0)
(30.3656 -0.109067 0)
(30.2745 -0.102537 0)
(30.1862 -0.0965947 0)
(30.1004 -0.0911799 0)
(30.0165 -0.0861913 0)
(29.9343 -0.0815967 0)
(29.8535 -0.0773625 0)
(29.774 -0.0734225 0)
(29.6955 -0.0697201 0)
(29.6181 -0.066263 0)
(29.5417 -0.0630727 0)
(29.4663 -0.0601399 0)
(29.3917 -0.0574148 0)
(29.318 -0.0548908 0)
(29.2452 -0.0525824 0)
(29.1732 -0.0504633 0)
(29.102 -0.0484833 0)
(29.0316 -0.0465959 0)
(28.962 -0.0447638 0)
(28.8932 -0.0429398 0)
(28.8254 -0.0411008 0)
(28.7587 -0.0392169 0)
(28.6931 -0.0372462 0)
(28.6288 -0.0351691 0)
(28.5659 -0.0330216 0)
(28.5044 -0.0308791 0)
(28.4445 -0.0288426 0)
(28.3863 -0.027015 0)
(28.3299 -0.0254808 0)
(28.2754 -0.0242477 0)
(28.2229 -0.0232572 0)
(28.1725 -0.0224817 0)
(28.1239 -0.0219902 0)
(28.077 -0.0218502 0)
(28.0318 -0.0219846 0)
(27.9883 -0.0221679 0)
(27.9468 -0.0220417 0)
(27.9072 -0.0212124 0)
(27.8688 -0.0196524 0)
(27.8311 -0.0178037 0)
(27.7935 -0.0162214 0)
(27.7555 -0.0153163 0)
(27.7167 -0.0152228 0)
(27.6763 -0.0160093 0)
(27.6333 -0.0178502 0)
(27.5868 -0.0209357 0)
(27.5358 -0.0255167 0)
(27.4798 -0.0322081 0)
(27.4175 -0.0419648 0)
(27.3479 -0.0549256 0)
(27.2733 -0.0683019 0)
(27.2008 -0.0761339 0)
(27.1294 -0.0736961 0)
(27.0566 -0.0618412 0)
(26.9814 -0.0458722 0)
(26.9098 -0.0312866 0)
(26.8445 -0.0200567 0)
(26.7838 -0.0119854 0)
(26.7243 -0.00826616 0)
(26.6648 -0.00920485 0)
(26.6045 -0.0134689 0)
(26.5414 -0.0193977 0)
(26.4723 -0.0260146 0)
(26.3945 -0.0334299 0)
(26.3065 -0.0415095 0)
(26.2082 -0.0492389 0)
(26.0985 -0.055532 0)
(25.9815 -0.0596335 0)
(25.8526 -0.0608718 0)
(25.7333 -0.0596747 0)
(25.5983 -0.0569553 0)
(25.5065 -0.0530521 0)
(25.351 -0.053188 0)
(40.2229 -0.0441218 0)
(40.2342 -0.0683543 0)
(40.17 -0.129284 0)
(39.9427 -0.223499 0)
(39.4856 -0.326545 0)
(38.7962 -0.413762 0)
(37.9304 -0.47259 0)
(36.9718 -0.498734 0)
(35.9899 -0.496122 0)
(35.0459 -0.472144 0)
(34.1797 -0.433823 0)
(33.4042 -0.388843 0)
(32.7236 -0.343362 0)
(32.1344 -0.300943 0)
(31.6248 -0.263107 0)
(31.1839 -0.230407 0)
(30.7987 -0.202533 0)
(30.4609 -0.179055 0)
(30.1597 -0.159201 0)
(29.8898 -0.142501 0)
(29.6432 -0.128162 0)
(29.4179 -0.116157 0)
(29.2106 -0.106023 0)
(29.0181 -0.0972375 0)
(28.8384 -0.0895336 0)
(28.6694 -0.0826396 0)
(28.51 -0.0764339 0)
(28.3586 -0.0707979 0)
(28.2149 -0.0656092 0)
(28.0778 -0.0608082 0)
(27.9469 -0.0563855 0)
(27.8217 -0.0522486 0)
(27.7018 -0.0483872 0)
(27.5868 -0.0448042 0)
(27.4766 -0.041468 0)
(27.3708 -0.0383426 0)
(27.2694 -0.0354288 0)
(27.172 -0.032748 0)
(27.0785 -0.0302987 0)
(26.9887 -0.028033 0)
(26.9022 -0.0259385 0)
(26.8191 -0.0240384 0)
(26.7389 -0.0223158 0)
(26.6616 -0.0207304 0)
(26.587 -0.0192477 0)
(26.515 -0.0178409 0)
(26.4457 -0.0164792 0)
(26.3788 -0.0151398 0)
(26.3144 -0.0137996 0)
(26.2526 -0.0124327 0)
(26.1936 -0.0110096 0)
(26.1374 -0.0095241 0)
(26.084 -0.00803063 0)
(26.0333 -0.00662073 0)
(25.9853 -0.00539778 0)
(25.9399 -0.00447428 0)
(25.8969 -0.00388547 0)
(25.8562 -0.00354498 0)
(25.8175 -0.00336961 0)
(25.7806 -0.00340213 0)
(25.7449 -0.00371835 0)
(25.7101 -0.00432072 0)
(25.6761 -0.00510328 0)
(25.6433 -0.00573482 0)
(25.612 -0.00569312 0)
(25.5821 -0.0048063 0)
(25.5537 -0.0034283 0)
(25.5264 -0.00204262 0)
(25.4998 -0.00110232 0)
(25.4733 -0.000874073 0)
(25.446 -0.00137618 0)
(25.4167 -0.00264936 0)
(25.384 -0.00482272 0)
(25.3468 -0.00809805 0)
(25.3031 -0.0129446 0)
(25.2501 -0.0201958 0)
(25.1854 -0.0305631 0)
(25.1089 -0.0428088 0)
(25.0256 -0.0516471 0)
(24.9413 -0.0507767 0)
(24.8585 -0.0401941 0)
(24.7822 -0.0257244 0)
(24.718 -0.0122509 0)
(24.6673 -0.00190736 0)
(24.6261 0.00497591 0)
(24.5892 0.00871513 0)
(24.5531 0.00839194 0)
(24.5162 0.00499862 0)
(24.4757 0.000693783 0)
(24.428 -0.00379874 0)
(24.3695 -0.00879631 0)
(24.2993 -0.0140221 0)
(24.2181 -0.0187478 0)
(24.1255 -0.0223637 0)
(24.0271 -0.0242797 0)
(23.9199 -0.0248389 0)
(23.8244 -0.0240491 0)
(23.7166 -0.0232396 0)
(23.6472 -0.0208535 0)
(23.5245 -0.0245934 0)
(39.1402 -0.0539827 0)
(38.9464 -0.0675414 0)
(38.6586 -0.0934357 0)
(38.1914 -0.131008 0)
(37.4774 -0.172068 0)
(36.5128 -0.207798 0)
(35.3544 -0.233296 0)
(34.0902 -0.246394 0)
(32.798 -0.247958 0)
(31.5413 -0.240197 0)
(30.374 -0.225499 0)
(29.3095 -0.206603 0)
(28.3626 -0.186338 0)
(27.5262 -0.166323 0)
(26.7954 -0.147426 0)
(26.1536 -0.13003 0)
(25.5937 -0.114481 0)
(25.0995 -0.100615 0)
(24.6664 -0.0884199 0)
(24.281 -0.0776186 0)
(23.9413 -0.0683272 0)
(23.6357 -0.060747 0)
(23.3593 -0.0544304 0)
(23.1087 -0.0490436 0)
(22.88 -0.0443802 0)
(22.6711 -0.0402898 0)
(22.4796 -0.0366796 0)
(22.3041 -0.0334877 0)
(22.1427 -0.0306191 0)
(21.9948 -0.0280459 0)
(21.8585 -0.0257445 0)
(21.7334 -0.0236554 0)
(21.6185 -0.021778 0)
(21.513 -0.0201094 0)
(21.4159 -0.0186238 0)
(21.3267 -0.0172857 0)
(21.2448 -0.0160874 0)
(21.1696 -0.0150347 0)
(21.1003 -0.0141244 0)
(21.0363 -0.0133143 0)
(20.9774 -0.0125912 0)
(20.923 -0.0119646 0)
(20.8726 -0.0114208 0)
(20.8257 -0.0109377 0)
(20.7821 -0.010487 0)
(20.7417 -0.0100516 0)
(20.7042 -0.00960813 0)
(20.6697 -0.00913637 0)
(20.6382 -0.0086327 0)
(20.6098 -0.00808847 0)
(20.5845 -0.00747597 0)
(20.5627 -0.00678676 0)
(20.5444 -0.00607245 0)
(20.5297 -0.00542649 0)
(20.518 -0.00494885 0)
(20.5085 -0.00472212 0)
(20.5004 -0.00476092 0)
(20.4926 -0.00498344 0)
(20.4848 -0.00530768 0)
(20.4766 -0.00575777 0)
(20.4673 -0.00639031 0)
(20.4562 -0.00721389 0)
(20.4424 -0.00811911 0)
(20.4259 -0.00874845 0)
(20.4079 -0.00860196 0)
(20.3918 -0.00760995 0)
(20.3798 -0.00620079 0)
(20.3725 -0.0048906 0)
(20.3687 -0.00404569 0)
(20.3667 -0.003713 0)
(20.3646 -0.0038963 0)
(20.3608 -0.0046847 0)
(20.353 -0.00615412 0)
(20.3383 -0.00837022 0)
(20.3134 -0.0117054 0)
(20.2726 -0.0169223 0)
(20.2067 -0.0244668 0)
(20.1057 -0.0327996 0)
(19.9685 -0.0370114 0)
(19.8202 -0.0325043 0)
(19.7016 -0.0216723 0)
(19.6268 -0.0104117 0)
(19.5942 -0.00250917 0)
(19.5898 0.00169335 0)
(19.6084 0.00589858 0)
(19.646 0.00800275 0)
(19.6867 0.00673886 0)
(19.7171 0.00395047 0)
(19.7338 0.0018664 0)
(19.7388 0.000629709 0)
(19.7348 -0.00176415 0)
(19.7182 -0.00428523 0)
(19.69 -0.00619099 0)
(19.6515 -0.00747906 0)
(19.6082 -0.00815648 0)
(19.5585 -0.00885919 0)
(19.515 -0.00929231 0)
(19.4585 -0.0104407 0)
(19.4281 -0.00963902 0)
(19.3478 -0.01722 0)
(1.95436 0.421236 0)
(1.64905 2.05103 0)
(0.910893 2.40129 0)
(0.110902 2.56771 0)
(-0.665589 2.43238 0)
(-1.46653 1.98153 0)
(-2.1537 1.28402 0)
(-2.51274 0.770954 0)
(10.5779 0.318062 0)
(4.36565 1.81697 0)
(1.7441 2.17481 0)
(-0.155033 2.21101 0)
(-2.00007 2.04563 0)
(-3.87732 1.69172 0)
(-5.71495 1.11972 0)
(-6.92411 0.530804 0)
(16.887 -0.371915 0)
(7.91518 0.751473 0)
(2.86678 1.21415 0)
(-0.390801 1.32789 0)
(-2.99249 1.24928 0)
(-5.40336 1.05878 0)
(-7.85088 0.753695 0)
(-9.97519 0.288386 0)
(20.548 -1.17082 0)
(11.2391 -0.438636 0)
(4.58043 0.0734264 0)
(0.166347 0.312053 0)
(-3.1476 0.393344 0)
(-6.0266 0.379171 0)
(-8.77033 0.303316 0)
(-11.4791 0.0760323 0)
(22.4345 -1.81032 0)
(13.5547 -1.3272 0)
(6.4428 -0.873393 0)
(1.28504 -0.548998 0)
(-2.61852 -0.328255 0)
(-5.86393 -0.179416 0)
(-8.808 -0.064673 0)
(-11.795 -0.0515945 0)
(23.6382 -2.31551 0)
(15.4316 -1.97609 0)
(8.25976 -1.57563 0)
(2.74333 -1.21551 0)
(-1.47195 -0.904683 0)
(-4.91742 -0.630868 0)
(-7.98464 -0.380757 0)
(-11.1054 -0.205924 0)
(24.3327 -2.60584 0)
(16.9011 -2.37066 0)
(10.0265 -2.03608 0)
(4.44226 -1.6706 0)
(0.115667 -1.30542 0)
(-3.37697 -0.946641 0)
(-6.43092 -0.597661 0)
(-9.51231 -0.307141 0)
(24.7683 -2.67804 0)
(17.9671 -2.50943 0)
(11.515 -2.23408 0)
(6.15516 -1.89314 0)
(1.91898 -1.5131 0)
(-1.51045 -1.11237 0)
(-4.49004 -0.712701 0)
(-7.52826 -0.358448 0)
(25.0647 -2.58809 0)
(18.8342 -2.46098 0)
(12.8345 -2.23085 0)
(7.79369 -1.9191 0)
(3.76288 -1.5507 0)
(0.479083 -1.14691 0)
(-2.37466 -0.740297 0)
(-5.32882 -0.36917 0)
(25.251 -2.38124 0)
(19.5303 -2.28715 0)
(13.9917 -2.09718 0)
(9.31685 -1.82116 0)
(5.53743 -1.48034 0)
(2.42559 -1.09677 0)
(-0.297228 -0.708783 0)
(-3.1785 -0.353618 0)
(25.3305 -2.11403 0)
(20.0611 -2.05186 0)
(14.9678 -1.89753 0)
(10.6754 -1.65946 0)
(7.16905 -1.35431 0)
(4.24224 -1.00521 0)
(1.65836 -0.650621 0)
(-1.14579 -0.325778 0)
(25.3134 -1.83568 0)
(20.4572 -1.79945 0)
(15.8049 -1.67543 0)
(11.8636 -1.47251 0)
(8.60675 -1.20372 0)
(5.86499 -0.895483 0)
(3.41672 -0.58058 0)
(0.69709 -0.291769 0)
(25.2221 -1.5738 0)
(20.7381 -1.5578 0)
(16.5025 -1.45895 0)
(12.8902 -1.28619 0)
(9.86479 -1.05215 0)
(7.29305 -0.78263 0)
(4.96296 -0.504792 0)
(2.30906 -0.250334 0)
(25.0838 -1.34459 0)
(20.9391 -1.34123 0)
(17.0856 -1.26261 0)
(13.7725 -1.11601 0)
(10.9567 -0.913377 0)
(8.53853 -0.679325 0)
(6.31442 -0.435992 0)
(3.71808 -0.214279 0)
(24.9179 -1.1511 0)
(21.0785 -1.15539 0)
(17.5723 -1.09201 0)
(14.5313 -0.967224 0)
(11.9028 -0.792926 0)
(9.62006 -0.590279 0)
(7.4873 -0.377501 0)
(4.936 -0.184542 0)
(24.7443 -0.991372 0)
(21.1872 -0.997648 0)
(17.979 -0.945871 0)
(15.1721 -0.838939 0)
(12.7166 -0.690162 0)
(10.558 -0.514967 0)
(8.50812 -0.328047 0)
(5.99469 -0.161702 0)
(24.5809 -0.86142 0)
(21.2818 -0.866702 0)
(18.3243 -0.822265 0)
(15.7155 -0.729994 0)
(13.4168 -0.602407 0)
(11.3724 -0.450306 0)
(9.40092 -0.284129 0)
(6.91684 -0.145711 0)
(24.4337 -0.75554 0)
(21.3685 -0.759349 0)
(18.6247 -0.719417 0)
(16.1858 -0.638843 0)
(14.0242 -0.527994 0)
(12.0828 -0.394938 0)
(10.1872 -0.246792 0)
(7.71862 -0.13125 0)
(24.306 -0.66908 0)
(21.4506 -0.671176 0)
(18.891 -0.6346 0)
(16.5987 -0.563191 0)
(14.5566 -0.465608 0)
(12.7061 -0.348328 0)
(10.8784 -0.216913 0)
(8.42449 -0.115962 0)
(24.1977 -0.597955 0)
(21.5299 -0.598584 0)
(19.1307 -0.56461 0)
(16.966 -0.500528 0)
(15.028 -0.413601 0)
(13.2575 -0.309282 0)
(11.4895 -0.192419 0)
(9.04824 -0.102253 0)
(24.1077 -0.53884 0)
(21.608 -0.53864 0)
(19.349 -0.506688 0)
(17.2968 -0.448867 0)
(15.4501 -0.37066 0)
(13.7498 -0.27692 0)
(12.0341 -0.172131 0)
(9.60318 -0.0907315 0)
(24.033 -0.489187 0)
(21.684 -0.48842 0)
(19.5462 -0.458523 0)
(17.5965 -0.406063 0)
(15.8316 -0.335144 0)
(14.1937 -0.250165 0)
(12.524 -0.155335 0)
(10.1013 -0.0812602 0)
(23.971 -0.447448 0)
(21.7573 -0.44586 0)
(19.7272 -0.417877 0)
(17.8698 -0.369817 0)
(16.1788 -0.305044 0)
(14.5971 -0.22751 0)
(12.9684 -0.141088 0)
(10.5522 -0.0733415 0)
(23.9203 -0.41179 0)
(21.8288 -0.409191 0)
(19.8955 -0.382991 0)
(18.1211 -0.33865 0)
(16.4968 -0.279151 0)
(14.9659 -0.208034 0)
(13.3739 -0.128817 0)
(10.9627 -0.066613 0)
(23.8796 -0.380945 0)
(21.8973 -0.377554 0)
(20.0518 -0.352784 0)
(18.3528 -0.311618 0)
(16.7892 -0.256693 0)
(15.3046 -0.191154 0)
(13.7458 -0.118177 0)
(11.3383 -0.0608514 0)
(23.8481 -0.3541 0)
(21.9653 -0.349553 0)
(20.1992 -0.326421 0)
(18.5683 -0.288061 0)
(17.0597 -0.237078 0)
(15.6172 -0.176388 0)
(14.0884 -0.108841 0)
(11.6833 -0.0558509 0)
(23.8237 -0.329971 0)
(22.028 -0.324883 0)
(20.3369 -0.30332 0)