/*--------------------------------*- C++ -*----------------------------------*\
| =========                 |                                                 |
| \\      /  F ield         | OpenFOAM: The Open Source CFD Toolbox           |
|  \\    /   O peration     | Version:  v2012                                 |
|   \\  /    A nd           | Website:  www.openfoam.com                      |
|    \\/     M anipulation  |                                                 |
\*---------------------------------------------------------------------------*/
FoamFile
{
    version     2.0;
    format      ascii;
    class       Cloud<basicKinematicParcel>;
    location    "0.082/lagrangian/kinematicCloud";
    object      coordinates;
}
// * * * * * * * * * * * * * * * * * * * * * * * * * * * * * * * * * * * * * //

54
(
(0.302439 0.247854 0.34878 0.100927) 377 752 1
(0.0463865 0.282292 0.194515 0.476807) 879 1758 1
(0.257302 0.371349 0.0255137 0.345836) 1178 2356 2
(0.129782 0.435109 0.211802 0.223307) 677 1352 2
(0.451534 0.00618629 0.274233 0.268047) 1375 2751 2
(0.281549 0.359225 0.173531 0.185695) 1175 2348 2
(0.259446 0.203718 0.166559 0.370277) 54 108 1
(0.391868 0.304066 0.00659567 0.29747) 1570 3141 1
(0.724226 0.102997 0.137887 0.0348898) 1569 3139 2
(0.383272 0.178925 0.308364 0.12944) 770 1538 1
(0.0359519 0.0593058 0.482024 0.422718) 870 1738 1
(0.318212 0.340894 0.133658 0.207236) 568 1134 2
(0.974688 0.00236567 0.0126559 0.0102903) 1858 3717 2
(0.778849 0.110576 0.0121238 0.0984519) 157 115 1
(0.205158 0.290598 0.106823 0.397421) 1858 3517 2
(0.35398 0.200824 0.122186 0.32301) 963 1926 1
(0.898645 0.0506773 0.0309016 0.0197757) 360 521 1
(0.218465 0.244412 0.390767 0.146355) 1757 3512 1
(0.187867 0.272226 0.13384 0.406067) 559 1118 1
(0.0593146 0.232433 0.23791 0.470343) 1558 3116 1
(0.0699248 0.0850873 0.37995 0.465038) 1358 2517 2
(0.19725 0.401375 0.0598323 0.341543) 1754 3508 2
(0.748914 0.125543 0.0395752 0.0859676) 1356 2513 1
(0.606054 0.0430127 0.196973 0.15396) 454 909 2
(0.00196151 0.499019 0.188495 0.310525) 855 1708 2
(0.219338 0.0207264 0.369605 0.390331) 1353 2507 2
(0.261509 0.128248 0.369246 0.240997) 351 703 2
(0.947649 0.0261757 0.00885042 0.0173253) 1452 2905 1
(0.336132 0.305019 0.331934 0.026915) 147 295 2
(0.108073 0.445963 0.325477 0.120486) 1451 2903 1
(0.177429 0.120656 0.290629 0.411285) 26 22246 1
(0.198463 0.262265 0.400769 0.138503) 247 492 1
(0.0601315 0.288887 0.469934 0.181048) 1840 3681 2
(0.602617 0.140692 0.0579998 0.198691) 1046 2092 1
(0.153615 0.343305 0.0798873 0.423192) 646 1093 2
(0.537112 0.011642 0.231444 0.219802) 1245 2491 2
(0.63193 0.122009 0.062026 0.184035) 744 1289 2
(0.504094 0.122279 0.125674 0.247953) 843 1487 2
(0.363363 0.318319 0.00562967 0.312689) 1242 2485 1
(0.0560172 0.471991 0.369626 0.102366) 36 73 1
(0.365745 0.296414 0.317128 0.0207139) 640 1281 2
(0.755603 0.122198 0.0767959 0.0454024) 1239 2476 2
(0.230753 0.384624 0.207024 0.1776) 538 1077 1
(0.40537 0.297315 0.16134 0.135975) 537 875 1
(0.173946 0.413027 0.232233 0.180794) 736 1273 1
(0.296946 0.351527 0.20645 0.145077) 1135 2271 1
(0.156478 0.421761 0.127822 0.293939) 1534 2869 1
(0.522789 0.221875 0.238606 0.0167308) 933 1864 1
(0.233531 0.383234 0.0783125 0.304922) 832 1465 1
(0.0947211 0.452639 0.276062 0.176578) 1331 2663 1
(0.0368304 0.481585 0.207718 0.273867) 329 658 2
(0.0894123 0.455294 0.22542 0.229874) 729 1459 1
(0.0562041 0.471898 0.237263 0.234635) 1528 3057 1
(0.031418 0.419522 0.484291 0.0647686) 126 253 2
)


// ************************************************************************* //
