/*--------------------------------*- C++ -*----------------------------------*\
| =========                 |                                                 |
| \\      /  F ield         | OpenFOAM: The Open Source CFD Toolbox           |
|  \\    /   O peration     | Version:  v2012                                 |
|   \\  /    A nd           | Website:  www.openfoam.com                      |
|    \\/     M anipulation  |                                                 |
\*---------------------------------------------------------------------------*/
FoamFile
{
    version     2.0;
    format      ascii;
    class       vectorField;
    location    "0.082/lagrangian/kinematicCloud";
    object      UCorrect;
}
// * * * * * * * * * * * * * * * * * * * * * * * * * * * * * * * * * * * * * //


54
(
(0 0 0)
(0 0 0)
(0 0 0)
(3.4862e-28 1.8571e-30 0)
(0 0 0)
(0 0 0)
(4.28409e-27 1.85182e-30 0)
(4.70004e-31 -1.28559e-33 0)
(0 0 0)
(0 0 0)
(0 0 0)
(0 0 0)
(0 0 0)
(4.56401e-27 5.7703e-30 0)
(4.43549e-27 -5.62875e-30 0)
(-9.65057e-37 7.96568e-39 0)
(0 0 0)
(0 0 0)
(3.07168e-31 1.39215e-33 0)
(0 0 0)
(1.27743e-28 1.92984e-30 0)
(0 0 0)
(2.21929e-28 3.17494e-30 0)
(0 0 0)
(0 0 0)
(0 0 0)
(2.06822e-27 4.83668e-30 0)
(3.65211e-31 8.11784e-34 0)
(4.59971e-27 7.79943e-30 0)
(0 0 0)
(7.37385e-27 9.06667e-31 0)
(0 0 0)
(3.16281e-30 -2.77519e-33 0)
(0 0 0)
(0 0 0)
(0 0 0)
(0 0 0)
(0 0 0)
(8.76026e-32 2.90498e-33 0)
(0 0 0)
(2.38631e-28 -4.85827e-30 0)
(2.06652e-28 5.7714e-30 0)
(-4.61131e-14 2.02934e-15 0)
(5.17158e-14 -2.10232e-15 0)
(0 0 0)
(2.41183e-28 4.76311e-30 0)
(8.98845e-28 1.01632e-29 0)
(0 0 0)
(0 0 0)
(0 0 0)
(0 0 0)
(0 0 0)
(1.51493e-27 1.14145e-29 0)
(0 0 0)
)


// ************************************************************************* //
