/*--------------------------------*- C++ -*----------------------------------*\
| =========                 |                                                 |
| \\      /  F ield         | OpenFOAM: The Open Source CFD Toolbox           |
|  \\    /   O peration     | Version:  v2012                                 |
|   \\  /    A nd           | Website:  www.openfoam.com                      |
|    \\/     M anipulation  |                                                 |
\*---------------------------------------------------------------------------*/
FoamFile
{
    version     2.0;
    format      ascii;
    class       volScalarField;
    location    "0.132";
    object      p;
}
// * * * * * * * * * * * * * * * * * * * * * * * * * * * * * * * * * * * * * //

dimensions      [0 2 -2 0 0 0 0];


internalField   nonuniform List<scalar> 
5600
(
-0.996458
-1.45459
-1.83496
-2.15355
-2.46446
-2.77472
-3.07602
-3.35771
-3.62084
-3.87096
-4.10754
-4.33219
-4.54667
-4.75292
-4.95317
-5.14896
-5.34128
-5.53104
-5.71808
-5.90322
-6.08577
-6.26632
-6.4438
-6.62031
-6.79512
-6.96858
-7.14095
-7.31227
-7.48292
-7.65332
-7.82305
-7.99189
-8.16038
-8.3278
-8.4956
-8.66106
-8.82824
-8.99261
-9.15814
-9.32248
-9.48601
-9.65009
-9.81071
-9.97437
-10.1333
-10.2959
-10.4555
-10.6155
-10.7757
-10.9326
-11.0933
-11.248
-11.4083
-11.5635
-11.7211
-11.8775
-12.0313
-12.1893
-12.3401
-12.4986
-12.6496
-12.8053
-12.9574
-13.1096
-13.2647
-13.4135
-13.5692
-13.7158
-13.8714
-14.0198
-14.1727
-14.3254
-14.4743
-14.6299
-14.7769
-14.9318
-15.0801
-15.2314
-15.3825
-15.53
-15.6823
-15.8281
-15.9796
-16.1267
-16.2752
-16.425
-16.5713
-16.7212
-16.8678
-17.0177
-17.1639
-17.3129
-17.4609
-17.6096
-17.7576
-17.9072
-18.0581
-18.214
-18.3726
-18.5898
-1.05549
-1.47478
-1.85157
-2.17137
-2.48245
-2.79305
-3.09427
-3.37622
-3.63972
-3.88988
-4.12669
-4.35164
-4.56645
-4.77307
-4.97368
-5.16979
-5.3624
-5.55241
-5.73962
-5.92483
-6.10759
-6.28824
-6.46579
-6.64241
-6.81736
-6.99093
-7.16341
-7.3348
-7.50557
-7.67604
-7.84588
-8.01477
-8.1833
-8.35071
-8.51858
-8.68405
-8.85129
-9.01569
-9.18122
-9.34565
-9.50914
-9.67333
-9.83389
-9.99767
-10.1566
-10.3191
-10.4789
-10.6387
-10.7992
-10.9558
-11.1167
-11.2712
-11.4315
-11.587
-11.7443
-11.901
-12.0544
-12.2128
-12.3633
-12.5218
-12.673
-12.8282
-12.9809
-13.1325
-13.2882
-13.4365
-13.5924
-13.7391
-13.8943
-14.0435
-14.1954
-14.3489
-14.4973
-14.6532
-14.8004
-14.9546
-15.1039
-15.2542
-15.4061
-15.5533
-15.7053
-15.8518
-16.0024
-16.1504
-16.2982
-16.4484
-16.5947
-16.7441
-16.8915
-17.0404
-17.1875
-17.3361
-17.4838
-17.6333
-17.7802
-17.9309
-18.0805
-18.2382
-18.3927
-18.6057
-1.09374
-1.4874
-1.86431
-2.18474
-2.49366
-2.80176
-3.10189
-3.38345
-3.6467
-3.89655
-4.13308
-4.35811
-4.57296
-4.77955
-4.98019
-5.17632
-5.36896
-5.55897
-5.74619
-5.93141
-6.11417
-6.29486
-6.47258
-6.64925
-6.82409
-6.99768
-7.17006
-7.34146
-7.51212
-7.68256
-7.85231
-8.02113
-8.18974
-8.35715
-8.525
-8.69047
-8.85765
-9.02207
-9.18752
-9.35196
-9.5153
-9.67952
-9.83994
-10.0036
-10.1626
-10.325
-10.4849
-10.6445
-10.8051
-10.9618
-11.1226
-11.2773
-11.4374
-11.593
-11.7503
-11.9071
-12.0606
-12.2189
-12.3697
-12.5281
-12.6795
-12.8346
-12.9874
-13.1391
-13.2949
-13.4433
-13.599
-13.746
-13.9009
-14.0503
-14.202
-14.3556
-14.5038
-14.6596
-14.8069
-14.961
-15.1104
-15.2607
-15.4127
-15.5598
-15.7119
-15.8585
-16.0089
-16.1572
-16.3048
-16.4552
-16.6014
-16.7508
-16.8983
-17.0471
-17.1942
-17.3428
-17.4906
-17.64
-17.787
-17.9376
-18.0873
-18.2457
-18.3989
-18.6088
-1.14246
-1.50388
-1.87969
-2.20159
-2.50922
-2.8164
-3.1169
-3.39909
-3.66296
-3.91314
-4.15024
-4.37529
-4.59061
-4.79741
-4.99809
-5.19415
-5.38665
-5.57639
-5.76335
-5.94821
-6.13086
-6.31141
-6.4892
-6.66593
-6.84089
-7.01481
-7.18748
-7.35927
-7.53014
-7.70083
-7.87074
-8.03971
-8.20833
-8.37582
-8.54371
-8.70931
-8.87651
-9.04113
-9.20657
-9.37121
-9.53466
-9.69905
-9.85967
-10.0235
-10.1827
-10.345
-10.5052
-10.6646
-10.8255
-10.9821
-11.143
-11.2978
-11.4578
-11.6138
-11.7706
-11.9278
-12.0807
-12.2394
-12.3898
-12.548
-12.6999
-12.8542
-13.0079
-13.1585
-13.3147
-13.4629
-13.6183
-13.766
-13.9198
-14.0706
-14.2211
-14.3757
-14.5239
-14.6791
-14.8278
-14.9804
-15.1312
-15.2804
-15.4327
-15.5803
-15.7312
-15.879
-16.0282
-16.1774
-16.3246
-16.4746
-16.6217
-16.7699
-16.9187
-17.0664
-17.2142
-17.3626
-17.5103
-17.6597
-17.807
-17.9565
-18.1077
-18.2629
-18.4189
-18.614
-1.19208
-1.52102
-1.89543
-2.21979
-2.52581
-2.83216
-3.13235
-3.41436
-3.67826
-3.92824
-4.16557
-4.39037
-4.60589
-4.81291
-5.0138
-5.21002
-5.40272
-5.59256
-5.7797
-5.96462
-6.1473
-6.3278
-6.50566
-6.68214
-6.85701
-7.03068
-7.20318
-7.37477
-7.5454
-7.71603
-7.88574
-8.05481
-8.2234
-8.39105
-8.55885
-8.72468
-8.89164
-9.05646
-9.22172
-9.38641
-9.5497
-9.714
-9.87465
-10.0381
-10.1977
-10.3594
-10.52
-10.6791
-10.8399
-10.9966
-11.1571
-11.3125
-11.4718
-11.6282
-11.7845
-11.942
-12.0951
-12.2535
-12.4047
-12.5624
-12.7149
-12.8685
-13.0228
-13.1735
-13.3298
-13.4784
-13.633
-13.7819
-13.9346
-14.0863
-14.2361
-14.3909
-14.539
-14.6937
-14.8431
-14.9949
-15.1464
-15.2954
-15.4477
-15.5956
-15.7463
-15.8948
-16.0435
-16.193
-16.3401
-16.49
-16.6374
-16.7852
-16.9344
-17.0819
-17.2298
-17.378
-17.5259
-17.675
-17.8226
-17.9721
-18.1228
-18.2787
-18.432
-18.6219
-1.24211
-1.54034
-1.91272
-2.24005
-2.54444
-2.84982
-3.14964
-3.43167
-3.6958
-3.94596
-4.18353
-4.40868
-4.62448
-4.83176
-5.03287
-5.22919
-5.42201
-5.61183
-5.79905
-5.98396
-6.1665
-6.34693
-6.52494
-6.70137
-6.87639
-7.05002
-7.22263
-7.39422
-7.56487
-7.73542
-7.90515
-8.07417
-8.24259
-8.41038
-8.57772
-8.74397
-8.91032
-9.07543
-9.24044
-9.40507
-9.56865
-9.73274
-9.89403
-10.0569
-10.2172
-10.3785
-10.5395
-10.6984
-10.8592
-11.0165
-11.1764
-11.3328
-11.4912
-11.6484
-11.8043
-11.962
-12.1151
-12.2731
-12.4252
-12.5817
-12.7354
-12.8881
-13.0431
-13.1929
-13.349
-13.4987
-13.6517
-13.8023
-13.9534
-14.1064
-14.2556
-14.4103
-14.5598
-14.7125
-14.8644
-15.0144
-15.167
-15.3157
-15.4671
-15.6166
-15.7655
-15.9152
-16.0631
-16.2128
-16.3603
-16.5093
-16.6578
-16.8046
-16.9545
-17.1017
-17.2495
-17.3979
-17.5458
-17.6947
-17.8425
-17.9916
-18.142
-18.2973
-18.4493
-18.6318
-1.29152
-1.56216
-1.9318
-2.26233
-2.56526
-2.86962
-3.16913
-3.45124
-3.71556
-3.96583
-4.20353
-4.42891
-4.6448
-4.85223
-5.05347
-5.24988
-5.44277
-5.63263
-5.81989
-6.00479
-6.18735
-6.36779
-6.5459
-6.72232
-6.8974
-7.07101
-7.24367
-7.41523
-7.58601
-7.75641
-7.92621
-8.09524
-8.26357
-8.43163
-8.59854
-8.76539
-8.93115
-9.0966
-9.26145
-9.42575
-9.58994
-9.75326
-9.91552
-10.0772
-10.2383
-10.3988
-10.5599
-10.7191
-10.879
-11.0376
-11.1961
-11.3537
-11.5111
-11.6687
-11.8245
-11.9819
-12.136
-12.2928
-12.4466
-12.6011
-12.7563
-12.9081
-13.0631
-13.2138
-13.3687
-13.5208
-13.671
-13.8236
-13.9733
-14.1271
-14.2764
-14.4301
-14.5813
-14.732
-14.8856
-15.0345
-15.1874
-15.3369
-15.4875
-15.638
-15.7861
-15.9365
-16.0841
-16.2337
-16.3817
-16.53
-16.6792
-16.8256
-16.9754
-17.1229
-17.2707
-17.4189
-17.5671
-17.7156
-17.8637
-18.0126
-18.1623
-18.3172
-18.4674
-18.6427
-1.3385
-1.58665
-1.95322
-2.2868
-2.58851
-2.89188
-3.19119
-3.47335
-3.73779
-3.98816
-4.22595
-4.45156
-4.66752
-4.87515
-5.07653
-5.27308
-5.46604
-5.65595
-5.84324
-6.02816
-6.21074
-6.39114
-6.56929
-6.74573
-6.92081
-7.09446
-7.26711
-7.43868
-7.60954
-7.77989
-7.94969
-8.11874
-8.28703
-8.45519
-8.62199
-8.78899
-8.95455
-9.1202
-9.28498
-9.44918
-9.61379
-9.77634
-9.93954
-10.1002
-10.2621
-10.4222
-10.5832
-10.743
-10.9018
-11.0619
-11.2188
-11.3776
-11.5342
-11.6919
-11.8481
-12.0045
-12.1603
-12.3151
-12.471
-12.6233
-12.7796
-12.9313
-13.0856
-13.2381
-13.3906
-13.5452
-13.6929
-13.8471
-13.9963
-14.1498
-14.3007
-14.4522
-14.6058
-14.7545
-14.9096
-15.0584
-15.2108
-15.3612
-15.5106
-15.6621
-15.8094
-15.96
-16.108
-16.257
-16.4057
-16.5535
-16.7027
-16.8495
-16.9987
-17.1465
-17.2944
-17.4422
-17.5908
-17.7389
-17.8872
-18.036
-18.1848
-18.3388
-18.4872
-18.6543
-1.38148
-1.61371
-1.97757
-2.31358
-2.61441
-2.91695
-3.21613
-3.49831
-3.76283
-4.0133
-4.25117
-4.47696
-4.69298
-4.90077
-5.10224
-5.29888
-5.49187
-5.68181
-5.86911
-6.05404
-6.23661
-6.41697
-6.59514
-6.77162
-6.94669
-7.12038
-7.29301
-7.46462
-7.63551
-7.80588
-7.97563
-8.1447
-8.31301
-8.4811
-8.648
-8.81489
-8.98056
-9.14617
-9.31095
-9.4752
-9.63971
-9.80222
-9.96545
-10.1262
-10.2882
-10.4482
-10.609
-10.7691
-10.9276
-11.0881
-11.2447
-11.4039
-11.5601
-11.7178
-11.8744
-12.0299
-12.1869
-12.3404
-12.4977
-12.6489
-12.8054
-12.9576
-13.1106
-13.2647
-13.4154
-13.5714
-13.7186
-13.8726
-14.0224
-14.1748
-14.3271
-14.477
-14.6314
-14.7802
-14.9344
-15.0847
-15.236
-15.3871
-15.5362
-15.6879
-15.8356
-15.9858
-16.1344
-16.2827
-16.4319
-16.5797
-16.7283
-16.8761
-17.0245
-17.1725
-17.3205
-17.4682
-17.6169
-17.7647
-17.9132
-18.0618
-18.2098
-18.3622
-18.5087
-18.6667
-1.41866
-1.6429
-2.00543
-2.34285
-2.64315
-2.94524
-3.24439
-3.52654
-3.79109
-4.04165
-4.27956
-4.50544
-4.72149
-4.92936
-5.13089
-5.32758
-5.5206
-5.71057
-5.89788
-6.08283
-6.2654
-6.44572
-6.62391
-6.80041
-6.97548
-7.14919
-7.3218
-7.49342
-7.66435
-7.83472
-8.00443
-8.17351
-8.34185
-8.50987
-8.67689
-8.84365
-9.00946
-9.17498
-9.33981
-9.5041
-9.66843
-9.83115
-9.99406
-10.1552
-10.3169
-10.4772
-10.6378
-10.7979
-10.9566
-11.1167
-11.2737
-11.4325
-11.5891
-11.7466
-11.9033
-12.0587
-12.2157
-12.3694
-12.5261
-12.6783
-12.8338
-12.9868
-13.1391
-13.2937
-13.4445
-13.5996
-13.7482
-13.9009
-14.0518
-14.2032
-14.3562
-14.506
-14.6596
-14.8099
-14.9625
-15.1144
-15.2646
-15.4158
-15.5655
-15.7163
-15.8648
-16.0143
-16.1635
-16.3115
-16.4607
-16.6088
-16.757
-16.9051
-17.0533
-17.2014
-17.3493
-17.4972
-17.6457
-17.7935
-17.9418
-18.0902
-18.2376
-18.3879
-18.5323
-18.6804
-1.44601
-1.67219
-2.03585
-2.37319
-2.67338
-2.97563
-3.27485
-3.55687
-3.82141
-4.07204
-4.30992
-4.53581
-4.75183
-4.9597
-5.16123
-5.35794
-5.55095
-5.74093
-5.92823
-6.11321
-6.29577
-6.47602
-6.65421
-6.83073
-7.00579
-7.17951
-7.35209
-7.52371
-7.6947
-7.86506
-8.03473
-8.2038
-8.37218
-8.54014
-8.70724
-8.87392
-9.03982
-9.2053
-9.37012
-9.5345
-9.69866
-9.86152
-10.0242
-10.1857
-10.3471
-10.5076
-10.6681
-10.8281
-10.9871
-11.1467
-11.3042
-11.4626
-11.6196
-11.7769
-11.9336
-12.0892
-12.2458
-12.4
-12.556
-12.709
-12.8638
-13.0173
-13.1696
-13.3238
-13.4753
-13.6292
-13.779
-13.9309
-14.0823
-14.2335
-14.3863
-14.5366
-14.6894
-14.8406
-14.9926
-15.1445
-15.295
-15.446
-15.5959
-15.7465
-15.8952
-16.0446
-16.1937
-16.342
-16.4908
-16.6392
-16.7873
-16.9354
-17.0836
-17.2316
-17.3797
-17.5275
-17.6759
-17.8238
-17.9719
-18.12
-18.2668
-18.4152
-18.5567
-18.696
-1.4608
-1.69884
-2.06592
-2.40166
-2.70216
-3.00516
-3.30457
-3.58637
-3.85088
-4.10154
-4.33934
-4.56512
-4.78107
-4.98885
-5.19032
-5.387
-5.57999
-5.76996
-5.95723
-6.14223
-6.32477
-6.50496
-6.68314
-6.85966
-7.03472
-7.20843
-7.381
-7.5526
-7.72365
-7.89399
-8.06364
-8.2327
-8.40112
-8.56903
-8.73618
-8.90283
-9.06875
-9.23424
-9.39901
-9.56348
-9.72752
-9.89043
-10.053
-10.2146
-10.3759
-10.5366
-10.6971
-10.8569
-11.0161
-11.1755
-11.3332
-11.4915
-11.6486
-11.8058
-11.9625
-12.1182
-12.2745
-12.4291
-12.5846
-12.7382
-12.8927
-13.0461
-13.1988
-13.3524
-13.5045
-13.6576
-13.8082
-13.9597
-14.1112
-14.2626
-14.4149
-14.5659
-14.7181
-14.8698
-15.0214
-15.1736
-15.3242
-15.4749
-15.6252
-15.775
-15.9244
-16.0733
-16.2226
-16.3709
-16.5195
-16.6682
-16.816
-16.9645
-17.1121
-17.2606
-17.4085
-17.5562
-17.7049
-17.8524
-18.0008
-18.148
-18.2951
-18.4413
-18.5801
-18.7129
-1.46451
-1.7224
-2.09396
-2.427
-2.72821
-3.03233
-3.33198
-3.61351
-3.87797
-4.12866
-4.36632
-4.59194
-4.80777
-5.0154
-5.21676
-5.41339
-5.60633
-5.79629
-5.98353
-6.16856
-6.35107
-6.5312
-6.70934
-6.88586
-7.06091
-7.2346
-7.40715
-7.5787
-7.74982
-7.92013
-8.08977
-8.25882
-8.42725
-8.59514
-8.76232
-8.92896
-9.09489
-9.2604
-9.42514
-9.58969
-9.75365
-9.91657
-10.0791
-10.2408
-10.4021
-10.5627
-10.7232
-10.883
-11.0423
-11.2014
-11.3594
-11.5174
-11.6748
-11.8319
-11.9886
-12.1445
-12.3005
-12.4555
-12.6106
-12.7646
-12.9189
-13.0724
-13.2253
-13.3786
-13.531
-13.6837
-13.8348
-13.986
-14.1377
-14.2891
-14.4413
-14.5926
-14.7444
-14.8965
-15.0477
-15.2002
-15.3505
-15.5012
-15.6514
-15.801
-15.9507
-16.0991
-16.2488
-16.3967
-16.5456
-16.6941
-16.842
-16.9907
-17.1379
-17.2868
-17.4344
-17.5825
-17.7308
-17.8784
-18.0267
-18.1734
-18.3208
-18.4648
-18.6022
-18.7296
-1.45944
-1.74373
-2.11993
-2.44966
-2.75192
-3.05731
-3.35726
-3.63844
-3.90282
-4.15352
-4.39101
-4.61644
-4.83214
-5.0396
-5.24081
-5.43736
-5.63023
-5.82017
-6.00736
-6.19244
-6.37491
-6.55498
-6.7331
-6.90961
-7.08465
-7.25831
-7.43083
-7.60235
-7.77353
-7.9438
-8.11343
-8.28247
-8.45091
-8.61877
-8.78597
-8.95257
-9.11854
-9.28394
-9.44878
-9.61329
-9.77727
-9.94016
-10.1027
-10.2645
-10.4257
-10.5865
-10.7468
-10.9068
-11.066
-11.2252
-11.3833
-11.5411
-11.6988
-11.8558
-12.0126
-12.1684
-12.3245
-12.4796
-12.6346
-12.7888
-12.943
-13.0966
-13.2494
-13.4028
-13.5551
-13.7077
-13.8589
-14.01
-14.1619
-14.313
-14.4654
-14.6165
-14.7684
-14.9203
-15.0716
-15.2239
-15.374
-15.525
-15.6749
-15.8246
-15.9742
-16.1227
-16.2724
-16.4202
-16.5692
-16.7175
-16.8657
-17.014
-17.1616
-17.3103
-17.4578
-17.6062
-17.7541
-17.9021
-18.05
-18.1968
-18.3436
-18.4865
-18.6228
-18.7458
-1.44811
-1.76319
-2.14356
-2.46988
-2.77345
-3.0802
-3.38055
-3.66137
-3.92567
-4.17633
-4.41363
-4.63878
-4.8543
-5.06157
-5.26265
-5.45907
-5.65185
-5.84176
-6.02889
-6.214
-6.3964
-6.5764
-6.75446
-6.93099
-7.10599
-7.27967
-7.45209
-7.62365
-7.79485
-7.96509
-8.13469
-8.30374
-8.47221
-8.64009
-8.80731
-8.97392
-9.13996
-9.30533
-9.47037
-9.63476
-9.79882
-9.96172
-10.1244
-10.2862
-10.4475
-10.6084
-10.7686
-10.9288
-11.0879
-11.2472
-11.4052
-11.563
-11.7207
-11.8776
-12.0345
-12.1902
-12.3463
-12.5013
-12.6563
-12.8106
-12.9646
-13.1184
-13.2711
-13.4245
-13.5766
-13.7293
-13.8806
-14.0317
-14.1836
-14.3347
-14.4871
-14.638
-14.7902
-14.9416
-15.0932
-15.2452
-15.3954
-15.5464
-15.696
-15.846
-15.9952
-16.144
-16.2934
-16.4414
-16.5904
-16.7385
-16.8869
-17.035
-17.1829
-17.3313
-17.479
-17.6273
-17.7751
-17.9233
-18.0709
-18.2181
-18.3641
-18.5067
-18.6417
-18.7618
-1.43257
-1.78117
-2.16479
-2.48806
-2.793
-3.10098
-3.4018
-3.68228
-3.94658
-4.19719
-4.43437
-4.65926
-4.87449
-5.08155
-5.28254
-5.47885
-5.67161
-5.86142
-6.04862
-6.23377
-6.41614
-6.59606
-6.77404
-6.95051
-7.12546
-7.29911
-7.47149
-7.64315
-7.81433
-7.98462
-8.15423
-8.32334
-8.4919
-8.6599
-8.82721
-8.99392
-9.16005
-9.32549
-9.49059
-9.65484
-9.81888
-9.98173
-10.1444
-10.3062
-10.4674
-10.6284
-10.7885
-10.9488
-11.1077
-11.2671
-11.4251
-11.5829
-11.7406
-11.8975
-12.0544
-12.2101
-12.3663
-12.5213
-12.6763
-12.8306
-12.9846
-13.1383
-13.2911
-13.4445
-13.5966
-13.7494
-13.9006
-14.0519
-14.2036
-14.3547
-14.507
-14.6578
-14.81
-14.9612
-15.113
-15.2646
-15.4151
-15.566
-15.7155
-15.8657
-16.0147
-16.1638
-16.313
-16.4611
-16.61
-16.7582
-16.9066
-17.0546
-17.2028
-17.3509
-17.4989
-17.647
-17.7949
-17.943
-18.0904
-18.2378
-18.383
-18.5255
-18.6592
-18.7775
-1.41384
-1.79786
-2.18385
-2.50491
-2.81118
-3.12006
-3.42111
-3.70108
-3.96535
-4.21576
-4.4526
-4.67775
-4.89252
-5.0992
-5.29996
-5.49606
-5.6887
-5.87835
-6.06561
-6.25062
-6.433
-6.61299
-6.7911
-6.96775
-7.14286
-7.31661
-7.48917
-7.66097
-7.83221
-8.00256
-8.17213
-8.34113
-8.50961
-8.67754
-8.84478
-9.01143
-9.1775
-9.34288
-9.50792
-9.67212
-9.83616
-9.99895
-10.1615
-10.3233
-10.4845
-10.6454
-10.8055
-10.9657
-11.1246
-11.284
-11.4419
-11.5997
-11.7573
-11.9142
-12.0711
-12.2267
-12.3829
-12.5377
-12.6927
-12.8469
-13.0009
-13.1546
-13.3073
-13.4606
-13.6126
-13.7654
-13.9166
-14.0679
-14.2196
-14.3707
-14.523
-14.6739
-14.8262
-14.9772
-15.1292
-15.2806
-15.4312
-15.5819
-15.7314
-15.8816
-16.0304
-16.1796
-16.3287
-16.4769
-16.6257
-16.7739
-16.9223
-17.0703
-17.2185
-17.3665
-17.5146
-17.6625
-17.8106
-17.9586
-18.1061
-18.2535
-18.3987
-18.5413
-18.6745
-18.7922
-1.39298
-1.81219
-2.19944
-2.51986
-2.82805
-3.13854
-3.43992
-3.71942
-3.98371
-4.23399
-4.47058
-4.69599
-4.91043
-5.11697
-5.31774
-5.51397
-5.70679
-5.89679
-6.08436
-6.26961
-6.45219
-6.63224
-6.81043
-6.98707
-7.1621
-7.33563
-7.50798
-7.67967
-7.85084
-8.02116
-8.19075
-8.35977
-8.52827
-8.69623
-8.86349
-9.03017
-9.19626
-9.36168
-9.52675
-9.69097
-9.85502
-10.0178
-10.1804
-10.3422
-10.5034
-10.6643
-10.8244
-10.9847
-11.1436
-11.303
-11.4609
-11.6188
-11.7764
-11.9334
-12.0902
-12.2459
-12.4022
-12.557
-12.7121
-12.8663
-13.0203
-13.1741
-13.3269
-13.4802
-13.6323
-13.7851
-13.9363
-14.0877
-14.2392
-14.3905
-14.5425
-14.6935
-14.8456
-14.9966
-15.1486
-15.2998
-15.4507
-15.6012
-15.7509
-15.9011
-16.0499
-16.1992
-16.3481
-16.4966
-16.6452
-16.7936
-16.9419
-17.0899
-17.2381
-17.386
-17.5344
-17.6821
-17.8303
-17.9781
-18.1257
-18.2728
-18.4178
-18.5599
-18.6921
-18.8085
-1.37838
-1.82677
-2.21168
-2.5294
-2.83841
-3.15068
-3.45258
-3.73153
-3.996
-4.24627
-4.48274
-4.70777
-4.92203
-5.12846
-5.32912
-5.52523
-5.71794
-5.90781
-6.09526
-6.28034
-6.46261
-6.64225
-6.82023
-6.99667
-7.17158
-7.34498
-7.51714
-7.68872
-7.8598
-8.03005
-8.19955
-8.36849
-8.5369
-8.70478
-8.87196
-9.03857
-9.20459
-9.36993
-9.53493
-9.69909
-9.86308
-10.0258
-10.1883
-10.3501
-10.5112
-10.6721
-10.8322
-10.9924
-11.1513
-11.3106
-11.4685
-11.6263
-11.7839
-11.9408
-12.0976
-12.2533
-12.4094
-12.5642
-12.7193
-12.8735
-13.0275
-13.1811
-13.3339
-13.4872
-13.6392
-13.792
-13.9431
-14.0945
-14.246
-14.3974
-14.5494
-14.7005
-14.8527
-15.0036
-15.1557
-15.3069
-15.4577
-15.6082
-15.7579
-15.908
-16.0568
-16.2061
-16.3549
-16.5034
-16.652
-16.8004
-16.9487
-17.0967
-17.2449
-17.3928
-17.5412
-17.6888
-17.8371
-17.9849
-18.1326
-18.2797
-18.4248
-18.5672
-18.6996
-18.8165
-1.3479
-1.8416
-2.23529
-2.55356
-2.86276
-3.17554
-3.4782
-3.75619
-4.02097
-4.27135
-4.50772
-4.73256
-4.94661
-5.15275
-5.35314
-5.54902
-5.74155
-5.93127
-6.11863
-6.30363
-6.48593
-6.66562
-6.84358
-7.02
-7.19485
-7.36825
-7.5404
-7.71195
-7.88297
-8.05319
-8.22267
-8.39159
-8.55999
-8.72786
-8.89504
-9.06165
-9.22766
-9.39302
-9.55801
-9.72218
-9.88616
-10.0489
-10.2114
-10.3732
-10.5344
-10.6952
-10.8553
-11.0155
-11.1744
-11.3337
-11.4917
-11.6495
-11.807
-11.964
-12.1208
-12.2765
-12.4326
-12.5874
-12.7425
-12.8967
-13.0507
-13.2043
-13.3571
-13.5104
-13.6625
-13.8152
-13.9664
-14.1179
-14.2693
-14.4207
-14.5726
-14.7238
-14.8758
-15.0269
-15.1789
-15.33
-15.481
-15.6313
-15.7811
-15.9312
-16.08
-16.2293
-16.3781
-16.5267
-16.6752
-16.8237
-16.9718
-17.12
-17.2681
-17.4161
-17.5644
-17.7121
-17.8604
-18.0081
-18.1558
-18.3028
-18.448
-18.5901
-18.7223
-18.8388
-18.603
-19.0676
-19.5776
-19.61
-19.2079
-18.4591
-17.2814
-15.5729
-13.5134
-11.2996
-9.25601
-7.59287
-6.30892
-5.33765
-4.54929
-3.86892
-3.28382
-2.8019
-2.40332
-2.09402
-1.96618
-2.08185
-2.31465
-2.53286
-2.57437
-2.29513
-1.65027
-0.958109
-0.551672
-0.315379
-0.132039
0.0525684
0.253185
0.463474
0.688675
0.935596
1.17218
1.3713
1.52541
1.62994
1.69854
1.743
1.77261
1.79086
1.79953
1.79984
1.79291
1.78004
1.76207
1.74016
1.71535
1.68835
1.65958
1.62881
1.59568
1.56179
1.5274
1.49211
1.45872
1.42619
1.39458
1.36098
1.32711
1.294
1.26061
1.22715
1.19366
1.16011
1.12647
1.0928
1.05912
1.02543
0.991721
0.958012
0.9243
0.890586
0.856871
0.823155
0.789441
0.755728
0.722015
0.688302
0.654587
0.620869
0.587147
0.55342
0.519684
0.485934
0.452159
0.418335
0.384431
0.350383
0.31609
0.2814
0.245981
0.209478
0.170728
0.129584
0.0814062
0.0335919
-18.6703
-18.9899
-19.4761
-19.5252
-19.1323
-18.3954
-17.2347
-15.5456
-13.5022
-11.3038
-9.26878
-7.60919
-6.32226
-5.34737
-4.55557
-3.87725
-3.29813
-2.82304
-2.44208
-2.15158
-2.06807
-2.22242
-2.49051
-2.72298
-2.76436
-2.46354
-1.7545
-0.988501
-0.543215
-0.284667
-0.0946426
0.0833538
0.271172
0.470285
0.685709
0.925263
1.15956
1.35259
1.50483
1.61016
1.68133
1.72758
1.75863
1.77756
1.78645
1.78681
1.7799
1.76707
1.74916
1.72726
1.70244
1.67548
1.64669
1.61576
1.58263
1.54878
1.51448
1.47949
1.44626
1.4136
1.38157
1.34822
1.31449
1.28128
1.24791
1.21443
1.18092
1.14736
1.1137
1.08003
1.04635
1.01265
0.978948
0.945239
0.911526
0.877812
0.844097
0.810382
0.776667
0.742954
0.709242
0.675529
0.641814
0.608098
0.574378
0.540653
0.506922
0.47318
0.439418
0.405618
0.371754
0.337778
0.303606
0.269119
0.234055
0.198129
0.160411
0.120769
0.0754812
0.0303636
-18.651
-18.9804
-19.4118
-19.4434
-19.0496
-18.3168
-17.1679
-15.5057
-13.483
-11.304
-9.28106
-7.62426
-6.33512
-5.35293
-4.55515
-3.88193
-3.30779
-2.84395
-2.48251
-2.21633
-2.17764
-2.37435
-2.68335
-2.93229
-2.97408
-2.65164
-1.8776
-1.0204
-0.529509
-0.245065
-0.0465658
0.123008
0.294744
0.480029
0.683571
0.916101
1.14519
1.33118
1.48152
1.58833
1.66214
1.71064
1.74328
1.76294
1.77206
1.77243
1.76553
1.75274
1.7349
1.71301
1.68818
1.66125
1.63244
1.60137
1.56822
1.53439
1.50011
1.46551
1.43248
1.39975
1.36718
1.33402
1.30053
1.26719
1.23382
1.20033
1.16681
1.13324
1.09957
1.0659
1.03221
0.998512
0.964806
0.931096
0.897383
0.863669
0.829954
0.796239
0.762525
0.728812
0.695099
0.661387
0.627673
0.593957
0.560239
0.526518
0.492792
0.459059
0.425312
0.391539
0.357721
0.323823
0.289787
0.255528
0.22086
0.18558
0.149013
0.111051
0.0689697
0.0268433
-18.6943
-18.9792
-19.3612
-19.3735
-18.9678
-18.2303
-17.0857
-15.4522
-13.4561
-11.3001
-9.29496
-7.63855
-6.34949
-5.35339
-4.54707
-3.88086
-3.31171
-2.86608
-2.51743
-2.28698
-2.29196
-2.53841
-2.89218
-3.15877
-3.20392
-2.84911
-2.03243
-1.05573
-0.50666
-0.195009
0.014382
0.173853
0.32534
0.49326
0.683225
0.909871
1.12686
1.3067
1.45544
1.56458
1.64078
1.69203
1.72641
1.74687
1.75621
1.75657
1.74965
1.73691
1.71913
1.69726
1.67242
1.64552
1.6167
1.58551
1.55233
1.51846
1.48416
1.44999
1.4172
1.38439
1.35131
1.31831
1.28508
1.25161
1.21822
1.18472
1.15119
1.1176
1.08392
1.05024
1.01655
0.982855
0.949148
0.915438
0.881725
0.848011
0.814296
0.780581
0.746866
0.713154
0.679442
0.645729
0.612016
0.578302
0.544585
0.510868
0.477148
0.443425
0.409695
0.375951
0.342184
0.308374
0.274489
0.240486
0.206259
0.171701
0.136413
0.10033
0.0617984
0.0230017
-18.7122
-18.9701
-19.3084
-19.304
-18.8891
-18.14
-16.9933
-15.3861
-13.4151
-11.2925
-9.31215
-7.6564
-6.36597
-5.34732
-4.53154
-3.86851
-3.31107
-2.87764
-2.54671
-2.36488
-2.41331
-2.713
-3.11396
-3.39717
-3.45077
-3.04404
-2.20448
-1.11049
-0.47218
-0.127571
0.0898918
0.238429
0.364914
0.511189
0.687819
0.903674
1.10461
1.27946
1.4267
1.5385
1.6172
1.67157
1.70781
1.72916
1.73874
1.73908
1.73213
1.71942
1.70172
1.67986
1.65501
1.62813
1.59928
1.56801
1.53478
1.50088
1.46652
1.43271
1.40018
1.36731
1.33381
1.30103
1.26793
1.23438
1.20097
1.16745
1.13389
1.1003
1.0666
1.03291
0.999222
0.96552
0.931813
0.898102
0.864389
0.830675
0.796959
0.763245
0.729531
0.695818
0.662106
0.628394
0.594682
0.560968
0.527255
0.493541
0.459827
0.426116
0.392405
0.358694
0.324983
0.291271
0.257554
0.223834
0.190098
0.156342
0.122477
0.088485
0.0538799
0.0187956
-18.7307
-18.9608
-19.2509
-19.226
-18.8024
-18.0385
-16.8902
-15.3069
-13.3587
-11.2808
-9.32861
-7.67931
-6.38046
-5.33404
-4.50578
-3.83773
-3.29588
-2.88046
-2.58324
-2.45141
-2.54036
-2.89407
-3.3434
-3.64142
-3.70365
-3.24649
-2.34842
-1.19087
-0.434488
-0.0358223
0.18472
0.318743
0.415578
0.536771
0.700017
0.893878
1.08018
1.24988
1.39589
1.5094
1.59125
1.64896
1.68727
1.70963
1.71948
1.71978
1.71278
1.7001
1.68249
1.66063
1.63575
1.60889
1.58002
1.54866
1.5154
1.48147
1.44707
1.41345
1.38126
1.3483
1.31461
1.28191
1.24885
1.21534
1.1819
1.14833
1.11474
1.08113
1.0474
1.01372
0.980026
0.946324
0.912616
0.878905
0.845192
0.811477
0.777762
0.744048
0.710334
0.676622
0.64291
0.609198
0.575486
0.541775
0.508063
0.474354
0.440648
0.406949
0.373258
0.339584
0.305936
0.272331
0.238801
0.205395
0.172202
0.139336
0.107043
0.0753726
0.0451053
0.0141604
-18.7466
-18.9476
-19.1873
-19.1385
-18.7032
-17.9233
-16.7719
-15.2075
-13.2931
-11.2634
-9.33975
-7.69971
-6.3871
-5.31175
-4.46524
-3.79774
-3.27035
-2.88426
-2.63102
-2.53941
-2.66771
-3.07542
-3.56929
-3.88677
-3.95151
-3.46055
-2.46298
-1.26842
-0.396191
0.0754967
0.3069
0.415726
0.479997
0.575178
0.717641
0.882271
1.05373
1.21659
1.36194
1.47696
1.56274
1.62395
1.66457
1.6881
1.69825
1.69852
1.69144
1.67879
1.66124
1.63937
1.61444
1.5876
1.55872
1.52728
1.49399
1.46005
1.42566
1.39203
1.36027
1.32718
1.29346
1.26071
1.22773
1.19427
1.16079
1.12717
1.09357
1.05995
1.02619
0.992488
0.958789
0.925084
0.891374
0.857662
0.823949
0.790234
0.756519
0.722804
0.689091
0.655379
0.621667
0.587956
0.554245
0.520534
0.486826
0.453121
0.419423
0.385738
0.35207
0.318435
0.284856
0.25137
0.218044
0.184983
0.152387
0.120498
0.0899378
0.0608269
0.0353499
0.00900865
-18.7607
-18.9315
-19.119
-19.0425
-18.5925
-17.7959
-16.6392
-15.091
-13.2199
-11.2374
-9.34704
-7.71311
-6.37885
-5.27758
-4.41758
-3.75196
-3.24203
-2.88796
-2.67796
-2.62598
-2.7922
-3.24681
-3.78053
-4.12798
-4.18568
-3.67131
-2.57467
-1.32158
-0.343974
0.205789
0.457317
0.529156
0.557562
0.624638
0.732425
0.868142
1.02335
1.17914
1.3237
1.44158
1.53156
1.59637
1.63954
1.66437
1.67488
1.67511
1.66795
1.65529
1.63778
1.61585
1.59087
1.56402
1.53513
1.50363
1.47032
1.4364
1.40206
1.36836
1.33688
1.3038
1.27005
1.23721
1.20435
1.17092
1.13737
1.10369
1.07005
1.03641
1.00263
0.968939
0.935239
0.901533
0.867823
0.834111
0.800397
0.766683
0.732968
0.699254
0.66554
0.631828
0.598117
0.564406
0.530696
0.496988
0.463282
0.429583
0.395894
0.362223
0.328581
0.29499
0.261487
0.228131
0.19503
0.162346
0.130403
0.0995832
0.0709242
0.0446153
0.0244327
0.00319051
-18.7735
-18.9139
-19.0473
-18.9386
-18.4708
-17.657
-16.4925
-14.9583
-13.1309
-11.1956
-9.34213
-7.71808
-6.36019
-5.23513
-4.36433
-3.70038
-3.20856
-2.89008
-2.72578
-2.71238
-2.91141
-3.39788
-3.96955
-4.35061
-4.39504
-3.85758
-2.68266
-1.35089
-0.271309
0.355332
0.62152
0.658823
0.650189
0.67654
0.743444
0.851587
0.989316
1.13871
1.28233
1.40363
1.49765
1.56616
1.61204
1.63831
1.64921
1.6494
1.64214
1.62943
1.61185
1.5898
1.56475
1.53792
1.50905
1.47747
1.44415
1.41027
1.37604
1.34234
1.31078
1.27791
1.24417
1.21124
1.17847
1.14511
1.11152
1.07781
1.04416
1.01056
0.976672
0.942959
0.90925
0.875538
0.841825
0.80811
0.774396
0.74068
0.706965
0.673251
0.639538
0.605826
0.572115
0.538405
0.504696
0.470989
0.437287
0.403593
0.369913
0.336257
0.302641
0.269095
0.235671
0.202452
0.169588
0.137306
0.106065
0.0763944
0.0498015
0.0265204
0.0121945
-0.00346703
-18.7853
-18.8956
-18.9747
-18.8298
-18.3411
-17.509
-16.3367
-14.8202
-13.0386
-11.1524
-9.33472
-7.71797
-6.33492
-5.18487
-4.30221
-3.64419
-3.17649
-2.89718
-2.77744
-2.7975
-3.02053
-3.52068
-4.12702
-4.5393
-4.56705
-4.00209
-2.77231
-1.36248
-0.193843
0.503254
0.781272
0.794612
0.746917
0.721047
0.750637
0.834182
0.95491
1.09707
1.23967
1.36362
1.46119
1.53344
1.58208
1.60977
1.62106
1.62121
1.61381
1.60097
1.5832
1.56099
1.53588
1.509
1.48013
1.44854
1.41517
1.38134
1.34721
1.31367
1.28171
1.24917
1.21548
1.18244
1.14966
1.11633
1.08267
1.04888
1.01521
0.981186
0.947718
0.914017
0.880309
0.846598
0.812886
0.779172
0.745458
0.711742
0.678028
0.644313
0.610601
0.576889
0.543178
0.509469
0.475761
0.442056
0.408358
0.374671
0.341001
0.307365
0.273779
0.240286
0.206953
0.173889
0.14129
0.109447
0.0789653
0.0505254
0.0261722
0.00611931
-0.00169431
-0.0113345
-18.7963
-18.8792
-18.9096
-18.7287
-18.2194
-17.3704
-16.1919
-14.6956
-12.9567
-11.1181
-9.33137
-7.71267
-6.30143
-5.12905
-4.2422
-3.59385
-3.15283
-2.91506
-2.83508
-2.87714
-3.11005
-3.61237
-4.24062
-4.67648
-4.68322
-4.08839
-2.82501
-1.3554
-0.125191
0.62003
0.906635
0.905488
0.826166
0.753246
0.750511
0.813871
0.921252
1.05735
1.19879
1.32449
1.4244
1.49991
1.55143
1.58045
1.59197
1.59195
1.58429
1.57112
1.55305
1.53073
1.50558
1.4786
1.44973
1.41821
1.38483
1.35112
1.31707
1.28379
1.25126
1.21901
1.1855
1.15244
1.11968
1.08642
1.05277
1.0189
0.985229
0.951333
0.917628
0.883892
0.850172
0.816454
0.782738
0.749021
0.715306
0.681589
0.647875
0.61416
0.580448
0.546736
0.513026
0.479316
0.44561
0.411906
0.378211
0.344529
0.310866
0.277244
0.243681
0.210231
0.176974
0.144042
0.111681
0.0802475
0.0505007
0.0232586
0.00116335
-0.0157276
-0.0166536
-0.0203573
-18.8068
-18.8685
-18.8604
-18.6488
-18.1221
-17.2597
-16.0761
-14.5944
-12.8879
-11.087
-9.32535
-7.70132
-6.26369
-5.07968
-4.1965
-3.55755
-3.14151
-2.9413
-2.89262
-2.94988
-3.18204
-3.68202
-4.30922
-4.75369
-4.73823
-4.11801
-2.83718
-1.33622
-0.0758256
0.693278
0.983494
0.975061
0.877401
0.776011
0.744527
0.793483
0.892101
1.0243
1.16386
1.28859
1.3911
1.46909
1.52254
1.5525
1.56437
1.56433
1.55647
1.54296
1.52467
1.50226
1.47685
1.44964
1.4207
1.38922
1.35587
1.32213
1.28824
1.255
1.22227
1.19005
1.15664
1.12347
1.09062
1.05729
1.02366
0.98972
0.955948
0.922209
0.88852
0.854803
0.821092
0.787376
0.753663
0.719947
0.686232
0.652516
0.618801
0.585087
0.551375
0.517664
0.483953
0.450245
0.41654
0.382839
0.349146
0.315473
0.28182
0.24822
0.214687
0.181291
0.148125
0.115346
0.0832363
0.0522013
0.02314
-0.0030306
-0.0230511
-0.0372088
-0.0315079
-0.0301399
-18.8179
-18.8638
-18.8275
-18.5924
-18.0515
-17.1794
-15.9916
-14.5199
-12.838
-11.0648
-9.32132
-7.68894
-6.22896
-5.04153
-4.1633
-3.53389
-3.14167
-2.97179
-2.94725
-3.01579
-3.24633
-3.73375
-4.34872
-4.78973
-4.75297
-4.11275
-2.8241
-1.31414
-0.0449747
0.732063
1.02207
1.01004
0.903332
0.791382
0.73631
0.77517
0.869286
0.997509
1.13416
1.25833
1.3628
1.44218
1.49654
1.52716
1.53931
1.53927
1.53122
1.51745
1.49905
1.47665
1.45119
1.42389
1.39484
1.36337
1.33014
1.29646
1.26269
1.22931
1.19666
1.16444
1.13123
1.09811
1.06527
1.03191
0.998264
0.964424
0.930413
0.896604
0.862861
0.829121
0.795393
0.761674
0.727952
0.694238
0.660519
0.626804
0.593088
0.559374
0.525662
0.49195
0.458241
0.424531
0.390828
0.357126
0.323437
0.289761
0.256115
0.222517
0.188994
0.155617
0.122483
0.0897705
0.0578006
0.027024
-0.00153044
-0.0268771
-0.0451627
-0.0571813
-0.0454958
-0.0402067
-18.8299
-18.8639
-18.8078
-18.5551
-18.0033
-17.124
-15.9332
-14.4687
-12.8045
-11.0517
-9.32018