/*--------------------------------*- C++ -*----------------------------------*\
| =========                 |                                                 |
| \\      /  F ield         | OpenFOAM: The Open Source CFD Toolbox           |
|  \\    /   O peration     | Version:  v2012                                 |
|   \\  /    A nd           | Website:  www.openfoam.com                      |
|    \\/     M anipulation  |                                                 |
\*---------------------------------------------------------------------------*/
FoamFile
{
    version     2.0;
    format      ascii;
    class       volVectorField;
    location    "0.132";
    object      U.air;
}
// * * * * * * * * * * * * * * * * * * * * * * * * * * * * * * * * * * * * * //

dimensions      [0 1 -1 0 0 0 0];


internalField   nonuniform List<vector> 
1900
(
(39.9676 0.00859687 0)
(39.9239 0.015103 0)
(39.8679 0.0180588 0)
(39.8035 0.0207993 0)
(39.73 0.0237062 0)
(39.6526 0.0267683 0)
(39.5681 0.0297565 0)
(39.4712 0.034433 0)
(39.3801 0.0347839 0)
(39.2118 0.073503 0)
(40.0053 0.0147927 0)
(40.0212 0.0233975 0)
(40.0401 0.0257182 0)
(40.0561 0.0277458 0)
(40.0726 0.0304775 0)
(40.0898 0.0329399 0)
(40.1095 0.0364838 0)
(40.1257 0.0385578 0)
(40.1466 0.0533817 0)
(40.1568 0.0585716 0)
(40.0029 0.00824745 0)
(40.0161 0.0135856 0)
(40.0335 0.0137912 0)
(40.051 0.0145443 0)
(40.0688 0.0163129 0)
(40.0879 0.0182043 0)
(40.1087 0.0208556 0)
(40.1299 0.024805 0)
(40.1543 0.0350812 0)
(40.1844 0.0529455 0)
(40.0018 0.00414496 0)
(40.0132 0.00782145 0)
(40.0301 0.00860527 0)
(40.0479 0.00970547 0)
(40.066 0.0114323 0)
(40.0852 0.0132518 0)
(40.1064 0.0158684 0)
(40.1291 0.0197454 0)
(40.1561 0.0288801 0)
(40.1894 0.0416247 0)
(40.0015 0.001112 0)
(40.012 0.00211927 0)
(40.0285 0.00232728 0)
(40.0464 0.00266241 0)
(40.0645 0.0032531 0)
(40.084 0.00405072 0)
(40.1056 0.00562476 0)
(40.1294 0.00842126 0)
(40.1575 0.0146682 0)
(40.1918 0.0210544 0)
(40.0016 -0.00180292 0)
(40.0122 -0.00371605 0)
(40.0288 -0.00416325 0)
(40.0468 -0.00431399 0)
(40.065 -0.00436079 0)
(40.0846 -0.00401592 0)
(40.1066 -0.00289512 0)
(40.1311 -0.000789726 0)
(40.1597 0.00317611 0)
(40.1936 0.00640824 0)
(40.0019 -0.00486279 0)
(40.0136 -0.00947527 0)
(40.0308 -0.0105123 0)
(40.0489 -0.0114613 0)
(40.0672 -0.0126727 0)
(40.0871 -0.0134371 0)
(40.1094 -0.0134428 0)
(40.1344 -0.0127054 0)
(40.163 -0.0110203 0)
(40.1957 -0.0104531 0)
(40.0032 -0.00926927 0)
(40.0168 -0.0153327 0)
(40.0348 -0.0157394 0)
(40.0527 -0.016477 0)
(40.0709 -0.01804 0)
(40.0911 -0.0194037 0)
(40.1136 -0.0202815 0)
(40.1388 -0.020797 0)
(40.1672 -0.0210301 0)
(40.1987 -0.0225688 0)
(40.0057 -0.0162088 0)
(40.0223 -0.0253699 0)
(40.042 -0.0274341 0)
(40.0582 -0.0288787 0)
(40.0751 -0.0308085 0)
(40.0938 -0.0324197 0)
(40.1145 -0.0335734 0)
(40.1374 -0.0344434 0)
(40.1628 -0.0352272 0)
(40.1893 -0.0366674 0)
(39.9675 -0.0101412 0)
(39.9214 -0.0185951 0)
(39.8645 -0.0229106 0)
(39.797 -0.0265887 0)
(39.7223 -0.0303253 0)
(39.6428 -0.0339089 0)
(39.5582 -0.0373399 0)
(39.4686 -0.0407417 0)
(39.3739 -0.044104 0)
(39.2741 -0.0480425 0)
(39.1724 -0.039283 0)
(38.0177 -0.354714 0)
(36.4706 -0.795036 0)
(34.9649 -1.35454 0)
(33.857 -1.88883 0)
(33.1083 -2.33224 0)
(32.5395 -2.60362 0)
(32.0824 -2.66908 0)
(31.6442 -2.56938 0)
(31.2133 -2.34966 0)
(30.7879 -2.07024 0)
(30.3625 -1.77841 0)
(29.953 -1.50939 0)
(29.5504 -1.27311 0)
(29.1565 -1.0749 0)
(28.776 -0.915343 0)
(28.4121 -0.789421 0)
(28.0663 -0.689092 0)
(27.7407 -0.60845 0)
(27.4404 -0.544911 0)
(27.1683 -0.495404 0)
(26.9201 -0.454154 0)
(26.6958 -0.417738 0)
(26.4936 -0.385899 0)
(26.3172 -0.359385 0)
(26.1601 -0.336252 0)
(26.0258 -0.315207 0)
(25.9102 -0.295912 0)
(25.8112 -0.278771 0)
(25.7264 -0.263835 0)
(25.6539 -0.250635 0)
(25.5906 -0.238533 0)
(25.5363 -0.227375 0)
(25.4878 -0.216796 0)
(25.445 -0.207037 0)
(25.4078 -0.198219 0)
(25.3757 -0.190181 0)
(25.3482 -0.182677 0)
(25.3252 -0.175631 0)
(25.306 -0.169001 0)
(25.2907 -0.16291 0)
(25.2787 -0.157363 0)
(25.2697 -0.152248 0)
(25.2631 -0.147368 0)
(25.2584 -0.142658 0)
(25.2557 -0.138127 0)
(25.2546 -0.133917 0)
(25.2551 -0.129962 0)
(25.2571 -0.12621 0)
(25.2605 -0.122655 0)
(25.2652 -0.11927 0)
(25.2712 -0.116051 0)
(25.2783 -0.113017 0)
(25.2865 -0.110149 0)
(25.2956 -0.10742 0)
(25.3057 -0.10481 0)
(25.3167 -0.102317 0)
(25.3284 -0.099927 0)
(25.3407 -0.097653 0)
(25.3536 -0.0954935 0)
(25.367 -0.0934334 0)
(25.3809 -0.0914405 0)
(25.3952 -0.0895334 0)
(25.41 -0.0877081 0)
(25.4251 -0.0859767 0)
(25.4405 -0.0843185 0)
(25.4561 -0.0827306 0)
(25.4721 -0.0811936 0)
(25.4882 -0.0797145 0)
(25.5045 -0.0782805 0)
(25.5209 -0.0769056 0)
(25.5375 -0.0755786 0)
(25.5541 -0.0743013 0)
(25.5708 -0.0730557 0)
(25.5875 -0.0718465 0)
(25.6042 -0.0706623 0)
(25.6208 -0.0695165 0)
(25.6375 -0.0683898 0)
(25.6539 -0.0672977 0)
(25.6704 -0.0662135 0)
(25.6866 -0.0651599 0)
(25.7028 -0.0641102 0)
(25.7186 -0.0630913 0)
(25.7345 -0.0620703 0)
(25.75 -0.0610763 0)
(25.7655 -0.0600795 0)
(25.7805 -0.0591123 0)
(25.7956 -0.0581468 0)
(25.8103 -0.0572163 0)
(25.8249 -0.0562929 0)
(25.8391 -0.0554166 0)
(25.8533 -0.0545551 0)
(25.867 -0.0537837 0)
(25.8809 -0.053029 0)
(25.8941 -0.052531 0)
(25.9078 -0.051979 0)
(25.9204 -0.0522644 0)
(25.9349 -0.0520657 0)
(25.9452 -0.0543077 0)
(25.9652 -0.0544218 0)
(40.259 0.20537 0)
(40.4989 0.295873 0)
(40.6487 -0.0460585 0)
(40.4722 -0.668262 0)
(39.9271 -1.33079 0)
(39.0979 -1.89413 0)
(38.1065 -2.25378 0)
(37.0575 -2.38358 0)
(36.0569 -2.32255 0)
(35.154 -2.13341 0)
(34.3666 -1.8792 0)
(33.6965 -1.61161 0)
(33.1366 -1.36213 0)
(32.6589 -1.1411 0)
(32.2417 -0.953807 0)
(31.868 -0.802345 0)
(31.5232 -0.68221 0)
(31.1928 -0.585131 0)
(30.8665 -0.506551 0)
(30.5438 -0.445552 0)
(30.2268 -0.398861 0)
(29.9203 -0.361329 0)
(29.625 -0.329973 0)
(29.3416 -0.304844 0)
(29.0756 -0.285859 0)
(28.8285 -0.270793 0)
(28.599 -0.25757 0)
(28.3881 -0.245634 0)
(28.1949 -0.235353 0)
(28.0204 -0.226646 0)
(27.8618 -0.218667 0)
(27.7179 -0.210861 0)
(27.5866 -0.203134 0)
(27.4679 -0.195483 0)
(27.3606 -0.18814 0)
(27.2637 -0.181369 0)
(27.1763 -0.175119 0)
(27.0973 -0.169227 0)
(27.0261 -0.163623 0)
(26.9616 -0.158315 0)
(26.9038 -0.15339 0)
(26.8512 -0.148808 0)
(26.8029 -0.144558 0)
(26.7589 -0.140553 0)
(26.7189 -0.136668 0)
(26.6825 -0.132902 0)
(26.6496 -0.129357 0)
(26.62 -0.126072 0)
(26.5935 -0.122996 0)
(26.5698 -0.120064 0)
(26.5488 -0.117256 0)
(26.5302 -0.114565 0)
(26.5139 -0.112028 0)
(26.4997 -0.109617 0)
(26.4874 -0.107307 0)
(26.477 -0.105075 0)
(26.4682 -0.102884 0)
(26.4606 -0.100739 0)
(26.4543 -0.0987042 0)
(26.4492 -0.0967798 0)
(26.4452 -0.0949461 0)
(26.4423 -0.093152 0)
(26.4404 -0.0914482 0)
(26.4395 -0.0898174 0)
(26.4393 -0.0882833 0)
(26.4398 -0.0867561 0)
(26.441 -0.085291 0)
(26.4428 -0.0838704 0)
(26.4451 -0.082496 0)
(26.448 -0.081153 0)
(26.4512 -0.0798566 0)
(26.4548 -0.078597 0)
(26.4588 -0.077375 0)
(26.463 -0.0761734 0)
(26.4674 -0.0749957 0)
(26.4719 -0.0738333 0)
(26.4766 -0.0726981 0)
(26.4814 -0.0715763 0)
(26.4863 -0.0704774 0)
(26.4911 -0.0693832 0)
(26.496 -0.0683085 0)
(26.5009 -0.0672346 0)
(26.5057 -0.0661854 0)
(26.5106 -0.0651308 0)
(26.5153 -0.064101 0)
(26.52 -0.0630643 0)
(26.5246 -0.0620572 0)
(26.5292 -0.0610467 0)
(26.5336 -0.0600735 0)
(26.538 -0.0591026 0)
(26.5423 -0.0581825 0)
(26.5465 -0.0572733 0)
(26.5506 -0.0564603 0)
(26.5547 -0.0556612 0)
(26.5586 -0.0551282 0)
(26.5626 -0.0545462 0)
(26.5663 -0.0548233 0)
(26.5703 -0.0545615 0)
(26.5736 -0.0569851 0)
(26.5795 -0.0567941 0)
(40.2699 0.127743 0)
(40.4561 0.0177453 0)
(40.6021 -0.368699 0)
(40.4975 -0.908897 0)
(40.0434 -1.4408 0)
(39.2825 -1.86018 0)
(38.3235 -2.09982 0)
(37.2913 -2.15526 0)
(36.2762 -2.06711 0)
(35.366 -1.88576 0)
(34.5818 -1.65765 0)
(33.9337 -1.42286 0)
(33.4109 -1.20453 0)
(32.9869 -1.00903 0)
(32.6434 -0.841923 0)
(32.3687 -0.706585 0)
(32.1472 -0.597746 0)
(31.9598 -0.507 0)
(31.7943 -0.431988 0)
(31.6483 -0.3737 0)
(31.5154 -0.328775 0)
(31.3859 -0.292135 0)
(31.2528 -0.261203 0)
(31.1134 -0.236278 0)
(30.9669 -0.217617 0)
(30.8136 -0.203408 0)
(30.6527 -0.191503 0)
(30.4838 -0.181032 0)
(30.3079 -0.172584 0)
(30.1286 -0.166331 0)
(29.9483 -0.161319 0)
(29.7722 -0.156702 0)
(29.5996 -0.152339 0)
(29.4345 -0.148569 0)
(29.2786 -0.145563 0)
(29.1329 -0.14306 0)
(28.9973 -0.140725 0)
(28.8715 -0.138413 0)
(28.7545 -0.136061 0)
(28.6459 -0.133718 0)
(28.5452 -0.13151 0)
(28.4518 -0.129309 0)
(28.365 -0.126955 0)
(28.2845 -0.124462 0)
(28.2095 -0.121874 0)
(28.1399 -0.119281 0)
(28.0756 -0.116827 0)
(28.0161 -0.114547 0)
(27.9611 -0.112358 0)
(27.91 -0.110177 0)
(27.8622 -0.108039 0)
(27.8177 -0.106009 0)
(27.7765 -0.104137 0)
(27.7382 -0.102385 0)
(27.7028 -0.10073 0)
(27.67 -0.0991392 0)
(27.6397 -0.0975603 0)
(27.6116 -0.0959758 0)
(27.5858 -0.0944458 0)
(27.5619 -0.0929897 0)
(27.5399 -0.0915895 0)
(27.5197 -0.0901992 0)
(27.5011 -0.0888063 0)
(27.4835 -0.0874128 0)
(27.4671 -0.0860841 0)
(27.4516 -0.0848042 0)
(27.4373 -0.0835855 0)
(27.4236 -0.0823752 0)
(27.4109 -0.0811949 0)
(27.3987 -0.0800111 0)
(27.3873 -0.0788661 0)
(27.3762 -0.0777281 0)
(27.3658 -0.0766207 0)
(27.3556 -0.0755053 0)
(27.3458 -0.0744097 0)
(27.3362 -0.0733045 0)
(27.327 -0.0722265 0)
(27.3179 -0.0711392 0)
(27.3091 -0.0700768 0)
(27.3002 -0.0690005 0)
(27.2917 -0.0679491 0)
(27.2832 -0.0668852 0)
(27.2749 -0.0658457 0)
(27.2666 -0.064795 0)
(27.2585 -0.063768 0)
(27.2504 -0.0627334 0)
(27.2425 -0.0617253 0)
(27.2346 -0.0607152 0)
(27.2269 -0.0597382 0)
(27.2192 -0.0587671 0)
(27.2117 -0.0578417 0)
(27.2041 -0.0569328 0)
(27.1968 -0.0561141 0)
(27.1894 -0.0553156 0)
(27.1823 -0.0547764 0)
(27.1749 -0.054199 0)
(27.1683 -0.0544634 0)
(27.1605 -0.0542647 0)
(27.1552 -0.0566419 0)
(27.1446 -0.0564504 0)
(40.2634 0.0673391 0)
(40.4034 0.00417049 0)
(40.4966 -0.262169 0)
(40.3657 -0.67857 0)
(39.9156 -1.11199 0)
(39.179 -1.4676 0)
(38.2538 -1.69374 0)
(37.2563 -1.77785 0)
(36.2707 -1.74009 0)
(35.3811 -1.6138 0)
(34.6094 -1.43808 0)
(33.9677 -1.24916 0)
(33.4427 -1.06722 0)
(33.0108 -0.900208 0)
(32.6625 -0.757146 0)
(32.3894 -0.641631 0)
(32.1699 -0.546839 0)
(31.9835 -0.465459 0)
(31.8274 -0.398567 0)
(31.705 -0.348006 0)
(31.6084 -0.308803 0)
(31.5224 -0.274153 0)
(31.4418 -0.242946 0)
(31.3736 -0.218047 0)
(31.3199 -0.199402 0)
(31.2718 -0.183325 0)
(31.2225 -0.168002 0)
(31.1714 -0.153868 0)
(31.1202 -0.14196 0)
(31.0677 -0.132515 0)
(31.0125 -0.125106 0)
(30.9521 -0.118745 0)
(30.884 -0.112857 0)
(30.8073 -0.107887 0)
(30.7226 -0.104327 0)
(30.6314 -0.101953 0)
(30.5348 -0.100159 0)
(30.4333 -0.0986244 0)
(30.3277 -0.0972613 0)
(30.2191 -0.0961124 0)
(30.1089 -0.0952604 0)
(29.9997 -0.0946164 0)
(29.8935 -0.0941004 0)
(29.7905 -0.0936622 0)
(29.691 -0.0932484 0)
(29.5958 -0.0928839 0)
(29.5055 -0.092602 0)
(29.4201 -0.0923355 0)
(29.3394 -0.0920272 0)
(29.263 -0.0916391 0)
(29.1908 -0.091121 0)
(29.1223 -0.090502 0)
(29.0576 -0.0898357 0)
(28.9961 -0.0891084 0)
(28.9379 -0.0883498 0)
(28.8823 -0.0875459 0)
(28.8297 -0.0866571 0)
(28.7799 -0.0857137 0)
(28.733 -0.0847906 0)
(28.6883 -0.0838985 0)
(28.6462 -0.0830148 0)
(28.6059 -0.0821324 0)
(28.5678 -0.0812352 0)
(28.5312 -0.0802823 0)
(28.4963 -0.0793192 0)
(28.4626 -0.07835 0)
(28.4304 -0.0773931 0)
(28.3989 -0.076415 0)
(28.3686 -0.075433 0)
(28.3388 -0.0744207 0)
(28.31 -0.0734255 0)
(28.2814 -0.0724219 0)
(28.2537 -0.0714304 0)
(28.2261 -0.0704197 0)
(28.1994 -0.0694148 0)
(28.1726 -0.0683958 0)
(28.1466 -0.0673953 0)
(28.1206 -0.0663843 0)
(28.0953 -0.0653897 0)
(28.07 -0.0643818 0)
(28.0454 -0.0633973 0)
(28.0208 -0.0624031 0)
(27.9969 -0.0614289 0)
(27.973 -0.0604404 0)
(27.9498 -0.059474 0)
(27.9266 -0.058498 0)
(27.904 -0.0575487 0)
(27.8815 -0.0565942 0)
(27.8596 -0.055675 0)
(27.8377 -0.0547591 0)
(27.8166 -0.0538906 0)
(27.7954 -0.0530383 0)
(27.775 -0.052273 0)
(27.7544 -0.0515312 0)
(27.7348 -0.0510334 0)
(27.7145 -0.0505146 0)
(27.6962 -0.0507805 0)
(27.6747 -0.0506765 0)
(27.6601 -0.0528884 0)
(27.6311 -0.0531149 0)
(40.2555 0.031429 0)
(40.3567 -0.0318826 0)
(40.4022 -0.258917 0)
(40.2468 -0.61732 0)
(39.8045 -0.9955 0)
(39.098 -1.30665 0)
(38.2122 -1.50459 0)
(37.2565 -1.57699 0)
(36.3012 -1.54081 0)
(35.429 -1.4274 0)
(34.6682 -1.27278 0)
(34.0299 -1.1078 0)
(33.4981 -0.947276 0)
(33.0578 -0.800107 0)
(32.7085 -0.676748 0)
(32.4344 -0.576947 0)
(32.2047 -0.491636 0)
(32.0077 -0.418275 0)
(31.8523 -0.360927 0)
(31.7345 -0.318275 0)
(31.6331 -0.282368 0)
(31.5368 -0.248991 0)
(31.4549 -0.221409 0)
(31.3943 -0.201663 0)
(31.3462 -0.186247 0)
(31.2994 -0.171353 0)
(31.2532 -0.15696 0)
(31.2138 -0.144868 0)
(31.1843 -0.135707 0)
(31.1615 -0.128334 0)
(31.1397 -0.121454 0)
(31.116 -0.114264 0)
(31.0929 -0.107219 0)
(31.0743 -0.101259 0)
(31.0583 -0.0962814 0)
(31.0423 -0.0920067 0)
(31.0248 -0.0880284 0)
(31.0041 -0.0839472 0)
(30.9802 -0.0799776 0)
(30.9535 -0.0765465 0)
(30.9241 -0.0739336 0)
(30.8914 -0.0720797 0)
(30.8544 -0.0705771 0)
(30.812 -0.0691501 0)
(30.7641 -0.0679153 0)
(30.7111 -0.067084 0)
(30.6538 -0.066689 0)
(30.593 -0.0665499 0)
(30.5291 -0.0664426 0)
(30.4627 -0.0662694 0)
(30.3944 -0.0661049 0)
(30.3248 -0.0660782 0)
(30.2546 -0.0661979 0)
(30.1846 -0.0663916 0)
(30.1154 -0.0665795 0)
(30.0466 -0.0667183 0)
(29.9789 -0.0668544 0)
(29.912 -0.0669815 0)
(29.8468 -0.0670925 0)
(29.7825 -0.0671697 0)
(29.7199 -0.0671815 0)
(29.6582 -0.0670932 0)
(29.5982 -0.066869 0)
(29.5394 -0.0665303 0)
(29.4822 -0.0661255 0)
(29.426 -0.0656677 0)
(29.3712 -0.0651586 0)
(29.317 -0.0645734 0)
(29.2643 -0.0639293 0)
(29.2119 -0.0632094 0)
(29.161 -0.0624668 0)
(29.1103 -0.0616831 0)
(29.061 -0.0608848 0)
(29.0118 -0.0600488 0)
(28.964 -0.0592029 0)
(28.9162 -0.0583308 0)
(28.8699 -0.0574705 0)
(28.8236 -0.0565929 0)
(28.7787 -0.0557288 0)
(28.7339 -0.0548523 0)
(28.6904 -0.0539748 0)
(28.647 -0.0530837 0)
(28.6049 -0.0522208 0)
(28.5629 -0.0513547 0)
(28.5223 -0.0505152 0)
(28.4817 -0.0496734 0)
(28.4426 -0.0488585 0)
(28.4035 -0.048041 0)
(28.3658 -0.0472593 0)
(28.3282 -0.0464829 0)
(28.292 -0.0457532 0)
(28.2558 -0.0450428 0)
(28.2211 -0.0444117 0)
(28.1862 -0.0438116 0)
(28.1531 -0.0434216 0)
(28.119 -0.0430478 0)
(28.0883 -0.043314 0)
(28.0523 -0.0434236 0)
(28.0279 -0.0452793 0)
(27.9796 -0.0464643 0)
(40.2478 0.00636938 0)
(40.3189 -0.0529348 0)
(40.3277 -0.234956 0)
(40.154 -0.518803 0)
(39.7188 -0.818107 0)
(39.0361 -1.06199 0)
(38.1811 -1.2159 0)
(37.2553 -1.27244 0)
(36.3242 -1.24533 0)
(35.4668 -1.15969 0)
(34.7182 -1.04257 0)
(34.0798 -0.914212 0)
(33.5396 -0.786453 0)
(33.0975 -0.670022 0)
(32.7487 -0.572911 0)
(32.465 -0.491744 0)
(32.22 -0.4197 0)
(32.0188 -0.359759 0)
(31.8685 -0.315987 0)
(31.7468 -0.281824 0)
(31.6302 -0.249335 0)
(31.5273 -0.220731 0)
(31.4518 -0.200413 0)
(31.3945 -0.185825 0)
(31.3391 -0.171818 0)
(31.2823 -0.157152 0)
(31.234 -0.14475 0)
(31.1985 -0.135807 0)
(31.1706 -0.128818 0)
(31.1437 -0.121779 0)
(31.1147 -0.114098 0)
(31.088 -0.107086 0)
(31.0678 -0.101648 0)
(31.0525 -0.0973245 0)
(31.0387 -0.0933886 0)
(31.024 -0.0894978 0)
(31.0084 -0.0856066 0)
(30.9953 -0.0821097 0)
(30.9852 -0.0789799 0)
(30.9765 -0.0762114 0)
(30.9676 -0.0738681 0)
(30.9579 -0.0717955 0)
(30.9478 -0.0696763 0)
(30.9377 -0.0673495 0)
(30.9276 -0.0649822 0)
(30.9168 -0.0628913 0)
(30.9047 -0.0611663 0)
(30.8905 -0.0596381 0)
(30.8738 -0.0581134 0)
(30.8544 -0.0565737 0)
(30.8322 -0.0551277 0)
(30.807 -0.0538935 0)
(30.7782 -0.0528948 0)
(30.7456 -0.0521009 0)
(30.7089 -0.0513744 0)
(30.668 -0.050667 0)
(30.623 -0.0499992 0)
(30.5742 -0.0494418 0)
(30.5218 -0.0489689 0)
(30.4658 -0.0485519 0)
(30.4066 -0.0481573 0)
(30.3444 -0.0477681 0)
(30.2797 -0.0473923 0)
(30.2129 -0.0470349 0)
(30.1445 -0.0466872 0)
(30.0748 -0.0463388 0)
(30.0043 -0.0459665 0)
(29.933 -0.0455605 0)
(29.8617 -0.0451136 0)
(29.7901 -0.0446346 0)
(29.7191 -0.0441446 0)
(29.6481 -0.043637 0)
(29.5783 -0.0431198 0)
(29.5085 -0.0425738 0)
(29.4403 -0.0420194 0)
(29.3723 -0.0414386 0)
(29.306 -0.0408693 0)
(29.24 -0.0402812 0)
(29.1758 -0.039706 0)
(29.112 -0.0391148 0)
(29.0501 -0.0385578 0)
(28.9886 -0.0379963 0)
(28.929 -0.0374412 0)
(28.8699 -0.0368773 0)
(28.8129 -0.0363288 0)
(28.7563 -0.0357818 0)
(28.7019 -0.0352532 0)
(28.6477 -0.0347257 0)
(28.5959 -0.0342269 0)
(28.5442 -0.0337368 0)
(28.495 -0.0332852 0)
(28.4457 -0.0328525 0)
(28.3989 -0.0324837 0)
(28.3518 -0.0321525 0)
(28.3075 -0.0319742 0)
(28.2618 -0.0318675 0)
(28.2208 -0.0321616 0)
(28.1729 -0.0326417 0)
(28.1404 -0.0339043 0)
(28.076 -0.0366337 0)
(40.2419 -0.0161657 0)
(40.2904 -0.06719 0)
(40.2717 -0.206837 0)
(40.0832 -0.423796 0)
(39.6529 -0.65625 0)
(38.9885 -0.849191 0)
(38.1576 -0.975704 0)
(37.2547 -1.02828 0)
(36.3419 -1.01503 0)
(35.4961 -0.954273 0)
(34.7505 -0.866199 0)
(34.1026 -0.764678 0)
(33.5501 -0.661596 0)
(33.1056 -0.57078 0)
(32.7488 -0.494039 0)
(32.4409 -0.424503 0)
(32.183 -0.36415 0)
(31.9878 -0.318457 0)
(31.8305 -0.282929 0)
(31.6833 -0.250103 0)
(31.5533 -0.220915 0)
(31.4547 -0.199446 0)
(31.3761 -0.183921 0)
(31.2992 -0.169599 0)
(31.2233 -0.155021 0)
(31.1585 -0.142583 0)
(31.1072 -0.133731 0)
(31.0621 -0.126898 0)
(31.0166 -0.119896 0)
(30.969 -0.11227 0)
(30.9257 -0.105633 0)
(30.8887 -0.100739 0)
(30.8551 -0.0968238 0)
(30.8216 -0.0928109 0)
(30.7864 -0.088407 0)
(30.7507 -0.0842554 0)
(30.7172 -0.0809625 0)
(30.6853 -0.0782073 0)
(30.6536 -0.0753858 0)
(30.6215 -0.072395 0)
(30.5884 -0.0695319 0)
(30.5545 -0.0670465 0)
(30.5205 -0.0648371 0)
(30.4863 -0.06265 0)
(30.4519 -0.0604572 0)
(30.417 -0.058414 0)
(30.3812 -0.056556 0)
(30.3445 -0.0547799 0)
(30.307 -0.0529933 0)
(30.269 -0.0512113 0)
(30.2307 -0.0494742 0)
(30.192 -0.0477959 0)
(30.1526 -0.0461438 0)
(30.1125 -0.0444823 0)
(30.0716 -0.0427574 0)
(30.0301 -0.0410101 0)
(29.988 -0.0393303 0)
(29.9452 -0.0377312 0)
(29.9016 -0.0361642 0)
(29.857 -0.0346147 0)
(29.8111 -0.0331041 0)
(29.7642 -0.0316632 0)
(29.716 -0.0303172 0)
(29.6666 -0.0290592 0)
(29.6159 -0.027877 0)
(29.5638 -0.0267694 0)
(29.5103 -0.025742 0)
(29.4555 -0.0248017 0)
(29.3996 -0.0239327 0)
(29.3426 -0.0231516 0)
(29.2848 -0.0224514 0)
(29.2261 -0.0218227 0)
(29.1668 -0.0212576 0)
(29.107 -0.0207491 0)
(29.047 -0.0202969 0)
(28.9868 -0.0198881 0)
(28.9267 -0.0195266 0)
(28.8666 -0.0191982 0)
(28.8071 -0.0189104 0)
(28.7476 -0.0186503 0)
(28.6893 -0.0184163 0)
(28.6309 -0.0182032 0)
(28.5741 -0.0180185 0)
(28.5174 -0.0178576 0)
(28.4623 -0.0177231 0)
(28.4074 -0.017613 0)
(28.3544 -0.0175179 0)
(28.3016 -0.0174363 0)
(28.2508 -0.0173729 0)
(28.2001 -0.0173251 0)
(28.1515 -0.0172964 0)
(28.1029 -0.0172846 0)
(28.0564 -0.0173066 0)
(28.0097 -0.0173683 0)
(27.9654 -0.0175016 0)
(27.9196 -0.0177699 0)
(27.8784 -0.0181338 0)
(27.8297 -0.0190972 0)
(27.7968 -0.019612 0)
(27.7301 -0.0241577 0)
(40.2386 -0.030009 0)
(40.2709 -0.0704532 0)
(40.2318 -0.171528 0)
(40.0308 -0.327113 0)
(39.6008 -0.494847 0)
(38.9443 -0.634487 0)
(38.1222 -0.726416 0)
(37.2227 -0.765061 0)
(36.3064 -0.757363 0)
(35.4542 -0.717764 0)
(34.6845 -0.656632 0)
(34.0059 -0.584345 0)
(33.4393 -0.513667 0)
(32.9698 -0.450001 0)
(32.5642 -0.391385 0)
(32.2226 -0.339249 0)
(31.9466 -0.296846 0)
(31.7143 -0.262927 0)
(31.5033 -0.233385 0)
(31.3185 -0.207437 0)
(31.1632 -0.186521 0)
(31.026 -0.17053 0)
(30.8948 -0.157035 0)
(30.7711 -0.144344 0)
(30.6602 -0.132913 0)
(30.5596 -0.123609 0)
(30.4624 -0.116277 0)
(30.366 -0.109642 0)
(30.2728 -0.102726 0)
(30.1851 -0.0960243 0)
(30.1011 -0.0904897 0)
(30.0181 -0.0861325 0)
(29.9352 -0.0821556 0)
(29.8533 -0.0778548 0)
(29.7737 -0.0733833 0)
(29.6959 -0.0695174 0)
(29.6189 -0.066467 0)
(29.5421 -0.0637113 0)
(29.4658 -0.0607625 0)
(29.3907 -0.0576565 0)
(29.3169 -0.05478 0)
(29.244 -0.0523921 0)
(29.1717 -0.0503042 0)
(29.1002 -0.0481869 0)
(29.0297 -0.0459772 0)
(28.9605 -0.043845 0)
(28.8923 -0.041888 0)
(28.8252 -0.0400817 0)
(28.7592 -0.0383515 0)
(28.6945 -0.036665 0)
(28.631 -0.0350186 0)
(28.5689 -0.0334325 0)
(28.5081 -0.0319111 0)
(28.4488 -0.0304644 0)
(28.3908 -0.0290658 0)
(28.3346 -0.02773 0)
(28.2797 -0.0264654 0)
(28.2266 -0.0252546 0)
(28.1748 -0.0240463 0)
(28.1249 -0.0228501 0)
(28.0763 -0.0216811 0)
(28.0296 -0.0205654 0)
(27.9842 -0.0194885 0)
(27.9406 -0.0184379 0)
(27.8982 -0.0173927 0)
(27.8575 -0.0163734 0)
(27.8178 -0.0153884 0)
(27.7796 -0.0144577 0)
(27.7423 -0.0135636 0)
(27.7063 -0.0127185 0)
(27.6711 -0.0119377 0)
(27.6368 -0.0112105 0)
(27.6032 -0.0105252 0)
(27.5703 -0.00989297 0)
(27.5379 -0.00931884 0)
(27.5061 -0.00880969 0)
(27.4747 -0.00835722 0)
(27.4436 -0.00796964 0)
(27.413 -0.00763964 0)
(27.3824 -0.00736685 0)
(27.3522 -0.00714393 0)
(27.322 -0.00696657 0)
(27.2921 -0.00683253 0)
(27.2621 -0.00673788 0)
(27.2323 -0.00668612 0)
(27.2025 -0.00667584 0)
(27.1727 -0.00669009 0)
(27.1429 -0.00673103 0)
(27.1132 -0.00679868 0)
(27.0834 -0.00689177 0)
(27.0537 -0.00700546 0)
(27.024 -0.00714319 0)
(26.9945 -0.00730763 0)
(26.9647 -0.00751299 0)
(26.9355 -0.00772728 0)
(26.9049 -0.00811066 0)
(26.8769 -0.00835302 0)
(26.8424 -0.00948214 0)
(26.8199 -0.00918045 0)
(26.7695 -0.0145932 0)
(40.2229 -0.0441214 0)
(40.2345 -0.0683461 0)
(40.1702 -0.129278 0)
(39.943 -0.223499 0)
(39.4859 -0.326544 0)
(38.7965 -0.413767 0)
(37.9306 -0.472623 0)
(36.9718 -0.498659 0)
(35.9911 -0.496173 0)
(35.0459 -0.472418 0)
(34.1772 -0.433629 0)
(33.4047 -0.388407 0)
(32.7272 -0.343524 0)
(32.135 -0.30132 0)
(31.6225 -0.262948 0)
(31.1839 -0.230069 0)
(30.8012 -0.202669 0)
(30.462 -0.179389 0)
(30.1585 -0.159209 0)
(29.8888 -0.14238 0)
(29.6438 -0.128277 0)
(29.4185 -0.116354 0)
(29.2098 -0.106023 0)
(29.0166 -0.0971084 0)
(28.8376 -0.0894418 0)
(28.6697 -0.0825799 0)
(28.5105 -0.0763522 0)
(28.3586 -0.0707177 0)
(28.2143 -0.06555 0)
(28.0777 -0.0607023 0)
(27.9479 -0.0562628 0)
(27.823 -0.0522377 0)
(27.7026 -0.0485184 0)
(27.587 -0.0449599 0)
(27.4766 -0.0415436 0)
(27.3712 -0.0384407 0)
(27.2697 -0.0356819 0)
(27.1717 -0.0331073 0)
(27.0773 -0.0305828 0)
(26.9869 -0.0281431 0)
(26.9003 -0.0259082 0)
(26.8173 -0.0239424 0)
(26.737 -0.0221427 0)
(26.6598 -0.0203867 0)
(26.5855 -0.0186756 0)
(26.5145 -0.017105 0)
(26.4461 -0.0156998 0)
(26.3805 -0.014416 0)
(26.3172 -0.0131961 0)
(26.2567 -0.0120365 0)
(26.1983 -0.0109514 0)
(26.1426 -0.00995798 0)
(26.0889 -0.00904574 0)
(26.0377 -0.00819908 0)
(25.9883 -0.00738681 0)
(25.9414 -0.0066092 0)
(25.8963 -0.00588236 0)
(25.8535 -0.00521064 0)
(25.8123 -0.00457054 0)
(25.7734 -0.00395642 0)
(25.7361 -0.00337046 0)
(25.7011 -0.00282361 0)
(25.6675 -0.0023101 0)
(25.6359 -0.00182692 0)
(25.6058 -0.0013676 0)
(25.5776 -0.000937095 0)
(25.5507 -0.00053375 0)
(25.5256 -0.000158888 0)
(25.5016 0.000193119 0)
(25.4792 0.000522002 0)
(25.4577 0.000838205 0)
(25.4376 0.00107444 0)
(25.4184 0.00127532 0)
(25.4002 0.00145588 0)
(25.3827 0.00162762 0)
(25.3662 0.00177769 0)
(25.35 0.00191808 0)
(25.3347 0.00203469 0)
(25.3197 0.00213752 0)
(25.3052 0.00222465 0)
(25.291 0.00229871 0)
(25.2772 0.00235078 0)
(25.2636 0.00239542 0)
(25.2503 0.00244136 0)
(25.2371 0.00247726 0)
(25.224 0.00249897 0)
(25.211 0.00252073 0)
(25.1981 0.00253849 0)
(25.185 0.00253982 0)
(25.172 0.00253365 0)
(25.1588 0.00251364 0)
(25.1455 0.00248019 0)
(25.1321 0.00242642 0)
(25.1184 0.00231744 0)
(25.1048 0.00222458 0)
(25.0899 0.00194496 0)
(25.0767 0.00194854 0)
(25.0582 0.000989555 0)
(25.0479 0.00152061 0)
(25.0178 -0.00294778 0)
(39.1402 -0.0539802 0)
(38.9464 -0.0675466 0)
(38.6586 -0.0934488 0)
(38.1914 -0.131021 0)
(37.4774 -0.172078 0)
(36.5128 -0.207811 0)
(35.3544 -0.233295 0)
(34.0901 -0.246408 0)
(32.7977 -0.24801 0)
(31.5411 -0.240132 0)
(30.374 -0.225379 0)
(29.3096 -0.206713 0)
(28.3625 -0.186498 0)
(27.5262 -0.166198 0)
(26.7956 -0.147222 0)
(26.154 -0.130116 0)
(25.5937 -0.114693 0)
(25.0993 -0.100597 0)
(24.6662 -0.0882888 0)
(24.2809 -0.0777109 0)
(23.9404 -0.0685002 0)
(23.6347 -0.0606699 0)
(23.3587 -0.0542486 0)
(23.1082 -0.0490801 0)
(22.8791 -0.0445172 0)
(22.6705 -0.0402183 0)
(22.4797 -0.0364543 0)
(22.3047 -0.033413 0)
(22.143 -0.0307448 0)
(21.9948 -0.0281077 0)
(21.8591 -0.0256231 0)
(21.7346 -0.0235367 0)
(21.6195 -0.0218431 0)
(21.5133 -0.0202965 0)
(21.4157 -0.0187459 0)
(21.3265 -0.0173104 0)
(21.2442 -0.0161281 0)
(21.1683 -0.0151605 0)
(21.098 -0.0142582 0)
(21.0337 -0.0133543 0)
(20.9747 -0.012506 0)
(20.9207 -0.0117987 0)
(20.8706 -0.0112131 0)
(20.8246 -0.0106717 0)
(20.7822 -0.0101349 0)
(20.7437 -0.00963098 0)
(20.7081 -0.00918029 0)
(20.6757 -0.00878059 0)
(20.6457 -0.00841301 0)
(20.6185 -0.00806733 0)
(20.5934 -0.00773371 0)
(20.5709 -0.00741649 0)
(20.55 -0.00711476 0)
(20.5314 -0.00683462 0)
(20.5141 -0.00656934 0)
(20.4989 -0.00632474 0)
(20.4849 -0.00610296 0)
(20.4725 -0.00590429 0)
(20.4612 -0.00570962 0)
(20.4515 -0.00552214 0)
(20.4426 -0.00534315 0)
(20.4352 -0.00518341 0)
(20.4285 -0.00502778 0)
(20.423 -0.00487761 0)
(20.4182 -0.00471427 0)
(20.4145 -0.00455011 0)
(20.4115 -0.00436404 0)
(20.4095 -0.00418209 0)
(20.408 -0.00396492 0)
(20.4075 -0.00370782 0)
(20.4077 -0.00353085 0)
(20.4085 -0.00335105 0)
(20.4099 -0.00319477 0)
(20.4119 -0.00304877 0)
(20.4145 -0.00290822 0)
(20.4176 -0.00277516 0)
(20.4212 -0.00264769 0)
(20.4253 -0.0025381 0)
(20.4297 -0.00243928 0)
(20.4344 -0.00235578 0)
(20.4394 -0.00228896 0)
(20.4446 -0.00226213 0)
(20.45 -0.00225446 0)
(20.4555 -0.002254 0)
(20.4612 -0.00226231 0)
(20.4667 -0.00228203 0)
(20.4724 -0.00229886 0)
(20.478 -0.00231446 0)
(20.4837 -0.00233691 0)
(20.4892 -0.0023567 0)
(20.4947 -0.00238172 0)
(20.4999 -0.00240484 0)
(20.5052 -0.00243541 0)
(20.5097 -0.00249643 0)
(20.5146 -0.00253909 0)
(20.518 -0.00267839 0)
(20.5227 -0.00262191 0)
(20.524 -0.00322153 0)
(20.5277 -0.00208046 0)
(20.5227 -0.00798273 0)
(1.95437 0.421237 0)
(1.64907 2.05102 0)
(0.910906 2.40128 0)
(0.110915 2.5677 0)
(-0.665574 2.43237 0)
(-1.46651 1.98152 0)
(-2.15367 1.28401 0)
(-2.51272 0.770952 0)
(10.5778 0.318083 0)
(4.36564 1.81697 0)
(1.74411 2.17481 0)
(-0.155017 2.21102 0)
(-2.00006 2.04563 0)
(-3.87731 1.69172 0)
(-5.71493 1.11972 0)
(-6.92409 0.530807 0)
(16.8868 -0.371862 0)
(7.91511 0.751523 0)
(2.86677 1.2142 0)
(-0.390801 1.32793 0)
(-2.9925 1.24932 0)
(-5.40338 1.0588 0)
(-7.85091 0.753711 0)
(-9.97521 0.288393 0)
(20.5479 -1.17077 0)
(11.239 -0.438566 0)
(4.58037 0.0734927 0)
(0.166289 0.31211 0)
(-3.14767 0.393388 0)
(-6.02668 0.379203 0)
(-8.77042 0.303335 0)
(-11.4791 0.0760386 0)
(22.4346 -1.81035 0)
(13.5547 -1.3272 0)
(6.44273 -0.873381 0)
(1.28495 -0.548982 0)
(-2.61863 -0.32824 0)
(-5.86406 -0.179404 0)
(-8.80814 -0.0646636 0)
(-11.7951 -0.0515922 0)
(23.6383 -2.31559 0)
(15.4317 -1.97617 0)
(8.2598 -1.57569 0)
(2.7433 -1.21556 0)
(-1.47203 -0.904725 0)
(-4.91752 -0.630899 0)
(-7.98474 -0.380779 0)
(-11.1055 -0.205936 0)
(24.3329 -2.60595 0)
(16.9013 -2.37077 0)
(10.0266 -2.03618 0)
(4.44232 -1.67071 0)
(0.115688 -1.3055 0)
(-3.37697 -0.946707 0)
(-6.43091 -0.597706 0)
(-9.5123 -0.30716 0)
(24.7681 -2.67798 0)
(17.9671 -2.50941 0)
(11.515 -2.23407 0)
(6.15517 -1.89313 0)
(1.91899 -1.5131 0)
(-1.51044 -1.11237 0)
(-4.49001 -0.712697 0)
(-7.5282 -0.358447 0)
(25.0646 -2.58803 0)
(18.8341 -2.46094 0)
(12.8345 -2.23082 0)
(7.79368 -1.91908 0)
(3.76288 -1.55069 0)
(0.479088 -1.14691 0)
(-2.37463 -0.740296 0)
(-5.32875 -0.369178 0)
(25.2511 -2.38145 0)
(19.5304 -2.28733 0)
(13.9918 -2.09734 0)
(9.31693 -1.82132 0)
(5.53754 -1.48049 0)
(2.42575 -1.0969 0)
(-0.297027 -0.708876 0)
(-3.17827 -0.353656 0)
(25.3305 -2.11384 0)
(20.0611 -2.05172 0)
(14.9678 -1.89745 0)
(10.6754 -1.6594 0)
(7.16913 -1.35427 0)
(4.2424 -1.00518 0)
(1.65859 -0.650586 0)
(-1.1455 -0.325744 0)
(25.3125 -1.835 0)
(20.4565 -1.79894 0)
(15.8044 -1.67499 0)
(11.8632 -1.47215 0)
(8.60652 -1.20341 0)
(5.86484 -0.895248 0)
(3.41661 -0.580415 0)
(0.69701 -0.291696 0)
(25.2217 -1.57412 0)
(20.7375 -1.55796 0)
(16.5021 -1.45908 0)
(12.8899 -1.2863 0)
(9.86456 -1.05223 0)
(7.29288 -0.7827 0)
(4.96281 -0.504847 0)
(2.30889 -0.250374 0)
(25.084 -1.34505 0)
(20.939 -1.34161 0)
(17.0856 -1.26294 0)
(13.7726 -1.11628 0)
(10.9568 -0.913587 0)
(8.53865 -0.679486 0)
(6.31456 -0.436103 0)
(3.71822 -0.214308 0)
(24.917 -1.15034 0)
(21.0781 -1.15483 0)
(17.5721 -1.09152 0)
(14.5311 -0.966805 0)
(11.9027 -0.792587 0)
(9.61999 -0.59002 0)
(7.48725 -0.377319 0)
(4.93596 -0.184436 0)
(24.7431 -0.990524 0)
(21.1862 -0.996844 0)
(17.9781 -0.945149 0)
(15.1713 -0.838328 0)
(12.7158 -0.689667 0)
(10.5573 -0.514589 0)
(8.50736 -0.327795 0)
(5.99388 -0.161602 0)
(24.5807 -0.861889 0)
(21.2811 -0.866998 0)
(18.3234 -0.822455 0)
(15.7147 -0.73014 0)
(13.4159 -0.60251 0)
(11.3715 -0.45038 0)
(9.39994 -0.284189 0)
(6.91579 -0.145763 0)
(24.4343 -0.756482 0)
(21.3685 -0.76016 0)
(18.6246 -0.720096 0)
(16.1856 -0.639391 0)
(14.024 -0.528426 0)
(12.0824 -0.395266 0)
(10.1867 -0.247016 0)
(7.71814 -0.131348 0)
(24.306 -0.668988 0)
(21.4509 -0.671148 0)
(18.8912 -0.6346 0)
(16.5987 -0.563188 0)
(14.5564 -0.465615 0)
(12.7059 -0.348339 0)
(10.8782 -0.216917 0)
(8.42434 -0.115945 0)
(24.1974 -0.597339 0)
(21.5298 -0.598025 0)
(19.1304 -0.56413 0)
(16.9655 -0.500136 0)
(15.0275 -0.413292 0)
(13.257 -0.309048 0)
(11.4889 -0.192258 0)
(9.04771 -0.102191 0)
(24.1081 -0.539138 0)
(21.6077 -0.538838 0)
(19.3485 -0.506847 0)
(17.2962 -0.448999 0)
(15.4495 -0.370756 0)
(13.7491 -0.276985 0)
(12.0334 -0.172173 0)
(9.60245 -0.0907798 0)
(24.034 -0.490296 0)
(21.6844 -0.489411 0)
(19.5464 -0.45939 0)
(17.5965 -0.406786 0)
(15.8316 -0.335721 0)
(14.1937 -0.250597 0)
(12.5239 -0.155619 0)
(10.1012 -0.0813926 0)
(23.9717 -0.447968 0)
(21.7581 -0.44641 0)
(19.728 -0.418378 0)
(17.8704 -0.370249 0)
(16.1794 -0.305402 0)
(14.5977 -0.227781 0)
(12.969 -0.141261 0)
(10.553 -0.0733954 0)
(23.9205 -0.411276 0)
(21.8293 -0.408781 0)
(19.896 -0.382651 0)
(18.1216 -0.338381 0)
(16.4973 -0.278943 0)
(14.9665 -0.207878 0)
(13.3745 -0.128709 0)
(10.9634 -0.0665492 0)
(23.8797 -0.38039 0)
(21.8973 -0.377032 0)
(20.0518 -0.352331 0)
(18.3529 -0.31124 0)
(16.7893 -0.256387 0)
(15.3048 -0.190921 0)
(13.746 -0.118023 0)
(11.3385 -0.0607929 0)
(23.8484 -0.354269 0)
(21.9654 -0.349673 0)
(20.1992 -0.326531 0)
(18.5683 -0.288151 0)
(17.0597 -0.237146 0)