/*--------------------------------*- C++ -*----------------------------------*\
| =========                 |                                                 |
| \\      /  F ield         | OpenFOAM: The Open Source CFD Toolbox           |
|  \\    /   O peration     | Version:  v2012                                 |
|   \\  /    A nd           | Website:  www.openfoam.com                      |
|    \\/     M anipulation  |                                                 |
\*---------------------------------------------------------------------------*/
FoamFile
{
    version     2.0;
    format      ascii;
    class       volScalarField;
    location    "0.068";
    object      k.air;
}
// * * * * * * * * * * * * * * * * * * * * * * * * * * * * * * * * * * * * * //

dimensions      [0 2 -2 0 0 0 0];


internalField   nonuniform List<scalar> 
5600
(
0.651877
1.47004
2.41725
3.07859
3.37917
3.41861
3.31551
3.14798
2.97074
2.81206
2.67477
2.56195
2.47555
2.41393
2.37455
2.35255
2.3439
2.343
2.34759
2.35301
2.35984
2.36423
2.3695
2.37137
2.37538
2.37595
2.38003
2.37979
2.38441
2.38324
2.38838
2.38625
2.39107
2.38822
2.39198
2.38902
2.39087
2.38927
2.38838
2.38896
2.38565
2.38763
2.38375
2.3849
2.38347
2.38088
2.38472
2.37674
2.38573
2.37422
2.38484
2.37465
2.38123
2.378
2.37602
2.38222
2.37211
2.38407
2.37223
2.38124
2.37754
2.37432
2.38623
2.3671
2.39323
2.36547
2.39287
2.37334
2.38302
2.38862
2.3687
2.4026
2.36035
2.40451
2.36544
2.39157
2.38139
2.37321
2.39512
2.3652
2.39254
2.376
2.37344
2.39773
2.35326
2.41127
2.34904
2.40531
2.36288
2.38552
2.38166
2.37267
2.37825
2.39737
2.3259
2.47212
2.22579
2.60422
1.94156
3.17546
0.403112
0.378454
0.397582
0.451512
0.512038
0.590348
0.673678
0.793438
0.939014
1.10224
1.28403
1.47598
1.66861
1.85304
2.02251
2.17089
2.29594
2.39501
2.47189
2.52473
2.56474
2.58651
2.60775
2.61432
2.62989
2.63013
2.64542
2.64107
2.65616
2.64727
2.66211
2.64884
2.66234
2.64782
2.65789
2.64712
2.65042
2.64802
2.64236
2.64849
2.63694
2.64625
2.63676
2.63973
2.64323
2.63003
2.65284
2.62107
2.65965
2.61908
2.6569
2.62841
2.64392
2.64563
2.62776
2.66142
2.61952
2.66545
2.62875
2.65116
2.65554
2.62459
2.68752
2.6027
2.70587
2.60657
2.69206
2.64704
2.649
2.70621
2.60384
2.74899
2.59131
2.74167
2.63061
2.68689
2.69528
2.63059
2.73174
2.6232
2.7043
2.67845
2.63076
2.74945
2.57497
2.77513
2.58181
2.7333
2.6441
2.66228
2.70174
2.63728
2.67366
2.72284
2.54524
2.84486
2.481
2.79487
2.57142
2.80859
0.40571
0.345023
0.301143
0.271676
0.251492
0.240113
0.23444
0.236171
0.247721
0.266363
0.295538
0.335544
0.388051
0.451423
0.526813
0.611154
0.705616
0.805268
0.91174
1.01679
1.12567
1.22645
1.3321
1.42443
1.52461
1.59657
1.67691
1.7205
1.78466
1.8063
1.85761
1.86614
1.90872
1.91195
1.94357
1.94972
1.96667
1.98161
1.9832
2.00566
1.99887
2.02063
2.0194
2.02584
2.04551
2.02588
2.0717
2.02786
2.08894
2.04032
2.09015
2.06657
2.07796
2.09912
2.06495
2.12437
2.06647
2.12867
2.09317
2.10774
2.14017
2.0749
2.18595
2.05702
2.20207
2.08117
2.17118
2.151
2.10973
2.23288
2.06078
2.27616
2.06957
2.24605
2.14312
2.1665
2.2297
2.10626
2.25879
2.12282
2.20122
2.2087
2.10601
2.28804
2.05713
2.29209
2.09214
2.22208
2.17592
2.14097
2.2289
2.13516
2.1739
2.23893
2.05743
2.29913
2.11685
2.08829
2.40674
1.86133
0.406477
0.344405
0.298182
0.262583
0.234803
0.212414
0.194662
0.179714
0.168467
0.159091
0.153405
0.14936
0.149805
0.151682
0.159717
0.168962
0.18715
0.206085
0.237759
0.26868
0.316829
0.360261
0.42613
0.48097
0.565706
0.630987
0.73209
0.800119
0.907086
0.966394
1.06517
1.11055
1.19587
1.23241
1.29728
1.33268
1.37252
1.41527
1.43215
1.48049
1.4867
1.52771
1.54474
1.55762
1.60343
1.57652
1.6521
1.5967
1.68182
1.63007
1.68787
1.67772
1.67882
1.72743
1.67351
1.7614
1.6908
1.76388
1.73975
1.73627
1.80859
1.70095
1.86459
1.69449
1.87193
1.74559
1.82042
1.84544
1.74382
1.94356
1.70148
1.97701
1.7414
1.91943
1.84995
1.82055
1.94997
1.76856
1.96082
1.81615
1.87324
1.92669
1.7678
2.00082
1.73795
1.97793
1.7991
1.88906
1.89025
1.81475
1.92241
1.83768
1.84179
1.94994
1.74835
1.95505
1.87852
1.69501
2.16074
1.54298
0.406557
0.344456
0.298318
0.262489
0.234336
0.211182
0.192487
0.176276
0.163219
0.151142
0.141917
0.132422
0.12634
0.118328
0.115468
0.108007
0.109197
0.101403
0.108382
0.0993628
0.114564
0.103809
0.130221
0.118209
0.158912
0.148218
0.20581
0.200967
0.275259
0.279785
0.364552
0.380101
0.465714
0.498207
0.575034
0.629651
0.685796
0.757962
0.791465
0.870094
0.895282
0.957288
1.00055
1.0203
1.10263
1.07014
1.1862
1.12408
1.23935
1.19384
1.26033
1.27626
1.26517
1.35357
1.27976
1.40235
1.32589
1.40625
1.40688
1.37629
1.50255
1.34667
1.56788
1.36215
1.56365
1.44869
1.4922
1.58185
1.40759
1.69151
1.38445
1.70704
1.46405
1.62135
1.6072
1.51211
1.71164
1.48053
1.69693
1.56211
1.58399
1.68891
1.48035
1.74654
1.47546
1.69755
1.55526
1.60244
1.64012
1.54776
1.6457
1.59704
1.55098
1.70121
1.49082
1.65845
1.65479
1.41217
1.86251
1.37098
0.406547
0.344489
0.298337
0.262584
0.234387
0.211297
0.192498
0.176317
0.163102
0.150941
0.141489
0.131586
0.125185
0.116103
0.11287
0.103071
0.103911
0.0914298
0.0981515
0.0804051
0.0956685
0.0695537
0.0965535
0.0591082
0.100587
0.0505431
0.106972
0.0473078
0.11441
0.0545044
0.121926
0.0773417
0.13041
0.118292
0.14512
0.17563
0.175714
0.241471
0.230353
0.305173
0.312987
0.360148
0.417655
0.412379
0.530399
0.475858
0.631455
0.561415
0.700284
0.671109
0.736852
0.791639
0.762324
0.896283
0.805516
0.958136
0.888813
0.964418
1.00942
0.938188
1.13397
0.927422
1.20571
0.980751
1.18825
1.11386
1.10281
1.28197
1.02594
1.39592
1.03992
1.38929
1.16969
1.28146
1.34431
1.17598
1.44104
1.17776
1.39701
1.29301
1.26868
1.42285
1.18196
1.45463
1.20611
1.38644
1.29258
1.30022
1.35622
1.27235
1.33672
1.33608
1.24687
1.41304
1.2278
1.3398
1.38619
1.1515
1.50199
1.18622
0.406531
0.34451
0.298321
0.262625
0.234381
0.211368
0.192498
0.176425
0.163097
0.151089
0.141459
0.131776
0.125073
0.116337
0.112569
0.103326
0.103249
0.0916304
0.0968395
0.0803459
0.0932787
0.0688063
0.092431
0.0568502
0.0936134
0.0453221
0.0950121
0.0366338
0.0933524
0.0347363
0.0846263
0.0436163
0.0668163
0.0635036
0.0441935
0.0868021
0.0297574
0.0991759
0.0404292
0.0892223
0.0839008
0.0617442
0.147375
0.0403089
0.204888
0.0515799
0.237035
0.112111
0.236952
0.216951
0.221818
0.331222
0.229455
0.418002
0.288517
0.455647
0.402104
0.443611
0.550347
0.421051
0.688748
0.440135
0.752317
0.540178
0.718025
0.716678
0.630242
0.902292
0.580454
1.00341
0.645243
0.971872
0.82223
0.85734
1.00943
0.781283
1.08173
0.828227
1.01293
0.964649
0.893465
1.07347
0.843534
1.07273
0.891342
1.00271
0.962537
0.945762
0.992919
0.94583
0.959789
1.00194
0.899386
1.03616
0.91562
0.961967
1.02549
0.86103
1.06041
0.912434
0.406524
0.344515
0.298308
0.262637
0.234366
0.211396
0.192473
0.176488
0.163039
0.151221
0.141319
0.132053
0.124739
0.116914
0.111833
0.104468
0.101758
0.0937676
0.094052
0.0840929
0.0884586
0.0749295
0.0847299
0.066105
0.0823254
0.0580683
0.0800541
0.052154
0.07591
0.050431
0.0675985
0.054583
0.0542573
0.0636146
0.0390871
0.0715828
0.0305343
0.0687029
0.0382177
0.0486444
0.062551
0.0193917
0.0869968
0.00280002
0.0932475
0.00625096
0.090701
0.0180815
0.0708199
0.0787814
0.00436996
0.123324
0.0321307
0.20795
0.0414581
0.155107
0.124965
0.0582609
0.23271
0.00587586
0.324114
0.0389041
0.320932
0.159629
0.234099
0.333705
0.142344
0.480026
0.126585
0.529241
0.24046
0.47078
0.434072
0.384975
0.59054
0.367127
0.6256
0.451186
0.557916
0.571722
0.48411
0.632038
0.481114
0.609332
0.528097
0.565064
0.561071
0.547474
0.561278
0.561193
0.535082
0.589291
0.515562
0.58696
0.543039
0.543444
0.585475
0.519806
0.578268
0.550345
0.406522
0.344514
0.298302
0.262638
0.234357
0.211404
0.192455
0.176514
0.163
0.151288
0.141224
0.132213
0.124517
0.117265
0.111348
0.105193
0.100775
0.095163
0.0922041
0.086592
0.0852466
0.0790723
0.0796008
0.0723765
0.0749271
0.0665282
0.0707175
0.0618525
0.0662566
0.0588742
0.0608486
0.0578874
0.0544139
0.0582277
0.0482376
0.0577735
0.044948
0.0536986
0.0467988
0.0447996
0.0530309
0.0340013
0.0586647
0.0275908
0.0581988
0.0285672
0.0512078
0.0366347
0.0355772
0.0559269
0.0120454
0.0722646
0.0045932
0.0713034
0.0225979
0.0476226
0.0577939
0.0102538
0.0783821
0.00554826
0.108799
0.0143242
0.0851874
0.0481651
0.033597
0.128572
0.0156987
0.152604
0.0106722
0.194284
0.0699466
0.125063
0.141322
0.085404
0.196878
0.0992838
0.199761
0.152392
0.174447
0.198393
0.16289
0.207699
0.177703
0.193386
0.19323
0.185993
0.192415
0.19061
0.181671
0.202384
0.167559
0.210055
0.16769
0.198324
0.184666
0.182443
0.195369
0.176133
0.195436
0.182459
0.406521
0.344513
0.298299
0.262637
0.234353
0.211406
0.192448
0.176522
0.162985
0.15131
0.141191
0.132265
0.124442
0.117382
0.111187
0.10543
0.100454
0.0956155
0.0916073
0.0873982
0.0842143
0.0804015
0.0779645
0.0743671
0.0726069
0.0691438
0.0679025
0.0646788
0.0636088
0.0609748
0.0595304
0.0579837
0.0556385
0.0554643
0.0521788
0.0529378
0.0495876
0.0499103
0.0481136
0.0463229
0.0473893
0.0428435
0.0464309
0.0405045
0.0443472
0.0397524
0.0410863
0.0402578
0.0370615
0.0413676
0.0335807
0.0409061
0.0333596
0.0369228
0.0368953
0.0303925
0.0415147
0.0252254
0.0412229
0.0274761
0.034913
0.0351612
0.0264266
0.0416538
0.0200371
0.0437891
0.0243242
0.0380324
0.0317753
0.0320762
0.040678
0.0269218
0.0429363
0.031211
0.0386677
0.0423485
0.0324846
0.0509358
0.0319534
0.050136
0.0392865
0.0419019
0.048727
0.0343248
0.0528423
0.0328313
0.0505105
0.0364066
0.0439094
0.0441872
0.0344953
0.0525755
0.0279731
0.0558595
0.0271345
0.0531156
0.0353346
0.0387801
0.0516624
0.0271441
0.406521
0.344514
0.2983
0.262638
0.234353
0.211408
0.192448
0.176525
0.162984
0.151316
0.141185
0.132278
0.124427
0.117407
0.111155
0.105479
0.100391
0.0957038
0.0914929
0.0875507
0.0840217
0.0806464
0.0776664
0.0747251
0.0721965
0.0695972
0.0674304
0.0651321
0.0632208
0.0612336
0.0594555
0.0578137
0.056071
0.0547703
0.053055
0.0519844
0.0504249
0.0493545
0.0481685
0.0468603
0.0461746
0.0446182
0.0442058
0.0428556
0.0419898
0.0417423
0.0394465
0.0411235
0.036971
0.0402625
0.0355956
0.0379039
0.0365059
0.0333277
0.0394879
0.0280161
0.0417374
0.0257596
0.0392814
0.0296084
0.0313862
0.0374699
0.0229742
0.042753
0.0206552
0.040584
0.0265192
0.0327205
0.035998
0.0257547
0.0431126
0.0250613
0.0453335
0.0308914
0.0442174
0.0396098
0.0423276
0.0474835
0.040655
0.053264
0.0386248
0.0570293
0.0370973
0.0568135
0.040317
0.0488353
0.0516131
0.0340641
0.0654627
0.0223336
0.0699212
0.025606
0.0562488
0.0479549
0.0291467
0.0723813
0.0154521
0.0698307
0.0323141
0.0439661
0.406521
0.344517
0.298303
0.262643
0.234358
0.211413
0.192452
0.17653
0.162986
0.15132
0.141185
0.132282
0.124424
0.117412
0.111147
0.105485
0.100378
0.0957125
0.0914747
0.0875631
0.0839956
0.0806642
0.0776327
0.0747447
0.0721641
0.069604
0.0674226
0.0650956
0.0632758
0.0611121
0.0596174
0.0575766
0.056352
0.0544497
0.0533807
0.0517206
0.0506221
0.0493645
0.0480658
0.0472732
0.0458292
0.0452472
0.044079
0.0431844
0.0427555
0.0413858
0.0413451
0.040606
0.0392117
0.0413067
0.0366328
0.0425309
0.0355943
0.0420307
0.0385142
0.0388173
0.045127
0.0358011
0.0514614
0.0382708
0.0540485
0.0481001
0.0549396
0.0614983
0.0593254
0.0742987
0.0696873
0.0881734
0.0844985
0.108666
0.102967
0.135923
0.127799
0.160877
0.160926
0.1754
0.197104
0.181053
0.223713
0.188936
0.228862
0.208317
0.212869
0.23437
0.192009
0.248623
0.190176
0.233884
0.217564
0.196146
0.253887
0.169161
0.259587
0.187008
0.219314
0.237116
0.174422
0.263137
0.172261
0.243662
0.406521
0.344522
0.298308
0.26265
0.234362
0.21142
0.192454
0.176535
0.162986
0.151322
0.141181
0.132282
0.124415
0.117408
0.111134
0.105476
0.100364
0.0956966
0.0914619
0.0875386
0.0839871
0.080632
0.0776358
0.0746958
0.0722061
0.0695109
0.0675569
0.0649186
0.0635773
0.0608159
0.060173
0.0571666
0.0572151
0.0540809
0.0544753
0.0518257
0.0517117
0.0506889
0.048916
0.0506458
0.0467389
0.0510106
0.0466694
0.050735
0.0503403
0.0496027
0.0581308
0.0497438
0.0681436
0.0553093
0.0776179
0.0697311
0.0863428
0.0927217
0.0981609
0.120577
0.118515
0.15037
0.14953
0.181659
0.189864
0.21543
0.236639
0.251586
0.286441
0.291302
0.336566
0.33985
0.384162
0.4024
0.426844
0.474995
0.466692
0.53842
0.509721
0.575358
0.558582
0.583838
0.604995
0.57919
0.633099
0.582359
0.63248
0.602975
0.608872
0.631872
0.584419
0.646037
0.583851
0.630093
0.610368
0.59821
0.638243
0.58019
0.642615
0.589063
0.621609
0.618297
0.590132
0.645823
0.406516
0.344533
0.298305
0.262662
0.234353
0.21143
0.192437
0.176537
0.162961
0.151315
0.141147
0.132266
0.124371
0.117386
0.111087
0.105448
0.100323
0.0956677
0.0914465
0.0875293
0.0840211
0.0806862
0.0777674
0.074876
0.0725489
0.0699096
0.0683292
0.0657195
0.0651472
0.0623934
0.0631714
0.0602029
0.0626865
0.0598313
0.0640392
0.0625356
0.0678313
0.0699478
0.0750852
0.0834918
0.0876013
0.103676
0.108114
0.130418
0.139873
0.163579
0.183924
0.203145
0.238465
0.250487
0.298592
0.307309
0.358774
0.373471
0.416884
0.446241
0.475983
0.521433
0.536706
0.591217
0.600259
0.651904
0.66544
0.702437
0.730536
0.746426
0.793058
0.792465
0.847895
0.848254
0.889479
0.912013
0.918919
0.970957
0.944755
1.00894
0.975569
1.01892
1.0112
1.01015
1.04067
1.00125
1.05108
1.00675
1.03898
1.02736
1.01533
1.04838
1.00095
1.05113
1.0089
1.03336
1.03109
1.01064
1.04951
1.00015
1.04889
1.01299
1.02618
1.0417
0.406498
0.344558
0.298278
0.262679
0.234301
0.211435
0.192357
0.176529
0.162862
0.151299
0.141041
0.132264
0.124291
0.117447
0.111104
0.105666
0.10057
0.0962209
0.0921823
0.0887497
0.0856797
0.0831622
0.0811044
0.0796348
0.0789292
0.07883
0.0802565
0.0821612
0.0869673
0.0919951
0.101603
0.111008
0.126921
0.142273
0.166095
0.18893
0.220216
0.250779
0.287639
0.325555
0.364626
0.408862
0.44818
0.498537
0.538814
0.589426
0.630089
0.674649
0.718902
0.752042
0.801481
0.822913
0.874235
0.890545
0.935549
0.95643
0.986972
1.01868
1.03336
1.07472
1.07823
1.12127
1.12339
1.1574
1.17007
1.18613
1.21748
1.21504
1.26067
1.25181
1.29287
1.2963
1.3112
1.34074
1.3225
1.37209
1.33681
1.3817
1.35867
1.37312
1.38234
1.35955
1.39678
1.35504
1.39425
1.36562
1.37714
1.38464
1.35883
1.39677
1.35424
1.3921
1.36619
1.37446
1.38619
1.35591
1.3986
1.35354
1.38998
1.37307
0.406447
0.344605
0.298182
0.262679
0.23416
0.211438
0.192251
0.17664
0.162911
0.151697
0.14151
0.133365
0.125754
0.12002
0.114556
0.111044
0.10776
0.10677
0.106237
0.108441
0.111722
0.118491
0.127302
0.140721
0.157778
0.181079
0.209875
0.245845
0.288167
0.335489
0.387876
0.442895
0.50305
0.564483
0.629937
0.691908
0.754911
0.812525
0.869701
0.921748
0.970946
1.01823
1.05885
1.10199
1.13425
1.17266
1.20004
1.2312
1.25844
1.27959
1.31053
1.32177
1.35643
1.36223
1.39505
1.40296
1.42605
1.44222
1.45215
1.47803
1.47659
1.50757
1.50201
1.52927
1.53024
1.54484
1.5613
1.55933
1.59139
1.57901
1.61389
1.6067
1.62467
1.63759
1.62801
1.66195
1.63231
1.67129
1.6439
1.66509
1.66078
1.65192
1.67502
1.64292
1.67829
1.64599
1.66821
1.6599
1.6518
1.67434
1.64147
1.67798
1.64478
1.6678
1.66042
1.64942
1.67748
1.63843
1.67994
1.64713
0.406256
0.344692
0.297921
0.262934
0.234578
0.212941
0.194607
0.180602
0.168883
0.160832
0.154762
0.152771
0.152924
0.157868
0.165651
0.179542
0.197522
0.223382
0.254725
0.295414
0.342427
0.399092
0.461809
0.534361
0.613439
0.70008
0.789393
0.880972
0.968696
1.05021
1.12539
1.19326
1.25526
1.3088
1.35767
1.39901
1.43824
1.47082
1.50278
1.53021
1.5566
1.58178
1.6025
1.62574
1.6406
1.66095
1.67234
1.68875
1.70068
1.71076
1.72633
1.72949
1.74921
1.74752
1.76846
1.76757
1.78379
1.78954
1.79646
1.81113
1.80837
1.82964
1.8216
1.84301
1.83824
1.8518
1.85877
1.85912
1.88046
1.86942
1.89741
1.88589
1.90506
1.90678
1.90489
1.92529
1.90362
1.93432
1.90789
1.93114
1.91874
1.92033
1.93093
1.90999
1.93746
1.90784
1.9335
1.91626
1.92125
1.92954
1.90923
1.93796
1.9062
1.93482
1.91569
1.92056
1.9322
1.90612
1.94172
1.90556
0.405172
0.345743
0.300605
0.273038
0.251942
0.243148
0.237189
0.242469
0.255955
0.278299
0.311093
0.356919
0.414072
0.484043
0.564463
0.655904
0.755361
0.862288
0.972125
1.0844
1.19407
1.30292
1.4065
1.509
1.59967
1.67774
1.74305
1.79718
1.84287
1.87975
1.91096
1.93691
1.95959
1.97789
1.99545
2.0089
2.0228
2.03254
2.04348
2.05124
2.05969
2.06735
2.07343
2.08212
2.08643
2.09587
2.09887
2.10722
2.11104
2.11599
2.12301
2.12314
2.13401
2.13007
2.14349
2.13893
2.15077
2.15048
2.15612
2.16313
2.161
2.17464
2.16692
2.18327
2.17619
2.18881
2.18969
2.19276
2.20541
2.1978
2.21843
2.20665
2.2243
2.21935
2.22273
2.23217
2.21876
2.2399
2.21818
2.23934
2.22379
2.23176
2.2328
2.22239
2.24018
2.21743
2.24076
2.22092
2.23341
2.23087
2.22283
2.24057
2.21635
2.2428
2.2197
2.23442
2.23212
2.22108
2.24402
2.21466
0.401977
0.380657
0.399107
0.460148
0.520951
0.609889
0.6947
0.833682
0.98597
1.15957
1.35077
1.54969
1.74691
1.93372
2.10313
2.25007
2.37151
2.4673
2.53852
2.58952
2.62342
2.64673
2.66209
2.67336
2.68243
2.6902
2.69634
2.70105
2.70463
2.70664
2.70759
2.7068
2.70579
2.70312
2.70149
2.69816
2.69689
2.69349
2.69251
2.68954
2.68841
2.68672
2.68506
2.6853
2.68324
2.68491
2.68252
2.68452
2.68278
2.68348
2.68413
2.68195
2.68578
2.68079
2.68742
2.68125
2.68834
2.6843
2.68812
2.68921
2.68754
2.69425
2.68777
2.69833
2.69087
2.70083
2.69785
2.7021
2.70736
2.7032
2.71574
2.70596
2.71946
2.71147
2.71729
2.71858
2.71231
2.72395
2.70895
2.72505
2.71033
2.72079
2.71581
2.71379
2.72219
2.70823
2.72545
2.70802
2.7227
2.71387
2.71537
2.72218
2.70834
2.72734
2.70698
2.72476
2.71382
2.71555
2.72384
2.70704
0.651018
1.47032
2.41538
3.07115
3.36111
3.39271
3.28101
3.10753
2.92914
2.76996
2.63151
2.51964
2.43481
2.37608
2.33909
2.31997
2.31272
2.31372
2.31826
2.32462
2.3304
2.33551
2.33938
2.34239
2.34497
2.34728
2.34953
2.35161
2.35355
2.35532
2.35692
2.35813
2.35904
2.35931
2.35945
2.35889
2.35849
2.35736
2.35662
2.3552
2.35422
2.35285
2.35164
2.35061
2.34921
2.34872
2.34722
2.34706
2.34568
2.34545
2.34464
2.34382
2.34403
2.34235
2.34364
2.34135
2.34317
2.34116
2.34246
2.34175
2.34167
2.34278
2.34127
2.34395
2.3418
2.34502
2.3435
2.34555
2.34586
2.34531
2.34786
2.34479
2.34837
2.34474
2.34706
2.34551
2.34475
2.34655
2.34278
2.34692
2.34227
2.34612
2.34333
2.3444
2.34529
2.34262
2.34693
2.34198
2.3471
2.34312
2.34558
2.34551
2.34335
2.34774
2.3421
2.34812
2.34294
2.34598
2.34516
2.34149
0.512178
8.03312
10.8643
12.1146
12.8699
13.3241
13.1424
12.1846
11.3134
10.4707
9.81251
9.66873
9.77444
9.59874
9.15425
8.72914
8.07841
6.58803
4.21055
2.05746
0.827844
0.355248
0.0491499
0.277621
0.0730945
0.102565
0.925917
1.80015
2.32305
2.50211
2.471
2.34796
2.16504
1.90611
1.58809
1.2579
0.956626
0.706482
0.511724
0.366096
0.260175
0.18464
0.131939
0.0963009
0.0729426
0.0579165
0.0482238
0.0417862
0.0373038
0.0340243
0.0315466
0.0296704
0.0282999
0.0273633
0.0267669
0.0263601
0.0259729
0.0254822
0.0248669
0.0241776
0.0234988
0.0229114
0.0224627
0.0221532
0.0219555
0.0218356
0.0217662
0.0217262
0.021704
0.0216908
0.0216837
0.0216789
0.0216767
0.0216747
0.0216741
0.0216731
0.0216732
0.0216725
0.0216728
0.0216723
0.0216727
0.0216722
0.0216727
0.0216722
0.0216727
0.0216721
0.0216727
0.0216721
0.0216728
0.021672
0.0216728
0.021672
0.0216728
0.0216719
0.0216727
0.0216716
0.0216723
0.0216708
0.0216713
0.0216688
2.12052
3.43285
7.30738
9.77284
10.907
11.5791
11.5394
10.6031
9.78984
9.01294
8.38526
8.29319
8.45196
8.35706
7.95315
7.53812
6.87546
5.29589
2.91882
1.14408
0.35587
0.167792
0.0638964
0.243117
0.173377
0.020974
0.521486
1.38991
2.00718
2.27124
2.29169
2.19381
2.01968
1.76287
1.44722
1.12386
0.834923
0.601005
0.423686
0.295413
0.205734
0.144307
0.103298
0.0767747
0.060062
0.0496209
0.0429734
0.0385194
0.0353074
0.0328176
0.0308055
0.0291836
0.027937
0.0270502
0.0264681
0.0260692
0.0257009
0.025243
0.024671
0.0240376
0.0234196
0.0228787
0.0224542
0.0221541
0.0219582
0.0218367
0.0217636
0.02172
0.0216947
0.0216793
0.0216707
0.0216651
0.0216621
0.0216601
0.0216591
0.0216583
0.0216581
0.0216576
0.0216577
0.0216574
0.0216576
0.0216574
0.0216576
0.0216573
0.0216576
0.0216573
0.0216576
0.0216573
0.0216576
0.0216573
0.0216576
0.0216573
0.0216576
0.0216572
0.0216575
0.021657
0.0216574
0.0216566
0.0216568
0.0216557
2.36041
1.87392
3.0286
5.89139
7.71683
8.90415
9.24727
8.45096
7.81402
7.17697
6.62734
6.66086
6.91278
6.89832
6.57651
6.22022
5.49521
3.74474
1.59786
0.419861
0.14139
0.114378
0.141978
0.316753
0.345666
0.0286627
0.205536
0.960907
1.63783
1.986
2.0646
1.99733
1.83546
1.58347
1.27461
0.964512
0.695366
0.485517
0.333651
0.229092
0.158972
0.112655
0.0827391
0.0638643
0.0521055
0.044726
0.0399369
0.0366268
0.0341333
0.0320914
0.0303431
0.0288581
0.0276664
0.0267892
0.0262011
0.0258055
0.0254634
0.0250534
0.024539
0.023966
0.0234064
0.0229105
0.022504
0.0222013
0.0219945
0.0218617
0.0217787
0.0217279
0.021697
0.0216784
0.0216673
0.0216606
0.0216567
0.0216545
0.021653
0.0216523
0.0216517
0.0216516
0.0216513
0.0216515
0.0216512
0.0216514
0.0216511
0.0216514
0.0216511
0.0216514
0.021651
0.0216514
0.021651
0.0216515
0.021651
0.0216515
0.021651
0.0216516
0.021651
0.0216516
0.021651
0.0216518
0.0216513
0.0216526
2.00755
1.87397
1.56053
2.78783
3.87258
5.30704
6.17587
5.62749
5.28894
4.87249
4.4241
4.66
5.06588
5.12257
4.96034
4.70337
3.81006
1.96427
0.547911
0.0818189
0.0971546
0.174625
0.283577
0.533327
0.630615
0.212769
0.0221029
0.55637
1.22614
1.64397
1.78273
1.75096
1.60519
1.36186
1.06604
0.778405
0.541252
0.368105
0.250868
0.174003
0.123743
0.0909609
0.0698415
0.0563665
0.0477446
0.0421237
0.0383262
0.0356048
0.0334851
0.0316856
0.0300823
0.0286643
0.0274813
0.0265788
0.0259579
0.0255494
0.0252344
0.0248923
0.0244636
0.0239688
0.0234667
0.0230054
0.0226102
0.0223001
0.0220762
0.0219258
0.0218278
0.0217661
0.0217272
0.0217036
0.0216888
0.0216803
0.0216747
0.0216721
0.0216698
0.0216693
0.0216681
0.0216684
0.0216675
0.0216681
0.0216673
0.0216681
0.0216672
0.0216681
0.0216671
0.0216681
0.0216671
0.0216682
0.021667
0.0216683
0.021667
0.0216684
0.0216669
0.0216685
0.021667
0.0216688
0.0216673
0.0216697
0.0216685
0.0216723
1.63998
1.70517
1.31839
1.84097
1.74315
2.26848
3.07937
2.59429
2.57881
2.38981
1.93146
2.35415
2.86309
2.9455
3.07377
2.84378
1.76298
0.457651
0.0686131
0.0234517
0.134298
0.330981
0.53176
0.922479
1.07967
0.627256
0.0559162
0.243696
0.804339
1.25131
1.44405
1.44971
1.32357
1.09523
0.823237
0.574551
0.387706
0.263657
0.18503
0.134329
0.100534
0.0777901
0.0625566
0.0523753
0.0455161
0.0408151
0.0375075
0.0350738
0.0331482
0.0314878
0.0299725
0.0285877
0.0273862
0.0264293
0.0257438
0.0252934
0.0249873
0.0247129
0.0243864
0.0239877
0.0235493
0.0231193
0.022735
0.0224225
0.0221852
0.022017
0.0219015
0.0218258
0.0217762
0.0217455
0.0217257
0.0217142
0.0217064
0.0217028
0.0216995
0.0216988
0.0216971
0.0216975
0.0216963
0.0216971
0.021696
0.021697
0.0216958
0.021697
0.0216957
0.0216971
0.0216957
0.0216972
0.0216956
0.0216973
0.0216955
0.0216974
0.0216955
0.0216976
0.0216956
0.021698
0.0216962
0.0216992
0.0216979
0.0217029
1.30696
1.38714
1.17473
1.39153
1.22318
1.24081
1.42837
0.994198
1.04226
0.871225
0.340427
0.641202
0.708576
0.621156
1.19325
0.570353
0.324619
0.018788
0.106954
0.0309555
0.236872
0.617064
0.973515
1.50702
1.76078
1.28303
0.410701
0.12376
0.444813
0.837269
1.05743
1.0964
0.99241
0.789805
0.562883
0.379447
0.259344
0.187012
0.141586
0.110156
0.0872671
0.0706215
0.0587231
0.0503123
0.0443643
0.0401241
0.0370595
0.0347774
0.0329705
0.0314105
0.0299669
0.028609
0.0273814
0.0263537
0.0255766
0.025048
0.0247083
0.0244609
0.0242104
0.0239013
0.0235347
0.0231541
0.0228002
0.0225002
0.0222605
0.0220814
0.0219523
0.0218644
0.0218051
0.0217675
0.0217429
0.0217285
0.0217188
0.021714
0.02171
0.0217089
0.021707
0.0217072
0.0217059
0.0217067
0.0217056
0.0217066
0.0217054
0.0217066
0.0217053
0.0217066
0.0217053
0.0217067
0.0217052
0.0217067
0.0217052
0.0217068
0.0217052
0.021707
0.0217053
0.0217074
0.0217059
0.0217086
0.0217077
0.0217123
0.953127
0.980396
0.936881
0.973758
0.890402
0.895063
0.744225
0.639588
0.568124
0.281598
0.309918
0.275029
0.0894698
0.137549
0.270721
0.112166
0.0901308
0.0721271
0.105869
0.15408
0.497215
1.08022
1.64964
2.29446
2.6363
2.16981
1.11681
0.332235
0.256868
0.490079
0.67604
0.721973
0.638221
0.482688
0.334208
0.235335
0.179796
0.14628
0.120898
0.0993907
0.0815293
0.0674982
0.0569727
0.0492759
0.0436937
0.0396441
0.0366929
0.0345021
0.0327903
0.0313296
0.0299711
0.0286607
0.0274276
0.0263406
0.0254657
0.0248287
0.024402
0.024114
0.023879
0.0236285
0.0233353
0.0230214
0.0227188
0.0224513
0.0222289
0.0220571
0.0219301
0.0218418
0.0217815
0.0217427
0.0217173
0.0217022
0.0216922
0.0216871
0.0216831
0.0216818
0.0216799
0.02168
0.0216789
0.0216794
0.0216785
0.0216793
0.0216784
0.0216793
0.0216783
0.0216793
0.0216783
0.0216793
0.0216783
0.0216794
0.0216782
0.0216794
0.0216783
0.0216795
0.0216784
0.0216799
0.0216789
0.0216808
0.0216803
0.0216839
0.549683
0.550691
0.562605
0.535008
0.524622
0.467275
0.379456
0.321861
0.174421
0.130534
0.0812437
0.0397621
0.00159197
0.0300219
0.0466825
0.0203524
0.0500517
0.137274
0.22713
0.406076
0.952341
1.74702
2.51673
3.24758
3.62494
3.18303
2.07096
0.972629
0.401529
0.328123
0.402756
0.420142
0.356653
0.268732
0.207846
0.179008
0.162661
0.144663
0.123144
0.101549
0.0828095
0.068037
0.0570196
0.0490114
0.0432396
0.039091
0.036114
0.0339593
0.0323354
0.0309994
0.0297759
0.0285765
0.0274022
0.0263105
0.0253719
0.0246326
0.0240956
0.0237217
0.0234495
0.0232174
0.0229816
0.0227347
0.0224915
0.0222722
0.0220878
0.0219445
0.0218386
0.0217649
0.0217148
0.0216825
0.0216614
0.0216488
0.0216405
0.0216362
0.0216329
0.0216317
0.0216303
0.0216303
0.0216294
0.0216298
0.0216292
0.0216297
0.0216291
0.0216297
0.021629
0.0216297
0.021629
0.0216297
0.021629
0.0216297
0.021629
0.0216297
0.021629
0.0216298
0.0216291
0.0216301
0.0216294
0.0216307
0.0216305
0.021633
0.186793
0.182543
0.181045
0.175995
0.152427
0.143103
0.0764497
0.0669355
0.0204825
0.0346396
0.0523424
0.0426268
0.00937932
0.0919214
0.066996
0.0587875
0.164806
0.270733
0.451126
0.851897
1.63649
2.5777
3.47809
4.27746
4.66537
4.24057
3.12306
1.87996
0.998961
0.575579
0.415225
0.331918
0.270345
0.241104
0.240371
0.242448
0.228269
0.197367
0.159786
0.124573
0.0961598
0.0751996
0.0604491
0.0502488
0.0432182
0.0383858
0.0350929
0.032864
0.031324
0.0301681
0.0291671
0.0281808
0.0271669
0.0261598
0.0252302
0.0244409
0.0238231
0.0233689
0.0230436
0.0228005
0.0225941
0.0223991
0.0222127
0.0220465
0.0219087
0.0218032
0.0217265
0.0216741
0.021639
0.0216167
0.0216024
0.0215939
0.0215884
0.0215855
0.0215833
0.0215826
0.0215816
0.0215816
0.0215811
0.0215813
0.0215809
0.0215812
0.0215808
0.0215812
0.0215808
0.0215812
0.0215808
0.0215812
0.0215807
0.0215812
0.0215807
0.0215813
0.0215807
0.0215813
0.0215808
0.0215814
0.021581
0.0215818
0.0215816
0.0215833
0.054074
0.0301552
0.0456985
0.0409514
0.0268527
0.0389389
0.0207222
0.0777069
0.0738573
0.050843
0.139047
0.0726914
0.108298
0.169724
0.119559
0.218715
0.396784
0.549227
0.904374
1.54767
2.46991
3.42705
4.38093
5.26927
5.69675
5.30537
4.20045
2.87275
1.8041
1.15119
0.814777
0.652441
0.576586
0.546564
0.527299
0.489909
0.425933
0.345708
0.265083
0.195325
0.14118
0.102383
0.0759999
0.058555
0.0471886
0.0398789
0.0352681
0.0324286
0.0306941
0.0295687
0.0286964
0.0278557
0.0269566
0.0260135
0.0250984
0.0242862
0.0236236
0.0231188
0.0227526
0.0224894
0.0222898
0.0221241
0.0219793
0.0218565
0.0217587
0.0216863
0.0216355
0.0216019
0.0215803
0.021567
0.0215589
0.0215542
0.0215514
0.0215499
0.0215489
0.0215485
0.0215481
0.021548
0.0215478
0.0215479
0.0215477
0.0215479
0.0215477
0.0215479
0.0215476
0.0215479
0.0215476
0.021548
0.0215476
0.021548
0.0215476
0.021548
0.0215476
0.0215481
0.0215476
0.0215481
0.0215476
0.0215484
0.021548
0.0215492
0.065158
0.0133175
0.0873108
0.0214819
0.0685039
0.0659721
0.0381009
0.156969
0.113625
0.198352
0.271296
0.210895
0.338176
0.34968
0.348897
0.596599
0.790019
1.01338
1.54518
2.352
3.1908
4.07752
5.06882
5.97637
6.43028
6.13506
5.1442
3.84813
2.70707
1.92368
1.46588
1.22488
1.10344
1.02896
0.951539
0.848755
0.721886
0.585488
0.455091
0.341867
0.250732
0.181719
0.131819
0.0969812
0.0732589
0.0575079
0.0472819
0.0407497
0.0365739
0.0337861
0.0317183
0.0299654
0.0283487
0.0268493
0.0255257
0.0244358
0.0235989
0.0229922
0.0225717
0.0222863
0.0220896
0.0219459
0.0218349
0.021749
0.0216857
0.0216421
0.0216139
0.0215968
0.021587
0.0215817
0.0215789
0.0215778
0.021577
0.0215771
0.0215766
0.0215771
0.0215766
0.0215773
0.0215765
0.0215774
0.0215764
0.0215776
0.0215763
0.0215777
0.0215761
0.0215779
0.0215759
0.0215781
0.0215757
0.0215783
0.0215755
0.0215786
0.0215753
0.021579
0.0215752
0.0215796
0.0215754
0.0215808
0.0215769
0.0215839
0.210357
0.205772
0.252563
0.188648
0.282359
0.239489
0.309821
0.388733
0.389546
0.560006
0.570712
0.611781
0.755781
0.708193
0.839674
1.12409
1.23009
1.51332
2.1828
2.94256
3.60526
4.36681
5.31132
6.18311
6.6601
6.50291
5.71222
4.57196
3.48535
2.68094
2.16959
1.86344
1.66577
1.50717
1.34662
1.17399
0.994864
0.821203
0.66342
0.527033
0.41347
0.322013
0.250632
0.196189
0.15505
0.124285
0.10145
0.0844039
0.071358
0.0609404
0.0522847
0.0449426
0.0387869
0.0338186
0.0300086
0.0272429
0.0253322
0.024068
0.0232583
0.0227587
0.0224635
0.0223023
0.0222225
0.0221959
0.0221978
0.0222187
0.022241
0.0222675
0.0222846
0.0223039
0.0223115
0.022324
0.0223245
0.0223336
0.0223296
0.0223379
0.0223312
0.02234
0.022331
0.0223415
0.0223302
0.0223429
0.0223288
0.0223446
0.022327
0.0223465
0.0223251
0.0223485
0.0223231
0.0223509
0.0223209
0.022354
0.0223186
0.0223583
0.0223176
0.0223652
0.0223207
0.0223802
0.0223378
0.0224173
0.581625
0.640698
0.609464
0.624884
0.67654
0.651735
0.769487
0.79496
0.878702
1.01391
0.988809
1.09681
1.16208
1.1199
1.349
1.5087
1.54759
1.98075
2.7165
3.26833
3.66849
4.31954
5.19975
6.00703
6.47682
6.43662
5.86199
4.94333
3.99569
3.24142
2.71305
2.3405
2.05034
1.80405
1.57801
1.36324
1.16352
0.983923
0.826651
0.690877
0.575119
0.47848
0.399987
0.337696
0.288803
0.25003
0.218322
0.191125
0.166365
0.142625
0.119752
0.0983357
0.0792689
0.0634117
0.051132
0.0423248
0.0363316
0.0324599
0.0300375
0.0286921
0.0280981
0.0280696
0.0283489
0.0288207
0.0293031
0.0297872
0.0301468
0.0304732
0.0306558
0.0308445
0.0309053
0.0310169