/*--------------------------------*- C++ -*----------------------------------*\
| =========                 |                                                 |
| \\      /  F ield         | OpenFOAM: The Open Source CFD Toolbox           |
|  \\    /   O peration     | Version:  v2012                                 |
|   \\  /    A nd           | Website:  www.openfoam.com                      |
|    \\/     M anipulation  |                                                 |
\*---------------------------------------------------------------------------*/
FoamFile
{
    version     2.0;
    format      ascii;
    class       surfaceScalarField;
    location    "0.266";
    object      phi.air;
}
// * * * * * * * * * * * * * * * * * * * * * * * * * * * * * * * * * * * * * //

dimensions      [0 3 -1 0 0 0 0];
oriented        oriented;


internalField   nonuniform List<scalar> 
3672
(
0.0064006
7.14517e-06
0.00639136
8.99623e-06
0.00638142
9.68684e-06
0.00637056
1.06126e-05
0.0063586
1.17119e-05
0.00634559
1.27593e-05
0.00633129
1.40467e-05
0.00631578
1.52582e-05
0.00629637
1.91627e-05
2.80585e-05
0.00626806
0.00641089
4.26003e-06
0.00641309
6.79313e-06
0.00641555
7.2261e-06
0.00641823
7.93235e-06
0.00642104
8.90607e-06
0.00642399
9.8076e-06
0.00642694
1.10891e-05
0.00642967
1.25285e-05
0.00643129
1.75454e-05
2.48537e-05
0.0064345
0.00640988
2.38202e-06
0.00641223
4.44505e-06
0.00641473
4.71802e-06
0.00641752
5.14462e-06
0.00642056
5.87155e-06
0.00642375
6.60995e-06
0.00642716
7.68595e-06
0.00643042
9.26281e-06
0.0064346
1.33659e-05
1.8425e-05
0.00644103
0.00640936
1.0263e-06
0.00641175
2.05189e-06
0.00641429
2.17918e-06
0.00641704
2.39546e-06
0.00642008
2.82902e-06
0.00642335
3.34014e-06
0.00642686
4.1794e-06
0.00643058
5.54008e-06
0.00643542
8.52208e-06
1.19254e-05
0.00644192
0.00640916
-1.33129e-07
0.00641153
-3.17988e-07
0.00641408
-3.68049e-07
0.0064168
-3.30659e-07
0.00641985
-2.20073e-07
0.00642318
1.20083e-08
0.0064268
5.59745e-07
0.0064308
1.54158e-06
0.00643581
3.50707e-06
5.3565e-06
0.00644238
0.00640918
-1.30997e-06
0.00641156
-2.70308e-06
0.00641412
-2.9249e-06
0.00641686
-3.07022e-06
0.00641993
-3.29409e-06
0.00642331
-3.36794e-06
0.00642702
-3.15054e-06
0.00643117
-2.6108e-06
0.00643623
-1.55005e-06
-9.18192e-07
0.00644251
0.00640941
-2.72028e-06
0.00641185
-5.1427e-06
0.00641442
-5.49271e-06
0.00641721
-5.85951e-06
0.00642032
-6.40729e-06
0.00642374
-6.78915e-06
0.00642751
-6.92237e-06
0.00643175
-6.8458e-06
0.00643674
-6.54489e-06
-6.74829e-06
0.00644257
0.00640999
-4.70719e-06
0.0064124
-7.5559e-06
0.00641495
-8.04445e-06
0.00641781
-8.71403e-06
0.00642095
-9.55364e-06
0.0064244
-1.02353e-05
0.00642821
-1.0735e-05
0.00643249
-1.11202e-05
0.00643739
-1.14533e-05
-1.21458e-05
0.00644279
0.00641105
-7.76188e-06
0.00641334
-9.83865e-06
0.00641585
-1.05521e-05
0.00641858
-1.14513e-05
0.00642152
-1.24901e-05
0.00642469
-1.34058e-05
0.00642817
-1.42168e-05
0.00643204
-1.49858e-05
0.00643631
-1.57293e-05
-1.68101e-05
0.00644098
0.00640049
0.0063909
0.0063806
0.0063694
0.00635716
0.006344
0.00633004
0.0063153
0.00629982
0.00628326
0.00618912
0.000122524
-4.35877e-05
0.00598884
8.2614e-05
0.000117663
0.00572442
-0.000168607
0.000433027
0.00550756
-0.000541277
0.00075814
0.0053591
-0.00090801
0.00105647
0.00525264
-0.00120372
0.00131019
0.00517181
-0.00137932
0.00146015
0.00510267
-0.00142728
0.00149642
0.00503451
-0.00137459
0.00144276
0.00496663
-0.00125525
0.00132313
0.00489908
-0.00110322
0.00117077
0.00483219
-0.000944945
0.00101183
0.00476689
-0.000798468
0.000863775
0.00470316
-0.000671317
0.000735039
0.00464113
-0.000564753
0.000626786
0.00458114
-0.000477588
0.00053758
0.00452398
-0.000408713
0.000465868
0.00447035
-0.000355183
0.000408818
0.00442039
-0.000312584
0.00036254
0.00437433
-0.000277915
0.000323978
0.00433238
-0.000250099
0.000292055
0.00429459
-0.000228207
0.000265995
0.00426065
-0.000210473
0.000244407
0.00423032
-0.000195065
0.000225394
0.00420343
-0.000181544
0.000208438
0.00418002
-0.00017022
0.000193634
0.00416005
-0.000160931
0.000180901
0.00414294
-0.000152687
0.000169788
0.00412823
-0.000144979
0.000159697
0.00411558
-0.000137856
0.0001505
0.00410468
-0.000131474
0.000142379
0.00409525
-0.000125721
0.000135148
0.00408702
-0.000120439
0.000128666
0.00407973
-0.000115411
0.000122704
0.00407333
-0.000110645
0.000117048
0.00406777
-0.000106163
0.00011172
0.00406299
-0.000102033
0.000106814
0.00405893
-9.82927e-05
0.00010235
0.00405555
-9.4904e-05
9.8286e-05
0.00405279
-9.17354e-05
9.44986e-05
0.00405061
-8.87577e-05
9.09372e-05
0.00404894
-8.59327e-05
8.76007e-05
0.00404768
-8.32116e-05
8.44737e-05
0.00404676
-8.06571e-05
8.15739e-05
0.00404617
-7.83255e-05
7.8918e-05
0.00404587
-7.61276e-05
7.64258e-05
0.00404584
-7.39702e-05
7.40057e-05
0.00404604
-7.18433e-05
7.16415e-05
0.00404646
-6.98186e-05
6.93965e-05
0.0040471
-6.79747e-05
6.73354e-05
0.00404795
-6.63071e-05
6.54532e-05
0.00404901
-6.47208e-05
6.36678e-05
0.00405024
-6.31603e-05
6.19257e-05
0.00405164
-6.16307e-05
6.02322e-05
0.00405318
-6.01572e-05
5.86143e-05
0.00405486
-5.87706e-05
5.70939e-05
0.00405666
-5.74929e-05
5.56876e-05
0.00405859
-5.62908e-05
5.4367e-05
0.00406062
-5.51237e-05
5.30965e-05
0.00406273
-5.39637e-05
5.1849e-05
0.00406492
-5.28264e-05
5.06383e-05
0.00406717
-5.17367e-05
4.94818e-05
0.0040695
-5.07328e-05
4.84094e-05
0.00407188
-4.97909e-05
4.74027e-05
0.00407433
-4.88903e-05
4.64439e-05
0.00407682
-4.7995e-05
4.55017e-05
0.00407936
-4.71231e-05
4.45904e-05
0.00408192
-4.62777e-05
4.37116e-05
0.00408452
-4.54742e-05
4.28791e-05
0.00408714
-4.47026e-05
4.20822e-05
0.00408978
-4.39652e-05
4.13228e-05
0.00409244
-4.32444e-05
4.0585e-05
0.00409511
-4.25408e-05
3.98709e-05
0.00409778
-4.18464e-05
3.91726e-05
0.00410046
-4.1174e-05
3.84999e-05
0.00410313
-4.05167e-05
3.7847e-05
0.00410579
-3.9883e-05
3.72197e-05
0.00410844
-3.9255e-05
3.66038e-05
0.00411108
-3.86414e-05
3.60053e-05
0.00411369
-3.80273e-05
3.54113e-05
0.00411629
-3.7429e-05
3.48355e-05
0.00411886
-3.68331e-05
3.42649e-05
0.0041214
-3.62548e-05
3.37137e-05
0.00412391
-3.56742e-05
3.31626e-05
0.00412639
-3.51069e-05
3.2626e-05
0.00412884
-3.45357e-05
3.20876e-05
0.00413125
-3.39809e-05
3.15661e-05
0.00413363
-3.34269e-05
3.10469e-05
0.00413598
-3.28934e-05
3.05481e-05
0.00413829
-3.23635e-05
3.00538e-05
0.00414056
-3.18601e-05
2.95856e-05
0.0041428
-3.13641e-05
2.91249e-05
0.00414501
-3.09193e-05
2.87131e-05
0.00414718
-3.04839e-05
2.83104e-05
0.00414933
-3.01954e-05
2.80474e-05
0.00415145
-2.98776e-05
2.77545e-05
0.00415358
-3.00398e-05
2.79138e-05
0.00415568
-2.99108e-05
2.78111e-05
0.00415787
-3.12138e-05
2.9019e-05
-3.1176e-05
2.92142e-05
0.00647836
7.8656e-05
0.00651174
4.92393e-05
0.00650174
-0.000158607
0.0064363
-0.000475833
0.00632498
-0.000796694
0.00617908
-0.00105783
0.00601662
-0.00121686
0.0058546
-0.00126526
0.00570344
-0.00122343
0.00556885
-0.00112067
0.00545274
-0.000987103
0.00535414
-0.000846352
0.00527075
-0.000715072
0.00519925
-0.000599824
0.00513602
-0.000501521
0.00507809
-0.000419662
0.00502356
-0.00035418
0.00497108
-0.000302706
0.00491944
-0.000260942
0.00486805
-0.00022652
0.00481764
-0.000199693
0.00476939
-0.000179956
0.00472341
-0.000164497
0.00467956
-0.000151211
0.00463819
-0.000140176
0.00459979
-0.000131819
0.00456455
-0.000125689
0.00453235
-0.000120492
0.00450297
-0.000115601
0.00447623
-0.00011111
0.0044519
-0.000107145
0.00442984
-0.000103661
0.00440987
-0.000100467
0.00439181
-9.73517e-05
0.00437545
-9.42814e-05
0.00436064
-9.13596e-05
0.00434729
-8.868e-05
0.00433526
-8.62686e-05
0.00432442
-8.40625e-05
0.00431464
-8.19551e-05
0.00430579
-7.99051e-05
0.00429771
-7.78478e-05
0.0042903
-7.58101e-05
0.00428356
-7.39131e-05
0.00427744
-7.22075e-05
0.00427191
-7.0593e-05
0.00426691
-6.89749e-05
0.00426241
-6.73431e-05
0.00425838
-6.57846e-05
0.00425479
-6.43899e-05
0.00425162
-6.31346e-05
0.00424882
-6.19237e-05
0.00424638
-6.07208e-05
0.00424427
-5.95173e-05
0.00424245
-5.8339e-05
0.0042409
-5.72201e-05
0.00423958
-5.61758e-05
0.00423848
-5.51849e-05
0.00423757
-5.42157e-05
0.00423685
-5.32402e-05
0.0042363
-5.22743e-05
0.00423591
-5.13499e-05
0.00423568
-5.05042e-05
0.00423559
-4.96981e-05
0.00423561
-4.8918e-05
0.00423575
-4.81336e-05
0.004236
-4.73646e-05
0.00423633
-4.66099e-05
0.00423674
-4.58881e-05
0.00423723
-4.51881e-05
0.00423778
-4.45161e-05
0.00423838
-4.38502e-05
0.00423903
-4.31928e-05
0.00423972
-4.25341e-05
0.00424044
-4.18909e-05
0.00424118
-4.12569e-05
0.00424194
-4.06419e-05
0.00424271
-4.0027e-05
0.00424349
-3.94212e-05
0.00424427
-3.881e-05
0.00424506
-3.82115e-05
0.00424583
-3.76116e-05
0.00424661
-3.70278e-05
0.00424737
-3.64394e-05
0.00424813
-3.58629e-05
0.00424887
-3.52807e-05
0.00424961
-3.47143e-05
0.00425033
-3.41476e-05
0.00425104
-3.36014e-05
0.00425173
-3.30578e-05
0.00425241
-3.25409e-05
0.00425308
-3.20311e-05
0.00425373
-3.15733e-05
0.00425437
-3.1125e-05
0.004255
-3.08249e-05
0.00425563
-3.05008e-05
0.00425624
-3.06513e-05
0.00425686
-3.05289e-05
0.00425752
-3.18826e-05
-3.17337e-05
0.00647001
4.96756e-05
0.00650349
1.57561e-05
0.00650081
-0.000155926
0.00644848
-0.000423503
0.00634924
-0.000697454
0.00621162
-0.000920197
0.00605283
-0.00105808
0.00589064
-0.00110307
0.00573791
-0.00107069
0.00560308
-0.00098584
0.00548883
-0.000872852
0.00539483
-0.00075235
0.00531896
-0.000639211
0.00525801
-0.000538867
0.00520843
-0.000451941
0.0051679
-0.000379137
0.00513481
-0.000321088
0.00510708
-0.000274978
0.00508248
-0.000236339
0.00505969
-0.000203734
0.00503816
-0.000178158
0.00501708
-0.000158872
0.00499558
-0.000142998
0.004973
-0.000128639
0.00494895
-0.000116118
0.00492348
-0.000106353
0.00489685
-9.90547e-05
0.00486929
-9.29381e-05
0.00484103
-8.73357e-05
0.00481231
-8.23892e-05
0.00478362
-7.84627e-05
0.00475556
-7.56017e-05
0.00472861
-7.35119e-05
0.00470303
-7.17764e-05
0.00467888
-7.01264e-05
0.00465624
-6.87226e-05
0.00463521
-6.76521e-05
0.00461576
-6.6818e-05
0.00459776
-6.6061e-05
0.00458106
-6.52516e-05
0.00456551
-6.43588e-05
0.00455104
-6.3372e-05
0.00453759
-6.23651e-05
0.00452514
-6.1464e-05
0.00451361
-6.06719e-05
0.0045029
-5.98868e-05
0.00449296
-5.90332e-05
0.00448375
-5.81388e-05
0.00447525
-5.72792e-05
0.00446735
-5.64892e-05
0.00445997
-5.57609e-05
0.0044531
-5.50529e-05
0.00444673
-5.43438e-05
0.00444082
-5.36118e-05
0.00443535
-5.28732e-05
0.0044303
-5.2163e-05
0.00442563
-5.15038e-05
0.00442131
-5.08715e-05
0.00441733
-5.02353e-05
0.00441366
-4.95689e-05
0.00441028
-4.88943e-05
0.00440717
-4.82363e-05
0.00440426
-4.76004e-05
0.00440154
-4.69755e-05
0.00439899
-4.63659e-05
0.0043966
-4.57438e-05
0.00439436
-4.51241e-05
0.00439225
-4.44987e-05
0.00439025
-4.38933e-05
0.00438836
-4.32954e-05
0.00438656
-4.27158e-05
0.00438484
-4.21277e-05
0.00438318
-4.1537e-05
0.00438158
-4.09345e-05
0.00438003
-4.0341e-05
0.00437852
-3.97496e-05
0.00437705
-3.91722e-05
0.00437562
-3.85882e-05
0.0043742
-3.80096e-05
0.00437282
-3.74212e-05
0.00437145
-3.68442e-05
0.0043701
-3.62637e-05
0.00436877
-3.56984e-05
0.00436746
-3.51267e-05
0.00436616
-3.45664e-05
0.00436488
-3.39997e-05
0.00436362
-3.34488e-05
0.00436236
-3.28972e-05
0.00436113
-3.23661e-05
0.00435991
-3.18373e-05
0.0043587
-3.13348e-05
0.00435751
-3.08403e-05
0.00435633
-3.03957e-05
0.00435517
-2.9963e-05
0.00435402
-2.96736e-05
0.00435289
-2.93655e-05
0.00435176
-2.95211e-05
0.00435065
-2.9424e-05
0.0043495
-3.07292e-05
-3.06854e-05
0.0064645
2.71008e-05
0.00648861
-8.35555e-06
0.00648172
-0.000149035
0.00642849
-0.000370271
0.00633104
-0.000600005
0.00619799
-0.000787148
0.00604458
-0.000904678
0.0058873
-0.000945786
0.00573875
-0.000922148
0.00560653
-0.000853619
0.00549344
-0.000759765
0.00539979
-0.0006587
0.00532369
-0.000563108
0.00526183
-0.000477003
0.00521132
-0.000401436
0.00517078
-0.000338593
0.00513867
-0.000288979
0.00511239
-0.0002487
0.00508988
-0.000213831
0.00507093
-0.00018478
0.00505586
-0.000163091
0.00504371
-0.000146722
0.00503269
-0.000131978
0.00502219
-0.000118142
0.00501293
-0.000106851
0.00500505
-9.84784e-05
0.00499771
-9.17134e-05
0.00499011
-8.53388e-05
0.00498185
-7.90695e-05
0.00497282
-7.33617e-05
0.0049631
-6.87427e-05
0.00495264
-6.51442e-05
0.00494123
-6.21029e-05
0.00492863
-5.91766e-05
0.00491474
-5.62305e-05
0.00489963
-5.36166e-05
0.00488356
-5.15851e-05
0.00486683
-5.00896e-05
0.00484968
-4.89095e-05
0.00483229
-4.78588e-05
0.0048148
-4.6873e-05
0.00479747
-4.60359e-05
0.0047806
-4.55017e-05
0.00476441
-4.52733e-05
0.00474893
-4.51845e-05
0.00473411
-4.50745e-05
0.00471999
-4.49087e-05
0.00470661
-4.47542e-05
0.00469399
-4.46666e-05
0.00468212
-4.46157e-05
0.0046709
-4.45408e-05
0.00466026
-4.44098e-05
0.00465013
-4.42164e-05
0.0046405
-4.39878e-05
0.00463138
-4.37452e-05
0.00462272
-4.35087e-05
0.00461453
-4.33157e-05
0.00460679
-4.31252e-05
0.00459945
-4.28955e-05
0.00459249
-4.26116e-05
0.00458589
-4.22918e-05
0.00457961
-4.19599e-05
0.00457362
-4.16127e-05
0.0045679
-4.12489e-05
0.0045624
-4.08727e-05
0.00455712
-4.04628e-05
0.00455202
-4.00225e-05
0.00454707
-3.95511e-05
0.00454226
-3.90789e-05
0.00453756
-3.85962e-05
0.00453296
-3.81201e-05
0.00452846
-3.76215e-05
0.00452403
-3.71112e-05
0.00451968
-3.65802e-05
0.00451539
-3.60539e-05
0.00451117
-3.55244e-05
0.004507
-3.50074e-05
0.00450289
-3.4481e-05
0.00449884
-3.39578e-05
0.00449485
-3.3426e-05
0.00449091
-3.29042e-05
0.00448702
-3.23793e-05
0.00448319
-3.18679e-05
0.00447942
-3.13505e-05
0.00447569
-3.08444e-05
0.00447203
-3.03325e-05
0.00446841
-2.98369e-05
0.00446486
-2.93406e-05
0.00446136
-2.88653e-05
0.00445791
-2.83921e-05
0.00445452
-2.7945e-05
0.00445119
-2.75067e-05
0.00444791
-2.71148e-05
0.00444468
-2.67381e-05
0.0044415
-2.6491e-05
0.00443838
-2.62403e-05
0.00443525
-2.63969e-05
0.00443222
-2.63884e-05
0.00442904
-2.75544e-05
-2.7875e-05
0.00645963
9.85235e-06
0.00647551
-2.42332e-05
0.00646423
-0.000137754
0.00641073
-0.000316773
0.00631603
-0.000505308
0.00618843
-0.000659542
0.00604146
-0.000757708
0.00588978
-0.000794113
0.00574514
-0.000777506
0.00561495
-0.000723428
0.00550268
-0.000647495
0.00540918
-0.000565195
0.00533241
-0.000486344
0.00526922
-0.000413809
0.00521776
-0.000349978
0.00517704
-0.000297873
0.00514446
-0.000256394
0.0051168
-0.00022104
0.00509315
-0.000190188
0.00507438
-0.000166009
0.00505985
-0.000148559
0.00504716
-0.000134028
0.00503512
-0.000119945
0.00502471
-0.000107731
0.00501674
-9.88836e-05
0.0050105
-9.22379e-05
0.00500473
-8.59415e-05
0.00499889
-7.94999e-05
0.00499353
-7.37099e-05
0.00498934
-6.91708e-05
0.00498618
-6.55805e-05
0.00498339
-6.23606e-05
0.00498042
-5.91233e-05
0.00497716
-5.59176e-05
0.004974
-5.30725e-05
0.00497107
-5.069e-05
0.00496814
-4.865e-05
0.00496494
-4.68961e-05
0.00496122
-4.51883e-05
0.00495678
-4.3421e-05
0.0049516
-4.16905e-05
0.00494573
-4.01665e-05
0.00493922
-3.89848e-05
0.00493204
-3.81001e-05
0.00492415
-3.72931e-05
0.00491548
-3.6406e-05
0.00490605
-3.54782e-05
0.00489597
-3.46695e-05
0.0048854
-3.41022e-05
0.00487455
-3.37632e-05
0.00486354
-3.35295e-05
0.00485243
-3.33008e-05
0.00484125
-3.30405e-05
0.00483006
-3.27954e-05
0.00481895
-3.26332e-05
0.00480802
-3.25757e-05
0.00479727
-3.25643e-05
0.00478669
-3.25505e-05
0.0047763
-3.25092e-05
0.00476613
-3.24402e-05
0.00475618
-3.23395e-05
0.00474644
-3.22182e-05
0.00473692
-3.20945e-05
0.00472763
-3.1957e-05
0.00471854
-3.17858e-05
0.00470965
-3.15667e-05
0.00470092
-3.1296e-05
0.00469236
-3.09881e-05
0.00468394
-3.06643e-05
0.00467567
-3.03209e-05
0.00466752
-2.99775e-05
0.00465951
-2.96065e-05
0.00465162
-2.92208e-05
0.00464385
-2.8812e-05
0.0046362
-2.84035e-05
0.00462867
-2.79896e-05
0.00462125
-2.75886e-05
0.00461394
-2.71771e-05
0.00460675
-2.67698e-05
0.00459968
-2.63524e-05
0.00459272
-2.59447e-05
0.00458587
-2.55328e-05
0.00457914
-2.51345e-05
0.00457252
-2.47331e-05
0.00456602
-2.43419e-05
0.00455964
-2.39478e-05
0.00455337
-2.35686e-05
0.00454722
-2.31909e-05
0.00454119
-2.28327e-05
0.00453527
-2.2478e-05
0.00452947
-2.21474e-05
0.00452379
-2.1827e-05
0.00451823
-2.15461e-05
0.00451277
-2.12855e-05
0.00450741
-2.11283e-05
0.00450217
-2.0995e-05
0.00449693
-2.11599e-05
0.00449186
-2.13205e-05
0.00448653
-2.22253e-05
-2.32469e-05
0.00645566
-3.30161e-06
0.00646519
-3.37648e-05
0.00645042
-0.000122979
0.00639697
-0.000263324
0.00630461
-0.000412947
0.00618117
-0.000536101
0.00603901
-0.000615555
0.00589161
-0.000646713
0.00575004
-0.000635937
0.00562162
-0.000595
0.00551037
-0.000536252
0.005417
-0.000471821
0.00533921
-0.00040856
0.00527481
-0.000349408
0.00522288
-0.000298044
0.00518167
-0.000256662
0.00514751
-0.000222231
0.00511802
-0.000191558
0.00509402
-0.000166188
0.00507581
-0.000147791
0.0050606
-0.000133355
0.00504612
-0.000119541
0.00503325
-0.000107077
0.0050234
-9.7879e-05
0.00501584
-9.13294e-05
0.0050089
-8.52995e-05
0.00500183
-7.88648e-05
0.00499533
-7.30026e-05
0.00499028
-6.86629e-05
0.00498646
-6.53435e-05
0.00498309
-6.22125e-05
0.00497956
-5.88372e-05
0.00497597
-5.55343e-05
0.00497293
-5.28727e-05
0.00497063
-5.07751e-05
0.00496878
-4.88399e-05
0.00496701
-4.6882e-05
0.00496507
-4.4956e-05
0.00496309
-4.32034e-05
0.00496137
-4.17037e-05
0.00495995
-4.02694e-05
0.00495864
-3.88543e-05
0.00495725
-3.75963e-05
0.00495566
-3.65126e-05
0.00495384
-3.54684e-05
0.00495182
-3.43848e-05
0.00494962
-3.32851e-05
0.00494721
-3.22534e-05
0.00494445
-3.13452e-05
0.00494122
-3.05338e-05
0.00493743
-2.97337e-05
0.00493302
-2.88998e-05
0.00492802
-2.80393e-05
0.00492243
-2.72041e-05
0.00491624
-2.64415e-05
0.00490942
-2.57562e-05
0.00490195
-2.50932e-05
0.00489383
-2.44334e-05
0.00488511
-2.37859e-05
0.00487585
-2.31763e-05
0.00486611
-2.26065e-05
0.00485597
-2.20748e-05
0.00484546
-2.15854e-05
0.00483464
-2.11356e-05
0.00482357
-2.07154e-05
0.00481232
-2.03174e-05
0.00480096
-1.99342e-05
0.00478954
-1.95705e-05
0.0047781
-1.92229e-05
0.00476668
-1.89062e-05
0.00475531
-1.86053e-05
0.00474403
-1.83216e-05
0.00473285
-1.80413e-05
0.0047218
-1.77625e-05
0.00471089
-1.74955e-05
0.00470013
-1.72324e-05
0.00468953
-1.69913e-05
0.0046791
-1.67464e-05
0.00466885
-1.65163e-05
0.00465878
-1.62794e-05
0.00464889
-1.60572e-05
0.0046392
-1.58388e-05
0.0046297
-1.56337e-05
0.0046204
-1.54334e-05
0.00461129
-1.52406e-05
0.0046024
-1.50521e-05
0.0045937
-1.48736e-05
0.00458522
-1.47024e-05
0.00457693
-1.45436e-05
0.00456884
-1.43924e-05
0.00456095
-1.42563e-05
0.00455325
-1.41298e-05
0.00454574
-1.40307e-05
0.00453841
-1.3955e-05
0.00453122
-1.39425e-05
0.00452421
-1.39885e-05
0.00451723
-1.41739e-05
0.00451049
-1.45793e-05
0.00450335
-1.50867e-05
-1.71157e-05
0.00645273
-1.34586e-05
0.00645752
-3.85542e-05
0.00643989
-0.000105347
0.00638638
-0.000209819
0.00629583
-0.000322396
0.00617559
-0.000415857
0.00603717
-0.000477137
0.00589303
-0.000502573
0.00575366
-0.000496568
0.00562625
-0.00046759
0.00551498
-0.000424977
0.00542031
-0.000377157
0.00534028
-0.000328528
0.00527426
-0.000283388
0.00522159
-0.000245376
0.00517841
-0.000213479
0.00514121
-0.000185031
0.00511048
-0.000160834
0.00508667
-0.000142375
0.00506686
-0.00012798
0.0050484
-0.000114891
0.00503196
-0.000103109
0.00501889
-9.39996e-05
0.00500824
-8.72332e-05
0.00499818
-8.12667e-05
0.00498816
-7.52831e-05
0.00497907
-6.9769e-05
0.0049715
-6.54365e-05
0.00496494
-6.21056e-05
0.00495859
-5.899e-05
0.00495202
-5.56395e-05
0.00494555
-5.23749e-05
0.00493971
-4.96925e-05
0.0049344
-4.75643e-05
0.00492927
-4.56455e-05
0.00492404
-4.36044e-05
0.0049186
-4.1447e-05
0.00491316
-3.95127e-05
0.00490789
-3.79303e-05
0.00490271
-3.65307e-05
0.00489754
-3.50959e-05
0.00489228
-3.35903e-05
0.00488684
-3.21605e-05
0.00488124
-3.09074e-05
0.00487554
-2.97679e-05
0.0048698
-2.86491e-05
0.00486403
-2.752e-05
0.0048582
-2.64233e-05
0.00485225
-2.53942e-05
0.00484615
-2.44273e-05
0.0048399
-2.34828e-05
0.00483355
-2.25508e-05
0.00482714
-2.16338e-05
0.00482069
-2.07525e-05
0.00481416
-1.99128e-05
0.00480751
-1.91031e-05
0.0048007
-1.82836e-05
0.00479373
-1.74651e-05
0.00478662
-1.66708e-05
0.00477936
-1.59227e-05
0.00477196
-1.52012e-05
0.00476437
-1.44881e-05
0.00475657
-1.37829e-05
0.00474853
-1.31024e-05
0.00474027
-1.24547e-05
0.0047318
-1.18443e-05
0.00472313
-1.12655e-05
0.00471428
-1.07168e-05
0.00470525
-1.01943e-05
0.00469605
-9.71016e-06
0.00468672
-9.26811e-06
0.00467726
-8.8666e-06
0.00466772
-8.50268e-06
0.00465813
-8.16932e-06
0.0046485
-7.86843e-06
0.00463887
-7.59996e-06
0.00462924
-7.36345e-06
0.00461966
-7.16249e-06
0.00461013
-6.98799e-06
0.00460069
-6.84009e-06
0.00459135
-6.71451e-06
0.00458212
-6.61414e-06
0.00457302
-6.5353e-06
0.00456407
-6.47815e-06
0.00455526
-6.43646e-06
0.00454662
-6.41088e-06
0.00453815
-6.39833e-06
0.00452985
-6.40065e-06
0.00452172
-6.41369e-06
0.00451376
-6.43805e-06
0.00450598
-6.47114e-06
0.00449836
-6.5129e-06
0.0044909
-6.57084e-06
0.0044836
-6.65249e-06
0.00447641
-6.75744e-06
0.00446938
-6.95093e-06
0.00446232
-7.12128e-06
0.00445547
-7.72731e-06
0.00444816
-7.77484e-06
-1.07115e-05
0.0064508
-2.14627e-05
0.00645216
-3.99198e-05
0.00643219
-8.53722e-05
0.00637824
-0.000155876
0.00628837
-0.000232521
0.00616929
-0.000296781
0.00603185
-0.000339693
0.0058877
-0.000358429
0.00574701
-0.000355878
0.00561755
-0.000338128
0.005503
-0.000310423
0.00540335
-0.00027751
0.00531898
-0.000244153
0.0052494
-0.00021381
0.00519105
-0.000187029
0.00514082
-0.000163251
0.00509849
-0.000142695
0.00506353
-0.000125876
0.00503325
-0.000112093
0.00500558
-0.000100314
0.00498077
-9.00757e-05
0.00495924
-8.15835e-05
0.00493991
-7.46649e-05
0.00492146
-6.87883e-05
0.00490376
-6.35608e-05
0.00488728
-5.88123e-05
0.00487208
-5.45613e-05
0.00485752
-5.08847e-05
0.00484313
-4.77109e-05
0.00482893
-4.47922e-05
0.00481522
-4.19296e-05
0.00480206
-3.92089e-05
0.00478919
-3.68243e-05
0.00477639
-3.4763e-05
0.00476361
-3.28693e-05
0.00475099
-3.09863e-05
0.00473865
-2.91058e-05
0.00472653
-2.73939e-05
0.00471451
-2.59126e-05
0.00470255
-2.45704e-05
0.00469071
-2.32494e-05
0.00467904
-2.19273e-05
0.00466757
-2.06816e-05
0.00465623
-1.95761e-05
0.00464504
-1.85756e-05
0.00463401
-1.76182e-05
0.00462317
-1.66741e-05
0.00461251
-1.57689e-05
0.00460204
-1.49277e-05
0.00459177
-1.41517e-05
0.0045817
-1.34149e-05
0.00457186
-1.27056e-05
0.00456225
-1.20235e-05
0.00455287
-1.13763e-05
0.00454372
-1.07662e-05
0.00453481
-1.0187e-05
0.00452614
-9.61826e-06
0.00451774
-9.06261e-06
0.0045096
-8.53422e-06
0.00450172
-8.04134e-06
0.00449409
-7.56863e-06
0.00448671
-7.10477e-06
0.00447957
-6.64776e-06
0.00447268
-6.21062e-06
0.00446602
-5.7957e-06
0.00445958
-5.40595e-06
0.00445335
-5.03119e-06
0.0044473
-4.67295e-06
0.00444143
-4.32498e-06
0.00443572
-3.99847e-06
0.00443016
-3.70171e-06
0.00442472
-3.42798e-06
0.00441939
-3.17574e-06
0.00441416
-2.94393e-06
0.00440902
-2.72776e-06
0.00440396
-2.53528e-06
0.00439896
-2.36114e-06
0.00439401
-2.21401e-06
0.00438911
-2.08535e-06
0.00438424
-1.97429e-06
0.0043794
-1.87864e-06
0.00437459
-1.79823e-06
0.00436979
-1.73704e-06
0.004365
-1.69014e-06
0.00436022
-1.6578e-06
0.00435545
-1.63668e-06
0.00435068
-1.62878e-06
0.00434591
-1.63285e-06
0.00434115
-1.64948e-06
0.00433639
-1.67651e-06
0.00433163
-1.71383e-06
0.00432688
-1.76295e-06
0.00432213
-1.82437e-06
0.00431739
-1.91309e-06
0.00431264
-1.9997e-06
0.00430788
-2.19224e-06
0.00430301
-2.25823e-06
0.00429815
-2.86575e-06
0.00429293
-2.5576e-06
-5.63633e-06
0.00644653
-2.70128e-05
0.00644397
-3.73617e-05
0.00642001
-6.141e-05
0.00636214
-9.80093e-05
0.00626748
-0.000137856
0.00614212
-0.000171423
0.00599644
-0.000194015
0.00584206
-0.000204051
0.00568929
-0.000203104
0.005545
-0.000193836
0.00541342
-0.000178852
0.00529704
-0.000161129
0.00519597
-0.000143076
0.00510814
-0.000125981
0.00503154
-0.000110429
0.00496502
-9.67318e-05
0.00490729
-8.49676e-05
0.0048563
-7.48899e-05
0.00481033
-6.61134e-05
0.00476856
-5.85513e-05
0.00473071
-5.22253e-05
0.00469628
-4.71538e-05
0.00466431
-4.26958e-05
0.00463431
-3.87842e-05
0.00460622
-3.5473e-05
0.00457997
-3.25639e-05
0.00455526
-2.98433e-05
0.0045317
-2.73329e-05
0.00450915
-2.51545e-05
0.0044876
-2.32424e-05
0.0044671
-2.14299e-05
0.00444756
-1.96682e-05
0.00442881
-1.80735e-05
0.00441073
-1.66902e-05
0.00439333
-1.54634e-05
0.00437664
-1.42952e-05
0.00436068
-1.31484e-05
0.00434538
-1.2092e-05
0.00433063
-1.11691e-05
0.00431641
-1.03504e-05
0.00430274
-9.57669e-06
0.00428964
-8.82283e-06
0.00427707
-8.11594e-06
0.00426499
-7.49097e-06
0.00425335
-6.93618e-06
0.00424215
-6.41949e-06
0.00423139
-5.92079e-06
0.00422107
-5.44934e-06
0.00421117
-5.02048e-06
0.00420165
-4.63399e-06
0.00419251
-4.27476e-06
0.00418374
-3.93679e-06
0.00417534
-3.61929e-06
0.00416728
-3.32455e-06
0.00415957
-3.05375e-06
0.00415219
-2.8054e-06
0.00414514
-2.56906e-06
0.00413842
-2.34344e-06
0.00413202
-2.13318e-06
0.00412592
-1.94323e-06
0.00412012
-1.76564e-06
0.00411461
-1.59567e-06
0.00410939
-1.42995e-06
0.00410446
-1.27478e-06
0.00409979
-1.1285e-06
0.00409538
-9.93352e-07
0.00409121
-8.6123e-07
0.00408727
-7.35038e-07
0.00408355
-6.08249e-07
0.00408004
-4.82754e-07
0.00407672
-3.80845e-07
0.00407357
-2.76935e-07
0.00407057
-1.79977e-07
0.00406771
-8.82947e-08
0.00406498
1.30781e-09
0.00406237
8.31425e-08
0.00405985
1.5938e-07
0.00405741
2.21187e-07
0.00405505
2.75499e-07
0.00405275
3.21702e-07
0.00405051
3.6172e-07
0.00404832
3.9619e-07
0.00404616
4.19308e-07
0.00404404
4.35053e-07
0.00404193
4.45006e-07
0.00403985
4.50281e-07
0.00403777
4.51746e-07
0.00403569
4.49049e-07
0.0040336
4.38825e-07
0.00403149
4.26062e-07
0.00402938
4.04366e-07
0.00402723
3.7873e-07
0.00402507
3.38782e-07
0.00402287
2.8836e-07
0.00402062
2.49459e-07
0.0040183
1.26115e-07
0.00401589
1.51102e-07
0.00401334
-3.11452e-07
0.00401062
1.60004e-07
-2.32778e-06
0.00625665
0.00621968
0.00615866
0.00606105
0.00592359
0.00575257
0.00555896
0.00535531
0.00515262
0.0049592
0.00478076
0.00462006
0.00447741
0.00435185
0.00424186
0.00414556
0.00406103
0.00398657
0.0039209
0.00386279
0.00381101
0.00376429
0.00372204
0.0036837
0.00364868
0.00361656
0.00358717
0.00356028
0.00353558
0.00351278
0.0034918
0.00347259
0.00345496
0.00343873
0.00342371
0.00340987
0.00339718
0.00338554
0.00337482
0.00336492
0.0033558
0.00334743
0.00333977
0.00333273
0.00332625
0.00332029
0.00331482
0.00330983
0.00330526
0.00330108
0.00329726
0.00329378
0.00329061
0.00328774
0.00328515
0.0032828
0.00328068
0.00327879
0.00327712
0.00327563
0.00327432
0.00327318
0.0032722
0.00327138
0.00327071
0.00327017
0.00326977
0.00326949
0.00326933
0.00326931
0.00326938
0.00326956
0.00326983
0.0032702
0.00327066
0.00327119
0.00327181
0.00327249
0.00327322
0.00327399
0.00327481
0.00327566
0.00327653
0.00327742
0.00327832
0.00327923
0.00328013
0.00328104
0.00328193
0.00328281
0.00328367
0.0032845
0.0032853
0.00328604
0.00328674
0.00328733
0.00328793
0.00328807
0.00328869
-0.000831931
0.000788343
-0.00121946
0.000387527
-0.00139906
0.000179604
-0.00140205
2.98394e-06
-0.00126096
-0.00014109
-0.000964944
-0.000296012
-0.000524487
-0.000440457
-0.000525013
-0.000754951
0.00166096
-0.00111808
0.000750658
-0.00122824
0.000289766
-0.00120009
-2.51742e-05
-0.00105429
-0.000286883
-0.00080876
-0.000541545
-0.000456447
-0.000792769
-0.000981964
-0.000156197
0.00225018
-0.000557935
0.0011524
-0.000717709
0.000449539
-0.000731038
-1.18447e-05
-0.000650845
-0.000367076
-0.000507296
-0.000685094
-0.000303369
-0.000996696
-0.00128582
0.000429658
0.00257866
9.69578e-05
0.0014851
-0.000111094
0.000657591
-0.000205853
8.29143e-05
-0.000222048
-0.000350881
-0.000187707
-0.000719434
-0.000121697
-0.00106271
-0.00140799
0.000870301
0.00276483
0.000617315
0.00173808
0.000395234
0.000879672
0.000239666
0.000238482
0.000137926
-0.00024914
7.01141e-05
-0.000651623
2.21303e-05
-0.00101472
-0.00138632
0.00119707
0.00287795
0.000996732
0.00193842
0.000781882
0.00109452
0.000592635
0.000427729
0.000428773
-8.52788e-05
0.000279854
-0.000502704
0.000137294
-0.000872162
-0.00124949
0.00139125
0.00294685
0.00123796
0.00209171
0.00104154
0.00129093
0.00083584
0.000633433
0.000631638
0.000118923
0.000426462
-0.000297527
0.000215944
-0.000661645
-0.00103401
0.00145068
0.00299259
0.00133261
0.00220978
0.00116187
0.00146168
0.000958567
0.000836734
0.000737552
0.000339937
0.00050368
-6.36547e-05
0.000257035
-0.000414999
-0.000777452
0.00141286
0.00302249
0.00131809
0.00230454
0.00116833
0.00161144
0.000977253
0.00102781
0.000758566
0.000558624
0.000520531
0.00017438
0.000266322
-0.00016079
-0.000511615
0.00130664
0.00303899
0.00123235
0.00237883
0.00110362
0.00174017
0.000929971
0.00120147
0.000724792
0.000763803
0.000498003
0.000401169
0.000254479
8.27347e-05
-0.000257632
0.00116674
0.00304302
0.00111082
0.00243475
0.00100169
0.0018493
0.000848502
0.00135465
0.000663912
0.000948393
0.000457047
0.000608034
0.000233458
0.000306323
-2.46816e-05
0.00101839
0.00303646
0.000977797
0.00247534
0.000885699
0.0019414
0.00075271
0.00148764
0.000590798
0.0011103
0.000407576
0.000791256
0.000209196
0.000504703
0.000184003
0.000877656
0.00302258
0.000848813
0.00250419
0.000771947
0.00201827
0.000657324
0.00160226
0.000516223
0.00125141
0.000355692
0.000951787
0.000181744
0.000678652
0.00036524
0.000753357
0.00300426
0.000733
0.00252454
0.000668864
0.0020824
0.000570427
0.0017007
0.000448155
0.00137368
0.000308564
0.00109138
0.000157269
0.000829947
0.000522007
0.000647281
0.00298376
0.000632425
0.0025394
0.000578815
0.00213601
0.000494827
0.00178469
0.000389213
0.00147929
0.000268038
0.00121255
0.000136503
0.000961481
0.000658013
0.000557986
0.00296336
0.000545895
0.00255149
0.000500824
0.00218108
0.000429766
0.00185574
0.000338909
0.00157015
0.000233753
0.00131771
0.000118966
0.00107627
0.000776485
0.000484585
0.00294464
0.000473801
0.00256227
0.000435132
0.00221975
0.000374353
0.00191652
0.000295916
0.00164859
0.000204453
0.00140917
0.000103764
0.00117696
0.000879757
0.000425265
0.00292819
0.000415121
0.00257242
0.000381089
0.00225379
0.000328062
0.00196955
0.000259632
0.00171702
0.000179573
0.00148923
9.09137e-05
0.00126561
0.000970181
0.000376689
0.00291404
0.000366919
0.00258219
0.000336445
0.00228426
0.000289515
0.00201648
0.000229166
0.00177737
0.000158551
0.00155985
8.02863e-05
0.00134388
0.00104998
0.00033596
0.00290206