/*--------------------------------*- C++ -*----------------------------------*\
| =========                 |                                                 |
| \\      /  F ield         | OpenFOAM: The Open Source CFD Toolbox           |
|  \\    /   O peration     | Version:  v2012                                 |
|   \\  /    A nd           | Website:  www.openfoam.com                      |
|    \\/     M anipulation  |                                                 |
\*---------------------------------------------------------------------------*/
FoamFile
{
    version     2.0;
    format      ascii;
    class       Cloud<basicKinematicParcel>;
    location    "0.012/lagrangian/kinematicCloud";
    object      coordinates;
}
// * * * * * * * * * * * * * * * * * * * * * * * * * * * * * * * * * * * * * //

12
(
(0.0875479 0.0835362 0.37269 0.456226) 307 415 2
(0.355316 0.246105 0.322342 0.0762369) 807 1612 1
(0.607172 0.111203 0.0852111 0.196414) 1106 2013 2
(0.175446 0.0996148 0.412277 0.312662) 505 1011 2
(0.110817 0.444591 0.289174 0.155417) 1405 2808 2
(0.747836 0.126082 0.0191045 0.106978) 1104 2206 2
(0.742338 0.116232 0.0125988 0.128831) 3 6 1
(0.128404 0.435798 0.328932 0.106866) 1602 3204 2
(0.294871 0.352565 0.294849 0.0577157) 1602 3202 2
(0.846903 0.0765484 0.0188583 0.0576901) 701 1203 1
(0.310813 0.344593 0.222375 0.122219) 801 1603 1
(0.103299 0.360763 0.44835 0.0875873) 400 801 2
)


// ************************************************************************* //
