/*--------------------------------*- C++ -*----------------------------------*\
| =========                 |                                                 |
| \\      /  F ield         | OpenFOAM: The Open Source CFD Toolbox           |
|  \\    /   O peration     | Version:  v2012                                 |
|   \\  /    A nd           | Website:  www.openfoam.com                      |
|    \\/     M anipulation  |                                                 |
\*---------------------------------------------------------------------------*/
FoamFile
{
    version     2.0;
    format      ascii;
    class       vectorField;
    location    "0.012/lagrangian/kinematicCloud";
    object      U;
}
// * * * * * * * * * * * * * * * * * * * * * * * * * * * * * * * * * * * * * //


12
(
(10.3793 0.000717073 0)
(10.3877 0.000103591 0)
(10.402 -0.000447535 0)
(10.4148 0.000995401 0)
(10.4247 -0.00139757 0)
(10.4341 -0.000604301 0)
(10.2238 0.00105268 0)
(10.4548 -0.00132237 0)
(10.4665 -0.00084929 0)
(10.4786 0.000186228 0)
(10.4794 6.12366e-05 0)
(10.4916 6.22316e-05 0)
)


// ************************************************************************* //
