/*--------------------------------*- C++ -*----------------------------------*\
| =========                 |                                                 |
| \\      /  F ield         | OpenFOAM: The Open Source CFD Toolbox           |
|  \\    /   O peration     | Version:  v2012                                 |
|   \\  /    A nd           | Website:  www.openfoam.com                      |
|    \\/     M anipulation  |                                                 |
\*---------------------------------------------------------------------------*/
FoamFile
{
    version     2.0;
    format      ascii;
    class       Cloud<basicKinematicParcel>;
    location    "0.085/lagrangian/kinematicCloud";
    object      coordinates;
}
// * * * * * * * * * * * * * * * * * * * * * * * * * * * * * * * * * * * * * //

54
(
(0.672605 0.046908 0.163697 0.116789) 380 758 1
(0.600283 0.139725 0.199858 0.0601338) 883 1767 2
(0.293813 0.353094 0.299471 0.053623) 1182 2165 1
(0.604581 0.17502 0.0226897 0.197709) 680 1161 2
(0.413211 0.0361343 0.293395 0.25726) 1379 2756 1
(0.63265 0.183675 0.00206561 0.181609) 1178 2356 2
(0.179447 0.241422 0.410277 0.168854) 57 112 1
(0.432141 0.0676371 0.283929 0.216292) 1573 3147 2
(0.452529 0.156717 0.117018 0.273735) 1572 3144 1
(0.648889 0.0353385 0.140217 0.175555) 773 1546 1
(0.146011 0.407964 0.426995 0.0190309) 873 1747 2
(0.767915 0.113618 0.00242424 0.116042) 571 943 2
(0.409813 0.295094 0.0018947 0.293199) 1861 3720 2
(0.172394 0.413803 0.0983683 0.315435) 160 318 2
(0.172023 0.413988 0.342812 0.071176) 1861 3523 1
(0.528941 0.112747 0.23553 0.122783) 967 1932 1
(0.821416 0.0892922 0.0581467 0.0311456) 363 726 2
(0.052849 0.346467 0.473575 0.127109) 1760 3518 1
(0.446605 0.123558 0.276697 0.15314) 563 1124 1
(0.310961 0.129876 0.344519 0.214643) 1562 3122 1
(0.0339696 0.483015 0.231602 0.251413) 1362 2525 1
(0.221303 0.389348 0.0237704 0.365578) 1757 3514 2
(0.499148 0.250426 0.10583 0.144596) 1359 2718 2
(0.262415 0.149672 0.21912 0.368792) 457 914 1
(0.636831 0.181585 0.0285273 0.153057) 858 1517 1
(0.182818 0.408591 0.0987843 0.309807) 1357 2515 1
(0.213865 0.0319287 0.393067 0.361139) 354 709 2
(0.515994 0.239249 0.00275367 0.242003) 1455 2910 1
(0.297029 0.351486 0.185001 0.166484) 150 301 1
(0.155624 0.422188 0.111666 0.310522) 1454 2909 1
(0.177573 0.0730771 0.338136 0.411213) 27 22247 1
(0.0857516 0.297204 0.457124 0.15992) 250 498 1
(0.0915721 0.454214 0.357834 0.0963804) 1843 3687 1
(0.111462 0.389768 0.0545008 0.444269) 1049 2098 1
(0.189674 0.0974727 0.30769 0.405163) 649 1099 2
(0.0990309 0.23368 0.216804 0.450485) 1248 2496 1
(0.442478 0.278761 0.106527 0.172234) 747 1494 2
(0.340942 0.329529 0.0884178 0.241111) 846 1692 2
(0.392781 0.120921 0.303609 0.182689) 1245 2491 2
(0.0330569 0.383518 0.483472 0.0999534) 38 77 2
(0.335634 0.152432 0.332183 0.179751) 643 1287 2
(0.820764 0.0671941 0.0224239 0.089618) 1242 2285 2
(0.189911 0.405044 0.0843762 0.320668) 541 1083 1
(0.449771 0.275115 0.234334 0.0407807) 540 881 1
(0.198098 0.400951 0.318278 0.0826727) 739 1279 1
(0.314816 0.342592 0.124211 0.218381) 1138 2277 1
(0.100111 0.449944 0.201352 0.248593) 1537 2875 1
(0.621161 0.171705 0.189419 0.0177143) 936 1870 1
(0.247079 0.37646 0.103971 0.272489) 835 1471 1
(0.133305 0.433348 0.260959 0.172388) 1334 2669 1
(0.225387 0.387307 0.1408 0.246507) 332 664 2
(0.0734463 0.463277 0.244319 0.218957) 732 1465 1
(0.113662 0.443169 0.305992 0.137177) 1531 3063 1
(0.0230365 0.488482 0.283599 0.204882) 229 259 1
)


// ************************************************************************* //
