/*--------------------------------*- C++ -*----------------------------------*\
| =========                 |                                                 |
| \\      /  F ield         | OpenFOAM: The Open Source CFD Toolbox           |
|  \\    /   O peration     | Version:  v2012                                 |
|   \\  /    A nd           | Website:  www.openfoam.com                      |
|    \\/     M anipulation  |                                                 |
\*---------------------------------------------------------------------------*/
FoamFile
{
    version     2.0;
    format      ascii;
    class       Cloud<basicKinematicParcel>;
    location    "0.085/lagrangian/kinematicCloud";
    object      positions;
}
// * * * * * * * * * * * * * * * * * * * * * * * * * * * * * * * * * * * * * //

54
(
(1.20504 0.0050559 0.03) 380
(1.2534 0.0161473 0.03) 883
(1.2367 0.0234332 0.03) 1182
(1.20784 0.0102005 0.03) 680
(1.1881 0.0299325 0.03) 1379
(1.18026 0.0239027 0.03) 1178
(0.856346 0.000810927 0.03) 57
(1.10574 0.0339199 0.03) 1573
(1.09161 0.0336158 0.03) 1572
(1.10513 0.0133417 0.03) 773
(1.10279 0.0167691 0.03) 873
(1.07254 0.00828281 0.03) 571
(0.918074 0.0381139 0.03) 1861
(0.901293 0.00175154 0.03) 160
(0.921432 0.0375607 0.03) 1861
(1.00897 0.0188566 0.03) 967
(0.953839 0.00481248 0.03) 363
(0.900396 0.036891 0.03) 1760
(0.94835 0.00882577 0.03) 563
(0.932332 0.0337936 0.03) 1562
(0.933729 0.0282792 0.03) 1362
(0.86834 0.0361588 0.03) 1757
(0.896256 0.029035 0.03) 1359
(0.868032 0.0069966 0.03) 457
(0.875204 0.015103 0.03) 858
(0.857853 0.0284454 0.03) 1357
(0.822917 0.00551052 0.03) 354
(0.83613 0.0314887 0.03) 1455
(0.754725 0.0023554 0.03) 150
(0.815825 0.0323347 0.03) 1454
(0.417572 0.000107646 0.03) 27
(0.750643 0.00353555 0.03) 250
(0.647132 0.0387261 0.03) 1843
(0.749164 0.0216807 0.03) 1049
(0.747115 0.00973722 0.03) 649
(0.734257 0.0275411 0.03) 1248
(0.716681 0.0125692 0.03) 747
(0.702443 0.0149401 0.03) 846
(0.68524 0.0277557 0.03) 1245
(0.578999 0.00119237 0.03) 38
(0.655196 0.0113839 0.03) 643
(0.637836 0.0267834 0.03) 1242
(0.621234 0.00933389 0.03) 541
(0.606888 0.00796194 0.03) 540
(0.59126 0.0120036 0.03) 739
(0.575637 0.0253377 0.03) 1138
(0.558771 0.0325829 0.03) 1537
(0.544659 0.0185382 0.03) 936
(0.528413 0.0145695 0.03) 835
(0.513586 0.0303257 0.03) 1334
(0.49331 0.0044581 0.03) 332
(0.483835 0.0141405 0.03) 732
(0.46791 0.03421 0.03) 1531
(0.439427 0.00257188 0.03) 229
)


// ************************************************************************* //
