/*--------------------------------*- C++ -*----------------------------------*\
| =========                 |                                                 |
| \\      /  F ield         | OpenFOAM: The Open Source CFD Toolbox           |
|  \\    /   O peration     | Version:  v2012                                 |
|   \\  /    A nd           | Website:  www.openfoam.com                      |
|    \\/     M anipulation  |                                                 |
\*---------------------------------------------------------------------------*/
FoamFile
{
    version     2.0;
    format      ascii;
    class       scalarField;
    location    "0.095/lagrangian/kinematicCloud";
    object      age;
}
// * * * * * * * * * * * * * * * * * * * * * * * * * * * * * * * * * * * * * //


98
(
0.0942
0.0932
0.0921
0.091
0.09
0.089
0.088
0.087
0.0859
0.0848
0.084725
0.0837
0.0826
0.0815
0.0804
0.0793
0.0782
0.0771
0.076
0.075925
0.0749
0.0738
0.0727
0.0716
0.071525
0.0705
0.0694
0.069325
0.0683
0.068225
0.0672
0.0661
0.065
0.0639
0.063825
0.0629
0.0619
0.0609
0.0599
0.0589
0.0579
0.0569
0.0559
0.0549
0.0539
0.0529
0.0519
0.0509
0.0499
0.0489
0.0479
0.0469
0.0459
0.0449
0.0439
0.0429
0.0419
0.0409
0.0399
0.0389
0.0379
0.0369
0.0359
0.0349
0.0339
0.0329
0.0319
0.0309
0.0299
0.0289
0.0279
0.0269
0.0259
0.0249
0.0239
0.0229
0.0219
0.0209
0.0199
0.0189
0.0179
0.0169
0.0159
0.0149
0.0139
0.0129
0.0119
0.0109
0.0099
0.0089
0.0079
0.0069
0.0059
0.0049
0.0039
0.0029
0.0019
0.0009
)


// ************************************************************************* //
