/*--------------------------------*- C++ -*----------------------------------*\
| =========                 |                                                 |
| \\      /  F ield         | OpenFOAM: The Open Source CFD Toolbox           |
|  \\    /   O peration     | Version:  v2012                                 |
|   \\  /    A nd           | Website:  www.openfoam.com                      |
|    \\/     M anipulation  |                                                 |
\*---------------------------------------------------------------------------*/
FoamFile
{
    version     2.0;
    format      ascii;
    class       Cloud<basicKinematicParcel>;
    location    "0.095/lagrangian/kinematicCloud";
    object      positions;
}
// * * * * * * * * * * * * * * * * * * * * * * * * * * * * * * * * * * * * * //

98
(
(0.386348 0.00123245 0.03) 134
(0.427157 0.010786 0.03) 538
(0.421499 0.0160329 0.03) 737
(0.399802 0.00697735 0.03) 335
(0.404973 0.021273 0.03) 836
(0.398838 0.0182081 0.03) 735
(0.235465 0.00263132 0.03) 118
(0.383123 0.0228248 0.03) 933
(0.374553 0.0237632 0.03) 932
(0.367369 0.0112184 0.03) 532
(0.365051 0.0105691 0.03) 431
(0.344894 0.00706361 0.03) 329
(0.0299347 0.0265745 0.03) 94
(0.0274659 5.96703e-05 0.03) 4
(0.175909 0.0257721 0.03) 1011
(0.329608 0.0142028 0.03) 628
(0.281016 0.00330694 0.03) 222
(0.302658 0.0246412 0.03) 1025
(0.288297 0.00685713 0.03) 323
(0.305933 0.0226264 0.03) 925
(0.298438 0.0204912 0.03) 824
(0.104785 0.0259008 0.03) 1004
(0.282959 0.021331 0.03) 823
(0.249381 0.00553127 0.03) 319
(0.271502 0.0113646 0.03) 521
(0.266613 0.0213072 0.03) 821
(0.238305 0.00622501 0.03) 318
(0.259089 0.0224295 0.03) 920
(0.126182 0.00299869 0.03) 206
(0.250931 0.0236508 0.03) 919
(0.0250838 0.000172402 0.03) 3
(0.189863 0.00420478 0.03) 213
(0.0738888 0.0259368 0.03) 1000
(0.220872 0.0167667 0.03) 716
(0.212396 0.00883073 0.03) 415
(0.214662 0.0196889 0.03) 815
(0.206439 0.0127649 0.03) 514
(0.200616 0.0127933 0.03) 514
(0.194047 0.0198464 0.03) 813
(0.0516121 0.000637808 0.03) 7
(0.178342 0.0100563 0.03) 411
(0.174117 0.018827 0.03) 811
(0.155978 0.00590175 0.03) 309
(0.156479 0.00797116 0.03) 309
(0.153665 0.0103907 0.03) 409
(0.149134 0.0175037 0.03) 708
(0.14295 0.0227242 0.03) 908
(0.136999 0.0135842 0.03) 607
(0.130657 0.0120338 0.03) 506
(0.125976 0.021549 0.03) 906
(0.115362 0.00366286 0.03) 205
(0.114743 0.00945834 0.03) 405
(0.11068 0.0236759 0.03) 904
(0.036186 0.000696762 0.03) 5
(0.10034 0.0182666 0.03) 703
(0.0965896 0.0184193 0.03) 703
(0.0921351 0.024182 0.03) 1002
(0.0876001 0.013612 0.03) 602
(0.082821 0.0107382 0.03) 501
(0.07978 0.0136989 0.03) 601
(0.0761241 0.0230618 0.03) 901
(0.071604 0.0145897 0.03) 600
(0.0679173 0.0149241 0.03) 600
(0.0644626 0.0219136 0.03) 89
(0.0487437 0.0250337 0.03) 97
(0.0571277 0.0160537 0.03) 68
(0.053975 0.00682993 0.03) 28
(0.0406943 0.00166848 0.03) 6
(0.0474679 0.00941088 0.03) 37
(0.0452343 0.0131983 0.03) 46
(0.0425868 0.0190841 0.03) 76
(0.0395763 0.0166485 0.03) 65
(0.0365675 0.00300268 0.03) 15
(0.0338116 0.0212674 0.03) 75
(0.0313986 0.0242987 0.03) 94
(0.0125613 0.0260249 0.03) 91
(0.0222736 0.0249241 0.03) 93
(0.0236279 0.00964231 0.03) 33
(0.0182252 0.0252216 0.03) 92
(0.0198945 0.0235582 0.03) 82
(0.0180084 0.0162744 0.03) 62
(0.016671 0.0176122 0.03) 62
(0.0145828 0.0151602 0.03) 52
(0.0129366 0.01684 0.03) 61
(0.00887921 0.0254827 0.03) 91
(0.00978803 0.0103716 0.03) 31
(0.00843621 0.01514 0.03) 51
(0.00764105 0.0129253 0.03) 41
(0.00571634 0.0169957 0.03) 60
(0.00502417 0.00598929 0.03) 20
(0.0044271 0.00967389 0.03) 30
(0.00399421 0.0241101 0.03) 90
(0.00185678 0.000273604 0.03) 0
(0.00261563 0.0118094 0.03) 40
(0.00187561 0.0239277 0.03) 80
(0.00119465 0.00573816 0.03) 20
(0.00166681 0.0199542 0.03) 70
(0.00071731 0.00587384 0.03) 20
)


// ************************************************************************* //
