/*--------------------------------*- C++ -*----------------------------------*\
| =========                 |                                                 |
| \\      /  F ield         | OpenFOAM: The Open Source CFD Toolbox           |
|  \\    /   O peration     | Version:  v2012                                 |
|   \\  /    A nd           | Website:  www.openfoam.com                      |
|    \\/     M anipulation  |                                                 |
\*---------------------------------------------------------------------------*/
FoamFile
{
    version     2.0;
    format      ascii;
    class       vectorField;
    location    "0.095/lagrangian/kinematicCloud";
    object      U;
}
// * * * * * * * * * * * * * * * * * * * * * * * * * * * * * * * * * * * * * //


54
(
(16.1359 0.00735518 0)
(18.3898 0.00421038 0)
(18.3617 -0.00602594 0)
(17.5949 0.00882853 0)
(17.4925 -0.0109453 0)
(18.2176 -0.0068344 0)
(11.1627 0.00052934 0)
(16.3531 -0.0106646 0)
(16.4412 -0.0110581 0)
(17.8808 0.00791175 0)
(18.0725 0.0037015 0)
(17.0185 0.0100835 0)
(13.6526 -0.00570141 0)
(13.597 0.00476616 0)
(14.3052 -0.00651781 0)
(17.8385 0.000533924 0)
(15.7981 0.00919871 0)
(14.7995 -0.00849891 0)
(16.9603 0.0112906 0)
(16.2127 -0.0124436 0)
(17.3445 -0.0124128 0)
(15.1858 -0.0105894 0)
(17.1748 -0.0131087 0)
(16.4205 0.0117201 0)
(17.3945 0.00625474 0)
(17.1584 -0.012915 0)
(15.9164 0.0113651 0)
(16.6718 -0.0142014 0)
(14.1752 0.00763035 0)
(16.4617 -0.0143351 0)
(4.7595 -0.000113835 0)
(14.9915 0.00913205 0)
(12.4991 -0.00634357 0)
(16.9751 -0.00374399 0)
(16.7175 0.012564 0)
(16.8608 -0.0123119 0)
(16.8143 0.00990609 0)
(16.7889 0.00648644 0)
(16.6865 -0.0125267 0)
(12.5294 0.0039135 0)
(16.5528 0.0114868 0)
(16.5253 -0.0111724 0)
(16.3159 0.0135948 0)
(16.1067 0.014227 0)
(16.3199 0.0105233 0)
(16.2671 -0.00879064 0)
(15.8696 -0.0165514 0)
(16.1267 0.0010281 0)
(16.0547 0.00666139 0)
(15.9299 -0.0152974 0)
(15.0187 0.0134572 0)
(15.8375 0.00716269 0)
(15.3006 -0.0167406 0)
(14.0343 0.01114 0)
)


// ************************************************************************* //
