/*--------------------------------*- C++ -*----------------------------------*\
| =========                 |                                                 |
| \\      /  F ield         | OpenFOAM: The Open Source CFD Toolbox           |
|  \\    /   O peration     | Version:  v2012                                 |
|   \\  /    A nd           | Website:  www.openfoam.com                      |
|    \\/     M anipulation  |                                                 |
\*---------------------------------------------------------------------------*/
FoamFile
{
    version     2.0;
    format      ascii;
    class       volScalarField;
    location    "0.286";
    object      nut.air;
}
// * * * * * * * * * * * * * * * * * * * * * * * * * * * * * * * * * * * * * //

dimensions      [0 2 -1 0 0 0 0];


internalField   nonuniform List<scalar> 
5600
(
2.45139e-05
3.47338e-05
4.04107e-05
4.24616e-05
4.22731e-05
4.09686e-05
3.92104e-05
3.75374e-05
3.61149e-05
3.49456e-05
3.40623e-05
3.34362e-05
3.30379e-05
3.28039e-05
3.26963e-05
3.2659e-05
3.2672e-05
3.26975e-05
3.27377e-05
3.27662e-05
3.28013e-05
3.28213e-05
3.28507e-05
3.28759e-05
3.29115e-05
3.29415e-05
3.29798e-05
3.30112e-05
3.30507e-05
3.30783e-05
3.31122e-05
3.31315e-05
3.31557e-05
3.31662e-05
3.3182e-05
3.31861e-05
3.31969e-05
3.31964e-05
3.32045e-05
3.32012e-05
3.32082e-05
3.32037e-05
3.32108e-05
3.32064e-05
3.32142e-05
3.32106e-05
3.32199e-05
3.32166e-05
3.32275e-05
3.32242e-05
3.32355e-05
3.32323e-05
3.32448e-05
3.32413e-05
3.32552e-05
3.32518e-05
3.32674e-05
3.32644e-05
3.32818e-05
3.32794e-05
3.3299e-05
3.32965e-05
3.33184e-05
3.33156e-05
3.33398e-05
3.33364e-05
3.33631e-05
3.3359e-05
3.33884e-05
3.33832e-05
3.34155e-05
3.34089e-05
3.34447e-05
3.34362e-05
3.34756e-05
3.34651e-05
3.35083e-05
3.34958e-05
3.35423e-05
3.35281e-05
3.35769e-05
3.35625e-05
3.36107e-05
3.36e-05
3.36416e-05
3.36432e-05
3.36651e-05
3.36985e-05
3.36712e-05
3.37812e-05
3.36403e-05
3.39254e-05
3.35137e-05
3.42307e-05
3.31029e-05
3.50322e-05
3.17341e-05
3.75708e-05
2.6486e-05
4.70523e-05
0.000151683
0.00013736
0.000112264
9.8597e-05
9.39171e-05
9.49348e-05
0.000102109
0.000110109
0.000116491
0.000124314
0.000132735
0.000141232
0.000149481
0.000157242
0.000164438
0.000170924
0.000176819
0.000182046
0.000186796
0.000191042
0.000195005
0.000198601
0.000202107
0.000205357
0.000208502
0.00021132
0.000214079
0.000216509
0.000218899
0.00022088
0.000222827
0.00022438
0.000225923
0.000227152
0.000228411
0.000229398
0.000230457
0.000231252
0.000232171
0.000232821
0.000233639
0.00023419
0.000234934
0.000235413
0.000236125
0.000236567
0.000237247
0.000237632
0.000238283
0.0002386
0.00023922
0.00023949
0.000240082
0.000240306
0.000240891
0.000241076
0.000241669
0.00024182
0.000242422
0.00024255
0.000243159
0.000243251
0.000243879
0.000243931
0.000244583
0.000244594
0.000245273
0.000245241
0.000245953
0.000245866
0.000246628
0.000246484
0.000247301
0.00024709
0.000247968
0.000247689
0.000248635
0.000248285
0.000249298
0.000248874
0.000249942
0.000249464
0.000250547
0.000250071
0.000251086
0.000250734
0.000251495
0.000251548
0.000251652
0.000252744
0.000251293
0.00025468
0.000249826
0.000258227
0.000245766
0.000265706
0.000235391
0.000282659
0.000209889
0.000288302
0.000156543
0.000151508
0.000143098
0.000135081
0.000125321
0.000120657
0.000113812
0.000109673
0.000108729
0.000109801
0.000112697
0.000117418
0.000123703
0.000131344
0.000140278
0.000150333
0.00016151
0.000173762
0.000187115
0.000201709
0.000217041
0.000232837
0.000246136
0.000258401
0.000270141
0.000281029
0.000290639
0.000298303
0.000305554
0.000311669
0.000317733
0.000322963
0.000328285
0.00033284
0.000337488
0.000341393
0.000345494
0.00034884
0.000352512
0.000355424
0.000358747
0.00036133
0.000364368
0.000366687
0.000369495
0.000371533
0.000374113
0.000375881
0.000378278
0.000379824
0.000382073
0.000383433
0.000385577
0.000386779
0.000388852
0.000389911
0.000391936
0.000392863
0.000394851
0.000395654
0.000397619
0.000398295
0.000400256
0.000400799
0.000402774
0.000403183
0.000405188
0.000405463
0.000407521
0.00040765
0.000409786
0.000409757
0.000411996
0.000411788
0.00041415
0.000413737
0.00041626
0.000415597
0.000418315
0.000417358
0.000420308
0.000419021
0.00042225
0.000420589
0.000424164
0.000422063
0.000426069
0.000423438
0.000428005
0.000424662
0.000430096
0.000425586
0.000432582
0.000425897
0.00043609
0.000424854
0.000442166
0.000421351
0.000431863
0.000409282
0.000157846
0.000153937
0.000150161
0.000146662
0.0001428
0.000139104
0.000135694
0.000131367
0.000128329
0.000124769
0.000123152
0.000119839
0.00011756
0.000115567
0.000115681
0.000116613
0.000119916
0.000124556
0.000131328
0.000139757
0.000150173
0.000162353
0.000176315
0.000191183
0.000207249
0.000223417
0.000239049
0.00025255
0.000266779
0.000279597
0.000293139
0.000305189
0.000317745
0.000329057
0.000340671
0.00035105
0.000361833
0.000371304
0.000381326
0.000389945
0.000399136
0.000406862
0.000415363
0.000422023
0.000428659
0.000433749
0.000439813
0.000444292
0.00044992
0.000453908
0.000459185
0.000462757
0.000467761
0.000470965
0.000475757
0.00047862
0.000483246
0.00048581
0.000490298
0.00049258
0.000496964
0.000498967
0.000503288
0.000505012
0.000509297
0.000510746
0.000515033
0.000516208
0.000520542
0.000521415
0.000525842
0.0005264
0.000530954
0.000531168
0.000535887
0.000535707
0.00054068
0.000539998
0.000545304
0.000544025
0.00054977
0.00054779
0.000554134
0.000551289
0.000558462
0.000554511
0.000562821
0.0005574
0.000567318
0.000559847
0.000572135
0.00056174
0.000577396
0.000563106
0.000583046
0.000564281
0.000588436
0.000566621
0.000591859
0.000571836
0.000158148
0.000154542
0.000151717
0.000148964
0.000146851
0.00014436
0.000142598
0.000140223
0.000138614
0.000136278
0.000134967
0.000132604
0.000131326
0.00012873
0.000127559
0.000125264
0.000124316
0.000121765
0.000120926
0.000119849
0.000120698
0.000121946
0.000125728
0.000129892
0.000137275
0.000144498
0.000155304
0.00016553
0.000178973
0.000191849
0.000207187
0.000222037
0.000235587
0.000247579
0.000261064
0.000272987
0.000286544
0.000298249
0.000311755
0.000323286
0.000336564
0.000347885
0.000360895
0.000371824
0.000384292
0.000394454
0.000406261
0.000415631
0.000426849
0.000435525
0.000446231
0.000454259
0.000464501
0.000471885
0.000481843
0.000488636
0.000498241
0.000504487
0.000513777
0.000519462
0.000528498
0.00053362
0.000542464
0.000546994
0.000555671
0.000559648
0.000568232
0.00057166
0.000580216
0.0005831
0.000591731
0.000594101
0.000602785
0.000604651
0.000613413
0.000614666
0.000622797
0.000622871
0.000631356
0.000630613
0.000639591
0.000637918
0.00064758
0.000644802
0.000655391
0.000651314
0.000663048
0.00065745
0.00067058
0.000663229
0.00067795
0.000668891
0.000684824
0.000674947
0.000690482
0.000682082
0.000694379
0.000691044
0.000696367
0.000700645
0.000158221
0.000154714
0.000152118
0.00014958
0.000147806
0.000145744
0.000144405
0.000142579
0.000141574
0.000139731
0.000139149
0.000137092
0.000136954
0.00013471
0.000134757
0.000132616
0.000132535
0.000130614
0.000130207
0.00012833
0.000128216
0.000125878
0.000126932
0.00012376
0.000125738
0.000122685
0.00012585
0.000124452
0.000128914
0.000130225
0.000136514
0.000140739
0.000149506
0.00015607
0.000167254
0.000175708
0.000188988
0.000199219
0.00021411
0.000225952
0.00024211
0.000251873
0.000264423
0.000274152
0.000287152
0.000297068
0.000310354
0.00032028
0.000333678
0.000343548
0.000356995
0.000366724
0.000380191
0.000389735
0.000403317
0.00041258
0.000425962
0.000434772
0.000447905
0.000456123
0.000469015
0.000476653
0.000489388
0.000496429
0.000509012
0.000515525
0.000527996
0.000533988
0.000546536
0.000552147
0.000564765
0.000569818
0.00058238
0.000586882
0.000599383
0.000603275
0.000615779
0.000618971
0.000631474
0.000633938
0.000646354
0.00064823
0.000660505
0.00066197
0.000673953
0.000675313
0.000686661
0.000688343
0.000698564
0.000701119
0.000709591
0.00071379
0.00071995
0.000726233
0.000729974
0.000737468
0.000740972
0.000746653
0.000755248
0.000761724
0.000158241
0.000154775
0.00015223
0.00014978
0.000148069
0.00014615
0.00014492
0.000143244
0.000142457
0.000140715
0.000140468
0.000138479
0.000138681
0.000136624
0.000136873
0.000135131
0.000135093
0.000133738
0.000133624
0.000132064
0.000132722
0.000130014
0.000132179
0.000128082
0.000131307
0.000126721
0.000129911
0.000125935
0.000128544
0.000125302
0.000128048
0.000124454
0.000128369
0.000124428
0.000129966
0.0001266
0.000133336
0.000131838
0.000139608
0.00014044
0.000149652
0.000152718
0.000163615
0.000168332
0.000180851
0.000187156
0.000201086
0.000208859
0.000223939
0.000232983
0.00024914
0.000259119
0.000275501
0.000282333
0.000295281
0.000302477
0.000315768
0.000323171
0.000336731
0.000344251
0.000358033
0.00036557
0.000379555
0.000387103
0.000401231
0.000408729
0.000422989
0.000430359
0.000444906
0.000452192
0.000466856
0.000473928
0.000488514
0.000495288
0.000509715
0.0005161
0.000530385
0.000536471
0.000550543
0.000556415
0.000570107
0.000575876
0.000589117
0.000594915
0.000607591
0.00061374
0.00062538
0.000632211
0.000642567
0.000650205
0.000659201
0.000667853
0.000675481
0.000684828
0.0006917
0.000700708
0.000708305
0.000716596
0.000726264
0.00073897
0.000158243
0.000154808
0.000152255
0.00014987
0.000148137
0.00014631
0.000145065
0.000143481
0.000142715
0.000141057
0.000140844
0.000138996
0.000139146
0.000137383
0.000137432
0.000136125
0.000135835
0.000134865
0.000134681
0.000133254
0.000134141
0.000131339
0.000133794
0.000129805
0.000132903
0.000129088
0.000131477
0.000128698
0.000130317
0.000127733
0.000130093
0.000126077
0.000130265
0.000124624
0.000130015
0.000124048
0.000129287
0.000124037
0.00012906
0.000123877
0.000129567
0.000123912
0.00013087
0.000125154
0.000132966
0.000128113
0.000136645
0.000133137
0.000142475
0.000140458
0.000151069
0.000150647
0.000162399
0.000163721
0.000176509
0.000179477
0.000193022
0.000197436
0.000211899
0.000217656
0.000232924
0.000239761
0.0002557
0.000263645
0.000280182
0.000288915
0.000305907
0.000312355
0.000325268
0.000330721
0.000343614
0.000349538
0.00036252
0.000368991
0.000381976
0.000388943
0.000401852
0.000409189
0.000421961
0.000429838
0.000442362
0.000450767
0.000462941
0.000471925
0.000483626
0.000493372
0.000504522
0.000515003
0.000525674
0.000536698
0.000547041
0.000558573
0.000568586
0.000580694
0.000590555
0.000603191
0.000612947
0.000627008
0.000637284
0.000655406
0.000158236
0.000154835
0.000152251
0.000149926
0.000148144
0.000146397
0.000145092
0.000143611
0.000142753
0.00014126
0.000140875
0.000139301
0.000139177
0.000137781
0.000137514
0.000136568
0.000136029
0.000135336
0.000134985
0.000133809
0.00013447
0.000132104
0.000134008
0.00013091
0.000132928
0.000130508
0.000131459
0.000130183
0.000130518
0.000129072
0.000130516
0.000127419
0.00013058
0.000126315
0.00012987
0.000126069
0.000128739
0.000125818
0.000128242
0.000124896
0.000128384
0.000123837
0.000128429
0.000123358
0.000128103
0.000123229
0.000127984
0.000123137
0.00012834
0.000122978
0.000128953
0.000123416
0.000129771
0.000124464
0.000131125
0.000126684
0.000133527
0.000129819
0.000137223
0.000134647
0.000142631
0.000141331
0.000149642
0.000150069
0.000159139
0.00016105
0.000170791
0.000174094
0.000184656
0.000189458
0.000200341
0.000206484
0.000217743
0.000225238
0.000237062
0.000245675
0.000257859
0.000267508
0.000280034
0.000290743
0.000303562
0.000315126
0.000328085
0.000340428
0.000353405
0.000366474
0.000379543
0.000393184
0.000406344
0.000420335
0.000432818
0.000447373
0.000459959
0.000475052
0.000488296
0.000502689
0.000515626
0.000530038
0.000542347
0.000556556
0.000158226
0.000154859
0.000152239
0.000149962
0.00014814
0.000146447
0.000145085
0.000143702
0.000142709
0.000141431
0.000140778
0.000139539
0.000139079
0.00013801
0.000137503
0.000136741
0.000136103
0.000135531
0.000135021
0.000134179
0.00013433
0.000132745
0.000133677
0.000131747
0.000132556
0.000131352
0.000131225
0.000130915
0.00013043
0.000129825
0.000130337
0.000128452
0.000130116
0.000127696
0.000129183
0.000127576
0.000128076
0.000127222
0.000127614
0.000126269
0.000127558
0.000125379
0.00012719
0.000125016
0.00012649
0.00012479
0.000125975
0.000124351
0.00012579
0.000123783
0.000125592
0.000123517
0.000125349
0.000123334
0.000125109
0.000123407
0.000125131
0.000123445
0.000125316
0.000123841
0.000125749
0.000124753
0.000126349
0.000125917
0.000127722
0.000127755
0.000129829
0.000130181
0.000132811
0.000134196
0.000137088
0.000139465
0.000142825
0.000146353
0.000150576
0.00015533
0.000160328
0.000166227
0.000172259
0.000179512
0.00018666
0.000195214
0.000203384
0.000213322
0.000222494
0.000233639
0.000243959
0.000256265
0.00026773
0.000281111
0.000293454
0.000307647
0.000320988
0.000336043
0.000350428
0.000366152
0.000381029
0.000397137
0.000412245
0.000428339
0.000158217
0.000154874
0.000152226
0.000149977
0.000148132
0.000146458
0.00014507
0.000143739
0.000142648
0.000141528
0.000140657
0.000139673
0.000138957
0.000138096
0.000137461
0.000136738
0.000136122
0.000135524
0.00013497
0.000134323
0.000134077
0.000133103
0.000133264
0.000132159
0.000132206
0.000131602
0.000131063
0.00013101
0.000130305
0.000130021
0.000129993
0.000128909
0.00012956
0.000128267
0.000128649
0.000128035
0.000127699
0.000127582
0.000127246
0.000126736
0.000127039
0.000126017
0.000126575
0.000125691
0.000125919
0.000125462
0.000125443
0.000125071
0.000125243
0.000124656
0.000125029
0.000124485
0.000124877
0.000124402
0.000124824
0.000124551
0.000125035
0.000124826
0.000125499
0.000125475
0.000126209
0.000126663
0.000127292
0.000128297
0.000129231
0.000130824
0.000132187
0.000134239
0.000136323
0.000139271
0.000142019
0.000145857
0.000149439
0.000154313
0.000158941
0.000164993
0.000170646
0.000177767
0.000184638
0.000192957
0.000201076
0.000210544
0.000219832
0.000230406
0.000240647
0.000252122
0.000263331
0.000275727
0.000287916
0.000301215
0.000314214
0.000328153
0.000341972
0.000356524
0.000371216
0.000386436
0.000401791
0.000417596
0.000433552
0.000449935
0.000158211
0.000154879
0.000152211
0.000149974
0.000148113
0.00014644
0.000145041
0.000143716
0.000142587
0.00014152
0.000140544
0.000139675
0.000138815
0.000138062
0.000137334
0.000136627
0.00013602
0.000135359
0.000134828
0.000134194
0.000133792
0.000133076
0.000132842
0.000132128
0.000131812
0.000131399
0.000130785
0.000130661
0.000130003
0.000129739
0.000129479
0.000128794
0.000128908
0.000128148
0.000128102
0.00012777
0.000127336
0.000127308
0.00012691
0.000126687
0.000126679
0.000126244
0.000126407
0.000126141
0.000126209
0.000126287
0.000126352
0.000126603
0.000126884
0.000127275
0.000127854
0.000128693
0.000129666
0.000131038
0.000132659
0.000134755
0.000137215
0.000140156
0.000143643
0.000147641
0.000152251
0.000157488
0.00016323
0.000169764
0.000176763
0.000184553
0.000192542
0.000201337
0.000210342
0.000220139
0.000230103
0.000240806
0.000251669
0.000263207
0.000274885
0.00028721
0.000299562
0.00031252
0.000325454
0.000338945
0.000352354
0.000366248
0.000377435
0.000387805
0.00039823
0.000408897
0.000419921
0.000431306
0.000442901
0.000454988
0.000467265
0.000480013
0.000493013
0.000506495
0.000520336
0.000534615
0.000549102
0.000563891
0.000578204
0.00059247
0.000158206
0.000154875
0.00015219
0.000149955
0.00014807
0.000146395
0.000144975
0.000143636
0.000142486
0.000141403
0.000140391
0.000139523
0.000138593
0.000137863
0.000137045
0.000136354
0.000135679
0.000134987
0.000134429
0.000133742
0.000133282
0.00013259
0.0001322
0.000131576
0.000131115
0.000130698
0.000130089
0.000129843
0.000129257
0.000128952
0.000128605
0.000128111
0.000128015
0.000127535
0.000127477
0.000127307
0.000127254
0.000127402
0.000127498
0.000127856
0.000128507
0.000129333
0.000130711
0.000132393
0.000134715
0.000137559
0.000141113
0.000145346
0.000150397
0.000156168
0.000162804
0.000170206
0.000178204
0.000186979
0.000196317
0.000206369
0.000216962
0.000228162
0.000239889
0.000252108
0.000264806
0.000277898
0.000291376
0.00030519
0.000317308
0.000326985
0.000336678
0.000346574
0.000356583
0.0003668
0.000377131
0.000387632
0.00039814
0.000408813
0.000419517
0.000430358
0.00044121
0.000452188
0.000463158
0.000474232
0.00048529
0.000496417
0.000507536
0.000518787
0.000530028
0.000541309
0.000552545
0.000563766
0.000574907
0.000586032
0.000597036
0.000608071
0.000619001
0.000629956
0.00064082
0.000651685
0.000662359
0.00067289
0.000682896
0.000692633
0.000158199
0.000154855
0.000152145
0.000149893
0.000147969
0.00014627
0.000144798
0.000143417
0.000142213
0.000141058
0.000139993
0.000139035
0.000138033
0.000137228
0.00013629
0.000135558
0.000134726
0.000133997
0.000133284
0.000132527
0.000131928
0.000131162
0.000130632
0.000129899
0.000129312
0.000128764
0.000128145
0.000127854
0.000127456
0.000127365
0.000127248
0.000127536
0.000128236
0.000129436
0.000131338
0.000134001
0.000137506
0.000142043
0.000147545
0.000154176
0.000161721
0.000170208
0.000179572
0.000189786
0.000200806
0.000212558
0.000225027
0.000238082
0.000251775
0.000265894
0.000279409
0.000289755
0.000300452
0.000311291
0.000322229
0.000333345
0.00034453
0.000355832
0.000367188
0.0003786
0.000390067
0.000401545
0.000413075
0.000424594
0.00043613
0.000447749
0.000459389
0.000471004
0.000482519
0.000493946
0.000505212
0.000516377
0.000527359
0.000538222
0.000548961
0.000559559
0.000570037
0.000580365
0.000590572
0.000600636
0.000610593
0.000620393
0.00063009
0.000639763
0.000649372
0.000658916
0.000668264
0.000677498
0.000686589
0.000695561
0.000704324
0.000713007
0.000721456
0.000729806
0.000737938
0.000745889
0.000753697
0.000761107
0.000767912
0.000774291
0.000158179
0.000154799
0.000152023
0.000149709
0.000147679
0.000145881
0.000144259
0.000142729
0.00014135
0.000139983
0.000138747
0.00013754
0.000136356
0.000135285
0.000134114
0.000133155
0.000131974
0.000130939
0.000129756
0.000128717
0.000127727
0.000126938
0.000126246
0.000125574
0.000125511
0.000126051
0.000127469
0.00013005
0.000133728
0.000138931
0.000145422
0.000153389
0.00016246
0.000172785
0.00018413
0.000196517
0.000209807
0.000223951
0.000238874
0.000252109
0.000263732
0.000275573
0.000287597
0.000299796
0.000312075
0.000324415
0.000336762
0.000349115
0.000361443
0.000373753
0.000385976
0.000398234
0.000410415
0.000422464
0.000434311
0.000445963
0.00045737
0.000468564
0.000479525
0.000490273
0.000500827
0.000511173
0.000521364
0.000531346
0.000541176
0.00055092
0.000560603
0.000570089
0.000579429
0.000588595
0.000597597
0.000606433
0.000615107
0.000623603
0.000631902
0.000639992
0.000647889
0.000655589
0.000663101
0.000670464
0.000677645
0.000684652
0.000691514
0.000698235
0.000704843
0.000711334
0.000717705
0.000723959
0.000730109
0.000736168
0.000742094
0.00074792
0.000753585
0.000759163
0.000764649
0.000769898
0.000775102
0.000779891
0.000784277
0.000788331
0.000158112
0.000154624
0.00015161
0.000149107
0.000146666
0.000144524
0.000142368
0.000140364
0.00013837
0.000136469
0.000134769
0.000132822
0.000131007
0.000129057
0.000127382
0.000125822
0.000124063
0.000122564
0.000121905
0.00012216
0.000123956
0.00012708
0.000132247
0.00013892
0.000147642
0.000157891
0.00016984
0.000183117
0.000197712
0.000213327
0.000228923
0.000242207
0.00025555
0.000268983
0.00028236
0.000295719
0.000309005
0.000322244
0.000335341
0.00034835
0.000361185
0.000373824
0.000386138
0.000398077
0.000409593
0.000420742
0.000431503
0.000441957
0.000452061
0.000461891
0.000471349
0.000480609
0.000489587
0.000498317
0.000506797
0.000515048
0.000523053
0.000530838
0.00053839
0.000545727
0.000552858
0.000559777
0.000566524
0.000573069
0.000579468
0.000585677
0.000591781
0.000597724
0.000603561
0.000609254
0.000614847
0.000620301
0.000625685
0.000630431
0.000634838
0.00063914
0.000643329
0.000647426
0.000651427
0.000655344
0.000659177
0.000662935
0.000666618
0.000670232
0.000673784
0.000677263
0.000680701
0.000684053
0.000687376
0.000690611
0.000693817
0.000696944
0.000700042
0.000703064
0.000706064
0.000708973
0.000711869
0.000714638
0.000717337
0.000719888
0.000157848
0.000153944
0.000150098
0.000146714
0.000142567
0.000139332
0.000135254
0.000131828
0.000128209
0.000126001
0.000123585
0.000120684
0.000118657
0.000117783
0.000118581
0.00012104
0.000125553
0.000131905
0.000140396
0.000150799
0.000163413
0.000177683
0.000193339
0.000209776
0.000227101
0.000242463
0.000257128
0.000271489
0.000285532
0.000299181
0.000312284
0.000325006
0.000337189
0.000348903
0.000360094
0.000370857
0.000381149
0.000391034
0.000400402
0.000409334
0.000417818
0.000426067
0.000433042
0.0004392
0.000445009
0.00045052
0.000455762
0.000460767
0.00046556
0.000470157
0.000474582
0.000478843
0.000482953
0.000486931
0.000490771
0.000494501
0.000498107
0.000501615
0.000505012
0.000508318
0.000511532
0.000514655
0.000517707
0.000520673
0.000523579
0.000526408
0.000529184
0.000531896
0.00053455
0.000537149
0.00053969
0.000542181
0.000544616
0.000547011
0.000549336
0.000551608
0.000553817
0.000555976
0.000558083
0.000560145
0.000562163
0.000564139
0.000566079
0.00056798
0.000569856
0.000571691
0.000573515
0.000575291
0.000577062
0.000578781
0.000580499
0.000582167
0.000583836
0.000585452
0.000587077
0.000588627
0.000590198
0.000591647
0.000593038
0.000594291
0.00015664
0.00015121
0.000143349
0.000134632
0.000126076
0.000120993
0.000115009
0.000112503
0.00011246
0.000114184
0.000117967
0.000123456
0.000130609
0.000139121
0.000149055
0.000160162
0.0001726
0.000186213
0.000201279
0.000217291
0.000233487
0.000246948
0.000259667
0.000271863
0.000283095
0.000294109
0.000302633
0.000310052
0.00031674
0.000322883
0.000328609
0.000333959
0.000338907
0.000343512
0.000347778
0.000351758
0.000355474
0.000358967
0.000362253
0.000365369
0.000368316
0.000371131
0.000373814
0.000376353
0.000378748
0.000381014
0.000383159
0.0003852
0.000387147
0.000389011
0.000390803
0.000392531
0.000394202
0.000395821
0.000397385
0.000398909
0.000400381
0.000401819
0.000403211
0.00040457
0.000405892
0.00040718
0.00040844
0.000409667
0.000410872
0.000412048
0.000413206
0.000414342
0.000415461
0.00041656
0.000417641
0.000418706
0.00041975
0.000420781
0.000421788
0.000422776
0.00042374
0.000424683
0.000425607
0.00042651
0.000427398
0.000428268
0.000429125
0.000429966
0.0004308
0.000431617
0.000432434
0.000433231
0.000434033
0.000434813
0.000435599
0.000436362
0.000437136
0.000437882
0.000438644
0.000439357
0.000440096
0.000440743
0.000441341
0.000441815
0.00015162
0.000136819
0.000113477
9.95215e-05
9.76011e-05
9.81317e-05
0.000110573
0.000115045
0.000121818
0.000129685
0.000137977
0.000146234
0.000154212
0.000161679
0.000168584
0.000174823
0.00018049
0.00018557
0.000190195
0.000194427
0.000198335
0.00020207
0.000205554
0.000208849
0.000211872
0.000214677
0.000217314
0.000219722
0.000221895
0.000223823
0.000225515
0.00022702
0.000228354
0.000229555
0.000230629
0.000231604
0.000232487
0.000233296
0.000234044
0.000234738
0.000235393
0.000236004
0.000236596
0.000237175
0.000237731
0.000238264
0.000238769
0.00023925
0.000239705
0.00024014
0.000240557
0.000240959
0.00024135
0.000241731
0.000242104
0.000242472
0.000242833
0.000243191
0.000243542
0.000243891
0.000244235
0.000244573
0.00024491
0.000245239
0.000245566
0.000245887
0.000246208
0.000246523
0.000246839
0.000247153
0.000247464
0.000247776
0.000248086
0.000248398
0.000248706
0.000249015
0.00024932
0.000249622
0.00024992
0.000250213
0.000250502
0.000250786
0.000251067
0.000251344
0.00025162
0.000251893
0.000252165
0.000252434
0.000252706
0.000252973
0.000253244
0.000253512
0.000253781
0.000254051
0.000254318
0.000254584
0.000254847
0.000255066
0.000255285
0.000255447
2.45432e-05
3.47523e-05
4.04101e-05
4.23029e-05
4.20136e-05
4.05609e-05
3.87136e-05
3.7056e-05
3.56101e-05
3.44451e-05
3.35763e-05
3.29762e-05
3.25987e-05
3.23849e-05
3.22871e-05
3.22583e-05
3.22698e-05
3.2298e-05
3.2331e-05
3.2365e-05
3.23933e-05
3.24265e-05
3.24613e-05
3.24995e-05
3.2539e-05
3.25762e-05
3.26143e-05
3.26514e-05
3.26863e-05
3.27167e-05
3.27414e-05
3.27608e-05
3.27748e-05
3.27852e-05
3.27917e-05
3.27959e-05
3.27976e-05
3.27979e-05
3.27971e-05
3.27957e-05
3.27941e-05
3.27925e-05
3.27911e-05
3.27904e-05
3.27903e-05
3.27907e-05
3.27914e-05
3.27924e-05
3.27936e-05
3.2795e-05
3.27966e-05
3.27986e-05
3.28009e-05
3.28039e-05
3.28074e-05
3.28116e-05
3.28164e-05
3.28219e-05
3.2828e-05
3.28348e-05
3.28422e-05
3.28501e-05
3.28587e-05
3.28677e-05
3.28773e-05
3.28872e-05
3.28978e-05
3.29087e-05
3.29202e-05
3.29321e-05
3.29447e-05
3.29577e-05
3.29712e-05
3.29853e-05
3.29996e-05
3.30145e-05
3.30297e-05
3.30452e-05
3.30609e-05
3.30768e-05
3.30929e-05
3.31091e-05
3.31255e-05
3.31421e-05
3.31588e-05
3.31757e-05
3.31929e-05
3.32101e-05
3.32278e-05
3.32455e-05
3.32637e-05
3.32819e-05
3.33007e-05
3.33192e-05
3.33391e-05
3.33579e-05
3.33784e-05
3.33985e-05
3.34186e-05
3.34394e-05
2.21905e-06
0.000682128
0.00119332
0.00158348
0.0019405
0.00222087
0.00242696
0.00246848
0.00246043
0.00244558
0.00242931
0.00242015
0.00242346
0.00243698
0.00245667
0.00248187
0.00251191
0.00254742
0.00259023
0.00263899
0.00269443
0.00275517
0.00281933
0.00288787
0.00296192
0.00303804
0.00311323
0.00318933
0.00326057
0.00333175
0.00334911
0.00335028
0.00334816
0.00334279
0.00333426
0.00332267
0.00330829
0.00329121
0.00327149
0.00324925
0.00322442
0.00319689
0.00316654
0.00313339
0.00309728
0.00305826
0.00301642
0.00297208
0.00292511
0.00287606
0.00282533
0.00277378
0.00272127
0.00266876
0.00261664
0.00256617
0.00251677
0.00246968
0.00242468
0.00238325
0.00234365
0.0023072
0.00227275
0.00224253
0.00221279
0.00218455
0.00215453
0.00212785
0.00209989
0.00207348
0.00204017
0.00200929
0.00197727
0.00195654
0.00193306
0.0019105
0.00187269
0.00183468
0.00179594
0.00177642
0.00177151
0.00179097
0.00182098
0.00186975
0.00191417
0.00196422
0.00199199
0.00201294
0.00200973
0.00199864
0.00197485
0.0019466
0.00191864
0.00187493
0.00186289
0.00178936
0.00179976
0.00169819
0.00171101
0.00159333
0.000171147
0.000439922
0.00087733
0.00126697
0.00161505
0.00189611
0.00211011
0.00225965
0.00236351
0.00236039
0.00234125
0.00233179
0.00232943
0.00233313
0.00234288
0.00235919
0.00238199
0.00241117
0.00244816
0.00249017
0.00253615
0.00258616
0.00264021
0.00269844
0.00276294
0.00283182
0.0029035
0.00297812
0.00306012
0.0031443
0.00322859
0.00324088
0.00324449
0.00324434
0.00324061
0.00323346
0.00322323
0.00321001
0.00319384
0.00317485
0.00315301
0.00312817
0.00310025
0.00306925
0.00303505
0.0029977
0.00295733
0.00291427
0.00286848
0.00282044
0.00277073
0.0027202
0.00266886
0.00261759
0.00256702
0.00251834
0.00247121
0.00242671
0.00238494
0.0023472
0.00231197
0.00228007
0.00225063
0.00222544
0.00220114
0.0021778
0.00215244
0.00212941
0.0021053
0.00208226
0.00205281
0.00202471
0.00199591
0.00197818
0.0019598
0.00194298
0.00191144
0.00187711
0.00183881
0.00181662
0.00180657
0.00182084
0.00184421
0.00188837
0.00192642
0.00197345
0.00199543
0.00201425
0.00200647
0.00199415
0.0019697
0.00194156
0.00191712
0.00187463
0.0018671
0.00179536
0.0018093
0.00170784
0.00172315
0.00160334
0.000472646
0.000384986
0.000566838
0.000876766
0.00120356
0.00148369
0.00170588
0.00187005
0.00199048
0.00207693
0.00214201
0.00219868
0.00221585
0.00222079
0.00223195
0.00225067
0.00227663
0.00230823
0.00234313
0.00237997
0.00241913
0.00246105
0.0025072
0.0025565
0.00261094
0.00266989
0.00273427
0.0028019
0.00288093
0.00296036
0.00306234
0.00310179
0.00311266
0.00311906
0.00312134
0.00311974
0.00311467
0.00310623
0.00309445
0.00307948
0.00306132
0.00303983
0.00301492
0.0029866
0.0029548
0.00291954
0.00288105
0.00283962
0.00279534
0.00274862
0.00270022
0.002651
0.00260115
0.00255147
0.00250284
0.00245641
0.00241212
0.00237085
0.00233309
0.0022999
0.00227003
0.00224366
0.00222026
0.00220104
0.00218312
0.00216552
0.00214558
0.00212673
0.00210697
0.00208766
0.00206262
0.0020378
0.00201281
0.00199827
0.00198529
0.00197443
0.0019501
0.00192063
0.00188422
0.00186016
0.00184515
0.00185359
0.00186934
0.00190744
0.00193781
0.00198005
0.00199508
0.00201004
0.00199703
0.00198211
0.00195719
0.00192841
0.00190839
0.00186695
0.00186481
0.00179542
0.00181341
0.00171273
0.00173099
0.00160957
0.000592755
0.000584788
0.000544479
0.000613925
0.00079872
0.0010219
0.00122961
0.0013995
0.00153353
0.00163841
0.00172159
0.00179484
0.00186026
0.00192236
0.00198451
0.00204865
0.00211447
0.00217406
0.00221364
0.00225337
0.00229498
0.00233875
0.00238619
0.00243529
0.00248772
0.00254306
0.00260345
0.00266607
0.00273722
0.00280625
0.00289449
0.00292381
0.00294396
0.00295881
0.00296887
0.00297444
0.00297605
0.00297377
0.00296765
0.00295783
0.00294437
0.00292714
0.00290607
0.00288117
0.00285243
0.00281987
0.00278376
0.00274445
0.0027021
0.00265711
0.00261041
0.0025629
0.00251501
0.00246744
0.00242138
0.0023779
0.00233728
0.00230019
0.00226756
0.0022401
0.00221684
0.00219724
0.0021811
0.00216893
0.00215842
0.00214736
0.00213363
0.00211947
0.00210451
0.0020892
0.00206912
0.0020481
0.0020276
0.00201652
0.00200917
0.00200427
0.00198783
0.00196424
0.00193129
0.00190643
0.00188705
0.00188915
0.00189646
0.00192679
0.0019481
0.00198323
0.00199004
0.00199872
0.00197992
0.00196057
0.00193562
0.00190526
0.00189078
0.00185021
0.00185443
0.00178791
0.00181049
0.00171129
0.00173295
0.00161048
0.000699982
0.000706295
0.000689856
0.000664561
0.000666023
0.000723366
0.000820788
0.000935056
0.00104642
0.00114844
0.00123752
0.00131962
0.00139672
0.0014715
0.00154597
0.00162214
0.00169977
0.00177957
0.00185917
0.00193859
0.00201757
0.00209526
0.0021711
0.00224433
0.00231509
0.0023821
0.00244601
0.00250512
0.00256068
0.00260989
0.0026572
0.00269627
0.00272813
0.00275392
0.00277408
0.00278901
0.00279939
0.00280517
0.00280646
0.00280339
0.00279607
0.00278439
0.00276832
0.00274786
0.00272312
0.00269405
0.00266107
0.00262452
0.00258473
0.00254206
0.00249769
0.00245256
0.00240737
0.00236277
0.00232027
0.00228087
0.00224524
0.00221379
0.00218788
0.00216775
0.00215271
0.00214134
0.00213383
0.00212981
0.00212761
0.00212378
0.00211685
0.00210776
0.00209792
0.0020868
0.00207209
0.00205538
0.00204008
0.00203276
0.00203117
0.00203197
0.00202366
0.00200657
0.00197854
0.001954
0.00193117
0.00192657
0.00192483
0.00194545
0.00195637
0.00198145
0.0019788
0.00197811