/*--------------------------------*- C++ -*----------------------------------*\
| =========                 |                                                 |
| \\      /  F ield         | OpenFOAM: The Open Source CFD Toolbox           |
|  \\    /   O peration     | Version:  v2012                                 |
|   \\  /    A nd           | Website:  www.openfoam.com                      |
|    \\/     M anipulation  |                                                 |
\*---------------------------------------------------------------------------*/
FoamFile
{
    version     2.0;
    format      ascii;
    class       volScalarField;
    location    "0.148";
    object      nut.air;
}
// * * * * * * * * * * * * * * * * * * * * * * * * * * * * * * * * * * * * * //

dimensions      [0 2 -1 0 0 0 0];


internalField   nonuniform List<scalar> 
5600
(
2.45135e-05
3.47347e-05
4.04095e-05
4.24626e-05
4.22717e-05
4.09705e-05
3.92088e-05
3.75391e-05
3.6113e-05
3.4947e-05
3.40609e-05
3.3437e-05
3.30377e-05
3.28034e-05
3.2698e-05
3.26564e-05
3.26759e-05
3.26923e-05
3.27438e-05
3.27588e-05
3.28097e-05
3.28107e-05
3.28622e-05
3.28637e-05
3.29229e-05
3.29314e-05
3.29859e-05
3.30097e-05
3.30456e-05
3.30903e-05
3.30937e-05
3.31557e-05
3.31284e-05
3.31921e-05
3.31612e-05
3.31954e-05
3.32025e-05
3.31736e-05
3.32451e-05
3.31466e-05
3.32699e-05
3.31431e-05
3.32585e-05
3.31769e-05
3.32156e-05
3.32379e-05
3.31661e-05
3.32901e-05
3.31464e-05
3.32979e-05
3.31821e-05
3.32495e-05
3.32725e-05
3.31654e-05
3.33753e-05
3.3104e-05
3.34255e-05
3.31235e-05
3.33815e-05
3.32412e-05
3.32634e-05
3.34027e-05
3.31539e-05
3.35097e-05
3.31454e-05
3.34965e-05
3.32576e-05
3.33941e-05
3.34147e-05
3.33039e-05
3.35066e-05
3.33179e-05
3.34866e-05
3.34313e-05
3.3408e-05
3.35627e-05
3.33634e-05
3.36256e-05
3.34071e-05
3.35955e-05
3.3512e-05
3.35202e-05
3.36114e-05
3.34614e-05
3.36576e-05
3.3442e-05
3.36601e-05
3.34404e-05
3.36458e-05
3.34523e-05
3.35954e-05
3.35397e-05
3.34208e-05
3.37979e-05
3.30222e-05
3.44157e-05
3.18702e-05
3.66142e-05
2.69596e-05
4.59545e-05
0.000151657
0.000137405
0.000112249
9.86216e-05
9.39073e-05
9.49405e-05
0.00010211
0.000110112
0.000116495
0.000124301
0.000132749
0.000141209
0.000149507
0.000157204
0.000164494
0.000170854
0.000176921
0.000181929
0.000186939
0.000190869
0.0001952
0.000198372
0.000202351
0.000205103
0.000208723
0.000211143
0.000214159
0.000216549
0.000218713
0.000221237
0.00022235
0.00022495
0.000225331
0.000227654
0.000228097
0.000229411
0.000230864
0.000230462
0.000233318
0.000231432
0.000235053
0.000232933
0.000235761
0.000235154
0.000235732
0.000237645
0.000235683
0.000239491
0.000236439
0.000240049
0.000238482
0.000239245
0.000241514
0.00023785
0.000244217
0.000237383
0.000245186
0.000239057
0.00024384
0.000242793
0.000241171
0.000246696
0.000239501
0.000248532
0.000240488
0.000247477
0.000243935
0.000244978
0.000247445
0.000243684
0.000248751
0.000244948
0.00024763
0.000247865
0.00024586
0.000250436
0.000245481
0.00025116
0.000247112
0.000250106
0.000249693
0.000248717
0.000251739
0.000248001
0.000252646
0.000247847
0.000252952
0.000247795
0.00025294
0.000248071
0.000251986
0.000249771
0.000249319
0.000252827
0.000246014
0.000256526
0.0002403
0.000266465
0.000222303
0.000275954
0.000156516
0.000151564
0.00014304
0.000135163
0.000125256
0.000120716
0.000113793
0.000109665
0.00010877
0.000109724
0.000112795
0.000117284
0.000123862
0.000131142
0.000140537
0.000150016
0.000161922
0.000173264
0.000187743
0.000201004
0.000217815
0.000232052
0.000246896
0.000257672
0.000270734
0.000280639
0.000290551
0.000298766
0.000304695
0.000312891
0.000316251
0.00032456
0.000326875
0.000333787
0.000337327
0.000340603
0.000347322
0.000346075
0.000355933
0.000351805
0.000361997
0.00035905
0.000365241
0.000367498
0.000367079
0.000375313
0.000369541
0.000380564
0.000374439
0.000382026
0.000382283
0.000380481
0.0003913
0.000378883
0.000397972
0.000381035
0.000399118
0.000388776
0.000394991
0.000399753
0.000389806
0.000408658
0.000389033
0.000410961
0.000395205
0.000406994
0.000405121
0.000402326
0.000412458
0.000402393
0.000413683
0.000408027
0.00041067
0.000415294
0.000408237
0.000420029
0.000409717
0.000420413
0.000415073
0.000418455
0.00042085
0.000417094
0.000424821
0.000416798
0.000427254
0.000416541
0.000428994
0.000416162
0.000429536
0.000416865
0.000427978
0.000419
0.000426359
0.000418238
0.000430474
0.000410825
0.000441648
0.000400138
0.00044313
0.000394137
0.000157815
0.000154001
0.000150089
0.00014676
0.000142711
0.000139188
0.000135653
0.000131357
0.000128421
0.000124575
0.00012346
0.000119414
0.000118128
0.00011483
0.00011661
0.000115484
0.000121285
0.000122976
0.000133138
0.000137815
0.000152211
0.000160363
0.000178142
0.000189681
0.000208193
0.00022316
0.000238605
0.000253821
0.000264675
0.000282324
0.000290038
0.000308404
0.000315109
0.000330699
0.000340945
0.000348828
0.000366294
0.000365163
0.0003885
0.000382677
0.000405016
0.000403255
0.000415898
0.000425693
0.000422181
0.000442334
0.000430633
0.000452724
0.000444208
0.000455679
0.000462619
0.000454052
0.000481337
0.000454377
0.000493215
0.000463391
0.000493751
0.000482315
0.000485956
0.000504555
0.000479265
0.000519612
0.000483191
0.000521213
0.000499193
0.000513489
0.00051862
0.000508006
0.000530234
0.000512817
0.000530732
0.000525929
0.000526185
0.000538937
0.000524914
0.000545893
0.000530817
0.000546029
0.000541709
0.000544387
0.000551261
0.000544812
0.000557813
0.000545768
0.000563015
0.000545497
0.000566988
0.000545481
0.000567454
0.000548238
0.000563756
0.000552373
0.000561847
0.000549797
0.00056888
0.000539536
0.000580234
0.000531653
0.000580065
0.000546725
0.000158113
0.000154614
0.000151638
0.000149069
0.000146761
0.000144439
0.000142572
0.000140184
0.000138757
0.000135994
0.000135442
0.000131849
0.000132464
0.000127063
0.000129881
0.000122182
0.000128206
0.000117254
0.000126082
0.000114461
0.000126105
0.000117062
0.000129708
0.000127306
0.000138041
0.000145696
0.000152013
0.000170756
0.000172332
0.000199385
0.000200055
0.000227808
0.000232054
0.000248345
0.000263906
0.000266743
0.000296078
0.000286864
0.00032391
0.000312774
0.000344367
0.000345263
0.000358649
0.000379949
0.000372186
0.000409566
0.000391057
0.000428755
0.000419511
0.000435968
0.000455688
0.000436529
0.000490043
0.000443193
0.000510588
0.000465803
0.000512195
0.000504095
0.000501538
0.000544188
0.000496431
0.000569012
0.000510552
0.000571045
0.000543989
0.000559938
0.000578254
0.000556283
0.000596698
0.000570654
0.000597674
0.000596628
0.000592838
0.000618638
0.000595424
0.000627691
0.000609402
0.00062856
0.000628124
0.000630083
0.000641485
0.000634804
0.000651866
0.00063788
0.000661666
0.000638271
0.000668365
0.0006402
0.000667751
0.000647063
0.000660462
0.000654493
0.000657282
0.000651579
0.000664359
0.000641606
0.000673152
0.000636346
0.000667113
0.000654702
0.000158182
0.000154789
0.000152038
0.000149682
0.000147728
0.00014581
0.0001444
0.000142524
0.000141733
0.000139435
0.000139652
0.000136264
0.000138249
0.000132735
0.000137603
0.000128679
0.000137687
0.000124217
0.000137697
0.000120167
0.000136317
0.000118804
0.000131611
0.000122613
0.000122292
0.000131482
0.00011228
0.0001424
0.000109523
0.000149384
0.000121241
0.00014963
0.000148987
0.000147485
0.000185402
0.000152231
0.000218193
0.000172266
0.000238567
0.000210219
0.000248676
0.000253892
0.000254161
0.000292819
0.00026465
0.000322145
0.000289188
0.000336091
0.00032973
0.000336171
0.000379072
0.00033463
0.000421501
0.000348756
0.000441184
0.000388468
0.000435747
0.000445842
0.000420648
0.000498216
0.000421459
0.0005242
0.000452496
0.000520587
0.000503875
0.000507129
0.000547134
0.000511749
0.000566008
0.000540509
0.000566571
0.000577733
0.000566242
0.000605978
0.000577636
0.000619542
0.000601895
0.00062351
0.000629308
0.000631214
0.000649687
0.000643051
0.000666563
0.000650032
0.000682682
0.000653036
0.000691994
0.000658779
0.00068901
0.000671041
0.000677208
0.000681493
0.000673602
0.000676149
0.000683217
0.000663219
0.000694413
0.000656356
0.000690507
0.00067795
0.000158202
0.000154847
0.000152157
0.000149871
0.000148006
0.000146203
0.000144919
0.000143211
0.000142564
0.000140515
0.000140837
0.000137827
0.000139764
0.000134896
0.000139411
0.000131579
0.000139684
0.000128098
0.000139954
0.000125464
0.000138591
0.000125875
0.000133024
0.000131977
0.000121358
0.000143757
0.000106223
0.000154519
9.80087e-05
0.000151281
0.000111003
0.00012532
0.000147387
8.7202e-05
0.000186678
6.35595e-05
0.000198745
7.62872e-05
0.000175804
0.000124682
0.000139264
0.000185211
0.00011682
0.000227533
0.000124772
0.000236386
0.000168356
0.000218129
0.000240064
0.000193788
0.000307932
0.000188999
0.000342187
0.000222241
0.000338454
0.000282562
0.00030984
0.00035555
0.000286202
0.000408098
0.000295152
0.000420089
0.000343262
0.000401648
0.00040676
0.000387407
0.000449524
0.00040346
0.000461322
0.000444217
0.000460444
0.000486615
0.000467373
0.00051442
0.000488085
0.00052716
0.000519322
0.000535538
0.000548768
0.000553558
0.000570533
0.000573005
0.000594899
0.00058288
0.000618855
0.000589588
0.000630989
0.000600383
0.000627381
0.000616948
0.000615001
0.000626684
0.000613629
0.000620314
0.000621182
0.000609395
0.000629607
0.000604316
0.000625879
0.000619309
0.000158208
0.000154869
0.000152196
0.000149942
0.00014809
0.000146355
0.00014505
0.000143498
0.000142722
0.000141025
0.000140967
0.000138692
0.000139756
0.000136303
0.00013909
0.000133765
0.000138844
0.000131282
0.000138476
0.000129679
0.000136728
0.000130578
0.000131768
0.000135591
0.000122652
0.000143818
0.000112326
0.000149169
0.000109912
0.000141679
0.000126333
0.000114645
0.000159921
7.47278e-05
0.000189056
4.89495e-05
0.000187881
7.16484e-05
0.00014615
0.000139766
7.90664e-05
0.000205433
2.535e-05
0.000227699
2.97956e-05
0.000190136
0.000105911
0.000108942
0.000213143
3.22782e-05
0.00027988
1.10689e-05
0.000274373
6.9261e-05
0.000206226
0.000189607
0.00012872
0.000286906
0.000103552
0.000316497
0.000142643
0.000291494
0.000230051
0.00025102
0.000301081
0.000249025
0.000333464
0.000285709
0.000333627
0.00033094
0.000329037
0.000365376
0.000340593
0.000383051
0.000366005
0.000391399
0.000396116
0.000404203
0.000417974
0.000430886
0.000437054
0.000452767
0.000468183
0.000463242
0.000497998
0.000473907
0.000513373
0.00048858
0.000511772
0.000507185
0.000502252
0.000514861
0.000501852
0.000511688
0.000503076
0.000505009
0.00050809
0.000500394
0.000507801
0.000502275
0.000158211
0.00015488
0.000152209
0.000149976
0.000148112
0.000146433
0.000145066
0.00014366
0.000142694
0.000141342
0.000140817
0.000139284
0.000139355
0.000137345
0.000138262
0.000135459
0.000137433
0.000133731
0.00013655
0.000132587
0.000134953
0.000132796
0.000131793
0.000134963
0.000126887
0.000138264
0.000122196
0.000139409
0.000122359
0.000133718
0.000131431
0.000119017
0.000146468
0.000100956
0.000156592
9.47836e-05
0.000151204
0.00011253
0.000126837
0.00014518
8.91684e-05
0.000171628
6.03601e-05
0.000176027
7.56115e-05
0.00014829
0.000136425
8.39008e-05
0.000191296
1.84063e-05
0.000191153
5.06177e-05
0.000204042
8.00043e-05
0.000133986
0.000204277
7.28481e-06
0.000238374
1.85852e-06
0.000224651
8.4362e-05
0.000179605
0.000174028
0.000119765
0.000187913
0.000129165
0.000186421
0.000185577
0.000181963
0.000215332
0.000189703
0.000222555
0.00021324
0.000227364
0.000242978
0.000236678
0.000265267
0.000264089
0.000271706
0.000305083
0.000289128
0.000329534
0.000326977
0.000346255
0.000361555
0.000362203
0.000388766
0.000375089
0.000400499
0.000388721
0.000399868
0.000393107
0.00039729
0.000403913
0.000385542
0.000403931
0.00038311
0.00040034
0.000387601
0.000385012
0.000158212
0.000154885
0.000152214
0.000149993
0.000148118
0.000146472
0.000145063
0.000143743
0.000142656
0.00014151
0.000140697
0.000139604
0.000139075
0.000137915
0.000137722
0.000136381
0.000136565
0.000135017
0.000135464
0.000133954
0.000134172
0.00013343
0.000132418
0.000133581
0.000130228
0.000134025
0.000128362
0.000133592
0.000128284
0.000130863
0.000130949
0.000125664
0.000135044
0.000120505
0.000137015
0.000119712
0.000133716
0.00012525
0.000125077
0.000134044
0.000114843
0.000140289
0.000110313
0.000138538
0.000118198
0.000125629
0.000135904
0.000104855
0.000148707
9.57639e-05
0.000142603
0.000115826
0.000123928
0.000142214
9.83925e-05
0.000161502
7.84287e-05
0.00015254
0.000110687
0.000129396
0.000146424
0.000111605
0.000158346
0.000109915
0.000136371
0.000138551
0.000116123
0.000163349
0.000113208
0.000165673
0.000122225
0.000159345
0.000139589
0.000148602
0.000164913
0.000139882
0.000180971
0.000154019
0.000178282
0.000182591
0.000182611
0.000205943
0.000197435
0.000232488
0.000214176
0.000250818
0.000238622
0.000256445
0.000260789
0.000252093
0.000282519
0.000243521
0.000282238
0.000259661
0.000258917
0.00027701
0.000239565
0.000287822
0.000236664
0.000265528
0.000158212
0.000154885
0.000152213
0.000149995
0.000148115
0.000146479
0.000145052
0.000143761
0.000142628
0.000141554
0.000140633
0.000139696
0.000138948
0.000138086
0.000137499
0.000136662
0.000136228
0.000135398
0.000135069
0.00013431
0.000133931
0.000133449
0.000132729
0.000132833
0.000131473
0.000132333
0.000130376
0.000131615
0.000129809
0.000130322
0.000129981
0.000128472
0.000130518
0.000126755
0.000130481
0.000126195
0.000129035
0.000127248
0.000126271
0.00012914
0.000123543
0.000129875
0.000123403
0.000126826
0.0001282
0.000119085
0.000136086
0.000111483
0.000138641
0.000114528
0.000127576
0.000132173
0.000107375
0.000151165
9.43823e-05
0.000155053
0.000100827
0.000138205
0.000124915
0.000114757
0.000146523
0.000104747
0.000150664
0.000112834
0.000137835
0.00012907
0.000130078
0.000140793
0.000130212
0.000152256
0.000127061
0.000168207
0.000127697
0.000174527
0.000146927
0.000167933
0.000176988
0.000163407
0.00020247
0.000170808
0.000221173
0.000196664
0.000227727
0.000240476
0.000228339
0.000277357
0.000237103
0.00029244
0.000256927
0.000282048
0.00029089
0.000258886
0.000308096
0.000257539
0.000295037
0.000273097
0.000270417
0.000296797
0.000250578
0.000298619
0.00015821
0.000154882
0.000152206
0.000149984
0.000148098
0.000146459
0.000145023
0.000143733
0.00014258
0.000141517
0.00014056
0.000139653
0.000138841
0.000138042
0.000137347
0.00013662
0.000136027
0.000135345
0.000134838
0.000134204
0.000133729
0.000133206
0.000132648
0.000132362
0.00013156
0.000131666
0.000130476
0.000131055
0.000129476
0.000130406
0.000128705
0.000129546
0.000128336
0.000128336
0.000128441
0.000126851
0.000128742
0.00012564
0.000128491
0.000125522
0.000127164
0.000126457
0.000125863
0.000126343
0.00012733
0.000123067
0.000132233
0.000119017
0.000135325
0.000120566
0.000131363
0.000129719
0.000124524
0.000139381
0.000124091
0.000142965
0.000131904
0.000143634
0.000142263
0.000149036
0.000150193
0.00016148
0.000157909
0.000176093
0.000172043
0.000186369
0.000195865
0.000193355
0.00022147
0.000209011
0.000237954
0.000239498
0.000247287
0.000274479
0.000260724
0.00030065
0.00028612
0.000316783
0.00032381
0.00033079
0.000364491
0.000353012
0.00039051
0.000381838
0.00040675
0.000406503
0.000413195
0.000427741
0.000414102
0.000438902
0.000417964
0.000435159
0.00042691
0.00042438
0.000434125
0.000415815
0.000434248
0.000416009
0.000424355
0.000422031
0.000158207
0.000154873
0.000152189
0.000149959
0.000148061
0.00014641
0.000144957
0.000143652
0.000142478
0.000141399
0.000140411
0.000139489
0.000138635
0.000137825
0.000137073
0.000136341
0.00013568
0.000134991
0.000134424
0.000133749
0.000133265
0.000132618
0.000132159
0.000131627
0.000131032
0.000130855
0.000129781
0.0001304
0.000128347
0.000130283
0.000126841
0.000130195
0.00012581
0.000129491
0.000126167
0.000127521
0.000128457
0.000124697
0.00013156
0.000122897
0.000133599
0.000124793
0.000133936
0.000130742
0.000134762
0.000138729
0.000139216
0.000147432
0.000148333
0.000158036
0.000161226
0.000171351
0.000177799
0.000186296
0.000198452
0.000202868
0.000221651
0.000223162
0.000244168
0.000249453
0.000264767
0.000280879
0.000285741
0.000313014
0.000309531
0.000334446
0.000330784
0.000348793
0.000357393
0.000362478
0.000383657
0.00038096
0.000404308
0.000405097
0.000419134
0.000431198
0.00043487
0.000456042
0.000456688
0.000478211
0.000484651
0.000497825
0.000512884
0.00051593
0.00053424
0.000532319
0.000546042
0.00054584
0.00054895
0.000555748
0.000547878
0.000558708
0.000548661
0.000555027
0.000551755
0.000548746
0.000554502
0.000544706
0.000552278
0.000545036
0.0001582
0.000154852
0.000152147
0.000149893
0.000147965
0.000146279
0.000144784
0.000143432
0.0001422
0.000141063
0.000140002
0.000139012
0.000138069
0.000137187
0.000136329
0.000135529
0.000134746
0.000133987
0.00013329
0.000132523
0.000131931
0.00013115
0.000130655
0.000129863
0.000129334
0.000128803
0.000127963
0.000128284
0.000126666
0.000128599
0.000125534
0.000129684
0.000125804
0.000131907
0.000129157
0.000135527
0.000136928
0.000141481
0.000149258
0.000151507
0.00016504
0.000166732
0.000182722
0.000187424
0.000202074
0.000212447
0.000224055
0.000239871
0.000249435
0.00026849
0.000276862
0.000291927
0.000299048
0.000311801
0.00032294
0.000331406
0.000347724
0.000351666
0.000371596
0.000374486
0.000392922
0.000400529
0.000411961
0.000427903
0.000431003
0.000453526
0.000453349
0.000475364
0.00048008
0.000493784
0.000507959
0.000511999
0.000532344
0.000532862
0.000551348
0.00055654
0.000568142
0.000581254
0.000586922
0.00060492
0.000608502
0.00062458
0.000630115
0.000639552
0.000647506
0.000649614
0.000658632
0.000656407
0.000662938
0.000661409
0.000662485
0.000664243
0.000660823
0.000664533
0.000660134
0.000662706
0.000660763
0.00065977
0.000660797
0.000657327
0.00015818
0.000154796
0.000152025
0.000149707
0.000147679
0.000145884
0.000144251
0.000142741
0.000141337
0.000139994
0.000138743
0.000137533
0.000136376
0.000135256
0.000134151
0.000133119
0.000132006
0.000130913
0.000129775
0.000128703
0.000127734
0.000126926
0.000126267
0.000125535
0.000125556
0.00012602
0.000127452
0.000130156
0.000133485
0.000139354
0.0001448
0.000154209
0.000161465
0.000173891
0.000183008
0.00019752
0.00020908
0.000224278
0.000239065
0.000251565
0.000264762
0.000274186
0.000289154
0.000298265
0.000313305
0.000323659
0.000336853
0.000349673
0.000360321
0.000375266
0.000384227
0.000400017
0.000408892
0.000423547
0.000434046
0.000445334
0.000459027
0.00046587
0.000482835
0.000486611
0.000504152
0.00050895
0.000522219
0.000532278
0.000538416
0.000554606
0.000555811
0.000574486
0.000575954
0.000590702
0.000597647
0.000604678
0.000617645
0.000619314
0.000634424
0.000636143
0.000648751
0.00065456
0.000662652
0.000672432
0.000676415
0.00068779
0.000689299
0.000698853
0.000700071
0.000704864
0.000707623
0.000707428
0.000711821
0.000708598
0.00071272
0.000709615
0.000711431
0.000710725
0.000709387
0.000711491
0.000708129
0.000710895
0.000707599
0.000708654
0.000158113
0.000154621
0.000151612
0.000149104
0.000146667
0.000144525
0.000142364
0.000140372
0.000138358
0.000136483
0.000134757
0.000132829
0.00013101
0.000129044
0.000127404
0.000125795
0.000124091
0.000122537
0.000121926
0.000122144
0.000123963
0.000127078
0.00013225
0.000138913
0.000147658
0.000157875
0.000169852
0.000183122
0.000197667
0.000213425
0.000228763
0.000242454
0.000255199
0.00026943
0.000281835
0.000296274
0.000308497
0.00032263
0.000335176
0.000348248
0.000361625
0.000373121
0.000387038
0.000397094
0.000410522
0.000419955
0.000431956
0.000441962
0.000451592
0.000462724
0.00047022
0.000481871
0.000488291
0.000499466
0.000506101
0.000515147
0.000523727
0.000529383
0.000540471
0.000543142
0.00055556
0.000557447
0.000568096
0.000572701
0.000578457
0.000587675
0.000588727
0.000601073
0.000600372
0.000611846
0.00061361
0.000620207
0.000626519
0.000627949
0.000636525
0.000636533
0.000644383
0.000646297
0.000651647
0.000656136
0.000658729
0.000664776
0.000665282
0.000671183
0.000670863
0.000674879
0.000675259
0.000676209
0.000678181
0.00067629
0.000679422
0.00067631
0.000679059
0.000676966
0.000677557
0.000678144
0.000675955
0.000678852
0.000675372
0.000678274
0.000157849
0.000153942
0.0001501
0.000146712
0.000142568
0.000139331
0.000135253
0.000131832
0.0001282
0.000126014
0.000123573
0.000120696
0.00011865
0.000117785
0.000118585
0.000121032
0.000125564
0.000131892
0.000140406
0.00015079
0.000163418
0.000177683
0.000193341
0.000209778
0.000227106
0.000242455
0.000257138
0.00027148
0.000285528
0.000299209
0.000312234
0.000325088
0.000337048
0.000349099
0.00035984
0.000371151
0.000380843
0.000391319
0.000400199
0.000409397
0.000417947
0.000425744
0.000433545
0.000438622
0.000445584
0.000450035
0.000456065
0.000460701
0.000465373
0.00047058
0.000473963
0.000479595
0.000482174
0.00048765
0.000490265
0.000494702
0.000498308
0.000500943
0.000506112
0.000506878
0.000513133
0.000513185
0.000518814
0.000520126
0.000523349
0.000527276
0.000527643
0.000533774
0.000532635
0.000538812
0.000538568
0.000542497
0.000544738
0.00054587
0.00055028
0.000549882
0.000554945
0.00055477
0.000558921
0.000560019
0.000562336
0.000564894
0.000565159
0.000568634
0.000567501
0.000570779
0.000569553
0.000571285
0.000571307
0.000570737
0.00057252
0.000570074
0.00057279
0.00057012
0.000571983
0.000571034
0.000570549
0.000572119
0.000569431
0.000572204
0.000156641
0.000151208
0.000143351
0.000134629
0.000126077
0.000120991
0.000115009
0.000112504
0.000112456
0.00011419
0.000117961
0.000123463
0.000130604
0.000139124
0.000149054
0.00016016
0.000172602
0.000186206
0.000201284
0.000217285
0.000233493
0.000246944
0.000259671
0.000271863
0.000283097
0.000294107
0.000302637
0.000310048
0.000316739
0.000322892
0.000328581
0.000334009
0.000338827
0.000343622
0.000347639
0.000351919
0.000355311
0.000359117
0.000362151
0.000365404
0.000368372
0.000370986
0.000374036
0.000376074
0.000379052
0.000380723
0.00038338
0.00038509
0.000387126
0.000389164
0.000390533
0.000392903
0.000393778
0.000396256
0.000397026
0.000399138
0.000400343
0.000401618
0.000403663
0.00040389
0.000406741
0.000406305
0.000409211
0.00040912
0.000411048
0.000412225
0.000412632
0.000415218
0.000414433
0.000417593
0.000416747
0.000419228
0.00041942
0.000420516
0.000422095
0.000421977
0.000424469
0.000423905
0.000426414
0.000426158
0.000427884
0.000428408
0.000428854
0.000430258
0.000429515
0.000431409
0.000430128
0.000431669
0.000430855
0.000431205
0.000431622
0.000430506
0.000432093
0.000430181
0.000431935
0.000430517
0.000431135
0.000431293
0.000430126
0.00043159
0.000151621
0.000136817
0.000113478
9.95201e-05
9.76014e-05
9.81312e-05
0.000110573
0.000115045
0.000121818
0.000129687
0.000137976
0.000146235
0.000154211
0.000161681
0.000168583
0.000174824
0.000180491
0.000185568
0.000190197
0.000194425
0.000198337
0.000202068
0.000205556
0.000208848
0.000211873
0.000214676
0.000217315
0.00021972
0.000221896
0.000223823
0.00022551
0.000227033
0.000228332
0.000229587
0.000230585
0.000231659
0.000232426
0.000233359
0.00023399
0.000234775
0.000235385
0.000235981
0.00023666
0.00023708
0.000237846
0.000238139
0.000238882
0.000239161
0.000239748
0.000240154
0.000240491
0.000241083
0.000241188
0.000241917
0.000241915
0.000242629
0.000242729
0.00024321
0.000243642
0.000243693
0.000244542
0.000244216
0.00024528
0.000244899
0.000245801
0.000245794
0.000246145
0.000246759
0.000246486
0.000247586
0.000246993
0.00024814
0.000247749
0.000248493
0.000248683
0.000248846
0.000249642
0.000249348
0.000250424
0.000249974
0.000250913
0.000250668
0.000251101
0.000251291
0.00025109
0.00025174
0.000251042
0.000251886
0.00025114
0.0002517
0.000251418
0.0002513
0.000251752
0.000250963
0.00025189
0.000250919
0.000251686
0.00025123
0.000251179
0.000251479
2.45432e-05
3.47523e-05
4.04101e-05
4.23028e-05
4.20136e-05
4.05608e-05
3.87137e-05
3.70559e-05
3.56101e-05
3.44451e-05
3.35764e-05
3.29762e-05
3.25986e-05
3.2385e-05
3.22871e-05
3.22583e-05
3.22697e-05
3.2298e-05
3.2331e-05
3.23649e-05
3.23935e-05
3.24263e-05
3.24614e-05
3.24993e-05
3.25391e-05
3.25761e-05
3.26145e-05
3.26512e-05
3.26864e-05
3.27166e-05
3.27413e-05
3.27613e-05
3.2774e-05
3.27868e-05
3.27897e-05
3.27987e-05
3.27944e-05
3.28012e-05
3.27939e-05
3.27982e-05
3.27927e-05
3.27926e-05
3.27929e-05
3.27872e-05
3.27954e-05
3.2785e-05
3.27974e-05
3.27871e-05
3.27971e-05
3.27936e-05
3.27954e-05
3.28028e-05
3.27945e-05
3.28125e-05
3.27983e-05
3.28207e-05
3.28095e-05
3.28262e-05
3.28293e-05
3.28299e-05
3.2854e-05
3.28361e-05
3.2877e-05
3.28511e-05
3.28938e-05
3.28793e-05
3.29037e-05
3.29162e-05
3.29111e-05
3.29525e-05
3.29259e-05
3.29814e-05
3.29553e-05
3.30021e-05
3.29983e-05
3.30196e-05
3.30454e-05
3.30392e-05
3.30843e-05
3.30611e-05
3.31073e-05
3.3083e-05
3.31114e-05
3.31034e-05
3.31026e-05
3.31204e-05
3.30901e-05
3.31271e-05
3.30848e-05
3.312e-05
3.30917e-05
3.31012e-05
3.31072e-05
3.30807e-05
3.312e-05
3.30715e-05
3.31183e-05
3.30825e-05
3.31016e-05
3.31036e-05
2.75715e-05
0.000644157
0.0011516
0.00155334
0.00189525
0.00216731
0.00238525
0.00245166
0.00246445
0.00247042
0.00244629
0.00238035
0.00228517
0.00213807
0.00200324
0.00187438
0.00177764
0.00171748
0.00167332
0.00162806
0.00156917
0.00150568
0.00116541
0.000775582
0.000680448
0.000323442
0.000378297
0.000537957
0.000325484
0.000589348
0.00102545
0.00136374
0.00156676
0.0016696
0.00171928
0.00176214
0.00180141
0.00175358
0.00160346
0.00143763
0.00127975
0.00111014
0.000939355
0.000807232
0.000717095
0.00064564
0.000547888
0.000465014
0.000395484
0.000338624
0.000293515
0.000258344
0.000230776
0.000208872
0.000191277
0.000177117
0.000165799
0.000156917
0.000150079
0.00014492
0.000140985
0.000137839
0.000135052
0.000132416
0.000129862
0.000127513
0.000125461
0.000123837
0.000122628
0.000121828
0.000121303
0.000121003
0.000120809
0.000120718
0.000120647
0.000120628
0.000120597
0.000120602
0.000120582
0.000120595
0.000120577
0.000120593
0.000120576
0.000120593
0.000120575
0.000120593
0.000120574
0.000120593
0.000120574
0.000120594
0.000120573
0.000120595
0.000120573
0.000120595
0.000120573
0.000120596
0.000120574
0.0001206
0.000120581
0.00012062
0.000204271
0.000411808
0.000826964
0.001231
0.00156671
0.00183832
0.00206659
0.00222127
0.00235179
0.00238377
0.00235011
0.00227561
0.00217948
0.002029
0.00189346
0.00176313
0.00163651
0.00153053
0.00147433
0.00142833
0.00130199
0.00114736
0.000834004
0.000421063
0.000452333
0.000247045
0.000262742
0.000574546
0.000287224
0.000377829
0.000826713
0.00121726
0.00146839
0.0016016
0.00166418
0.00170859
0.00174606
0.00172419
0.00157907
0.00142302
0.00127023
0.00109697
0.000928481
0.000803029
0.000703176
0.000589132
0.00049394
0.000415518
0.000351935
0.000301762
0.000263288
0.000234227
0.000212145
0.000195047
0.000181421
0.000170318
0.000161173
0.000153711
0.000147725
0.000143044
0.000139383
0.000136446
0.000133881
0.000131498
0.000129201
0.000127094
0.00012525
0.000123774
0.000122652
0.000121896
0.000121393
0.000121103
0.000120913
0.000120822
0.00012075
0.000120731
0.000120698
0.000120703
0.000120682
0.000120695
0.000120677
0.000120693
0.000120675
0.000120693
0.000120674
0.000120693
0.000120674
0.000120694
0.000120673
0.000120694
0.000120673
0.000120695
0.000120672
0.000120696
0.000120672
0.000120697
0.000120674
0.000120702
0.000120683
0.000120726
0.000461951
0.000393115
0.000516156
0.000838308
0.0011523
0.00141952
0.0016584
0.00182372
0.00196713
0.00205705
0.00207632
0.0020429
0.00194974
0.00177379
0.00161665
0.00144933
0.00128568
0.00116663
0.00111128
0.00106335
0.000909877
0.000718508
0.00048529
0.000124239
0.000356644
0.000340585
0.000274136
0.000637096
0.00048775
0.000247033
0.00061324
0.00104039
0.00134173
0.00151014
0.00158886
0.0016359
0.00167102
0.00166137
0.00155436
0.00140831
0.00125692
0.00108028
0.000918112
0.000766341
0.000635695
0.000526031
0.000436861
0.000365818
0.000310399
0.000268283
0.000237055
0.000214183
0.000197299
0.000184411
0.000174045
0.000165325
0.0001578
0.00015135
0.000145934
0.000141544
0.000138033
0.000135213
0.000132804
0.000130632
0.000128576
0.000126702
0.000125054
0.000123724
0.000122689
0.000121978
0.000121492
0.000121209
0.000121017
0.000120924
0.000120849
0.000120828
0.000120793
0.000120797
0.000120775
0.000120788
0.000120769
0.000120786
0.000120767
0.000120786
0.000120766
0.000120786
0.000120766
0.000120787
0.000120765
0.000120787
0.000120764
0.000120788
0.000120764
0.000120789
0.000120764
0.000120792
0.000120767
0.000120799
0.000120779
0.000120829
0.000551104
0.000581871
0.000493491
0.000587797
0.000752086
0.000949639
0.00117503
0.00133957
0.00149229
0.00159683
0.00162944
0.00161332
0.00152624
0.00136558
0.00120768
0.00103939
0.00086344
0.000736965
0.000695841
0.000624094
0.000453359
0.000272675
0.000270521
0.000116052
0.000379279
0.000483296
0.000405236
0.000750055
0.000758166
0.000374926
0.000437191
0.000840177
0.00118285
0.0013898
0.00148787
0.00153896
0.00157121
0.00155772
0.00147433
0.00133334
0.0011625
0.000987125
0.000824198
0.000680898
0.000559067
0.000459222
0.000380348
0.000319648
0.000274012
0.000240464
0.00021627
0.000198989
0.000186417
0.00017679
0.000168832
0.000161819
0.000155423
0.00014965
0.000144585
0.000140344
0.000136888
0.000134118
0.000131812
0.000129817
0.000127985
0.000126334
0.000124866
0.00012367
0.000122726
0.000122065
0.000121599
0.000121319
0.000121123
0.000121026
0.000120945
0.000120921
0.000120883
0.000120886
0.000120862
0.000120875
0.000120855
0.000120873
0.000120853
0.000120872
0.000120852
0.000120873
0.000120851
0.000120873
0.00012085
0.000120874
0.00012085
0.000120875
0.000120849
0.000120877
0.00012085
0.00012088
0.000120854
0.00012089
0.00012087
0.000120928
0.0006399
0.000672446
0.000622122
0.000626736
0.000624413
0.000649157
0.000758748
0.000852016
0.000975282
0.00107225
0.00110765
0.00110767
0.00101945
0.000892031
0.000723929
0.000562258
0.000398144
0.00028394
0.000299112
0.000113206
0.000177601
0.000142428
0.000426601
0.000270045
0.000426336
0.000612933
0.000602154
0.000903712
0.00104955
0.000702816
0.000425433
0.000652074
0.000995754
0.00123603
0.0013556
0.00141231
0.00144138
0.00142213
0.00133497
0.00119416
0.00102863
0.000863062
0.000713278
0.000585221
0.000479374
0.000394942
0.000329829
0.000281039
0.000245316
0.00021964
0.000201408
0.000188451
0.000178971
0.000171578
0.000165248
0.00015939
0.000153759
0.000148431
0.00014357
0.00013938