/*--------------------------------*- C++ -*----------------------------------*\
| =========                 |                                                 |
| \\      /  F ield         | OpenFOAM: The Open Source CFD Toolbox           |
|  \\    /   O peration     | Version:  v2012                                 |
|   \\  /    A nd           | Website:  www.openfoam.com                      |
|    \\/     M anipulation  |                                                 |
\*---------------------------------------------------------------------------*/
FoamFile
{
    version     2.0;
    format      ascii;
    class       volScalarField;
    location    "0.148";
    object      nut.air;
}
// * * * * * * * * * * * * * * * * * * * * * * * * * * * * * * * * * * * * * //

dimensions      [0 2 -1 0 0 0 0];


internalField   nonuniform List<scalar> 
5600
(
1.31211e-05
2.99251e-05
5.00471e-05
6.50627e-05
7.30355e-05
7.56092e-05
7.50289e-05
7.28201e-05
7.0155e-05
6.76924e-05
6.55267e-05
6.37398e-05
6.24394e-05
6.1599e-05
6.12041e-05
6.11413e-05
6.13474e-05
6.16884e-05
6.21182e-05
6.25341e-05
6.29395e-05
6.32716e-05
6.35707e-05
6.37956e-05
6.40009e-05
6.41603e-05
6.43228e-05
6.44477e-05
6.4582e-05
6.46814e-05
6.48011e-05
6.48803e-05
6.49784e-05
6.50345e-05
6.51067e-05
6.51387e-05
6.51912e-05
6.52047e-05
6.52437e-05
6.52445e-05
6.52748e-05
6.52675e-05
6.52928e-05
6.52809e-05
6.53054e-05
6.52908e-05
6.53174e-05
6.5303e-05
6.53317e-05
6.53174e-05
6.53471e-05
6.53327e-05
6.53632e-05
6.53482e-05
6.538e-05
6.53638e-05
6.53979e-05
6.53806e-05
6.54176e-05
6.53997e-05
6.54408e-05
6.54221e-05
6.54684e-05
6.54473e-05
6.54996e-05
6.54758e-05
6.55344e-05
6.55066e-05
6.55724e-05
6.554e-05
6.56136e-05
6.55751e-05
6.56577e-05
6.56116e-05
6.57046e-05
6.56494e-05
6.57543e-05
6.56883e-05
6.58063e-05
6.57283e-05
6.58596e-05
6.57699e-05
6.59131e-05
6.58147e-05
6.59634e-05
6.58676e-05
6.60036e-05
6.59393e-05
6.60165e-05
6.60551e-05
6.59623e-05
6.62802e-05
6.57335e-05
6.68128e-05
6.49604e-05
6.83237e-05
6.22673e-05
7.33849e-05
5.15744e-05
9.26064e-05
0.000160893
0.000142193
0.000113656
0.000102332
0.000100825
0.000107235
0.000116956
0.000134057
0.000149178
0.000162908
0.000180206
0.000199869
0.000221196
0.000243192
0.000265415
0.000286888
0.000307503
0.000326251
0.000343604
0.000358642
0.000372347
0.000384037
0.000394905
0.000404257
0.000413301
0.000421219
0.000429037
0.000435731
0.000442363
0.000448026
0.000453741
0.000458304
0.000462977
0.000466447
0.000470105
0.000472685
0.000475632
0.000477557
0.000480006
0.000481448
0.000483543
0.000484627
0.000486481
0.000487312
0.000489055
0.000489747
0.00049148
0.000492079
0.000493733
0.00049422
0.000495791
0.000496168
0.000497664
0.000497926
0.000499378
0.000499525
0.000500974
0.000501012
0.000502499
0.000502452
0.000503979
0.000503851
0.000505435
0.000505198
0.000506889
0.000506511
0.00050832
0.000507786
0.000509727
0.000509021
0.000511119
0.000510189
0.000512495
0.000511335
0.00051388
0.000512436
0.000515264
0.000513487
0.00051664
0.000514491
0.000517998
0.000515453
0.000519322
0.000516405
0.000520568
0.000517423
0.00052163
0.000518669
0.000522245
0.000520514
0.000521874
0.000523901
0.000519421
0.000530546
0.000511712
0.000545236
0.000490795
0.000579926
0.000437726
0.000586464
0.000158732
0.000155933
0.000150627
0.000143565
0.000134919
0.000123712
0.000114931
0.000108733
0.000106862
0.000108372
0.000113735
0.000121324
0.000132139
0.000145111
0.000161355
0.000179718
0.000201342
0.000224759
0.000251175
0.000278845
0.000309324
0.000340955
0.000375902
0.000411824
0.000447667
0.000477613
0.000507961
0.000534669
0.000561
0.000580221
0.000598687
0.000613585
0.000628562
0.000640721
0.000653717
0.000663944
0.000675255
0.000683787
0.000693663
0.000700817
0.000709601
0.000715695
0.00072372
0.000728981
0.00073645
0.000741017
0.000747895
0.000751775
0.000758074
0.000761366
0.000767173
0.000769961
0.000775394
0.000777738
0.000782932
0.000784883
0.000789959
0.000791552
0.00079658
0.000797833
0.000802855
0.000803761
0.000808818
0.000809354
0.000814502
0.000814628
0.000819925
0.000819602
0.000825103
0.000824307
0.000830085
0.000828765
0.000834917
0.000832992
0.000839626
0.000836981
0.000844213
0.000840713
0.000848706
0.000844179
0.000853137
0.000847366
0.000857546
0.000850257
0.000862
0.000852801
0.000866584
0.000854908
0.000871477
0.000856382
0.000877023
0.000856856
0.000884019
0.000855438
0.000894111
0.00085066
0.000910551
0.000841284
0.000893873
0.000817504
0.000159349
0.0001567
0.000154966
0.000152216
0.000150639
0.000146987
0.00014455
0.000139775
0.000136902
0.00013181
0.000129511
0.000124323
0.000122427
0.000118274
0.000118642
0.00011731
0.000121625
0.000124953
0.00013451
0.000143755
0.000159282
0.00017511
0.000197324
0.000220396
0.000250231
0.000280679
0.000316785
0.000351928
0.000389483
0.000420753
0.000454427
0.0004842
0.000516506
0.000544512
0.000574844
0.000600613
0.000628876
0.000652607
0.000678755
0.000700419
0.000724781
0.00074457
0.000767473
0.000785243
0.000804558
0.000816574
0.000832597
0.000842887
0.000857467
0.000866408
0.000879858
0.000887683
0.000900303
0.000907166
0.000919225
0.000925223
0.000936898
0.000942074
0.000953457
0.00095784
0.000969005
0.000972604
0.000983642
0.000986443
0.000997472
0.000999445
0.00101057
0.0010117
0.00102304
0.00102329
0.00103497
0.00103427
0.00104647
0.00104468
0.00105755
0.00105446
0.00106819
0.00106358
0.00107846
0.00107206
0.00108847
0.00107987
0.00109833
0.00108699
0.00110815
0.00109333
0.00111814
0.00109879
0.00112855
0.00110319
0.00113966
0.00110638
0.00115174
0.00110859
0.00116439
0.00111127
0.0011752
0.00111811
0.00117946
0.00113253
0.000159543
0.000156881
0.000155676
0.000153125
0.000152613
0.000149965
0.000149897
0.000146986
0.00014725
0.00014384
0.000144638
0.000140345
0.000141945
0.000136359
0.000138994
0.000132073
0.000135585
0.000127922
0.000131365
0.000123762
0.000127979
0.000122127
0.000128515
0.000126354
0.000136719
0.000140186
0.000156023
0.000166447
0.000188499
0.000205951
0.000233641
0.000256837
0.000289575
0.000317792
0.000354931
0.000381967
0.000413403
0.000438986
0.000470542
0.000495757
0.000527093
0.000551685
0.000582928
0.000606874
0.000637655
0.00066042
0.00069015
0.000711665
0.000739881
0.000759843
0.00078656
0.000804907
0.000830427
0.000847252
0.000871927
0.000887271
0.000911097
0.000924215
0.000947231
0.000959006
0.000981653
0.000992164
0.00101454
0.00102364
0.00104587
0.00105343
0.00107567
0.0010816
0.00110395
0.00110827
0.00113083
0.00113356
0.00115516
0.0011553
0.00117613
0.00117441
0.00119608
0.00119234
0.00121519
0.00120919
0.00123363
0.00122501
0.00125151
0.00123985
0.00126894
0.00125373
0.00128601
0.0012668
0.00130273
0.00127932
0.00131877
0.00129181
0.00133344
0.00130546
0.00134529
0.00132211
0.00135244
0.00134288
0.00135588
0.00136388
0.000159629
0.000156886
0.000155904
0.00015329
0.000153028
0.00015041
0.000150699
0.000147901
0.000148879
0.00014545
0.000147553
0.000142956
0.000146554
0.000140509
0.00014561
0.000138235
0.00014452
0.000136053
0.000143368
0.000133563
0.000142263
0.00013069
0.000141132
0.0001277
0.000139884
0.00012513
0.00013835
0.000123831
0.000138046
0.000125634
0.000141532
0.000133221
0.000151773
0.000149145
0.000171085
0.000175133
0.0002006
0.000210504
0.000239504
0.000254351
0.000286883
0.000305635
0.000341408
0.000363622
0.000402372
0.000422068
0.000452313
0.000471525
0.000502085
0.000521539
0.000552189
0.000571491
0.000602256
0.000621158
0.000652226
0.000670578
0.000702021
0.000719476
0.000750948
0.000767775
0.000799186
0.000814877
0.000846173
0.000860336
0.000891582
0.000904028
0.000935314
0.000946074
0.00097751
0.000986738
0.00101839
0.00102607
0.00105767
0.00106331
0.00109525
0.00109924
0.00113162
0.00113394
0.00116676
0.00116733
0.0012006
0.00119945
0.0012331
0.00123048
0.00126383
0.00126048
0.00129281
0.00128987
0.00131991
0.00131895
0.00134498
0.00134764
0.00136812
0.00137574
0.00139026
0.00140222
0.00141418
0.00142333
0.00144365
0.00145096
0.000159669
0.00015689
0.000155951
0.000153386
0.000153088
0.000150581
0.000150894
0.000148023
0.000149398
0.00014545
0.000148456
0.000142998
0.000147706
0.000140901
0.000146931
0.000139107
0.000146254
0.000137221
0.000146009
0.000134928
0.000146157
0.000132477
0.000146311
0.000130173
0.000146368
0.000127988
0.00014653
0.000125617
0.000147074
0.000123072
0.000147671
0.000120983
0.000147916
0.000119891
0.000147831
0.000120143
0.00014865
0.000122494
0.000151844
0.000128675
0.000158971
0.000140617
0.000171494
0.000159749
0.000190939
0.000186526
0.000218195
0.000219958
0.00025265
0.000259464
0.000293831
0.000304691
0.00034101
0.000354949
0.000393171
0.000409569
0.000449542
0.000467955
0.000498706
0.000510846
0.000542297
0.000554373
0.000586516
0.000598396
0.000631257
0.000642904
0.000676364
0.00068779
0.000721805
0.000732997
0.000767645
0.00077844
0.00081362
0.000823851
0.000859658
0.000869521
0.000905435
0.000914691
0.000950322
0.00095898
0.000993984
0.00100229
0.00103622
0.00104464
0.00107693
0.00108608
0.00111635
0.00112685
0.00115462
0.00116694
0.00119144
0.00120586
0.00122653
0.00124323
0.00126154
0.00127892
0.00129719
0.00131374
0.00133393
0.00135503
0.000159643
0.00015698
0.000155851
0.000153573
0.000152951
0.000150783
0.00015087
0.000148099
0.000149581
0.000145428
0.00014868
0.000143157
0.000147677
0.000141465
0.000146635
0.000139909
0.000146072
0.000137891
0.000146232
0.00013547
0.000146537
0.00013336
0.000146423
0.00013165
0.000146336
0.000129669
0.000146944
0.000127104
0.000148056
0.000124655
0.000148679
0.000123053
0.000148672
0.000121718
0.000149033
0.000119588
0.000150463
0.0001167
0.000152172
0.000114435
0.000153025
0.000113833
0.000152834
0.0001149
0.000152587
0.000117264
0.000153352
0.000121296
0.000156218
0.000127723
0.000162054
0.000137752
0.000171979
0.000152368
0.000186633
0.000172382
0.000206859
0.000198106
0.000233134
0.000229027
0.000264688
0.00026465
0.000301213
0.000304818
0.000342381
0.000349407
0.000387841
0.000397845
0.00043705
0.000449537
0.000489465
0.000504025
0.00054458
0.000553158
0.000583063
0.000592348
0.000621999
0.000632481
0.000661598
0.000673541
0.000701822
0.000715195
0.00074255
0.000757536
0.000783672
0.000800371
0.000825137
0.000843664
0.000867073
0.000887326
0.000909349
0.000930856
0.000951503
0.000974097
0.000993887
0.00101759
0.00103631
0.00106232
0.00107978
0.00111023
0.000159548
0.000157156
0.00015566
0.00015384
0.00015271
0.000151066
0.000150662
0.000148376
0.000149349
0.000145864
0.000148186
0.000143995
0.00014674
0.000142729
0.000145395
0.000141323
0.000144836
0.000139288
0.000144953
0.000137183
0.000144763
0.000135845
0.000143932
0.000134843
0.000143472
0.000133094
0.000144027
0.00013077
0.000144647
0.00012925
0.000144155
0.00012889
0.000143241
0.000128162
0.00014349
0.000126019
0.000144819
0.000123607
0.000145448
0.000122597
0.0001446
0.000122828
0.000143262
0.00012307
0.000142507
0.000122799
0.000142302
0.000122309
0.000142538
0.000121635
0.00014323
0.000120956
0.00014424
0.000120863
0.000145043
0.000121883
0.000146043
0.000123995
0.000147977
0.000127341
0.000151462
0.000132865
0.000156743
0.000141314
0.000164525
0.000153218
0.000175819
0.000168764
0.000191152
0.00018838
0.00021089
0.0002125
0.000235206
0.000241205
0.00026389
0.000273548
0.000296373
0.000309469
0.000332527
0.000348765
0.000372181
0.00039135
0.000415241
0.000437067
0.00046128
0.000485383
0.000509808
0.000535909
0.000560645
0.000588404
0.000613431
0.000642468
0.000662502
0.000685268
0.000703142
0.000727607
0.000746695
0.000773101
0.000795397
0.000824977
0.000159446
0.000157305
0.000155512
0.000154039
0.000152519
0.000151335
0.000150372
0.00014881
0.000148847
0.000146576
0.000147402
0.00014499
0.000145718
0.000143914
0.000144212
0.000142644
0.000143453
0.000140883
0.000143167
0.000139287
0.000142451
0.000138487
0.000141212
0.000137878
0.000140461
0.000136514
0.000140578
0.000134822
0.000140486
0.000134059
0.000139359
0.000134169
0.000138149
0.000133674
0.000138104
0.000132091
0.000138635
0.00013079
0.000138212
0.000130761
0.000136815
0.00013118
0.000135629
0.000131065
0.000135071
0.000130617
0.000134615
0.00013028
0.000134169
0.000129867
0.000133928
0.000129334
0.000133722
0.000129036
0.000133217
0.000129054
0.000132677
0.00012905
0.000132386
0.000128965
0.000132257
0.000129139
0.000132121
0.000129639
0.000132173
0.0001304
0.000132685
0.000131486
0.000133679
0.000133233
0.000135362
0.00013597
0.000138158
0.000140039
0.000142532
0.000146042
0.000149036
0.000154513
0.000158346
0.00016586
0.000171054
0.00018066
0.000187686
0.00019959
0.000208605
0.000222931
0.000234132
0.000250861
0.000264698
0.000283749
0.00030048
0.000321726
0.000341172
0.0003642
0.000385841
0.000410484
0.00043459
0.000460789
0.00048713
0.000514356
0.000159398
0.000157346
0.000155487
0.000154076
0.000152479
0.000151447
0.000150195
0.000149111
0.000148463
0.000147055
0.000146913
0.000145491
0.000145271
0.000144365
0.000143743
0.000143211
0.000142724
0.000141768
0.000142082
0.000140437
0.000141222
0.000139653
0.000140035
0.00013906
0.000139151
0.000138031
0.000138836
0.000136797
0.000138426
0.000136133
0.000137405
0.000135998
0.000136362
0.000135504
0.000136028
0.000134415
0.000135998
0.000133565
0.000135402
0.000133424
0.000134355
0.000133402
0.000133577
0.000133008
0.000133157
0.000132509
0.00013271
0.00013216
0.000132237
0.000131794
0.000131908
0.000131366
0.000131634
0.000131066
0.00013127
0.000130935
0.000130949
0.000130844
0.000130795
0.000130839
0.000130773
0.000131078
0.000130914
0.00013158
0.00013141
0.000132388
0.000132403
0.000133716
0.000134028
0.00013588
0.000136608
0.000139218
0.000140647
0.000144194
0.000146605
0.000151427
0.000155007
0.000161441
0.000166496
0.000174691
0.000181616
0.000191677
0.000200768
0.000212907
0.000224292
0.000238669
0.000252445
0.000269094
0.000285439
0.000304398
0.000323353
0.000344243
0.000365304
0.00038802
0.000411
0.000435435
0.000460384
0.000486686
0.000513846
0.000542226
0.000159385
0.000157337
0.000155515
0.000154028
0.000152527
0.000151418
0.000150161
0.000149201
0.000148279
0.000147256
0.000146677
0.000145647
0.000145144
0.000144382
0.000143693
0.00014324
0.000142517
0.000142017
0.000141617
0.000140836
0.000140719
0.000139931
0.000139701
0.000139201
0.000138802
0.000138351
0.000138181
0.000137413
0.000137595
0.000136687
0.000136812
0.000136194
0.000136019
0.00013562
0.000135482
0.000134876
0.000135066
0.000134245
0.000134492
0.000133863
0.000133843
0.000133514
0.000133362
0.000133092
0.000133032
0.000132764
0.000132753
0.000132626
0.000132626
0.000132667
0.000132798
0.000132999
0.000133345
0.000133804
0.000134448
0.000135352
0.000136509
0.000138067
0.000140047
0.000142574
0.000145655
0.000149556
0.00015406
0.000159677
0.000165981
0.000173565
0.000181978
0.000191748
0.000202446
0.000214582
0.000227665
0.000242283
0.000257641
0.00027422
0.000291519
0.000310028
0.000329201
0.000349613
0.000370589
0.000392802
0.000415469
0.000439308
0.000463504
0.000488776
0.000514271
0.000540729
0.000567255
0.000594656
0.000622039
0.000648705
0.000668011
0.000687974
0.000707943
0.000728607
0.000749431
0.000770898
0.000792331
0.000814526
0.000836132
0.000858293
0.00015938
0.00015733
0.000155522
0.00015399
0.000152552
0.000151358
0.000150163
0.000149172
0.000148203
0.000147289
0.00014654
0.000145671
0.000145043
0.000144305
0.00014366
0.000143098
0.000142434
0.000141945
0.000141382
0.000140845
0.000140415
0.000139871
0.000139469
0.000139006
0.000138586
0.000138168
0.000137805
0.00013734
0.000137076
0.000136575
0.000136355
0.000135874
0.000135685
0.000135196
0.000135103
0.00013459
0.000134593
0.000134166
0.000134206
0.000133989
0.000134157
0.000134143
0.000134648
0.000134925
0.000136056
0.000137025
0.000139092
0.000141284
0.000144783
0.000148762
0.000154274
0.000160578
0.000168594
0.000177653
0.000188508
0.000200586
0.000214547
0.000229653
0.000246244
0.000263926
0.00028306
0.000303234
0.000324773
0.000347308
0.000371065
0.000395725
0.000421441
0.0004479
0.000475263
0.000503206
0.000531989
0.000556966
0.000576838
0.000597068
0.000617307
0.000637985
0.000658757
0.000679733
0.000700804
0.000722116
0.000743495
0.00076511
0.000786754
0.000808628
0.000830493
0.000852566
0.000874604
0.000896803
0.00091896
0.000941143
0.000963273
0.000985638
0.00100771
0.00102994
0.00105169
0.00107359
0.00109479
0.00111602
0.00113608
0.00115596
0.000159376
0.000157323
0.000155502
0.000153962
0.000152518
0.000151299
0.000150109
0.000149094
0.000148099
0.000147207
0.000146369
0.000145563
0.000144829
0.000144114
0.000143423
0.000142806
0.000142132
0.00014159
0.000140942
0.000140438
0.000139825
0.000139341
0.000138756
0.000138282
0.000137721
0.000137239
0.000136685
0.00013622
0.000135663
0.000135266
0.000134772
0.000134513
0.000134233
0.000134184
0.000134449
0.000135128
0.000136508
0.000138733
0.000142042
0.000146761
0.000152931
0.000160929
0.000170721
0.000182534
0.000196474
0.000212066
0.000229595
0.000248697
0.00026963
0.00029202
0.000316046
0.000341338
0.000368019
0.000395745
0.000424666
0.0004546
0.000482381
0.000504496
0.00052695
0.000549472
0.000572158
0.00059497
0.000617926
0.000640991
0.000664148
0.000687432
0.000710762
0.000734251
0.000757734
0.000781382
0.000804925
0.000828479
0.000852151
0.000875815
0.000899373
0.000922733
0.000945856
0.000968699
0.000991247
0.00101345
0.00103533
0.00105689
0.00107814
0.00109911
0.00111979
0.00114023
0.00116037
0.00118033
0.00119992
0.00121896
0.00123784
0.00125664
0.00127505
0.0012935
0.00131142
0.00132934
0.00134662
0.0013637
0.00137966
0.00139512
0.000159364
0.000157303
0.000155442
0.000153902
0.000152394
0.00015118
0.000149902
0.000148887
0.000147769
0.00014687
0.000145856
0.000145037
0.00014407
0.000143311
0.000142349
0.000141628
0.000140646
0.000139925
0.000138863
0.000138094
0.000136935
0.000136107
0.000134895
0.000134075
0.000132958
0.000132162
0.000131528
0.000131594
0.000132472
0.000134758
0.000138639
0.000144663
0.000152954
0.00016388
0.000177507
0.000193728
0.000212291
0.00023327
0.000256347
0.000281584
0.000308548
0.000337451
0.000367847
0.000400258
0.000427501
0.000452772
0.00047837
0.000504084
0.000529937
0.000555731
0.00058155
0.000607265
0.000632987
0.000658625
0.000684249
0.000709697
0.00073485
0.00075993
0.000784778
0.000809313
0.000833468
0.000857194
0.000880474
0.000903298
0.000925679
0.000947654
0.000969222
0.000990472
0.00101133
0.00103191
0.00105192
0.00107129
0.00109039
0.00110915
0.00112763
0.00114576
0.00116357
0.00118103
0.00119817
0.00121491
0.00123133
0.00124736
0.00126307
0.00127841
0.00129342
0.00130808
0.00132247
0.00133653
0.00135035
0.00136383
0.00137703
0.00138997
0.00140261
0.00141508
0.00142721
0.00143918
0.00145092
0.00146218
0.00147257
0.00148258
0.00015932
0.000157241
0.00015526
0.000153694
0.000151991
0.000150723
0.000149089
0.000147901
0.000146206
0.000144976
0.000143197
0.000141862
0.000139858
0.000138418
0.000136165
0.000134658
0.000132262
0.0001306
0.000128013
0.000126877
0.000125454
0.000126332
0.000127922
0.000132711
0.000139347
0.000149913
0.000163127
0.000180473
0.000200863
0.000224595
0.000250998
0.000280263
0.000312043
0.00034618
0.000378701
0.00040795
0.000437299
0.000466717
0.000495887
0.000524942
0.000553715
0.000582389
0.000610808
0.000638723
0.000666126
0.000692949
0.000719049
0.000744318
0.000768791
0.000792427
0.000815327
0.000837512
0.000859083
0.000880058
0.000900418
0.000919916
0.000938516
0.000956673
0.000974403
0.00099171
0.00100861
0.00102507
0.00104112
0.00105672
0.00107192
0.00108668
0.00110107
0.00111503
0.00112869
0.00114189
0.00115493
0.00116616
0.00117665
0.00118682
0.00119671
0.00120633
0.00121571
0.00122484
0.00123376
0.00124246
0.00125097
0.00125927
0.00126742
0.00127536
0.00128318
0.0012908
0.00129833
0.00130567
0.00131295
0.00132002
0.00132706
0.00133389
0.00134069
0.00134727
0.00135383
0.00136019
0.00136653
0.00137268
0.00137869
0.00138455
0.000159146
0.000157018
0.000154599
0.000152704
0.000150073
0.000147591
0.000143714
0.000140433
0.000135843
0.000132637
0.000128493
0.000125227
0.000121611
0.000119907
0.00011869
0.000120384
0.000123441
0.000130216
0.000138974
0.000151868
0.000167174
0.000186944
0.000209563
0.000237095
0.000267839
0.000302462
0.000338861
0.000377428
0.000411196
0.000444523
0.000477036
0.000508903
0.000539837
0.000569644
0.000598226
0.000625888
0.000652376
0.000677815
0.000702135
0.000725566
0.000748037
0.000769748
0.000790269
0.000808917
0.00082394
0.000837984
0.000851205
0.000863664
0.000875486
0.000886697
0.000897412
0.000907648
0.000917494
0.000926967
0.000936119
0.000944954
0.000953495
0.000961754
0.000969748
0.000977479
0.000984975
0.000992226
0.000999272
0.00100609
0.00101274
0.00101918
0.00102547
0.00103158
0.00103756
0.00104339
0.0010491
0.00105469
0.00106013
0.00106543
0.00107058
0.0010756
0.00108049
0.00108525
0.00108991
0.00109443
0.00109887
0.00110318
0.00110742
0.00111154
0.00111561
0.00111955
0.00112347
0.00112726
0.00113106
0.00113471
0.0011384
0.00114192
0.00114552
0.00114892
0.00115241
0.0011557
0.00115909
0.00116226
0.00116534
0.00116825
0.00015846
0.000156338
0.000150142
0.000144089
0.000134333
0.000124099
0.000114814
0.000109859
0.000108347
0.000111297
0.000117028
0.000125947
0.000137264
0.00015168
0.000168607
0.0001886
0.000211017
0.000236301
0.000263532
0.000293338
0.000324759
0.000359165
0.000395277
0.000433519
0.000465563
0.000496347
0.00052537
0.000552732
0.000576704
0.000595961
0.000612961
0.000628124
0.000641962
0.000654766
0.000666571
0.00067749
0.000687528
0.000696827
0.000705426
0.000713464
0.000720985
0.000728104
0.000734823
0.000741235
0.00074732
0.000753052
0.000758459
0.000763544
0.000768353
0.000772885
0.000777195
0.000781283
0.000785196
0.000788942
0.000792557
0.000796051
0.000799434
0.000802719
0.000805914
0.000809016
0.000812039
0.000814973
0.000817836
0.000820614
0.000823327
0.000825959
0.000828533
0.000831035
0.000833487
0.00083588
0.000838226
0.00084053
0.000842786
0.000844992
0.00084715
0.000849258
0.000851326
0.00085334
0.000855326
0.000857252
0.000859159
0.000861004
0.000862839
0.00086461
0.000866383
0.000868084
0.000869804
0.000871444
0.000873117
0.000874702
0.000876342
0.000877877
0.000879497
0.000880979
0.000882581
0.00088401
0.000885576
0.000886941
0.000888263
0.000889399
0.000160266
0.000142812
0.000113632
0.000103969
0.000102119
0.000110443
0.000120002
0.000140283
0.000152853
0.000167599
0.000185634
0.000205939
0.000227618
0.000249958
0.000272189
0.000293782
0.000314055
0.000332786
0.000349538
0.000364551
0.00037769
0.000389421
0.00039989
0.000409375
0.000418182
0.000426277
0.000433774
0.000440553
0.000446828
0.000452608
0.000457836
0.000462521
0.000466609
0.00047019
0.000473308
0.000476056
0.000478477
0.000480637
0.000482561
0.000484292
0.000485857
0.000487284
0.000488612
0.000489848
0.000491073
0.000492262
0.000493414
0.000494514
0.000495568
0.000496567
0.000497521
0.000498424
0.000499286
0.000500108
0.000500897
0.00050166
0.000502405
0.000503134
0.000503854
0.000504564
0.000505269
0.000505965
0.000506661
0.00050735
0.000508035
0.000508705
0.000509374
0.00051003
0.00051068
0.000511321
0.00051195
0.000512578
0.000513197
0.000513818
0.000514433
0.00051504
0.000515642
0.000516228
0.000516815
0.000517385
0.00051796
0.000518515
0.000519077
0.000519616
0.000520167
0.000520693
0.000521237
0.000521749
0.000522286
0.000522786
0.000523319
0.000523809
0.00052434
0.000524824
0.00052535
0.000525834
0.000526347
0.000526791
0.000527207
0.000527555
1.31102e-05
2.99561e-05
5.00858e-05
6.50513e-05
7.28746e-05
7.53208e-05
7.46049e-05
7.22731e-05
6.95985e-05
6.71362e-05
6.49392e-05
6.31777e-05
6.19112e-05
6.11437e-05
6.08067e-05
6.08214e-05
6.10691e-05
6.14612e-05
6.19014e-05
6.2341e-05
6.2736e-05
6.30762e-05
6.33615e-05
6.35913e-05
6.37906e-05
6.39651e-05
6.41218e-05
6.42613e-05
6.43855e-05
6.45007e-05
6.46041e-05
6.46973e-05
6.47761e-05
6.48416e-05
6.48939e-05
6.49357e-05
6.49675e-05
6.49922e-05
6.50102e-05
6.50235e-05
6.50328e-05
6.50391e-05
6.50438e-05
6.50469e-05
6.50503e-05
6.5054e-05
6.50586e-05
6.50636e-05
6.50691e-05
6.50748e-05
6.50808e-05
6.50866e-05
6.50927e-05
6.50988e-05
6.51051e-05
6.51118e-05
6.5119e-05
6.51268e-05
6.51354e-05
6.51451e-05
6.51558e-05
6.51674e-05
6.51801e-05
6.51936e-05
6.52083e-05
6.52236e-05
6.52398e-05
6.52565e-05
6.5274e-05
6.52919e-05
6.53105e-05
6.53297e-05
6.53494e-05
6.53697e-05
6.53905e-05
6.54117e-05
6.54335e-05
6.54555e-05
6.54781e-05
6.55006e-05
6.55239e-05
6.5547e-05
6.55709e-05
6.55944e-05
6.5619e-05
6.5643e-05
6.56682e-05
6.56926e-05
6.57183e-05
6.57431e-05
6.57694e-05
6.57946e-05
6.58214e-05
6.58475e-05
6.58747e-05
6.59021e-05
6.59304e-05
6.59603e-05
6.59926e-05
6.60294e-05
3.91558e-05
0.00133167
0.00237213
0.00315026
0.00385702
0.00440988
0.0048153
0.00492345
0.00490596
0.00487578
0.00484668
0.00483033
0.00483899
0.00486681
0.00490641
0.00495621
0.00501353
0.00508589
0.00517193
0.00526771
0.00537349
0.00548993
0.00561215
0.00573825
0.00587797
0.00602373
0.00617243
0.006319
0.00646628
0.00660011
0.00673385
0.00676435
0.00676775
0.00676636
0.00675963
0.006748
0.00673181
0.00671138
0.00668681
0.00665815
0.00662559
0.00658912
0.00654842
0.00650342
0.00645392
0.00639933
0.00633922
0.00627386
0.0062032
0.00612666
0.00604384
0.00595553
0.00586189
0.00576236
0.00565645
0.005546
0.00543223
0.0053157
0.00519569
0.00507534
0.00495793
0.00484709
0.00474108
0.00464252
0.00455005
0.00446761
0.00438752
0.00431458
0.00424218
0.00418044
0.00411359
0.00404828
0.00397603
0.00392245
0.00388769
0.00387025
0.00383721
0.00376382
0.00364404
0.00351062
0.00339317
0.00333632
0.00332066
0.00337636
0.00344497
0.00356598
0.00366095
0.00377496
0.00383443
0.00387841
0.00388704
0.00384445
0.0038422
0.00372839
0.00374284
0.00358592
0.00360823
0.0034294
0.00344604
0.00325019
0.000321139
0.000838421
0.00171922
0.00249854
0.00319038
0.00374696
0.00417045
0.00447098
0.004682
0.00470437
0.00466817
0.00465073
0.00464703
0.00465377
0.00467246
0.00470347
0.00474574
0.00480701
0.00487966
0.00495969
0.00504652
0.0051416
0.00524354
0.00534977
0.00546982
0.00560193
0.00574239
0.0058847
0.0060352
0.00618847
0.00634881
0.00650635
0.00655683
0.00656629
0.00656935
0.00656682
0.00655923
0.00654698
0.00653018
0.00650885
0.00648322
0.00645327
0.00641863
0.0063792
0.00633483
0.00628485
0.00622877
0.00616681
0.00609897
0.00602467
0.00594347
0.00585616
0.00576309
0.00566379
0.00555788
0.00544726
0.0053335
0.00521733
0.00509835
0.00497994
0.00486607
0.00476041
0.00466128
0.00457064
0.00448748
0.0044151
0.00434563
0.004282
0.00421786
0.00416311
0.00410427
0.00404742
0.00398418
0.00393889
0.00391283
0.00390763
0.00389071
0.00383833
0.00373446
0.00361148
0.00348978
0.003426
0.00339423
0.0034394
0.00349117
0.0036032
0.00368414
0.00379059
0.00383992
0.00387589
0.00387873
0.00383003
0.00382745
0.00371368
0.00373266
0.0035796
0.003609
0.00343416
0.0034561
0.00326364
0.000986194
0.000752173
0.00108368
0.00169397
0.00234551
0.00290374
0.00334695
0.00367865
0.00392544
0.00410868
0.00425088
0.00437744
0.00441681
0.0044272
0.00445071
0.00448742
0.00453772
0.0045964
0.0046592
0.00472681
0.00479996
0.004879
0.0049641
0.00505457
0.0051561
0.0052706
0.00539452
0.00552375
0.00566047
0.00580729
0.00596359
0.00615251
0.0062889
0.0063121
0.00632735
0.0063361
0.00633911
0.00633688
0.00632956
0.00631715
0.00629989
0.00627782
0.00625049
0.0062178
0.00617963
0.0061353
0.00608422
0.00602652
0.00596231
0.00589097
0.00581205
0.00572627
0.00563423
0.00553556
0.00543002
0.0053195
0.00520603
0.00509053
0.00497302
0.00485721
0.00474786
0.00464873
0.00455819
0.00447746
0.0044058
0.0043457
0.00428911
0.00423675
0.00418256
0.00413602
0.00408648
0.00403949
0.0039871
0.00395166
0.00393538
0.00394286
0.00394246
0.00391248
0.00382732
0.00371857
0.0035956
0.00352616
0.00347746
0.00350977
0.00354189
0.00364135
0.00370546
0.00380078
0.00383797
0.00386278
0.00385867
0.00380164
0.0037984
0.00368432
0.00370815
0.00356
0.00359725
0.00342805
0.00345593
0.00326911
0.00117581
0.00116137
0.00105983
0.00116634
0.00151866
0.00195844
0.0023742
0.00271918
0.00299603
0.00321861
0.0034001
0.00356298
0.00371035
0.00384847
0.00398532
0.00412243
0.00425995
0.00433061
0.00440082
0.00447493
0.0045542
0.00463731
0.00472458
0.00481768
0.00491585
0.00502168
0.0051332
0.00525189
0.00537591
0.00551327
0.00565564
0.00582028
0.00594551
0.0059863
0.0060173
0.00604064
0.00605734
0.00606801
0.00607278
0.00607166
0.00606495
0.00605272
0.00603451
0.00601019
0.0059797
0.00594235
0.00589749
0.00584516
0.00578554
0.00571804
0.00564214
0.00555853
0.00546803
0.00537042
0.00526563
0.00515559
0.00504278
0.0049284
0.00481309
0.00470098
0.00459776
0.0045072
0.00442776
0.00435969
0.00430245
0.00425739
0.0042163
0.00417742
0.00413512
0.00409818
0.00405931
0.00402365
0.00398416
0.0039606
0.00395558
0.00397611
0.00399196
0.00398461
0.00392012
0.00382927
0.00370909
0.00363641
0.00357133
0.00358885
0.00359896
0.0036817
0.00372592
0.00380533
0.00382763
0.00383683
0.00382401
0.00375579
0.00375133
0.00363644
0.00366556
0.00352334
0.00356939
0.00340743
0.00344196
0.00326304
0.00136257
0.0013752
0.00134214
0.00128433
0.0012692
0.0013646
0.0015473
0.00177307
0.00200232
0.00221907
0.00241431
0.00259733
0.00277127
0.00293756
0.00310176
0.0032647
0.00343151
0.00359396
0.00375375
0.00391208
0.00406764
0.00422092
0.00437066
0.00451609
0.00464175
0.00475278
0.00486395
0.00498097
0.00510103
0.00523233
0.0053391
0.00542619
0.00550426
0.00556705
0.0056185
0.00566101
0.00569578
0.00572341
0.005744
0.00575758
0.00576453
0.00576498
0.00575847
0.00574485
0.00572412
0.00569565
0.00565871
0.00561324
0.00555955
0.00549704
0.00542522
0.00534464
0.00525643
0.00516054
0.00505716
0.00494823
0.00483686
0.00472456
0.00461286
0.0045065
0.00441213
0.00433334
0.0042686
0.00421691
0.00417776
0.00415093
0.00412812
0.00410491
0.00407644
0.00405055
0.00402374
0.00400086
0.00397629
0.00396669
0.00397447
0.00400825
0.00403948
0.00405385
0.00401078
0.00394053
0.00382743
0.00375439
0.00367468
0.00367571
0.0036621
0.00372334
0.00374469
0.00380208
0.00380653
0.00379449
0.00377111
0.00368838
0.00368247
0.00356624
0.0036015
0.00346622
0.0035222
0.00336906
0.00341098
0.00324217
0.00146078
0.00147673
0.0014716
0.00145528
0.00142375
0.00139095
0.00136429
0.00136211
0.00138946
0.00145079
0.0015398
0.00165197
0.00178422
0.00193029
0.00208944
0.00225665
0.00243404