/*--------------------------------*- C++ -*----------------------------------*\
| =========                 |                                                 |
| \\      /  F ield         | OpenFOAM: The Open Source CFD Toolbox           |
|  \\    /   O peration     | Version:  v2012                                 |
|   \\  /    A nd           | Website:  www.openfoam.com                      |
|    \\/     M anipulation  |                                                 |
\*---------------------------------------------------------------------------*/
FoamFile
{
    version     2.0;
    format      ascii;
    class       vectorField;
    location    "0.031/lagrangian/kinematicCloud";
    object      U;
}
// * * * * * * * * * * * * * * * * * * * * * * * * * * * * * * * * * * * * * //


33
(
(10.2233 0.000438691 0)
(10.2664 -0.000203092 0)
(10.278 -0.000583395 0)
(10.2899 0.00102367 0)
(10.2972 -0.00203453 0)
(10.3023 -0.00114242 0)
(8.96478 0.000668726 0)
(10.3002 -0.00429237 0)
(10.3121 -0.00459012 0)
(10.3275 0.00196467 0)
(10.3268 0.000772289 0)
(10.3335 0.00369019 0)
(10.0005 -0.00446657 0)
(10.0471 0.00327215 0)
(10.1932 -0.00433485 0)
(10.359 4.9739e-05 0)
(10.3595 0.00377684 0)
(10.328 -0.00401879 0)
(10.3838 0.00256311 0)
(10.3841 -0.00366611 0)
(10.3918 -0.00213666 0)
(10.3903 -0.00345791 0)
(10.41 -0.0018798 0)
(10.4197 0.00198611 0)
(10.4194 0.000620227 0)
(10.4294 -0.00128143 0)
(10.4404 0.00154351 0)
(10.4412 -0.00136214 0)
(10.4421 0.00152859 0)
(10.4523 -0.00115181 0)
(9.90991 0.000122911 0)
(10.4751 0.000562971 0)
(10.4835 -0.000156047 0)
)


// ************************************************************************* //
