/*--------------------------------*- C++ -*----------------------------------*\
| =========                 |                                                 |
| \\      /  F ield         | OpenFOAM: The Open Source CFD Toolbox           |
|  \\    /   O peration     | Version:  v2012                                 |
|   \\  /    A nd           | Website:  www.openfoam.com                      |
|    \\/     M anipulation  |                                                 |
\*---------------------------------------------------------------------------*/
FoamFile
{
    version     2.0;
    format      ascii;
    class       volScalarField;
    location    "0.112";
    object      epsilon.air;
}
// * * * * * * * * * * * * * * * * * * * * * * * * * * * * * * * * * * * * * //

dimensions      [0 2 -3 0 0 0 0];


internalField   nonuniform List<scalar> 
1900
(
112.724
141.424
210.098
257.591
369.051
443.457
614.741
724.902
971.331
1128.61
15.4676
16.4471
18.6376
20.4502
23.7572
27.7278
31.9999
39.3097
44.9857
56.9749
14.7926
14.6414
14.5755
14.5063
14.515
14.5559
14.6443
14.829
15.0762
15.4173
14.77
14.6304
14.4634
14.3354
14.1726
14.059
13.9039
13.808
13.6653
13.5938
14.7766
14.6216
14.4704
14.3205
14.1747
14.029
13.8889
13.7473
13.6138
13.477
14.7777
14.6205
14.4714
14.3196
14.1754
14.0284
13.8891
13.7473
13.6132
13.4774
14.7777
14.6207
14.473
14.3235
14.184
14.045
13.9175
13.7915
13.6807
13.5716
14.7759
14.65
14.5638
14.5034
14.511
14.5499
14.6403
14.8189
15.0453
15.3948
15.2117
16.6028
18.2755
20.68
23.5929
27.5713
32.2687
38.4004
45.5755
54.8043
105.946
146.579
198.363
265.779
349.998
456.087
585.638
743.726
931.809
1154.1
4102.22
15195.1
19569.3
22448.2
21119
18032.4
15095.5
12800.6
11296
10376.1
9871.96
9694.63
9521.94
9256.39
8851.41
8353.01
7798.48
7211.71
6644.9
6126.15
5648.92
5221.93
4837.67
4486.78
4167.59
3878.28
3615.93
3378.54
3162.94
2967.27
2789.04
2626.25
2477.25
2340.52
2214.9
2099.25
1992.64
1894.16
1803.05
1718.61
1640.23
1567.33
1499.41
1436.02
1376.75
1321.24
1269.16
1220.21
1174.14
1130.69
1089.66
1050.85
1014.1
979.244
946.145
914.657
884.675
856.067
828.759
802.625
777.624
753.637
730.658
708.565
687.39
666.993
647.449
628.586
610.523
593.042
576.316
560.067
544.536
529.377
514.92
500.733
487.26
473.957
461.409
448.923
437.264
425.539
414.742
403.719
393.757
383.367
374.215
364.38
356.013
346.644
339.05
330.051
323.226
314.489
308.45
299.852
294.627
286.034
281.647
271.292
112.988
337.641
517.796
922.915
1126.41
1151.55
1123.61
1059.31
1051.89
1090.68
1195.07
1407.2
1694.29
2026.62
2378.05
2691.34
2969.33
3201.93
3356.75
3433.4
3425.72
3387.32
3302.34
3184.7
3056.72
2925.52
2794.81
2667.96
2544.29
2426.83
2314.6
2207.49
2106.02
2010.04
1919.65
1834.53
1754.55
1679.23
1608.33
1541.6
1478.76
1419.51
1363.64
1310.91
1261.12
1214.03
1169.47
1127.23
1087.14
1049.04
1012.78
978.228
945.265
913.778
883.673
854.847
827.235
800.74
775.317
750.87
727.38
704.748
682.984
661.984
641.791
622.284
603.546
585.424
568.044
551.207
535.087
519.427
504.46
489.862
475.946
462.305
449.356
436.587
424.545
412.581
401.408
390.193
379.862
369.339
359.823
349.924
341.196
331.846
323.881
314.992
307.776
299.254
292.781
284.523
278.806
270.696
265.76
257.669
253.543
243.819
16.4226
19.8657
22.8794
29.0934
34.8029
38.7639
41.7341
43.8014
46.711
50.7062
58.7152
70.9014
95.4163
130.083
189.384
267.249
373.415
508.125
665.235
835.531
1003.94
1162.1
1302.55
1419.79
1510.87
1574.33
1612.75
1629.61
1626.74
1615.63
1592.22
1561.67
1527.03
1489.69
1451.18
1411.51
1371.8
1331.56
1291.75
1252.62
1214.17
1176.56
1139.95
1104.44
1070.08
1036.81
1004.72
973.683
943.699
914.718
886.7
859.586
833.343
807.926
783.319
759.472
736.388
714.018
692.375
671.398
651.111
631.445
612.436
594.003
576.207
558.946
542.317
526.186
510.687
495.639
481.226
467.202
453.806
440.725
428.27
416.045
404.458
393.009
382.231
371.495
361.491
351.417
342.164
332.702
324.177
315.269
307.452
299.031
291.9
283.891
277.432
269.751
263.958
256.514
251.395
244.088
239.663
232.381
228.675
219.93
13.4531
13.4606
13.5461
13.8021
14.3329
15.0046
15.7165
16.3397
16.9273
17.3486
17.9016
18.3649
19.3018
20.4945
22.7308
26.2358
31.749
40.6924
54.6748
75.9631
106.2
146.684
198.483
260.475
330.369
405.606
481.579
555.702
623.072
684.62
737.445
780.951
815.053
840.225
858.211
869.24
874.991
874.519
871.945
866.166
857.5
846.842
834.729
821.295
806.992
791.889
776.342
760.217
743.84
727.304
710.612
693.828
677.028
660.257
643.598
627.048
610.715
594.592
578.775
563.23
548.049
533.182
518.702
504.551
490.814
477.406
464.434
451.777
439.578
427.67
416.246
405.069
394.396
383.908
373.937
364.078
354.755
345.455
336.733
327.949
319.808
311.504
303.932
296.074
289.062
281.611
275.15
268.06
262.148
255.369
249.993
243.459
238.617
232.26
227.96
221.704
217.963
211.726
208.559
201.064
13.3296
13.1592
13.0623
13.1163
13.3044
13.7147
14.2837
14.9092
15.451
15.8866
16.2119
16.4474
16.6196
16.7671
16.9022
17.085
17.3348
17.7146
18.3251
19.2851
20.8361
23.2069
26.7441
32.0829
39.7439
50.5743
65.0594
83.7814
106.717
133.886
164.677
198.058
233.151
268.364
303.205
336.018
366.949
394.88
419.61
440.89
458.728
473.132
484.488
492.888
498.835
502.476
504.386
504.151
503.066
500.654
496.959
492.284
486.832
480.668
473.95
466.757
459.252
451.435
443.502
435.389
427.305
419.141
411.04
402.973
395.037
387.156
379.418
371.731
364.226
356.769
349.55
342.349
335.441
328.498
321.899
315.198
308.896
302.43
296.419
290.16
284.429
278.362
272.921
267.041
261.905
256.204
251.389
245.854
241.366
235.97
231.826
226.551
222.771
217.588
214.187
209.056
206.053
200.931
198.341
192.169
13.3249
13.1545
13.0315
13.0861
13.295
13.7715
14.4958
15.4869
16.5049
17.6067
18.6025
19.5281
20.2645
20.8685
21.2916
21.5958
21.7647
21.8445
21.8328
21.7925
21.7053
21.6071
21.5344
21.5597
21.6667
21.9258
22.4671
23.3671
24.8524
27.053
30.3032
34.7832
40.8295
48.4974
57.9155
69.1612
82.189
96.8067
112.751
129.631
147.094
164.662
182.003
198.678
214.516
229.171
242.723
254.872
265.81
275.462
283.937
291.239
297.483
302.757
307.122
310.678
313.539
315.699
317.336
318.335
319.003
318.991
318.764
318.217
317.187
315.814
314.141
312.185
310.023
307.614
305.078
302.305
299.494
296.395
293.399
290.034
286.887
283.296
280.028
276.25
272.901
268.974
265.594
261.556
258.194
254.081
250.786
246.626
243.447
239.266
236.242
232.056
229.222
225.04
222.427
218.251
215.884
211.713
209.619
204.597
13.4657
13.3601
13.4096
13.6557
14.3029
15.6846
18.0244
21.4405
25.3969
29.7208
33.6323
37.0813
39.6012
41.5276
42.6064
43.304
43.3522
43.2269
42.923
42.4114
41.7975
41.1558
40.5066
39.9099
39.3373
38.8497
38.4808
38.2102
38.1164
38.1754
38.3559
38.7693
39.338
40.3314
41.5614
43.3328
45.5319
48.4647
52.1377
56.7541
62.4279
69.2107
77.3012
86.5748
97.1882
108.882
121.671
135.266
149.508
164.18
178.987
193.787
208.238
222.275
235.632
248.295
260.116
271.114
281.195
290.402
298.681
306.109
312.624
318.376
323.295
327.494
330.936
333.717
335.84
337.445
338.445
339.08
339.054
338.813
338.27
337.14
336.039
334.193
332.627
330.225
328.262
325.413
323.15
319.947
317.481
314.004
311.42
307.738
305.112
301.289
298.694
294.789
292.286
288.35
285.989
282.059
279.889
276.001
274.085
269.52
15.9099
16.8585
18.5477
21.9296
28.4053
39.4819
55.4285
75.0232
95.4351
114.325
129.326
140.11
146.473
150.055
150.71
150.29
149.215
147.681
146.288
145.15
144.514
144.712
145.337
146.781
148.853
152.157
156.066
161.183
166.951
173.963
181.666
190.763
200.522
211.699
223.543
236.73
250.583
265.654
281.471
298.143
315.437
333.07
351.214
369.286
387.565
405.406
422.945
439.81
456.047
471.625
486.475
500.679
514.078
526.769
538.644
549.805
560.141
569.758
578.426
586.267
593.005
598.835
603.552
607.295
610.04
611.811
612.669
612.545
611.973
610.682
608.75
606.239
603.443
600.06
596.644
592.52
588.678
583.935
579.754
574.544
570.109
564.582
560.015
554.297
549.721
543.906
539.41
533.554
529.204
523.354
519.219
513.429
509.566
503.891
500.353
494.831
491.704
486.368
483.797
477.852
68.0438
90.4265
126.238
184.867
271.898
385.068
511.378
635.932
744.951
831.768
892.78
932.634
953.204
962.841
964.514
963.402
960.453
957.475
957.095
957.905
960.374
966.28
975.214
986.465
999.692
1016.16
1034.81
1055.45
1077.47
1101.23
1126.35
1152.72
1179.44
1206.53
1233.41
1260.2
1286.31
1311.74
1336.09
1358.99
1380.64
1400.74
1419.77
1437.05
1453.15
1467.34
1480.28
1491.52
1501.56
1510.22
1517.68
1523.83
1528.72
1532.21
1534.53
1535.46
1535.13
1534.03
1531.66
1528.01
1523.13
1517.25
1510.31
1502.24
1493.58
1483.64
1473.14
1462
1450.45
1438.24
1426.02
1413.09
1400.57
1387.31
1374.74
1361.29
1348.79
1335.26
1322.93
1309.5
1297.51
1284.35
1272.87
1260.13
1249.31
1237.08
1226.97
1215.22
1205.84
1194.51
1185.91
1174.98
1167.19
1156.68
1149.74
1139.64
1133.67
1123.99
1119.27
1108.78
1464.66
1897.25
2399.03
2961.83
3563.14
4171.83
4746.05
5251.42
5654.98
5950.67
6132.37
6219.11
6206.48
6159.68
6061.16
5928.13
5778.17
5619.81
5459.41
5301.59
5149.41
5004.12
4867.25
4739.36
4620.57
4510.73
4409.43
4316.65
4231.77
4154.5
4084.09
4020.46
3963
3911.65
3865.66
3825.02
3789.15
3758.07
3731.09
3707.87
3687.85
3670.79
3656.49
3644.33
3634.28
3625.57
3618.52
3612.52
3607.96
3604.35
3601.91
3600.21
3599.26
3598.88
3599.01
3599.36
3600.09
3601.01
3601.94
3603
3603.94
3605.03
3606.22
3607.21
3608.55
3609.35
3610.11
3610.18
3609.93
3609.1
3607.78
3605.09
3602.39
3598.09
3594.13
3588.44
3583.43
3576.5
3570.49
3562.36
3555.34
3546
3537.96
3527.41
3518.4
3506.65
3496.82
3483.95
3473.53
3459.68
3449.04
3434.35
3423.83
3408.37
3398.3
3381.96
3372.62
3355.35
3346.59
3324.66
1109.75
1064.94
1122.19
1209.93
1238.57
1120.86
818.23
1979.39
54702.7
16177.4
7366.79
6108.92
6232.59
6482.53
6552.9
8025.31
74298.4
43678.8
24854.7
18468.5
16098.6
14997.1
14623.9
19663.4
76431.1
71035.5
54253.5
41193.9
32682.6
27153
24539.9
34052.3
69746.7
75705.7
67740.9
55641.3
44559.3
35837.3
30859.6
42694.4
57772.7
71177.3
67944.7
59040
48375.9
38732.8
32782.6
45221.4
47498.9
61841
62497
56618.4
47171.3
38182.2
32457.3
44249.9
39093.4
51826.3
53594.5
49847.2
42403.2
34683.1
29599.6
39779.7
32621.9
42990
44924.8
42137.5
36306.5
30046.8
25826.9
34057.6
27598.4
35621.7
37259
35117.1
30545.1
25559.2
22227.4
29388.2
23481.5
29582.8
30823.5
29122.1
25531.5
21633.3
19159.3
26023.5
20101.6
24692.4
25572.2
24182.3
21338.6
18296.5
16493.4
22979.6
17366.5
20779.8
21366.8
20207.7
17936.4
15552.6
14261
20353.6
15136.7
17656.6
18021.3
17040.2
15210.7
13329
12423
18143.1
13288.9
15148.5
15353.9
14516.8
13029.7
11534.3
10921.1
16311.6
11729.5
13109.1
13206.1
12489.1
11271.2
10076.5
9688.46
14791.6
10407.2
11438.9
11463.3
10846.8
9841.99
8883.31
8669.77
13523.8
9269.05
10052.4
10033.3
9500.67
8667.25
7896.47
7820.05
12457.2
8286.82
8890.59
8847.02
8385.33
7691.09
7071.68
7103.16
11550.6
7443.19
7912.16
7854.22
7453.31
6872.45
6375.76
6491.32
10772.8
6715.99
7083.35
7017.4
6668.34
6180.18
5783.21
5965.9
10098.3
6089.28
6377.94
6307.78
6002.71
5590.59
5274.96
5511.4
9508.06
5546.87
5774.19
5702.41
5434.82
5085.53
4836.66
5116.3
8989.03
5073.12
5253.32
5182.11
4946.89
4650.18
4456.71
4771.43
8531.42
4657.19
4801.05
4731.95
4524.87
4272.53
4125.47
4468.96
8126.44
4290.36
4406.08
4340.08
4157.6
3943.02
3835.14
4202.41
7766.58
3965.32
4059.11
3996.86
3836.03
3653.83
3579.33
3966.42
7445.66
3676.47
3752.89
3694.71
3552.97
3398.71
3352.82
3756.61
7158.61
3418.61
3481.28
3427.31
3302.49
3172.49
3151.3
3569.28
6901.21
3187.72
3239.36
3189.58
3079.77
2970.95
2971.25
3401.28
6669.53
2980.08
3022.9
2977.26
2880.85
2790.65
2809.31
3250.16
6460.15
2792.68
2828.43
2786.81
2702.39
2628.58
2663.28
3113.56
6270.25
2622.99
2653.07
2615.33
2541.69
2482.38
2531.19
2989.65
6097.47
2468.82
2494.39
2460.38
2396.48
2350.03
2411.32
2876.87
5939.67
2328.39
2350.37
2319.93
2264.82
2229.84
2302.21
2773.9
5794.99
2200.14
2219.29
2192.26
2145.1
2120.39
2202.64
2679.68
5661.96
2082.76
2099.69
2075.9
2035.97
2020.48
2111.56
2593.28
5539.37
1975.09
1990.3
1969.59
1936.23
1929.05
2028.09
2513.93
5426.27
1876.12
1890.01
1872.22
1844.86
1845.22
1951.41
2440.94
5321.88
1784.93
1797.86
1782.84
1760.98
1768.08
1880.91
2373.75
5225.54
1700.75
1712.98
1700.59
1683.77
1696.99
1815.9
2311.79
5136.66
1622.85
1634.61
1624.7
1612.52
1631.34
1755.84
2254.59
5054.69
1550.61
1562.07
1554.52
1546.61
1570.58
1700.22
2201.7
4979.11
1483.47
1494.79
1489.45
1485.5
1514.21
1648.61
2152.7
4909.39
1420.96
1432.24
1429
1428.72
1461.8
1600.6
2107.21
4845.02
1362.62
1373.97
1372.73
1375.81
1412.99
1555.87
2064.91
4785.43
1308.09
1319.58
1320.23
1326.42
1367.43
1514.08
2025.46
4730.09
1257.01
1268.7
1271.15
1280.27
1324.82
1474.99
1988.61
4678.5
1209.1
1221.05
1225.21
1237.06
1284.89
1438.33
1954.08
4630.2
1164.07
1176.33
1182.12
1196.53
1247.43
1403.92
1921.7
4584.78
1121.69
1134.32
1141.66
1158.47
1212.23
1371.55
1891.26
4541.96
1081.74
1094.78
1103.61
1122.68
1179.1
1341.09
1862.64
4501.51
1044.03
1057.51
1067.78
1088.97
1147.89
1312.37
1835.69
4463.28
1008.39
1022.34
1033.98
1057.18
1118.45
1285.28
1810.3
4427.13
974.645
989.097
1002.06
1027.16
1090.63
1259.69
1786.36
4392.96
942.644
957.618
971.856
998.75
1064.32
1235.5
1763.8
4360.73
912.262
927.774
943.242
971.845
1039.39
1212.59
1742.51
4330.4
883.353
899.419
916.079
946.316
1015.76
1190.9
1722.45
4301.93
855.829
872.462
890.276
922.074
993.317
1170.33
1703.53
4275.28
829.557
846.771
865.707
899.007
971.98
1150.81
1685.67
4250.31
804.488
822.29
842.318
877.058
951.686
1132.27
1668.81
4226.98
780.493
798.894
819.987
856.117
932.342
1114.63
1652.87
4205.04
757.562
776.567
798.698
836.167
913.924
1097.87
1637.81
4184.52
735.562
755.177
778.321
817.086
896.325
1081.88
1623.55
4165.08
714.522
734.749
758.882
798.896
879.562
1066.69
1610.07
4146.89
694.291
715.127
740.224
781.447
863.495
1052.16
1597.27
4129.5
674.94
696.383
722.418
764.812
848.189
1038.34
1585.19
4113.31
656.284
678.322
705.264
748.788
833.453
1025.08
1573.67
4097.69
638.441
661.065
688.891
733.506
819.416
1012.48
1562.81
4083.27
621.177
644.364
673.035
718.699
805.813
1000.29
1552.37
4069.2
604.67
628.407
657.9
704.581
792.862
988.71
1542.55
4056.35
588.621
612.876
643.148
690.796
780.203
977.404
1533.01
4043.56
573.288
598.05
629.079
677.67
768.171
966.694
1524.06
4032.04
558.298
583.526
615.262
664.739
756.283
956.093
1515.2
4020.2
544.009
569.694
602.125
652.471
745.037
946.11
1506.97
4009.72
529.954
556.049
589.113
640.26
733.778
936.054
1498.6
3998.42
516.616
543.12
576.814
628.758
723.225
926.696
1490.94
3988.65
503.405
530.262
564.515
617.171
712.49
917.058
1482.87
3977.43
490.962
518.18
553.001
606.383
702.577
908.268
1475.71
3968.13
478.53
506.046
541.35
595.353
692.295
898.957
1467.79
3956.65
466.947
494.779
530.595
585.261
683.011
890.731
1461.13
3947.75
455.24
483.315
519.542
574.741
673.134
881.693
1453.28
3935.9
444.492
472.846
509.536
565.346
664.5
874.079
1447.2
3927.6
433.452
461.998
499.034
555.296
654.996
865.288
1439.39
3915.5
423.519
452.311
489.771
546.608
647.045
858.353
1434.03
3908.08
413.081
442.022
479.769
536.991
637.891
849.811
1426.32
3896.06
403.941
433.099
471.24
529.012
630.643
843.605
1421.76
3889.66
394.03
423.301
461.684
519.788
621.825
835.338
1414.26
3878.1
385.662
415.126
453.873
512.504
615.267
829.843
1410.46
3872.65
376.195
405.742
444.698
503.629
606.774
821.9
1403.36
3861.85
368.586
398.302
437.59
497.017
600.865
817.041
1400.1
3856.99
359.47
389.244
428.717
488.427
592.66
809.428
1393.55
3847.15
352.619
382.536
422.304
482.466
587.361
805.144
1390.7
3842.76
343.746
373.704
413.641
474.085
579.389
797.839
1384.74
3833.72
337.667
367.734
407.915
468.748
574.643
794.027
1382.2
3829.59
328.919
359.013
399.361
460.49
566.841
786.993
1376.7
3821.11
323.635
353.797
394.322
455.75
562.575
783.514
1374.31
3817.07
314.88
345.065
385.765
447.52
554.878
776.729
1369.2
3809.13
310.407
340.605
381.398
443.335
551.004
773.411
1366.83
3805.09
299.812
329.989
370.934
433.204
541.459
764.938
1360.12
3795.78
)
;

boundaryField
{
    frontAndBack
    {
        type            empty;
    }
    inlet
    {
        type            fixedValue;
        value           uniform 14.855;
    }
    outlet
    {
        type            zeroGradient;
    }
    walls
    {
        lowReCorrection 0;
        blending        stepwise;
        n               2;
        type            epsilonWallFunction;
        value           nonuniform List<scalar> 
228
(
112.724
141.424
210.098
257.591
369.051
443.457
614.741
724.902
971.331
1128.61
1109.75
1064.94
1122.19
1209.93
1238.57
1120.86
818.23
1979.39
1979.39
8025.31
19663.4
34052.3
42694.4
45221.4
44249.9
39779.7
34057.6
29388.2
26023.5
22979.6
20353.6
18143.1
16311.6
14791.6
13523.8
12457.2
11550.6
10772.8
10098.3
9508.06
8989.03
8531.42
8126.44
7766.58
7445.66
7158.61
6901.21
6669.53
6460.15
6270.25
6097.47
5939.67
5794.99
5661.96
5539.37
5426.27
5321.88
5225.54
5136.66
5054.69
4979.11
4909.39
4845.02
4785.43
4730.09
4678.5
4630.2
4584.78
4541.96
4501.51
4463.28
4427.13
4392.96
4360.73
4330.4
4301.93
4275.28
4250.31
4226.98
4205.04
4184.52
4165.08
4146.89
4129.5
4113.31
4097.69
4083.27
4069.2
4056.35
4043.56
4032.04
4020.2
4009.72
3998.42
3988.65
3977.43
3968.13
3956.65
3947.75
3935.9
3927.6
3915.5
3908.08
3896.06
3889.66
3878.1
3872.65
3861.85
3856.99
3847.15
3842.76
3833.72
3829.59
3821.11
3817.07
3809.13
3805.09
3795.78
105.946
146.579
198.363
265.779
349.998
456.087
585.638
743.726
931.809
1154.1
1464.66
1897.25
2399.03
2961.83
3563.14
4171.83
4746.05
5251.42
5654.98
5950.67
6132.37
6219.11
6206.48
6159.68
6061.16
5928.13
5778.17
5619.81
5459.41
5301.59
5149.41
5004.12
4867.25
4739.36
4620.57
4510.73
4409.43
4316.65
4231.77
4154.5
4084.09
4020.46
3963
3911.65
3865.66
3825.02
3789.15
3758.07
3731.09
3707.87
3687.85
3670.79
3656.49
3644.33
3634.28
3625.57
3618.52
3612.52
3607.96
3604.35
3601.91
3600.21
3599.26
3598.88
3599.01
3599.36
3600.09
3601.01
3601.94
3603
3603.94
3605.03
3606.22
3607.21
3608.55
3609.35
3610.11
3610.18
3609.93
3609.1
3607.78
3605.09
3602.39
3598.09
3594.13
3588.44
3583.43
3576.5
3570.49
3562.36
3555.34
3546
3537.96
3527.41
3518.4
3506.65
3496.82
3483.95
3473.53
3459.68
3449.04
3434.35
3423.83
3408.37
3398.3
3381.96
3372.62
3355.35
3346.59
3324.66
)
;
    }
}


// ************************************************************************* //
