/*--------------------------------*- C++ -*----------------------------------*\
| =========                 |                                                 |
| \\      /  F ield         | OpenFOAM: The Open Source CFD Toolbox           |
|  \\    /   O peration     | Version:  v2012                                 |
|   \\  /    A nd           | Website:  www.openfoam.com                      |
|    \\/     M anipulation  |                                                 |
\*---------------------------------------------------------------------------*/
FoamFile
{
    version     2.0;
    format      ascii;
    class       surfaceScalarField;
    location    "0.112";
    object      phi.air;
}
// * * * * * * * * * * * * * * * * * * * * * * * * * * * * * * * * * * * * * //

dimensions      [0 3 -1 0 0 0 0];
oriented        oriented;


internalField   nonuniform List<scalar> 
10964
(
0.000657106
2.51272e-05
0.000628901
2.73641e-05
0.000601318
2.67393e-05
0.000575026
2.54454e-05
0.00055112
2.30585e-05
0.000530161
2.01096e-05
0.000512503
1.68065e-05
0.000497901
1.37495e-05
0.000485909
1.11381e-05
0.000476266
8.78898e-06
0.00046866
6.75048e-06
0.000462713
5.09215e-06
0.000458073
3.78434e-06
0.000454433
2.78429e-06
0.00045154
2.03685e-06
0.000449196
1.48795e-06
0.000447253
1.08704e-06
0.00044561
7.87258e-07
0.000444195
5.5939e-07
0.000442976
3.62241e-07
0.000441919
2.0142e-07
0.00044102
4.33437e-08
0.000440273
-1.0958e-07
0.000439661
-2.4337e-07
0.000439157
-3.5238e-07
0.000438741
-4.39824e-07
0.000438398
-5.12849e-07
0.000438106
-5.62939e-07
0.000437851
-6.01438e-07
0.000437615
-6.1956e-07
0.000437388
-6.28499e-07
0.00043715
-6.17139e-07
0.000436914
-6.20391e-07
0.00043668
-6.21112e-07
0.00043644
-6.15591e-07
0.000436207
-6.23066e-07
0.000435977
-6.2542e-07
0.000435758
-6.36689e-07
0.000435543
-6.40124e-07
0.00043534
-6.5256e-07
0.000435143
-6.58715e-07
0.000434962
-6.74085e-07
0.000434784
-6.77991e-07
0.000434631
-7.02165e-07
0.000434482
-7.06443e-07
0.000434357
-7.31204e-07
0.000434228
-7.26384e-07
0.000434125
-7.51725e-07
0.000434014
-7.4521e-07
0.00043392
-7.61114e-07
0.000433846
-7.82004e-07
0.000433752
-7.61034e-07
0.000433703
-8.06207e-07
0.000433613
-7.65581e-07
0.000433579
-8.21898e-07
0.00043348
-7.55931e-07
0.00043342
-7.96286e-07
0.000433359
-7.94392e-07
0.000433217
-7.13047e-07
0.000433152
-7.90866e-07
0.000433003
-7.06576e-07
0.000432927
-7.79359e-07
0.000432805
-7.3305e-07
0.000432726
-7.76503e-07
0.000432676
-8.05191e-07
0.000432601
-7.81458e-07
0.000432625
-8.78802e-07
0.000432545
-7.75904e-07
0.000432568
-8.78317e-07
0.000432532
-8.19116e-07
0.000432561
-8.85454e-07
0.000432545
-8.38895e-07
0.000432535
-8.4547e-07
0.000432621
-9.41653e-07
0.000432517
-7.51404e-07
0.000432612
-9.50414e-07
0.000432557
-8.00435e-07
0.000432598
-8.96829e-07
0.000432581
-8.37781e-07
0.000432541
-8.1593e-07
0.000432659
-9.73965e-07
0.000432438
-6.33865e-07
0.000432606
-1.02428e-06
0.000432522
-7.70474e-07
0.00043251
-8.44759e-07
0.000432512
-8.56474e-07
0.000432381
-7.25219e-07
0.000432568
-1.04172e-06
0.000432265
-5.52801e-07
0.000432344
-9.35366e-07
0.000432348
-8.58359e-07
0.000432133
-6.41162e-07
0.000432352
-1.07411e-06
0.0004318
-3.03785e-07
0.000432254
-1.30997e-06
0.000431663
-2.63946e-07
0.000431743
-9.36768e-07
0.000431541
-6.52247e-07
0.000428516
2.16752e-06
-4.77691e-06
0.000432438
0.000757085
2.43227e-05
0.000754876
2.95728e-05
0.000751202
3.04133e-05
0.000745928
3.07193e-05
0.000739361
2.96252e-05
0.000731832
2.76392e-05
0.000723577
2.50615e-05
0.000714967
2.23591e-05
0.000706312
1.97934e-05
0.000697782
1.73185e-05
0.000689588
1.49453e-05
0.000681839
1.28406e-05
0.00067462
1.10031e-05
0.000667975
9.42957e-06
0.000661924
8.08806e-06
0.000656454
6.95834e-06
0.000651544
5.99682e-06
0.00064716
5.17108e-06
0.000643277
4.44185e-06
0.000639871
3.76896e-06
0.000636901
3.17072e-06
0.000634313
2.63225e-06
0.000632002
2.2008e-06
0.000629934
1.82492e-06
0.00062808
1.50179e-06
0.000626417
1.22311e-06
0.000624894
1.00964e-06
0.000623479
8.524e-07
0.000622158
7.19635e-07
0.00062093
6.08004e-07
0.000619782
5.19824e-07
0.000618718
4.46508e-07
0.000617739
3.58836e-07
0.000616833
2.85225e-07
0.000615994
2.22932e-07
0.000615216
1.54894e-07
0.000614494
9.73434e-08
0.000613825
3.18574e-08
0.000613205
-2.02388e-08
0.00061263
-7.75897e-08
0.000612096
-1.24312e-07
0.000611601
-1.79011e-07
0.000611141
-2.18048e-07
0.000610719
-2.80196e-07
0.000610328
-3.15404e-07
0.000609969
-3.72883e-07
0.000609632
-3.8907e-07
0.000609316
-4.35742e-07
0.000609019
-4.47883e-07
0.000608723
-4.65815e-07
0.000608459
-5.17728e-07
0.000608201
-5.03138e-07
0.000607986
-5.90603e-07
0.000607779
-5.59261e-07
0.000607602
-6.44603e-07
0.000607448
-6.02259e-07
0.00060727
-6.18256e-07
0.000607105
-6.2868e-07
0.000606919
-5.27403e-07
0.000606737
-6.09017e-07
0.000606558
-5.27077e-07
0.000606397
-6.18476e-07
0.000606253
-5.89552e-07
0.000606114
-6.37096e-07
0.000606029
-7.20303e-07
0.000605943
-6.95453e-07
0.00060587
-8.05824e-07
0.000605828
-7.33566e-07
0.0006058
-8.50956e-07
0.000605774
-7.92627e-07
0.000605776
-8.87568e-07
0.000605781
-8.44037e-07
0.000605774
-8.38096e-07
0.000605781
-9.48823e-07
0.000605804
-7.74257e-07
0.000605805
-9.51948e-07
0.000605806
-8.00702e-07
0.000605803
-8.94556e-07
0.000605811
-8.45696e-07
0.000605769
-7.73881e-07
0.000605777
-9.81737e-07
0.000605793
-6.50407e-07
0.000605749
-9.79454e-07
0.000605731
-7.52725e-07
0.000605688
-8.01539e-07
0.000605696
-8.65034e-07
0.000605601
-6.30223e-07
0.000605587
-1.02716e-06
0.000605585
-5.51404e-07
0.000605473
-8.22709e-07
0.000605446
-8.32131e-07
0.000605338
-5.33285e-07
0.000605316
-1.05195e-06
0.000605252
-2.39881e-07
0.000605016
-1.07316e-06
0.000605166
-4.14172e-07
0.000604529
-2.99735e-07
0.000604814
-9.37211e-07
0.000604296
2.68561e-06
-4.89677e-06
0.000604416
0.000840342
2.13133e-05
0.000842331
2.75838e-05
0.000844303
2.84423e-05
0.000845632
2.93894e-05
0.000846213
2.90442e-05
0.000845985
2.78676e-05
0.000845037
2.60098e-05
0.000843329
2.40668e-05
0.000840903
2.2219e-05
0.000837776
2.04456e-05
0.000834026
1.86959e-05
0.000829712
1.71545e-05
0.000824939
1.57756e-05
0.000819828
1.45408e-05
0.000814507
1.3409e-05
0.000809091
1.2374e-05
0.000803704
1.13838e-05
0.00079845
1.04257e-05
0.000793419
9.47288e-06
0.000788679
8.50907e-06
0.000784255
7.59391e-06
0.000780181
6.70713e-06
0.000776458
5.92301e-06
0.000773066
5.21747e-06
0.000769972
4.59568e-06
0.000767153
4.04169e-06
0.000764561
3.60193e-06
0.000762172
3.24102e-06
0.00075997
2.92255e-06
0.000757951
2.6269e-06
0.000756089
2.38152e-06
0.00075439
2.14545e-06
0.00075283
1.91854e-06
0.000751394
1.72162e-06
0.00075007
1.54652e-06
0.000748845
1.37985e-06
0.000747711
1.2317e-06
0.000746664
1.0786e-06
0.000745697
9.46656e-07
0.000744804
8.15602e-07
0.000743978
7.02157e-07
0.000743212
5.86285e-07
0.000742503
4.91204e-07
0.00074184
3.832e-07
0.00074122
3.04454e-07
0.000740637
2.09543e-07
0.000740102
1.4615e-07
0.000739582
8.46903e-08
0.000739111
2.26272e-08
0.000738638
7.533e-09
0.00073821
-8.96312e-08
0.000737804
-9.77377e-08
0.000737438
-2.24504e-07
0.000737128
-2.48573e-07
0.00073682
-3.36805e-07
0.000736588
-3.70547e-07
0.000736303
-3.33039e-07
0.000736059
-3.85042e-07
0.000735818
-2.86456e-07
0.00073556
-3.50354e-07
0.000735339
-3.06329e-07
0.000735105
-3.84283e-07
0.000734957
-4.41537e-07
0.000734751
-4.31352e-07
0.000734618
-5.87375e-07
0.000734517
-5.94649e-07
0.000734412
-7.00745e-07
0.000734361
-6.8278e-07
0.000734302
-7.91643e-07
0.000734285
-7.7596e-07
0.000734247
-8.49477e-07
0.000734283
-8.79943e-07
0.000734271
-8.26064e-07
0.000734259
-9.37072e-07
0.000734304
-8.19155e-07
0.000734283
-9.30115e-07
0.000734311
-8.29669e-07
0.000734265
-8.47843e-07
0.000734325
-9.05683e-07
0.000734275
-7.23755e-07
0.000734232
-9.39453e-07
0.00073429
-7.08028e-07
0.000734204
-8.93246e-07
0.000734221
-7.69586e-07
0.000734124
-7.04931e-07
0.000734173
-9.13832e-07
0.000734106
-5.63456e-07
0.00073399
-9.1073e-07
0.000734047
-6.08532e-07
0.000733903
-6.78758e-07
0.000733895
-8.23894e-07
0.000733817
-4.55442e-07
0.000733689
-9.24704e-07
0.00073376
-3.10308e-07
0.000733389
-7.02338e-07
0.000733582
-6.06633e-07
0.000733151
1.30866e-07
0.000733233
-1.01928e-06
0.000733921
1.99723e-06
-3.16536e-06
0.00073219
0.000930295
1.80908e-05
0.000933079
2.48002e-05
0.000936234
2.52875e-05
0.000939313
2.63097e-05
0.000942131
2.62267e-05
0.000944657
2.5342e-05
0.000946786
2.38805e-05
0.000948508
2.23446e-05
0.000949817
2.09099e-05
0.000950711
1.95517e-05
0.000951158
1.82493e-05
0.000951127
1.71858e-05
0.000950718
1.61841e-05
0.00094989
1.53685e-05
0.000948628
1.46712e-05
0.000946927
1.40747e-05
0.000944788
1.35232e-05
0.000942218
1.29958e-05
0.000939238
1.24526e-05
0.000935887
1.186e-05
0.000932207
1.12741e-05
0.000928292
1.06221e-05
0.000924262
9.95261e-06
0.000920212
9.26801e-06
0.000916221
8.58617e-06
0.000912372
7.8907e-06
0.000908728
7.24616e-06
0.00090533
6.63905e-06
0.000902176
6.07685e-06
0.000899267
5.53583e-06
0.000896573
5.07514e-06
0.000894091
4.62747e-06
0.000891765
4.24498e-06
0.000889589
3.89794e-06
0.000887555
3.57987e-06
0.000885659
3.27584e-06
0.00088389
3.00099e-06
0.000882248
2.72022e-06
0.000880726
2.46925e-06
0.000879317
2.22385e-06
0.000878018
2.00168e-06
0.000876811
1.7928e-06
0.000875687
1.61539e-06
0.000874638
1.43278e-06
0.000873668
1.27436e-06
0.000872758
1.11921e-06
0.000871935
9.6945e-07
0.000871128
8.91555e-07
0.00087041
7.41009e-07
0.000869702
7.15482e-07
0.000869054
5.57977e-07
0.000868447
5.08862e-07
0.000867884
3.38772e-07
0.000867412
2.23166e-07
0.000866931
1.44219e-07
0.00086656
4.59904e-10
0.000866128
9.91744e-08
0.000865767
-2.3965e-08
0.000865418
6.23338e-08
0.000865062
5.93864e-09
0.000864764
-8.46825e-09
0.000864443
-6.3291e-08
0.000864254
-2.52786e-07
0.000863976
-1.52634e-07
0.000863797
-4.08528e-07
0.00086366
-4.57829e-07
0.000863536
-5.76474e-07
0.000863463
-6.10165e-07
0.000863384
-7.12553e-07
0.00086337
-7.62308e-07
0.000863304
-7.82896e-07
0.000863349
-9.25235e-07
0.000863334
-8.1118e-07
0.000863327
-9.29649e-07
0.000863367
-8.59459e-07
0.00086335
-9.12713e-07
0.000863394
-8.73646e-07
0.000863319
-7.73698e-07
0.000863408
-9.94574e-07
0.000863354
-6.69488e-07
0.000863307
-8.92294e-07
0.000863342
-7.42928e-07
0.000863261
-8.12178e-07
0.000863292
-8.0109e-07
0.00086317
-5.82195e-07
0.000863235
-9.7911e-07
0.000863173
-5.0193e-07
0.000863054
-7.90934e-07
0.000863089
-6.4446e-07
0.000862959
-5.48041e-07
0.000862957
-8.22329e-07
0.000862878
-3.75813e-07
0.000862773
-8.20041e-07
0.000862832
-3.69032e-07
0.000862564
-4.34299e-07
0.000862672
-7.15451e-07
0.000862664
1.39718e-07
0.000862491
-8.46557e-07
0.000863282
1.2058e-06
-1.84964e-06
0.000861967
0.00102962
1.48965e-05
0.00103284
2.15815e-05
0.0010364
2.17321e-05
0.00104004
2.26637e-05
0.00104357
2.2697e-05
0.00104697
2.19469e-05
0.00105012
2.07282e-05
0.00105301
1.94525e-05
0.00105566
1.82601e-05
0.00105807
1.71487e-05
0.00106022
1.60927e-05
0.00106216
1.52527e-05
0.00106386
1.44767e-05
0.00106537
1.3863e-05
0.00106667
1.33686e-05
0.00106777
1.29764e-05
0.00106865
1.26434e-05
0.0010693
1.23487e-05
0.00106968
1.20681e-05
0.00106975
1.17953e-05
0.00106951
1.15146e-05
0.00106894
1.1192e-05
0.00106801
1.08825e-05
0.0010667
1.05688e-05
0.00106504
1.02557e-05
0.00106302
9.90506e-06
0.00106072
9.55126e-06
0.00105818
9.17584e-06
0.00105548
8.78102e-06
0.00105266
8.35477e-06
0.00104977
7.96387e-06
0.00104689
7.50481e-06
0.00104405
7.08769e-06
0.0010413
6.6468e-06
0.00103864
6.23676e-06
0.00103611
5.80633e-06
0.0010337
5.41586e-06
0.00103142
4.99899e-06
0.00102926
4.62213e-06
0.00102724
4.24567e-06
0.00102535
3.89199e-06
0.00102355
3.59468e-06
0.00102183
3.33096e-06
0.00102021
3.05946e-06
0.0010187
2.78495e-06
0.00101726
2.56081e-06
0.00101596
2.26848e-06
0.00101468
2.17253e-06
0.00101353
1.88708e-06
0.00101244
1.80319e-06
0.00101143
1.57077e-06
0.0010105
1.43464e-06
0.0010096
1.23903e-06
0.00100885
9.79424e-07
0.00100803
9.57785e-07
0.00100736
6.69296e-07
0.00100667
7.92125e-07
0.00100605
5.96174e-07
0.0010055
6.16565e-07
0.00100492
5.79241e-07
0.00100451
4.02003e-07
0.00100403
4.25387e-07
0.00100371
6.0185e-08
0.00100338
1.80052e-07
0.00100313
-1.58023e-07
0.00100296
-2.90416e-07
0.0010028
-4.13527e-07
0.00100272
-5.31715e-07
0.00100261
-6.0535e-07
0.00100261
-7.64327e-07
0.00100252
-6.92506e-07
0.00100254
-9.41108e-07
0.00100255
-8.20877e-07
0.00100253
-9.13845e-07
0.00100259
-9.18417e-07
0.00100255
-8.70734e-07
0.00100263
-9.52146e-07
0.00100254
-6.88796e-07
0.00100259
-1.04176e-06
0.0010026
-6.79672e-07
0.00100253
-8.20145e-07
0.00100258
-7.97583e-07
0.00100249
-7.15165e-07
0.00100256
-8.75873e-07
0.00100246
-4.81163e-07
0.00100244
-9.54542e-07
0.00100248
-5.46798e-07
0.00100234
-6.49155e-07
0.00100242
-7.22572e-07
0.00100232
-4.52738e-07
0.00100225
-7.53404e-07
0.00100229
-4.13337e-07
0.00100217
-6.95104e-07
0.0010023
-5.02592e-07
0.00100216
-2.95031e-07
0.0010022
-7.58478e-07
0.00100245
-1.09098e-07
0.00100213
-5.22092e-07
0.00100268
6.58435e-07
-1.51442e-06
0.00100234
0.00113955
1.17865e-05
0.00114322
1.79072e-05
0.00114711
1.78473e-05
0.00115114
1.86309e-05
0.0011551
1.87308e-05
0.00115895
1.80959e-05
0.00116259
1.70964e-05
0.00116599
1.60479e-05
0.00116919
1.50603e-05
0.00117219
1.41481e-05
0.001175
1.32866e-05
0.00117765
1.26005e-05
0.00118015
1.19804e-05
0.00118252
1.14909e-05
0.00118478
1.11075e-05
0.00118694
1.08152e-05
0.00118901
1.05746e-05
0.00119098
1.03736e-05
0.00119286
1.01892e-05
0.00119464
1.0021e-05
0.0011963
9.85707e-06
0.00119782
9.66487e-06
0.00119921
9.49386e-06
0.00120045
9.33339e-06
0.00120151
9.19539e-06
0.00120237
9.03841e-06
0.00120302
8.90138e-06
0.00120344
8.75477e-06
0.0012036
8.6225e-06
0.00120347
8.48441e-06
0.0012031
8.33308e-06
0.00120247
8.13645e-06
0.0012016
7.96057e-06
0.0012005
7.74599e-06
0.0011992
7.54218e-06
0.00119771
7.28901e-06
0.00119607
7.05428e-06
0.00119432
6.75629e-06
0.00119246
6.47865e-06
0.00119055
6.15954e-06
0.00118858
5.85619e-06
0.00118663
5.54961e-06
0.0011847
5.26101e-06
0.00118279
4.9672e-06
0.00118096
4.61363e-06
0.00117912
4.40234e-06
0.00117741
3.98013e-06
0.00117572
3.86238e-06
0.00117415
3.4594e-06
0.00117267
3.28013e-06
0.00117125
2.99159e-06
0.00116999
2.68863e-06
0.00116867
2.55834e-06
0.00116749
2.16211e-06
0.00116623
2.22078e-06
0.00116509
1.81077e-06
0.00116401
1.87346e-06
0.00116293
1.67056e-06
0.00116203
1.51438e-06
0.0011611
1.51344e-06
0.00116042
1.08473e-06
0.00115968
1.162e-06
0.00115916
5.77308e-07
0.0011588
5.45551e-07
0.00115848
1.60144e-07
0.00115828
-9.54078e-08
0.00115808
-2.0639e-07
0.00115801
-4.60329e-07
0.00115787
-4.68015e-07
0.00115787
-7.69163e-07
0.00115781
-6.28797e-07
0.00115779
-9.20523e-07
0.00115783
-8.6183e-07
0.00115779
-8.7225e-07
0.00115788
-1.00875e-06
0.00115779
-7.84324e-07
0.00115787
-1.0331e-06
0.00115787
-6.89949e-07
0.00115785
-1.0207e-06
0.00115791
-7.38991e-07
0.00115782
-7.30083e-07
0.00115795
-9.27743e-07
0.00115784
-6.01997e-07
0.00115788
-9.20635e-07
0.00115794
-5.32987e-07
0.00115787
-8.91131e-07
0.00115804
-7.11605e-07
0.00115786
-4.75175e-07
0.00115795
-8.09436e-07
0.00115805
-5.48753e-07
0.00115798
-6.84587e-07
0.00115812
-5.55489e-07
0.001158
-5.73538e-07
0.00115817
-6.78428e-07
0.00115822
-3.45738e-07
0.00115824
-7.74162e-07
0.00115855
-4.1476e-07
0.00115833
-3.07731e-07
0.00115869
2.9631e-07
-1.6275e-06
0.00115881
0.0012613
8.72183e-06
0.00126542
1.3785e-05
0.00126966
1.36069e-05
0.00127409
1.42037e-05
0.00127848
1.43381e-05
0.00128274
1.38314e-05
0.00128678
1.30607e-05
0.00129058
1.22458e-05
0.00129417
1.14703e-05
0.00129756
1.07612e-05
0.00130075
1.00946e-05
0.00130379
9.56057e-06
0.00130669
9.08424e-06
0.00130947
8.70388e-06
0.00131217
8.41061e-06
0.00131479
8.19071e-06
0.00131736
8.01138e-06
0.00131986
7.86593e-06
0.00132232
7.73514e-06
0.00132472
7.61951e-06
0.00132707
7.50903e-06
0.00132936
7.37806e-06
0.00133159
7.2568e-06
0.00133377
7.1562e-06
0.0013359
7.06696e-06
0.00133795
6.98167e-06
0.00133996
6.90064e-06
0.00134188
6.82706e-06
0.00134374
6.76649e-06
0.0013455
6.72323e-06
0.00134717
6.66141e-06
0.00134872
6.58992e-06
0.00135016
6.52176e-06
0.00135145
6.4583e-06
0.0013526
6.38483e-06
0.00135358
6.31149e-06
0.0013544
6.23213e-06
0.00135503
6.13186e-06
0.00135546
6.04871e-06
0.0013557
5.91622e-06
0.0013557
5.8553e-06
0.00135554
5.70869e-06
0.00135524
5.56285e-06
0.00135478
5.4246e-06
0.00135417
5.22744e-06
0.00135343
5.13735e-06
0.00135253
4.88024e-06
0.00135155
4.84099e-06
0.00135044
4.57515e-06
0.00134931
4.41107e-06
0.00134808
4.22236e-06
0.0013469
3.86311e-06
0.00134566
3.79878e-06
0.00134441
3.41355e-06
0.00134318
3.45442e-06
0.00134182
3.16382e-06
0.00134063
3.07023e-06
0.00133923
3.06335e-06
0.00133807
2.67839e-06
0.00133694
2.64879e-06
0.00133598
2.04429e-06
0.00133525
1.88432e-06
0.00133461
1.21825e-06
0.00133426
8.97971e-07
0.00133387
5.47379e-07
0.00133369
8.37255e-08
0.0013335
-1.18025e-08
0.0013334
-3.58022e-07
0.00133333
-4.05343e-07
0.0013333
-7.33808e-07
0.00133334
-6.67032e-07
0.00133326
-8.40098e-07
0.00133339
-9.91708e-07
0.00133328
-7.66319e-07
0.00133332
-1.04534e-06
0.00133334
-8.05302e-07
0.00133332
-1.01028e-06
0.00133346
-8.34104e-07
0.00133336
-9.16318e-07
0.00133358
-9.6883e-07
0.00133346
-6.02781e-07
0.00133349
-9.55804e-07
0.00133354
-6.52717e-07
0.00133352
-9.06996e-07
0.00133376
-7.69893e-07
0.00133359
-7.2443e-07
0.00133392
-1.03708e-06
0.00133394
-4.951e-07
0.00133392
-7.88586e-07
0.00133415
-7.78614e-07
0.00133415
-6.85868e-07
0.0013344
-8.02119e-07
0.00133436
-5.43221e-07
0.00133456
-8.69496e-07
0.00133475
-5.3822e-07
0.00133473
-7.52453e-07
0.00133502
-7.08305e-07
0.00133508
-3.6379e-07
0.00133526
1.11972e-07
-1.75417e-06
0.00133539
0.00139614
5.65848e-06
0.00140075
9.18153e-06
0.00140539
8.96116e-06
0.00141024
9.35389e-06
0.0014151
9.47558e-06
0.00141982
9.11783e-06
0.00142428
8.59652e-06
0.00142849
8.03518e-06
0.00143247
7.49321e-06
0.00143623
7.00492e-06
0.00143977
6.54768e-06
0.00144315
6.17955e-06
0.00144639
5.85267e-06
0.0014495
5.58884e-06
0.00145252
5.38733e-06
0.00145548
5.23845e-06
0.00145837
5.11884e-06
0.00146121
5.02417e-06
0.00146401
4.93919e-06
0.00146676
4.86784e-06
0.00146947
4.80022e-06
0.00147213
4.71455e-06
0.00147476
4.62855e-06
0.00147735
4.5637e-06
0.00147992
4.50342e-06
0.00148245
4.45135e-06
0.00148495
4.39973e-06
0.00148742
4.35058e-06
0.00148987
4.31638e-06
0.0014923
4.29953e-06
0.00149469
4.26745e-06
0.00149705
4.23243e-06
0.00149937
4.19538e-06
0.00150166
4.17307e-06
0.00150391
4.13572e-06
0.0015061
4.11599e-06
0.00150826
4.0797e-06
0.00151034
4.05173e-06
0.00151237
4.01268e-06
0.00151431
3.97588e-06
0.00151621
3.96279e-06
0.00151798
3.93167e-06
0.00151967
3.87237e-06
0.00152127
3.83098e-06
0.00152272
3.77524e-06
0.00152412
3.73364e-06
0.00152527
3.72974e-06
0.00152648
3.63606e-06
0.00152739
3.66013e-06
0.00152824
3.5614e-06
0.00152893
3.53768e-06
0.00152938
3.41301e-06
0.00152983
3.3499e-06
0.00152997
3.2689e-06
0.00153019
3.23414e-06
0.00153007
3.28884e-06
0.00152996
3.18094e-06
0.00152965
3.37057e-06
0.00152926
3.07127e-06
0.0015289
3.00705e-06
0.0015284
2.54662e-06
0.00152815
2.12755e-06
0.00152774
1.62797e-06
0.0015276
1.03636e-06
0.00152742
7.33938e-07
0.00152731
1.91685e-07
0.00152727
3.14702e-08
0.00152724
-3.33248e-07
0.00152735
-5.18873e-07
0.00152728
-6.60698e-07
0.00152751
-8.95557e-07
0.00152738
-7.11459e-07
0.00152752
-1.12602e-06
0.00152758
-8.28642e-07
0.00152762
-1.08977e-06
0.00152779
-9.7092e-07
0.00152769
-9.06991e-07
0.00152795
-1.09547e-06
0.00152772
-6.88266e-07
0.00152792
-1.16746e-06
0.00152797
-6.59627e-07
0.00152796
-9.44731e-07
0.00152813
-8.2393e-07
0.001528
-7.7493e-07
0.00152827
-1.03606e-06
0.00152808
-5.39329e-07
0.00152815
-1.10324e-06
0.00152834
-6.90025e-07
0.00152829
-7.31133e-07
0.00152841
-9.06746e-07
0.00152842
-6.89722e-07
0.00152853
-9.09141e-07
0.00152856
-5.8009e-07
0.0015286
-9.0607e-07
0.00152881
-7.47396e-07
0.00152873
-6.77952e-07
0.0015288
-7.71015e-07
0.00152903
-6.00882e-07
0.0015293
-1.56404e-07
-1.87429e-06
0.00152942
0.00154551
2.52746e-06
0.00155064
4.05142e-06
0.00155576
3.84794e-06
0.00156107
4.03806e-06
0.00156645
4.09357e-06
0.00157167
3.9047e-06
0.0015766
3.65864e-06
0.00158127
3.37419e-06
0.00158567
3.08999e-06
0.00158983
2.84573e-06
0.00159376
2.61808e-06
0.0015975
2.43554e-06
0.00160108
2.27127e-06
0.00160453
2.13714e-06
0.00160789
2.0361e-06
0.00161116
1.96426e-06
0.00161437
1.90901e-06
0.00161752
1.86889e-06
0.00162063
1.83194e-06
0.00162369
1.80647e-06
0.00162671
1.78315e-06
0.00162968
1.74088e-06
0.00163262
1.69225e-06
0.00163552
1.65921e-06
0.0016384
1.62852e-06
0.00164125
1.6022e-06
0.00164407
1.575e-06
0.00164688
1.54565e-06
0.00164967
1.52949e-06
0.00165244
1.52828e-06
0.00165519
1.5152e-06
0.00165792
1.49797e-06
0.00166064
1.47964e-06
0.00166334
1.47387e-06
0.00166602
1.45731e-06
0.00166868
1.45426e-06
0.00167132
1.44011e-06
0.00167394
1.43346e-06
0.00167653
1.4148e-06
0.0016791
1.40653e-06
0.00168166
1.41017e-06
0.00168418
1.40893e-06
0.00168667
1.38158e-06
0.00168913
1.36938e-06
0.00169155
1.3599e-06
0.00169395
1.33208e-06
0.00169629
1.38425e-06
0.00169862
1.30548e-06
0.0017009
1.38108e-06
0.00170313
1.33711e-06
0.0017053
1.36589e-06
0.00170737
1.34592e-06
0.00170941
1.30602e-06
0.0017113
1.37811e-06
0.00171327
1.26753e-06
0.00171509
1.46796e-06
0.0017169
1.36581e-06
0.00171868
1.59042e-06
0.00172025
1.50858e-06
0.00172177
1.48019e-06
0.00172297
1.35241e-06
0.00172413
9.63509e-07
0.00172495
8.04986e-07
0.00172571
2.77265e-07
0.00172629
1.57844e-07
0.00172663
-1.43643e-07
0.00172694
-2.79768e-07
0.0017271
-4.94348e-07
0.0017273
-7.16752e-07
0.0017273
-6.65736e-07
0.00172741
-1.00376e-06
0.00172744
-7.41697e-07
0.00172741
-1.09875e-06
0.0017275
-9.16283e-07
0.00172745
-1.03789e-06
0.0017275
-1.02534e-06
0.00172744
-8.45581e-07
0.00172746
-1.11839e-06
0.00172745
-6.73172e-07
0.00172737
-1.09252e-06
0.00172748
-7.64418e-07
0.00172742
-8.86167e-07
0.0017275
-9.05408e-07
0.00172744
-7.10518e-07
0.00172743
-1.03364e-06
0.00172752
-6.26998e-07
0.00172736
-9.38678e-07
0.00172747
-8.06153e-07
0.00172746
-7.16555e-07
0.00172743
-8.80072e-07
0.00172748
-7.35146e-07
0.00172743
-8.65914e-07
0.0017275
-6.49493e-07
0.00172741
-8.09139e-07
0.00172752
-8.59431e-07
0.00172752
-6.74178e-07
0.00172746
-7.18779e-07
0.00172758
-7.14152e-07
0.00172784
-4.25032e-07
-2.12098e-06
0.00172809
0.001711
-7.93818e-07
0.00171671
-1.65112e-06
0.00172235
-1.79856e-06
0.0017282
-1.8135e-06
0.00173416
-1.8654e-06
0.00173993
-1.86549e-06
0.0017454
-1.8041e-06
0.00175056
-1.78554e-06
0.00175543
-1.78606e-06
0.00176004
-1.75892e-06
0.00176439
-1.7343e-06
0.00176853
-1.70982e-06
0.0017725
-1.69468e-06
0.00177632
-1.685e-06
0.00178003
-1.67516e-06
0.00178366
-1.66121e-06
0.00178721
-1.64604e-06
0.00179071
-1.62509e-06
0.00179415
-1.60882e-06
0.00179754
-1.58372e-06
0.00180088
-1.55802e-06
0.00180418
-1.55486e-06
0.00180743
-1.56139e-06
0.00181065
-1.55975e-06
0.00181384
-1.55828e-06
0.001817
-1.55874e-06
0.00182013
-1.56086e-06
0.00182325
-1.57052e-06
0.00182634
-1.56605e-06
0.00182942
-1.55107e-06
0.00183249
-1.54843e-06
0.00183554
-1.55009e-06
0.00183857
-1.55006e-06
0.00184158
-1.5394e-06
0.00184457
-1.53739e-06
0.00184755
-1.52732e-06
0.00185052
-1.52537e-06
0.00185347
-1.51522e-06
0.0018564
-1.51794e-06
0.00185931
-1.50656e-06
0.00186221
-1.48807e-06
0.0018651
-1.47493e-06
0.00186796
-1.4797e-06
0.0018708
-1.47667e-06
0.00187363
-1.46252e-06
0.00187643
-1.47021e-06
0.00187923
-1.41803e-06
0.001882
-1.46098e-06
0.00188477
-1.39576e-06
0.0018875
-1.39355e-06
0.00189022
-1.35242e-06
0.00189289
-1.31685e-06
0.00189552
-1.32682e-06
0.00189814
-1.24014e-06
0.00190071
-1.30666e-06
0.00190334
-1.16285e-06
0.00190596
-1.2559e-06
0.00190869
-1.13737e-06
0.00191137
-1.16761e-06
0.001914
-1.15171e-06
0.00191642
-1.06806e-06
0.00191854
-1.15575e-06
0.00192035
-1.00378e-06
0.00192174
-1.11233e-06
0.00192283
-9.33353e-07
0.00192359
-9.03817e-07
0.00192412
-8.10586e-07
0.00192441
-7.88655e-07
0.00192457
-8.71463e-07
0.00192465
-7.47716e-07
0.00192459
-9.43135e-07
0.00192459
-7.39304e-07
0.00192441
-9.1742e-07
0.00192433
-8.44085e-07
0.00192416
-8.62385e-07
0.00192404
-9.09087e-07
0.00192399
-7.92848e-07
0.00192385
-9.7974e-07
0.00192389
-7.13453e-07
0.00192376
-9.61283e-07
0.00192381
-8.17132e-07
0.00192375
-8.1849e-07
0.00192373
-8.92638e-07
0.00192376
-7.37525e-07
0.00192369
-9.60734e-07
0.00192377
-7.0779e-07
0.00192369
-8.60773e-07
0.00192373
-8.50705e-07
0.00192374
-7.23859e-07
0.00192373
-8.69788e-07
0.00192375
-7.5091e-07
0.00192373
-8.50815e-07
0.00192378
-6.9794e-07
0.00192376
-7.86266e-07
0.00192378
-8.78195e-07
0.00192378
-6.76705e-07
0.00192381
-7.45461e-07
0.00192384
-7.46018e-07
0.00192409
-6.80748e-07
-2.37341e-06
0.00192435
0.00171104
-4.14948e-06
0.00171675
-7.36585e-06
0.0017224
-7.44886e-06
0.00172826
-7.67097e-06
0.00173422
-7.82819e-06
0.00174
-7.63703e-06
0.00174546
-7.26477e-06
0.00175062
-6.94573e-06
0.00175549
-6.66372e-06
0.0017601
-6.36294e-06
0.00176445
-6.08729e-06
0.0017686
-5.85538e-06
0.00177256
-5.66065e-06
0.00177638
-5.50739e-06
0.0017801
-5.3873e-06
0.00178372
-5.28668e-06
0.00178728
-5.20163e-06
0.00179077
-5.1192e-06
0.00179421
-5.05062e-06
0.0017976
-4.97406e-06
0.00180094
-4.89817e-06
0.00180424
-4.85094e-06
0.00180749
-4.81524e-06
0.00181071
-4.77879e-06
0.0018139
-4.74595e-06
0.00181706
-4.71915e-06
0.0018202
-4.69644e-06
0.00182331
-4.68822e-06
0.00182641
-4.66089e-06
0.00182949
-4.63039e-06
0.00183255
-4.6125e-06
0.0018356
-4.59775e-06
0.00183863
-4.57926e-06
0.00184164
-4.55163e-06
0.00184464
-4.53156e-06
0.00184762
-4.50744e-06
0.00185058
-4.48946e-06
0.00185353
-4.4608e-06
0.00185646
-4.44835e-06
0.00185937
-4.41554e-06
0.00186226
-4.38156e-06
0.00186514
-4.35448e-06
0.001868
-4.33697e-06
0.00187083
-4.31491e-06
0.00187365
-4.28057e-06
0.00187644
-4.26252e-06
0.00187923
-4.20664e-06
0.00188199
-4.21736e-06
0.00188475
-4.1561e-06
0.00188747
-4.11522e-06
0.00189017
-4.04881e-06
0.00189281
-3.96174e-06
0.00189541
-3.92913e-06
0.001898
-3.82573e-06
0.00190054
-3.84992e-06
0.00190313
-3.75142e-06
0.00190572
-3.84112e-06
0.00190839
-3.81359e-06
0.00191104
-3.81013e-06
0.0019136
-3.71529e-06
0.00191595
-3.42284e-06
0.00191801
-3.20964e-06
0.00191975
-2.74946e-06
0.00192111
-2.46341e-06
0.00192217
-2.00142e-06
0.00192291
-1.64092e-06
0.00192343
-1.33512e-06
0.00192373
-1.08571e-06
0.00192388
-1.01676e-06
0.00192397
-8.37771e-07
0.00192392
-8.96594e-07
0.0019239
-7.1384e-07
0.00192374
-7.64745e-07
0.00192365
-7.48941e-07
0.00192349
-7.04333e-07
0.00192339
-8.09817e-07
0.00192331
-7.13654e-07
0.0019232
-8.69095e-07
0.0019232
-7.11264e-07
0.00192311
-8.70355e-07
0.00192312
-8.28911e-07
0.00192308
-7.77199e-07
0.00192307
-8.86096e-07
0.00192307
-7.37827e-07
0.00192304
-9.25059e-07
0.00192306
-7.30966e-07
0.00192304
-8.45517e-07
0.00192303
-8.40217e-07
0.00192306
-7.46707e-07
0.00192306
-8.73205e-07
0.00192306
-7.49686e-07
0.00192307
-8.64485e-07
0.00192306
-6.89933e-07
0.0019231
-8.19639e-07
0.00192306
-8.42492e-07
0.00192309
-7.05095e-07
0.00192311
-7.62001e-07
0.00192313
-7.70389e-07
0.00192337
-9.1912e-07
-2.48929e-06
0.00192349
0.0015456
-7.3736e-06
0.00155077
-1.25263e-05
0.00155589
-1.25727e-05
0.00156122
-1.30021e-05
0.00156661
-1.32202e-05
0.00157183
-1.28537e-05
0.00157676
-1.21972e-05
0.00158142
-1.16083e-05
0.00158583
-1.1071e-05
0.00158999
-1.05205e-05
0.00159392
-1.00187e-05
0.00159766
-9.59958e-06
0.00160125
-9.24209e-06
0.0016047
-8.95966e-06
0.00160805
-8.74057e-06
0.00161133
-8.56076e-06
0.00161454
-8.41294e-06
0.00161769
-8.27454e-06
0.0016208
-8.16068e-06
0.00162386
-8.03503e-06
0.00162688
-7.91274e-06
0.00162985
-7.82484e-06
0.00163279
-7.75136e-06
0.00163569
-7.68311e-06
0.00163857
-7.62052e-06
0.00164141
-7.56603e-06
0.00164423
-7.51774e-06
0.00164704
-7.49392e-06
0.00164982
-7.44306e-06
0.00165259
-7.39683e-06
0.00165534
-7.36059e-06
0.00165807
-7.32578e-06
0.00166077
-7.2865e-06
0.00166346
-7.24043e-06
0.00166613
-7.19981e-06
0.00166878
-7.15561e-06
0.0016714
-7.11375e-06
0.001674
-7.05674e-06
0.00167657
-7.02247e-06
0.00167911
-6.95808e-06
0.00168163
-6.89882e-06
0.00168412
-6.84196e-06
0.00168657
-6.78596e-06
0.00168898
-6.72265e-06
0.00169134
-6.64576e-06
0.00169366
-6.57759e-06
0.00169593
-6.48464e-06
0.00169815
-6.43778e-06
0.00170033
-6.3303e-06
0.00170244
-6.22188e-06
0.00170446
-6.07018e-06
0.0017064
-5.9037e-06
0.00170824
-5.76685e-06
0.00171
-5.59356e-06
0.00171168
-5.52481e-06
0.00171331
-5.38517e-06
0.00171487
-5.3944e-06
0.00171632
-5.26809e-06
0.00171769
-5.1804e-06
0.00171886
-4.88367e-06
0.00171989
-4.45509e-06
0.00172074
-4.06235e-06
0.00172142
-3.42812e-06
0.00172198
-3.01864e-06
0.00172238
-2.40041e-06
0.00172273
-1.99106e-06
0.00172299
-1.59322e-06
0.00172317
-1.27328e-06
0.0017233
-1.14611e-06
0.00172338
-9.17179e-07
0.00172343
-9.40343e-07
0.00172347
-7.55204e-07
0.00172347
-7.65335e-07
0.00172346
-7.37067e-07
0.00172345
-7.00641e-07
0.00172342
-7.82656e-07
0.00172341
-6.98086e-07
0.00172338
-8.44635e-07
0.00172338
-7.02627e-07
0.00172337
-8.68338e-07
0.00172335
-8.0208e-07
0.00172337
-8.01337e-07
0.00172335
-8.62696e-07
0.00172339
-7.80388e-07
0.00172337
-9.08626e-07
0.00172338
-7.392e-07
0.0017234
-8.61261e-07
0.00172334
-7.82645e-07
0.00172342
-8.27431e-07
0.00172334
-7.96512e-07
0.0017234
-8.08273e-07
0.00172341
-8.66925e-07
0.00172344
-7.28552e-07
0.0017235
-8.70411e-07
0.00172343
-7.75404e-07
0.00172352
-7.98894e-07
0.00172342
-6.59331e-07
0.00172352
-8.6752e-07
0.00172363
-1.03591e-06
-2.52931e-06
0.00172367
0.00139628
-1.05773e-05
0.00140093
-1.71739e-05
0.00140559
-1.72363e-05
0.00141046
-1.787e-05
0.00141534
-1.8097e-05
0.00142006
-1.75715e-05
0.00142451
-1.66533e-05
0.00142873
-1.58223e-05
0.00143271
-1.5053e-05
0.00143646
-1.42747e-05
0.00144001
-1.35685e-05
0.00144339
-1.29798e-05
0.00144663
-1.24739e-05
0.00144974
-1.20749e-05
0.00145277
-1.17654e-05
0.00145572
-1.15119e-05
0.00145861
-1.13058e-05
0.00146145
-1.11128e-05
0.00146425
-1.09582e-05
0.00146699
-1.07805e-05
0.00146969
-1.06142e-05
0.00147235
-1.04817e-05
0.00147497
-1.03723e-05
0.00147756
-1.02684e-05
0.00148011
-1.01712e-05
0.00148262
-1.00838e-05
0.00148511
-1.0001e-05
0.00148757
-9.95374e-06
0.00148999
-9.86864e-06