/*--------------------------------*- C++ -*----------------------------------*\
| =========                 |                                                 |
| \\      /  F ield         | OpenFOAM: The Open Source CFD Toolbox           |
|  \\    /   O peration     | Version:  v2012                                 |
|   \\  /    A nd           | Website:  www.openfoam.com                      |
|    \\/     M anipulation  |                                                 |
\*---------------------------------------------------------------------------*/
FoamFile
{
    version     2.0;
    format      ascii;
    class       volScalarField;
    location    "0.048";
    object      k.air;
}
// * * * * * * * * * * * * * * * * * * * * * * * * * * * * * * * * * * * * * //

dimensions      [0 2 -2 0 0 0 0];


internalField   nonuniform List<scalar> 
5600
(
0.655522
1.47463
2.41681
3.07649
3.37836
3.41903
3.31574
3.1475
2.97006
2.81189
2.67482
2.56194
2.4754
2.41404
2.37476
2.35296
2.34394
2.3431
2.34719
2.35309
2.35942
2.3647
2.36902
2.37208
2.37469
2.37682
2.37894
2.38092
2.38282
2.38467
2.3865
2.38812
2.38935
2.39012
2.39048
2.39045
2.39016
2.38949
2.38874
2.38763
2.38687
2.38556
2.38507
2.38327
2.38314
2.38043
2.38103
2.37697
2.37887
2.37318
2.37727
2.36978
2.37679
2.36698
2.37737
2.36498
2.37839
2.36433
2.37861
2.36601
2.37647
2.37079
2.37134
2.37773
2.36543
2.38272
2.36413
2.38012
2.37198
2.36773
2.38773
2.35167
2.40155
2.34381
2.40218
2.35166
2.38627
2.37298
2.36142
2.397
2.34221
2.40718
2.34533
2.38627
2.38369
2.33174
2.44482
2.28068
2.47638
2.28435
2.43299
2.35523
2.33631
2.44629
2.27967
2.4398
2.41212
2.10686
3.08395
0.401511
0.403308
0.378692
0.397578
0.451413
0.511342
0.589728
0.673961
0.793952
0.939858
1.10345
1.28444
1.47509
1.66717
1.852
2.022
2.17114
2.29641
2.39604
2.47158
2.52551
2.56295
2.58782
2.60528
2.61707
2.6268
2.63447
2.64121
2.6463
2.6504
2.65343
2.65537
2.65588
2.6555
2.65419
2.65259
2.65075
2.64922
2.64707
2.64552
2.64273
2.64213
2.63945
2.64131
2.63851
2.64367
2.63883
2.64755
2.63762
2.651
2.63352
2.65413
2.62691
2.65739
2.61941
2.66133
2.61357
2.66399
2.61219
2.6609
2.62019
2.6477
2.63971
2.62574
2.66388
2.60676
2.67519
2.61076
2.65403
2.65021
2.60185
2.70828
2.54882
2.74653
2.53562
2.72895
2.5825
2.65675
2.66796
2.56896
2.74497
2.51649
2.7563
2.56012
2.64514
2.72817
2.44197
2.92792
2.2947
2.96969
2.37656
2.73964
2.69779
2.37045
3.03969
2.14003
3.09965
2.28711
2.76931
2.648
2.55564
0.405725
0.34503
0.301087
0.271766
0.251385
0.239961
0.234528
0.236301
0.247764
0.266677
0.29572
0.335466
0.387336
0.450707
0.52615
0.611488
0.706055
0.806983
0.911912
1.01791
1.12337
1.22705
1.32853
1.42714
1.52114
1.60244
1.67167
1.72824
1.77621
1.81495
1.84756
1.87524
1.89935
1.91966
1.93767
1.9533
1.96737
1.97869
1.98941
1.99693
2.00642
2.01151
2.0229
2.02618
2.04161
2.04089
2.06106
2.05164
2.0778
2.0558
2.09102
2.05361
2.10132
2.04739
2.10874
2.04214
2.11131
2.04386
2.10316
2.05926
2.08032
2.08885
2.04889
2.11911
2.0296
2.12286
2.04915
2.07979
2.11333
2.00464
2.18839
1.94583
2.21855
1.95334
2.17004
2.03571
2.06244
2.15263
1.9519
2.23861
1.91011
2.21545
2.00981
2.03266
2.25222
1.76974
2.47782
1.64263
2.44543
1.83547
2.08456
2.29052
1.60643
2.68856
1.38196
2.64019
1.67922
2.11027
2.24143
1.72133
0.406453
0.344439
0.298126
0.262651
0.234758
0.212429
0.194611
0.179835
0.168328
0.15927
0.153265
0.149591
0.149441
0.151879
0.159021
0.16979
0.186251
0.207818
0.236494
0.27114
0.313684
0.362924
0.420916
0.485504
0.55946
0.639318
0.724661
0.810893
0.896854
0.977368
1.05231
1.12102
1.18412
1.24091
1.29137
1.33575
1.37577
1.41012
1.4422
1.46848
1.49641
1.51705
1.54541
1.56147
1.59269
1.5996
1.63447
1.62734
1.66874
1.64307
1.69507
1.64762
1.71432
1.64473
1.72602
1.64187
1.72764
1.64898
1.71255
1.67382
1.67894
1.71358
1.63982
1.74575
1.62608
1.73517
1.66712
1.66665
1.75613
1.57273
1.83935
1.51939
1.84932
1.55707
1.76434
1.67561
1.6248
1.81692
1.50275
1.89658
1.4875
1.8239
1.65222
1.57141
1.95473
1.27385
2.17103
1.19345
2.04412
1.49649
1.57533
2.04366
1.04549
2.41602
0.902448
2.20108
1.39365
1.48419
2.13047
0.935955
0.406526
0.344498
0.298272
0.262546
0.234281
0.211252
0.192384
0.176422
0.163031
0.151387
0.141601
0.132865
0.12572
0.119197
0.114166
0.109798
0.106801
0.10463
0.104279
0.104789
0.107781
0.111955
0.119943
0.129867
0.144957
0.163896
0.189096
0.21954
0.256636
0.298292
0.345225
0.395475
0.450066
0.50761
0.569022
0.630662
0.692133
0.7496
0.806115
0.855147
0.906098
0.946502
0.996159
1.02937
1.08236
1.10328
1.16069
1.16224
1.22606
1.20125
1.27594
1.2207
1.31063
1.22655
1.32987
1.23007
1.33045
1.24561
1.30673
1.28225
1.2614
1.33179
1.21761
1.36077
1.21611
1.3289
1.28422
1.23229
1.39689
1.12585
1.47803
1.08967
1.45682
1.16487
1.33186
1.319
1.16522
1.47536
1.04406
1.53337
1.07051
1.39818
1.30489
1.0829
1.64542
0.781071
1.81472
0.776597
1.58993
1.17402
1.05498
1.74646
0.540627
2.02599
0.531902
1.67511
1.13568
0.907351
1.86226
0.433213
0.406527
0.344517
0.298309
0.262621
0.234342
0.21136
0.192406
0.176449
0.162916
0.151209
0.141104
0.132151
0.124358
0.117311
0.111128
0.105514
0.10055
0.09599
0.0920827
0.0883849
0.0854273
0.0825085
0.0805207
0.0785691
0.0776244
0.0771358
0.077691
0.0791807
0.0822047
0.086475
0.0929988
0.101447
0.113037
0.127056
0.14549
0.16658
0.193139
0.220423
0.25473
0.28509
0.325434
0.354844
0.403315
0.431786
0.495242
0.520395
0.597073
0.60485
0.691803
0.669743
0.767042
0.708692
0.818291
0.72755
0.844602
0.741296
0.842946
0.76752
0.810675
0.814573
0.757925
0.866654
0.718363
0.882295
0.737362
0.825191
0.830303
0.710631
0.94865
0.611952
1.00517
0.608744
0.94638
0.71874
0.797088
0.887107
0.629788
1.02875
0.535116
1.0437
0.613011
0.857955
0.886582
0.533636
1.19317
0.296878
1.27342
0.377062
1.00468
0.778043
0.526319
1.25128
0.138829
1.4055
0.234913
1.07964
0.709837
0.4953
1.25157
0.254357
0.406523
0.344521
0.298309
0.262642
0.234357
0.211404
0.192441
0.176513
0.162964
0.151292
0.141152
0.13224
0.124379
0.11736
0.111087
0.105428
0.100317
0.0956504
0.0914284
0.0875133
0.0839854
0.0806618
0.0776864
0.0748703
0.072333
0.069988
0.0678543
0.0659237
0.0642454
0.0627328
0.0615494
0.0605599
0.0601152
0.0597936
0.0605125
0.0610483
0.0637046
0.0651837
0.0710553
0.0731876
0.083703
0.08507
0.102452
0.10248
0.13148
0.130027
0.175455
0.167242
0.229212
0.20483
0.28076
0.23284
0.319034
0.25036
0.336964
0.266734
0.329888
0.293881
0.298441
0.333125
0.257769
0.364874
0.239895
0.357126
0.274038
0.296842
0.352074
0.214752
0.421708
0.167864
0.430895
0.192668
0.371513
0.27839
0.270608
0.388376
0.165507
0.471578
0.11831
0.45738
0.197427
0.316498
0.382198
0.127195
0.535485
0.0344147
0.542841
0.100724
0.420156
0.295618
0.167396
0.545191
0.0107194
0.616048
0.0615364
0.503917
0.23557
0.279155
0.465498
0.227827
0.406522
0.344519
0.298305
0.262643
0.234357
0.211411
0.192448
0.176527
0.16298
0.151316
0.141174
0.132274
0.124407
0.117401
0.111125
0.105472
0.100354
0.0956966
0.0914476
0.0875455
0.0839642
0.0806496
0.0775913
0.0747459
0.0721039
0.069641
0.0673406
0.065187
0.0631778
0.0612816
0.0595214
0.0578436
0.056327
0.0548304
0.0535802
0.0522159
0.0513094
0.0499925
0.0496246
0.0482277
0.0487122
0.0468986
0.0487005
0.0460587
0.0502151
0.0463475
0.0546254
0.0486157
0.0623959
0.0521749
0.0716787
0.0553234
0.0790634
0.0578313
0.081147
0.0620893
0.0757151
0.0707243
0.0636013
0.0821307
0.0513626
0.0885381
0.0496436
0.0812796
0.0636455
0.0613041
0.0849561
0.0423601
0.0976286
0.0381093
0.0951709
0.047022
0.0829948
0.0635025
0.061547
0.0904117
0.031265
0.118604
0.0145356
0.117971
0.0375348
0.0772599
0.0881043
0.029023
0.123879
0.0117728
0.127234
0.0225385
0.105123
0.0657221
0.0409212
0.131663
0.00172513
0.139467
0.0368438
0.0980265
0.0716738
0.0726628
0.097412
0.0793846
0.406521
0.344515
0.298301
0.262639
0.234353
0.211408
0.192446
0.176527
0.162981
0.151319
0.141178
0.132281
0.124415
0.117412
0.111137
0.105486
0.100369
0.0957152
0.0914649
0.0875676
0.0839828
0.0806735
0.0776107
0.0747674
0.0721221
0.0696544
0.0673483
0.0651858
0.0631587
0.0612465
0.0594538
0.0577482
0.0561612
0.0546228
0.0532223
0.0518088
0.0505909
0.04926
0.0482415
0.0469505
0.0461551
0.0448452
0.0442967
0.0429072
0.0426848
0.041156
0.0414466
0.0396273
0.0406784
0.0382296
0.040232
0.0368346
0.0396741
0.0356078
0.0384257
0.0350998
0.0360929
0.0357131
0.033003
0.0368749
0.0305733
0.0370139
0.0304741
0.035046
0.0326725
0.0320933
0.034848
0.0307027
0.0349885
0.0312725
0.0343529
0.0314396
0.0346455
0.031551
0.0329354
0.0357015
0.0268311
0.0417467
0.0240264
0.0393832
0.0323217
0.0280343
0.0428699
0.0226536
0.0409171
0.0315031
0.0284773
0.0441478
0.0190051
0.0489857
0.0195591
0.0427722
0.0317952
0.0262594
0.050231
0.0140438
0.0480613
0.0309692
0.0270021
0.0478444
0.406521
0.344514
0.298298
0.262637
0.234351
0.211407
0.192445
0.176526
0.16298
0.151319
0.141179
0.132283
0.124418
0.117415
0.111141
0.10549
0.100374
0.0957209
0.0914711
0.0875749
0.0839905
0.0806821
0.0776198
0.0747773
0.0721325
0.0696652
0.0673593
0.0651976
0.0631695
0.0612584
0.0594626
0.0577606
0.0561646
0.0546359
0.0532126
0.0518231
0.050554
0.0492782
0.0481533
0.0469717
0.0459753
0.0448683
0.0439758
0.0429368
0.0421359
0.041172
0.040471
0.0395655
0.0389829
0.0380674
0.0376204
0.0366156
0.0362931
0.0352223
0.0349181
0.0340253
0.0334654
0.0332048
0.0320203
0.0327592
0.0308844
0.0323384
0.0305097
0.0315054
0.0310061
0.0303937
0.0316994
0.029769
0.0317786
0.029915
0.0314216
0.0302437
0.0310133
0.0309567
0.0296978
0.0328366
0.0279116
0.0332875
0.0302
0.027569
0.0387049
0.0185228
0.045045
0.0178615
0.0384449
0.0311383
0.021231
0.048346
0.00807728
0.0537743
0.0117989
0.0409538
0.0312229
0.018582
0.0524589
0.00282328
0.058179
0.00806775
0.0451715
0.0230318
0.406521
0.344514
0.2983
0.262638
0.234352
0.211408
0.192447
0.176528
0.162982
0.151321
0.141181
0.132285
0.124419
0.117416
0.111143
0.105491
0.100375
0.095722
0.0914721
0.0875759
0.0839915
0.0806833
0.077621
0.0747784
0.0721335
0.0696663
0.0673604
0.0651988
0.0631705
0.0612596
0.0594634
0.0577623
0.0561649
0.0546385
0.0532115
0.0518278
0.0505501
0.0492871
0.0481444
0.046988
0.0459586
0.0448954
0.0439486
0.0429776
0.0420966
0.0412298
0.0404188
0.0396474
0.0389123
0.0381877
0.0375159
0.0367909
0.0361447
0.035437
0.0347754
0.0341715
0.03349
0.0330764
0.0324111
0.0322322
0.0316032
0.0316671
0.0310897
0.0312677
0.0309449
0.0308098
0.0311937
0.0302771
0.031487
0.0301677
0.0310354
0.0312577
0.0291695
0.0337649
0.0263352
0.0362967
0.0249952
0.0354636
0.0289302
0.0281576
0.0391136
0.0167578
0.0491139
0.0109275
0.0482769
0.0191721
0.0336058
0.0375374
0.0154372
0.0520843
0.00721001
0.0524595
0.0145833
0.0384819
0.0327381
0.0195356
0.0506067
0.00563394
0.0577251
0.00635829
0.406521
0.344517
0.298304
0.262643
0.234356
0.211412
0.19245
0.176531
0.162985
0.151323
0.141182
0.132286
0.12442
0.117416
0.111142
0.10549
0.100373
0.0957189
0.0914682
0.0875713
0.0839861
0.080677
0.0776142
0.0747707
0.0721254
0.0696576
0.0673512
0.0651896
0.0631615
0.0612512
0.0594555
0.0577562
0.0561604
0.0546387
0.0532153
0.0518416
0.0505698
0.0493254
0.0481949
0.0470734
0.0460684
0.0450581
0.0441505
0.0432554
0.0424517
0.0417264
0.0410904
0.0405683
0.0401196
0.039711
0.0393648
0.0389062
0.0385392
0.0379536
0.037507
0.0368642
0.0363676
0.0357983
0.0353088
0.0349135
0.0344615
0.0342894
0.0339292
0.0338264
0.0338429
0.033223
0.0343399
0.0322853
0.0352075
0.031519
0.0352949
0.0325556
0.0325959
0.0371635
0.0262898
0.0442695
0.0197896
0.0481348
0.0202248
0.0421338
0.0317738
0.0266301
0.0486321
0.0119603
0.057767
0.0102836
0.0511372
0.0236746
0.0335205
0.0427738
0.0161431
0.0564926
0.00791078
0.0582864
0.0112044
0.0512807
0.0217296
0.0360611
0.0410544
0.0200625
0.406521
0.344522
0.298308
0.26265
0.234362
0.211419
0.192454
0.176536
0.162984
0.151324
0.141179
0.132282
0.124413
0.117408
0.111131
0.105479
0.100359
0.0957045
0.0914511
0.0875542
0.0839675
0.080658
0.0775971
0.0747526
0.0721138
0.0696499
0.0673529
0.0652045
0.0631972
0.0613124
0.0595531
0.0579032
0.0563777
0.0549516
0.0536603
0.0524619
0.0514181
0.0504857
0.0497572
0.0491846
0.0488288
0.0486327
0.0487236
0.04909
0.0500208
0.0516466
0.0541243
0.0573778
0.0612602
0.065308
0.0693873
0.0727085
0.0757527
0.0773899
0.079117
0.0790758
0.079994
0.0787846
0.079434
0.0777688
0.0781522
0.0771631
0.0766119
0.0774478
0.0752423
0.0778023
0.0751663
0.0764197
0.0779256
0.0720915
0.0831866
0.0670103
0.086345
0.0675303
0.0808222
0.0783689
0.0662607
0.0941862
0.0528893
0.101487
0.0535119
0.0917819
0.0702816
0.0712022
0.091308
0.0539103
0.103412
0.0479789
0.102839
0.0537548
0.0917692
0.0694505
0.0728743
0.0918909
0.0504002
0.113378
0.0318142
0.124709
0.0310636
0.107652
0.406519
0.344532
0.298308
0.262658
0.234357
0.211424
0.19244
0.176535
0.162962
0.151316
0.141149
0.132262
0.124378
0.117378
0.111089
0.10545
0.100316
0.0956836
0.0914231
0.0875617
0.0839861
0.0807228
0.0777195
0.0749391
0.0724305
0.0701044
0.0680272
0.0661671
0.0645643
0.0631923
0.0621411
0.0614243
0.0611789
0.0614349
0.0623777
0.0640786
0.0667604
0.0706037
0.0757332
0.0823455
0.0901234
0.0995013
0.110743
0.124501
0.141824
0.162555
0.18654
0.212241
0.238363
0.262793
0.284787
0.302565
0.317317
0.326949
0.335414
0.338185
0.34332
0.341098
0.345635
0.340255
0.345208
0.339649
0.342891
0.341998
0.33822
0.34732
0.332607
0.351689
0.331508
0.34806
0.341281
0.332779
0.360368
0.313852
0.374628
0.308225
0.368676
0.325106
0.343213
0.354691
0.314935
0.378089
0.29936
0.384076
0.302994
0.369878
0.326679
0.338203
0.363887
0.299883
0.398203
0.275558
0.404927
0.29021
0.365951
0.34969
0.293048
0.421938
0.234863
0.440492
0.406507
0.34455
0.298287
0.262667
0.234315
0.211416
0.192369
0.17652
0.162867
0.151295
0.141051
0.132246
0.124321
0.117411
0.111122
0.105658
0.100567
0.0962453
0.0921464
0.088814
0.0856253
0.0831834
0.0810636
0.0796089
0.0788819
0.0789572
0.0801147
0.0826068
0.0866553
0.0925609
0.100739
0.111553
0.125591
0.143155
0.164836
0.1904
0.219859
0.252822
0.288496
0.325943
0.364431
0.404129
0.44622
0.491974
0.540616
0.589835
0.638215
0.683237
0.723692
0.757918
0.786145
0.807734
0.824497
0.835391
0.844343
0.847602
0.853091
0.850972
0.856556
0.85035
0.857977
0.849615
0.857823
0.851817
0.854162
0.858663
0.846116
0.868452
0.83801
0.87359
0.839443
0.864427
0.857244
0.840222
0.884436
0.815489
0.901607
0.809902
0.89366
0.830336
0.863308
0.866819
0.824901
0.903023
0.795713
0.919967
0.795311
0.900487
0.833311
0.84755
0.892893
0.791238
0.935251
0.771857
0.926101
0.807002
0.869241
0.873672
0.797268
0.931373
0.406462
0.344591
0.298192
0.262666
0.234184
0.211397
0.19228
0.176624
0.162917
0.15169
0.141532
0.133331
0.125816
0.1199
0.114617
0.110996
0.107814
0.106806
0.106279
0.108578
0.111603
0.118366
0.127069
0.14047
0.157814
0.181368
0.210447
0.246711
0.28843
0.335586
0.38686
0.442212
0.501572
0.564462
0.629414
0.693631
0.755849
0.815035
0.870189
0.921396
0.968908
1.01354
1.05658
1.09772
1.13713
1.17386
1.20746
1.23693
1.26237
1.28318
1.3
1.31253
1.32214
1.32808
1.33308
1.33441
1.33771
1.33564
1.33972
1.3346
1.34102
1.3336
1.34174
1.33474
1.33985
1.33971
1.33362
1.34841
1.32518
1.35585
1.32206
1.35311
1.33249
1.33555
1.35533
1.31138
1.37655
1.29778
1.37977
1.30615
1.36037
1.33413
1.32664
1.36987
1.29331
1.39598
1.28007
1.39206
1.30268
1.35168
1.35451
1.29619
1.40401
1.26208
1.41622
1.27351
1.38082
1.32534
1.31286
1.39183
0.406271
0.34468
0.297906
0.262966
0.23457
0.212884
0.19466
0.180598
0.168867
0.160874
0.154813
0.152762
0.152835
0.157592
0.165644
0.179522
0.197766
0.223768
0.255244
0.295664
0.341988
0.398305
0.460894
0.533824
0.613757
0.701138
0.790812
0.882116
0.968893
1.04986
1.12423
1.19249
1.25425
1.30907
1.35751
1.40057
1.43863
1.47235
1.50233
1.5296
1.55462
1.57847
1.60121
1.62309
1.64358
1.66221
1.67894
1.69321
1.70528
1.71478
1.72226
1.72748
1.73138
1.73341
1.73529
1.73516
1.73669
1.73487
1.7375
1.73374
1.73849
1.73285
1.73965
1.73336
1.73912
1.73653
1.73515
1.74299
1.72824
1.7502
1.72333
1.7515
1.7277
1.74111
1.74355
1.72209
1.76276
1.70647
1.77178
1.70617
1.7627
1.72369
1.73842
1.7522
1.70878
1.77903
1.68968
1.78587
1.69795
1.76147
1.73509
1.71676
1.78017
1.679
1.80416
1.67232
1.79079
1.70205
1.74101
1.75962
0.405199
0.345725
0.300565
0.273163
0.251752
0.243051
0.237314
0.242528
0.256029
0.278633
0.311348
0.356673
0.413313
0.4833
0.564147
0.656067
0.756309
0.863582
0.97316
1.08442
1.19315
1.30167
1.40555
1.50882
1.60027
1.67868
1.74386
1.79759
1.84265
1.87943
1.91031
1.93674
1.95907
1.97822
1.99513
2.00997
2.02273
2.03355
2.04269
2.05076
2.05808
2.06539
2.07296
2.08097
2.08948
2.09761
2.10509
2.11132
2.11643
2.12012
2.12285
2.12442
2.12548
2.12566
2.12603
2.12538
2.126
2.12466
2.1263
2.12378
2.12724
2.12328
2.12865
2.12354
2.12901
2.12542
2.12683
2.12984
2.12177
2.13594
2.11659
2.13931
2.11695
2.13442
2.12669
2.12093
2.14212
2.10624
2.15345
2.10064
2.15198
2.10948
2.13638
2.13021
2.1126
2.15427
2.092
2.16738
2.08966
2.15671
2.11245
2.12467
2.14867
2.08955
2.17747
2.07107
2.18202
2.07931
2.15533
2.11764
0.402173
0.380877
0.399114
0.460097
0.52003
0.609534
0.694966
0.834154
0.986826
1.16085
1.351
1.54866
1.74557
1.93286
2.10288
2.25037
2.37231
2.46806
2.53886
2.58934
2.62299
2.64636
2.66187
2.67338
2.6827
2.69052
2.69655
2.70109
2.7043
2.70642
2.7073
2.70687
2.70548
2.70335
2.70104
2.69882
2.6966
2.69422
2.6917
2.68931
2.68727
2.68591
2.68529
2.68543
2.68618
2.68697
2.68767
2.68789
2.68781
2.68724
2.68654
2.68556
2.68473
2.68374
2.6832
2.68236
2.68246
2.68157
2.68251
2.68109
2.68344
2.68108
2.68489
2.68131
2.68574
2.68228
2.68488
2.68491
2.68175
2.68926
2.67748
2.69305
2.67567
2.69203
2.68032
2.68398
2.69087
2.67258
2.70135
2.66495
2.70459
2.66714
2.69676
2.67992
2.68029
2.69825
2.66242
2.71284
2.654
2.71246
2.66406
2.6936
2.68865
2.66662
2.71455
2.64482
2.72936
2.63827
2.72402
2.65477
0.654956
1.47473
2.41468
3.06893
3.36043
3.39308
3.28112
3.10697
2.92865
2.76986
2.63161
2.51954
2.4346
2.37605
2.33933
2.32028
2.3129
2.31367
2.3181
2.32449
2.33036
2.33557
2.33942
2.34241
2.345
2.34728
2.3495
2.35152
2.35339
2.35517
2.35681
2.35817
2.35902
2.35942
2.35941
2.35907
2.35843
2.35751
2.35639
2.35518
2.35397
2.3528
2.35164
2.35047
2.34929
2.34801
2.34665
2.34517
2.34373
2.34233
2.34112
2.34006
2.33927
2.33865
2.33831
2.33805
2.3381
2.33801
2.33841
2.3383
2.33908
2.33868
2.33979
2.33895
2.34025
2.33921
2.34027
2.33981
2.33963
2.34093
2.33845
2.34217
2.33757
2.3425
2.33815
2.34095
2.34062
2.33786
2.34387
2.3351
2.3457
2.33463
2.34469
2.33719
2.34081
2.34209
2.33546
2.34709
2.33177
2.34884
2.3326
2.3455
2.33825
2.3385
2.34618
2.33118
2.35358
2.32807
2.35905
2.33506
4.69485
8.48649
10.2694
11.3792
12.3072
14.144
14.5318
14.0005
14.1053
11.7436
6.10831
2.09991
0.617696
0.229706
0.137339
0.111297
0.11911
0.130195
0.180065
0.247316
0.269837
0.239755
0.188635
0.142844
0.110995
0.0909897
0.0782829
0.0694998
0.0628915
0.0577231
0.0536476
0.05038
0.0476328
0.0451825
0.0429362
0.0409284
0.0392482
0.0379455
0.0369609
0.0361288
0.0352819
0.0343675
0.0334459
0.0326102
0.0319374
0.0314627
0.0311631
0.0309879
0.0308904
0.0308374
0.0308084
0.0307922
0.0307829
0.0307774
0.0307742
0.0307722
0.030771
0.0307703
0.0307699
0.0307696
0.0307695
0.0307693
0.0307694
0.0307692
0.0307694
0.0307691
0.0307695
0.030769
0.0307697
0.0307689
0.0307697
0.0307689
0.0307696
0.030769
0.0307695
0.0307691
0.0307694
0.0307691
0.0307694
0.0307691
0.0307695
0.030769
0.0307696
0.0307689
0.0307698
0.0307687
0.0307698
0.0307687
0.0307698
0.0307687
0.0307699
0.0307685
0.0307699
0.0307683
0.0307698
0.0307679
0.0307693
0.0307667
0.0307676
0.0307633
2.33831
5.11473
8.19721
9.90179
10.8436
12.7759
13.1541
12.5501
12.5254
9.66429
4.15428
1.15003
0.33436
0.149104
0.101999
0.0876621
0.103884
0.115786
0.141175
0.179853
0.192767
0.172002
0.138614
0.109711
0.0899962
0.0776149
0.069536
0.0636163
0.0588215
0.0548221
0.051532
0.0488311
0.0465155
0.044389
0.0423646
0.040487
0.0388704
0.0375961
0.0366335
0.0358358
0.0350378
0.0341794
0.0333215
0.0325522
0.031926
0.031467
0.0311663
0.0309844
0.0308787
0.0308183
0.0307838
0.0307641
0.0307526
0.030746
0.0307422
0.03074
0.0307387
0.030738
0.0307376
0.0307373
0.0307372
0.0307371
0.0307372
0.030737
0.0307372
0.0307369
0.0307373
0.0307367
0.0307374
0.0307366
0.0307375
0.0307367
0.0307374
0.0307368
0.0307372
0.030737
0.0307371
0.030737
0.0307371
0.030737
0.0307371
0.030737
0.0307372
0.0307368
0.0307374
0.0307367
0.0307374
0.0307367
0.0307374
0.0307367
0.0307374
0.0307366
0.0307374
0.0307365
0.0307374
0.0307362
0.0307371
0.0307355
0.0307361
0.0307337
2.41638
1.84851
4.47089
7.01792
8.35719
10.6289
11.1543
10.6744
10.5425
6.98975
2.26135
0.468751
0.177207
0.111172
0.0987498
0.0883105
0.0976343
0.110749
0.125972
0.145934
0.150534
0.135415
0.113307
0.0941455
0.0805881
0.0716155
0.0654337
0.0606712
0.0566378
0.0531495
0.0502126
0.0477813
0.0456958
0.0437668
0.0418913
0.0401007
0.0385158
0.0372466
0.0362994
0.0355526
0.0348388
0.0340728
0.0332958
0.0325905
0.0320024
0.0315459
0.0312253
0.0310199
0.030895
0.0308209
0.0307774
0.0307522
0.0307377
0.0307294
0.0307247
0.0307221
0.0307206
0.0307198
0.0307194
0.0307191
0.030719
0.0307189
0.0307189
0.0307188
0.030719
0.0307187
0.0307191
0.0307186
0.0307192
0.0307185
0.0307192
0.0307185
0.0307191
0.0307187
0.0307189
0.0307189
0.0307187
0.030719
0.0307186
0.0307191
0.0307186
0.030719
0.0307187
0.0307189
0.0307188
0.0307188
0.0307188
0.0307189
0.0307187
0.030719
0.0307187
0.030719
0.0307186
0.0307191
0.0307186
0.0307192
0.0307187
0.0307195
0.030719
0.0307204
2.33858
1.11071
1.95483
3.57961
4.68177
7.39837
8.18771
8.14234
7.78127
3.82104
0.775087
0.121597
0.144422
0.092687
0.0817811
0.0813191
0.0884162
0.104711
0.119274
0.130936
0.131087
0.11893
0.102418
0.0877227
0.0767727
0.0691219
0.0636252
0.0592838
0.0555426
0.052249
0.0494344
0.0470947
0.0451058
0.0432855
0.041509
0.0397784
0.0382024
0.0369091
0.0359475
0.0352404
0.0346334
0.0340063
0.033348
0.0327165
0.0321587
0.0316997
0.0313543
0.0311176
0.0309659
0.0308723
0.0308158
0.0307823
0.0307627
0.0307514
0.0307449
0.0307412
0.0307392
0.0307381
0.0307375
0.0307371
0.030737
0.0307368
0.0307369
0.0307367
0.0307369
0.0307366
0.0307369
0.0307365
0.030737
0.0307365
0.030737
0.0307366
0.0307368
0.0307368
0.0307366
0.030737
0.0307364
0.0307371
0.0307363
0.0307372
0.0307363
0.0307372
0.0307363
0.0307371
0.0307364
0.0307371
0.0307363
0.0307373
0.0307362
0.0307374
0.0307361
0.0307375
0.030736
0.0307378
0.0307361
0.0307382
0.0307365
0.0307393
0.030738
0.0307427
1.84863
0.917853
1.28192
1.82507
1.63427
3.52301
4.1973
4.88956
3.90819
0.979848
0.189392
0.0603548
0.140501
0.0565876
0.059594
0.0805888
0.0831369
0.0973578
0.113884
0.123986
0.122898
0.112141
0.0979316
0.0850331
0.0751278
0.0679996
0.0627733
0.0586112
0.0550036
0.0517904
0.0490052
0.0466747
0.044712
0.0429479
0.0412389
0.0395513
0.0379677
0.0366205
0.0355991
0.0348846
0.0343586
0.0338781
0.033364
0.0328259
0.0323091
0.0318579
0.0314986
0.0312364
0.031058
0.0309425
0.0308702
0.0308261
0.0307998
0.0307843
0.0307754
0.0307702
0.0307674
0.0307658
0.0307649
0.0307644
0.0307642
0.030764
0.030764
0.0307639
0.030764
0.0307638
0.030764
0.0307637
0.0307641
0.0307637
0.030764
0.0307638
0.0307639
0.030764
0.0307637
0.0307642
0.0307635
0.0307643
0.0307634
0.0307644
0.0307633
0.0307645
0.0307633
0.0307644
0.0307634
0.0307644
0.0307633
0.0307646
0.0307631
0.0307647
0.030763
0.0307648
0.030763
0.0307651
0.0307631
0.0307656
0.0307637
0.0307671
0.0307657
0.0307716
1.19894
0.576033
1.04224
0.798447
1.08354
1.11013
1.24112
1.7355
0.0280302
0.111246
0.0495556
0.072635
0.133143
0.0235836
0.0529429
0.10848
0.0980088
0.0953209
0.10797
0.118351
0.11812
0.108468
0.0952212
0.0830354
0.0736528
0.0669165
0.0619931
0.0580694
0.054637
0.0515294
0.0487903
0.0464782
0.0445406
0.0428214
0.0411613
0.0394957
0.0378811
0.0364488
0.0353191
0.0345261
0.0339957
0.0335907
0.0331883
0.0327471
0.0322979
0.0318865
0.0315429
0.0312786
0.0310896
0.0309623
0.0308806
0.0308299
0.0307993
0.0307813
0.0307709
0.0307649
0.0307615
0.0307597
0.0307587
0.0307581
0.0307578
0.0307576
0.0307576
0.0307575
0.0307576
0.0307574
0.0307576
0.0307573
0.0307576
0.0307573
0.0307576
0.0307574
0.0307574
0.0307576
0.0307572
0.0307578
0.0307571
0.0307579
0.030757
0.030758
0.0307569
0.030758
0.0307569
0.0307579
0.030757
0.0307579
0.0307569
0.0307581
0.0307568
0.0307582
0.0307568
0.0307583
0.0307568
0.0307585
0.0307569
0.0307589
0.0307575
0.0307602
0.0307594
0.0307644
0.443344
0.358128
0.433476
0.388331
0.521461
0.387262
0.518791
0.121274
0.0641836
0.0755688
0.0013312
0.0889453
0.136701
0.0132133
0.0965665
0.212254
0.171093
0.122127
0.111975
0.115627
0.113763
0.103842
0.0910433
0.0797253
0.0712843
0.0653491
0.0610238
0.0575169
0.0543639
0.0514368
0.0488102
0.0465715
0.0446905
0.043018
0.0413832
0.0397026
0.0380197
0.0364665
0.0351828
0.0342389
0.033602
0.0331636
0.032798
0.0324301
0.0320608
0.0317188
0.0314256
0.0311936
0.0310236
0.030907
0.0308312
0.030784
0.0307554
0.0307386
0.0307289
0.0307234
0.0307203
0.0307186
0.0307177
0.0307171
0.0307169
0.0307167
0.0307167
0.0307166
0.0307166
0.0307165
0.0307167
0.0307165
0.0307167
0.0307165
0.0307166
0.0307165
0.0307165
0.0307167
0.0307164
0.0307168
0.0307162
0.0307169
0.0307162
0.030717
0.0307161
0.030717
0.0307162
0.0307169
0.0307162
0.0307169
0.0307162
0.030717
0.0307161
0.0307171
0.0307161
0.0307171
0.0307161
0.0307173
0.0307162
0.0307176
0.0307167
0.0307186
0.0307182
0.030722
0.0694353
0.147081
0.0607915
0.131212
0.0892061
0.155781
0.0940757
0.00652661
0.0808914
0.0562396
0.0118749
0.133289
0.155567
0.0119374
0.217711
0.473167
0.369798
0.217009
0.148291
0.129038
0.120449
0.109147
0.0957315
0.0832847
0.0734028
0.0662006
0.0610204
0.0570648
0.0537679
0.0508892
0.0484073
0.0463401
0.0446214
0.0430889
0.0415606
0.0399338
0.0382356
0.0365955
0.0351685
0.0340567
0.0332688
0.0327345
0.0323491
0.0320236
0.0317228
0.0314512
0.0312204
0.0310387
0.0309062
0.0308158
0.0307572
0.0307208
0.0306987
0.0306857
0.0306783
0.030674
0.0306716
0.0306703
0.0306696
0.0306693
0.0306691
0.0306689
0.0306689
0.0306688
0.0306689
0.0306688
0.0306689
0.0306688
0.0306689
0.0306687
0.0306689
0.0306688
0.0306688
0.0306689
0.0306687
0.030669
0.0306686
0.0306691
0.0306685
0.0306692
0.0306685
0.0306692
0.0306685
0.0306691
0.0306686
0.0306691
0.0306685
0.0306692
0.0306685
0.0306692
0.0306685
0.0306693
0.0306685
0.0306694
0.0306685
0.0306696
0.0306689
0.0306703
0.03067
0.0306728
0.0139401
0.0644255
0.0155155
0.040324
0.0433691
0.0241205
0.0505692
0.0248225
0.0437274
0.0155959
0.0221425
0.147712
0.0825116
0.0966831
0.568691
1.10609
0.902134
0.487213
0.254518
0.169482
0.136661
0.115858
0.0981582
0.0835118
0.0724688
0.0646032
0.0589254
0.054515
0.050851
0.0477969
0.0453969
0.0436575
0.0424409
0.0414893
0.0405262
0.0393681
0.0379885
0.0365027
0.0350897
0.0339008
0.0330033
0.0323786
0.0319553
0.0316487
0.0314002
0.0311898
0.0310177
0.0308858
0.0307919
0.0307291
0.0306891
0.0306646
0.0306501
0.0306417
0.0306369
0.0306342
0.0306327
0.0306318
0.0306314
0.0306311
0.030631
0.0306309
0.0306309
0.0306309
0.0306309
0.0306308
0.0306309
0.0306308
0.0306309
0.0306308
0.0306309
0.0306308
0.0306309
0.0306309
0.0306308
0.030631
0.0306307
0.0306311
0.0306306
0.0306311
0.0306306
0.0306311
0.0306306
0.0306311
0.0306307
0.030631
0.0306307
0.0306311
0.0306306
0.0306311
0.0306306
0.0306312
0.0306306
0.0306312
0.0306306
0.0306314
0.0306308
0.0306318
0.0306315
0.0306335
0.0283986
0.0440915
0.00775482
0.0534924
0.00820706
0.0546664
0.013239
0.034911
0.0494496
0.0139444
0.0905906
0.167566
0.103608
0.443897
1.53417
2.43504
2.14336
1.2779
0.624016
0.31341
0.197233
0.147661
0.116648
0.0934505
0.076124
0.0638857
0.0556868
0.0502135
0.0463583
0.0435274
0.0415419
0.0403347
0.0397273
0.0394047
0.0390311
0.0383823
0.0374086
0.0362122
0.0349693
0.033844
0.0329338
0.0322603
0.031789
0.0314594
0.031216
0.0310279
0.0308846
0.0307812
0.0307112
0.0306666
0.0306395
0.0306237
0.0306148
0.0306099
0.0306072
0.0306058
0.0306051
0.0306047
0.0306045
0.0306044
0.0306043
0.0306043
0.0306043
0.0306042
0.0306043
0.0306042
0.0306043
0.0306042
0.0306044
0.0306042
0.0306044
0.0306042
0.0306043
0.0306042
0.0306042
0.0306043
0.0306042
0.0306044
0.0306042
0.0306044
0.0306041
0.0306044
0.0306042
0.0306043
0.0306042
0.0306043
0.0306042
0.0306043
0.0306042
0.0306044
0.0306042
0.0306044
0.0306042
0.0306044
0.0306042
0.0306045
0.0306042
0.0306046
0.0306044
0.0306053
0.0491506
0.0174432
0.0374099
0.0298328
0.0253377
0.0500147
0.00967387
0.0728077
0.0130869
0.0490204
0.190001
0.196664
0.471598
1.61115
3.22781
4.27612
3.90859
2.68706
1.55208
0.821264
0.440504
0.262135
0.177106
0.130545
0.101268
0.0814239
0.0677073
0.0582664
0.051835
0.0475394
0.0447531
0.0429754
0.0417652
0.0407483
0.0396641
0.038402
0.0369962
0.0355739
0.0342797
0.0332126
0.0324044
0.031833
0.031447
0.0311872
0.0310037
0.0308672
0.0307661
0.0306952
0.030649
0.0306209
0.0306048
0.0305961
0.0305916
0.0305895
0.0305885
0.030588
0.0305879
0.0305878
0.0305878
0.0305878
0.0305878
0.0305878
0.0305878
0.0305878
0.0305878
0.0305877
0.0305879
0.0305877
0.0305879
0.0305876
0.030588
0.0305876
0.0305879
0.0305877
0.0305879
0.0305877
0.0305878
0.0305877
0.0305878
0.0305878
0.0305878
0.0305877
0.0305879
0.0305877
0.0305879
0.0305876
0.0305879
0.0305877
0.0305879
0.0305877
0.0305879
0.0305877
0.0305879
0.0305877
0.0305878
0.0305876
0.0305878
0.0305875
0.0305875
0.0305872
0.0513181
0.00846894
0.0608452
0.00676687
0.0653733
0.0117169
0.0471648
0.0895837
0.033816
0.237419
0.253491
0.538581
1.49947
3.08626
4.68735
5.63714
5.26744
3.94238
2.5429
1.52383
0.917445
0.583048
0.390907
0.27171
0.195736
0.14576
0.111887
0.0885496
0.0723772
0.0612591
0.0537742
0.0488763
0.0457118
0.0435343
0.0417425
0.0399722
0.0381305
0.0363242
0.0347192
0.0334289
0.0324771
0.0318215
0.0313915
0.0311142
0.0309308
0.0308039
0.0307155
0.0306569
0.0306208
0.0306003
0.0305897
0.0305847
0.0305826
0.0305819
0.0305818
0.0305819
0.030582
0.0305821
0.0305822
0.0305823
0.0305823
0.0305823
0.0305824
0.0305823
0.0305825
0.0305823
0.0305825
0.0305822
0.0305826
0.0305821
0.0305827
0.0305821
0.0305827
0.0305821
0.0305826
0.0305821
0.0305826
0.0305822
0.0305826
0.0305822
0.0305825
0.0305822
0.0305826
0.0305822
0.0305826
0.0305822
0.0305825
0.0305823
0.0305824
0.0305824
0.0305823
0.0305825
0.0305822
0.0305826
0.0305821
0.0305827
0.0305819
0.0305828