/*--------------------------------*- C++ -*----------------------------------*\
| =========                 |                                                 |
| \\      /  F ield         | OpenFOAM: The Open Source CFD Toolbox           |
|  \\    /   O peration     | Version:  v2012                                 |
|   \\  /    A nd           | Website:  www.openfoam.com                      |
|    \\/     M anipulation  |                                                 |
\*---------------------------------------------------------------------------*/
FoamFile
{
    version     2.0;
    format      ascii;
    class       volVectorField;
    location    "0.048";
    object      U.air;
}
// * * * * * * * * * * * * * * * * * * * * * * * * * * * * * * * * * * * * * //

dimensions      [0 1 -1 0 0 0 0];


internalField   nonuniform List<vector> 
1900
(
(39.9713 0.00143646 0)
(39.9829 0.00284437 0)
(39.9458 0.00485044 0)
(39.9306 0.00360706 0)
(39.8969 0.00444431 0)
(39.8629 0.0129744 0)
(39.6836 0.0337652 0)
(39.6191 0.0651554 0)
(38.515 0.267678 0)
(38.6862 0.567368 0)
(39.9775 0.00459374 0)
(39.9907 0.0057919 0)
(40.001 0.00990503 0)
(39.9998 0.0127305 0)
(39.9524 0.0204214 0)
(39.9196 0.0474107 0)
(39.8191 0.0843837 0)
(39.6483 0.229984 0)
(39.2625 0.47077 0)
(38.7386 1.35623 0)
(39.9938 0.00480574 0)
(39.9967 0.00391072 0)
(39.9884 0.00746976 0)
(39.9842 0.0159543 0)
(39.9734 0.0303006 0)
(39.9463 0.0635026 0)
(39.8866 0.133081 0)
(39.763 0.302478 0)
(39.6019 0.700091 0)
(39.3498 1.57669 0)
(39.9988 0.0037086 0)
(39.9777 0.00914233 0)
(39.9841 0.0109657 0)
(39.9894 0.0194284 0)
(39.9718 0.037296 0)
(39.9566 0.0767459 0)
(39.9277 0.162832 0)
(39.8726 0.351053 0)
(39.8502 0.775107 0)
(39.869 1.53775 0)
(39.9915 0.00721362 0)
(40.003 0.00896054 0)
(40.0161 0.00955204 0)
(40.0222 0.0186263 0)
(40.0263 0.0392997 0)
(40.0284 0.0817535 0)
(40.0304 0.173212 0)
(40.0431 0.362527 0)
(40.1115 0.758275 0)
(40.3157 1.40173 0)
(40.0017 -0.000361314 0)
(40.0259 0.00305851 0)
(40.0221 0.00479417 0)
(40.029 0.0130537 0)
(40.0391 0.0332577 0)
(40.0551 0.0758554 0)
(40.0857 0.164086 0)
(40.149 0.339388 0)
(40.32 0.682502 0)
(40.6631 1.21285 0)
(39.9768 -0.000318001 0)
(39.9808 0.00239839 0)
(39.9773 0.00672944 0)
(39.9841 0.0119134 0)
(39.9984 0.0283554 0)
(40.0271 0.0653409 0)
(40.0843 0.140911 0)
(40.1944 0.287782 0)
(40.4322 0.563938 0)
(40.8685 0.979652 0)
(39.9924 0.00213918 0)
(40.0049 0.00384002 0)
(40.0186 0.00563008 0)
(40.0369 0.00696144 0)
(40.0486 0.0191895 0)
(40.0763 0.048707 0)
(40.1337 0.106336 0)
(40.269 0.216382 0)
(40.5477 0.41774 0)
(41.0421 0.714934 0)
(39.9928 -0.00225473 0)
(40.003 -0.00387883 0)
(40.0283 -0.00139782 0)
(40.0282 0.00204078 0)
(40.0329 0.0107758 0)
(40.0805 0.0299538 0)
(40.1561 0.0658166 0)
(40.3196 0.132785 0)
(40.6335 0.25563 0)
(41.1633 0.434409 0)
(39.9965 -0.00155365 0)
(39.9909 -0.00502195 0)
(39.9853 -0.00421461 0)
(39.9859 -0.000551312 0)
(39.9993 0.00225246 0)
(40.0256 0.00728083 0)
(40.105 0.0174164 0)
(40.2466 0.0376509 0)
(40.5558 0.0782045 0)
(41.0877 0.13784 0)
(32.2303 3.35472 0)
(26.4593 5.72596 0)
(27.0816 5.41715 0)
(27.4018 4.02886 0)
(27.3501 2.06121 0)
(27.3583 -0.0306399 0)
(27.848 -2.15417 0)
(29.2067 -4.1891 0)
(31.4314 -6.39142 0)
(33.166 -8.26844 0)
(32.9685 -8.4204 0)
(32.1931 -7.67043 0)
(31.1064 -6.2083 0)
(30.0581 -4.54657 0)
(29.3284 -3.15834 0)
(28.8853 -2.13816 0)
(28.618 -1.42508 0)
(28.455 -0.945984 0)
(28.353 -0.634202 0)
(28.2844 -0.433505 0)
(28.2344 -0.304504 0)
(28.1957 -0.222037 0)
(28.1641 -0.169798 0)
(28.1367 -0.136902 0)
(28.112 -0.11658 0)
(28.0885 -0.104282 0)
(28.0656 -0.0971728 0)
(28.0425 -0.0934386 0)
(28.019 -0.0919047 0)
(27.9948 -0.0915691 0)
(27.97 -0.0918522 0)
(27.9447 -0.0924641 0)
(27.9187 -0.0932513 0)
(27.8922 -0.0941312 0)
(27.8652 -0.0950663 0)
(27.8378 -0.0960479 0)
(27.81 -0.097076 0)
(27.7817 -0.0981503 0)
(27.7531 -0.0992633 0)
(27.7239 -0.100399 0)
(27.6942 -0.101527 0)
(27.6639 -0.102612 0)
(27.633 -0.103622 0)
(27.6015 -0.10453 0)
(27.5695 -0.105323 0)
(27.5369 -0.105986 0)
(27.5038 -0.106483 0)
(27.4704 -0.106804 0)
(27.4365 -0.106962 0)
(27.4024 -0.10697 0)
(27.3681 -0.106845 0)
(27.3336 -0.106606 0)
(27.2989 -0.106281 0)
(27.2642 -0.105889 0)
(27.2295 -0.10545 0)
(27.1947 -0.104984 0)
(27.1599 -0.104501 0)
(27.1252 -0.103998 0)
(27.0906 -0.103464 0)
(27.056 -0.102887 0)
(27.0217 -0.10226 0)
(26.9876 -0.101593 0)
(26.9539 -0.100898 0)
(26.9205 -0.100181 0)
(26.8874 -0.0994356 0)
(26.8546 -0.098654 0)
(26.8221 -0.0978365 0)
(26.7897 -0.0969786 0)
(26.7575 -0.0960811 0)
(26.7253 -0.0951543 0)
(26.6933 -0.0942192 0)
(26.6613 -0.0932986 0)
(26.6294 -0.0924192 0)
(26.5975 -0.0915939 0)
(26.5657 -0.0908356 0)
(26.5341 -0.0901283 0)
(26.5026 -0.0894815 0)
(26.4716 -0.0888801 0)
(26.4408 -0.0883137 0)
(26.4107 -0.0877406 0)
(26.3806 -0.0871398 0)
(26.3512 -0.0864842 0)
(26.3217 -0.0857559 0)
(26.2928 -0.0849445 0)
(26.2641 -0.0840373 0)
(26.2356 -0.0830473 0)
(26.2076 -0.0819892 0)
(26.1796 -0.08086 0)
(26.1525 -0.0797073 0)
(26.1253 -0.078488 0)
(26.099 -0.0772462 0)
(26.0728 -0.0759344 0)
(26.0477 -0.0746499 0)
(26.0225 -0.073298 0)
(25.9987 -0.0720878 0)
(25.9741 -0.0708394 0)
(25.9522 -0.0701005 0)
(25.9263 -0.0693284 0)
(25.909 -0.069702 0)
(25.8745 -0.0703657 0)
(39.0055 5.19192 0)
(39.6851 6.8112 0)
(39.8001 6.03596 0)
(39.4263 4.28058 0)
(39.0145 2.14219 0)
(38.9495 -0.056597 0)
(39.4633 -2.28292 0)
(40.2981 -4.49635 0)
(40.7227 -6.60903 0)
(39.8867 -7.95354 0)
(37.8102 -8.14419 0)
(35.3164 -7.24377 0)
(32.9835 -5.73302 0)
(31.257 -4.19738 0)
(30.1434 -2.92983 0)
(29.461 -1.99188 0)
(29.0395 -1.33399 0)
(28.7755 -0.888849 0)
(28.6075 -0.596763 0)
(28.4955 -0.407736 0)
(28.4165 -0.285827 0)
(28.358 -0.207719 0)
(28.3121 -0.158063 0)
(28.2742 -0.126901 0)
(28.241 -0.107623 0)
(28.2105 -0.0960223 0)
(28.1813 -0.0893726 0)
(28.1526 -0.0859203 0)
(28.1239 -0.0844491 0)
(28.0948 -0.0841087 0)
(28.0653 -0.084413 0)
(28.0354 -0.085099 0)
(28.005 -0.08601 0)
(27.9741 -0.0870533 0)
(27.9427 -0.0881772 0)
(27.911 -0.0893559 0)
(27.8789 -0.0905742 0)
(27.8464 -0.0918194 0)
(27.8135 -0.0930764 0)
(27.7803 -0.0943246 0)
(27.7467 -0.0955367 0)
(27.7126 -0.0966823 0)
(27.6782 -0.0977345 0)
(27.6434 -0.0986749 0)
(27.6083 -0.0994903 0)
(27.5729 -0.10017 0)
(27.5372 -0.10072 0)
(27.5013 -0.101135 0)
(27.4651 -0.101412 0)
(27.4289 -0.101559 0)
(27.3925 -0.101584 0)
(27.356 -0.101498 0)
(27.3194 -0.10132 0)
(27.2828 -0.101069 0)
(27.2461 -0.100764 0)
(27.2094 -0.100424 0)
(27.1728 -0.100062 0)
(27.1361 -0.0996804 0)
(27.0995 -0.0992715 0)
(27.0631 -0.0988233 0)
(27.0268 -0.0983223 0)
(26.9908 -0.0977602 0)
(26.9551 -0.0971431 0)
(26.9197 -0.0964805 0)
(26.8846 -0.0957698 0)
(26.8499 -0.0950015 0)
(26.8155 -0.0941741 0)
(26.7814 -0.093292 0)
(26.7476 -0.0923661 0)
(26.714 -0.0914141 0)
(26.6808 -0.0904584 0)
(26.6477 -0.0895223 0)
(26.615 -0.0886286 0)
(26.5824 -0.0877934 0)
(26.5501 -0.0870327 0)
(26.518 -0.086338 0)
(26.4863 -0.0857048 0)
(26.4546 -0.0850823 0)
(26.4236 -0.0844794 0)
(26.3925 -0.0838467 0)
(26.3621 -0.0832154 0)
(26.3317 -0.0825366 0)
(26.302 -0.0818295 0)
(26.2723 -0.0810607 0)
(26.2434 -0.0802286 0)
(26.2145 -0.0793348 0)
(26.1866 -0.0783869 0)
(26.1586 -0.0773762 0)
(26.1318 -0.0763594 0)
(26.1049 -0.0753137 0)
(26.0792 -0.0742929 0)
(26.0535 -0.0732432 0)
(26.029 -0.0722094 0)
(26.0043 -0.0711069 0)
(25.9812 -0.0700883 0)
(25.9571 -0.0690491 0)
(25.9359 -0.0683761 0)
(25.9105 -0.0678449 0)
(25.8941 -0.0680379 0)
(25.8603 -0.0695072 0)
(40.2288 4.61559 0)
(43.169 6.61198 0)
(46.0739 6.08784 0)
(47.5539 4.49755 0)
(48.2738 2.37434 0)
(48.5781 0.0661305 0)
(48.4683 -2.21009 0)
(47.7391 -4.34981 0)
(46.09 -6.16641 0)
(43.319 -7.3324 0)
(39.8765 -7.30214 0)
(36.4315 -6.37276 0)
(33.6988 -5.05836 0)
(31.7661 -3.73764 0)
(30.4998 -2.62958 0)
(29.7021 -1.8011 0)
(29.1976 -1.21454 0)
(28.8755 -0.813437 0)
(28.6678 -0.547671 0)
(28.5296 -0.374589 0)
(28.4334 -0.262464 0)
(28.3634 -0.190304 0)
(28.3099 -0.144317 0)
(28.2666 -0.115344 0)
(28.2295 -0.0972765 0)
(28.1961 -0.0862294 0)
(28.1648 -0.0796466 0)
(28.1345 -0.0758945 0)
(28.1045 -0.0739164 0)
(28.0743 -0.073018 0)
(28.0439 -0.0727529 0)
(28.0131 -0.0728529 0)
(27.982 -0.0731681 0)
(27.9504 -0.0736185 0)
(27.9183 -0.0741653 0)
(27.8859 -0.0747933 0)
(27.853 -0.0754959 0)
(27.8197 -0.0762641 0)
(27.786 -0.0770826 0)
(27.752 -0.0779285 0)
(27.7176 -0.0787725 0)
(27.683 -0.0795829 0)
(27.6481 -0.0803314 0)
(27.613 -0.0809967 0)
(27.5778 -0.0815648 0)
(27.5424 -0.0820223 0)
(27.5069 -0.0823491 0)
(27.4712 -0.0825353 0)
(27.4354 -0.0825863 0)
(27.3996 -0.082512 0)
(27.3636 -0.0823227 0)
(27.3275 -0.0820338 0)
(27.2913 -0.0816667 0)
(27.255 -0.0812425 0)
(27.2187 -0.0807804 0)
(27.1823 -0.0803006 0)
(27.1459 -0.0798176 0)
(27.1094 -0.0793359 0)
(27.073 -0.0788532 0)
(27.0366 -0.0783634 0)
(27.0004 -0.0778625 0)
(26.9645 -0.077352 0)
(26.9289 -0.0768352 0)
(26.8935 -0.0763097 0)
(26.8586 -0.0757616 0)
(26.824 -0.075174 0)
(26.7898 -0.0745382 0)
(26.7561 -0.073852 0)
(26.7227 -0.0731181 0)
(26.6898 -0.0723481 0)
(26.6572 -0.0715601 0)
(26.6251 -0.0707796 0)
(26.5934 -0.0700308 0)
(26.562 -0.0693381 0)
(26.531 -0.0687115 0)
(26.5003 -0.0681534 0)
(26.4698 -0.0676525 0)
(26.4396 -0.0671953 0)
(26.4097 -0.0667727 0)
(26.3799 -0.0663488 0)
(26.3506 -0.0659224 0)
(26.3212 -0.0654509 0)
(26.2924 -0.0649356 0)
(26.2636 -0.0643499 0)
(26.2356 -0.0636989 0)
(26.2075 -0.0629833 0)
(26.1804 -0.0622204 0)
(26.1533 -0.0614033 0)
(26.1273 -0.0605766 0)
(26.1014 -0.0597115 0)
(26.0767 -0.0588428 0)
(26.0519 -0.0579188 0)
(26.0282 -0.0569838 0)
(26.0044 -0.0559789 0)
(25.982 -0.0550313 0)
(25.9586 -0.0540757 0)
(25.9379 -0.0534142 0)
(25.9131 -0.0529629 0)
(25.8969 -0.0530523 0)
(25.8638 -0.0548405 0)
(40.8359 3.68599 0)
(43.8242 5.43166 0)
(47.5064 5.2267 0)
(50.1513 3.84792 0)
(51.5635 1.97978 0)
(52.0827 -0.0788362 0)
(51.6442 -2.11934 0)
(50.1618 -3.96211 0)
(47.6467 -5.44903 0)
(44.2474 -6.30789 0)
(40.4517 -6.24792 0)
(36.873 -5.48064 0)
(34.1011 -4.39267 0)
(32.1039 -3.27578 0)
(30.756 -2.32536 0)
(29.8815 -1.60543 0)
(29.3161 -1.08985 0)
(28.9492 -0.733582 0)
(28.7098 -0.495402 0)
(28.5504 -0.339401 0)
(28.4402 -0.238068 0)
(28.3612 -0.172804 0)
(28.3019 -0.131313 0)
(28.2549 -0.105365 0)
(28.2155 -0.0894692 0)
(28.1808 -0.0800286 0)
(28.1487 -0.0747147 0)
(28.118 -0.0720151 0)
(28.0879 -0.0709624 0)
(28.0578 -0.0709012 0)
(28.0275 -0.0713839 0)
(27.9969 -0.0721393 0)
(27.9659 -0.0730314 0)
(27.9345 -0.0739906 0)
(27.9027 -0.0749811 0)
(27.8704 -0.0759897 0)
(27.8378 -0.0770148 0)
(27.8047 -0.0780558 0)
(27.7711 -0.0791079 0)
(27.7373 -0.0801588 0)
(27.7031 -0.0811874 0)
(27.6687 -0.0821673 0)
(27.6341 -0.0830726 0)
(27.5993 -0.0838822 0)
(27.5644 -0.0845803 0)
(27.5293 -0.0851512 0)
(27.4942 -0.0855823 0)
(27.4589 -0.0858713 0)
(27.4234 -0.0860261 0)
(27.3879 -0.0860551 0)
(27.3522 -0.0859663 0)
(27.3164 -0.085773 0)
(27.2806 -0.0854969 0)
(27.2446 -0.08516 0)
(27.2086 -0.0847794 0)
(27.1726 -0.0843737 0)
(27.1365 -0.0839605 0)
(27.1005 -0.0835498 0)
(27.0646 -0.0831438 0)
(27.0288 -0.0827384 0)
(26.9932 -0.0823263 0)
(26.9579 -0.0818977 0)
(26.9229 -0.0814433 0)
(26.8882 -0.0809599 0)
(26.8539 -0.0804429 0)
(26.82 -0.0798833 0)
(26.7864 -0.0792769 0)
(26.7533 -0.0786252 0)
(26.7205 -0.0779346 0)
(26.6882 -0.0772186 0)
(26.6563 -0.0764947 0)
(26.6249 -0.0757832 0)
(26.5938 -0.0751025 0)
(26.5631 -0.0744684 0)
(26.5328 -0.0738891 0)
(26.5027 -0.0733649 0)
(26.473 -0.0728851 0)
(26.4434 -0.0724319 0)
(26.4141 -0.0719872 0)
(26.3849 -0.0715291 0)
(26.356 -0.071054 0)
(26.327 -0.0705431 0)
(26.2986 -0.0700072 0)
(26.27 -0.0694258 0)
(26.2422 -0.0688138 0)
(26.2143 -0.0681632 0)
(26.1873 -0.0674943 0)
(26.1605 -0.0667896 0)
(26.1347 -0.0660871 0)
(26.109 -0.0653574 0)
(26.0845 -0.064632 0)
(26.06 -0.0638644 0)
(26.0366 -0.0630929 0)
(26.0131 -0.0622611 0)
(25.9908 -0.0614707 0)
(25.9677 -0.0606806 0)
(25.9471 -0.0601331 0)
(25.9223 -0.0598457 0)
(25.9064 -0.0599837 0)
(25.8725 -0.0620854 0)
(41.3271 3.00087 0)
(44.0208 4.32071 0)
(47.6001 4.22692 0)
(50.5224 3.16909 0)
(52.2007 1.57974 0)
(52.7503 -0.065568 0)
(52.2127 -1.77955 0)
(50.539 -3.31325 0)
(47.8468 -4.53059 0)
(44.3925 -5.2364 0)
(40.6344 -5.21997 0)
(37.1263 -4.60578 0)
(34.3681 -3.71253 0)
(32.3417 -2.78855 0)
(30.9395 -1.99404 0)
(30.0084 -1.3852 0)
(29.3962 -0.945243 0)
(28.9938 -0.638731 0)
(28.7291 -0.432064 0)
(28.5523 -0.295621 0)
(28.4309 -0.206226 0)
(28.3444 -0.147978 0)
(28.2803 -0.110336 0)
(28.2302 -0.0862038 0)
(28.189 -0.0708456 0)
(28.1531 -0.0611424 0)
(28.1206 -0.0551083 0)
(28.0898 -0.0514304 0)
(28.0599 -0.0492798 0)
(28.0302 -0.0480957 0)
(28.0004 -0.0475107 0)
(27.9703 -0.0472932 0)
(27.9398 -0.0473213 0)
(27.9089 -0.047523 0)
(27.8775 -0.0478522 0)
(27.8457 -0.0482859 0)
(27.8134 -0.0488159 0)
(27.7807 -0.0494365 0)
(27.7476 -0.0501379 0)
(27.7142 -0.050901 0)
(27.6805 -0.0516964 0)
(27.6465 -0.0524883 0)
(27.6122 -0.0532409 0)
(27.5778 -0.053924 0)
(27.5432 -0.0545135 0)
(27.5084 -0.0549887 0)
(27.4734 -0.055333 0)
(27.4382 -0.0555413 0)
(27.4028 -0.0556204 0)
(27.3673 -0.0555789 0)
(27.3317 -0.0554266 0)
(27.2961 -0.0551769 0)
(27.2603 -0.0548484 0)
(27.2245 -0.054466 0)
(27.1888 -0.0540547 0)
(27.1531 -0.0536369 0)
(27.1176 -0.0532337 0)
(27.0823 -0.0528579 0)
(27.0472 -0.0525111 0)
(27.0124 -0.0521891 0)
(26.9779 -0.0518868 0)
(26.9438 -0.0515969 0)
(26.91 -0.0513116 0)
(26.8766 -0.0510226 0)
(26.8437 -0.0507161 0)
(26.8111 -0.0503751 0)
(26.7789 -0.0499879 0)
(26.7471 -0.0495516 0)
(26.7157 -0.0490699 0)
(26.6846 -0.048554 0)
(26.654 -0.0480198 0)
(26.6238 -0.0474864 0)
(26.594 -0.0469723 0)
(26.5646 -0.0464936 0)
(26.5354 -0.0460583 0)
(26.5065 -0.0456663 0)
(26.4779 -0.0453073 0)
(26.4493 -0.0449697 0)
(26.4208 -0.0446377 0)
(26.3924 -0.0442998 0)
(26.3641 -0.0439498 0)
(26.3358 -0.0435755 0)
(26.3078 -0.0431831 0)
(26.2797 -0.042761 0)
(26.2523 -0.0423218 0)
(26.2247 -0.041865 0)
(26.1981 -0.0414081 0)
(26.1715 -0.0409348 0)
(26.1459 -0.0404703 0)
(26.1203 -0.0399783 0)
(26.0958 -0.0394721 0)
(26.0713 -0.0388969 0)
(26.0479 -0.0382833 0)
(26.0244 -0.0375731 0)
(26.0021 -0.0368643 0)
(25.9789 -0.036116 0)
(25.9583 -0.0355605 0)
(25.9335 -0.0352212 0)
(25.9173 -0.0352638 0)
(25.8836 -0.0373009 0)
(41.7372 2.3942 0)
(44.1934 3.4489 0)
(47.3797 3.40126 0)
(50.3083 2.54526 0)
(51.9919 1.26953 0)
(52.5069 -0.0511194 0)
(51.9637 -1.45733 0)
(50.2956 -2.70246 0)
(47.6401 -3.67394 0)
(44.287 -4.23036 0)
(40.6702 -4.22447 0)
(37.2694 -3.73982 0)
(34.5537 -3.03134 0)
(32.5235 -2.29363 0)
(31.0887 -1.65147 0)
(30.1166 -1.15409 0)
(29.4681 -0.792397 0)
(29.0371 -0.539457 0)
(28.7512 -0.368724 0)
(28.5599 -0.256348 0)
(28.4288 -0.183287 0)
(28.3363 -0.136441 0)
(28.2684 -0.106956 0)
(28.2161 -0.0888064 0)
(28.1734 -0.0779107 0)
(28.1367 -0.0715913 0)
(28.1036 -0.0681182 0)
(28.0725 -0.0663738 0)
(28.0426 -0.0656635 0)
(28.013 -0.0655512 0)
(27.9834 -0.0657726 0)
(27.9535 -0.0661598 0)
(27.9232 -0.0666291 0)
(27.8924 -0.0671374 0)
(27.8612 -0.0676621 0)
(27.8296 -0.0682006 0)
(27.7975 -0.0687619 0)
(27.765 -0.0693556 0)
(27.7322 -0.069985 0)
(27.699 -0.0706428 0)
(27.6656 -0.07131 0)
(27.6318 -0.0719592 0)
(27.5977 -0.0725611 0)
(27.5634 -0.0730895 0)
(27.5289 -0.0735229 0)
(27.494 -0.0738422 0)
(27.459 -0.0740313 0)
(27.4237 -0.0740889 0)
(27.3882 -0.0740289 0)
(27.3525 -0.0738625 0)
(27.3168 -0.0735958 0)
(27.281 -0.0732422 0)
(27.2453 -0.0728251 0)
(27.2097 -0.0723734 0)
(27.1743 -0.0719164 0)
(27.1391 -0.0714739 0)
(27.1043 -0.0710577 0)
(27.0697 -0.0706728 0)
(27.0355 -0.0703176 0)
(27.0016 -0.0699881 0)
(26.9681 -0.069678 0)
(26.9349 -0.0693757 0)
(26.902 -0.0690672 0)
(26.8695 -0.0687438 0)
(26.8374 -0.0683972 0)
(26.8056 -0.0680162 0)
(26.7741 -0.0675946 0)
(26.7429 -0.0671342 0)
(26.712 -0.0666427 0)
(26.6815 -0.0661326 0)
(26.6514 -0.0656182 0)
(26.6216 -0.0651137 0)
(26.5922 -0.0646294 0)
(26.5632 -0.0641722 0)
(26.5344 -0.0637419 0)
(26.5058 -0.0633342 0)
(26.4774 -0.0629389 0)
(26.4491 -0.0625469 0)
(26.4208 -0.0621472 0)
(26.3926 -0.0617342 0)
(26.3644 -0.0613079 0)
(26.3362 -0.0608671 0)
(26.3082 -0.0604233 0)
(26.2802 -0.059975 0)
(26.2528 -0.0595337 0)
(26.2253 -0.0590989 0)
(26.1986 -0.0586801 0)
(26.172 -0.0582553 0)
(26.1463 -0.0578442 0)
(26.1206 -0.0574118 0)
(26.0959 -0.0569778 0)
(26.0712 -0.0564897 0)
(26.0475 -0.0559814 0)
(26.0236 -0.0553935 0)
(26.0011 -0.0548182 0)
(25.9776 -0.0542084 0)
(25.9568 -0.0537797 0)
(25.9316 -0.0535529 0)
(25.9155 -0.0536847 0)
(25.8805 -0.0557275 0)
(41.9832 1.82908 0)
(44.3078 2.62523 0)
(47.1977 2.60873 0)
(49.9762 1.96025 0)
(51.6499 0.957428 0)
(52.1072 -0.0457532 0)
(51.5774 -1.13399 0)
(49.9608 -2.0859 0)
(47.3909 -2.8232 0)
(44.1639 -3.24726 0)
(40.692 -3.25523 0)
(37.3924 -2.89856 0)
(34.7152 -2.36494 0)
(32.6804 -1.80091 0)
(31.2157 -1.30217 0)
(30.2057 -0.910366 0)
(29.5226 -0.622182 0)
(29.0637 -0.418511 0)
(28.7568 -0.279335 0)
(28.5505 -0.18635 0)
(28.4096 -0.124786 0)
(28.3107 -0.0842753 0)
(28.2386 -0.0579169 0)
(28.1835 -0.0410389 0)
(28.1389 -0.0304101 0)
(28.1008 -0.0238783 0)
(28.0666 -0.0199922 0)
(28.0347 -0.0177818 0)
(28.004 -0.0166169 0)
(27.9739 -0.0160762 0)
(27.9438 -0.0159205 0)
(27.9135 -0.0160047 0)
(27.8828 -0.0162453 0)
(27.8516 -0.0166004 0)
(27.8199 -0.017048 0)
(27.7878 -0.0175831 0)
(27.7553 -0.0182075 0)
(27.7224 -0.0189196 0)
(27.6891 -0.0197093 0)
(27.6555 -0.0205554 0)
(27.6216 -0.0214265 0)
(27.5873 -0.0222856 0)
(27.5527 -0.0230961 0)
(27.5177 -0.0238276 0)
(27.4824 -0.0244569 0)
(27.4467 -0.0249642 0)
(27.4107 -0.0253349 0)
(27.3745 -0.0255754 0)
(27.3381 -0.0257052 0)
(27.3015 -0.0257338 0)
(27.2648 -0.0256714 0)
(27.2283 -0.0255458 0)
(27.1919 -0.0253869 0)
(27.1559 -0.0252174 0)
(27.1203 -0.0250569 0)
(27.0852 -0.0249182 0)
(27.0506 -0.0248073 0)
(27.0164 -0.0247258 0)
(26.9828 -0.0246716 0)
(26.9495 -0.0246422 0)
(26.9167 -0.0246338 0)
(26.8843 -0.0246362 0)
(26.8522 -0.0246329 0)
(26.8204 -0.024611 0)
(26.7888 -0.024558 0)
(26.7575 -0.0244591 0)
(26.7264 -0.0243061 0)
(26.6956 -0.0240998 0)
(26.6649 -0.0238489 0)
(26.6345 -0.0235678 0)
(26.6044 -0.0232716 0)
(26.5746 -0.0229738 0)
(26.5451 -0.0226832 0)
(26.5159 -0.0224039 0)
(26.487 -0.0221333 0)
(26.4582 -0.0218666 0)
(26.4295 -0.0215937 0)
(26.4009 -0.0213091 0)
(26.3723 -0.0210078 0)
(26.3437 -0.0206924 0)
(26.3152 -0.0203667 0)
(26.2867 -0.0200435 0)
(26.2585 -0.0197323 0)
(26.2303 -0.0194432 0)
(26.2028 -0.0191837 0)
(26.1753 -0.0189536 0)
(26.1485 -0.0187536 0)
(26.1218 -0.0185631 0)
(26.0958 -0.0183886 0)
(26.0697 -0.0181969 0)
(26.0445 -0.0179943 0)
(26.0192 -0.0177257 0)
(25.9949 -0.0174137 0)
(25.9703 -0.01699 0)
(25.9472 -0.0165511 0)
(25.9231 -0.0160135 0)
(25.9019 -0.0156336 0)
(25.8764 -0.0153311 0)
(25.86 -0.0154374 0)
(25.8253 -0.0171821 0)
(42.1783 1.28191 0)
(44.3902 1.83515 0)
(47.1393 1.83179 0)
(49.7447 1.38465 0)
(51.4284 0.656571 0)
(51.8137 -0.0352124 0)
(51.2999 -0.811552 0)
(49.735 -1.48674 0)
(47.2361 -2.00968 0)
(44.0989 -2.31444 0)
(40.7229 -2.33091 0)
(37.4791 -2.08922 0)
(34.8101 -1.71916 0)
(32.7547 -1.32496 0)
(31.2564 -0.974846 0)
(30.2097 -0.698122 0)
(29.4961 -0.494287 0)
(29.0144 -0.350208 0)
(28.6908 -0.251778 0)
(28.4727 -0.186181 0)
(28.3233 -0.142913 0)
(28.2185 -0.114582 0)
(28.1422 -0.0961995 0)
(28.0841 -0.0844022 0)
(28.0372 -0.0768806 0)
(27.9972 -0.0721386 0)
(27.9613 -0.0691605 0)
(27.9279 -0.0672849 0)
(27.8959 -0.0660831 0)
(27.8645 -0.0652537 0)
(27.8333 -0.0646389 0)
(27.8019 -0.0641762 0)
(27.7703 -0.0638204 0)
(27.7382 -0.0635455 0)
(27.7058 -0.0633445 0)
(27.6729 -0.0632254 0)
(27.6397 -0.063196 0)
(27.606 -0.0632563 0)
(27.572 -0.0633966 0)
(27.5376 -0.0635966 0)
(27.5028 -0.0638274 0)
(27.4676 -0.0640559 0)
(27.4319 -0.0642506 0)
(27.3959 -0.0643862 0)
(27.3594 -0.0644448 0)
(27.3225 -0.0644131 0)
(27.2853 -0.0642827 0)
(27.2479 -0.0640618 0)
(27.2102 -0.0637636 0)
(27.1724 -0.0634035 0)
(27.1347 -0.0630139 0)
(27.0972 -0.0626244 0)
(27.0601 -0.0622498 0)
(27.0235 -0.0618996 0)
(26.9874 -0.0615842 0)
(26.952 -0.0613075 0)
(26.9171 -0.0610666 0)
(26.8827 -0.0608553 0)
(26.8489 -0.0606646 0)
(26.8155 -0.0604853 0)
(26.7824 -0.0603088 0)
(26.7497 -0.060124 0)
(26.7173 -0.059918 0)
(26.685 -0.0596851 0)
(26.6528 -0.0594197 0)
(26.6208 -0.0591137 0)
(26.5889 -0.0587673 0)
(26.557 -0.0583901 0)
(26.5253 -0.0579971 0)
(26.4938 -0.0576048 0)
(26.4626 -0.0572256 0)
(26.4316 -0.0568656 0)
(26.4009 -0.0565226 0)
(26.3705 -0.0561883 0)
(26.3403 -0.0558502 0)
(26.3103 -0.0554993 0)
(26.2805 -0.055128 0)
(26.2508 -0.0547389 0)
(26.2213 -0.0543348 0)
(26.1918 -0.053928 0)
(26.1626 -0.0535243 0)
(26.1335 -0.053148 0)
(26.105 -0.0528038 0)
(26.0764 -0.0525064 0)
(26.0487 -0.0522547 0)
(26.0211 -0.0520244 0)
(25.9942 -0.051813 0)
(25.9673 -0.0515886 0)
(25.9412 -0.0513672 0)
(25.9149 -0.0511275 0)
(25.8894 -0.0508884 0)
(25.8637 -0.0506141 0)
(25.8391 -0.0503362 0)
(25.8141 -0.0499845 0)
(25.7907 -0.0496657 0)
(25.7663 -0.0492481 0)
(25.745 -0.0490346 0)
(25.719 -0.0487851 0)
(25.7028 -0.0491081 0)
(25.6668 -0.0503559 0)
(42.3237 0.760884 0)
(44.4182 1.09147 0)
(47.0924 1.09096 0)
(49.5816 0.834276 0)
(51.3445 0.380132 0)
(51.6403 -0.0154173 0)
(51.1226 -0.482774 0)
(49.5753 -0.882108 0)
(47.0974 -1.18083 0)
(43.9866 -1.34425 0)
(40.6395 -1.33706 0)
(37.4019 -1.18012 0)
(34.7133 -0.952103 0)
(32.6266 -0.713696 0)
(31.0887 -0.503051 0)
(30.0072 -0.338127 0)
(29.2662 -0.217375 0)
(28.7636 -0.132584 0)
(28.4243 -0.0753174 0)
(28.1947 -0.0378437 0)
(28.0373 -0.0138114 0)
(27.9266 0.00129817 0)
(27.8462 0.0104894 0)
(27.7851 0.0158025 0)
(27.7359 0.0186131 0)
(27.6941 0.0198322 0)
(27.6565 0.0200869 0)
(27.6214 0.0197861 0)
(27.5876 0.0191911 0)
(27.5546 0.0185085 0)
(27.5218 0.0178485 0)
(27.489 0.0172113 0)
(27.4561 0.0165797 0)
(27.4229 0.0159506 0)
(27.3895 0.0153171 0)
(27.3557 0.0146569 0)
(27.3214 0.01395 0)
(27.2867 0.0131904 0)
(27.2514 0.012386 0)
(27.2154 0.011557 0)
(27.1788 0.0107319 0)
(27.1415 0.00994224 0)
(27.1036 0.00921728 0)
(27.0652 0.00857751 0)
(27.0262 0.00803255 0)
(26.9868 0.00759123 0)
(26.9472 0.00726838 0)
(26.9074 0.00705326 0)
(26.8675 0.00690667 0)
(26.8277 0.00678595 0)
(26.7881 0.00665635 0)
(26.7488 0.00650285 0)
(26.7099 0.00632198 0)
(26.6713 0.00611055 0)
(26.6331 0.00586549 0)
(26.5953 0.00559246 0)
(26.5577 0.00530433 0)
(26.5205 0.00501297 0)
(26.4835 0.00472651 0)
(26.4467 0.00444954 0)
(26.41 0.00418771 0)
(26.3735 0.00395701 0)
(26.337 0.00377812 0)
(26.3005 0.00365633 0)
(26.264 0.00359004 0)
(26.2276 0.00358226 0)
(26.1912 0.00363 0)
(26.155 0.00372128 0)
(26.1189 0.00383808 0)
(26.0832 0.0039617 0)
(26.0477 0.00407825 0)
(26.0125 0.00418233 0)
(25.9776 0.00427791 0)
(25.9431 0.00437523 0)
(25.9088 0.00448777 0)
(25.8748 0.00462404 0)
(25.8412 0.00478923 0)
(25.8079 0.00497592 0)
(25.7749 0.00517785 0)
(25.7424 0.00537515 0)
(25.7104 0.00556289 0)
(25.6787 0.00571186 0)
(25.6476 0.00582334 0)
(25.6167 0.00587194 0)
(25.5864 0.00586859 0)
(25.5562 0.00583991 0)
(25.5265 0.00579679 0)
(25.4967 0.00577345 0)
(25.4674 0.0057582 0)
(25.438 0.00575593 0)
(25.4092 0.00575651 0)
(25.3801 0.00578151 0)
(25.3521 0.0058053 0)
(25.3237 0.00591628 0)
(25.2971 0.00599486 0)
(25.2691 0.00626533 0)
(25.2447 0.00627191 0)
(25.2151 0.00662329 0)
(25.1964 0.00591551 0)
(25.1562 0.0056006 0)
(42.2376 0.244939 0)
(44.2946 0.356826 0)
(46.9722 0.354509 0)
(49.3106 0.271686 0)
(51.1558 0.10985 0)
(51.3561 -0.0159221 0)
(50.8059 -0.174812 0)
(49.2423 -0.318739 0)
(46.7517 -0.439971 0)
(43.6334 -0.525711 0)
(40.2812 -0.556784 0)
(37.0299 -0.530563 0)
(34.3156 -0.467459 0)
(32.1926 -0.389089 0)
(30.6145 -0.31252 0)
(29.4895 -0.247594 0)
(28.7058 -0.196857 0)
(28.1629 -0.159014 0)
(27.7861 -0.131644 0)
(27.5215 -0.112116 0)
(27.3309 -0.0981114 0)
(27.1889 -0.0879451 0)
(27.0784 -0.080482 0)
(26.9884 -0.0749491 0)
(26.9112 -0.070816 0)
(26.8418 -0.0677006 0)
(26.7771 -0.0653182 0)
(26.7149 -0.0634616 0)
(26.654 -0.0619736 0)
(26.5938 -0.060721 0)
(26.5339 -0.0596127 0)
(26.4745 -0.058625 0)
(26.4152 -0.0577583 0)
(26.356 -0.0569993 0)
(26.2968 -0.0563343 0)
(26.2374 -0.0557605 0)
(26.1777 -0.0552773 0)
(26.1173 -0.0548779 0)
(26.0561 -0.0545496 0)
(25.9939 -0.0542751 0)
(25.9307 -0.0540346 0)
(25.8665 -0.0538082 0)
(25.8012 -0.053578 0)
(25.7351 -0.0533324 0)
(25.6685 -0.0530662 0)
(25.6013 -0.0527717 0)
(25.5341 -0.052435 0)
(25.4669 -0.0520655 0)
(25.4001 -0.0516976 0)
(25.3337 -0.0513568 0)
(25.2676 -0.0510526 0)
(25.2017 -0.0507884 0)
(25.1359 -0.0505652 0)
(25.0701 -0.0503825 0)
(25.0042 -0.0502388 0)
(24.938 -0.0501258 0)
(24.8715 -0.0500287 0)
(24.8047 -0.0499326 0)
(24.7375 -0.0498273 0)
(24.67 -0.049708 0)
(24.6022 -0.0495694 0)
(24.5343 -0.0493982 0)
(24.4663 -0.0491803 0)
(24.3984 -0.0489186 0)
(24.3309 -0.0486268 0)
(24.2638 -0.0483163 0)
(24.1973 -0.047998 0)
(24.1314 -0.0476842 0)
(24.0663 -0.0473874 0)
(24.0018 -0.0471173 0)
(23.938 -0.0468777 0)
(23.8747 -0.0466655 0)
(23.812 -0.0464716 0)
(23.7497 -0.0462849 0)
(23.6879 -0.046095 0)
(23.6267 -0.0458962 0)
(23.566 -0.0456873 0)
(23.506 -0.0454754 0)
(23.4467 -0.0452682 0)
(23.3881 -0.0450788 0)
(23.3302 -0.0449096 0)
(23.2728 -0.0447707 0)
(23.2158 -0.0446556 0)
(23.1592 -0.0445715 0)
(23.1027 -0.044504 0)
(23.0462 -0.0444327 0)
(22.9899 -0.0443476 0)
(22.9336 -0.0442319 0)
(22.8777 -0.044102 0)
(22.8217 -0.0439716 0)
(22.7662 -0.0438603 0)
(22.7105 -0.0437638 0)
(22.6557 -0.0437016 0)
(22.5999 -0.0436094 0)
(22.5463 -0.0435579 0)
(22.4899 -0.0433834 0)
(22.4399 -0.0434113 0)
(22.379 -0.0431855 0)
(22.3399 -0.0437192 0)
(22.2537 -0.0439156 0)
(5.2185 5.65258 0)
(5.75522 7.50464 0)
(1.7443 9.09001 0)
(-0.683695 9.05501 0)
(-3.42553 8.19503 0)
(-5.5646 6.26032 0)
(-7.05844 3.87923 0)
(-7.4431 2.5876 0)
(14.1618 7.03583 0)
(10.6913 7.86814 0)
(3.35021 8.37623 0)
(-2.77492 8.23175 0)
(-9.40024 7.43221 0)
(-15.2034 5.88077 0)
(-19.8439 3.66493 0)
(-21.8784 1.99769 0)
(18.8467 6.1921 0)
(12.4495 6.41753 0)
(3.70726 6.13037 0)
(-4.45991 5.71885 0)
(-12.9565 5.00058 0)
(-20.9791 3.99783 0)
(-28.1631 2.54182 0)
(-32.305 1.10983 0)
(19.5727 4.50026 0)
(11.5256 4.10906 0)
(1.96697 3.63629 0)
(-6.70599 3.18558 0)
(-15.7315 2.65261 0)
(-24.3842 2.07385 0)
(-32.6225 1.3575 0)
(-38.4504 0.503393 0)
(19.1454 2.3735 0)
(9.52385 1.87725 0)
(0.180382 1.63695 0)
(-8.46271 1.40728 0)
(-17.7203 1.15567 0)
(-26.5267 0.897965 0)
(-34.9038 0.601994 0)
(-41.5713 0.18951 0)
(19.0525 0.18612 0)
(8.90228 0.0167234 0)
(-1.49686 0.103227 0)
(-9.10959 0.191295 0)
(-18.3601 0.0938449 0)
(-27.2645 0.0860016 0)
(-35.6636 0.0784478 0)
(-42.6887 -0.00432358 0)
(19.3136 -1.85667 0)
(10.2661 -1.81938 0)
(1.13193 -1.55503 0)
(-8.3191 -1.17285 0)
(-17.8279 -0.931069 0)
(-26.8594 -0.676475 0)
(-35.3716 -0.387365 0)
(-42.5523 -0.157839 0)
(19.842 -3.67835 0)
(11.3675 -3.35279 0)
(2.50724 -2.98151 0)
(-6.60486 -2.59323 0)
(-15.8456 -2.13941 0)
(-24.704 -1.56268 0)
(-33.02 -0.957337 0)
(-40.0583 -0.361204 0)
(21.943 -5.74255 0)
(13.3744 -5.11634 0)
(4.56452 -4.50235 0)
(-4.5155 -3.83505 0)
(-13.4837 -3.08415 0)
(-21.9592 -2.24052 0)
(-30.0584 -1.36896 0)
(-37.0401 -0.490265 0)
(25.3801 -7.85834 0)
(17.5512 -7.14706 0)
(9.18393 -6.31769 0)
(0.674022 -5.38962 0)
(-7.82638 -4.30642 0)
(-16.2064 -3.1282 0)
(-24.2281 -1.93037 0)
(-31.1772 -0.66718 0)
(26.9512 -8.3327 0)
(20.5517 -7.88496 0)
(13.3147 -7.14597 0)
(5.55997 -6.18557 0)
(-2.47316 -5.03695 0)
(-10.5566 -3.72876 0)
(-18.2267 -2.30877 0)
(-24.93 -0.769852 0)
(27.7586 -7.72072 0)
(22.6766 -7.42782 0)
(16.6906 -6.84964 0)
(10.0711 -6.02786 0)
(3.08074 -4.9911 0)
(-4.03292 -3.75501 0)
(-11.0589 -2.31609 0)
(-17.5289 -0.742529 0)
(28.106 -6.33118 0)
(24.2978 -6.14849 0)
(19.4943 -5.71979 0)
(13.9313 -5.06785 0)
(7.84415 -4.21155 0)
(1.47342 -3.15955 0)
(-5.02151 -1.96147 0)
(-11.1738 -0.608681 0)
(28.0997 -4.6951 0)
(25.3574 -4.60896 0)
(21.5889 -4.32293 0)
(16.9619 -3.8491 0)
(11.6903 -3.20678 0)
(6.00961 -2.40906 0)
(0.16084 -1.49333 0)
(-5.72029 -0.433486 0)
(27.9935 -3.25774 0)
(26.0019 -3.23035 0)
(23.0313 -3.05374 0)
(19.1466 -2.72817 0)
(14.5162 -2.27349 0)
(9.3502 -1.70665 0)
(3.86232 -1.0418 0)
(-1.65062 -0.287754 0)
(27.9137 -2.19909 0)
(26.3955 -2.18781 0)
(23.9786 -2.08119 0)
(20.6347 -1.86666 0)
(16.484 -1.55925 0)
(11.7228 -1.17443 0)
(6.58844 -0.733889 0)
(1.39091 -0.235382 0)
(27.8674 -1.45983 0)
(26.6433 -1.45167 0)
(24.5924 -1.38433 0)
(21.618 -1.24187 0)
(17.7904 -1.03362 0)
(13.2778 -0.769052 0)
(8.29371 -0.471551 0)
(3.09933 -0.127604 0)
(27.8435 -0.965784 0)
(26.8038 -0.959621 0)
(24.9914 -0.916618 0)
(22.2661 -0.8229 0)
(18.6616 -0.684897 0)
(14.3284 -0.506813 0)
(9.47931 -0.311612 0)
(4.40007 -0.0808617 0)
(27.8307 -0.646535 0)
(26.9086 -0.642732 0)
(25.2523 -0.615183 0)
(22.6947 -0.553045 0)
(19.2422 -0.461606 0)
(15.0296 -0.34076 0)
(10.2645 -0.211166 0)
(5.22752 -0.0549158 0)
(27.8204 -0.441871 0)
(26.9757 -0.439829 0)
(25.4236 -0.421839 0)
(22.9795 -0.379641 0)
(19.6298 -0.318172 0)
(15.4977 -0.234385 0)
(10.7871 -0.146188 0)
(5.76557 -0.039148 0)
(27.8098 -0.310714 0)
(27.0182 -0.309918 0)
(25.538 -0.298044 0)
(23.1732 -0.268558 0)
(19.896 -0.226317 0)
(15.8213 -0.166628 0)
(11.1516 -0.104267 0)
(6.13744 -0.0301601 0)
(27.7989 -0.227209 0)
(27.0451 -0.227249 0)
(25.617 -0.219361 0)
(23.3101 -0.197959 0)
(20.0867 -0.167908 0)
(16.0553 -0.123843 0)
(11.4184 -0.0772402 0)
(6.40672 -0.025708 0)
(27.7876 -0.174291 0)
(27.0623 -0.175015 0)
(25.6739 -0.169558 0)
(23.4114 -0.15337 0)
(20.23 -0.130882 0)
(16.2328 -0.0970213 0)
(11.6239 -0.0594891 0)
(6.60951 -0.0237524 0)
(27.776 -0.141298 0)
(27.0733 -0.142115 0)
(25.7164 -0.138472 0)
(23.4901 -0.125451 0)
(20.3432 -0.107619 0)
(16.3743 -0.0805951 0)
(11.7907 -0.047615 0)
(6.77013 -0.0228939 0)
(27.764 -0.120925 0)
(27.0801 -0.121992 0)
(25.75 -0.119324 0)
(23.5548 -0.108352 0)
(20.4378 -0.093315 0)
(16.4938 -0.0710412 0)
(11.9333 -0.0398912 0)
(6.90542 -0.0228085 0)
(27.7517 -0.108788 0)
(27.0841 -0.109953 0)
(25.778 -0.107963 0)
(23.6109 -0.0983565 0)
(20.5204 -0.0849472 0)
(16.5999 -0.0660649 0)
(12.0615 -0.035155 0)
(7.0265 -0.02333 0)
(27.7392 -0.10199 0)
(27.0862 -0.103082 0)
(25.8022 -0.101768 0)
(23.6613 -0.0930511 0)
(20.5957 -0.0804562 0)
(16.6986 -0.064026 0)