/*--------------------------------*- C++ -*----------------------------------*\
| =========                 |                                                 |
| \\      /  F ield         | OpenFOAM: The Open Source CFD Toolbox           |
|  \\    /   O peration     | Version:  v2012                                 |
|   \\  /    A nd           | Website:  www.openfoam.com                      |
|    \\/     M anipulation  |                                                 |
\*---------------------------------------------------------------------------*/
FoamFile
{
    version     2.0;
    format      ascii;
    class       volScalarField;
    location    "0.051";
    object      omega.air;
}
// * * * * * * * * * * * * * * * * * * * * * * * * * * * * * * * * * * * * * //

dimensions      [0 0 -1 0 0 0 0];


internalField   nonuniform List<scalar> 
5600
(
6759.83
9484.98
11883
13299.1
13893
13968.6
13768.6
13437.1
13075.9
12743.6
12449.3
12202.9
12010.2
11870.9
11780.8
11730.6
11710.6
11709.2
11718.9
11732.2
11746.4
11758.2
11768.1
11775.1
11781.1
11786.2
11791.2
11795.9
11800.4
11804.6
11808.5
11811.7
11814.6
11816.4
11817.4
11817.1
11816.9
11815.1
11814.5
11811.3
11810.7
11805.7
11806.4
11799.7
11803.2
11794
11801.6
11788.1
11800.5
11780.9
11798.3
11772.7
11795
11765.8
11790.2
11762.9
11782.9
11766.8
11772.2
11776.8
11760.5
11786.8
11755.3
11787.1
11765
11771
11790.3
11744
11818
11724.6
11828
11729.8
11808.7
11761.9
11767.7
11805.9
11727.6
11834.4
11718.2
11819
11761.6
11746
11854.7
11649.2
11934.7
11612.7
11913.9
11695.2
11769.9
11867.5
11594.4
12002.2
11544.1
11949
11713.3
11641.4
12150.6
10838.5
13350.9
6215.03
2505.46
2659.12
3502.93
4411.75
5081.48
5503.03
5763.22
5918.52
5999.61
6000.48
6089.42
6223.47
6349.64
6440.03
6482.75
6479.74
6437.38
6365.9
6274.76
6172.01
6065.05
5960.16
5861.88
5770.92
5685.93
5605.19
5528.92
5458.16
5393.67
5335.24
5282.52
5234.56
5191.22
5151.66
5116.44
5084.16
5055.65
5029.13
5006.51
4984.87
4966.72
4948.96
4933.93
4919.14
4906.82
4894.36
4884.05
4873.09
4864.47
4854.59
4847.65
4838.18
4833.18
4824.71
4821.73
4815.26
4813.8
4809.96
4809
4807.06
4806.16
4806.57
4804.19
4806.73
4804.24
4806.3
4805.74
4805.37
4808.83
4803.04
4811.97
4802.34
4811.29
4804.6
4809.03
4806.99
4805.98
4811.07
4802.65
4811.53
4805.54
4806.96
4810.17
4800.56
4820.64
4792.43
4823.78
4796.87
4814.55
4802.74
4808.79
4812.83
4805.43
4806.07
4833.74
4754.19
4917.46
4604.7
5126.5
4322.47
2557.28
2210.45
2001.59
1890
1867.38
1937.95
2042.23
2168.35
2320.66
2455.25
2600.56
2764.3
2938.04
3109.26
3265.94
3400
3505.88
3582.71
3629.32
3647.06
3636.15
3599.5
3539.53
3464.96
3387.54
3319.77
3263.55
3214.09
3168.29
3126.26
3088.65
3054.77
3024.31
2994.38
2966.21
2939.54
2914.91
2891.06
2869.57
2848.32
2830.07
2811.68
2796.46
2780.5
2767.91
2753.84
2744.05
2731.29
2723.98
2711.82
2706.84
2694.92
2692.41
2681.33
2681.09
2671.91
2672.49
2666.83
2666.53
2665.53
2661.94
2666.15
2659.52
2665.68
2660.8
2662.46
2665.89
2657.02
2671.98
2652.83
2674.55
2654.15
2670.63
2660.72
2662.92
2669.29
2655.16
2674.74
2653.67
2670.62
2663.92
2655.35
2682.77
2636.3
2697.52
2630.98
2690.19
2650.92
2663.12
2681.82
2635.92
2700.35
2632.57
2690.14
2658.42
2661.93
2685.34
2656.72
2663.03
2751.5
2552.85
2194.97
1927.14
1721.32
1562.49
1440.91
1350.61
1281.14
1234.65
1202.68
1188.72
1197.62
1228.3
1279
1349.77
1437.47
1539.63
1650.11
1763.72
1875.77
1979.29
2070.15
2143.97
2200.71
2241.8
2270.7
2288.86
2296.88
2293.65
2280.29
2257.45
2229.75
2199.29
2173.18
2149.4
2127.71
2106.99
2087.04
2067.63
2048.92
2031.94
2015.8
2002.01
1987.71
1974.52
1960.6
1948.74
1935.4
1925.16
1912.03
1903.9
1891.18
1886.15
1874.66
1872.9
1863.53
1863.42
1857.26
1856.95
1855.8
1852.1
1856.35
1849.67
1855.64
1850.96
1851.86
1856.18
1845.96
1861.9
1842.27
1863.25
1844.6
1859.02
1851.18
1851.36
1859.17
1844.62
1863.06
1845.26
1857.45
1856.45
1841.9
1874.83
1824.89
1884.42
1826.87
1871.49
1850.55
1844.76
1879.95
1820.94
1893.94
1821.64
1884.5
1843.88
1868.51
1859.8
1873.9
1855.52
1894.61
2551.16
2191.54
1920.41
1709.12
1540.35
1402.78
1289.06
1193.87
1113.46
1045.22
986.741
937.658
895.975
862.591
835.014
816.196
803.219
801.016
809.861
828.807
859.819
900.762
952.136
1011.53
1078.19
1149.75
1224.73
1300.02
1372.16
1436.98
1490.88
1534.48
1566.78
1592.79
1610.75
1624.57
1630.57
1634.72
1630.15
1626.5
1613.39
1605.19
1588.17
1580.07
1564.96
1558.45
1544.16
1537.81
1523.78
1516.08
1504.07
1495.02
1487.84
1478.23
1476.49
1467.26
1468.91
1461.45
1463.02
1460.58
1458
1462.2
1454.98
1462.25
1455.88
1457.98
1461
1451.63
1467.05
1448.2
1468.64
1451.09
1464.43
1456.32
1458.03
1462.58
1452.95
1466.43
1454.58
1460.63
1464.23
1448.28
1478.89
1438.73
1483.99
1447.98
1465.89
1471.06
1447.12
1489.38
1438.8
1498.76
1447.5
1474.59
1479.55
1456.51
1492.43
1459.28
1487.52
1500.56
2550.73
2190.47
1918.73
1706.87
1537.26
1398.57
1283.08
1185.53
1102.07
1029.89
966.939
911.549
862.552
818.959
780.107
745.114
714.184
686.019
662.003
640.007
622.312
606.642
595.274
586.533
582.78
583.692
591.032
604.482
625.763
654.341
689.877
731.261
776.513
825.674
875.574
928.682
976.821
1027.82
1067.64
1111.72
1138.19
1171.89
1184.4
1209.71
1213.31
1234.19
1230.98
1248.13
1238.65
1250.13
1237.17
1241.41
1231.69
1227.04
1227.67
1213.31
1225.56
1206.12
1221.08
1208.21
1212.49
1216.43
1202.47
1223.57
1199.62
1222.41
1208.41
1213.7
1220.36
1203.99
1227.52
1197.92
1229.94
1200.23
1227.28
1209.13
1218.63
1220.17
1207.84
1224.65
1215.89
1213.72
1238.18
1207.01
1237.76
1216.85
1217.58
1239.04
1199.03
1262.34
1195.75
1251.46
1224.18
1197.29
1276.48
1151.05
1289.15
1160.29
1223.2
1261.56
2550.6
2190.09
1918.17
1706.13
1536.36
1397.48
1281.83
1184.02
1100.3
1027.75
964.377
908.44
858.816
814.372
774.503
738.318
705.64
675.637
648.44
623.228
600.319
579.007
559.548
541.475
525.026
509.786
496.247
483.787
473.273
463.785
456.997
450.871
448.853
447.145
452.189
455.98
470.476
480.763
506.229
522.782
558.752
579.565
622.377
643.588
688.801
710.066
756.586
777.806
823.819
841.644
882.558
891.196
924.465
922.795
948.283
942.398
957.058
957.828
955.565
970.083
952.724
973.053
959.099
961.952
978.016
942.381
997.131
931.768
995.957
943.914
973.984
968.202
950.245
988.293
938.021
992.63
944.567
970.82
980.109
919.381
1039.86
862.343
1067.28
867.897
1002.04
961.998
890.109
1064.96
800.641
1109.48
790.323
1019.19
921.748
860.174
1066.19
751.47
1086.36
792.144
977.816
913.898
2550.55
2189.92
1917.92
1705.82
1535.99
1397.06
1281.35
1183.51
1099.71
1027.14
963.684
907.709
857.989
813.495
773.482
737.257
704.361
674.298
646.782
621.436
598.083
576.439
556.372
537.679
520.275
503.968
488.77
474.438
461.128
448.408
436.852
425.378
415.654
404.931
397.557
386.81
382.928
370.922
372.556
357.321
367.517
346.565
369.412
340.003
378.859
338.834
395.902
347.746
422.055
374.737
455.311
421.574
484.231
480.606
497.167
538.883
496.178
578.536
500.355
580.508
531.33
540.369
587.595
481.552
636.811
445.494
640.926
464.579
590.128
532.94
510.669
614.279
436.081
668.366
406.076
648.637
467.327
538.619
606.491
393.522
732.83
299.083
743.912
347.595
612.448
518.683
426.44
706.256
270.315
770.078
292.362
643.653
454.935
484.418
600.524
394.669
635.402
455.381
564.499
504.928
2550.52
2189.85
1917.81
1705.67
1535.82
1396.86
1281.13
1183.27
1099.46
1026.87
963.394
907.411
857.666
813.165
773.125
736.898
703.969
673.901
646.346
620.995
597.598
575.933
555.817
537.086
519.608
503.252
487.932
473.526
459.998
447.199
435.193
423.713
413.046
402.611
393.192
383.52
375.382
366.136
359.465
350.172
345.351
335.366
333.092
321.566
322.746
308.703
314.158
297.228
306.975
288.919
300.333
286.441
292.346
290.705
281.893
297.888
271.5
299.931
267.541
289.553
274.255
267.619
286.928
245.314
294.154
235.803
288.591
242.314
271.426
260.564
246.16
286.046
219.213
306.946
209.074
301.286
233.346
262.053
281.359
215.335
316.76
199.64
314.765
222.661
281.025
268.359
229.021
317.648
195.648
322.607
223.998
279.477
273.646
240.447
294.726
229.328
288.387
262.435
241.768
289.726
2550.51
2189.81
1917.76
1705.61
1535.74
1396.77
1281.03
1183.16
1099.34
1026.75
963.264
907.276
857.525
813.022
772.975
736.744
703.809
673.739
646.176
620.82
597.415
575.745
555.623
536.887
519.401
503.04
487.708
473.299
459.748
446.957
434.9
423.461
412.672
402.368
392.669
383.323
374.579
366.051
358.157
350.307
343.184
335.868
329.501
322.57
316.996
310.288
305.507
298.951
294.805
288.65
284.675
279.574
275.009
271.647
265.883
264.197
257.518
256.262
250.114
247.462
243.624
238.568
237.804
230.972
232.557
225.665
227.892
223.091
223.292
223.64
217.976
226.66
213.135
228.589
213.032
224.391
220.851
213.083
233.437
201.25
241.541
198.904
236.62
210.975
217.997
233.472
193.771
254.961
178.33
260.018
184.774
242.705
209.691
212.888
242.198
178.362
271.38
162.346
269.937
178.745
2550.51
2189.81
1917.76
1705.61
1535.75
1396.78
1281.04
1183.17
1099.35
1026.76
963.272
907.284
857.535
813.032
772.984
736.752
703.817
673.746
646.183
620.827
597.423
575.752
555.63
536.894
519.408
503.048
487.715
473.307
459.754
446.967
434.905
423.475
412.673
402.39
392.66
383.358
374.555
366.109
358.105
350.407
343.083
336.042
329.318
322.859
316.697
310.722
305.096
299.494
294.399
289.134
284.556
279.709
275.523
271.217
267.113
263.367
259.02
255.649
251.123
247.7
243.731
239.654
237.407
232.169
232.472
226.236
228.531
223.024
224.304
223.559
218.531
227.562
211.965
232.008
208.415
231.702
212.577
222.613
225.892
205.873
243.295
189.932
253.886
186.59
248.545
200.996
226.745
228.585
195.898
257.561
171.207
272.344
167.463
264.379
188.253
232.07
230.179
184.216
273.717
150.06
2550.52
2189.86
1917.82
1705.69
1535.84
1396.89
1281.15
1183.3
1099.48
1026.89
963.418
907.436
857.691
813.193
773.151
736.925
703.995
673.929
646.372
621.02
597.622
575.957
555.841
537.111
519.633
503.28
487.957
473.558
460.019
447.245
435.201
423.796
413.017
402.775
393.08
383.846
375.107
366.772
358.883
351.354
344.234
337.481
331.118
325.126
319.535
314.25
309.499
305.009
301.53
298.225
296.581
294.602
294.837
293.634
294.623
293.341
293.396
292.021
289.693
289.132
284.153
284.56
279.113
277.766
277.288
268.774
279.29
260.164
281.036
257.717
275.66
266.51
260.34
283.974
241.548
298.775
232.254
298.588
241.869
279.905
268.048
249.495
299.186
220.697
319.811
209.387
317.958
224.138
291.268
262.442
245.303
310.767
198.749
342.986
182.638
333.133
214.745
283.643
273.953
223.029
2550.55
2189.94
1917.95
1705.85
1536.03
1397.1
1281.39
1183.55
1099.76
1027.19
963.724
907.757
858.027
813.545
773.518
737.308
704.397
674.351
646.821
621.492
598.133
576.497
556.435
537.755
520.349
504.074
488.872
474.605
461.261
448.718
437.003
426.003
415.76
406.233
397.44
389.45
382.276
376.04
370.815
366.651
363.948
362.73
363.357
365.595
369.916
376.015
385.07
396.844
413.234
431.89
454.939
476.464
501.037
519.101
540.19
551.298
566.399
571.718
579.401
583.723
582.137
590.952
579.444
593.941
578.011
590.146
584.374
577.713
599.032
561.036
613.107
551.89
613.786
560.693
595.887
586.196
566.467
615.672
540.639
632.892
534.086
626.296
554.043
595.024
594.202
551.312
634.422
518.76
650.311
520.653
627.285
561.643
574.838
618.421
520.741
655.778
500.739
646.646
526.68
606.314
2550.6
2190.11
1918.2
1706.18
1536.4
1397.55
1281.87
1184.11
1100.35
1027.84
964.432
908.542
858.869
814.503
774.547
738.49
705.691
675.86
648.553
623.514
600.571
579.396
560.006
542.119
525.79
510.919
497.613
485.759
475.679
467.331
461.162
457.133
456.052
458.064
463.834
473.822
488.337
507.448
531.128
558.856
590.085
623.564
658.006
692.798
727.489
761.801
795.812
829.208
860.844
889.685
914.22
934.265
949.581
960.931
969.4
974.786
979.959
981.602
985.486
984.936
987.896
987.41
987.644
990.678
984.959
994.822
981.83
997.371
982.173
994.406
989.221
984.484
1001.18
972.685
1010.25
968.621
1008.26
977.546
994.202
995.409
975.02
1011.92
962.699
1017.25
964.722
1008.85
979.209
990.86
999.355
969.692
1017.62
954.538
1026.92
952.978
1020.35
972.882
989.067
1011.71
949.722
1036.01
2550.73
2190.51
1918.77
1706.94
1537.31
1398.68
1283.13
1185.68
1102.15
1030.11
967.079
911.867
862.795
819.53
780.488
746.13
714.885
687.84
663.54
642.963
625.42
611.407
600.938
594.468
592.811
597.452
608.224
626.72
653.113
687.276
728.067
773.93
823.452
875.435
928.864
981.362
1031.92
1078.24
1120.15
1155.35
1184.39
1206.73
1224.32
1238.35
1249.23
1257.56
1263.24
1266.34
1266.48
1264.42
1259.96
1254.82
1248.39
1243.31
1237.78
1234.53
1231.19
1229.42
1228.18
1226.67
1227.4
1225.36
1227.36
1225.34
1226.51
1227.01
1224.24
1229.98
1221.58
1232.09
1221.21
1230.47
1225.19
1224.94
1231.76
1219.15
1236.29
1217.23
1235.39
1220.74
1229.34
1228.14
1221.78
1235.68
1215.97
1239.78
1214.52
1237.98
1219.62
1228.77
1232.19
1214.55
1247.51
1201.85
1254.72
1203.48
1241.52
1226.55
1211.1
1256.37
2551.14
2191.61
1920.46
1709.21
1540.48
1402.96
1289.39
1194.34
1114.23
1046.34
988.299
940.035
899.323
867.131
841.29
824.489
814.559
817.416
829.607
855.018
890.714
938.694
995.147
1060.85
1131.93
1208.35
1285.96
1362.86
1433.51
1494.52
1543.8
1581.66
1610.78
1632.81
1648.11
1657.45
1661.51
1660.48
1655.02
1645.5
1633.55
1619.75
1607.02
1595.44
1584.45
1573.91
1563.44
1552.79
1541.84
1531.05
1520.7
1511.44
1503.29
1496.69
1491.19
1486.97
1483.46
1480.88
1479.11
1477.48
1477.1
1475.8
1476.21
1475.2
1475.42
1475.63
1474.39
1476.83
1473.39
1477.7
1473.37
1477.09
1475.07
1474.81
1477.73
1472.26
1479.68
1471.38
1479.39
1473
1476.88
1476.32
1473.22
1479.72
1470.21
1481.63
1469.7
1480.72
1472.58
1476.32
1478.46
1469.31
1485.77
1462.8
1489.84
1462.76
1484.48
1473.39
1468.05
1491.35
2552.7
2195.26
1927.01
1721.94
1563.09
1442.95
1353.88
1285.96
1243.09
1212.65
1204.43
1220.17
1257.92
1316.76
1395.72
1491.25
1600.03
1715.03
1832.69
1945.26
2048.18
2134.79
2203.61
2254.61
2291.28
2315.77
2330.08
2332.29
2323.56
2304.05
2277.33
2246.37
2218.36
2193.51
2170.57
2148.92
2128.04
2107.79
2088.14
2069.72
2052.66
2037.32
2022.52
2007.93
1993.79
1980.28
1967.42
1955.09
1943.26
1931.98
1921.46
1911.88
1903.5
1896.32
1890.47
1885.66
1882.06
1879.1
1877.24
1875.47
1874.83
1873.71
1873.7
1873.02
1873.06
1873.29
1872.61
1874.17
1872.26
1874.82
1872.37
1874.61
1873.42
1873.32
1875.11
1871.77
1876.39
1871.16
1876.32
1872.01
1874.84
1874.13
1872.39
1876.55
1870.26
1877.94
1869.8
1877.39
1871.6
1874.48
1875.5
1869.99
1880.1
1865.68
1883.28
1864.24
1881.56
1868.76
1872.06
1878.77
2556.77
2211.47
2002.35
1895.5
1876.1
1959.42
2065.24
2206.64
2361.91
2500.55
2658.25
2833.62
3016.15
3191.18
3348.76
3478.92
3580.61
3649.53
3688.77
3696.03
3675.69
3626.79
3558.21
3478.26
3403.64
3341.84
3288.84
3240.11
3195.02
3153.91
3116.99
3083.81
3052.01
3021.6
2993.17
2966.48
2941.33
2917.76
2895.61
2875.1
2856.11
2838.68
2822.73
2807.83
2794.15
2781.6
2770.09
2759.47
2749.68
2740.56
2732.15
2724.4
2717.6
2711.58
2706.66
2702.4
2699.28
2696.5
2694.86
2693.18
2692.6
2691.59
2691.54
2691.06
2691.13
2691.48
2691.09
2692.43
2691.01
2693.1
2691.23
2693.06
2692.07
2692.14
2693.46
2690.91
2694.62
2690.28
2694.67
2690.89
2693.55
2692.54
2691.53
2694.64
2689.62
2696.03
2689.05
2695.62
2690.46
2693.3
2693.52
2689.79
2697.06
2686.43
2699.51
2684.83
2698.91
2686.66
2692.25
2690.73
2506.75
2665.24
3515.59
4428.23
5102.27
5522.77
5790.42
5943.82
6009.83
6037.23
6165.1
6317.64
6450.13
6536.81
6573.1
6560
6509.01
6428.51
6330.59
6222.18
6111.67
6005.36
5906.2
5814.23
5727.16
5644.86
5567.3
5496.64
5432.25
5373.96
5321.28
5273.52
5230.31
5191.31
5156.1
5124.31
5095.64
5069.96
5046.86
5026.18
5007.42
4990.43
4974.93
4960.89
4947.9
4935.8
4924.63
4914.25
4904.7
4895.82
4887.66
4880.13
4873.49
4867.58
4862.72
4858.51
4855.34
4852.67
4850.92
4849.49
4848.68
4848.05
4847.75
4847.68
4847.79
4848.18
4848.44
4848.97
4848.76
4849.59
4849.03
4849.9
4849.33
4849.92
4849.74
4849.56
4850.44
4849.02
4850.75
4849.07
4850.52
4849.42
4850.09
4850.07
4849.17
4851.12
4848.42
4851.33
4848.67
4850.87
4849.28
4849.83
4850.89
4847.9
4852.24
4846.83
4852.16
4845.38
4850.08
4842.43
6756.4
9486.34
11879.2
13284
13857.9
13918.5
13701.1
13355.5
12989.7
12654.1
12355.5
12109
11918.4
11784.3
11699.1
11655.1
11638.7
11641.2
11651.7
11666.3
11679.5
11691.2
11700.2
11707.1
11713
11718.4
11723.6
11728.5
11732.9
11736.9
11740.3
11743.2
11745.1
11746.1
11746.1
11745.3
11743.9
11742.1
11739.8
11737.2
11734.3
11731.2
11728.3
11725.5
11723.1
11721
11719.2
11717.3
11715.3
11712.7
11710.1
11707
11704.3
11701.3
11699.3
11696.7
11696
11693.7
11694.5
11692.4
11694.4
11692.5
11694.7
11694
11694.6
11696.8
11693.7
11699.7
11692.7
11701.2
11693.4
11699.5
11697.3
11694.6
11703.1
11689.4
11707.2
11687.5
11706.6
11691
11700.7
11698.9
11691.7
11708
11684.2
11712.7
11683.7
11708.7
11692.1
11696.9
11705.7
11683.8
11716.6
11676.9
11719.6
11679.8
11712.5
11695.6
11697.1
11725.1
7536.41
5428.75
4315.1
3631.91
3188.13
2866.15
2636.23
2512.88
2334.71
2205.53
2280.49
2039.19
1381.25
746.623
375.166
248.016
238.251
231.498
283.977
444.628
584.399
642.473
632.184
580.688
509.743
438.658
380.299
337.915
308.715
288.65
274.535
264.26
256.44
250.125
244.68
239.752
235.274
231.408
228.404
226.416
225.37
224.901
224.494
223.79
222.763
221.59
220.488
219.634
219.088
218.788
218.641
218.576
218.548
218.535
218.528
218.522
218.518
218.516
218.513
218.512
218.511
218.51
218.509
218.51
218.509
218.51
218.509
218.51
218.508
218.51
218.509
218.509
218.509
218.509
218.509
218.509
218.509
218.509
218.509
218.509
218.509
218.509
218.509
218.509
218.51
218.508
218.51
218.508
218.51
218.508
218.51
218.507
218.51
218.507
218.51
218.505
218.509
218.501
218.504
218.49
4708.58
4995.84
4440.03
3780.44
3317.86
2956.92
2690.02
2550.01
2327.29
2211.56
2297.65
1886.34
1086.85
526.106
265.468
211.175
226.51
229.056
226.971
325.133
457.538
532.074
536.404
493.278
431.305
374.396
332.965
305.84
288.09
275.699
266.411
259.096
253.116
248.005
243.384
239.016
234.879
231.17
228.194
226.175
225.097
224.63
224.264
223.617
222.654
221.571
220.554
219.721
219.143
218.799
218.612
218.514
218.463
218.434
218.418
218.407
218.401
218.397
218.394
218.392
218.391
218.391
218.39
218.391
218.39
218.391
218.389
218.391
218.389
218.391
218.389
218.391
218.389
218.39
218.389
218.39
218.389
218.39
218.389
218.39
218.39
218.39
218.39
218.39
218.39
218.39
218.39
218.39
218.39
218.39
218.39
218.39
218.39
218.389
218.39
218.388
218.389
218.386
218.386
218.381
2476.91
3209.43
3836.64
3639.39
3344.58
3014.34
2735.34
2586.05
2310.74
2237.25
2282.48
1587.04
750.01
349.931
181.644
175.922
215.283
231.793
217.519
254.462
348.825
420.639
433.709
403.505
360.647
325.315
301.892
286.986
276.662
268.603
261.837
256.027
251.002
246.563
242.461
238.497
234.635
231.053
228.07
225.97
224.817
224.354
224.086
223.587
222.763
221.793
220.856
220.033
219.387
218.951
218.686
218.533
218.444
218.393
218.363
218.346
218.336
218.33
218.326
218.325
218.323
218.323
218.322
218.322
218.322
218.323
218.321
218.323
218.321
218.323
218.321
218.323
218.321
218.323
218.321
218.323
218.321
218.323
218.321
218.323
218.321
218.323
218.321
218.323
218.321
218.323
218.321
218.323
218.32
218.323
218.32
218.324
218.32
218.324
218.32
218.324
218.32
218.325
218.321
218.328
1862.6
1949.53
2406.64
2779.69
3017.72
2914.26
2725.66
2587.86
2267.85
2287.42
2117.77
1108.12
437.332
239.059
155.004
198.612
260.51
261.845
235.648
233.985
283.752
335.69
350.256
335.58
313.994
297.028
285.683
277.655
271.042
264.996
259.357
254.214
249.634
245.548
241.775
238.118
234.502
231.052
228.059
225.837
224.537
224.015
223.856
223.605
223.047
222.259
221.397
220.565
219.848
219.308
218.946
218.718
218.579
218.496
218.445
218.416
218.398
218.388
218.382
218.379
218.377
218.376
218.375
218.375
218.374
218.375
218.374
218.376
218.374
218.376
218.373
218.376
218.374
218.376
218.373
218.376
218.373
218.376
218.373
218.376
218.373
218.377
218.373
218.377
218.372
218.377
218.372
218.377
218.372
218.378
218.372
218.378
218.371
218.379
218.372
218.38
218.373
218.384
218.378
218.395
1435.33
1596.55
1475.94
1667.04
2079.52
2292.17
2501.36
2422.87
2147.69
2303.91
1546.55
544.847
276.632
201.553
166.648
253.447
355.177
333.48
274.449
243.407
258.604
288.193
300.723
297.465
289.736
283.006
277.749
273.038
268.192
263.085
257.946
253.084
248.695
244.792
241.232
237.816
234.428
231.131
228.156
225.807
224.296
223.611
223.474
223.46
223.229
222.69
221.939
221.12
220.362
219.746
219.295
218.987
218.788
218.661
218.583
218.536
218.508
218.491
218.481
218.476
218.473
218.471
218.47
218.47
218.469
218.47
218.468
218.47
218.468
218.47
218.468
218.47
218.468
218.47
218.468
218.47
218.467
218.471
218.467
218.471
218.467
218.471
218.467
218.471
218.466
218.472
218.466
218.472
218.466
218.472
218.465
218.473
218.465
218.474
218.466
218.475
218.468
218.48
218.474
218.495
1113.75
1344.55
1146.24
1278.22
1248.75
1373.81
1731.8
1746.77
1851.19
1763.45
575.761
249.174
249.29
180.288
220.216
385.316
532.151
491.18
367.392
284.164
262.972
271.354
279.189
280.474
278.706
276.293
273.658
270.476
266.514
261.901
257.015
252.277
247.971
244.167
240.748
237.517
234.331
231.198
228.288
225.857
224.137
223.212
222.938
222.977
222.949
222.629
222.035
221.312
220.595
219.971
219.48
219.124
218.881
218.724
218.625
218.565
218.529
218.507
218.495
218.488
218.484
218.482
218.48
218.48
218.479
218.48
218.479
218.48
218.478
218.48
218.478
218.48
218.478
218.48
218.478
218.481
218.478
218.481
218.478
218.481
218.477
218.481
218.477
218.481
218.477
218.482
218.477
218.482
218.477
218.482
218.476
218.482
218.476
218.483
218.477
218.485
218.479
218.489
218.485
218.503
873.152
996.9
860.412
1048.25
761.143
1092.79
819.25
960.696
1113.83
387.517
77.5594
288.671
245.944
180.208
354.158
609.457
787.81
739.343
543.583
380.443
303.01
281.095
277.912
277.108
275.63
273.713
271.493
268.709
265.13
260.832
256.162
251.549
247.312
243.564
240.219
237.102
234.067
231.093
228.297
225.872
224.018
222.847
222.309
222.174
222.132
221.923
221.488
220.923
220.331
219.788
219.344
219.012
218.781
218.629
218.534
218.475
218.44
218.42
218.408
218.402
218.398
218.396
218.394
218.394
218.393
218.394
218.393
218.394
218.392
218.394
218.392
218.394
218.392
218.394
218.392
218.394
218.392
218.394
218.392
218.394
218.392
218.395
218.391
218.395
218.391
218.395
218.391
218.395
218.391
218.395
218.391
218.396
218.391
218.396
218.391
218.397
218.393
218.401
218.398
218.413
552.416
526.131
584.317
510.534
589.277
490.154
500.204
542.729
324.735
148.674
328.983
326.731
190.229
248.452
605.947
943.866
1120.13
1080.23
829.655
558.437
396.694
327.316
300.464
288.398
281.2
276.006
271.881
268.153
264.275
260.031
255.543
251.092
246.929
243.155
239.732
236.553
233.535
230.66
227.996
225.662
223.785
222.451
221.656
221.273
221.097
220.915
220.612
220.205
219.765
219.355
219.016
218.763
218.588
218.473
218.4
218.355
218.329
218.313
218.304
218.299
218.296
218.295
218.294
218.293
218.293
218.293
218.292
218.293
218.292
218.293
218.292
218.293
218.292
218.294
218.292
218.294
218.292
218.294
218.292
218.294
218.292
218.294
218.291
218.294
218.291
218.294
218.291
218.294
218.291
218.295
218.291
218.295
218.291
218.295
218.291
218.296
218.292
218.299
218.296
218.308
240.641
297.613
222.819
304.182
252.006
255.552
264.129
194.142
225.632
208.101
216.033
187.967
207.529
530.067
1036.08
1377.11
1487.88
1436.48
1209.08
876.102
591.882
429.75
356.647
322.977
303.548
290.095
280.173
272.635
266.543
261.212
256.288
251.658
247.31
243.243
239.461
235.971
232.784
229.903
227.338
225.122
223.31
221.949
221.036
220.503
220.221
220.036
219.822
219.542
219.234
218.948
218.714
218.543
218.427
218.352
218.306
218.278
218.262
218.252
218.247
218.244
218.242
218.241
218.24
218.24
218.24
218.24
218.239
218.24
218.239
218.24
218.239
218.24
218.239
218.24
218.239
218.241
218.239
218.241
218.239
218.241
218.239
218.241
218.239
218.241
218.239
218.241
218.239
218.241
218.238
218.241
218.238
218.242
218.238
218.242
218.238
218.242
218.239
218.244
218.242
218.251
243.893
215.249
193.39
269.654
153.271
284.958
170.319
228.39
250.66
163.317
305.054
328.675
520.752
1032.8
1535.44
1783.3
1803.49
1710.3
1517.43
1234.04
922.772
674.079
515.649
423.815
370.479
336.815
312.906
294.653
280.517
269.6
261.084
254.223
248.479
243.559
239.336
235.734
232.635
229.882
227.361
225.067
223.096
221.555
220.481
219.826
219.477
219.297
219.16
219.002
218.823
218.655
218.52
218.424
218.361
218.322
218.3
218.287
218.28
218.277
218.275
218.274
218.273
218.273
218.273
218.273
218.272
218.273
218.272
218.273
218.272
218.273
218.272
218.273
218.272
218.273
218.272
218.273
218.272
218.273
218.272
218.273
218.272
218.273
218.272
218.273
218.272
218.274
218.271
218.274
218.271
218.274
218.271
218.274
218.271
218.274
218.271
218.275
218.271
218.276
218.273
218.28
283.88
160.949
262.931
199.729
211.97
262.555
152.624
300.629
181.713
270.021
396.379
476.146
939.787
1549.14
1953.4
2063.47
2013.4
1899.45
1721.73
1482.05
1208.11
957.052
764.078
628.073
532.488
461.854
407.295
364.184
330.138
303.619
283.295
267.951
256.62
248.552
243.039
239.294
236.496
233.95
231.281
228.483
225.801
223.511
221.77
220.579
219.838
219.404
219.139
218.946
218.789
218.666
218.581
218.528
218.5
218.486
218.481
218.479
218.48
218.481
218.482
218.482
218.483
218.483
218.483
218.483
218.483
218.484
218.483
218.484
218.483
218.484
218.483
218.484
218.483
218.484
218.483
218.484
218.482
218.484
218.482
218.484
218.482
218.484
218.482
218.485
218.482
218.485
218.482
218.485
218.481
218.485
218.481
218.486
218.481
218.486
218.481
218.487
218.481
218.488
218.482
218.491
321.429
189.524
334.908
196.502
310.345
259.209
257.747
349.706
294.696
501.552
649.972
961.472
1543.34
2061
2262.41
2230.2
2145.43
2038.85
1880.13
1660.45
1413.08
1180.45
989.931
845.745
737.678
653.648
584.135
523.037
467.277
416.44
371.889
335.246
307.066
286.628
272.274
261.96
253.863
246.764
240.239
234.406
229.557
225.85
223.238
221.532
220.494
219.898
219.569
219.381
219.273
219.221
219.208
219.221
219.246
219.272
219.294
219.312
219.325
219.333
219.338
219.342
219.344
219.345
219.345
219.347
219.346
219.347
219.345
219.348
219.345
219.348
219.345
219.348
219.345
219.348
219.344
219.349
219.344
219.35
219.343
219.351
219.342
219.352
219.34
219.353
219.339
219.355
219.338
219.356
219.336
219.358
219.334
219.36
219.333
219.363
219.331
219.368
219.333
219.378
219.344
219.402
574.306
551.171
613.001
524.551
639.709
541.411
647.439
652.153
683.843
951.293
1092.19
1408.36
1984.41
2417.73
2421.81
2279.17
2196.52
2129.02
2009.25
1811.72
1580.91
1364.57
1183.23
1040.14
930.815
847.876
782.032
725.754
673.403
622.184
572.294
525.259
482.921
445.91
413.138
382.478
352.057
321.911
294.055
270.782
253.274
241.103
233.165
228.282
225.457
223.989
223.406
223.362
223.624
224.037
224.489
224.902
225.24
225.495
225.676
225.798
225.877
225.927
225.957
225.976
225.984
225.993
225.992
226
225.993
226.004
225.991
226.007
225.989
226.008
225.989
226.008
225.988
226.01
225.986
226.014
225.98
226.021
225.972
226.029
225.964
226.038
225.954
226.048
225.943
226.061
225.929
226.075
225.915
226.092
225.899
226.113
225.883
226.141
225.873
226.187
225.889
226.284
225.992
226.525
940.024
1021.62
962.792
984.481
1027.12
947.8
1099.98
1010.43
1140.23
1333.65
1325.81
1784.1
2477.82
2735.45
2458.37
2207.94
2143.67
2137.86
2080.89
1929.03
1723.52
1524.78
1355.88
1219.48
1110.94
1024.77
955.177
896.769
845.03
797.338
753.265
713.197
676.586
641.775
606.696
569.835
530.083
486.19
439.273
393.067
351.922
318.953
294.902
278.89
269.576
265.664
265.721
268.202
271.833
275.72
279.27
282.171
284.354
285.9
286.942
287.62
288.042
288.304
288.453
288.551
288.588
288.638
288.623
288.674
288.621
288.698
288.607
288.716
288.594
288.726
288.59
288.726
288.593
288.725
288.588
288.74
288.56
288.78
288.513
288.83
288.463
288.881
288.409
288.942
288.341
289.017
288.262
289.102
288.174
289.206
288.073
289.333
287.971
289.504
287.899
289.77
287.975
290.295
288.576
291.552
1186.03
1263.85
1187.1
1246.41
1237.53
1208.98
1321.45
1212.24
1438.29
1458.63
1559.66
2362.71
3039.5
2902.97
2344.63
2050.37
2018.41
2057.27
2057.96
1966.05
1806.58
1636.15
1480.49
1346.85
1236.55
1147.49
1075.51
1016.21
965.694
920.905
880.357
844.195
812.13
782.176
751.407
718.657
685.985
655.072
626.197
597.866
569.477
543.219
521.89
507.631
501.622
503.667
511.623
522.409
533.564
543.655
551.926
558.195
562.655
565.671
567.633
568.872
569.629
570.09
570.347
570.516
570.577
570.663
570.633
570.728
570.623
570.777
570.589
570.821
570.553
570.851
570.537
570.853
570.547
570.839
570.557
570.845
570.527
570.902
570.449
570.991
570.359
571.078
570.274
571.169
570.172
571.286
570.045
571.427
569.9
571.6
569.73
571.824
569.548
572.151
569.387
572.706
569.445
573.802
570.501
576.238
1447.65
1501.55
1437.06
1506.29
1459.49
1495.24
1537.35
1483.58
1741.77
1648.64
2149.64
3196.28
3544.45
2858.38
2164.82
1933.46
1911.62
1943.23
1956.85
1903.25
1786.34
1641.39
1499.12
1373.72
1271.47
1192.07
1131.04
1083.05
1044.04
1011.24
983.275
959.523
939.543
921.956
903.976
882.931
859.77
841.586
835.912
840.645
848.636
856.765
864.595
872.571
881.459
891.69
902.614
912.87
921.727
928.957
934.495
938.475
941.194
942.974
944.101
944.793
945.209
945.454
945.595
945.677
945.719
945.748
945.752
945.775
945.754
945.793
945.743
945.812
945.724
945.831
945.709
945.841
945.708
945.835
945.721
945.819
945.734
945.814
945.73
945.827
945.711
945.846
945.697
945.858
945.685
945.877
945.659
945.918
945.611
945.997
945.524
946.162
945.368
946.509
945.121
947.227
944.935
948.642
945.647
951.528
1854.88
1887.85
1838.76
1906.94
1846.98
1929.22
1912.49
1969.08
2187.11
2175.17
3170.8
4188.7
3809.15
2659.38
2076.82
1930.29
1888.59
1871.35
1856.01
1805.32
1709.69
1589.08
1473.21
1376.8
1304.69
1254.97
1221.22
1196.7
1178.01
1163.73
1153.4
1146.45
1142.09
1139.27
1137.02
1135.17
1134.8
1137.09
1142.26
1151.91
1166.01
1181.56
1195.89
1207.98
1218.25
1227.44
1235.69
1242.84
1248.99
1254.1
1258.05
1260.87
1262.79
1264.04
1264.83
1265.31
1265.6
1265.77
1265.87
1265.92
1265.96
1265.97
1265.98
1265.98
1265.99
1265.99
1266
1265.99
1265.99
1265.99
1265.99
1266
1265.98
1266
1265.99
1265.99
1266
1265.98
1266.02
1265.96
1266.03
1265.96
1266.03
1265.95
1266.04
1265.94
1266.04
1265.96
1266.03
1266.01
1265.96
1266.18
1265.8
1266.57
1265.49
1267.48