/*--------------------------------*- C++ -*----------------------------------*\
| =========                 |                                                 |
| \\      /  F ield         | OpenFOAM: The Open Source CFD Toolbox           |
|  \\    /   O peration     | Version:  v2012                                 |
|   \\  /    A nd           | Website:  www.openfoam.com                      |
|    \\/     M anipulation  |                                                 |
\*---------------------------------------------------------------------------*/
FoamFile
{
    version     2.0;
    format      ascii;
    class       volScalarField;
    location    "0.051";
    object      p;
}
// * * * * * * * * * * * * * * * * * * * * * * * * * * * * * * * * * * * * * //

dimensions      [0 2 -2 0 0 0 0];


internalField   nonuniform List<scalar> 
1900
(
-299.734
-300.834
-301.734
-302.396
-303.072
-303.839
-304.645
-305.475
-306.089
-306.693
-300.188
-300.987
-301.816
-302.492
-303.172
-303.934
-304.745
-305.584
-306.345
-307.165
-300.475
-301.039
-301.807
-302.521
-303.218
-303.98
-304.807
-305.691
-306.584
-307.83
-300.658
-301.102
-301.837
-302.58
-303.289
-304.053
-304.898
-305.823
-306.836
-308.21
-300.756
-301.15
-301.865
-302.617
-303.333
-304.099
-304.961
-305.921
-307.002
-308.391
-300.773
-301.172
-301.892
-302.647
-303.366
-304.14
-305.017
-306.003
-307.118
-308.486
-300.708
-301.168
-301.918
-302.669
-303.389
-304.173
-305.065
-306.065
-307.192
-308.517
-300.556
-301.147
-301.941
-302.669
-303.383
-304.178
-305.082
-306.093
-307.223
-308.505
-300.3
-301.141
-302.002
-302.691
-303.39
-304.191
-305.098
-306.109
-307.231
-308.474
-299.865
-301.04
-301.992
-302.673
-303.373
-304.187
-305.105
-306.122
-307.248
-308.471
-306.034
-318.394
-337.677
-339.323
-320.195
-286.17
-243.135
-198.358
-157.431
-122.632
-94.2843
-71.876
-54.4151
-40.8585
-30.2961
-21.9755
-15.3424
-9.98997
-5.62207
-2.01608
0.992481
3.52595
5.68123
7.52396
9.1065
10.4691
11.6433
12.6691
13.5615
14.3356
15.0061
15.5842
16.0829
16.5092
16.8678
17.1696
17.4218
17.6286
17.7949
17.9245
18.0213
18.088
18.1253
18.1359
18.1214
18.084
18.0255
17.9467
17.8485
17.7315
17.5959
17.4419
17.2707
17.0834
16.8805
16.6633
16.4331
16.1909
15.9384
15.6773
15.4117
15.1442
14.8738
14.6021
14.3297
14.0576
13.7851
13.5094
13.2279
12.9321
12.6145
12.2786
11.9408
11.6028
11.2686
10.9422
10.62
10.3011
9.9813
9.66777
9.35392
9.03638
8.71863
8.39922
8.06977
7.72373
7.35654
6.96667
6.54882
6.09848
5.60826
5.08785
4.53673
3.9669
3.37251
2.77239
2.15187
1.54834
0.892533
0.373428
-309.451
-321.72
-333.527
-332.242
-313.195
-280.451
-239.867
-197.552
-158.432
-124.696
-96.7759
-74.3595
-56.6796
-42.8027
-31.8997
-23.2608
-16.352
-10.7738
-6.22612
-2.48135
0.624292
3.22812
5.44273
7.33545
8.95408
10.345
11.5414
12.5822
13.4841
14.265
14.9395
15.5194
16.0155
16.4387
16.8003
17.1065
17.3622
17.5727
17.7423
17.875
17.9749
18.0444
18.0829
18.094
18.0804
18.0439
17.9864
17.9089
17.8122
17.697
17.5633
17.4105
17.2403
17.0537
16.851
16.6336
16.4031
16.1602
15.9072
15.6462
15.3808
15.1146
14.8471
14.5777
14.3076
14.039
13.7703
13.498
13.2182
12.9188
12.5908
12.2424
11.8933
11.5453
11.2099
10.8899
10.5777
10.2681
9.96188
9.65705
9.34803
9.03201
8.71332
8.39056
8.05476
7.70061
7.32639
6.92832
6.5016
6.04418
5.54953
5.02809
4.47805
3.9115
3.32134
2.72678
2.11332
1.51467
0.869892
0.351605
-310.385
-318.035
-326.378
-324.187
-306.218
-275.488
-237.385
-197.242
-159.579
-126.697
-99.1129
-76.6805
-58.7978
-44.6417
-33.4453
-24.5407
-17.4065
-11.6436
-6.94565
-3.07928
0.130499
2.82493
5.11474
7.06766
8.73688
10.1702
11.4034
12.4717
13.3948
14.1915
14.8764
15.4636
15.9633
16.3882
16.7536
17.0628
17.3197
17.531
17.701
17.834
17.9329
17.9999
18.0366
18.0476
18.0349
17.9999
17.9443
17.8689
17.7745
17.6622
17.5314
17.3811
17.2129
17.0274
16.825
16.6069
16.3747
16.1303
15.8762
15.6156
15.3506
15.0859
14.8222
14.5559
14.2893
14.0256
13.7618
13.4945
13.2176
12.9141
12.5727
12.2063
11.8384
11.4764
11.1401
10.8309
10.5334
10.2344
9.94308
9.65118
9.3484
9.0344
8.71525
8.38973
8.04726
7.6825
7.29979
6.89204
6.4544
5.98954
5.4903
4.96877
4.42041
3.85779
3.27404
2.68488
2.08188
1.4861
0.856567
0.323478
-310.607
-316.409
-322.054
-318.673
-301.205
-271.781
-235.317
-196.723
-160.217
-128.088
-100.862
-78.486
-60.4797
-46.1196
-34.6953
-25.5766
-18.2555
-12.3359
-7.51035
-3.54216
-0.250371
2.50683
4.8413
6.82613
8.51933
9.97125
11.2206
12.3018
13.2379
14.0474
14.746
15.3482
15.8641
16.3055
16.6849
17.0057
17.2723
17.491
17.6664
17.8027
17.9023
17.9677
18.0036
18.0148
18.0026
17.9682
17.9132
17.8385
17.7447
17.6319
17.5011
17.3521
17.1857
17.0012
16.7988
16.5799
16.3459
16.1
15.8455
15.5857
15.3229
15.0603
14.7989
14.5363
14.2742
14.0162
13.7586
13.4971
13.2231
12.9131
12.5566
12.1761
11.7772
11.394
11.0559
10.7601
10.4816
10.2023
9.9256
9.64657
9.35143
9.04092
8.72014
8.38934
8.03996
7.66883
7.27447
6.85269
6.40562
5.93346
5.43325
4.91219
4.36768
3.80826
3.23246
2.64734
2.05386
1.46154
0.854229
0.289144
-310.632
-314.92
-318.226
-313.57
-296.391
-268.11
-233.147
-196.036
-160.669
-129.269
-102.396
-80.0891
-61.9831
-47.4489
-35.8279
-26.5214
-19.0351
-12.9755
-8.03446
-3.97227
-0.60486
2.21217
4.59172
6.61242
8.33507
9.81141
11.0812
12.1785
13.1273
13.9466
14.6529
15.2603
15.7804
16.225
16.6053
16.9267
17.1944
17.4146
17.5922
17.7312
17.8343
17.9048
17.9466
17.9629
17.9555
17.926
17.876
17.8062
17.7162
17.6062
17.4777
17.3314
17.1674
16.9842
16.7819
16.5617
16.3255
16.0769
15.8209
15.5614
15.3005
15.0398
14.7804
14.5217
14.2643
14.0114
13.7607
13.5064
13.2364
12.9204
12.5481
12.1434
11.7046
11.2964
10.9577
10.6793
10.4226
10.1654
9.90696
9.64221
9.35616
9.04905
8.72662
8.39146
8.03591
7.65755
7.24817
6.80871
6.3502
5.87096
5.37212
4.85356
4.3172
3.76231
3.1957
2.61533
2.03091
1.44153
0.861631
0.253635
-310.514
-313.624
-315.156
-309.513
-292.623
-265.343
-231.608
-195.66
-161.158
-130.289
-103.672
-81.4078
-63.2148
-48.5364
-36.7538
-27.2931
-19.6713
-13.4977
-8.46347
-4.32599
-0.898076
1.96723
4.38394
6.43368
8.17958
9.67427
10.9588
12.0674
13.0251
13.8518
14.5649
15.1784
15.7046
16.1548
16.5395
16.8652
17.1369
17.3602
17.5401
17.6803
17.784
17.8548
17.8959
17.9108
17.9019
17.8715
17.8214
17.7523
17.6637
17.556
17.4306
17.2877
17.1267
16.9467
16.7468
16.5272
16.2898
16.0393
15.7824
15.5243
15.2675
15.0125
14.7591
14.5058
14.2547
14.009
13.7669
13.5242
13.2638
12.9456
12.5488
12.0964
11.6131
11.177
10.838
10.5831
10.3539
10.1219
9.88616
9.63915
9.36096
9.05515
8.73101
8.39189
8.02776
7.63553
7.21196
6.75934
6.29071
5.80701
5.30976
4.79493
4.26575
3.71712
3.15902
2.58628
2.01328
1.42482
0.87014
0.22269
-310.325
-312.56
-312.782
-306.347
-289.616
-263.07
-230.248
-195.189
-161.376
-130.951
-104.582
-82.3908
-64.1589
-49.3885
-37.4931
-27.9189
-20.194
-13.9313
-8.82348
-4.6259
-1.14936
1.75488
4.20195
6.27549
8.04068
9.5508
10.8483
11.9672
12.9333
13.7671
14.4868
15.1063
15.6379
16.0928
16.4811
16.8097
17.0839
17.3093
17.4904
17.6317
17.7363
17.8079
17.8499
17.8655
17.8574
17.8285
17.7807
17.714
17.6279
17.5226
17.399
17.2573
17.097
16.9172
16.7161
16.4934
16.2511
15.9952
15.7342
15.4752
15.2208
14.9706
14.7229
14.4759
14.2318
13.9949
13.7648
13.5363
13.2902
12.9739
12.5517
12.0511
11.5214
11.0574
10.7173
10.4822
10.2796
10.0732
9.85893
9.62811
9.3553
9.0495
8.72185
8.37663
8.00133
7.59608
7.16053
6.69535
6.22027
5.73747
5.24436
4.73603
4.21339
3.67198
3.12229
2.55746
1.99364
1.40614
0.869948
0.201049
-310.129
-311.737
-311.029
-303.987
-287.332
-261.313
-229.166
-194.778
-161.496
-131.428
-105.275
-83.1601
-64.911
-50.078
-38.1
-28.4395
-20.6333
-14.2994
-9.13051
-4.88195
-1.3632
1.5743
4.04697
6.14071
7.92254
9.44616
10.7548
11.8826
12.8558
13.6957
14.4206
15.0446
15.5801
16.0383
16.4289
16.7595
17.0355
17.2622
17.4443
17.5862
17.6913
17.7631
17.8054
17.8209
17.8127
17.7841
17.737
17.6715
17.5867
17.4828
17.3604
17.2196
17.0604
16.8815
16.6801
16.4551
16.2094
15.9496
15.6862
15.4277
15.1754
14.9285
14.6846
14.4416
14.2018
13.9706
13.7499
13.5348
13.3021
12.9843
12.5409
11.9982
11.4236
10.9412
10.6113
10.3982
10.2145
10.0278
9.82926
9.60833
9.33586
9.02518
8.69046
8.3397
7.95621
7.54271
7.09915
6.6281
6.15108
5.67031
5.18196
4.67966
4.16276
3.62806
3.08519
2.52604
1.96829
1.38211
0.856173
0.185962
-309.971
-311.151
-309.832
-302.372
-285.743
-260.062
-228.355
-194.41
-161.476
-131.643
-105.644
-83.5888
-65.3359
-50.4687
-38.4439
-28.735
-20.8839
-14.5123
-9.31172
-5.03722
-1.49452
1.46355
3.94897
6.05159
7.84071
9.37024
10.6839
11.8157
12.7921
13.635
14.3626
14.9892
15.5272
15.9876
16.38
16.712
16.9894
17.2172
17.4002
17.5429
17.6484
17.7206
17.7633
17.7791
17.7715
17.7438
17.6984
17.6352
17.5529
17.4511
17.3304
17.191
17.0332
16.8553
16.6541
16.4277
16.1782
15.9134
15.6469
15.3879
15.1373
14.8942
14.6551
14.4158
14.1795
13.9528
13.7395
13.5362
13.3159
13.0065
12.5577
11.9763
11.3456
10.8348
10.5086
10.3217
10.1526
9.97797
9.79926
9.58188
9.31041
8.99755
8.65861
8.30617
7.9182
7.49844
7.0501
6.57788
6.10173
5.62386
5.1408
4.64428
4.13243
3.60277
3.06352
2.50697
1.95261
1.36718
0.844207
0.185652
-309.914
-310.891
-309.282
-301.63
-285.037
-259.562
-228.115
-194.424
-161.684
-131.978
-106.051
-84.0133
-65.7424
-50.841
-38.7766
-29.0285
-21.1419
-14.7401
-9.51487
-5.21956
-1.65621
1.3252
3.82482
5.93706
7.73378
9.26917
10.5877
11.7235
12.703
13.5485
14.2785
14.9072
15.4473
15.9097
16.3036
16.6369
16.9157
17.1447
17.3287
17.4722
17.5786
17.6518
17.6952
17.712
17.7051
17.6781
17.6335
17.5716
17.4908
17.3906
17.2707
17.1316
16.9742
16.7967
16.5956
16.3694
16.1199
15.8537
15.5857
15.3266
15.0764
14.8342
14.5975
14.361
14.1264
13.9012
13.6884
13.4849
13.2631
12.9526
12.504
11.9168
11.268
10.743
10.4167
10.2016
10.0776
9.90525
9.73176
9.52151
9.25189
8.92377
8.58917
8.23168
7.83861
7.41679
6.97112
6.50274
6.03056
5.55766
5.07957
4.58734
4.0787
3.55171
3.01399
2.45791
1.90524
1.31945
0.797472
0.137759
-314.188
-315.457
-316.634
-316.878
-316.361
-315.091
-313.785
-313.877
-333.323
-334.839
-335.785
-336.12
-335.799
-335.084
-334.221
-333.872
-348.436
-351.272
-352.788
-353.354
-353.244
-352.934
-352.626
-352.287
-347.013
-350.378
-352.231
-352.977
-352.805
-352.29
-351.811
-351.173
-325.868
-328.768
-330.504
-331.062
-330.722
-329.985
-329.201
-328.273
-290.112
-292.168
-293.459
-293.913
-293.587
-292.639
-291.226
-289.625
-245.081
-246.153
-247.004
-247.405
-247.147
-246.118
-244.333
-242.274
-198.541
-198.572
-198.826
-199.04
-198.762
-197.681
-195.729
-193.485
-156.402
-155.706
-155.444
-155.349
-154.946
-153.83
-151.874
-149.668
-120.891
-119.769
-119.223
-118.951
-118.461
-117.358
-115.51
-113.467
-92.3232
-91.0969
-90.4503
-90.0566
-89.4959
-88.4521
-86.7783
-84.9525
-69.9972
-68.8435
-68.2058
-67.741
-67.1401
-66.1805
-64.7066
-63.123
-52.7575
-51.7471
-51.1582
-50.6922
-50.1113
-49.247
-47.9686
-46.6069
-39.4822
-38.6459
-38.1426
-37.7126
-37.1779
-36.4178
-35.329
-34.1751
-29.1973
-28.5175
-28.0743
-27.6766
-27.2021
-26.5473
-25.6265
-24.6504
-21.1314
-20.5918
-20.1884
-19.8086
-19.3919
-18.8329
-18.0545
-17.2126
-14.7074
-14.2821
-13.9301
-13.5866
-13.2216
-12.7418
-12.0808
-11.3237
-9.51529
-9.18107
-8.8859
-8.58977
-8.27159
-7.85846
-7.29586
-6.61733
-5.26541
-5.00151
-4.75578
-4.50273
-4.22589
-3.86762
-3.38494
-2.79637
-1.74302
-1.53248
-1.32646
-1.11046
-0.869534
-0.556618
-0.137316
0.373295
1.21396
1.38742
1.56455
1.74714
1.95551
2.2295
2.59658
3.04296
3.71445
3.86081
4.01569
4.17224
4.35413
4.59584
4.91983
5.31361
5.84079
5.96351
6.09735
6.23512
6.3981
6.61491
6.90416
7.25505
7.66011
7.7656
7.88224
8.00518
8.15273
8.34879
8.60891
8.92401
9.2255
9.31854
9.42276
9.53404
9.66864
9.847
10.0823
10.367
10.5802
10.6676
10.7589
10.8589
10.9821
11.1454
11.3595
11.6185
11.7515
11.8382
11.9209
12.0113
12.124
12.2736
12.4692
12.706
12.7667
12.8463
12.9225
13.0069
13.1122
13.2511
13.4311
13.649
13.6488
13.7214
13.7917
13.8707
13.9694
14.0988
14.2652
14.4665
14.4134
14.4799
14.5455
14.6199
14.7128
14.8338
14.9881
15.1749
15.0761
15.1371
15.1982
15.2683
15.356
15.4695
15.6132
15.7872
15.6475
15.7036
15.7611
15.8277
15.9109
16.0179
16.152
16.3146
16.1418
16.1927
16.2464
16.3095
16.3885
16.4894
16.6149
16.7674
16.5649
16.6116
16.6621
16.7219
16.797
16.8925
17.0103
17.1538
16.9206
16.9652
17.0136
17.0712
17.1431
17.2339
17.345
17.4804
17.22
17.2628
17.3096
17.365
17.4341
17.5207
17.6257
17.754
17.47
17.5111
17.5563
17.6098
17.6763
17.759
17.8585
17.9803
17.6748
17.7147
17.7585
17.8103
17.8744
17.9538
18.0482
18.1642
17.8395
17.8782
17.9208
17.971
18.033
18.1092
18.1991
18.3098
17.9675
18.0052
18.0468
18.0957
18.1558
18.2291
18.3148
18.4206
18.0628
18.0995
18.14
18.1876
18.2458
18.3164
18.3983
18.4997
18.1279
18.1635
18.203
18.2493
18.3058
18.3739
18.4522
18.5495
18.1643
18.199
18.2375
18.2826
18.3376
18.4034
18.4783
18.5718
18.1738
18.2077
18.2453
18.2895
18.343
18.4066
18.4785
18.5685
18.1584
18.1916
18.2284
18.2716
18.3237
18.3853
18.4543
18.541
18.12
18.1525
18.1885
18.2307
18.2813
18.341
18.4072
18.4909
18.0605
18.092
18.1272
18.1682
18.2175
18.2753
18.3389
18.4197
17.9806
18.0113
18.0455
18.0855
18.1334
18.1893
18.2505
18.3286
17.8813
17.911
17.9442
17.9831
18.0297
18.0838
18.1426
18.2183
17.7629
17.7916
17.8238
17.8617
17.907
17.9595
18.0162
18.0896
17.6261
17.6538
17.6852
17.722
17.7661
17.817
17.8717
17.943
17.4711
17.4982
17.5288
17.5648
17.6078
17.6573
17.7101
17.7796
17.2991
17.3256
17.3556
17.3909
17.433
17.4813
17.5325
17.6002
17.1113
17.1373
17.1669
17.2018
17.2431
17.2903
17.34
17.4062
16.9083
16.9342
16.9636
16.9982
17.039
17.0853
17.1336
17.1984
16.6913
16.7173
16.7467
16.7811
16.8215
16.8671
16.9142
16.9776
16.4613
16.4876
16.5172
16.5515
16.5916
16.6365
16.6824
16.7445
16.2196
16.2462
16.276
16.3104
16.3502
16.3944
16.4392
16.5001
15.9676
15.9947
16.0247
16.0591
16.0986
16.1421
16.1858
16.2456
15.7071
15.7344
15.7646
15.7989
15.838
15.8809
15.9236
15.9825
15.441
15.4679
15.4979
15.5318
15.5703
15.6125
15.6543
15.7124
15.1717
15.1976
15.2267
15.2598
15.2976
15.339
15.3801
15.4377
14.9
14.9249
14.9531
14.9854
15.0225
15.0633
15.1039
15.1613
14.6271
14.6511
14.6784
14.7099
14.7464
14.7866
14.827
14.8845
14.353
14.3759
14.4022
14.433
14.4687
14.5084
14.5487
14.6066
14.0787
14.1
14.1251
14.1548
14.1898
14.2291
14.2694
14.3281
13.8036
13.8232
13.847
13.8758
13.9102
13.9493
13.9902
14.05
13.5259
13.5442
13.5671
13.5953
13.6296
13.6691
13.7111
13.7724
13.2435
13.2614
13.2841
13.3126
13.3475
13.3881
13.4319
13.4948
12.9502
12.9698
12.9941
13.0241
13.0608
13.1033
13.149
13.2127
12.639
12.6631
12.6912
12.7246
12.7645
12.8097
12.857
12.9212
12.3112
12.3409
12.3738
12.4114
12.4549
12.5032
12.5521
12.6161
11.9807
12.0155
12.0524
12.0931
12.1388
12.1881
12.2363
12.2982
11.6493
11.6881
11.7277
11.7699
11.8159
11.8641
11.9097
11.9687
11.3163
11.3555
11.3949
11.4363
11.4809
11.527
11.5697
11.6257
10.9859
11.0218
11.058
11.0965
11.138
11.1808
11.2202
11.2735
10.6561
10.6863
10.7181
10.7527
10.7905
10.8297
10.8657
10.9168
10.3266
10.3501
10.3768
10.4071
10.4412
10.4773
10.5109
10.5611
10.0001
10.0191
10.0418
10.0688
10.1002
10.1343
10.1669
10.217
9.68201
9.69782
9.71795
9.74297
9.77291
9.80622
9.83866
9.88926
9.36533
9.37948
9.39869
9.42342
9.45362
9.48753
9.52098
9.57287
9.04745
9.06192
9.08199
9.10807
9.14007
9.17607
9.21165
9.26502
8.73146
8.74786
8.7703
8.79917
8.83428
8.87349
8.91192
8.96678
8.41547
8.43505
8.46101
8.49381
8.53317
8.57644
8.61794
8.67392
8.09116
8.11522
8.14594
8.18379
8.22837
8.27646
8.32102
8.37736
7.7512
7.78016
7.81562
7.85809
7.90701
7.95892
8.00617
8.06381
7.38949
7.42255
7.46164
7.50742
7.55922
7.61324
7.66269
7.72221
7.0054
7.04245
7.0847
7.13276
7.1858
7.23965
7.28903
7.34912
6.59396
6.63557
6.6814
6.73194
6.78617
6.83967
6.88725
6.94558
6.14869
6.19348
6.2412
6.29222
6.34568
6.39756
6.44163
6.50057
5.66142
5.7081
5.75692
5.80808
5.86058
5.91097
5.95215
6.00671
5.14192
5.18906
5.23773
5.2879
5.33852
5.38669
5.42579
5.47539
4.58999
4.63631
4.68377
4.73214
4.78033
4.82577
4.86168
4.90917
4.01757
4.06167
4.10668
4.15219
4.19719
4.23963
4.2716
4.31668
3.42047
3.46234
3.50495
3.54776
3.58987
3.62996
3.65839
3.7022
2.81582
2.85413
2.8933
2.93262
2.97126
3.00885
3.03347
3.07596
2.19023
2.22476
2.26058
2.29681
2.33255
2.36813
2.39111
2.43355
1.58101
1.60996
1.63982
1.67016
1.70026
1.73058
1.75103
1.78916
0.917702
0.942031
0.968516
0.996295
1.02481
1.05486
1.06638
1.11252
0.388684
0.398945
0.407298
0.414641
0.422014
0.433967
0.452301
0.413188
)
;

boundaryField
{
    frontAndBack
    {
        type            empty;
    }
    inlet
    {
        type            zeroGradient;
    }
    outlet
    {
        type            fixedValue;
        value           uniform 0;
    }
    walls
    {
        type            zeroGradient;
    }
}


// ************************************************************************* //
