/*--------------------------------*- C++ -*----------------------------------*\
| =========                 |                                                 |
| \\      /  F ield         | OpenFOAM: The Open Source CFD Toolbox           |
|  \\    /   O peration     | Version:  v2012                                 |
|   \\  /    A nd           | Website:  www.openfoam.com                      |
|    \\/     M anipulation  |                                                 |
\*---------------------------------------------------------------------------*/
FoamFile
{
    version     2.0;
    format      ascii;
    class       surfaceScalarField;
    location    "0.352";
    object      phi.air;
}
// * * * * * * * * * * * * * * * * * * * * * * * * * * * * * * * * * * * * * //

dimensions      [0 3 -1 0 0 0 0];
oriented        oriented;


internalField   nonuniform List<scalar> 
3672
(
0.0064006
7.14517e-06
0.00639136
8.99623e-06
0.00638142
9.68684e-06
0.00637056
1.06126e-05
0.0063586
1.17119e-05
0.00634559
1.27593e-05
0.00633129
1.40467e-05
0.00631578
1.52582e-05
0.00629637
1.91628e-05
2.80585e-05
0.00626806
0.00641089
4.26003e-06
0.00641309
6.79313e-06
0.00641555
7.2261e-06
0.00641823
7.93236e-06
0.00642104
8.90607e-06
0.00642399
9.8076e-06
0.00642694
1.10891e-05
0.00642967
1.25285e-05
0.00643129
1.75455e-05
2.48537e-05
0.0064345
0.00640988
2.38202e-06
0.00641223
4.44505e-06
0.00641473
4.71802e-06
0.00641752
5.14462e-06
0.00642056
5.87155e-06
0.00642375
6.60995e-06
0.00642716
7.68595e-06
0.00643042
9.26281e-06
0.0064346
1.33659e-05
1.84249e-05
0.00644103
0.00640936
1.0263e-06
0.00641175
2.05189e-06
0.00641429
2.17918e-06
0.00641704
2.39546e-06
0.00642008
2.82902e-06
0.00642335
3.34014e-06
0.00642686
4.1794e-06
0.00643058
5.54008e-06
0.00643542
8.52208e-06
1.19254e-05
0.00644192
0.00640916
-1.33129e-07
0.00641153
-3.17987e-07
0.00641408
-3.68048e-07
0.0064168
-3.30658e-07
0.00641985
-2.20072e-07
0.00642318
1.20087e-08
0.0064268
5.59745e-07
0.0064308
1.54157e-06
0.00643581
3.50706e-06
5.35648e-06
0.00644238
0.00640918
-1.30997e-06
0.00641156
-2.70308e-06
0.00641412
-2.92489e-06
0.00641686
-3.07022e-06
0.00641993
-3.29409e-06
0.00642331
-3.36794e-06
0.00642702
-3.15054e-06
0.00643117
-2.6108e-06
0.00643623
-1.55006e-06
-9.18203e-07
0.00644251
0.00640941
-2.72028e-06
0.00641185
-5.1427e-06
0.00641442
-5.49271e-06
0.00641721
-5.85951e-06
0.00642032
-6.40729e-06
0.00642374
-6.78915e-06
0.00642751
-6.92237e-06
0.00643175
-6.8458e-06
0.00643674
-6.54489e-06
-6.7483e-06
0.00644257
0.00640999
-4.70719e-06
0.0064124
-7.5559e-06
0.00641495
-8.04444e-06
0.00641781
-8.71402e-06
0.00642095
-9.55364e-06
0.0064244
-1.02353e-05
0.00642821
-1.0735e-05
0.00643249
-1.11202e-05
0.00643739
-1.14533e-05
-1.21458e-05
0.00644279
0.00641105
-7.76188e-06
0.00641334
-9.83864e-06
0.00641585
-1.05521e-05
0.00641858
-1.14513e-05
0.00642152
-1.24901e-05
0.00642469
-1.34058e-05
0.00642817
-1.42168e-05
0.00643204
-1.49858e-05
0.00643631
-1.57293e-05
-1.68101e-05
0.00644098
0.00640049
0.0063909
0.0063806
0.0063694
0.00635716
0.006344
0.00633004
0.0063153
0.00629982
0.00628326
0.00618912
0.000122524
-4.35878e-05
0.00598884
8.2613e-05
0.000117663
0.00572442
-0.000168605
0.000433026
0.00550756
-0.000541276
0.000758141
0.00535911
-0.000908015
0.00105646
0.00525263
-0.00120371
0.00131019
0.0051718
-0.0013793
0.00146013
0.00510269
-0.00142734
0.00149645
0.00503454
-0.0013747
0.00144285
0.00496657
-0.001255
0.00132297
0.00489906
-0.00110311
0.00117063
0.00483231
-0.00094551
0.00101226
0.00476689
-0.000798453
0.000863873
0.004703
-0.000670511
0.000734403
0.00464111
-0.000564745
0.000626632
0.00458133
-0.000478561
0.000538335
0.00452405
-0.000408956
0.00046624
0.00447016
-0.0003542
0.000408092
0.00442028
-0.000311993
0.000361872
0.00437449
-0.000278667
0.000324458
0.00433253
-0.000250957
0.000292918
0.0042945
-0.000227899
0.00026593
0.00426049
-0.000209585
0.000243591
0.00423033
-0.000194911
0.000225069
0.00420356
-0.000182197
0.000208969
0.00418008
-0.000170676
0.000194155
0.00416
-0.000160681
0.000180759
0.00414288
-0.000152203
0.000169325
0.00412821
-0.000144853
0.000159527
0.0041156
-0.000138092
0.000150701
0.0041047
-0.000131737
0.000142635
0.00409526
-0.000125795
0.000135231
0.00408702
-0.000120302
0.000128542
0.00407972
-0.000115197
0.000122504
0.00407331
-0.000110571
0.000116977
0.00406777
-0.000106287
0.000111833
0.004063
-0.000102206
0.000106976
0.00405894
-9.83475e-05
0.000102401
0.00405556
-9.48154e-05
9.82013e-05
0.00405279
-9.1606e-05
9.43773e-05
0.0040506
-8.86895e-05
9.08789e-05
0.00404893
-8.59812e-05
8.7647e-05
0.00404769
-8.33508e-05
8.45964e-05
0.00404678
-8.07459e-05
8.16543e-05
0.00404618
-7.82593e-05
7.88603e-05
0.00404586
-7.59792e-05
7.62916e-05
0.00404582
-7.3902e-05
7.3946e-05
0.00404603
-7.19089e-05
7.17025e-05
0.00404646
-6.99464e-05
6.95084e-05
0.00404712
-6.80388e-05
6.7388e-05
0.00404797
-6.62563e-05
6.54059e-05
0.00404901
-6.4619e-05
6.35793e-05
0.00405023
-6.31015e-05
6.18785e-05
0.00405163
-6.16504e-05
6.02537e-05
0.00405318
-6.02287e-05
5.8676e-05
0.00405487
-5.88354e-05
5.71454e-05
0.00405668
-5.74987e-05
5.56891e-05
0.00405859
-5.62373e-05
5.43213e-05
0.00406061
-5.50625e-05
5.30466e-05
0.00406272
-5.39482e-05
5.18379e-05
0.00406491
-5.28623e-05
5.06696e-05
0.00406718
-5.17842e-05
4.95214e-05
0.0040695
-5.07505e-05
4.84231e-05
0.00407189
-4.97713e-05
4.73849e-05
0.00407433
-4.88595e-05
4.64175e-05
0.00407682
-4.79781e-05
4.54887e-05
0.00407935
-4.71288e-05
4.45967e-05
0.00408192
-4.62966e-05
4.37278e-05
0.00408452
-4.54901e-05
4.28915e-05
0.00408714
-4.47046e-05
4.20827e-05
0.00408978
-4.3954e-05
4.13132e-05
0.00409244
-4.32307e-05
4.05743e-05
0.00409511
-4.25359e-05
3.98676e-05
0.00409778
-4.18527e-05
3.91779e-05
0.00410046
-4.11843e-05
3.8508e-05
0.00410313
-4.05217e-05
3.78511e-05
0.00410579
-3.98798e-05
3.72173e-05
0.00410844
-3.92483e-05
3.65983e-05
0.00411108
-3.86376e-05
3.60021e-05
0.00411369
-3.80288e-05
3.54125e-05
0.00411629
-3.7433e-05
3.48388e-05
0.00411886
-3.68354e-05
3.42669e-05
0.0041214
-3.62538e-05
3.3713e-05
0.00412391
-3.56716e-05
3.31603e-05
0.00412639
-3.51052e-05
3.26245e-05
0.00412884
-3.45363e-05
3.20881e-05
0.00413125
-3.39828e-05
3.15678e-05
0.00413363
-3.34283e-05
3.10482e-05
0.00413598
-3.28933e-05
3.05481e-05
0.00413829
-3.23625e-05
3.0053e-05
0.00414056
-3.18592e-05
2.95848e-05
0.0041428
-3.1364e-05
2.91247e-05
0.00414501
-3.09198e-05
2.87135e-05
0.00414718
-3.04843e-05
2.83108e-05
0.00414933
-3.01954e-05
2.80474e-05
0.00415145
-2.98773e-05
2.77542e-05
0.00415358
-3.00395e-05
2.79135e-05
0.00415568
-2.99108e-05
2.78111e-05
0.00415787
-3.12141e-05
2.90192e-05
-3.11762e-05
2.92143e-05
0.00647836
7.8656e-05
0.00651174
4.92388e-05
0.00650174
-0.000158606
0.0064363
-0.000475832
0.00632498
-0.000796697
0.00617908
-0.00105782
0.00601662
-0.00121684
0.00585464
-0.00126536
0.00570342
-0.00122347
0.00556871
-0.00112029
0.00545278
-0.000987182
0.00535436
-0.000847088
0.00527075
-0.000714843
0.00519899
-0.000598752
0.00513592
-0.00050168
0.00507836
-0.000420999
0.00502375
-0.000354342
0.00497085
-0.0003013
0.00491919
-0.000260335
0.00486823
-0.000227702
0.00481794
-0.00020067
0.00476931
-0.000179272
0.0047231
-0.000163377
0.00467948
-0.00015129
0.0046384
-0.000141117
0.00459997
-0.000132241
0.00456451
-0.000125228
0.00453222
-0.000119909
0.0045029
-0.000115534
0.00447626
-0.000111451
0.00445197
-0.000107447
0.00442986
-0.000103689
0.00440983
-0.000100271
0.00439177
-9.7132e-05
0.00437545
-9.42516e-05
0.00436068
-9.15187e-05
0.00434732
-8.88447e-05
0.00433526
-8.62911e-05
0.0043244
-8.39536e-05
0.00431462
-8.18316e-05
0.00430579
-7.98498e-05
0.00429771
-7.79057e-05
0.00429032
-7.59599e-05
0.00428357
-7.40015e-05
0.00427744
-7.21276e-05
0.0042719
-7.04322e-05
0.0042669
-6.89046e-05
0.00426241
-6.74194e-05
0.00425839
-6.59225e-05
0.0042548
-6.44561e-05
0.00425163
-6.30802e-05
0.00424882
-6.18161e-05
0.00424638
-6.06545e-05
0.00424426
-5.9534e-05
0.00424245
-5.8419e-05
0.00424091
-5.72957e-05
0.00423959
-5.61819e-05
0.00423848
-5.51232e-05
0.00423757
-5.41479e-05
0.00423684
-5.32245e-05
0.00423629
-5.23142e-05
0.00423591
-5.1401e-05
0.00423568
-5.05233e-05
0.00423559
-4.96783e-05
0.00423562
-4.8885e-05
0.00423575
-4.81133e-05
0.00423599
-4.73691e-05
0.00423633
-4.66309e-05
0.00423674
-4.59075e-05
0.00423723
-4.51916e-05
0.00423778
-4.45033e-05
0.00423838
-4.38337e-05
0.00423903
-4.31864e-05
0.00423972
-4.25414e-05
0.00424044
-4.19032e-05
0.00424118
-4.12631e-05
0.00424194
-4.06383e-05
0.00424271
-4.00192e-05
0.00424349
-3.94168e-05
0.00424427
-3.88117e-05
0.00424506
-3.82161e-05
0.00424583
-3.76143e-05
0.00424661
-3.70267e-05
0.00424737
-3.64364e-05
0.00424813
-3.58611e-05
0.00424887
-3.52814e-05
0.00424961
-3.47164e-05
0.00425033
-3.41491e-05
0.00425104
-3.36013e-05
0.00425173
-3.30567e-05
0.00425241
-3.254e-05
0.00425308
-3.2031e-05
0.00425373
-3.15738e-05
0.00425437
-3.11255e-05
0.004255
-3.08249e-05
0.00425563
-3.05005e-05
0.00425624
-3.0651e-05
0.00425686
-3.05289e-05
0.00425752
-3.18829e-05
-3.17339e-05
0.00647001
4.96756e-05
0.00650349
1.57557e-05
0.00650081
-0.000155926
0.00644848
-0.000423502
0.00634924
-0.000697458
0.00621162
-0.00092019
0.00605285
-0.00105807
0.00589067
-0.00110318
0.00573782
-0.00107062
0.00560297
-0.00098545
0.00548903
-0.00087324
0.00539503
-0.00075309
0.00531871
-0.000638519
0.00525766
-0.000537701
0.00520864
-0.000452661
0.00516839
-0.000380754
0.00513476
-0.000320708
0.00510655
-0.000273087
0.0050823
-0.000236092
0.00506009
-0.000205489
0.00503854
-0.000179122
0.00501704
-0.000157771
0.00499522
-0.000141556
0.00497271
-0.000128779
0.00494899
-0.000117402
0.00492375
-0.000106994
0.00489702
-9.85023e-05
0.00486925
-9.21332e-05
0.00484087
-8.71635e-05
0.00481227
-8.28421e-05
0.00478373
-7.89135e-05
0.00475563
-7.55834e-05
0.00472852
-7.31647e-05
0.00470291
-7.15221e-05
0.00467887
-7.02072e-05
0.00465634
-6.89879e-05
0.00463531
-6.78152e-05
0.00461578
-6.67609e-05
0.0045977
-6.58805e-05
0.00458099
-6.51227e-05
0.0045655
-6.4354e-05
0.00455107
-6.34796e-05
0.00453763
-6.25195e-05
0.00452514
-6.15135e-05
0.00451357
-6.05576e-05
0.00450287
-5.97331e-05
0.00449297
-5.89956e-05
0.00448378
-5.82348e-05
0.00447526
-5.74036e-05
0.00446734
-5.65321e-05
0.00445996
-5.57013e-05
0.0044531
-5.49562e-05
0.00444673
-5.42845e-05
0.00444082
-5.36269e-05
0.00443536
-5.29543e-05
0.0044303
-5.22411e-05
0.00442563
-5.15069e-05
0.00442131
-5.08046e-05
0.00441733
-5.01658e-05
0.00441366
-4.9555e-05
0.00441028
-4.89363e-05
0.00440717
-4.8289e-05
0.00440427
-4.76213e-05
0.00440154
-4.69564e-05
0.00439899
-4.63301e-05
0.0043966
-4.57203e-05
0.00439436
-4.51279e-05
0.00439225
-4.45222e-05
0.00439025
-4.39157e-05
0.00438836
-4.32992e-05
0.00438656
-4.27008e-05
0.00438484
-4.21091e-05
0.00438318
-4.15306e-05
0.00438158
-4.09432e-05
0.00438003
-4.03545e-05
0.00437853
-3.97559e-05
0.00437705
-3.91679e-05
0.00437562
-3.85799e-05
0.0043742
-3.80051e-05
0.00437282
-3.74232e-05
0.00437145
-3.68492e-05
0.0043701
-3.62665e-05
0.00436877
-3.5697e-05
0.00436746
-3.51235e-05
0.00436616
-3.45646e-05
0.00436488
-3.40005e-05
0.00436362
-3.3451e-05
0.00436236
-3.28986e-05
0.00436113
-3.23658e-05
0.00435991
-3.18362e-05
0.0043587
-3.13339e-05
0.00435751
-3.08402e-05
0.00435633
-3.03962e-05
0.00435517
-2.99635e-05
0.00435402
-2.96736e-05
0.00435289
-2.93652e-05
0.00435176
-2.95208e-05
0.00435065
-2.9424e-05
0.0043495
-3.07294e-05
-3.06855e-05
0.0064645
2.71008e-05
0.00648861
-8.35576e-06
0.00648172
-0.000149034
0.00642849
-0.00037027
0.00633104
-0.000600008
0.00619799
-0.000787139
0.00604461
-0.000904693
0.0058873
-0.000945872
0.00573861
-0.000921928
0.00560655
-0.000853398
0.00549378
-0.000760465
0.00539976
-0.000659074
0.00532314
-0.000561897
0.00526173
-0.000476292
0.00521205
-0.000402981
0.00517116
-0.000339862
0.00513792
-0.00028747
0.00511163
-0.000246799
0.00509037
-0.00021483
0.00507197
-0.000187088
0.00505584
-0.000162993
0.00504263
-0.000144555
0.00503217
-0.000131103
0.00502291
-0.000119519
0.00501376
-0.00010825
0.00500505
-9.82783e-05
0.00499711
-9.05661e-05
0.00498954
-8.45644e-05
0.00498173
-7.93531e-05
0.0049732
-7.43065e-05
0.00496359
-6.93054e-05
0.00495285
-6.48468e-05
0.00494108
-6.13892e-05
0.00492831
-5.87545e-05
0.00491452
-5.642e-05
0.00489965
-5.4117e-05
0.00488374
-5.19025e-05
0.00486698
-5.00059e-05
0.0048497
-4.85934e-05
0.00483219
-4.76183e-05
0.00481474
-4.69008e-05
0.00479753
-4.62684e-05
0.00478069
-4.56786e-05
0.0047644
-4.52246e-05
0.00474883
-4.49931e-05
0.00473405
-4.49526e-05
0.00472002
-4.4961e-05
0.00470668
-4.48998e-05
0.00469404
-4.47635e-05
0.00468211
-4.4598e-05
0.00467085
-4.4446e-05
0.00466022
-4.4322e-05
0.00465012
-4.41912e-05
0.00464053
-4.40294e-05
0.0046314
-4.38266e-05
0.00462273
-4.3569e-05
0.00461452
-4.33042e-05
0.00460678
-4.30591e-05
0.00459945
-4.28346e-05
0.00459249
-4.26013e-05
0.00458589
-4.23303e-05
0.00457961
-4.20097e-05
0.00457362
-4.16357e-05
0.0045679
-4.12328e-05
0.00456241
-4.08364e-05
0.00455712
-4.04365e-05
0.00455202
-4.00249e-05
0.00454707
-3.9576e-05
0.00454226
-3.91033e-05
0.00453756
-3.86004e-05
0.00453297
-3.81037e-05
0.00452846
-3.76018e-05
0.00452403
-3.71049e-05
0.00451968
-3.65896e-05
0.00451539
-3.60679e-05
0.00451117
-3.55304e-05
0.004507
-3.50027e-05
0.00450289
-3.44726e-05
0.00449884
-3.39535e-05
0.00449485
-3.34282e-05
0.00449091
-3.29091e-05
0.00448702
-3.23819e-05
0.00448319
-3.18664e-05
0.00447942
-3.13473e-05
0.00447569
-3.08428e-05
0.00447203
-3.03335e-05
0.00446841
-2.9839e-05
0.00446486
-2.93418e-05
0.00446136
-2.8865e-05
0.00445791
-2.83909e-05
0.00445452
-2.79442e-05
0.00445119
-2.75067e-05
0.00444791
-2.71153e-05
0.00444468
-2.67386e-05
0.0044415
-2.6491e-05
0.00443838
-2.624e-05
0.00443525
-2.63967e-05
0.00443222
-2.63884e-05
0.00442904
-2.75547e-05
-2.78751e-05
0.00645963
9.85236e-06
0.00647551
-2.42334e-05
0.00646423
-0.000137754
0.00641073
-0.000316772
0.00631603
-0.000505311
0.00618843
-0.000659533
0.00604148
-0.000757749
0.00588973
-0.000794124
0.00574503
-0.000777221
0.00561516
-0.00072353
0.00550296
-0.000648261
0.00540876
-0.00056488
0.00533188
-0.000485012
0.00526975
-0.000414168
0.00521865
-0.000351876
0.00517659
-0.0002978
0.00514322
-0.000254103
0.00511691
-0.000220489
0.00509458
-0.0001925
0.00507481
-0.00016732
0.00505857
-0.000146751
0.00504618
-0.000132163
0.00503587
-0.000120795
0.00502599
-0.000109639
0.00501683
-9.90989e-05
0.00500945
-9.089e-05
0.00500387
-8.49889e-05
0.00499922
-7.99103e-05
0.00499457
-7.47111e-05
0.00498985
-6.95856e-05
0.00498573
-6.51833e-05
0.00498259
-6.17048e-05
0.00498003
-5.88272e-05
0.00497748
-5.62122e-05
0.00497462
-5.35535e-05
0.00497141
-5.09105e-05
0.00496805
-4.85412e-05
0.00496458
-4.65328e-05
0.00496085
-4.48664e-05
0.00495666
-4.34272e-05
0.00495176
-4.20066e-05
0.00494602
-4.05239e-05
0.00493942
-3.90781e-05
0.00493204
-3.78493e-05
0.00492399
-3.69365e-05
0.0049153
-3.62625e-05
0.00490598
-3.56394e-05
0.00489603
-3.49511e-05
0.00488552
-3.42605e-05
0.00487463
-3.37058e-05
0.00486353
-3.33465e-05
0.00485236
-3.31501e-05
0.0048412
-3.30281e-05
0.00483007
-3.29034e-05
0.00481899
-3.27432e-05
0.00480802
-3.26055e-05
0.00479725
-3.25255e-05
0.00478668
-3.24924e-05
0.00477631
-3.24703e-05
0.00476615
-3.24354e-05
0.00475618
-3.23654e-05
0.00474643
-3.22562e-05
0.00473691
-3.21174e-05
0.00472763
-3.19484e-05
0.00471855
-3.17551e-05
0.00470965
-3.15409e-05
0.00470092
-3.12955e-05
0.00469236
-3.10099e-05
0.00468394
-3.06877e-05
0.00467567
-3.03259e-05
0.00466752
-2.99627e-05
0.00465951
-2.9588e-05
0.00465162
-2.92142e-05
0.00464385
-2.88201e-05
0.0046362
-2.84167e-05
0.00462866
-2.7996e-05
0.00462125
-2.75846e-05
0.00461394
-2.7169e-05
0.00460675
-2.67655e-05
0.00459968
-2.63542e-05
0.00459272
-2.59494e-05
0.00458587
-2.55354e-05
0.00457914
-2.51332e-05
0.00457252
-2.47302e-05
0.00456602
-2.43404e-05
0.00455964
-2.39487e-05
0.00455337
-2.35705e-05
0.00454722
-2.3192e-05
0.00454119
-2.28323e-05
0.00453527
-2.24769e-05
0.00452947
-2.21467e-05
0.00452379
-2.18269e-05
0.00451823
-2.15465e-05
0.00451277
-2.12859e-05
0.00450741
-2.11283e-05
0.00450217
-2.09948e-05
0.00449693
-2.11597e-05
0.00449186
-2.13206e-05
0.00448653
-2.22255e-05
-2.3247e-05
0.00645566
-3.30161e-06
0.00646519
-3.37649e-05
0.00645042
-0.000122979
0.00639697
-0.000263324
0.00630461
-0.000412949
0.00618117
-0.000536093
0.00603901
-0.000615593
0.00589152
-0.000646636
0.00575008
-0.000635779
0.00562196
-0.00059541
0.0055103
-0.000536599
0.00541634
-0.00047092
0.00533922
-0.000407897
0.0052758
-0.000350744
0.00522309
-0.000299172
0.00518038
-0.000255088
0.0051469
-0.000220618
0.00511944
-0.000193031
0.00509513
-0.000168191
0.00507461
-0.000146793
0.00505906
-0.000131208
0.00504668
-0.000119782
0.0050349
-0.000109011
0.00502372
-9.84605e-05
0.00501463
-9.00081e-05
0.00500784
-8.41067e-05
0.00500218
-7.9321e-05
0.0049965
-7.42312e-05
0.00499078
-6.8997e-05
0.00498589
-6.46879e-05
0.00498221
-6.15099e-05
0.00497932
-5.88104e-05
0.00497657
-5.60763e-05
0.00497359
-5.32383e-05
0.00497068
-5.06378e-05
0.00496832
-4.8557e-05
0.00496654
-4.67564e-05
0.00496502
-4.50121e-05
0.00496346
-4.3313e-05
0.00496174
-4.17023e-05
0.00495999
-4.02586e-05
0.00495842
-3.89568e-05
0.00495699
-3.76415e-05
0.00495553
-3.63918e-05
0.00495391
-3.53209e-05
0.00495202
-3.43679e-05
0.00494979
-3.34069e-05
0.00494723
-3.23898e-05
0.00494434
-3.13745e-05
0.00494108
-3.0446e-05
0.00493735
-2.96189e-05
0.00493306
-2.88528e-05
0.00492812
-2.80889e-05
0.00492251
-2.72972e-05
0.00491625
-2.64867e-05
0.00490937
-2.57259e-05
0.00490189
-2.50396e-05
0.0048938
-2.44076e-05
0.00488513
-2.3793e-05
0.00487589
-2.31945e-05
0.00486614
-2.26204e-05
0.00485597
-2.20827e-05
0.00484544
-2.15872e-05
0.00483462
-2.11287e-05
0.00482356
-2.0702e-05
0.00481233
-2.03073e-05
0.00480097
-1.99362e-05
0.00478954
-1.95831e-05
0.00477809
-1.92347e-05
0.00476667
-1.89083e-05
0.00475531
-1.85978e-05
0.00474403
-1.83106e-05
0.00473285
-1.8035e-05
0.0047218
-1.77654e-05
0.00471089
-1.7505e-05
0.00470013
-1.72396e-05
0.00468953
-1.69901e-05
0.00467911
-1.674e-05
0.00466885
-1.65116e-05
0.00465878
-1.62799e-05
0.00464889
-1.60612e-05
0.0046392
-1.58416e-05
0.0046297
-1.5633e-05
0.0046204
-1.54309e-05
0.00461129
-1.52392e-05
0.0046024
-1.50527e-05
0.0045937
-1.48752e-05
0.00458521
-1.47034e-05
0.00457693
-1.45432e-05
0.00456884
-1.43915e-05
0.00456095
-1.42556e-05
0.00455325
-1.41298e-05
0.00454574
-1.40311e-05
0.00453841
-1.39553e-05
0.00453122
-1.39425e-05
0.00452421
-1.39884e-05
0.00451723
-1.41738e-05
0.00451049
-1.45794e-05
0.00450335
-1.50869e-05
-1.71157e-05
0.00645273
-1.34586e-05
0.00645752
-3.85543e-05
0.00643989
-0.000105347
0.00638638
-0.000209819
0.00629583
-0.000322397
0.00617559
-0.000415853
0.00603716
-0.000477164
0.00589298
-0.000502455
0.00575379
-0.000496591
0.00562646
-0.000468076
0.00551453
-0.000424668
0.00541984
-0.000376232
0.00534111
-0.000329169
0.00527503
-0.000284657
0.00522047
-0.000244611
0.00517736
-0.000211985
0.0051424
-0.000185652
0.00511179
-0.000162422
0.0050857
-0.000142099
0.00506536
-0.000126461
0.00504889
-0.000114735
0.00503347
-0.000104364
0.00501904
-9.45766e-05
0.00500701
-8.64335e-05
0.0049974
-8.03969e-05
0.00498879
-7.54984e-05
0.00498011
-7.06381e-05
0.00497164
-6.57569e-05
0.00496422
-6.15764e-05
0.0049579
-5.8376e-05
0.00495209
-5.56947e-05
0.00494621
-5.29271e-05
0.00494013
-4.9999e-05
0.00493425
-4.7356e-05
0.00492884
-4.52356e-05
0.00492374
-4.34551e-05
0.00491869
-4.16998e-05
0.00491348
-3.98115e-05
0.0049081
-3.79305e-05
0.0049027
-3.63018e-05
0.00489738
-3.49372e-05
0.00489208
-3.3657e-05
0.00488675
-3.23097e-05
0.00488131
-3.09559e-05
0.0048757
-2.97127e-05
0.00486993
-2.85893e-05
0.00486404
-2.7517e-05
0.0048581
-2.64517e-05
0.00485213
-2.54027e-05
0.00484609
-2.44095e-05
0.00483994
-2.34699e-05
0.00483365
-2.25623e-05
0.00482722
-2.16613e-05
0.00482069
-2.07675e-05
0.0048141
-1.98896e-05
0.00480743
-1.90628e-05
0.00480067
-1.82757e-05
0.00479376
-1.74983e-05
0.00478667
-1.67054e-05
0.0047794
-1.59231e-05
0.00477195
-1.51734e-05
0.00476434
-1.44645e-05
0.00475653
-1.37839e-05
0.00474852
-1.31196e-05
0.00474029
-1.24681e-05
0.00473183
-1.18443e-05
0.00472315
-1.12574e-05
0.00471427
-1.07105e-05
0.00470523
-1.01939e-05
0.00469604
-9.71357e-06
0.00468671
-9.27129e-06
0.00467727
-8.86621e-06
0.00466773
-8.49941e-06
0.00465813
-8.16721e-06
0.0046485
-7.86976e-06
0.00463886
-7.60353e-06
0.00462924
-7.36547e-06
0.00461966
-7.16047e-06
0.00461013
-6.98488e-06
0.00460069
-6.83949e-06
0.00459135
-6.71625e-06
0.00458212
-6.6161e-06
0.00457302
-6.53553e-06
0.00456407
-6.47658e-06
0.00455527
-6.43505e-06
0.00454662
-6.41111e-06
0.00453815
-6.39961e-06
0.00452985
-6.40143e-06
0.00452172
-6.41342e-06
0.00451376
-6.4373e-06
0.00450598
-6.47063e-06
0.00449836
-6.51288e-06
0.0044909
-6.57108e-06
0.0044836
-6.65274e-06
0.00447641
-6.75755e-06
0.00446938
-6.95089e-06
0.00446232
-7.1212e-06
0.00445547
-7.72732e-06
0.00444816
-7.77493e-06
-1.07115e-05
0.0064508
-2.14627e-05
0.00645216
-3.99198e-05
0.00643219
-8.53722e-05
0.00637824
-0.000155876
0.00628837
-0.000232521
0.0061693
-0.000296785
0.00603182
-0.000339684
0.0058878
-0.000358438
0.00574726
-0.000356051
0.00561716
-0.000337974
0.00550247
-0.000309977
0.00540404
-0.000277804
0.00531964
-0.000244773
0.00524857
-0.000213582
0.00519032
-0.000186362
0.00514165
-0.00016332
0.00509929
-0.000143283
0.00506283
-0.00012597
0.0050324
-0.000111661
0.00500603
-0.000100094
0.00498161
-9.03186e-05
0.00495911
-8.18636e-05
0.00493916
-7.46245e-05
0.00492127
-6.85428e-05
0.00490428
-6.34138e-05
0.00488771
-5.89208e-05
0.00487187
-5.47996e-05
0.00485707
-5.09596e-05
0.00484303
-4.75309e-05
0.00482923
-4.4578e-05
0.00481549
-4.19607e-05
0.004802
-3.94384e-05
0.00478895
-3.69408e-05
0.00477625
-3.46561e-05
0.0047637
-3.2685e-05
0.00475117
-3.09285e-05
0.00473871
-2.92398e-05
0.00472644
-2.75432e-05
0.00471441
-2.59003e-05
0.00470255
-2.44384e-05
0.00469077
-2.31618e-05
0.00467909
-2.1973e-05
0.00466756
-2.07797e-05
0.00465621
-1.961e-05
0.00464503
-1.8535e-05
0.00463401
-1.75685e-05
0.00462316
-1.66654e-05
0.0046125
-1.57911e-05
0.00460204
-1.49432e-05
0.00459178
-1.41481e-05
0.00458172
-1.34078e-05
0.00457186
-1.27077e-05
0.00456223
-1.20322e-05
0.00455285
-1.13805e-05
0.00454371
-1.07544e-05
0.00453482
-1.01688e-05
0.00452616
-9.61854e-06
0.00451775
-9.08404e-06
0.00450959
-8.55236e-06
0.00450171
-8.03642e-06
0.00449408
-7.54795e-06
0.00448671
-7.09111e-06
0.00447958
-6.65279e-06
0.00447268
-6.22534e-06
0.00446602
-5.80447e-06
0.00445958
-5.40294e-06
0.00445334
-5.02275e-06
0.0044473
-4.66805e-06
0.00444143
-4.32616e-06
0.00443572
-4.00269e-06
0.00443016
-3.7051e-06
0.00442472
-3.4278e-06
0.00441939
-3.17228e-06
0.00441416
-2.9408e-06
0.00440902
-2.72799e-06
0.00440396
-2.53867e-06
0.00439896
-2.36407e-06
0.00439401
-2.21321e-06
0.00438911
-2.08238e-06
0.00438424
-1.97285e-06
0.0043794
-1.87982e-06
0.00437459
-1.80021e-06
0.00436979
-1.73763e-06
0.004365
-1.68891e-06
0.00436022
-1.65641e-06
0.00435545
-1.6367e-06
0.00435068
-1.62981e-06
0.00434591
-1.63347e-06
0.00434115
-1.64922e-06
0.00433639
-1.67591e-06
0.00433163
-1.71353e-06
0.00432688
-1.76301e-06
0.00432213
-1.82452e-06
0.00431739
-1.91324e-06
0.00431263
-1.99979e-06
0.00430788
-2.19226e-06
0.00430301
-2.2582e-06
0.00429815
-2.86574e-06
0.00429293
-2.55762e-06
-5.63634e-06
0.00644653
-2.70128e-05
0.00644397
-3.73618e-05
0.00642001
-6.141e-05
0.00636214
-9.80093e-05
0.00626748
-0.000137856
0.00614211
-0.000171423
0.00599645
-0.000194018
0.00584207
-0.000204059
0.00568909
-0.000203075
0.00554495
-0.000193827
0.00541388
-0.00017891
0.00529722
-0.000161143
0.00519546
-0.00014301
0.00510781
-0.000125941
0.00503194
-0.000110487
0.00496542
-9.6802e-05
0.00490706
-8.4922e-05
0.00485589
-7.48024e-05
0.00481039
-6.6157e-05
0.00476894
-5.86423e-05
0.00473079
-5.21684e-05
0.00469599
-4.70618e-05
0.00466412
-4.27608e-05
0.00463446
-3.88823e-05
0.00460646
-3.54145e-05
0.00457999
-3.24513e-05
0.00455507
-2.98779e-05
0.00453157
-2.74565e-05
0.00450921
-2.51686e-05
0.00448776
-2.31276e-05
0.00446716
-2.13674e-05
0.00444747
-1.97429e-05
0.00442869
-1.81612e-05
0.00441071
-1.66839e-05
0.00439341
-1.53832e-05
0.00437672
-1.42406e-05
0.00436067
-1.3188e-05
0.0043453
-1.21656e-05
0.00433058
-1.11823e-05
0.00431644
-1.02987e-05
0.00430281
-9.52921e-06
0.00428967
-8.83423e-06
0.00427705
-8.16085e-06
0.00426495
-7.51134e-06
0.00425333
-6.91874e-06
0.00424216
-6.39425e-06
0.00423141
-5.91577e-06
0.00422108
-5.46141e-06
0.00421117
-5.02937e-06
0.00420165
-4.63183e-06
0.00419251
-4.26993e-06
0.00418374
-3.93643e-06
0.00417533
-3.62288e-06
0.00416728
-3.32792e-06
0.00415957
-3.05064e-06
0.0041522
-2.79738e-06
0.00414515
-2.5672e-06
0.00413842
-2.35149e-06
0.00413201
-2.14155e-06
0.00412591
-1.94217e-06
0.00412012
-1.75714e-06
0.00411462
-1.58965e-06
0.0041094
-1.43198e-06
0.00410446
-1.28102e-06
0.00409978
-1.13203e-06
0.00409537
-9.91703e-07
0.00409121
-8.57568e-07
0.00408727
-7.33507e-07
0.00408356
-6.09091e-07
0.00408004
-4.84077e-07
0.00407671
-3.8218e-07
0.00407356
-2.77465e-07
0.00407057
-1.78416e-07
0.00406772
-8.60967e-08
0.00406499
1.69037e-09
0.00406237
8.11133e-08
0.00405984
1.57088e-07
0.00405741
2.21227e-07
0.00405505
2.77561e-07
0.00405275
3.23185e-07
0.00405051
3.61027e-07
0.00404832
3.94516e-07
0.00404616
4.18624e-07
0.00404404
4.35986e-07
0.00404194
4.46287e-07
0.00403985
4.50387e-07
0.00403777
4.50904e-07
0.00403569
4.48575e-07
0.0040336
4.39108e-07
0.00403149
4.26523e-07
0.00402938
4.04458e-07
0.00402723
3.78539e-07
0.00402507
3.38676e-07
0.00402287
2.8835e-07
0.00402062
2.49431e-07
0.0040183
1.26058e-07
0.00401589
1.51076e-07
0.00401334
-3.1143e-07
0.00401062
1.60039e-07
-2.32776e-06
0.00625665
0.00621968
0.00615866
0.00606105
0.00592359
0.00575257
0.00555895
0.0053553
0.00515264
0.00495922
0.00478073
0.00462001
0.00447743
0.00435191
0.00424186
0.00414549
0.004061
0.00398664
0.00392092
0.00386272
0.00381099
0.00376438
0.00372206
0.00368362
0.00364865
0.00361665
0.00358722
0.00356021
0.00353549
0.00351281
0.0034919
0.00347261
0.0034549
0.00343866
0.00342373
0.00340994
0.00339721
0.0033855
0.00337477
0.00336492
0.00335585
0.00334747
0.00333976
0.0033327
0.00332624
0.0033203
0.00331484
0.00330983
0.00330525
0.00330108
0.00329726
0.00329378
0.00329061
0.00328774
0.00328514
0.0032828
0.00328069
0.00327879
0.00327711
0.00327562
0.00327432
0.00327318
0.00327221
0.00327138
0.00327071
0.00327017
0.00326977
0.00326949
0.00326933
0.00326931
0.00326938
0.00326956
0.00326983
0.0032702
0.00327066
0.00327119
0.00327181
0.00327248
0.00327322
0.00327399
0.00327481
0.00327566
0.00327653
0.00327742
0.00327832
0.00327923
0.00328013
0.00328104
0.00328193
0.00328281
0.00328367
0.0032845
0.0032853
0.00328604
0.00328674
0.00328733
0.00328793
0.00328807
0.00328869
-0.000831931
0.000788343
-0.00121946
0.000387527
-0.00139906
0.000179604
-0.00140205
2.98391e-06
-0.00126096
-0.00014109
-0.000964944
-0.000296012
-0.000524487
-0.000440457
-0.000525013
-0.000754951
0.00166096
-0.00111808
0.000750658
-0.00122824
0.000289766
-0.00120009
-2.51742e-05
-0.00105429
-0.000286883
-0.00080876
-0.000541545
-0.000456447
-0.00079277
-0.000981964
-0.000156196
0.00225018
-0.000557935
0.0011524
-0.000717708
0.000449539
-0.000731037
-1.18447e-05
-0.000650844
-0.000367076
-0.000507295
-0.000685094
-0.000303369
-0.000996696
-0.00128582
0.000429659
0.00257866
9.69572e-05
0.0014851
-0.000111095
0.000657591
-0.000205854
8.29144e-05
-0.000222049
-0.000350881
-0.000187708
-0.000719434
-0.000121698
-0.00106271
-0.00140799
0.000870297
0.00276483
0.000617312
0.00173808
0.000395232
0.000879671
0.000239665
0.000238481
0.000137925
-0.000249141
7.01138e-05
-0.000651623
2.21303e-05
-0.00101472
-0.00138632
0.00119707
0.00287795
0.000996737
0.00193841
0.000781887
0.00109452
0.000592639
0.000427729
0.000428777
-8.52789e-05
0.000279857
-0.000502703
0.000137296
-0.000872162
-0.00124949
0.00139123
0.00294685
0.00123794
0.00209171
0.00104152
0.00129093
0.000835822
0.000633432
0.000631623
0.00011892
0.00042645
-0.00029753
0.000215937
-0.000661649
-0.00103402
0.0014507
0.0029926
0.00133262
0.00220978
0.00116188
0.00146168
0.000958576
0.000836732
0.00073756
0.000339935
0.000503686
-6.3656e-05
0.000257039
-0.000415001
-0.000777454
0.00141294
0.00302251
0.00131817
0.00230455
0.0011684
0.00161144
0.000977313
0.00102782
0.000758615
0.000558633
0.000520569
0.000174391
0.000266344
-0.000160776
-0.000511595
0.00130652
0.00303896
0.00123226
0.00237881
0.00110355
0.00174016
0.000929904
0.00120146
0.000724735
0.000763802
0.000497958
0.000401168
0.000254451
8.27319e-05
-0.00025764
0.00116661
0.00304298
0.00111071
0.00243471
0.00100158
0.00184928
0.000848414
0.00135463
0.000663841
0.000948375
0.000456996
0.000608012
0.000233434
0.000306294
-2.4714e-05
0.00101874
0.0030365
0.000978074
0.00247538
0.000885928
0.00194143
0.000752903
0.00148766
0.000590955
0.00111032
0.000407694
0.000791274
0.000209263
0.000504725
0.000184038
0.000877783
0.00302259
0.000848929
0.00250423
0.000772048
0.00201831
0.000657408
0.0016023
0.00051629
0.00125144
0.00035574
0.000951823
0.000181768
0.000678697
0.000365299
0.000752813
0.00300418
0.000732545
0.0025245
0.000668488
0.00208237
0.000570117
0.00170067
0.000447907
0.00137365
0.000308381
0.00109135
0.000157163
0.000829915
0.00052196
0.000647067
0.00298375
0.000632231
0.00253934
0.000578651
0.00213595
0.00049469
0.00178463
0.000389102
0.00147924
0.000267958
0.00121249
0.000136462
0.000961411
0.000657925
0.000558638
0.00296345
0.000546451
0.00255152
0.000501283
0.00218111
0.000430138
0.00185577
0.000339201
0.00157017
0.000233965
0.00131773
0.000119086
0.00107629
0.000776516
0.000485016
0.00294467
0.000474183
0.00256236
0.000435452
0.00221985
0.00037462
0.00191661
0.000296129
0.00164866
0.000204607
0.00140925
0.000103848
0.00117705
0.000879872
0.000424656
0.00292811
0.000414604
0.00257241
0.000380665
0.00225378
0.000327726
0.00196955
0.000259372
0.00171702
0.000179387
0.00148924
9.08095e-05
0.00126563
0.000970192
0.000375994
0.00291399
0.000366309
0.00258209
0.000335933
0.00228416
0.000289093
0.00201639
0.000228832
0.00177728
0.00015831
0.00155976
8.01554e-05
0.00134378
0.00104986
0.000336329
0.00290211
0.00032682
0.0025916