/*--------------------------------*- C++ -*----------------------------------*\
| =========                 |                                                 |
| \\      /  F ield         | OpenFOAM: The Open Source CFD Toolbox           |
|  \\    /   O peration     | Version:  v2012                                 |
|   \\  /    A nd           | Website:  www.openfoam.com                      |
|    \\/     M anipulation  |                                                 |
\*---------------------------------------------------------------------------*/
FoamFile
{
    version     2.0;
    format      ascii;
    class       scalarField;
    location    "0.025/lagrangian/kinematicCloud";
    object      age;
}
// * * * * * * * * * * * * * * * * * * * * * * * * * * * * * * * * * * * * * //


26
(
0.0242
0.0232
0.0221
0.021
0.02
0.019
0.018
0.017
0.0159
0.0148
0.014725
0.0137
0.0126
0.0115
0.0104
0.0093
0.0082
0.0071
0.006
0.005925
0.0049
0.0038
0.0027
0.0016
0.001525
0.0005
)


// ************************************************************************* //
