/*--------------------------------*- C++ -*----------------------------------*\
| =========                 |                                                 |
| \\      /  F ield         | OpenFOAM: The Open Source CFD Toolbox           |
|  \\    /   O peration     | Version:  v2012                                 |
|   \\  /    A nd           | Website:  www.openfoam.com                      |
|    \\/     M anipulation  |                                                 |
\*---------------------------------------------------------------------------*/
FoamFile
{
    version     2.0;
    format      ascii;
    class       vectorField;
    location    "0.025/lagrangian/kinematicCloud";
    object      U;
}
// * * * * * * * * * * * * * * * * * * * * * * * * * * * * * * * * * * * * * //


26
(
(2.51023 0.000265799 0)
(2.41376 0.000433016 0)
(2.30773 0.000245688 0)
(2.19851 0.000254047 0)
(2.09928 -1.98118e-05 0)
(2.00001 2.70053e-05 0)
(1.25842 5.54718e-05 0)
(1.79808 -0.000121563 0)
(1.68577 -0.000124202 0)
(1.57448 0.000127002 0)
(1.56659 9.63678e-05 0)
(1.46222 0.000114138 0)
(0.287595 -6.03883e-06 0)
(0.272116 1.35264e-06 0)
(0.777068 -7.1718e-05 0)
(1.00418 6.96882e-05 0)
(0.888109 4.1104e-05 0)
(0.771091 -5.14746e-05 0)
(0.653531 6.89435e-05 0)
(0.64573 -7.39592e-05 0)
(0.53543 -5.50706e-05 0)
(0.262624 -2.79593e-05 0)
(0.296695 -2.66647e-05 0)
(0.176389 8.75108e-06 0)
(0.168233 9.14415e-07 0)
(0.0552838 -1.21088e-06 0)
)


// ************************************************************************* //
