/*--------------------------------*- C++ -*----------------------------------*\
| =========                 |                                                 |
| \\      /  F ield         | OpenFOAM: The Open Source CFD Toolbox           |
|  \\    /   O peration     | Version:  v2012                                 |
|   \\  /    A nd           | Website:  www.openfoam.com                      |
|    \\/     M anipulation  |                                                 |
\*---------------------------------------------------------------------------*/
FoamFile
{
    version     2.0;
    format      ascii;
    class       scalarField;
    location    "0.129/lagrangian/kinematicCloud";
    object      age;
}
// * * * * * * * * * * * * * * * * * * * * * * * * * * * * * * * * * * * * * //


54
(
0.1282
0.1272
0.1261
0.125
0.124
0.123
0.122
0.121
0.1199
0.1188
0.118725
0.1177
0.1166
0.1155
0.1144
0.1133
0.1122
0.1111
0.11
0.109925
0.1089
0.1078
0.1067
0.1056
0.105525
0.1045
0.1034
0.103325
0.1023
0.102225
0.1012
0.1001
0.099
0.0979
0.097825
0.0969
0.0959
0.0949
0.0939
0.0929
0.0919
0.0909
0.0899
0.0889
0.0879
0.0869
0.0859
0.0849
0.0839
0.0829
0.0819
0.0809
0.0799
0.0789
)


// ************************************************************************* //
