/*--------------------------------*- C++ -*----------------------------------*\
| =========                 |                                                 |
| \\      /  F ield         | OpenFOAM: The Open Source CFD Toolbox           |
|  \\    /   O peration     | Version:  v2012                                 |
|   \\  /    A nd           | Website:  www.openfoam.com                      |
|    \\/     M anipulation  |                                                 |
\*---------------------------------------------------------------------------*/
FoamFile
{
    version     2.0;
    format      ascii;
    class       Cloud<basicKinematicParcel>;
    location    "0.129/lagrangian/kinematicCloud";
    object      coordinates;
}
// * * * * * * * * * * * * * * * * * * * * * * * * * * * * * * * * * * * * * //

54
(
(0.0756333 0.462183 0.199456 0.262727) 384 569 1
(0.0198865 0.435973 0.490057 0.0540834) 887 1772 1
(0.551887 0.224056 0.209751 0.0143056) 1186 2173 1
(0.127431 0.436284 0.211874 0.22441) 585 1171 1
(0.240068 0.379966 0.335966 0.0439998) 1484 2769 1
(0.820204 0.0898979 0.0638761 0.0260218) 1184 2366 2
(0.0811674 0.459416 0.412758 0.0466584) 61 122 2
(0.345341 0.32733 0.288743 0.0385862) 1680 3161 1
(0.0172197 0.0301743 0.461216 0.49139) 1579 3158 1
(0.9248 0.0375999 0.0285134 0.00908653) 781 1562 2
(0.278817 0.360592 0.029262 0.33133) 881 1763 1
(0.244123 0.0918608 0.286077 0.377938) 579 959 2
(0.0385234 0.283252 0.197486 0.480738) 1869 3738 1
(0.37739 0.311305 0.221876 0.0894297) 169 139 1
(0.0923253 0.453837 0.301232 0.152605) 1870 3740 2
(0.266922 0.257255 0.109284 0.366539) 977 1954 1
(0.325021 0.33749 0.271449 0.0660409) 374 746 2
(0.233329 0.0391137 0.344222 0.383335) 1770 3540 1
(0.0016891 0.486776 0.499155 0.0123795) 575 1148 1
(0.199437 0.247191 0.400282 0.153091) 1573 3147 2
(0.182783 0.209241 0.199367 0.408608) 1374 2549 2
(0.194286 0.402857 0.187601 0.215255) 1770 3538 2
(0.261286 0.369357 0.0765479 0.292809) 1373 2744 2
(0.779614 0.0443035 0.110193 0.0658894) 471 940 1
(0.576199 0.211901 0.149621 0.0622798) 872 1545 1
(0.279582 0.276246 0.0839624 0.360209) 1371 2543 2
(0.256386 0.138371 0.371807 0.233436) 369 736 1
(0.695635 0.0621367 0.152183 0.0900459) 1470 2938 1
(0.554703 0.10558 0.222648 0.117069) 164 329 2
(0.0327772 0.483611 0.329093 0.154519) 1569 2939 1
(0.0904084 0.454796 0.289346 0.165449) 35 22255 2
(0.6552 0.1724 0.0352895 0.137111) 265 528 2
(0.0915828 0.0564672 0.454209 0.397741) 1857 3715 2
(0.498122 0.200007 0.250939 0.0509323) 1067 2132 1
(0.0771718 0.0460301 0.415384 0.461414) 666 1133 2
(0.537605 0.150857 0.231198 0.0803407) 1266 2533 2
(0.347543 0.326228 0.125855 0.200374) 765 1530 2
(0.482942 0.258529 0.0670598 0.191469) 865 1531 1
(0.380083 0.309959 0.0068445 0.303114) 1264 2529 1
(0.0488228 0.159399 0.475589 0.31619) 55 108 1
(0.38719 0.306405 0.262282 0.0441228) 663 1327 1
(0.813821 0.0910914 0.00199819 0.0930896) 1262 2325 2
(0.249778 0.280006 0.375111 0.0951055) 561 1123 2
(0.301667 0.349166 0.0335194 0.315647) 560 1120 2
(0.177055 0.411472 0.387655 0.0238175) 760 1321 1
(0.33742 0.0104869 0.33129 0.320803) 1159 2319 2
(0.111443 0.340017 0.104262 0.444279) 1558 2917 2
(0.908272 0.0349536 0.0458639 0.0109103) 958 1914 1
(0.242339 0.174815 0.204015 0.37883) 857 1515 2
(0.156845 0.00947472 0.412103 0.421578) 1356 2712 1
(0.0321504 0.483925 0.301103 0.182822) 355 708 2
(0.0690388 0.252822 0.465481 0.212659) 755 1511 2
(0.122739 0.438631 0.207206 0.231425) 1554 3109 1
(0.0139833 0.349835 0.493008 0.143174) 151 303 2
)


// ************************************************************************* //
