/*--------------------------------*- C++ -*----------------------------------*\
| =========                 |                                                 |
| \\      /  F ield         | OpenFOAM: The Open Source CFD Toolbox           |
|  \\    /   O peration     | Version:  v2012                                 |
|   \\  /    A nd           | Website:  www.openfoam.com                      |
|    \\/     M anipulation  |                                                 |
\*---------------------------------------------------------------------------*/
FoamFile
{
    version     2.0;
    format      ascii;
    class       scalarField;
    location    "0.109/lagrangian/kinematicCloud";
    object      age;
}
// * * * * * * * * * * * * * * * * * * * * * * * * * * * * * * * * * * * * * //


54
(
0.1082
0.1072
0.1061
0.105
0.104
0.103
0.102
0.101
0.0999
0.0988
0.098725
0.0977
0.0966
0.0955
0.0944
0.0933
0.0922
0.0911
0.09
0.089925
0.0889
0.0878
0.0867
0.0856
0.085525
0.0845
0.0834
0.083325
0.0823
0.082225
0.0812
0.0801
0.079
0.0779
0.077825
0.0769
0.0759
0.0749
0.0739
0.0729
0.0719
0.0709
0.0699
0.0689
0.0679
0.0669
0.0659
0.0649
0.0639
0.0629
0.0619
0.0609
0.0599
0.0589
)


// ************************************************************************* //
