/*--------------------------------*- C++ -*----------------------------------*\
| =========                 |                                                 |
| \\      /  F ield         | OpenFOAM: The Open Source CFD Toolbox           |
|  \\    /   O peration     | Version:  v2012                                 |
|   \\  /    A nd           | Website:  www.openfoam.com                      |
|    \\/     M anipulation  |                                                 |
\*---------------------------------------------------------------------------*/
FoamFile
{
    version     2.0;
    format      ascii;
    class       vectorField;
    location    "0.109/lagrangian/kinematicCloud";
    object      U;
}
// * * * * * * * * * * * * * * * * * * * * * * * * * * * * * * * * * * * * * //


54
(
(9.37367 -0.000539504 0)
(10.2355 -0.000775432 0)
(10.2417 -0.000694888 0)
(10.0882 -8.25477e-05 0)
(10.0564 -0.00124307 0)
(10.2522 -0.000983336 0)
(6.21389 -0.00159728 0)
(9.57798 -0.00228604 0)
(9.64262 -0.00274734 0)
(10.2362 0.00100257 0)
(10.2688 5.29959e-05 0)
(9.96097 0.00218458 0)
(8.15916 -0.00211921 0)
(8.18492 0.00114731 0)
(8.57037 -0.00168362 0)
(10.2778 -0.000160314 0)
(9.47048 0.00302278 0)
(8.94024 -0.00311337 0)
(10.0488 0.00444564 0)
(9.69679 -0.00509105 0)
(10.1996 -0.00544695 0)
(9.21635 -0.00493706 0)
(10.174 -0.00600158 0)
(9.89311 0.00454331 0)
(10.2596 0.00248043 0)
(10.2015 -0.00598187 0)
(9.70214 0.0046224 0)
(10.0339 -0.0064519 0)
(8.82645 0.00336018 0)
(9.96189 -0.00645085 0)
(3.19214 -0.000455961 0)
(9.31098 0.00263935 0)
(7.94204 -0.00398025 0)
(10.2531 -0.00193806 0)
(10.1649 0.00505387 0)
(10.2309 -0.00552205 0)
(10.2355 0.00382015 0)
(10.248 0.00238783 0)
(10.2295 -0.00560144 0)
(8.03767 -0.000186655 0)
(10.2247 0.00441699 0)
(10.2387 -0.00504328 0)
(10.1761 0.00527648 0)
(10.1121 0.00533402 0)
(10.2335 0.00401841 0)
(10.2419 -0.00405297 0)
(10.074 -0.0069987 0)
(10.2416 8.75982e-05 0)
(10.2402 0.00245303 0)
(10.2013 -0.006581 0)
(9.79997 0.00451314 0)
(10.2402 0.00266382 0)
(9.98053 -0.00655078 0)
(9.39972 0.00438607 0)
)


// ************************************************************************* //
