/*--------------------------------*- C++ -*----------------------------------*\
| =========                 |                                                 |
| \\      /  F ield         | OpenFOAM: The Open Source CFD Toolbox           |
|  \\    /   O peration     | Version:  v2012                                 |
|   \\  /    A nd           | Website:  www.openfoam.com                      |
|    \\/     M anipulation  |                                                 |
\*---------------------------------------------------------------------------*/
FoamFile
{
    version     2.0;
    format      ascii;
    class       volScalarField;
    location    "0.343";
    object      epsilon.air;
}
// * * * * * * * * * * * * * * * * * * * * * * * * * * * * * * * * * * * * * //

dimensions      [0 2 -3 0 0 0 0];


internalField   nonuniform List<scalar> 
1900
(
112.724
141.424
210.097
257.591
369.051
443.457
614.739
724.909
971.319
1128.62
15.4676
16.4471
18.6373
20.4506
23.7568
27.7279
32.0031
39.2881
45.1247
56.7668
14.7926
14.6415
14.5755
14.5063
14.5148
14.5574
14.6409
14.8309
15.0773
15.4134
14.77
14.6304
14.4634
14.3354
14.1726
14.059
13.904
13.8079
13.6654
13.5937
14.7765
14.6216
14.4704
14.3205
14.1747
14.029
13.8889
13.7472
13.6139
13.4769
14.7777
14.6206
14.4713
14.3197
14.1754
14.0284
13.8891
13.7472
13.6133
13.4773
14.7776
14.6208
14.473
14.3235
14.184
14.045
13.9175
13.7915
13.6807
13.5716
14.7757
14.6501
14.5637
14.5034
14.5108
14.5517
14.6367
14.82
15.0462
15.3946
15.2076
16.606
18.2733
20.6805
23.5938
27.5683
32.2717
38.3951
45.5792
54.799
105.878
146.649
198.304
265.83
349.961
456.093
585.628
743.683
931.827
1154.04
4101.6
15203.1
19567.5
22420.8
21089.6
18007.9
15086.3
12803.6
11311.2
10392.7
9890.44
9709.79
9529.28
9257.9
8850.38
8351.25
7796.33
7209.84
6644.31
6126.37
5649.34
5222.29
4837.88
4487.01
4167.59
3877.98
3615.34
3377.86
3162.15
2966.43
2788.27
2625.67
2476.92
2340.45
2215.1
2099.69
1993.27
1894.91
1803.83
1719.32
1640.81
1567.73
1499.61
1436.02
1376.58
1320.93
1268.76
1219.77
1173.7
1130.29
1089.33
1050.6
1013.92
979.126
946.077
914.626
884.671
856.083
828.793
802.679
777.704
753.746
730.799
708.731
687.571
667.173
647.607
628.703
610.579
593.027
576.224
559.91
544.33
529.15
514.701
500.552
487.143
473.921
461.467
449.069
437.494
425.83
415.078
404.07
394.105
383.687
374.491
364.602
356.172
346.745
339.086
330.042
323.165
314.405
308.334
299.737
294.504
285.929
281.557
271.25
113.22
337.835
517.788
921.494
1123.59
1149.07
1121.79
1058.94
1053.76
1093.2
1198.49
1412.21
1698.56
2029.46
2379.58
2692.98
2971.4
3203
3357.97
3434.42
3426.41
3387.22
3301.03
3183.59
3055.6
2924.39
2793.65
2667.29
2543.89
2426.55
2314.51
2207.54
2106.17
2010.23
1919.84
1834.74
1754.82
1679.56
1608.72
1542
1479.14
1419.85
1363.91
1311.08
1261.16
1213.95
1169.27
1126.95
1086.81
1048.69
1012.45
977.941
945.037
913.611
883.565
854.789
827.215
800.743
775.334
750.897
727.416
704.798
683.053
662.075
641.903
622.41
603.676
585.543
568.133
551.254
535.079
519.365
504.35
489.721
475.795
462.169
449.258
436.546
424.575
412.683
401.583
390.424
380.138
369.633
360.12
350.203
341.442
332.048
324.032
315.094
307.824
299.264
292.749
284.472
278.73
270.62
265.678
257.602
253.487
243.799
16.4293
19.8706
22.8851
29.0842
34.7685
38.7178
41.6931
43.7813
46.7403
50.7662
58.833
71.1006
95.7838
130.411
189.838
267.603
374.541
509.226
666.164
836.795
1005.1
1162.25
1301.22
1417.73
1508.44
1571.8
1610.1
1628.24
1625.83
1615.33
1592.7
1562.4
1527.94
1490.53
1451.79
1411.9
1371.96
1331.61
1291.79
1252.62
1214.19
1176.64
1140.11
1104.62
1070.24
1036.9
1004.71
973.582
943.504
914.459
886.407
859.296
833.089
807.726
783.185
759.404
736.379
714.047
692.424
671.451
651.158
631.484
612.47
594.037
576.249
559.001
542.386
526.263
510.761
495.699
481.256
467.195
453.76
440.646
428.171
415.943
404.374
392.96
382.233
371.554
361.611
351.589
342.381
332.944
324.431
315.516
307.677
299.224
292.051
284.002
277.496
269.782
263.95
256.487
251.344
244.032
239.6
232.326
228.627
219.909
13.4533
13.4608
13.5468
13.8033
14.3344
15.0066
15.7161
16.3359
16.9208
17.3401
17.8977
18.3634
19.3205
20.4874
22.7731
26.2267
31.8227
40.8243
54.7496
76.152
106.441
146.972
198.381
259.877
329.304
404.063
479.468
553.606
621.387
683.521
737.033
781.18
815.893
841.405
859.32
870.169
875.419
874.811
872.07
866.038
857.308
846.663
834.663
821.338
807.091
792.003
776.401
760.198
743.738
727.111
710.352
693.538
676.754
660.031
643.444
626.979
610.731
594.671
578.896
563.362
548.172
533.281
518.771
504.594
490.839
477.427
464.46
451.813
439.621
427.712
416.275
405.075
394.372
383.851
373.856
363.982
354.662
345.378
336.69
327.948
319.859
311.604
304.078
296.254
289.265
281.822
275.355
268.25
262.308
255.501
250.086
243.522
238.644
232.263
227.936
221.666
217.912
211.672
208.507
201.025
13.3299
13.1589
13.0629
13.1172
13.3058
13.7174
14.2842
14.906
15.4437
15.8765
16.2067
16.4346
16.6235
16.7631
16.9169
17.0856
17.3502
17.7274
18.328
19.3002
20.8327
23.2451
26.7425
32.0714
39.6242
50.4264
64.7033
83.2666
106.029
133.188
164.012
197.569
232.961
268.569
303.708
336.681
367.63
395.5
420.191
441.288
458.972
473.203
484.522
492.931
498.88
502.534
504.35
504.077
502.925
500.404
496.62
491.913
486.461
480.343
473.712
466.618
459.223
451.504
443.649
435.582
427.518
419.345
411.216
403.121
395.155
387.252
379.505
371.81
364.301
356.835
349.597
342.369
335.425
328.44
321.807
315.075
308.757
302.286
296.29
290.059
284.37
278.351
272.958
267.124
262.025
256.355
251.555
246.03
241.533
236.129
231.96
226.666
222.855
217.646
214.217
209.06
206.037
200.893
198.295
192.112
13.3251
13.1543
13.0319
13.0868
13.2962
13.7727
14.4979
15.4817
16.5005
17.5958
18.5906
19.5208
20.2647
20.8757
21.3009
21.6092
21.7814
21.8497
21.8338
21.7882
21.6943
21.6004
21.5299
21.5558
21.6625
21.9211
22.4472
23.3623
24.7953
26.9888
30.2001
34.6475
40.6929
48.3653
57.8933
69.2084
82.3867
97.0805
113.192
130.138
147.676
165.211
182.515
199.152
214.908
229.495
242.892
254.925
265.685
275.209
283.522
290.735
296.924
302.199
306.621
310.267
313.234
315.513
317.264
318.358
319.121
319.16
318.967
318.466
317.456
316.084
314.416
312.45
310.277
307.841
305.266
302.438
299.559
296.391
293.334
289.893
286.696
283.064
279.781
276.009
272.681
268.794
265.459
261.479
258.169
254.112
250.86
246.743
243.589
239.433
236.416
232.232
229.389
225.188
222.556
218.344
215.955
211.739
209.623
204.555
13.4658
13.3602
13.4098
13.6563
14.3046
15.6867
18.0288
21.4297
25.3957
29.6894
33.6036
37.0823
39.6149
41.5462
42.617
43.3535
43.3738
43.2379
42.8875
42.3907
41.78
41.1493
40.4896
39.8954
39.3599
38.8968
38.5157
38.2364
38.1154
38.1666
38.3388
38.7118
39.3338
40.2287
41.5558
43.2444
45.5873
48.4771
52.2607
56.8766
62.6176
69.4821
77.5766
86.9354
97.4923
109.23
121.921
135.492
149.609
164.187
178.84
193.497
207.801
221.737
235.025
247.693
259.529
270.58
280.726
290
298.398
305.917
312.576
318.433
323.486
327.768
331.326
334.169
336.336
337.964
338.971
339.501
339.426
339.089
338.412
337.077
335.869
333.908
332.261
329.816
327.828
324.998
322.767
319.627
317.226
313.829
311.317
307.713
305.155
301.398
298.858
294.993
292.526
288.595
286.252
282.294
280.121
276.18
274.232
269.578
15.9103
16.8584
18.5483
21.9318
28.4157
39.4915
55.4478
74.9753
95.42
114.201
129.241
140.178
146.517
150.094
150.789
150.391
149.299
147.649
146.158
145.14
144.476
144.637
145.264
146.737
149.015
152.318
156.194
161.202
166.972
173.907
181.708
190.55
200.463
211.321
223.465
236.435
250.74
265.687
281.722
298.255
315.56
333.312
351.349
369.52
387.467
405.251
422.545
439.49
455.78
471.565
486.524
500.853
514.267
527.04
538.913
550.097
560.323
569.748
578.196
585.713
592.335
597.975
602.773
606.576
609.538
611.488
612.793
612.828
612.46
611.51
609.682
607.228
604.332
600.773
597.143
592.739
588.676
583.701
579.338
574.023
569.508
563.982
559.433
553.778
549.267
543.525
539.102
533.315
529.047
523.272
519.231
513.516
509.755
504.136
500.701
495.207
492.147
486.805
484.213
478.17
68.0469
90.4237
126.238
184.912
272.004
385.119
511.476
635.552
744.883
831.509
892.501
932.662
953.506
963.403
964.671
963.621
960.919
957.095
956.455
957.614
960.522
965.937
974.778
986.687
1000.64
1016.66
1034.84
1055.32
1077.65
1101.42
1126.32
1152.11
1178.76
1205.76
1233.17
1259.99
1286.59
1311.85
1336.38
1359.39
1381.28
1401.52
1420.25
1437.44
1452.98
1467.14
1479.81
1491.24
1501.29
1510.14
1517.61
1523.85
1528.71
1532.31
1534.71
1535.57
1535.19
1533.89
1531.19
1526.98
1522.15
1515.81
1509.18
1501.09
1492.7
1483.22
1473.11
1462.32
1451.14
1439.28
1427.26
1414.45
1401.82
1388.32
1375.47
1361.69
1348.88
1335.15
1322.61
1309.11
1297.04
1283.9
1272.44
1259.74
1248.93
1236.67
1226.55
1214.74
1205.39
1194.06
1185.56
1174.73
1167.11
1156.73
1150.01
1140.07
1134.28
1124.73
1120.03
1109.49
1464.73
1897.23
2399.1
2961.95
3563.16
4171.89
4745.98
5251.13
5655.16
5950.66
6132.57
6219.64
6207.04
6160.11
6061.22
5927.93
5777.66
5619.25
5459.1
5301.48
5149.37
5004.55
4867.81
4739.89
4620.8
4510.72
4409.16
4316.08
4230.95
4153.63
4083.48
4020.15
3963.07
3911.92
3866.41
3825.92
3790.28
3758.71
3731.37
3707.57
3687.47
3670.22
3655.82
3643.66
3633.73
3625.48
3618.82
3613.31
3608.9
3605.32
3602.52
3600.35
3598.87
3597.84
3597.74
3597.95
3598.55
3599.56
3601.04
3602.36
3604.24
3605.57
3607.29
3608.38
3609.52
3610.16
3610.43
3610.33
3609.95
3609.02
3607.86
3605.52
3603.24
3599.32
3595.65
3590.08
3584.97
3577.79
3571.29
3562.64
3555
3545.16
3536.69
3525.88
3516.78
3505.08
3495.48
3482.92
3472.94
3459.48
3449.27
3434.88
3424.63
3409.27
3399.31
3382.93
3373.59
3356.23
3347.39
3325.26
1109.21
1064.59
1122.21
1210.16
1238.94
1121.33
818.605
1980.1
54629.5
16123.7
7355.85
6108.91
6236.08
6486.78
6557.64
8031.98
74279.8
43670.8
24860.2
18479.8
16110
15007.7
14635.2
19682.4
76409.8
71051.7
54286.3
41222.3
32703.8
27168.1
24552.4
34077.3
69718.4
75708.5
67756.5
55656.9
44569.5
35841.8
30860.9
42699.7
57749.2
71170.8
67937.6
59031.4
48367.5
38725.4
32775.6
45211.9
47490.6
61825.7
62478.2
56599.6
47154.3
38167.7
32443.9
44225.5
39099.8
51819.1
53577.9
49827.6
42386.3
34670.5
29588.6
39754.8
32640.5
42992.9
44919.4
42130.4
36300.6
30043.9
25825.4
34049
27617.6
35629.7
37261.4
35118.6
30547.7
25563.6
22232.6
29390.3
23496
29592.1
30830.8
29129.6
25540.1
21642.9
19169.7
26035.5
20111.4
24700.9
25581.3
24192.3
21349.7
18308.4
16506.6
22999.3
17371.2
20786
21375
20217.4
17947.2
15564.2
14274.5
20378.2
15137.9
17660.3
18027.3
17047.7
15219
13337.9
12434
18167.6
13288.1
15149.7
15357
14520.9
13034.3
11539.1
10927.8
16330.9
11727.5
13108.2
13206.3
12489.7
11271.8
10077.1
9690.17
14802.3
10404.7
11436.8
11461.5
10844.9
9839.69
8880.74
8667.45
13525.8
9266.84
10050.1
10030.7
9497.55
8663.55
7892.15
7815.08
12451.9
8285.69
8889.01
8844.89
8382.37
7687.31
7066.95
7097.05
11540.1
7443.06
7911.52
7852.92
7451.09
6869.33
6371.54
6485.28
10759.4
6716.37
7083.4
7016.87
6667.04
6178.1
5780.12
5960.98
10084.9
6089.93
6378.46
6307.91
6002.32
5589.65
5273.26
5508.2
9497.16
5547.63
5774.96
5702.98
5435.12
5085.52
4836.2
5114.81
8981.83
5073.81
5254.06
5182.79
4947.48
4650.68
4457.05
4771.26
8527.82
4657.53
4801.45
4732.36
4525.34
4273.12
4126.19
4469.66
8125.88
4290.25
4405.99
4340.05
4157.74
3943.43
3835.93
4203.6
7768.54
3964.75
4058.52
3996.37
3835.78
3653.94
3579.93
3967.72
7449.25
3675.59
3751.93
3693.84
3552.36
3398.48
3353.1
3757.65
7162.65
3417.49
3480.07
3426.19
3301.62
3171.96
3151.2
3569.85
6904.56
3186.52
3238.09
3188.41
3078.81
2970.26
2970.87
3401.37
6671.57
2979
3021.79
2976.25
2880.01
2789.99
2808.82
3249.9
6460.76
2791.89
2827.66
2786.15
2701.86
2628.15
2662.88
3113.15
6269.63
2622.59
2652.76
2615.13
2541.58
2482.28
2531.02
2989.28
6095.99
2468.83
2494.55
2460.65
2396.79
2350.31
2411.48
2876.74
5937.92
2328.79
2350.95
2320.62
2265.53
2230.5
2302.75
2774.17
5793.67
2200.86
2220.19
2193.25
2146.11
2121.35
2203.52
2680.42
5661.65
2083.69
2100.78
2077.06
2037.13
2021.61
2112.69
2594.45
5540.43
1976.1
1991.43
1970.76
1937.38
1930.21
2029.32
2515.41
5428.76
1877.09
1891.04
1873.25
1845.87
1846.27
1952.59
2442.56
5325.59
1785.75
1798.67
1783.62
1761.73
1768.88
1881.89
2375.3
5230.01
1701.33
1713.5
1701.05
1684.2
1697.47
1816.58
2313.08
5141.28
1623.17
1634.82
1624.83
1612.6
1631.46
1756.13
2255.45
5058.82
1550.67
1562
1554.34
1546.38
1570.35
1700.11
2202
4982.15
1483.3
1494.47
1489.03
1485
1513.68
1648.11
2152.4
4910.86
1420.6
1431.74
1428.4
1428.04
1461.04
1599.77
2106.33
4844.62
1362.14
1373.37
1372.03
1375.02
1412.1
1554.8
2063.53
4783.15
1307.55
1318.95
1319.52
1325.62
1366.48
1512.88
2023.72
4726.14
1256.48
1268.11
1270.49
1279.52
1323.9
1473.76
1986.67
4673.3
1208.61
1220.53
1224.64
1236.4
1284.07
1437.18
1952.12
4624.29
1163.66
1175.92
1181.68
1196.02
1246.76
1402.92
1919.89
4578.83
1121.38
1134.02
1141.35
1158.11
1211.74
1370.78
1889.74
4536.58
1081.52
1094.58
1103.43
1122.47
1178.81
1340.58
1861.53
4497.22
1043.9
1057.41
1067.7
1088.9
1147.78
1312.13
1835.04
4460.43
1008.32
1022.31
1033.99
1057.23
1118.51
1285.31
1810.15
4425.92
974.623
989.12
1002.14
1027.3
1090.84
1259.97
1786.69
4393.44
942.655
957.68
971.99
998.976
1064.66
1235.99
1764.56
4362.74
912.299
927.869
943.422
972.14
1039.84
1213.27
1743.64
4333.69
883.414
899.546
916.3
946.667
1016.29
1191.71
1723.84
4306.07
855.916
872.622
890.536
922.47
993.905
1171.23
1705.07
4279.88
829.674
846.964
866
899.433
972.596
1151.74
1687.26
4254.9
804.638
822.517
842.639
877.502
952.309
1133.19
1670.36
4231.26
780.676
799.148
820.322
856.557
932.936
1115.49
1654.3
4208.72
757.773
776.838
799.032
836.581
914.462
1098.63
1639.05
4187.47
735.787
755.444
778.628
817.442
896.769
1082.5
1624.54
4167.19
714.744
734.991
759.136
799.167
879.881
1067.12
1610.77
4148.19
694.486
715.317
740.395
781.604
863.659
1052.38
1597.65
4130.03
675.085
696.495
722.484
764.83
848.172
1038.33
1585.22
4113.09
656.357
678.337
705.209
748.656
833.251
1024.82
1573.36
4096.85
638.427
660.972
688.705
733.219
819.022
1011.97
1562.14
4081.79
621.071
644.164
672.73
718.277
805.257
999.565
1551.41
4067.21
604.476
628.112
657.491
704.04
792.162
987.794
1541.3
4053.83
588.359
612.514
642.672
690.185
779.415
976.363
1531.55
4040.66
572.983
597.651
628.572
677.026
767.337
965.571
1522.44
4028.76
557.987
583.133
614.772
664.119
755.469
954.967
1513.52
4016.7
543.724
569.345
601.692
651.918
744.294
945.042
1505.29
4006.12
529.73
555.779
588.778
639.821
733.16
935.113
1497.02
3994.84
516.48
542.958
576.607
628.468
722.779
925.95
1489.58
3985.39
503.371
530.222
564.451
617.047
712.239
916.538
1481.76
3974.56
491.042
518.272
553.094
606.448
702.559
908.046
1475
3966.07
478.713
506.256
541.58
595.583
692.482
899.002
1467.45
3955.32
467.227
495.104
530.964
585.668
683.438
891.119
1461.32
3947.63
455.587
483.715
520.002
575.265
673.721
882.317
1453.84
3936.68
444.892
473.309
510.079
565.99
665.272
875.003
1448.29
3929.6
433.864
462.477
499.6
555.982
655.845
866.363
1440.79
3918.29
423.928
452.789
490.347
547.326
647.971
859.595
1435.78
3911.69
413.454
442.46
480.305
537.673
638.802
851.089
1428.23
3900.03
404.263
433.481
471.713
529.629
631.496
844.855
1423.72
3893.82
394.288
423.607
462.071
520.31
622.581
836.501
1416.17
3881.99
385.842
415.34
454.147
512.885
615.847
830.798
1412.14
3876.14
376.305
405.871
444.867
503.88
607.191
822.638
1404.71
3864.46
368.614
398.327
437.624
497.089
601.043
817.479
1401.14
3858.91
359.44
389.197
428.655
488.369
592.651
809.567
1393.98
3847.72
352.52
382.395
422.112
482.226
587.098
804.94
1390.77
3842.56
343.616
373.519
413.387
473.75
578.971
797.351
1384.15
3832.13
337.491
367.483
407.566
468.271
574.011
793.23
1381.28
3827.39
328.74
358.756
398.993
459.973
566.124
786.003
1375.26
3817.97
323.442
353.515
393.915
455.167
561.745
782.34
1372.66
3813.43
314.709
344.809
385.382
446.952
554.035
775.466
1367.24
3805.24
310.256
340.372
381.043
442.797
550.184
772.148
1364.83
3801.22
299.725
329.839
370.683
432.789
540.775
763.799
1358.21
3792.29
)
;

boundaryField
{
    frontAndBack
    {
        type            empty;
    }
    inlet
    {
        type            fixedValue;
        value           uniform 14.855;
    }
    outlet
    {
        type            zeroGradient;
    }
    walls
    {
        lowReCorrection 0;
        blending        stepwise;
        n               2;
        type            epsilonWallFunction;
        value           nonuniform List<scalar> 
228
(
112.724
141.424
210.097
257.591
369.051
443.457
614.739
724.909
971.319
1128.62
1109.21
1064.59
1122.21
1210.16
1238.94
1121.33
818.605
1980.1
1980.1
8031.98
19682.4
34077.3
42699.7
45211.9
44225.5
39754.8
34049
29390.3
26035.5
22999.3
20378.2
18167.6
16330.9
14802.3
13525.8
12451.9
11540.1
10759.4
10084.9
9497.16
8981.83
8527.82
8125.88
7768.54
7449.25
7162.65
6904.56
6671.57
6460.76
6269.63
6095.99
5937.92
5793.67
5661.65
5540.43
5428.76
5325.59
5230.01
5141.28
5058.82
4982.15
4910.86
4844.62
4783.15
4726.14
4673.3
4624.29
4578.83
4536.58
4497.22
4460.43
4425.92
4393.44
4362.74
4333.69
4306.07
4279.88
4254.9
4231.26
4208.72
4187.47
4167.19
4148.19
4130.03
4113.09
4096.85
4081.79
4067.21
4053.83
4040.66
4028.76
4016.7
4006.12
3994.84
3985.39
3974.56
3966.07
3955.32
3947.63
3936.68
3929.6
3918.29
3911.69
3900.03
3893.82
3881.99
3876.14
3864.46
3858.91
3847.72
3842.56
3832.13
3827.39
3817.97
3813.43
3805.24
3801.22
3792.29
105.878
146.649
198.304
265.83
349.961
456.093
585.628
743.683
931.827
1154.04
1464.73
1897.23
2399.1
2961.95
3563.16
4171.89
4745.98
5251.13
5655.16
5950.66
6132.57
6219.64
6207.04
6160.11
6061.22
5927.93
5777.66
5619.25
5459.1
5301.48
5149.37
5004.55
4867.81
4739.89
4620.8
4510.72
4409.16
4316.08
4230.95
4153.63
4083.48
4020.15
3963.07
3911.92
3866.41
3825.92
3790.28
3758.71
3731.37
3707.57
3687.47
3670.22
3655.82
3643.66
3633.73
3625.48
3618.82
3613.31
3608.9
3605.32
3602.52
3600.35
3598.87
3597.84
3597.74
3597.95
3598.55
3599.56
3601.04
3602.36
3604.24
3605.57
3607.29
3608.38
3609.52
3610.16
3610.43
3610.33
3609.95
3609.02
3607.86
3605.52
3603.24
3599.32
3595.65
3590.08
3584.97
3577.79
3571.29
3562.64
3555
3545.16
3536.69
3525.88
3516.78
3505.08
3495.48
3482.92
3472.94
3459.48
3449.27
3434.88
3424.63
3409.27
3399.31
3382.93
3373.59
3356.23
3347.39
3325.26
)
;
    }
}


// ************************************************************************* //
