/*--------------------------------*- C++ -*----------------------------------*\
| =========                 |                                                 |
| \\      /  F ield         | OpenFOAM: The Open Source CFD Toolbox           |
|  \\    /   O peration     | Version:  v2012                                 |
|   \\  /    A nd           | Website:  www.openfoam.com                      |
|    \\/     M anipulation  |                                                 |
\*---------------------------------------------------------------------------*/
FoamFile
{
    version     2.0;
    format      ascii;
    class       volScalarField;
    location    "0.343";
    object      nut.air;
}
// * * * * * * * * * * * * * * * * * * * * * * * * * * * * * * * * * * * * * //

dimensions      [0 2 -1 0 0 0 0];


internalField   nonuniform List<scalar> 
5600
(
2.45137e-05
3.47343e-05
4.04098e-05
4.24623e-05
4.22723e-05
4.09699e-05
3.92094e-05
3.75385e-05
3.61135e-05
3.49465e-05
3.40612e-05
3.34371e-05
3.30371e-05
3.28048e-05
3.26958e-05
3.26597e-05
3.26714e-05
3.2698e-05
3.27371e-05
3.27663e-05
3.28012e-05
3.28209e-05
3.28513e-05
3.28751e-05
3.29122e-05
3.29409e-05
3.29801e-05
3.30113e-05
3.30505e-05
3.30787e-05
3.31119e-05
3.31318e-05
3.31556e-05
3.3166e-05
3.31822e-05
3.31859e-05
3.3197e-05
3.31964e-05
3.32045e-05
3.32013e-05
3.32081e-05
3.32038e-05
3.32107e-05
3.32063e-05
3.32142e-05
3.32106e-05
3.32198e-05
3.32168e-05
3.32272e-05
3.3224e-05
3.32357e-05
3.32323e-05
3.32445e-05
3.32414e-05
3.3255e-05
3.3252e-05
3.32672e-05
3.32646e-05
3.32816e-05
3.32796e-05
3.32988e-05
3.32966e-05
3.33181e-05
3.33157e-05
3.33395e-05
3.33365e-05
3.33628e-05
3.33591e-05
3.33881e-05
3.33833e-05
3.34153e-05
3.3409e-05
3.34444e-05
3.34364e-05
3.34754e-05
3.34653e-05
3.35081e-05
3.3496e-05
3.35422e-05
3.35284e-05
3.35768e-05
3.35628e-05
3.36106e-05
3.36003e-05
3.36415e-05
3.36436e-05
3.36648e-05
3.36991e-05
3.3671e-05
3.37818e-05
3.36401e-05
3.39263e-05
3.35128e-05
3.42324e-05
3.31013e-05
3.50348e-05
3.1731e-05
3.75753e-05
2.64747e-05
4.7042e-05
0.000151654
0.000137411
0.000112244
9.86282e-05
9.38999e-05
9.49496e-05
0.0001021
0.000110118
0.000116485
0.000124313
0.000132732
0.000141231
0.000149476
0.000157248
0.000164432
0.000170934
0.000176813
0.000182054
0.000186793
0.000191042
0.00019501
0.000198591
0.000202118
0.000205339
0.000208509
0.00021131
0.000214078
0.000216511
0.000218892
0.00022089
0.000222823
0.000224385
0.000225926
0.000227149
0.000228416
0.000229394
0.000230459
0.000231251
0.000232168
0.000232822
0.000233635
0.000234191
0.000234933
0.000235412
0.000236127
0.000236565
0.000237249
0.000237635
0.000238277
0.000238605
0.000239218
0.000239487
0.000240078
0.00024031
0.000240888
0.000241081
0.000241664
0.000241825
0.000242418
0.000242555
0.000243155
0.000243255
0.000243875
0.000243936
0.000244579
0.000244599
0.00024527
0.000245245
0.000245949
0.000245871
0.000246624
0.000246489
0.000247296
0.000247096
0.000247965
0.000247694
0.000248633
0.000248289
0.000249295
0.000248879
0.00024994
0.000249469
0.000250546
0.000250076
0.000251083
0.00025074
0.000251491
0.000251555
0.00025165
0.00025275
0.00025129
0.000254692
0.000249812
0.000258249
0.000245746
0.000265734
0.000235357
0.000282727
0.000209769
0.000288333
0.000156518
0.000151561
0.000143044
0.000135159
0.000125257
0.000120722
0.000113773
0.000109698
0.000108716
0.0001098
0.000112691
0.000117422
0.000123689
0.00013136
0.000140262
0.000150357
0.000161498
0.000173777
0.000187125
0.000201698
0.00021707
0.000232802
0.000246171
0.00025835
0.000270148
0.000281002
0.000290616
0.000298315
0.000305527
0.000311689
0.000317728
0.000322968
0.000328301
0.000332832
0.000337504
0.000341387
0.000345493
0.000348842
0.0003525
0.000355427
0.000358738
0.000361327
0.000364367
0.000366682
0.000369499
0.000371534
0.000374113
0.000375889
0.000378273
0.000379829
0.000382066
0.000383439
0.000385565
0.000386786
0.000388838
0.000389921
0.000391922
0.000392874
0.00039484
0.000395665
0.00039761
0.000398305
0.000400246
0.00040081
0.000402765
0.000403193
0.000405181
0.000405471
0.000407512
0.00040766
0.000409775
0.000409768
0.000411984
0.000411797
0.000414144
0.000413744
0.000416256
0.000415603
0.000418309
0.000417364
0.000420305
0.000419026
0.00042225
0.000420595
0.000424162
0.000422068
0.00042607
0.000423436
0.000428019
0.000424656
0.000430107
0.000425585
0.000432588
0.000425888
0.000436119
0.000424831
0.000442202
0.00042136
0.000431721
0.000409301
0.00015782
0.000153991
0.000150101
0.000146744
0.000142723
0.000139186
0.000135628
0.000131423
0.000128282
0.000124809
0.000123093
0.000119899
0.000117482
0.000115641
0.000115609
0.000116673
0.000119885
0.000124562
0.000131367
0.000139699
0.000150249
0.000162273
0.000176368
0.000191119
0.000207231
0.000223404
0.000238993
0.000252578
0.000266721
0.000279632
0.000293135
0.000305199
0.000317791
0.000329042
0.000340709
0.000351043
0.000361826
0.000371311
0.000381299
0.000389949
0.000399115
0.00040685
0.000415363
0.000422012
0.000428662
0.000433754
0.000439811
0.00044431
0.000449912
0.000453922
0.000459171
0.000462769
0.000467739
0.000470978
0.000475727
0.000478639
0.000483219
0.000485829
0.000490277
0.0004926
0.000496948
0.000498988
0.00050327
0.000505029
0.00050928
0.000510762
0.000515018
0.000516219
0.000520522
0.000521431
0.000525817
0.000526416
0.000530932
0.000531177
0.000535876
0.000535713
0.000540672
0.000540004
0.000545294
0.000544028
0.000549766
0.000547791
0.000554135
0.000551292
0.000558462
0.000554507
0.000562832
0.00055738
0.00056735
0.000559825
0.00057216
0.000561724
0.000577424
0.000563062
0.000583113
0.00056423
0.000588491
0.000566627
0.000591871
0.000571812
0.00015812
0.000154598
0.000151656
0.000149046
0.000146778
0.000144436
0.000142539
0.000140277
0.00013856
0.000136345
0.000134861
0.000132736
0.000131156
0.000128894
0.000127415
0.000125342
0.000124326
0.000121663
0.000121114
0.000119624
0.00012092
0.000121766
0.000125825
0.000129855
0.000137198
0.00014457
0.000155149
0.000165617
0.000178876
0.000191868
0.000207208
0.000222003
0.000235665
0.000247551
0.000261114
0.000272997
0.000286524
0.000298275
0.000311713
0.000323291
0.000336542
0.000347857
0.000360897
0.000371805
0.000384296
0.000394467
0.000406257
0.000415665
0.000426837
0.000435553
0.000446209
0.000454279
0.00046446
0.000471902
0.000481784
0.000488663
0.000498192
0.000504512
0.000513743
0.000519494
0.000528478
0.000533651
0.000542433
0.000547022
0.000555643
0.000559667
0.0005682
0.00057167
0.000580175
0.000583121
0.000591681
0.000594119
0.000602738
0.000604654
0.000613387
0.000614667
0.000622781
0.000622874
0.000631338
0.000630607
0.000639581
0.000637909
0.000647578
0.000644802
0.000655389
0.000651297
0.000663064
0.000657407
0.000670619
0.0006632
0.000677977
0.000668867
0.000684861
0.000674879
0.000690528
0.000682036
0.000694413
0.000691076
0.000696389
0.000700595
0.000158192
0.00015477
0.000152061
0.000149655
0.000147748
0.000145803
0.000144366
0.000142624
0.000141518
0.000139823
0.000139003
0.000137274
0.000136743
0.000134883
0.00013465
0.00013259
0.000132707
0.000130299
0.000130626
0.00012791
0.000128553
0.00012572
0.000126877
0.000123983
0.000125384
0.000123035
0.000125523
0.00012461
0.000128858
0.000130121
0.000136661
0.000140574
0.000149646
0.000156033
0.000167251
0.000175796
0.000188913
0.00019929
0.000214059
0.000225948
0.000242112
0.000251826
0.000264431
0.00027413
0.000287144
0.000297094
0.000310335
0.000320331
0.000333662
0.000343591
0.000356964
0.000366761
0.000380134
0.000389767
0.00040323
0.000412614
0.000425893
0.000434801
0.000447857
0.000456164
0.00046899
0.000476703
0.00048935
0.00049647
0.000508977
0.000515552
0.00052795
0.000534006
0.000546465
0.000552176
0.000564688
0.000569833
0.000582313
0.00058687
0.000599338
0.00060327
0.000615737
0.00061897
0.00063143
0.000633923
0.000646322
0.000648219
0.00066048
0.000661978
0.000673927
0.000675291
0.000686662
0.000688291
0.000698588
0.000701112
0.000709589
0.000713787
0.00071996
0.000726164
0.000730018
0.00073746
0.000740986
0.000746738
0.000755291
0.000761685
0.000158212
0.000154826
0.000152181
0.00014984
0.000148032
0.000146187
0.000144903
0.00014328
0.000142396
0.000140832
0.000140291
0.000138689
0.000138469
0.000136751
0.000136864
0.000134957
0.000135427
0.000133278
0.000134115
0.000131681
0.000132897
0.000130144
0.000131776
0.000128662
0.000130693
0.00012718
0.000129681
0.00012582
0.000128868
0.000124821
0.000128433
0.000124186
0.000128406
0.000124586
0.000129701
0.00012689
0.00013317
0.00013192
0.000139635
0.000140366
0.000149745
0.000152642
0.000163602
0.000168355
0.000180781
0.000187233
0.000201006
0.00020894
0.000223905
0.000233067
0.000249068
0.00025921
0.000275423
0.000282414
0.000295164
0.000302531
0.000315683
0.000323224
0.000336664
0.000344307
0.000357986
0.000365655
0.000379514
0.000387159
0.000401186
0.00040877
0.00042294
0.000430402
0.000444813
0.000452232
0.000466766
0.000473943
0.000488443
0.000495267
0.000509653
0.00051609
0.000530328
0.00053647
0.000550493
0.000556392
0.00057006
0.00057586
0.000589074
0.000594924
0.000607568
0.000613706
0.000625381
0.000632146
0.000642568
0.000650203
0.000659198
0.000667843
0.000675506
0.000684741
0.000691722
0.000700711
0.000708316
0.000716681
0.000726373
0.000738958
0.000158218
0.000154849
0.000152219
0.000149911
0.00014812
0.000146325
0.000145066
0.000143508
0.000142654
0.000141185
0.000140661
0.000139199
0.000138972
0.00013744
0.000137522
0.000135841
0.000136252
0.000134376
0.000135113
0.000133019
0.000134086
0.000131735
0.000133167
0.000130508
0.000132342
0.000129331
0.000131599
0.000128203
0.000130939
0.00012713
0.000130379
0.000126103
0.00012989
0.000125158
0.000129501
0.000124373
0.000129277
0.000123856
0.000129365
0.000123642
0.000129694
0.000123969
0.000130679
0.000125354
0.00013277
0.000128275
0.000136497
0.000133232
0.000142379
0.000140651
0.000150859
0.000150855
0.000162202
0.000163965
0.000176314
0.000179581
0.000192896
0.000197567
0.000211793
0.000217755
0.000232805
0.000239902
0.000255669
0.00026373
0.000280109
0.000288968
0.00030584
0.000312452
0.000325166
0.000330782
0.000343522
0.000349564
0.000362471
0.000368981
0.000381905
0.000388931
0.000401788
0.000409196
0.000421926
0.000429826
0.000442308
0.000450752
0.000462881
0.000471929
0.000483626
0.000493345
0.000504536
0.00051494
0.000525638
0.000536676
0.000547047
0.000558564
0.000568642
0.000580635
0.000590535
0.000603174
0.000612922
0.000627054
0.000637432
0.000655469
0.000158219
0.000154865
0.000152226
0.000149951
0.000148139
0.000146398
0.000145103
0.000143626
0.000142707
0.000141366
0.000140729
0.000139458
0.000139062
0.000137784
0.000137642
0.000136284
0.0001364
0.00013494
0.000135284
0.000133719
0.000134282
0.000132578
0.000133388
0.000131505
0.000132575
0.000130496
0.000131829
0.000129541
0.00013115
0.000128624
0.000130541
0.000127742
0.000129984
0.000126912
0.000129465
0.000126146
0.000128994
0.000125423
0.00012862
0.000124734
0.000128319
0.000124124
0.000128078
0.000123638
0.000127932
0.000123301
0.000127939
0.000123178
0.000128175
0.000123292
0.000128596
0.000123765
0.000129424
0.000124834
0.0001309
0.000126833
0.000133335
0.000130065
0.000137045
0.000134857
0.000142388
0.00014149
0.000149636
0.00015018
0.000159027
0.000161109
0.000170677
0.000174326
0.000184515
0.000189519
0.000200239
0.000206508
0.000217745
0.000225244
0.000236985
0.000245631
0.000257793
0.000267515
0.000280014
0.000290746
0.000303483
0.000315099
0.000328004
0.000340386
0.000353423
0.000366456
0.000379559
0.000393127
0.000406262
0.000420245
0.000432819
0.000447371
0.000460049
0.000475065
0.000488207
0.000502611
0.000515541
0.000529994
0.000542444
0.000556688
0.000158216
0.000154876
0.000152223
0.000149979
0.000148135
0.000146446
0.000145095
0.000143705
0.00014269
0.000141486
0.000140701
0.000139624
0.000139023
0.000138001
0.00013759
0.000136564
0.000136328
0.000135293
0.000135189
0.000134151
0.000134166
0.000133097
0.000133245
0.000132122
0.000132396
0.000131225
0.000131607
0.000130388
0.000130881
0.000129591
0.000130214
0.000128835
0.000129585
0.000128132
0.000128977
0.000127482
0.000128396
0.000126856
0.000127873
0.000126245
0.000127384
0.000125686
0.000126903
0.000125184
0.000126451
0.00012473
0.000126036
0.00012433
0.000125677
0.000123991
0.000125365
0.000123723
0.000125141
0.000123541
0.000124994
0.000123505
0.000124977
0.000123648
0.000125137
0.000124045
0.00012556
0.000124805
0.000126374
0.00012597
0.000127671
0.00012776
0.000129709
0.000130411
0.000132703
0.00013424
0.000137012
0.000139471
0.000142865
0.000146369
0.00015057
0.00015524
0.000160301
0.000166241
0.000172243
0.00017955
0.000186587
0.000195208
0.000203334
0.00021324
0.00022251
0.000233646
0.000244003
0.00025625
0.000267672
0.000280965
0.00029342
0.000307636
0.000321038
0.00033613
0.000350363
0.000366066
0.000380903
0.000396998
0.000412258
0.000428432
0.000158214
0.000154882
0.000152216
0.000149989
0.000148122
0.000146466
0.00014507
0.000143739
0.00014265
0.000141535
0.000140645
0.000139689
0.00013895
0.000138086
0.000137493
0.000136675
0.000136204
0.000135429
0.00013504
0.000134311
0.000133992
0.000133283
0.000133041
0.000132341
0.000132158
0.000131479
0.000131333
0.000130677
0.00013057
0.000129918
0.000129864
0.000129201
0.000129197
0.000128534
0.000128557
0.000127917
0.000127949
0.000127329
0.000127394
0.000126763
0.000126874
0.000126251
0.000126377
0.000125789
0.000125924
0.000125381
0.000125522
0.000125035
0.000125185
0.00012476
0.000124923
0.000124573
0.000124779
0.000124505
0.000124758
0.000124619
0.000124929
0.000124964
0.000125364
0.000125616
0.000126095
0.000126676
0.000127313
0.000128304
0.000129245
0.000130762
0.000132174
0.000134314
0.000136306
0.000139264
0.000141993
0.000145849
0.000149466
0.000154311
0.000158973
0.00016491
0.000170659
0.000177755
0.000184645
0.00019296
0.000201047
0.000210537
0.000219815
0.000230344
0.000240641
0.000252123
0.00026337
0.000275731
0.000287907
0.000301104
0.000314177
0.000328121
0.000341989
0.000356591
0.000371191
0.000386397
0.000401692
0.000417459
0.000433492
0.000449939
0.000158211
0.000154881
0.000152206
0.000149983
0.0001481
0.000146454
0.00014503
0.000143723
0.00014259
0.000141509
0.000140565
0.00013965
0.000138844
0.000138037
0.000137353
0.000136614
0.000136027
0.000135351
0.000134829
0.000134208
0.000133743
0.000133157
0.000132749
0.00013219
0.000131821
0.000131301
0.000130952
0.000130473
0.000130144
0.000129695
0.000129395
0.000128968
0.000128698
0.000128299
0.000128055
0.000127698
0.000127477
0.000127169
0.000126983
0.000126711
0.000126579
0.000126376
0.000126297
0.000126198
0.000126206
0.00012625
0.00012639
0.000126586
0.000126862
0.000127302
0.000127847
0.000128681
0.000129669
0.000131049
0.000132654
0.000134771
0.00013718
0.000140203
0.000143598
0.000147689
0.000152207
0.000157497
0.000163222
0.000169772
0.000176769
0.000184515
0.000192563
0.00020132
0.000210366
0.000220117
0.000230115
0.000240795
0.000251683
0.000263208
0.000274907
0.000287188
0.000299581
0.000312505
0.00032547
0.000338931
0.000352358
0.000366237
0.000377431
0.000387779
0.000398225
0.000408898
0.000419941
0.000431305
0.000442901
0.000454929
0.000467244
0.000479975
0.000493022
0.000506518
0.000520336
0.000534598
0.000549033
0.000563792
0.000578131
0.000592451
0.000158208
0.000154873
0.000152189
0.000149959
0.000148061
0.000146409
0.00014496
0.000143649
0.000142481
0.000141396
0.000140413
0.000139488
0.000138636
0.000137822
0.000137077
0.000136339
0.000135677
0.000135003
0.0001344
0.00013378
0.000133231
0.000132646
0.00013215
0.000131595
0.00013114
0.000130623
0.000130198
0.000129729
0.000129341
0.000128923
0.000128568
0.000128198
0.000127908
0.000127618
0.000127441
0.000127288
0.000127304
0.000127351
0.000127523
0.000127863
0.000128475
0.000129374
0.000130677
0.000132414
0.000134704
0.000137561
0.000141109
0.000145352
0.000150383
0.000156176
0.000162808
0.000170195
0.00017822
0.000186973
0.000196329
0.000206368
0.00021696
0.000228172
0.000239877
0.000252121
0.000264785
0.000277905
0.000291362
0.000305197
0.000317299
0.000326978
0.000336685
0.000346557
0.000356601
0.000366786
0.000377148
0.000387625
0.000398152
0.000408815
0.000419528
0.000430354
0.000441222
0.000452179
0.00046317
0.000474218
0.000485299
0.000496402
0.00050754
0.000518775
0.00053003
0.000541311
0.000552558
0.000563767
0.000574911
0.000586001
0.000597035
0.000608047
0.00061901
0.000629959
0.000640827
0.000651681
0.000662332
0.00067285
0.000682869
0.000692632
0.000158201
0.000154852
0.000152147
0.000149894
0.000147964
0.00014628
0.000144784
0.000143431
0.000142201
0.000141062
0.000140002
0.000139012
0.000138069
0.000137185
0.000136332
0.000135527
0.000134743
0.000134
0.000133261
0.000132567
0.000131873
0.000131219
0.000130581
0.000129925
0.00012932
0.00012872
0.000128213
0.000127778
0.000127519
0.00012733
0.000127252
0.000127558
0.000128201
0.000129469
0.000131313
0.000134011
0.000137506
0.000142041
0.000147548
0.000154178
0.000161718
0.000170213
0.000179564
0.000189788
0.000200797
0.000212559
0.000225018
0.000238086
0.000251766
0.000265901
0.000279408
0.000289755
0.00030046
0.000311288
0.000322239
0.000333342
0.000344534
0.000355833
0.000367183
0.000378605
0.000390054
0.000401553
0.000413062
0.0004246
0.000436121
0.000447746
0.000459389
0.000470994
0.000482529
0.000493937
0.000505229
0.000516371
0.000527373
0.000538221
0.000548972
0.00055956
0.000570043
0.000580359
0.00059058
0.000600625
0.000610602
0.000620381
0.000630098
0.000639755
0.000649378
0.000658913
0.000668272
0.000677501
0.000686592
0.000695543
0.000704326
0.000712987
0.000721466
0.000729801
0.000737947
0.000745886
0.000753686
0.000761095
0.000767913
0.000774303
0.00015818
0.000154796
0.000152025
0.000149708
0.000147678
0.000145885
0.00014425
0.000142741
0.000141336
0.000139995
0.000138742
0.000137534
0.000136376
0.000135254
0.000134154
0.000133115
0.000132007
0.000130919
0.000129756
0.000128737
0.000127686
0.000126987
0.000126196
0.000125612
0.000125492
0.000126049
0.00012749
0.000130018
0.000133761
0.000138904
0.000145436
0.000153382
0.000162455
0.000172791
0.00018412
0.000196526
0.000209803
0.000223959
0.000238874
0.000252112
0.000263732
0.000275573
0.000287594
0.000299794
0.000312069
0.000324415
0.000336755
0.000349119
0.000361437
0.000373759
0.000385975
0.000398238
0.00041042
0.000422465
0.000434317
0.000445961
0.000457373
0.000468563
0.000479524
0.000490274
0.000500821
0.000511177
0.000521355
0.00053135
0.000541168
0.000550921
0.000560599
0.000570086
0.000579434
0.00058859
0.000597609
0.000606428
0.000615118
0.000623601
0.00063191
0.000639992
0.000647893
0.000655585
0.000663105
0.000670456
0.00067765
0.000684643
0.000691522
0.000698229
0.000704847
0.00071133
0.000717709
0.000723959
0.00073011
0.000736156
0.000742097
0.000747905
0.000753594
0.000759156
0.000764653
0.000769892
0.000775098
0.00077989
0.000784287
0.000788344
0.000158113
0.000154621
0.000151612
0.000149104
0.000146667
0.000144525
0.000142364
0.000140373
0.000138358
0.000136484
0.000134756
0.000132829
0.000131009
0.000129043
0.000127407
0.000125791
0.000124095
0.000122535
0.000121921
0.000122155
0.000123946
0.0001271
0.000132223
0.000138945
0.000147625
0.000157902
0.00016984
0.000183109
0.000197723
0.000213312
0.000228934
0.000242196
0.000255553
0.000268981
0.000282357
0.000295725
0.000309002
0.000322251
0.000335341
0.000348353
0.000361185
0.000373823
0.000386136
0.000398074
0.000409589
0.00042074
0.000431499
0.000441959
0.000452058
0.000461895
0.000471348
0.000480613
0.000489589
0.000498318
0.0005068
0.000515047
0.000523055
0.000530836
0.00053839
0.000545727
0.000552854
0.00055978
0.000566518
0.000573072
0.000579461
0.000585679
0.000591778
0.000597723
0.000603563
0.00060925
0.000614853
0.000620298
0.000625693
0.000630429
0.000634843
0.000639138
0.000643333
0.000647423
0.00065143
0.000655339
0.00065918
0.000662928
0.000666622
0.000670226
0.000673787
0.000677261
0.000680701
0.00068405
0.000687375
0.000690604
0.000693819
0.000696935
0.000700046
0.000703057
0.000706065
0.000708967
0.000711865
0.000714637
0.00071734
0.000719896
0.000157849
0.000153942
0.0001501
0.000146711
0.000142569
0.00013933
0.000135252
0.000131833
0.0001282
0.000126014
0.000123572
0.000120696
0.00011865
0.000117785
0.000118586
0.000121029
0.000125566
0.00013189
0.000140407
0.000150792
0.000163414
0.000177689
0.000193332
0.000209789
0.000227092
0.000242473
0.000257122
0.000271489
0.000285536
0.000299172
0.00031229
0.000324998
0.000337193
0.0003489
0.000360094
0.000370861
0.000381148
0.000391039
0.000400401
0.000409337
0.000417817
0.000426066
0.00043304
0.000439198
0.000445007
0.000450519
0.00045576
0.000460769
0.000465558
0.000470161
0.000474581
0.000478845
0.000482954
0.000486931
0.000490773
0.0004945
0.000498108
0.000501614
0.000505013
0.000508319
0.00051153
0.000514657
0.000517703
0.000520675
0.000523575
0.000526409
0.000529182
0.000531895
0.000534552
0.000537147
0.000539694
0.00054218
0.00054462
0.00054701
0.000549339
0.000551606
0.000553819
0.000555974
0.000558085
0.000560141
0.000562165
0.000564135
0.000566081
0.000567977
0.000569858
0.000571689
0.000573514
0.000575287
0.000577061
0.000578777
0.0005805
0.000582161
0.000583839
0.000585446
0.000587078
0.000588622
0.000590198
0.000591648
0.000593042
0.000594293
0.000156641
0.000151208
0.000143351
0.000134628
0.000126078
0.00012099
0.000115009
0.000112504
0.000112457
0.00011419
0.000117961
0.000123463
0.000130605
0.000139124
0.000149055
0.000160159
0.000172603
0.000186205
0.000201284
0.000217285
0.000233493
0.000246947
0.000259667
0.000271868
0.000283091
0.000294115
0.00030263
0.000310053
0.00031674
0.000322879
0.000328612
0.000333955
0.000338909
0.000343511
0.000347777
0.00035176
0.000355473
0.00035897
0.000362253
0.00036537
0.000368316
0.000371131
0.000373813
0.000376352
0.000378747
0.000381014
0.000383159
0.000385201
0.000387146
0.000389013
0.000390802
0.000392533
0.000394202
0.000395821
0.000397386
0.000398908
0.000400382
0.000401819
0.000403212
0.000404571
0.000405891
0.000407181
0.000408438
0.000409668
0.00041087
0.000412048
0.000413205
0.000414342
0.000415461
0.000416559
0.000417643
0.000418705
0.000419752
0.000420779
0.000421789
0.000422775
0.000423741
0.000424682
0.000425607
0.000426508
0.000427399
0.000428265
0.000429126
0.000429964
0.000430801
0.000431615
0.000432434
0.000433229
0.000434033
0.00043481
0.0004356
0.000436359
0.000437138
0.000437878
0.000438645
0.000439353
0.000440097
0.000440743
0.000441344
0.000441814
0.000151621
0.000136816
0.000113478
9.95199e-05
9.7602e-05
9.81306e-05
0.000110573
0.000115045
0.000121818
0.000129687
0.000137976
0.000146235
0.000154211
0.000161681
0.000168583
0.000174823
0.000180491
0.000185568
0.000190197
0.000194425
0.000198337
0.000202069
0.000205554
0.00020885
0.00021187
0.000214679
0.000217312
0.000219723
0.000221894
0.000223822
0.000225517
0.000227019
0.000228355
0.000229554
0.00023063
0.000231604
0.000232487
0.000233297
0.000234043
0.000234739
0.000235393
0.000236004
0.000236596
0.000237174
0.000237731
0.000238264
0.000238769
0.00023925
0.000239705
0.000240141
0.000240557
0.00024096
0.000241349
0.000241732
0.000242104
0.000242472
0.000242833
0.000243191
0.000243543
0.000243891
0.000244235
0.000244573
0.00024491
0.00024524
0.000245565
0.000245888
0.000246207
0.000246524
0.000246839
0.000247153
0.000247465
0.000247776
0.000248087
0.000248397
0.000248707
0.000249014
0.00024932
0.000249621
0.00024992
0.000250212
0.000250502
0.000250785
0.000251068
0.000251343
0.000251621
0.000251891
0.000252165
0.000252433
0.000252706
0.000252972
0.000253244
0.00025351
0.000253782
0.000254049
0.000254319
0.000254582
0.000254849
0.000255065
0.000255286
0.000255444
2.45432e-05
3.47523e-05
4.04101e-05
4.23028e-05
4.20136e-05
4.05608e-05
3.87137e-05
3.70559e-05
3.56101e-05
3.44451e-05
3.35764e-05
3.29762e-05
3.25986e-05
3.2385e-05
3.22871e-05
3.22583e-05
3.22697e-05
3.2298e-05
3.23311e-05
3.23649e-05
3.23935e-05
3.24264e-05
3.24614e-05
3.24994e-05
3.2539e-05
3.25762e-05
3.26142e-05
3.26515e-05
3.26862e-05
3.27167e-05
3.27415e-05
3.27607e-05
3.27749e-05
3.27852e-05
3.27918e-05
3.27959e-05
3.27976e-05
3.2798e-05
3.27971e-05
3.27957e-05
3.27941e-05
3.27925e-05
3.27911e-05
3.27905e-05
3.27903e-05
3.27907e-05
3.27914e-05
3.27925e-05
3.27936e-05
3.2795e-05
3.27966e-05
3.27986e-05
3.28009e-05
3.28039e-05
3.28074e-05
3.28116e-05
3.28164e-05
3.28219e-05
3.28281e-05
3.28348e-05
3.28422e-05
3.28501e-05
3.28587e-05
3.28677e-05
3.28773e-05
3.28872e-05
3.28977e-05
3.29087e-05
3.29201e-05
3.29321e-05
3.29447e-05
3.29577e-05
3.29712e-05
3.29852e-05
3.29996e-05
3.30144e-05
3.30297e-05
3.30451e-05
3.30609e-05
3.30767e-05
3.30929e-05
3.3109e-05
3.31255e-05
3.31419e-05
3.31588e-05
3.31756e-05
3.31928e-05
3.321e-05
3.32277e-05
3.32454e-05
3.32637e-05
3.32817e-05
3.33007e-05
3.3319e-05
3.33391e-05
3.33577e-05
3.33784e-05
3.33985e-05
3.34187e-05
3.34393e-05
1.73836e-05
0.00068249
0.00119353
0.00158364
0.00194058
0.00222094
0.00242702
0.00246846
0.0024604
0.00244548
0.00242914
0.00241997
0.00242316
0.00243665
0.00245634
0.00248163
0.00251184
0.00254751
0.00259041
0.0026392
0.00269451
0.00275513
0.00281909
0.00288754
0.00296158
0.00303812
0.00311413
0.00319177
0.00326501
0.00333944
0.00335839
0.00336305
0.00336523
0.00336496
0.00336247
0.00335791
0.00335153
0.00334348
0.00333388
0.00332285
0.00331048
0.00329687
0.00328207
0.00326614
0.00324911
0.00323108
0.00321199
0.003192
0.00317097
0.00314911
0.00312615
0.00310244
0.0030775
0.00305191
0.00302498
0.00299752
0.00296851
0.00293919
0.002908
0.0028769
0.00284341
0.00281049
0.00277444
0.00273977
0.0027011
0.00266457
0.00262302
0.00258466
0.00254065
0.00250049
0.00245522
0.00241336
0.00236973
0.00232675
0.00228674
0.00224409
0.00220845
0.00216999
0.00213866
0.00210579
0.0020785
0.00205072
0.00202899
0.00200574
0.00198774
0.00196647
0.00194969
0.00193063
0.00191346
0.00189786
0.00187301
0.00186137
0.00182573
0.00182203
0.00178248
0.00178221
0.00174595
0.00173361
0.00170918
0.00168296
0.000170837
0.000440246
0.000877653
0.00126718
0.00161516
0.0018962
0.0021102
0.0022597
0.00236357
0.0023603
0.00234109
0.0023316
0.00232916
0.00233281
0.00234255
0.00235894
0.00238188
0.00241123
0.0024483
0.00249033
0.0025362
0.00258613
0.00263998
0.00269812
0.0027625
0.00283167
0.00290389
0.0029799
0.00306369
0.00315083
0.00323839
0.00325489
0.0032631
0.00326834
0.00327097
0.00327123
0.00326945
0.00326577
0.00326035
0.0032533
0.00324474
0.00323476
0.00322344
0.00321082
0.00319695
0.00318192
0.00316569
0.0031484
0.00312993
0.00311048
0.0030898
0.00306821
0.00304526
0.00302149
0.00299625
0.00297033
0.00294271
0.00291462
0.00288451
0.00285436
0.00282164
0.0027894
0.00275387
0.00271962
0.00268126
0.00264496
0.00260361
0.00256535
0.00252158
0.00248153
0.00243674
0.00239516
0.00235243
0.00231011
0.00227155
0.00223004
0.00219646
0.00215981
0.00213114
0.00210083
0.00207652
0.00205192
0.00203338
0.00201373
0.00199896
0.00198103
0.00196725
0.00195064
0.00193657
0.00192223
0.00190076
0.00188891
0.00185673
0.00185175
0.00181617
0.00181451
0.00178299
0.00176921
0.00174842
0.00172002
0.000472476
0.000384945
0.000567097
0.000877004
0.0012037
0.0014838
0.00170601
0.00187012
0.00199058
0.0020769
0.00214188
0.00219849
0.00221561
0.0022205
0.00223163
0.00225043
0.00227652
0.00230829
0.00234321
0.00238008
0.00241915
0.00246102
0.00250699
0.00255619
0.00261043
0.00266954
0.00273417
0.00280292
0.0028833
0.00296523
0.00306997
0.00311731
0.00313313
0.00314523
0.00315422
0.00316043
0.00316427
0.00316592
0.00316552
0.00316323
0.0031592
0.00315352
0.00314628
0.00313755
0.00312736
0.00311582
0.0031029
0.00308873
0.00307322
0.00305655
0.00303849
0.00301934
0.00299869
0.00297703
0.00295375
0.0029296
0.00290361
0.00287697
0.00284813
0.00281911
0.00278734
0.00275591
0.00272104
0.00268732
0.0026494
0.00261339
0.00257237
0.00253427
0.0024909
0.00245102
0.00240692
0.00236574
0.00232422
0.00228276
0.00224606
0.00220601
0.00217499
0.00214058
0.00211512
0.00208784
0.00206709
0.00204618
0.00203137
0.0020158
0.00200477
0.00199053
0.00198026
0.00196625
0.00195579
0.00194264
0.00192521
0.00191288
0.00188495
0.00187832
0.00184744
0.00184414
0.00181804
0.00180305
0.00178652
0.0017567
0.000592851
0.000584683
0.000544547
0.000614057
0.000798833
0.00102202
0.00122979
0.00139959
0.00153368
0.00163841
0.00172149
0.00179468
0.00186003
0.0019221
0.00198424
0.00204845
0.00211443
0.00217413
0.00221372
0.00225349
0.00229502
0.00233878
0.0023861
0.00243517
0.00248746
0.00254297
0.00260363
0.00266733
0.00273973
0.00281106
0.00290155
0.0029411
0.00296663
0.00298757
0.00300472
0.00301855
0.00302956
0.00303792
0.00304384
0.00304747
0.00304901
0.00304858
0.00304629
0.00304221
0.00303642
0.003029
0.00301998
0.00300946
0.0029974
0.00298395
0.00296894
0.0029526
0.00293462
0.00291538
0.00289438
0.00287228
0.00284817
0.0028232
0.00279587
0.00276816
0.00273753
0.00270706
0.00267301
0.00263992
0.0026026
0.00256694
0.00252643
0.00248851
0.00244575
0.00240613
0.00236302
0.00232243
0.00228253
0.00224226
0.00220795
0.00216983
0.00214201
0.0021104
0.00208886
0.00206523
0.0020487
0.00203209
0.0020216
0.0020106
0.00200383
0.00199362
0.00198735
0.00197606
0.00196975
0.0019576
0.00194489
0.00193174
0.00190887
0.0019002
0.00187477
0.00186954
0.00184946
0.00183352
0.00182175
0.00179142
0.000700071
0.00070623
0.000689857
0.000664569
0.000666027
0.0007234
0.000820987
0.000935145
0.00104664
0.0011485
0.00123745
0.0013195
0.00139651
0.00147126
0.00154571
0.00162193
0.00169971
0.00177973
0.00185942
0.00193889
0.00201786
0.0020956
0.00217154
0.00224503
0.00231613
0.00238389
0.00244887
0.00250985
0.00256774
0.00262031
0.00267142
0.00271553
0.00275326
0.00278551
0.00281319
0.00283686
0.00285715
0.00287416
0.00288814
0.0028993
0.00290787
0.002914
0.00291785
0.00291949
0.00291906
0.00291663
0.00291228
0.00290611
0.00289815
0.00288849
0.00287705
0.00286399
0.0028491
0.00283269
0.00281431
0.00279458
0.00277267
0.00274964
0.00272408
0.00269788
0.00266862
0.00263926
0.00260625
0.00257389
0.00253738
0.00250215
0.00246236
0.00242473
0.00238288
0.00234367
0.00230199
0.0022623
0.00222461
0.00218603
0.00215485
0.00211933
0.00209557
0.0020675
0.00205076
0.00203148
0.00202
0.0020083
0.00200279
0.0019968
0.00199478
0.00198887
0.00198703
0.00197852
0.00197678
0.00196539
0.00195801
0.00194363
0.00192669