/*--------------------------------*- C++ -*----------------------------------*\
| =========                 |                                                 |
| \\      /  F ield         | OpenFOAM: The Open Source CFD Toolbox           |
|  \\    /   O peration     | Version:  v2012                                 |
|   \\  /    A nd           | Website:  www.openfoam.com                      |
|    \\/     M anipulation  |                                                 |
\*---------------------------------------------------------------------------*/
FoamFile
{
    version     2.0;
    format      ascii;
    class       surfaceScalarField;
    location    "0.343";
    object      phi.air;
}
// * * * * * * * * * * * * * * * * * * * * * * * * * * * * * * * * * * * * * //

dimensions      [0 3 -1 0 0 0 0];
oriented        oriented;


internalField   nonuniform List<scalar> 
3672
(
0.0064006
7.14517e-06
0.00639136
8.99623e-06
0.00638142
9.68684e-06
0.00637056
1.06126e-05
0.0063586
1.17119e-05
0.00634559
1.27594e-05
0.00633129
1.40467e-05
0.00631578
1.52582e-05
0.00629637
1.91628e-05
2.80586e-05
0.00626806
0.00641089
4.26004e-06
0.00641309
6.79313e-06
0.00641555
7.2261e-06
0.00641823
7.93236e-06
0.00642104
8.90607e-06
0.00642399
9.8076e-06
0.00642694
1.10891e-05
0.00642967
1.25285e-05
0.00643129
1.75455e-05
2.48537e-05
0.0064345
0.00640988
2.38202e-06
0.00641223
4.44505e-06
0.00641473
4.71802e-06
0.00641752
5.14462e-06
0.00642056
5.87155e-06
0.00642375
6.60995e-06
0.00642716
7.68595e-06
0.00643042
9.26282e-06
0.0064346
1.33659e-05
1.8425e-05
0.00644103
0.00640936
1.0263e-06
0.00641175
2.05189e-06
0.00641429
2.17918e-06
0.00641704
2.39546e-06
0.00642008
2.82902e-06
0.00642335
3.34014e-06
0.00642686
4.1794e-06
0.00643058
5.54009e-06
0.00643542
8.52209e-06
1.19255e-05
0.00644192
0.00640916
-1.33129e-07
0.00641153
-3.17988e-07
0.00641408
-3.68048e-07
0.0064168
-3.30658e-07
0.00641985
-2.20073e-07
0.00642318
1.20082e-08
0.0064268
5.59745e-07
0.0064308
1.54158e-06
0.00643581
3.50707e-06
5.35651e-06
0.00644238
0.00640918
-1.30997e-06
0.00641156
-2.70308e-06
0.00641412
-2.92489e-06
0.00641686
-3.07022e-06
0.00641993
-3.29409e-06
0.00642331
-3.36794e-06
0.00642702
-3.15054e-06
0.00643117
-2.6108e-06
0.00643623
-1.55005e-06
-9.18186e-07
0.00644251
0.00640941
-2.72028e-06
0.00641185
-5.1427e-06
0.00641442
-5.49271e-06
0.00641721
-5.85951e-06
0.00642032
-6.40729e-06
0.00642374
-6.78915e-06
0.00642751
-6.92237e-06
0.00643175
-6.8458e-06
0.00643674
-6.54489e-06
-6.74829e-06
0.00644257
0.00640999
-4.70719e-06
0.0064124
-7.5559e-06
0.00641495
-8.04444e-06
0.00641781
-8.71403e-06
0.00642095
-9.55364e-06
0.0064244
-1.02353e-05
0.00642821
-1.0735e-05
0.00643249
-1.11202e-05
0.00643739
-1.14533e-05
-1.21458e-05
0.00644279
0.00641105
-7.76188e-06
0.00641334
-9.83865e-06
0.00641585
-1.05521e-05
0.00641858
-1.14513e-05
0.00642152
-1.24901e-05
0.00642469
-1.34058e-05
0.00642817
-1.42168e-05
0.00643204
-1.49858e-05
0.00643631
-1.57293e-05
-1.68101e-05
0.00644098
0.00640049
0.0063909
0.0063806
0.0063694
0.00635716
0.006344
0.00633004
0.0063153
0.00629982
0.00628326
0.00618912
0.000122524
-4.35878e-05
0.00598884
8.26141e-05
0.000117663
0.00572442
-0.000168607
0.000433027
0.00550756
-0.000541276
0.000758139
0.0053591
-0.000908011
0.00105647
0.00525264
-0.00120373
0.00131019
0.00517181
-0.00137932
0.00146015
0.00510266
-0.00142726
0.0014964
0.00503452
-0.00137462
0.00144277
0.00496665
-0.00125532
0.00132319
0.00489906
-0.00110312
0.00117071
0.00483217
-0.000944858
0.00101174
0.00476693
-0.000798682
0.000863928
0.00470319
-0.0006714
0.000735144
0.00464108
-0.000564482
0.000626589
0.0045811
-0.000477445
0.000537419
0.00452404
-0.000408987
0.000466055
0.0044704
-0.000355423
0.000409059
0.00442035
-0.000312384
0.000362429
0.00437427
-0.000277603
0.000323685
0.0043324
-0.000250161
0.000292037
0.00429465
-0.000228513
0.000266261
0.00426066
-0.000210557
0.000244546
0.00423028
-0.000194845
0.000225225
0.0042034
-0.00018137
0.000208242
0.00418003
-0.000170305
0.000193674
0.00416007
-0.000161112
0.000181074
0.00414295
-0.000152733
0.000169855
0.00412822
-0.000144881
0.000159614
0.00411557
-0.000137759
0.000150402
0.00410467
-0.000131463
0.000142362
0.00409525
-0.000125778
0.0001352
0.00408703
-0.000120511
0.000128733
0.00407974
-0.000115423
0.000122717
0.00407333
-0.000110594
0.000117002
0.00406777
-0.000106109
0.000111668
0.00406299
-0.000102024
0.000106805
0.00405893
-9.83287e-05
0.000102384
0.00405555
-9.49476e-05
9.83271e-05
0.00405279
-9.17512e-05
9.45119e-05
0.00405061
-8.87352e-05
9.09153e-05
0.00404894
-8.58883e-05
8.75613e-05
0.00404767
-8.31882e-05
8.44532e-05
0.00404676
-8.06833e-05
8.15966e-05
0.00404617
-7.83732e-05
7.8961e-05
0.00404588
-7.61445e-05
7.64413e-05
0.00404584
-7.39415e-05
7.39794e-05
0.00404604
-7.18019e-05
7.16049e-05
0.00404645
-6.9803e-05
6.93839e-05
0.0040471
-6.79977e-05
6.73563e-05
0.00404795
-6.6343e-05
6.54843e-05
0.00404901
-6.47356e-05
6.36794e-05
0.00405024
-6.31461e-05
6.19121e-05
0.00405164
-6.16042e-05
6.02094e-05
0.00405318
-6.01393e-05
5.86005e-05
0.00405485
-5.87744e-05
5.70984e-05
0.00405666
-5.7514e-05
5.57053e-05
0.00405859
-5.63101e-05
5.43824e-05
0.00406062
-5.51249e-05
5.30968e-05
0.00406273
-5.39482e-05
5.18358e-05
0.00406492
-5.281e-05
5.06248e-05
0.00406717
-5.17331e-05
4.94792e-05
0.00406949
-5.07423e-05
4.84178e-05
0.00407188
-4.98026e-05
4.74125e-05
0.00407433
-4.88946e-05
4.64471e-05
0.00407683
-4.79909e-05
4.54978e-05
0.00407936
-4.71156e-05
4.45841e-05
0.00408192
-4.62731e-05
4.37081e-05
0.00408452
-4.5475e-05
4.28802e-05
0.00408714
-4.47072e-05
4.20861e-05
0.00408978
-4.39695e-05
4.13262e-05
0.00409244
-4.32451e-05
4.05854e-05
0.00409511
-4.25379e-05
3.98685e-05
0.00409778
-4.18429e-05
3.91699e-05
0.00410046
-4.11729e-05
3.84991e-05
0.00410313
-4.05185e-05
3.78485e-05
0.00410579
-3.98857e-05
3.72219e-05
0.00410844
-3.92562e-05
3.66048e-05
0.00411108
-3.86405e-05
3.60046e-05
0.00411369
-3.80255e-05
3.54098e-05
0.00411629
-3.74279e-05
3.48346e-05
0.00411886
-3.68332e-05
3.4265e-05
0.0041214
-3.62556e-05
3.37144e-05
0.00412391
-3.56747e-05
3.3163e-05
0.00412639
-3.51068e-05
3.26259e-05
0.00412884
-3.45353e-05
3.20873e-05
0.00413125
-3.39808e-05
3.15661e-05
0.00413363
-3.34273e-05
3.10473e-05
0.00413598
-3.2894e-05
3.05486e-05
0.00413829
-3.23638e-05
3.00541e-05
0.00414056
-3.18599e-05
2.95854e-05
0.0041428
-3.13636e-05
2.91245e-05
0.00414501
-3.09189e-05
2.87127e-05
0.00414718
-3.04836e-05
2.83102e-05
0.00414933
-3.01954e-05
2.80474e-05
0.00415145
-2.98777e-05
2.77546e-05
0.00415358
-3.00399e-05
2.79139e-05
0.00415568
-2.99109e-05
2.78112e-05
0.00415787
-3.1214e-05
2.90191e-05
-3.11762e-05
2.92144e-05
0.00647836
7.86561e-05
0.00651174
4.92394e-05
0.00650174
-0.000158608
0.0064363
-0.000475832
0.00632498
-0.000796693
0.00617908
-0.00105783
0.00601662
-0.00121686
0.0058546
-0.00126524
0.00570347
-0.00122349
0.00556886
-0.00112071
0.00545267
-0.000986929
0.00535413
-0.000846312
0.00527082
-0.000715374
0.0051993
-0.000599878
0.00513595
-0.000501135
0.00507802
-0.000419514
0.00502362
-0.000354583
0.00497118
-0.000302986
0.00491941
-0.000260616
0.00486794
-0.000226137
0.00481765
-0.000199864
0.00476949
-0.000180358
0.00472345
-0.000164513
0.00467948
-0.000150881
0.00463812
-0.000140007
0.00459981
-0.000131987
0.0045646
-0.000125909
0.00453238
-0.00012051
0.00450296
-0.000115461
0.0044762
-0.000111001
0.00445189
-0.000107151
0.00442985
-0.00010374
0.00440988
-0.000100543
0.00439181
-9.73462e-05
0.00437543
-9.42174e-05
0.00436063
-9.13113e-05
0.00434729
-8.86835e-05
0.00433527
-8.63102e-05
0.00432443
-8.41027e-05
0.00431464
-8.19645e-05
0.00430579
-7.98796e-05
0.0042977
-7.78018e-05
0.0042903
-7.57877e-05
0.00428356
-7.39444e-05
0.00427745
-7.22587e-05
0.00427191
-7.0609e-05
0.00426691
-6.89425e-05
0.00426241
-6.72981e-05
0.00425837
-6.57689e-05
0.00425479
-6.44152e-05
0.00425162
-6.31728e-05
0.00424883
-6.194e-05
0.00424639
-6.07071e-05
0.00424427
-5.94884e-05
0.00424245
-5.83176e-05
0.0042409
-5.72239e-05
0.00423959
-5.62e-05
0.00423848
-5.52064e-05
0.00423757
-5.42164e-05
0.00423685
-5.32228e-05
0.00423629
-5.22565e-05
0.00423591
-5.13462e-05
0.00423568
-5.05143e-05
0.00423559
-4.97107e-05
0.00423562
-4.89234e-05
0.00423575
-4.81297e-05
0.004236
-4.73564e-05
0.00423633
-4.66041e-05
0.00423674
-4.58884e-05
0.00423723
-4.51933e-05
0.00423778
-4.45213e-05
0.00423838
-4.38513e-05
0.00423904
-4.31894e-05
0.00423972
-4.253e-05
0.00424044
-4.18896e-05
0.00424118
-4.12591e-05
0.00424194
-4.06451e-05
0.00424271
-4.00284e-05
0.00424349
-3.94201e-05
0.00424427
-3.88079e-05
0.00424506
-3.82101e-05
0.00424583
-3.76117e-05
0.00424661
-3.70287e-05
0.00424737
-3.64399e-05
0.00424813
-3.58627e-05
0.00424887
-3.52803e-05
0.00424961
-3.47143e-05
0.00425033
-3.41481e-05
0.00425104
-3.3602e-05
0.00425173
-3.30581e-05
0.00425241
-3.25407e-05
0.00425308
-3.20305e-05
0.00425373
-3.15728e-05
0.00425437
-3.11248e-05
0.004255
-3.08249e-05
0.00425563
-3.0501e-05
0.00425624
-3.06515e-05
0.00425686
-3.0529e-05
0.00425752
-3.18828e-05
-3.17339e-05
0.00647001
4.96756e-05
0.00650349
1.57561e-05
0.00650081
-0.000155926
0.00644848
-0.000423503
0.00634924
-0.000697453
0.00621162
-0.000920201
0.00605283
-0.00105807
0.00589065
-0.00110306
0.00573794
-0.00107078
0.00560304
-0.000985817
0.00548876
-0.00087264
0.00539487
-0.000752432
0.00531908
-0.000639576
0.00525797
-0.000538775
0.00520828
-0.000451437
0.00516789
-0.000379127
0.00513498
-0.000321669
0.00510716
-0.000275174
0.00508235
-0.000235805
0.00505956
-0.000203344
0.00503818
-0.000178483
0.0050172
-0.000159378
0.00499567
-0.000142983
0.00497297
-0.000128186
0.00494884
-0.000115873
0.00492342
-0.000106566
0.00489687
-9.93621e-05
0.00486935
-9.29907e-05
0.00484105
-8.71618e-05
0.00481228
-8.22233e-05
0.00478359
-7.84672e-05
0.00475559
-7.57341e-05
0.00472865
-7.36059e-05
0.00470303
-7.17301e-05
0.00467884
-7.00255e-05
0.00465621
-6.86812e-05
0.00463521
-6.76875e-05
0.00461579
-6.68818e-05
0.00459778
-6.60994e-05
0.00458106
-6.52416e-05
0.0045655
-6.43162e-05
0.00455102
-6.33257e-05
0.00453759
-6.23572e-05
0.00452515
-6.15078e-05
0.00451361
-6.07196e-05
0.0045029
-5.98905e-05
0.00449295
-5.89947e-05
0.00448375
-5.80988e-05
0.00447525
-5.72722e-05
0.00446735
-5.65162e-05
0.00445997
-5.57945e-05
0.0044531
-5.50656e-05
0.00444672
-5.43311e-05
0.00444082
-5.35843e-05
0.00443535
-5.28513e-05
0.0044303
-5.21675e-05
0.00442563
-5.15296e-05
0.00442131
-5.08932e-05
0.00441733
-5.0235e-05
0.00441366
-4.95504e-05
0.00441028
-4.8876e-05
0.00440717
-4.82325e-05
0.00440426
-4.76107e-05
0.00440154
-4.6989e-05
0.00439899
-4.63723e-05
0.0043966
-4.57401e-05
0.00439436
-4.51149e-05
0.00439225
-4.44919e-05
0.00439025
-4.38936e-05
0.00438836
-4.33013e-05
0.00438656
-4.27217e-05
0.00438484
-4.21287e-05
0.00438318
-4.15331e-05
0.00438158
-4.09299e-05
0.00438003
-4.03398e-05
0.00437852
-3.97522e-05
0.00437705
-3.91757e-05
0.00437562
-3.85897e-05
0.0043742
-3.80083e-05
0.00437282
-3.74189e-05
0.00437145
-3.68429e-05
0.0043701
-3.62639e-05
0.00436877
-3.56993e-05
0.00436746
-3.51272e-05
0.00436616
-3.45662e-05
0.00436488
-3.39993e-05
0.00436362
-3.34488e-05
0.00436236
-3.28977e-05
0.00436113
-3.23668e-05
0.00435991
-3.18376e-05
0.0043587
-3.13346e-05
0.00435751
-3.08397e-05
0.00435633
-3.03952e-05
0.00435517
-2.99627e-05
0.00435402
-2.96735e-05
0.00435289
-2.93656e-05
0.00435176
-2.95213e-05
0.00435065
-2.94242e-05
0.0043495
-3.07294e-05
-3.06856e-05
0.0064645
2.71008e-05
0.00648861
-8.35551e-06
0.00648172
-0.000149035
0.00642849
-0.000370271
0.00633104
-0.000600004
0.00619799
-0.00078715
0.00604458
-0.000904664
0.00588732
-0.000945802
0.00573876
-0.000922222
0.00560645
-0.000853507
0.00549341
-0.0007596
0.00539993
-0.000658948
0.00532376
-0.000563403
0.00526164
-0.000476659
0.00521117
-0.000400965
0.00517096
-0.000338921
0.00513893
-0.000289633
0.00511228
-0.000248533
0.00508955
-0.000213069
0.00507088
-0.000184679
0.00505619
-0.000163793
0.00504392
-0.000147104
0.00503247
-0.000131532
0.00502189
-0.000117609
0.00501294
-0.000106919
0.00500529
-9.89186e-05
0.0049979
-9.19752e-05
0.0049901
-8.51926e-05
0.00498167
-7.87302e-05
0.00497265
-7.32046e-05
0.00496306
-6.88764e-05
0.00495273
-6.53969e-05
0.00494135
-6.2234e-05
0.00492869
-5.90678e-05
0.00491471
-5.60394e-05
0.00489956
-5.3531e-05
0.00488351
-5.16434e-05
0.00486684
-5.02074e-05
0.00484972
-4.89821e-05
0.00483232
-4.784e-05
0.00481479
-4.67885e-05
0.00479744
-4.59733e-05
0.00478061
-4.55275e-05
0.00476445
-4.53444e-05
0.00474895
-4.52194e-05
0.0047341
-4.50459e-05
0.00471996
-4.48557e-05
0.00470659
-4.47278e-05
0.004694
-4.46826e-05
0.00468214
-4.46529e-05
0.00467091
-4.45673e-05
0.00466025
-4.44086e-05
0.00465012
-4.41957e-05
0.0046405
-4.39626e-05
0.00463138
-4.37312e-05
0.00462273
-4.35189e-05
0.00461454
-4.33407e-05
0.00460679
-4.31429e-05
0.00459945
-4.2893e-05
0.00459249
-4.2594e-05
0.00458589
-4.22747e-05
0.00457961
-4.19556e-05
0.00457362
-4.16219e-05
0.0045679
-4.12626e-05
0.0045624
-4.08803e-05
0.00455712
-4.04597e-05
0.00455202
-4.00129e-05
0.00454707
-3.95436e-05
0.00454226
-3.90789e-05
0.00453756
-3.86024e-05
0.00453296
-3.81263e-05
0.00452846
-3.76224e-05
0.00452403
-3.7107e-05
0.00451968
-3.65755e-05
0.00451539
-3.60529e-05
0.00451117
-3.55271e-05
0.004507
-3.5011e-05
0.00450289
-3.44824e-05
0.00449884
-3.39564e-05
0.00449485
-3.34236e-05
0.00449091
-3.29028e-05
0.00448702
-3.23795e-05
0.00448319
-3.18687e-05
0.00447942
-3.13509e-05
0.00447569
-3.08441e-05
0.00447203
-3.03322e-05
0.00446841
-2.98371e-05
0.00446486
-2.93412e-05
0.00446136
-2.8866e-05
0.00445791
-2.83923e-05
0.00445452
-2.79447e-05
0.00445119
-2.75061e-05
0.00444791
-2.71143e-05
0.00444468
-2.67378e-05
0.0044415
-2.6491e-05
0.00443838
-2.62404e-05
0.00443525
-2.63972e-05
0.00443222
-2.63886e-05
0.00442904
-2.75547e-05
-2.78752e-05
0.00645963
9.85236e-06
0.00647551
-2.42332e-05
0.00646423
-0.000137754
0.00641073
-0.000316773
0.00631603
-0.000505309
0.00618843
-0.000659543
0.00604146
-0.000757701
0.00588981
-0.000794148
0.00574512
-0.000777531
0.00561487
-0.000723261
0.00550274
-0.000647473
0.00540934
-0.000565545
0.00533233
-0.000486388
0.00526894
-0.000413277
0.00521782
-0.000349836
0.00517742
-0.000298522
0.00514451
-0.000256724
0.00511637
-0.0002204
0.00509294
-0.000189632
0.00507475
-0.000166487
0.00506022
-0.000149267
0.00504696
-0.000133839
0.00503468
-0.000119253
0.00502466
-0.000107591
0.0050171
-9.93641e-05
0.0050108
-9.26125e-05
0.0050046
-8.57798e-05
0.00499853
-7.91217e-05
0.00499338
-7.35805e-05
0.00498952
-6.93401e-05
0.00498646
-6.58168e-05
0.00498351
-6.24452e-05
0.00498025
-5.89816e-05
0.00497693
-5.57448e-05
0.00497393
-5.30385e-05
0.00497114
-5.07462e-05
0.00496828
-4.87759e-05
0.00496506
-4.69872e-05
0.00496123
-4.51558e-05
0.0049567
-4.33046e-05
0.0049515
-4.15883e-05
0.00494568
-4.01594e-05
0.00493924
-3.90878e-05
0.00493211
-3.82169e-05
0.00492421
-3.73171e-05
0.00491549
-3.63278e-05
0.00490602
-3.5379e-05
0.00489592
-3.46315e-05
0.00488538
-3.41416e-05
0.00487456
-3.38341e-05
0.00486357
-3.35734e-05
0.00485245
-3.3292e-05
0.00484125
-3.29944e-05
0.00483004
-3.27569e-05
0.00481894
-3.2632e-05
0.00480802
-3.25991e-05
0.00479727
-3.25875e-05
0.00478669
-3.25596e-05
0.0047763
-3.25039e-05
0.00476613
-3.2427e-05
0.00475618
-3.23267e-05
0.00474644
-3.22135e-05
0.00473692
-3.21007e-05
0.00472763
-3.19688e-05
0.00471854
-3.17938e-05
0.00470965
-3.15652e-05
0.00470092
-3.12876e-05
0.00469236
-3.09807e-05
0.00468394
-3.06637e-05
0.00467567
-3.03263e-05
0.00466752
-2.99833e-05
0.00465951
-2.96075e-05
0.00465162
-2.92171e-05
0.00464385
-2.88077e-05
0.0046362
-2.84024e-05
0.00462867
-2.79921e-05
0.00462125
-2.75921e-05
0.00461394
-2.71785e-05
0.00460675
-2.67685e-05
0.00459968
-2.63501e-05
0.00459272
-2.59433e-05
0.00458587
-2.55329e-05
0.00457914
-2.51353e-05
0.00457252
-2.47335e-05
0.00456602
-2.43417e-05
0.00455964
-2.39475e-05
0.00455337
-2.35688e-05
0.00454722
-2.31916e-05
0.00454119
-2.28334e-05
0.00453527
-2.24782e-05
0.00452947
-2.21471e-05
0.00452379
-2.18264e-05
0.00451823
-2.15455e-05
0.00451277
-2.12852e-05
0.00450741
-2.11283e-05
0.00450217
-2.09952e-05
0.00449693
-2.11601e-05
0.00449186
-2.13208e-05
0.00448653
-2.22256e-05
-2.32471e-05
0.00645566
-3.30161e-06
0.00646519
-3.37648e-05
0.00645042
-0.000122979
0.00639697
-0.000263324
0.00630461
-0.000412947
0.00618117
-0.000536101
0.00603902
-0.000615551
0.00589162
-0.000646749
0.00574998
-0.000635897
0.0056216
-0.000594874
0.00551053
-0.00053641
0.00541706
-0.000472071
0.00533897
-0.000408297
0.00527467
-0.000348983
0.0052232
-0.00029836
0.00518194
-0.000257261
0.00514717
-0.000221953
0.0051176
-0.000190834
0.0050943
-0.000166329
0.00507636
-0.000148547
0.00506051
-0.000133419
0.00504555
-0.000118882
0.00503309
-0.000106791
0.00502381
-9.83077e-05
0.00501623
-9.17874e-05
0.00500878
-8.5159e-05
0.00500141
-7.84129e-05
0.00499517
-7.28863e-05
0.00499049
-6.89018e-05
0.00498676
-6.56047e-05
0.00498316
-6.22156e-05
0.00497933
-5.86213e-05
0.00497575
-5.5395e-05
0.00497294
-5.29396e-05
0.0049708
-5.08968e-05
0.00496895
-4.88907e-05
0.00496702
-4.68462e-05
0.00496492
-4.48943e-05
0.00496297
-4.32029e-05
0.00496138
-4.1718e-05
0.00496004
-4.0245e-05
0.00495873
-3.8847e-05
0.00495728
-3.76378e-05
0.00495561
-3.65522e-05
0.00495376
-3.54643e-05
0.00495177
-3.43418e-05
0.00494964
-3.3243e-05
0.00494726
-3.22508e-05
0.0049445
-3.13815e-05
0.00494124
-3.05724e-05
0.0049374
-2.97417e-05
0.00493299
-2.8876e-05
0.004928
-2.80068e-05
0.00492244
-2.71923e-05
0.00491626
-2.64583e-05
0.00490944
-2.57793e-05
0.00490196
-2.51015e-05
0.00489382
-2.44266e-05
0.00488509
-2.37754e-05
0.00487584
-2.31701e-05
0.00486612
-2.2605e-05
0.00485598
-2.20761e-05
0.00484547
-2.15888e-05
0.00483464
-2.11402e-05
0.00482356
-2.07184e-05
0.00481231
-2.03164e-05
0.00480096
-1.993e-05
0.00478954
-1.9567e-05
0.0047781
-1.92228e-05
0.00476668
-1.8909e-05
0.00475531
-1.86083e-05
0.00474402
-1.83223e-05
0.00473285
-1.80396e-05
0.0047218
-1.77597e-05
0.00471089
-1.7494e-05
0.00470013
-1.72338e-05
0.00468953
-1.69943e-05
0.0046791
-1.67482e-05
0.00466885
-1.65156e-05
0.00465878
-1.62775e-05
0.00464889
-1.60558e-05
0.0046392
-1.58387e-05
0.0046297
-1.56343e-05
0.0046204
-1.54338e-05
0.00461129
-1.52405e-05
0.0046024
-1.50519e-05
0.0045937
-1.48738e-05
0.00458522
-1.47031e-05
0.00457693
-1.45442e-05
0.00456884
-1.43926e-05
0.00456095
-1.42559e-05
0.00455325
-1.41292e-05
0.00454574
-1.40302e-05
0.00453841
-1.39547e-05
0.00453122
-1.39424e-05
0.00452421
-1.39887e-05
0.00451723
-1.41742e-05
0.00451049
-1.45796e-05
0.00450335
-1.5087e-05
-1.71159e-05
0.00645273
-1.34586e-05
0.00645752
-3.85542e-05
0.00643989
-0.000105347
0.00638638
-0.000209819
0.00629583
-0.000322397
0.00617559
-0.000415856
0.00603717
-0.000477137
0.00589302
-0.000502595
0.00575361
-0.000496491
0.00562631
-0.000467573
0.00551513
-0.000425227
0.00542018
-0.000377118
0.00534
-0.000328117
0.00527447
-0.000283457
0.005222
-0.000245888
0.00517818
-0.00021344
0.00514071
-0.000184489
0.00511066
-0.000160782
0.00508721
-0.000142881
0.00506681
-0.000128145
0.00504788
-0.000114484
0.00503184
-0.000102845
0.00501929
-9.42465e-05
0.00500854
-8.75583e-05
0.00499797
-8.12155e-05
0.00498779
-7.49766e-05
0.00497902
-6.96447e-05
0.00497176
-6.56201e-05
0.00496518
-6.23266e-05
0.00495854
-5.89679e-05
0.00495177
-5.54424e-05
0.00494542
-5.22741e-05
0.00493979
-4.97643e-05
0.00493456
-4.77108e-05
0.00492937
-4.57011e-05
0.00492398
-4.35053e-05
0.00491848
-4.13393e-05
0.0049131
-3.95214e-05
0.00490791
-3.80122e-05
0.00490278
-3.65864e-05
0.00489761
-3.50703e-05
0.00489229
-3.35329e-05
0.0048868
-3.2141e-05
0.00488117
-3.09308e-05
0.00487551
-2.97953e-05
0.00486982
-2.86518e-05
0.00486408
-2.75062e-05
0.00485824
-2.64168e-05
0.00485226
-2.53997e-05
0.00484612
-2.4432e-05
0.00483986
-2.34789e-05
0.00483353
-2.2543e-05
0.00482715
-2.16305e-05
0.00482072
-2.07598e-05
0.00481419
-1.99258e-05
0.00480751
-1.91057e-05
0.00480068
-1.82722e-05
0.00479371
-1.74534e-05
0.0047866
-1.66712e-05
0.00477937
-1.59326e-05
0.00477197
-1.52087e-05
0.00476438
-1.44863e-05
0.00475657
-1.37759e-05
0.00474853
-1.3098e-05
0.00474026
-1.24561e-05
0.0047318
-1.18486e-05
0.00472313
-1.12683e-05
0.00471428
-1.07165e-05
0.00470525
-1.01923e-05
0.00469605
-9.70844e-06
0.00468671
-9.26772e-06
0.00467726
-8.86724e-06
0.00466772
-8.50335e-06
0.00465813
-8.16917e-06
0.0046485
-7.86784e-06
0.00463887
-7.60005e-06
0.00462924
-7.36452e-06
0.00461966
-7.16363e-06
0.00461013
-6.98809e-06
0.00460069
-6.83905e-06
0.00459135
-6.71333e-06
0.00458212
-6.61369e-06
0.00457302
-6.53555e-06
0.00456407
-6.47853e-06
0.00455526
-6.43648e-06
0.00454662
-6.41072e-06
0.00453815
-6.39847e-06
0.00452985
-6.40117e-06
0.00452172
-6.4142e-06
0.00451376
-6.4382e-06
0.00450598
-6.47088e-06
0.00449836
-6.51243e-06
0.0044909
-6.5704e-06
0.0044836
-6.65223e-06
0.00447641
-6.75741e-06
0.00446938
-6.95108e-06
0.00446232
-7.12152e-06
0.00445547
-7.72756e-06
0.00444816
-7.77507e-06
-1.07116e-05
0.0064508
-2.14627e-05
0.00645216
-3.99198e-05
0.00643219
-8.53723e-05
0.00637824
-0.000155876
0.00628837
-0.000232521
0.00616929
-0.00029678
0.00603185
-0.000339699
0.00588765
-0.000358396
0.00574704
-0.000355881
0.00561772
-0.000338248
0.00550289
-0.000310401
0.00540308
-0.00027731
0.00531913
-0.000244162
0.00524971
-0.000214036
0.00519089
-0.000187064
0.0051405
-0.00016305
0.00509863
-0.000142619
0.00506386
-0.000126019
0.00503318
-0.000112195
0.00500527
-0.000100239
0.00498075
-8.99666e-05
0.0049595
-8.15916e-05
0.00494001
-7.47538e-05
0.00492129
-6.88384e-05
0.00490359
-6.35212e-05
0.00488735
-5.8733e-05
0.00487224
-5.45384e-05
0.00485757
-5.09447e-05
0.00484302
-4.7782e-05
0.00482883
-4.47799e-05
0.00481524
-4.1853e-05
0.00480214
-3.91733e-05
0.00478924
-3.68581e-05
0.00477635
-3.4826e-05
0.00476354
-3.28913e-05
0.00475097
-3.09358e-05
0.00473869
-2.90537e-05
0.00472657
-2.74035e-05
0.00471452
-2.5958e-05
0.00470253
-2.4599e-05
0.00469069
-2.32322e-05
0.00467905
-2.18918e-05
0.00466758
-2.06695e-05
0.00465624
-1.95927e-05
0.00464504
-1.85962e-05
0.00463401
-1.76212e-05
0.00462317
-1.66631e-05
0.00461251
-1.57612e-05
0.00460204
-1.49294e-05
0.00459176
-1.41556e-05
0.0045817
-1.34149e-05
0.00457186
-1.27033e-05
0.00456225
-1.20224e-05
0.00455287
-1.13793e-05
0.00454372
-1.07715e-05
0.0045348
-1.01872e-05
0.00452614
-9.61165e-06
0.00451774
-9.05702e-06
0.00450961
-8.5362e-06
0.00450172
-8.04821e-06
0.00449409
-7.57249e-06
0.0044867
-7.102e-06
0.00447957
-6.64218e-06
0.00447268
-6.20803e-06
0.00446602
-5.79782e-06
0.00445958
-5.40979e-06
0.00445335
-5.03311e-06
0.0044473
-4.67211e-06
0.00444143
-4.32291e-06
0.00443572
-3.997e-06
0.00443016
-3.70161e-06
0.00442472
-3.4289e-06
0.00441939
-3.17666e-06
0.00441417
-2.94394e-06
0.00440902
-2.727e-06
0.00440396
-2.53484e-06
0.00439896
-2.36177e-06
0.00439401
-2.21515e-06
0.00438911
-2.08582e-06
0.00438424
-1.97361e-06
0.0043794
-1.87756e-06
0.00437459
-1.79773e-06
0.00436979
-1.73724e-06
0.004365
-1.69051e-06
0.00436022
-1.65785e-06
0.00435545
-1.63649e-06
0.00435068
-1.62882e-06
0.00434591
-1.63326e-06
0.00434115
-1.6499e-06
0.00433639
-1.67661e-06
0.00433163
-1.71363e-06
0.00432688
-1.76262e-06
0.00432213
-1.82407e-06
0.00431739
-1.91292e-06
0.00431264
-1.99968e-06
0.00430788
-2.19237e-06
0.00430301
-2.25843e-06
0.00429815
-2.86594e-06
0.00429293
-2.55774e-06
-5.6364e-06
0.00644653
-2.70128e-05
0.00644397
-3.73618e-05
0.00642001
-6.141e-05
0.00636214
-9.80093e-05
0.00626747
-0.000137856
0.00614212
-0.000171423
0.00599643
-0.000194014
0.00584209
-0.000204054
0.00568932
-0.000203109
0.0055449
-0.000193825
0.00541334
-0.000178843
0.00529717
-0.000161146
0.0051961
-0.00014309
0.00510803
-0.000125967
0.00503138
-0.000110406
0.00496506
-9.67384e-05
0.00490744
-8.49968e-05
0.00485631
-7.48878e-05
0.0048102
-6.60818e-05
0.00476852
-5.8556e-05
0.00473081
-5.22583e-05
0.00469636
-4.71453e-05
0.00466427
-4.26607e-05
0.00463422
-3.87923e-05
0.00460621
-3.55107e-05
0.00458004
-3.25611e-05
0.0045553
-2.98035e-05
0.00453168
-2.73221e-05
0.00450909
-2.51907e-05
0.00448758
-2.32663e-05
0.00446713
-2.14075e-05
0.0044476
-1.96387e-05
0.00442881
-1.80724e-05
0.0044107
-1.67178e-05
0.0043933
-1.54846e-05
0.00437664
-1.42801e-05
0.00436071
-1.31221e-05
0.00434539
-1.20891e-05
0.00433062
-1.11866e-05
0.00431639
-1.03663e-05
0.00430273
-9.57292e-06
0.00428965
-8.80703e-06
0.00427709
-8.10828e-06
0.00426499
-7.49752e-06
0.00425334
-6.94626e-06
0.00424214
-6.42132e-06
0.00423139
-5.91515e-06
0.00422108
-5.44522e-06
0.00421117
-5.02166e-06
0.00420165
-4.63665e-06
0.00419251
-4.27521e-06
0.00418374
-3.93558e-06
0.00417534
-3.61819e-06
0.00416728
-3.32515e-06
0.00415957
-3.05607e-06
0.00415219
-2.80622e-06
0.00414514
-2.56672e-06
0.00413843
-2.34086e-06
0.00413202
-2.13362e-06
0.00412592
-1.94604e-06
0.00412012
-1.76737e-06
0.00411461
-1.59453e-06
0.00410939
-1.42753e-06
0.00410446
-1.27365e-06
0.00409979
-1.12947e-06
0.00409538
-9.95015e-07
0.00409121
-8.61938e-07
0.00408727
-7.34607e-07
0.00408355
-6.07492e-07
0.00408004
-4.82226e-07
0.00407672
-3.80673e-07
0.00407357
-2.7727e-07
0.00407057
-1.80554e-07
0.00406771
-8.84129e-08
0.00406499
1.81178e-09
0.00406237
8.361e-08
0.00405985
1.59143e-07
0.00405741
2.20403e-07
0.00405505
2.74993e-07
0.00405275
3.22007e-07
0.00405051
3.62526e-07
0.00404832
3.96575e-07
0.00404616
4.19125e-07
0.00404404
4.34705e-07
0.00404194
4.4496e-07
0.00403985
4.50535e-07
0.00403777
4.51832e-07
0.00403569
4.48752e-07
0.0040336
4.38524e-07
0.00403149
4.26025e-07
0.00402938
4.04517e-07
0.00402723
3.78923e-07
0.00402507
3.3889e-07
0.00402287
2.88407e-07
0.00402062
2.49447e-07
0.0040183
1.26027e-07
0.00401589
1.50981e-07
0.00401334
-3.11553e-07
0.00401062
1.59964e-07
-2.32778e-06
0.00625665
0.00621968
0.00615866
0.00606105
0.00592359
0.00575257
0.00555896
0.00535531
0.00515261
0.0049592
0.00478078
0.00462005
0.00447739
0.00435185
0.00424187
0.00414557
0.00406101
0.00398656
0.00392092
0.0038628
0.00381098
0.00376428
0.00372207
0.00368372
0.00364865
0.00361654
0.00358719
0.00356031
0.00353557
0.00351275
0.0034918
0.00347261
0.00345499
0.00343872
0.00342369
0.00340986
0.00339719
0.00338555
0.00337482
0.00336491
0.00335579
0.00334744
0.00333978
0.00333274
0.00332625
0.00332028
0.00331482
0.00330983
0.00330526
0.00330108
0.00329726
0.00329378
0.00329062
0.00328775
0.00328514
0.00328279
0.00328068
0.0032788
0.00327712
0.00327563
0.00327432
0.00327318
0.0032722
0.00327139
0.00327071
0.00327017
0.00326976
0.00326949
0.00326933
0.00326931
0.00326938
0.00326956
0.00326983
0.0032702
0.00327066
0.0032712
0.00327181
0.00327248
0.00327321
0.00327399
0.00327481
0.00327566
0.00327653
0.00327742
0.00327832
0.00327923
0.00328014
0.00328104
0.00328193
0.00328281
0.00328367
0.0032845
0.0032853
0.00328604
0.00328674
0.00328733
0.00328793
0.00328807
0.00328869
-0.000831931
0.000788343
-0.00121946
0.000387527
-0.00139906
0.000179604
-0.00140205
2.98393e-06
-0.00126096
-0.00014109
-0.000964944
-0.000296012
-0.000524487
-0.000440457
-0.000525013
-0.000754951
0.00166096
-0.00111808
0.000750658
-0.00122824
0.000289766
-0.00120009
-2.51742e-05
-0.00105429
-0.000286883
-0.00080876
-0.000541545
-0.000456447
-0.000792769
-0.000981964
-0.000156197
0.00225018
-0.000557936
0.0011524
-0.000717709
0.000449539
-0.000731038
-1.18448e-05
-0.000650845
-0.000367076
-0.000507296
-0.000685094
-0.000303369
-0.000996696
-0.00128582
0.000429659
0.00257866
9.69585e-05
0.0014851
-0.000111093
0.00065759
-0.000205852
8.29143e-05
-0.000222047
-0.000350881
-0.000187707
-0.000719434
-0.000121697
-0.00106271
-0.00140799
0.000870301
0.00276483
0.000617315
0.00173808
0.000395233
0.000879672
0.000239665
0.000238482
0.000137925
-0.00024914
7.01135e-05
-0.000651623
2.213e-05
-0.00101472
-0.00138632
0.00119706
0.00287795
0.000996732
0.00193842
0.000781883
0.00109452
0.000592635
0.000427729
0.000428774
-8.52788e-05
0.000279855
-0.000502704
0.000137295
-0.000872162
-0.00124949
0.00139125
0.00294685
0.00123796
0.00209171
0.00104155
0.00129093
0.000835843
0.000633434
0.000631641
0.000118923
0.000426464
-0.000297526
0.000215945
-0.000661644
-0.00103401
0.00145067
0.00299259
0.0013326
0.00220978
0.00116185
0.00146168
0.000958555
0.000836733
0.000737542
0.000339936
0.000503672
-6.36563e-05
0.00025703
-0.000415001
-0.000777455
0.00141286
0.0030225
0.00131809
0.00230455
0.00116833
0.00161144
0.000977255
0.00102781
0.000758568
0.000558623
0.000520533
0.000174379
0.000266323
-0.000160792
-0.000511617
0.00130668
0.003039
0.00123239
0.00237884
0.00110366
0.00174017
0.000930001
0.00120147
0.000724817
0.000763806
0.000498022
0.000401174
0.00025449
8.27408e-05
-0.000257623
0.0011667
0.00304301
0.00111079
0.00243474
0.00100166
0.0018493
0.000848478
0.00135465
0.000663891
0.000948393
0.00045703
0.000608034
0.000233448
0.000306323
-2.46821e-05
0.00101831
0.00303644
0.000977727
0.00247533
0.00088564
0.00194139
0.00075266
0.00148763
0.000590758
0.0011103
0.000407546
0.000791246
0.000209179
0.00050469
0.000183985
0.000877778
0.00302259
0.000848911
0.00250419
0.000772028
0.00201827
0.000657391
0.00160227
0.000516277
0.00125141
0.000355733
0.00095179
0.000181768
0.000678655
0.000365247
0.000753466
0.00300427
0.000733095
0.00252456
0.000668943
0.00208242
0.000570492
0.00170072
0.000448207
0.00137369
0.000308601
0.0010914
0.000157289
0.000829967
0.000522034
0.000647121
0.00298374
0.000632291
0.00253939
0.000578704
0.00213601
0.000494737
0.00178468
0.000389142
0.00147929
0.000267985
0.00121255
0.000136473
0.00096148
0.00065801
0.000557817
0.00296334
0.000545746
0.00255146
0.0005007
0.00218106
0.000429665
0.00185572
0.000338829
0.00157013
0.000233695
0.00131769
0.000118935
0.00107624
0.00077645
0.000484732
0.00294466
0.000473924
0.00256227
0.000435233
0.00221975
0.000374434
0.00191652
0.000295977
0.00164858
0.000204497
0.00140917
0.00010379
0.00117695
0.000879748
0.000425507
0.00292822
0.000415333
0.00257245
0.000381265
0.00225382
0.000328206
0.00196958
0.000259745
0.00171704
0.000179654
0.00148926
9.09582e-05
0.00126564
0.000970217
0.000376618
0.00291403
0.000366862
0.0025822
0.000336401
0.00228428
0.000289483
0.0020165
0.000229143
0.00177738
0.000158535
0.00155986
8.02763e-05
0.0013439
0.00105001
0.00033568
0.00290203
0.000326273