/*--------------------------------*- C++ -*----------------------------------*\
| =========                 |                                                 |
| \\      /  F ield         | OpenFOAM: The Open Source CFD Toolbox           |
|  \\    /   O peration     | Version:  v2012                                 |
|   \\  /    A nd           | Website:  www.openfoam.com                      |
|    \\/     M anipulation  |                                                 |
\*---------------------------------------------------------------------------*/
FoamFile
{
    version     2.0;
    format      ascii;
    class       vectorField;
    location    "0.041/lagrangian/kinematicCloud";
    object      U;
}
// * * * * * * * * * * * * * * * * * * * * * * * * * * * * * * * * * * * * * //


44
(
(14.7262 0.0143789 0)
(15.2262 0.00461846 0)
(15.1404 -0.00583739 0)
(15.0447 0.0125962 0)
(14.9577 -0.0143354 0)
(14.8718 -0.00614794 0)
(10.9232 0.00303533 0)
(14.5155 -0.0173279 0)
(14.4742 -0.0173107 0)
(14.4872 0.00773253 0)
(14.4759 0.00325135 0)
(14.374 0.013844 0)
(12.6047 -0.0105321 0)
(12.5677 0.00904868 0)
(13.0186 -0.0120184 0)
(13.9353 0.000576168 0)
(13.6936 0.0150605 0)
(13.2124 -0.013967 0)
(13.5849 0.0116086 0)
(13.5572 -0.0155947 0)
(13.4597 -0.00958431 0)
(13.1434 -0.0155033 0)
(13.2042 -0.00979325 0)
(13.07 0.01208 0)
(13.0576 0.00411464 0)
(12.9341 -0.00840771 0)
(12.7893 0.0122456 0)
(12.7897 -0.0106903 0)
(12.3273 0.0114113 0)
(12.6484 -0.0109014 0)
(8.58746 0.00104362 0)
(12.3171 0.0111266 0)
(11.4242 -0.00792354 0)
(12.0574 -0.00134955 0)
(12.0482 0.00579117 0)
(11.9167 -0.00438735 0)
(11.7697 0.00317425 0)
(11.6218 0.00178878 0)
(11.47 -0.00268612 0)
(11.1157 0.00305454 0)
(11.1566 0.00160795 0)
(10.9939 -0.000971156 0)
(10.8278 0.000703874 0)
(10.6575 0.00026282 0)
)


// ************************************************************************* //
