/*--------------------------------*- C++ -*----------------------------------*\
| =========                 |                                                 |
| \\      /  F ield         | OpenFOAM: The Open Source CFD Toolbox           |
|  \\    /   O peration     | Version:  v2012                                 |
|   \\  /    A nd           | Website:  www.openfoam.com                      |
|    \\/     M anipulation  |                                                 |
\*---------------------------------------------------------------------------*/
FoamFile
{
    version     2.0;
    format      ascii;
    class       vectorField;
    location    "0.041/lagrangian/kinematicCloud";
    object      U;
}
// * * * * * * * * * * * * * * * * * * * * * * * * * * * * * * * * * * * * * //


44
(
(20.4443 -0.478227 0)
(22.753 -0.340931 0)
(23.4129 -0.242019 0)
(22.2986 -0.435106 0)
(22.5689 -0.139947 0)
(23.8009 -0.25927 0)
(19.1288 -0.245138 0)
(22.7507 -0.174517 0)
(22.388 -0.13393 0)
(23.6289 -0.148747 0)
(23.4272 -0.136743 0)
(22.1868 -0.126516 0)
(7.65796 -0.00554517 0)
(14.8387 -0.447346 0)
(16.051 -0.0333977 0)
(22.9538 -0.199044 0)
(20.6062 -0.322352 0)
(20.7045 -0.0579602 0)
(21.4975 -0.279642 0)
(22.0093 -0.0906169 0)
(22.2016 -0.119324 0)
(13.6316 -0.0236038 0)
(21.7083 -0.10963 0)
(20.7349 -0.301556 0)
(21.5793 -0.245044 0)
(21.2805 -0.111312 0)
(20.6368 -0.292693 0)
(20.9234 -0.0929412 0)
(16.9956 -0.353376 0)
(20.4136 -0.0713069 0)
(12.9018 -0.258512 0)
(18.7915 -0.287683 0)
(12.5301 -0.0084279 0)
(19.2897 -0.105799 0)
(19.2838 -0.167565 0)
(18.7345 -0.0560284 0)
(18.1076 -0.0406886 0)
(17.3356 -0.00829916 0)
(16.4897 -0.0038644 0)
(11.1728 0.000844207 0)
(14.6767 0.00218234 0)
(13.6939 -0.00109245 0)
(12.6516 0.00141499 0)
(11.5516 0.000464091 0)
)


// ************************************************************************* //
