/*--------------------------------*- C++ -*----------------------------------*\
| =========                 |                                                 |
| \\      /  F ield         | OpenFOAM: The Open Source CFD Toolbox           |
|  \\    /   O peration     | Version:  v2012                                 |
|   \\  /    A nd           | Website:  www.openfoam.com                      |
|    \\/     M anipulation  |                                                 |
\*---------------------------------------------------------------------------*/
FoamFile
{
    version     2.0;
    format      ascii;
    class       volScalarField;
    location    "0.169";
    object      epsilon.air;
}
// * * * * * * * * * * * * * * * * * * * * * * * * * * * * * * * * * * * * * //

dimensions      [0 2 -3 0 0 0 0];


internalField   nonuniform List<scalar> 
1900
(
112.724
141.424
210.098
257.591
369.051
443.457
614.739
724.909
971.324
1128.62
15.4676
16.4471
18.6378
20.45
23.7573
27.7272
32.0036
39.2875
45.1212
56.7594
14.7926
14.6414
14.5755
14.5063
14.5148
14.5573
14.6409
14.8308
15.0774
15.4132
14.77
14.6304
14.4634
14.3354
14.1726
14.059
13.9039
13.808
13.6653
13.5938
14.7766
14.6216
14.4704
14.3205
14.1748
14.0289
13.8889
13.7473
13.6138
13.477
14.7778
14.6205
14.4714
14.3196
14.1754
14.0284
13.8891
13.7473
13.6132
13.4774
14.7778
14.6206
14.4731
14.3235
14.184
14.0451
13.9174
13.7916
13.6806
13.5717
14.776
14.6502
14.5638
14.5035
14.5108
14.552
14.6361
14.8216
15.0439
15.3959
15.2116
16.6046
18.2746
20.6833
23.5896
27.5778
32.26
38.4119
45.5581
54.8215
105.931
146.583
198.393
265.765
350.078
456.054
585.729
743.673
931.838
1154.03
4101.97
15195.1
19570.9
22449.4
21119.3
18031.2
15093
12797.8
11293.6
10374
9869.12
9693.63
9522.24
9255.51
8850.58
8353.34
7799.31
7212.07
6645.09
6126.76
5649.71
5222.55
4837.95
4486.97
4167.73
3878.28
3615.8
3378.37
3162.77
2967.06
2788.81
2626.05
2477.09
2340.4
2214.81
2099.19
1992.6
1894.14
1803.05
1718.61
1640.23
1567.33
1499.42
1436.05
1376.81
1321.32
1269.26
1220.32
1174.25
1130.79
1089.73
1050.89
1014.1
979.193
946.044
914.512
884.495
855.868
828.556
802.438
777.467
753.523
730.594
708.553
687.427
667.07
647.553
628.703
610.64
593.147
576.402
560.13
544.58
529.404
514.94
500.75
487.284
473.989
461.456
448.982
437.336
425.622
414.832
403.82
393.862
383.483
374.333
364.509
356.144
346.782
339.185
330.185
323.351
314.6
308.546
299.923
294.68
286.056
281.655
271.271
113.139
337.551
517.848
922.972
1126.43
1151.41
1123.37
1058.87
1051.44
1090.26
1194.46
1406.29
1694.42
2026.51
2377.19
2690.58
2970.09
3202.73
3356.79
3433.91
3426.57
3388.3
3302.71
3184.84
3056.87
2925.54
2794.64
2667.75
2544.12
2426.66
2314.41
2207.29
2105.87
2009.91
1919.54
1834.42
1754.47
1679.18
1608.31
1541.6
1478.77
1419.53
1363.68
1310.97
1261.19
1214.1
1169.55
1127.31
1087.22
1049.1
1012.83
978.249
945.257
913.735
883.595
854.737
827.097
800.584
775.153
750.712
727.24
704.637
682.911
661.954
641.804
622.336
603.628
585.525
568.153
551.312
535.179
519.501
504.516
489.902
475.977
462.332
449.387
436.625
424.595
412.643
401.483
390.278
379.954
369.438
359.924
350.032
341.305
331.961
323.997
315.113
307.894
299.372
292.893
284.625
278.896
270.767
265.816
257.701
253.563
243.815
16.4273
19.8628
22.8802
29.0929
34.8042
38.7635
41.7286
43.7919
46.6973
50.6976
58.6788
70.8494
95.3984
130.107
189.356
266.959
373.28
508.595
665.3
835.49
1004.48
1162.97
1303.05
1420.05
1511.25
1574.67
1612.77
1629.46
1626.59
1615.49
1592.06
1561.46
1526.85
1489.53
1451.04
1411.34
1371.65
1331.45
1291.69
1252.61
1214.19
1176.61
1140.04
1104.54
1070.19
1036.92
1004.8
973.743
943.737
914.732
886.693
859.559
833.299
807.866
783.243
759.383
736.287
713.91
692.262
671.289
651.009
631.359
612.372
593.967
576.202
558.974
542.375
526.267
510.783
495.74
481.323
467.286
453.876
440.778
428.311
416.076
404.487
393.04
382.27
371.543
361.549
351.485
342.238
332.784
324.262
315.361
307.544
299.129
291.999
283.994
277.535
269.855
264.059
256.608
251.481
244.159
239.723
232.42
228.703
219.937
13.4531
13.4605
13.5461
13.802
14.3333
15.0042
15.717
16.341
16.9276
17.3476
17.9008
18.3641
19.2973
20.4973
22.7346
26.2297
31.7051
40.7401
54.7076
75.9262
106.216
146.832
198.737
260.649
330.604
405.95
481.844
555.811
623.172
684.721
737.427
780.797
814.845
840.011
858.017
868.973
874.757
874.304
871.785
866.121
857.508
846.902
834.831
821.463
807.172
792.073
776.479
760.3
743.879
727.293
710.56
693.747
676.929
660.154
643.496
626.953
610.627
594.514
578.705
563.166
547.991
533.13
518.658
504.519
490.8
477.415
464.468
451.836
439.659
427.764
416.345
405.163
394.481
383.976
373.991
364.117
354.785
345.479
336.755
327.974
319.836
311.539
303.972
296.122
289.114
281.67
275.213
268.13
262.222
255.449
250.078
243.546
238.706
232.344
228.041
221.774
218.025
211.771
208.595
201.079
13.3297
13.1592
13.0623
13.1163
13.3044
13.7143
14.2848
14.9105
15.4512
15.8857
16.2128
16.4491
16.6161
16.7689
16.9014
17.0858
17.3291
17.7179
18.3272
19.2824
20.8354
23.206
26.7725
32.1029
39.7672
50.6157
65.1498
83.8603
106.801
133.979
164.745
198.054
233.086
268.247
303.059
335.783
366.643
394.537
419.323
440.698
458.623
473.111
484.527
493.035
499.029
502.735
504.58
504.32
503.188
500.686
496.929
492.201
486.722
480.543
473.826
466.646
459.154
451.356
443.435
435.335
427.256
419.094
410.995
402.93
395.002
387.136
379.42
371.76
364.281
356.848
349.644
342.449
335.542
328.588
321.976
315.258
308.941
302.461
296.437
290.171
284.432
278.365
272.92
267.044
261.908
256.214
251.405
245.879
241.4
236.013
231.879
226.611
222.839
217.657
214.259
209.123
206.118
200.984
198.387
192.197
13.3249
13.1545
13.0315
13.086
13.295
13.7724
14.4971
15.4858
16.5053
17.6081
18.6021
19.5263
20.2646
20.872
21.29
21.5917
21.7626
21.845
21.8339
21.7926
21.7017
21.6068
21.5375
21.5628
21.669
21.9276
22.4746
23.3712
24.8626
27.0601
30.322
34.7905
40.8322
48.4732
57.8825
69.0981
82.0886
96.6536
112.561
129.444
146.919
164.527
181.897
198.645
214.553
229.292
242.891
255.059
265.998
275.614
284.052
291.298
297.507
302.745
307.087
310.633
313.48
315.635
317.259
318.252
318.908
318.891
318.659
318.111
317.085
315.729
314.078
312.155
310.021
307.65
305.139
302.389
299.592
296.494
293.496
290.122
286.961
283.353
280.066
276.274
272.906
268.968
265.572
261.527
258.157
254.041
250.748
246.592
243.424
239.252
236.244
232.068
229.251
225.077
222.477
218.306
215.946
211.775
209.678
204.646
13.4656
13.3601
13.4096
13.6559
14.3034
15.6866
18.0272
21.4314
25.4054
29.7282
33.6175
37.0734
39.6193
41.5411
42.5869
43.2858
43.3559
43.2354
42.9275
42.388
41.7975
41.1685
40.5252
39.8955
39.3307
38.8599
38.4956
38.217
38.1122
38.1692
38.3497
38.7611
39.3454
40.3284
41.5595
43.3261
45.5233
48.4685
52.1197
56.7355
62.3722
69.1662
77.2273
86.5053
97.1085
108.819
121.652
135.292
149.613
164.327
179.187
193.997
208.455
222.476
235.808
248.439
260.214
271.162
281.189
290.339
298.575
305.959
312.444
318.179
323.083
327.292
330.745
333.573
335.719
337.385
338.413
339.1
339.098
338.874
338.345
337.229
336.124
334.276
332.697
330.292
328.311
325.45
323.164
319.939
317.45
313.949
311.351
307.653
305.03
301.204
298.625
294.728
292.248
288.327
285.991
282.082
279.933
276.065
274.155
269.595
15.9079
16.8591
18.5487
21.9429
28.3952
39.4772
55.4434
74.9867
95.4903
114.344
129.232
140.113
146.584
150.043
150.638
150.237
149.295
147.678
146.225
145.112
144.569
144.754
145.348
146.695
148.86
152.231
156.114
161.219
166.897
173.93
181.68
190.746
200.565
211.682
223.535
236.694
250.578
265.721
281.526
298.206
315.422
333.096
351.197
369.307
387.542
405.331
422.849
439.66
455.961
471.534
486.472
500.689
514.166
526.894
538.844
550.039
560.392
569.96
578.578
586.302
592.972
598.696
603.348
607.04
609.741
611.495
612.386
612.279
611.734
610.502
608.591
606.127
603.348
599.976
596.581
592.48
588.662
583.965
579.817
574.66
570.253
564.75
560.182
554.436
549.824
543.943
539.403
533.481
529.107
523.22
519.084
513.288
509.442
503.784
500.278
494.793
491.7
486.412
483.859
477.943
68.0092
90.4624
126.2
184.879
271.919
384.984
511.563
635.796
744.881
832.068
892.779
932.358
953.169
963.152
964.343
963.088
960.881
957.678
956.533
957.469
960.73
966.703
974.886
986.182
1000.16
1016.68
1034.82
1055.17
1077.24
1101.35
1126.5
1152.7
1179.32
1206.37
1233.36
1260.2
1286.37
1311.86
1336.09
1359.04
1380.71
1400.87
1419.77
1436.97
1452.92
1467.05
1480.02
1491.31
1501.54
1510.26
1517.9
1524.07
1529.08
1532.57
1534.99
1535.84
1535.48
1534.29
1531.76
1527.87
1522.96
1516.9
1509.98
1501.87
1493.19
1483.29
1472.82
1461.76
1450.21
1438
1425.8
1412.91
1400.37
1387.09
1374.52
1361.11
1348.67
1335.27
1323.04
1309.75
1297.86
1284.77
1273.33
1260.56
1249.69
1237.32
1227.13
1215.23
1205.8
1194.39
1185.76
1174.81
1167.01
1156.51
1149.58
1139.53
1133.59
1123.98
1119.28
1108.85
1464.57
1897.23
2398.81
2961.88
3563.06
4171.84
4746.28
5251.23
5655.05
5950.95
6132.06
6218.93
6206.43
6159.75
6061.16
5928.19
5778.14
5619.68
5459.58
5301.81
5149.42
5004.15
4867.44
4739.45
4620.53
4510.59
4409.38
4316.59
4231.65
4154.33
4083.98
4020.47
3963.11
3911.69
3865.7
3825.07
3789.27
3758.15
3731.01
3707.65
3687.63
3670.67
3656.43
3644.29
3634.24
3625.6
3618.7
3612.76
3608.28
3604.54
3602.03
3600.13
3599.09
3598.59
3598.7
3599.05
3599.83
3600.78
3601.93
3603.03
3604.25
3605.29
3606.55
3607.42
3608.54
3609.16
3609.74
3609.72
3609.45
3608.68
3607.48
3605.03
3602.61
3598.6
3594.83
3589.28
3584.27
3577.31
3571.17
3562.92
3555.74
3546.27
3538.14
3527.49
3518.46
3506.64
3496.81
3483.88
3473.48
3459.56
3448.88
3434.13
3423.57
3408.08
3398.03
3381.79
3372.54
3355.5
3346.84
3325.1
1109.72
1064.91
1122.19
1209.93
1238.56
1120.86
818.227
1979.36
54705.4
16178.1
7366.21
6108.32
6232.29
6482.32
6552.64
8024.66
74295.6
43668.5
24847.9
18464.8
16096.8
14996.1
14623.1
19661.2
76431.6
71031.2
54247.7
41189.7
32680.1
27151.8
24539.3
34050.4
69747.4
75705.7
67740.1
55640.3
44558.7
35837.1
30859.6
42694.2
57771.6
71177.9
67945.8
59041
48376.5
38733.2
32782.8
45221.9
47496.4
61841.3
62497.9
56619.2
47171.7
38182.3
32457.3
44250.2
39090.6
51825.7
53594.3
49846.9
42402.6
34682.3
29598.6
39778.2
32619.4
42988.6
44923.5
42136.2
36305
30045.4
25825.3
34054.6
27596
35619.9
37257.3
35115.5
30543.6
25557.8
22226
29385.8
23480
29581.5
30822.2
29121
25530.6
21632.5
19158.5
26022.2
20101.3
24691.9
25571.6
24181.7
21338.1
18296
16492.6
22977.9
17366.2
20779.4
21366.3
20207.1
17935.9
15552.2
14260.5
20351.7
15135.9
17656
18020.7
17039.7
15210.4
13329
12423.1
18142.6
13288.5
15148.2
15353.7
14516.7
13029.9
11534.6
10921.7
16312.6
11729.8
13109.2
13206.2
12489.3
11271.6
10076.9
9689.03
14792.7
10407.6
11439.2
11463.6
10847.1
9842.29
8883.64
8670.16
13524.2
9269.33
10052.7
10033.5
9500.91
8667.52
7896.8
7820.5
12457.8
8287.11
8890.92
8847.37
8385.7
7691.5
7072.16
7103.79
11551.9
7443.79
7912.75
7854.82
7453.89
6873.01
6376.31
6491.95
10774.3
6716.68
7084.02
7018.05
6668.94
6180.72
5783.69
5966.4
10099.5
6089.81
6378.48
6308.31
6003.21
5591.04
5275.39
5511.87
9508.91
5547.24
5774.61
5702.84
5435.25
5085.96
4837.11
5116.85
8990.18
5073.4
5253.65
5182.47
4947.26
4650.56
4457.13
4771.99
8532.85
4657.38
4801.28
4732.19
4525.12
4272.79
4125.75
4469.36
8127.67
4290.4
4406.14
4340.14
4157.66
3943.09
3835.25
4202.61
7767.38
3965.23
4059.02
3996.77
3835.93
3653.74
3579.27
3966.46
7446.15
3676.3
3752.71
3694.51
3552.76
3398.5
3352.63
3756.47
7158.84
3418.4
3481.04
3427.04
3302.2
3172.19
3150.98
3568.96
6901
3187.46
3239.08
3189.27
3079.42
2970.57
2970.83
3400.77
6668.76
2979.82
3022.61
2976.95
2880.5
2790.25
2808.84
3249.54
6458.9
2792.45
2828.18
2786.54
2702.08
2628.22
2662.83
3112.9
6268.7
2622.82
2652.89
2615.13
2541.46
2482.09
2530.79
2989.01
6095.75
2468.7
2494.26
2460.25
2396.32
2349.81
2411.01
2876.31
5937.92
2328.31
2350.3
2319.86
2264.73
2229.72
2302.01
2773.49
5793.42
2200.1
2219.26
2192.24
2145.09
2120.36
2202.56
2679.44
5660.76
2082.75
2099.7
2075.93
2036
2020.53
2111.6
2593.23
5538.67
1975.1
1990.33
1969.64
1936.3
1929.16
2028.21
2514.06
5426.13
1876.13
1890.04
1872.28
1844.95
1845.36
1951.6
2441.22
5322.29
1784.94
1797.88
1782.89
1761.07
1768.23
1881.14
2374.13
5226.42
1700.75
1712.99
1700.63
1683.85
1697.13
1816.14
2312.23
5137.87
1622.85
1634.62
1624.74
1612.59
1631.48
1756.08
2255.04
5056.07
1550.62
1562.1
1554.56
1546.69
1570.71
1700.44
2202.12
4980.51
1483.51
1494.83
1489.51
1485.59
1514.34
1648.8
2153.07
4910.68
1421.02
1432.31
1429.09
1428.82
1461.92
1600.77
2107.51
4846.06
1362.71
1374.07
1372.84
1375.92
1413.11
1556
2065.13
4786.15
1308.21
1319.7
1320.35
1326.54
1367.54
1514.19
2025.6
4730.47
1257.14
1268.84
1271.28
1280.39
1324.92
1475.07
1988.68
4678.56
1209.23
1221.18
1225.33
1237.16
1284.97
1438.38
1954.1
4630.01
1164.18
1176.45
1182.22
1196.61
1247.49
1403.94
1921.67
4584.44
1121.77
1134.4
1141.73
1158.52
1212.25
1371.54
1891.19
4541.55
1081.78
1094.81
1103.63
1122.68
1179.08
1341.04
1862.54
4501.1
1044.02
1057.49
1067.74
1088.91
1147.81
1312.27
1835.54
4462.88
1008.32
1022.25
1033.88
1057.07
1118.32
1285.14
1810.12
4426.77
974.518
988.951
1001.9
1026.99
1090.45
1259.5
1786.14
4392.64
942.47
957.425
971.653
998.542
1064.1
1235.27
1763.55
4360.45
912.053
927.55
943.011
971.611
1039.15
1212.34
1742.23
4330.11
883.129
899.186
915.843
946.079
1015.51
1190.64
1722.15
4301.6
855.61
872.239
890.053
921.851
993.084
1170.07
1703.2
4274.86
829.363
846.578
865.518
898.819
971.781
1150.58
1685.36
4249.79
804.333
822.142
842.177
876.918
951.535
1132.08
1668.52
4226.39
780.39
798.802
819.905
856.039
932.254
1114.51
1652.65
4204.43
757.515
776.535
798.679
836.153
913.906
1097.82
1637.68
4184
735.571
755.203
778.362
817.135
896.377
1081.92
1623.53
4164.74
714.581
734.825
758.973
799.001
879.681
1066.81
1610.19
4146.84
694.388
715.24
740.352
781.593
863.664
1052.36
1597.51
4129.78
675.06
696.517
722.568
764.984
848.396
1038.61
1585.55
4113.96
656.412
678.459
705.417
748.964
833.672
1025.37
1574.11
4098.64
638.564
661.194
689.033
733.675
819.635
1012.79
1563.31
4084.5
621.281
644.47
673.152
718.841
806.005
1000.57
1552.87
4070.5
604.751
628.488
657.988
704.691
793.02
988.967
1543.03
4057.68
588.675
612.926
643.198
690.86
780.302
977.586
1533.39
4044.65
573.321
598.075
629.1
677.695
768.218
966.803
1524.33
4032.87
558.312
583.525
615.248
664.714
756.257
956.093
1515.29
4020.53
544.015
569.682
602.091
652.413
744.957
946.018
1506.89
4009.56
529.953
556.025
589.057
640.163
733.632
935.85
1498.31
3997.66
516.622
543.099
576.753
628.644
723.039
926.412
1490.48
3987.39
503.416
530.241
564.447
617.037
712.264
916.693
1482.24
3975.69
490.987
518.171
552.942
606.252
702.341
907.863
1474.97
3966.08
478.566
506.047
541.3
595.227
692.057
898.534
1467
3954.46
466.997
494.797
530.564
585.157
682.795
890.322
1460.32
3945.54
455.303
483.35
519.535
574.67
672.961
881.342
1452.56
3933.94
444.568
472.898
509.554
565.31
664.372
873.782
1446.54
3925.87
433.544
462.076
499.089
555.315
654.95
865.117
1438.95
3914.32
423.62
452.404
489.851
546.664
647.051
858.253
1433.69
3907.23
413.201
442.144
479.894
537.113
637.998
849.869
1426.25
3895.82
404.067
433.234
471.385
529.165
630.797
843.735
1421.8
3889.78
394.175
423.463
461.868
519.999
622.066
835.604
1414.54
3878.71
385.81
415.294
454.069
512.736
615.546
830.182
1410.87
3873.52
376.355
405.926
444.916
503.892
607.1
822.311
1403.91
3863.07
368.743
398.483
437.807
497.286
601.214
817.511
1400.74
3858.36
359.624
389.423
428.932
488.696
593.013
809.915
1394.29
3848.69
352.762
382.701
422.503
482.722
587.71
805.649
1391.46
3844.32
343.871
373.846
413.812
474.305
579.695
798.3
1385.5
3835.24
337.772
367.852
408.06
468.941
574.926
794.473
1382.92
3831.01
328.992
359.092
399.453
460.615
567.036
787.329
1377.32
3822.27
323.686
353.848
394.382
455.837
562.727
783.803
1374.86
3818.05
314.891
345.067
385.76
447.52
554.912
776.858
1369.55
3809.65
310.4
340.583
381.362
443.293
550.977
773.454
1367.05
3805.34
299.767
329.918
370.829
433.06
541.281
764.75
1359.98
3795.29
)
;

boundaryField
{
    frontAndBack
    {
        type            empty;
    }
    inlet
    {
        type            fixedValue;
        value           uniform 14.855;
    }
    outlet
    {
        type            zeroGradient;
    }
    walls
    {
        lowReCorrection 0;
        blending        stepwise;
        n               2;
        type            epsilonWallFunction;
        value           nonuniform List<scalar> 
228
(
112.724
141.424
210.098
257.591
369.051
443.457
614.739
724.909
971.324
1128.62
1109.72
1064.91
1122.19
1209.93
1238.56
1120.86
818.227
1979.36
1979.36
8024.66
19661.2
34050.4
42694.2
45221.9
44250.2
39778.2
34054.6
29385.8
26022.2
22977.9
20351.7
18142.6
16312.6
14792.7
13524.2
12457.8
11551.9
10774.3
10099.5
9508.91
8990.18
8532.85
8127.67
7767.38
7446.15
7158.84
6901
6668.76
6458.9
6268.7
6095.75
5937.92
5793.42
5660.76
5538.67
5426.13
5322.29
5226.42
5137.87
5056.07
4980.51
4910.68
4846.06
4786.15
4730.47
4678.56
4630.01
4584.44
4541.55
4501.1
4462.88
4426.77
4392.64
4360.45
4330.11
4301.6
4274.86
4249.79
4226.39
4204.43
4184
4164.74
4146.84
4129.78
4113.96
4098.64
4084.5
4070.5
4057.68
4044.65
4032.87
4020.53
4009.56
3997.66
3987.39
3975.69
3966.08
3954.46
3945.54
3933.94
3925.87
3914.32
3907.23
3895.82
3889.78
3878.71
3873.52
3863.07
3858.36
3848.69
3844.32
3835.24
3831.01
3822.27
3818.05
3809.65
3805.34
3795.29
105.931
146.583
198.393
265.765
350.078
456.054
585.729
743.673
931.838
1154.03
1464.57
1897.23
2398.81
2961.88
3563.06
4171.84
4746.28
5251.23
5655.05
5950.95
6132.06
6218.93
6206.43
6159.75
6061.16
5928.19
5778.14
5619.68
5459.58
5301.81
5149.42
5004.15
4867.44
4739.45
4620.53
4510.59
4409.38
4316.59
4231.65
4154.33
4083.98
4020.47
3963.11
3911.69
3865.7
3825.07
3789.27
3758.15
3731.01
3707.65
3687.63
3670.67
3656.43
3644.29
3634.24
3625.6
3618.7
3612.76
3608.28
3604.54
3602.03
3600.13
3599.09
3598.59
3598.7
3599.05
3599.83
3600.78
3601.93
3603.03
3604.25
3605.29
3606.55
3607.42
3608.54
3609.16
3609.74
3609.72
3609.45
3608.68
3607.48
3605.03
3602.61
3598.6
3594.83
3589.28
3584.27
3577.31
3571.17
3562.92
3555.74
3546.27
3538.14
3527.49
3518.46
3506.64
3496.81
3483.88
3473.48
3459.56
3448.88
3434.13
3423.57
3408.08
3398.03
3381.79
3372.54
3355.5
3346.84
3325.1
)
;
    }
}


// ************************************************************************* //
