/*--------------------------------*- C++ -*----------------------------------*\
| =========                 |                                                 |
| \\      /  F ield         | OpenFOAM: The Open Source CFD Toolbox           |
|  \\    /   O peration     | Version:  v2012                                 |
|   \\  /    A nd           | Website:  www.openfoam.com                      |
|    \\/     M anipulation  |                                                 |
\*---------------------------------------------------------------------------*/
FoamFile
{
    version     2.0;
    format      ascii;
    class       volScalarField;
    location    "0.186";
    object      epsilon.air;
}
// * * * * * * * * * * * * * * * * * * * * * * * * * * * * * * * * * * * * * //

dimensions      [0 2 -3 0 0 0 0];


internalField   nonuniform List<scalar> 
1900
(
112.724
141.424
210.098
257.591
369.051
443.457
614.741
724.902
971.333
1128.61
15.4676
16.4471
18.6376
20.4503
23.757
27.728
31.9998
39.31
44.9854
56.977
14.7926
14.6414
14.5755
14.5063
14.515
14.5559
14.6443
14.829
15.0762
15.4173
14.77
14.6304
14.4634
14.3354
14.1726
14.059
13.9039
13.8079
13.6653
13.5938
14.7766
14.6216
14.4704
14.3205
14.1747
14.029
13.8889
13.7473
13.6138
13.477
14.7777
14.6206
14.4714
14.3197
14.1754
14.0285
13.8891
13.7473
13.6132
13.4774
14.7777
14.6207
14.473
14.3236
14.184
14.0451
13.9174
13.7916
13.6807
13.5716
14.7758
14.6501
14.5637
14.5035
14.5111
14.5499
14.6405
14.8196
15.0445
15.3953
15.2107
16.6044
18.2726
20.6843
23.5874
27.5784
32.2609
38.4099
45.5668
54.8137
105.96
146.557
198.371
265.761
349.994
456.092
585.628
743.763
931.804
1154.15
4102.34
15196
19567.5
22442.8
21114.1
18030.3
15096.6
12804.1
11301.1
10380.8
9876.19
9695.49
9520.98
9255.15
8849.97
8351.67
7797.86
7211.93
6645.59
6126.79
5649.49
5222.47
4838.14
4487.04
4167.61
3878.13
3615.7
3378.27
3162.64
2966.97
2788.8
2626.11
2477.2
2340.57
2215.03
2099.43
1992.85
1894.37
1803.22
1718.72
1640.27
1567.31
1499.34
1435.91
1376.63
1321.12
1269.07
1220.15
1174.11
1130.7
1089.69
1050.89
1014.13
979.253
946.124
914.604
884.591
855.96
828.64
802.509
777.526
753.569
730.626
708.569
687.427
667.053
647.52
628.654
610.578
593.075
576.325
560.054
544.511
529.349
514.904
500.738
487.296
474.024
461.51
449.051
437.413
425.699
414.903
403.875
393.901
383.499
374.329
364.482
356.101
346.725
339.121
330.118
323.288
314.546
308.501
299.896
294.664
286.061
281.67
271.307
113.005
337.677
517.759
922.639
1125.94
1151.36
1123.61
1059.65
1052.59
1091.46
1196.08
1408.09
1694.37
2026.54
2378.03
2691.21
2969.06
3202.29
3357.71
3433.92
3425.99
3387.39
3302.41
3184.68
3056.52
2925.24
2794.59
2667.87
2544.24
2426.78
2314.58
2207.49
2106.04
2010.04
1919.65
1834.53
1754.58
1679.29
1608.4
1541.67
1478.82
1419.56
1363.67
1310.9
1261.09
1213.98
1169.41
1127.17
1087.09
1049
1012.76
978.216
945.256
913.764
883.648
854.807
827.174
800.659
775.221
750.769
727.285
704.671
682.934
661.965
641.806
622.327
603.61
585.498
568.116
551.266
535.127
519.446
504.463
489.856
475.942
462.313
449.385
436.642
424.63
412.692
401.54
390.338
380.012
369.486
359.96
350.05
341.307
331.943
323.966
315.069
307.844
299.319
292.842
284.581
278.86
270.744
265.804
257.705
253.575
243.843
16.423
19.867
22.8797
29.0923
34.7941
38.7605
41.7324
43.806
46.7262
50.7256
58.7641
70.9536
95.441
130.102
189.401
267.362
373.434
508.047
665.539
835.922
1004
1161.86
1302.22
1419.41
1510.37
1573.77
1612.34
1629.58
1626.82
1615.8
1592.48
1561.93
1527.26
1489.79
1451.16
1411.4
1371.66
1331.43
1291.65
1252.55
1214.15
1176.6
1140.04
1104.53
1070.16
1036.86
1004.73
973.66
943.646
914.649
886.626
859.517
833.281
807.874
783.277
759.437
736.352
713.975
692.32
671.334
651.042
631.379
612.38
593.965
576.194
558.96
542.357
526.245
510.757
495.71
481.287
467.248
453.837
440.742
428.281
416.057
404.48
393.048
382.292
371.578
361.594
351.535
342.289
332.829
324.299
315.383
307.553
299.121
291.978
283.962
277.495
269.811
264.014
256.568
251.446
244.135
239.707
232.417
228.708
219.956
13.4531
13.4606
13.5463
13.8023
14.3327
15.0053
15.7154
16.338
16.9261
17.3474
17.9011
18.3655
19.3051
20.4965
22.7316
26.2411
31.7716
40.6696
54.6858
76.0239
106.246
146.648
198.344
260.283
330.134
405.266
481.204
555.486
623.048
684.751
737.69
781.297
815.455
840.532
858.353
869.199
874.819
874.322
871.735
865.948
857.351
846.796
834.78
821.421
807.133
792.03
776.438
760.255
743.827
727.238
710.513
693.716
676.92
660.165
643.529
627.008
610.697
594.586
578.77
563.218
548.026
533.148
518.662
504.51
490.781
477.391
464.441
451.807
439.628
427.731
416.31
405.126
394.442
383.94
373.958
364.093
354.771
345.478
336.768
327.999
319.873
311.584
304.021
296.169
289.157
281.703
275.235
268.138
262.217
255.432
250.051
243.513
238.668
232.307
228.005
221.744
218
211.757
208.587
201.085
13.3297
13.1591
13.0625
13.1165
13.3045
13.7153
14.2826
14.9078
15.4495
15.885
16.2094
16.4478
16.6215
16.769
16.9051
17.0874
17.3393
17.7113
18.3261
19.285
20.8397
23.2062
26.7349
32.0621
39.7195
50.5415
64.9823
83.7036
106.655
133.879
164.698
198.142
233.311
268.573
303.395
336.124
366.964
394.823
419.507
440.735
458.565
473.015
484.451
492.946
498.931
502.619
504.482
504.226
503.1
500.609
496.861
492.161
486.704
480.554
473.863
466.706
459.238
451.451
443.533
435.423
427.33
419.151
411.035
402.953
395.008
387.131
379.404
371.735
364.249
356.808
349.597
342.397
335.484
328.529
321.921
315.21
308.902
302.435
296.426
290.176
284.454
278.399
272.966
267.094
261.961
256.263
251.447
245.911
241.42
236.022
231.876
226.599
222.816
217.63
214.227
209.091
206.085
200.957
198.363
192.183
13.3249
13.1544
13.0316
13.0862
13.2952
13.7716
14.4961
15.4854
16.5031
17.6032
18.6021
19.5292
20.2653
20.8724
21.297
21.6004
21.7646
21.8408
21.8287
21.7887
21.703
21.604
21.5341
21.56
21.6678
21.9275
22.4657
23.3671
24.8441
27.0503
30.2955
34.7771
40.8304
48.5162
57.9633
69.2156
82.2506
96.8564
112.801
129.657
147.098
164.644
181.989
198.684
214.539
229.212
242.762
254.903
265.811
275.425
283.853
291.131
297.368
302.651
307.037
310.624
313.514
315.705
317.357
318.371
319.033
319.019
318.787
318.227
317.184
315.806
314.136
312.19
310.037
307.639
305.106
302.334
299.516
296.407
293.403
290.026
286.87
283.272
280.003
276.23
272.885
268.969
265.594
261.565
258.208
254.099
250.809
246.652
243.478
239.3
236.281
232.096
229.264
225.08
222.467
218.286
215.918
211.739
209.641
204.608
13.4657
13.3601
13.4097
13.6559
14.3036
15.684
18.0275
21.4363
25.3907
29.7152
33.6395
37.0808
39.5987
41.5407
42.6259
43.3106
43.3406
43.2131
42.9105
42.4089
41.7899
41.1477
40.5095
39.9199
39.3554
38.8648
38.4853
38.2134
38.1118
38.1683
38.3462
38.7503
39.3273
40.3096
41.5611
43.3344
45.5706
48.4902
52.1823
56.779
62.4681
69.2448
77.3199
86.5804
97.1606
108.842
121.612
135.224
149.48
164.167
178.966
193.746
208.185
222.224
235.599
248.285
260.108
271.103
281.169
290.373
298.655
306.094
312.616
318.372
323.286
327.486
330.939
333.738
335.871
337.495
338.489
339.114
339.074
338.808
338.239
337.079
335.964
334.107
332.54
330.15
328.195
325.366
323.115
319.925
317.467
313.992
311.414
307.732
305.116
301.297
298.713
294.814
292.321
288.388
286.035
282.105
279.94
276.047
274.127
269.544
15.9094
16.858
18.5484
21.9345
28.4095
39.4737
55.4399
74.996
95.4137
114.331
129.35
140.096
146.462
150.134
150.742
150.3
149.162
147.64
146.26
145.137
144.488
144.676
145.322
146.847
148.942
152.212
156.051
161.181
166.963
173.936
181.662
190.658
200.464
211.61
223.533
236.746
250.722
265.718
281.563
298.151
315.534
333.203
351.319
369.316
387.419
405.18
422.695
439.67
456.02
471.685
486.552
500.722
514.148
526.882
538.84
550.045
560.332
569.846
578.385
586.105
592.804
598.6
603.347
607.111
609.883
611.7
612.664
612.575
612.055
610.849
608.898
606.371
603.478
600.029
596.528
592.336
588.463
583.712
579.548
574.388
569.999
564.537
560.016
554.326
549.763
543.929
539.423
533.536
529.184
523.323
519.198
513.419
509.577
503.92
500.413
494.907
491.803
486.473
483.897
477.926
68.0329
90.4319
126.243
184.86
271.942
385.035
511.374
635.885
744.895
831.644
892.923
932.782
953.136
963.054
964.597
963.397
960.21
957.349
956.997
957.838
960.334
966.095
975.294
986.724
1000.04
1016.26
1034.72
1055.5
1077.59
1101.24
1126.19
1152.31
1179.15
1206.41
1233.48
1260.34
1286.48
1311.77
1336.19
1359.2
1381.04
1401.07
1419.87
1436.9
1452.74
1466.9
1479.88
1491.32
1501.49
1510.25
1517.73
1523.88
1528.88
1532.44
1534.92
1535.77
1535.38
1534.12
1531.46
1527.6
1522.75
1516.73
1509.98
1501.9
1493.34
1483.55
1473.14
1462.12
1450.69
1438.51
1426.27
1413.3
1400.63
1387.22
1374.52
1360.99
1348.45
1334.97
1322.7
1309.4
1297.51
1284.48
1273.08
1260.36
1249.53
1237.21
1227.05
1215.19
1205.78
1194.41
1185.82
1174.92
1167.17
1156.71
1149.83
1139.78
1133.85
1124.19
1119.47
1108.94
1464.65
1897.29
2399.02
2961.77
3563.12
4171.74
4746
5251.47
5654.94
5950.76
6132.64
6219.16
6206.47
6159.61
6061.04
5927.98
5777.99
5619.66
5459.43
5301.77
5149.6
5004.39
4867.51
4739.51
4620.56
4510.58
4409.22
4316.39
4231.47
4154.25
4083.99
4020.47
3963.16
3911.91
3866.04
3825.41
3789.44
3758.06
3730.89
3707.55
3687.62
3670.51
3656.21
3644.06
3634.15
3625.65
3618.85
3613.02
3608.51
3604.73
3601.99
3599.94
3598.78
3598.28
3598.4
3598.79
3599.59
3600.6
3601.83
3603.09
3604.5
3605.62
3606.97
3607.8
3608.82
3609.37
3609.86
3609.81
3609.52
3608.75
3607.57
3605.18
3602.74
3598.73
3594.96
3589.36
3584.27
3577.19
3570.93
3562.57
3555.31
3545.8
3537.65
3527.05
3518.08
3506.37
3496.68
3483.9
3473.63
3459.85
3449.26
3434.56
3424
3408.48
3398.38
3382.03
3372.7
3355.53
3346.81
3324.98
1109.73
1064.95
1122.24
1210
1238.65
1120.94
818.287
1979.51
54691.9
16170.6
7366.02
6109.43
6233.25
6483.19
6553.63
8026.43
74298.4
43686.3
24860.7
18472.6
16101.2
14998.9
14625.7
19666.8
76426.1
71040
54261.8
41200.3
32686.8
27155.5
24541.6
34055.9
69740.9
75704.8
67742.3
55642.7
44560
35837.1
30859
42693.5
57770.8
71174.9
67941.1
59035.8
48372.3
38730
32780.2
45217.4
47500.3
61838
62491.9
56613.1
47166.9
38179
32454.6
44244.1
39098.2
51826.2
53592
49844.3
42401.3
34682.3
29599.4
39777.6
32628.4
42992.5
44925.7
42138.3
36307.7
30048.6
25829
34059.7
27603.7
35624.7
37261.3
35119.6
30547.9
25562.2
22230.5
29391.7
23484
29584.9
30826
29125.1
25534.9
21636.9
19163.2
26029.1
20101.9
24693.5
25574.2
24184.9
21341.7
18299.9
16497.4
22986.9
17365.8
20780.2
21368.1
20209.6
17938.7
15555
14264.1
20360.5
15135.5
17656.2
18021.6
17040.8
15211.5
13329.9
12424.3
18147.4
13287.3
15147.4
15353.1
14516.2
13029.1
11533.7
10920.8
16313
11728.1
13107.8
13204.8
12487.7
11269.8
10075
9687.01
14790.7
10406.4
11437.9
11462.1
10845.4
9840.4
8881.53
8667.68
13520.9
9268.91
10052
10032.5
9499.6
8665.9
7894.78
7817.78
12452.9
8287.21
8890.67
8846.8
8384.74
7690.18
7070.41
7101.24
11545.9
7443.78
7912.58
7854.39
7453.2
6872.09
6375.1
6490.09
10768.9
6716.66
7083.98
7017.89
6668.67
6180.36
5783.18
5965.47
10096
6089.99
6378.66
6308.45
6003.32
5591.13
5275.4
5511.64
9507.28
5547.49
5774.84
5703.08
5435.5
5086.22
4837.36
5116.98
8989.47
5073.5
5253.75
5182.59
4947.44
4650.8
4457.45
4772.34
8532.81
4657.29
4801.21
4732.16
4525.18
4272.99
4126.12
4469.94
8128.55
4290.24
4405.98
4340.04
4157.67
3943.25
3835.62
4203.29
7769.05
3965.04
4058.81
3996.61
3835.89
3653.84
3579.56
3967.05
7447.99
3676.08
3752.47
3694.32
3552.66
3398.52
3352.8
3756.9
7160.34
3418.17
3480.8
3426.85
3302.09
3172.17
3151.07
3569.25
6902.09
3187.3
3238.92
3189.16
3079.37
2970.58
2970.91
3400.99
6669.53
2979.76
3022.58
2976.95
2880.54
2790.33
2808.95
3249.71
6459.4
2792.51
2828.27
2786.67
2702.23
2628.38
2662.98
3113.07
6268.97
2622.98
2653.1
2615.37
2541.71
2482.32
2531
2989.21
6095.9
2468.95
2494.57
2460.57
2396.63
2350.11
2411.27
2876.56
5938.11
2328.62
2350.66
2320.23
2265.08
2230.04
2302.31
2773.79
5793.77
2200.43
2219.63
2192.6
2145.42
2120.67
2202.86
2679.78
5661.31
2083.07
2100.02
2076.24
2036.29
2020.79
2111.87
2593.57
5539.41
1975.36
1990.58
1969.87
1936.5
1929.34
2028.41
2514.35
5426.97
1876.31
1890.2
1872.4
1845.04
1845.44
1951.7
2441.42
5323.1
1785.03
1797.93
1782.9
1761.05
1768.2
1881.12
2374.19
5227.06
1700.75
1712.94
1700.54
1683.73
1697
1816.01
2312.14
5138.23
1622.76
1634.48
1624.56
1612.39
1631.25
1755.83
2254.8
5056.05
1550.47
1561.89
1554.32
1546.42
1570.41
1700.11
2201.73
4980.05
1483.3
1494.59
1489.24
1485.28
1514
1648.41
2152.55
4909.76
1420.79
1432.05
1428.8
1428.52
1461.58
1600.35
2106.92
4844.76
1362.48
1373.82
1372.57
1375.64
1412.79
1555.6
2064.51
4784.59
1308
1319.49
1320.13
1326.31
1367.27
1513.83
2025.01
4728.79
1256.97
1268.67
1271.12
1280.22
1324.71
1474.78
1988.16
4676.93
1209.1
1221.07
1225.23
1237.06
1284.85
1438.19
1953.69
4628.58
1164.11
1176.4
1182.19
1196.58
1247.45
1403.85
1921.42
4583.37
1121.75
1134.4
1141.75
1158.55
1212.28
1371.56
1891.11
4540.93
1081.8
1094.86
1103.7
1122.77
1179.19
1341.15
1862.63
4500.99
1044.08
1057.57
1067.85
1089.05
1147.98
1312.48
1835.8
4463.27
1008.41
1022.37
1034.02
1057.24
1118.53
1285.42
1810.52
4427.63
974.623
989.079
1002.06
1027.18
1090.7
1259.83
1786.65
4393.88
942.584
957.56
971.816
998.744
1064.36
1235.64
1764.13
4361.96
912.168
927.685
943.173
971.812
1039.42
1212.71
1742.85
4331.76
883.239
899.313
915.994
946.267
1015.76
1191
1722.76
4303.24
855.709
872.353
890.188
922.018
993.306
1170.4
1703.77
4276.38
829.448
846.674
865.63
898.955
971.962
1150.85
1685.84
4251.06
804.402
822.219
842.262
877.019
951.667
1132.28
1668.89
4227.36
780.441
798.855
819.958
856.096
932.327
1114.63
1652.88
4205.03
757.546
776.562
798.697
836.165
913.917
1097.85
1637.77
4184.22
735.58
755.2
778.342
817.097
896.322
1081.86
1623.46
4164.57
714.567
734.793
758.918
798.917
879.564
1066.66
1609.97
4146.34
694.351
715.179
740.26
781.465
863.49
1052.12
1597.16
4128.98
675.002
696.431
722.447
764.819
848.175
1038.3
1585.1
4112.94
656.334
678.352
705.272
748.774
833.418
1025.02
1573.57
4097.46
638.472
661.072
688.874
733.47
819.362
1012.41
1562.72
4083.22
621.18
644.342
672.99
718.636
805.734
1000.19
1552.28
4069.23
604.648
628.362
657.835
704.498
792.766
988.602
1542.45
4056.44
588.58
612.814
643.066
690.698
780.088
977.274
1532.88
4043.58
573.24
597.984
628.997
677.571
768.051
966.55
1523.89
4031.94
558.254
583.467
615.187
664.644
756.16
955.93
1514.99
4019.87
543.984
569.658
602.072
652.395
744.925
945.942
1506.7
4009.15
529.954
556.04
589.087
640.206
733.68
935.882
1498.28
3997.56
516.652
543.148
576.824
628.738
723.153
926.536
1490.6
3987.58
503.475
530.324
564.559
617.181
712.445
916.915
1482.52
3976.2
491.066
518.277
553.081
606.43
702.57
908.16
1475.37
3966.86
478.662
506.17
541.458
595.431
692.323
898.892
1467.51
3955.47
467.098
494.925
530.727
585.369
683.078
890.719
1460.92
3946.76
455.401
483.472
519.69
574.873
673.239
881.743
1453.18
3935.22
444.655
473.006
509.692
565.495
664.636
874.182
1447.2
3927.22
433.611
462.158
499.195
555.46
655.165
865.457
1439.53
3915.52
423.666
452.46
489.925
546.774
647.227
858.556
1434.24
3908.37
413.217
442.163
479.921
537.162
638.093
850.062
1426.65
3896.63
404.059
433.224
471.377
529.171
630.838
843.86
1422.11
3890.39
394.138
423.417
461.814
519.943
622.022
835.604
1414.65
3878.89
385.754
415.225
453.985
512.638
615.44
830.089
1410.84
3873.44
376.281
405.834
444.8
503.75
606.929
822.117
1403.69
3862.56
368.66
398.379
437.673
497.113
600.989
817.224
1400.4
3857.62
359.538
389.313
428.787
488.504
592.754
809.562
1393.76
3847.59
352.678
382.591
422.355
482.517
587.421
805.234
1390.86
3843.09
343.798
373.748
413.676
474.112
579.414
797.873
1384.8
3833.84
337.71
367.765
407.934
468.754
574.639
794.025
1382.21
3829.63
328.951
359.032
399.362
460.471
566.802
786.937
1376.63
3820.97
323.659
353.805
394.31
455.715
562.515
783.43
1374.2
3816.86
314.892
345.059
385.735
447.461
554.785
776.597
1369.02
3808.78
310.414
340.593
381.362
443.267
550.897
773.256
1366.62
3804.66
299.811
329.969
370.886
433.117
541.321
764.732
1359.83
3795.16
)
;

boundaryField
{
    frontAndBack
    {
        type            empty;
    }
    inlet
    {
        type            fixedValue;
        value           uniform 14.855;
    }
    outlet
    {
        type            zeroGradient;
    }
    walls
    {
        lowReCorrection 0;
        blending        stepwise;
        n               2;
        type            epsilonWallFunction;
        value           nonuniform List<scalar> 
228
(
112.724
141.424
210.098
257.591
369.051
443.457
614.741
724.902
971.333
1128.61
1109.73
1064.95
1122.24
1210
1238.65
1120.94
818.287
1979.51
1979.51
8026.43
19666.8
34055.9
42693.5
45217.4
44244.1
39777.6
34059.7
29391.7
26029.1
22986.9
20360.5
18147.4
16313
14790.7
13520.9
12452.9
11545.9
10768.9
10096
9507.28
8989.47
8532.81
8128.55
7769.05
7447.99
7160.34
6902.09
6669.53
6459.4
6268.97
6095.9
5938.11
5793.77
5661.31
5539.41
5426.97
5323.1
5227.06
5138.23
5056.05
4980.05
4909.76
4844.76
4784.59
4728.79
4676.93
4628.58
4583.37
4540.93
4500.99
4463.27
4427.63
4393.88
4361.96
4331.76
4303.24
4276.38
4251.06
4227.36
4205.03
4184.22
4164.57
4146.34
4128.98
4112.94
4097.46
4083.22
4069.23
4056.44
4043.58
4031.94
4019.87
4009.15
3997.56
3987.58
3976.2
3966.86
3955.47
3946.76
3935.22
3927.22
3915.52
3908.37
3896.63
3890.39
3878.89
3873.44
3862.56
3857.62
3847.59
3843.09
3833.84
3829.63
3820.97
3816.86
3808.78
3804.66
3795.16
105.96
146.557
198.371
265.761
349.994
456.092
585.628
743.763
931.804
1154.15
1464.65
1897.29
2399.02
2961.77
3563.12
4171.74
4746
5251.47
5654.94
5950.76
6132.64
6219.16
6206.47
6159.61
6061.04
5927.98
5777.99
5619.66
5459.43
5301.77
5149.6
5004.39
4867.51
4739.51
4620.56
4510.58
4409.22
4316.39
4231.47
4154.25
4083.99
4020.47
3963.16
3911.91
3866.04
3825.41
3789.44
3758.06
3730.89
3707.55
3687.62
3670.51
3656.21
3644.06
3634.15
3625.65
3618.85
3613.02
3608.51
3604.73
3601.99
3599.94
3598.78
3598.28
3598.4
3598.79
3599.59
3600.6
3601.83
3603.09
3604.5
3605.62
3606.97
3607.8
3608.82
3609.37
3609.86
3609.81
3609.52
3608.75
3607.57
3605.18
3602.74
3598.73
3594.96
3589.36
3584.27
3577.19
3570.93
3562.57
3555.31
3545.8
3537.65
3527.05
3518.08
3506.37
3496.68
3483.9
3473.63
3459.85
3449.26
3434.56
3424
3408.48
3398.38
3382.03
3372.7
3355.53
3346.81
3324.98
)
;
    }
}


// ************************************************************************* //
