/*--------------------------------*- C++ -*----------------------------------*\
| =========                 |                                                 |
| \\      /  F ield         | OpenFOAM: The Open Source CFD Toolbox           |
|  \\    /   O peration     | Version:  v2012                                 |
|   \\  /    A nd           | Website:  www.openfoam.com                      |
|    \\/     M anipulation  |                                                 |
\*---------------------------------------------------------------------------*/
FoamFile
{
    version     2.0;
    format      ascii;
    class       volScalarField;
    location    "0.186";
    object      omega.air;
}
// * * * * * * * * * * * * * * * * * * * * * * * * * * * * * * * * * * * * * //

dimensions      [0 0 -1 0 0 0 0];


internalField   nonuniform List<scalar> 
5600
(
6586.57
7485.2
7887.17
7964.91
7866.61
7687.35
7480.84
7290.34
7124.74
6988.5
6878.04
6797.12
6735.73
6693.41
6664.3
6641.02
6628.73
6613.09
6606.77
6595.39
6590.03
6582.87
6576.77
6574.79
6568.48
6569.5
6564.78
6565.39
6564.14
6561.55
6564.23
6557.64
6562.88
6554.3
6559.14
6552.55
6553.29
6552.03
6546.93
6551.1
6542.03
6548.56
6539.82
6544.34
6539.72
6539.86
6540.13
6536.77
6539.35
6535.84
6537.36
6536.49
6535.16
6537.17
6534
6537.19
6534.38
6536.68
6535.86
6536.28
6537.77
6536.37
6539.68
6536.96
6541.6
6538.3
6543.65
6540.65
6545.62
6543.7
6547.49
6546.76
6549.89
6549.29
6553.37
6551.42
6557.62
6554.09
6561.36
6558.38
6563.82
6563.94
6565.84
6569.01
6569.7
6571.8
6575.69
6574.26
6580.2
6581.3
6578.33
6595.55
6569.18
6619.1
6543.43
6674.81
6449.19
6854.9
6050.11
7479.81
2450.59
2296.34
2571.98
2794.76
2928.86
2997.23
3011.44
2967.38
2969.68
3016.32
3074.36
3118.27
3147.57
3158.52
3154.46
3141.09
3117.41
3091.68
3061.95
3032.86
3002.57
2975.06
2944.2
2916.8
2889.11
2863.35
2839.73
2817.24
2798
2778.32
2762.03
2745.91
2732.08
2718.75
2707
2696.4
2685.84
2677.44
2668.56
2661.3
2654.11
2647.8
2641.88
2636.27
2631.4
2626.21
2621.85
2617.5
2613.36
2609.69
2605.84
2602.7
2599.4
2596.63
2593.77
2591.47
2588.87
2586.79
2584.79
2582.81
2581.18
2579.34
2578.09
2576.31
2575.29
2573.64
2572.74
2571.49
2570.71
2569.8
2569.12
2568.33
2567.77
2567.03
2566.54
2565.85
2565.46
2565.01
2564.63
2564.32
2563.99
2563.99
2563.63
2563.75
2563.23
2563.87
2562.75
2564.35
2561.82
2565.82
2560.04
2569.98
2553.91
2581.2
2536.52
2611.83
2481.95
2710.36
2288.72
3050.51
2358.54
1859.91
1592.27
1427.45
1346.93
1272.43
1281.14
1308.24
1352.68
1411.87
1482.32
1550.43
1609.28
1666.71
1701.45
1737.09
1745.57
1755.05
1742.95
1726.31
1703.35
1675.63
1654.45
1634.23
1619.67
1605.79
1593.27
1581.54
1571.47
1560.75
1551.25
1540.74
1531.53
1521.44
1512.87
1504.32
1496.06
1489
1481.38
1475.68
1468.62
1463.92
1457.67
1453.17
1448.13
1443.61
1439.7
1435.32
1432.01
1428.25
1425.06
1422.07
1418.96
1416.68
1413.68
1411.91
1409.29
1407.5
1405.46
1403.58
1402.07
1400.03
1398.99
1396.8
1396.11
1393.91
1393.4
1391.56
1391.09
1389.65
1389.07
1387.86
1387.26
1386.09
1385.69
1384.41
1384.29
1382.99
1382.94
1381.96
1381.48
1381.37
1380.07
1380.81
1378.94
1380.23
1377.85
1380.2
1375.77
1382.11
1371.46
1387.4
1363.33
1398.37
1346.71
1422.19
1310.27
1472.53
1238.4
1546.42
2345.17
1822.33
1493.34
1267.42
1111.54
992.094
907.36
846.54
802.683
777.498
758.365
771.994
788.699
827.68
857.379
905.794
938.639
979.752
1012.25
1036.83
1065.44
1074.6
1095.73
1097.65
1107.57
1106.79
1102.25
1099.53
1084.34
1080.68
1066.31
1061.62
1053.48
1047.75
1043.02
1036.57
1032.97
1027.56
1023.33
1019.52
1014.56
1011.01
1005.55
1001.69
996.581
992.346
988.305
983.909
980.492
976.595
973.352
970.158
966.894
964.361
961.166
959.089
956.386
954.267
951.913
949.585
947.723
945.227
943.753
941.152
939.95
937.432
936.448
934.307
933.413
931.676
930.705
929.112
928.122
926.48
925.768
924.071
923.642
922.017
921.543
920.438
919.34
919.254
917.288
918.03
915.643
916.724
914.027
916.085
911.448
917.205
907.294
920.161
901.842
924.897
894.285
932.22
884.283
939.175
879.554
924.014
2341.99
1815.92
1479.89
1247.81
1079.83
952.523
853.071
775.026
709.785
660.328
614.064
584.404
553.525
538.836
521.849
514.909
516.162
516.971
537.388
542.93
574.858
585.823
620.865
639.769
666.476
696.314
706.838
742.335
738.62
769.259
762.945
781.168
780.711
784.317
790.932
782.102
791.415
778.073
782.692
773.792
771.115
767.932
762.825
762.074
757.326
755.65
752.881
749.851
748.142
745.153
743.328
741.05
738.697
736.868
734.18
732.265
729.735
727.64
725.288
722.817
720.808
718.178
716.444
713.764
712.278
709.724
708.462
706.265
705.103
703.219
702.003
700.185
698.923
696.996
696.017
694.098
693.284
691.546
690.47
689.336
687.649
687.383
685.16
685.335
683.104
683.229
681.041
681.807
678.326
681.559
675.106
681.684
672.305
681.485
670.115
680.592
669.403
676.636
673.293
665.092
2341.15
1814.09
1476.78
1243.88
1074.1
945.525
843.943
763.756
695.732
642.057
593.134
554.843
519.427
489.195
466.116
438.496
427.363
401.378
399.349
378.056
379.172
368.72
365.883
374.221
365.526
391.412
380.046
417.408
409.25
447.188
449.786
475.18
496.548
500.063
538.403
526.018
565.732
554.408
578.39
578.426
584.718
593.51
590.233
600.367
596.51
601.62
601.242
599.811
601.577
597.438
598.445
594.425
593.109
590.983
588.847
587.506
585.249
584.035
582.38
581.088
579.569
578.135
576.795
575.298
574.453
572.827
572.216
570.581
569.804
568.236
567.267
565.617
564.533
562.779
561.866
560.109
559.184
557.686
556.281
555.342
553.424
552.963
550.949
550.425
548.809
547.962
546.525
546.158
543.892
544.934
541.422
543.39
539.687
541.351
538.395
539.11
537.49
536.293
536.787
533.222
2340.87
1813.44
1475.72
1242.69
1072.44
943.712
841.756
760.986
693.171
637.757
590.158
548.585
515.21
480.796
458.371
428.163
412.944
387.749
374.537
357.526
341.181
334.835
313.445
316.313
293.685
299.418
283.236
283.457
281.55
270.526
286.358
266.184
294.046
273.571
306.783
292.163
320.546
321.999
335.708
353.986
354.084
384.597
379.336
402.976
408.499
421.455
434.424
435.334
448.536
449.025
459.178
460.827
465.661
470.12
472.482
475.344
475.001
476.688
476.5
478.485
477.228
478.951
476.936
478.011
476.789
476.348
475.833
474.073
473.286
471.219
470.277
468.807
468.335
467.342
467.011
465.998
465.353
464.729
463.553
463.354
461.913
461.552
460.446
459.516
459.026
457.896
457.237
456.84
455.271
455.579
453.533
453.699
451.971
451.6
450.095
449.731
447.951
447.95
445.215
446.204
2340.75
1813.16
1475.25
1242.2
1071.81
942.942
841.156
759.748
692.778
635.931
589.871
546.467
514.35
479.212
455.818
427.906
407.989
388.483
367.768
357.079
334.612
329.735
309.207
303.4
291.539
277.209
279.605
252.959
269.037
235.096
254.829
227.382
235.693
228.058
216.284
230.463
203.023
229.582
199.999
224.819
208.775
219.449
222.268
220.325
236.36
229.778
247.967
248.223
260.367
268.27
276.069
288.065
293.419
306.226
313.721
323.023
330.361
337.451
343.884
351.901
355.366
364.21
366.381
372.9
375.662
378.754
382.172
383.486
385.967
385.973
387.516
387.647
389.468
390.059
391.429
391.558
391.691
392.16
391.68
392.206
391.7
391.259
391.064
389.63
389.85
388.504
388.005
387.707
386.043
385.961
384.111
383.457
381.91
381.028
379.348
378.932
376.732
376.791
373.833
374.181
2340.69
1813.01
1475.04
1241.92
1071.58
942.495
841
759.107
692.669
635.234
589.546
546.093
513.353
479.589
453.869
428.997
405.494
389.406
365.935
356.367
334.823
326.265
311.848
297.454
295.091
271.02
280.581
250.273
263.624
238.264
241.94
234.211
217.773
233.061
197.068
227.023
187.61
210.701
189.48
190.31
193.078
174.288
190.89
169.148
181.378
170.871
169.261
174.834
165.07
176.044
165.047
175.874
170.949
175.221
175.519
177.059
185.899
186.67
196.748
196.852
206.984
209.285
219.92
222.992
231.601
236.446
242.801
250.228
256.695
262.591
270.234
273.167
281.978
283.945
291.236
294.107
297.221
302.173
303.446
308.226
309.962
312.114
314.841
314.501
317.583
317.462
318.681
319.958
319.297
320.337
319.296
319.379
318.586
318.165
317.211
316.879
315.415
315.241
313.137
312.827
2340.67
1812.93
1474.97
1241.75
1071.52
942.276
840.899
758.941
692.384
635.31
588.899
546.53
512.356
480.187
452.926
429.17
405.281
388.533
366.86
354.417
336.439
324.177
312.749
296.89
293.582
273.438
275.868
255.549
257.033
243.739
236.906
235.83
218.107
227.866
204.229
216.358
197.168
200.964
194.183
186.175
189.701
176.29
181.411
171.528
170.647
168.646
161.38
163.805
156.03
157.714
151.701
151.882
148.671
147.103
144.355
142.889
142.408
139.636
142.482
135.314
143.545
133.206
142.875
135.17
140.902
139.55
140.861
143.241
143.59
147.702
150.447
152.75
157.537
157.28
163.172
164.339
169.708
173.42
176.355
181.797
183.696
189.047
192.526
196.179
200.84
203.422
207.524
210.509
213.363
216.956
219.05
222.343
224.286
226.595
228.49
230.21
231.809
233.275
234.323
235.36
2340.68
1812.92
1475.01
1241.74
1071.56
942.288
840.873
759.078
692.176
635.663
588.483
547.018
511.946
480.461
452.96
428.793
406.081
387.423
368.174
353.196
337.308
324.015
311.984
298.761
290.685
277.155
271.849
259.268
254.321
244.776
237.912
232.606
223.261
221.433
211
210.401
201.152
199.443
193.021
189.212
185.704
180.162
178.818
172.374
172.036
166.099
165.107
161.354
158.217
157.637
152.317
153.589
148.765
148.763
147.174
144.249
146.155
142.11
144.357
142.832
142.598
145.139
143.055
147.728
146.148
150.724
151.328
154.91
158.413
160.438
165.855
167.855
173.54
177.411
181.793
187.381
190.26
196.501
199.886
205.134
209.804
213.411
218.49
221.265
225.723
229.044
232.193
235.838
238.181
241.077
243.147
245.143
247.122
248.473
250.084
251.183
252.208
253.128
253.64
254.459
2340.71
1813
1475.14
1241.87
1071.73
942.477
841.023
759.36
692.254
636.059
588.5
547.457
512.04
480.752
453.346
428.752
406.856
387.101
369.11
353.009
337.861
324.565
311.638
300.375
289.463
279.428
270.589
261.088
254.315
245.06
239.966
231.24
227.004
219.548
215.107
209.784
204.278
201.549
194.925
194.253
187.731
187.394
182.986
181.284
180.316
176.808
179.128
175.185
179.142
177.15
180.643
182.556
184.341
190.423
191.667
199.459
202.621
209.886
216.012
221.93
230.551
235.435
245.189
250.339
258.727
265.775
271.288
279.696
283.842
291.187
295.852
300.748
306.557
309.479
314.967
317.587
320.859
324.085
325.704
328.671
329.694
331.469
332.539
332.861
334.074
333.987
334.573
334.789
334.675
334.784
334.27
334.006
333.388
332.635
331.879
330.908
330.01
328.932
327.934
327.057
2340.76
1813.17
1475.38
1242.15
1072.06
942.833
841.4
759.796
692.649
636.589
588.91
548.072
512.503
481.404
453.948
429.373
407.687
387.679
370.192
353.668
339.105
325.589
312.899
302.105
290.762
282.087
272.312
264.75
257.173
249.922
244.92
237.978
235.17
229.26
227.996
223.902
223.95
222.225
223.88
225.11
228.204
232.63
236.844
244.607
249.885
259.854
267.104
277.047
287.077
295.497
307.461
315.014
326.063
334.334
342.771
351.759
357.921
366.32
371.372
377.765
382.606
386.448
391.03
393.004
396.542
397.915
399.881
401.48
402.224
403.847
404.092
405.091
405.5
405.544
406.123
405.593
405.748
405.283
404.768
404.449
403.482
403.047
402.051
401.215
400.503
399.424
398.788
397.877
397.057
396.239
395.234
394.365
393.282
392.26
391.149
390.048
388.935
387.821
386.78
385.843
2340.87
1813.49
1475.85
1242.71
1072.73
943.56
842.244
760.693
693.672
637.689
590.13
549.441
513.965
483.156
455.776
431.672
410.145
390.767
373.797
357.953
344.599
331.782
321.249
311.709
303.584
297.318
291.735
288.636
286.108
286.675
288.344
293.077
298.528
307.335
316.29
327.936
340.272
352.599
367.562
379.161
395.039
405.849
420.056
430.794
441.624
451.925
459.268
467.815
472.846
478.399
482.316
485.13
488.348
489.95
492.097
493.256
494.065
494.917
494.723
494.967
494.307
493.689
492.931
491.574
490.747
489.206
488.235
487.067
485.961
485.144
483.977
483.209
482.198
481.225
480.407
479.287
478.47
477.488
476.522
475.715
474.689
473.906
472.971
472.076
471.275
470.292
469.389
468.344
467.306
466.255
465.134
464.069
462.93
461.881
460.763
459.746
458.673
457.698
456.787
456.002
2341.15
1814.19
1476.92
1243.99
1074.38
945.457
844.567
763.333
696.871
641.372
594.571
554.664
520.424
491.077
465.611
444.007
425.641
410.799
398.801
389.65
383.793
379.916
381.213
385.119
393.801
404.322
419.194
434.944
453.621
472.357
491.747
511.622
528.932
547.399
561.05
575.691
585.526
595.073
602.116
607.225
612.653
615.184
618.911
619.834
621.304
621.255
620.478
619.608
617.394
615.726
613.174
610.996
609.125
607.168
605.616
603.837
602.232
600.636
598.967
597.478
595.874
594.421
592.993
591.568
590.298
588.942
587.639
586.138
584.589
583.019
581.414
579.843
578.285
576.691
575.164
573.593
572.093
570.644
569.153
567.822
566.402
565.119
563.852
562.618
561.492
560.32
559.239
558.128
557.039
555.982
554.895
553.886
552.847
551.92
550.934
550.088
549.178
548.418
547.73
547.241
2342.03
1815.98
1480.11
1247.96
1080.29
952.692
854.183
775.171
712.391
660.566
619.125
586.897
562.607
545.55
534.472
530.274
534.217
545.341
560.714
581.373
604.301
630.795
657.571
684.717
711.253
734.399
755.315
770.993
784.457
793.972
801.92
807.347
810.593
812.492
811.545
810.261
806.354
802.832
798.151
794.112
790.72
787.347
784.556
781.374
778.571
775.693
772.886
770.243
767.691
765.287
762.883
760.518
757.93
755.294
752.577
749.91
747.257
744.633
742.128
739.61
737.26
734.913
732.7
730.582
728.525
726.632
724.71
722.91
721.088
719.349
717.667
715.981
714.435
712.789
711.292
709.777
708.311
706.973
705.551
704.324
703.016
701.846
700.697
699.59
698.59
697.561
696.638
695.686
694.793
693.929
693.065
692.292
691.493
690.824
690.082
689.497
688.841
688.365
687.995
687.943
2345.25
1822.39
1493.86
1268.15
1113.24
994.157
912.627
851.96
814.599
787.753
783.792
800.02
829.183
865.97
907.671
950.245
990.185
1027.17
1058.03
1083.88
1103.17
1118.68
1128.92
1135.83
1137.44
1134.68
1128.11
1118.55
1108.77
1099.36
1091.87
1085.07
1079.08
1073.23
1067.86
1062.61
1057.76
1052.98
1048.38
1043.54
1038.43
1033.39
1028.16
1023.29
1018.42
1013.94
1009.54
1005.44
1001.63
997.921
994.565
991.318
988.286
985.371
982.518
979.866
977.208
974.721
972.321
969.956
967.784
965.582
963.573
961.616
959.737
958.024
956.255
954.682
953.055
951.59
950.179
948.78
947.556
946.212
945.079
943.89
942.778
941.764
940.674
939.765
938.768
937.926
937.054
936.253
935.535
934.791
934.151
933.463
932.862
932.269
931.704
931.226
930.725
930.36
929.893
929.627
929.246
929.125
929.156
929.673
2358.73
1860.91
1594.77
1434
1354.01
1288.96
1305.29
1337.25
1392.18
1465.07
1539.83
1610.15
1672.5
1722.95
1760.16
1783.34
1792.55
1788.87
1773.26
1750.26
1724.06
1700.8
1682.11
1666.56
1652.43
1639.56
1627.33
1616.02
1604.86
1593.9
1582.68
1571.93
1561.6
1551.65
1542.58
1533.59
1525.68
1517.82
1510.87
1504.13
1497.92
1492.09
1486.38
1481.39
1476.35
1471.93
1467.49
1463.54
1459.74
1456.12
1452.92
1449.7
1446.89
1444.12
1441.57
1439.2
1436.86
1434.79
1432.71
1430.79
1428.97
1427.19
1425.58
1424
1422.52
1421.15
1419.75
1418.53
1417.24
1416.15
1415.1
1414.08
1413.23
1412.27
1411.49
1410.63
1409.86
1409.13
1408.37
1407.74
1407.04
1406.49
1405.9
1405.39
1404.95
1404.51
1404.13
1403.72
1403.4
1403.09
1402.83
1402.63
1402.44
1402.36
1402.17
1402.24
1402.1
1402.45
1402.95
1404.23
2454.74
2305.68
2580.45
2808.66
2934.23
3010
2994.6
2967.44
3014.86
3085.6
3150.08
3196.53
3222.5
3229.77
3222.31
3203.9
3178.44
3148.67
3117.94
3086.19
3054.94
3022.96
2992.05
2961.63
2933.58
2907.25
2882.82
2860.6
2839.74
2821.19
2803.49
2787.97
2773.34
2760.21
2748.31
2737.05
2727.31
2717.79
2709.58
2701.69
2694.62
2688.12
2681.88
2676.44
2670.82
2665.86
2660.96
2656.48
2652.2
2648.11
2644.52
2640.81
2637.69
2634.56
2631.73
2629.11
2626.55
2624.35
2622.07
2620.12
2618.17
2616.39
2614.73
2613.15
2611.7
2610.33
2608.99
2607.82
2606.64
2605.65
2604.72
2603.88
2603.14
2602.39
2601.77
2601.11
2600.56
2600.02
2599.52
2599.09
2598.66
2598.33
2598.04
2597.82
2597.65
2597.52
2597.41
2597.35
2597.32
2597.35
2597.45
2597.59
2597.81
2598.06
2598.29
2598.73
2598.92
2599.86
2600.82
2602.92
6588.08
7481.92
7876.77
7935.99
7826.39
7629.93
7415.07
7222.09
7053.53
6914.38
6805.33
6723.49
6663.93
6621.76
6591.69
6570.4
6554.12
6541.71
6531.14
6522.45
6515.05
6508.68
6504.29
6500.02
6497.68
6494.93
6493.34
6491.95
6490.27
6489.27
6487.1
6485.7
6483.26
6481.29
6478.98
6476.46
6474.5
6471.62
6470.01
6467.19
6465.7
6463.36
6461.79
6460.23
6458.41
6457.61
6455.72
6455.28
6453.64
6453.12
6452.04
6451.28
6450.81
6449.95
6449.88
6449.22
6449.29
6449.04
6449.16
6449.28
6449.5
6449.89
6450.28
6450.88
6451.38
6452.2
6452.78
6453.83
6454.65
6455.8
6456.98
6458.09
6459.58
6460.68
6462.35
6463.65
6465.31
6466.97
6468.47
6470.46
6471.92
6474.03
6475.67
6477.67
6479.62
6481.41
6483.64
6485.42
6487.73
6489.74
6491.98
6494.23
6496.43
6498.78
6501.03
6503.31
6505.58
6507.56
6508.8
6508.75
5486.42
3370.53
2417.38
1949.57
1666.59
1481.52
1347.19
1245.72
1163.42
1094.82
1036.33
985.208
939.176
897.54
859.837
824.917
792.066
761.272
731.865
704.184
678.041
651.806
627.125
604.531
579.697
555.389
534.575
512.763
490.847
473.067
454.607
434.442
416.09
397.113
376.84
359.162
344.574
332.852
325.593
321.788
319.05
317.613
319.634
324.272
326.075
320.795
310.48
299.882
291.066
283.956
277.511
270.578
263.141
256.179
250.377
245.654
241.183
235.753
228.265
217.933
204.614
188.954
172.328
156.051
140.917
127.199
114.977
104.235
94.9578
87.0608
80.5549
75.4335
71.6571
69.0507
67.403
66.4653
66.0224
65.8541
65.795
65.7071
65.5443
65.2889
64.9854
64.6672
64.3928
64.1726
64.0233
63.919
63.8599
63.8184
63.8002
63.7835
63.7801
63.7717
63.7731
63.7667
63.7691
63.7622
63.7644
63.7594
1576.91
2574
2360.88
1987.35
1703.19
1502.57
1355.09
1243.37
1153.58
1080.27
1018.89
966.162
919.606
878.325
841.555
807.782
776.163
746.655
718.315
691.257
665.471
639.098
613.84
590.73
565.085
539.944
519.205
497.381
475.203
457.997
440.184
419.933
401.65
382.771
362.479
345.577
332.938
323.969
319.473
316.893
313.672
311.457
312.804
316.927
318.802
314.246
304.726
294.667
286.095
278.868
271.991
264.566
256.786
249.622
243.683
238.925
234.521
229.276
222.104
212.208
199.364
184.103
167.634
151.297
135.997
122.182
110.06
99.5745
90.6506
83.2936
77.5065
73.1641
70.0635
67.9762
66.6686
65.9385
65.5995
65.493
65.4702
65.4269
65.2996
65.0881
64.817
64.5356
64.2779
64.0766
63.9304
63.8376
63.7764
63.7431
63.7199
63.7102
63.7008
63.6993
63.6944
63.6956
63.692
63.6943
63.6918
63.6993
1144.92
1414.75
1800.56
1800.09
1642.23
1475.51
1336.49
1224.46
1132.86
1057.23
994.144
940.665
894.031
853.304
817.494
784.797
754.487
726.31
699.133
672.908
647.745
621.594
596.102
572.704
546.702
520.956
500.062
477.873
454.946
437.649
420.175
399.933
381.996
363.587
344.362
330.742
323.592
319.927
319.83
318.763
312.978
307.27
306.333
309.297
311
307.041
298.266
288.701
280.317
272.905
265.585
257.796
249.891
242.728
236.8
232.058
227.716
222.609
215.673
206.113
193.647
178.693
162.313
145.867
130.412
116.589
104.629
94.5034
86.2137
79.7468
74.8948
71.3822
68.9136
67.257
66.2037
65.6103
65.3271
65.2439
65.2308
65.2109
65.1113
64.9389
64.7022
64.4587
64.2216
64.0358
63.8908
63.8034
63.7387
63.7088
63.6809
63.6747
63.6606
63.6633
63.6539
63.66
63.6523
63.6607
63.6553
63.6713
900.061
849.378
1026.13
1245.32
1336.38
1311
1237.18
1154.61
1078.47
1010.87
952.692
903.059
859.245
820.83
787.055
756.058
727.553
700.993
675.031
649.863
625.473
599.793
574.262
550.313
523.794
496.848
474.141
450.188
425.677
407.387
389.871
370.889
355.039
338.962
324.783
321.318
325.085
328.724
332.694
332.924
322.521
308.909
302.193
302.227
302.996
299.293
291.147
282.027
273.78
266.137
258.423
250.507
242.822
236.003
230.348
225.764
221.512
216.478
209.618
200.168
187.829
172.943
156.477
139.825
124.232
110.465
98.787
89.3322
82.049
76.684
72.815
70.0724
68.1335
66.8056
65.9264
65.4112
65.1453
65.0583
65.0363
65.0256
64.9491
64.8156
64.614
64.4053
64.1906
64.0233
63.8831
63.8005
63.7322
63.7036
63.6709
63.6664
63.648
63.6533
63.6402
63.6499
63.6391
63.6522
63.6446
63.6679
676.681
658.172
667.656
731.1
832.758
917.643
956.73
956.271
933.603
900.283
864.566
830.851
798.694
769.082
741.88
715.696
691.117
667.56
643.616
619.989
596.346
571.068
545.096
518.846
489.898
459.962
432.284
404.9
380.584
362.687
347.979
335.882
327.349
320.013
319.269
330.934
346.149
354.32
358.13
358.21
344.714
320.856
303.824
297.641
295.765
291.522
283.697
274.917
266.745
258.879
250.952
243.308
236.393
230.449
225.487
221.321
217.265
212.249
205.236
195.527
182.873
167.624
150.752
133.722
117.929
104.296
93.2247
84.7892
78.6719
74.376
71.3592
69.2277
67.6796
66.5758
65.7991
65.3142
65.0342
64.9216
64.8752
64.8614
64.8002
64.7026
64.5364
64.3618
64.172
64.0281
63.8981
63.8224
63.7516
63.7237
63.6862
63.6824
63.6597
63.667
63.6503
63.6631
63.6493
63.6667
63.6572
63.6869
531.461
532.498
527.972
528.445
540.682
565.703
596.664
627.817
651.096
665.404
671.512
671.736
668.075
661.946
652.774
640.303
626.172
609.979
591.273
570.923
547.979
522.732
495.166
463.035
428.297
394.574
362.84
340.15
327.22
320.919
320.309
321.657
324.358
330.619
342.97
362.647
381.304
388.58
388.564
386.558
373.425
343.994
314.965
298.836
291.348
284.885
276.615
267.878
259.658
251.668
243.972
237.318
232.044
227.802
224.163
220.817
217.165
212.169
204.765
194.334
180.762
164.552
146.816
129.158
113.111
99.7357
89.3897
81.8952
76.678
73.1244
70.6543
68.8954
67.5715
66.5834
65.8392
65.3385
65.0124
64.8509
64.7611
64.7275
64.6665
64.595
64.463
64.3297
64.1712
64.0545
63.9362
63.8697
63.7975
63.7717
63.7295
63.7273
63.7
63.7096
63.6889
63.7049
63.6878
63.7095
63.6977
63.7337
440.168
442.324
440.619
435.44
428.847
423.386
418.312
416.939
416.799
420.501
427.784
435.284
446.172
459.694
470.811
479.728
484.836
483.263
477.261
465.356
444.957
421.3
392.749
356.708
326.188
307.242
304.182
312.681
321.579
331.756
341.742
347.124
353.918
367.202
384.138
403.578
419.766
424.021
419.769
414.855
402.773
373.561
336.851
309.65
293.361
282.021
271.773
262.375
253.899
246.169
239.693
235.297
232.854
231.318
229.656
227.5
224.439
219.504
211.535
199.97
184.903
167.156
148.127
129.598
113.112
99.6511
89.4041
82.0616
76.9673
73.502
71.0791
69.3441
68.0081
66.9828
66.1645
65.5763
65.1475
64.8972
64.7281
64.6499
64.565
64.5078
64.4017
64.3133
64.1844
64.0992
63.9912
63.9406
63.8669
63.8504
63.802
63.8073
63.7723
63.7895
63.7607
63.7851
63.7603
63.7913
63.7734
63.8206
369.987
372.177
372.051
368.421
361.738
353.04
342.287
331.539
320.027
309.383
300.491
291.838
286.385
284.754
284.397
287.954
292.182
293.867
295.585
292.63
285.596
277.555
270.143
274.416
291.518
314.938
339.019
356.084
365.651
374.388
382.314
387.957
397.194
413.34
431.789
448.246
457.988
456.774
448.335
441
431.054
405.078
366.933
331.639
305.921
287.623
273.703
262.703
253.838
247.162
243.223
242.3
243.492
244.992
245.289
244.117
241.412
236.379
227.72
214.848
198.03
178.485
157.922
138.289
120.99
106.832
95.7567
87.5154
81.5111
77.235
74.0865
71.7612
69.9159
68.4933
67.3134
66.4365
65.7361
65.2911
64.9464
64.7741
64.6081
64.5457
64.4279
64.3851
64.2658
64.2322
64.1248
64.1185
64.0329
64.054
63.9842
64.024
63.9614
64.0133
63.9532
64.0143
63.957
64.0289
63.983
64.0777
310.262
310.296
309.295
305.891
300.053
292.077
282.599
272.449
262.733
253.444
245.956
240.366
236.521
235.024
235.471
237.256
240.86
245.919
252.665
261.991
274.374
291.117
314.026
339.085
360.14
378.207
394.237
405.58
413.418
420.871
428.196
436.181
448.746
465.8
481.474
489.159
487.416
478.54
466.63
458.416
452.896
436.289
402.053
363.187
330.746
306.071
288.116
275.233
266.231
261.281
260.362
262.762
266.694
269.944
270.897
269.63
266.445
260.767
251.199
237.059
218.583
197.317
175.151
154.4
136.441
122.034
110.497
101.513
94.3472
88.7373
83.998
80.1189
76.675
73.9101
71.4692
69.6424
68.0743
67.0745
66.2123
65.7993
65.3566
65.2552
65.0038
65.0499
64.8728
64.9909
64.8373
64.9942
64.8371
65.0145
64.8423
65.0343
64.8449
65.0543
64.8503
65.0833
64.8753
65.1453
64.9648
65.3019
236.026
236.863
237.331
236.846
235.706
234.207
232.995
232.906
234.365
237.389
242.434
248.609
256.157
264.559
273.549
282.439
292.006
302.563
314.232
327.889
343.461
360.576
379.27
397.988
416.015
433.891
449.198
459.846
467.952
475.736
483.583
492.823
504.963
516.398
519.782
511.719
497.207
481.712
467.701
460.033
460.328
457.976
437.098
401.417
366.208
338.245
318.016
304.085
295.317
291.716
292.375
295.682
299.56
302.031
301.687
299.095
294.573
287.708
277.158
262.353
243.085
220.97
197.761
176.387
158.213
144.447
133.779
125.77
118.829
113.124
107.299
102.04
96.2596
91.1228
85.7622
81.6332
77.6301
75.131
72.6534
71.5897
70.1958
70.0475
69.2763
69.7079
69.2718
70.0088
69.6331
70.4548
69.9699
70.7934
70.1704
70.9999
70.2638
71.1384
70.3247
71.2846
70.4485
71.5644
70.8284
72.2302
254.953
255.484
256.392
258.089
261.275
265.824
271.801
279.303
287.585
296.743
305.999
315.698
324.41
332.657
340.848
348.97
357.816
367.647
378.744
391.817
407.006
424.138
442.461
461.464
481.267
500.177
514.972
525.193
532.873
539.302
545.055
550.352
553.256
548.403
531.593
507.129
483.867
465.872
453.397
448.768
453.497
461.799
459.047
436.744
405.783
378.263
357.648
343.22
334.169
330.168
329.819
331.453
333.057
332.863
329.913
325.295
319.179
311.359
300.408
285.887
266.948
245.353
222.753
202.592
185.415
172.683
162.81
156.128
150.104
145.854
140.97
137.142
131.63
126.9
120.262
115.245
108.931
105.306
100.536
98.9507
95.8586
96.1842
94.5556
96.3878
95.5885
98.1034
97.2795
99.8321
98.547
100.973
99.2288
101.616
99.5361
102.009
99.7414
102.385
100.129
103.113
101.198
104.914
326.307
325.75
325.835
327.23
330.184
334.574
340.213
347
354.548
362.731
371.383
380.32
388.797
397.392
406.151
414.988
424.45
434.594
446.183
459.782
475.401
492.811
512.404
534.943
558.367
578.247
591.673
599.039
602.049
601.606
597.881
589.564
572.956
545.913
512.919
482.732
460.929
447.031
439.105
437.881
444.513
456.033
463.056
455.81
435.328
411.634
391.55
376.643
366.933
362.092
360.793
361.185
360.642
357.385
351.311
344.106
336.004
326.974
315.589
301.284
283.256
263.747
244.462
228.206
214.383
203.59
194.345
187.829
182.345
179.109
176.188
174.931
172.83
171.793
169.161
167.748
164.766
163.737
161.273
161.363
159.845
161.31
160.812
163.421
163.317
166.248
165.712
168.477
167.215
169.821
167.927
170.564
168.199
171.053
168.378
171.589
168.813
172.641
170.182
175.183
385.164
384.694
385.108
386.88
390.506
395.822
402.761
411.181
420.709
430.831
441.203
451.412
460.996
470.491
479.737
488.77
498.366
508.805
521.329
536.239
553.248
573.386
597.632
624.904
649.867
666.071
672.239
669.201
659.05
643.586
622.153
593.398
557.823
519.95
486.369
461.531
446.039
437.362
433.254
433.906
440.288
450.896
459.814
459.975
448.167
429.899
412.331
398.842
390.551
387.46
388.003
389.093
387.013
380.3
370.312
359.371
348.101
336.597
323.73
309.12
292.917
277.213
263.325
252.275
243.195
235.934
229.588
224.325
220.008
217.345
216.092
216.246
217.17
218.765
220.465
222.304
223.795
225.277
226.352
227.601
228.514
229.882
230.833
232.422
233.138
234.633
234.75
236.101
235.588
236.96
235.903
237.473
235.941
237.906
235.951
238.523
236.196
239.709
237.42
242.413
455.583
455.44
456.32
458.759
463.369
469.991
478.501
488.74
500.076
512.283
524.727
537
548.506
559.639
570.211
580.329
590.794
602.119
615.807
631.68
650.14
673.719
701.954
729.755
748.399
751.132
739.884
717.352
687.202
652.674
614.353
573.213
532.838
497.626
470.931
453.926
444.93
440.655
438.992
439.948
444.4
451.857
458.799
460.062
452.474
439.373
426.632
417.965
414.789
417.221
422.456
425.208
420.962
409.575
394.464
378.742
363.593
349.078
334.447
319.895
306.513
295.685
287.794
282.218
278.142
275.055
272.781
271.18
270.348
270.015
270.332
271.087
272.614
274.494
276.946
279.158
281.398
283.025
284.587
285.67
286.883
287.92
289.08
290.21
291.051
292.066
292.335
293.274
292.962
294.02
293.138
294.502
293.074
294.988
292.994
295.717
293.178
297.096
294.483
300.204
547.235
547.625
549.3
552.954
559.41
568.444
579.996
593.709
608.864
624.996
641.123
656.64
670.592
683.373
694.649
704.471
713.878
723.703
735.65
750.01
768.502
793.684
820.876
839.205
838.395
816.757
780.775
737.472
691.422
645.291
600.16
557.815
521.182
493.171
474.807
465.356
461.997
461.086
460.68
460.719
462.056
464.988
467.807
467.115
461.196
453.273
448.166
448.385
454.426
465.877
477.225
480.642
472.14
454.466
433.297
412.533
393.678
376.544
360.872
347.631
338.145
332.802
330.822
330.648
331.439
332.613
334.17
335.967
338.148
340.512
343.099
345.614
348.006
350.024
351.655
352.93
353.862
354.663
355.26
356.057
356.788
358.033
358.984
360.469
361.107
362.477
362.532
363.811
363.243
364.631
363.418
365.196
363.316
365.813
363.177
366.762
363.342
368.538
364.906
372.436
688.523
689.672
692.479
697.988
707.353
720.269
736.673
755.732
776.482
797.665
817.909
835.837
850.289
861.882
869.72
874.218
877.383
880.482
886.408
896.906
913.286
935.223
951.171
945.475
914.923
866.894
810.688
754.531
701.191
651.536
606.311
567.69
537.651
517.506
507.111
504.411
505.822
507.478
507.499
505.803
503.295
500.874
498.254
494.327
489.875
489.183
496.127
510.315
530.155
553.512
570.265
571.077
555.192
529.866
502.357
476.937
454.981
436.151
420.759
410.415
405.977
406.641
410.466
415.48
420.726
425.66
430.262
434.506
438.46
442.039
445.183
447.802
449.867
451.417
452.511
453.309
453.863
454.38
454.841
455.542
456.273
457.355
458.209
459.332
459.897
460.84
460.985
461.823
461.496
462.415
461.557
462.919
461.378
463.651
461.103
464.985
461.051
467.621
462.708
473.108
931.056
933.243
937.651
946.08
960.089
979.142
1002.6
1028.65
1055.38
1080.27
1101.39
1116.32
1124.38
1126.71
1121.94
1112.49
1102.34
1093.34
1090.89
1096.89
1107.67
1117.06
1107.62
1068.17
1007.98
939.225
870.81
808.259
752.668
703.531
661.478
627.899
604.657
591.921
588.688
591.974
597.622
601.468
601.498
597.651
590.94
582.673
573.787
566.464
565.917
578.199
604.94
640.75
680.35
717.215
735.379
727.714
701.099
667.32
633.837
604.671
580.737
561.547
548.3
542.845
544.908
552.169
561.695
571.489
580.442
588.122
594.517
599.789
604.033
607.373
609.853
611.632
612.797
613.563
614.042
614.419
614.742
615.159
615.643
616.371
617.127
618.082
618.85
619.715
620.231
620.876
621.1
621.603
621.489
622.024
621.523
622.468
621.364
623.328
621.051
625.245