/*--------------------------------*- C++ -*----------------------------------*\
| =========                 |                                                 |
| \\      /  F ield         | OpenFOAM: The Open Source CFD Toolbox           |
|  \\    /   O peration     | Version:  v2012                                 |
|   \\  /    A nd           | Website:  www.openfoam.com                      |
|    \\/     M anipulation  |                                                 |
\*---------------------------------------------------------------------------*/
FoamFile
{
    version     2.0;
    format      ascii;
    class       surfaceScalarField;
    location    "0.186";
    object      phi.air;
}
// * * * * * * * * * * * * * * * * * * * * * * * * * * * * * * * * * * * * * //

dimensions      [0 3 -1 0 0 0 0];
oriented        oriented;


internalField   nonuniform List<scalar> 
3672
(
0.0064006
7.14517e-06
0.00639136
8.99623e-06
0.00638142
9.68684e-06
0.00637056
1.06126e-05
0.0063586
1.17119e-05
0.00634559
1.27594e-05
0.00633129
1.40467e-05
0.00631578
1.52582e-05
0.00629637
1.91627e-05
2.80585e-05
0.00626806
0.00641089
4.26004e-06
0.00641309
6.79313e-06
0.00641555
7.2261e-06
0.00641823
7.93236e-06
0.00642104
8.90607e-06
0.00642399
9.8076e-06
0.00642694
1.10891e-05
0.00642967
1.25285e-05
0.00643129
1.75455e-05
2.48537e-05
0.0064345
0.00640988
2.38202e-06
0.00641223
4.44505e-06
0.00641473
4.71802e-06
0.00641752
5.14462e-06
0.00642056
5.87155e-06
0.00642375
6.60995e-06
0.00642716
7.68595e-06
0.00643042
9.26281e-06
0.0064346
1.33659e-05
1.8425e-05
0.00644103
0.00640936
1.0263e-06
0.00641175
2.05189e-06
0.00641429
2.17918e-06
0.00641704
2.39546e-06
0.00642008
2.82902e-06
0.00642335
3.34014e-06
0.00642686
4.1794e-06
0.00643058
5.54008e-06
0.00643542
8.52208e-06
1.19255e-05
0.00644192
0.00640916
-1.3313e-07
0.00641153
-3.17989e-07
0.00641408
-3.6805e-07
0.0064168
-3.30658e-07
0.00641985
-2.20071e-07
0.00642318
1.20093e-08
0.0064268
5.59743e-07
0.0064308
1.54157e-06
0.00643581
3.50707e-06
5.35651e-06
0.00644238
0.00640918
-1.30997e-06
0.00641156
-2.70308e-06
0.00641412
-2.9249e-06
0.00641686
-3.07022e-06
0.00641993
-3.29409e-06
0.00642331
-3.36794e-06
0.00642702
-3.15055e-06
0.00643117
-2.6108e-06
0.00643623
-1.55005e-06
-9.1818e-07
0.00644251
0.00640941
-2.72028e-06
0.00641185
-5.1427e-06
0.00641442
-5.49271e-06
0.00641721
-5.85951e-06
0.00642032
-6.40729e-06
0.00642374
-6.78915e-06
0.00642751
-6.92238e-06
0.00643175
-6.8458e-06
0.00643674
-6.54488e-06
-6.74828e-06
0.00644257
0.00640999
-4.70719e-06
0.0064124
-7.5559e-06
0.00641495
-8.04444e-06
0.00641781
-8.71402e-06
0.00642095
-9.55364e-06
0.0064244
-1.02353e-05
0.00642821
-1.0735e-05
0.00643249
-1.11202e-05
0.00643739
-1.14533e-05
-1.21458e-05
0.00644279
0.00641105
-7.76188e-06
0.00641334
-9.83865e-06
0.00641585
-1.05521e-05
0.00641858
-1.14513e-05
0.00642152
-1.24901e-05
0.00642469
-1.34058e-05
0.00642817
-1.42168e-05
0.00643204
-1.49858e-05
0.00643631
-1.57293e-05
-1.68101e-05
0.00644098
0.00640049
0.0063909
0.0063806
0.0063694
0.00635716
0.006344
0.00633004
0.0063153
0.00629982
0.00628326
0.00618912
0.000122524
-4.35877e-05
0.00598884
8.26141e-05
0.000117663
0.00572442
-0.000168607
0.000433027
0.00550756
-0.000541277
0.00075814
0.0053591
-0.00090801
0.00105647
0.00525264
-0.00120373
0.00131019
0.00517181
-0.00137932
0.00146015
0.00510267
-0.00142727
0.00149641
0.00503451
-0.00137461
0.00144276
0.00496664
-0.00125529
0.00132316
0.00489907
-0.00110317
0.00117074
0.00483218
-0.000944894
0.00101178
0.00476691
-0.000798575
0.00086385
0.00470318
-0.000671371
0.000735102
0.0046411
-0.000564618
0.00062669
0.00458112
-0.0004775
0.000537486
0.00452401
-0.000408846
0.000465956
0.00447038
-0.00035532
0.000408951
0.00442038
-0.000312493
0.000362495
0.0043743
-0.000277746
0.000323822
0.00433238
-0.000250116
0.000292032
0.00429462
-0.000228368
0.000266132
0.00426066
-0.000210532
0.000244492
0.0042303
-0.000194957
0.000225314
0.00420342
-0.000181443
0.000208328
0.00418002
-0.000170253
0.000193644
0.00416006
-0.000161027
0.000180992
0.00414295
-0.00015272
0.000169832
0.00412822
-0.000144933
0.000159659
0.00411558
-0.000137802
0.000150446
0.00410468
-0.000131463
0.000142365
0.00409525
-0.000125748
0.000135172
0.00408703
-0.00012048
0.000128704
0.00407973
-0.000115423
0.000122716
0.00407333
-0.000110621
0.000117026
0.00406777
-0.000106132
0.00011169
0.00406299
-0.000102023
0.000106805
0.00405893
-9.83089e-05
0.000102365
0.00405555
-9.49279e-05
9.83084e-05
0.00405279
-9.17471e-05
9.45087e-05
0.00405061
-8.87489e-05
9.09285e-05
0.00404894
-8.59092e-05
8.75799e-05
0.00404768
-8.31957e-05
8.44599e-05
0.00404676
-8.06678e-05
8.1583e-05
0.00404617
-7.83518e-05
7.89416e-05
0.00404587
-7.61408e-05
7.64379e-05
0.00404584
-7.39579e-05
7.39944e-05
0.00404604
-7.18203e-05
7.16211e-05
0.00404646
-6.98061e-05
6.9386e-05
0.0040471
-6.79832e-05
6.73432e-05
0.00404795
-6.63262e-05
6.54698e-05
0.00404901
-6.4732e-05
6.3677e-05
0.00405024
-6.3156e-05
6.19213e-05
0.00405164
-6.16172e-05
6.02204e-05
0.00405318
-6.01455e-05
5.86049e-05
0.00405486
-5.87697e-05
5.70938e-05
0.00405666
-5.7503e-05
5.56962e-05
0.00405859
-5.63028e-05
5.43768e-05
0.00406062
-5.51275e-05
5.30994e-05
0.00406273
-5.39574e-05
5.18435e-05
0.00406492
-5.28171e-05
5.06306e-05
0.00406717
-5.17328e-05
4.94787e-05
0.0040695
-5.07364e-05
4.84127e-05
0.00407188
-4.97972e-05
4.74081e-05
0.00407433
-4.88937e-05
4.64466e-05
0.00407682
-4.79937e-05
4.55004e-05
0.00407936
-4.71191e-05
4.45869e-05
0.00408192
-4.62744e-05
4.37089e-05
0.00408452
-4.54736e-05
4.28788e-05
0.00408714
-4.47045e-05
4.20838e-05
0.00408978
-4.39678e-05
4.13249e-05
0.00409244
-4.32455e-05
4.05858e-05
0.00409511
-4.254e-05
3.98702e-05
0.00409778
-4.18446e-05
3.91712e-05
0.00410046
-4.1173e-05
3.84991e-05
0.00410313
-4.05172e-05
3.78475e-05
0.00410579
-3.98844e-05
3.72208e-05
0.00410844
-3.9256e-05
3.66046e-05
0.00411108
-3.86413e-05
3.60052e-05
0.00411369
-3.80264e-05
3.54105e-05
0.00411629
-3.74281e-05
3.48348e-05
0.00411886
-3.68328e-05
3.42647e-05
0.0041214
-3.62551e-05
3.3714e-05
0.00412391
-3.56746e-05
3.31629e-05
0.00412639
-3.51069e-05
3.26261e-05
0.00412884
-3.45354e-05
3.20874e-05
0.00413125
-3.39805e-05
3.15658e-05
0.00413363
-3.34267e-05
3.10468e-05
0.00413598
-3.28934e-05
3.05481e-05
0.00413829
-3.23635e-05
3.00538e-05
0.00414056
-3.18599e-05
2.95854e-05
0.0041428
-3.13637e-05
2.91245e-05
0.00414501
-3.09188e-05
2.87126e-05
0.00414718
-3.04834e-05
2.83099e-05
0.00414933
-3.0195e-05
2.8047e-05
0.00415145
-2.98774e-05
2.77543e-05
0.00415358
-3.00397e-05
2.79136e-05
0.00415568
-2.99107e-05
2.78109e-05
0.00415787
-3.12137e-05
2.90189e-05
-3.1176e-05
2.92141e-05
0.00647836
7.86561e-05
0.00651174
4.92394e-05
0.00650174
-0.000158607
0.0064363
-0.000475833
0.00632498
-0.000796693
0.00617908
-0.00105783
0.00601662
-0.00121686
0.0058546
-0.00126525
0.00570345
-0.00122346
0.00556886
-0.00112069
0.0054527
-0.000987017
0.00535413
-0.000846323
0.00527078
-0.000715225
0.00519928
-0.000599866
0.00513599
-0.000501325
0.00507805
-0.000419568
0.00502359
-0.00035438
0.00497114
-0.000302868
0.00491943
-0.000260786
0.00486799
-0.000226308
0.00481764
-0.000199765
0.00476944
-0.000180171
0.00472344
-0.000164523
0.00467952
-0.000151043
0.00463815
-0.000140074
0.0045998
-0.000131896
0.00456458
-0.000125807
0.00453237
-0.000120512
0.00450297
-0.000115532
0.00447621
-0.000111049
0.00445189
-0.000107142
0.00442985
-0.0001037
0.00440988
-0.000100511
0.00439181
-9.73549e-05
0.00437544
-9.42495e-05
0.00436064
-9.13309e-05
0.00434729
-8.86766e-05
0.00433527
-8.62882e-05
0.00432443
-8.40853e-05
0.00431464
-8.19639e-05
0.00430579
-7.98948e-05
0.0042977
-7.78229e-05
0.0042903
-7.5794e-05
0.00428356
-7.39264e-05
0.00427744
-7.22361e-05
0.00427191
-7.06062e-05
0.00426691
-6.89608e-05
0.00426241
-6.73178e-05
0.00425838
-6.57716e-05
0.00425479
-6.43995e-05
0.00425162
-6.31552e-05
0.00424883
-6.19359e-05
0.00424639
-6.07169e-05
0.00424427
-5.95026e-05
0.00424245
-5.83253e-05
0.0042409
-5.72189e-05
0.00423958
-5.61875e-05
0.00423848
-5.51982e-05
0.00423757
-5.42194e-05
0.00423685
-5.32329e-05
0.00423629
-5.22643e-05
0.00423591
-5.13458e-05
0.00423568
-5.0508e-05
0.00423559
-4.97048e-05
0.00423562
-4.89219e-05
0.00423575
-4.81325e-05
0.004236
-4.73603e-05
0.00423633
-4.66059e-05
0.00423674
-4.5887e-05
0.00423723
-4.51901e-05
0.00423778
-4.45191e-05
0.00423838
-4.38517e-05
0.00423904
-4.31918e-05
0.00423972
-4.25321e-05
0.00424044
-4.18897e-05
0.00424118
-4.12575e-05
0.00424194
-4.06436e-05
0.00424271
-4.00282e-05
0.00424349
-3.94211e-05
0.00424427
-3.8809e-05
0.00424506
-3.82104e-05
0.00424583
-3.76113e-05
0.00424661
-3.70282e-05
0.00424737
-3.64398e-05
0.00424813
-3.58629e-05
0.00424887
-3.52803e-05
0.00424961
-3.47139e-05
0.00425033
-3.41474e-05
0.00425104
-3.36014e-05
0.00425173
-3.30578e-05
0.00425241
-3.25406e-05
0.00425308
-3.20306e-05
0.00425373
-3.15727e-05
0.00425437
-3.11245e-05
0.004255
-3.08245e-05
0.00425563
-3.05007e-05
0.00425624
-3.06512e-05
0.00425686
-3.05288e-05
0.00425752
-3.18826e-05
-3.17337e-05
0.00647001
4.96757e-05
0.00650349
1.57561e-05
0.00650081
-0.000155926
0.00644848
-0.000423503
0.00634924
-0.000697454
0.00621162
-0.000920199
0.00605283
-0.00105808
0.00589065
-0.00110306
0.00573792
-0.00107074
0.00560306
-0.000985835
0.00548879
-0.000872743
0.00539485
-0.000752381
0.00531902
-0.0006394
0.00525799
-0.000538836
0.00520835
-0.00045168
0.00516789
-0.00037911
0.00513489
-0.000321385
0.00510713
-0.000275102
0.00508242
-0.000236073
0.00505962
-0.000203513
0.00503817
-0.00017831
0.00501714
-0.000159145
0.00499563
-0.000143011
0.00497299
-0.000128407
0.00494889
-0.000115974
0.00492345
-0.000106453
0.00489686
-9.92177e-05
0.00486932
-9.29754e-05
0.00484104
-8.72508e-05
0.00481229
-8.22984e-05
0.00478361
-7.84579e-05
0.00475557
-7.56681e-05
0.00472863
-7.35667e-05
0.00470303
-7.17591e-05
0.00467886
-7.00743e-05
0.00465622
-6.86964e-05
0.00463521
-6.76647e-05
0.00461577
-6.68497e-05
0.00459777
-6.60838e-05
0.00458106
-6.5251e-05
0.0045655
-6.43395e-05
0.00455103
-6.33458e-05
0.00453759
-6.23556e-05
0.00452515
-6.14842e-05
0.00451361
-6.06998e-05
0.0045029
-5.98941e-05
0.00449295
-5.90154e-05
0.00448375
-5.81153e-05
0.00447525
-5.72706e-05
0.00446735
-5.65003e-05
0.00445997
-5.57796e-05
0.0044531
-5.50633e-05
0.00444673
-5.43402e-05
0.00444082
-5.35976e-05
0.00443535
-5.28591e-05
0.0044303
-5.21621e-05
0.00442563
-5.15164e-05
0.00442131
-5.08851e-05
0.00441733
-5.02385e-05
0.00441366
-4.95611e-05
0.00441028
-4.8884e-05
0.00440717
-4.82322e-05
0.00440426
-4.76041e-05
0.00440154
-4.69825e-05
0.00439899
-4.63703e-05
0.0043966
-4.5743e-05
0.00439436
-4.51194e-05
0.00439225
-4.44941e-05
0.00439025
-4.3892e-05
0.00438836
-4.32977e-05
0.00438656
-4.27192e-05
0.00438484
-4.21293e-05
0.00438318
-4.15359e-05
0.00438158
-4.09322e-05
0.00438003
-4.03398e-05
0.00437852
-3.97504e-05
0.00437705
-3.9174e-05
0.00437562
-3.85894e-05
0.0043742
-3.80094e-05
0.00437282
-3.74201e-05
0.00437145
-3.68431e-05
0.0043701
-3.62634e-05
0.00436877
-3.56987e-05
0.00436746
-3.51271e-05
0.00436616
-3.45663e-05
0.00436488
-3.39993e-05
0.00436361
-3.34484e-05
0.00436236
-3.28969e-05
0.00436113
-3.2366e-05
0.00435991
-3.18373e-05
0.0043587
-3.13345e-05
0.00435751
-3.08397e-05
0.00435633
-3.03951e-05
0.00435517
-2.99625e-05
0.00435402
-2.96732e-05
0.00435289
-2.93654e-05
0.00435176
-2.95211e-05
0.00435065
-2.9424e-05
0.0043495
-3.07292e-05
-3.06854e-05
0.0064645
2.71008e-05
0.00648861
-8.35554e-06
0.00648172
-0.000149035
0.00642849
-0.000370271
0.00633104
-0.000600004
0.00619799
-0.000787149
0.00604458
-0.000904671
0.00588731
-0.000945792
0.00573876
-0.000922186
0.00560649
-0.000853568
0.00549342
-0.000759676
0.00539986
-0.000658817
0.00532373
-0.000563268
0.00526173
-0.000476842
0.00521124
-0.000401182
0.00517087
-0.000338739
0.00513881
-0.000289325
0.00511234
-0.000248641
0.00508971
-0.000213436
0.00507089
-0.0001847
0.00505603
-0.000163447
0.00504383
-0.000146942
0.00503258
-0.000131765
0.00502203
-0.000117857
0.00501292
-0.000106866
0.00500517
-9.87015e-05
0.00499781
-9.18594e-05
0.00499012
-8.52777e-05
0.00498176
-7.88953e-05
0.00497273
-7.32699e-05
0.00496308
-6.88034e-05
0.00495268
-6.52735e-05
0.00494129
-6.21789e-05
0.00492866
-5.91285e-05
0.00491472
-5.61323e-05
0.00489959
-5.35672e-05
0.00488354
-5.16078e-05
0.00486683
-5.01488e-05
0.0048497
-4.89507e-05
0.00483231
-4.7855e-05
0.0048148
-4.68323e-05
0.00479745
-4.59993e-05
0.0047806
-4.55085e-05
0.00476443
-4.53088e-05
0.00474894
-4.52076e-05
0.00473411
-4.50653e-05
0.00471998
-4.48821e-05
0.0047066
-4.47363e-05
0.004694
-4.46697e-05
0.00468213
-4.46331e-05
0.00467091
-4.45569e-05
0.00466026
-4.44134e-05
0.00465012
-4.42083e-05
0.0046405
-4.39742e-05
0.00463138
-4.3735e-05
0.00462273
-4.35111e-05
0.00461454
-4.33282e-05
0.00460679
-4.31366e-05
0.00459945
-4.28972e-05
0.00459249
-4.26041e-05
0.00458589
-4.22823e-05
0.00457961
-4.19556e-05
0.00457362
-4.16158e-05
0.0045679
-4.12557e-05
0.0045624
-4.08777e-05
0.00455712
-4.04624e-05
0.00455202
-4.00178e-05
0.00454707
-3.95462e-05
0.00454226
-3.90774e-05
0.00453756
-3.85986e-05
0.00453296
-3.81237e-05
0.00452846
-3.76231e-05
0.00452403
-3.71099e-05
0.00451968
-3.65778e-05
0.00451539
-3.60528e-05
0.00451117
-3.55253e-05
0.004507
-3.50093e-05
0.00450289
-3.44822e-05
0.00449884
-3.39575e-05
0.00449485
-3.34248e-05
0.00449091
-3.29031e-05
0.00448702
-3.2379e-05
0.00448319
-3.18682e-05
0.00447942
-3.13508e-05
0.00447569
-3.08442e-05
0.00447203
-3.0332e-05
0.00446841
-2.98365e-05
0.00446486
-2.93404e-05
0.00446136
-2.88653e-05
0.00445791
-2.83919e-05
0.00445452
-2.79446e-05
0.00445119
-2.75061e-05
0.00444791
-2.71141e-05
0.00444468
-2.67376e-05
0.0044415
-2.64907e-05
0.00443837
-2.62402e-05
0.00443525
-2.6397e-05
0.00443222
-2.63885e-05
0.00442904
-2.75546e-05
-2.78751e-05
0.00645963
9.85239e-06
0.00647551
-2.42332e-05
0.00646423
-0.000137754
0.00641073
-0.000316773
0.00631603
-0.000505308
0.00618843
-0.000659542
0.00604146
-0.000757704
0.0058898
-0.000794129
0.00574513
-0.000777522
0.00561491
-0.000723346
0.00550271
-0.000647474
0.00540926
-0.000565371
0.00533238
-0.000486381
0.00526908
-0.000413543
0.00521778
-0.000349885
0.00517723
-0.000298194
0.0051445
-0.000256586
0.00511658
-0.000220728
0.00509303
-0.000189882
0.00507456
-0.000166233
0.00506005
-0.000148935
0.00504706
-0.000133956
0.00503489
-0.00011959
0.00502467
-0.000107637
0.00501692
-9.91204e-05
0.00501066
-9.24405e-05
0.00500467
-8.58709e-05
0.00499871
-7.93086e-05
0.00499345
-7.3635e-05
0.00498942
-6.9249e-05
0.00498632
-6.56997e-05
0.00498346
-6.24125e-05
0.00498034
-5.9058e-05
0.00497704
-5.58275e-05
0.00497396
-5.30531e-05
0.00497111
-5.07136e-05
0.00496821
-4.87093e-05
0.004965
-4.69464e-05
0.00496123
-4.5178e-05
0.00495674
-4.33655e-05
0.00495155
-4.16374e-05
0.0049457
-4.01556e-05
0.00493923
-3.90307e-05
0.00493208
-3.81608e-05
0.00492418
-3.73128e-05
0.00491549
-3.63725e-05
0.00490604
-3.54273e-05
0.00489594
-3.46443e-05
0.00488539
-3.41163e-05
0.00487455
-3.37978e-05
0.00486355
-3.35554e-05
0.00485244
-3.33015e-05
0.00484125
-3.30196e-05
0.00483005
-3.27744e-05
0.00481895
-3.26293e-05
0.00480802
-3.25855e-05
0.00479727
-3.25763e-05
0.00478669
-3.2557e-05
0.0047763
-3.25086e-05
0.00476613
-3.24345e-05
0.00475618
-3.23325e-05
0.00474644
-3.22143e-05
0.00473692
-3.20961e-05
0.00472763
-3.19626e-05
0.00471854
-3.17907e-05
0.00470965
-3.15671e-05
0.00470092
-3.12921e-05
0.00469236
-3.09834e-05
0.00468394
-3.06626e-05
0.00467567
-3.03229e-05
0.00466752
-2.99809e-05
0.00465951
-2.96081e-05
0.00465162
-2.92197e-05
0.00464385
-2.88099e-05
0.0046362
-2.84024e-05
0.00462867
-2.79903e-05
0.00462125
-2.75904e-05
0.00461394
-2.71783e-05
0.00460675
-2.67696e-05
0.00459968
-2.63512e-05
0.00459272
-2.59436e-05
0.00458587
-2.55325e-05
0.00457914
-2.51348e-05
0.00457252
-2.47334e-05
0.00456602
-2.43417e-05
0.00455964
-2.39473e-05
0.00455337
-2.35681e-05
0.00454722
-2.31907e-05
0.00454119
-2.28327e-05
0.00453527
-2.24778e-05
0.00452947
-2.2147e-05
0.00452379
-2.18263e-05
0.00451823
-2.15454e-05
0.00451277
-2.1285e-05
0.00450741
-2.11281e-05
0.00450217
-2.0995e-05
0.00449693
-2.116e-05
0.00449186
-2.13207e-05
0.00448653
-2.22255e-05
-2.32471e-05
0.00645566
-3.30158e-06
0.00646519
-3.37648e-05
0.00645042
-0.000122979
0.00639697
-0.000263324
0.00630461
-0.000412947
0.00618117
-0.000536101
0.00603901
-0.000615553
0.00589162
-0.000646731
0.00575001
-0.00063592
0.0056216
-0.000594934
0.00551045
-0.000536324
0.00541703
-0.000471954
0.00533909
-0.000408438
0.00527473
-0.000349184
0.00522304
-0.000298187
0.00518182
-0.000256976
0.00514734
-0.000222112
0.00511779
-0.00019118
0.00509415
-0.000166238
0.0050761
-0.000148179
0.00506057
-0.00013341
0.00504583
-0.000119211
0.00503315
-0.000106913
0.0050236
-9.80835e-05
0.00501605
-9.15711e-05
0.00500885
-8.5244e-05
0.00500162
-7.86356e-05
0.00499524
-7.29323e-05
0.00499038
-6.87777e-05
0.00498661
-6.54772e-05
0.00498314
-6.22256e-05
0.00497946
-5.87334e-05
0.00497585
-5.54553e-05
0.00497293
-5.2902e-05
0.00497071
-5.08369e-05
0.00496887
-4.88668e-05
0.00496702
-4.68666e-05
0.004965
-4.4925e-05
0.00496302
-4.3201e-05
0.00496137
-4.1714e-05
0.00495999
-4.02574e-05
0.00495868
-3.88469e-05
0.00495727
-3.76148e-05
0.00495564
-3.65339e-05
0.0049538
-3.547e-05
0.00495179
-3.43656e-05
0.00494963
-3.32628e-05
0.00494723
-3.22482e-05
0.00494447
-3.13602e-05
0.00494123
-3.05534e-05
0.00493742
-2.97407e-05
0.00493301
-2.88908e-05
0.00492801
-2.80236e-05
0.00492243
-2.71966e-05
0.00491625
-2.64483e-05
0.00490943
-2.57677e-05
0.00490195
-2.50985e-05
0.00489383
-2.44311e-05
0.0048851
-2.37811e-05
0.00487584
-2.31729e-05
0.00486611
-2.26051e-05
0.00485597
-2.20747e-05
0.00484546
-2.15864e-05
0.00483464
-2.11378e-05
0.00482356
-2.07174e-05
0.00481232
-2.03175e-05
0.00480096
-1.99322e-05
0.00478954
-1.95682e-05
0.0047781
-1.92221e-05
0.00476668
-1.89072e-05
0.00475531
-1.8607e-05
0.00474402
-1.83226e-05
0.00473285
-1.8041e-05
0.0047218
-1.77613e-05
0.00471089
-1.74944e-05
0.00470013
-1.72327e-05
0.00468953
-1.69927e-05
0.0046791
-1.67476e-05
0.00466885
-1.65163e-05
0.00465878
-1.62786e-05
0.00464889
-1.60563e-05
0.0046392
-1.58384e-05
0.0046297
-1.56339e-05
0.0046204
-1.54336e-05
0.00461129
-1.52405e-05
0.0046024
-1.50517e-05
0.0045937
-1.48732e-05
0.00458522
-1.47023e-05
0.00457693
-1.45435e-05
0.00456884
-1.43922e-05
0.00456095
-1.42558e-05
0.00455325
-1.41292e-05
0.00454574
-1.40301e-05
0.00453841
-1.39545e-05
0.00453122
-1.39423e-05
0.00452421
-1.39886e-05
0.00451723
-1.41742e-05
0.00451049
-1.45796e-05
0.00450335
-1.5087e-05
-1.71159e-05
0.00645273
-1.34585e-05
0.00645752
-3.85542e-05
0.00643989
-0.000105347
0.00638638
-0.000209819
0.00629583
-0.000322397
0.00617559
-0.000415856
0.00603717
-0.000477137
0.00589303
-0.000502586
0.00575364
-0.000496529
0.00562628
-0.000467575
0.00551506
-0.000425105
0.00542025
-0.000377147
0.00534013
-0.000328317
0.00527436
-0.000283411
0.00522181
-0.000245638
0.0051783
-0.000213472
0.00514095
-0.000184754
0.00511056
-0.000160794
0.00508695
-0.000142632
0.00506685
-0.000128075
0.00504813
-0.00011469
0.00503188
-0.000102965
0.00501909
-9.41172e-05
0.00500841
-8.74026e-05
0.00499809
-8.12503e-05
0.00498797
-7.51294e-05
0.00497903
-6.96972e-05
0.00497162
-6.55226e-05
0.00496507
-6.22208e-05
0.00495858
-5.89896e-05
0.0049519
-5.55435e-05
0.00494548
-5.23171e-05
0.00493975
-4.97221e-05
0.00493448
-4.76364e-05
0.00492932
-4.568e-05
0.00492402
-4.35606e-05
0.00491854
-4.13896e-05
0.00491313
-3.95111e-05
0.0049079
-3.79695e-05
0.00490274
-3.65625e-05
0.00489757
-3.50872e-05
0.00489229
-3.35617e-05
0.00488682
-3.21481e-05
0.00488121
-3.09169e-05
0.00487552
-2.97819e-05
0.0048698
-2.86522e-05
0.00486405
-2.75137e-05
0.00485823
-2.64189e-05
0.00485226
-2.53956e-05
0.00484614
-2.44293e-05
0.00483988
-2.34814e-05
0.00483353
-2.25477e-05
0.00482714
-2.16326e-05
0.0048207
-2.07564e-05
0.00481417
-1.99199e-05
0.00480751
-1.91054e-05
0.00480069
-1.82782e-05
0.00479372
-1.74584e-05
0.00478661
-1.66699e-05
0.00477936
-1.59272e-05
0.00477196
-1.52053e-05
0.00476438
-1.44877e-05
0.00475657
-1.37793e-05
0.00474853
-1.30997e-05
0.00474027
-1.2455e-05
0.0047318
-1.18464e-05
0.00472313
-1.12671e-05
0.00471428
-1.07168e-05
0.00470525
-1.01933e-05
0.00469605
-9.70919e-06
0.00468671
-9.26786e-06
0.00467726
-8.86701e-06
0.00466772
-8.5032e-06
0.00465813
-8.1694e-06
0.0046485
-7.86817e-06
0.00463887
-7.59989e-06
0.00462924
-7.36389e-06
0.00461966
-7.16322e-06
0.00461013
-6.9883e-06
0.00460069
-6.83968e-06
0.00459135
-6.71383e-06
0.00458212
-6.61371e-06
0.00457302
-6.53524e-06
0.00456407
-6.47826e-06
0.00455526
-6.43637e-06
0.00454662
-6.41053e-06
0.00453815
-6.39797e-06
0.00452985
-6.40047e-06
0.00452172
-6.41363e-06
0.00451376
-6.4379e-06
0.00450598
-6.47076e-06
0.00449836
-6.51236e-06
0.0044909
-6.57031e-06
0.0044836
-6.65214e-06
0.00447641
-6.75734e-06
0.00446938
-6.95105e-06
0.00446232
-7.12156e-06
0.00445547
-7.72764e-06
0.00444816
-7.7752e-06
-1.07117e-05
0.0064508
-2.14627e-05
0.00645216
-3.99198e-05
0.00643219
-8.53723e-05
0.00637824
-0.000155876
0.00628837
-0.000232521
0.00616929
-0.00029678
0.00603185
-0.000339696
0.00588768
-0.000358413
0.00574703
-0.000355877
0.00561764
-0.000338189
0.00550295
-0.000310416
0.00540321
-0.000277407
0.00531905
-0.000244155
0.00524956
-0.000213926
0.00519097
-0.000187049
0.00514065
-0.000163149
0.00509855
-0.000142655
0.00506371
-0.000125949
0.00503322
-0.000112145
0.00500542
-0.000100275
0.00498075
-9.00205e-05
0.00495937
-8.15873e-05
0.00493996
-7.47093e-05
0.00492138
-6.88137e-05
0.00490367
-6.35418e-05
0.00488731
-5.87729e-05
0.00487216
-5.45481e-05
0.00485755
-5.09126e-05
0.00484308
-4.77474e-05
0.00482888
-4.47907e-05
0.00481523
-4.18927e-05
0.0048021
-3.91879e-05
0.00478922
-3.68384e-05
0.00477637
-3.4794e-05
0.00476358
-3.28831e-05
0.00475098
-3.09633e-05
0.00473867
-2.9078e-05
0.00472655
-2.73961e-05
0.00471452
-2.59347e-05
0.00470254
-2.45869e-05
0.0046907
-2.32432e-05
0.00467905
-2.19096e-05
0.00466757
-2.06736e-05
0.00465624
-1.95827e-05
0.00464504
-1.8586e-05
0.00463401
-1.76211e-05
0.00462317
-1.66693e-05
0.00461251
-1.57644e-05
0.00460204
-1.49275e-05
0.00459177
-1.41532e-05
0.0045817
-1.34152e-05
0.00457186
-1.27051e-05
0.00456225
-1.20235e-05
0.00455287
-1.13782e-05
0.00454372
-1.07693e-05
0.0045348
-1.01876e-05
0.00452614
-9.61496e-06
0.00451774
-9.05913e-06
0.0045096
-8.53442e-06
0.00450172
-8.04459e-06
0.00449409
-7.57097e-06
0.0044867
-7.10373e-06
0.00447957
-6.64479e-06
0.00447268
-6.20879e-06
0.00446602
-5.7964e-06
0.00445958
-5.40794e-06
0.00445335
-5.03244e-06
0.0044473
-4.67271e-06
0.00444143
-4.3239e-06
0.00443572
-3.99758e-06
0.00443016
-3.70154e-06
0.00442472
-3.42844e-06
0.00441939
-3.17635e-06
0.00441416
-2.94414e-06
0.00440902
-2.7275e-06
0.00440396
-2.53501e-06
0.00439896
-2.36134e-06
0.00439401
-2.21465e-06
0.00438911
-2.0858e-06
0.00438424
-1.9741e-06
0.0043794
-1.87805e-06
0.00437459
-1.79776e-06
0.00436979
-1.73692e-06
0.004365
-1.69021e-06
0.00436022
-1.65774e-06
0.00435545
-1.63638e-06
0.00435068
-1.62847e-06
0.00434591
-1.63271e-06
0.00434115
-1.64945e-06
0.00433639
-1.6764e-06
0.00433163
-1.71354e-06
0.00432688
-1.76254e-06
0.00432213
-1.824e-06
0.00431739
-1.91287e-06
0.00431264
-1.99968e-06
0.00430788
-2.19241e-06
0.00430301
-2.25852e-06
0.00429815
-2.86607e-06
0.00429294
-2.55793e-06
-5.63657e-06
0.00644653
-2.70128e-05
0.00644397
-3.73617e-05
0.00642001
-6.141e-05
0.00636214
-9.80093e-05
0.00626747
-0.000137856
0.00614212
-0.000171423
0.00599644
-0.000194015
0.00584208
-0.000204053
0.00568931
-0.000203107
0.00554495
-0.000193829
0.00541338
-0.000178845
0.00529711
-0.00016114
0.00519604
-0.000143086
0.00510809
-0.000125972
0.00503145
-0.000110414
0.00496504
-9.67362e-05
0.00490737
-8.4986e-05
0.00485631
-7.4889e-05
0.00481026
-6.6094e-05
0.00476854
-5.85521e-05
0.00473076
-5.22455e-05
0.00469633
-4.71519e-05
0.00466429
-4.26755e-05
0.00463426
-3.87854e-05
0.00460621
-3.54932e-05
0.00458001
-3.25654e-05
0.00455528
-2.98233e-05
0.00453169
-2.73246e-05
0.00450912
-2.51717e-05
0.00448759
-2.32572e-05
0.00446711
-2.14206e-05
0.00444758
-1.96523e-05
0.00442881
-1.80709e-05
0.00441072
-1.6703e-05
0.00439331
-1.54751e-05
0.00437664
-1.42892e-05
0.00436069
-1.3135e-05
0.00434539
-1.20894e-05
0.00433063
-1.11773e-05
0.0043164
-1.03592e-05
0.00430274
-9.57609e-06
0.00428964
-8.81506e-06
0.00427708
-8.111e-06
0.00426499
-7.49317e-06
0.00425334
-6.94124e-06
0.00424214
-6.42122e-06
0.00423139
-5.91846e-06
0.00422108
-5.44699e-06
0.00421117
-5.02049e-06
0.00420165
-4.63506e-06
0.00419251
-4.27513e-06
0.00418374
-3.93655e-06
0.00417534
-3.61907e-06
0.00416728
-3.32502e-06
0.00415957
-3.05509e-06
0.00415219
-2.80607e-06
0.00414514
-2.56795e-06
0.00413842
-2.34183e-06
0.00413202
-2.13298e-06
0.00412592
-1.94448e-06
0.00412012
-1.76668e-06
0.00411461
-1.59527e-06
0.00410939
-1.42865e-06
0.00410446
-1.27394e-06
0.00409979
-1.12881e-06
0.00409538
-9.94228e-07
0.00409121
-8.61735e-07
0.00408727
-7.34879e-07
0.00408355
-6.07812e-07
0.00408004
-4.82429e-07
0.00407672
-3.80721e-07
0.00407357
-2.77087e-07
0.00407057
-1.80344e-07
0.00406771
-8.85034e-08
0.00406498
1.43623e-09
0.00406237
8.33636e-08
0.00405985
1.59316e-07
0.00405741
2.20773e-07
0.00405505
2.75109e-07
0.00405275
3.21724e-07
0.00405051
3.62153e-07
0.00404832
3.9658e-07
0.00404616
4.19437e-07
0.00404404
4.34994e-07
0.00404193
4.45014e-07
0.00403985
4.50501e-07
0.00403777
4.52003e-07
0.00403569
4.4913e-07
0.0040336
4.38805e-07
0.00403149
4.26106e-07
0.00402938
4.04541e-07
0.00402724
3.78988e-07
0.00402507
3.38949e-07
0.00402287
2.88412e-07
0.00402062
2.49387e-07
0.0040183
1.25935e-07
0.00401589
1.50869e-07
0.00401334
-3.11692e-07
0.00401062
1.59764e-07
-2.32795e-06
0.00625665
0.00621968
0.00615866
0.00606105
0.00592359
0.00575257
0.00555896
0.00535531
0.00515261
0.0049592
0.00478077
0.00462005
0.00447739
0.00435185
0.00424187
0.00414556
0.00406101
0.00398656
0.00392091
0.0038628
0.00381099
0.00376429
0.00372205
0.00368371
0.00364867
0.00361655
0.00358717
0.0035603
0.00353558
0.00351277
0.0034918
0.0034726
0.00345498
0.00343873
0.0034237
0.00340987
0.00339718
0.00338555
0.00337482
0.00336492
0.00335579
0.00334743
0.00333978
0.00333274
0.00332625
0.00332028
0.00331482
0.00330983
0.00330526
0.00330108
0.00329726
0.00329378
0.00329061
0.00328774
0.00328514
0.00328279
0.00328068
0.00327879
0.00327712
0.00327563
0.00327432
0.00327318
0.0032722
0.00327138
0.00327071
0.00327017
0.00326977
0.00326949
0.00326933
0.00326931
0.00326938
0.00326956
0.00326983
0.0032702
0.00327066
0.00327119
0.00327181
0.00327248
0.00327321
0.00327399
0.00327481
0.00327566
0.00327653
0.00327742
0.00327832
0.00327923
0.00328014
0.00328104
0.00328193
0.00328281
0.00328367
0.00328451
0.0032853
0.00328604
0.00328675
0.00328733
0.00328793
0.00328807
0.00328869
-0.000831931
0.000788343
-0.00121946
0.000387527
-0.00139906
0.000179604
-0.00140205
2.98393e-06
-0.00126096
-0.00014109
-0.000964944
-0.000296012
-0.000524487
-0.000440457
-0.000525013
-0.000754951
0.00166096
-0.00111808
0.000750658
-0.00122824
0.000289766
-0.00120009
-2.51742e-05
-0.00105429
-0.000286883
-0.00080876
-0.000541545
-0.000456447
-0.000792769
-0.000981964
-0.000156197
0.00225018
-0.000557936
0.0011524
-0.000717709
0.000449539
-0.000731038
-1.18447e-05
-0.000650845
-0.000367076
-0.000507296
-0.000685094
-0.000303369
-0.000996696
-0.00128582
0.000429659
0.00257866
9.69581e-05
0.0014851
-0.000111093
0.000657591
-0.000205852
8.29143e-05
-0.000222048
-0.000350881
-0.000187707
-0.000719434
-0.000121697
-0.00106271
-0.00140799
0.000870301
0.00276483
0.000617315
0.00173808
0.000395234
0.000879672
0.000239666
0.000238482
0.000137925
-0.00024914
7.01138e-05
-0.000651623
2.21301e-05
-0.00101472
-0.00138632
0.00119706
0.00287795
0.000996732
0.00193842
0.000781882
0.00109452
0.000592635
0.000427729
0.000428773
-8.52788e-05
0.000279854
-0.000502704
0.000137294
-0.000872162
-0.00124949
0.00139125
0.00294685
0.00123796
0.00209171
0.00104155
0.00129093
0.000835841
0.000633434
0.00063164
0.000118923
0.000426463
-0.000297527
0.000215945
-0.000661644
-0.00103401
0.00145067
0.00299259
0.0013326
0.00220978
0.00116186
0.00146168
0.000958561
0.000836733
0.000737548
0.000339937
0.000503676
-6.36555e-05
0.000257032
-0.000415
-0.000777454
0.00141286
0.00302249
0.00131809
0.00230454
0.00116833
0.00161144
0.000977253
0.00102781
0.000758567
0.000558623
0.000520532
0.00017438
0.000266322
-0.000160791
-0.000511616
0.00130666
0.00303899
0.00123237
0.00237883
0.00110364
0.00174017
0.000929987
0.00120147
0.000724805
0.000763805
0.000498013
0.000401171
0.000254485
8.27379e-05
-0.000257627
0.00116672
0.00304301
0.00111081
0.00243475
0.00100167
0.0018493
0.00084849
0.00135465
0.000663901
0.000948394
0.000457039
0.000608034
0.000233453
0.000306323
-2.46817e-05
0.00101835
0.00303645
0.000977758
0.00247533
0.000885666
0.00194139
0.000752683
0.00148763
0.000590776
0.0011103
0.00040756
0.000791251
0.000209187
0.000504696
0.000183994
0.000877716
0.00302258
0.000848861
0.00250419
0.000771987
0.00201827
0.000657357
0.00160226
0.00051625
0.00125141
0.000355713
0.000951788
0.000181756
0.000678653
0.000365243
0.00075342
0.00300426
0.000733054
0.00252455
0.000668909
0.00208241
0.000570464
0.00170071
0.000448185
0.00137369
0.000308585
0.00109139
0.00015728
0.000829958
0.000522022
0.000647204
0.00298375
0.000632361
0.0025394
0.000578762
0.00213601
0.000494784
0.00178469
0.000389178
0.00147929
0.000268012
0.00121255
0.000136488
0.000961481
0.000658012
0.00055789
0.00296335
0.000545811
0.00255148
0.000500754
0.00218107
0.000429709
0.00185573
0.000338864
0.00157014
0.000233721
0.0013177
0.000118949
0.00107625
0.000776466
0.000484652
0.00294465
0.000473857
0.00256227
0.000435178
0.00221975
0.00037439
0.00191652
0.000295944
0.00164858
0.000204473
0.00140917
0.000103777
0.00117695
0.000879751
0.000425396
0.00292821
0.000415235
0.00257243
0.000381184
0.0022538
0.00032814
0.00196956
0.000259693
0.00171703
0.000179617
0.00148924
9.09381e-05
0.00126563
0.000970199
0.000376664
0.00291404
0.0003669
0.0025822
0.00033643
0.00228427
0.000289506
0.00201649
0.000229159
0.00177738
0.000158546
0.00155986
8.02829e-05
0.00134389
0.00104999
0.000335812
0.00290205