/*--------------------------------*- C++ -*----------------------------------*\
| =========                 |                                                 |
| \\      /  F ield         | OpenFOAM: The Open Source CFD Toolbox           |
|  \\    /   O peration     | Version:  v2012                                 |
|   \\  /    A nd           | Website:  www.openfoam.com                      |
|    \\/     M anipulation  |                                                 |
\*---------------------------------------------------------------------------*/
FoamFile
{
    version     2.0;
    format      ascii;
    class       volScalarField;
    location    "0.176";
    object      k.air;
}
// * * * * * * * * * * * * * * * * * * * * * * * * * * * * * * * * * * * * * //

dimensions      [0 2 -2 0 0 0 0];


internalField   nonuniform List<scalar> 
5600
(
0.606341
0.840753
0.955221
0.978052
0.949302
0.897429
0.839718
0.787095
0.743465
0.707154
0.679424
0.658375
0.643242
0.632871
0.625012
0.620375
0.615982
0.613508
0.610861
0.608731
0.607336
0.605037
0.60471
0.602595
0.602871
0.601417
0.601564
0.601098
0.600589
0.601028
0.599836
0.600622
0.599304
0.599623
0.59904
0.598181
0.598882
0.596717
0.598467
0.595701
0.597513
0.595462
0.596031
0.595799
0.594493
0.59613
0.593517
0.595935
0.593381
0.595111
0.593877
0.594076
0.594454
0.593453
0.594555
0.593541
0.594195
0.594108
0.59377
0.594666
0.593704
0.594969
0.594139
0.595058
0.594897
0.595086
0.595709
0.595233
0.596478
0.595556
0.597233
0.596068
0.597928
0.596833
0.598516
0.597807
0.599101
0.598781
0.599884
0.599515
0.60105
0.600029
0.602341
0.600809
0.603168
0.602317
0.603197
0.604468
0.602973
0.606371
0.603462
0.607833
0.603415
0.612074
0.597409
0.626918
0.573064
0.67313
0.48125
0.835407
0.371735
0.315411
0.288778
0.27549
0.275129
0.284486
0.30747
0.344899
0.387066
0.430375
0.4712
0.50936
0.54134
0.569929
0.591419
0.610254
0.623157
0.633907
0.64216
0.646863
0.653831
0.654883
0.661681
0.661415
0.667209
0.667401
0.670207
0.672599
0.671821
0.675775
0.672878
0.676784
0.674403
0.675674
0.676744
0.673642
0.678902
0.672153
0.67983
0.672492
0.678622
0.675179
0.675814
0.678741
0.67345
0.681272
0.67291
0.681512
0.674938
0.679524
0.678205
0.677502
0.680545
0.677161
0.681045
0.678908
0.680211
0.681437
0.67948
0.683284
0.680041
0.684057
0.681991
0.684052
0.684356
0.684015
0.686418
0.684259
0.688257
0.684841
0.68991
0.685889
0.69107
0.687657
0.691792
0.689795
0.692653
0.691508
0.69424
0.692188
0.696756
0.692417
0.699122
0.693761
0.699721
0.697302
0.698445
0.70161
0.697794
0.70369
0.70008
0.703785
0.701461
0.710081
0.691886
0.731895
0.663512
0.776167
0.597036
0.870004
0.369295
0.281641
0.228025
0.19262
0.168968
0.153424
0.145877
0.143485
0.146876
0.155435
0.166444
0.18277
0.198317
0.219589
0.238189
0.261313
0.282198
0.304255
0.327312
0.346741
0.3715
0.388118
0.411625
0.423475
0.441341
0.451651
0.462203
0.473615
0.477633
0.489373
0.490159
0.499767
0.501892
0.505824
0.512835
0.50981
0.521845
0.513997
0.527484
0.520438
0.5292
0.529052
0.528783
0.537313
0.529319
0.542808
0.532587
0.544489
0.538728
0.543588
0.545276
0.543519
0.549673
0.545841
0.551179
0.55044
0.551466
0.555108
0.552206
0.558207
0.55467
0.559877
0.558578
0.560788
0.562512
0.56167
0.565824
0.562773
0.568757
0.564233
0.571349
0.566376
0.573108
0.569365
0.574317
0.572581
0.575907
0.574854
0.578569
0.575599
0.582186
0.57612
0.585078
0.578472
0.585558
0.583277
0.584421
0.587817
0.585415
0.588301
0.590636
0.586304
0.594611
0.590462
0.590067
0.604018
0.578929
0.621872
0.564178
0.631992
0.370293
0.280304
0.224498
0.185571
0.159024
0.137764
0.123228
0.111314
0.102599
0.0977164
0.092406
0.0938036
0.0912456
0.0970329
0.0981255
0.106045
0.112987
0.120742
0.135073
0.142164
0.163192
0.171272
0.196121
0.207786
0.230552
0.247503
0.264072
0.284743
0.294269
0.315547
0.321943
0.338759
0.347774
0.355352
0.371108
0.368636
0.390119
0.382201
0.402962
0.398255
0.409737
0.415413
0.413729
0.429963
0.419127
0.438805
0.427778
0.442238
0.438944
0.443194
0.449064
0.446207
0.455636
0.452151
0.458343
0.459942
0.460321
0.466827
0.463099
0.4711
0.467822
0.473826
0.473848
0.47605
0.479466
0.478228
0.484118
0.480387
0.488313
0.482937
0.491967
0.486472
0.494351
0.490877
0.49618
0.495218
0.498777
0.49809
0.502777
0.499102
0.507463
0.50033
0.510776
0.504059
0.511281
0.510151
0.510748
0.514812
0.513574
0.51442
0.520584
0.512469
0.524952
0.517168
0.522127
0.527569
0.518514
0.534918
0.521422
0.529819
0.370519
0.280383
0.224814
0.185534
0.158883
0.13729
0.121646
0.108987
0.0976597
0.0911602
0.0812794
0.0793867
0.0707483
0.0709794
0.0656307
0.0643721
0.0656043
0.0599736
0.0694193
0.059739
0.0750902
0.0663189
0.0819667
0.0810881
0.0915444
0.102485
0.106586
0.127069
0.127994
0.151428
0.155801
0.174171
0.187974
0.194998
0.219638
0.215374
0.246308
0.238188
0.265118
0.264393
0.276892
0.291134
0.286769
0.312979
0.299771
0.326875
0.316844
0.334017
0.335531
0.33915
0.351001
0.347729
0.361055
0.359409
0.366414
0.371661
0.371524
0.38162
0.377723
0.387873
0.385725
0.392568
0.394593
0.396994
0.402566
0.401322
0.409282
0.405234
0.415393
0.409589
0.420617
0.415185
0.424043
0.421456
0.426935
0.427229
0.430959
0.430913
0.436538
0.432542
0.442268
0.434933
0.445983
0.440306
0.446811
0.44765
0.447318
0.452526
0.45192
0.452175
0.459827
0.45156
0.463902
0.457365
0.462423
0.465953
0.463016
0.469998
0.469561
0.467695
0.370554
0.280417
0.224916
0.185758
0.158983
0.137739
0.121635
0.109542
0.097339
0.0913891
0.0804331
0.0783386
0.0690545
0.0672895
0.0626004
0.0567295
0.059938
0.0472744
0.0585731
0.0413107
0.0554056
0.0410993
0.0492515
0.0464995
0.0424444
0.0543138
0.0398256
0.0603987
0.045457
0.0630685
0.059981
0.0643782
0.0804432
0.0688967
0.101448
0.0808816
0.118144
0.102276
0.128923
0.130968
0.137138
0.160588
0.148786
0.184449
0.167457
0.199618
0.191891
0.209052
0.217014
0.218515
0.236428
0.233188
0.24928
0.25095
0.257859
0.268097
0.267579
0.281745
0.278776
0.290996
0.291227
0.298917
0.303847
0.306855
0.315127
0.314561
0.325091
0.321307
0.334132
0.328563
0.341637
0.337193
0.346848
0.346001
0.351595
0.353689
0.357839
0.358862
0.365639
0.362005
0.372844
0.366388
0.377414
0.373919
0.379207
0.382788
0.3814
0.388345
0.387894
0.389
0.396511
0.39039
0.400756
0.397195
0.401127
0.404767
0.404287
0.408842
0.41058
0.410987
0.370528
0.280478
0.224851
0.185929
0.158883
0.138044
0.121521
0.109926
0.0973116
0.0916441
0.0807035
0.0781051
0.0698266
0.0662329
0.0637625
0.0549018
0.0607069
0.0452888
0.0574711
0.0399745
0.051003
0.0404445
0.040949
0.0448496
0.0306464
0.0483465
0.0252914
0.0461085
0.0284174
0.0368777
0.0390788
0.0245348
0.0514734
0.016559
0.0583644
0.0190557
0.0564906
0.0336136
0.0472044
0.0569073
0.0382567
0.0769441
0.042084
0.0863026
0.0593187
0.0883452
0.0827826
0.0903899
0.105091
0.0983819
0.120094
0.116276
0.131411
0.136294
0.139937
0.154369
0.152553
0.169084
0.167272
0.179792
0.182685
0.190352
0.197977
0.201606
0.211974
0.212309
0.224906
0.221506
0.23661
0.231728
0.246361
0.243866
0.253926
0.255725
0.261379
0.265865
0.270641
0.273263
0.281267
0.278993
0.290485
0.286249
0.296759
0.296307
0.300647
0.306922
0.305481
0.313826
0.314114
0.316649
0.323552
0.320508
0.328948
0.328087
0.331707
0.335607
0.336262
0.341404
0.342028
0.34587
0.370467
0.280577
0.224725
0.186084
0.158744
0.138198
0.121474
0.10995
0.0975185
0.0913805
0.081288
0.0775083
0.0706941
0.0655571
0.0644384
0.0547613
0.0604258
0.046373
0.0556648
0.0424132
0.0479384
0.0432924
0.0378748
0.0462927
0.0291263
0.0467086
0.026072
0.0409028
0.0305795
0.0291746
0.0397097
0.0166612
0.0464519
0.0106422
0.0449411
0.0142285
0.0355776
0.0255764
0.0198938
0.0425945
0.00639111
0.046594
0.00901625
0.0517999
0.0231146
0.0342951
0.0367506
0.0251863
0.0451996
0.0268758
0.0449679
0.0423037
0.0481551
0.0552956
0.0491503
0.0638569
0.0583003
0.0715095
0.0692444
0.077266
0.0807981
0.0860994
0.0938628
0.0974424
0.107693
0.108049
0.121033
0.116986
0.132478
0.127947
0.142119
0.141601
0.150484
0.154557
0.159455
0.165778
0.170692
0.174757
0.183013
0.182759
0.193468
0.19212
0.201429
0.203574
0.207675
0.215166
0.214957
0.223555
0.22486
0.229093
0.234783
0.23512
0.241955
0.243159
0.247208
0.251395
0.252826
0.259217
0.259226
0.265057
0.3704
0.28068
0.224609
0.186192
0.158672
0.138201
0.121592
0.109702
0.0979486
0.090836
0.0819524
0.0769166
0.0711554
0.0655232
0.0639988
0.0559452
0.0586326
0.048851
0.0529594
0.0451803
0.0457945
0.0445815
0.0379799
0.0447964
0.0320626
0.0427769
0.0305011
0.0367249
0.0335979
0.0277223
0.0384791
0.0198452
0.0402209
0.017721
0.0356688
0.0220427
0.0265887
0.0295441
0.0159455
0.037473
0.00803198
0.038198
0.0111359
0.0295496
0.0209097
0.0189832
0.028505
0.0138546
0.0279397
0.0176368
0.0210147
0.0241476
0.0195829
0.027468
0.0190258
0.0269768
0.0222454
0.0259914
0.0257764
0.0277084
0.0296601
0.0309921
0.0324929
0.0343729
0.0390438
0.0377068
0.0468903
0.0399289
0.0518245
0.0465114
0.0570941
0.0566623
0.0624638
0.0654426
0.0681354
0.0737583
0.07691
0.0816824
0.0868904
0.0890095
0.0959107
0.0967158
0.104388
0.106646
0.111967
0.117782
0.11996
0.127458
0.129103
0.135303
0.138914
0.142168
0.14785
0.149962
0.15522
0.158798
0.161889
0.168034
0.169407
0.175168
0.370352
0.280749
0.224542
0.18624
0.158671
0.138128
0.121771
0.10941
0.0983567
0.0903694
0.0824162
0.0766006
0.0712108
0.0659047
0.063121
0.0573886
0.0567684
0.0509835
0.0509484
0.0467577
0.0450939
0.0442011
0.0396262
0.0420745
0.0356215
0.0390181
0.0339096
0.0344586
0.0342001
0.0292472
0.0347871
0.0254825
0.0333715
0.0249518
0.0290958
0.0270521
0.023696
0.0293015
0.0194848
0.0298634
0.0180345
0.0272414
0.0203081
0.0221627
0.023114
0.0187295
0.0232998
0.0183811
0.0207133
0.0204507
0.0170621
0.021616
0.0164861
0.0205651
0.0168394
0.0188793
0.0179769
0.016872
0.0186002
0.0167201
0.0185037
0.0179622
0.0172185
0.0185174
0.0180237
0.0183864
0.0200511
0.0179149
0.0204975
0.0188985
0.0223677
0.0209411
0.0246557
0.0229173
0.0254615
0.0262863
0.0273335
0.031001
0.0301572
0.0345974
0.0345756
0.0363799
0.0405407
0.0403988
0.0461102
0.0472157
0.0513272
0.0553941
0.0565792
0.0631034
0.0641408
0.0689423
0.0727547
0.0753543
0.0806562
0.0831371
0.0879567
0.0926445
0.096202
0.101756
0.370332
0.280781
0.224523
0.186254
0.158694
0.138071
0.121887
0.109246
0.0985699
0.0901497
0.0826031
0.0765223
0.0711186
0.0662351
0.0625327
0.0582191
0.0557862
0.0519782
0.050127
0.0472134
0.0451574
0.0435307
0.0408765
0.040372
0.0375277
0.0372013
0.0352722
0.033823
0.0338377
0.0306474
0.0323905
0.0285415
0.0300207
0.0279765
0.0267546
0.0281579
0.0238526
0.0275961
0.0224722
0.0257186
0.0224819
0.0231296
0.0229211
0.020969
0.0225143
0.020242
0.0209885
0.0203344
0.019432
0.0203137
0.0183094
0.0199862
0.0177197
0.0197086
0.0169976
0.0195577
0.0171216
0.0183179
0.0184728
0.0168885
0.0197711
0.0167109
0.0199391
0.0178116
0.0196212
0.0199897
0.0192843
0.0225744
0.0196408
0.0242571
0.0226644
0.0249547
0.0271223
0.0261388
0.0308319
0.0294341
0.0337723
0.0352827
0.0364228
0.0414653
0.041021
0.0460819
0.0478376
0.0509552
0.0552948
0.0568833
0.0625446
0.0646437
0.0688514
0.0734509
0.076021
0.0812659
0.0841547
0.0886481
0.0927031
0.0962323
0.101206
0.105273
0.110235
0.114929
0.370327
0.280797
0.224527
0.186262
0.158714
0.138052
0.121936
0.109192
0.0986374
0.0900915
0.0826326
0.0765406
0.071017
0.0664157
0.0622482
0.0585519
0.0554118
0.0522822
0.0499148
0.047208
0.0453578
0.0430639
0.0414916
0.0396237
0.0382092
0.0366461
0.0355049
0.0339313
0.0333135
0.0315036
0.0313308
0.0296463
0.0291793
0.0284938
0.0269384
0.0275745
0.0252643
0.0262022
0.0245391
0.0244615
0.024193
0.023211
0.0234022
0.0230131
0.0221187
0.0234505
0.0212891
0.0234524
0.0219066
0.0227606
0.0235772
0.0225595
0.0249969
0.0242171
0.0255746
0.0274869
0.0267399
0.0306939
0.0300027
0.0333828
0.0351312
0.0365918
0.0410117
0.0413807
0.0468784
0.0482613
0.0525972
0.0566717
0.0589273
0.0653128
0.0669758
0.0735483
0.0766497
0.0816849
0.0870275
0.0904111
0.0971812
0.100491
0.10653
0.111542
0.115831
0.122134
0.125659
0.131869
0.135751
0.140758
0.146007
0.14971
0.155436
0.159197
0.163958
0.168349
0.172062
0.176798
0.180295
0.1847
0.188715
0.192906
0.197349
0.201345
0.370327
0.28081
0.224539
0.186271
0.158728
0.138047
0.121953
0.109171
0.0986477
0.0900709
0.0826095
0.0765544
0.0709229
0.0664967
0.0620682
0.0586897
0.0551975
0.0523919
0.0497921
0.0471602
0.0454589
0.0427909
0.0418331
0.0392374
0.0386187
0.0364528
0.0357035
0.0342699
0.0331623
0.0324805
0.0310998
0.0309915
0.0295423
0.0297994
0.0285868
0.0287972
0.0284995
0.0279403
0.0293026
0.0277332
0.0304895
0.0290585
0.0316016
0.0323333
0.0330444
0.0369709
0.0360676
0.0420057
0.0416379
0.0472139
0.0496276
0.0533854
0.0588773
0.0615074
0.0683006
0.0718794
0.0779895
0.0836686
0.0887157
0.0957587
0.100843
0.107735
0.113859
0.119809
0.126916
0.132271
0.139296
0.145031
0.151059
0.157741
0.162723
0.169813
0.174555
0.180987
0.186391
0.191465
0.197773
0.201914
0.208129
0.212647
0.217541
0.223008
0.226658
0.232499
0.236004
0.241136
0.245499
0.249268
0.254267
0.257404
0.261881
0.265273
0.268775
0.27261
0.275608
0.279447
0.282609
0.286349
0.289771
0.293305
0.370327
0.280822
0.224548
0.186272
0.158727
0.138025
0.121936
0.109123
0.0986118
0.0900016
0.0825466
0.076483
0.0708231
0.0664578
0.0619318
0.0587223
0.0550563
0.0525245
0.0497372
0.0474028
0.0456485
0.0431651
0.0424702
0.0398732
0.0399113
0.0376793
0.0378419
0.036665
0.0364423
0.0367942
0.0361954
0.0380053
0.0376103
0.0404008
0.0410543
0.0442045
0.0468075
0.0497612
0.0548399
0.0576169
0.0648717
0.068089
0.0762579
0.0812468
0.0887756
0.0963957
0.102607
0.112418
0.117869
0.128333
0.134447
0.143777
0.15143
0.158858
0.167813
0.174101
0.182959
0.189428
0.196997
0.204137
0.210523
0.217705
0.22374
0.230133
0.236419
0.242026
0.248324
0.25376
0.25932
0.265023
0.26967
0.27547
0.279665
0.284951
0.289365
0.293627
0.2986
0.302012
0.306994
0.31048
0.314512
0.318703
0.321658
0.326258
0.328845
0.333006
0.336093
0.339121
0.342828
0.345095
0.348627
0.350971
0.353815
0.356623
0.359034
0.362051
0.364542
0.367663
0.370302
0.373481
0.370325
0.280828
0.22453
0.186232
0.158664
0.137928
0.121826
0.108969
0.0984731
0.0898238
0.0824356
0.0763693
0.0708561
0.066573
0.0622777
0.0593144
0.0559699
0.0539789
0.0516039
0.0502161
0.0490738
0.0480365
0.0484561
0.0479018
0.0499577
0.0504182
0.0539118
0.0562287
0.0608031
0.0656895
0.0712786
0.0788278
0.0855253
0.0949949
0.10294
0.113389
0.122742
0.133202
0.144077
0.154055
0.166018
0.175062
0.187184
0.195827
0.206833
0.215879
0.224802
0.234633
0.241497
0.251549
0.257424
0.266461
0.272812
0.279938
0.287034
0.292483
0.299645
0.3045
0.310764
0.315859
0.321029
0.326306
0.330866
0.335797
0.340313
0.344666
0.349105
0.353093
0.356995
0.360985
0.364261
0.368258
0.371193
0.374834
0.377877
0.380798
0.384235
0.386508
0.390006
0.392279
0.39512
0.397956
0.399959
0.403256
0.404922
0.408042
0.410081
0.412392
0.415035
0.416645
0.41936
0.420953
0.42324
0.425294
0.427254
0.429651
0.431676
0.434256
0.4364
0.439225
0.370306
0.280789
0.224404
0.186074
0.158445
0.137688
0.121602
0.10882
0.0985498
0.0901832
0.0833884
0.0780203
0.0736181
0.070515
0.0679549
0.0668631
0.0661184
0.0669961
0.0682183
0.0711115
0.0748861
0.080099
0.0871112
0.0948963
0.105296
0.11564
0.128598
0.140919
0.155265
0.169323
0.18422
0.199126
0.212915
0.22736
0.239788
0.253088
0.264405
0.27604
0.286657
0.296305
0.306556
0.314352
0.324032
0.330482
0.3389
0.345029
0.351614
0.358216
0.363015
0.369978
0.373693
0.380138
0.383775
0.388763
0.392978
0.396533
0.401105
0.403937
0.408167
0.411063
0.414542
0.417691
0.420614
0.423739
0.426519
0.429392
0.432157
0.434842
0.437375
0.440073
0.442258
0.444977
0.44696
0.44945
0.451511
0.453486
0.455879
0.457375
0.459879
0.461354
0.463415
0.465357
0.466761
0.46916
0.470269
0.47265
0.474007
0.475818
0.477704
0.478907
0.481021
0.482141
0.484038
0.485577
0.487233
0.489186
0.490879
0.493041
0.494853
0.497315
0.370195
0.280542
0.224229
0.186052
0.158714
0.138517
0.123432
0.112323
0.104418
0.0992909
0.0968203
0.0966028
0.0983215
0.102076
0.107542
0.115114
0.124224
0.13558
0.148461
0.163505
0.18025
0.19875
0.218335
0.23815
0.258482
0.277449
0.29609
0.312419
0.328334
0.342138
0.354983
0.366686
0.376865
0.386976
0.395122
0.403855
0.410781
0.418112
0.424403
0.430118
0.436019
0.440229
0.445812
0.448857
0.453689
0.456485
0.460166
0.46347
0.465903
0.469747
0.47137
0.475289
0.476844
0.480046
0.482183
0.48437
0.487045
0.488599
0.491335
0.492837
0.495163
0.496932
0.49882
0.500729
0.502446
0.504315
0.506013
0.507811
0.509418
0.51126
0.512687
0.514569
0.515895
0.517646
0.519128
0.520528
0.522287
0.523328
0.525194
0.526203
0.527776
0.529149
0.530212
0.531998
0.532777
0.534649
0.535563
0.537039
0.538388
0.539344
0.54101
0.541834
0.543461
0.544638
0.546101
0.547706
0.549161
0.550986
0.552514
0.554568
0.369474
0.281384
0.228612
0.193058
0.17071
0.155954
0.150117
0.15045
0.156553
0.167308
0.18162
0.198826
0.218395
0.239755
0.262302
0.28568
0.309332
0.333169
0.356861
0.380366
0.403236
0.423895
0.441749
0.457238
0.470626
0.482217
0.492728
0.500796
0.508555
0.51447
0.520158
0.525011
0.529064
0.533276
0.53615
0.539774
0.542057
0.545039
0.547255
0.549483
0.551938
0.553413
0.556061
0.557058
0.559603
0.56047
0.562465
0.563782
0.564913
0.566823
0.567331
0.569557
0.569917
0.57193
0.572726
0.574073
0.575462
0.576282
0.577952
0.578622
0.580185
0.581043
0.582288
0.583368
0.584434
0.585602
0.586604
0.587802
0.588764
0.590018
0.5909
0.592213
0.593072
0.594296
0.595324
0.596281
0.597543
0.598224
0.599595
0.600235
0.601435
0.602354
0.603165
0.604459
0.605008
0.60645
0.607042
0.608242
0.609163
0.609949
0.611223
0.611843
0.613212
0.614103
0.615389
0.616664
0.617887
0.619386
0.620637
0.622255
0.37219
0.315456
0.292823
0.279519
0.286386
0.295373
0.331465
0.373611
0.41862
0.463065
0.504552
0.541606
0.573467
0.599942
0.621192
0.637855
0.650486
0.660142
0.667337
0.673138
0.677562
0.681711
0.685107
0.68808
0.690692
0.692489
0.694532
0.695372
0.696707
0.696819
0.697371
0.697354
0.697259
0.697428
0.696906
0.697195
0.696589
0.696815
0.696451
0.696454
0.696549
0.696256
0.69678
0.69632
0.69701
0.696507
0.697072
0.696886
0.696971
0.697339
0.69699
0.697761
0.697273
0.698142
0.697907
0.698477
0.69877
0.698959
0.699644
0.699679
0.700478
0.7006
0.701267
0.701631
0.702157
0.702691
0.70315
0.703787
0.704231
0.70497
0.705376
0.706204
0.706639
0.707429
0.70804
0.708658
0.709491
0.709911
0.710874
0.711254
0.71214
0.712712
0.713358
0.714243
0.714665
0.715735
0.716132
0.717099
0.717712
0.718398
0.71934
0.719861
0.720977
0.721662
0.722782
0.723713
0.724735
0.725871
0.726772
0.727809
0.606742
0.839813
0.952198
0.969555
0.937536
0.881261
0.821357
0.769006
0.724419
0.688386
0.660683
0.640128
0.625396
0.614959
0.607655
0.602406
0.598488
0.595462
0.592871
0.590859
0.588915
0.587586
0.586295
0.58549
0.584756
0.584172
0.583824
0.583344
0.583159
0.582674
0.582377
0.581859
0.581383
0.580895
0.58026
0.57982
0.579121
0.578696
0.578044
0.577597
0.577082
0.576584
0.576251
0.575712
0.575549
0.575024
0.574923
0.574499
0.574338
0.574107
0.57382
0.573796
0.573428
0.573531
0.573208
0.573303
0.57316
0.57316
0.57322
0.573145
0.573328
0.573283
0.573491
0.573548
0.573743
0.573897
0.57408
0.574306
0.574496
0.574796
0.575
0.575364
0.5756
0.575988
0.576304
0.57667
0.577088
0.577415
0.577916
0.578229
0.578746
0.57912
0.579587
0.580077
0.58047
0.581057
0.581417
0.582019
0.582435
0.582962
0.583518
0.583967
0.584625
0.585069
0.585707
0.586196
0.586679
0.587045
0.587197
0.587009
0.0944459
2.2544
2.86783
3.07499
3.22217
3.27372
3.2483
3.17742
3.0766
2.9706
2.86102
2.75495
2.65253
2.56367
2.47707
2.3911
2.30128
2.18609
2.05335
1.90971
1.7361
1.56306
1.40775
1.24102
1.09798
1.00541
0.918263
0.833132
0.775064
0.716829
0.645268
0.580127
0.515545
0.4614
0.441723
0.44438
0.466499
0.520254
0.583398
0.628257
0.651738
0.655569
0.642629
0.627671
0.621593
0.619972
0.613976
0.59799
0.571539
0.538394
0.502079
0.462714
0.419134
0.370979
0.319388
0.266872
0.216323
0.170492
0.131492
0.100067
0.0757604
0.0575426
0.0441299
0.0342853
0.0270208
0.0216661
0.0177631
0.0149743
0.0130238
0.0116966
0.0108123
0.0102371
0.00985719
0.00959023
0.00936723
0.00915544
0.00893841
0.0087266
0.0085284
0.00836238
0.00823117
0.0081398
0.00807647
0.00803853
0.00801298
0.00800014
0.00799027
0.00798703
0.00798274
0.00798283
0.00798034
0.00798154
0.00797956
0.00798116
0.00797929
0.00798104
0.00797919
0.00798112
0.00797959
0.00798292
0.391262
1.10211
2.04907
2.50312
2.73922
2.83503
2.84118
2.79191
2.70939
2.61702
2.52078
2.42918
2.34181
2.26844
2.19763
2.12634
2.05118
1.94911
1.82648
1.69385
1.52924
1.36242
1.21886
1.06263
0.925401
0.843446
0.765492
0.683692
0.634883
0.586078
0.517272
0.461963
0.414899
0.373624
0.369553
0.391431
0.417904
0.466639
0.532366
0.587286
0.621385
0.633108
0.624516
0.610228
0.602748
0.599037
0.590628
0.57203
0.543799
0.510291
0.47481
0.437271
0.396106
0.350528
0.301525
0.251395
0.202868
0.158649
0.120922
0.0906487
0.0675218
0.0505384
0.038336
0.0296411
0.0234489
0.019056
0.0159479
0.0137615
0.0122319
0.0111776
0.0104586
0.00997914
0.00965439
0.00942436
0.00923199
0.00904995
0.00886006
0.0086731
0.00849526
0.00834471
0.0082224
0.00813652
0.0080756
0.00803961
0.00801435
0.00800225
0.00799198
0.00798922
0.00798436
0.00798495
0.00798187
0.00798363
0.00798106
0.00798329
0.00798082
0.0079833
0.0079809
0.00798375
0.00798183
0.00798655
0.562719
0.544385
1.01027
1.56548
1.96637
2.17832
2.26509
2.27578
2.24165
2.18604
2.11993
2.05471
1.98866
1.93284
1.87894
1.82219
1.76196
1.67503
1.56499
1.44624
1.29527
1.1382
1.00857
0.864078
0.73153
0.662247
0.594514
0.514487
0.478247
0.445126
0.381263
0.341225
0.324942
0.306109
0.322179
0.369437
0.400972
0.431309
0.484479
0.541724
0.584463
0.604461
0.601062
0.587929
0.579072
0.573021
0.561835
0.540591
0.510901
0.477512
0.443403
0.408096
0.36965
0.326953
0.280855
0.233452
0.187325
0.145136
0.109132
0.0804671
0.0589563
0.0435215
0.0327565
0.0253711
0.0203332
0.0168928
0.0145101
0.0128382
0.0116475
0.0108013
0.0102011
0.00978559
0.00949425
0.00928544
0.00911232
0.00895279
0.00878679
0.00862337
0.00846582
0.00833158
0.008219
0.0081386
0.00807972
0.00804501
0.00801961
0.00800776
0.00799686
0.00799427
0.00798882
0.0079897
0.00798609
0.00798828
0.0079852
0.00798793
0.00798498
0.00798807
0.00798523
0.00798888
0.00798668
0.00799267
0.536116
0.498244
0.561539
0.762878
1.06401
1.33483
1.51102
1.60588
1.64432
1.65044
1.63532
1.6119
1.57877
1.54921
1.51802
1.47933
1.43651
1.36657
1.27082
1.16761
1.03199
0.884875
0.770589
0.639858
0.51276
0.460085
0.40908
0.335366
0.318858
0.31308
0.264084
0.24904
0.276557
0.290871
0.326593
0.398235
0.438785
0.439212
0.456149
0.498881
0.54319
0.569679
0.571618
0.560117
0.550041
0.54149
0.527248
0.503515
0.473069
0.44069
0.408802
0.37635
0.340975
0.301361
0.258262
0.213676
0.170142
0.130326
0.0965213
0.0699805
0.0504867
0.0368829
0.0277405
0.0217385
0.017819
0.0152236
0.0134435
0.0121762
0.0112395
0.0105416
0.0100201
0.00964225
0.00936703
0.00916746
0.0090049
0.00886204
0.00871729
0.00857646
0.0084381
0.00831918
0.008217
0.00814319
0.00808699
0.00805349
0.00802774
0.00801577
0.00800408
0.0080014
0.00799528
0.0079963
0.00799218
0.00799466
0.00799114
0.00799429
0.00799092
0.00799453
0.00799134
0.0079957
0.00799332
0.0080005
0.476497
0.46613
0.46407
0.488581
0.557244
0.667508
0.782816
0.889893
0.971344
1.03112
1.06868
1.09154
1.09797
1.10249
1.10019
1.08519
1.06323
1.01298
0.934203
0.84851
0.730627
0.596311
0.500311
0.393362
0.28776
0.26415
0.244318
0.195425
0.210025
0.238434
0.216483
0.229409
0.296041
0.34252
0.391293
0.478761
0.534679
0.510437
0.470695
0.473688
0.504471
0.53123
0.536751
0.526895
0.515754
0.504669
0.487429
0.461873
0.431984
0.402108
0.373768
0.345116
0.313261
0.276746
0.23633
0.194163
0.152975
0.115561
0.084223
0.0601046
0.0428504
0.031216
0.023701
0.0189682
0.015983
0.0140466
0.0127134
0.0117356
0.0109747
0.0103743
0.00989948
0.00953883
0.00926641
0.00906665
0.00890756
0.00877573
0.00864857
0.00852846
0.00840856
0.00830469
0.00821383
0.00814783
0.00809534
0.00806329
0.0080373
0.00802497
0.00801243
0.0080094
0.00800264
0.00800359
0.00799903
0.00800163
0.00799779
0.00800117
0.00799755
0.00800149
0.00799812
0.00800295
0.00800054
0.00800863
0.414355
0.413736
0.410313
0.405109
0.40574
0.417842
0.431692
0.455056
0.480072
0.510676
0.543646
0.574821
0.597545
0.6221
0.63976
0.645934
0.644039
0.614073
0.556817
0.492643
0.401541
0.298793
0.235044
0.180584
0.142984
0.164782
0.181726
0.175027
0.211594
0.253366
0.251536
0.283217
0.371323
0.440124
0.49847
0.59548
0.670485
0.640652
0.546297
0.487034
0.482395
0.49645
0.49988
0.490097
0.47765
0.464085
0.44453
0.418776
0.391608
0.366551
0.343672
0.320088
0.29226
0.25857
0.219958
0.179092
0.139272
0.103618
0.0743933
0.0524493
0.0371997
0.0272409
0.0210091
0.0171938
0.0148392
0.0133281
0.0122769
0.0114801
0.0108274
0.0102837
0.00983067
0.00947118
0.00919059
0.00898212
0.00881931
0.00869177
0.0085767
0.00847407
0.00837275
0.00828546
0.00820712
0.00814933
0.00810106
0.00807076
0.00804498
0.00803236
0.00801921
0.00801574
0.00800849
0.00800919
0.00800434
0.00800688
0.00800289
0.00800629
0.00800259
0.00800662
0.00800325
0.00800824
0.00800593
0.00801447
0.346516
0.348025
0.34786
0.341453
0.333102
0.324901
0.313498
0.304171
0.293686
0.284189
0.278348
0.273004
0.267885
0.269429
0.269361
0.269163
0.268209
0.25
0.218909
0.185172
0.142035
0.112701
0.120828
0.141787
0.167492
0.206882
0.23141
0.242599
0.281215
0.317954
0.326179
0.373805
0.476007
0.561417
0.631965
0.738121
0.831192
0.8096
0.680733
0.556887
0.497235
0.480422
0.470826
0.456405
0.441266
0.425311
0.405132
0.382179
0.360935
0.343439
0.328022
0.310457
0.286662
0.254911
0.216492
0.174932
0.134479
0.0988282
0.0702398
0.0492297
0.0349027
0.0256937
0.0200014
0.0165491
0.0144341
0.0130838
0.0121426
0.011419
0.0108088
0.0102817
0.00982495
0.0094493
0.00914756
0.00891977
0.008744
0.00861261
0.00850291
0.00841352
0.00832917
0.00825824
0.00819213
0.00814258
0.00809891
0.00807127
0.00804644
0.00803439
0.00802107
0.00801766
0.00801003
0.00801079
0.00800559
0.00800825
0.00800398
0.00800757
0.00800364
0.00800787
0.00800432
0.00800955
0.00800715
0.00801599
0.265485
0.268942
0.27092
0.266671
0.260007
0.250098
0.23692
0.223849
0.208575
0.194355
0.181025
0.167385
0.155449
0.145628
0.136253
0.129192
0.12237
0.115443
0.112106
0.114525
0.128838
0.157963
0.19379
0.223674
0.253197
0.288202
0.310087
0.328335
0.366429
0.398206
0.418961
0.486827
0.600976
0.698304
0.783911
0.900741
1.00616
0.998506
0.858618
0.685701
0.566301
0.503667
0.46801
0.441674
0.420938
0.402575
0.384201
0.367329
0.354697
0.346299
0.338438
0.325862
0.304375
0.272466
0.231821
0.186902
0.143064
0.104735
0.0743508
0.0522013
0.0371039
0.0273248
0.0211999
0.01743
0.0150896
0.0135829
0.0125323
0.0117297
0.0110559
0.0104715
0.00995785
0.00952797
0.00917624
0.00890838
0.00870288
0.00855561
0.00844055
0.00835692
0.00828257
0.00822496
0.00816869
0.00812854
0.00808965
0.00806736
0.00804382
0.0080349
0.00802108
0.00801992
0.00801094
0.0080137
0.00800674
0.00801144
0.00800514
0.0080109
0.00800482
0.00801139
0.00800568
0.00801344
0.0080092
0.00802083
0.17715
0.181032
0.183674
0.181655
0.178535
0.171443
0.163183
0.154609
0.144913
0.137684
0.131427
0.125798
0.123373
0.122698
0.122424
0.125963
0.132781
0.141216
0.157296
0.180732
0.207127
0.239361
0.276292
0.310273
0.34364
0.375821
0.396217
0.419116
0.458167
0.492553
0.532835
0.622711
0.742827
0.842387
0.937774
1.06041
1.17027
1.18331
1.0583
0.860163
0.691914
0.581619
0.512748
0.468885
0.439664
0.418215
0.402129
0.391297
0.385794
0.38325
0.378593
0.366311
0.342996
0.307686
0.26234
0.212017
0.162899
0.120066
0.0861801
0.0614496
0.0444225
0.0331249
0.0257822
0.0210633
0.0179834
0.0158919
0.0143602
0.0131586
0.0121471
0.0112857
0.0105413
0.00993043
0.00943372
0.00906341
0.00878083
0.0085892
0.00844297
0.00835155
0.00827195
0.00822505
0.00817262
0.0081476
0.00811122
0.00810255
0.00807743
0.00807987
0.00806087
0.00806989
0.00805327
0.00806617
0.00804984
0.00806534
0.00804833
0.00806593
0.00804818
0.00806792
0.00805018
0.00807298
0.00805823
0.00808772
0.105139
0.110276
0.113428
0.115853
0.117919
0.118405
0.120462
0.121854
0.124793
0.130041
0.135151
0.143058
0.1524
0.161367
0.172663
0.185674
0.200638
0.219754
0.243641
0.271235
0.303296
0.339191
0.373762
0.405133
0.436945
0.465369
0.487719
0.518541
0.561107
0.605523
0.667871
0.764749
0.868448
0.957427
1.05643
1.18027
1.28902
1.31933
1.23495
1.05376
0.858322
0.711835
0.614606
0.554605
0.515204
0.487448
0.468536
0.456373
0.448924
0.44315
0.433658
0.415414
0.385968
0.344756
0.293832
0.23856
0.18523
0.139045
0.102598
0.0759221
0.0573404
0.0447236
0.0361656
0.0303334
0.0261615
0.0229779
0.0203387
0.0180606
0.0160168
0.0142504
0.0127313
0.011528
0.0105661
0.00988306
0.00936122
0.00903572
0.00877866
0.0086514
0.00852928
0.00850193
0.00843926
0.00845748
0.00841372
0.00845095
0.0084086
0.0084541
0.00840742
0.00845845
0.00840588
0.00846272
0.00840356
0.0084675
0.0084014
0.00847373
0.00840172
0.00848429
0.00840961
0.00850744
0.00844175
0.00856582
0.119718
0.12492
0.129419
0.13555
0.142026
0.150486
0.160332
0.17096
0.183549
0.196416
0.210114
0.224642
0.238724
0.252447
0.266774
0.282124
0.298723
0.31908
0.343207
0.370367
0.400206
0.431455
0.462684
0.494117
0.525678
0.553432
0.58152
0.62078
0.669139
0.721186
0.78329
0.856765
0.931053
1.0093
1.11004
1.2315
1.33551
1.37588
1.33058
1.19992
1.02368
0.864135
0.750723
0.679069
0.626575
0.585578
0.55364
0.528862
0.509803
0.493352
0.473817
0.446599
0.409266
0.362464
0.309227
0.254196
0.202227
0.157439
0.121862
0.0954994
0.0767389
0.0638278
0.0548917
0.0485237
0.0434284
0.0390263
0.0348018
0.0307603
0.0267387
0.0230752
0.0197471
0.0170971
0.0149075
0.0134009
0.0121966
0.0115106
0.0109141
0.0107104
0.0104571
0.0105318
0.0104372
0.0106306
0.0105537
0.010771
0.0106539
0.0108675
0.0107066
0.0109222
0.0107256
0.0109549
0.010726
0.0109813
0.0107204
0.011011
0.0107228
0.0110593
0.0107562
0.0111636
0.0108924
0.0114169
0.206107
0.210317
0.21519
0.221535
0.229256
0.239581
0.25092
0.263863
0.277691
0.291436
0.305356
0.318913
0.332094
0.344764
0.357764
0.371916
0.387472
0.40601
0.427641
0.451573
0.477651
0.506822
0.538898
0.571806
0.603313
0.632442
0.666076
0.708212
0.750884
0.787914
0.824347
0.868811
0.926217
1.00206
1.10327
1.21941
1.31635