/*--------------------------------*- C++ -*----------------------------------*\
| =========                 |                                                 |
| \\      /  F ield         | OpenFOAM: The Open Source CFD Toolbox           |
|  \\    /   O peration     | Version:  v2012                                 |
|   \\  /    A nd           | Website:  www.openfoam.com                      |
|    \\/     M anipulation  |                                                 |
\*---------------------------------------------------------------------------*/
FoamFile
{
    version     2.0;
    format      ascii;
    class       Cloud<basicKinematicParcel>;
    location    "0.113/lagrangian/kinematicCloud";
    object      positions;
}
// * * * * * * * * * * * * * * * * * * * * * * * * * * * * * * * * * * * * * //

54
(
(1.65837 0.00507167 0.03) 2311
(1.77049 0.0157706 0.03) 2819
(1.75288 0.0229627 0.03) 3018
(1.70258 0.010141 0.03) 2614
(1.67974 0.029553 0.03) 3312
(1.69333 0.0235633 0.03) 3113
(1.16949 0.000822154 0.03) 77
(1.56556 0.0336318 0.03) 3504
(1.55394 0.0333184 0.03) 3503
(1.60894 0.0135052 0.03) 2707
(1.61289 0.0168183 0.03) 2808
(1.55133 0.00854554 0.03) 2503
(1.30195 0.037961 0.03) 1886
(1.28355 0.0018793 0.03) 185
(1.32363 0.0373855 0.03) 1788
(1.51342 0.0188691 0.03) 2900
(1.3982 0.00505675 0.03) 393
(1.31655 0.036662 0.03) 1787
(1.42586 0.00912472 0.03) 595
(1.38847 0.0334602 0.03) 1592
(1.42264 0.0279474 0.03) 1294
(1.29552 0.0358741 0.03) 1686
(1.38036 0.028684 0.03) 1392
(1.33029 0.00730832 0.03) 488
(1.3671 0.0152715 0.03) 891
(1.34186 0.0280986 0.03) 1289
(1.27092 0.00581308 0.03) 484
(1.30574 0.0311082 0.03) 1487
(1.15354 0.00255963 0.03) 276
(1.27942 0.0319505 0.03) 1485
(0.547401 0.000103569 0.03) 36
(1.1725 0.00377858 0.03) 278
(0.998813 0.0385546 0.03) 1866
(1.2305 0.021575 0.03) 1082
(1.21878 0.0100724 0.03) 681
(1.21108 0.0272051 0.03) 1280
(1.19249 0.0128384 0.03) 779
(1.17844 0.0151199 0.03) 878
(1.15749 0.0274124 0.03) 1277
(0.931323 0.00129622 0.03) 162
(1.12364 0.0116961 0.03) 674
(1.10637 0.0264728 0.03) 1273
(1.08232 0.00969989 0.03) 672
(1.06159 0.00834304 0.03) 570
(1.05406 0.0122944 0.03) 770
(1.03774 0.0250898 0.03) 1169
(1.00681 0.0321365 0.03) 1467
(1.00316 0.0185669 0.03) 966
(0.984868 0.0147577 0.03) 865
(0.964958 0.0299058 0.03) 1364
(0.916859 0.00481885 0.03) 361
(0.934478 0.0143431 0.03) 862
(0.899897 0.0337587 0.03) 1559
(0.834955 0.00287007 0.03) 255
)


// ************************************************************************* //
