/*--------------------------------*- C++ -*----------------------------------*\
| =========                 |                                                 |
| \\      /  F ield         | OpenFOAM: The Open Source CFD Toolbox           |
|  \\    /   O peration     | Version:  v2012                                 |
|   \\  /    A nd           | Website:  www.openfoam.com                      |
|    \\/     M anipulation  |                                                 |
\*---------------------------------------------------------------------------*/
FoamFile
{
    version     2.0;
    format      ascii;
    class       volScalarField;
    location    "0.03";
    object      nut.air;
}
// * * * * * * * * * * * * * * * * * * * * * * * * * * * * * * * * * * * * * //

dimensions      [0 2 -1 0 0 0 0];


internalField   nonuniform List<scalar> 
1900
(
1.07826e-05
1.25664e-05
1.64255e-05
1.88861e-05
2.41588e-05
2.7415e-05
3.43191e-05
3.84516e-05
4.70968e-05
5.21756e-05
0.000160679
0.000159709
0.000159984
0.000159323
0.000160009
0.000159844
0.000161049
0.00016163
0.000163498
0.000165986
0.000160399
0.000159941
0.000159344
0.000158949
0.000158368
0.000158037
0.000157471
0.000157207
0.000156659
0.000156476
0.000160442
0.000159909
0.000159424
0.00015892
0.000158481
0.000158002
0.000157601
0.000157149
0.000156772
0.000156357
0.000160438
0.000159919
0.000159423
0.00015894
0.000158481
0.000158032
0.000157604
0.000157186
0.000156784
0.000156394
0.000160425
0.000159936
0.000159404
0.000158962
0.000158458
0.000158057
0.000157581
0.000157206
0.00015677
0.000156401
0.000160397
0.000159964
0.000159363
0.000158991
0.000158406
0.000158081
0.000157527
0.000157219
0.000156721
0.000156396
0.000160348
0.000159991
0.000159292
0.000159
0.000158317
0.000158088
0.000157424
0.000157253
0.000156622
0.000156502
0.000160167
0.000160262
0.00015943
0.000159936
0.000159444
0.000160514
0.000160499
0.000162298
0.000162889
0.000165183
1.03674e-05
1.28155e-05
1.58269e-05
1.91994e-05
2.33131e-05
2.78075e-05
3.31786e-05
3.89635e-05
4.56698e-05
5.27914e-05
0.000196189
0.000641375
0.00141854
0.00211156
0.00247375
0.00267116
0.00268768
0.00258514
0.00248468
0.00241191
0.00238615
0.00240852
0.00245674
0.00254493
0.00265163
0.00277776
0.00290745
0.00304888
0.00320966
0.00338278
0.00360924
0.00383491
0.00406006
0.00434593
0.00471673
0.00520444
0.00568958
0.00618434
0.00669201
0.00711712
0.00738002
0.00752482
0.0075217
0.00727257
0.00651963
0.00572426
0.0049796
0.00432856
0.00380139
0.00340239
0.00310216
0.0028543
0.00259173
0.00236211
0.00216544
0.00199518
0.00184596
0.00171363
0.00159516
0.00148838
0.0013916
0.00130332
0.00122235
0.00114742
0.0010776
0.00101209
0.000950269
0.000891643
0.00083588
0.000782586
0.000731273
0.000681703
0.00063398
0.000588273
0.000544595
0.000503084
0.000463782
0.000426574
0.00039126
0.000357697
0.00032595
0.000296431
0.000269716
0.000246362
0.000226718
0.000210815
0.000198345
0.000188763
0.000181427
0.000175724
0.000171128
0.000167237
0.000163763
0.000160529
0.000157449
0.000154507
0.000151732
0.000149169
0.000146861
0.000144842
0.000143124
0.000141701
0.000140557
0.000139651
0.000138964
0.00013843
0.000138063
0.000137756
0.0001376
0.000137397
0.000172461
0.000182685
0.000219807
0.000324964
0.000481428
0.000624302
0.000698922
0.000748786
0.000770428
0.000773986
0.00078006
0.000804425
0.00083501
0.000870447
0.000917175
0.000976454
0.00103353
0.00110681
0.00120639
0.00129572
0.00144671
0.00164767
0.00188094
0.00223961
0.00274384
0.00333848
0.00397155
0.00461557
0.00526232
0.00581571
0.00614774
0.00629346
0.00630084
0.00594333
0.00522855
0.00452449
0.00387476
0.00330787
0.00284953
0.00240206
0.00205101
0.00177599
0.00155679
0.0013786
0.00123021
0.00110407
0.000995323
0.000900611
0.000817726
0.000744916
0.000680683
0.000623855
0.00057343
0.000528503
0.000488278
0.000452072
0.00041937
0.000389783
0.000362929
0.000338512
0.000316312
0.000296173
0.000277995
0.0002617
0.000247202
0.00023439
0.000223126
0.000213271
0.000204699
0.000197303
0.000191003
0.00018573
0.000181397
0.000177885
0.000175037
0.000172678
0.000170632
0.000168745
0.000166887
0.000164968
0.000162935
0.000160766
0.00015847
0.000156084
0.000153663
0.000151278
0.000148998
0.000146886
0.000144991
0.00014334
0.000141944
0.000140793
0.000139873
0.000139148
0.0001386
0.000138177
0.000137886
0.000137645
0.000137522
0.000137364
0.000155872
0.000156057
0.000155647
0.000156139
0.000159331
0.000164925
0.000172719
0.000180459
0.000186461
0.000191605
0.000196374
0.000202005
0.000208595
0.000217005
0.000226168
0.000239604
0.000253652
0.000268887
0.000295792
0.00032041
0.00035889
0.000423507
0.000508329
0.00062149
0.000834443
0.00116934
0.00167429
0.00238496
0.00319029
0.00391688
0.00436334
0.00450185
0.00450389
0.00428798
0.0036546
0.00296837
0.0023653
0.00189056
0.00153109
0.00126061
0.00104961
0.000882805
0.000749913
0.000642408
0.000554744
0.000482978
0.000424224
0.000376291
0.00033742
0.000306107
0.000281017
0.000260976
0.000244983
0.000232197
0.000221942
0.000213667
0.000206894
0.000201204
0.000196381
0.000192332
0.000188948
0.000186119
0.000183741
0.000181715
0.000179956
0.000178396
0.000176986
0.000175699
0.000174526
0.000173484
0.000172596
0.000171873
0.000171295
0.000170799
0.000170292
0.000169668
0.000168832
0.000167715
0.000166284
0.000164535
0.000162498
0.000160225
0.000157789
0.00015527
0.000152756
0.00015033
0.000148064
0.00014601
0.000144205
0.00014266
0.000141374
0.000140329
0.000139502
0.000138856
0.000138373
0.000138003
0.000137751
0.000137543
0.000137438
0.000137303
0.000155915
0.000155439
0.000154941
0.000154664
0.000154376
0.000154486
0.000154527
0.000154712
0.000155003
0.00015486
0.000155224
0.000155032
0.000154866
0.000155475
0.00015478
0.000155306
0.000156197
0.000155094
0.0001573
0.000157892
0.000158292
0.000163155
0.000168677
0.000178097
0.000205266
0.000274253
0.000408993
0.000634925
0.00109518
0.00176953
0.00218628
0.0022531
0.00220733
0.00198921
0.00165752
0.00133686
0.00105487
0.000830879
0.000670969
0.000563558
0.000487697
0.00042618
0.000372523
0.000327724
0.000292026
0.000264509
0.000243891
0.00022878
0.000217898
0.00021024
0.00020494
0.000201321
0.000198974
0.000197571
0.000196822
0.000196558
0.000196686
0.000197148
0.000197899
0.000198881
0.000200038
0.000201277
0.000202444
0.000203375
0.000203978
0.000204247
0.000204139
0.000203504
0.000202214
0.000200356
0.000198102
0.000195659
0.000193162
0.000190666
0.00018815
0.000185512
0.000182661
0.000179543
0.000176158
0.000172553
0.000168809
0.000165025
0.000161303
0.000157741
0.000154416
0.000151385
0.000148688
0.000146339
0.00014434
0.000142672
0.000141313
0.000140226
0.000139379
0.000138727
0.000138244
0.000137879
0.000137631
0.00013743
0.000137328
0.000137199
0.000155939
0.000155443
0.000154978
0.000154583
0.000154275
0.000154138
0.000154082
0.00015416
0.000154366
0.000154229
0.000154482
0.000154229
0.000154031
0.00015428
0.000153628
0.00015372
0.000154056
0.000153072
0.000153595
0.000154154
0.000152496
0.000153406
0.000154397
0.00015115
0.000152854
0.00015756
0.00016566
0.000190666
0.000259031
0.00043658
0.000647748
0.000702654
0.000694778
0.000639244
0.000525069
0.000467023
0.00043407
0.000412593
0.000398412
0.000382869
0.000366225
0.000351954
0.000339523
0.000328078
0.000317984
0.000309254
0.000302371
0.000297295
0.000293939
0.000292579
0.000292563
0.000293151
0.000294988
0.000298074
0.000301177
0.000304551
0.000308888
0.000313651
0.00031882
0.000324392
0.000330203
0.000335989
0.000341156
0.00034506
0.000347415
0.000349029
0.000350308
0.000350086
0.000345069
0.000336347
0.000325125
0.000312159
0.000298229
0.000283851
0.000269443
0.0002553
0.000241602
0.000228472
0.000216023
0.000204382
0.00019368
0.000184031
0.000175515
0.000168145
0.000161879
0.000156632
0.000152295
0.000148751
0.00014589
0.000143611
0.00014182
0.000140434
0.000139376
0.000138584
0.000137997
0.000137573
0.000137264
0.000137047
0.000136908
0.000136763
0.00015594
0.00015541
0.000154996
0.000154502
0.000154263
0.000154041
0.000154116
0.000154216
0.000154422
0.000154701
0.000154924
0.000155295
0.000155726
0.000156259
0.000156919
0.000157644
0.000158585
0.00015956
0.000160393
0.000161812
0.000162441
0.000162258
0.000163092
0.000161636
0.000159855
0.000160098
0.00015826
0.000157344
0.000161137
0.000167364
0.000180657
0.000194757
0.000207654
0.00022584
0.000257326
0.00030538
0.000388129
0.000468575
0.000524424
0.000552066
0.000559378
0.00057007
0.000575128
0.00057003
0.000564597
0.000560001
0.000556916
0.000555879
0.000557499
0.000561708
0.000567757
0.000574223
0.000580499
0.000588217
0.000597648
0.00060758
0.000617979
0.000628837
0.000640274
0.000652035
0.000663655
0.000674681
0.000684336
0.000691405
0.000695579
0.000698755
0.000700228
0.000697076
0.000682982
0.000660316
0.000629946
0.000592907
0.000551143
0.000507115
0.000463029
0.000420391
0.00038012
0.000342728
0.000308587
0.000277996
0.000251095
0.000227882
0.000208231
0.000191897
0.000178541
0.000167774
0.000159218
0.000152527
0.000147358
0.000143406
0.000140416
0.000138173
0.000136468
0.000135208
0.000134332
0.0001337
0.000133237
0.000132859
0.000132726
0.000132551
0.000155888
0.000155387
0.000154927
0.000154488
0.000154156
0.000154121
0.000154406
0.00015506
0.000156596
0.000158511
0.000161637
0.000165143
0.000168995
0.000173705
0.000178566
0.000183549
0.000188974
0.00019429
0.000199916
0.000205151
0.00020809
0.000210289
0.000211637
0.000209995
0.000206797
0.000203687
0.00019908
0.00019358
0.000191355
0.000192027
0.000197062
0.000212866
0.000250011
0.00030972
0.00042252
0.000556424
0.000689278
0.00080157
0.000867107
0.000903179
0.000945659
0.000965252
0.000960047
0.000954498
0.000950799
0.000950107
0.000952754
0.000958323
0.000965922
0.000974764
0.000984317
0.000994193
0.00100425
0.00101466
0.00102509
0.00103584
0.00104726
0.0010587
0.00107037
0.00108185
0.00109207
0.00110026
0.0011071
0.00111358
0.00111882
0.00112095
0.00111589
0.00110244
0.00107825
0.00104281
0.000996239
0.000939659
0.00087528
0.00080137
0.000722834
0.000647069
0.000576158
0.000511265
0.000452942
0.00040142
0.000356731
0.000318697
0.000287026
0.000261299
0.000240962
0.000225234
0.000213245
0.000204473
0.000198563
0.00019462
0.000192009
0.000190528
0.000189595
0.000188926
0.000188737
0.000188846
0.00018892
0.000189273
0.000189501
0.000190198
0.000155798
0.000155717
0.000155055
0.000155413
0.000155766
0.000160106
0.000164391
0.000172876
0.000185994
0.000200388
0.000216579
0.000233498
0.000247711
0.000263619
0.000278088
0.00029029
0.000305197
0.000319538
0.000330473
0.000343765
0.000357957
0.000363543
0.000366185
0.000367891
0.000366371
0.00036307
0.000354727
0.000345768
0.000343943
0.000347094
0.000361891
0.000403319
0.000478993
0.000648191
0.000786255
0.00094844
0.00108539
0.00114489
0.00119621
0.00125748
0.00129894
0.00131998
0.00133173
0.00134088
0.0013495
0.00135728
0.00136436
0.00137084
0.00137669
0.0013821
0.00138748
0.00139346
0.00140012
0.00140689
0.00141377
0.0014186
0.00142343
0.00142832
0.00143336
0.0014381
0.00144171
0.00144377
0.00144458
0.00144422
0.00144141
0.00143424
0.00142122
0.00140099
0.00136735
0.00132255
0.0012658
0.00119801
0.00112239
0.00103817
0.000951492
0.000869838
0.00079537
0.000729267
0.000672133
0.000623983
0.00058437
0.000552432
0.000527387
0.000508663
0.000495816
0.000488016
0.000483874
0.000481379
0.00048006
0.000481078
0.000482967
0.000485142
0.000487218
0.000489269
0.000490956
0.000492685
0.000493939
0.000495398
0.000496102
0.00049788
0.000166514
0.000169621
0.00017622
0.000188145
0.000212572
0.000244363
0.000282748
0.000322668
0.000360924
0.000396061
0.000426862
0.000455626
0.000479608
0.000504877
0.000527897
0.000552557
0.000578881
0.00060725
0.000636318
0.00066442
0.00069058
0.000695833
0.00069443
0.000692763
0.000690715
0.000684826
0.000672374
0.00066643
0.000660234
0.000659348
0.000669397
0.000731011
0.00074792
0.000694886
0.000715256
0.00080072
0.000903781
0.000993936
0.00108119
0.00116143
0.00120084
0.00121933
0.00122487
0.0012218
0.00121406
0.00120441
0.0011944
0.00118483
0.00117618
0.00116866
0.00116236
0.00115724
0.0011533
0.0011504
0.00114823
0.00114646
0.00114494
0.00114348
0.00114193
0.00113988
0.00113655
0.00113158
0.00112517
0.00111742
0.00110772
0.00109538
0.00108032
0.00106264
0.00104262
0.00102016
0.000995435
0.000968736
0.000940633
0.000911972
0.000883804
0.000857428
0.000833883
0.000813834
0.000798095
0.000786574
0.000778787
0.000773911
0.000770789
0.000768826
0.000769434
0.000772209
0.000775381
0.000778641
0.000781736
0.000784586
0.000787036
0.000789136
0.000790781
0.000792146
0.000793096
0.000793859
0.000794262
0.000794663
0.000794799
0.000794675
6.23844e-05
7.45082e-05
8.79967e-05
0.000102453
0.000118171
0.000134638
0.000151607
0.000168066
0.000183491
0.000196859
0.000207891
0.000216231
0.000221496
0.000225255
0.000226781
0.000226515
0.000225024
0.000222495
0.000219347
0.000215932
0.000212211
0.000208587
0.000205477
0.000202553
0.0001998
0.000197937
0.000196875
0.000196281
0.000196344
0.000196165
0.000196247
0.000196041
0.000191708
0.000176081
0.00016315
0.0001577
0.000158643
0.000162093
0.000166202
0.000169218
0.000169712
0.000169046
0.000168045
0.000167018
0.000166058
0.000165254
0.000164615
0.000164115
0.000163696
0.000163344
0.000163052
0.000162812
0.000162621
0.000162472
0.00016235
0.000162244
0.000162144
0.000162042
0.000161926
0.000161773
0.000161563
0.000161286
0.000160935
0.000160496
0.000159955
0.000159304
0.000158548
0.000157701
0.000156791
0.000155848
0.000154906
0.000153996
0.000153142
0.000152359
0.000151671
0.000151088
0.000150623
0.00015028
0.000150039
0.00014986
0.0001498
0.000149811
0.000149851
0.000149924
0.000150027
0.000150143
0.000150258
0.000150365
0.000150458
0.000150537
0.000150602
0.000150654
0.000150694
0.000150725
0.000150748
0.000150764
0.000150779
0.000150792
0.00015079
0.000150825
0.000133413
0.00101727
0.00144604
0.00162001
0.00157266
0.00130143
0.000973398
0.000294865
0.0029462
0.00274806
0.00299449
0.0031494
0.0028459
0.0021745
0.00114398
0.000457223
0.00467258
0.0046096
0.00550371
0.006244
0.00592093
0.00463326
0.0024705
0.00059468
0.00542885
0.00584729
0.00713241
0.00894522
0.00857634
0.00696583
0.00395366
0.000754199
0.00575053
0.006572
0.00808541
0.00986451
0.00989008
0.00828738
0.00495306
0.000857316
0.00586968
0.00677111
0.00820048
0.00997146
0.0102936
0.00879343
0.00535718
0.000885874
0.00576607
0.00692038
0.00823801
0.00984872
0.0103922
0.00898467
0.00553502
0.000892241
0.00550257
0.00678262
0.00826441
0.00982511
0.0103312
0.00900366
0.00561063
0.000882228
0.00523424
0.00658817
0.00811431
0.00966188
0.0100898
0.0088168
0.00551925
0.000849764
0.0050145
0.00641432
0.00798413
0.00950318
0.00978839
0.00853815
0.00535038
0.00081087
0.00487504
0.00630868
0.00790614
0.00935742
0.00947498
0.00822934
0.00515159
0.000769568
0.00480565
0.00626828
0.0078566
0.00908498
0.00914504
0.0078992
0.00492839
0.00073464
0.00477564
0.00626336
0.00782852
0.00882195
0.00881641
0.00756089
0.00468438
0.00071154
0.00477935
0.00628533
0.00781327
0.00857241
0.00849903
0.0072346
0.00445117
0.000689366
0.00477704
0.00629879
0.00778462
0.00832227
0.00818829
0.00692071
0.00423128
0.000668412
0.00477007
0.00629579
0.00768154
0.00807907
0.00789242
0.0066316
0.00402758
0.000649342
0.00477039
0.00627885
0.00748849
0.00784635
0.00761704
0.00636898
0.00384603
0.000611719
0.00478413
0.00626531
0.00731061
0.00763148
0.00736573
0.00613273
0.00369469
0.000523513
0.0048191
0.00626401
0.00715087
0.0074331
0.00713345
0.0059126
0.00355132
0.000456832
0.00488292
0.00628867
0.00701552
0.00725762
0.00692232
0.00570735
0.00341336
0.000405323
0.00499345
0.00635043
0.00691691
0.0071142
0.00673775
0.00552011
0.0032834
0.000365268
0.00516829
0.00635204
0.00685915
0.00700748
0.00658355
0.00535372
0.00316431
0.000334167
0.00541604
0.00638835
0.00684775
0.00694239
0.00646298
0.00521004
0.0030582
0.000310255
0.00573519
0.0064808
0.00689245
0.00692488
0.00637888
0.00509047
0.00296678
0.000292313
0.00600076
0.00664482
0.00699982
0.00695735
0.00633624
0.00499685
0.00289266
0.00027957
0.00629717
0.00688417
0.00717172
0.00704118
0.00633596
0.00493616
0.00284051
0.000271428
0.00663732
0.00719137
0.0074001
0.00717168
0.00637735
0.00491552
0.00281529
0.00026722
0.00704696
0.00751421
0.00764616
0.00732666
0.00644825
0.00492791
0.0028104
0.000265606
0.00747294
0.00785828
0.00788903
0.00747851
0.00652787
0.00495853
0.00281644
0.000265329
0.00781909
0.0081366
0.00809929
0.00762527
0.00662335
0.00501457
0.0028372
0.000266145
0.00804193
0.0083184
0.00824171
0.00773713
0.0067129
0.00508268
0.00286925
0.000266423
0.00816658
0.00841447
0.00831696
0.00780684
0.00678633
0.00515142
0.00290336
0.000264406
0.00813873
0.00836441
0.00825948
0.00776151
0.0067668
0.00515469
0.00290385
0.000258612
0.00785041
0.00805538
0.00795619
0.00749969
0.00657915
0.0050525
0.00286032
0.000247792
0.00728426
0.00752257
0.00747246
0.00710333
0.00628747
0.00487413
0.00277816
0.00023351
0.00654812
0.00690144
0.00690659
0.00662776
0.00591749
0.00462765
0.00265766
0.000217425
0.00580058
0.00626125
0.00632292
0.0061169
0.00550666
0.00433578
0.002509
0.00020135
0.00514746
0.00565694
0.00576605
0.00561408
0.00508855
0.0040235
0.00234522
0.00018673
0.0046121
0.00511857
0.00526044
0.0051463
0.00468603
0.00371065
0.00217841
0.000174293
0.00419023
0.00465338
0.004814
0.00472555
0.0043117
0.00341313
0.00202018
0.000164272
0.00385475
0.00425473
0.00442526
0.00435375
0.00397358
0.00314212
0.00187776
0.000156518
0.00354183
0.00391372
0.00408889
0.00403002
0.00367555
0.00290499
0.00175631
0.000150655
0.00325542
0.00362203
0.00379904
0.00375144
0.00341844
0.00270426
0.00165834
0.000146265
0.00301088
0.00337244
0.00355049
0.00351292
0.00320035
0.00253744
0.00157854
0.000142989
0.00280115
0.00315847
0.0033378
0.00330982
0.00301719
0.00240018
0.0015146
0.00014054
0.00262005
0.0029743
0.00315555
0.00313707
0.00286391
0.00228728
0.00146365
0.000138648
0.00246233
0.00281477
0.00299866
0.00298954
0.00273551
0.00219418
0.00142056
0.000137078
0.00232366
0.00267542
0.00286253
0.00286255
0.00262656
0.00211657
0.00136777
0.000135745
0.00220062
0.00255251
0.00274324
0.00275212
0.00253283
0.00205079
0.00132194
0.00013462
0.00209047
0.00244301
0.00263764
0.00265508
0.00245132
0.00199418
0.0012823
0.000133671
0.00199084
0.00234435
0.00254304
0.00256874
0.00237945
0.00194464
0.00124788
0.00013287
0.00189981
0.0022545
0.00245738
0.00249104
0.00231516
0.00190056
0.00121783
0.000132192
0.00181594
0.00217181
0.002379
0.00242044
0.00225725
0.00186115
0.00119148
0.000131616
0.00173539
0.00209525
0.00230688
0.00235604
0.00220488
0.00182579
0.00116804
0.000131116
0.00165538
0.00202365
0.0022398
0.0022965
0.00215664
0.00179311
0.00114672
0.00013067
0.00157995
0.00195579
0.00217673
0.00224089
0.00211179
0.00176278
0.00112693
0.000130261
0.00150808
0.00189041
0.00211693
0.0021886
0.00206987
0.00173463
0.00110832
0.000129879
0.00143915
0.00181628
0.0020596
0.00213871
0.00202992
0.00170727
0.00109062
0.000129517
0.00137273
0.00174382
0.00200416
0.00209067
0.00199138
0.00168097
0.00107363
0.000129171
0.00130835
0.00167257
0.00194984
0.00204376
0.00195386
0.0016556
0.00105725
0.000128835
0.00124575
0.00160192
0.00189561
0.00199734
0.00191695
0.00163071
0.00104134
0.000128504
0.0011848
0.00153135
0.0018351
0.00195084
0.00188001
0.00160552
0.00102563
0.000128164
0.00112518
0.00146092
0.00176719
0.00190405
0.00184279
0.00157979
0.00100996
0.000127816
0.00106689
0.00139099
0.00169888
0.0018572
0.00180551
0.00155398
0.000994733
0.000127462
0.00100909
0.00132227
0.00163078
0.00181075
0.0017687
0.00152862
0.00098028
0.000127098
0.000945305
0.00125517
0.00156287
0.00176502
0.00173312
0.00150398
0.000966109
0.000126721
0.000882587
0.00118969
0.00149462
0.00171226
0.00169893
0.00148009
0.00095237
0.000126338
0.000820778
0.00112518
0.00142504
0.00165196
0.00166405
0.00145619
0.000939644
0.000125956
0.000759018
0.001061
0.00135289
0.00158744
0.00162623
0.00143117
0.000927047
0.000125575
0.000696444
0.000996903
0.00127672
0.00151525
0.00158442
0.00140385
0.000914501
0.000125202
0.000632815
0.000933051
0.00119597
0.0014322
0.00153498
0.00137293
0.00090224
0.000124841
0.00056856
0.000868797
0.00111173
0.0013382
0.00146238
0.0013373
0.00088953
0.000124497
0.000505169
0.000794431
0.00102561
0.00123661
0.00137374
0.00129671
0.000876183
0.000124186
0.000445174
0.000701361
0.000938802
0.00113139
0.00127742
0.00125181
0.000863269
0.000123921
0.000390514
0.000611869
0.000852139
0.0010264
0.00117887
0.00120414
0.000851035
0.000123705
0.000342497
0.000530069
0.000749077
0.000925389
0.0010833
0.00115567
0.000839817
0.000123539
0.000301869
0.000458593
0.000648905
0.000830977
0.000994166
0.00110419
0.000829919
0.000123418
0.000268712
0.000398167
0.000561297
0.000743589
0.000914126
0.00105702
0.00082145
0.000123335
0.000242404
0.000348121
0.000486856
0.00065743
0.000843859
0.00101593
0.000814502
0.000123272
0.000221923
0.000307236
0.000424783
0.00058386
0.000783188
0.000980992
0.00080895
0.000123243
0.000206094
0.000274238
0.000373175
0.000521434
0.000731486
0.000951882
0.000804628
0.000123238
0.000193788
0.000247734
0.000330177
0.000468317
0.000687911
0.000928059
0.000801366
0.000123244
0.000184051
0.000226399
0.00029418
0.000423419
0.000651576
0.000908908
0.000798987
0.000123259
0.000176134
0.000209095
0.000263913
0.000384855
0.000621561
0.000893774
0.000797331
0.000123281
0.000169509
0.000194922
0.000238417
0.000351728
0.000596995
0.000882018
0.000796232
0.000123305
0.000163837
0.000183215
0.000216946
0.00032337
0.000577088
0.000873048
0.000795555
0.000123328
0.000158924
0.000173503
0.000198935
0.000299282
0.000561166
0.000866335
0.000795168
0.00012335
0.000154668
0.000165451
0.000183945
0.000279033
0.000548604
0.000861414
0.000794995
0.000123369
0.000151017
0.000158819
0.000171624
0.000262291
0.00053731
0.000857879
0.000794946
0.000123385
0.000147935
0.000153409
0.000161642
0.000248671
0.00052802
0.000855389
0.000794973
0.000123398
0.000145382
0.000149069
0.000153704
0.000237826
0.000520814
0.000853678
0.000795039
0.000123408
0.00014331
0.000145636
0.000147477
0.000229298
0.00051526
0.000852529
0.000795132
0.000123417
0.00014167
0.000142986
0.000142721
0.000222785
0.000511106
0.000851787
0.000795218
0.000123423
0.000140387
0.00014095
0.000139082
0.000217779
0.00050796
0.000851326
0.000795312
0.000123428
0.000139424
0.00013945
0.000136447
0.00021416
0.000505721
0.000851064
0.000795395
0.000123431
0.000138683
0.00013831
0.000134415
0.000211338
0.000504015
0.000850949
0.000795464
0.000123433
0.000138174
0.000137536
0.000133096
0.000209532
0.000502888
0.00085086
0.000795548
0.000123434
0.000137753
0.000136904
0.000131948
0.000207854
0.000501891
0.000850975
0.000795566
0.000123432
0.000137539
0.000136581
0.000131421
0.000207202
0.000501425
0.000850822
0.000795868
0.000123425
0.000137262
0.000136173
0.000130688
0.000205931
0.000500342
0.000850807
0.000795978
0.000123411
)
;

boundaryField
{
    frontAndBack
    {
        type            empty;
    }
    inlet
    {
        type            calculated;
        value           nonuniform List<scalar> 10(9.54767e-06 0.000160714 0.000160714 0.000160714 0.000160714 0.000160714 0.000160714 0.000160714 0.000160714 9.54734e-06);
    }
    outlet
    {
        type            calculated;
        value           nonuniform List<scalar> 
18
(
0.000137262
0.000136173
0.000130688
0.000205931
0.000500342
0.000854024
0.000798852
0.000156061
0.000137397
0.000137364
0.000137303
0.000137199
0.000136763
0.000132551
0.000190198
0.00049788
0.000797878
0.000158332
)
;
    }
    walls
    {
        type            nutkWallFunction;
        blending        stepwise;
        Cmu             0.09;
        kappa           0.41;
        E               9.8;
        value           nonuniform List<scalar> 
228
(
2.20337e-05
2.44559e-05
2.91026e-05
3.17398e-05
3.68056e-05
3.96161e-05
4.50183e-05
4.79443e-05
5.35671e-05
5.65374e-05
0.000229383
0.00021752
0.000219378
0.000225825
0.000229982
0.000225479
0.000199477
3.37291e-05
3.37291e-05
5.91812e-05
7.99568e-05
9.57099e-05
0.000103995
0.000107386
0.000108139
0.000106953
0.0001031
9.8458e-05
9.35039e-05
8.92827e-05
8.64846e-05
8.37814e-05
8.12207e-05
7.88859e-05
7.67253e-05
7.46305e-05
7.26635e-05
7.0827e-05
6.91639e-05
6.7715e-05
6.65055e-05
6.55518e-05
6.48654e-05
6.44438e-05
6.4272e-05
6.42568e-05
6.43185e-05
6.4498e-05
6.46624e-05
6.46926e-05
6.44998e-05
6.39482e-05
6.31386e-05
6.21169e-05
6.0972e-05
5.98054e-05
5.8703e-05
5.7728e-05
5.69078e-05
5.62405e-05
5.57106e-05
5.52992e-05
5.49866e-05
5.47405e-05
5.45273e-05
5.43404e-05
5.41825e-05
5.40526e-05
5.39478e-05
5.38648e-05
5.38005e-05
5.37498e-05
5.37077e-05
5.36708e-05
5.3637e-05
5.36048e-05
5.35733e-05
5.35412e-05
5.35073e-05
5.34685e-05
5.34232e-05
5.3371e-05
5.33104e-05
5.32402e-05
5.31626e-05
5.308e-05
5.2994e-05
5.29074e-05
5.28229e-05
5.27432e-05
5.26729e-05
5.2616e-05
5.25739e-05
5.25465e-05
5.25319e-05
5.25275e-05
5.25288e-05
5.25374e-05
5.25505e-05
5.25648e-05
5.25796e-05
5.25944e-05
5.26086e-05
5.26218e-05
5.26335e-05
5.26439e-05
5.26527e-05
5.26601e-05
5.26662e-05
5.26712e-05
5.26752e-05
5.26786e-05
5.26811e-05
5.26836e-05
5.26856e-05
5.26881e-05
5.26907e-05
5.26996e-05
2.14365e-05
2.47791e-05
2.84246e-05
3.20617e-05
3.60353e-05
3.99424e-05
4.41669e-05
4.83007e-05
5.26778e-05
5.69408e-05
6.21919e-05
6.81798e-05
7.41372e-05
7.97727e-05
8.50999e-05
8.98799e-05
9.40813e-05
9.75267e-05
0.000100243
0.000102154
0.000103372
0.000103929
0.000103832
0.000103479
0.000102721
0.00010166
0.000100411
9.90183e-05
9.75901e-05
9.6205e-05
9.48508e-05
9.36357e-05
9.26955e-05
9.19496e-05
9.13376e-05
9.10466e-05
9.10374e-05
9.11464e-05
9.1326e-05
9.13269e-05
9.11201e-05
9.02709e-05
8.75064e-05
8.12448e-05
7.55969e-05
7.22669e-05
7.11573e-05
7.11845e-05
7.17847e-05
7.24738e-05
7.27895e-05
7.29144e-05
7.29601e-05
7.29812e-05
7.29839e-05
7.29798e-05
7.29699e-05
7.29527e-05
7.29216e-05
7.2881e-05
7.28366e-05
7.27932e-05
7.27536e-05
7.27173e-05
7.2682e-05
7.26458e-05
7.26078e-05
7.25663e-05
7.25174e-05
7.24556e-05
7.2375e-05
7.22722e-05
7.21446e-05
7.19888e-05
7.18011e-05
7.158e-05
7.13281e-05
7.10516e-05
7.076e-05
7.04651e-05
7.01782e-05
6.99105e-05
6.96716e-05
6.94687e-05
6.93071e-05
6.91878e-05
6.911e-05
6.90707e-05
6.90619e-05
6.90702e-05
6.91072e-05
6.91591e-05
6.92151e-05
6.92756e-05
6.93391e-05
6.94013e-05
6.94584e-05
6.95088e-05
6.9552e-05
6.95879e-05
6.96171e-05
6.96403e-05
6.96582e-05
6.96718e-05
6.9682e-05
6.96886e-05
6.96941e-05
6.96959e-05
6.96969e-05
6.96924e-05
)
;
    }
}


// ************************************************************************* //
