/*--------------------------------*- C++ -*----------------------------------*\
| =========                 |                                                 |
| \\      /  F ield         | OpenFOAM: The Open Source CFD Toolbox           |
|  \\    /   O peration     | Version:  v2012                                 |
|   \\  /    A nd           | Website:  www.openfoam.com                      |
|    \\/     M anipulation  |                                                 |
\*---------------------------------------------------------------------------*/
FoamFile
{
    version     2.0;
    format      ascii;
    class       volScalarField;
    location    "0.03";
    object      omega.air;
}
// * * * * * * * * * * * * * * * * * * * * * * * * * * * * * * * * * * * * * //

dimensions      [0 0 -1 0 0 0 0];


internalField   nonuniform List<scalar> 
1900
(
2499.97
2684.38
3045.55
3254.35
3662.2
3891.94
4339.69
4585.3
5062.82
5317.8
2750.38
2642.91
2561.77
2470.15
2405.65
2330.52
2282.38
2226.38
2195.25
2175.92
2745.56
2646.73
2552.56
2467.43
2385.05
2311.2
2238.4
2174.04
2109.11
2053
2745.96
2645.85
2552.73
2466.06
2385.03
2309.26
2238.14
2171.34
2108.44
2049.11
2745.97
2645.76
2552.65
2465.9
2384.86
2309.04
2237.91
2171.05
2108.17
2048.77
2745.98
2645.75
2552.65
2465.9
2384.86
2309.05
2237.91
2171.06
2108.18
2048.77
2746.13
2645.67
2552.89
2465.9
2385.18
2309.12
2238.3
2171.18
2108.66
2048.92
2747
2645.05
2554.28
2465.48
2387.08
2308.94
2240.79
2171.42
2111.91
2049.93
2748.57
2644.68
2559.94
2471.69
2404.2
2331.41
2281.76
2225.65
2195.63
2167.87
2454.4
2709.88
2991.29
3280.35
3598.72
3918.95
4268.36
4615.79
4987.17
5353.05
9253.33
12426
12412.2
11857.5
10679.8
9519.26
8522.06
7656.47
6930.11
6340.69
5881.6
5526.76
5243.31
4997.26
4774.17
4564.07
4368.33
4182.46
4008.23
3851.21
3697.35
3552.88
3420.7
3291.25
3160.54
3031.95
2909.07
2796.82
2700.51
2618.94
2548.51
2492.83
2456.4
2430.78
2394.54
2333.96
2249.72
2149.67
2042.63
1934.21
1828.94
1730.59
1641.23
1561.23
1489.98
1426.5
1369.69
1318.55
1272.14
1229.65
1190.4
1153.81
1119.41
1086.78
1055.54
1025.36
995.91
966.933
938.201
909.538
880.54
850.877
820.474
789.423
757.875
725.969
693.757
661.242
628.466
595.639
563.191
531.703
502.066
475.272
452.07
432.741
417.115
404.715
394.976
387.36
381.395
376.677
372.869
369.706
367
364.632
362.541
360.697
359.09
357.712
356.558
355.608
354.85
354.249
353.796
353.441
353.199
352.991
352.888
352.749
2280.79
2619.22
3297.32
4104.51
4308.63
4212.11
3957.01
3613.21
3319.18
3091.35
2930.65
2831.02
2761.65
2738.02
2726.52
2729.2
2735.31
2746.09
2761.9
2793.63
2833.77
2872.47
2936.26
2958.04
2946.93
2909.27
2833.36
2742.55
2655.34
2578.86
2508.77
2449.03
2405.36
2365.74
2308.87
2225.13
2116.63
1994.14
1868.87
1748.26
1635.9
1532.98
1439.75
1355.82
1280.4
1212.26
1150.18
1093.04
1040.09
990.874
945.056
902.357
862.53
825.335
790.549
757.981
727.418
698.658
671.542
645.846
621.422
598.241
576.342
555.786
536.611
518.807
502.325
487.103
473.082
460.201
448.407
437.637
427.824
418.884
410.735
403.313
396.591
390.555
385.201
380.499
376.398
372.825
369.706
366.97
364.56
362.437
360.574
358.955
357.57
356.404
355.446
354.67
354.06
353.584
353.23
352.956
352.77
352.615
352.538
352.436
1983.43
1921.11
1858.12
1815.49
1794.09
1781.99
1759.26
1721.16
1674.79
1626
1578.8
1538.65
1502.86
1474.06
1450.3
1435.36
1419.61
1419.99
1426.18
1442.6
1477.78
1543.1
1650.44
1799.87
2008.34
2254.15
2440.27
2501.99
2495.51
2464.24
2410.4
2357.05
2310.16
2253.96
2167.14
2046.15
1888.82
1707.78
1532.05
1381.44
1258.27
1156.23
1070.28
996.56
932.2
875.537
825.627
781.802
743.467
710.01
680.809
655.248
632.762
612.836
595.011
578.877
564.164
550.705
538.324
526.87
516.215
506.251
496.881
488.015
479.573
471.484
463.696
456.158
448.83
441.682
434.695
427.856
421.159
414.604
408.211
402.022
396.111
390.559
385.439
380.788
376.619
372.914
369.638
366.751
364.217
362.007
360.1
358.474
357.111
355.988
355.081
354.361
353.803
353.375
353.06
352.822
352.661
352.531
352.465
352.383
1981.98
1909.67
1842.89
1781.21
1724.41
1671.74
1621.95
1574.43
1527.68
1483.09
1438.18
1395.97
1354.94
1314.16
1278.34
1241.72
1206.28
1178.02
1144.81
1115.78
1096.21
1067.4
1053.36
1057.25
1083.74
1157.93
1325.47
1595.4
1863.67
2039.54
2100.27
2097.55
2065.2
1977.72
1775.75
1558.88
1379.22
1251.17
1155.65
1071.38
993.065
924.494
866.174
817.34
776.741
742.971
714.715
690.815
670.328
652.524
636.818
622.775
610.103
598.577
588.02
578.319
569.385
561.119
553.464
546.369
539.772
533.555
527.543
521.552
515.451
509.157
502.544
495.402
487.548
478.94
469.641
459.849
449.79
439.706
429.835
420.337
411.368
403.061
395.515
388.779
382.855
377.703
373.261
369.458
366.226
363.499
361.219
359.333
357.79
356.544
355.552
354.777
354.182
353.737
353.409
353.171
353.008
352.885
352.817
352.746
1981.65
1909.15
1842.24
1780.01
1722.18
1668.37
1617.75
1570.13
1523.79
1479.6
1435.4
1393.4
1352.55
1312.18
1275.77
1239.03
1203.96
1173.42
1140.35
1109.91
1084.74
1053.79
1026.65
1007.21
977.299
955.326
955.873
973.7
1030.92
1196.18
1321.91
1335
1312.42
1234.84
1164.59
1115.36
1090.67
1084.21
1079
1071.14
1059.4
1038.59
1009.79
976.883
943.393
911.609
882.783
857.474
835.793
817.482
802.077
789.124
778.365
769.605
762.587
757.05
752.801
749.706
747.645
746.429
745.792
745.376
744.7
743.304
740.945
737.443
732.319
724.715
713.819
699.114
680.313
657.502
631.246
602.474
572.326
542.088
512.981
486.016
461.9
441.01
423.43
408.986
397.328
388.056
380.773
375.105
370.716
367.33
364.732
362.759
361.281
360.196
359.413
358.863
358.477
358.224
358.057
357.946
357.89
357.906
1981.68
1909.07
1842.05
1779.54
1721.58
1667.96
1617.64
1570.42
1525.39
1481.64
1440.01
1399.53
1361.04
1324.46
1289.72
1257.11
1226.04
1197.11
1169.22
1141.84
1115.89
1089.37
1061.15
1033.84
1006.9
978.62
953.907
935.039
913.902
899.158
898.87
902.258
915.017
951.316
1031.69
1211.17
1414.14
1564.72
1631.58
1638
1626.12
1583.62
1520.98
1459.66
1403.98
1355.91
1315.74
1282.87
1256.28
1234.82
1217.57
1203.75
1192.65
1183.74
1176.65
1170.99
1166.38
1162.6
1159.45
1156.63
1153.85
1150.85
1147.53
1143.67
1138.9
1132.78
1125.05
1115.5
1103.56
1088.27
1068.4
1042.57
1009.69
969.488
922.655
870.778
816.122
761.265
708.492
659.484
615.463
577.143
544.785
518.271
497.178
480.897
468.67
459.734
453.447
449.288
446.744
445.371
444.826
444.768
444.844
445.199
445.527
446.148
446.512
447.555
1982.34
1909.09
1842.72
1779.48
1722.27
1669.26
1621.07
1579.31
1541.37
1508.46
1480.58
1455.25
1433.99
1415.48
1399.07
1385.61
1374.14
1363.29
1353.08
1341.53
1326.79
1307.99
1283.14
1251.58
1215.32
1179.74
1144.51
1103.62
1072.78
1070.56
1083.53
1134.58
1261.51
1558
1956.53
2291.99
2487.5
2532.08
2518.17
2460.55
2344.85
2226.46
2116.78
2020.04
1937.57
1868.9
1812.46
1766.25
1728.23
1696.63
1670.11
1647.63
1628.27
1611.24
1596.07
1582.3
1569.54
1557.53
1546.09
1535.17
1524.72
1514.67
1504.85
1495.24
1486.05
1477.52
1469.79
1462.84
1456.56
1450.88
1445.44
1438.96
1429.57
1415.12
1393.99
1365.78
1331.4
1292.85
1252.76
1213.71
1177.63
1145.84
1119.21
1098.37
1083.49
1074.53
1070.88
1070.51
1071.29
1074.4
1079.84
1085.73
1091.22
1096.57
1100.94
1105.24
1108.19
1111.7
1113.26
1116.86
1987.57
1911.64
1852.75
1790.7
1753
1718.34
1719.64
1731.93
1760.79
1810.16
1868.96
1929.56
1990.92
2047.62
2098.97
2145.52
2183.37
2214.24
2237.31
2244.26
2243.04
2235.25
2213.51
2177.51
2137.01
2083.27
2022.85
1990.3
1990.69
2011.94
2082.97
2255.6
2654.08
3136.61
3593.78
3820.9
3833.69
3776.7
3595.29
3360.68
3135.84
2938.52
2772.78
2635.63
2523.61
2433.4
2361.35
2303.92
2257.81
2220.2
2188.78
2161.96
2138.67
2118.13
2099.75
2082.95
2067.33
2052.7
2038.95
2026.06
2014.12
2003.33
1993.63
1985.09
1978.54
1974.86
1973.87
1974.04
1975.13
1978.53
1987.65
2004.82
2028.07
2054.6
2080.25
2102.08
2119.3
2132.68
2143.8
2154.05
2164.21
2174.41
2184.72
2195.62
2207.48
2219.95
2232.46
2244.54
2255.69
2265.68
2274.3
2281.69
2287.76
2292.85
2296.72
2299.98
2302.22
2304.51
2305.59
2308.29
2170.75
2194.27
2253.38
2374.21
2561.53
2806.46
3090.66
3388.79
3675.44
3929.28
4136.77
4296.04
4408.16
4474.84
4520.21
4521.72
4511.97
4487.1
4442.07
4387.48
4334.37
4276.62
4203.79
4124.45
4047.23
3971.99
3926.47
3923.64
3940.98
4006.09
4168.17
4541.72
5177.2
5783.28
6120.86
6172.94
6094.57
5814.77
5376.72
4952.55
4588.9
4299.33
4079.49
3916.18
3795.88
3707.84
3643.67
3596.58
3561.25
3533.67
3510.89
3490.91
3472.15
3453.91
3436.3
3419.17
3402.42
3386.32
3371.2
3357.34
3345.97
3339.43
3338.24
3339.56
3344.79
3358.34
3378.28
3401.97
3428.25
3456.03
3484.09
3511.31
3537.26
3562.35
3587.55
3613.68
3640.69
3667.7
3693.45
3717.5
3739.85
3760.5
3779.41
3796.62
3812.25
3826.41
3839.18
3850.53
3860.39
3868.79
3875.79
3881.6
3886.3
3890.23
3893.13
3895.79
3897.44
3899.36
3900.28
3903.44
5808.75
6333.82
6862.35
7366.63
7847.88
8282.98
8668.24
8985.82
9237.45
9414.88
9528.43
9579.98
9570.84
9537.71
9466.71
9367.85
9251.28
9121.96
8990.6
8863.4
8739.34
8630.34
8547.21
8479.89
8426.77
8405.22
8405.8
8418.46
8431.59
8429.38
8403.03
8306.57
7990.53
7408.34
6929.18
6668.09
6593.3
6602.79
6663.13
6717.47
6741.65
6751.38
6755.25
6757.25
6757.61
6757.29
6756.46
6754.88
6752
6748.33
6744.4
6740.62
6737.19
6734.04
6730.94
6727.73
6724.34
6720.59
6716.11
6710.36
6702.87
6693.34
6681.55
6667.17
6649.89
6629.65
6606.75
6581.82
6555.77
6529.66
6504.49
6481.25
6460.76
6443.58
6430.13
6420.43
6414.36
6411.58
6411.22
6412.38
6416.2
6420.86
6425.88
6431.29
6436.91
6442.3
6447.2
6451.49
6455.14
6458.16
6460.59
6462.51
6463.98
6465.1
6465.93
6466.46
6466.9
6467.03
6467.1
6466.69
1788.22
1689.47
1704.68
1758.21
1792.83
1755.19
1540.12
6068.33
12046.2
6376.54
3905.72
3605.55
4026.45
4744.86
6293.49
9859.45
12660.9
8944.13
6067.36
4844.25
4627.43
5110.37
6835.95
13125.6
12087.9
9953.87
7551.01
5992.13
5410.16
5535.61
7037
15676.9
11034.3
9986.71
8391.79
6929.58
6085.93
5939.88
7152.56
17040.3
10136.4
9753.59
8731.71
7432.54
6485.88
6194.26
7289.39
17602
9308.48
9223.21
8657.12
7567.97
6633.31
6276
7300.88
17727
8576.19
8653.21
8340.59
7471.14
6589.86
6233.29
7215.48
17530
7917.73
8099.28
7879.81
7181.88
6392.73
6058.63
6998.58
16892.9
7336.52
7569.97
7399.02
6794.89
6100.14
5823.13
6744.33
16128.7
6829.67
7073.77
6924.09
6388.01
5783.49
5565.44
6472.24
15318.2
6385.7
6611.89
6472.19
5992.93
5468.25
5306.26
6209.54
14630.4
5994.66
6187.5
6050.83
5621.31
5170.83
5066.46
5988.93
14177.7
5642.84
5798.83
5662.78
5278.25
4894.16
4840.57
5777.88
13740.7
5323.65
5444.85
5309.41
4965.52
4638.79
4629.23
5577.76
13328.9
5031.95
5122.52
4987.3
4679.05
4404.05
4431.29
5394.05
12955.3
4763.97
4829.33
4695.73
4416.63
4185.24
4243.3
5218.65
12610.2
4515.98
4560.63
4429.15
4174.6
3978.78
4061.66
5040.41
12275.8
4287
4313.44
4183.14
3950.68
3784.59
3889.33
4872.23
11962.5
4076.06
4082.95
3953.76
3742.12
3603.22
3729.26
4719.19
11671.7
3876.51
3867.67
3738.11
3547.15
3434.87
3583.34
4584.63
11410.7
3689.71
3667.38
3536.28
3365.33
3280.46
3454.02
4472.31
11185.5
3513.55
3478.27
3347.45
3197.66
3142.37
3344.81
4386.13
10999.6
3344.74
3297.23
3170.56
3045.54
3023.55
3259.26
4329.08
10855.2
3183.14
3124.54
3008.29
2912.67
2925.85
3199.93
4301.1
10753.7
3031.13
2965.47
2866.61
2802.95
2851.27
3163.47
4294.89
10693.8
2893.27
2828.18
2750.87
2718.01
2798.37
3142.34
4297.24
10671.7
2774.85
2717.77
2662.16
2655.36
2761.14
3127.88
4299.31
10671.2
2678.49
2632.64
2595.64
2608.23
2731.56
3112.39
4295.57
10683.3
2600.67
2566.09
2543.72
2569.43
2702.13
3088.09
4277.94
10711.6
2537.69
2514.23
2502.6
2534.73
2667.79
3048.19
4231.85
10732.7
2491.39
2477.7
2472.03
2503.34
2627.47
2991.47
4157.02
10731
2464.03
2456.65
2451.8
2476.05
2583.49
2922.22
4059.17
10687.9
2448.06
2444.12
2436.83
2450.67
2537.7
2847.44
3949.63
10591.8
2426.53
2426.72
2416.8
2420.14
2488.22
2770.91
3838.87
10457.3
2384.66
2392.34
2381.73
2377.22
2432.02
2694.33
3735.28
10291.9
2319.43
2336.51
2327.56
2319.83
2367.84
2619.52
3645.93
10110.7
2235.39
2262.2
2256.65
2250.11
2297.4
2548.81
3574.6
9929.58
2138.83
2174.48
2174.15
2172.06
2224.2
2484.73
3523.13
9761.28
2035.76
2078.74
2085.22
2089.97
2152.43
2429.23
3490.73
9614.59
1932.19
1980.86
1994.82
2008.7
2085.3
2383.46
3476.02
9492.37
1833.47
1886.12
1907.6
1932.09
2024.87
2346.73
3474.4
9393.68
1742.69
1798.12
1826.89
1862.5
1971.79
2317.09
3476.73
9315.72
1661.03
1718.67
1754.38
1800.89
1925.97
2293.15
3483.7
9255.58
1588.42
1648.12
1690.44
1747.31
1887.04
2274.1
3492.39
9209.94
1524.13
1585.99
1634.59
1701.11
1854.13
2259.13
3502.27
9173.57
1467.21
1531.41
1585.91
1661.16
1825.86
2246.23
3511.64
9141.76
1416.63
1483.35
1543.33
1626.36
1801.16
2234.46
3520.25
9114.03
1371.45
1440.75
1505.8
1595.79
1779.36
2224.04
3529.58
9090.71
1330.79
1402.68
1472.39
1568.63
1759.96
2215.07
3540.16
9071.59
1293.92
1368.35
1442.36
1544.28
1742.62
2207.54
3551.98
9056.19
1260.18
1337.1
1415.08
1522.2
1727.08
2201.39
3564.84
9044.06
1229.08
1308.43
1390.12
1502.08
1713.05
2196.37
3578.49
9034.64
1200.2
1281.9
1367.03
1483.49
1700.19
2192.2
3592.84
9027.17
1173.19
1257.18
1345.47
1466.18
1688.43
2189.14
3608.18
9020.91
1147.7
1233.95
1325.18
1449.85
1677.48
2186.81
3624.55
9015.34
1123.41
1211.92
1305.87
1434.23
1667.08
2184.96
3642.21
9010.2
1100.09
1190.83
1287.35
1419.2
1657.33
2184.53
3661.73
9005.28
1077.54
1170.39
1269.38
1404.56
1648.07
2184.79
3683.27
9000.41
1055.54
1150.33
1251.81
1390.26
1639.22
2185.66
3706.63
8995.42
1033.8
1130.55
1234.57
1376.26
1630.78
2187.51
3731.91
8990.08
1011.96
1110.92
1217.61
1362.65
1622.92
2190.89
3760.31
8983.94
989.759
1091.31
1200.83
1349.4
1615.85
2196.29
3793.44
8976.76
966.975
1071.54
1184.09
1336.51
1609.8
2204.07
3831.24
8968.49
943.428
1051.42
1167.23
1323.99
1604.88
2214.12
3873.08
8958.86
918.911
1030.7
1149.93
1311.68
1600.86
2226
3917.97
8947.79
893.207
1009.13
1131.62
1299.33
1597.49
2239.48
3964.8
8935.67
866.018
986.576
1111.61
1286.79
1595.47
2254.58
4012.42
8922.81
836.591
962.724
1089.92
1273.75
1595.28
2271.21
4059.79
8909.54
804.222
937.714
1067.62
1260.03
1595.79
2289.4
4106.34
8896.29
768.375
912.279
1047.2
1246.64
1597.55
2309.74
4151.93
8883.46
728.689
886.246
1030.79
1237.22
1601.69
2333.05
4196.71
8871.52
685.265
857.865
1018.02
1235.11
1609.44
2360.13
4241.09
8861.22
639.418
825.115
1007.06
1238.04
1624.92
2391.72
4285.43
8853.07
593.553
786.812
995.38
1252.02
1654.43
2427.85
4329.74
8847.21
550.445
743.463
979.55
1272.99
1695.35
2467.92
4373.59
8843.54
512.134
697.429
958.039
1291.87
1743.13
2511.13
4415.52
8841.73
479.543
651.67
931.08
1306.69
1792.63
2556.28
4453.89
8841.34
452.837
608.634
899.915
1316.77
1840
2601.65
4487.78
8841.75
431.571
569.745
866.117
1322.29
1883.32
2645.35
4516.89
8843.36
414.976
535.353
831.26
1323.88
1922.02
2685.78
4541.17
8845.42
402.164
505.38
796.413
1322.62
1956.14
2721.89
4560.87
8847.65
392.247
479.55
762.294
1317.6
1985.96
2753.21
4576.44
8849.94
384.489
457.489
729.329
1311.01
2011.8
2779.71
4588.45
8852.2
378.328
438.833
697.887
1303.38
2033.94
2801.65
4597.53
8854.35
373.357
423.239
668.4
1295.13
2052.66
2819.48
4604.29
8856.32
369.302
410.386
641.348
1286.67
2068.23
2833.73
4609.27
8858.08
365.979
399.943
617.09
1278.29
2080.93
2844.94
4612.91
8859.61
363.266
391.598
595.941
1270.39
2091.1
2853.62
4615.57
8860.91
361.061
385.03
577.928
1263.19
2099.06
2860.24
4617.52
8862
359.293
379.959
563.046
1256.91
2105.14
2865.2
4618.95
8862.88
357.884
376.066
550.957
1251.51
2109.7
2868.9
4619.99
8863.61
356.791
373.149
541.506
1247.09
2112.99
2871.58
4620.76
8864.18
355.94
370.937
534.068
1243.42
2115.38
2873.53
4621.34
8864.67
355.31
369.356
528.623
1240.62
2117.02
2874.93
4621.72
8865.04
354.821
368.136
524.272
1238.24
2118.1
2875.81
4622.02
8865.4
354.492
367.36
521.483
1236.62
2118.86
2876.52
4622.11
8865.69
354.211
366.666
518.804
1234.91
2119.24
2876.78
4622.09
8866.06
354.074
366.365
517.736
1234.02
2119.23
2876.77
4621.65
8866.44
353.887
365.889
515.566
1231.69
2118.69
2876.23
4620.21
8867.78
)
;

boundaryField
{
    frontAndBack
    {
        type            empty;
    }
    inlet
    {
        type            fixedValue;
        value           uniform 2800;
    }
    outlet
    {
        type            zeroGradient;
    }
    walls
    {
        blending        binomial2;
        n               2;
        beta1           0.075;
        type            omegaWallFunction;
        value           nonuniform List<scalar> 
228
(
2499.97
2684.38
3045.55
3254.35
3662.2
3891.94
4339.69
4585.3
5062.82
5317.8
1788.22
1689.47
1704.68
1758.21
1792.83
1755.19
1540.12
6068.33
6068.33
9859.45
13125.6
15676.9
17040.3
17602
17727
17530
16892.9
16128.7
15318.2
14630.4
14177.7
13740.7
13328.9
12955.3
12610.2
12275.8
11962.5
11671.7
11410.7
11185.5
10999.6
10855.2
10753.7
10693.8
10671.7
10671.2
10683.3
10711.6
10732.7
10731
10687.9
10591.8
10457.3
10291.9
10110.7
9929.58
9761.28
9614.59
9492.37
9393.68
9315.72
9255.58
9209.94
9173.57
9141.76
9114.03
9090.71
9071.59
9056.19
9044.06
9034.64
9027.17
9020.91
9015.34
9010.2
9005.28
9000.41
8995.42
8990.08
8983.94
8976.76
8968.49
8958.86
8947.79
8935.67
8922.81
8909.54
8896.29
8883.46
8871.52
8861.22
8853.07
8847.21
8843.54
8841.73
8841.34
8841.75
8843.36
8845.42
8847.65
8849.94
8852.2
8854.35
8856.32
8858.08
8859.61
8860.91
8862
8862.88
8863.61
8864.18
8864.67
8865.04
8865.4
8865.69
8866.06
8866.44
8867.78
2454.4
2709.88
2991.29
3280.35
3598.72
3918.95
4268.36
4615.79
4987.17
5353.05
5808.75
6333.82
6862.35
7366.63
7847.88
8282.98
8668.24
8985.82
9237.45
9414.88
9528.43
9579.98
9570.84
9537.71
9466.71
9367.85
9251.28
9121.96
8990.6
8863.4
8739.34
8630.34
8547.21
8479.89
8426.77
8405.22
8405.8
8418.46
8431.59
8429.38
8403.03
8306.57
7990.53
7408.34
6929.18
6668.09
6593.3
6602.79
6663.13
6717.47
6741.65
6751.38
6755.25
6757.25
6757.61
6757.29
6756.46
6754.88
6752
6748.33
6744.4
6740.62
6737.19
6734.04
6730.94
6727.73
6724.34
6720.59
6716.11
6710.36
6702.87
6693.34
6681.55
6667.17
6649.89
6629.65
6606.75
6581.82
6555.77
6529.66
6504.49
6481.25
6460.76
6443.58
6430.13
6420.43
6414.36
6411.58
6411.22
6412.38
6416.2
6420.86
6425.88
6431.29
6436.91
6442.3
6447.2
6451.49
6455.14
6458.16
6460.59
6462.51
6463.98
6465.1
6465.93
6466.46
6466.9
6467.03
6467.1
6466.69
)
;
    }
}


// ************************************************************************* //
