/*--------------------------------*- C++ -*----------------------------------*\
| =========                 |                                                 |
| \\      /  F ield         | OpenFOAM: The Open Source CFD Toolbox           |
|  \\    /   O peration     | Version:  v2012                                 |
|   \\  /    A nd           | Website:  www.openfoam.com                      |
|    \\/     M anipulation  |                                                 |
\*---------------------------------------------------------------------------*/
FoamFile
{
    version     2.0;
    format      ascii;
    class       surfaceScalarField;
    location    "0.03";
    object      phi.air;
}
// * * * * * * * * * * * * * * * * * * * * * * * * * * * * * * * * * * * * * //

dimensions      [0 3 -1 0 0 0 0];
oriented        oriented;


internalField   nonuniform List<scalar> 
10964
(
0.00133667
2.86873e-05
0.00129777
3.81e-05
0.00125306
4.39103e-05
0.00120501
4.72533e-05
0.00115666
4.75548e-05
0.00111034
4.55151e-05
0.00106804
4.1484e-05
0.00103133
3.59006e-05
0.00100006
3.04608e-05
0.000973657
2.55892e-05
0.000951941
2.08999e-05
0.000934734
1.63898e-05
0.000921727
1.21894e-05
0.00091243
8.47899e-06
0.000906119
5.4928e-06
0.000901851
3.44885e-06
0.000898873
2.16023e-06
0.000896792
1.26258e-06
0.000895555
4.19664e-07
0.000895048
-3.10095e-07
0.00089495
-7.19536e-07
0.000894976
-8.42989e-07
0.000895017
-8.56892e-07
0.000895016
-8.15126e-07
0.000894884
-6.84452e-07
0.000894591
-5.23039e-07
0.00089416
-3.84696e-07
0.000893664
-3.19778e-07
0.000893206
-3.57324e-07
0.000892833
-4.42781e-07
0.00089256
-5.42375e-07
0.000892396
-6.513e-07
0.000892327
-7.47295e-07
0.00089233
-8.17713e-07
0.000892379
-8.64366e-07
0.000892468
-9.04638e-07
0.000892583
-9.30674e-07
0.000892702
-9.34188e-07
0.000892803
-9.16961e-07
0.000892884
-8.96079e-07
0.000892944
-8.75447e-07
0.000892987
-8.57735e-07
0.000893015
-8.44292e-07
0.000893035
-8.34511e-07
0.000893047
-8.2768e-07
0.000893055
-8.23071e-07
0.000893059
-8.20065e-07
0.000893062
-8.18163e-07
0.000893064
-8.16992e-07
0.000893065
-8.16297e-07
0.000893065
-8.15882e-07
0.000893066
-8.15662e-07
0.000893066
-8.15521e-07
0.000893066
-8.15455e-07
0.000893066
-8.15405e-07
0.000893066
-8.15443e-07
0.000893066
-8.15295e-07
0.000893066
-8.15567e-07
0.000893066
-8.15036e-07
0.000893066
-8.16007e-07
0.000893065
-8.14277e-07
0.000893067
-8.17241e-07
0.000893064
-8.12342e-07
0.000893069
-8.20129e-07
0.000893062
-8.08259e-07
0.000893072
-8.25561e-07
0.000893058
-8.0154e-07
0.000893076
-8.33259e-07
0.000893054
-7.93616e-07
0.000893079
-8.40647e-07
0.000893052
-7.87605e-07
0.000893082
-8.45576e-07
0.000893049
-7.82346e-07
0.000893088
-8.54268e-07
0.000893039
-7.66525e-07
0.000893102
-8.78225e-07
0.000893026
-7.39608e-07
0.000893101
-8.90798e-07
0.000893048
-7.61478e-07
0.000893039
-8.06988e-07
0.000893103
-8.7855e-07
0.000892887
-5.99603e-07
0.000893268
-1.19656e-06
0.00089267
-2.17034e-07
0.00089306
-1.20643e-06
0.00089295
-7.03785e-07
0.00089264
-5.07347e-07
0.00089317
-1.34423e-06
0.000891888
4.6626e-07
0.000893438
-2.36553e-06
0.000892139
4.85403e-07
0.000892278
-9.57714e-07
0.000891853
-3.86868e-07
0.000891119
-8.50796e-08
0.000889168
1.13882e-06
0.000887081
1.26703e-06
0.000884709
1.55914e-06
0.000870315
1.35735e-05
0.000864807
4.69259e-06
0.000116165
0.000747821
0.00151473
2.65196e-05
0.00151419
3.86411e-05
0.00151229
4.58083e-05
0.00150792
5.1625e-05
0.00150074
5.47296e-05
0.0014909
5.53605e-05
0.00147866
5.37224e-05
0.00146455
5.00108e-05
0.00144922
4.57922e-05
0.00143325
4.15542e-05
0.001417
3.71516e-05
0.00140066
3.27273e-05
0.0013845
2.83544e-05
0.00136894
2.40356e-05
0.00135429
2.01427e-05
0.0013406
1.71387e-05
0.00132799
1.47671e-05
0.00131668
1.25795e-05
0.00130674
1.03621e-05
0.00129807
8.35212e-06
0.00129054
6.8096e-06
0.00128394
5.75709e-06
0.00127821
4.87887e-06
0.00127331
4.08526e-06
0.00126901
3.6173e-06
0.00126516
3.32074e-06
0.00126179
2.98424e-06
0.00125894
2.53812e-06
0.00125662
1.9591e-06
0.00125482
1.35431e-06
0.00125351
7.72425e-07
0.00125262
2.32265e-07
0.00125209
-2.15659e-07
0.00125182
-5.47883e-07
0.00125172
-7.58878e-07
0.00125171
-8.97891e-07
0.00125178
-9.99453e-07
0.00125191
-1.06336e-06
0.00125205
-1.06009e-06
0.00125217
-1.01956e-06
0.00125227
-9.70277e-07
0.00125234
-9.26817e-07
0.00125239
-8.92851e-07
0.00125242
-8.67532e-07
0.00125244
-8.4946e-07
0.00125246
-8.3703e-07
0.00125246
-8.28771e-07
0.00125247
-8.23458e-07
0.00125247
-8.20132e-07
0.00125247
-8.18127e-07
0.00125248
-8.16915e-07
0.00125248
-8.16257e-07
0.00125248
-8.15838e-07
0.00125248
-8.15638e-07
0.00125248
-8.15489e-07
0.00125248
-8.1556e-07
0.00125248
-8.15219e-07
0.00125248
-8.15809e-07
0.00125248
-8.14689e-07
0.00125248
-8.16651e-07
0.00125248
-8.13286e-07
0.00125248
-8.18828e-07
0.00125248
-8.10016e-07
0.00125248
-8.2348e-07
0.00125247
-8.03742e-07
0.00125248
-8.31385e-07
0.00125247
-7.94435e-07
0.00125248
-8.41366e-07
0.00125247
-7.84544e-07
0.00125248
-8.49945e-07
0.00125247
-7.7687e-07
0.00125248
-8.56704e-07
0.00125247
-7.66362e-07
0.00125248
-8.71388e-07
0.00125246
-7.40847e-07
0.00125248
-8.97238e-07
0.00125246
-7.19517e-07
0.00125244
-8.74048e-07
0.00125246
-7.77404e-07
0.00125237
-7.19824e-07
0.00125248
-9.95124e-07
0.00125223
-3.48689e-07
0.00125237
-1.33745e-06
0.0012523
-1.40077e-07
0.00125217
-1.07745e-06
0.00125224
-7.69955e-07
0.0012519
-1.68529e-07
0.00125223
-1.67411e-06
0.00125173
9.65215e-07
0.00125171
-2.34529e-06
0.0012516
5.93709e-07
0.00125074
-9.71486e-08
0.00125038
-2.65082e-08
0.00124906
1.22784e-06
0.00124855
1.64867e-06
0.00124547
4.35131e-06
0.00124468
2.354e-06
0.00123556
2.26845e-05
0.0012237
1.65581e-05
0.000196519
0.00114335
0.001678
2.31875e-05
0.00168096
3.56772e-05
0.00168478
4.19884e-05
0.00168865
4.77538e-05
0.00169212
5.12632e-05
0.001695
5.24818e-05
0.0016969
5.18215e-05
0.00169741
4.94983e-05
0.00169658
4.66283e-05
0.00169453
4.3605e-05
0.00169113
4.05506e-05
0.00168627
3.75864e-05
0.00167986
3.47596e-05
0.00167194
3.19571e-05
0.00166268
2.94046e-05
0.00165225
2.75683e-05
0.00164093
2.60861e-05
0.00162911
2.44046e-05
0.00161717
2.22968e-05
0.00160552
2.00069e-05
0.0015944
1.79231e-05
0.00158383
1.63353e-05
0.0015738
1.49073e-05
0.00156447
1.34133e-05
0.00155596
1.21307e-05
0.00154831
1.0965e-05
0.00154162
9.67092e-06
0.001536
8.16225e-06
0.00153147
6.48575e-06
0.00152799
4.83449e-06
0.00152546
3.30532e-06
0.00152373
1.95917e-06
0.00152265
8.72641e-07
0.00152203
6.86976e-08
0.00152172
-4.54541e-07
0.00152162
-7.92397e-07
0.00152164
-1.01819e-06
0.00152175
-1.17648e-06
0.00152192
-1.22537e-06
0.00152208
-1.17897e-06
0.0015222
-1.0962e-06
0.00152229
-1.02044e-06
0.00152236
-9.59901e-07
0.00152241
-9.13916e-07
0.00152244
-8.80545e-07
0.00152246
-8.57252e-07
0.00152247
-8.41562e-07
0.00152248
-8.31343e-07
0.00152249
-8.24868e-07
0.00152249
-8.20919e-07
0.00152249
-8.18508e-07
0.00152249
-8.17183e-07
0.00152249
-8.1633e-07
0.00152249
-8.15934e-07
0.00152249
-8.15611e-07
0.00152249
-8.15744e-07
0.00152249
-8.15092e-07
0.00152249
-8.16181e-07
0.00152249
-8.14157e-07
0.00152249
-8.17595e-07
0.00152249
-8.11865e-07
0.00152249
-8.21016e-07
0.00152249
-8.06917e-07
0.00152249
-8.27748e-07
0.00152249
-7.98225e-07
0.0015225
-8.38116e-07
0.00152249
-7.86569e-07
0.0015225
-8.49756e-07
0.00152249
-7.75238e-07
0.0015225
-8.59033e-07
0.00152248
-7.65163e-07
0.0015225
-8.68925e-07
0.00152248
-7.46608e-07
0.0015225
-8.9057e-07
0.00152247
-7.13042e-07
0.00152248
-9.06571e-07
0.00152247
-7.14174e-07
0.00152242
-8.23823e-07
0.00152248
-8.32769e-07
0.00152232
-5.60603e-07
0.00152253
-1.20974e-06
0.00152231
-1.28751e-07
0.00152235
-1.37739e-06
0.00152242
-2.08517e-07
0.00152218
-8.38914e-07
0.00152234
-9.3275e-07
0.00152193
2.47438e-07
0.00152227
-2.01772e-06
0.00152214
1.09748e-06
0.00152169
-1.8944e-06
0.00152213
1.51924e-07
0.00152127
7.60817e-07
0.00152131
-6.8052e-08
0.00152069
1.85734e-06
0.00152074
1.59646e-06
0.00151851
6.57669e-06
0.00151776
3.10773e-06
0.00151331
2.71364e-05
0.00149536
3.45076e-05
0.000223283
0.00146859
0.00185755
1.97861e-05
0.00186116
3.20629e-05
0.00186578
3.73703e-05
0.00187096
4.25766e-05
0.00187635
4.587e-05
0.0018818
4.70349e-05
0.00188706
4.65575e-05
0.00189192
4.46382e-05
0.0018962
4.23521e-05
0.00189993
3.98768e-05
0.00190315
3.73303e-05
0.00190575
3.49804e-05
0.00190767
3.28414e-05
0.00190884
3.0785e-05
0.00190922
2.90281e-05
0.00190875
2.80379e-05
0.00190746
2.73787e-05
0.0019052
2.66609e-05
0.00190192
2.55758e-05
0.00189762
2.43102e-05
0.00189233
2.32096e-05
0.00188604
2.26238e-05
0.00187866
2.22915e-05
0.00187014
2.19327e-05
0.00186067
2.1602e-05
0.00185057
2.10666e-05
0.00184052
1.97205e-05
0.00183148
1.72001e-05
0.00182403
1.39362e-05
0.00181829
1.05766e-05
0.00181412
7.47443e-06
0.00181127
4.80731e-06
0.00180944
2.69625e-06
0.00180837
1.14573e-06
0.0018078
1.08282e-07
0.00180758
-5.6363e-07
0.00180755
-9.91252e-07
0.00180766
-1.28242e-06
0.00180785
-1.41596e-06
0.00180804
-1.37723e-06
0.00180821
-1.25757e-06
0.00180833
-1.14241e-06
0.00180842
-1.0487e-06
0.00180848
-9.76297e-07
0.00180852
-9.22971e-07
0.00180855
-8.85253e-07
0.00180857
-8.59532e-07
0.00180858
-8.4258e-07
0.00180859
-8.31725e-07
0.00180859
-8.25009e-07
0.00180859
-8.20898e-07
0.00180859
-8.18557e-07
0.00180859
-8.17098e-07
0.00180859
-8.16381e-07
0.00180859
-8.15849e-07
0.00180859
-8.1589e-07
0.00180859
-8.15157e-07
0.00180859
-8.16269e-07
0.00180859
-8.14163e-07
0.00180859
-8.17625e-07
0.00180859
-8.11995e-07
0.00180859
-8.20702e-07
0.0018086
-8.07679e-07
0.00180859
-8.26251e-07
0.0018086
-8.00721e-07
0.00180859
-8.33883e-07
0.0018086
-7.92134e-07
0.00180859
-8.41363e-07
0.0018086
-7.83715e-07
0.00180859
-8.4721e-07
0.00180859
-7.73286e-07
0.00180858
-8.55864e-07
0.00180859
-7.52213e-07
0.00180857
-8.7009e-07
0.00180858
-7.26778e-07
0.00180853
-8.54776e-07
0.00180857
-7.59775e-07
0.00180849
-7.36817e-07
0.00180856
-9.04151e-07
0.00180853
-5.33417e-07
0.00180855
-1.22821e-06
0.00180867
-2.4474e-07
0.00180843
-1.14098e-06
0.00180875
-5.32988e-07
0.00180843
-5.12982e-07
0.00180847
-9.72762e-07
0.00180864
6.99673e-08
0.0018083
-1.66996e-06
0.00180914
2.54022e-07
0.00180829
-1.04405e-06
0.00180872
-2.74468e-07
0.0018087
7.73322e-07
0.00180904
-4.00603e-07
0.00180976
1.13877e-06
0.00181007
1.28126e-06
0.00181056
6.09065e-06
0.00180792
5.73978e-06
0.00180724
2.78173e-05
0.00179026
5.14881e-05
0.000239871
0.00177367
0.00205623
1.6417e-05
0.00206036
2.79317e-05
0.00206545
3.22813e-05
0.00207122
3.68034e-05
0.00207731
3.97819e-05
0.00208356
4.07901e-05
0.00208975
4.0364e-05
0.00209565
3.87402e-05
0.00210119
3.68083e-05
0.00210637
3.46953e-05
0.00211119
3.251e-05
0.00211566
3.05168e-05
0.00211978
2.8717e-05
0.00212355
2.70123e-05
0.00212702
2.55614e-05
0.00213028
2.47747e-05
0.00213335
2.43135e-05
0.00213617
2.38407e-05
0.00213866
2.30888e-05
0.00214077
2.21917e-05
0.00214238
2.16033e-05
0.00214367
2.13382e-05
0.00214458
2.13781e-05
0.00214474
2.17754e-05
0.00214406
2.22819e-05
0.00214237
2.27574e-05
0.00213966
2.24282e-05
0.0021362
2.06557e-05
0.00213247
1.76682e-05
0.00212905
1.39966e-05
0.00212633
1.01955e-05
0.00212438
6.75695e-06
0.00212313
3.94382e-06
0.00212244
1.8378e-06
0.00212213
4.15327e-07
0.00212207
-4.95934e-07
0.0021222
-1.12575e-06
0.00212249
-1.57333e-06
0.00212284
-1.76329e-06
0.00212316
-1.69454e-06
0.00212341
-1.51458e-06
0.00212361
-1.34068e-06
0.00212376
-1.19547e-06
0.00212386
-1.08096e-06
0.00212393
-9.95144e-07
0.00212398
-9.3352e-07
0.00212401
-8.90915e-07
0.00212403
-8.62452e-07
0.00212405
-8.44016e-07
0.00212405
-8.32413e-07
0.00212406
-8.25315e-07
0.00212406
-8.21056e-07
0.00212406
-8.18612e-07
0.00212406
-8.17154e-07
0.00212406
-8.16376e-07
0.00212406
-8.15914e-07
0.00212406
-8.15777e-07
0.00212406
-8.15556e-07
0.00212407
-8.15631e-07
0.00212406
-8.15309e-07
0.00212407
-8.15852e-07
0.00212406
-8.14776e-07
0.00212407
-8.16635e-07
0.00212406
-8.13494e-07
0.00212407
-8.18341e-07
0.00212405
-8.11059e-07
0.00212408
-8.20974e-07
0.00212405
-8.07748e-07
0.00212409
-8.2339e-07
0.00212404
-8.04849e-07
0.00212409
-8.23546e-07
0.00212404
-8.02563e-07
0.00212411
-8.21179e-07
0.00212404
-7.95832e-07
0.00212413
-8.20567e-07
0.00212405
-7.77492e-07
0.00212412
-8.25358e-07
0.00212414
-7.62718e-07
0.00212407
-8.2732e-07
0.00212431
-7.73983e-07
0.00212387
-7.88409e-07
0.00212453
-9.03783e-07
0.00212402
-6.37339e-07
0.00212428
-7.9281e-07
0.00212437
-5.97321e-07
0.00212422
-8.27891e-07
0.00212503
-7.34883e-07
0.00212394
-5.80612e-07
0.0021253
-1.11102e-06
0.0021248
-5.3909e-07
0.00212493
-4.09957e-07
0.00212557
1.38563e-07
0.00212563
-4.66145e-07
0.00212642
3.55646e-07
0.00212596
1.74172e-06
0.00212815
3.89933e-06
0.00212411
9.78169e-06
0.00212105
3.08726e-05
0.00210561
6.69296e-05
0.000250365
0.00209512
0.00227619
1.30982e-05
0.00228088
2.32458e-05
0.00228644
2.67137e-05
0.00229278
3.04624e-05
0.00229953
3.30367e-05
0.00230645
3.38674e-05
0.00231331
3.35077e-05
0.00231985
3.2201e-05
0.00232608
3.05779e-05
0.00233197
2.88029e-05
0.00233747
2.70154e-05
0.00234261
2.53703e-05
0.00234748
2.38492e-05
0.00235205
2.24375e-05
0.00235636
2.12564e-05
0.00236053
2.06019e-05
0.00236464
2.02048e-05
0.00236869
1.97928e-05
0.00237258
1.9198e-05
0.00237624
1.8527e-05
0.00237974
1.81105e-05
0.00238314
1.79336e-05
0.00238654
1.79818e-05
0.00238998
1.83343e-05
0.00239342
1.8845e-05
0.00239671
1.94621e-05
0.00239966
1.94838e-05
0.0024021
1.82151e-05
0.002404
1.57661e-05
0.00240542
1.25741e-05
0.00240646
9.15376e-06
0.00240723
5.99412e-06
0.00240779
3.38061e-06
0.00240821
1.42009e-06
0.00240852
9.85411e-08
0.0024088
-7.70294e-07
0.00240908
-1.41141e-06
0.00240939
-1.88205e-06
0.0024097
-2.0749e-06
0.00240999
-1.98073e-06
0.00241023
-1.75866e-06
0.00241043
-1.53819e-06
0.00241058
-1.34812e-06
0.0024107
-1.1942e-06
0.00241078
-1.07612e-06
0.00241083
-9.89517e-07
0.00241087
-9.2846e-07
0.0024109
-8.86909e-07
0.00241091
-8.5953e-07
0.00241092
-8.41998e-07
0.00241093
-8.31122e-07
0.00241093
-8.24461e-07
0.00241093
-8.20629e-07
0.00241093
-8.18257e-07
0.00241093
-8.17064e-07
0.00241094
-8.16213e-07
0.00241094
-8.16112e-07
0.00241094
-8.15431e-07
0.00241094
-8.16137e-07
0.00241094
-8.14726e-07
0.00241094
-8.16873e-07
0.00241093
-8.13419e-07
0.00241094
-8.1861e-07
0.00241093
-8.11014e-07
0.00241094
-8.21621e-07
0.00241093
-8.0733e-07
0.00241094
-8.25705e-07
0.00241093
-8.02832e-07
0.00241094
-8.30154e-07
0.00241093
-7.97913e-07
0.00241095
-8.35101e-07
0.00241093
-7.90933e-07
0.00241095
-8.42546e-07
0.00241094
-7.7985e-07
0.00241097
-8.50295e-07
0.00241097
-7.74208e-07
0.00241098
-8.38987e-07
0.00241102
-8.00586e-07
0.00241097
-7.80558e-07
0.00241107
-8.72046e-07
0.00241091
-6.34705e-07
0.00241106
-1.05119e-06
0.00241103
-6.01756e-07
0.00241109
-8.55231e-07
0.00241123
-7.35121e-07
0.00241113
-7.29306e-07
0.00241131
-9.19143e-07
0.0024111
-3.64652e-07
0.00241131
-1.32288e-06
0.00241135
-5.76264e-07
0.00241146
-5.2445e-07
0.0024118
-1.98051e-07
0.00241173
-4.02355e-07
0.00241173
3.62081e-07
0.00241141
2.05354e-06
0.00241145
3.85935e-06
0.0024095
1.1739e-05
0.00240662
3.37465e-05
0.00239408
7.94758e-05
0.00025234
0.0023921
0.00251978
9.78202e-06
0.00252502
1.80004e-05
0.00253113
2.06116e-05
0.00253808
2.35122e-05
0.00254553
2.55859e-05
0.00255316
2.62303e-05
0.00256073
2.59421e-05
0.00256798
2.49513e-05
0.00257488
2.36785e-05
0.0025814
2.22822e-05
0.0025875
2.09122e-05
0.00259323
1.96422e-05
0.00259865
1.84294e-05
0.00260378
1.73122e-05
0.00260863
1.64075e-05
0.00261332
1.59035e-05
0.00261796
1.55708e-05
0.00262253
1.52203e-05
0.00262696
1.47687e-05
0.00263121
1.428e-05
0.00263534
1.39752e-05
0.00263943
1.38501e-05
0.00264352
1.38844e-05
0.00264771
1.41488e-05
0.00265202
1.45357e-05
0.00265645
1.5025e-05
0.00266081
1.51301e-05
0.00266478
1.42393e-05
0.00266819
1.23562e-05
0.00267094
9.82673e-06
0.00267302
7.07206e-06
0.00267451
4.50342e-06
0.00267552
2.37422e-06
0.00267615
7.91904e-07
0.0026765
-2.5092e-07
0.00267667
-9.3929e-07
0.00267676
-1.50286e-06
0.00267682
-1.94854e-06
0.00267689
-2.14107e-06
0.00267696
-2.05209e-06
0.00267703
-1.82877e-06
0.0026771
-1.60175e-06
0.00267715
-1.40232e-06
0.00267719
-1.2381e-06
0.00267723
-1.11e-06
0.00267725
-1.01453e-06
0.00267727
-9.4621e-07
0.00267728
-8.99053e-07
0.00267729
-8.67568e-07
0.0026773
-8.47163e-07
0.0026773
-8.3435e-07
0.0026773
-8.26438e-07
0.0026773
-8.21801e-07
0.0026773
-8.18962e-07
0.0026773
-8.17472e-07
0.0026773
-8.16478e-07
0.0026773
-8.16228e-07
0.0026773
-8.15605e-07
0.0026773
-8.16075e-07
0.0026773
-8.14994e-07
0.0026773
-8.1658e-07
0.0026773
-8.14005e-07
0.0026773
-8.17822e-07
0.00267731
-8.12265e-07
0.0026773
-8.19957e-07
0.00267731
-8.09667e-07
0.0026773
-8.22798e-07
0.00267731
-8.06523e-07
0.0026773
-8.25921e-07
0.00267731
-8.0291e-07
0.0026773
-8.29732e-07
0.00267731
-7.97279e-07
0.0026773
-8.3596e-07
0.00267731
-7.88386e-07
0.0026773
-8.42231e-07
0.00267731
-7.84877e-07
0.00267731
-8.32208e-07
0.00267731
-8.06995e-07
0.00267731
-7.82444e-07
0.00267731
-8.63321e-07
0.00267734
-6.65376e-07
0.00267729
-9.99828e-07
0.00267734
-6.56869e-07
0.00267732
-8.32824e-07
0.00267735
-7.70081e-07
0.00267734
-7.21247e-07
0.00267733
-9.05589e-07
0.00267741
-4.47282e-07
0.00267729
-1.19851e-06
0.00267737
-6.55353e-07
0.00267735
-5.05796e-07
0.00267743
-2.7826e-07
0.00267738
-3.47868e-07
0.00267732
4.14458e-07
0.00267726
2.11314e-06
0.00267669
4.42922e-06
0.00267553
1.29072e-05
0.0026734
3.58744e-05
0.00266587
8.70008e-05
0.000245812
0.0026724
0.00278951
6.42882e-06
0.00279536
1.21543e-05
0.00280207
1.38999e-05
0.00280969
1.58901e-05
0.00281792
1.73572e-05
0.00282635
1.77972e-05
0.0028347
1.75937e-05
0.00284273
1.69227e-05
0.00285037
1.60442e-05
0.00285757
1.50832e-05
0.00286432
1.41539e-05
0.00287069
1.32751e-05
0.0028767
1.24153e-05
0.00288237
1.16491e-05
0.00288773
1.10465e-05
0.00289294
1.06892e-05
0.00289808
1.04299e-05
0.00290314
1.01652e-05
0.00290804
9.86337e-06
0.00291278
9.54863e-06
0.0029174
9.35001e-06
0.00292198
9.27109e-06
0.00292658
9.28893e-06
0.00293126
9.46561e-06
0.00293607
9.72738e-06
0.00294102
1.0069e-05
0.00294595
1.02004e-05
0.00295054
9.65393e-06
0.00295452
8.37483e-06
0.00295774
6.60967e-06
0.00296015
4.66315e-06
0.00296181
2.83729e-06
0.00296286
1.3241e-06
0.00296344
2.11714e-07
0.0029637
-5.11843e-07
0.00296376
-1.00041e-06
0.0029637
-1.44422e-06
0.00296356
-1.80215e-06
0.00296337
-1.95558e-06
0.0029632
-1.88019e-06
0.00296307
-1.69498e-06
0.00296297
-1.50461e-06
0.0029629
-1.33429e-06
0.00296286
-1.19225e-06
0.00296283
-1.08027e-06
0.00296281
-9.95962e-07
0.0029628
-9.35016e-07
0.00296279
-8.92541e-07
0.00296279
-8.63907e-07
0.00296278
-8.45183e-07
0.00296278
-8.33313e-07
0.00296278
-8.25933e-07
0.00296278
-8.21554e-07
0.00296278
-8.18878e-07
0.00296278
-8.17436e-07
0.00296278
-8.16506e-07
0.00296278
-8.16221e-07
0.00296278
-8.15707e-07
0.00296278
-8.16004e-07
0.00296278
-8.15225e-07
0.00296278
-8.1633e-07
0.00296278
-8.14511e-07
0.00296278
-8.1717e-07
0.00296278
-8.13308e-07
0.00296278
-8.18613e-07
0.00296278
-8.11554e-07
0.00296278
-8.20479e-07
0.00296278
-8.09484e-07
0.00296278
-8.22469e-07
0.00296279
-8.07107e-07
0.00296278
-8.24901e-07
0.00296279
-8.03231e-07
0.00296278
-8.2897e-07
0.00296279
-7.97054e-07
0.00296278
-8.32715e-07
0.00296279
-7.94783e-07
0.00296278
-8.24534e-07
0.00296278
-8.10777e-07
0.00296279
-7.87085e-07
0.00296277
-8.48406e-07
0.00296281
-7.04946e-07
0.00296276
-9.44699e-07
0.00296281
-7.05458e-07
0.00296278
-8.07511e-07
0.0029628
-7.85016e-07
0.00296281
-7.33797e-07
0.00296278
-8.71804e-07
0.00296287
-5.37928e-07
0.00296275
-1.08607e-06
0.0029628
-7.04187e-07
0.0029628
-5.03993e-07
0.00296284
-3.21166e-07
0.0029628
-3.01605e-07
0.00296278
4.32715e-07
0.00296273
2.16585e-06
0.00296225
4.90684e-06
0.00296137
1.37822e-05
0.00295987
3.73798e-05
0.00295602
9.0851e-05
0.000233998
0.00296783
0.00308822
2.96607e-06
0.00309472
5.66004e-06
0.00310212
6.4936e-06
0.00311049
7.52315e-06
0.00311957
8.28022e-06
0.00312889
8.47821e-06
0.00313812
8.36483e-06
0.00314701
8.03123e-06
0.00315545
7.59908e-06
0.00316342
7.11934e-06
0.00317091
6.65738e-06
0.00317798
6.21289e-06
0.00318462
5.76784e-06
0.00319088
5.39508e-06
0.00319683
5.09141e-06
0.00320263
4.89008e-06
0.00320832
4.74102e-06
0.00321389
4.59846e-06
0.0032193
4.44714e-06
0.00322456
4.29501e-06
0.0032297
4.20472e-06
0.00323479
4.1846e-06
0.00323988
4.20095e-06
0.00324505
4.29384e-06
0.00325035
4.42496e-06
0.00325581
4.6082e-06
0.00326128
4.72946e-06
0.00326642
4.51614e-06
0.0032709
3.89912e-06
0.0032745
3.00583e-06
0.00327717
1.99786e-06
0.00327896
1.0407e-06
0.00328004
2.43339e-07
0.00328059
-3.37222e-07
0.00328079
-7.08946e-07
0.00328076
-9.68125e-07
0.00328054
-1.22351e-06
0.00328016
-1.43053e-06
0.00327973
-1.51987e-06
0.00327932
-1.47655e-06
0.003279
-1.36778e-06
0.00327875
-1.25359e-06
0.00327856
-1.14825e-06
0.00327843
-1.05893e-06
0.00327833
-9.87775e-07
0.00327827
-9.33767e-07
0.00327823
-8.94418e-07
0.00327821
-8.66777e-07
0.00327819
-8.4799e-07
0.00327818
-8.35603e-07
0.00327818
-8.27684e-07
0.00327817
-8.22718e-07
0.00327817
-8.19746e-07
0.00327817
-8.17919e-07
0.00327817
-8.1692e-07
0.00327817
-8.16283e-07
0.00327817
-8.16078e-07
0.00327817
-8.15723e-07
0.00327817
-8.1592e-07
0.00327817
-8.15398e-07
0.00327817
-8.16131e-07
0.00327817
-8.14919e-07
0.00327817
-8.16675e-07
0.00327817
-8.14125e-07
0.00327817
-8.17603e-07
0.00327817
-8.12989e-07
0.00327817
-8.18768e-07
0.00327817
-8.11686e-07
0.00327817
-8.1996e-07
0.00327817
-8.10196e-07
0.00327817
-8.21385e-07
0.00327817
-8.07652e-07
0.00327817
-8.2384e-07
0.00327817
-8.0355e-07
0.00327817
-8.25786e-07
0.00327817
-8.0207e-07
0.00327817
-8.19407e-07
0.00327817
-8.13027e-07
0.00327818
-7.92171e-07
0.00327816
-8.36297e-07
0.00327819
-7.36585e-07
0.00327815
-9.02102e-07
0.00327819
-7.41903e-07
0.00327817
-7.92785e-07
0.00327818
-7.94269e-07
0.0032782
-7.47014e-07
0.00327817
-8.45884e-07
0.00327824
-6.11037e-07
0.00327816
-9.97948e-07
0.00327819
-7.36223e-07
0.0032782
-5.17098e-07
0.00327824
-3.60393e-07
0.00327821
-2.71916e-07
0.00327821
4.33582e-07
0.0032782
2.1796e-06
0.00327788
5.21939e-06
0.00327734
1.43206e-05
0.0032768
3.79209e-05
0.00327653
9.11244e-05
0.000217654
0.00329287
0.00341906
-7.28724e-07
0.00342626
-1.54212e-06
0.00343445
-1.68998e-06
0.00344368
-1.70925e-06
0.00345373
-1.77566e-06
0.00346404
-1.83142e-06
0.00347424
-1.82983e-06
0.00348408
-1.81119e-06
0.00349343
-1.74606e-06
0.00350222
-1.67777e-06
0.00351051
-1.63438e-06
0.00351833
-1.60274e-06
0.00352567
-1.57356e-06
0.0035326
-1.53177e-06
0.00353923
-1.54352e-06
0.00354568
-1.55611e-06
0.00355198
-1.55812e-06
0.00355814
-1.56079e-06
0.00356413
-1.54397e-06
0.00356994
-1.51464e-06
0.00357563
-1.48592e-06
0.00358127
-1.45483e-06
0.00358693
-1.45714e-06
0.00359267
-1.44548e-06
0.00359852
-1.42977e-06
0.00360453
-1.40545e-06
0.00361058
-1.31993e-06
0.0036163
-1.20279e-06
0.0036213
-1.09962e-06
0.00362532
-1.01353e-06
0.00362827
-9.4905e-07
0.00363021
-9.05918e-07
0.00363134
-8.8091e-07
0.00363187
-8.65059e-07
0.00363202
-8.5784e-07
0.00363191
-8.58236e-07
0.00363155
-8.63191e-07
0.00363099
-8.72291e-07
0.00363035
-8.78929e-07
0.00362975
-8.80017e-07
0.00362926
-8.76335e-07
0.00362888
-8.70908e-07
0.00362859
-8.61525e-07
0.00362838
-8.51715e-07
0.00362824
-8.42916e-07
0.00362814
-8.35594e-07
0.00362807
-8.298e-07
0.00362803
-8.25404e-07
0.00362801
-8.22187e-07
0.00362799
-8.19913e-07
0.00362798
-8.18368e-07
0.00362798
-8.17325e-07
0.00362797
-8.16686e-07
0.00362797
-8.16248e-07
0.00362797
-8.16016e-07
0.00362797
-8.15841e-07
0.00362797
-8.15831e-07
0.00362797
-8.15672e-07
0.00362797
-8.15831e-07
0.00362797
-8.15513e-07
0.00362797
-8.15988e-07
0.00362797
-8.15227e-07
0.00362797
-8.16335e-07
0.00362797
-8.14729e-07
0.00362797
-8.16903e-07
0.00362797
-8.14021e-07
0.00362797
-8.17598e-07
0.00362797
-8.13225e-07
0.00362797
-8.18279e-07
0.00362797
-8.12305e-07
0.00362797
-8.19064e-07
0.00362797
-8.10654e-07
0.00362797
-8.2047e-07
0.00362797
-8.07976e-07
0.00362797
-8.21311e-07
0.00362797
-8.06994e-07
0.00362797
-8.16377e-07
0.00362797
-8.14196e-07
0.00362798
-7.96928e-07
0.00362797
-8.27666e-07
0.00362799
-7.60318e-07
0.00362796
-8.71665e-07
0.00362799
-7.66905e-07
0.00362798
-7.87164e-07
0.00362799
-7.99145e-07
0.003628
-7.60046e-07
0.00362798
-8.29651e-07
0.00362804
-6.65345e-07
0.00362797
-9.35664e-07
0.00362799
-7.53565e-07
0.00362801
-5.40132e-07
0.00362806
-4.05862e-07
0.00362805
-2.61231e-07
0.00362808
4.06073e-07
0.00362813
2.12965e-06
0.00362803
5.31177e-06
0.00362799
1.43689e-05
0.00362874
3.71662e-05
0.00363218
8.76893e-05
0.000196739
0.00365309
0.00341909
-4.45473e-06
0.00342631
-8.7565e-06
0.00343449
-9.87518e-06
0.00344373
-1.09466e-05
0.00345379
-1.18342e-05
0.0034641
-1.2147e-05
0.0034743
-1.20271e-05
0.00348413
-1.1642e-05
0.00349347
-1.10818e-05
0.00350229
-1.04973e-05
0.0035106
-9.94806e-06
0.00351841
-9.41695e-06
0.00352575
-8.90877e-06
0.00353267
-8.45118e-06
0.0035393
-8.17685e-06
0.00354575
-8.0005e-06
0.00355205
-7.85776e-06
0.00355821
-7.72162e-06
0.0035642
-7.53441e-06
0.00357
-7.32258e-06
0.00357569
-7.17319e-06
0.00358133
-7.08926e-06
0.00358698
-7.11311e-06
0.00359272
-7.18232e-06
0.00359857
-7.28518e-06
0.00360459
-7.4218e-06
0.00361064
-7.37078e-06
0.00361636
-6.92268e-06
0.00362136
-6.09904e-06
0.00362538
-5.03174e-06
0.00362832
-3.89303e-06
0.00363027
-2.84818e-06
0.00363139
-2.0006e-06
0.00363191
-1.38899e-06
0.00363206
-1.00357e-06
0.00363194
-7.44392e-07
0.00363158
-4.97487e-07
0.00363101
-3.09087e-07
0.00363037
-2.35851e-07
0.00362977
-2.84744e-07
0.00362928
-3.86434e-07
0.0036289
-4.88275e-07
0.00362861
-5.73256e-07
0.0036284
-6.42193e-07
0.00362826
-6.95698e-07
0.00362816
-7.35381e-07
0.00362809
-7.63586e-07
0.00362805
-7.82865e-07
0.00362802
-7.95577e-07
0.003628
-8.03688e-07
0.00362799
-8.08711e-07
0.00362799
-8.11719e-07
0.00362799
-8.13502e-07
0.00362798
-8.14501e-07
0.00362798
-8.15073e-07
0.00362798
-8.15368e-07
0.00362798
-8.15582e-07
0.00362798
-8.15603e-07
0.00362798
-8.15756e-07
0.00362798
-8.1559e-07
0.00362798
-8.15899e-07
0.00362798
-8.15442e-07
0.00362798
-8.16132e-07
0.00362798
-8.15135e-07
0.00362798
-8.16477e-07
0.00362798
-8.14691e-07
0.00362798
-8.1689e-07
0.00362798
-8.14198e-07
0.00362798
-8.17275e-07
0.00362798
-8.13625e-07
0.00362798
-8.17674e-07
0.00362798
-8.12545e-07
0.00362798
-8.18453e-07
0.00362799
-8.10777e-07
0.00362798
-8.18687e-07
0.00362799
-8.10088e-07
0.00362798
-8.14845e-07
0.00362798
-8.1473e-07
0.00362799
-8.00858e-07
0.00362798
-8.22457e-07
0.003628
-7.76228e-07
0.00362798
-8.52301e-07
0.003628
-7.82099e-07
0.003628
-7.87677e-07
0.003628
-8.01805e-07
0.00362801
-7.70851e-07
0.003628
-8.2218e-07
0.00362804
-7.00742e-07
0.003628
-8.97316e-07
0.003628
-7.5914e-07
0.00362804
-5.71108e-07
0.00362808
-4.49422e-07
0.00362809
-2.70899e-07
0.00362815
3.46808e-07
0.00362827
2.00751e-06
0.00362844
5.13799e-06
0.00362897
1.38377e-05
0.00363102
3.51225e-05
0.00363745
8.12548e-05
0.000173716
0.00366048
0.00308831
-8.00249e-06
0.00309483
-1.528e-05
0.00310224
-1.72837e-05
0.00311063
-1.93343e-05
0.00311973
-2.09338e-05
0.00312906
-2.1475e-05
0.00313828
-2.12504e-05
0.00314717
-2.05283e-05
0.0031556
-1.95151e-05
0.00316357
-1.84649e-05
0.00317108
-1.74568e-05
0.00317813
-1.64741e-05
0.00318476
-1.55359e-05
0.003191
-1.46949e-05
0.00319699
-1.41595e-05
0.00320281
-1.38196e-05
0.00320851
-1.356e-05
0.00321407
-1.32879e-05
0.00321947
-1.29347e-05
0.00322472
-1.25723e-05
0.00322986
-1.2309e-05
0.00323492
-1.21491e-05
0.00324
-1.21961e-05
0.00324518
-1.23625e-05
0.0032505
-1.25985e-05
0.00325597
-1.2892e-05
0.00326144
-1.28439e-05
0.00326658
-1.20582e-05
0.00327105
-1.05743e-05
0.00327466
-8.63652e-06
0.00327732
-6.56068e-06
0.00327912
-4.6467e-06
0.0032802
-3.08019e-06
0.00328075
-1.93467e-06
0.00328094
-1.19389e-06
0.0032809
-7.05609e-07
0.00328067
-2.69139e-07
0.00328029
7.21762e-08
0.00327984
2.13583e-07
0.00327942
1.3541e-07
0.00327908
-4.45804e-08
0.00327881
-2.25468e-07
0.00327862
-3.78019e-07
0.00327848
-5.01992e-07
0.00327838
-5.98182e-07
0.00327832
-6.69569e-07
0.00327827
-7.20421e-07
0.00327825
-7.55311e-07
0.00327823
-7.78437e-07
0.00327822
-7.93286e-07
0.00327821
-8.02548e-07
0.00327821
-8.08157e-07
0.00327821
-8.1149e-07
0.0032782
-8.13405e-07
0.0032782
-8.14486e-07
0.0032782
-8.15082e-07
0.0032782
-8.15436e-07
0.0032782
-8.15571e-07
0.0032782
-8.15719e-07
0.0032782
-8.15651e-07
0.0032782
-8.15859e-07
0.0032782
-8.15588e-07
0.0032782
-8.16024e-07
0.0032782
-8.15395e-07
0.0032782
-8.16239e-07
0.0032782
-8.151e-07
0.0032782
-8.16506e-07
0.0032782
-8.14769e-07
0.0032782
-8.16738e-07
0.0032782
-8.14383e-07
0.0032782
-8.16935e-07
0.0032782
-8.13642e-07
0.0032782
-8.17374e-07
0.00327821
-8.12431e-07
0.0032782
-8.17296e-07
0.00327821
-8.11972e-07
0.00327821
-8.14145e-07
0.00327821
-8.15066e-07
0.00327821
-8.03666e-07
0.00327821
-8.19946e-07
0.00327822
-7.85949e-07
0.0032782
-8.41361e-07
0.00327821
-7.90222e-07
0.00327822
-7.91505e-07
0.00327822
-8.03036e-07
0.00327823
-7.79131e-07
0.00327823
-8.21107e-07
0.00327824
-7.20496e-07
0.00327823
-8.7997e-07
0.00327822
-7.55236e-07
0.00327826
-6.04025e-07
0.0032783
-4.94314e-07
0.00327832
-2.93889e-07
0.00327841
2.6235e-07
0.00327858
1.8413e-06
0.00327895
4.76434e-06
0.00327989
1.28959e-05
0.00328272
3.22926e-05
0.0032905
7.34718e-05
0.000151743
0.00331248
0.00278964
-1.14843e-05
0.00279553
-2.11654e-05
0.00280225
-2.40039e-05
0.00280989
-2.69739e-05
0.00281812
-2.91713e-05
0.00282657
-2.99159e-05
0.00283491
-2.95985e-05
0.00284295
-2.85614e-05
0.00285057
-2.71398e-05
0.00285778
-2.56707e-05
0.00286455
-2.42298e-05
0.00287091
-2.28379e-05
0.00287691
-2.15316e-05
0.00288256
-2.03424e-05
0.00288795
-1.95536e-05
0.00289318
-1.90493e-05
0.00289833
-1.87065e-05
0.00290339
-1.83479e-05
0.00290829
-1.7839e-05
0.00291302
-1.73027e-05
0.00291764
-1.69287e-05
0.00292221
-1.67172e-05
0.0029268
-1.67902e-05
0.00293148
-1.70371e-05
0.00293629
-1.74085e-05
0.00294125
-1.78569e-05
0.00294619
-1.77768e-05
0.00295077
-1.66405e-05
0.00295474
-1.45486e-05
0.00295795
-1.18414e-05
0.00296034
-8.95654e-06
0.002962
-6.30154e-06
0.00296304
-4.12198e-06
0.00296362
-2.51341e-06
0.00296388
-1.4508e-06
0.00296393
-7.62002e-07
0.00296386
-2.01526e-07
0.0029637
2.33406e-07