/*--------------------------------*- C++ -*----------------------------------*\
| =========                 |                                                 |
| \\      /  F ield         | OpenFOAM: The Open Source CFD Toolbox           |
|  \\    /   O peration     | Version:  v2012                                 |
|   \\  /    A nd           | Website:  www.openfoam.com                      |
|    \\/     M anipulation  |                                                 |
\*---------------------------------------------------------------------------*/
FoamFile
{
    version     2.0;
    format      ascii;
    class       volScalarField;
    location    "0.137";
    object      epsilon.air;
}
// * * * * * * * * * * * * * * * * * * * * * * * * * * * * * * * * * * * * * //

dimensions      [0 2 -3 0 0 0 0];


internalField   nonuniform List<scalar> 
1900
(
112.724
141.424
210.098
257.591
369.051
443.457
614.739
724.906
971.318
1128.62
15.4676
16.4471
18.6376
20.4502
23.7572
27.7273
32.0036
39.2875
45.1221
56.7615
14.7926
14.6414
14.5755
14.5063
14.5148
14.5574
14.6409
14.8309
15.0774
15.4133
14.77
14.6304
14.4634
14.3354
14.1726
14.059
13.9039
13.808
13.6653
13.5937
14.7766
14.6216
14.4704
14.3205
14.1747
14.029
13.8889
13.7473
13.6138
13.477
14.7777
14.6205
14.4714
14.3197
14.1753
14.0285
13.8891
13.7473
13.6132
13.4774
14.7777
14.6207
14.473
14.3236
14.184
14.0451
13.9174
13.7915
13.6807
13.5716
14.7757
14.6504
14.5638
14.5035
14.5109
14.5519
14.6365
14.8208
15.0454
15.3949
15.2082
16.6091
18.2722
20.6849
23.5916
27.5739
32.2677
38.4014
45.5721
54.8054
105.895
146.644
198.346
265.836
350.032
456.114
585.694
743.705
931.823
1154.03
4102.36
15195.7
19567.5
22443.7
21115.1
18031.2
15096.3
12804.4
11301.1
10380
9873.99
9696.44
9522.22
9254.13
8849.41
8352.49
7798.58
7211.59
6645.05
6126.9
5649.82
5222.56
4837.95
4486.96
4167.65
3878.15
3615.66
3378.25
3162.65
2966.97
2788.79
2626.1
2477.2
2340.56
2215
2099.4
1992.81
1894.34
1803.2
1718.71
1640.26
1567.3
1499.34
1435.92
1376.64
1321.13
1269.07
1220.15
1174.11
1130.69
1089.67
1050.87
1014.11
979.24
946.116
914.603
884.599
855.978
828.664
802.535
777.55
753.585
730.632
708.564
687.41
667.026
647.487
628.62
610.548
593.052
576.313
560.054
544.522
529.37
514.93
500.767
487.322
474.048
461.527
449.063
437.42
425.703
414.906
403.878
393.906
383.505
374.337
364.489
356.108
346.727
339.118
330.108
323.272
314.526
308.477
299.875
294.644
286.051
281.666
271.32
113.169
337.577
517.78
922.641
1126.04
1151.46
1123.64
1059.67
1052.59
1091.48
1195.7
1407.71
1695.28
2026.52
2376.92
2690.73
2970.42
3202.58
3356.6
3433.7
3426.26
3387.84
3302.22
3184.53
3056.62
2925.33
2794.55
2667.81
2544.21
2426.77
2314.54
2207.45
2106.02
2010.04
1919.64
1834.51
1754.56
1679.27
1608.39
1541.66
1478.8
1419.54
1363.66
1310.9
1261.09
1213.98
1169.41
1127.17
1087.09
1049
1012.75
978.212
945.251
913.757
883.64
854.8
827.173
800.665
775.234
750.786
727.303
704.687
682.945
661.97
641.801
622.314
603.589
585.472
568.09
551.243
535.111
519.44
504.467
489.869
475.962
462.337
449.41
436.665
424.648
412.705
401.549
390.343
380.013
369.486
359.961
350.052
341.311
331.948
323.971
315.072
307.845
299.315
292.834
284.569
278.844
270.73
265.789
257.696
253.571
243.851
16.4279
19.8641
22.8803
29.0887
34.7981
38.7628
41.7311
43.8078
46.7277
50.7335
58.729
70.9203
95.51
130.148
189.378
266.932
373.564
508.705
665.28
835.385
1004.16
1162.2
1302.06
1419.15
1510.49
1574.04
1612.39
1629.52
1626.76
1615.77
1592.43
1561.84
1527.2
1489.78
1451.17
1411.4
1371.65
1331.43
1291.66
1252.56
1214.14
1176.58
1140.02
1104.52
1070.15
1036.85
1004.72
973.656
943.648
914.655
886.635
859.526
833.29
807.879
783.275
759.429
736.344
713.97
692.32
671.339
651.05
631.389
612.392
593.976
576.2
558.96
542.35
526.231
510.739
495.69
481.27
467.236
453.831
440.744
428.29
416.072
404.5
393.069
382.312
371.595
361.607
351.543
342.294
332.831
324.3
315.384
307.555
299.123
291.982
283.964
277.497
269.809
264.009
256.561
251.435
244.124
239.695
232.41
228.703
219.96
13.4531
13.4606
13.5463
13.8022
14.3333
15.0041
15.7157
16.3399
16.925
17.3466
17.9015
18.3656
19.3047
20.4949
22.7468
26.2137
31.7368
40.7577
54.7157
75.9282
106.183
146.706
198.412
260.207
330.098
405.391
481.29
555.475
623.072
684.817
737.691
781.215
815.364
840.492
858.357
869.194
874.811
874.318
871.747
865.993
857.364
846.775
834.751
821.399
807.12
792.013
776.419
760.242
743.822
727.244
710.526
693.734
676.94
660.182
643.538
627.006
610.687
594.572
578.758
563.209
548.022
533.15
518.669
504.521
490.794
477.402
464.447
451.806
439.621
427.718
416.294
405.111
394.43
383.933
373.958
364.098
354.782
345.493
336.785
328.016
319.889
311.597
304.031
296.176
289.162
281.707
275.238
268.141
262.22
255.434
250.052
243.512
238.664
232.301
227.996
221.735
217.99
211.749
208.581
201.085
13.3297
13.1591
13.0624
13.1164
13.3045
13.7144
14.2836
14.9093
15.4475
15.8846
16.2119
16.4479
16.6194
16.7693
16.9076
17.0841
17.3361
17.7165
18.3294
19.2806
20.8318
23.2053
26.7484
32.0653
39.6974
50.5424
65.0174
83.7272
106.666
133.9
164.709
198.13
233.288
268.568
303.412
336.129
366.935
394.789
419.507
440.775
458.598
473.009
484.419
492.914
498.914
502.601
504.462
504.207
503.086
500.608
496.87
492.176
486.723
480.575
473.879
466.711
459.231
451.435
443.515
435.406
427.318
419.145
411.035
402.96
395.022
387.145
379.417
371.743
364.251
356.803
349.586
342.384
335.47
328.517
321.913
315.207
308.904
302.441
296.436
290.188
284.466
278.412
272.977
267.105
261.97
256.271
251.455
245.919
241.427
236.027
231.879
226.6
222.814
217.626
214.219
209.082
206.074
200.946
198.353
192.177
13.3249
13.1544
13.0316
13.0862
13.2951
13.7714
14.4967
15.4842
16.5036
17.6059
18.6003
19.5265
20.2687
20.8755
21.2934
21.595
21.7653
21.8441
21.8316
21.7892
21.6979
21.6054
21.5358
21.5611
21.667
21.9255
22.4664
23.3704
24.8439
27.0524
30.2993
34.7818
40.8312
48.5147
57.9649
69.2222
82.2463
96.8391
112.782
129.656
147.112
164.65
181.977
198.662
214.521
229.197
242.743
254.883
265.793
275.417
283.854
291.137
297.375
302.66
307.046
310.628
313.511
315.695
317.345
318.357
319.023
319.01
318.781
318.228
317.192
315.816
314.146
312.196
310.041
307.637
305.1
302.326
299.507
296.397
293.395
290.021
286.867
283.272
280.004
276.233
272.888
268.973
265.598
261.572
258.216
254.11
250.82
246.666
243.492
239.314
236.293
232.106
229.27
225.083
222.465
218.281
215.908
211.727
209.627
204.595
13.4657
13.3601
13.4097
13.6558
14.3033
15.6857
18.0258
21.4307
25.4035
29.7193
33.6138
37.0811
39.6334
41.5435
42.5905
43.2965
43.3567
43.2328
42.91
42.3876
41.7878
41.1739
40.5127
39.9064
39.3419
38.8723
38.4991
38.2127
38.1076
38.164
38.3437
38.7524
39.335
40.3186
41.5578
43.3294
45.5603
48.488
52.1843
56.7708
62.4661
69.2407
77.3241
86.5803
97.159
108.847
121.61
135.22
149.456
164.145
178.947
193.745
208.191
222.225
235.589
248.268
260.096
271.104
281.176
290.38
298.654
306.087
312.609
318.368
323.291
327.492
330.945
333.737
335.867
337.486
338.478
339.105
339.067
338.803
338.238
337.085
335.971
334.113
332.541
330.148
328.185
325.355
323.1
319.914
317.455
313.988
311.415
307.743
305.133
301.322
298.742
294.843
292.348
288.409
286.052
282.112
279.941
276.036
274.11
269.517
15.9094
16.8585
18.5479
21.9328
28.4054
39.4834
55.4309
74.9881
95.4735
114.305
129.231
140.168
146.611
150.039
150.657
150.261
149.293
147.643
146.174
145.152
144.529
144.719
145.333
146.795
148.889
152.265
156.126
161.158
166.919
173.892
181.686
190.69
200.509
211.636
223.499
236.696
250.662
265.733
281.622
298.158
315.512
333.116
351.283
369.333
387.494
405.28
422.725
439.654
455.932
471.628
486.535
500.777
514.202
526.893
538.797
549.976
560.286
569.858
578.423
586.16
592.839
598.621
603.356
607.123
609.902
611.71
612.651
612.551
612.016
610.788
608.846
606.331
603.457
600.027
596.553
592.382
588.516
583.763
579.583
574.404
569.981
564.503
559.957
554.267
549.694
543.875
539.382
533.524
529.196
523.362
519.258
513.486
509.65
503.98
500.467
494.935
491.819
486.458
483.869
477.872
68.0341
90.4361
126.223
184.888
271.924
385.012
511.492
635.714
744.875
832.04
892.718
932.432
953.438
963.159
964.359
963.173
960.944
957.296
956.404
957.552
960.745
966.546
974.788
986.559
1000.37
1016.63
1034.68
1055.1
1077.42
1101.36
1126.44
1152.47
1179.16
1206.31
1233.4
1260.29
1286.5
1311.85
1336.18
1359.09
1380.96
1400.99
1419.89
1436.96
1452.83
1466.97
1479.87
1491.28
1501.4
1510.23
1517.75
1523.96
1528.91
1532.4
1534.8
1535.68
1535.32
1534.14
1531.55
1527.7
1522.8
1516.79
1510
1501.95
1493.38
1483.54
1473.11
1462.05
1450.57
1438.38
1426.18
1413.23
1400.6
1387.24
1374.59
1361.11
1348.58
1335.1
1322.78
1309.44
1297.48
1284.4
1272.95
1260.24
1249.39
1237.1
1226.97
1215.16
1205.81
1194.48
1185.93
1175.03
1167.29
1156.78
1149.9
1139.79
1133.86
1124.16
1119.42
1108.87
1464.59
1897.21
2398.84
2961.89
3563.07
4171.84
4746.25
5251.18
5655.2
5950.97
6132.18
6219.09
6206.56
6159.8
6061.06
5927.98
5777.9
5619.58
5459.61
5301.78
5149.47
5004.38
4867.61
4739.56
4620.45
4510.55
4409.23
4316.42
4231.43
4154.18
4083.96
4020.53
3963.2
3911.84
3865.91
3825.34
3789.48
3758.19
3730.94
3707.48
3687.57
3670.55
3656.33
3644.14
3634.17
3625.64
3618.77
3612.94
3608.37
3604.67
3602
3600.04
3598.84
3598.32
3598.42
3598.8
3599.62
3600.72
3601.84
3603.04
3604.32
3605.42
3606.77
3607.65
3608.8
3609.41
3610.02
3610.01
3609.76
3609.02
3607.81
3605.35
3602.83
3598.71
3594.84
3589.19
3584.07
3576.99
3570.73
3562.43
3555.21
3545.8
3537.71
3527.17
3518.2
3506.49
3496.74
3483.9
3473.58
3459.73
3449.12
3434.41
3423.9
3408.43
3398.45
3382.19
3372.98
3355.86
3347.15
3325.25
1109.74
1064.95
1122.24
1210
1238.65
1120.93
818.284
1979.51
54694.6
16172.6
7366.47
6109.48
6233.17
6483.08
6553.5
8026.52
74299.1
43686.8
24860.8
18472.4
16101
14998.7
14625.4
19667
76426.7
71039.5
54260.9
41199.5
32686.1
27155
24541.2
34055.9
69741.9
75704.7
67741.8
55642.2
44559.6
35837
30858.9
42693.2
57771.4
71174.9
67941.2
59036
48372.5
38730.2
32780.5
45217.1
47500
61838.2
62492.4
56613.7
47167.6
38179.5
32455.1
44244.2
39098.8
51827.2
53593.1
49845.3
42401.9
34682.6
29599.5
39777.3
32627.9
42992.2
44925.5
42138.2
36307.5
30048.3
25828.7
34059.1
27602.1
35623.7
37260.7
35119
30547.5
25561.9
22230.5
29392.4
23483.4
29584.7
30825.9
29125.1
25534.9
21636.9
19163.2
26030.8
20102.7
24694
25574.5
24185
21341.5
18299.5
16496.5
22986.5
17365.9
20780
21367.8
20209
17938
15554.3
14263.2
20359.2
15134.9
17655.7
18021
17040.2
15211
13329.6
12424.2
18147.8
13287.4
15147.4
15353.1
14516.2
13029.2
11533.8
10921
16314.3
11728.7
13108.1
13205.1
12488
11270
10075.1
9686.94
14790.6
10406.7
11438.1
11462.3
10845.6
9840.45
8881.49
8667.5
13519.6
9268.78
10051.9
10032.5
9499.54
8665.88
7894.83
7817.91
12452.1
8287.01
8890.6
8846.78
8384.81
7690.34
7070.66
7101.66
11546.2
7443.92
7912.72
7854.57
7453.42
6872.34
6375.36
6490.42
10769.2
6716.86
7084.12
7018.03
6668.8
6180.46
5783.27
5965.56
10095.7
6089.96
6378.63
6308.42
6003.29
5591.11
5275.4
5511.67
9506.84
5547.35
5774.74
5702.99
5435.44
5086.2
4837.39
5117.1
8989.58
5073.45
5253.72
5182.58
4947.45
4650.84
4457.51
4772.46
8533.28
4657.31
4801.24
4732.2
4525.22
4273.01
4126.13
4469.93
8128.79
4290.25
4406
4340.06
4157.68
3943.25
3835.58
4203.2
7768.97
3965.03
4058.82
3996.62
3835.89
3653.83
3579.53
3966.98
7447.88
3676.09
3752.49
3694.34
3552.68
3398.54
3352.81
3756.89
7160.37
3418.19
3480.84
3426.89
3302.12
3172.2
3151.1
3569.26
6902.18
3187.32
3238.95
3189.18
3079.4
2970.61
2970.94
3401.01
6669.62
2979.77
3022.59
2976.97
2880.57
2790.36
2808.98
3249.76
6459.54
2792.51
2828.28
2786.68
2702.24
2628.4
2663.01
3113.13
6269.18
2622.97
2653.09
2615.36
2541.7
2482.32
2531.02
2989.26
6096.14
2468.93
2494.54
2460.54
2396.61
2350.09
2411.27
2876.6
5938.35
2328.59
2350.61
2320.18
2265.04
2230
2302.29
2773.8
5793.99
2200.38
2219.58
2192.55
2145.37
2120.63
2202.83
2679.76
5661.49
2083.02
2099.97
2076.19
2036.24
2020.74
2111.81
2593.51
5539.51
1975.32
1990.54
1969.82
1936.45
1929.28
2028.34
2514.26
5426.96
1876.28
1890.17
1872.36
1845
1845.39
1951.63
2441.31
5322.99
1785.01
1797.91
1782.88
1761.02
1768.15
1881.06
2374.09
5226.86
1700.73
1712.93
1700.52
1683.71
1696.97
1815.96
2312.05
5137.98
1622.76
1634.48
1624.56
1612.38
1631.24
1755.81
2254.73
5055.8
1550.47
1561.9
1554.33
1546.43
1570.41
1700.1
2201.69
4979.83
1483.32
1494.6
1489.25
1485.3
1514.01
1648.42
2152.55
4909.57
1420.81
1432.07
1428.82
1428.53
1461.6
1600.37
2106.94
4844.6
1362.49
1373.83
1372.58
1375.65
1412.81
1555.62
2064.54
4784.47
1308
1319.49
1320.13
1326.31
1367.28
1513.85
2025.05
4728.72
1256.97
1268.67
1271.11
1280.21
1324.71
1474.79
1988.2
4676.89
1209.09
1221.06
1225.21
1237.04
1284.84
1438.18
1953.72
4628.54
1164.09
1176.37
1182.16
1196.56
1247.42
1403.83
1921.42
4583.31
1121.73
1134.37
1141.72
1158.52
1212.25
1371.53
1891.09
4540.84
1081.78
1094.83
1103.67
1122.74
1179.16
1341.12
1862.59
4500.87
1044.06
1057.55
1067.83
1089.03
1147.96
1312.45
1835.75
4463.14
1008.39
1022.35
1034.01
1057.23
1118.52
1285.39
1810.47
4427.5
974.619
989.078
1002.06
1027.18
1090.7
1259.82
1786.6
4393.77
942.59
957.572
971.83
998.759
1064.38
1235.64
1764.1
4361.89
912.185
927.707
943.198
971.839
1039.44
1212.73
1742.84
4331.78
883.264
899.343
916.027
946.302
1015.8
1191.03
1722.78
4303.36
855.739
872.387
890.224
922.056
993.347
1170.45
1703.82
4276.62
829.477
846.706
865.663
898.989
972.001
1150.9
1685.9
4251.41
804.426
822.242
842.286
877.045
951.7
1132.33
1668.98
4227.78
780.454
798.865
819.968
856.107
932.345
1114.66
1652.96
4205.46
757.547
776.558
798.692
836.161
913.92
1097.87
1637.84
4184.63
735.567
755.182
778.321
817.076
896.306
1081.85
1623.5
4164.89
714.542
734.762
758.884
798.882
879.532
1066.64
1609.98
4146.53
694.316
715.139
740.217
781.419
863.443
1052.07
1597.13
4129
674.963
696.388
722.4
764.769
848.12
1038.24
1585.03
4112.76
656.296
678.311
705.228
748.724
833.359
1024.95
1573.47
4097.11
638.44
661.038
688.838
733.426
819.305
1012.33
1562.59
4082.7
621.159
644.32
672.965
718.603
805.686
1000.12
1552.14
4068.61
604.639
628.353
657.822
704.477
792.727
988.531
1542.3
4055.76
588.585
612.819
643.069
690.692
780.064
977.216
1532.74
4042.92
573.256
598.001
629.01
677.576
768.04
966.508
1523.78
4031.34
558.279
583.492
615.21
664.661
756.164
955.909
1514.91
4019.43
544.012
569.687
602.1
652.419
744.941
945.941
1506.67
4008.87
529.984
556.071
589.118
640.237
733.708
935.903
1498.29
3997.5
516.679
543.176
576.854
628.77
723.189
926.576
1490.65
3987.71
503.499
530.35
564.588
617.217
712.492
916.976
1482.61
3976.53
491.084
518.298
553.107
606.467
702.621
908.236
1475.5
3967.33
478.675
506.187
541.484
595.47
692.382
898.983
1467.66
3956.04
467.107
494.939
530.752
585.409
683.143
890.821
1461.09
3947.4
455.409
483.487
519.716
574.916
673.307
881.851
1453.36
3935.85
444.663
473.022
509.719
565.54
664.707
874.296
1447.39
3927.85
433.619
462.174
499.222
555.504
655.232
865.563
1439.7
3916.05
423.677
452.479
489.954
546.816
647.291
858.658
1434.41
3908.85
413.228
442.18
479.945
537.195
638.143
850.14
1426.77
3896.96
404.071
433.24
471.397
529.196
630.874
843.917
1422.21
3890.62
394.147
423.426
461.823
519.951
622.035
835.629
1414.7
3878.98
385.76
415.227
453.982
512.63
615.429
830.078
1410.83
3873.43
376.277
405.824
444.782
503.721
606.892
822.073
1403.64
3862.4
368.65
398.359
437.641
497.065
600.924
817.14
1400.31
3857.38
359.518
389.281
428.741
488.44
592.668
809.448
1393.61
3847.22
352.651
382.551
422.298
482.438
587.313
805.09
1390.68
3842.65
343.767
373.704
413.616
474.03
579.3
797.715
1384.58
3833.3
337.675
367.718
407.87
468.667
574.517
793.852
1381.98
3829.06
328.922
358.993
399.31
460.4
566.7
786.784
1376.39
3820.38
323.632
353.77
394.265
455.651
562.421
783.283
1373.98
3816.26
314.88
345.045
385.716
447.43
554.731
776.497
1368.83
3808.24
310.411
340.59
381.356
443.254
550.866
773.184
1366.46
3804.19
299.83
329.993
370.916
433.151
541.351
764.74
1359.77
3794.89
)
;

boundaryField
{
    frontAndBack
    {
        type            empty;
    }
    inlet
    {
        type            fixedValue;
        value           uniform 14.855;
    }
    outlet
    {
        type            zeroGradient;
    }
    walls
    {
        lowReCorrection 0;
        blending        stepwise;
        n               2;
        type            epsilonWallFunction;
        value           nonuniform List<scalar> 
228
(
112.724
141.424
210.098
257.591
369.051
443.457
614.739
724.906
971.318
1128.62
1109.74
1064.95
1122.24
1210
1238.65
1120.93
818.284
1979.51
1979.51
8026.52
19667
34055.9
42693.2
45217.1
44244.2
39777.3
34059.1
29392.4
26030.8
22986.5
20359.2
18147.8
16314.3
14790.6
13519.6
12452.1
11546.2
10769.2
10095.7
9506.84
8989.58
8533.28
8128.79
7768.97
7447.88
7160.37
6902.18
6669.62
6459.54
6269.18
6096.14
5938.35
5793.99
5661.49
5539.51
5426.96
5322.99
5226.86
5137.98
5055.8
4979.83
4909.57
4844.6
4784.47
4728.72
4676.89
4628.54
4583.31
4540.84
4500.87
4463.14
4427.5
4393.77
4361.89
4331.78
4303.36
4276.62
4251.41
4227.78
4205.46
4184.63
4164.89
4146.53
4129
4112.76
4097.11
4082.7
4068.61
4055.76
4042.92
4031.34
4019.43
4008.87
3997.5
3987.71
3976.53
3967.33
3956.04
3947.4
3935.85
3927.85
3916.05
3908.85
3896.96
3890.62
3878.98
3873.43
3862.4
3857.38
3847.22
3842.65
3833.3
3829.06
3820.38
3816.26
3808.24
3804.19
3794.89
105.895
146.644
198.346
265.836
350.032
456.114
585.694
743.705
931.823
1154.03
1464.59
1897.21
2398.84
2961.89
3563.07
4171.84
4746.25
5251.18
5655.2
5950.97
6132.18
6219.09
6206.56
6159.8
6061.06
5927.98
5777.9
5619.58
5459.61
5301.78
5149.47
5004.38
4867.61
4739.56
4620.45
4510.55
4409.23
4316.42
4231.43
4154.18
4083.96
4020.53
3963.2
3911.84
3865.91
3825.34
3789.48
3758.19
3730.94
3707.48
3687.57
3670.55
3656.33
3644.14
3634.17
3625.64
3618.77
3612.94
3608.37
3604.67
3602
3600.04
3598.84
3598.32
3598.42
3598.8
3599.62
3600.72
3601.84
3603.04
3604.32
3605.42
3606.77
3607.65
3608.8
3609.41
3610.02
3610.01
3609.76
3609.02
3607.81
3605.35
3602.83
3598.71
3594.84
3589.19
3584.07
3576.99
3570.73
3562.43
3555.21
3545.8
3537.71
3527.17
3518.2
3506.49
3496.74
3483.9
3473.58
3459.73
3449.12
3434.41
3423.9
3408.43
3398.45
3382.19
3372.98
3355.86
3347.15
3325.25
)
;
    }
}


// ************************************************************************* //
