/*--------------------------------*- C++ -*----------------------------------*\
| =========                 |                                                 |
| \\      /  F ield         | OpenFOAM: The Open Source CFD Toolbox           |
|  \\    /   O peration     | Version:  v2012                                 |
|   \\  /    A nd           | Website:  www.openfoam.com                      |
|    \\/     M anipulation  |                                                 |
\*---------------------------------------------------------------------------*/
FoamFile
{
    version     2.0;
    format      ascii;
    class       volVectorField;
    location    "0.137";
    object      U.air;
}
// * * * * * * * * * * * * * * * * * * * * * * * * * * * * * * * * * * * * * //

dimensions      [0 1 -1 0 0 0 0];


internalField   nonuniform List<vector> 
5600
(
(18.5968 0.0138493 0)
(18.1355 0.0315862 0)
(17.5526 0.0442187 0)
(16.8978 0.0497171 0)
(16.2192 0.047979 0)
(15.5639 0.0415279 0)
(14.9525 0.0328109 0)
(14.4136 0.0235363 0)
(13.9483 0.0152995 0)
(13.5505 0.00860061 0)
(13.2181 0.00288338 0)
(12.9537 -0.00192595 0)
(12.7481 -0.00572021 0)
(12.5972 -0.00843151 0)
(12.4894 -0.0100838 0)
(12.4162 -0.0107948 0)
(12.37 -0.0107444 0)
(12.3391 -0.0101145 0)
(12.3232 -0.00933936 0)
(12.3111 -0.00854405 0)
(12.306 -0.00793336 0)
(12.3004 -0.00723501 0)
(12.2976 -0.00674621 0)
(12.2939 -0.00630567 0)
(12.2928 -0.00609369 0)
(12.2914 -0.00594713 0)
(12.2919 -0.00589039 0)
(12.2926 -0.00578845 0)
(12.2945 -0.00570519 0)
(12.2964 -0.00567094 0)
(12.2993 -0.00556785 0)
(12.3009 -0.00544783 0)
(12.3031 -0.00526343 0)
(12.3034 -0.00507812 0)
(12.3036 -0.00487957 0)
(12.3025 -0.00469646 0)
(12.3012 -0.00452492 0)
(12.2988 -0.00438633 0)
(12.2965 -0.00425219 0)
(12.2932 -0.00415481 0)
(12.2904 -0.00406886 0)
(12.2868 -0.00399979 0)
(12.2838 -0.00392668 0)
(12.2799 -0.00388563 0)
(12.2772 -0.00385911 0)
(12.2736 -0.00384339 0)
(12.2714 -0.00383074 0)
(12.2682 -0.0038346 0)
(12.2664 -0.00383136 0)
(12.2636 -0.00383633 0)
(12.2623 -0.00383111 0)
(12.2597 -0.00383164 0)
(12.2588 -0.00382412 0)
(12.2565 -0.00382105 0)
(12.2558 -0.00381028 0)
(12.2538 -0.00380569 0)
(12.2535 -0.0038036 0)
(12.2517 -0.00382889 0)
(12.2518 -0.00386015 0)
(12.2506 -0.00389085 0)
(12.2509 -0.00391366 0)
(12.2503 -0.00396079 0)
(12.2509 -0.00398199 0)
(12.2506 -0.0040278 0)
(12.2519 -0.00405747 0)
(12.2518 -0.00409857 0)
(12.2536 -0.00412597 0)
(12.2538 -0.00416211 0)
(12.2562 -0.0041843 0)
(12.2567 -0.00422221 0)
(12.2596 -0.00423253 0)
(12.2602 -0.00426136 0)
(12.2637 -0.00427596 0)
(12.2645 -0.00430495 0)
(12.2685 -0.00431552 0)
(12.2694 -0.00434413 0)
(12.274 -0.00435072 0)
(12.2749 -0.00437813 0)
(12.2802 -0.00438415 0)
(12.2811 -0.00440401 0)
(12.2869 -0.0044094 0)
(12.2877 -0.00442534 0)
(12.2941 -0.00443063 0)
(12.2947 -0.0044438 0)
(12.3017 -0.00446023 0)
(12.3024 -0.00445511 0)
(12.3096 -0.00449315 0)
(12.3107 -0.00444729 0)
(12.3174 -0.00452969 0)
(12.3199 -0.00442248 0)
(12.3247 -0.00460313 0)
(12.3309 -0.00444922 0)
(12.3325 -0.00467256 0)
(12.3429 -0.00434782 0)
(12.3387 -0.00476818 0)
(12.3574 -0.00425139 0)
(12.3433 -0.00463983 0)
(12.3752 -0.00634873 0)
(12.3885 -0.00056565 0)
(12.2443 -0.016868 0)
(18.7901 0.0365769 0)
(18.8039 0.0482754 0)
(18.7962 0.0516387 0)
(18.7578 0.0559313 0)
(18.6852 0.0582897 0)
(18.5783 0.0586996 0)
(18.4415 0.0574884 0)
(18.2776 0.0549862 0)
(18.0938 0.0510448 0)
(17.898 0.0468024 0)
(17.6954 0.0420776 0)
(17.4907 0.0369243 0)
(17.2865 0.0316955 0)
(17.0886 0.0266207 0)
(16.9008 0.0219821 0)
(16.7246 0.0178929 0)
(16.5644 0.0145848 0)
(16.4167 0.0118418 0)
(16.2877 0.00965934 0)
(16.1692 0.00788992 0)
(16.0687 0.00656889 0)
(15.9766 0.00557666 0)
(15.9006 0.00480296 0)
(15.8318 0.00408873 0)
(15.7774 0.00359515 0)
(15.7262 0.00323663 0)
(15.6847 0.00292193 0)
(15.6452 0.00266665 0)
(15.6139 0.00242715 0)
(15.5824 0.0022792 0)
(15.5553 0.0021896 0)
(15.5277 0.00213426 0)
(15.5038 0.00207311 0)
(15.4795 0.00206433 0)
(15.4589 0.00203794 0)
(15.4379 0.00199504 0)
(15.4203 0.00195834 0)
(15.4025 0.00191499 0)
(15.3875 0.00188741 0)
(15.3722 0.00182591 0)
(15.3593 0.00177177 0)
(15.3461 0.00169553 0)
(15.3351 0.00163558 0)
(15.3238 0.00157524 0)
(15.3145 0.00150463 0)
(15.3047 0.00143329 0)
(15.2967 0.00138031 0)
(15.2881 0.00131994 0)
(15.281 0.00127322 0)
(15.2734 0.00122037 0)
(15.2673 0.00118014 0)
(15.2606 0.0011328 0)
(15.2553 0.00109518 0)
(15.2493 0.00104758 0)
(15.2449 0.00100926 0)
(15.2397 0.000954973 0)
(15.236 0.000927333 0)
(15.2317 0.000909346 0)
(15.2288 0.000884378 0)
(15.2253 0.000873133 0)
(15.2232 0.000863864 0)
(15.2204 0.000862703 0)
(15.219 0.000862703 0)
(15.2169 0.000837999 0)
(15.2162 0.000840263 0)
(15.2148 0.000825331 0)
(15.2147 0.000822567 0)
(15.2141 0.000806669 0)
(15.2145 0.000800531 0)
(15.2144 0.00078155 0)
(15.2154 0.000776265 0)
(15.2158 0.000752527 0)
(15.2173 0.000744838 0)
(15.2181 0.000718586 0)
(15.2202 0.000712298 0)
(15.2214 0.000686241 0)
(15.2241 0.000680848 0)
(15.2255 0.000657717 0)
(15.2287 0.000648701 0)
(15.2304 0.000630378 0)
(15.2342 0.000619576 0)
(15.236 0.000605688 0)
(15.2403 0.00059471 0)
(15.2422 0.000576432 0)
(15.2474 0.000562186 0)
(15.249 0.000556593 0)
(15.2553 0.000529 0)
(15.2564 0.000545495 0)
(15.2642 0.000493085 0)
(15.2643 0.000550081 0)
(15.2737 0.000435559 0)
(15.2722 0.000493046 0)
(15.2846 0.000411801 0)
(15.2795 0.000514258 0)
(15.2981 0.000342079 0)
(15.2847 0.0005102 0)
(15.3185 6.85893e-05 0)
(15.2856 -0.00088005 0)
(15.3588 0.00477297 0)
(15.258 -0.0279713 0)
(18.7905 0.0259643 0)
(18.8272 0.0395188 0)
(18.8715 0.0482494 0)
(18.9161 0.0560419 0)
(18.9584 0.0604905 0)
(18.9942 0.0616003 0)
(19.0215 0.0601582 0)
(19.0364 0.0562291 0)
(19.0337 0.0532563 0)
(19.0183 0.0489653 0)
(18.9878 0.0442966 0)
(18.9408 0.0395797 0)
(18.8769 0.0351851 0)
(18.7962 0.0310542 0)
(18.6999 0.0275369 0)
(18.5898 0.024162 0)
(18.4686 0.0214 0)
(18.3392 0.0189275 0)
(18.2064 0.0167493 0)
(18.0708 0.0148185 0)
(17.9417 0.0130028 0)
(17.8142 0.0113204 0)
(17.6992 0.00964027 0)
(17.5896 0.00795314 0)
(17.4939 0.0064281 0)
(17.4046 0.00517406 0)
(17.3281 0.00407404 0)
(17.256 0.00315885 0)
(17.195 0.00242807 0)
(17.1354 0.00199544 0)
(17.0846 0.00170823 0)
(17.0343 0.00151352 0)
(16.9921 0.0013422 0)
(16.9502 0.00119695 0)
(16.9155 0.00104367 0)
(16.8811 0.000877212 0)
(16.8525 0.00069185 0)
(16.8238 0.000520076 0)
(16.7999 0.000364496 0)
(16.7757 0.000201627 0)
(16.7555 5.54965e-05 0)
(16.735 -9.55289e-05 0)
(16.7179 -0.000229903 0)
(16.7006 -0.000334326 0)
(16.686 -0.000436325 0)
(16.6709 -0.000517031 0)
(16.658 -0.000580085 0)
(16.6445 -0.000652829 0)
(16.6332 -0.000714586 0)
(16.6214 -0.000781906 0)
(16.6115 -0.000835676 0)
(16.6011 -0.000893854 0)
(16.5926 -0.000938894 0)
(16.5836 -0.000989113 0)
(16.5763 -0.00102454 0)
(16.5685 -0.0010635 0)
(16.5625 -0.00108375 0)
(16.5558 -0.00113653 0)
(16.5509 -0.00119215 0)
(16.5454 -0.0012489 0)
(16.5415 -0.00130983 0)
(16.5371 -0.00139593 0)
(16.5341 -0.0014531 0)
(16.5306 -0.0015288 0)
(16.5285 -0.00159664 0)
(16.5259 -0.00167787 0)
(16.5246 -0.00174681 0)
(16.5227 -0.00181272 0)
(16.5221 -0.00185711 0)
(16.5209 -0.00192685 0)
(16.5209 -0.00196367 0)
(16.5206 -0.00202255 0)
(16.5211 -0.00206375 0)
(16.5212 -0.00211697 0)
(16.5223 -0.00215271 0)
(16.5229 -0.00220323 0)
(16.5245 -0.00222944 0)
(16.5255 -0.00227938 0)
(16.5276 -0.00230565 0)
(16.529 -0.00235489 0)
(16.5318 -0.00237738 0)
(16.5335 -0.00241656 0)
(16.5368 -0.00243163 0)
(16.5387 -0.00248911 0)
(16.5428 -0.00249446 0)
(16.5447 -0.00254849 0)
(16.5497 -0.00255575 0)
(16.5514 -0.00261373 0)
(16.5577 -0.0026188 0)
(16.5588 -0.00265425 0)
(16.5669 -0.00267531 0)
(16.5667 -0.00272869 0)
(16.5766 -0.00270755 0)
(16.5747 -0.0027909 0)
(16.588 -0.00274105 0)
(16.5822 -0.00301622 0)
(16.6033 -0.00285534 0)
(16.5883 -0.00482444 0)
(16.6322 -4.5993e-05 0)
(16.6058 -0.025766 0)
(18.7889 0.0234367 0)
(18.8253 0.0378378 0)
(18.8727 0.0450507 0)
(18.924 0.051218 0)
(18.9779 0.0545574 0)
(19.0326 0.0552621 0)
(19.0879 0.054162 0)
(19.1382 0.0523918 0)
(19.1852 0.0496565 0)
(19.2258 0.0469382 0)
(19.2618 0.0442478 0)
(19.291 0.0416911 0)
(19.3142 0.0393321 0)
(19.3297 0.0372399 0)
(19.3388 0.0351528 0)
(19.3378 0.0340094 0)
(19.3293 0.0326753 0)
(19.3118 0.0313858 0)
(19.2842 0.0302102 0)
(19.2458 0.0289364 0)
(19.1964 0.0274894 0)
(19.1356 0.0259209 0)
(19.0644 0.0241205 0)
(18.9831 0.0222029 0)
(18.8942 0.0202636 0)
(18.7999 0.0184443 0)
(18.7044 0.0166725 0)
(18.6074 0.014901 0)
(18.5167 0.013288 0)
(18.4273 0.0119002 0)
(18.3491 0.0106851 0)
(18.2733 0.00960335 0)
(18.2085 0.00860332 0)
(18.1458 0.00772056 0)
(18.0929 0.00697347 0)
(18.0407 0.0063694 0)
(17.9957 0.00584499 0)
(17.9506 0.00540621 0)
(17.912 0.00501157 0)
(17.8731 0.00465066 0)
(17.84 0.00431455 0)
(17.8066 0.00400155 0)
(17.7785 0.00369627 0)
(17.7501 0.00341601 0)
(17.7264 0.00312125 0)
(17.7026 0.00288915 0)
(17.6825 0.00268365 0)
(17.6621 0.00247859 0)
(17.6448 0.00229031 0)
(17.6271 0.00211177 0)
(17.6122 0.00195178 0)
(17.5968 0.0017961 0)
(17.5839 0.00165746 0)
(17.5705 0.00151546 0)
(17.5596 0.00139157 0)
(17.548 0.00126143 0)
(17.5388 0.00113814 0)
(17.5288 0.000972435 0)
(17.5211 0.000796428 0)
(17.5129 0.00063599 0)
(17.5065 0.000476257 0)
(17.4996 0.000286549 0)
(17.4945 0.00013288 0)
(17.4888 -4.95219e-05 0)
(17.4847 -0.000159906 0)
(17.48 -0.000279014 0)
(17.4769 -0.000389223 0)
(17.4732 -0.000502338 0)
(17.471 -0.000595182 0)
(17.4681 -0.00070435 0)
(17.4666 -0.000799244 0)
(17.4646 -0.000899024 0)
(17.4638 -0.000962929 0)
(17.4624 -0.00106422 0)
(17.4621 -0.00112388 0)
(17.4614 -0.00122447 0)
(17.4616 -0.00127361 0)
(17.4616 -0.00135381 0)
(17.4622 -0.00141951 0)
(17.4628 -0.00151175 0)
(17.4641 -0.00156851 0)
(17.4653 -0.00164394 0)
(17.4672 -0.00169288 0)
(17.4689 -0.0017777 0)
(17.4712 -0.00181287 0)
(17.4733 -0.00189278 0)
(17.476 -0.00193583 0)
(17.4788 -0.00203078 0)
(17.482 -0.00206279 0)
(17.4854 -0.00214772 0)
(17.489 -0.00217573 0)
(17.4933 -0.00227988 0)
(17.4966 -0.002235 0)
(17.5021 -0.00241695 0)
(17.5048 -0.00226702 0)
(17.5118 -0.00282667 0)
(17.5145 -0.00232646 0)
(17.5221 -0.00529646 0)
(17.5326 3.08591e-05 0)
(17.5503 -0.0295436 0)
(18.7873 0.0198316 0)
(18.8223 0.0334041 0)
(18.8695 0.0390031 0)
(18.9212 0.0442526 0)
(18.9759 0.0475157 0)
(19.0323 0.0484213 0)
(19.09 0.0478152 0)
(19.1443 0.0462108 0)
(19.1974 0.0440362 0)
(19.2459 0.0417037 0)
(19.2924 0.0392133 0)
(19.335 0.0366991 0)
(19.3741 0.0343588 0)
(19.4109 0.0321566 0)
(19.4436 0.0305508 0)
(19.4752 0.0290135 0)
(19.5028 0.0279321 0)
(19.5297 0.0271569 0)
(19.5527 0.0267425 0)
(19.5744 0.0264302 0)
(19.5924 0.0262233 0)
(19.6068 0.0260494 0)
(19.6175 0.025817 0)
(19.6215 0.0254746 0)
(19.6193 0.0251625 0)
(19.6105 0.0246201 0)
(19.5938 0.0239616 0)
(19.5685 0.0230897 0)
(19.5347 0.0221468 0)
(19.4929 0.0211602 0)
(19.4445 0.0200235 0)
(19.39 0.0188573 0)
(19.3315 0.0175859 0)
(19.2697 0.0162811 0)
(19.2071 0.015018 0)
(19.1428 0.0138007 0)
(19.0825 0.0126805 0)
(19.0211 0.0116163 0)
(18.9661 0.0106428 0)
(18.9105 0.00969894 0)
(18.862 0.00883198 0)
(18.8131 0.00800171 0)
(18.7711 0.00723575 0)
(18.7286 0.00654656 0)
(18.6927 0.00588863 0)
(18.6566 0.00539424 0)
(18.6253 0.00498152 0)
(18.5935 0.0045884 0)
(18.5661 0.004219 0)
(18.5382 0.00387075 0)
(18.5143 0.00354985 0)
(18.4899 0.00323574 0)
(18.4691 0.00294663 0)
(18.4479 0.00264889 0)
(18.4301 0.00237437 0)
(18.4117 0.00207952 0)
(18.3965 0.00181208 0)
(18.3808 0.00154715 0)
(18.3679 0.00127661 0)
(18.3545 0.00102698 0)
(18.3435 0.000814556 0)
(18.3319 0.000592885 0)
(18.3224 0.000397 0)
(18.3124 0.00018136 0)
(18.3042 4.79946e-05 0)
(18.2956 -8.85442e-05 0)
(18.2887 -0.000220596 0)
(18.2813 -0.000361537 0)
(18.2755 -0.000486002 0)
(18.2694 -0.000628475 0)
(18.2647 -0.000757222 0)
(18.2598 -0.00088697 0)
(18.2561 -0.000996815 0)
(18.2523 -0.00112194 0)
(18.2495 -0.00122931 0)
(18.2468 -0.00133868 0)
(18.2447 -0.00143629 0)
(18.2431 -0.00154021 0)
(18.2416 -0.00164017 0)
(18.2409 -0.00174806 0)
(18.2401 -0.00185718 0)
(18.2401 -0.00193955 0)
(18.24 -0.0020209 0)
(18.2409 -0.00213436 0)
(18.241 -0.00218041 0)
(18.2427 -0.00228496 0)
(18.2431 -0.00235359 0)
(18.2458 -0.0024807 0)
(18.2463 -0.00254455 0)
(18.2504 -0.00265372 0)
(18.2507 -0.00272384 0)
(18.2562 -0.00282006 0)
(18.2561 -0.00283434 0)
(18.263 -0.00298278 0)
(18.2625 -0.00293771 0)
(18.2706 -0.00343185 0)
(18.2709 -0.00314766 0)
(18.2788 -0.00597571 0)
(18.2844 -0.00352801 0)
(18.2994 -0.0279115 0)
(18.7859 0.0160602 0)
(18.8195 0.0284007 0)
(18.8663 0.033001 0)
(18.9178 0.0375815 0)
(18.9723 0.0405642 0)
(19.0287 0.0413216 0)
(19.0861 0.0407438 0)
(19.1412 0.0392926 0)
(19.1945 0.0374665 0)
(19.2443 0.0354567 0)
(19.2917 0.0332974 0)
(19.336 0.0311918 0)
(19.3773 0.0292412 0)
(19.4166 0.0275329 0)
(19.4528 0.0261668 0)
(19.4883 0.0251172 0)
(19.5216 0.0243857 0)
(19.5547 0.0238621 0)
(19.5862 0.0235792 0)
(19.6179 0.0233435 0)
(19.6482 0.0231992 0)
(19.6788 0.0230453 0)
(19.7077 0.0228804 0)
(19.737 0.0227367 0)
(19.7637 0.0224677 0)
(19.7907 0.0222097 0)
(19.8144 0.0220438 0)
(19.8383 0.0218573 0)
(19.8578 0.0217225 0)
(19.8765 0.0215662 0)
(19.8907 0.0213876 0)
(19.9016 0.0211886 0)
(19.909 0.0208603 0)
(19.9098 0.0205987 0)
(19.9061 0.0202009 0)
(19.8975 0.0196989 0)
(19.8838 0.019133 0)
(19.8652 0.0184796 0)
(19.8419 0.0177428 0)
(19.8142 0.0169515 0)
(19.783 0.0160836 0)
(19.7484 0.0152031 0)
(19.7117 0.0142546 0)
(19.6727 0.0133566 0)
(19.6334 0.0123764 0)
(19.5926 0.0114226 0)
(19.5539 0.0105765 0)
(19.5141 0.00976958 0)
(19.4777 0.00901981 0)
(19.4405 0.00828967 0)
(19.4074 0.00762256 0)
(19.3736 0.00695947 0)
(19.3442 0.00636214 0)
(19.314 0.00576684 0)
(19.288 0.00523493 0)
(19.2614 0.00471878 0)
(19.2385 0.00424252 0)
(19.2155 0.00383251 0)
(19.1949 0.00344924 0)
(19.1741 0.00312012 0)
(19.1553 0.00282155 0)
(19.1364 0.00251444 0)
(19.1195 0.00223888 0)
(19.1025 0.00195555 0)
(19.0874 0.00169089 0)
(19.0725 0.00141464 0)
(19.059 0.00115504 0)
(19.0461 0.000901001 0)
(19.0343 0.000668268 0)
(19.0232 0.000430461 0)
(19.013 0.000203549 0)
(19.0037 -4.95059e-06 0)
(18.995 -0.000208811 0)
(18.9875 -0.000410947 0)
(18.9802 -0.000618829 0)
(18.9742 -0.000805126 0)
(18.9681 -0.000985348 0)
(18.9634 -0.00114566 0)
(18.9582 -0.00131448 0)
(18.9546 -0.00147862 0)
(18.9502 -0.00163711 0)
(18.9477 -0.00178534 0)
(18.944 -0.00193538 0)
(18.9426 -0.0020473 0)
(18.9395 -0.00218119 0)
(18.9391 -0.00227976 0)
(18.9367 -0.00245244 0)
(18.937 -0.00256531 0)
(18.9355 -0.00273822 0)
(18.9367 -0.00284727 0)
(18.9357 -0.00296704 0)
(18.9381 -0.0030902 0)
(18.9373 -0.00316469 0)
(18.9407 -0.00331928 0)
(18.9405 -0.00335641 0)
(18.9441 -0.00381177 0)
(18.9457 -0.00375392 0)
(18.9496 -0.00647605 0)
(18.9551 -0.00533182 0)
(18.9642 -0.0265959 0)
(18.7853 0.012601 0)
(18.8171 0.0228331 0)
(18.8634 0.0264636 0)
(18.9148 0.0301757 0)
(18.969 0.032659 0)
(19.0252 0.0332392 0)
(19.0822 0.0327547 0)
(19.1375 0.0316021 0)
(19.1906 0.0301262 0)
(19.2405 0.0284898 0)
(19.288 0.0267337 0)
(19.3325 0.0250584 0)
(19.3741 0.0234867 0)
(19.4135 0.0221148 0)
(19.4505 0.0209916 0)
(19.4862 0.0201525 0)
(19.5204 0.0195184 0)
(19.554 0.019026 0)
(19.5867 0.0187371 0)
(19.6193 0.0185097 0)
(19.6514 0.0183701 0)
(19.6836 0.0182456 0)
(19.7151 0.01812 0)
(19.7468 0.0180015 0)
(19.7778 0.0178275 0)
(19.8088 0.0176839 0)
(19.8391 0.0176013 0)
(19.8696 0.0174949 0)
(19.899 0.0174152 0)
(19.9289 0.0173005 0)
(19.9574 0.0172436 0)
(19.9865 0.0171572 0)
(20.0137 0.017123 0)
(20.0417 0.0171185 0)
(20.0671 0.0170609 0)
(20.0935 0.0169742 0)
(20.1159 0.0168976 0)
(20.1398 0.0168186 0)
(20.1585 0.0167225 0)
(20.1788 0.0166042 0)
(20.1929 0.0164568 0)
(20.208 0.0162585 0)
(20.2167 0.0160412 0)
(20.2249 0.0157351 0)
(20.2282 0.0153421 0)
(20.2281 0.0151046 0)
(20.2248 0.0147175 0)
(20.2188 0.0142748 0)
(20.2095 0.0137787 0)
(20.1976 0.0132503 0)
(20.1829 0.0126863 0)
(20.1658 0.0120947 0)
(20.1467 0.0114726 0)
(20.1258 0.0108366 0)
(20.1037 0.0101676 0)
(20.0805 0.00951969 0)
(20.0568 0.00882674 0)
(20.0324 0.00817715 0)
(20.0086 0.00749539 0)
(19.9846 0.00692218 0)
(19.9616 0.00635678 0)
(19.9387 0.00581164 0)
(19.9167 0.00529261 0)
(19.8956 0.00479085 0)
(19.8751 0.00429618 0)
(19.8559 0.00382862 0)
(19.8371 0.00337362 0)
(19.8198 0.00295002 0)
(19.8027 0.00253749 0)
(19.7874 0.00215087 0)
(19.772 0.00177513 0)
(19.7584 0.00143553 0)
(19.7447 0.00111303 0)
(19.7326 0.000837955 0)
(19.7198 0.00057129 0)
(19.7088 0.000329282 0)
(19.697 8.79826e-05 0)
(19.6873 -0.000130827 0)
(19.6765 -0.000376151 0)
(19.668 -0.000596053 0)
(19.6584 -0.00082164 0)
(19.6512 -0.00103026 0)
(19.6426 -0.00124557 0)
(19.6367 -0.00142689 0)
(19.6293 -0.00161373 0)
(19.6246 -0.00178777 0)
(19.6184 -0.00199477 0)
(19.6148 -0.00220544 0)
(19.6097 -0.00243616 0)
(19.6071 -0.00260018 0)
(19.6032 -0.00283968 0)
(19.6014 -0.00296228 0)
(19.5986 -0.00315254 0)
(19.5974 -0.00330998 0)
(19.5958 -0.0034576 0)
(19.5951 -0.00396267 0)
(19.5949 -0.00406536 0)
(19.5957 -0.0067249 0)
(19.5981 -0.00671875 0)
(19.602 -0.025741 0)
(18.7848 0.00894094 0)
(18.8152 0.0166324 0)
(18.861 0.0192907 0)
(18.9123 0.0220285 0)
(18.9663 0.023908 0)
(19.0223 0.0243381 0)
(19.079 0.0239926 0)
(19.1344 0.0231626 0)
(19.1873 0.0220734 0)
(19.2373 0.0208743 0)
(19.2847 0.0195792 0)
(19.3292 0.0183481 0)
(19.3709 0.0171785 0)
(19.4103 0.0161479 0)
(19.4474 0.0152956 0)
(19.4831 0.0146544 0)
(19.5174 0.0141686 0)
(19.551 0.0137971 0)
(19.5839 0.0135937 0)
(19.6166 0.0134465 0)
(19.6489 0.0133658 0)
(19.6812 0.0133028 0)
(19.7131 0.0132339 0)
(19.7449 0.0131667 0)
(19.7764 0.013064 0)
(19.8078 0.012966 0)
(19.8388 0.012901 0)
(19.8698 0.0128149 0)
(19.9004 0.0127479 0)
(19.9311 0.0126635 0)
(19.9614 0.0126273 0)
(19.9918 0.0125722 0)
(20.0218 0.0125335 0)
(20.0521 0.012545 0)
(20.0819 0.0124966 0)
(20.1119 0.012422 0)
(20.1411 0.012364 0)
(20.1708 0.0123137 0)
(20.1995 0.0122549 0)
(20.2287 0.0121938 0)
(20.2565 0.012126 0)
(20.2851 0.012054 0)
(20.3119 0.0120028 0)
(20.3397 0.0119204 0)
(20.365 0.0119143 0)
(20.3917 0.0118689 0)
(20.4151 0.0117849 0)
(20.44 0.0117027 0)
(20.4611 0.0116271 0)
(20.4838 0.0115566 0)
(20.502 0.0114724 0)
(20.5219 0.0113796 0)
(20.5365 0.0112602 0)
(20.5531 0.0111139 0)
(20.5636 0.0109421 0)
(20.5759 0.0107176 0)
(20.5821 0.0104942 0)
(20.5894 0.0102022 0)
(20.5918 0.00998515 0)
(20.5937 0.00962025 0)
(20.5927 0.00938655 0)
(20.5907 0.00905032 0)
(20.5862 0.00865951 0)
(20.5806 0.00825689 0)
(20.5729 0.00782513 0)
(20.5644 0.0073919 0)
(20.554 0.006935 0)
(20.5432 0.00647474 0)
(20.5309 0.00599319 0)
(20.5185 0.00551675 0)
(20.5048 0.00502121 0)
(20.4917 0.00455209 0)
(20.4774 0.00405078 0)
(20.4643 0.0035929 0)
(20.4501 0.00313534 0)
(20.4374 0.00274847 0)
(20.4236 0.00232912 0)
(20.4116 0.00199024 0)
(20.3985 0.00156961 0)
(20.3874 0.00120001 0)
(20.3752 0.000822925 0)
(20.365 0.000483505 0)
(20.3537 0.000121929 0)
(20.3445 -0.00019709 0)
(20.3344 -0.000532501 0)
(20.3264 -0.000858403 0)
(20.3175 -0.00116633 0)
(20.3105 -0.0014502 0)
(20.3027 -0.00174124 0)
(20.2965 -0.00200442 0)
(20.2899 -0.00227134 0)
(20.2843 -0.00248733 0)
(20.2786 -0.00267519 0)
(20.2733 -0.00290003 0)
(20.2683 -0.00305466 0)
(20.2633 -0.00358515 0)
(20.2596 -0.00388223 0)
(20.2554 -0.00678313 0)
(20.2548 -0.00753292 0)
(20.2526 -0.0239237 0)
(18.7845 0.00517934 0)
(18.8138 0.00980901 0)
(18.8592 0.0114114 0)
(18.9105 0.013095 0)
(18.9643 0.0142665 0)
(19.0201 0.0145256 0)
(19.0767 0.0143216 0)
(19.1322 0.0138151 0)
(19.185 0.0131399 0)
(19.235 0.0124075 0)
(19.2824 0.011608 0)
(19.3268 0.0108517 0)
(19.3686 0.0101294 0)
(19.4079 0.00949069 0)
(19.4451 0.0089562 0)
(19.4807 0.00856019 0)
(19.5151 0.00826349 0)
(19.5487 0.00803163 0)
(19.5817 0.0079054 0)
(19.6143 0.00781202 0)
(19.6467 0.00775864 0)
(19.6789 0.00771705 0)
(19.7109 0.00767043 0)
(19.7427 0.00761916 0)
(19.7742 0.00754798 0)
(19.8056 0.00747045 0)
(19.8367 0.00741952 0)
(19.8676 0.0073589 0)
(19.8984 0.00731599 0)
(19.9291 0.00726213 0)
(19.9596 0.00723943 0)
(19.9901 0.0072051 0)
(20.0204 0.00717733 0)
(20.0508 0.00720324 0)
(20.081 0.00718524 0)
(20.1112 0.00714467 0)
(20.1411 0.00711906 0)
(20.1711 0.00710293 0)
(20.2008 0.00708142 0)
(20.2305 0.0070546 0)
(20.26 0.00702965 0)
(20.2894 0.00698951 0)
(20.3185 0.00697516 0)
(20.3477 0.00691502 0)
(20.3765 0.00690096 0)
(20.4054 0.00687263 0)
(20.4338 0.00682728 0)
(20.4625 0.00677221 0)
(20.4904 0.00673714 0)
(20.5186 0.00670173 0)
(20.546 0.00666834 0)
(20.5739 0.00663407 0)
(20.6006 0.00659941 0)
(20.6281 0.00656801 0)
(20.654 0.00653708 0)
(20.6807 0.00650564 0)
(20.7057 0.00649159 0)
(20.7316 0.00646838 0)
(20.7554 0.00646588 0)
(20.7802 0.0064561 0)
(20.8025 0.00640723 0)
(20.8258 0.0063585 0)
(20.8463 0.00630495 0)
(20.8678 0.00625698 0)
(20.8862 0.00619717 0)
(20.9056 0.00613307 0)
(20.9216 0.00604997 0)
(20.9385 0.00595 0)
(20.9517 0.00583201 0)
(20.9658 0.00569365 0)
(20.9759 0.00553538 0)
(20.9869 0.00534724 0)
(20.9939 0.0051651 0)
(21.0017 0.00495823 0)
(21.006 0.00477015 0)
(21.0109 0.0045228 0)
(21.0128 0.00432212 0)
(21.015 0.00397466 0)
(21.0148 0.00375921 0)
(21.0143 0.00345048 0)
(21.0125 0.00311388 0)
(21.0101 0.00278888 0)
(21.0066 0.0024465 0)
(21.0025 0.00209708 0)
(20.9976 0.00173006 0)
(20.9925 0.00132277 0)
(20.9868 0.00094686 0)
(20.9811 0.000568432 0)
(20.9751 0.000218446 0)
(20.9689 -0.000130033 0)
(20.9624 -0.000465376 0)
(20.9556 -0.000798548 0)
(20.9487 -0.00108314 0)
(20.9414 -0.00141055 0)
(20.9346 -0.0016944 0)
(20.9272 -0.00233131 0)
(20.9212 -0.00288134 0)
(20.914 -0.00554633 0)
(20.9099 -0.00757254 0)
(20.9034 -0.0213249 0)
(18.7843 0.0012283 0)
(18.8131 0.00226155 0)
(18.8583 0.00269985 0)
(18.9096 0.00325322 0)
(18.9633 0.00361063 0)
(19.019 0.00366677 0)
(19.0756 0.00361647 0)
(19.131 0.00346303 0)
(19.1838 0.00325211 0)
(19.2338 0.00303678 0)
(19.2811 0.00278934 0)
(19.3256 0.00256507 0)
(19.3674 0.00234465 0)
(19.4066 0.00214231 0)
(19.4439 0.00195473 0)
(19.4795 0.0018284 0)
(19.514 0.00173108 0)
(19.5475 0.00163998 0)
(19.5805 0.00159267 0)
(19.6131 0.00155728 0)
(19.6455 0.00154375 0)
(19.6777 0.00154128 0)
(19.7097 0.00153981 0)
(19.7415 0.00153134 0)
(19.7731 0.00151579 0)
(19.8044 0.00148956 0)
(19.8355 0.00147797 0)
(19.8665 0.00146078 0)
(19.8973 0.00145 0)
(19.9279 0.00142974 0)
(19.9585 0.0014246 0)
(19.9889 0.00141182 0)
(20.0193 0.00139179 0)
(20.0497 0.00142476 0)
(20.0799 0.0014262 0)
(20.1101 0.0014058 0)
(20.1401 0.00139078 0)
(20.17 0.0013909 0)
(20.1998 0.00138101 0)
(20.2296 0.00137275 0)
(20.2591 0.00136142 0)
(20.2886 0.00134384 0)
(20.3179 0.00133883 0)
(20.3472 0.00130664 0)
(20.3762 0.00130302 0)
(20.4052 0.00131494 0)
(20.4341 0.00130338 0)
(20.4628 0.00128845 0)
(20.4914 0.00128265 0)
(20.5199 0.00128269 0)
(20.5482 0.00128033 0)
(20.5765 0.00127914 0)
(20.6045 0.00127792 0)
(20.6326 0.00127429 0)
(20.6604 0.00127248 0)
(20.6882 0.00125523 0)
(20.7158 0.00125801 0)
(20.7434 0.00122699 0)
(20.7706 0.00122644 0)
(20.798 0.00118911 0)
(20.8249 0.00116336 0)
(20.8519 0.00114519 0)
(20.8785 0.00112329 0)
(20.9052 0.00110875 0)
(20.9314 0.0010887 0)
(20.9577 0.0010767 0)
(20.9835 0.00106126 0)
(21.0094 0.00105476 0)
(21.0345 0.0010491 0)
(21.0599 0.00105827 0)
(21.0844 0.00105773 0)
(21.1091 0.00107914 0)
(21.1329 0.00110298 0)
(21.1566 0.00111985 0)
(21.1796 0.00112221 0)
(21.2021 0.00114153 0)
(21.2241 0.00114185 0)
(21.2453 0.00114823 0)
(21.266 0.00111537 0)
(21.2856 0.0010573 0)
(21.3049 0.00099981 0)
(21.3225 0.000963047 0)
(21.3399 0.00091916 0)
(21.3553 0.000863984 0)
(21.3707 0.000771355 0)
(21.3838 0.000649395 0)
(21.3969 0.000476029 0)
(21.4077 0.000287667 0)
(21.4181 0.000108631 0)
(21.4263 -2.27267e-05 0)
(21.4334 -0.00015266 0)
(21.4384 -0.000242579 0)
(21.4417 -0.000284725 0)
(21.4437 -0.000445135 0)
(21.4439 -0.00053779 0)
(21.4428 -0.0010177 0)
(21.4409 -0.00160903 0)
(21.4373 -0.00394294 0)
(21.4329 -0.00667504 0)
(21.425 -0.0182501 0)
(18.7843 -0.00286858 0)
(18.8133 -0.0056751 0)
(18.8586 -0.00644837 0)
(18.9099 -0.00706847 0)
(18.9636 -0.0075763 0)
(19.0193 -0.00773789 0)
(19.0759 -0.00762462 0)
(19.1313 -0.00740564 0)
(19.1841 -0.00712691 0)
(19.2341 -0.00680014 0)
(19.2814 -0.00647027 0)
(19.3259 -0.0061359 0)
(19.3677 -0.00583566 0)
(19.4069 -0.00558578 0)
(19.4442 -0.00541674 0)
(19.4798 -0.00526135 0)
(19.5143 -0.00515159 0)
(19.5478 -0.00509558 0)
(19.5808 -0.00505291 0)
(19.6135 -0.00502112 0)
(19.6458 -0.00498475 0)
(19.6781 -0.00494126 0)
(19.71 -0.00489612 0)
(19.7418 -0.00486402 0)
(19.7734 -0.00482875 0)
(19.8047 -0.00481259 0)
(19.8358 -0.0047953 0)
(19.8668 -0.00478414 0)
(19.8976 -0.00477598 0)
(19.9282 -0.0047737 0)
(19.9588 -0.0047662 0)
(19.9893 -0.00476138 0)
(20.0196 -0.00477408 0)
(20.05 -0.00472778 0)
(20.0802 -0.00470063 0)
(20.1104 -0.00469503 0)
(20.1404 -0.00468747 0)
(20.1703 -0.0046618 0)
(20.2002 -0.00464405 0)
(20.2299 -0.00462338 0)
(20.2595 -0.00460422 0)
(20.2889 -0.00458998 0)
(20.3183 -0.00457124 0)
(20.3474 -0.0045694 0)
(20.3766 -0.0045531 0)
(20.4055 -0.00451831 0)
(20.4344 -0.00451189 0)
(20.4631 -0.00450924 0)
(20.4917 -0.00450061 0)
(20.5201 -0.0044849 0)
(20.5485 -0.00447425 0)
(20.5767 -0.0044583 0)
(20.6048 -0.00445021 0)
(20.6328 -0.00443327 0)
(20.6607 -0.00442177 0)
(20.6883 -0.00441123 0)
(20.716 -0.00438865 0)
(20.7433 -0.00437106 0)
(20.7707 -0.00433177 0)
(20.7978 -0.00430552 0)
(20.8248 -0.00427992 0)
(20.8515 -0.00425141 0)
(20.8782 -0.00423618 0)
(20.9045 -0.00421264 0)
(20.9308 -0.00419854 0)
(20.9566 -0.00417664 0)
(20.9824 -0.00416296 0)
(21.0076 -0.00414864 0)
(21.0328 -0.00414165 0)
(21.0573 -0.00413535 0)
(21.0818 -0.00414667 0)
(21.1054 -0.00415608 0)
(21.129 -0.00415719 0)
(21.1516 -0.00416877 0)
(21.1741 -0.00416848 0)
(21.1953 -0.00418673 0)
(21.2165 -0.00414367 0)
(21.2363 -0.00413431 0)
(21.256 -0.00410355 0)
(21.274 -0.00408626 0)
(21.2918 -0.00404495 0)
(21.3077 -0.0039808 0)
(21.3232 -0.00389884 0)
(21.337 -0.00381823 0)
(21.3503 -0.00373768 0)
(21.3617 -0.00366561 0)
(21.3723 -0.00359776 0)
(21.381 -0.00349399 0)
(21.3886 -0.00333665 0)
(21.3944 -0.00310602 0)
(21.3991 -0.00285146 0)
(21.4024 -0.00253683 0)
(21.4046 -0.00219009 0)
(21.4055 -0.00188705 0)
(21.4052 -0.00172141 0)
(21.4037 -0.00181344 0)
(21.4012 -0.00206836 0)
(21.3969 -0.00386388 0)
(21.3913 -0.00638547 0)
(21.3815 -0.0158775 0)
(18.7846 -0.00688452 0)
(18.8144 -0.0132501 0)
(18.86 -0.0151583 0)
(18.9114 -0.0169166 0)
(18.9651 -0.0182383 0)
(19.021 -0.0186029 0)
(19.0776 -0.0183347 0)
(19.1331 -0.0177618 0)
(19.1858 -0.0170165 0)
(19.2359 -0.0161732 0)
(19.2832 -0.0152908 0)
(19.3277 -0.0144172 0)
(19.3695 -0.0136167 0)
(19.4087 -0.0129291 0)
(19.446 -0.0124176 0)
(19.4816 -0.0119892 0)
(19.516 -0.0116813 0)
(19.5496 -0.0114913 0)
(19.5826 -0.0113681 0)
(19.6152 -0.0112833 0)
(19.6476 -0.0112073 0)
(19.6798 -0.0111274 0)
(19.7118 -0.011041 0)
(19.7436 -0.0109716 0)
(19.7752 -0.0108836 0)
(19.8065 -0.0108204 0)
(19.8376 -0.0107645 0)
(19.8685 -0.0107154 0)
(19.8993 -0.0106775 0)
(19.93 -0.0106459 0)
(19.9605 -0.01062 0)
(19.991 -0.0105967 0)
(20.0214 -0.0106058 0)
(20.0518 -0.010545 0)
(20.0819 -0.0104989 0)
(20.1121 -0.0104779 0)
(20.1421 -0.010454 0)
(20.172 -0.010416 0)
(20.2018 -0.0103785 0)
(20.2313 -0.0103418 0)
(20.2609 -0.010302 0)
(20.2901 -0.010266 0)
(20.3194 -0.0102291 0)
(20.3483 -0.0102023 0)
(20.3773 -0.0101459 0)
(20.4059 -0.0100764 0)
(20.4345 -0.0100302 0)
(20.4626 -0.00999303 0)
(20.4908 -0.00994893 0)
(20.5185 -0.00989881 0)
(20.546 -0.00985377 0)
(20.5732 -0.00980571 0)
(20.6001 -0.00976531 0)
(20.6266 -0.00972684 0)
(20.6527 -0.00969299 0)
(20.6782 -0.00967378 0)
(20.7033 -0.00964955 0)
(20.7276 -0.00965349 0)
(20.7513 -0.00959676 0)
(20.7741 -0.00953545 0)
(20.7961 -0.00947976 0)
(20.817 -0.00942709 0)
(20.8371 -0.00937177 0)
(20.8557 -0.00930277 0)
(20.8734 -0.00921996 0)
(20.8894 -0.00911742 0)
(20.9043 -0.00899357 0)
(20.9173 -0.00884854 0)
(20.929 -0.00867853 0)
(20.9388 -0.00848935 0)
(20.9472 -0.00827876 0)
(20.9536 -0.00807903 0)
(20.9589 -0.00785572 0)
(20.9623 -0.00764182 0)
(20.9648 -0.00736718 0)
(20.9656 -0.00705331 0)
(20.9652 -0.00683124 0)
(20.9637 -0.00654412 0)
(20.9612 -0.00620901 0)
(20.9576 -0.00587806 0)
(20.9532 -0.00553107 0)
(20.9479 -0.00516646 0)
(20.942 -0.00480121 0)
(20.9354 -0.00444197 0)
(20.9285 -0.00409906 0)
(20.9211 -0.00376306 0)
(20.9135 -0.003439 0)
(20.9056 -0.00308564 0)
(20.8975 -0.00271133 0)
(20.8894 -0.00226424 0)
(20.8814 -0.00183973 0)
(20.8735 -0.00141621 0)
(20.8661 -0.00100479 0)
(20.8588 -0.000659632 0)
(20.8518 -0.00036356 0)
(20.8449 -0.000355833 0)
(20.8381 -0.000576496 0)
(20.8307 -0.00209792 0)
(20.8228 -0.00454252 0)
(20.8112 -0.012413 0)
(18.785 -0.0107608 0)
(18.8161 -0.0201358 0)
(18.8623 -0.0230474 0)
(18.9137 -0.0258619 0)
(18.9676 -0.0278846 0)
(19.0237 -0.0284159 0)
(19.0804 -0.0280035 0)
(19.136 -0.0271079 0)
(19.1887 -0.0259434 0)
(19.2388 -0.0246442 0)
(19.2862 -0.0232718 0)
(19.3307 -0.0219184 0)
(19.3724 -0.0206729 0)
(19.4117 -0.0195872 0)
(19.4488 -0.0187663 0)
(19.4845 -0.0180793 0)
(19.5189 -0.0175756 0)
(19.5524 -0.0172509 0)
(19.5854 -0.0170382 0)
(19.618 -0.0168988 0)
(19.6505 -0.0167801 0)
(19.6826 -0.016667 0)
(19.7147 -0.0165485 0)
(19.7464 -0.0164538 0)
(19.778 -0.0163321 0)
(19.8092 -0.0162405 0)
(19.8403 -0.0161618 0)
(19.8711 -0.0160842 0)
(19.9019 -0.016018 0)
(19.9324 -0.0159651 0)
(19.9628 -0.0159219 0)
(19.993 -0.0158814 0)
(20.0232 -0.0158865 0)
(20.0532 -0.0158022 0)
(20.0831 -0.0157279 0)
(20.1127 -0.0156781 0)
(20.1422 -0.0156204 0)
(20.1713 -0.0155525 0)
(20.2002 -0.0154819 0)
(20.2286 -0.0154095 0)
(20.2567 -0.0153407 0)
(20.2843 -0.0152717 0)
(20.3112 -0.0152153 0)
(20.3375 -0.0152113 0)
(20.363 -0.0151346 0)
(20.3876 -0.0150398 0)
(20.411 -0.0149609 0)
(20.4334 -0.0148852 0)
(20.4542 -0.014802 0)
(20.4737 -0.0146987 0)
(20.4913 -0.0145852 0)
(20.5073 -0.0144438 0)
(20.521 -0.0142784 0)
(20.5327 -0.0140822 0)
(20.542 -0.0138473 0)
(20.549 -0.0135775 0)
(20.5533 -0.0133014 0)
(20.5554 -0.0129517 0)
(20.5551 -0.0127159 0)
(20.5529 -0.0123664 0)
(20.5488 -0.0119766 0)
(20.5427 -0.0115647 0)
(20.535 -0.0111264 0)
(20.5256 -0.0106691 0)
(20.5148 -0.0101925 0)