/*--------------------------------*- C++ -*----------------------------------*\
| =========                 |                                                 |
| \\      /  F ield         | OpenFOAM: The Open Source CFD Toolbox           |
|  \\    /   O peration     | Version:  v2012                                 |
|   \\  /    A nd           | Website:  www.openfoam.com                      |
|    \\/     M anipulation  |                                                 |
\*---------------------------------------------------------------------------*/
FoamFile
{
    version     2.0;
    format      ascii;
    class       volScalarField;
    location    "0.139";
    object      epsilon.air;
}
// * * * * * * * * * * * * * * * * * * * * * * * * * * * * * * * * * * * * * //

dimensions      [0 2 -3 0 0 0 0];


internalField   nonuniform List<scalar> 
1900
(
112.724
141.424
210.097
257.591
369.051
443.457
614.739
724.907
971.316
1128.62
15.4676
16.4471
18.6375
20.4503
23.7572
27.7275
32.0033
39.2882
45.1248
56.7665
14.7926
14.6415
14.5755
14.5063
14.5148
14.5574
14.6409
14.8309
15.0773
15.4134
14.77
14.6304
14.4634
14.3354
14.1726
14.059
13.904
13.8079
13.6654
13.5937
14.7766
14.6216
14.4704
14.3205
14.1747
14.0289
13.8889
13.7472
13.6139
13.4769
14.7777
14.6206
14.4713
14.3197
14.1754
14.0284
13.8891
13.7472
13.6133
13.4773
14.7776
14.6207
14.473
14.3235
14.184
14.045
13.9175
13.7915
13.6807
13.5716
14.7759
14.6499
14.5637
14.5033
14.5107
14.5517
14.6366
14.8203
15.0459
15.3949
15.2096
16.6022
18.2751
20.6781
23.5933
27.5684
32.27
38.3978
45.5775
54.8025
105.88
146.626
198.312
265.796
349.967
456.058
585.632
743.659
931.835
1154.03
4101.39
15203.7
19568.9
22420.2
21088.1
18005.2
15083.8
12801.5
11310.4
10392.6
9891.24
9710.49
9529.6
9258.37
8850.82
8351.37
7796.28
7209.9
6644.45
6126.42
5649.36
5222.35
4837.96
4487.08
4167.65
3878.05
3615.39
3377.86
3162.14
2966.4
2788.24
2625.64
2476.87
2340.41
2215.07
2099.68
1993.27
1894.91
1803.85
1719.35
1640.85
1567.77
1499.65
1436.06
1376.61
1320.95
1268.77
1219.77
1173.69
1130.27
1089.3
1050.56
1013.88
979.086
946.04
914.594
884.646
856.067
828.789
802.687
777.725
753.777
730.837
708.772
687.61
667.207
647.632
628.716
610.578
593.014
576.201
559.879
544.295
529.115
514.668
500.525
487.123
473.907
461.461
449.069
437.502
425.842
415.096
404.09
394.13
383.714
374.521
364.633
356.202
346.775
339.11
330.062
323.175
314.407
308.323
299.717
294.474
285.891
281.518
271.212
113.217
337.857
517.818
921.499
1123.45
1148.78
1121.47
1058.58
1053.58
1093.08
1198.52
1412.48
1698.63
2029.54
2379.86
2693.28
2971.42
3203.15
3358.42
3434.73
3426.62
3387.34
3301.11
3183.62
3055.57
2924.38
2793.64
2667.25
2543.83
2426.5
2314.48
2207.52
2106.15
2010.2
1919.83
1834.75
1754.83
1679.56
1608.73
1542.01
1479.17
1419.88
1363.94
1311.1
1261.18
1213.96
1169.28
1126.95
1086.8
1048.68
1012.43
977.915
945.008
913.581
883.537
854.764
827.194
800.728
775.326
750.897
727.426
704.817
683.079
662.104
641.933
622.44
603.7
585.559
568.139
551.25
535.065
519.343
504.323
489.692
475.767
462.144
449.239
436.533
424.57
412.684
401.59
390.435
380.153
369.651
360.14
350.224
341.465
332.071
324.054
315.116
307.842
299.28
292.758
284.476
278.724
270.607
265.658
257.575
253.459
243.772
16.4293
19.871
22.8857
29.0855
34.7669
38.7135
41.6874
43.7731
46.7332
50.7601
58.8351
71.1098
95.7938
130.41
189.829
267.704
374.591
509.232
666.342
837.095
1005.33
1162.46
1301.44
1417.85
1508.38
1571.7
1610.02
1628.15
1625.73
1615.22
1592.64
1562.38
1527.92
1490.52
1451.79
1411.94
1372
1331.64
1291.81
1252.63
1214.21
1176.66
1140.12
1104.63
1070.24
1036.91
1004.71
973.58
943.495
914.446
886.39
859.278
833.07
807.708
783.169
759.391
736.368
714.038
692.417
671.449
651.162
631.494
612.484
594.056
576.27
559.024
542.408
526.281
510.773
495.703
481.251
467.182
453.74
440.622
428.145
415.918
404.352
392.943
382.223
371.55
361.614
351.597
342.393
332.96
324.449
315.536
307.697
299.245
292.071
284.022
277.513
269.796
263.959
256.492
251.342
244.024
239.586
232.306
228.606
219.887
13.4533
13.4608
13.5469
13.8034
14.3345
15.007
15.7167
16.3353
16.9209
17.3398
17.8975
18.3631
19.3211
20.4874
22.7683
26.2336
31.8273
40.822
54.7542
76.1928
106.495
147.032
198.45
259.97
329.334
404.021
479.42
553.536
621.253
683.35
736.914
781.118
815.84
841.353
859.291
870.207
875.489
874.884
872.131
866.068
857.341
846.694
834.683
821.338
807.079
791.992
776.389
760.183
743.719
727.088
710.328
693.517
676.736
660.017
643.435
626.975
610.73
594.671
578.895
563.362
548.174
533.286
518.779
504.605
490.853
477.445
464.48
451.833
439.638
427.724
416.28
405.071
394.36
383.833
373.833
363.956
354.636
345.355
336.671
327.935
319.853
311.604
304.085
296.265
289.28
281.84
275.375
268.271
262.329
255.522
250.105
243.54
238.657
232.272
227.94
221.664
217.905
211.658
208.491
201.006
13.3299
13.1589
13.0629
13.1172
13.3059
13.7178
14.2848
14.9054
15.4443
15.8761
16.2066
16.4334
16.6238
16.7625
16.916
17.0863
17.3503
17.7284
18.3268
19.3034
20.8347
23.2513
26.7434
32.082
39.6368
50.4286
64.6931
83.2538
106.003
133.13
163.946
197.514
232.908
268.498
303.627
336.631
367.644
395.55
420.25
441.331
459.027
473.271
484.591
492.973
498.892
502.536
504.34
504.064
502.905
500.371
496.583
491.877
486.431
480.317
473.693
466.606
459.217
451.499
443.646
435.578
427.515
419.346
411.22
403.128
395.167
387.269
379.527
371.836
364.327
356.858
349.615
342.379
335.426
328.432
321.792
315.054
308.731
302.259
296.264
290.036
284.351
278.338
272.951
267.122
262.028
256.363
251.568
246.047
241.553
236.151
231.983
226.688
222.875
217.663
214.23
209.067
206.039
200.888
198.286
192.098
13.3251
13.1542
13.0319
13.0868
13.2963
13.7731
14.4982
15.4816
16.5009
17.5948
18.5901
19.5213
20.2636
20.8746
21.3003
21.6106
21.7824
21.8497
21.8336
21.7881
21.6949
21.6
21.5295
21.5555
21.6628
21.9217
22.4459
23.362
24.7957
26.9848
30.1931
34.6351
40.6862
48.3503
57.8712
69.1695
82.3588
97.0669
113.195
130.147
147.694
165.256
182.581
199.231
214.976
229.556
242.938
254.963
265.705
275.212
283.508
290.71
296.891
302.161
306.58
310.227
313.196
315.476
317.231
318.326
319.095
319.145
318.955
318.461
317.46
316.098
314.44
312.48
310.312
307.877
305.3
302.466
299.579
296.403
293.339
289.888
286.682
283.044
279.755
275.981
272.653
268.768
265.435
261.457
258.15
254.098
250.852
246.743
243.598
239.447
236.436
232.255
229.415
225.213
222.581
218.365
215.972
211.75
209.63
204.553
13.4657
13.3602
13.4098
13.6563
14.3048
15.6864
18.0296
21.4307
25.3952
29.6855
33.6068
37.0851
39.6062
41.5426
42.6204
43.3601
43.3734
43.236
42.8842
42.3939
41.7803
41.1419
40.4906
39.896
39.3653
38.8935
38.5128
38.2404
38.1198
38.1706
38.3414
38.706
39.3391
40.2159
41.5668
43.241
45.5837
48.4707
52.2395
56.8806
62.6068
69.4955
77.5772
86.9676
97.5275
109.287
121.984
135.559
149.677
164.243
178.878
193.519
207.798
221.726
234.995
247.65
259.473
270.506
280.653
289.927
298.342
305.87
312.541
318.4
323.461
327.756
331.332
334.195
336.375
338.006
339.017
339.54
339.464
339.126
338.449
337.105
335.885
333.916
332.256
329.805
327.811
324.976
322.736
319.587
317.178
313.778
311.271
307.674
305.13
301.381
298.857
294.999
292.548
288.622
286.289
282.333
280.16
276.215
274.264
269.599
15.9102
16.8583
18.5487
21.9315
28.4195
39.4872
55.4539
74.9782
95.412
114.191
129.265
140.172
146.478
150.103
150.803
150.402
149.279
147.663
146.173
145.111
144.474
144.629
145.267
146.731
149.057
152.293
156.196
161.215
166.988
173.93
181.698
190.509
200.487
211.295
223.533
236.439
250.732
265.664
281.645
298.289
315.559
333.378
351.306
369.493
387.394
405.238
422.566
439.528
455.822
471.564
486.496
500.826
514.241
527.066
538.943
550.126
560.333
569.707
578.147
585.659
592.301
597.944
602.745
606.529
609.479
611.444
612.768
612.83
612.472
611.536
609.709
607.237
604.355
600.812
597.195
592.799
588.733
583.762
579.385
574.071
569.549
564.012
559.437
553.745
549.2
543.427
538.997
533.206
528.96
523.191
519.182
513.478
509.755
504.155
500.745
495.265
492.208
486.865
484.269
478.213
68.046
90.4235
126.244
184.902
272.021
385.125
511.484
635.568
744.909
831.403
892.506
932.733
953.403
963.402
964.705
963.688
960.747
957.168
956.594
957.637
960.384
965.82
974.988
986.652
1000.51
1016.54
1034.98
1055.5
1077.71
1101.36
1126.21
1152.07
1178.87
1205.84
1233.25
1259.9
1286.48
1311.78
1336.4
1359.51
1381.3
1401.54
1420.17
1437.41
1452.96
1467.2
1479.88
1491.3
1501.34
1510.15
1517.62
1523.86
1528.72
1532.36
1534.72
1535.56
1535.17
1533.82
1531.07
1526.92
1522.1
1515.79
1509.15
1501.05
1492.62
1483.19
1473.09
1462.31
1451.15
1439.28
1427.24
1414.41
1401.79
1388.34
1375.53
1361.79
1348.97
1335.26
1322.71
1309.23
1297.17
1284.02
1272.51
1259.73
1248.85
1236.52
1226.37
1214.56
1205.24
1193.92
1185.47
1174.65
1167.09
1156.74
1150.05
1140.13
1134.33
1124.77
1120.07
1109.52
1464.75
1897.25
2399.14
2961.99
3563.18
4171.92
4745.97
5251.12
5655.12
5950.6
6132.55
6219.67
6207.08
6160.16
6061.28
5927.95
5777.69
5619.3
5458.99
5301.44
5149.37
5004.61
4867.82
4739.92
4620.91
4510.83
4409.21
4316.08
4230.94
4153.6
4083.4
4020.02
3962.98
3911.88
3866.44
3825.89
3790.25
3758.7
3731.42
3707.72
3687.52
3670.25
3655.73
3643.66
3633.7
3625.51
3618.82
3613.32
3608.91
3605.35
3602.53
3600.39
3598.91
3597.88
3597.75
3597.94
3598.5
3599.44
3600.97
3602.28
3604.18
3605.48
3607.18
3608.22
3609.34
3609.97
3610.36
3610.29
3609.96
3609.13
3608
3605.72
3603.47
3599.61
3595.94
3590.36
3585.15
3577.9
3571.3
3562.61
3554.94
3545.07
3536.58
3525.74
3516.63
3504.93
3495.38
3482.82
3472.88
3459.39
3449.19
3434.75
3424.5
3409.13
3399.19
3382.85
3373.54
3356.29
3347.52
3325.53
1109.12
1064.53
1122.21
1210.19
1238.99
1121.4
818.662
1980.2
54625.4
16120.1
7354.8
6108.67
6236.25
6487.06
6557.95
8032.48
74278.2
43665.2
24857.4
18479
16110.1
15008.2
14635.8
19683.6
76409.4
71051.1
54285.9
41222.6
32704.4
27168.8
24553.4
34079.8
69717.2
75709.2
67757.8
55658.2
44570.5
35842.4
30861.5
42701.6
57746.5
71171.2
67938.4
59032.3
48368
38725.8
32775.8
45212.8
47488.1
61824.9
62477.9
56599.4
47154
38167.2
32443.3
44224.1
39097.6
51817.8
53576.5
49826.2
42385
34669.3
29587.4
39750.7
32639.7
42992.1
44918.2
42129.2
36299.4
30042.9
25824.4
34045.3
27617.9
35629.5
37260.7
35117.7
30546.8
25562.8
22231.9
29387.8
23496.5
29592
30830.4
29129.1
25539.6
21642.5
19169.3
26033.8
20111.7
24700.9
25581.1
24192.1
21349.6
18308.4
16506.6
22998.7
17371.5
20786.2
21375.1
20217.6
17947.4
15564.5
14275
20379.1
15138.3
17660.6
18027.7
17048.1
15219.4
13338.5
12434.7
18169.7
13288.4
15150
15357.3
14521.3
13034.7
11539.6
10928.4
16333.5
11727.6
13108.4
13206.5
12489.9
11272.1
10077.5
9690.74
14804.9
10404.7
11436.9
11461.6
10845
9839.87
8880.97
8667.85
13528
9266.84
10050.1
10030.7
9497.58
8663.58
7892.18
7815.19
12453.4
8285.69
8888.97
8844.83
8382.28
7687.19
7066.79
7096.89
11540.5
7443.02
7911.45
7852.81
7450.94
6869.14
6371.3
6484.98
10759
6716.35
7083.36
7016.8
6666.92
6177.93
5779.9
5960.66
10083.9
6089.98
6378.49
6307.9
6002.27
5589.54
5273.08
5507.91
9495.88
5547.72
5775.03
5703.01
5435.11
5085.46
4836.07
5114.56
8980.52
5073.9
5254.14
5182.84
4947.5
4650.66
4456.98
4771.1
8526.72
4657.61
4801.53
4732.42
4525.39
4273.14
4126.18
4469.59
8125.1
4290.33
4406.07
4340.12
4157.8
3943.48
3835.95
4203.58
7768.04
3964.82
4058.58
3996.42
3835.83
3653.98
3579.95
3967.71
7448.96
3675.61
3751.95
3693.87
3552.38
3398.5
3353.11
3757.64
7162.53
3417.48
3480.06
3426.19
3301.62
3171.97
3151.21
3569.86
6904.59
3186.5
3238.07
3188.39
3078.8
2970.26
2970.88
3401.38
6671.69
2978.97
3021.76
2976.22
2879.99
2789.98
2808.83
3249.9
6460.86
2791.85
2827.62
2786.12
2701.83
2628.13
2662.88
3113.15
6269.67
2622.54
2652.71
2615.09
2541.55
2482.27
2531.03
2989.31
6096.02
2468.79
2494.51
2460.62
2396.79
2350.32
2411.52
2876.8
5937.99
2328.76
2350.93
2320.61
2265.54
2230.53
2302.81
2774.27
5793.81
2200.85
2220.2
2193.27
2146.14
2121.4
2203.6
2680.53
5661.85
2083.7
2100.81
2077.1
2037.18
2021.68
2112.78
2594.58
5540.7
1976.13
1991.47
1970.8
1937.44
1930.29
2029.41
2515.55
5429.1
1877.12
1891.09
1873.31
1845.94
1846.34
1952.69
2442.7
5326.02
1785.79
1798.72
1783.68
1761.8
1768.95
1881.98
2375.43
5230.51
1701.38
1713.56
1701.11
1684.26
1697.53
1816.65
2313.19
5141.82
1623.22
1634.88
1624.88
1612.66
1631.51
1756.19
2255.53
5059.34
1550.71
1562.05
1554.38
1546.41
1570.38
1700.14
2202.06
4982.61
1483.34
1494.5
1489.05
1485.02
1513.7
1648.12
2152.43
4911.23
1420.62
1431.76
1428.41
1428.04
1461.04
1599.77
2106.34
4844.89
1362.16
1373.38
1372.03
1375.02
1412.08
1554.78
2063.52
4783.29
1307.56
1318.95
1319.5
1325.6
1366.45
1512.84
2023.68
4726.12
1256.47
1268.09
1270.47
1279.48
1323.86
1473.71
1986.59
4673.12
1208.59
1220.5
1224.6
1236.36
1284.02
1437.11
1952.02
4623.95
1163.63
1175.88
1181.63
1195.96
1246.7
1402.84
1919.77
4578.37
1121.33
1133.97
1141.3
1158.05
1211.66
1370.69
1889.61
4536.01
1081.48
1094.53
1103.37
1122.4
1178.73
1340.48
1861.38
4496.59
1043.85
1057.36
1067.64
1088.83
1147.7
1312.03
1834.89
4459.77
1008.27
1022.26
1033.93
1057.17
1118.43
1285.21
1810
4425.27
974.58
989.074
1002.09
1027.25
1090.78
1259.88
1786.55
4392.84
942.62
957.644
971.953
998.937
1064.61
1235.92
1764.44
4362.22
912.275
927.847
943.402
972.119
1039.82
1213.23
1743.55
4333.3
883.402
899.539
916.297
946.665
1016.28
1191.69
1723.78
4305.82
855.919
872.632
890.552
922.491
993.928
1171.25
1705.07
4279.81
829.691
846.99
866.034
899.474
972.644
1151.79
1687.31
4255.02
804.67
822.558
842.69
877.563
952.381
1133.28
1670.47
4231.58
780.718
799.2
820.384
856.631
933.026
1115.61
1654.45
4209.23
757.821
776.896
799.101
836.663
914.564
1098.76
1639.25
4188.13
735.837
755.502
778.696
817.525
896.875
1082.65
1624.77
4168
714.79
735.043
759.196
799.242
879.979
1067.27
1611.01
4149.05
694.524
715.358
740.444
781.666
863.746
1052.52
1597.9
4130.91
675.11
696.522
722.514
764.87
848.235
1038.43
1585.43
4113.89
656.368
678.347
705.22
748.675
833.288
1024.9
1573.53
4097.52
638.421
660.962
688.694
733.212
819.026
1012
1562.24
4082.24
621.052
644.139
672.701
718.246
805.23
999.553
1551.44
4067.42
604.443
628.072
657.444
703.987
792.103
987.737
1541.25
4053.76
588.32
612.466
642.614
690.115
779.33
976.26
1531.42
4040.3
572.939
597.597
628.505
676.943
767.231
965.432
1522.24
4028.14
557.943
583.079
614.704
664.029
755.347
954.795
1513.25
4015.85
543.684
569.294
601.625
651.827
744.166
944.855
1504.99
4005.12
529.695
555.734
588.717
639.733
733.032
934.914
1496.68
3993.73
516.453
542.921
576.555
628.391
722.661
925.761
1489.25
3984.32
503.353
530.195
564.409
616.981
712.132
916.36
1481.44
3973.52
491.033
518.257
553.067
606.402
702.48
907.906
1474.74
3965.25
478.711
506.25
541.566
595.554
692.425
898.891
1467.23
3954.66
467.235
495.11
530.967
585.665
683.419
891.065
1461.19
3947.28
455.6
483.73
520.018
575.281
673.731
882.306
1453.79
3936.56
444.913
473.336
510.113
566.033
665.321
875.053
1448.34
3929.78
433.891
462.513
499.648
556.045
655.927
866.465
1440.93
3918.72
423.961
452.834
490.408
547.41
648.083
859.744
1435.99
3912.32
413.492
442.513
480.379
537.776
638.944
851.287
1428.53
3900.87
404.305
433.538
471.793
529.74
631.651
845.075
1424.05
3894.74
394.333
423.67
462.158
520.432
622.753
836.751
1416.55
3883.01
385.885
415.399
454.228
512.999
616.011
831.043
1412.52
3877.15
376.347
405.928
444.945
503.99
607.351
822.88
1405.09
3865.41
368.647
398.371
437.684
497.174
601.174
817.689
1401.49
3859.79
359.467
389.231
428.702
488.437
592.758
809.742
1394.28
3848.42
352.531
382.407
422.13
482.256
587.155
805.057
1391.01
3843.13
343.616
373.517
413.385
473.752
578.989
797.409
1384.28
3832.42
337.473
367.457
407.531
468.231
573.974
793.219
1381.34
3827.51
328.709
358.713
398.937
459.901
566.039
785.915
1375.18
3817.79
323.398
353.455
393.836
455.064
561.618
782.194
1372.52
3813.03
314.655
344.736
385.284
446.821
553.862
775.243
1366.96
3804.53
310.2
340.297
380.941
442.659
549.998
771.898
1364.49
3800.39
299.672
329.767
370.584
432.65
540.576
763.508
1357.78
3791.23
)
;

boundaryField
{
    frontAndBack
    {
        type            empty;
    }
    inlet
    {
        type            fixedValue;
        value           uniform 14.855;
    }
    outlet
    {
        type            zeroGradient;
    }
    walls
    {
        lowReCorrection 0;
        blending        stepwise;
        n               2;
        type            epsilonWallFunction;
        value           nonuniform List<scalar> 
228
(
112.724
141.424
210.097
257.591
369.051
443.457
614.739
724.907
971.316
1128.62
1109.12
1064.53
1122.21
1210.19
1238.99
1121.4
818.662
1980.2
1980.2
8032.48
19683.6
34079.8
42701.6
45212.8
44224.1
39750.7
34045.3
29387.8
26033.8
22998.7
20379.1
18169.7
16333.5
14804.9
13528
12453.4
11540.5
10759
10083.9
9495.88
8980.52
8526.72
8125.1
7768.04
7448.96
7162.53
6904.59
6671.69
6460.86
6269.67
6096.02
5937.99
5793.81
5661.85
5540.7
5429.1
5326.02
5230.51
5141.82
5059.34
4982.61
4911.23
4844.89
4783.29
4726.12
4673.12
4623.95
4578.37
4536.01
4496.59
4459.77
4425.27
4392.84
4362.22
4333.3
4305.82
4279.81
4255.02
4231.58
4209.23
4188.13
4168
4149.05
4130.91
4113.89
4097.52
4082.24
4067.42
4053.76
4040.3
4028.14
4015.85
4005.12
3993.73
3984.32
3973.52
3965.25
3954.66
3947.28
3936.56
3929.78
3918.72
3912.32
3900.87
3894.74
3883.01
3877.15
3865.41
3859.79
3848.42
3843.13
3832.42
3827.51
3817.79
3813.03
3804.53
3800.39
3791.23
105.88
146.626
198.312
265.796
349.967
456.058
585.632
743.659
931.835
1154.03
1464.75
1897.25
2399.14
2961.99
3563.18
4171.92
4745.97
5251.12
5655.12
5950.6
6132.55
6219.67
6207.08
6160.16
6061.28
5927.95
5777.69
5619.3
5458.99
5301.44
5149.37
5004.61
4867.82
4739.92
4620.91
4510.83
4409.21
4316.08
4230.94
4153.6
4083.4
4020.02
3962.98
3911.88
3866.44
3825.89
3790.25
3758.7
3731.42
3707.72
3687.52
3670.25
3655.73
3643.66
3633.7
3625.51
3618.82
3613.32
3608.91
3605.35
3602.53
3600.39
3598.91
3597.88
3597.75
3597.94
3598.5
3599.44
3600.97
3602.28
3604.18
3605.48
3607.18
3608.22
3609.34
3609.97
3610.36
3610.29
3609.96
3609.13
3608
3605.72
3603.47
3599.61
3595.94
3590.36
3585.15
3577.9
3571.3
3562.61
3554.94
3545.07
3536.58
3525.74
3516.63
3504.93
3495.38
3482.82
3472.88
3459.39
3449.19
3434.75
3424.5
3409.13
3399.19
3382.85
3373.54
3356.29
3347.52
3325.53
)
;
    }
}


// ************************************************************************* //
