/*--------------------------------*- C++ -*----------------------------------*\
| =========                 |                                                 |
| \\      /  F ield         | OpenFOAM: The Open Source CFD Toolbox           |
|  \\    /   O peration     | Version:  v2012                                 |
|   \\  /    A nd           | Website:  www.openfoam.com                      |
|    \\/     M anipulation  |                                                 |
\*---------------------------------------------------------------------------*/
FoamFile
{
    version     2.0;
    format      ascii;
    class       surfaceScalarField;
    location    "0.085";
    object      phi.air;
}
// * * * * * * * * * * * * * * * * * * * * * * * * * * * * * * * * * * * * * //

dimensions      [0 3 -1 0 0 0 0];
oriented        oriented;


internalField   nonuniform List<scalar> 
10964
(
0.000657106
2.51274e-05
0.000628901
2.73635e-05
0.000601318
2.67391e-05
0.000575025
2.54471e-05
0.000551119
2.30582e-05
0.000530163
2.0106e-05
0.000512502
1.68098e-05
0.000497898
1.37521e-05
0.00048591
1.11342e-05
0.000476268
8.78765e-06
0.000468659
6.7535e-06
0.000462711
5.09324e-06
0.000458074
3.78146e-06
0.000454435
2.78345e-06
0.000451539
2.03987e-06
0.000449195
1.48747e-06
0.000447254
1.0854e-06
0.000445612
7.86464e-07
0.000444197
5.58906e-07
0.000442977
3.64169e-07
0.000441917
2.03786e-07
0.000441018
4.31065e-08
0.000440283
-1.21057e-07
0.000439683
-2.55514e-07
0.00043918
-3.53763e-07
0.000438755
-4.30381e-07
0.000438402
-5.02436e-07
0.000438105
-5.5936e-07
0.000437848
-5.98592e-07
0.000437613
-6.20219e-07
0.000437382
-6.24645e-07
0.000437148
-6.2239e-07
0.000436914
-6.20897e-07
0.000436676
-6.17605e-07
0.00043644
-6.19508e-07
0.000436208
-6.23851e-07
0.000435983
-6.30591e-07
0.000435759
-6.30981e-07
0.000435529
-6.26315e-07
0.000435296
-6.22155e-07
0.000435054
-6.13183e-07
0.000434803
-6.04762e-07
0.000434554
-6.06623e-07
0.000434322
-6.24047e-07
0.000434119
-6.52665e-07
0.000433951
-6.87705e-07
0.000433821
-7.25092e-07
0.000433728
-7.62846e-07
0.000433668
-7.95122e-07
0.000433634
-8.22055e-07
0.000433618
-8.38945e-07
0.00043362
-8.57693e-07
0.000433624
-8.60227e-07
0.000433642
-8.72941e-07
0.000433661
-8.75254e-07
0.000433681
-8.75724e-07
0.000433697
-8.71266e-07
0.000433711
-8.69323e-07
0.000433718
-8.62788e-07
0.000433728
-8.66064e-07
0.000433727
-8.53595e-07
0.000433737
-8.6595e-07
0.000433729
-8.47648e-07
0.00043374
-8.66696e-07
0.000433732
-8.47914e-07
0.000433734
-8.57748e-07
0.000433755
-8.76277e-07
0.000433706
-8.06244e-07
0.000433761
-9.10796e-07
0.000433718
-8.12883e-07
0.000433748
-8.85569e-07
0.000433736
-8.42901e-07
0.00043372
-8.40507e-07
0.000433799
-9.3373e-07
0.000433653
-7.10326e-07
0.000433783
-9.85637e-07
0.000433719
-7.90432e-07
0.00043374
-8.77142e-07
0.000433741
-8.56121e-07
0.0004337
-8.1582e-07
0.000433757
-9.11391e-07
0.000433626
-7.25164e-07
0.000433772
-1.00178e-06
0.000433613
-6.96054e-07
0.000433671
-9.13974e-07
0.00043361
-7.93816e-07
0.00043357
-8.16468e-07
0.000433642
-9.27245e-07
0.00043327
-4.84229e-07
0.000433777
-1.36297e-06
0.000433275
-3.52291e-07
0.000433356
-9.37873e-07
0.000433284
-7.82146e-07
0.000432909
-4.81891e-07
0.000432847
-7.92966e-07
0.000431863
1.27635e-07
0.000432506
-1.49886e-06
0.000429856
1.79495e-06
0.000430355
-1.35623e-06
1.36805e-05
0.000415819
0.000757085
2.43229e-05
0.000754876
2.95721e-05
0.000751202
3.04135e-05
0.000745928
3.07211e-05
0.000739362
2.96241e-05
0.000731832
2.76357e-05
0.000723576
2.50662e-05
0.000714968
2.23599e-05
0.000706313
1.97887e-05
0.000697781
1.73198e-05
0.000689587
1.49482e-05
0.00068184
1.28403e-05
0.000674621
1.10003e-05
0.000667976
9.42794e-06
0.000661924
8.09231e-06
0.000656453
6.95838e-06
0.000651544
5.99489e-06
0.00064716
5.16962e-06
0.000643279
4.44006e-06
0.000639873
3.77054e-06
0.000636905
3.17178e-06
0.000634314
2.63416e-06
0.000632005
2.18759e-06
0.000629945
1.80467e-06
0.000628097
1.49435e-06
0.000626433
1.23394e-06
0.000624909
1.02127e-06
0.000623485
8.64056e-07
0.000622153
7.33518e-07
0.000620913
6.19846e-07
0.000619763
5.25464e-07
0.000618704
4.36918e-07
0.000617732
3.5099e-07
0.000616831
2.82984e-07
0.000615993
2.19393e-07
0.000615214
1.54953e-07
0.000614497
8.65778e-08
0.000613831
3.46829e-08
0.000613209
-4.05418e-09
0.00061263
-4.3518e-08
0.000612084
-6.76552e-08
0.000611567
-8.73326e-08
0.000611083
-1.22585e-07
0.000610646
-1.87029e-07
0.000610269
-2.75572e-07
0.00060996
-3.78494e-07
0.000609717
-4.8206e-07
0.000609539
-5.85539e-07
0.000609418
-6.73516e-07
0.000609341
-7.45438e-07
0.0006093
-7.9811e-07
0.000609285
-8.42496e-07
0.000609282
-8.574e-07
0.000609301
-8.9139e-07
0.000609328
-9.02257e-07
0.000609355
-9.03144e-07
0.000609381
-8.9732e-07
0.0006094
-8.87912e-07
0.000609415
-8.77614e-07
0.000609425
-8.76778e-07
0.000609432
-8.6039e-07
0.000609438
-8.71788e-07
0.00060944
-8.50002e-07
0.000609443
-8.69377e-07
0.000609447
-8.51941e-07
0.000609434
-8.44964e-07
0.000609447
-8.88774e-07
0.000609443
-8.02743e-07
0.00060944
-9.07228e-07
0.000609443
-8.16356e-07
0.000609438
-8.80883e-07
0.000609451
-8.55781e-07
0.000609408
-7.96951e-07
0.000609441
-9.67436e-07
0.000609443
-7.12163e-07
0.000609415
-9.56922e-07
0.000609424
-7.9986e-07
0.000609393
-8.4605e-07
0.000609398
-8.60848e-07
0.000609342
-7.60425e-07
0.000609372
-9.40774e-07
0.000609331
-6.84822e-07
0.000609288
-9.58555e-07
0.000609289
-6.9672e-07
0.000609251
-8.76467e-07
0.000609233
-7.75687e-07
0.00060915
-7.33534e-07
0.000609214
-9.91515e-07
0.000609049
-3.18683e-07
0.000609008
-1.32168e-06
0.000609009
-3.53205e-07
0.000608752
-6.81634e-07
0.000608684
-7.13577e-07
0.000608281
-7.8969e-08
0.000608435
-9.47354e-07
0.00060786
7.0307e-07
0.000607705
-1.34421e-06
0.000606471
3.02869e-06
0.00060419
9.24838e-07
2.2564e-05
0.000595307
0.000840343
2.13135e-05
0.000842331
2.75831e-05
0.000844302
2.84432e-05
0.000845632
2.93906e-05
0.000846214
2.9042e-05
0.000845986
2.78645e-05
0.000845036
2.60158e-05
0.000843329
2.40673e-05
0.000840904
2.22134e-05
0.000837777
2.04469e-05
0.000834025
1.87e-05
0.000829712
1.71534e-05
0.00082494
1.57718e-05
0.000819829
1.45389e-05
0.000814507
1.34142e-05
0.000809091
1.23745e-05
0.000803704
1.1382e-05
0.00079845
1.04238e-05
0.00079342
9.46986e-06
0.000788681
8.51008e-06
0.00078426
7.59239e-06
0.000780184
6.71059e-06
0.00077646
5.91102e-06
0.000773069
5.1954e-06
0.000769979
4.5844e-06
0.000767164
4.04919e-06
0.000764581
3.60484e-06
0.000762186
3.25854e-06
0.000759971
2.94877e-06
0.000757933
2.65807e-06
0.000756065
2.39298e-06
0.000754367
2.13489e-06
0.000752819
1.89951e-06
0.000751391
1.71071e-06
0.000750065
1.54555e-06
0.000748835
1.38501e-06
0.000747704
1.21724e-06
0.000746661
1.07781e-06
0.000745694
9.62375e-07
0.000744805
8.45609e-07
0.00074398
7.57294e-07
0.000743212
6.81274e-07
0.000742501
5.8831e-07
0.000741862
4.51823e-07
0.00074131
2.76876e-07
0.000740857
7.37326e-08
0.000740504
-1.28312e-07
0.000740244
-3.26305e-07
0.000740062
-4.91352e-07
0.000739944
-6.26763e-07
0.000739875
-7.29852e-07
0.000739843
-8.09924e-07
0.000739832
-8.46964e-07
0.00073985
-9.09565e-07
0.000739881
-9.32706e-07
0.000739917
-9.388e-07
0.00073995
-9.30418e-07
0.000739976
-9.14174e-07
0.000739995
-8.96748e-07
0.00074001
-8.91649e-07
0.000740021
-8.71222e-07
0.000740026
-8.76605e-07
0.000740035
-8.59262e-07
0.000740027
-8.61203e-07
0.000740048
-8.73527e-07
0.000740023
-8.19492e-07
0.000740035
-9.00657e-07
0.000740039
-8.07373e-07
0.000740022
-8.89644e-07
0.000740043
-8.378e-07
0.000740009
-8.46306e-07
0.000740059
-9.05838e-07
0.000739983
-7.21607e-07
0.000739997
-9.81349e-07
0.000740037
-7.51731e-07
0.000739974
-8.94165e-07
0.00073999
-8.16137e-07
0.000739914
-7.69959e-07
0.000739943
-8.89516e-07
0.000739844
-6.61928e-07
0.00073987
-9.66e-07
0.000739867
-6.82471e-07
0.000739804
-8.95257e-07
0.000739815
-7.07518e-07
0.00073973
-7.91945e-07
0.000739744
-7.89832e-07
0.000739581
-5.69874e-07
0.000739713
-1.12421e-06
0.000739592
-1.96875e-07
0.000739394
-1.12397e-06
0.000739429
-3.88771e-07
0.000739102
-3.53985e-07
0.000739119
-7.31237e-07
0.000738725
3.15283e-07
0.000738838
-1.0598e-06
0.000738489
1.05145e-06
0.000738058
-9.13227e-07
0.000737288
3.79855e-06
0.000733726
4.48701e-06
2.35489e-05
0.000732741
0.000930295
1.80909e-05
0.000933079
2.47997e-05
0.000936233
2.52886e-05
0.000939314
2.63103e-05
0.000942132
2.62241e-05
0.000944657
2.53395e-05
0.000946785
2.38875e-05
0.000948508
2.23441e-05
0.000949818
2.09033e-05
0.000950712
1.95529e-05
0.000951157
1.8255e-05
0.000951126
1.71846e-05
0.000950719
1.61792e-05
0.000949892
1.53658e-05
0.000948628
1.46775e-05
0.000946927
1.40753e-05
0.000944788
1.35215e-05
0.000942218
1.29942e-05
0.00093924
1.24479e-05
0.000935889
1.1861e-05
0.000932209
1.12718e-05
0.000928295
1.06248e-05
0.000924268
9.9379e-06
0.000920216
9.24736e-06
0.000916221
8.57945e-06
0.000912372
7.89838e-06
0.000908743
7.23412e-06
0.000905348
6.65342e-06
0.00090219
6.10641e-06
0.000899261
5.58769e-06
0.000896556
5.0978e-06
0.000894063
4.62751e-06
0.00089174
4.22285e-06
0.00088957
3.88042e-06
0.000887542
3.57361e-06
0.000885649
3.27755e-06
0.000883889
2.97809e-06
0.000882244
2.72257e-06
0.000880703
2.50355e-06
0.000879275
2.27283e-06
0.000877958
2.07425e-06
0.000876743
1.89721e-06
0.000875634
1.69712e-06
0.000874657
1.42864e-06
0.000873828
1.1062e-06
0.000873161
7.39998e-07
0.000872645
3.87538e-07
0.00087227
4.93503e-08
0.00087201
-2.3155e-07
0.000871841
-4.57799e-07
0.000871742
-6.30572e-07
0.000871691
-7.59492e-07
0.000871672
-8.28112e-07
0.000871692
-9.29448e-07
0.000871728
-9.6878e-07
0.000871775
-9.8521e-07
0.000871817
-9.72456e-07
0.000871852
-9.48969e-07
0.000871877
-9.21995e-07
0.000871896
-9.10976e-07
0.000871911
-8.86176e-07
0.000871916
-8.81569e-07
0.000871931
-8.74304e-07
0.000871914
-8.44359e-07
0.000871949
-9.08299e-07
0.000871921
-7.91596e-07
0.000871936
-9.15832e-07
0.00087194
-8.11011e-07
0.000871921
-8.70886e-07
0.000871953
-8.69446e-07
0.000871891
-7.84806e-07
0.000871976
-9.90074e-07
0.000871906
-6.51471e-07
0.000871909
-9.84717e-07
0.00087194
-7.82629e-07
0.000871886
-8.40536e-07
0.000871933
-8.62654e-07
0.000871852
-6.89058e-07
0.000871915
-9.52754e-07
0.000871811
-5.57998e-07
0.00087183
-9.8489e-07
0.000871811
-6.63384e-07
0.000871758
-8.41869e-07
0.000871759
-7.09364e-07
0.000871655
-6.87185e-07
0.00087173
-8.65159e-07
0.000871521
-3.6056e-07
0.000871652
-1.25509e-06
0.000871574
-1.18926e-07
0.000871393
-9.43379e-07
0.000871511
-5.06523e-07
0.000871289
-1.32222e-07
0.000871401
-8.42952e-07
0.000871192
5.23953e-07
0.0008711
-9.67306e-07
0.000870937
1.21386e-06
0.000870231
-2.06686e-07
0.000870302
3.72709e-06
0.000867255
7.53424e-06
2.53057e-05
0.000865498
0.00102962
1.48966e-05
0.00103284
2.15812e-05
0.0010364
2.17328e-05
0.00104004
2.26644e-05
0.00104357
2.26952e-05
0.00104697
2.19446e-05
0.00105012
2.07349e-05
0.00105301
1.94517e-05
0.00105566
1.82529e-05
0.00105807
1.71502e-05
0.00106022
1.60993e-05
0.00106216
1.525e-05
0.00106386
1.44721e-05
0.00106537
1.38614e-05
0.00106667
1.33736e-05
0.00106777
1.29755e-05
0.00106865
1.26446e-05
0.0010693
1.23473e-05
0.00106968
1.20614e-05
0.00106975
1.17963e-05
0.00106951
1.15117e-05
0.00106894
1.11954e-05
0.00106801
1.08684e-05
0.00106671
1.05474e-05
0.00106504
1.0249e-05
0.00106302
9.91457e-06
0.00106072
9.53892e-06
0.00105818
9.18607e-06
0.00105549
8.80393e-06
0.00105267
8.40479e-06
0.00104978
7.98537e-06
0.00104687
7.53562e-06
0.00104401
7.08954e-06
0.00104124
6.64514e-06
0.00103861
6.20872e-06
0.0010361
5.77871e-06
0.00103372
5.36216e-06
0.00103143
5.00988e-06
0.00102923
4.70459e-06
0.00102715
4.35615e-06
0.00102518
4.04422e-06
0.00102331
3.77109e-06
0.00102158
3.42396e-06
0.00102007
2.93962e-06
0.00101881
2.36054e-06
0.00101783
1.72777e-06
0.00101709
1.12764e-06
0.00101656
5.73876e-07
0.00101621
1.18395e-07
0.00101599
-2.3287e-07
0.00101586
-5.02147e-07
0.00101579
-6.92904e-07
0.00101577
-8.0681e-07
0.00101579
-9.52842e-07
0.00101584
-1.01527e-06
0.0010159
-1.04935e-06
0.00101596
-1.02758e-06
0.001016
-9.90008e-07
0.00101603
-9.54966e-07
0.00101605
-9.32054e-07
0.00101608
-9.0902e-07
0.00101608
-8.82715e-07
0.0010161
-9.00476e-07
0.00101608
-8.23757e-07
0.00101611
-9.35936e-07
0.0010161
-7.85174e-07
0.0010161
-9.14076e-07
0.00101613
-8.33936e-07
0.00101609
-8.33338e-07
0.00101614
-9.24031e-07
0.00101606
-7.06117e-07
0.00101611
-1.03798e-06
0.00101613
-6.64872e-07
0.00101608
-9.37309e-07
0.00101613
-8.37738e-07
0.00101606
-7.64003e-07
0.00101614
-9.50148e-07
0.00101609
-6.35984e-07
0.0010161
-9.66757e-07
0.00101613
-5.81564e-07
0.00101612
-9.74015e-07
0.00101615
-6.9093e-07
0.00101607
-7.6627e-07
0.00101613
-7.65533e-07
0.00101601
-5.70365e-07
0.00101611
-9.6454e-07
0.00101607
-3.20804e-07
0.00101598
-1.17017e-06
0.00101614
-2.72836e-07
0.00101585
-6.5367e-07
0.00101608
-7.43705e-07
0.00101609
-1.38249e-07
0.00101608
-8.28013e-07
0.00101632
2.82746e-07
0.00101599
-6.40649e-07
0.00101628
9.22054e-07
0.00101557
5.08675e-07
0.00101559
3.70597e-06
0.00101397
9.15029e-06
2.76576e-05
0.00101162
0.00113955
1.17867e-05
0.00114322
1.79069e-05
0.00114711
1.78471e-05
0.00115114
1.86323e-05
0.0011551
1.87301e-05
0.00115895
1.80946e-05
0.00116259
1.71008e-05
0.00116599
1.60464e-05
0.00116919
1.50545e-05
0.00117219
1.41502e-05
0.001175
1.32917e-05
0.00117765
1.25973e-05
0.00118015
1.19759e-05
0.00118252
1.1493e-05
0.00118478
1.11089e-05
0.00118694
1.08134e-05
0.00118901
1.05765e-05
0.00119099
1.03724e-05
0.00119286
1.01878e-05
0.00119464
1.00147e-05
0.0011963
9.85541e-06
0.00119782
9.67018e-06
0.00119921
9.47871e-06
0.00120044
9.32043e-06
0.0012015
9.18595e-06
0.00120238
9.03457e-06
0.00120302
8.8977e-06
0.00120344
8.77179e-06
0.0012036
8.63946e-06
0.00120348
8.52649e-06
0.00120311
8.35552e-06
0.00120247
8.17223e-06
0.00120158
7.98226e-06
0.00120045
7.77191e-06
0.00119914
7.52717e-06
0.00119766
7.25098e-06
0.00119606
6.96471e-06
0.00119433
6.74406e-06
0.00119246
6.57473e-06
0.00119046
6.34811e-06
0.00118837
6.1399e-06
0.00118621
5.92499e-06
0.00118414
5.50044e-06
0.00118229
4.79042e-06
0.00118075
3.89611e-06
0.00117955
2.92921e-06
0.00117867
2.00684e-06
0.00117805
1.19127e-06
0.00117766
5.12896e-07
0.00117743
-7.53653e-09
0.00117733
-3.95962e-07
0.00117729
-6.56482e-07
0.0011773
-8.15139e-07
0.00117735
-9.9887e-07
0.00117743
-1.09763e-06
0.00117751
-1.12822e-06
0.00117758
-1.09796e-06
0.00117763
-1.03889e-06
0.00117767
-9.9931e-07
0.00117769
-9.52521e-07
0.00117772
-9.39616e-07
0.00117773
-8.89136e-07
0.00117775
-9.18065e-07
0.00117776
-8.38183e-07
0.00117775
-9.24215e-07
0.00117779
-8.27228e-07
0.00117772
-8.41331e-07
0.00117777
-8.88605e-07
0.00117773
-7.87356e-07
0.00117773
-9.29416e-07
0.00117776
-7.33207e-07
0.00117769
-9.72105e-07
0.00117783
-8.04113e-07
0.00117764
-7.42617e-07
0.00117772
-9.17573e-07
0.00117767
-7.21116e-07
0.00117767
-9.42015e-07
0.00117777
-7.35668e-07
0.00117769
-8.88805e-07
0.00117789
-7.85393e-07
0.00117776
-8.43065e-07
0.0011779
-8.26021e-07
0.00117786
-7.29971e-07
0.00117788
-7.89041e-07
0.00117786
-5.49729e-07
0.00117783
-9.33321e-07
0.00117813
-6.17702e-07
0.00117781
-8.48151e-07
0.00117825
-7.14954e-07
0.00117802
-4.23177e-07
0.00117803
-7.56526e-07
0.00117821
-3.14262e-07
0.00117809
-7.13709e-07
0.00117881
-4.31288e-07
0.00117831
-1.44941e-07
0.00117899
2.42243e-07
0.00117855
9.46301e-07
0.00117826
3.99934e-06
0.00117735
1.00577e-05
2.93577e-05
0.00117565
0.0012613
8.72198e-06
0.00126542
1.37847e-05
0.00126966
1.36064e-05
0.00127409
1.42052e-05
0.00127848
1.43381e-05
0.00128274
1.3832e-05
0.00128678
1.30617e-05
0.00129058
1.22436e-05
0.00129417
1.14678e-05
0.00129756
1.07632e-05
0.00130075
1.00972e-05
0.00130379
9.55741e-06
0.00130669
9.08035e-06
0.00130947
8.70853e-06
0.00131217
8.41063e-06
0.0013148
8.18713e-06
0.00131736
8.01232e-06
0.00131987
7.86552e-06
0.00132232
7.73851e-06
0.00132472
7.61119e-06
0.00132707
7.50576e-06
0.00132936
7.37944e-06
0.00133159
7.24671e-06
0.00133376
7.14799e-06
0.00133589
7.06218e-06
0.00133796
6.96639e-06
0.00133996
6.89642e-06
0.00134188
6.84502e-06
0.00134373
6.79211e-06
0.0013455
6.76182e-06
0.00134716
6.68849e-06
0.00134872
6.61429e-06
0.00135015
6.54995e-06
0.00135144
6.4857e-06
0.00135256
6.4089e-06
0.00135352
6.29342e-06
0.00135429
6.18673e-06
0.00135493
6.10727e-06
0.00135543
6.07555e-06
0.00135563
6.14391e-06
0.00135555
6.22723e-06
0.00135525
6.22207e-06
0.00135477
5.98373e-06
0.00135416
5.39453e-06
0.00135354
4.51635e-06
0.00135299
3.47898e-06
0.00135258
2.42122e-06
0.0013523
1.46638e-06
0.00135215
6.60361e-07
0.00135211
4.06508e-08
0.00135212
-4.12284e-07
0.00135218
-7.09088e-07
0.00135227
-9.07856e-07
0.00135237
-1.09682e-06
0.00135248
-1.20965e-06
0.00135258
-1.22648e-06
0.00135267
-1.1915e-06
0.00135273
-1.10137e-06
0.0013528
-1.06315e-06
0.00135283
-9.87393e-07
0.00135286
-9.71789e-07
0.0013529
-9.24424e-07
0.00135289
-9.0732e-07
0.00135295
-9.02752e-07
0.00135287
-8.38922e-07
0.00135296
-9.22148e-07
0.00135291
-7.93645e-07
0.00135294
-9.10742e-07
0.00135296
-8.14378e-07
0.0013529
-8.61882e-07
0.00135304
-8.79645e-07
0.00135283
-7.57267e-07
0.00135303
-1.01164e-06
0.00135298
-6.83358e-07
0.00135298
-9.22262e-07
0.00135305
-7.895e-07
0.00135297
-8.63729e-07
0.00135313
-8.94954e-07
0.00135297
-7.24183e-07
0.00135319
-1.01006e-06
0.00135302
-6.71828e-07
0.00135315
-9.52534e-07
0.00135315
-7.37354e-07
0.00135321
-8.43324e-07
0.00135336
-6.98868e-07
0.00135321
-7.83351e-07
0.0013536
-1.01648e-06
0.0013532
-4.4293e-07
0.0013536
-1.11208e-06
0.00135369
-5.12352e-07
0.0013538
-8.66792e-07
0.0013541
-6.22131e-07
0.00135394
-5.53045e-07
0.0013543
-7.89405e-07
0.00135392
2.40622e-07
0.00135454
-3.80456e-07
0.00135416
1.32102e-06
0.00135346
4.70122e-06
0.00135268
1.08421e-05
2.99906e-05
0.00135204
0.00139614
5.65861e-06
0.00140075
9.1812e-06
0.00140539
8.96072e-06
0.00141024
9.35508e-06
0.0014151
9.47621e-06
0.00141982
9.11914e-06
0.00142428
8.59522e-06
0.00142849
8.03307e-06
0.00143247
7.4931e-06
0.00143623
7.00659e-06
0.00143977
6.54796e-06
0.00144316
6.17669e-06
0.00144639
5.85021e-06
0.0014495
5.5934e-06
0.00145252
5.38788e-06
0.00145548
5.23422e-06
0.00145837
5.11795e-06
0.00146121
5.02461e-06
0.00146401
4.94385e-06
0.00146676
4.8615e-06
0.00146947
4.79396e-06
0.00147214
4.71114e-06
0.00147476
4.62378e-06
0.00147735
4.56052e-06
0.00147991
4.50193e-06
0.00148244
4.43358e-06
0.00148495
4.3894e-06
0.00148743
4.3665e-06
0.00148987
4.34752e-06
0.00149229
4.33979e-06
0.00149468
4.29613e-06
0.00149705
4.25216e-06
0.00149937
4.22182e-06
0.00150166
4.19956e-06
0.00150389
4.17634e-06
0.00150606
4.12712e-06
0.00150815
4.09397e-06
0.00151018
4.07766e-06
0.00151218
4.07256e-06
0.00151417
4.15547e-06
0.0015161
4.29797e-06
0.00151791
4.41786e-06
0.00151953
4.35784e-06
0.00152093
3.99692e-06
0.00152208
3.37142e-06
0.00152297
2.58785e-06
0.00152363
1.75645e-06
0.00152411
9.88378e-07
0.00152444
3.29567e-07
0.00152467
-1.89615e-07
0.00152482
-5.62826e-07
0.00152492
-8.03713e-07
0.00152497
-9.58681e-07
0.00152499
-1.12432e-06
0.00152501
-1.2286e-06
0.00152503
-1.24163e-06
0.00152504
-1.20743e-06
0.00152506
-1.11562e-06
0.00152507
-1.07793e-06
0.00152509
-1.00279e-06
0.00152509
-9.78052e-07
0.00152511
-9.41891e-07
0.0015251
-8.98424e-07
0.00152513
-9.29165e-07
0.00152511
-8.22957e-07
0.00152512
-9.33015e-07
0.00152514
-8.09552e-07
0.00152513
-9.01838e-07
0.00152517
-8.51621e-07
0.00152513
-8.26842e-07
0.00152518
-9.28447e-07
0.00152514
-7.16635e-07
0.00152514
-1.00721e-06
0.0015252
-7.46528e-07
0.00152517
-8.96112e-07
0.00152523
-8.45332e-07
0.0015252
-8.32309e-07
0.00152521
-9.06985e-07
0.00152521
-7.26031e-07
0.00152519
-9.88861e-07
0.00152518
-6.63334e-07
0.00152521
-9.78051e-07
0.00152523
-7.58882e-07
0.00152527
-8.81392e-07
0.00152537
-8.00895e-07
0.00152532
-7.36201e-07
0.00152537
-1.06103e-06
0.00152535
-4.27942e-07
0.00152535
-1.11299e-06
0.00152549
-6.53116e-07
0.00152548
-8.51314e-07
0.00152558
-7.23139e-07
0.00152557
-5.47105e-07
0.00152551
-7.27007e-07
0.00152549
2.59047e-07
0.00152548
-3.65383e-07
0.00152535
1.45215e-06
0.00152492
5.12864e-06
0.00152444
1.13246e-05
2.92185e-05
0.00152521
0.00154551
2.52758e-06
0.00155064
4.05106e-06
0.00155575
3.84771e-06
0.00156107
4.03905e-06
0.00156645
4.09485e-06
0.00157167
3.90552e-06
0.0015766
3.6566e-06
0.00158127
3.37245e-06
0.00158567
3.09026e-06
0.00158983
2.84726e-06
0.00159376
2.61768e-06
0.0015975
2.43361e-06
0.00160108
2.26959e-06
0.00160454
2.13963e-06
0.00160789
2.03669e-06
0.00161116
1.96196e-06
0.00161437
1.90832e-06
0.00161752
1.86849e-06
0.00162063
1.83386e-06
0.00162369
1.803e-06
0.00162671
1.77797e-06
0.00162968
1.73615e-06
0.00163262
1.68795e-06
0.00163553
1.655e-06
0.0016384
1.62782e-06
0.00164124
1.59259e-06
0.00164406
1.56794e-06
0.00164687
1.55537e-06
0.00164967
1.55465e-06
0.00165244
1.56377e-06
0.00165519
1.54487e-06
0.00165792
1.52238e-06
0.00166063
1.5102e-06
0.00166333
1.50569e-06
0.001666
1.50636e-06
0.00166863
1.49267e-06
0.00167123
1.49732e-06
0.0016738
1.51126e-06
0.00167635
1.51788e-06
0.00167892
1.58526e-06
0.00168153
1.68925e-06
0.00168416
1.79002e-06
0.0016867
1.8137e-06
0.00168902
1.6735e-06
0.00169102
1.37313e-06
0.00169264
9.68205e-07
0.00169388
5.21973e-07
0.00169476
1.05222e-07
0.00169534
-2.49223e-07
0.00169568
-5.25585e-07
0.00169584
-7.27019e-07
0.00169589
-8.55049e-07
0.00169587
-9.39463e-07
0.00169579
-1.03993e-06
0.00169566
-1.10229e-06
0.00169553
-1.10613e-06
0.00169541
-1.09101e-06
0.00169533
-1.03525e-06
0.00169526
-1.01003e-06
0.00169522
-9.61628e-07
0.00169518
-9.42482e-07
0.00169516
-9.22572e-07
0.00169515
-8.85979e-07
0.00169514
-9.12554e-07
0.00169515
-8.32969e-07
0.00169512
-9.10464e-07
0.00169514
-8.29039e-07
0.00169512
-8.83634e-07
0.00169513
-8.61067e-07
0.00169513
-8.27142e-07
0.00169512
-9.12358e-07
0.00169516
-7.55558e-07
0.00169511
-9.58335e-07
0.00169515
-7.90948e-07
0.00169513
-8.68985e-07
0.00169514
-8.60101e-07
0.00169514
-8.32746e-07
0.00169512
-8.9099e-07
0.00169516
-7.62264e-07
0.00169511
-9.41279e-07
0.00169517
-7.21546e-07
0.00169512
-9.3087e-07
0.00169516
-7.95533e-07
0.00169514
-8.65347e-07
0.00169517
-8.29632e-07
0.00169518
-7.47014e-07
0.00169513
-1.00631e-06
0.00169525
-5.44612e-07
0.00169514
-1.00852e-06
0.00169522
-7.36357e-07
0.00169517
-8.00125e-07
0.00169521
-7.54407e-07
0.00169523
-5.72505e-07
0.00169518
-6.72509e-07
0.00169531
1.2864e-07
0.00169511
-1.69403e-07
0.00169509
1.477e-06
0.00169503
5.18791e-06
0.00169489
1.14653e-05
2.74632e-05
0.00169664
0.001711
-7.93683e-07
0.00171671
-1.65158e-06
0.00172235
-1.79856e-06
0.0017282
-1.81259e-06
0.00173416
-1.86361e-06
0.00173993
-1.86544e-06
0.0017454
-1.80581e-06
0.00175056
-1.78712e-06
0.00175543
-1.7868e-06
0.00176004
-1.75763e-06
0.00176439
-1.73397e-06
0.00176853
-1.70986e-06
0.0017725
-1.69688e-06
0.00177632
-1.68576e-06
0.00178004
-1.67531e-06
0.00178366
-1.65962e-06
0.00178721
-1.64433e-06
0.00179071
-1.62756e-06
0.00179415
-1.61222e-06
0.00179754
-1.58539e-06
0.00180088
-1.55881e-06
0.00180417
-1.55613e-06
0.00180743
-1.5677e-06
0.00181065
-1.57049e-06
0.00181384
-1.56157e-06
0.00181699
-1.55709e-06
0.00182011
-1.55578e-06
0.00182323
-1.5625e-06
0.00182634
-1.55428e-06
0.00182943
-1.52923e-06
0.0018325
-1.51999e-06
0.00183554
-1.5158e-06
0.00183856
-1.50954e-06
0.00184156
-1.49907e-06
0.00184455
-1.47685e-06
0.0018475
-1.46281e-06
0.00185043
-1.42794e-06
0.00185333
-1.38846e-06
0.00185622
-1.37226e-06
0.00185912
-1.31829e-06
0.00186207
-1.25841e-06
0.00186506
-1.20275e-06
0.001868
-1.12919e-06
0.00187074
-1.05928e-06
0.00187312
-1.00912e-06
0.00187506
-9.74468e-07
0.00187654
-9.53079e-07
0.00187757
-9.3029e-07
0.00187823
-9.07376e-07
0.0018786
-8.92309e-07
0.00187876
-8.90461e-07
0.0018788
-8.91134e-07
0.00187874
-8.86625e-07
0.00187859
-8.92231e-07
0.00187838
-8.8528e-07
0.00187814
-8.71359e-07
0.00187793
-8.78879e-07
0.00187777
-8.73037e-07
0.00187764
-8.8172e-07
0.00187755
-8.72081e-07
0.00187748
-8.7458e-07
0.00187744
-8.75096e-07
0.00187741
-8.58769e-07
0.00187738
-8.82679e-07
0.00187738
-8.33952e-07
0.00187735
-8.8577e-07
0.00187736
-8.38318e-07
0.00187735
-8.69833e-07
0.00187735
-8.63008e-07
0.00187736
-8.31973e-07
0.00187734
-8.94729e-07
0.00187737
-7.87531e-07
0.00187733
-9.21834e-07
0.00187736
-8.18998e-07
0.00187735
-8.537e-07
0.00187735
-8.66694e-07
0.00187736
-8.34729e-07
0.00187735
-8.81263e-07
0.00187737
-7.87216e-07
0.00187734
-9.07475e-07
0.00187738
-7.68868e-07
0.00187735
-8.91188e-07
0.00187738
-8.28134e-07
0.00187736
-8.46886e-07
0.00187737
-8.38449e-07
0.00187739
-7.69459e-07
0.00187734
-9.54867e-07
0.00187743
-6.38584e-07
0.00187736
-9.3612e-07
0.00187741
-7.88684e-07
0.00187739
-7.73782e-07
0.0018774
-7.70526e-07
0.00187743
-6.02319e-07
0.00187741
-6.49225e-07
0.00187753
1.06309e-08
0.00187737
-1.55923e-08
0.00187739
1.46492e-06
0.00187754
5.03052e-06
0.00187784
1.11664e-05
2.50859e-05
0.00188022
0.00171104
-4.14931e-06
0.00171675
-7.36646e-06
0.0017224
-7.44869e-06
0.00172826
-7.67008e-06
0.00173422
-7.82587e-06
0.00174
-7.63771e-06
0.00174546
-7.26613e-06
0.00175062
-6.94706e-06
0.00175549
-6.66522e-06
0.0017601
-6.36244e-06
0.00176445
-6.08627e-06
0.00176859
-5.85315e-06
0.00177256
-5.66394e-06
0.00177639
-5.51069e-06
0.0017801
-5.38837e-06
0.00178372
-5.28138e-06
0.00178727
-5.19793e-06
0.00179077
-5.12414e-06
0.00179422
-5.05767e-06
0.00179761
-4.9739e-06
0.00180094
-4.89533e-06
0.00180423
-4.84784e-06
0.00180749
-4.82396e-06
0.00181072
-4.7959e-06
0.0018139
-4.75029e-06
0.00181705
-4.70808e-06
0.00182018
-4.68093e-06
0.0018233
-4.68086e-06
0.00182641
-4.66191e-06
0.0018295
-4.62126e-06
0.00183256
-4.58567e-06
0.0018356
-4.5546e-06
0.00183862
-4.53047e-06
0.00184163
-4.50361e-06
0.00184461
-4.45666e-06
0.00184756
-4.41613e-06
0.00185049
-4.35175e-06
0.00185338
-4.28757e-06
0.00185627
-4.26174e-06
0.00185917
-4.2173e-06
0.00186212
-4.20248e-06
0.00186511
-4.19238e-06
0.00186805
-4.06818e-06
0.00187077
-3.78668e-06
0.00187315
-3.38295e-06
0.00187508
-2.90639e-06
0.00187654
-2.41722e-06
0.00187757
-1.95733e-06
0.00187823
-1.56318e-06
0.00187859
-1.25948e-06
0.00187876
-1.05378e-06
0.00187879
-9.26555e-07
0.00187874
-8.31849e-07
0.00187859
-7.42896e-07
0.00187837
-6.66297e-07
0.00187813
-6.33213e-07
0.00187792
-6.65055e-07
0.00187775
-7.06508e-07
0.00187762
-7.52104e-07
0.00187753
-7.79166e-07
0.00187746
-8.05272e-07
0.00187741
-8.26764e-07
0.00187738
-8.28737e-07
0.00187735
-8.54935e-07
0.00187735
-8.29969e-07
0.00187733
-8.66708e-07
0.00187733
-8.41509e-07
0.00187732
-8.60436e-07
0.00187732
-8.62304e-07
0.00187733
-8.35684e-07
0.00187731
-8.82759e-07
0.00187733
-8.08359e-07
0.00187731
-8.99151e-07
0.00187733
-8.34816e-07
0.00187732
-8.46251e-07
0.00187732
-8.70181e-07
0.00187732
-8.35355e-07
0.00187732
-8.76822e-07
0.00187733
-8.02262e-07
0.00187732
-8.88269e-07
0.00187735
-7.99285e-07
0.00187732
-8.6607e-07
0.00187734
-8.50006e-07
0.00187733
-8.34884e-07
0.00187734
-8.44842e-07
0.00187735
-7.86286e-07
0.00187732
-9.21815e-07
0.00187738
-7.01046e-07
0.00187734
-8.93476e-07
0.00187737
-8.18241e-07
0.00187736
-7.60691e-07
0.00187737
-7.85793e-07
0.0018774
-6.28339e-07
0.00187738
-6.32892e-07
0.00187748
-8.54423e-08
0.00187742
3.7703e-08
0.00187749
1.40476e-06
0.0018778
4.71966e-06
0.0018785
1.04644e-05
2.2476e-05
0.00188111
0.0015456
-7.37338e-06
0.00155077
-1.25271e-05
0.00155589
-1.25725e-05
0.00156122
-1.30013e-05
0.00156661
-1.32173e-05
0.00157183
-1.2855e-05
0.00157676
-1.2199e-05
0.00158142
-1.16087e-05
0.00158583
-1.10718e-05
0.00158999
-1.05216e-05
0.00159392
-1.00181e-05
0.00159766
-9.59554e-06
0.00160125
-9.24599e-06
0.0016047
-8.96334e-06
0.00160805
-8.74236e-06
0.00161132
-8.5539e-06
0.00161454
-8.40983e-06
0.00161769
-8.28111e-06
0.0016208
-8.16621e-06
0.00162386
-8.03249e-06
0.00162688
-7.90993e-06
0.00162985
-7.82114e-06
0.00163279
-7.76189e-06
0.00163569
-7.70152e-06
0.00163856
-7.62252e-06
0.00164141
-7.55081e-06
0.00164423
-7.50002e-06
0.00164703
-7.48774e-06
0.00164982
-7.45053e-06
0.00165259
-7.3925e-06
0.00165534
-7.33263e-06
0.00165806
-7.27789e-06
0.00166077
-7.23793e-06
0.00166346
-7.19155e-06
0.00166611
-7.1128e-06
0.00166874
-7.03742e-06
0.00167131
-6.92989e-06
0.00167386
-6.83418e-06
0.0016764
-6.79948e-06
0.00167894
-6.76167e-06
0.00168153
-6.78647e-06
0.00168412
-6.7849e-06
0.00168662
-6.56393e-06
0.00168889
-6.06439e-06
0.00169085
-5.34269e-06
0.00169244
-4.49242e-06
0.00169364
-3.62182e-06
0.0016945
-2.81141e-06
0.00169506
-2.12191e-06
0.00169538
-1.58832e-06
0.00169555
-1.21581e-06
0.0016956
-9.7648e-07
0.00169557
-8.08491e-07
0.00169549
-6.5562e-07
0.00169535
-5.34938e-07
0.00169522
-4.93837e-07
0.00169509
-5.43739e-07
0.001695
-6.13062e-07
0.00169493
-6.80829e-07
0.00169488
-7.28632e-07
0.00169484
-7.68377e-07
0.00169482
-8.01582e-07
0.0016948
-8.13152e-07
0.00169479
-8.40478e-07
0.00169479
-8.28718e-07
0.00169478
-8.57071e-07
0.00169478
-8.43368e-07
0.00169477
-8.55572e-07
0.00169477
-8.61428e-07
0.00169477
-8.38268e-07
0.00169477
-8.76502e-07
0.00169478
-8.19896e-07
0.00169477
-8.87826e-07
0.00169477
-8.40634e-07
0.00169477
-8.45768e-07
0.00169477
-8.71031e-07
0.00169477
-8.34385e-07
0.00169478
-8.79256e-07
0.00169478
-8.04811e-07
0.00169478
-8.85276e-07
0.00169479
-8.09889e-07
0.00169478
-8.56282e-07
0.00169479
-8.62795e-07
0.00169478
-8.26205e-07
0.00169479
-8.56973e-07
0.00169479
-7.84687e-07
0.00169479
-9.15967e-07
0.00169481
-7.27091e-07
0.0016948
-8.83081e-07
0.0016948
-8.18301e-07
0.0016948
-7.58464e-07
0.00169482
-8.03488e-07
0.00169482
-6.33848e-07
0.00169486
-6.68804e-07
0.00169492
-1.48003e-07
0.00169492
4.18211e-08
0.00169501
1.30745e-06
0.00169543
4.30393e-06
0.00169634
9.55688e-06
1.99699e-05
0.00169884
0.00139628
-1.05771e-05
0.00140093
-1.71744e-05
0.00140559
-1.72362e-05
0.00141046
-1.78695e-05
0.00141534
-1.8094e-05
0.00142006
-1.75728e-05
0.00142451
-1.66563e-05
0.00142873
-1.58208e-05
0.00143271
-1.50519e-05
0.00143646
-1.42779e-05
0.00144001
-1.35694e-05
0.00144339
-1.2975e-05
0.00144663
-1.24771e-05
0.00144974
-1.20774e-05
0.00145276
-1.17674e-05
0.00145572
-1.15064e-05
0.00145861
-1.1305e-05
0.00146145
-1.11191e-05
0.00146424
-1.09587e-05
0.00146699
-1.07773e-05
0.00146969
-1.06137e-05
0.00147235
-1.04812e-05
0.00147497
-1.03811e-05
0.00147755
-1.02824e-05
0.0014801
-1.01696e-05
0.00148262