/*--------------------------------*- C++ -*----------------------------------*\
| =========                 |                                                 |
| \\      /  F ield         | OpenFOAM: The Open Source CFD Toolbox           |
|  \\    /   O peration     | Version:  v2012                                 |
|   \\  /    A nd           | Website:  www.openfoam.com                      |
|    \\/     M anipulation  |                                                 |
\*---------------------------------------------------------------------------*/
FoamFile
{
    version     2.0;
    format      ascii;
    class       volScalarField;
    location    "0.069";
    object      epsilon.air;
}
// * * * * * * * * * * * * * * * * * * * * * * * * * * * * * * * * * * * * * //

dimensions      [0 2 -3 0 0 0 0];


internalField   nonuniform List<scalar> 
1900
(
112.724
141.424
210.097
257.591
369.051
443.457
614.739
724.907
971.322
1128.62
15.4676
16.4471
18.6376
20.45
23.7576
27.7267
32.0044
39.2872
45.1228
56.7623
14.7926
14.6414
14.5755
14.5063
14.5148
14.5574
14.6409
14.8309
15.0774
15.4134
14.77
14.6304
14.4635
14.3353
14.1726
14.0589
13.904
13.8079
13.6654
13.5937
14.7767
14.6215
14.4705
14.3204
14.1748
14.0288
13.889
13.7471
13.6139
13.4769
14.7778
14.6205
14.4714
14.3196
14.1755
14.0283
13.8892
13.7472
13.6133
13.4773
14.7777
14.6207
14.4731
14.3235
14.1841
14.045
13.9176
13.7914
13.6808
13.5715
14.7762
14.6498
14.5639
14.5033
14.5108
14.5517
14.6367
14.8197
15.0461
15.3943
15.2143
16.5985
18.2804
20.6738
23.5999
27.5635
32.2761
38.392
45.5815
54.7948
105.942
146.571
198.38
265.758
350.036
456.055
585.686
743.687
931.842
1154.05
4101.42
15210.3
19592.9
22442.4
21102.3
18000.3
15061.4
12769.9
11274.4
10361.1
9860.27
9684.99
9513.6
9247.65
8843.38
8346.14
7793.02
7207.18
6641.3
6123.41
5646.66
5219.97
4835.82
4485.01
4165.83
3876.49
3614.06
3376.63
3160.98
2965.21
2786.97
2624.23
2475.36
2338.8
2213.39
2097.97
1991.59
1893.32
1802.39
1718.06
1639.74
1566.85
1498.89
1435.44
1376.09
1320.49
1268.33
1219.31
1173.18
1129.7
1088.65
1049.84
1013.09
978.249
945.165
913.696
883.738
855.159
827.884
801.794
776.843
752.911
729.987
707.945
686.807
666.435
646.89
628.011
609.905
592.371
575.579
559.263
543.678
528.473
514.003
499.806
486.361
473.076
460.575
448.108
436.48
424.744
413.929
402.843
392.804
382.298
373.019
363.028
354.514
344.975
337.239
328.075
321.133
312.245
306.113
297.373
292.066
283.329
278.86
268.305
113.213
338.18
518.651
923.465
1125.32
1148.52
1119.95
1054.71
1048.08
1087
1191.59
1403.59
1690.7
2021.6
2372.4
2685.51
2964.45
3198.2
3354.17
3432.02
3424.65
3386.39
3301.09
3183.11
3054.85
2923.55
2792.73
2666.14
2542.68
2425.32
2313.25
2206.25
2104.87
2008.93
1918.56
1833.47
1753.57
1678.34
1607.55
1540.91
1478.15
1418.96
1363.12
1310.39
1260.55
1213.4
1168.76
1126.44
1086.28
1048.12
1011.82
977.24
944.268
912.785
882.694
853.89
826.302
799.833
774.436
750.018
726.558
703.964
682.237
661.278
641.119
621.643
602.917
584.799
567.399
550.533
534.366
518.656
503.64
488.997
475.055
461.394
448.451
435.684
423.667
411.71
400.552
389.321
378.967
368.382
358.791
348.779
339.931
330.425
322.315
313.251
305.89
297.195
290.597
282.176
276.356
268.093
263.068
254.824
250.613
240.68
16.4291
19.8736
22.8953
29.1148
34.8028
38.7289
41.6718
43.6988
46.606
50.5836
58.5747
70.71
95.1899
129.6
188.652
266.127
372.044
506.862
663.9
834.618
1003.46
1161.87
1302.01
1418.86
1509.4
1572.45
1610.31
1627.55
1624.88
1614.11
1591.28
1561.07
1526.7
1489.46
1450.88
1411.14
1371.31
1330.97
1291.15
1251.99
1213.55
1175.99
1139.44
1103.98
1069.62
1036.32
1004.16
973.049
942.977
913.917
885.829
858.667
832.4
806.981
782.389
758.571
735.521
713.185
691.567
670.615
650.342
630.694
611.699
593.286
575.506
558.271
541.654
525.539
510.036
494.982
480.538
466.483
453.045
439.924
427.435
415.182
403.583
392.124
381.352
370.615
360.617
350.528
341.256
331.745
323.161
314.157
306.239
297.68
290.422
282.25
275.658
267.81
261.895
254.291
249.067
241.611
237.095
229.665
225.875
216.929
13.4532
13.4607
13.5467
13.8033
14.3355
15.0086
15.7205
16.3425
16.9284
17.3448
17.8969
18.3586
19.2999
20.4789
22.7027
26.2077
31.6564
40.6423
54.5224
75.8306
106.047
146.609
198.402
260.281
330.051
404.998
480.495
554.251
621.486
683.008
736.065
779.945
814.53
840.168
858.365
869.545
875.139
874.613
871.946
865.984
857.208
846.502
834.393
821.004
806.686
791.577
775.954
759.745
743.284
726.645
709.862
693.011
676.173
659.396
642.755
626.242
609.962
593.889
578.112
562.597
547.429
532.569
518.083
503.931
490.19
476.793
463.823
451.184
438.984
427.082
415.64
404.444
393.735
383.212
373.202
363.31
353.962
344.643
335.913
327.123
318.983
310.673
303.092
295.206
288.16
280.644
274.116
266.924
260.921
254.011
248.531
241.854
236.909
230.412
226.019
219.634
215.811
209.446
206.211
198.548
13.3299
13.159
13.0624
13.1167
13.3056
13.7179
14.2881
14.9142
15.4545
15.8855
16.2131
16.4426
16.6212
16.7659
16.9064
17.0911
17.3362
17.726
18.3203
19.2925
20.8238
23.2081
26.741
32.0721
39.726
50.5392
64.9786
83.5693
106.383
133.364
163.999
197.244
232.334
267.671
302.721
335.74
366.905
395.003
419.925
441.233
459.066
473.399
484.694
493.075
498.93
502.543
504.266
503.967
502.779
500.196
496.382
491.615
486.114
479.919
473.223
466.07
458.624
450.871
442.998
434.934
426.879
418.733
410.63
402.56
394.618
386.739
379.001
371.328
363.819
356.369
349.131
341.912
334.968
327.984
321.342
314.598
308.258
301.764
295.73
289.464
283.728
277.667
272.228
266.348
261.208
255.485
250.651
245.059
240.526
235.047
230.844
225.472
221.627
216.347
212.884
207.665
204.608
199.402
196.765
190.479
13.3251
13.1543
13.0315
13.0863
13.2959
13.7735
14.501
15.4911
16.5092
17.6089
18.6016
19.5274
20.2644
20.8745
21.3011
21.6063
21.7795
21.8549
21.8417
21.7981
21.7052
21.6048
21.5334
21.5588
21.666
21.9256
22.4696
23.3624
24.8485
27.0121
30.2571
34.6447
40.6639
48.2178
57.6378
68.8172
81.9135
96.5676
112.687
129.712
147.363
165.075
182.528
199.308
215.173
229.835
243.295
255.334
266.111
275.585
283.878
291.009
297.136
302.304
306.628
310.168
313.045
315.232
316.915
317.955
318.676
318.701
318.502
317.997
316.998
315.653
314.01
312.08
309.929
307.537
304.981
302.191
299.332
296.183
293.135
289.704
286.496
282.86
279.544
275.751
272.38
268.465
265.087
261.076
257.734
253.643
250.372
246.218
243.057
238.863
235.844
231.635
228.795
224.592
221.97
217.786
215.416
211.249
209.156
204.136
13.4658
13.36
13.4095
13.6555
14.3037
15.6864
18.034
21.4465
25.4079
29.729
33.6249
37.0823
39.6066
41.5531
42.6218
43.331
43.3755
43.2462
42.9305
42.3954
41.7959
41.1389
40.5073
39.89
39.3373
38.8765
38.4879
38.244
38.1242
38.1784
38.3591
38.7148
39.3868
40.2177
41.5929
43.2222
45.5228
48.3955
52.095
56.729
62.4288
69.3097
77.4639
86.8474
97.5494
109.336
122.212
135.869
150.145
164.792
179.527
194.195
208.512
222.395
235.623
248.161
259.885
270.782
280.811
289.965
298.259
305.688
312.281
318.066
323.103
327.361
330.933
333.809
335.997
337.696
338.716
339.372
339.331
339.058
338.462
337.23
336.04
334.133
332.465
330.041
328.006
325.175
322.9
319.753
317.331
313.935
311.435
307.841
305.316
301.585
299.082
295.272
292.844
289.011
286.718
282.916
280.821
277.091
275.262
270.915
15.9102
16.8574
18.5462
21.925
28.4088
39.4922
55.4701
75.0513
95.4711
114.364
129.266
140.128
146.517
150.113
150.758
150.339
149.296
147.686
146.282
145.069
144.516
144.669
145.262
146.708
148.87
152.378
155.933
161.458
166.826
174.042
181.811
190.431
200.84
211.151
223.793
236.345
250.693
265.587
281.45
298.203
315.464
333.245
351.356
369.304
387.467
405.033
422.548
439.332
455.667
471.341
486.298
500.625
514.172
526.995
539.007
550.194
560.507
569.908
578.414
585.933
592.526
598.11
602.816
606.46
609.356
611.154
612.372
612.371
611.97
611.022
609.194
606.926
604.117
600.828
597.37
593.193
589.237
584.468
580.11
574.9
570.317
564.836
560.23
554.621
550.132
544.49
540.181
534.552
530.439
524.859
520.94
515.435
511.737
506.334
502.931
497.692
494.711
489.708
487.326
481.881
68.0468
90.4036
126.217
184.825
271.96
385.16
511.615
636.09
744.907
832.003
892.617
932.659
953.123
963.212
964.696
963.414
960.867
957.333
956.732
957.545
960.245
965.954
974.918
986.229
1000.06
1016.54
1034.53
1055.78
1077.15
1101.73
1126.21
1152.24
1179.4
1205.58
1233.63
1259.53
1286.23
1311.35
1335.69
1359.03
1380.78
1401.14
1419.92
1436.99
1452.9
1466.92
1479.98
1491.28
1501.5
1510.31
1517.8
1524.08
1529.04
1532.61
1535.05
1535.86
1535.47
1534.14
1531.44
1527.31
1522.33
1516.05
1509.15
1500.97
1492.42
1482.71
1472.53
1461.56
1450.37
1438.54
1426.42
1413.94
1401.33
1388.39
1375.65
1362.41
1349.68
1336.3
1323.65
1310.34
1298.06
1285
1273.38
1260.77
1250.03
1238.02
1228.19
1216.76
1207.75
1196.84
1188.51
1177.99
1170.28
1160.04
1153.08
1143.14
1137.18
1127.67
1123.08
1113.01
1464.67
1897.21
2399.02
2961.83
3563.24
4171.85
4746.27
5251.25
5654.93
5950.5
6132.01
6218.72
6206.11
6159.28
6060.53
5927.41
5777.1
5618.61
5458.32
5300.57
5148.47
5003.36
4866.91
4738.96
4620.2
4510.24
4408.84
4316.12
4230.76
4153.65
4083.01
4019.57
3962.47
3910.96
3865.79
3824.81
3789.59
3758.03
3731.01
3707.51
3687.41
3670.27
3655.82
3643.36
3633.44
3624.72
3618.23
3612.46
3608.27
3604.76
3602.2
3600.28
3599.11
3598.28
3598.08
3598.2
3598.63
3599.24
3600.39
3601.42
3602.89
3604.2
3605.79
3606.99
3608.34
3609.19
3609.81
3609.78
3609.45
3608.65
3607.13
3604.87
3602
3598.33
3594.3
3589.03
3583.76
3576.92
3570.25
3561.89
3553.98
3544.16
3535.32
3524.15
3514.47
3502.05
3491.62
3478.07
3467.05
3452.52
3441.11
3425.68
3414.25
3397.88
3386.94
3369.59
3359.58
3341.31
3332.05
3308.98
1109.45
1064.44
1121.65
1209.4
1238.08
1120.55
818.047
1979.2
54707.3
16154.3
7355.82
6104.72
6232.83
6483.1
6552.53
8021.82
74272.9
43598.2
24807.4
18448.1
16091.7
14995.4
14622.6
19654
76405.8
71002.3
54226.9
41179.6
32677.4
27152.3
24540.9
34048.6
69717.9
75698.1
67742.2
55646.1
44564.1
35840.8
30862.1
42698.5
57733.3
71170.7
67948.1
59047.6
48381.7
38736.3
32784.4
45226.4
47458.8
61827.9
62493.5
56618.1
47170.6
38180.2
32454.2
44247
39059.3
51810.1
53583.1
49837
42394.1
34674.9
29591
39765
32598.5
42975.7
44912.2
42125.6
36295.9
30037.5
25817.3
34038.5
27584.3
35610.5
37248.2
35106.8
30536.3
25551.9
22220.1
29372.3
23473.8
29575.4
30816.1
29115.5
25526.5
21629.9
19156.2
26013.6
20096
24687.1
25567.3
24178.5
21336.6
18296.2
16493.9
22976.4
17361.3
20775.5
21363.5
20205.8
17936.4
15554.3
14264.2
20356.9
15130.8
17652
18018.1
17038.6
15211
13331.1
12427.1
18150.9
13282.7
15143.5
15350.3
14514.7
13029.4
11535.6
10924.7
16321.1
11723.4
13103.7
13201.7
12486
11269.5
10076.3
9690.27
14799.7
10401.3
11433.2
11458.3
10842.7
9838.87
8881.38
8669.5
13528.5
9263.66
10046.9
10028
9495.87
8663.17
7893.25
7818
12458.3
8282.14
8885.52
8841.96
8380.48
7686.68
7067.82
7099.93
11548.5
7439.4
7907.9
7849.82
7448.92
6868.27
6371.84
6487.57
10768.3
6712.9
7079.87
7013.75
6664.62
6176.54
5779.64
5962.19
10092.5
6086.78
6375.18
6304.87
5999.74
5587.66
5272.03
5508.21
9502.1
5544.79
5771.97
5700.11
5432.51
5083.29
4834.45
5113.86
8983.99
5071.29
5251.43
5180.22
4945.05
4648.46
4455.09
4769.7
8527.76
4655.44
4799.28
4730.19
4523.22
4271.08
4124.22
4467.76
8124.1
4288.55
4404.22
4338.25
4155.94
3941.62
3834.06
4201.54
7765.38
3963.35
4057.05
3994.85
3834.22
3652.35
3578.23
3965.67
7445.25
3674.32
3750.61
3692.48
3550.97
3397.07
3351.6
3755.77
7158.45
3416.28
3478.8
3424.89
3300.32
3170.69
3149.9
3568.24
6900.72
3185.24
3236.75
3187.06
3077.5
2969.04
2969.71
3400.03
6668.39
2977.59
3020.31
2974.78
2878.63
2788.77
2807.75
3248.8
6458.33
2790.31
2826.01
2784.54
2700.38
2626.88
2661.84
3112.23
6267.97
2620.85
2650.95
2613.38
2540.01
2480.97
2530
2988.51
6095.01
2466.97
2492.63
2458.82
2395.18
2348.98
2410.47
2876.06
5937.44
2326.88
2349.01
2318.79
2263.92
2229.19
2301.77
2773.56
5793.46
2198.96
2218.3
2191.5
2144.59
2120.12
2202.61
2679.88
5661.59
2081.88
2099.02
2075.45
2035.76
2020.53
2111.9
2594.02
5540.44
1974.45
1989.86
1969.36
1936.23
1929.33
2028.72
2515.16
5428.97
1875.64
1889.72
1872.11
1844.97
1845.61
1952.22
2442.54
5326.11
1784.54
1797.61
1782.75
1761.09
1768.48
1881.78
2375.59
5231.12
1700.37
1712.7
1700.44
1683.8
1697.31
1816.72
2313.69
5143.15
1622.43
1634.25
1624.44
1612.43
1631.52
1756.51
2256.39
5061.65
1550.1
1561.6
1554.11
1546.35
1570.56
1700.66
2203.23
4985.9
1482.87
1494.19
1488.9
1485.07
1513.99
1648.79
2153.85
4915.49
1420.24
1431.51
1428.31
1428.12
1461.36
1600.48
2107.87
4849.81
1361.81
1373.14
1371.92
1375.07
1412.37
1555.47
2065.06
4788.61
1307.2
1318.67
1319.33
1325.57
1366.65
1513.43
2025.11
4731.43
1256.06
1267.74
1270.2
1279.35
1323.94
1474.16
1987.86
4678.17
1208.11
1220.06
1224.23
1236.1
1283.95
1437.38
1953.02
4628.41
1163.06
1175.34
1181.15
1195.59
1246.49
1402.93
1920.49
4582.06
1120.68
1133.34
1140.71
1157.56
1211.32
1370.59
1890.02
4538.78
1080.75
1093.82
1102.7
1121.82
1178.27
1340.22
1861.52
4498.46
1043.06
1056.58
1066.91
1088.16
1147.13
1311.62
1834.76
4460.75
1007.43
1021.44
1033.15
1056.44
1117.79
1284.69
1809.67
4425.51
973.707
988.222
1001.27
1026.48
1090.07
1259.26
1786.03
4392.44
941.731
956.777
971.121
998.15
1063.88
1235.25
1763.83
4361.44
911.378
926.973
942.562
971.321
1039.06
1212.52
1742.86
4332.27
882.506
898.668
915.464
945.877
1015.54
1191
1723.12
4304.85
855.03
871.771
889.732
921.72
993.207
1170.57
1704.44
4278.98
828.816
846.147
865.24
898.739
971.976
1151.2
1686.81
4254.63
803.81
821.738
841.926
876.869
951.767
1132.75
1670.09
4231.58
779.88
798.411
819.666
856.001
932.503
1115.22
1654.31
4209.89
757.009
776.144
798.432
836.098
914.126
1098.49
1639.28
4189.26
735.06
754.798
778.093
817.048
896.556
1082.55
1625.08
4169.87
714.05
734.389
758.658
798.846
879.764
1067.3
1611.51
4151.26
693.829
714.763
739.98
781.365
863.656
1052.72
1598.66
4133.77
674.459
695.981
722.114
764.647
848.24
1038.77
1586.36
4116.93
655.764
677.86
704.882
748.525
833.386
1025.36
1574.68
4101.04
637.857
660.519
688.402
733.11
819.179
1012.53
1563.47
4085.8
620.517
643.725
672.436
718.172
805.414
1000.13
1552.73
4071.06
603.928
627.672
657.188
703.916
792.288
988.315
1542.55
4057.33
587.802
612.054
642.334
690.011
779.474
976.789
1532.64
4043.6
572.413
597.168
628.199
676.8
767.327
965.91
1523.4
4031.4
557.378
582.598
614.329
663.8
755.332
955.125
1514.19
4018.53
543.087
568.771
601.199
651.535
744.074
945.095
1505.85
4007.79
529.031
555.132
588.196
639.327
732.798
934.972
1497.28
3995.8
515.742
542.267
575.975
627.914
722.343
925.719
1489.75
3986.26
502.563
529.454
563.733
616.394
711.683
916.156
1481.73
3975.14
490.189
517.462
552.331
605.745
701.941
907.581
1474.86
3966.36
477.791
505.377
540.751
594.814
691.799
898.473
1467.26
3955.85
466.257
494.182
530.094
584.855
682.695
890.491
1460.94
3947.57
454.552
482.737
519.089
574.426
672.977
881.73
1453.6
3937.13
443.802
472.286
509.127
565.112
664.472
874.303
1447.77
3929.28
432.71
461.406
498.626
555.117
655.107
865.797
1440.54
3918.51
422.71
451.669
489.338
546.435
647.199
858.943
1435.26
3911.22
412.167
441.295
479.285
536.82
638.134
850.632
1428.04
3899.98
402.909
432.27
470.675
528.785
630.855
844.416
1423.45
3893.55
392.856
422.349
461.028
519.517
622.067
836.29
1416.25
3882.15
384.349
414.05
453.11
512.148
615.445
830.749
1412.41
3876.58
374.728
404.53
443.827
503.202
606.935
822.865
1405.44
3865.79
366.989
396.975
436.621
496.512
600.969
817.974
1402.22
3860.96
357.725
387.791
427.647
487.854
592.742
810.409
1395.77
3851.29
350.772
380.993
421.161
481.84
587.415
806.124
1393
3847.17
341.767
372.051
412.416
473.415
579.455
798.928
1387.3
3838.91
335.609
366.017
406.647
468.061
574.728
795.187
1384.93
3835.43
326.738
357.2
398.03
459.791
566.998
788.375
1379.96
3828.48
321.387
351.932
392.964
455.058
562.79
785.034
1377.88
3825.37
312.507
343.106
384.357
446.846
555.225
778.585
1373.52
3819.45
307.964
338.592
379.962
442.673
551.423
775.447
1371.55
3816.38
297.192
327.837
369.42
432.559
542.05
767.409
1365.78
3809.17
)
;

boundaryField
{
    frontAndBack
    {
        type            empty;
    }
    inlet
    {
        type            fixedValue;
        value           uniform 14.855;
    }
    outlet
    {
        type            zeroGradient;
    }
    walls
    {
        lowReCorrection 0;
        blending        stepwise;
        n               2;
        type            epsilonWallFunction;
        value           nonuniform List<scalar> 
228
(
112.724
141.424
210.097
257.591
369.051
443.457
614.739
724.907
971.322
1128.62
1109.45
1064.44
1121.65
1209.4
1238.08
1120.55
818.047
1979.2
1979.2
8021.82
19654
34048.6
42698.5
45226.4
44247
39765
34038.5
29372.3
26013.6
22976.4
20356.9
18150.9
16321.1
14799.7
13528.5
12458.3
11548.5
10768.3
10092.5
9502.1
8983.99
8527.76
8124.1
7765.38
7445.25
7158.45
6900.72
6668.39
6458.33
6267.97
6095.01
5937.44
5793.46
5661.59
5540.44
5428.97
5326.11
5231.12
5143.15
5061.65
4985.9
4915.49
4849.81
4788.61
4731.43
4678.17
4628.41
4582.06
4538.78
4498.46
4460.75
4425.51
4392.44
4361.44
4332.27
4304.85
4278.98
4254.63
4231.58
4209.89
4189.26
4169.87
4151.26
4133.77
4116.93
4101.04
4085.8
4071.06
4057.33
4043.6
4031.4
4018.53
4007.79
3995.8
3986.26
3975.14
3966.36
3955.85
3947.57
3937.13
3929.28
3918.51
3911.22
3899.98
3893.55
3882.15
3876.58
3865.79
3860.96
3851.29
3847.17
3838.91
3835.43
3828.48
3825.37
3819.45
3816.38
3809.17
105.942
146.571
198.38
265.758
350.036
456.055
585.686
743.687
931.842
1154.05
1464.67
1897.21
2399.02
2961.83
3563.24
4171.85
4746.27
5251.25
5654.93
5950.5
6132.01
6218.72
6206.11
6159.28
6060.53
5927.41
5777.1
5618.61
5458.32
5300.57
5148.47
5003.36
4866.91
4738.96
4620.2
4510.24
4408.84
4316.12
4230.76
4153.65
4083.01
4019.57
3962.47
3910.96
3865.79
3824.81
3789.59
3758.03
3731.01
3707.51
3687.41
3670.27
3655.82
3643.36
3633.44
3624.72
3618.23
3612.46
3608.27
3604.76
3602.2
3600.28
3599.11
3598.28
3598.08
3598.2
3598.63
3599.24
3600.39
3601.42
3602.89
3604.2
3605.79
3606.99
3608.34
3609.19
3609.81
3609.78
3609.45
3608.65
3607.13
3604.87
3602
3598.33
3594.3
3589.03
3583.76
3576.92
3570.25
3561.89
3553.98
3544.16
3535.32
3524.15
3514.47
3502.05
3491.62
3478.07
3467.05
3452.52
3441.11
3425.68
3414.25
3397.88
3386.94
3369.59
3359.58
3341.31
3332.05
3308.98
)
;
    }
}


// ************************************************************************* //
