/*--------------------------------*- C++ -*----------------------------------*\
| =========                 |                                                 |
| \\      /  F ield         | OpenFOAM: The Open Source CFD Toolbox           |
|  \\    /   O peration     | Version:  v2012                                 |
|   \\  /    A nd           | Website:  www.openfoam.com                      |
|    \\/     M anipulation  |                                                 |
\*---------------------------------------------------------------------------*/
FoamFile
{
    version     2.0;
    format      ascii;
    class       volScalarField;
    location    "0.069";
    object      k.air;
}
// * * * * * * * * * * * * * * * * * * * * * * * * * * * * * * * * * * * * * //

dimensions      [0 2 -2 0 0 0 0];


internalField   nonuniform List<scalar> 
1900
(
0.520974
0.606903
0.792901
0.911128
1.16467
1.32065
1.65191
1.84893
2.26302
2.5009
0.44194
0.422085
0.409852
0.39354
0.384936
0.37251
0.367581
0.359847
0.358936
0.361188
0.440373
0.423336
0.406718
0.392215
0.377696
0.36528
0.352458
0.341802
0.330384
0.321271
0.440545
0.423123
0.406935
0.391945
0.377941
0.364914
0.352689
0.341267
0.330511
0.32042
0.44057
0.423096
0.406961
0.391918
0.377969
0.364888
0.352718
0.341243
0.330541
0.320399
0.440572
0.423093
0.406964
0.391914
0.377973
0.364883
0.352723
0.341239
0.330548
0.320395
0.440539
0.423128
0.40693
0.391951
0.377937
0.364921
0.352686
0.341278
0.330509
0.320437
0.440501
0.42316
0.406905
0.391984
0.377947
0.364988
0.352782
0.341444
0.330784
0.320817
0.440294
0.423817
0.40815
0.39534
0.383337
0.374312
0.366251
0.361326
0.357704
0.358148
0.503875
0.617954
0.765365
0.927702
1.12489
1.34353
1.59849
1.87895
2.19566
2.53852
3.70429
7.969
17.6206
25.0235
26.4496
25.4725
22.9627
19.8158
17.1143
15.091
13.6419
12.8052
12.2971
12.2549
12.383
12.6989
13.1634
13.6464
14.0802
14.438
14.6905
14.8357
14.8196
14.7485
14.5943
14.3856
14.142
13.8752
13.6024
13.324
13.0563
12.7882
12.5247
12.2622
12.0016
11.7467
11.4971
11.2531
11.0168
10.7874
10.5669
10.3548
10.1506
9.95407
9.7644
9.58131
9.40418
9.23296
9.06726
8.90691
8.75192
8.60204
8.45713
8.31726
8.18204
8.05145
7.92503
7.80282
7.68424
7.56946
7.4579
7.3498
7.24456
7.14257
7.04307
6.94664
6.85228
6.76091
6.67122
6.58441
6.49887
6.41603
6.33407
6.25457
6.1757
6.09887
6.02276
5.9479
5.87442
5.80086
5.73008
5.65718
5.58928
5.51673
5.45198
5.37981
5.31838
5.24672
5.18879
5.11775
5.06344
4.99284
4.94225
4.87143
4.82463
4.75223
4.70914
4.63351
4.59358
4.49648
0.393372
0.478714
0.725413
1.33524
2.07352
2.63765
2.77117
2.70606
2.53921
2.35607
2.21226
2.15904
2.17893
2.25099
2.40406
2.64141
2.95775
3.35688
3.82107
4.34088
4.89041
5.42595
5.95551
6.47345
6.96326
7.40976
7.80575
8.13931
8.4163
8.63013
8.7971
8.90163
8.9701
8.98682
8.97735
8.95127
8.90234
8.84059
8.77148
8.69512
8.61843
8.53797
8.4542
8.36685
8.27606
8.1831
8.08803
7.99228
7.89565
7.79927
7.70387
7.60911
7.51616
7.42491
7.33499
7.24651
7.15928
7.07366
6.9891
6.90599
6.82377
6.74298
6.66303
6.58457
6.5069
6.43082
6.35536
6.2817
6.20835
6.13677
6.06521
5.99532
5.92518
5.85656
5.78763
5.71982
5.65199
5.58452
5.51792
5.45034
5.38519
5.31714
5.25379
5.18524
5.12406
5.05526
4.9966
4.92782
4.87204
4.80342
4.75077
4.68209
4.63276
4.56342
4.51748
4.44612
4.4034
4.32842
4.28868
4.1921
0.309128
0.29983
0.289218
0.283492
0.285878
0.294107
0.303833
0.310967
0.311285
0.309999
0.306743
0.305106
0.306533
0.310879
0.320256
0.337895
0.365395
0.406464
0.465131
0.546285
0.654553
0.794033
0.964971
1.17157
1.41242
1.68902
1.99434
2.32485
2.66891
3.02049
3.3643
3.7025
4.0337
4.34231
4.62431
4.88065
5.10841
5.30746
5.47917
5.62478
5.74735
5.8451
5.92024
5.97687
6.01751
6.04556
6.0622
6.07052
6.06954
6.06552
6.05725
6.04474
6.03205
6.01462
5.99268
5.96712
5.93777
5.90513
5.86929
5.83115
5.79057
5.74837
5.70444
5.66008
5.6146
5.56893
5.52235
5.47581
5.42772
5.37968
5.33007
5.28059
5.22955
5.17868
5.12642
5.07414
5.02097
4.96713
4.91352
4.85799
4.80439
4.74715
4.69406
4.63541
4.58337
4.52381
4.47336
4.41332
4.36499
4.3047
4.25884
4.19808
4.15485
4.09307
4.05253
3.9884
3.95017
3.88227
3.84625
3.75847
0.308999
0.29682
0.285582
0.275424
0.26629
0.258173
0.250667
0.243619
0.236717
0.229939
0.223223
0.216584
0.21026
0.203961
0.198372
0.192635
0.188162
0.183314
0.180499
0.177252
0.177249
0.178499
0.182078
0.190076
0.202383
0.223499
0.251885
0.293306
0.346613
0.417102
0.503742
0.60954
0.734458
0.879754
1.04224
1.2222
1.4147
1.61852
1.82709
2.03902
2.24553
2.4494
2.64661
2.83522
3.01245
3.17821
3.33091
3.47099
3.59782
3.71175
3.81278
3.90153
3.98044
4.04904
4.10774
4.15793
4.19997
4.23467
4.2623
4.28428
4.30048
4.31277
4.32036
4.32514
4.32615
4.32506
4.32117
4.31314
4.3006
4.28587
4.2676
4.24771
4.22476
4.20054
4.17374
4.14579
4.11585
4.08445
4.05215
4.01729
3.98347
3.94562
3.91083
3.8705
3.8354
3.79343
3.75873
3.71573
3.68208
3.63839
3.60616
3.56165
3.53088
3.4851
3.45578
3.40757
3.37924
3.32737
3.29984
3.23227
0.309035
0.296744
0.285526
0.275128
0.265725
0.257099
0.249298
0.242083
0.235161
0.228481
0.221732
0.215256
0.208664
0.20254
0.196297
0.190697
0.184916
0.179902
0.1746
0.170175
0.165333
0.16149
0.157116
0.153854
0.149996
0.147406
0.144252
0.142623
0.140626
0.140656
0.141431
0.143652
0.147751
0.155902
0.166789
0.183157
0.20437
0.23308
0.268822
0.314001
0.36793
0.432324
0.506267
0.591164
0.684792
0.788209
0.898382
1.01593
1.13697
1.26204
1.38479
1.50682
1.62141
1.73417
1.84426
1.95089
2.053
2.15056
2.24249
2.32927
2.40973
2.48495
2.55369
2.61655
2.67275
2.72379
2.76895
2.81011
2.84533
2.87687
2.9031
2.92612
2.94446
2.96012
2.97162
2.981
2.98652
2.99065
2.99071
2.98966
2.98708
2.9812
2.9759
2.96572
2.9583
2.94542
2.93657
2.92167
2.91197
2.89547
2.88523
2.86722
2.85638
2.83674
2.82529
2.80347
2.79104
2.76637
2.75297
2.71944
0.309044
0.296717
0.285473
0.27497
0.265572
0.256897
0.249335
0.242117
0.235675
0.229223
0.223412
0.217608
0.212394
0.207222
0.202591
0.197995
0.193871
0.189764
0.186092
0.18242
0.179172
0.175909
0.173077
0.170218
0.167798
0.165339
0.163335
0.16128
0.159704
0.158066
0.15694
0.155745
0.155101
0.15439
0.154315
0.154505
0.15504
0.156133
0.157984
0.160528
0.164197
0.168967
0.175423
0.183631
0.194309
0.20762
0.224354
0.244721
0.26954
0.298927
0.333654
0.373405
0.418819
0.468981
0.52464
0.58499
0.650035
0.719114
0.791672
0.867139
0.944471
1.02313
1.10169
1.17961
1.25499
1.32821
1.39867
1.46948
1.53695
1.60403
1.66722
1.72942
1.78741
1.84405
1.89641
1.94718
1.99376
2.0385
2.07964
2.11822
2.15431
2.18719
2.21839
2.246
2.27243
2.29539
2.31738
2.33619
2.3542
2.36946
2.384
2.3964
2.40772
2.41798
2.4265
2.43531
2.44109
2.44888
2.45236
2.45953
0.308986
0.296768
0.285378
0.274985
0.265473
0.257214
0.25034
0.244934
0.241298
0.239634
0.240021
0.241205
0.24374
0.2466
0.250078
0.253255
0.256665
0.259715
0.262944
0.265948
0.26925
0.272546
0.27637
0.28032
0.285
0.289926
0.295762
0.301971
0.309238
0.317
0.325986
0.335551
0.346449
0.35805
0.371234
0.385216
0.400997
0.417619
0.436166
0.455586
0.477048
0.499388
0.523855
0.549195
0.576727
0.605113
0.635709
0.667103
0.700623
0.734872
0.771172
0.808172
0.847116
0.886863
0.928415
0.971008
1.01523
1.06084
1.10779
1.15665
1.20648
1.25848
1.31112
1.36616
1.42107
1.47853
1.5348
1.59364
1.6506
1.70974
1.76645
1.82475
1.88022
1.93664
1.98996
2.04372
2.09421
2.14477
2.19196
2.23885
2.28224
2.32503
2.36418
2.40255
2.43684
2.47052
2.49958
2.52851
2.5525
2.57738
2.59704
2.61901
2.63497
2.65545
2.66887
2.6896
2.70123
2.72328
2.73457
2.76216
0.309643
0.297725
0.287206
0.278353
0.273026
0.275096
0.28272
0.299252
0.328271
0.365086
0.408763
0.453831
0.499796
0.542211
0.582982
0.618983
0.653653
0.684491
0.715338
0.744241
0.774893
0.80603
0.838613
0.872251
0.907975
0.945021
0.984629
1.02557
1.0694
1.11437
1.16242
1.21124
1.26354
1.31852
1.37611
1.43554
1.49692
1.5594
1.62323
1.68766
1.75298
1.81846
1.88447
1.95038
2.01649
2.08234
2.14806
2.21308
2.27764
2.34158
2.4049
2.4674
2.52923
2.59027
2.65051
2.70999
2.76851
2.82626
2.88285
2.93869
2.99308
3.04676
3.09857
3.14957
3.19821
3.24599
3.29077
3.33473
3.37517
3.4147
3.45035
3.48503
3.51584
3.54545
3.57132
3.59597
3.61694
3.63687
3.65297
3.66847
3.68023
3.69183
3.7
3.70809
3.7131
3.71826
3.72067
3.72326
3.72382
3.7247
3.72456
3.72453
3.72421
3.7246
3.72517
3.72782
3.72992
3.73563
3.73969
3.75379
0.361471
0.372129
0.396839
0.447747
0.543079
0.685984
0.874487
1.09592
1.33226
1.56554
1.78059
1.96944
2.12862
2.26231
2.37763
2.47715
2.57293
2.66166
2.75883
2.85644
2.97058
3.08259
3.19212
3.30081
3.40745
3.51351
3.61713
3.72031
3.82042
3.91952
4.01498
4.10896
4.19841
4.28349
4.36438
4.44106
4.51381
4.58258
4.64771
4.70887
4.76673
4.8209
4.87205
4.9198
4.96483
5.0067
5.04614
5.08306
5.11783
5.15027
5.18077
5.20918
5.23586
5.26074
5.28403
5.30579
5.32613
5.34522
5.36301
5.37978
5.39535
5.41012
5.4237
5.43678
5.44861
5.4602
5.47057
5.48082
5.48975
5.49885
5.50638
5.51396
5.52018
5.52585
5.53048
5.53361
5.53617
5.53648
5.53596
5.53456
5.53139
5.52771
5.52181
5.51567
5.50772
5.50007
5.49092
5.48204
5.4719
5.46214
5.45092
5.43926
5.42622
5.41344
5.40056
5.38643
5.37108
5.35398
5.33949
5.33005
2.99041
3.56502
4.18773
4.83464
5.49411
6.12916
6.71862
7.2239
7.63499
7.92789
8.11656
8.19426
8.17589
8.11655
7.99399
7.83215
7.6493
7.45599
7.25987
7.06754
6.88098
6.70513
6.54061
6.38787
6.24657
6.11658
5.99718
5.88798
5.78821
5.69736
5.6147
5.53974
5.47185
5.41045
5.35506
5.30506
5.26005
5.21956
5.18325
5.15064
5.12147
5.09535
5.07204
5.0512
5.03265
5.01609
5.00139
4.98831
4.97676
4.96654
4.95757
4.94967
4.94282
4.93687
4.93177
4.9274
4.92371
4.92063
4.91815
4.9161
4.91453
4.91337
4.91243
4.91198
4.91159
4.91163
4.9118
4.9122
4.91278
4.91373
4.91486
4.9164
4.91812
4.92018
4.9225
4.92493
4.92746
4.92993
4.93221
4.93437
4.93616
4.9376
4.93842
4.93879
4.93882
4.9387
4.93832
4.93798
4.93759
4.93716
4.93663
4.93555
4.9343
4.93166
4.9287
4.92169
4.91487
4.89794
4.88705
4.85748
3.47872
3.11159
3.18595
3.39318
3.5309
3.38967
2.60977
1.7907
49.6119
17.4808
11.665
11.3309
11.4423
10.3124
7.20052
4.84748
74.2002
48.5807
35.1471
30.2111
27.3841
23.6764
16.8917
8.64521
76.7201
71.8627
61.631
53.6071
46.4168
38.5828
27.8426
12.363
74.5508
82.143
78.302
69.9927
60.2111
49.2542
35.4509
14.6212
68.6928
81.9883
82.844
77.0745
66.8072
54.5169
39.0874
15.6118
61.0614
78.6936
82.2992
78.3771
69.0184
56.4622
40.4694
15.8425
53.3866
71.9957
78.7879
76.3415
68.2196
56.2439
40.5698
15.5067
46.5021
64.7344
72.5244
71.3129
64.6422
53.5296
38.7028
14.3916
40.9726
58.0937
66.026
65.4022
59.7639
49.7713
36.1311
13.1077
36.6883
52.3717
59.896
59.5927
54.7269
45.7706
33.3454
11.8017
33.5898
47.6248
54.3871
54.1561
49.8476
41.8198
30.5632
10.7673
31.22
43.6117
49.4829
49.2245
45.3438
38.1392
27.9607
10.0911
29.5245
40.2659
45.1991
44.8516
41.2987
34.8055
25.5893
9.46268
28.0669
37.3825
41.4686
41.0216
37.7438
31.8664
23.4981
8.89985
26.778
34.8195
38.1567
37.6404
34.6083
29.2795
21.659
8.40098
25.6149
32.5145
35.213
34.6439
31.8278
26.9825
20.0376
7.94267
24.5494
30.4486
32.623
32.0042
29.3748
24.9535
18.6397
7.5221
23.5618
28.5973
30.3452
29.6843
27.2185
23.1649
17.4058
7.15464
22.6483
26.9432
28.3422
27.6471
25.3254
21.5898
16.3124
6.83261
21.8023
25.4594
26.5752
25.8546
23.6623
20.2027
15.3434
6.54946
21.0233
24.1226
25.0114
24.2709
22.1963
18.9789
14.4852
6.30095
20.2605
22.9067
23.6139
22.8618
20.8958
17.8934
13.7222
6.08226
19.5317
21.7998
22.3592
21.6028
19.737
16.9261
13.041
5.88908
18.831
20.7875
21.2252
20.4702
18.6977
16.0591
12.43
5.7178
18.1597
19.8576
20.1972
19.4482
17.7615
15.2781
11.8792
5.56513
17.5113
19.0011
19.2586
18.5202
16.9149
14.5721
11.3812
5.42877
16.8926
18.2069
18.3961
17.6719
16.1442
13.9305
10.929
5.30656
16.3104
17.4722
17.6029
16.8941
15.4393
13.3445
10.5166
5.19666
15.7609
16.7901
16.871
16.1784
14.7916
12.8067
10.1387
5.0974
15.2485
16.159
16.196
15.5185
14.1954
12.3116
9.79105
5.00741
14.7672
15.5735
15.5718
14.9093
13.6452
11.8547
9.47051
4.92559
14.3159
15.0296
14.9955
14.3456
13.1362
11.4319
9.17421
4.85101
13.891
14.5233
14.4614
13.8237
12.6646
11.0401
8.89988
4.78295
13.4884
14.0497
13.9648
13.3396
12.2273
10.6767
8.64562
4.72079
13.1067
13.6056
13.5014
12.8892
11.8208
10.3389
8.40971
4.66403
12.7447
13.1883
13.068
12.4692
11.442
10.0244
8.19057
4.61218
12.4003
12.7952
12.6616
12.0767
11.0885
9.73116
7.98673
4.56485
12.0732
12.4247
12.28
11.7091
10.7578
9.45718
7.79689
4.52161
11.7621
12.0749
11.921
11.3641
10.4478
9.20076
7.6198
4.48214
11.4665
11.7444
11.5829
11.0399
10.1569
8.96038
7.45442
4.44604
11.1858
11.432
11.2641
10.7347
9.88331
8.73466
7.29968
4.41313
10.919
11.1366
10.9632
10.4471
9.62574
8.52243
7.15475
4.38308
10.6652
10.857
10.6791
10.1758
9.38298
8.32264
7.01885
4.35567
10.4234
10.592
10.4105
9.91963
9.15392
8.13436
6.89131
4.33064
10.1926
10.3404
10.1561
9.67746
8.93754
7.95673
6.77151
4.3078
9.97215
10.1012
9.91497
9.44822
8.73291
7.78898
6.65888
4.28696
9.76123
9.87357
9.68604
9.23096
8.53919
7.63042
6.55295
4.26798
9.55925
9.65656
9.46841
9.02478
8.35557
7.4804
6.45325
4.2507
9.36566
9.44949
9.26128
8.82891
8.18135
7.33832
6.35934
4.23501
9.18002
9.2517
9.0639
8.64257
8.01586
7.20362
6.27083
4.22077
9.00197
9.06269
8.87568
8.46518
7.85852
7.07584
6.18738
4.20789
8.83102
8.88187
8.69601
8.29612
7.70879
6.9545
6.10864
4.19627
8.66695
8.70884
8.52439
8.13488
7.56618
6.83919
6.03431
4.18579
8.50933
8.54311
8.36031
7.98096
7.43023
6.72954
5.9641
4.17641
8.35795
8.38436
8.2034
7.83395
7.30056
6.62518
5.89776
4.168
8.21235
8.23212
8.05317
7.69339
7.17677
6.5258
5.83503
4.16054
8.07239
8.08616
7.90935
7.559
7.05855
6.43112
5.77573
4.15391
7.93752
7.94595
7.77145
7.43035
6.94554
6.34084
5.71961
4.14811
7.8077
7.81136
7.6393
7.30724
6.83754
6.25478
5.66654
4.14302
7.68239
7.68187
7.51243
7.18924
6.73419
6.17263
5.61628
4.13866
7.56161
7.55749
7.39072
7.0762
6.63535
6.09429
5.56879
4.13492
7.44481
7.43761
7.27367
6.9677
6.54064
6.01945
5.52379
4.13181
7.33219
7.32233
7.16131
6.86368
6.45001
5.94805
5.4813
4.12927
7.22308
7.21102
7.0531
6.7637
6.36305
5.87975
5.44098
4.12722
7.11781
7.10391
6.94915
6.66778
6.27977
5.81455
5.40294
4.1257
7.01554
7.00024
6.84883
6.57541
6.19977
5.75214
5.36683
4.12459
6.91686
6.90042
6.75239
6.48674
6.12307
5.69247
5.33267
4.12391
6.82069
6.80352
6.65905
6.40113
6.04923
5.63528
5.30032
4.1236
6.72791
6.71021
6.5693
6.31891
5.9784
5.58056
5.26971
4.12369
6.63717
6.61933
6.48217
6.2393
5.91005
5.52801
5.24064
4.124
6.54959
6.53178
6.39834
6.16279
5.84442
5.47767
5.21306
4.1246
6.46359
6.44617
6.31665
6.08846
5.78089
5.42919
5.18686
4.12558
6.38049
6.36363
6.238
6.01697
5.71984
5.3827
5.16198
4.12668
6.29863
6.28266
6.16112
5.9473
5.66056
5.33781
5.13829
4.12816
6.21927
6.20438
6.08693
5.88015
5.60348
5.29467
5.11572
4.12973
6.1411
6.12755
6.01435
5.81465
5.54801
5.25297
5.09421
4.1317
6.06471
6.05276
5.94389
5.75119
5.49434
5.21269
5.07357
4.13372
5.98999
5.97977
5.87528
5.68955
5.44239
5.17393
5.05403
4.13618
5.91579
5.90767
5.80777
5.62904
5.39146
5.13598
5.03498
4.13861
5.84449
5.83847
5.74307
5.57119
5.34298
5.10015
5.01743
4.14161
5.77171
5.76824
5.67767
5.51285
5.29411
5.06398
4.99965
4.14435
5.70397
5.70295
5.61704
5.459
5.24938
5.03138
4.98439
4.14797
5.63211
5.63399
5.55309
5.40218
5.20197
4.99649
4.9675
4.15093
5.56815
5.57287
5.49679
5.35269
5.16138
4.96759
4.95499
4.15521
5.49707
5.50495
5.43397
5.297
5.11501
4.93352
4.93777
4.15817
5.43698
5.44806
5.38208
5.25192
5.07861
4.90819
4.92676
4.16274
5.36676
5.38119
5.3204
5.19732
5.03312
4.87463
4.90918
4.16539
5.31057
5.32844
5.27272
5.15638
5.00048
4.85234
4.89989
4.1701
5.24133
5.26277
5.21234
5.10308
4.95612
4.81969
4.88302
4.17292
5.18905
5.21402
5.16859
5.06579
4.9266
4.7997
4.87484
4.17774
5.12062
5.14942
5.10945
5.01378
4.88347
4.76816
4.85907
4.18135
5.0722
5.1045
5.06933
4.97974
4.85664
4.7501
4.85164
4.18638
5.00395
5.04037
5.01087
4.92853
4.81432
4.71929
4.83668
4.19127
4.95935
4.9991
4.97405
4.89724
4.78956
4.70247
4.82949
4.19644
4.88999
4.93425
4.9152
4.84589
4.74725
4.67177
4.81484
4.20308
4.84905
4.89634
4.88124
4.81681
4.72387
4.65538
4.80726
4.20782
4.77702
4.82929
4.82056
4.76398
4.68042
4.62409
4.79292
4.21608
4.73901
4.79393
4.78861
4.73626
4.65783
4.60815
4.78585
4.22029
4.64633
4.70734
4.7099
4.66747
4.60129
4.56797
4.76838
4.23144
)
;

boundaryField
{
    frontAndBack
    {
        type            empty;
    }
    inlet
    {
        type            fixedValue;
        value           uniform 0.45;
    }
    outlet
    {
        type            zeroGradient;
    }
    walls
    {
        type            kqRWallFunction;
        value           nonuniform List<scalar> 
228
(
0.520974
0.606903
0.792901
0.911128
1.16467
1.32065
1.65191
1.84893
2.26302
2.5009
3.47872
3.11159
3.18595
3.39318
3.5309
3.38967
2.60977
1.7907
1.7907
4.84748
8.64521
12.363
14.6212
15.6118
15.8425
15.5067
14.3916
13.1077
11.8017
10.7673
10.0911
9.46268
8.89985
8.40098
7.94267
7.5221
7.15464
6.83261
6.54946
6.30095
6.08226
5.88908
5.7178
5.56513
5.42877
5.30656
5.19666
5.0974
5.00741
4.92559
4.85101
4.78295
4.72079
4.66403
4.61218
4.56485
4.52161
4.48214
4.44604
4.41313
4.38308
4.35567
4.33064
4.3078
4.28696
4.26798
4.2507
4.23501
4.22077
4.20789
4.19627
4.18579
4.17641
4.168
4.16054
4.15391
4.14811
4.14302
4.13866
4.13492
4.13181
4.12927
4.12722
4.1257
4.12459
4.12391
4.1236
4.12369
4.124
4.1246
4.12558
4.12668
4.12816
4.12973
4.1317
4.13372
4.13618
4.13861
4.14161
4.14435
4.14797
4.15093
4.15521
4.15817
4.16274
4.16539
4.1701
4.17292
4.17774
4.18135
4.18638
4.19127
4.19644
4.20308
4.20782
4.21608
4.22029
4.23144
0.503875
0.617954
0.765365
0.927702
1.12489
1.34353
1.59849
1.87895
2.19566
2.53852
2.99041
3.56502
4.18773
4.83464
5.49411
6.12916
6.71862
7.2239
7.63499
7.92789
8.11656
8.19426
8.17589
8.11655
7.99399
7.83215
7.6493
7.45599
7.25987
7.06754
6.88098
6.70513
6.54061
6.38787
6.24657
6.11658
5.99718
5.88798
5.78821
5.69736
5.6147
5.53974
5.47185
5.41045
5.35506
5.30506
5.26005
5.21956
5.18325
5.15064
5.12147
5.09535
5.07204
5.0512
5.03265
5.01609
5.00139
4.98831
4.97676
4.96654
4.95757
4.94967
4.94282
4.93687
4.93177
4.9274
4.92371
4.92063
4.91815
4.9161
4.91453
4.91337
4.91243
4.91198
4.91159
4.91163
4.9118
4.9122
4.91278
4.91373
4.91486
4.9164
4.91812
4.92018
4.9225
4.92493
4.92746
4.92993
4.93221
4.93437
4.93616
4.9376
4.93842
4.93879
4.93882
4.9387
4.93832
4.93798
4.93759
4.93716
4.93663
4.93555
4.9343
4.93166
4.9287
4.92169
4.91487
4.89794
4.88705
4.85748
)
;
    }
}


// ************************************************************************* //
