/*--------------------------------*- C++ -*----------------------------------*\
| =========                 |                                                 |
| \\      /  F ield         | OpenFOAM: The Open Source CFD Toolbox           |
|  \\    /   O peration     | Version:  v2012                                 |
|   \\  /    A nd           | Website:  www.openfoam.com                      |
|    \\/     M anipulation  |                                                 |
\*---------------------------------------------------------------------------*/
FoamFile
{
    version     2.0;
    format      ascii;
    class       volScalarField;
    location    "0.069";
    object      nut.air;
}
// * * * * * * * * * * * * * * * * * * * * * * * * * * * * * * * * * * * * * //

dimensions      [0 2 -1 0 0 0 0];


internalField   nonuniform List<scalar> 
1900
(
1.07826e-05
1.25664e-05
1.64255e-05
1.88861e-05
2.41588e-05
2.74149e-05
3.43191e-05
3.84516e-05
4.70968e-05
5.21758e-05
0.000160682
0.000159706
0.000159987
0.000159319
0.000160012
0.000159841
0.000161051
0.000161629
0.000163504
0.000165992
0.000160404
0.000159935
0.00015935
0.000158942
0.000158374
0.000158031
0.000157477
0.000157202
0.000156663
0.000156472
0.000160435
0.000159919
0.000159412
0.000158935
0.000158465
0.000158021
0.000157582
0.000157167
0.000156758
0.000156368
0.000160442
0.000159916
0.000159426
0.000158936
0.000158485
0.000158027
0.000157609
0.000157179
0.000156791
0.000156385
0.000160443
0.000159915
0.000159426
0.000158936
0.000158485
0.000158026
0.00015761
0.000157178
0.000156792
0.000156384
0.000160422
0.000159933
0.000159398
0.000158951
0.000158448
0.000158039
0.000157564
0.000157189
0.000156737
0.000156393
0.000160361
0.000159977
0.000159308
0.000158984
0.000158335
0.00015807
0.000157442
0.000157238
0.000156634
0.000156494
0.000160186
0.000160254
0.000159436
0.000159943
0.000159442
0.000160539
0.000160502
0.000162329
0.000162901
0.000165194
1.04284e-05
1.27952e-05
1.58552e-05
1.92305e-05
2.3335e-05
2.78918e-05
3.32113e-05
3.90711e-05
4.56967e-05
5.28805e-05
0.000196167
0.00064128
0.00141946
0.00211006
0.00247579
0.00267402
0.00269256
0.00258671
0.00247365
0.0023899
0.00233884
0.00234374
0.00237557
0.00247813
0.00261009
0.00278462
0.0030017
0.0032385
0.00347998
0.00372007
0.00392644
0.00405922
0.00417882
0.00430444
0.00442135
0.00453176
0.00463502
0.00472972
0.00482051
0.00490434
0.00498829
0.00506693
0.00513396
0.00517457
0.00520915
0.00523959
0.00526573
0.00528817
0.00530785
0.00532504
0.00534063
0.0053549
0.00536788
0.00537992
0.0053907
0.00540042
0.00540881
0.00541616
0.0054223
0.00542749
0.00543172
0.00543526
0.00543799
0.00544036
0.00544202
0.0054435
0.00544422
0.0054449
0.00544475
0.0054447
0.00544369
0.00544295
0.00544107
0.00543972
0.00543699
0.00543512
0.0054315
0.00542922
0.00542476
0.00542215
0.00541678
0.00541381
0.0054074
0.00540396
0.0053964
0.00539231
0.00538357
0.00537858
0.00536877
0.00536255
0.00535192
0.00534416
0.00533302
0.00532368
0.00531237
0.0053017
0.0052904
0.00527881
0.00526765
0.00525561
0.00524465
0.0052324
0.00522165
0.00520904
0.00519855
0.0051847
0.00517444
0.00515787
0.00514786
0.00512293
0.00017247
0.000182735
0.000219855
0.000325323
0.000480881
0.000625591
0.000699549
0.000748529
0.000767596
0.000767183
0.000765072
0.00077654
0.000806762
0.000838499
0.000891503
0.000968216
0.00106211
0.00118021
0.00131666
0.00147466
0.00164411
0.00182387
0.0020078
0.00219973
0.00240231
0.0026067
0.00280897
0.003004
0.00318995
0.00336314
0.00352319
0.0036633
0.00379199
0.00388177
0.00396803
0.00405278
0.00413095
0.00420476
0.00427609
0.00434389
0.00441152
0.0044769
0.00453602
0.00458423
0.00462807
0.00466824
0.00470456
0.00473798
0.00476816
0.00479608
0.00482196
0.00484601
0.00486863
0.00489015
0.00491014
0.00492909
0.00494652
0.00496322
0.00497831
0.00499277
0.0050055
0.00501786
0.00502841
0.00503897
0.00504764
0.00505681
0.0050638
0.00507193
0.00507743
0.00508462
0.0050886
0.00509485
0.00509722
0.00510245
0.00510316
0.0051072
0.00510625
0.00510886
0.00510642
0.00510731
0.00510355
0.00510246
0.00509766
0.00509464
0.00508908
0.00508451
0.00507838
0.00507269
0.00506621
0.00505986
0.00505311
0.00504626
0.00503929
0.00503176
0.00502456
0.0050153
0.00500758
0.00499515
0.00498703
0.00496663
0.000155878
0.000156049
0.000155666
0.000156124
0.000159359
0.000165001
0.000172684
0.000180635
0.000185995
0.000190947
0.000194861
0.000199351
0.000205349
0.000212525
0.000222202
0.000236199
0.000254818
0.00028104
0.000315684
0.000360338
0.000416351
0.000484981
0.000565621
0.00065809
0.000760769
0.000876349
0.00100087
0.00113685
0.00127814
0.0014285
0.00157788
0.00173672
0.00189707
0.00205567
0.00221435
0.00237084
0.00252258
0.0026687
0.00280787
0.00293988
0.00306321
0.00315874
0.00324153
0.00332188
0.00339936
0.00347444
0.00354645
0.00361604
0.0036819
0.00374707
0.00381088
0.00387298
0.00393588
0.00399689
0.00405537
0.00411231
0.00415921
0.00419841
0.0042343
0.00426808
0.00429888
0.00432816
0.00435484
0.00438103
0.00440489
0.00442869
0.00445005
0.00447206
0.00449091
0.00451089
0.00452724
0.00454527
0.00455911
0.00457519
0.00458658
0.00460069
0.00460974
0.00462167
0.00462857
0.00463801
0.00464292
0.00464975
0.00465293
0.00465737
0.00465911
0.00466166
0.00466222
0.0046634
0.00466307
0.00466331
0.00466223
0.00466161
0.00465974
0.00465811
0.0046553
0.00465161
0.00464741
0.00464029
0.00463483
0.00462062
0.000155908
0.000155425
0.000154969
0.000154624
0.000154426
0.000154437
0.000154543
0.000154745
0.000154913
0.000155054
0.000155127
0.000155122
0.000155174
0.000155076
0.000155278
0.000155187
0.000155799
0.000155936
0.000157406
0.000158336
0.000161601
0.000165794
0.000171256
0.000180442
0.000191907
0.000210702
0.000234302
0.00026675
0.000305689
0.00035513
0.000412236
0.000479311
0.000554839
0.00063909
0.00073024
0.000829128
0.000933636
0.00104392
0.00115796
0.00127545
0.00139399
0.00151427
0.00163702
0.00175762
0.00187665
0.0019954
0.00211178
0.00222579
0.00233636
0.00243039
0.00251037
0.0025894
0.00266843
0.00274669
0.0028236
0.00289981
0.00297471
0.00304887
0.00312161
0.00319421
0.00326563
0.0033381
0.00339665
0.00344616
0.00349266
0.00353842
0.00358221
0.00362462
0.00366285
0.00370109
0.00373507
0.00376959
0.00379938
0.00383042
0.00385663
0.00388445
0.00390704
0.00393125
0.00395018
0.00397045
0.00398639
0.0040031
0.00401643
0.00403001
0.00404111
0.00405235
0.00406166
0.00407114
0.00407904
0.00408723
0.00409387
0.00410081
0.00410597
0.00411152
0.00411489
0.00411792
0.00411849
0.00411764
0.00411533
0.00410796
0.000155951
0.000155428
0.000154992
0.000154564
0.000154294
0.000154109
0.000154095
0.000154189
0.000154293
0.00015442
0.000154399
0.000154429
0.000154247
0.000154215
0.000153927
0.000153901
0.000153554
0.000153581
0.000153198
0.000153313
0.000152911
0.000153155
0.000152783
0.000153205
0.000152953
0.000153682
0.000153772
0.000155138
0.000156045
0.000158768
0.000162234
0.000166745
0.000173173
0.000183382
0.00019583
0.000213805
0.000235741
0.000263915
0.00029752
0.000338106
0.000384616
0.000437868
0.000496871
0.0005624
0.000632624
0.000708258
0.000787282
0.000870628
0.000956119
0.0010447
0.00113286
0.00122197
0.00130871
0.0013962
0.00148539
0.00157371
0.00166167
0.00174999
0.00183703
0.00192371
0.00200843
0.00209282
0.0021749
0.0022564
0.00233491
0.00241292
0.00248589
0.00255605
0.00262031
0.00268205
0.00273807
0.00279215
0.00284077
0.00288815
0.00292999
0.00297163
0.00300755
0.00304485
0.00307586
0.00310902
0.00313767
0.00316676
0.00319265
0.00321788
0.00324124
0.00326402
0.00328521
0.00330602
0.0033253
0.0033445
0.00336194
0.0033796
0.00339468
0.00341073
0.00342293
0.00343675
0.00344481
0.00345533
0.00345891
0.00346523
0.000155953
0.000155419
0.000154979
0.000154517
0.000154256
0.00015403
0.000154127
0.000154173
0.000154495
0.00015466
0.000155102
0.0001554
0.000155957
0.000156386
0.000157053
0.000157584
0.000158321
0.000158912
0.000159699
0.00016033
0.000161166
0.00016184
0.000162743
0.000163479
0.000164469
0.000165288
0.000166391
0.000167319
0.000168568
0.000169633
0.000171078
0.000172327
0.000174019
0.00017552
0.000177589
0.000179862
0.000182397
0.000185463
0.0001893
0.000193853
0.000199647
0.000206662
0.000215609
0.000226557
0.000240366
0.000257183
0.000277812
0.000302638
0.000332384
0.00036694
0.000407007
0.000451994
0.000502303
0.000556629
0.000615487
0.000677795
0.000743185
0.000810999
0.000880413
0.000951167
0.00102206
0.00109323
0.00116327
0.00123264
0.00129944
0.00136507
0.00142804
0.0014918
0.00155261
0.00161403
0.00167236
0.0017313
0.00178719
0.00184413
0.00189785
0.00195191
0.0020034
0.00205556
0.00210481
0.00215399
0.00220078
0.00224682
0.00229062
0.00233326
0.00237358
0.00241293
0.00244967
0.00248592
0.00251924
0.00255282
0.00258301
0.00261435
0.00264117
0.00267068
0.00269379
0.00272168
0.0027397
0.00276595
0.00277779
0.00280282
0.000155872
0.000155441
0.000154877
0.000154528
0.000154137
0.000154111
0.000154399
0.00015511
0.000156501
0.000158757
0.000161989
0.000165484
0.000169695
0.000174012
0.000178707
0.000183137
0.00018775
0.00019204
0.00019649
0.000200639
0.000205026
0.00020918
0.000213715
0.000218022
0.000222841
0.000227425
0.000232641
0.000237613
0.000243176
0.000248857
0.00025503
0.000261216
0.000268001
0.000274847
0.000282428
0.0002901
0.000298628
0.000307239
0.000316774
0.000326404
0.000337036
0.000347776
0.000359596
0.000371552
0.000384675
0.000397977
0.000412532
0.000427324
0.00044343
0.00045986
0.000477722
0.000496013
0.000515875
0.000536349
0.000558516
0.000581519
0.000606339
0.000632222
0.00066003
0.000689463
0.000720067
0.000753005
0.00078718
0.000823808
0.000861232
0.000901338
0.000941636
0.000984807
0.00102786
0.00107375
0.00111932
0.00116758
0.00121539
0.00126566
0.00131537
0.0013672
0.00141822
0.00147082
0.00152219
0.00157443
0.00162477
0.00167536
0.00172333
0.00177113
0.00181549
0.00185969
0.00189974
0.0019401
0.00197588
0.00201291
0.00204492
0.00207933
0.00210776
0.00214032
0.00216546
0.00219669
0.00221799
0.00224776
0.00226507
0.0022954
0.000155799
0.000155733
0.000155029
0.000155434
0.000155764
0.000160088
0.000164386
0.000172712
0.000186196
0.000201291
0.000218073
0.000234277
0.000250142
0.000264309
0.000277852
0.000289912
0.0003019
0.000312923
0.000324443
0.000335688
0.000347877
0.000360266
0.000373199
0.000386306
0.000400034
0.000413885
0.000428439
0.000443069
0.000458501
0.000473917
0.000490232
0.000506435
0.000523756
0.000541854
0.000560793
0.000580274
0.000600426
0.000620932
0.000642007
0.000663324
0.000685157
0.000707176
0.000729687
0.000752367
0.000775541
0.000798884
0.000822725
0.000846598
0.000871002
0.000895651
0.000920482
0.000945697
0.000971367
0.000997411
0.00102387
0.00105079
0.00107807
0.00110584
0.00113389
0.00116244
0.00119112
0.00122029
0.00124932
0.00127876
0.00130775
0.00133705
0.00136551
0.00139424
0.0014218
0.00144947
0.00147577
0.00150209
0.00152696
0.00155172
0.00157504
0.00159824
0.00161999
0.00164174
0.00166197
0.0016824
0.00170131
0.00172061
0.0017384
0.00175655
0.00177314
0.0017901
0.00180546
0.00182123
0.00183565
0.00185059
0.00186446
0.00187872
0.00189203
0.00190589
0.0019185
0.0019321
0.00194344
0.00195629
0.00196527
0.00197784
0.000166516
0.000169603
0.000176144
0.00018866
0.000212058
0.000244411
0.000282781
0.000323024
0.000361857
0.000397524
0.000429333
0.000457424
0.000482543
0.00050561
0.000527823
0.000550316
0.000573382
0.000597144
0.000624463
0.000652912
0.000681097
0.000691081
0.000701616
0.00071302
0.00072488
0.000737519
0.000750451
0.000764123
0.00077792
0.000792275
0.000806614
0.000821383
0.000835929
0.000850291
0.000864473
0.000878481
0.000892353
0.000906038
0.000919542
0.000932833
0.000945953
0.000958857
0.000971655
0.000984233
0.00099664
0.00100879
0.00102081
0.00103266
0.00104435
0.00105584
0.00106716
0.00107828
0.00108922
0.00109998
0.00111055
0.00112092
0.00113111
0.00114112
0.00115094
0.00116059
0.00117002
0.00117927
0.00118834
0.00119728
0.00120595
0.00121457
0.00122293
0.0012312
0.00123926
0.00124729
0.00125507
0.00126281
0.00127033
0.00127775
0.00128504
0.00129206
0.00129907
0.00130566
0.00131218
0.00131863
0.00132476
0.00133089
0.00133655
0.0013422
0.00134739
0.00135262
0.00135739
0.00136215
0.0013665
0.00137083
0.00137472
0.00137854
0.00138194
0.00138533
0.00138862
0.00139163
0.00139394
0.00139589
0.00139722
0.00140159
6.23708e-05
7.45212e-05
8.79205e-05
0.000102396
0.000118129
0.000134678
0.000151713
0.000168235
0.000183701
0.000197067
0.000208128
0.000216298
0.00022157
0.000225223
0.000226535
0.000226141
0.000224563
0.000222166
0.00021922
0.000215994
0.000212593
0.000209232
0.000205974
0.000202874
0.000199953
0.000197231
0.00019471
0.000192395
0.000190278
0.000188356
0.000186617
0.000185054
0.000183655
0.000182411
0.00018131
0.00018034
0.000179489
0.000178749
0.000178109
0.000177559
0.000177092
0.000176697
0.000176368
0.000176098
0.000175881
0.000175711
0.00017558
0.000175486
0.000175424
0.000175392
0.000175385
0.000175401
0.000175437
0.00017549
0.00017556
0.000175641
0.000175733
0.000175834
0.000175943
0.000176056
0.000176175
0.000176297
0.000176416
0.000176541
0.00017666
0.000176783
0.000176904
0.000177024
0.000177143
0.000177267
0.000177392
0.000177524
0.000177657
0.000177796
0.000177938
0.000178079
0.000178218
0.000178348
0.000178467
0.000178578
0.000178672
0.000178751
0.000178808
0.000178848
0.000178878
0.000178906
0.000178928
0.000178958
0.00017899
0.000179026
0.000179061
0.000179078
0.000179091
0.000179058
0.000179014
0.000178836
0.000178655
0.000178174
0.000177825
0.000177036
0.000132029
0.00100866
0.00144191
0.00161975
0.00157206
0.00130269
0.000974527
0.000294976
0.00294547
0.00274224
0.00298682
0.0031407
0.00283862
0.00217103
0.00114302
0.000457659
0.00467238
0.00460563
0.00549735
0.00623567
0.0059145
0.00462861
0.00246869
0.000595081
0.00542864
0.00584553
0.0071313
0.00894467
0.00857619
0.00696548
0.00395372
0.000754749
0.00574991
0.00657414
0.00809046
0.00987193
0.00989393
0.00828778
0.00495181
0.00085764
0.00587161
0.00677446
0.00820923
0.00998181
0.0102975
0.00879242
0.00535497
0.000886357
0.0057717
0.0069261
0.00824443
0.0098546
0.0103959
0.00898469
0.00553474
0.000892911
0.00550984
0.00679022
0.00826819
0.00982123
0.0103339
0.00900553
0.00561261
0.000883355
0.00522773
0.00657765
0.00809741
0.00963642
0.0100802
0.0088138
0.0055222
0.000850845
0.004994
0.00638382
0.00793945
0.00944309
0.0097603
0.00852689
0.00535273
0.000811809
0.00481939
0.00623512
0.00782174
0.00928991
0.00942988
0.00821103
0.00515326
0.000770071
0.00472718
0.00616842
0.00775095
0.00900465
0.00909398
0.00787759
0.00492679
0.000735334
0.00468142
0.00615464
0.00772319
0.00874233
0.00876608
0.0075367
0.00467799
0.00071171
0.00469959
0.00619388
0.00773061
0.00850605
0.00845664
0.00721046
0.00443948
0.00068903
0.00473385
0.00626274
0.00777052
0.00829793
0.00817367
0.00690807
0.00422021
0.000668064
0.00478742
0.00633674
0.00769762
0.00810502
0.00791027
0.00663614
0.00401827
0.000648915
0.00486075
0.00640285
0.00756033
0.00791894
0.00766221
0.00638423
0.00383731
0.000603395
0.00494977
0.0064627
0.00743435
0.00774035
0.00743084
0.00615465
0.00368573
0.000521012
0.00505039
0.00651605
0.00731824
0.00757222
0.00721635
0.00594358
0.00354767
0.000459821
0.00516048
0.00656503
0.00721361
0.00741651
0.00701877
0.00574926
0.00342017
0.000412807
0.00527793
0.00658836
0.007119
0.00727289
0.00683727
0.00557068
0.00330267
0.000375645
0.00540305
0.00655392
0.00703356
0.00714089
0.00667069
0.00540682
0.00319486
0.000345642
0.00551874
0.00652059
0.00695397
0.00701849
0.0065172
0.00525601
0.00309574
0.000320964
0.00563024
0.00648968
0.0068797
0.00690449
0.00637511
0.00511667
0.00300437
0.000300363
0.00572879
0.00645954
0.00680954
0.00679769
0.00624312
0.0049874
0.00291984
0.000282946
0.00581925
0.00643015
0.00674293
0.00669725
0.00611941
0.00486702
0.00284142
0.00026805
0.00583394
0.006401
0.00667906
0.00660187
0.00600479
0.00475424
0.00276849
0.000255197
0.00584214
0.0063708
0.00661692
0.00651079
0.00589713
0.00464836
0.00270042
0.000244008
0.00584698
0.00634031
0.00655666
0.00642375
0.00579524
0.00454865
0.00263669
0.000234197
0.00584878
0.00630942
0.00649781
0.00634027
0.00569824
0.00445436
0.0025768
0.000225535
0.00585011
0.00627932
0.00644065
0.00626003
0.00560582
0.00436499
0.00252036
0.000217838
0.00585029
0.00624985
0.0063852
0.00618302
0.00551762
0.00428019
0.0024671
0.000210964
0.00584994
0.00622109
0.00633214
0.00610894
0.00543324
0.00419954
0.00241675
0.000204797
0.00584897
0.0061932
0.00628113
0.0060379
0.00535255
0.00412283
0.00236915
0.000199241
0.00584655
0.00616574
0.00623185
0.00596988
0.00527539
0.00404981
0.00232411
0.000194219
0.00584301
0.00613864
0.00618408
0.00590432
0.00520159
0.00398031
0.00228149
0.000189668
0.00583828
0.0061118
0.00613753
0.00584171
0.0051306
0.003914
0.00224111
0.000185532
0.00583219
0.00608516
0.00609222
0.00578155
0.00506241
0.00385066
0.00220283
0.000181766
0.00582511
0.00605869
0.00604809
0.00572352
0.00499686
0.00379009
0.00216649
0.000178328
0.00581715
0.0060324
0.00600509
0.00566745
0.00493381
0.00373212
0.00213197
0.000175185
0.0058086
0.0060063
0.00596311
0.00561314
0.00487305
0.00367656
0.00209913
0.000172304
0.00579978
0.00598058
0.00592223
0.00556056
0.00481449
0.00362326
0.00206786
0.000169661
0.00579067
0.00595523
0.00588236
0.00550958
0.00475797
0.0035721
0.00203805
0.000167232
0.00578149
0.00593035
0.0058436
0.00546018
0.00470343
0.00352295
0.00200962
0.000164994
0.00577209
0.00590586
0.00580571
0.00541227
0.00465074
0.0034757
0.00198249
0.00016293
0.00576257
0.00588177
0.005769
0.0053657
0.00459982
0.00343025
0.00195659
0.000161023
0.00575273
0.00585797
0.00573325
0.00532042
0.00455055
0.00338651
0.00193184
0.000159258
0.00574272
0.00583452
0.00569839
0.00527642
0.00450287
0.0033444
0.00190819
0.000157624
0.0057324
0.00581129
0.00566425
0.00523357
0.00445666
0.0033038
0.00188559
0.000156109
0.00572189
0.00578839
0.00563088
0.0051919
0.00441188
0.00326467
0.00186396
0.000154702
0.00571106
0.00576566
0.00559812
0.00515125
0.00436844
0.00322691
0.00184326
0.000153396
0.00570016
0.00574333
0.00556609
0.00511169
0.00432631
0.00319046
0.00182345
0.000152182
0.00568896
0.0057211
0.00553462
0.00507306
0.00428537
0.00315526
0.00180447
0.000151052
0.0056778
0.00569941
0.0055038
0.00503543
0.00424565
0.00312125
0.00178628
0.00015
0.00566638
0.00567788
0.00547345
0.00499862
0.00420701
0.00308837
0.00176885
0.00014902
0.00565517
0.00565687
0.00544383
0.00496278
0.00416949
0.00305658
0.00175212
0.000148106
0.00564366
0.00563593
0.00541462
0.00492767
0.00413296
0.00302582
0.00173608
0.000147254
0.00563248
0.00561558
0.00538618
0.00489353
0.0040975
0.00299608
0.00172069
0.000146458
0.00562092
0.00559518
0.00535806
0.00486005
0.00406293
0.00296727
0.00170591
0.000145715
0.0056098
0.0055754
0.00533076
0.00482754
0.0040294
0.00293942
0.00169174
0.000145021
0.00559818
0.0055555
0.0053037
0.00479561
0.00399669
0.00291243
0.00167812
0.000144373
0.00558711
0.00553636
0.00527749
0.00476464
0.00396499
0.00288636
0.00166506
0.000143767
0.00557539
0.00551695
0.00525138
0.00473414
0.00393402
0.00286107
0.0016525
0.000143201
0.00556444
0.00549843
0.00522624
0.00470463
0.00390404
0.00283666
0.00164048
0.000142671
0.00555261
0.00547945
0.00520106
0.00467548
0.00387469
0.00281295
0.0016289
0.000142175
0.00554178
0.00546152
0.00517695
0.00464736
0.0038463
0.00279005
0.00161782
0.000141712
0.00552974
0.00544285
0.00515258
0.00461943
0.00381845
0.0027678
0.00160712
0.000141277
0.00551904
0.00542546
0.00512941
0.00459258
0.00379153
0.00274627
0.00159684
0.000140869
0.0055067
0.00540696
0.00510569
0.00456569
0.00376498
0.00272532
0.001587
0.000140487
0.00549614
0.00539006
0.00508337
0.00453998
0.00373939
0.00270508
0.00157752
0.00014013
0.00548341
0.00537159
0.00506012
0.00451397
0.003714
0.00268529
0.00156836
0.000139792
0.00547293
0.0053551
0.00503853
0.00448927
0.0036896
0.00266618
0.00155954
0.000139473
0.00545964
0.00533649
0.00501558
0.00446395
0.00366519
0.00264741
0.00155102
0.000139177
0.00544911
0.00532029
0.00499461
0.00444015
0.00364186
0.00262932
0.0015428
0.000138895
0.00543514
0.00530139
0.00497181
0.0044154
0.00361834
0.0026115
0.00153486
0.000138635
0.00542439
0.00528532
0.00495131
0.00439239
0.00359599
0.00259436
0.0015272
0.000138386
0.00540968
0.00526607
0.00492858
0.00436817
0.0035733
0.00257743
0.00151979
0.000138159
0.00539848
0.00524994
0.00490842
0.00434584
0.00355185
0.00256116
0.00151262
0.000137942
0.00538309
0.00523042
0.00488588
0.00432219
0.00353004
0.00254511
0.00150572
0.000137746
0.00537112
0.00521394
0.00486582
0.00430032
0.00350932
0.00252959
0.00149898
0.000137556
0.00535533
0.00519442
0.0048437
0.00427745
0.00348852
0.0025145
0.00149261
0.00013739
0.00534226
0.00517727
0.00482341
0.00425576
0.00346828
0.00249954
0.0014862
0.000137223
0.00532645
0.00515814
0.0048021
0.00423403
0.00344876
0.00248557
0.00148043
0.000137087
0.00531213
0.00514009
0.0047813
0.0042122
0.00342871
0.00247095
0.00147426
0.000136937
0.00529667
0.0051218
0.00476118
0.00419195
0.00341072
0.00245825
0.00146806
0.000136831
0.00528125
0.00510289
0.00473973
0.00416975
0.00339055
0.00244379
0.00145891
0.000136691
0.00526634
0.00508559
0.00472098
0.0041511
0.00337423
0.00243256
0.00145186
0.000136603
0.00525014
0.00506604
0.00469903
0.00412858
0.00335393
0.00241817
0.00144241
0.000136461
0.00523583
0.0050497
0.00468155
0.00411143
0.00333915
0.00240822
0.00143562
0.000136387
0.00521933
0.00502996
0.00465953
0.00408898
0.00331908
0.00239414
0.00142624
0.00013626
0.00520559
0.00501449
0.00464315
0.00407313
0.00330564
0.00238529
0.00141964
0.000136198
0.00518911
0.00499495
0.00462152
0.00405127
0.00328626
0.00237178
0.00141057
0.000136103
0.00517589
0.00498025
0.00460615
0.00403663
0.00327409
0.00236398
0.00140423
0.000136055
0.00515936
0.00496096
0.00458509
0.0040156
0.00325564
0.00235114
0.00139558
0.000136003
0.00514673
0.00494709
0.00457076
0.00400213
0.00324462
0.00234425
0.00138956
0.000135965
0.00512946
0.00492757
0.00455002
0.00398195
0.00322722
0.0023322
0.00138126
0.000135961
0.00511758
0.00491479
0.00453702
0.00396986
0.00321748
0.00232599
0.0013755
0.000135918
0.00509827
0.00489392
0.00451566
0.00394974
0.00320046
0.00231461
0.00136739
0.000135925
0.00508712
0.00488226
0.00450405
0.00393907
0.00319172
0.00230884
0.00136327
0.000135894
0.00505947
0.00485339
0.00447535
0.00391269
0.00317007
0.00229458
0.00135498
0.000135828
)
;

boundaryField
{
    frontAndBack
    {
        type            empty;
    }
    inlet
    {
        type            calculated;
        value           nonuniform List<scalar> 10(9.54769e-06 0.000160714 0.000160714 0.000160714 0.000160714 0.000160714 0.000160714 0.000160714 0.000160714 9.54736e-06);
    }
    outlet
    {
        type            calculated;
        value           nonuniform List<scalar> 
18
(
0.00505947
0.00485339
0.00447535
0.00391269
0.00317007
0.00229458
0.00135445
0.00017166
0.00512293
0.00496663
0.00462062
0.00410796
0.00346523
0.00280282
0.0022954
0.00197784
0.00140199
0.000185768
)
;
    }
    walls
    {
        type            nutkWallFunction;
        blending        stepwise;
        Cmu             0.09;
        kappa           0.41;
        E               9.8;
        value           nonuniform List<scalar> 
228
(
2.20337e-05
2.44559e-05
2.91026e-05
3.17398e-05
3.68056e-05
3.96162e-05
4.50184e-05
4.79443e-05
5.35672e-05
5.65374e-05
0.00022826
0.000216672
0.000219077
0.000225623
0.000229851
0.000225514
0.000199531
3.37445e-05
3.37445e-05
5.92132e-05
7.99893e-05
9.57465e-05
0.000104038
0.000107449
0.000108226
0.000107093
0.000103229
9.85679e-05
9.35565e-05
8.93627e-05
8.6498e-05
8.3738e-05
8.11775e-05
7.88311e-05
7.66058e-05
7.44994e-05
7.26044e-05
7.08982e-05
6.93605e-05
6.79798e-05
6.67394e-05
6.56226e-05
6.46151e-05
6.37027e-05
6.28759e-05
6.21249e-05
6.14411e-05
6.08166e-05
6.02445e-05
5.97192e-05
5.92362e-05
5.87918e-05
5.83827e-05
5.80065e-05
5.76607e-05
5.7343e-05
5.70512e-05
5.67834e-05
5.65374e-05
5.63121e-05
5.61056e-05
5.59166e-05
5.57433e-05
5.55847e-05
5.54396e-05
5.53071e-05
5.51862e-05
5.50761e-05
5.49761e-05
5.48854e-05
5.48034e-05
5.47295e-05
5.46631e-05
5.46036e-05
5.45507e-05
5.45037e-05
5.44625e-05
5.44263e-05
5.43953e-05
5.43687e-05
5.43466e-05
5.43285e-05
5.43139e-05
5.43031e-05
5.42952e-05
5.42903e-05
5.42881e-05
5.42888e-05
5.4291e-05
5.42953e-05
5.43022e-05
5.43101e-05
5.43206e-05
5.43318e-05
5.43458e-05
5.43602e-05
5.43777e-05
5.43949e-05
5.44163e-05
5.44358e-05
5.44615e-05
5.44825e-05
5.45129e-05
5.45339e-05
5.45663e-05
5.45851e-05
5.46185e-05
5.46384e-05
5.46725e-05
5.46981e-05
5.47336e-05
5.47682e-05
5.48047e-05
5.48515e-05
5.48849e-05
5.49431e-05
5.49727e-05
5.5051e-05
2.15252e-05
2.47529e-05
2.84569e-05
3.20937e-05
3.60553e-05
4.00124e-05
4.41914e-05
4.83744e-05
5.26946e-05
5.69924e-05
6.21849e-05
6.81865e-05
7.41054e-05
7.97523e-05
8.50883e-05
8.98976e-05
9.41179e-05
9.75735e-05
0.000100287
0.00010217
0.000103363
0.00010385
0.000103735
0.000103363
0.00010259
0.000101559
0.00010038
9.91156e-05
9.78143e-05
9.6519e-05
9.52437e-05
9.40237e-05
9.2866e-05
9.17765e-05
9.07557e-05
8.9805e-05
8.89219e-05
8.81055e-05
8.73522e-05
8.66598e-05
8.60246e-05
8.54439e-05
8.49143e-05
8.4432e-05
8.39943e-05
8.35971e-05
8.32377e-05
8.29129e-05
8.26205e-05
8.23569e-05
8.21203e-05
8.19077e-05
8.17176e-05
8.15471e-05
8.13951e-05
8.12591e-05
8.11382e-05
8.10304e-05
8.09351e-05
8.08507e-05
8.07765e-05
8.07112e-05
8.06544e-05
8.06051e-05
8.05628e-05
8.05265e-05
8.04959e-05
8.04703e-05
8.04496e-05
8.04326e-05
8.04196e-05
8.041e-05
8.04021e-05
8.03984e-05
8.03952e-05
8.03955e-05
8.03969e-05
8.04002e-05
8.04051e-05
8.04129e-05
8.04223e-05
8.04351e-05
8.04494e-05
8.04665e-05
8.04858e-05
8.0506e-05
8.0527e-05
8.05475e-05
8.05664e-05
8.05844e-05
8.05992e-05
8.06111e-05
8.06179e-05
8.0621e-05
8.06213e-05
8.06203e-05
8.06171e-05
8.06143e-05
8.06111e-05
8.06075e-05
8.06031e-05
8.05942e-05
8.05838e-05
8.05618e-05
8.05373e-05
8.04791e-05
8.04224e-05
8.02815e-05
8.01907e-05
7.99437e-05
)
;
    }
}


// ************************************************************************* //
