/*--------------------------------*- C++ -*----------------------------------*\
| =========                 |                                                 |
| \\      /  F ield         | OpenFOAM: The Open Source CFD Toolbox           |
|  \\    /   O peration     | Version:  v2012                                 |
|   \\  /    A nd           | Website:  www.openfoam.com                      |
|    \\/     M anipulation  |                                                 |
\*---------------------------------------------------------------------------*/
FoamFile
{
    version     2.0;
    format      ascii;
    class       volScalarField;
    location    "0.069";
    object      nut.air;
}
// * * * * * * * * * * * * * * * * * * * * * * * * * * * * * * * * * * * * * //

dimensions      [0 2 -1 0 0 0 0];


internalField   nonuniform List<scalar> 
5600
(
1.31069e-05
2.99212e-05
5.00641e-05
6.50764e-05
7.30392e-05
7.5609e-05
7.50284e-05
7.28243e-05
7.0155e-05
6.76953e-05
6.55223e-05
6.37428e-05
6.2437e-05
6.16024e-05
6.12012e-05
6.11429e-05
6.13455e-05
6.16893e-05
6.21183e-05
6.25333e-05
6.29426e-05
6.32668e-05
6.35776e-05
6.37855e-05
6.40143e-05
6.41434e-05
6.43451e-05
6.44221e-05
6.46136e-05
6.46482e-05
6.48372e-05
6.48439e-05
6.50114e-05
6.50032e-05
6.51281e-05
6.51277e-05
6.5187e-05
6.5223e-05
6.52113e-05
6.52855e-05
6.52303e-05
6.53051e-05
6.52685e-05
6.52801e-05
6.53362e-05
6.52263e-05
6.54146e-05
6.51863e-05
6.54589e-05
6.5201e-05
6.54355e-05
6.52869e-05
6.53518e-05
6.54158e-05
6.52594e-05
6.55176e-05
6.52345e-05
6.55219e-05
6.53285e-05
6.54065e-05
6.55297e-05
6.52285e-05
6.57414e-05
6.51174e-05
6.58226e-05
6.52068e-05
6.56789e-05
6.55252e-05
6.53668e-05
6.59271e-05
6.50924e-05
6.61519e-05
6.50943e-05
6.60126e-05
6.54165e-05
6.56079e-05
6.58395e-05
6.5278e-05
6.59972e-05
6.53392e-05
6.57036e-05
6.57847e-05
6.51822e-05
6.62479e-05
6.48809e-05
6.63208e-05
6.50364e-05
6.5961e-05
6.549e-05
6.55056e-05
6.57676e-05
6.55369e-05
6.52704e-05
6.64859e-05
6.39464e-05
6.79394e-05
6.21651e-05
7.07946e-05
5.43475e-05
8.92527e-05
0.000160812
0.000142314
0.000113579
0.0001024
0.000100791
0.000107294
0.000116907
0.000134049
0.000149131
0.000162917
0.000180193
0.000199918
0.000221232
0.000243244
0.0002654
0.000286893
0.000307462
0.000326234
0.000343626
0.000358608
0.000372451
0.000383909
0.000395086
0.000403983
0.000413624
0.000420766
0.000429589
0.000435064
0.000443204
0.000447163
0.000454686
0.000457371
0.00046376
0.000465756
0.000470474
0.000472595
0.000475317
0.000478252
0.000479028
0.00048259
0.000482452
0.00048541
0.000486235
0.00048682
0.000490474
0.000487484
0.000494501
0.000488708
0.000497087
0.000491433
0.000497507
0.000495854
0.000496395
0.000500746
0.000495435
0.000504003
0.000496709
0.000504114
0.000501338
0.000501069
0.000508261
0.000497047
0.000514026
0.000496013
0.000514977
0.000500989
0.000509615
0.000511592
0.000501063
0.000522359
0.000496045
0.000526202
0.000499693
0.000520072
0.000511143
0.000509103
0.000522211
0.00050324
0.000523224
0.000508706
0.000512884
0.000522247
0.00049981
0.000531915
0.000495595
0.000529682
0.000503097
0.000517945
0.000515524
0.000507596
0.000519622
0.000512038
0.000505384
0.000532204
0.000486754
0.000537665
0.000498802
0.000511136
0.00051502
0.000517527
0.000158641
0.000156083
0.000150471
0.000143766
0.000134721
0.000123902
0.000114776
0.000108872
0.000106734
0.000108461
0.000113666
0.000121378
0.000132129
0.000145163
0.000161378
0.000179704
0.000201341
0.000224621
0.000251316
0.000278598
0.00030979
0.000340413
0.000376733
0.000410744
0.000448711
0.000476134
0.000509547
0.00053277
0.00056333
0.000577887
0.000601094
0.000611435
0.000630364
0.000639503
0.000654062
0.000664537
0.000673691
0.000686162
0.000690851
0.000703714
0.000707415
0.000716703
0.000724596
0.000725966
0.000741617
0.000733975
0.00075608
0.000743544
0.000765199
0.000756762
0.000768518
0.000772546
0.000769062
0.000787045
0.000771853
0.000795642
0.000781546
0.000795487
0.000798764
0.0007888
0.000818488
0.000783357
0.000831347
0.000788516
0.000829266
0.000809113
0.000813263
0.000838556
0.000795716
0.000861289
0.000792803
0.000862589
0.000812935
0.000842517
0.000845227
0.0008197
0.000866144
0.000816318
0.000859296
0.000838791
0.000831292
0.000869075
0.000808038
0.000880798
0.000809735
0.000865895
0.000833047
0.000838974
0.000856585
0.000824397
0.000856259
0.000839683
0.000829838
0.000862529
0.000827602
0.00082419
0.000915432
0.000721557
0.00100753
0.000723797
0.000159224
0.000156906
0.000154732
0.000152543
0.00015029
0.000147409
0.000144142
0.000140221
0.000136497
0.000132204
0.000129157
0.000124598
0.000122189
0.000118389
0.000118613
0.000117156
0.000121937
0.000124321
0.000135389
0.000142531
0.000160944
0.000173154
0.000199862
0.000217478
0.000253613
0.000276651
0.000321072
0.000347179
0.000393722
0.000416449
0.000458714
0.000480518
0.000519467
0.000542797
0.000575061
0.000602178
0.000625671
0.000657406
0.000673552
0.000705703
0.000721163
0.00074601
0.000770601
0.00077779
0.000816644
0.000801799
0.000848397
0.00082845
0.000868492
0.000861363
0.000878191
0.000896882
0.000884831
0.000927049
0.000898064
0.000943655
0.000925202
0.0009436
0.000964392
0.0009342
0.00100372
0.000931905
0.00102479
0.000952943
0.00101604
0.00100082
0.000985562
0.00105788
0.000960704
0.00109349
0.000970127
0.00108638
0.00102024
0.00104682
0.00108166
0.00101378
0.00111057
0.00102252
0.00108786
0.0010715
0.00103785
0.00111986
0.00100833
0.00112706
0.00102377
0.00109414
0.0010653
0.0010533
0.00109475
0.00104225
0.00108114
0.00107579
0.00103867
0.00110153
0.00105207
0.00103151
0.00116943
0.000916803
0.00120428
0.0010107
0.000159361
0.000157176
0.000155342
0.000153578
0.00015214
0.000150531
0.00014935
0.000147603
0.000146657
0.000144489
0.000144005
0.000140952
0.000141422
0.000136606
0.000139121
0.000131165
0.000137463
0.000124636
0.000136264
0.000117086
0.000136691
0.000111834
0.000140833
0.000113171
0.000151472
0.000125381
0.000171487
0.000151922
0.000202776
0.000193773
0.000244527
0.000249278
0.00029447
0.000316863
0.000352247
0.000386594
0.000406288
0.000447953
0.000461976
0.00050341
0.000523922
0.000550548
0.000591398
0.000592508
0.000658453
0.000636864
0.000714836
0.000690611
0.000755234
0.000755653
0.000780776
0.000824194
0.000802962
0.000881046
0.000837506
0.000913516
0.000896292
0.000919833
0.000973765
0.000913465
0.00104468
0.000922948
0.00107978
0.000974446
0.00106587
0.00106928
0.00102076
0.00117017
0.000993923
0.00122172
0.00102949
0.0011987
0.00112924
0.00113767
0.00122998
0.00110163
0.00126053
0.00113327
0.00121501
0.00121866
0.0011427
0.0012804
0.00110769
0.00127543
0.00114404
0.00122433
0.00120729
0.0011773
0.00123347
0.00117762
0.00120184
0.00122983
0.00113696
0.00125066
0.00116999
0.00115518
0.00130661
0.0010211
0.00130012
0.00115786
0.000159384
0.000157268
0.000155488
0.000153835
0.00015248
0.000151065
0.000150056
0.000148677
0.000148071
0.000146435
0.000146523
0.00014405
0.000145586
0.000141112
0.000145625
0.000137017
0.000147261
0.000130928
0.000151274
0.00012185
0.000158329
0.000109344
0.000168298
9.46057e-05
0.000178913
8.18914e-05
0.000184722
7.77852e-05
0.000180543
8.96206e-05
0.00016656
0.000118881
0.000152076
0.000159661
0.000150295
0.000202098
0.000171489
0.000237476
0.000219449
0.000263716
0.000291237
0.000288062
0.000374071
0.000323524
0.000441033
0.000380908
0.000487903
0.000446652
0.000514904
0.000526728
0.000531287
0.00060852
0.000557025
0.000668486
0.000608018
0.000696866
0.000694997
0.000696763
0.000803102
0.000691489
0.000889874
0.00072296
0.000923906
0.000815183
0.000892722
0.000953983
0.000835841
0.00108234
0.000824155
0.00113758
0.000904666
0.00109713
0.0010575
0.00101615
0.00118887
0.000990361
0.0012173
0.00106388
0.00114139
0.00118629
0.0010514
0.0012588
0.00103624
0.0012341
0.00109505
0.001162
0.00116154
0.00111277
0.00117781
0.00113193
0.00112345
0.00120103
0.00106624
0.00120611
0.00113011
0.00107548
0.00127399
0.000987598
0.00123622
0.0011394
0.000159386
0.000157304
0.000155525
0.000153928
0.000152563
0.000151238
0.000150196
0.00014897
0.000148286
0.000146916
0.000146828
0.000144835
0.00014596
0.000142383
0.000146001
0.000139035
0.000147501
0.000134035
0.000151204
0.000126476
0.000157801
0.000115658
0.000167298
0.000102015
0.000177891
8.86656e-05
0.00018486
8.28466e-05
0.000180494
9.4768e-05
0.000157151
0.000129752
0.000115169
0.000175843
7.31474e-05
0.000202543
6.69965e-05
0.000181194
0.000120631
0.000117708
0.000211588
5.59e-05
0.000284202
3.92888e-05
0.000306262
8.46597e-05
0.000283165
0.000186597
0.000234562
0.00031376
0.000210283
0.00040546
0.000238012
0.000446269
0.000336591
0.000430209
0.000477196
0.000395229
0.000592076
0.000389765
0.000669912
0.000450937
0.000665872
0.000577437
0.000594681
0.00074617
0.000527318
0.000869931
0.000539488
0.000889099
0.000663472
0.000812522
0.000853519
0.000733186
0.000988044
0.000745035
0.000987969
0.000860243
0.000895847
0.000994214
0.000823621
0.00104366
0.000839594
0.000999401
0.000906645
0.000935863
0.000955035
0.000910624
0.000949168
0.00094242
0.000896972
0.000993634
0.000870553
0.000971044
0.00094339
0.000869672
0.00103011
0.000842755
0.000979803
0.000944777
0.000159387
0.000157318
0.000155538
0.000153964
0.000152586
0.00015131
0.00015022
0.000149108
0.00014828
0.000147187
0.000146704
0.000145391
0.000145513
0.000143538
0.000144827
0.00014137
0.000144877
0.000138531
0.000145989
0.000134607
0.000148461
0.000129321
0.000152223
0.000123049
0.000156247
0.000117635
0.000157978
0.000116979
0.000153414
0.000125828
0.000138733
0.000145211
0.000114562
0.000166835
9.30996e-05
0.000173719
9.97628e-05
0.000148856
0.000147673
8.82979e-05
0.000204643
2.2768e-05
0.000226575
8.61014e-06
0.000217957
3.82677e-05
0.000194297
0.00012731
8.75349e-05
0.00023131
9.84233e-05
0.00030693
0.000135377
0.000359335
0.000198305
0.000190424
0.000369784
5.09836e-05
0.000379019
0.0001083
0.000527118
0.000146509
0.000357755
0.000365809
0.000205984
0.000565081
0.000128624
0.000644615
0.000199534
0.000586423
0.000419365
0.000476974
0.000625183
0.000427368
0.000717701
0.000483385
0.000680184
0.000613025
0.000595407
0.000721707
0.000562419
0.000734376
0.000601451
0.000688263
0.0006531
0.000653549
0.000670311
0.000653961
0.000652043
0.000682478
0.000620356
0.000701462
0.000625178
0.000668653
0.00067744
0.000619953
0.000704507
0.000629895
0.000671353
0.000668178
0.000159388
0.000157323
0.000155543
0.000153978
0.000152595
0.000151341
0.000150226
0.00014917
0.000148262
0.000147318
0.000146606
0.000145681
0.000145213
0.000144166
0.000144078
0.00014268
0.000143238
0.000141107
0.000142764
0.000139325
0.000142724
0.000137263
0.000143079
0.000135056
0.000143489
0.000133272
0.000143141
0.000132997
0.000140835
0.000135387
0.000135703
0.000140404
0.000128695
0.000145409
0.000124039
0.000145438
0.000127716
0.00013605
0.000141009
0.000117876
0.00015583
0.000101509
0.000161459
0.000101057
0.000155938
0.000116892
0.000136799
0.000151352
8.25906e-05
0.000190877
2.76244e-05
0.000198778
4.87701e-05
0.000172701
0.000153116
9.30649e-05
0.000215543
2.76172e-05
0.000183632
0.000125771
0.000275813
0.000159437
0.000179305
0.000248494
0.000163226
0.000309448
0.000152396
0.000340932
2.64411e-05
0.000310551
0.000280743
0.000221075
0.000338773
0.00016779
0.00034447
0.000243653
0.00032073
0.000330236
0.000305792
0.000363851
0.000327586
0.000357019
0.000359948
0.000347672
0.000366091
0.000354681
0.00035267
0.000370582
0.000330578
0.000387069
0.000318183
0.00038165
0.000334857
0.000356105
0.000356599
0.000338553
0.000368097
0.000333769
0.000360236
0.000349031
0.000159388
0.000157326
0.000155546
0.000153984
0.0001526
0.000151353
0.00015023
0.000149193
0.000148259
0.000147365
0.000146579
0.000145779
0.000145124
0.00014437
0.000143853
0.000143092
0.000142742
0.000141903
0.000141783
0.000140763
0.000140975
0.000139648
0.000140296
0.000138577
0.000139667
0.000137656
0.000138913
0.000137086
0.000137804
0.000137053
0.000136232
0.000137476
0.000134497
0.00013777
0.000133432
0.000136986
0.000133932
0.000134549
0.00013595
0.000131159
0.000137959
0.00012886
0.00013797
0.000129347
0.000135383
0.000132305
0.000130757
0.000136705
0.000125214
0.000139481
0.000124976
0.000134911
0.000134172
0.00012298
0.000146556
0.000111086
0.000149111
0.000118398
0.000132709
0.000143636
0.000114264
0.000162523
0.000100789
0.000159765
0.00010819
0.000137677
0.00015314
0.000123084
0.000170898
0.000116579
0.000170348
0.000132515
0.000145343
0.000168187
0.000123146
0.00019167
0.000119583
0.000186202
0.000144272
0.000164801
0.000178589
0.000143661
0.000196328
0.000136835
0.000194378
0.000145648
0.000181177
0.000163338
0.000159137
0.000184818
0.000134081
0.000201489
0.000120935
0.000208508
0.000130123
0.000184096
0.000175326
0.000129504
0.000211604
0.00011863
0.000159388
0.000157326
0.000155546
0.000153985
0.000152599
0.000151354
0.000150229
0.000149196
0.000148255
0.000147372
0.000146569
0.000145795
0.0001451
0.000144407
0.0001438
0.000143167
0.000142638
0.000142046
0.00014159
0.000141021
0.000140642
0.00014007
0.00013978
0.000139187
0.000138982
0.000138381
0.000138209
0.00013768
0.00013742
0.0001371
0.000136607
0.000136608
0.00013583
0.000136094
0.000135216
0.00013542
0.000134871
0.000134541
0.000134719
0.00013368
0.000134359
0.000133387
0.000133168
0.000134234
0.000130805
0.000136111
0.000127979
0.000137445
0.000127125
0.000135099
0.000131928
0.000126323
0.000143269
0.000113129
0.00015398
0.000105488
0.000151691
0.000117033
0.000130742
0.000147207
0.000101826
0.000172044
8.74772e-05
0.000168833
0.000104785
0.000139273
0.0001455
0.000106336
0.000179091
9.19496e-05
0.000183816
0.000104815
0.000164014
0.000137487
0.000142278
0.000173799
0.000132405
0.000196192
0.000133605
0.000199371
0.000141916
0.000189662
0.000160269
0.000170088
0.000192912
0.000140284
0.000221978
0.000110347
0.000223569
0.000111977
0.000195416
0.000170571
0.000139475
0.000232538
8.26382e-05
0.000234799
0.000115118
0.000177077
0.000211508
8.86217e-05
0.000159387
0.000157324
0.000155543
0.00015398
0.000152593
0.000151346
0.000150218
0.000149184
0.000148239
0.000147357
0.000146546
0.000145776
0.000145068
0.000144385
0.000143759
0.000143143
0.000142583
0.000142021
0.000141519
0.000140997
0.000140552
0.000140047
0.000139676
0.00013915
0.000138888
0.00013829
0.000138178
0.000137465
0.000137531
0.00013668
0.000136925
0.000135956
0.000136309
0.000135356
0.000135608
0.000134935
0.000134799
0.000134651
0.00013402
0.000134283
0.000133533
0.000133673
0.00013327
0.000133313
0.000132295
0.000134638
0.000129235
0.000138714
0.00012442
0.000143158
0.000122174
0.00014158
0.000129535
0.000130224
0.000147666
0.000115423
0.00016378
0.00011183
0.000162725
0.000128633
0.000148653
0.000156737
0.000140414
0.000178889
0.000148286
0.000191296
0.000166383
0.000205188
0.000186181
0.000228302
0.000211832
0.000255779
0.000254004
0.000278591
0.000309071
0.000296204
0.000358106
0.000318342
0.000380609
0.000355301
0.000371883
0.000401206
0.000349222
0.000429578
0.000344333
0.000415097
0.000381102
0.000363392
0.00044042
0.000314915
0.000461191
0.000323834
0.000406999
0.000402873
0.000326422
0.00046727
0.000303732
0.000440348
0.000356742
0.000367789
0.000159386
0.00015732
0.000155535
0.00015397
0.000152577
0.000151328
0.000150192
0.000149156
0.000148201
0.000147317
0.000146494
0.000145724
0.000145001
0.000144317
0.000143674
0.000143054
0.000142483
0.000141905
0.000141405
0.000140846
0.000140425
0.000139846
0.000139557
0.000138852
0.000138838
0.000137804
0.000138297
0.000136669
0.000137936
0.000135461
0.000137682
0.000134355
0.000137224
0.000133826
0.000136
0.000134488
0.000133579
0.000136507
0.0001305
0.000138643
0.000129183
0.000138107
0.000133037
0.000132685
0.000143245
0.000124668
0.00015534
0.000122311
0.000162408
0.000133912
0.000162944
0.000158689
0.000164042
0.000187656
0.000175577
0.000213992
0.000201857
0.000239061
0.000239298
0.000266705
0.000283843
0.000299435
0.000333062
0.000337775
0.000383161
0.00038338
0.000428878
0.000441528
0.000469133
0.000514588
0.000511719
0.000582607
0.000555562
0.000629419
0.000603811
0.000652271
0.000660261
0.000657506
0.000705442
0.000662923
0.000722752
0.000681826
0.00071043
0.000712313
0.000685897
0.000735465
0.000674444
0.000732026
0.000690848
0.000704089
0.000721101
0.000678694
0.000735862
0.000676491
0.000724721
0.00069846
0.000696009
0.000728449
0.000672201
0.000735844
0.000159381
0.000157313
0.000155513
0.000153948
0.000152534
0.000151285
0.000150123
0.000149087
0.000148101
0.000147215
0.000146352
0.000145581
0.000144809
0.00014412
0.000143425
0.000142785
0.000142168
0.000141543
0.000141007
0.000140372
0.000139919
0.000139228
0.000138935
0.000138011
0.000138141
0.000136603
0.000137593
0.00013494
0.000137351
0.000133075
0.000137439
0.000131411
0.000137559
0.000130929
0.000137182
0.000133369
0.000136726
0.000140305
0.000138507
0.000152018
0.000146699
0.000167497
0.000165136
0.000186187
0.000195647
0.000209189
0.00023578
0.00023911
0.000281435
0.000279621
0.000328071
0.000332142
0.000374134
0.000394048
0.000422194
0.000460433
0.000474753
0.000513425
0.000516715
0.000559021
0.000564764
0.000600212
0.000617826
0.000637685
0.000671883
0.000674975
0.000722033
0.000720125
0.000765006
0.000778858
0.000802076
0.000845831
0.000839307
0.000905435
0.000882776
0.000942196
0.000931366
0.000954262
0.000975302
0.000954855
0.00100139
0.000961246
0.00100236
0.000979263
0.000985487
0.00100147
0.00096817
0.00101211
0.000967695
0.00100219
0.000984675
0.000981907
0.00100434
0.000967043
0.00101201
0.000970048
0.000998358
0.000991579
0.000973149
0.00101047
0.000159365
0.000157297
0.000155452
0.00015389
0.000152409
0.000151168
0.000149915
0.000148879
0.000147772
0.000146871
0.000145848
0.000145043
0.000144061
0.000143311
0.000142354
0.000141613
0.00014068
0.000139881
0.000138929
0.000138025
0.00013702
0.00013601
0.000135033
0.000133873
0.000133268
0.000131701
0.000132151
0.000130746
0.000133488
0.000133539
0.000140069
0.000143169
0.000154594
0.000162297
0.000178862
0.000192474
0.000212902
0.000233027
0.000255892
0.000282895
0.000306911
0.000339941
0.000365385
0.000402551
0.000425715
0.000453429
0.000478643
0.000502012
0.000533646
0.000550869
0.000587709
0.000601351
0.000638599
0.00065473
0.000685874
0.000710336
0.000730894
0.000765293
0.000777238
0.000817528
0.000826271
0.000864116
0.000877276
0.000903572
0.000928736
0.000938948
0.000977863
0.000977717
0.00102143
0.00102603
0.00105658
0.00107998
0.00108495
0.00112899
0.00111264
0.00116184
0.00114341
0.0011737
0.00117475
0.00117155
0.00119747
0.00116932
0.0012052
0.00117607
0.00119678
0.00119138
0.00118175
0.00120494
0.00117333
0.00120693
0.00117866
0.00119587
0.00119337
0.00118052
0.00120703
0.00117238
0.001207
0.00118122
0.00119035
0.00119871
0.00015932
0.000157239
0.000155265
0.000153686
0.000152002
0.000150712
0.000149102
0.000147889
0.000146215
0.000144971
0.000143194
0.000141864
0.000139851
0.000138421
0.000136164
0.000134661
0.000132276
0.000130579
0.000128046
0.000126839
0.000125498
0.000126298
0.000127991
0.000132657
0.000139402
0.000149744
0.000163174
0.000180228
0.000201079
0.000224396
0.000251443
0.000279974
0.000312532
0.000345623
0.000379083
0.000407293
0.000437642
0.00046634
0.000496083
0.00052529
0.000553325
0.000583455
0.000609574
0.000640048
0.000664643
0.000693813
0.000718507
0.000743821
0.000770573
0.000789784
0.000819199
0.000833356
0.000863489
0.000876134
0.000902967
0.000918702
0.000937136
0.000959482
0.000969801
0.000997474
0.00100289
0.00103113
0.00103689
0.00105883
0.00107201
0.00108222
0.00110634
0.00110646
0.00113729
0.00113588
0.0011598
0.00116979
0.00117412
0.0011985
0.00118715
0.00121765
0.0012027
0.00122403
0.00122022
0.00122155
0.00123482
0.00121817
0.00124107
0.00122028
0.0012372
0.00122893
0.0012274
0.00123876
0.00121996
0.00124223
0.00122089
0.00123696
0.00122941
0.0012264
0.00124015
0.00121799
0.00124373
0.00122058
0.00123496
0.00123366
0.000159146
0.000157019
0.000154602
0.0001527
0.000150075
0.000147584
0.000143724
0.000140423
0.000135854
0.00013263
0.000128492
0.000125223
0.000121611
0.000119924
0.000118697
0.000120383
0.000123402
0.00013018
0.000138959
0.00015187
0.000167219
0.000186992
0.000209627
0.000237068
0.000267767
0.000302293
0.000338757
0.000377329
0.00041131
0.000444523
0.000477285
0.000508786
0.000540093
0.000569285
0.000598434
0.000625482
0.000652603
0.000677578
0.000702375
0.000725651
0.000747976
0.000770179
0.000789608
0.000809688
0.000823004
0.000838577
0.000850841
0.000863459
0.000876386
0.000885239
0.000899633
0.00090514
0.000920228
0.000924456
0.0009379
0.000943873
0.000953212
0.000963005
0.000967399
0.000980759
0.000981546
0.000995916
0.000996384
0.00100783
0.0010121
0.00101741
0.00102814
0.00102704
0.00104267
0.00103943
0.00105348
0.00105502
0.00106025
0.00107076
0.00106521
0.00108217
0.0010713
0.00108645
0.00107958
0.00108466
0.00108805
0.00108099
0.00109339
0.00107975
0.0010932
0.00108311
0.00108807
0.00108938
0.00108198
0.00109407
0.00107956
0.00109364
0.00108276
0.0010879
0.00109012
0.00108043
0.00109579
0.00107809
0.00109369
0.00108398
0.000158459
0.000156343
0.00015014
0.00014408
0.000134323
0.000124103
0.000114815
0.000109844
0.000108349
0.000111293
0.000117023
0.000125961
0.000137305
0.000151729
0.000168611
0.000188556
0.000210938
0.000236234
0.0002635
0.000293358
0.000324821
0.000359236
0.000395315
0.000433482
0.000465493
0.000496243
0.000525314
0.000552701
0.000576767
0.000595964
0.000613072
0.000628063
0.000642072
0.000654597
0.000666697
0.000677277
0.000687687
0.000696675
0.000705543
0.000713479
0.000720913
0.000728342
0.000734465
0.00074162
0.000746804
0.000753453
0.000758165
0.000763618
0.000768636
0.000772312
0.000778181
0.000780043
0.000786638
0.000787453
0.000793774
0.000795113
0.000799716
0.000803007
0.00080503
0.000810549
0.00081026
0.000817049
0.000815949
0.000821991
0.000822413
0.000825673
0.000829491
0.0008291
0.000836236
0.000833611
0.000841226
0.00083979
0.00084385
0.000846699
0.000844989
0.000852239
0.000846372
0.000854693
0.00084916
0.000853886
0.000852958
0.000851476
0.000856217
0.000849649
0.000857282
0.000850148
0.000855499
0.000852987
0.000852111
0.000856296
0.000849508
0.000857677
0.000849678
0.000855818
0.00085303
0.000851563
0.000857218
0.00084839
0.000858284
0.000849242
0.00016027
0.00014282
0.000113618
0.000103969
0.000102128
0.000110454
0.000119983
0.000140247
0.000152839
0.000167585
0.000185645
0.00020598
0.000227663
0.000249976
0.000272175
0.00029375
0.000314022
0.000332767
0.000349539
0.000364566
0.000377712
0.000389435
0.000399894
0.00040936
0.000418162
0.000426253
0.00043377
0.000440551
0.000446857
0.000452609
0.000457865
0.000462491
0.000466642
0.000470134
0.000473357
0.000475987
0.000478545
0.000480578
0.000482617
0.00048427
0.000485849
0.000487337
0.000488497
0.000489976
0.000490883
0.000492451
0.00049325
0.000494637
0.000495558
0.00049647
0.0004978
0.000498009
0.000499813
0.000499471
0.000501483
0.000501098
0.000502765
0.000503007
0.000503758
0.000505009
0.000504669
0.000506773
0.000505804
0.000508089
0.00050737
0.000509004
0.000509454
0.000509659
0.000511703
0.000510523
0.000513406
0.000511919
0.000514153
0.000513842
0.000514041
0.000515699
0.000513698
0.000516731
0.000513887
0.000516624
0.000514851
0.000515628
0.000516187
0.00051445
0.000517129
0.000513957
0.00051708
0.000514592
0.000515994
0.000516001
0.000514542
0.000517264
0.000513781
0.000517411
0.000514408
0.00051609
0.000516145
0.00051426
0.000517561
0.000513238
1.30914e-05
2.995e-05
5.00989e-05
6.50631e-05
7.28781e-05
7.53202e-05
7.46056e-05
7.22755e-05
6.95999e-05
6.71358e-05
6.49387e-05
6.31783e-05
6.19123e-05
6.11435e-05
6.08055e-05
6.08201e-05
6.10686e-05
6.14614e-05
6.19023e-05
6.23417e-05
6.27365e-05
6.30762e-05
6.33614e-05
6.35909e-05
6.37904e-05
6.39648e-05
6.41222e-05
6.42616e-05
6.43865e-05
6.45003e-05
6.46052e-05
6.4696e-05
6.47777e-05
6.48397e-05
6.48967e-05
6.49332e-05
6.49712e-05
6.49896e-05
6.50134e-05
6.50216e-05
6.50334e-05
6.50396e-05
6.50403e-05
6.5051e-05
6.5043e-05
6.50616e-05
6.50517e-05
6.50703e-05
6.50662e-05
6.50743e-05
6.50874e-05
6.50743e-05
6.51104e-05
6.50757e-05
6.5129e-05
6.50877e-05
6.51381e-05
6.5116e-05
6.51394e-05
6.51555e-05
6.51395e-05
6.51952e-05
6.51492e-05
6.52261e-05
6.51796e-05
6.52463e-05
6.52358e-05
6.52566e-05
6.53053e-05
6.52656e-05
6.53599e-05
6.52861e-05
6.53761e-05
6.53262e-05
6.53531e-05
6.53743e-05
6.53168e-05
6.54072e-05
6.52978e-05
6.54059e-05
6.53133e-05
6.53725e-05
6.53555e-05
6.53248e-05
6.54e-05
6.52926e-05
6.54165e-05
6.53006e-05
6.53919e-05
6.53478e-05
6.53395e-05
6.54057e-05
6.52951e-05
6.54348e-05
6.52965e-05
6.54087e-05
6.53509e-05
6.53454e-05
6.54274e-05
6.53026e-05
6.27426e-05
0.00120864
0.00220873
0.00307
0.00386235
0.00448884
0.00496321
0.00494521
0.00475314
0.0045195
0.00434054
0.00428903
0.00440773
0.00458679
0.00464141
0.00456599
0.00455681
0.00431859
0.00345003
0.0021725
0.00127374
0.000813014
0.000276757
0.000375446
0.000631703
8.03429e-05
0.000686876
0.00158781
0.00227008
0.00267982
0.00287948
0.0029531
0.00294711
0.00283439
0.00255848
0.00219683
0.00184113
0.00152066
0.00128512
0.00108949
0.000884629
0.000713151
0.000572991
0.00046171
0.000376506
0.000313715
0.000268825
0.000237112
0.000214453
0.000197784
0.000185118
0.00017527
0.000167623
0.000161835
0.000157654
0.000154674
0.000152328
0.000149991
0.000147294
0.00014421
0.000140962
0.000137869
0.000135234
0.000133218
0.00013181
0.000130889
0.000130319
0.000129975
0.000129776
0.000129657
0.000129592
0.00012955
0.000129529
0.000129514
0.000129507
0.000129501
0.0001295
0.000129496
0.000129497
0.000129495
0.000129497
0.000129494
0.000129496
0.000129494
0.000129496
0.000129494
0.000129496
0.000129494
0.000129496
0.000129494
0.000129496
0.000129493
0.000129496
0.000129493
0.000129496
0.000129492
0.000129495
0.00012949
0.000129491
0.000129484
0.000452927
0.000744109
0.00151206
0.00239242
0.00317448
0.00380261
0.00432295
0.00438629
0.00429749
0.00421966
0.00403265
0.00404414
0.00419
0.004337
0.00437715
0.00428315
0.00425952
0.00393963
0.00266041
0.00146943
0.000847904
0.00046046
0.000282758
0.000300863
0.000570254
3.00328e-05
0.000320266
0.0012298
0.00198082
0.00245935
0.00270482
0.00280206
0.00280279
0.00268482
0.0024354
0.00210645
0.00176574
0.00144525
0.00118907
0.000962956
0.000773523
0.000618444
0.000494555
0.000398776
0.000327725
0.000277245
0.00024252
0.000218784
0.000202096
0.00018969
0.0001799
0.000171861
0.000165258
0.000160007
0.000156056
0.00015316
0.000150872
0.000148642
0.000146109
0.00014324
0.000140256
0.000137439
0.000135018
0.00013313
0.000131789
0.000130897
0.000130334
0.000129985
0.000129777
0.00012965
0.000129577
0.000129531
0.000129507
0.00012949
0.000129482
0.000129476
0.000129474
0.000129471
0.000129471
0.000129469
0.00012947
0.000129469
0.00012947
0.000129469
0.00012947
0.000129469
0.00012947
0.000129469
0.00012947
0.000129469
0.00012947
0.000129468
0.00012947
0.000129468
0.00012947
0.000129468
0.000129469
0.000129466
0.000129468
0.000129464
0.000896848
0.000848036
0.000852817
0.00156641
0.00230501
0.0029174
0.00349565
0.00357512
0.00350027
0.00346558
0.00325961
0.00326705
0.00356795
0.00378739
0.00382831
0.00390739
0.00384065
0.00301161
0.00176962
0.000835925
0.000452165
0.00032617
0.000265931
0.000401538
0.00060025
0.000403755
0.000160093
0.000839956
0.00164449
0.0021888
0.00248212
0.00260567
0.00261418
0.00248996
0.00223117
0.00190004
0.00156859
0.00127577
0.00103128
0.000830351
0.000666504
0.000534363
0.000429945
0.000350479
0.000292849
0.000252908
0.00022594
0.000207631
0.000194669
0.000184794
0.000176674
0.000169662
0.000163615
0.000158603
0.000154711
0.000151815
0.000149567
0.000147467
0.000145147
0.000142534
0.00013982
0.000137264
0.000135043
0.000133253
0.000131928
0.00013102
0.000130429
0.000130053
0.000129822
0.000129678
0.000129593
0.000129541
0.00012951
0.000129492
0.000129481
0.000129475
0.000129472
0.00012947
0.000129468
0.000129468
0.000129467
0.000129467
0.000129467
0.000129467
0.000129467
0.000129467
0.000129467
0.000129467
0.000129467
0.000129468
0.000129467
0.000129468
0.000129466
0.000129468
0.000129466
0.000129468
0.000129467
0.000129469
0.000129468
0.000129472
0.00099652
0.00120994
0.000838575
0.00107535
0.00144508
0.00188134
0.00249427
0.00257478
0.00251772
0.00254179
0.00230427
0.00230591
0.00264663
0.00283596
0.00291776
0.00304384
0.00287724
0.00185926
0.000907408
0.000365447
6.43128e-05
0.000363205
0.000369467
0.000625089
0.000820938
0.00067675
0.000112374
0.000485457
0.0012698
0.00186487
0.00220428
0.00235548
0.00237196
0.00224019
0.00197277
0.00164607
0.00133425
0.00107298
0.000866463
0.000703854
0.000573147
0.000466684
0.000381743
0.000317212
0.000270771
0.000238619
0.000216682
0.000201526
0.000190588
0.000182066
0.000174846
0.000168376
0.000162577
0.000157593
0.000153605
0.000150599
0.00014833
0.000146368
0.000144331
0.00014206
0.000139662
0.000137354
0.000135293
0.000133574
0.000132244
0.000131293
0.000130649
0.000130229
0.000129961
0.000129792
0.000129688
0.000129625
0.000129586
0.000129564
0.00012955
0.000129543
0.000129537
0.000129536
0.000129533
0.000129534
0.000129532
0.000129534
0.000129531
0.000129534
0.000129531
0.000129534
0.000129531
0.000129534
0.00012953
0.000129534
0.00012953
0.000129534
0.00012953
0.000129535
0.00012953
0.000129536
0.000129532
0.000129539
0.000129536
0.000129548
0.00109596
0.00129829
0.00106195
0.0011859
0.00114981
0.00110141
0.00156212
0.00152774
0.00146283
0.00154679
0.00123264
0.00120708
0.00157194
0.00165645
0.00183673
0.00198049
0.00160887
0.000716273
0.00029625
3.60258e-05
4.09164e-05
0.00046672
0.000566078
0.000893171
0.0012136
0.00104063
0.000476313
0.000193711
0.000857529
0.00148429
0.00186476
0.00204288
0.00206614
0.0019256
0.00165545
0.00134721
0.00107494
0.000865891
0.000712985
0.00059644
0.000499952
0.000417274
0.000349121
0.000296528
0.000258124
0.000230946
0.000211894
0.000198401
0.000188497
0.000180693
0.000173981
0.000167818
0.000162106
0.000157012
0.000152787
0.000149532
0.000147127
0.000145237
0.000143483
0.000141609
0.000139579
0.000137528
0.00013561
0.00013396
0.000132638
0.000131653
0.000130953
0.000130478
0.000130162
0.00012996
0.000129831
0.000129752
0.000129702
0.000129674
0.000129654
0.000129646
0.000129638
0.000129637
0.000129632
0.000129634
0.00012963
0.000129633
0.00012963