/*--------------------------------*- C++ -*----------------------------------*\
| =========                 |                                                 |
| \\      /  F ield         | OpenFOAM: The Open Source CFD Toolbox           |
|  \\    /   O peration     | Version:  v2012                                 |
|   \\  /    A nd           | Website:  www.openfoam.com                      |
|    \\/     M anipulation  |                                                 |
\*---------------------------------------------------------------------------*/
FoamFile
{
    version     2.0;
    format      ascii;
    class       volScalarField;
    location    "0.398";
    object      omega.air;
}
// * * * * * * * * * * * * * * * * * * * * * * * * * * * * * * * * * * * * * //

dimensions      [0 0 -1 0 0 0 0];


internalField   nonuniform List<scalar> 
5600
(
6586.29
7485.5
7886.8
7965.17
7866.41
7687.44
7480.98
7290.04
7125.34
6987.77
6878.92
6796.29
6736.27
6693.39
6663.68
6642.28
6627.09
6614.8
6605.36
6596.46
6589.63
6582.63
6577.87
6573.1
6570.51
6567.58
6566.37
6564.62
6564.08
6562.72
6562.16
6560.56
6559.63
6557.67
6556.48
6554.33
6553.04
6550.83
6549.57
6547.42
6546.3
6544.32
6543.43
6541.66
6541.07
6539.56
6539.26
6537.98
6537.9
6536.78
6536.88
6535.91
6536.2
6535.3
6535.84
6535.07
6535.87
6535.26
6536.31
6535.88
6537.19
6536.84
6538.44
6538.18
6540.05
6539.84
6541.99
6541.82
6544.25
6544.08
6546.84
6546.62
6549.73
6549.45
6552.93
6552.54
6556.41
6555.91
6560.13
6559.53
6564.02
6563.4
6567.96
6567.6
6571.78
6572.29
6575.14
6577.96
6577.34
6585.79
6576.91
6598.27
6569.47
6622.51
6541.12
6682.92
6441.37
6867.54
6039.19
7486
2450.54
2296.55
2571.65
2795.09
2928.2
2998.04
3010.26
2968.22
2968.91
3017.27
3073.45
3118.99
3147.16
3158.48
3154.91
3140.53
3118.26
3091.29
3062.13
3032.56
3003.22
2973.99
2945.02
2916.51
2889.21
2863.29
2839.67
2817.46
2797.58
2778.6
2761.96
2745.94
2732.07
2718.69
2707.18
2696
2686.39
2677.03
2668.96
2661.1
2654.29
2647.66
2641.88
2636.28
2631.28
2626.33
2621.88
2617.44
2613.49
2609.52
2606.07
2602.53
2599.54
2596.52
2593.89
2591.26
2589.01
2586.71
2584.8
2582.73
2581.11
2579.33
2577.93
2576.38
2575.18
2573.82
2572.79
2571.63
2570.71
2569.77
2568.97
2568.19
2567.52
2566.89
2566.35
2565.86
2565.42
2565.06
2564.68
2564.45
2564.06
2564.03
2563.56
2563.83
2563.14
2563.98
2562.67
2564.67
2561.82
2566.36
2559.43
2570.75
2552.87
2582.38
2534.71
2614.78
2478.03
2716.45
2276.69
3073.68
2358.54
1859.93
1592.13
1427.82
1346.08
1273.82
1279.96
1309.15
1351.9
1412.45
1482.27
1549.52
1611.13
1663.93
1704.87
1733.42
1749.09
1752.48
1744.3
1726.48
1702.37
1676.77
1653.6
1634.9
1619.45
1605.79
1593.23
1581.77
1571.23
1561
1551.15
1540.95
1531.32
1521.67
1512.9
1504.19
1496.4
1488.69
1481.88
1475.16
1469.22
1463.35
1458.13
1452.87
1448.27
1443.65
1439.6
1435.5
1431.94
1428.3
1425.18
1421.96
1419.24
1416.43
1414.08
1411.59
1409.55
1407.33
1405.55
1403.55
1401.98
1400.16
1398.78
1397.11
1395.91
1394.36
1393.32
1391.9
1391
1389.73
1388.94
1387.81
1387.13
1386.12
1385.53
1384.64
1384.09
1383.34
1382.76
1382.21
1381.5
1381.29
1380.25
1380.67
1378.91
1380.5
1377.24
1381.12
1374.75
1383.21
1370.4
1388.31
1361.81
1400.03
1343.66
1425.94
1304.62
1479.16
1228.27
1557.57
2345.16
1822.38
1493.22
1267.66
1111.15
992.611
906.863
846.932
802.652
776.727
760.411
769.452
791.629
824.095
860.918
902.271
941.258
978.654
1011.21
1039.64
1061.39
1079.16
1091.62
1100.98
1105.71
1107.16
1103.57
1097.11
1087.6
1078.02
1068.45
1060.71
1053.94
1048.04
1042.52
1037.34
1032.49
1027.85
1023.56
1019.24
1015.12
1010.64
1006.17
1001.43
996.998
992.454
988.341
984.178
980.477
976.732
973.447
970.12
967.22
964.272
961.706
959.013
956.665
954.158
951.991
949.644
947.647
945.45
943.622
941.572
939.911
938.004
936.507
934.746
933.409
931.787
930.589
929.117
928.023
926.679
925.651
924.436
923.437
922.421
921.386
920.645
919.425
919.12
917.485
917.923
915.465
917.187
913.186
917.126
910.326
918.12
906.364
920.818
900.504
926.204
891.777
934.647
880.677
942.29
875.126
926.807
2341.97
1815.97
1479.81
1247.93
1079.72
952.569
853.194
774.612
710.646
658.899
616.094
581.961
556.202
536.184
523.576
514.779
513.799
520.894
532.272
549.206
568.539
591.927
616.102
642.236
667.07
692.196
713.811
733.35
748.19
760.886
769.724
777.424
782.151
786.058
787.265
787.761
785.851
783.563
779.519
775.789
771.22
767.608
764.174
761.319
758.406
755.728
753.024
750.454
747.966
745.572
743.34
741.143
739.064
736.962
734.806
732.432
730.124
727.684
725.394
723.001
720.803
718.51
716.441
714.275
712.36
710.343
708.586
706.727
705.123
703.401
701.919
700.29
698.867
697.326
695.924
694.502
693.08
691.835
690.353
689.381
687.743
687.173
685.218
685.262
682.717
683.72
680.159
682.601
677.443
681.984
674.482
681.894
671.332
682.085
668.511
681.448
667.666
677.194
671.795
664.947
2341.13
1814.12
1476.76
1243.88
1074.17
945.326
844.331
763.137
696.591
641.021
594.192
554.015
519.691
489.845
464.18
441.874
422.652
406.902
393.561
383.41
375.257
370.383
367.307
368.994
373.104
381.372
391.423
405.407
419.976
437.794
454.611
473.776
490.93
509.288
524.582
540.266
552.272
564.144
572.372
580.454
585.553
590.729
593.884
597.311
598.933
600.764
600.93
601.292
600.185
599.323
597.304
595.619
593.223
591.223
589.085
587.474
585.727
584.283
582.706
581.303
579.833
578.441
577.073
575.715
574.468
573.175
572.034
570.813
569.704
568.505
567.305
565.932
564.594
563.19
561.776
560.431
558.948
557.717
556.137
555.102
553.394
552.647
550.737
550.386
548.166
548.341
545.677
546.505
543.27
544.836
540.985
543.225
538.945
541.42
537.393
539.048
536.59
535.862
535.999
532.419
2340.86
1813.43
1475.76
1242.6
1072.62
943.433
842.136
760.548
693.582
637.511
590.06
549.213
513.894
482.868
455.627
431.338
409.782
390.358
373.051
357.346
343.365
330.65
319.417
309.355
300.766
293.281
287.196
282.344
278.877
276.858
276.533
278.447
281.702
287.355
293.958
303.046
312.46
324.198
335.449
348.566
360.512
374.025
385.573
398.388
408.863
420.302
429.169
438.695
445.599
452.909
457.792
462.935
466.091
469.464
471.441
473.825
475.085
476.675
477.31
478.184
478.251
478.475
478.04
477.699
476.861
476.07
474.971
473.88
472.747
471.574
470.541
469.572
468.673
467.805
466.927
466.127
465.207
464.482
463.471
462.851
461.719
461.251
459.973
459.696
458.251
458.172
456.544
456.652
454.833
455.077
453.101
453.375
451.33
451.462
449.446
449.381
447.355
447.301
444.543
445.254
2340.76
1813.12
1475.33
1242.06
1072
942.724
841.352
759.668
692.626
636.441
588.91
547.91
512.507
481.258
453.909
429.283
407.566
387.639
370.027
353.555
339.042
325.188
313.09
301.273
291.123
280.95
272.427
263.628
256.516
248.923
243.112
236.719
232.202
227.016
223.807
219.935
218.119
215.729
215.444
215.057
216.677
218.397
221.921
225.782
231.146
237.034
244.023
251.61
259.822
268.521
277.404
286.649
295.673
304.88
313.424
322.038
329.856
337.623
344.537
351.266
357.148
362.712
367.491
371.832
375.518
378.667
381.363
383.452
385.371
386.693
388.078
388.992
390.043
390.618
391.343
391.628
392.012
392.056
392.098
391.943
391.641
391.337
390.702
390.3
389.36
388.908
387.694
387.232
385.781
385.326
383.678
383.233
381.42
381.042
379.056
378.756
376.457
376.3
373.407
373.321
2340.71
1812.97
1475.12
1241.81
1071.71
942.4
841.001
759.288
692.222
636.006
588.453
547.419
511.993
480.703
453.33
428.655
406.908
386.919
369.264
352.71
338.131
324.162
311.962
299.979
289.666
279.24
270.455
261.267
253.748
245.561
239.113
231.744
226.226
219.542
214.854
208.756
204.826
199.25
196.037
190.97
188.481
183.929
182.168
178.172
177.169
173.812
173.619
171.012
171.704
170.122
171.866
171.429
174.251
175.07
179.002
181.096
186.091
189.399
195.343
199.715
206.422
211.629
218.853
224.568
232.025
237.97
245.382
251.277
258.311
263.834
270.282
275.311
281.093
285.577
290.631
294.533
298.812
302.112
305.586
308.279
310.938
313.043
314.903
316.46
317.566
318.642
319.07
319.748
319.593
319.953
319.331
319.47
318.489
318.54
317.24
317.102
315.455
315.103
313.101
312.284
2340.68
1812.9
1475.02
1241.7
1071.57
942.26
840.837
759.13
692.033
635.833
588.24
547.232
511.755
480.505
453.066
428.445
406.614
386.698
368.937
352.476
337.766
323.912
311.551
299.71
289.2
278.942
269.917
260.926
253.114
245.148
238.345
231.219
225.264
218.834
213.602
207.754
203.148
197.791
193.732
188.795
185.221
180.65
177.513
173.264
170.528
166.572
164.21
160.529
158.525
155.119
153.476
150.353
149.072
146.254
145.345
142.873
142.354
140.278
140.174
138.556
138.901
137.811
138.637
138.231
139.583
139.882
141.761
142.787
145.182
146.918
149.775
152.165
155.41
158.37
161.914
165.339
169.087
172.857
176.704
180.694
184.535
188.615
192.349
196.395
199.933
203.831
207.096
210.742
213.665
216.966
219.489
222.339
224.413
226.69
228.402
230.312
231.758
233.223
234.384
235.267
2340.68
1812.91
1475.03
1241.71
1071.58
942.284
840.844
759.157
692.036
635.865
588.236
547.27
511.744
480.549
453.046
428.497
406.584
386.759
368.896
352.547
337.714
323.996
311.487
299.807
289.121
279.055
269.824
261.055
253.006
245.298
238.221
231.391
225.124
219.034
213.449
207.987
202.984
198.065
193.564
189.122
185.06
181.047
177.376
173.757
170.442
167.194
164.213
161.332
158.688
156.181
153.879
151.762
149.827
148.134
146.606
145.38
144.314
143.611
143.075
143.002
143.13
143.744
144.583
145.928
147.528
149.63
151.997
154.817
157.896
161.356
165.053
169.039
173.224
177.595
182.112
186.709
191.389
196.048
200.721
205.283
209.789
214.114
218.321
222.253
226.012
229.478
232.75
235.747
238.534
241.069
243.388
245.478
247.348
249.016
250.444
251.685
252.68
253.533
254.164
254.744
2340.71
1813
1475.15
1241.86
1071.74
942.466
841.029
759.363
692.237
636.091
588.453
547.517
511.975
480.817
453.291
428.788
406.847
387.075
369.178
352.893
338.02
324.377
311.824
300.233
289.502
279.54
270.27
261.626
253.55
245.995
238.916
232.284
226.059
220.23
214.76
209.651
204.874
200.445
196.362
192.622
189.237
186.215
183.577
181.339
179.533
178.179
177.322
177.083
177.426
178.419
180.041
182.36
185.323
188.971
193.239
198.124
203.566
209.504
215.886
222.582
229.58
236.718
244.002
251.238
258.473
265.442
272.234
278.657
284.859
290.642
296.168
301.243
306.032
310.351
314.365
317.907
321.134
323.905
326.361
328.396
330.13
331.504
332.6
333.435
334.046
334.469
334.771
334.91
334.932
334.808
334.558
334.177
333.662
333.032
332.265
331.406
330.419
329.383
328.281
327.243
2340.76
1813.17
1475.39
1242.15
1072.07
942.822
841.415
759.775
692.676
636.557
588.945
548.04
512.525
481.406
453.91
429.459
407.552
387.854
370.005
353.826
339.027
325.539
313.106
301.747
291.222
281.613
272.688
264.579
257.063
250.34
244.219
238.885
234.158
230.276
227.045
224.765
223.202
222.817
223.49
225.321
228.24
232.325
237.478
243.716
250.895
258.951
267.702
276.96
286.611
296.426
306.334
316.029
325.443
334.475
343.072
351.156
358.691
365.617
371.916
377.553
382.531
386.842
390.518
393.59
396.112
398.167
399.859
401.301
402.536
403.55
404.385
405.01
405.476
405.749
405.879
405.831
405.656
405.325
404.887
404.323
403.677
402.941
402.144
401.333
400.47
399.632
398.809
397.987
397.147
396.291
395.396
394.475
393.501
392.496
391.433
390.343
389.203
388.067
386.941
385.924
2340.87
1813.49
1475.85
1242.71
1072.73
943.558
842.249
760.682
693.692
637.656
590.18
549.374
514.045
483.072
455.847
431.634
410.129
390.851
373.64
358.172
344.353
332.009
321.098
311.741
303.657
297.151
291.93
288.43
286.31
286.459
288.568
292.783
298.883
306.93
316.615
327.793
340.094
353.154
366.644
380.345
393.805
406.909
419.347
431.062
441.76
451.454
459.897
467.213
473.25
478.26
482.205
485.391
488.036
490.207
491.941
493.26
494.187
494.741
494.944
494.822
494.404
493.726
492.829
491.759
490.569
489.343
488.134
487.05
486.032
485.058
484.102
483.157
482.211
481.268
480.321
479.373
478.427
477.49
476.564
475.654
474.762
473.881
473.022
472.147
471.29
470.375
469.403
468.399
467.362
466.316
465.247
464.183
463.096
462.023
460.928
459.859
458.778
457.746
456.781
455.976
2341.15
1814.19
1476.91
1243.99
1074.37
945.465
844.556
763.344
696.863
641.371
594.59
554.62
520.504
490.958
465.766
443.828
425.82
410.635
398.925
389.606
383.741
380.084
380.942
385.4
393.439
404.67
418.831
435.247
453.414
472.413
491.918
511.214
529.563
546.641
561.813
575.036
585.949
594.933
601.975
607.592
612.151
615.742
618.424
620.21
621.133
621.254
620.628
619.391
617.624
615.554
613.243
611.018
609.053
607.253
605.537
603.876
602.236
600.621
599.018
597.451
595.911
594.429
592.987
591.61
590.257
588.946
587.589
586.136
584.6
583.038
581.444
579.858
578.269
576.701
575.138
573.602
572.092
570.619
569.185
567.794
566.446
565.145
563.891
562.68
561.509
560.375
559.262
558.177
557.102
556.056
555.011
554.002
552.987
552.02
551.039
550.12
549.203
548.373
547.654
547.153
2342.03
1815.98
1480.11
1247.96
1080.28
952.708
854.159
775.206
712.346
660.618
619.075
586.931
562.6
545.504
534.588
530.074
534.451
545.063
561.028
581.077
604.569
630.61
657.65
684.796
711.041
734.72
754.969
771.335
784.177
794.173
801.839
807.312
810.765
812.232
811.875
809.914
806.642
802.65
798.214
794.142
790.648
787.471
784.452
781.474
778.553
775.677
772.905
770.233
767.705
765.259
762.9
760.508
757.931
755.277
752.583
749.906
747.251
744.655
742.108
739.643
737.243
734.939
732.708
730.582
728.531
726.584
724.698
722.889
721.107
719.382
717.677
716.026
714.395
712.814
711.264
709.773
708.327
706.939
705.598
704.312
703.073
701.888
700.748
699.661
698.614
697.621
696.663
695.749
694.859
694.016
693.183
692.399
691.613
690.886
690.147
689.48
688.823
688.273
687.879
687.785
2345.25
1822.39
1493.86
1268.16
1113.23
994.179
912.591
852.016
814.512
787.869
783.659
800.117
829.083
866.039
907.634
950.23
990.289
1026.98
1058.27
1083.61
1103.44
1118.45
1129.08
1135.73
1137.46
1134.74
1127.99
1118.69
1108.64
1099.46
1091.81
1085.13
1079.04
1073.28
1067.82
1062.62
1057.74
1052.99
1048.38
1043.52
1038.47
1033.33
1028.23
1023.25
1018.46
1013.89
1009.56
1005.45
1001.59
997.955
994.541
991.334
988.274
985.352
982.537
979.836
977.226
974.723
972.305
969.989
967.755
965.622
963.569
961.616
959.741
957.964
956.26
954.648
953.097
951.621
950.193
948.829
947.505
946.246
945.04
943.894
942.789
941.739
940.724
939.762
938.84
937.962
937.122
936.325
935.565
934.85
934.169
933.531
932.919
932.355
931.803
931.305
930.8
930.366
929.907
929.546
929.188
928.982
928.983
929.414
2358.73
1860.91
1594.77
1434.01
1353.99
1288.99
1305.25
1337.29
1392.12
1465.15
1539.73
1610.28
1672.38
1723.06
1760.08
1783.38
1792.55
1788.85
1773.31
1750.18
1724.15
1700.71
1682.17
1666.51
1652.51
1639.48
1627.39
1615.94
1604.93
1593.83
1582.73
1571.91
1561.57
1551.73
1542.45
1533.71
1525.55
1517.91
1510.81
1504.16
1497.94
1492.03
1486.48
1481.29
1476.43
1471.85
1467.55
1463.51
1459.72
1456.17
1452.85
1449.75
1446.84
1444.12
1441.57
1439.17
1436.9
1434.76
1432.72
1430.8
1428.96
1427.22
1425.57
1424
1422.51
1421.09
1419.76
1418.5
1417.31
1416.18
1415.12
1414.12
1413.19
1412.29
1411.45
1410.64
1409.86
1409.11
1408.41
1407.74
1407.11
1406.52
1405.97
1405.45
1404.97
1404.53
1404.13
1403.76
1403.43
1403.14
1402.86
1402.64
1402.41
1402.27
1402.07
1402.06
1401.95
1402.22
1402.68
1403.85
2454.74
2305.68
2580.44
2808.67
2934.22
3010.01
2994.58
2967.45
3014.83
3085.64
3150.03
3196.61
3222.41
3229.88
3222.23
3203.95
3178.36
3148.8
3117.79
3086.34
3054.82
3023.05
2991.97
2961.67
2933.61
2907.2
2882.91
2860.48
2839.9
2820.98
2803.65
2787.82
2773.39
2760.22
2748.2
2737.21
2727.14
2717.94
2709.48
2701.76
2694.61
2688.06
2682
2676.3
2670.91
2665.81
2660.99
2656.44
2652.17
2648.16
2644.41
2640.9
2637.62
2634.57
2631.73
2629.08
2626.6
2624.29
2622.12
2620.1
2618.18
2616.4
2614.71
2613.13
2611.67
2610.28
2609
2607.8
2606.71
2605.68
2604.74
2603.89
2603.1
2602.38
2601.71
2601.1
2600.53
2600.01
2599.52
2599.09
2598.69
2598.35
2598.05
2597.8
2597.6
2597.44
2597.33
2597.27
2597.24
2597.27
2597.33
2597.44
2597.56
2597.76
2597.92
2598.33
2598.52
2599.46
2600.42
2602.42
6588.08
7481.93
7876.77
7936
7826.38
7629.93
7415.07
7222.09
7053.54
6914.35
6805.38
6723.41
6664.03
6621.63
6591.85
6570.24
6554.28
6541.58
6531.21
6522.48
6514.92
6508.91
6504.01
6500.33
6497.42
6495.11
6493.31
6491.84
6490.47
6489.03
6487.34
6485.47
6483.4
6481.23
6478.93
6476.61
6474.25
6471.93
6469.66
6467.49
6465.43
6463.49
6461.71
6460.09
6458.62
6457.29
6456.06
6454.94
6453.9
6452.96
6452.1
6451.33
6450.67
6450.13
6449.7
6449.38
6449.18
6449.09
6449.12
6449.25
6449.5
6449.82
6450.27
6450.8
6451.41
6452.11
6452.9
6453.77
6454.73
6455.76
6456.89
6458.1
6459.38
6460.74
6462.18
6463.68
6465.24
6466.86
6468.52
6470.22
6471.97
6473.74
6475.56
6477.41
6479.3
6481.22
6483.19
6485.19
6487.25
6489.33
6491.46
6493.61
6495.86
6498.06
6500.43
6502.59
6504.93
6506.75
6507.99
6507.9
5498.2
3369.84
2415.92
1948.57
1665.39
1480.79
1346.83
1245.94
1163.87
1095.54
1037.14
985.84
939.997
898.57
860.765
825.721
793.015
762.079
732.451
704.044
676.669
650.281
624.901
600.528
577.094
554.656
533.18
512.691
493.153
474.541
456.857
440.136
424.347
409.436
395.343
382.002
369.36
357.368
345.979
335.148
324.842
315.022
305.666
296.738
288.226
280.094
272.339
264.918
257.845
251.063
244.605
238.395
232.49
226.792
221.387
216.144
211.185
206.352
201.79
197.325
193.108
188.974
185.054
181.208
177.549
173.949
170.518
167.125
163.893
160.674
157.615
154.54
151.643
148.677
145.936
143.057
140.479
137.666
135.271
132.508
130.32
127.62
125.621
123.036
121.174
118.792
117.028
114.909
113.243
111.356
109.896
108.139
107.019
105.293
104.508
102.873
102.352
100.818
100.586
98.9595
1518.12
2568.87
2357.69
1985.65
1701.96
1501.86
1354.79
1243.66
1154.02
1081.03
1019.76
966.766
920.488
879.562
842.836
809.227
778.121
748.862
720.972
694.298
668.623
643.832
619.872
596.736
574.298
552.653
531.746
511.719
492.404
473.941
456.182
439.407
423.612
408.71
394.622
381.275
368.619
356.602
345.177
334.301
323.941
314.061
304.642
295.65
287.074
278.878
271.062
263.583
256.455
249.621
243.115
236.859
230.914
225.177
219.737
214.461
209.474
204.613
200.026
195.54
191.301
187.149
183.212
179.354
175.68
172.071
168.631
165.234
161.996
158.778
155.719
152.652
149.758
146.809
144.075
141.225
138.656
135.887
133.505
130.8
128.631
126.002
124.03
121.523
119.698
117.395
115.682
113.626
112.033
110.182
108.807
107.066
106.021
104.305
103.56
101.933
101.422
99.8929
99.6525
98.0521
1127.68
1418.28
1803.81
1801.15
1642.34
1475.58
1336.77
1225.17
1133.55
1058.2
995.221
941.336
895.001
854.638
818.906
786.613
757.031
729.389
703.302
678.497
654.682
631.696
609.417
587.802
566.703
546.236
526.291
507.118
488.446
470.538
453.1
436.535
420.925
406.18
392.224
378.983
366.416
354.468
343.094
332.251
321.911
312.042
302.625
293.63
285.048
276.844
269.02
261.532
254.396
247.554
241.042
234.781
228.832
223.091
217.65
212.373
207.385
202.525
197.939
193.455
189.218
185.071
181.137
177.286
173.617
170.018
166.585
163.201
159.974
156.774
153.73
150.687
147.813
144.899
142.187
139.387
136.843
134.141
131.788
129.168
127.037
124.506
122.585
120.183
118.423
116.221
114.592
112.619
111.131
109.334
108.076
106.368
105.42
103.733
103.045
101.439
100.952
99.4396
99.1975
97.6372
895.134
846.395
1029.07
1250.35
1340.25
1313.54
1238.98
1156.44
1079.93
1012.49
954.369
904.175
860.574
822.4
788.643
758.259
730.527
704.712
680.476
657.517
635.513
614.316
593.77
573.734
554.103
535.01
516.307
498.29
480.64
463.632
447.03
431.057
415.875
401.463
387.776
374.759
362.388
350.607
339.373
328.647
318.408
308.627
299.29
290.368
281.854
273.714
265.951
258.521
251.44
244.653
238.193
231.981
226.081
220.386
214.99
209.756
204.809
199.988
195.44
190.993
186.79
182.679
178.777
174.961
171.323
167.76
164.357
161.011
157.818
154.659
151.652
148.658
145.823
142.971
140.302
137.58
135.083
132.48
130.181
127.679
125.613
123.217
121.377
119.115
117.456
115.387
113.882
112.018
110.676
108.956
107.849
106.196
105.371
103.732
103.117
101.548
101.097
99.6091
99.3716
97.8608
675.177
655.926
666.669
732.579
836.285
921.78
960.542
959.701
936.325
903.09
867.433
833.171
801.171
771.61
744.399
719.162
695.48
673.095
651.662
631.105
611.217
591.949
573.176
554.823
536.778
519.199
501.95
485.303
468.902
452.988
437.529
422.484
408.025
394.174
380.931
368.285
356.242
344.736
333.733
323.211
313.156
303.547
294.373
285.607
277.245
269.251
261.631
254.339
247.393
240.734
234.4
228.307
222.522
216.936
211.645
206.51
201.657
196.927
192.463
188.099
183.972
179.937
176.105
172.361
168.789
165.295
161.956
158.679
155.549
152.463
149.522
146.609
143.844
141.087
138.491
135.885
133.466
131.004
128.792
126.455
124.491
122.278
120.561
118.485
116.974
115.078
113.745
112.026
110.874
109.261
108.341
106.768
106.089
104.518
103.992
102.468
102.063
100.599
100.371
98.9084
530.559
531.1
526.776
527.653
540.621
566.606
598.697
629.774
653.217
668.082
674.649
675.694
672.699
666.603
657.968
647.384
635.136
621.756
607.326
592.273
576.727
560.971
545.007
529.15
513.29
497.622
482.085
466.886
451.956
437.37
423.251
409.502
396.192
383.247
370.731
358.708
347.212
336.146
325.517
315.332
305.592
296.284
287.401
278.92
270.836
263.114
255.757
248.72
242.02
235.597
229.49
223.613
218.033
212.642
207.534
202.573
197.885
193.311
188.993
184.769
180.774
176.866
173.153
169.527
166.065
162.684
159.45
156.283
153.258
150.285
147.449
144.658
142.003
139.386
136.905
134.463
132.167
129.9
127.821
125.712
123.899
121.932
120.392
118.564
117.256
115.59
114.483
112.954
112.04
110.57
109.87
108.403
107.889
106.397
105.968
104.484
104.127
102.673
102.452
101.018
439.301
441.202
439.574
434.497
427.943
422.555
418.205
416.318
416.68
420.666
427.7
437.863
450.457
464.664
478.905
492.112
502.802
510.41
514.168
514.282
510.87
504.881
496.572
486.733
475.749
464.042
451.789
439.145
426.59
414.057
401.711
389.553
377.527
365.918
354.66
343.785
333.279
322.981
313.042
303.51
294.4
285.703
277.413
269.503
261.966
254.767
247.907
241.339
235.082
229.074
223.354
217.84
212.599
207.523
202.709
198.022
193.589
189.254
185.159
181.147
177.349
173.631
170.095
166.643
163.345
160.128
157.05
154.044
151.172
148.362
145.681
143.066
140.571
138.152
135.841
133.628
131.513
129.515
127.632
125.83
124.234
122.6
121.301
119.805
118.765
117.4
116.576
115.294
114.659
113.369
112.912
111.567
111.219
109.802
109.457
107.99
107.664
106.177
105.952
104.497
369.173
371.226
371.079
367.57
360.887
352.129
341.773
330.727
319.436
308.863
299.391
291.88
287.106
285.915
288.907
296.374
307.988
322.924
339.695
356.844
372.231
385.493
394.138
399.22
401.144
400.248
397.074
391.909
385.425
377.88
369.587
360.77
351.377
342.005
332.375
322.741
313.166
304.079
295.416
287.145
279.248
271.701
264.491
257.587
250.984
244.645
238.577
232.735
227.142
221.743
216.581
211.577
206.804
202.157
197.739
193.416
189.32
185.299
181.496
177.758
174.217
170.744
167.44
164.214
161.132
158.13
155.26
152.467
149.802
147.213
144.745
142.367
140.098
137.946
135.876
133.974
132.118
130.483
128.879
127.492
126.196
125.007
124.03
122.973
122.268
121.292
120.8
119.823
119.488
118.404
118.178
116.946
116.726
115.343
115.03
113.517
113.171
111.576
111.312
109.753
309.709
309.595
308.55
305.21
299.414
291.477
282.161
272.054
262.264
253.03
245.428
239.544
235.683
233.663
233.469
234.484
236.938
240.123
244.914
250.235
257.671
265.103
275.427
286.39
296.941
306.167
313.686
319.013
322.142
323.108
322.062
319.228
314.707
308.658
302.171
295.488
288.516
281.834
275.398
269.169
263.127
257.251
251.539
245.973
240.563
235.289
230.17
225.177
220.345
215.628
211.08
206.63
202.36
198.171
194.171
190.233
186.492
182.801
179.307
175.859
172.595
169.387
166.34
163.364
160.529
157.774
155.151
152.612
150.203
147.887
145.694
143.621
141.653
139.852
138.114
136.623
135.13
133.976
132.763
131.926
131.037
130.435
129.865
129.374
129.056
128.561
128.406
127.777
127.694
126.803
126.714
125.531
125.319
123.869
123.463
121.794
121.321
119.506
119.137
117.361
235.953
236.739
237.14
236.708
235.498
233.948
232.742
232.514
233.873
236.766
241.393
246.949
253.336
259.938
266.027
271.304
275.55
278.872
281.419
283.105
284.212
285.104
285.793
286.613
287.639
288.819
290.06
291.163
292.026
292.424
292.278
291.346
289.641
286.873
283.498
279.734
275.575
271.158
266.577
261.891
257.147
252.37
247.596
242.833
238.116
233.441
228.847
224.311
219.886
215.528
211.304
207.145
203.142
199.197
195.425
191.7
188.164
184.669
181.369
178.11
175.039
172.021
169.176
166.404
163.788
161.261
158.883
156.606
154.478
152.472
150.606
148.903
147.318
145.961
144.667
143.707
142.714
142.186
141.506
141.379
141.019
141.158
141.062
141.253
141.306
141.34
141.408
141.09
141.056
140.246
140.04
138.739
138.275
136.583
135.855
133.88
133.1
130.943
130.36
128.268
255.234
255.712
256.426
258.121
261.055
265.61
271.551
278.94
287.014
295.658
304.15
312.201
319.115
324.746
329.26
332.772
335.43
337.476
339.02
340.142
340.964
341.279
341.174
340.664
339.833
338.67
337.185
335.382
333.269
330.787
327.971
324.708
321.104
316.983
312.362
307.362
302.025
296.42
290.632
284.732
278.792
272.86
266.991
261.204
255.542
250
244.618
239.369
234.305
229.374
224.638
220.024
215.622
211.325
207.248
203.259
199.505
195.828
192.388
189.019
185.883
182.828
179.99
177.253
174.721
172.307
170.091
168.014
166.134
164.423
162.904
161.603
160.467
159.629
158.887
158.565
158.206
158.424
158.407
159.09
159.324
160.243
160.56
161.379
161.579
161.98
161.894
161.64
161.187
160.183
159.385
157.719
156.6
154.479
153.122
150.743
149.427
146.903
145.961
143.567
326.4
325.737
325.706
327.011
329.862
334.201
339.765
346.32
353.36
360.762
368.121
375.1
381.463
387.099
391.983
396.067
399.467
402.059
403.937
405.211
405.963
406.241
406.068
405.45
404.374
402.812
400.745
398.233
395.163
391.619
387.465
382.808
377.55
371.763
365.555
358.963
351.979
344.694
337.201
329.583
321.921
314.28
306.728
299.301
292.052
284.997
278.175
271.573
265.241
259.135
253.307
247.693
242.374
237.246
232.413
227.746
223.388
219.179
215.278
211.511
208.048
204.72
201.685
198.798
196.196
193.76
191.604
189.639
187.954
186.5
185.318
184.423
183.768
183.477
183.343
183.684
184.013
184.954
185.596
186.962
187.66
189.088
189.511
190.556
190.423
190.726
189.91
189.297
187.859
186.362
184.501
182.323
180.204
177.641
175.419
172.729
170.688
167.99
166.535
164.082
385.163
384.673
384.948
386.678
390.147
395.279
401.944
409.798
418.533
427.503
436.216
444.408
451.809
458.365
463.95
468.633
472.378
475.292
477.342
478.641
479.146
478.945
478.007
476.402
474.066
471.089
467.439
463.166
458.26
452.8
446.722
440.179
433.098
425.647
417.918
409.864
401.62
393.264
384.845
376.406
367.985
359.622
351.355
343.211
335.233
327.44
319.866
312.511
305.427
298.582
292.02
285.703
279.705
273.938
268.492
263.263
258.385
253.711
249.395
245.263
241.495
237.908
234.686
231.658
228.998
226.551
224.475
222.643
221.188
220.022
219.226
218.77
218.64
218.908
219.398
220.352
221.315
222.807
223.935
225.632
226.47
227.885
227.963
228.63
227.67
227.334
225.342
224.008
221.253
219.12
215.97
213.322
210.05
207.219
204.005
201.269
198.356
195.853
193.699
191.644
455.498
455.358
456.067
458.393
462.702
468.945
476.915
486.317
496.637
507.489
518.216
528.471
537.874
546.164
553.116
558.679
562.751
565.413
566.608
566.478
564.976
562.276
558.429
553.531
547.713
541.113
533.912
526.205
518.157
509.789
501.254
492.583
483.879
475.138
466.313
457.435
448.635
439.919
431.294
422.772
414.356
406.062
397.898
389.872
382.013
374.326
366.831
359.531
352.472
345.622
339.019
332.644
326.571
320.715
315.164
309.831
304.858
300.105
295.727
291.549
287.765
284.183
281.016
278.069
275.557
273.293
271.479
269.951
268.888
268.155
267.875
267.959
268.431
269.282
270.381
271.845
273.291
275.047
276.351
277.903
278.452
279.258
278.551
278.266
276.139
274.74
271.392
269.125
265.001
262.205
257.769
254.774
250.335
247.478
243.197
240.771
236.806
235.027
231.879
230.936
547.073
547.432
548.852
552.29
558.284
566.788
577.624
590.348
604.392
619.03
633.404
646.869
658.767
668.516
675.844
680.559
682.636
682.171
679.322
674.364
667.511
659.157
649.557
638.994
627.852
616.295
604.646
592.991
581.529
570.318
559.499
549.06
539.037
529.405
520.093
511.114
502.383
493.862
485.534
477.39
469.423
461.634
454.017
446.57
439.308
432.224
425.322
418.602
412.11
405.797
399.701
393.812
388.201
382.779
377.653
372.72
368.138
363.773
359.785
355.985
352.59
349.397
346.647
344.131
342.095
340.331
339.071
338.124
337.697
337.617
338.027
338.779
339.921
341.348
342.97
344.757
346.422
348.067
349.137
350.035
349.859
349.535
347.722
346.072
342.661
339.957
335.335
332.033
326.727
323.264
317.739
314.484
309.013
306.328
300.99
299.26
294.036
293.705
289.108
290.422
688.252
689.308
691.751
696.933
705.674
717.966
733.519
751.533
771.116
790.715
809.224
825.156
837.571
845.656
849.27
848.314
843.231
834.472
822.77
808.789
793.202
776.653
759.611
742.564
725.856
709.585
694.074
679.21
665.194
652
639.66
628.127
617.349
607.267
597.828
588.971
580.56
572.514
564.778
557.309
550.078
543.081
536.299
529.722
523.353
517.182
511.195
505.392
499.821
494.422
489.219
484.216
479.487
474.938
470.661
466.542
462.794
459.278
456.128
453.14
450.555
448.169
446.24
444.554
443.368
442.471
442.092
442.039
442.499
443.29
444.524
446.021
447.803
449.697
451.62
453.421
454.904
455.988
456.353
456.124
454.831
453.003
449.913
446.68
442.065
437.961
432.324
427.944
421.807
417.645
411.405
407.875
401.717
399.261
393.108
392.369
385.767
387.845
381.166
386.636
930.647
932.68
936.606
944.577
957.809
976.178
998.664
1023.72
1049.2
1072.54
1092.06
1105.2
1111.2
1109.59
1101.03
1086.2
1066.68
1043.61
1018.49
992.46
966.402
941.078
916.7
893.805
872.336
852.417
834.195
817.344
801.977
787.886
774.989
763.146
752.301
742.37
733.259
724.891
717.139
709.899
703.085
696.631
690.484
684.63
679.032
673.673
668.545
663.64
658.931
654.412
650.145
646.064
642.154
638.458
635.064
631.861
628.899
626.06
623.638
621.433
619.581
617.866
616.548
615.421
614.745
614.308
614.352
614.679
615.477
616.572
618.079
619.841
621.873
624.012
626.19
628.229
629.995
631.314
632.041
632.029
631.15
629.358
626.61
623.038
618.624
613.753
608.123
602.648
596.335
590.907
584.393
579.511
573.094
569.197
562.978
560.633
554.321
554.661
547