/*--------------------------------*- C++ -*----------------------------------*\
| =========                 |                                                 |
| \\      /  F ield         | OpenFOAM: The Open Source CFD Toolbox           |
|  \\    /   O peration     | Version:  v2012                                 |
|   \\  /    A nd           | Website:  www.openfoam.com                      |
|    \\/     M anipulation  |                                                 |
\*---------------------------------------------------------------------------*/
FoamFile
{
    version     2.0;
    format      ascii;
    class       vectorField;
    location    "0.037/lagrangian/kinematicCloud";
    object      UCorrect;
}
// * * * * * * * * * * * * * * * * * * * * * * * * * * * * * * * * * * * * * //


40
(
(0 0 0)
(0 0 0)
(0 0 0)
(-1.01361e-27 -2.36925e-29 0)
(0 0 0)
(0 0 0)
(0 0 0)
(-9.60199e-10 -3.04534e-12 0)
(6.93553e-10 2.57067e-12 0)
(-1.34383e-11 -9.45291e-14 0)
(-5.27168e-12 4.72471e-14 0)
(0 0 0)
(1.11416e-08 -1.69655e-12 0)
(2.10024e-08 3.1224e-12 0)
(0 0 0)
(0 0 0)
(-3.48628e-29 -8.66662e-33 0)
(0 0 0)
(0 0 0)
(-2.89807e-25 1.89545e-29 0)
(-2.91331e-25 1.71805e-29 0)
(-1.13664e-08 1.71959e-12 0)
(-3.98921e-09 1.34382e-12 0)
(-4.04321e-09 -8.26655e-13 0)
(0 0 0)
(3.38491e-09 -1.2681e-12 0)
(3.43149e-09 7.59206e-13 0)
(0 0 0)
(-7.86155e-08 -5.9203e-12 0)
(0 0 0)
(4.99278e-08 2.61969e-12 0)
(-9.37214e-08 -3.49543e-12 0)
(0 0 0)
(0 0 0)
(0 0 0)
(-8.1358e-09 3.64873e-13 0)
(-1.00888e-09 1.37091e-14 0)
(7.01497e-10 -2.69998e-14 0)
(7.21465e-09 -3.37856e-13 0)
(9.68452e-08 3.42534e-12 0)
)


// ************************************************************************* //
