/*--------------------------------*- C++ -*----------------------------------*\
| =========                 |                                                 |
| \\      /  F ield         | OpenFOAM: The Open Source CFD Toolbox           |
|  \\    /   O peration     | Version:  v2012                                 |
|   \\  /    A nd           | Website:  www.openfoam.com                      |
|    \\/     M anipulation  |                                                 |
\*---------------------------------------------------------------------------*/
FoamFile
{
    version     2.0;
    format      ascii;
    class       volScalarField;
    location    "0.238";
    object      epsilon.air;
}
// * * * * * * * * * * * * * * * * * * * * * * * * * * * * * * * * * * * * * //

dimensions      [0 2 -3 0 0 0 0];


internalField   nonuniform List<scalar> 
1900
(
112.724
141.424
210.097
257.591
369.051
443.457
614.739
724.907
971.316
1128.62
15.4676
16.4471
18.6374
20.4504
23.7572
27.7273
32.0038
39.2878
45.1242
56.7654
14.7926
14.6415
14.5755
14.5063
14.5148
14.5574
14.6409
14.8309
15.0774
15.4134
14.77
14.6304
14.4634
14.3354
14.1726
14.059
13.904
13.8079
13.6654
13.5937
14.7766
14.6216
14.4704
14.3205
14.1748
14.0289
13.889
13.7472
13.614
13.4769
14.7777
14.6206
14.4714
14.3196
14.1754
14.0284
13.8892
13.7472
13.6134
13.4773
14.7776
14.6207
14.473
14.3235
14.1841
14.045
13.9175
13.7914
13.6807
13.5716
14.7758
14.6499
14.5639
14.5033
14.5107
14.5517
14.6366
14.8197
15.0459
15.3946
15.2081
16.6024
18.2777
20.6751
23.5993
27.5647
32.275
38.3939
45.5774
54.7988
105.862
146.601
198.349
265.751
350.054
456.03
585.723
743.658
931.854
1154.03
4100.25
15205
19575.8
22421.7
21085.3
17994.5
15071.3
12788
11304
10390.8
9891.7
9714.37
9535.88
9262.44
8852.13
8352.22
7797.15
7210.01
6643.67
6125.85
5649.29
5222.5
4837.93
4486.97
4167.67
3878.16
3615.45
3377.86
3162.1
2966.28
2788.03
2625.36
2476.58
2340.13
2214.82
2099.47
1993.14
1894.88
1803.92
1719.52
1641.09
1568.05
1499.94
1436.33
1376.85
1321.13
1268.88
1219.81
1173.66
1130.19
1089.18
1050.42
1013.74
978.953
945.924
914.5
884.576
856.02
828.76
802.674
777.723
753.785
730.854
708.801
687.654
667.266
647.705
628.8
610.669
593.104
576.279
559.938
544.326
529.112
514.631
500.454
487.029
473.796
461.348
448.962
437.415
425.779
415.065
404.092
394.16
383.77
374.592
364.714
356.28
346.848
339.167
330.104
323.197
314.413
308.312
299.692
294.439
285.848
281.472
271.163
113.181
337.906
517.947
921.727
1123.15
1147.68
1120.1
1056.48
1052.33
1092.24
1198.17
1412.42
1700.35
2031.81
2380.96
2693.09
2972.55
3205.09
3358.95
3434.89
3427.05
3388.14
3301.65
3183.54
3055.38
2924.24
2793.33
2666.88
2543.52
2426.24
2314.27
2207.34
2106.02
2010.13
1919.79
1834.71
1754.8
1679.54
1608.76
1542.09
1479.28
1420.03
1364.11
1311.29
1261.37
1214.13
1169.41
1127.03
1086.84
1048.66
1012.37
977.824
944.898
913.467
883.43
854.672
827.124
800.681
775.301
750.888
727.428
704.824
683.09
662.12
641.955
622.468
603.737
585.606
568.195
551.311
535.125
519.396
504.36
489.707
475.757
462.107
449.179
436.455
424.483
412.597
401.514
390.375
380.117
369.641
360.155
350.262
341.518
332.135
324.118
315.177
307.891
299.317
292.777
284.48
278.714
270.585
265.628
257.539
253.421
243.732
16.4288
19.8715
22.8874
29.0909
34.765
38.7016
41.6613
43.7282
46.6891
50.7311
58.8069
71.0802
95.8649
130.554
190.115
267.698
374.423
510.171
667.374
837.666
1006.14
1163.92
1302.62
1418.34
1508.41
1571.63
1609.5
1627.37
1624.94
1614.53
1592.19
1562.08
1527.79
1490.58
1451.96
1412.14
1372.17
1331.76
1291.9
1252.72
1214.27
1176.71
1140.16
1104.7
1070.34
1037.02
1004.82
973.667
943.558
914.475
886.381
859.229
832.992
807.615
783.073
759.302
736.297
713.993
692.399
671.452
651.179
631.518
612.51
594.081
576.292
559.043
542.426
526.302
510.799
495.735
481.286
467.218
453.771
440.641
428.148
415.901
404.316
392.889
382.158
371.479
361.547
351.539
342.351
332.939
324.449
315.557
307.734
299.294
292.124
284.075
277.559
269.834
263.983
256.503
251.34
244.011
239.565
232.278
228.576
219.854
13.4532
13.4608
13.5468
13.8036
14.3356
15.0081
15.7182
16.3379
16.9224
17.3362
17.894
18.3596
19.3226
20.4816
22.7745
26.2618
31.7579
40.8829
54.8939
76.3344
106.613
147.309
198.928
260.411
329.617
404.233
479.417
553.122
620.54
682.529
736.132
780.414
815.315
841.128
859.33
870.452
875.76
875.143
872.365
866.271
857.491
846.77
834.704
821.354
807.11
792.041
776.442
760.235
743.766
727.119
710.333
693.487
676.671
659.93
643.336
626.876
610.648
594.615
578.872
563.369
548.203
533.332
518.829
504.655
490.898
477.481
464.507
451.855
439.658
427.745
416.303
405.097
394.384
383.851
373.84
363.949
354.614
345.316
336.619
327.874
319.789
311.543
304.033
296.229
289.261
281.841
275.391
268.302
262.368
255.567
250.149
243.58
238.689
232.295
227.953
221.667
217.9
211.644
208.474
200.982
13.33
13.1588
13.0628
13.1173
13.3063
13.7184
14.2871
14.9093
15.4465
15.8716
16.2064
16.4293
16.6198
16.7565
16.9146
17.0899
17.3418
17.7368
18.3319
19.32
20.8363
23.2628
26.7719
32.1409
39.6853
50.4699
64.7547
83.2695
105.916
132.898
163.603
197.041
232.383
268.005
303.288
336.452
367.603
395.572
420.36
441.521
459.265
473.486
484.741
493.089
498.99
502.638
504.416
504.13
502.954
500.394
496.584
491.839
486.357
480.205
473.562
466.472
459.091
451.394
443.574
435.543
427.512
419.376
411.266
403.182
395.229
387.33
379.584
371.89
364.378
356.906
349.663
342.427
335.472
328.469
321.819
315.065
308.726
302.235
296.221
289.978
284.283
278.265
272.88
267.061
261.979
256.332
251.552
246.05
241.568
236.178
232.017
226.725
222.913
217.697
214.261
209.091
206.059
200.899
198.293
192.093
13.3252
13.1542
13.0318
13.0868
13.2967
13.7729
14.5018
15.4845
16.4997
17.5967
18.5873
19.5128
20.2558
20.8738
21.3014
21.6062
21.7825
21.856
21.8415
21.7956
21.6948
21.5985
21.5294
21.556
21.6632
21.9213
22.4464
23.3647
24.804
26.9668
30.1751
34.5681
40.6004
48.2037
57.7071
68.9932
82.2038
96.9211
113.082
130.1
147.735
165.387
182.75
199.44
215.203
229.813
243.191
255.2
265.905
275.371
283.622
290.761
296.884
302.085
306.452
310.063
313.016
315.285
317.057
318.173
318.964
319.066
318.891
318.421
317.463
316.131
314.494
312.551
310.399
307.974
305.408
302.581
299.693
296.507
293.432
289.96
286.729
283.062
279.745
275.943
272.59
268.688
265.342
261.363
258.06
254.02
250.787
246.697
243.567
239.434
236.439
232.271
229.444
225.248
222.625
218.409
216.02
211.793
209.671
204.582
13.4657
13.3602
13.4098
13.6562
14.3053
15.6856
18.0385
21.4283
25.3945
29.7045
33.5841
37.049
39.604
41.5684
42.613
43.3354
43.3827
43.2561
42.9214
42.3877
41.7622
41.1447
40.4983
39.8892
39.3369
38.8826
38.5257
38.2567
38.1327
38.1794
38.3466
38.6922
39.353
40.2109
41.5449
43.2125
45.5225
48.4322
52.1835
56.8582
62.5763
69.5072
77.6207
87.0552
97.6531
109.461
122.192
135.81
149.93
164.5
179.113
193.723
207.966
221.824
235.026
247.585
259.354
270.322
280.456
289.698
298.101
305.627
312.3
318.188
323.293
327.637
331.261
334.18
336.405
338.078
339.143
339.719
339.66
339.342
338.676
337.317
336.063
334.051
332.345
329.843
327.795
324.913
322.633
319.462
317.039
313.642
311.141
307.56
305.033
301.304
298.802
294.965
292.537
288.626
286.314
282.371
280.215
276.283
274.337
269.676
15.91
16.858
18.5485
21.9273
28.424
39.4886
55.4812
74.9693
95.4307
114.257
129.115
140.058
146.575
150.149
150.752
150.348
149.357
147.774
146.164
145.075
144.477
144.651
145.274
146.679
148.947
152.255
156.306
161.233
167.11
173.828
181.777
190.495
200.543
211.327
223.445
236.366
250.524
265.59
281.575
298.36
315.593
333.388
351.316
369.503
387.479
405.336
422.604
439.526
455.685
471.43
486.359
500.769
514.29
527.126
539.063
550.192
560.444
569.792
578.279
585.709
592.271
597.795
602.469
606.177
609.115
611.049
612.398
612.565
612.244
611.39
609.707
607.377
604.611
601.167
597.596
593.201
589.109
584.093
579.651
574.249
569.627
563.999
559.346
553.61
549.036
543.263
538.835
533.055
528.816
523.058
519.059
513.365
509.654
504.062
500.671
495.216
492.19
486.902
484.335
478.339
68.0391
90.4198
126.233
184.868
272.082
385.101
511.673
635.662
744.569
831.683
892.427
932.324
953.186
963.699
964.767
963.569
961.047
957.912
956.313
957.151
960.281
966.381
974.714
986.106
1000.38
1016.92
1035.29
1055.47
1077.64
1101.29
1126.48
1152.26
1178.99
1205.69
1232.89
1259.61
1286.18
1311.76
1336.31
1359.51
1381.25
1401.6
1420.31
1437.64
1453.26
1467.48
1480.06
1491.44
1501.34
1510.18
1517.62
1523.94
1528.87
1532.44
1534.85
1535.62
1535.24
1533.92
1531.3
1526.97
1522.06
1515.6
1508.75
1500.56
1492.1
1482.58
1472.53
1461.88
1450.78
1439.04
1427.18
1414.54
1402.13
1388.8
1376.05
1362.32
1349.47
1335.7
1323.08
1309.5
1297.32
1284.06
1272.46
1259.65
1248.75
1236.44
1226.3
1214.47
1205.12
1193.77
1185.27
1174.42
1166.82
1156.46
1149.78
1139.89
1134.15
1124.71
1120.08
1109.69
1464.62
1897.23
2398.91
2961.87
3563.23
4171.79
4746.32
5251.04
5654.88
5950.95
6132.37
6219.49
6207.03
6160.34
6061.69
5928.27
5777.87
5619.17
5458.9
5301.37
5149.12
5004.3
4867.76
4740.07
4621.07
4510.98
4409.44
4316.28
4231.04
4153.42
4083.13
4019.67
3962.78
3911.64
3866.22
3825.76
3790.31
3759.06
3731.88
3708.13
3687.73
3670.34
3655.76
3643.55
3633.48
3625.21
3618.52
3613.17
3608.85
3605.48
3602.85
3600.82
3599.45
3598.38
3597.91
3597.97
3598.32
3598.98
3600.43
3601.62
3603.49
3604.94
3606.75
3608.06
3609.37
3610.25
3610.63
3610.54
3610.15
3609.14
3607.92
3605.49
3603.25
3599.45
3595.92
3590.51
3585.51
3578.47
3572.04
3563.44
3555.72
3545.72
3536.99
3525.88
3516.49
3504.53
3494.76
3482.06
3472.06
3458.62
3448.53
3434.29
3424.26
3409.09
3399.34
3383.13
3373.91
3356.64
3347.82
3325.68
1108.81
1064.3
1122.17
1210.23
1239.08
1121.56
818.79
1980.38
54604.1
16104.9
7349.7
6107.02
6236.61
6488
6558.99
8033.03
74268.7
43632.9
24839.9
18472.7
16109.1
15009.6
14637.8
19684
76411.5
71045.3
54279.2
41219.8
32704.9
27171.1
24556.8
34083.8
69715.8
75713.2
67763.2
55663.5
44574.5
35845.3
30864
42706.9
57735.6
71174
67944.2
59038.2
48372
38728
32777.2
45217.6
47474.1
61821.7
62478
56600
47153.4
38165.5
32440.9
44223
39083.7
51811
53570.3
49819.5
42378.1
34662.6
29580.1
39739
32633.6
42987.1
44911.7
42121.8
36291.8
30035.7
25816.8
34030.6
27616.8
35626.3
37255.3
35111.5
30540.4
25557
22226.1
29375.7
23497.5
29590.8
30827.1
29125.2
25535.8
21639.4
19166.2
26025.4
20115.4
24702.3
25581
24191.5
21349
18308.1
16506
22994.4
17375.8
20788.7
21376.8
20218.9
17948.8
15566
14276.4
20377.7
15141
17662.8
18029.7
17050.3
15222
13341.4
12438.1
18172.7
13289.9
15151.9
15359.6
14524.1
13038
11543.5
10933.2
16341.4
11728.7
13110
13208.8
12492.8
11275.4
10081.3
9695.49
14815.2
10405.4
11438
11463.4
10847.2
9842.33
8883.72
8671.47
13537.3
9266.9
10050.6
10031.5
9498.65
8664.81
7893.69
7817.5
12460.6
8285.09
8888.69
8844.78
8382.41
7687.46
7067.3
7098.04
11545.8
7442.47
7911.01
7852.47
7450.65
6868.86
6371.07
6485.07
10762.1
6716.09
7083.02
7016.42
6666.43
6177.28
5779.08
5959.74
10084.3
6089.86
6378.23
6307.51
6001.67
5588.69
5271.95
5506.36
9493.54
5547.57
5774.83
5702.67
5434.55
5084.66
4834.96
5112.93
8976.75
5073.88
5254.1
5182.69
4947.17
4650.11
4456.13
4769.7
8522.82
4657.77
4801.68
4732.48
4525.28
4272.83
4125.59
4468.48
8121.57
4290.57
4406.3
4340.27
4157.82
3943.33
3835.57
4202.76
7764.99
3965.01
4058.77
3996.54
3835.85
3653.9
3579.74
3967.19
7446.64
3675.71
3752.04
3693.9
3552.37
3398.45
3353.02
3757.41
7161.18
3417.47
3480.01
3426.11
3301.52
3171.89
3151.16
3569.8
6904.14
3186.34
3237.86
3188.16
3078.58
2970.1
2970.79
3401.37
6671.8
2978.67
3021.4
2975.86
2879.67
2789.73
2808.67
3249.87
6461.19
2791.46
2827.17
2785.67
2701.44
2627.82
2662.66
3113.05
6269.98
2622.12
2652.24
2614.64
2541.15
2481.94
2530.77
2989.12
6096.1
2468.39
2494.08
2460.22
2396.43
2350.02
2411.26
2876.55
5937.7
2328.43
2350.59
2320.31
2265.28
2230.31
2302.59
2774
5793.16
2200.61
2219.98
2193.1
2146.01
2121.3
2203.48
2680.33
5660.99
2083.59
2100.74
2077.09
2037.21
2021.72
2112.8
2594.5
5539.85
1976.15
1991.56
1970.95
1937.63
1930.48
2029.59
2515.65
5428.49
1877.28
1891.32
1873.59
1846.25
1846.66
1953
2442.99
5325.83
1786.06
1799.06
1784.06
1762.2
1769.37
1882.42
2375.91
5230.89
1701.72
1713.95
1701.53
1684.7
1698
1817.16
2313.83
5142.83
1623.58
1635.28
1625.3
1613.09
1631.98
1756.73
2256.28
5060.94
1551.06
1562.41
1554.76
1546.81
1570.81
1700.66
2202.84
4984.68
1483.64
1494.81
1489.36
1485.34
1514.05
1648.57
2153.18
4913.57
1420.86
1431.99
1428.62
1428.25
1461.29
1600.11
2106.97
4847.22
1362.31
1373.5
1372.14
1375.11
1412.2
1554.98
2063.96
4785.33
1307.62
1318.98
1319.51
1325.58
1366.44
1512.89
2023.9
4727.63
1256.46
1268.04
1270.38
1279.37
1323.74
1473.6
1986.58
4673.93
1208.51
1220.38
1224.45
1236.17
1283.8
1436.87
1951.77
4624
1163.5
1175.72
1181.43
1195.72
1246.42
1402.5
1919.31
4577.62
1121.18
1133.78
1141.07
1157.78
1211.34
1370.27
1888.98
4534.56
1081.31
1094.34
1103.14
1122.13
1178.39
1340.02
1860.64
4494.57
1043.69
1057.17
1067.43
1088.58
1147.37
1311.57
1834.11
4457.42
1008.12
1022.1
1033.75
1056.94
1118.14
1284.78
1809.23
4422.82
974.457
988.942
1001.94
1027.06
1090.53
1259.51
1785.87
4390.54
942.523
957.542
971.838
998.798
1064.42
1235.63
1763.88
4360.26
912.204
927.774
943.323
972.027
1039.69
1213.03
1743.16
4331.84
883.355
899.493
916.254
946.621
1016.23
1191.6
1723.57
4304.97
855.893
872.613
890.543
922.494
993.938
1171.25
1705.04
4279.58
829.684
846.994
866.057
899.521
972.718
1151.89
1687.46
4255.39
804.678
822.584
842.742
877.649
952.511
1133.46
1670.77
4232.43
780.741
799.247
820.465
856.756
933.208
1115.87
1654.89
4210.46
757.861
776.965
799.208
836.82
914.786
1099.08
1639.77
4189.58
735.895
755.594
778.83
817.711
897.133
1083.02
1625.36
4169.58
714.867
735.155
759.351
799.448
880.256
1067.65
1611.63
4150.61
694.619
715.489
740.614
781.885
864.033
1052.91
1598.52
4132.41
675.218
696.662
722.689
765.087
848.512
1038.81
1586.01
4115.24
656.485
678.49
705.39
748.879
833.543
1025.25
1574.06
4098.7
638.537
661.096
688.844
733.385
819.238
1012.29
1562.69
4083.22
621.157
644.253
672.82
718.376
805.385
999.769
1551.78
4068.18
604.526
628.152
657.519
704.06
792.188
987.863
1541.47
4054.29
588.371
612.504
642.636
690.124
779.336
976.285
1531.5
4040.57
572.951
597.587
628.471
676.885
767.156
965.355
1522.19
4028.17
557.912
583.019
614.612
663.905
755.192
954.613
1513.04
4015.57
543.613
569.19
601.485
651.648
743.944
944.586
1504.66
4004.61
529.588
555.592
588.536
639.508
732.751
934.561
1496.22
3992.89
516.324
542.758
576.354
628.144
722.352
925.364
1488.7
3983.27
503.209
530.02
564.198
616.721
711.803
915.92
1480.8
3972.18
490.893
518.092
552.871
606.161
702.169
907.479
1474.09
3963.81
478.585
506.104
541.393
595.338
692.137
898.475
1466.56
3953.1
467.137
495
530.837
585.5
683.189
890.713
1460.59
3945.76
455.535
483.659
519.934
575.169
673.561
882.021
1453.26
3935.19
444.887
473.311
510.083
565.985
665.228
874.861
1447.92
3928.63
433.903
462.532
499.67
556.06
655.914
866.381
1440.68
3917.96
424.006
452.891
490.475
547.48
648.142
859.756
1435.87
3911.92
413.566
442.604
480.487
537.901
639.082
851.421
1428.62
3900.97
404.394
433.647
471.924
529.899
631.838
845.287
1424.28
3895.24
394.433
423.793
462.311
520.624
622.997
837.064
1416.98
3883.98
385.982
415.518
454.38
513.197
616.275
831.404
1413.05
3878.35
376.438
406.043
445.097
504.196
607.638
823.295
1405.74
3866.98
368.72
398.466
437.815
497.361
601.448
818.109
1402.18
3861.41
359.524
389.31
428.817
488.608
593.021
810.161
1394.99
3850.07
352.565
382.46
422.213
482.391
587.378
805.438
1391.69
3844.68
343.631
373.547
413.44
473.852
579.167
797.728
1384.87
3833.7
337.467
367.462
407.555
468.29
574.098
793.473
1381.84
3828.52
328.685
358.693
398.925
459.909
566.089
786.055
1375.5
3818.35
323.361
353.417
393.799
455.036
561.616
782.26
1372.72
3813.27
314.603
344.674
385.211
446.736
553.771
775.166
1366.92
3804.26
310.143
340.226
380.852
442.549
549.866
771.756
1364.34
3799.89
299.606
329.679
370.465
432.488
540.358
763.219
1357.38
3790.28
)
;

boundaryField
{
    frontAndBack
    {
        type            empty;
    }
    inlet
    {
        type            fixedValue;
        value           uniform 14.855;
    }
    outlet
    {
        type            zeroGradient;
    }
    walls
    {
        lowReCorrection 0;
        blending        stepwise;
        n               2;
        type            epsilonWallFunction;
        value           nonuniform List<scalar> 
228
(
112.724
141.424
210.097
257.591
369.051
443.457
614.739
724.907
971.316
1128.62
1108.81
1064.3
1122.17
1210.23
1239.08
1121.56
818.79
1980.38
1980.38
8033.03
19684
34083.8
42706.9
45217.6
44223
39739
34030.6
29375.7
26025.4
22994.4
20377.7
18172.7
16341.4
14815.2
13537.3
12460.6
11545.8
10762.1
10084.3
9493.54
8976.75
8522.82
8121.57
7764.99
7446.64
7161.18
6904.14
6671.8
6461.19
6269.98
6096.1
5937.7
5793.16
5660.99
5539.85
5428.49
5325.83
5230.89
5142.83
5060.94
4984.68
4913.57
4847.22
4785.33
4727.63
4673.93
4624
4577.62
4534.56
4494.57
4457.42
4422.82
4390.54
4360.26
4331.84
4304.97
4279.58
4255.39
4232.43
4210.46
4189.58
4169.58
4150.61
4132.41
4115.24
4098.7
4083.22
4068.18
4054.29
4040.57
4028.17
4015.57
4004.61
3992.89
3983.27
3972.18
3963.81
3953.1
3945.76
3935.19
3928.63
3917.96
3911.92
3900.97
3895.24
3883.98
3878.35
3866.98
3861.41
3850.07
3844.68
3833.7
3828.52
3818.35
3813.27
3804.26
3799.89
3790.28
105.862
146.601
198.349
265.751
350.054
456.03
585.723
743.658
931.854
1154.03
1464.62
1897.23
2398.91
2961.87
3563.23
4171.79
4746.32
5251.04
5654.88
5950.95
6132.37
6219.49
6207.03
6160.34
6061.69
5928.27
5777.87
5619.17
5458.9
5301.37
5149.12
5004.3
4867.76
4740.07
4621.07
4510.98
4409.44
4316.28
4231.04
4153.42
4083.13
4019.67
3962.78
3911.64
3866.22
3825.76
3790.31
3759.06
3731.88
3708.13
3687.73
3670.34
3655.76
3643.55
3633.48
3625.21
3618.52
3613.17
3608.85
3605.48
3602.85
3600.82
3599.45
3598.38
3597.91
3597.97
3598.32
3598.98
3600.43
3601.62
3603.49
3604.94
3606.75
3608.06
3609.37
3610.25
3610.63
3610.54
3610.15
3609.14
3607.92
3605.49
3603.25
3599.45
3595.92
3590.51
3585.51
3578.47
3572.04
3563.44
3555.72
3545.72
3536.99
3525.88
3516.49
3504.53
3494.76
3482.06
3472.06
3458.62
3448.53
3434.29
3424.26
3409.09
3399.34
3383.13
3373.91
3356.64
3347.82
3325.68
)
;
    }
}


// ************************************************************************* //
