/*--------------------------------*- C++ -*----------------------------------*\
| =========                 |                                                 |
| \\      /  F ield         | OpenFOAM: The Open Source CFD Toolbox           |
|  \\    /   O peration     | Version:  v2012                                 |
|   \\  /    A nd           | Website:  www.openfoam.com                      |
|    \\/     M anipulation  |                                                 |
\*---------------------------------------------------------------------------*/
FoamFile
{
    version     2.0;
    format      ascii;
    class       surfaceScalarField;
    location    "0.238";
    object      phi.air;
}
// * * * * * * * * * * * * * * * * * * * * * * * * * * * * * * * * * * * * * //

dimensions      [0 3 -1 0 0 0 0];
oriented        oriented;


internalField   nonuniform List<scalar> 
3672
(
0.0064006
7.14517e-06
0.00639136
8.99623e-06
0.00638142
9.68684e-06
0.00637056
1.06126e-05
0.0063586
1.17119e-05
0.00634559
1.27594e-05
0.00633129
1.40467e-05
0.00631578
1.52582e-05
0.00629637
1.91628e-05
2.80585e-05
0.00626806
0.00641089
4.26003e-06
0.00641309
6.79313e-06
0.00641555
7.2261e-06
0.00641823
7.93235e-06
0.00642104
8.90607e-06
0.00642399
9.8076e-06
0.00642694
1.10891e-05
0.00642967
1.25285e-05
0.00643129
1.75455e-05
2.48537e-05
0.0064345
0.00640988
2.38202e-06
0.00641223
4.44505e-06
0.00641473
4.71802e-06
0.00641752
5.14462e-06
0.00642056
5.87155e-06
0.00642375
6.60995e-06
0.00642716
7.68595e-06
0.00643042
9.26282e-06
0.0064346
1.3366e-05
1.8425e-05
0.00644103
0.00640936
1.0263e-06
0.00641175
2.05189e-06
0.00641429
2.17918e-06
0.00641704
2.39546e-06
0.00642008
2.82902e-06
0.00642335
3.34014e-06
0.00642686
4.1794e-06
0.00643058
5.54009e-06
0.00643542
8.52209e-06
1.19255e-05
0.00644192
0.00640916
-1.33129e-07
0.00641153
-3.17988e-07
0.00641408
-3.68049e-07
0.0064168
-3.30659e-07
0.00641985
-2.20073e-07
0.00642318
1.20087e-08
0.0064268
5.59747e-07
0.0064308
1.54158e-06
0.00643581
3.50708e-06
5.3565e-06
0.00644238
0.00640918
-1.30997e-06
0.00641156
-2.70308e-06
0.00641412
-2.9249e-06
0.00641686
-3.07022e-06
0.00641993
-3.29409e-06
0.00642331
-3.36794e-06
0.00642702
-3.15054e-06
0.00643117
-2.6108e-06
0.00643623
-1.55005e-06
-9.18188e-07
0.00644251
0.00640941
-2.72028e-06
0.00641185
-5.1427e-06
0.00641442
-5.49271e-06
0.00641721
-5.85951e-06
0.00642032
-6.40729e-06
0.00642374
-6.78915e-06
0.00642751
-6.92237e-06
0.00643175
-6.8458e-06
0.00643674
-6.54489e-06
-6.74829e-06
0.00644257
0.00640999
-4.70719e-06
0.0064124
-7.5559e-06
0.00641495
-8.04444e-06
0.00641781
-8.71403e-06
0.00642095
-9.55364e-06
0.0064244
-1.02353e-05
0.00642821
-1.0735e-05
0.00643249
-1.11202e-05
0.00643739
-1.14533e-05
-1.21458e-05
0.00644279
0.00641105
-7.76188e-06
0.00641334
-9.83865e-06
0.00641585
-1.05521e-05
0.00641858
-1.14513e-05
0.00642152
-1.24901e-05
0.00642469
-1.34058e-05
0.00642817
-1.42168e-05
0.00643204
-1.49858e-05
0.00643631
-1.57293e-05
-1.68101e-05
0.00644098
0.00640049
0.0063909
0.0063806
0.0063694
0.00635716
0.006344
0.00633004
0.0063153
0.00629982
0.00628326
0.00618912
0.000122524
-4.3588e-05
0.00598884
8.2613e-05
0.000117663
0.00572442
-0.000168606
0.000433026
0.00550756
-0.000541273
0.000758141
0.00535911
-0.000908017
0.00105647
0.00525264
-0.00120371
0.00131018
0.0051718
-0.00137929
0.00146013
0.00510268
-0.0014273
0.00149642
0.00503457
-0.00137479
0.0014429
0.0049666
-0.00125508
0.00132304
0.004899
-0.00110284
0.00117044
0.0048323
-0.000945482
0.00101218
0.00476699
-0.000798935
0.000864248
0.00470299
-0.00067046
0.000734452
0.00464098
-0.000564122
0.000626137
0.00458131
-0.000478523
0.000538191
0.00452419
-0.000409662
0.000466783
0.00447021
-0.000354452
0.000408428
0.00442015
-0.000311348
0.000361411
0.0043744
-0.000278171
0.000323923
0.00433262
-0.000251364
0.000293142
0.00429461
-0.000228528
0.000266542
0.00426045
-0.000209514
0.00024367
0.00423023
-0.000194347
0.000224572
0.00420354
-0.000181978
0.000208665
0.00418015
-0.00017102
0.000194413
0.00416005
-0.000161031
0.000181122
0.00414288
-0.00015215
0.000169329
0.00412818
-0.000144574
0.000159273
0.00411558
-0.00013794
0.000150537
0.0041047
-0.000131806
0.000142686
0.00409528
-0.000125955
0.00013538
0.00408704
-0.000120408
0.000128647
0.00407973
-0.000115172
0.000122483
0.00407331
-0.000110444
0.000116858
0.00406776
-0.000106183
0.000111737
0.00406299
-0.000102228
0.000106996
0.00405894
-9.84598e-05
0.000102505
0.00405556
-9.48975e-05
9.82771e-05
0.00405279
-9.15922e-05
9.43624e-05
0.0040506
-8.86103e-05
9.08053e-05
0.00404892
-8.5902e-05
8.75771e-05
0.00404768
-8.33417e-05
8.45886e-05
0.00404678
-8.08274e-05
8.17264e-05
0.00404619
-7.83502e-05
7.89427e-05
0.00404587
-7.59779e-05
7.62904e-05
0.00404582
-7.38135e-05
7.38658e-05
0.00404602
-7.18297e-05
7.16338e-05
0.00404645
-6.99494e-05
6.95135e-05
0.00404711
-6.81136e-05
6.74542e-05
0.00404797
-6.63246e-05
6.54638e-05
0.00404902
-6.4622e-05
6.3579e-05
0.00405023
-6.30501e-05
6.18324e-05
0.00405162
-6.15945e-05
6.02071e-05
0.00405317
-6.02098e-05
5.86633e-05
0.00405486
-5.88648e-05
5.7172e-05
0.00405668
-5.75497e-05
5.57311e-05
0.0040586
-5.62655e-05
5.43431e-05
0.00406062
-5.50464e-05
5.30319e-05
0.00406272
-5.39075e-05
5.18039e-05
0.00406491
-5.28352e-05
5.06477e-05
0.00406717
-5.17909e-05
4.95279e-05
0.0040695
-5.07783e-05
4.8447e-05
0.00407189
-4.97923e-05
4.74022e-05
0.00407433
-4.88595e-05
4.64164e-05
0.00407682
-4.79627e-05
4.5475e-05
0.00407935
-4.71127e-05
4.45835e-05
0.00408192
-4.62912e-05
4.37242e-05
0.00408452
-4.54969e-05
4.28978e-05
0.00408714
-4.47162e-05
4.20921e-05
0.00408978
-4.39611e-05
4.13184e-05
0.00409244
-4.32287e-05
4.05722e-05
0.00409511
-4.25278e-05
3.98611e-05
0.00409778
-4.18463e-05
3.9173e-05
0.00410046
-4.11847e-05
3.85083e-05
0.00410313
-4.0527e-05
3.78554e-05
0.00410579
-3.98847e-05
3.72212e-05
0.00410844
-3.92488e-05
3.65987e-05
0.00411108
-3.86345e-05
3.59996e-05
0.00411369
-3.80257e-05
3.54099e-05
0.00411629
-3.74326e-05
3.48385e-05
0.00411886
-3.68374e-05
3.42686e-05
0.0041214
-3.62559e-05
3.37148e-05
0.00412391
-3.56719e-05
3.31606e-05
0.00412639
-3.51039e-05
3.26234e-05
0.00412884
-3.45347e-05
3.20868e-05
0.00413125
-3.39823e-05
3.15673e-05
0.00413363
-3.34289e-05
3.10487e-05
0.00413598
-3.28943e-05
3.05489e-05
0.00413829
-3.23628e-05
3.00533e-05
0.00414056
-3.18589e-05
2.95845e-05
0.0041428
-3.13635e-05
2.91243e-05
0.00414501
-3.09196e-05
2.87133e-05
0.00414718
-3.04845e-05
2.83109e-05
0.00414933
-3.01957e-05
2.80477e-05
0.00415145
-2.98774e-05
2.77543e-05
0.00415358
-3.00394e-05
2.79134e-05
0.00415568
-2.99106e-05
2.78109e-05
0.00415787
-3.1214e-05
2.90192e-05
-3.11762e-05
2.92144e-05
0.00647836
7.86562e-05
0.00651174
4.92388e-05
0.00650174
-0.000158607
0.0064363
-0.00047583
0.00632498
-0.000796698
0.00617908
-0.00105782
0.00601661
-0.00121681
0.00585465
-0.00126534
0.00570348
-0.00122362
0.00556868
-0.00112028
0.00545265
-0.000986811
0.00535439
-0.000847221
0.00527092
-0.000715462
0.00519901
-0.000598555
0.00513573
-0.000500841
0.00507827
-0.000421064
0.00502393
-0.000355324
0.004971
-0.000301516
0.00491904
-0.000259386
0.00486804
-0.000227174
0.00481804
-0.000201369
0.00476953
-0.000180012
0.00472309
-0.000163077
0.00467929
-0.000150542
0.00463831
-0.000141001
0.00460006
-0.000132772
0.00456463
-0.000125604
0.00453224
-0.000119755
0.00450284
-0.000115175
0.0044762
-0.000111305
0.00445197
-0.000107575
0.0044299
-0.000103884
0.00440985
-0.000100359
0.00439175
-9.70694e-05
0.00437542
-9.41125e-05
0.00436067
-9.14335e-05
0.00434733
-8.88909e-05
0.00433528
-8.64105e-05
0.00432441
-8.40224e-05
0.00431462
-8.18017e-05
0.00430577
-7.97667e-05
0.0042977
-7.7829e-05
0.00429032
-7.59563e-05
0.00428358
-7.40924e-05
0.00427745
-7.22233e-05
0.0042719
-7.04264e-05
0.00426689
-6.88066e-05
0.0042624
-6.73346e-05
0.00425838
-6.5929e-05
0.0042548
-6.45372e-05
0.00425163
-6.31525e-05
0.00424883
-6.18207e-05
0.00424638
-6.06013e-05
0.00424426
-5.94711e-05
0.00424244
-5.83949e-05
0.00424091
-5.73287e-05
0.0042396
-5.62404e-05
0.00423849
-5.51542e-05
0.00423757
-5.41287e-05
0.00423684
-5.31794e-05
0.00423629
-5.22853e-05
0.00423591
-5.14086e-05
0.00423568
-5.0553e-05
0.00423559
-4.97011e-05
0.00423562
-4.88864e-05
0.00423575
-4.80972e-05
0.00423599
-4.73506e-05
0.00423632
-4.66236e-05
0.00423674
-4.59145e-05
0.00423723
-4.52053e-05
0.00423778
-4.45122e-05
0.00423838
-4.38317e-05
0.00423903
-4.31768e-05
0.00423972
-4.25336e-05
0.00424044
-4.19035e-05
0.00424118
-4.12693e-05
0.00424194
-4.06441e-05
0.00424271
-4.00198e-05
0.00424349
-3.94131e-05
0.00424427
-3.88081e-05
0.00424506
-3.82156e-05
0.00424583
-3.76165e-05
0.00424661
-3.7029e-05
0.00424737
-3.64367e-05
0.00424813
-3.58596e-05
0.00424887
-3.52797e-05
0.00424961
-3.4716e-05
0.00425033
-3.41498e-05
0.00425104
-3.36023e-05
0.00425173
-3.30571e-05
0.00425241
-3.25396e-05
0.00425308
-3.20304e-05
0.00425373
-3.15736e-05
0.00425437
-3.11257e-05
0.004255
-3.08252e-05
0.00425563
-3.05007e-05
0.00425624
-3.06509e-05
0.00425686
-3.05287e-05
0.00425752
-3.18828e-05
-3.17339e-05
0.00647001
4.96757e-05
0.00650349
1.57558e-05
0.00650081
-0.000155926
0.00644848
-0.0004235
0.00634924
-0.000697457
0.00621162
-0.000920195
0.00605284
-0.00105804
0.0058907
-0.0011032
0.00573785
-0.00107078
0.00560287
-0.000985287
0.00548893
-0.000872877
0.00539521
-0.000753496
0.00531889
-0.000639144
0.00525747
-0.00053714
0.00520835
-0.000451719
0.00516851
-0.000381224
0.00513513
-0.00032194
0.00510657
-0.000272955
0.00508195
-0.000234768
0.0050599
-0.000205126
0.00503873
-0.000180201
0.00501733
-0.000158613
0.00499531
-0.000141048
0.00497253
-0.00012777
0.00494877
-0.000117233
0.00492369
-0.000107698
0.00489714
-9.90494e-05
0.00486937
-9.19888e-05
0.00484089
-8.66907e-05
0.00481218
-8.25945e-05
0.0047837
-7.90951e-05
0.0047557
-7.58902e-05
0.00472858
-7.32357e-05
0.00470287
-7.13626e-05
0.00467878
-7.00213e-05
0.00465629
-6.89457e-05
0.00463534
-6.79345e-05
0.00461584
-6.69122e-05
0.00459774
-6.59223e-05
0.00458098
-6.50407e-05
0.00456546
-6.42467e-05
0.00455105
-6.3422e-05
0.00453764
-6.25499e-05
0.00452517
-6.1618e-05
0.00451358
-6.0636e-05
0.00450286
-5.97027e-05
0.00449295
-5.88931e-05
0.00448378
-5.81674e-05
0.00447528
-5.74265e-05
0.00446735
-5.66105e-05
0.00445996
-5.57612e-05
0.00445309
-5.49557e-05
0.00444673
-5.42352e-05
0.00444082
-5.35659e-05
0.00443536
-5.29294e-05
0.0044303
-5.22765e-05
0.00442563
-5.15683e-05
0.00442131
-5.08349e-05
0.00441733
-5.01436e-05
0.00441366
-4.95079e-05
0.00441028
-4.89072e-05
0.00440717
-4.82969e-05
0.00440427
-4.76517e-05
0.00440155
-4.69813e-05
0.00439899
-4.63329e-05
0.0043966
-4.57032e-05
0.00439435
-4.51069e-05
0.00439224
-4.45136e-05
0.00439025
-4.39237e-05
0.00438836
-4.3315e-05
0.00438656
-4.27107e-05
0.00438484
-4.21063e-05
0.00438318
-4.15196e-05
0.00438158
-4.09348e-05
0.00438003
-4.03552e-05
0.00437853
-3.97629e-05
0.00437706
-3.91739e-05
0.00437562
-3.85803e-05
0.0043742
-3.80011e-05
0.00437281
-3.74193e-05
0.00437145
-3.68488e-05
0.0043701
-3.62689e-05
0.00436877
-3.56994e-05
0.00436746
-3.51237e-05
0.00436616
-3.4563e-05
0.00436488
-3.39988e-05
0.00436362
-3.34506e-05
0.00436236
-3.28994e-05
0.00436113
-3.23669e-05
0.00435991
-3.18365e-05
0.0043587
-3.13336e-05
0.00435751
-3.08397e-05
0.00435633
-3.03961e-05
0.00435517
-2.99637e-05
0.00435402
-2.96739e-05
0.00435289
-2.93653e-05
0.00435176
-2.95207e-05
0.00435065
-2.94238e-05
0.0043495
-3.07293e-05
-3.06856e-05
0.0064645
2.71009e-05
0.00648861
-8.3557e-06
0.00648172
-0.000149035
0.00642849
-0.000370269
0.00633104
-0.000600008
0.00619798
-0.000787142
0.00604461
-0.000904671
0.00588735
-0.000945931
0.00573859
-0.000922021
0.00560639
-0.000853089
0.00549381
-0.000760299
0.00540007
-0.00065975
0.00532313
-0.000562205
0.00526128
-0.000475289
0.00521193
-0.000402367
0.00517171
-0.000341008
0.00513829
-0.000288522
0.00511115
-0.000245817
0.00508975
-0.000213363
0.0050722
-0.000187581
0.00505662
-0.000164614
0.00504277
-0.000144764
0.00503149
-0.000129767
0.00502243
-0.000118711
0.00501408
-0.000108887
0.00500562
-9.92406e-05
0.0049973
-9.07293e-05
0.00498933
-8.40145e-05
0.00498135
-7.87168e-05
0.00497294
-7.41796e-05
0.00496364
-6.9799e-05
0.00495313
-6.53735e-05
0.00494132
-6.14255e-05
0.00492835
-5.83924e-05
0.00491438
-5.60596e-05
0.00489948
-5.40456e-05
0.00488367
-5.21224e-05
0.00486704
-5.02791e-05
0.00484979
-4.86769e-05
0.00483222
-4.74681e-05
0.00481468
-4.67076e-05
0.00479748
-4.6224e-05
0.00478072
-4.57877e-05
0.00476446
-4.53575e-05
0.00474884
-4.50197e-05
0.004734
-4.48587e-05
0.00471996
-4.48528e-05
0.00470667
-4.48798e-05
0.00469408
-4.48319e-05
0.00468215
-4.4681e-05
0.00467087
-4.44779e-05
0.0046602
-4.42923e-05
0.0046501
-4.41335e-05
0.00464052
-4.39812e-05
0.00463141
-4.38196e-05
0.00462274
-4.36116e-05
0.00461453
-4.3359e-05
0.00460678
-4.30803e-05
0.00459944
-4.28107e-05
0.00459249
-4.25581e-05
0.00458589
-4.23035e-05
0.00457961
-4.20158e-05
0.00457362
-4.16642e-05
0.0045679
-4.12588e-05
0.00456241
-4.08411e-05
0.00455712
-4.04197e-05
0.00455202
-4.00025e-05
0.00454707
-3.95661e-05
0.00454226
-3.91118e-05
0.00453756
-3.86175e-05
0.00453297
-3.81142e-05
0.00452846
-3.75986e-05
0.00452403
-3.70932e-05
0.00451968
-3.65811e-05
0.00451539
-3.60689e-05
0.00451117
-3.55377e-05
0.004507
-3.50087e-05
0.00450289
-3.44727e-05
0.00449884
-3.39493e-05
0.00449485
-3.34243e-05
0.00449091
-3.29088e-05
0.00448702
-3.23843e-05
0.00448319
-3.18686e-05
0.00447942
-3.13474e-05
0.00447569
-3.08411e-05
0.00447203
-3.03318e-05
0.00446841
-2.98388e-05
0.00446486
-2.93428e-05
0.00446136
-2.8866e-05
0.00445791
-2.83912e-05
0.00445452
-2.79438e-05
0.00445119
-2.75062e-05
0.00444791
-2.71152e-05
0.00444468
-2.67388e-05
0.0044415
-2.64914e-05
0.00443838
-2.62402e-05
0.00443525
-2.63966e-05
0.00443222
-2.63882e-05
0.00442904
-2.75545e-05
-2.78751e-05
0.00645963
9.85241e-06
0.00647551
-2.42333e-05
0.00646423
-0.000137754
0.00641073
-0.000316772
0.00631603
-0.000505313
0.00618842
-0.000659532
0.00604149
-0.00075774
0.00588977
-0.000794208
0.00574495
-0.000777199
0.00561504
-0.000723183
0.00550318
-0.000648436
0.00540902
-0.000565588
0.00533152
-0.000484704
0.00526928
-0.000413055
0.00521905
-0.000352129
0.00517731
-0.000299276
0.00514295
-0.00025416
0.00511596
-0.000218825
0.00509453
-0.000191933
0.00507581
-0.000168858
0.00505902
-0.000147826
0.00504539
-0.00013114
0.00503507
-0.000119444
0.00502628
-0.000109923
0.00501771
-0.000100309
0.00500975
-9.12882e-05
0.00500333
-8.43054e-05
0.00499851
-7.91923e-05
0.0049945
-7.47102e-05
0.00499046
-7.01414e-05
0.00498626
-6.55978e-05
0.00498252
-6.16285e-05
0.00497958
-5.8491e-05
0.00497709
-5.58978e-05
0.00497457
-5.35453e-05
0.00497171
-5.11862e-05
0.00496839
-4.8801e-05
0.0049647
-4.65908e-05
0.00496073
-4.47062e-05
0.00495642
-4.31538e-05
0.00495158
-4.18666e-05
0.004946
-4.06425e-05
0.00493954
-3.93343e-05
0.00493221
-3.80224e-05
0.00492408
-3.68868e-05
0.00491526
-3.6048e-05
0.00490587
-3.54586e-05
0.00489594
-3.49476e-05
0.00488551
-3.4404e-05
0.00487468
-3.38554e-05
0.0048636
-3.33906e-05
0.00485238
-3.30792e-05
0.00484117
-3.29172e-05
0.00483004
-3.28488e-05
0.00481899
-3.27722e-05
0.00480804
-3.26671e-05
0.00479725
-3.25668e-05
0.00478667
-3.24961e-05
0.0047763
-3.24475e-05
0.00476615
-3.24051e-05
0.00475619
-3.23455e-05
0.00474643
-3.22578e-05
0.00473691
-3.21384e-05
0.00472762
-3.19716e-05
0.00471854
-3.17622e-05
0.00470965
-3.15275e-05
0.00470092
-3.12749e-05
0.00469236
-3.09996e-05
0.00468394
-3.06948e-05
0.00467566
-3.03418e-05
0.00466752
-2.9973e-05
0.00465951
-2.95858e-05
0.00465162
-2.92035e-05
0.00464385
-2.88118e-05
0.0046362
-2.84172e-05
0.00462866
-2.80026e-05
0.00462125
-2.75905e-05
0.00461394
-2.71695e-05
0.00460676
-2.67615e-05
0.00459968
-2.63505e-05
0.00459272
-2.59489e-05
0.00458587
-2.55376e-05
0.00457914
-2.51352e-05
0.00457252
-2.47302e-05
0.00456602
-2.43388e-05
0.00455964
-2.39472e-05
0.00455337
-2.35703e-05
0.00454722
-2.31929e-05
0.00454119
-2.28333e-05
0.00453527
-2.24772e-05
0.00452947
-2.21464e-05
0.00452379
-2.18266e-05
0.00451823
-2.15464e-05
0.00451277
-2.12861e-05
0.00450741
-2.11287e-05
0.00450217
-2.0995e-05
0.00449693
-2.11596e-05
0.00449186
-2.13204e-05
0.00448653
-2.22254e-05
-2.3247e-05
0.00645566
-3.30157e-06
0.00646519
-3.37649e-05
0.00645042
-0.000122979
0.00639697
-0.000263323
0.00630461
-0.000412951
0.00618117
-0.000536091
0.00603902
-0.000615592
0.00589151
-0.000646697
0.00574995
-0.000635646
0.00562202
-0.000595247
0.00551064
-0.000537062
0.00541627
-0.000471219
0.00533865
-0.000407085
0.00527578
-0.000350179
0.0052239
-0.00030025
0.00518061
-0.000255988
0.00514591
-0.000219462
0.0051189
-0.000191809
0.00509613
-0.000169163
0.0050755
-0.000148233
0.00505835
-0.000130677
0.00504554
-0.000118326
0.00503505
-0.000108959
0.0050248
-9.96694e-05
0.00501508
-9.0586e-05
0.00500723
-8.34432e-05
0.00500137
-7.84449e-05
0.00499644
-7.42638e-05
0.00499147
-6.97364e-05
0.00498641
-6.50805e-05
0.00498204
-6.12306e-05
0.00497878
-5.83658e-05
0.00497621
-5.59253e-05
0.00497379
-5.34717e-05
0.00497116
-5.09147e-05
0.00496852
-4.85491e-05
0.00496635
-4.66311e-05
0.0049647
-4.49411e-05
0.00496329
-4.32967e-05
0.00496186
-4.17223e-05
0.00496025
-4.02623e-05
0.00495856
-3.89442e-05
0.00495694
-3.77164e-05
0.00495538
-3.64688e-05
0.00495377
-3.52768e-05
0.00495198
-3.42524e-05
0.00494986
-3.3344e-05
0.00494735
-3.24334e-05
0.00494442
-3.14703e-05
0.00494107
-3.05049e-05
0.00493728
-2.96005e-05
0.00493298
-2.8784e-05
0.00492809
-2.80306e-05
0.00492254
-2.72988e-05
0.00491631
-2.65371e-05
0.00490941
-2.57674e-05
0.00490188
-2.50406e-05
0.00489377
-2.43837e-05
0.0048851
-2.37727e-05
0.00487588
-2.31886e-05
0.00486616
-2.26236e-05
0.00485599
-2.20892e-05
0.00484545
-2.15954e-05
0.00483461
-2.11358e-05
0.00482355
-2.07026e-05
0.00481232
-2.02996e-05
0.00480097
-1.99259e-05
0.00478955
-1.95788e-05
0.0047781
-1.92393e-05
0.00476667
-1.89174e-05
0.0047553
-1.86042e-05
0.00474403
-1.831e-05
0.00473285
-1.80294e-05
0.0047218
-1.7759e-05
0.00471089
-1.75031e-05
0.00470013
-1.72437e-05
0.00468953
-1.69955e-05
0.00467911
-1.67417e-05
0.00466885
-1.65087e-05
0.00465878
-1.62764e-05
0.00464889
-1.60601e-05
0.0046392
-1.58431e-05
0.00462969
-1.56349e-05
0.0046204
-1.54312e-05
0.00461129
-1.52379e-05
0.0046024
-1.50514e-05
0.0045937
-1.4875e-05
0.00458521
-1.47042e-05
0.00457693
-1.45441e-05
0.00456884
-1.43917e-05
0.00456095
-1.42554e-05
0.00455325
-1.41295e-05
0.00454574
-1.4031e-05
0.00453841
-1.39555e-05
0.00453122
-1.39428e-05
0.00452421
-1.39885e-05
0.00451723
-1.41737e-05
0.00451049
-1.45792e-05
0.00450335
-1.50867e-05
-1.71157e-05
0.00645273
-1.34585e-05
0.00645752
-3.85542e-05
0.00643989
-0.000105347
0.00638638
-0.000209818
0.00629583
-0.000322399
0.00617559
-0.000415849
0.00603717
-0.000477171
0.00589294
-0.000502473
0.00575372
-0.000496422
0.00562666
-0.000468181
0.00551474
-0.00042515
0.00541938
-0.000375855
0.00534071
-0.000328417
0.00527575
-0.00028522
0.00522106
-0.000245557
0.00517649
-0.00021142
0.00514162
-0.000184586
0.00511262
-0.000162811
0.00508665
-0.000143193
0.00506477
-0.000126355
0.00504784
-0.000113743
0.00503366
-0.000104152
0.00502004
-9.53316e-05
0.00500729
-8.69275e-05
0.00499671
-8.00006e-05
0.00498813
-7.48683e-05
0.00498031
-7.06196e-05
0.00497234
-6.62918e-05
0.0049645
-6.19012e-05
0.00495757
-5.81515e-05
0.0049516
-5.52641e-05
0.00494606
-5.28227e-05
0.00494044
-5.03054e-05
0.0049346
-4.76334e-05
0.00492887
-4.51859e-05
0.00492354
-4.32113e-05
0.00491845
-4.15444e-05
0.00491341
-3.98968e-05
0.00490824
-3.81301e-05
0.00490289
-3.63684e-05
0.00489745
-3.48267e-05
0.00489204
-3.35326e-05
0.00488663
-3.23125e-05
0.0048812
-3.10363e-05
0.00487568
-2.97545e-05
0.00487
-2.85719e-05
0.00486414
-2.74873e-05
0.00485816
-2.6447e-05
0.0048521
-2.54162e-05
0.00484601
-2.44146e-05
0.00483987
-2.34586e-05
0.00483363
-2.2549e-05
0.00482727
-2.1663e-05
0.00482076
-2.07892e-05
0.00481413
-1.99101e-05
0.00480742
-1.90541e-05
0.00480062
-1.82459e-05
0.00479372
-1.7482e-05
0.00478667
-1.67189e-05
0.00477943
-1.59481e-05
0.00477199
-1.51832e-05
0.00476435
-1.44534e-05
0.00475652
-1.37674e-05
0.0047485
-1.31137e-05
0.00474027
-1.24742e-05
0.00473182
-1.18528e-05
0.00472316
-1.12603e-05
0.00471429
-1.07079e-05
0.00470524
-1.01902e-05
0.00469603
-9.71246e-06
0.0046867
-9.27317e-06
0.00467726
-8.86877e-06
0.00466773
-8.50031e-06
0.00465814
-8.16558e-06
0.0046485
-7.86751e-06
0.00463886
-7.60352e-06
0.00462924
-7.3676e-06
0.00461966
-7.16208e-06
0.00461013
-6.98429e-06
0.00460069
-6.83747e-06
0.00459135
-6.71495e-06
0.00458212
-6.61653e-06
0.00457302
-6.53674e-06
0.00456407
-6.47707e-06
0.00455527
-6.43425e-06
0.00454662
-6.41001e-06
0.00453815
-6.3994e-06
0.00452985
-6.40213e-06
0.00452172
-6.41417e-06
0.00451376
-6.43753e-06
0.00450598
-6.47047e-06
0.00449836
-6.51269e-06
0.0044909
-6.57106e-06
0.0044836
-6.65289e-06
0.00447641
-6.75776e-06
0.00446938
-6.951e-06
0.00446232
-7.12116e-06
0.00445547
-7.72718e-06
0.00444816
-7.77479e-06
-1.07114e-05
0.0064508
-2.14626e-05
0.00645216
-3.99198e-05
0.00643219
-8.53722e-05
0.00637824
-0.000155876
0.00628837
-0.000232521
0.0061693
-0.000296783
0.00603182
-0.000339693
0.00588772
-0.000358367
0.00574741
-0.000356112
0.00561743
-0.000338203
0.00550206
-0.000309782
0.00540364
-0.000277432
0.00532021
-0.000244993
0.00524903
-0.000214035
0.0051897
-0.000186227
0.00514115
-0.000162874
0.00509986
-0.000143297
0.00506339
-0.000126336
0.00503195
-0.000111757
0.00500544
-9.98456e-05
0.00498185
-9.01485e-05
0.00495967
-8.1975e-05
0.00493915
-7.48141e-05
0.0049208
-6.85739e-05
0.00490408
-6.3277e-05
0.00488799
-5.87786e-05
0.00487219
-5.48191e-05
0.00485702
-5.11256e-05
0.00484275
-4.76272e-05
0.00482909
-4.44955e-05
0.00481562
-4.17979e-05
0.0048022
-3.94006e-05
0.00478898
-3.70798e-05
0.00477612
-3.47739e-05
0.00476358
-3.26484e-05
0.00475118
-3.08115e-05
0.00473881
-2.91719e-05
0.00472651
-2.75941e-05
0.00471438
-2.60065e-05
0.00470248
-2.44694e-05
0.00469075
-2.30935e-05
0.00467911
-2.18978e-05
0.00466758
-2.07829e-05
0.00465621
-1.96658e-05
0.00464503
-1.85676e-05
0.00463401
-1.75572e-05
0.00462316
-1.66394e-05
0.0046125
-1.57809e-05
0.00460203
-1.49504e-05
0.00459177
-1.41555e-05
0.00458172
-1.34066e-05
0.00457188
-1.27035e-05
0.00456225
-1.2033e-05
0.00455285
-1.1389e-05
0.0045437
-1.07619e-05
0.00453481
-1.01624e-05
0.00452616
-9.60274e-06
0.00451776
-9.07783e-06
0.0045096
-8.56336e-06
0.00450171
-8.05176e-06
0.00449408
-7.55111e-06
0.0044867
-7.08068e-06
0.00447958
-6.64126e-06
0.00447269
-6.22347e-06
0.00446602
-5.81134e-06
0.00445958
-5.40993e-06
0.00445334
-5.02381e-06
0.0044473
-4.66435e-06
0.00444143
-4.32246e-06
0.00443572
-4.00193e-06
0.00443016
-3.70724e-06
0.00442472
-3.43079e-06
0.00441939
-3.17366e-06
0.00441417
-2.93945e-06
0.00440902
-2.72537e-06
0.00440396
-2.5377e-06
0.00439896
-2.36566e-06
0.00439401
-2.21521e-06
0.00438911
-2.0825e-06
0.00438424
-1.97112e-06
0.0043794
-1.87822e-06
0.00437459
-1.80028e-06
0.00436979
-1.73872e-06
0.004365
-1.68954e-06
0.00436022
-1.6559e-06
0.00435545
-1.63577e-06
0.00435068
-1.6296e-06
0.00434591
-1.6341e-06
0.00434115
-1.64983e-06
0.00433639
-1.67606e-06
0.00433163
-1.71342e-06
0.00432688
-1.76293e-06
0.00432213
-1.82456e-06
0.00431739
-1.91336e-06
0.00431263
-1.99992e-06
0.00430788
-2.19233e-06
0.00430301
-2.25818e-06
0.00429815
-2.86563e-06
0.00429293
-2.55747e-06
-5.63623e-06
0.00644653
-2.70128e-05
0.00644397
-3.73617e-05
0.00642001
-6.141e-05
0.00636214
-9.80092e-05
0.00626748
-0.000137856
0.00614212
-0.000171423
0.00599644
-0.000194016
0.00584214
-0.000204069
0.00568911
-0.000203078
0.0055447
-0.000193797
0.00541382
-0.000178907
0.00529758
-0.000161188
0.00519561
-0.000143025
0.00510747
-0.000125895
0.0050317
-0.00011045
0.00496566
-9.68408e-05
0.00490734
-8.49776e-05
0.00485578
-7.47697e-05
0.00481011
-6.60953e-05
0.00476895
-5.86813e-05
0.00473103
-5.22314e-05
0.00469607
-4.70136e-05
0.00466395
-4.26958e-05
0.00463431
-3.89296e-05
0.00460652
-3.5486e-05
0.00458015
-3.24124e-05
0.00455513
-2.97944e-05
0.00453147
-2.74719e-05
0.0045091
-2.52527e-05
0.00448776
-2.31532e-05
0.00446726
-2.12975e-05
0.00444754
-1.96839e-05
0.00442866
-1.81978e-05
0.00441063
-1.67494e-05
0.00439338
-1.53926e-05
0.00437676
-1.41972e-05
0.00436073
-1.31448e-05
0.00434531
-1.21732e-05
0.00433054
-1.12291e-05
0.00431639
-1.03227e-05
0.0043028
-9.50505e-06
0.0042897
-8.79731e-06
0.00427708
-8.15705e-06
0.00426495
-7.53633e-06
0.00425331
-6.93598e-06
0.00424215
-6.38964e-06
0.00423141
-5.90245e-06
0.00422108
-5.456e-06
0.00421117
-5.03376e-06
0.00420165
-4.63658e-06
0.00419251
-4.26962e-06
0.00418374
-3.93387e-06
0.00417533
-3.62203e-06
0.00416727
-3.33081e-06
0.00415957
-3.0547e-06
0.0041522
-2.79623e-06
0.00414516
-2.56079e-06
0.00413843
-2.34778e-06
0.00413201
-2.14529e-06
0.00412591
-1.94869e-06
0.00412011
-1.75887e-06
0.00411462
-1.58539e-06
0.00410941
-1.42708e-06
0.00410446
-1.28031e-06
0.00409979
-1.13509e-06
0.00409537
-9.9461e-07
0.0040912
-8.57678e-07
0.00408727
-7.31767e-07
0.00408356
-6.07958e-07
0.00408004
-4.839e-07
0.00407671
-3.8277e-07
0.00407356
-2.78901e-07
0.00407057
-1.79583e-07
0.00406772
-8.56485e-08
0.00406499
3.38807e-09
0.00406237
8.21114e-08
0.00405984
1.56312e-07
0.00405741
2.19741e-07
0.00405505
2.77175e-07
0.00405275
3.24337e-07
0.00405051
3.62476e-07
0.00404832
3.94599e-07
0.00404616
4.17708e-07
0.00404404
4.35304e-07
0.00404194
4.46585e-07
0.00403985
4.5118e-07
0.00403777
4.51095e-07
0.00403569
4.48006e-07
0.0040336
4.38639e-07
0.00403149
4.26513e-07
0.00402938
4.04588e-07
0.00402723
3.78532e-07
0.00402507
3.38564e-07
0.00402287
2.88245e-07
0.00402062
2.49399e-07
0.0040183
1.26054e-07
0.00401589
1.51095e-07
0.00401334
-3.11358e-07
0.00401062
1.60174e-07
-2.32766e-06
0.00625665
0.00621968
0.00615866
0.00606105
0.00592359
0.00575257
0.00555896
0.00535529
0.00515263
0.00495924
0.00478076
0.00461999
0.00447739
0.00435192
0.0042419
0.0041455
0.00406096
0.00398662
0.00392097
0.00386273
0.00381094
0.00376437
0.00372212
0.00368363
0.00364859
0.00361663
0.00358728
0.00356026
0.00353545
0.00351275
0.0034919
0.00347267
0.00345492
0.00343863
0.00342368
0.00340994
0.00339725
0.00338553
0.00337475
0.00336488
0.00335583
0.00334749
0.00333978
0.0033327
0.00332622
0.00332029
0.00331484
0.00330984
0.00330526
0.00330108
0.00329726
0.00329378
0.00329061
0.00328774
0.00328514
0.0032828
0.00328069
0.0032788
0.00327711
0.00327562
0.00327431
0.00327318
0.00327221
0.00327139
0.00327071
0.00327017
0.00326976
0.00326949
0.00326934
0.00326931
0.00326938
0.00326956
0.00326983
0.0032702
0.00327066
0.0032712
0.00327181
0.00327248
0.00327321
0.00327399
0.00327481
0.00327566
0.00327653
0.00327742
0.00327832
0.00327923
0.00328014
0.00328104
0.00328193
0.00328281
0.00328367
0.0032845
0.0032853
0.00328604
0.00328674
0.00328732
0.00328793
0.00328807
0.00328869
-0.000831931
0.000788343
-0.00121946
0.000387527
-0.00139906
0.000179604
-0.00140205
2.98388e-06
-0.00126096
-0.00014109
-0.000964944
-0.000296012
-0.000524487
-0.000440457
-0.000525013
-0.000754951
0.00166096
-0.00111808
0.000750658
-0.00122824
0.000289766
-0.00120009
-2.51743e-05
-0.00105429
-0.000286883
-0.00080876
-0.000541545
-0.000456447
-0.00079277
-0.000981964
-0.000156197
0.00225018
-0.000557935
0.0011524
-0.000717708
0.000449539
-0.000731037
-1.18448e-05
-0.000650844
-0.000367076
-0.000507295
-0.000685094
-0.000303369
-0.000996696
-0.00128582
0.00042966
0.00257866
9.69586e-05
0.0014851
-0.000111093
0.000657591
-0.000205853
8.29145e-05
-0.000222048
-0.000350881
-0.000187708
-0.000719434
-0.000121698
-0.00106271
-0.00140799
0.000870297
0.00276483
0.00061731
0.00173808
0.00039523
0.000879672
0.000239663
0.000238481
0.000137923
-0.000249141
7.01123e-05
-0.000651623
2.21294e-05
-0.00101472
-0.00138632
0.00119707
0.00287795
0.000996738
0.00193841
0.000781889
0.00109452
0.000592642
0.000427729
0.00042878
-8.52789e-05
0.000279859
-0.000502703
0.000137298
-0.000872161
-0.00124949
0.00139123
0.00294684
0.00123794
0.0020917
0.00104153
0.00129093
0.000835824
0.000633432
0.000631625
0.000118921
0.000426451
-0.000297529
0.000215937
-0.000661648
-0.00103402
0.00145067
0.0029926
0.00133259
0.00220978
0.00116185
0.00146168
0.000958552
0.00083673
0.00073754
0.000339932
0.00050367
-6.36598e-05
0.000257029
-0.000415006
-0.000777462
0.00141297
0.00302252
0.00131819
0.00230456
0.00116843
0.00161145
0.000977336
0.00102782
0.000758636
0.000558632
0.000520585
0.000174391
0.000266354
-0.000160775
-0.000511593
0.00130658
0.00303898
0.00123232
0.00237882
0.0011036
0.00174017
0.000929952
0.00120147
0.000724775
0.000763809
0.000497988
0.000401177
0.000254468
8.27452e-05
-0.000257621
0.00116646
0.00304296
0.00111059
0.0024347
0.00100148
0.00184927
0.000848329
0.00135463
0.000663771
0.000948368
0.000456942
0.000608005
0.000233404
0.000306284
-2.47249e-05
0.00101866
0.00303649
0.000978001
0.00247535
0.000885864
0.00194141
0.000752849
0.00148764
0.000590912
0.00111031
0.000407661
0.000791256
0.000209244
0.000504702
0.000184007
0.000878098
0.00302264
0.000849188
0.00250426
0.000772262
0.00201833
0.000657586
0.00160232
0.000516434
0.00125146
0.000355848
0.000951842
0.000181831
0.000678719
0.000365332
0.000752898
0.00300419
0.000732626
0.00252453
0.000668557
0.0020824
0.000570175
0.0017007
0.000447954
0.00137368
0.000308414
0.00109138
0.00015718
0.000829953
0.000522009
0.000646636
0.00298369
0.000631865
0.00253931
0.000578348
0.00213592
0.000494442
0.00178461
0.000388907
0.00147921
0.000267815
0.00121247
0.00013638
0.000961388
0.000657892
0.000558446
0.00296344
0.000546278
0.00255147
0.000501137
0.00218106
0.000430016
0.00185573
0.000339102
0.00157013
0.000233893
0.00131768
0.000119048
0.00107623
0.000776445
0.000485484
0.00294473
0.000474583
0.00256237
0.000435782
0.00221986
0.000374884
0.00191662
0.000296335
0.00164868
0.000204756
0.00140926
0.000103932
0.00117706
0.000879885
0.000425028
0.00292813
0.000414933
0.00257247
0.000380941
0.00225385
0.000327955
0.00196961
0.000259556
0.00171708
0.00017952
0.0014893
9.08817e-05
0.0012657
0.000970277
0.000375614
0.00291393
0.000365988
0.0025821
0.000335674
0.00228417
0.00028889
0.00201639
0.000228676
0.00177729
0.0001582
0.00155977
8.00933e-05
0.0013438
0.00104988
0.000335789
0.00290207