/*--------------------------------*- C++ -*----------------------------------*\
| =========                 |                                                 |
| \\      /  F ield         | OpenFOAM: The Open Source CFD Toolbox           |
|  \\    /   O peration     | Version:  v2012                                 |
|   \\  /    A nd           | Website:  www.openfoam.com                      |
|    \\/     M anipulation  |                                                 |
\*---------------------------------------------------------------------------*/
FoamFile
{
    version     2.0;
    format      ascii;
    class       surfaceScalarField;
    location    "0.238";
    object      phi.air;
}
// * * * * * * * * * * * * * * * * * * * * * * * * * * * * * * * * * * * * * //

dimensions      [0 3 -1 0 0 0 0];
oriented        oriented;


internalField   nonuniform List<scalar> 
10964
(
0.000657103
2.51302e-05
0.000628913
2.73488e-05
0.000601311
2.6758e-05
0.000575009
2.54561e-05
0.000551125
2.30365e-05
0.000530147
2.01282e-05
0.00051251
1.67856e-05
0.000497887
1.37704e-05
0.000485916
1.11175e-05
0.000476268
8.79341e-06
0.000468668
6.74511e-06
0.000462724
5.0885e-06
0.000458062
3.80683e-06
0.000454444
2.76181e-06
0.000451527
2.06193e-06
0.000449191
1.47971e-06
0.000447252
1.08271e-06
0.00044561
7.8608e-07
0.000444193
5.61422e-07
0.000442973
3.63781e-07
0.000441923
1.94375e-07
0.000441015
5.17723e-08
0.000440274
-1.14647e-07
0.000439663
-2.45178e-07
0.000439158
-3.50754e-07
0.000438742
-4.40237e-07
0.000438399
-5.12705e-07
0.000438106
-5.63073e-07
0.000437853
-6.02057e-07
0.000437611
-6.14281e-07
0.000437377
-6.21562e-07
0.000437144
-6.22542e-07
0.000436906
-6.17329e-07
0.000436671
-6.21033e-07
0.000436435
-6.19547e-07
0.000436206
-6.26398e-07
0.00043598
-6.29299e-07
0.000435762
-6.37358e-07
0.000435551
-6.44476e-07
0.000435348
-6.52972e-07
0.000435157
-6.64073e-07
0.000434975
-6.73729e-07
0.000434803
-6.83197e-07
0.000434646
-6.99142e-07
0.000434503
-7.12646e-07
0.000434379
-7.31092e-07
0.00043426
-7.36246e-07
0.000434155
-7.50449e-07
0.00043406
-7.60534e-07
0.000433974
-7.69996e-07
0.000433899
-7.80332e-07
0.000433826
-7.82795e-07
0.000433766
-7.9504e-07
0.000433711
-8.01107e-07
0.000433663
-8.07259e-07
0.000433629
-8.21042e-07
0.000433597
-8.23644e-07
0.000433577
-8.35565e-07
0.000433567
-8.45048e-07
0.000433567
-8.55562e-07
0.000433573
-8.61624e-07
0.000433586
-8.68421e-07
0.00043361
-8.79859e-07
0.00043364
-8.85247e-07
0.000433677
-8.92137e-07
0.000433726
-9.04296e-07
0.000433777
-9.0589e-07
0.00043384
-9.18418e-07
0.000433905
-9.21163e-07
0.00043398
-9.3005e-07
0.00043406
-9.34981e-07
0.000434148
-9.4308e-07
0.000434241
-9.49054e-07
0.000434344
-9.57732e-07
0.000434453
-9.63864e-07
0.000434571
-9.73949e-07
0.000434694
-9.77804e-07
0.000434822
-9.83365e-07
0.000434956
-9.88779e-07
0.000435093
-9.92586e-07
0.000435235
-9.97149e-07
0.000435379
-9.98997e-07
0.000435529
-1.00446e-06
0.000435676
-1.00293e-06
0.000435833
-1.01131e-06
0.000435984
-1.00644e-06
0.000436153
-1.02391e-06
0.000436305
-1.00699e-06
0.000436497
-1.04739e-06
0.000436653
-1.01071e-06
0.000436864
-1.06568e-06
0.000437016
-1.00674e-06
0.000437235
-1.07386e-06
0.000437357
-9.76907e-07
0.000437643
-1.14097e-06
0.000437748
-9.59319e-07
0.000438151
-1.25867e-06
0.000438864
-1.56698e-06
0.000437474
5.3366e-07
-1.10454e-05
0.000447667
0.000757086
2.43243e-05
0.000754879
2.95561e-05
0.000751207
3.04295e-05
0.000745928
3.07356e-05
0.000739366
2.95988e-05
0.000731831
2.76629e-05
0.000723583
2.50337e-05
0.000714951
2.24023e-05
0.000706315
1.97533e-05
0.000697786
1.7323e-05
0.000689589
1.49419e-05
0.000681852
1.28247e-05
0.000674604
1.10552e-05
0.00066798
9.38609e-06
0.000661914
8.12795e-06
0.000656448
6.94566e-06
0.000651549
5.98113e-06
0.000647154
5.18138e-06
0.000643282
4.43351e-06
0.000639867
3.7791e-06
0.000636907
3.15391e-06
0.000634311
2.64825e-06
0.000631999
2.19687e-06
0.00062994
1.81429e-06
0.000628078
1.5113e-06
0.000626422
1.21553e-06
0.000624893
1.01577e-06
0.000623479
8.5142e-07
0.000622156
7.2071e-07
0.000620924
6.18103e-07
0.00061978
5.22449e-07
0.000618717
4.39955e-07
0.000617736
3.64044e-07
0.000616829
2.861e-07
0.00061599
2.18774e-07
0.000615213
1.50688e-07
0.000614493
9.07918e-08
0.000613825
3.05265e-08
0.000613207
-2.57129e-08
0.000612633
-7.9148e-08
0.000612103
-1.34639e-07
0.000611612
-1.82765e-07
0.000611159
-2.30149e-07
0.000610742
-2.81578e-07
0.000610354
-3.25022e-07
0.000609994
-3.71038e-07
0.000609657
-3.99287e-07
0.000609345
-4.3789e-07
0.000609052
-4.67735e-07
0.000608781
-4.99204e-07
0.000608531
-5.30784e-07
0.000608298
-5.498e-07
0.000608087
-5.83625e-07
0.000607894
-6.07906e-07
0.000607718
-6.31539e-07
0.000607564
-6.66559e-07
0.000607424
-6.83707e-07
0.000607302
-7.14318e-07
0.000607197
-7.39323e-07
0.000607109
-7.67367e-07
0.000607036
-7.89078e-07
0.000606976
-8.0834e-07
0.000606932
-8.3625e-07
0.000606901
-8.54384e-07
0.000606885
-8.75703e-07
0.000606881
-9.00729e-07
0.000606886
-9.10652e-07
0.000606904
-9.36135e-07
0.000606933
-9.50407e-07
0.000606976
-9.73166e-07
0.000607029
-9.87686e-07
0.000607094
-1.00768e-06
0.000607167
-1.02214e-06
0.00060725
-1.04133e-06
0.000607343
-1.05646e-06
0.000607449
-1.07992e-06
0.000607565
-1.09352e-06
0.000607691
-1.11021e-06
0.000607827
-1.12415e-06
0.000607971
-1.1367e-06
0.000608118
-1.14472e-06
0.000608273
-1.1531e-06
0.000608427
-1.15914e-06
0.000608589
-1.16517e-06
0.00060875
-1.17212e-06
0.000608929
-1.18471e-06
0.000609101
-1.19672e-06
0.000609302
-1.20758e-06
0.000609485
-1.2307e-06
0.000609703
-1.22883e-06
0.000609889
-1.25176e-06
0.000610124
-1.24134e-06
0.000610298
-1.24763e-06
0.000610579
-1.25782e-06
0.000610725
-1.2871e-06
0.000611139
-1.37343e-06
0.000611262
-1.38165e-06
0.000611966
-2.27082e-06
0.00061219
3.09631e-07
-1.50038e-05
0.000616148
0.000840344
2.13133e-05
0.00084233
2.75707e-05
0.000844301
2.84582e-05
0.000845635
2.94014e-05
0.000846219
2.90143e-05
0.000845985
2.78971e-05
0.000845038
2.59809e-05
0.000843332
2.41086e-05
0.0008409
2.21848e-05
0.00083778
2.04432e-05
0.000834022
1.87002e-05
0.000829709
1.71371e-05
0.000824934
1.58302e-05
0.000819818
1.45029e-05
0.000814502
1.34431e-05
0.000809091
1.2357e-05
0.000803709
1.13636e-05
0.000798438
1.04517e-05
0.000793425
9.44652e-06
0.000788678
8.52662e-06
0.000784261
7.57098e-06
0.000780184
6.72489e-06
0.000776455
5.92578e-06
0.000773073
5.19674e-06
0.000769965
4.61926e-06
0.000767157
4.02276e-06
0.000764556
3.61693e-06
0.000762171
3.23719e-06
0.000759966
2.92544e-06
0.000757943
2.64138e-06
0.000756091
2.37391e-06
0.000754388
2.1431e-06
0.000752828
1.92349e-06
0.00075139
1.72435e-06
0.000750067
1.5423e-06
0.000748841
1.37625e-06
0.00074771
1.22148e-06
0.000746664
1.07713e-06
0.000745698
9.39687e-07
0.000744805
8.13993e-07
0.000743983
6.87914e-07
0.000743222
5.7813e-07
0.000742521
4.70646e-07
0.000741865
3.74286e-07
0.000741248
2.92617e-07
0.000740666
2.10282e-07
0.000740121
1.4551e-07
0.000739612
7.15449e-08
0.000739137
6.91889e-09
0.000738695
-5.65368e-08
0.000738286
-1.2176e-07
0.000737908
-1.71655e-07
0.000737558
-2.34092e-07
0.00073724
-2.90285e-07
0.00073695
-3.40774e-07
0.000736687
-4.04362e-07
0.00073645
-4.46674e-07
0.000736238
-5.02361e-07
0.000736049
-5.49619e-07
0.000735882
-6.00244e-07
0.000735737
-6.44193e-07
0.00073561
-6.81485e-07
0.000735503
-7.29592e-07
0.000735416
-7.6682e-07
0.000735345
-8.04921e-07
0.000735292
-8.48112e-07
0.000735253
-8.71687e-07
0.00073523
-9.12559e-07
0.000735226
-9.46657e-07
0.000735236
-9.8303e-07
0.00073526
-1.01198e-06
0.0007353
-1.04735e-06
0.000735351
-1.07341e-06
0.000735414
-1.1046e-06
0.000735489
-1.13091e-06
0.000735578
-1.16912e-06
0.000735681
-1.19653e-06
0.000735799
-1.22804e-06
0.000735929
-1.25385e-06
0.00073607
-1.2779e-06
0.000736216
-1.29065e-06
0.000736369
-1.30615e-06
0.000736523
-1.31319e-06
0.000736684
-1.3268e-06
0.000736846
-1.33417e-06
0.000737028
-1.3662e-06
0.000737207
-1.37612e-06
0.000737418
-1.41812e-06
0.000737614
-1.42651e-06
0.000737848
-1.46353e-06
0.000738053
-1.45672e-06
0.000738297
-1.48521e-06
0.000738503
-1.45369e-06
0.000738782
-1.5362e-06
0.000738986
-1.49169e-06
0.00073935
-1.73766e-06
0.000739582
-1.61356e-06
0.000740201
-2.88936e-06
0.000741354
-8.42974e-07
-1.5652e-05
0.000742002
0.000930297
1.8089e-05
0.000933072
2.47959e-05
0.000936225
2.53047e-05
0.000939323
2.63035e-05
0.000942124
2.62139e-05
0.000944665
2.53563e-05
0.000946789
2.38565e-05
0.000948511
2.23867e-05
0.000949827
2.08687e-05
0.000950707
1.95629e-05
0.000951161
1.82463e-05
0.000951127
1.71712e-05
0.00095072
1.62378e-05
0.000949884
1.53379e-05
0.000948629
1.46988e-05
0.000946922
1.4064e-05
0.000944789
1.3496e-05
0.000942218
1.30235e-05
0.000939238
1.24265e-05
0.000935894
1.187e-05
0.000932209
1.1256e-05
0.000928298
1.06362e-05
0.000924266
9.95808e-06
0.00092021
9.25251e-06
0.00091621
8.6186e-06
0.000912373
7.85989e-06
0.000908722
7.26871e-06
0.000905323
6.63529e-06
0.00090217
6.07839e-06
0.000899257
5.55499e-06
0.000896577
5.05416e-06
0.000894084
4.63608e-06
0.00089176
4.24688e-06
0.000889583
3.90155e-06
0.000887551
3.57424e-06
0.000885653
3.27417e-06
0.000883889
2.9857e-06
0.000882247
2.71879e-06
0.000880726
2.46062e-06
0.000879318
2.22212e-06
0.00087802
1.98607e-06
0.000876816
1.78251e-06
0.000875699
1.5872e-06
0.000874659
1.41403e-06
0.000873692
1.25995e-06
0.000872788
1.11388e-06
0.000871948
9.85905e-07
0.000871162
8.58007e-07
0.000870435
7.33829e-07
0.000869756
6.2208e-07
0.000869127
5.07181e-07
0.000868549
4.06451e-07
0.000868012
3.03404e-07
0.00086752
2.01039e-07
0.00086707
1.09373e-07
0.000866659
6.98949e-09
0.000866283
-7.07859e-08
0.00086594
-1.59976e-07
0.000865629
-2.38458e-07
0.000865347
-3.17545e-07
0.000865092
-3.89974e-07
0.000864863
-4.51742e-07
0.000864659
-5.26059e-07
0.000864481
-5.88325e-07
0.000864325
-6.49388e-07
0.000864193
-7.15839e-07
0.000864079
-7.57908e-07
0.000863986
-8.19436e-07
0.000863916
-8.76907e-07
0.000863868
-9.34956e-07
0.000863843
-9.86655e-07
0.000863834
-1.03872e-06
0.000863842
-1.08159e-06
0.000863863
-1.12513e-06
0.000863897
-1.16486e-06
0.000863945
-1.21761e-06
0.000864011
-1.26219e-06
0.000864094
-1.31107e-06
0.000864195
-1.35485e-06
0.00086431
-1.39299e-06
0.000864435
-1.4154e-06
0.000864566
-1.4371e-06
0.000864702
-1.44961e-06
0.000864842
-1.46652e-06
0.000864991
-1.48289e-06
0.000865152
-1.5279e-06
0.000865327
-1.55091e-06
0.00086552
-1.61088e-06
0.000865724
-1.63036e-06
0.000865939
-1.67906e-06
0.000866167
-1.68427e-06
0.000866397
-1.71538e-06
0.000866643
-1.69944e-06
0.000866886
-1.77903e-06
0.000867161
-1.76734e-06
0.000867438
-2.01416e-06
0.000867805
-1.98055e-06
0.000868264
-3.34857e-06
0.000869587
-2.16632e-06
-1.54396e-05
0.000869375
0.00102963
1.48941e-05
0.00103284
2.1584e-05
0.00103639
2.17488e-05
0.00104005
2.26461e-05
0.00104357
2.26936e-05
0.00104698
2.19487e-05
0.00105012
2.07126e-05
0.00105302
1.94897e-05
0.00105567
1.82202e-05
0.00105807
1.71581e-05
0.00106023
1.60865e-05
0.00106214
1.52616e-05
0.00106387
1.45066e-05
0.00106536
1.38498e-05
0.00106667
1.33908e-05
0.00106778
1.29543e-05
0.00106864
1.2632e-05
0.0010693
1.23652e-05
0.00106968
1.20434e-05
0.00106975
1.18031e-05
0.00106951
1.15013e-05
0.00106894
1.12035e-05
0.00106801
1.08899e-05
0.00106671
1.05542e-05
0.00106504
1.02876e-05
0.00106302
9.87975e-06
0.00106071
9.57091e-06
0.00105817
9.17897e-06
0.00105547
8.78162e-06
0.00105265
8.37285e-06
0.00104976
7.94578e-06
0.00104688
7.51456e-06
0.00104404
7.08299e-06
0.00104129
6.65327e-06
0.00103864
6.22704e-06
0.0010361
5.80948e-06
0.00103369
5.39527e-06
0.00103141
4.99797e-06
0.00102926
4.61364e-06
0.00102724
4.24024e-06
0.00102535
3.87686e-06
0.00102355
3.58614e-06
0.00102183
3.30268e-06
0.00102022
3.03171e-06
0.0010187
2.77214e-06
0.00101728
2.53398e-06
0.00101596
2.30611e-06
0.00101472
2.10232e-06
0.00101357
1.88245e-06
0.0010125
1.69152e-06
0.0010115
1.51179e-06
0.00101058
1.32737e-06
0.00100972
1.16132e-06
0.00100892
9.94226e-07
0.00100819
8.43875e-07
0.0010075
6.93585e-07
0.00100687
5.66478e-07
0.00100627
4.32743e-07
0.00100573
3.09395e-07
0.00100521
1.95544e-07
0.00100474
8.40543e-08
0.0010043
-1.79069e-08
0.0010039
-1.23642e-07
0.00100354
-2.24528e-07
0.00100321
-3.20286e-07
0.00100291
-4.17163e-07
0.00100264
-4.89764e-07
0.0010024
-5.78189e-07
0.00100219
-6.69702e-07
0.00100202
-7.57332e-07
0.00100187
-8.41143e-07
0.00100175
-9.19326e-07
0.00100165
-9.82731e-07
0.00100157
-1.04123e-06
0.0010015
-1.09695e-06
0.00100145
-1.17019e-06
0.00100144
-1.24663e-06
0.00100145
-1.31974e-06
0.00100148
-1.38788e-06
0.00100153
-1.44507e-06
0.0010016
-1.48724e-06
0.00100168
-1.51539e-06
0.00100177
-1.53948e-06
0.00100186
-1.55843e-06
0.00100197
-1.59238e-06
0.00100209
-1.6454e-06
0.00100224
-1.69594e-06
0.00100239
-1.76455e-06
0.00100257
-1.8153e-06
0.00100276
-1.8627e-06
0.00100298
-1.90206e-06
0.00100319
-1.92575e-06
0.00100343
-1.94011e-06
0.00100366
-2.00952e-06
0.00100392
-2.02911e-06
0.00100419
-2.28618e-06
0.00100455
-2.33501e-06
0.00100492
-3.7257e-06
0.0010061
-3.347e-06
-1.519e-05
0.00100585
0.00113955
1.17847e-05
0.00114322
1.79113e-05
0.0011471
1.7863e-05
0.00115114
1.86105e-05
0.0011551
1.87331e-05
0.00115896
1.8091e-05
0.00116259
1.70823e-05
0.001166
1.60782e-05
0.0011692
1.50231e-05
0.0011722
1.41579e-05
0.001175
1.32794e-05
0.00117764
1.26256e-05
0.00118015
1.19969e-05
0.00118252
1.1482e-05
0.00118478
1.11317e-05
0.00118694
1.07864e-05
0.001189
1.05734e-05
0.00119099
1.0374e-05
0.00119287
1.01721e-05
0.00119464
1.00261e-05
0.0011963
9.84517e-06
0.00119783
9.67168e-06
0.00119922
9.50161e-06
0.00120044
9.33037e-06
0.00120153
9.2049e-06
0.00120237
9.03238e-06
0.00120302
8.91921e-06
0.00120345
8.75453e-06
0.0012036
8.62959e-06
0.00120347
8.50046e-06
0.0012031
8.32016e-06
0.00120247
8.14353e-06
0.0012016
7.95765e-06
0.0012005
7.75187e-06
0.00119919
7.5338e-06
0.00119771
7.29335e-06
0.00119607
7.03552e-06
0.00119431
6.7565e-06
0.00119245
6.46941e-06
0.00119054
6.15468e-06
0.00118858
5.82988e-06
0.00118663
5.53967e-06
0.00118469
5.24204e-06
0.00118279
4.93655e-06
0.00118094
4.62124e-06
0.00117914
4.32893e-06
0.00117743
4.02078e-06
0.00117577
3.75683e-06
0.00117421
3.44723e-06
0.00117274
3.16119e-06
0.00117132
2.9311e-06
0.00117
2.65093e-06
0.00116875
2.41155e-06
0.00116754
2.19798e-06
0.00116639
1.99398e-06
0.00116529
1.79617e-06
0.00116424
1.61169e-06
0.00116325
1.42963e-06
0.00116232
1.23618e-06
0.00116144
1.07519e-06
0.0011606
9.20634e-07
0.00115983
7.54216e-07
0.0011591
6.03202e-07
0.00115844
4.43463e-07
0.00115782
2.9649e-07
0.00115724
1.60826e-07
0.00115672
3.73132e-08
0.00115622
-8.37828e-08
0.00115577
-2.21481e-07
0.00115536
-3.4817e-07
0.00115499
-4.69662e-07
0.00115466
-5.85504e-07
0.00115435
-6.76906e-07
0.00115407
-7.54858e-07
0.0011538
-8.32841e-07
0.00115356
-9.31262e-07
0.00115337
-1.04935e-06
0.00115321
-1.16269e-06
0.00115309
-1.26899e-06
0.001153
-1.35675e-06
0.00115294
-1.42662e-06
0.0011529
-1.47093e-06
0.00115287
-1.51077e-06
0.00115285
-1.54456e-06
0.00115286
-1.59789e-06
0.00115288
-1.66167e-06
0.00115293
-1.74899e-06
0.001153
-1.83153e-06
0.0011531
-1.91653e-06
0.00115321
-1.97595e-06
0.00115336
-2.04794e-06
0.00115351
-2.08324e-06
0.00115369
-2.11735e-06
0.00115388
-2.20111e-06
0.00115409
-2.23625e-06
0.00115433
-2.52319e-06
0.00115465
-2.65964e-06
0.00115499
-4.06142e-06
0.001156
-4.36297e-06
-1.48391e-05
0.00115565
0.0012613
8.72059e-06
0.00126542
1.37881e-05
0.00126966
1.36212e-05
0.00127408
1.41862e-05
0.00127848
1.43427e-05
0.00128274
1.38243e-05
0.00128678
1.30452e-05
0.00129059
1.22692e-05
0.00129417
1.1438e-05
0.00129756
1.07722e-05
0.00130075
1.00881e-05
0.00130379
9.58758e-06
0.00130669
9.09867e-06
0.00130947
8.69627e-06
0.00131217
8.43447e-06
0.00131479
8.162e-06
0.00131735
8.01257e-06
0.00131987
7.8618e-06
0.00132232
7.71846e-06
0.00132472
7.62522e-06
0.00132707
7.49946e-06
0.00132936
7.37932e-06
0.0013316
7.26097e-06
0.00133377
7.16121e-06
0.00133591
7.06594e-06
0.00133796
6.97595e-06
0.00133997
6.91815e-06
0.00134189
6.83181e-06
0.00134375
6.7694e-06
0.00134551
6.73757e-06
0.00134717
6.65629e-06
0.00134873
6.59007e-06
0.00135016
6.52842e-06
0.00135145
6.45814e-06
0.00135259
6.39058e-06
0.00135358
6.30839e-06
0.00135439
6.22796e-06
0.00135502
6.12464e-06
0.00135545
6.0343e-06
0.0013557
5.91265e-06
0.00135571
5.81781e-06
0.00135556
5.6856e-06
0.00135526
5.54666e-06
0.00135479
5.40218e-06
0.00135418
5.23735e-06
0.00135342
5.08058e-06
0.00135255
4.89565e-06
0.00135157
4.7338e-06
0.0013505
4.51687e-06
0.00134937
4.29124e-06
0.00134819
4.1183e-06
0.00134696
3.87366e-06
0.00134572
3.65338e-06
0.00134448
3.43824e-06
0.00134326
3.21685e-06
0.00134204
3.0185e-06
0.00134084
2.80654e-06
0.00133967
2.60303e-06
0.00133854
2.36786e-06
0.00133745
2.15778e-06
0.00133639
1.98341e-06
0.00133538
1.76154e-06
0.00133442
1.56695e-06
0.00133351
1.35475e-06
0.00133265
1.15482e-06
0.00133182
9.90491e-07
0.00133104
8.1456e-07
0.00133029
6.68076e-07
0.00132956
5.07536e-07
0.00132886
3.52626e-07
0.00132819
1.99054e-07
0.00132756
4.5399e-08
0.00132697
-8.15468e-08
0.0013264
-1.86799e-07
0.00132586
-2.94805e-07
0.00132535
-4.23541e-07
0.00132489
-5.82781e-07
0.00132447
-7.42229e-07
0.00132409
-8.94359e-07
0.00132376
-1.02628e-06
0.00132347
-1.13431e-06
0.00132321
-1.20941e-06
0.00132297
-1.27639e-06
0.00132276
-1.33094e-06
0.00132257
-1.4132e-06
0.00132242
-1.50512e-06
0.0013223
-1.62813e-06
0.00132221
-1.74703e-06
0.00132215
-1.85838e-06
0.00132213
-1.95503e-06
0.00132213
-2.04593e-06
0.00132216
-2.10955e-06
0.00132221
-2.16879e-06
0.00132228
-2.27519e-06
0.00132239
-2.34757e-06
0.00132252
-2.64682e-06
0.00132275
-2.88954e-06
0.00132297
-4.28177e-06
0.00132376
-5.15077e-06
-1.43324e-05
0.00132325
0.00139614
5.65777e-06
0.00140075
9.18372e-06
0.0014054
8.97298e-06
0.00141024
9.341e-06
0.0014151
9.47847e-06
0.00141982
9.11118e-06
0.00142428
8.58293e-06
0.0014285
8.05137e-06
0.00143247
7.46789e-06
0.00143623
7.0154e-06
0.00143977
6.54188e-06
0.00144316
6.20107e-06
0.00144639
5.86939e-06
0.0014495
5.58204e-06
0.00145253
5.40719e-06
0.00145548
5.2154e-06
0.00145837
5.11884e-06
0.00146121
5.01874e-06
0.00146401
4.92523e-06
0.00146676
4.87396e-06
0.00146946
4.79104e-06
0.00147213
4.71318e-06
0.00147476
4.63004e-06
0.00147735
4.57069e-06
0.00147992
4.50253e-06
0.00148245
4.44418e-06
0.00148495
4.41313e-06
0.00148743
4.35832e-06
0.00148988
4.31828e-06
0.0014923
4.31197e-06
0.00149469
4.26537e-06
0.00149705
4.22914e-06
0.00149938
4.20374e-06
0.00150167
4.17092e-06
0.00150391
4.14561e-06
0.00150611
4.11194e-06
0.00150826
4.07978e-06
0.00151034
4.04236e-06
0.00151237
4.00297e-06
0.00151432
3.96577e-06
0.00151619
3.94014e-06
0.00151797
3.90499e-06
0.00151966
3.85701e-06
0.00152126
3.8114e-06
0.00152273
3.76606e-06
0.00152409
3.71869e-06
0.00152532
3.66471e-06
0.00152644
3.61135e-06
0.0015274
3.55835e-06
0.00152822
3.47132e-06
0.00152892
3.42368e-06
0.00152945
3.3402e-06
0.00152984
3.26068e-06
0.0015301
3.17648e-06
0.00153024
3.08401e-06
0.00153026
2.99546e-06
0.00153017
2.89487e-06
0.00152999
2.78572e-06
0.0015297
2.65153e-06
0.00152934
2.51974e-06
0.0015289
2.42392e-06
0.0015284
2.26703e-06
0.00152784
2.12322e-06
0.00152723
1.95969e-06
0.0015266
1.79358e-06
0.00152592
1.66339e-06
0.00152524
1.50004e-06
0.00152455
1.35645e-06
0.00152386
1.19811e-06
0.00152317
1.04144e-06
0.00152248
8.86066e-07
0.00152181
7.22624e-07
0.00152115
5.78241e-07
0.00152051
4.53106e-07
0.00151989
3.21128e-07
0.0015193
1.65998e-07
0.00151873
-1.14238e-08
0.00151818
-1.94994e-07
0.00151766
-3.70174e-07
0.00151716
-5.28556e-07
0.00151669
-6.64731e-07
0.00151625
-7.70362e-07
0.00151584
-8.67012e-07
0.00151546
-9.50526e-07
0.00151511
-1.0611e-06
0.00151479
-1.18641e-06
0.0015145
-1.33941e-06
0.00151425
-1.49233e-06
0.00151401
-1.61978e-06
0.00151379
-1.73646e-06
0.00151358
-1.83721e-06
0.0015134
-1.92831e-06
0.00151324
-2.01191e-06
0.00151311
-2.1421e-06
0.00151302
-2.25617e-06
0.00151293
-2.562e-06
0.00151294
-2.89335e-06
0.00151292
-4.26374e-06
0.00151334
-5.56691e-06
-1.35467e-05
0.00151255
0.00154551
2.52712e-06
0.00155064
4.0529e-06
0.00155576
3.85719e-06
0.00156107
4.02946e-06
0.00156645
4.09356e-06
0.00157167
3.90019e-06
0.0015766
3.64869e-06
0.00158127
3.38378e-06
0.00158566
3.07149e-06
0.00158983
2.85354e-06
0.00159375
2.61387e-06
0.0015975
2.45008e-06
0.00160108
2.28965e-06
0.00160453
2.13236e-06
0.00160789
2.04919e-06
0.00161116
1.94933e-06
0.00161437
1.90697e-06
0.00161753
1.86302e-06
0.00162063
1.82092e-06
0.00162369
1.81138e-06
0.00162671
1.77662e-06
0.00162968
1.7389e-06
0.00163262
1.6918e-06
0.00163552
1.66602e-06
0.0016384
1.62844e-06
0.00164125
1.59566e-06
0.00164407
1.5856e-06
0.00164688
1.55266e-06
0.00164967
1.53159e-06
0.00165244
1.53871e-06
0.00165519
1.5147e-06
0.00165793
1.49449e-06
0.00166064
1.48729e-06
0.00166334
1.47138e-06
0.00166602
1.46545e-06
0.00166868
1.45149e-06
0.00167132
1.43907e-06
0.00167394
1.42607e-06
0.00167654
1.40394e-06
0.00167911
1.39605e-06
0.00168166
1.39071e-06
0.00168418
1.3853e-06
0.00168667
1.36612e-06
0.00168913
1.34849e-06
0.00169156
1.34088e-06
0.00169395
1.32003e-06
0.0016963
1.31611e-06
0.00169863
1.28767e-06
0.00170091
1.27783e-06
0.00170311
1.26874e-06
0.0017053
1.23421e-06
0.00170741
1.22461e-06
0.00170947
1.2048e-06
0.00171145
1.19285e-06
0.00171336
1.17623e-06
0.0017152
1.15504e-06
0.00171696
1.13659e-06
0.00171863
1.11206e-06
0.0017202
1.08171e-06
0.00172167
1.04926e-06
0.00172307
1.0281e-06
0.00172436
9.81759e-07
0.00172553
9.45385e-07
0.00172659
9.00191e-07
0.00172753
8.55901e-07
0.00172837
8.29074e-07
0.00172909
7.78436e-07
0.00172972
7.24406e-07
0.00173026
6.55264e-07
0.00173071
5.88697e-07
0.00173107
5.31228e-07
0.00173134
4.56142e-07
0.00173151
4.06876e-07
0.00173163
3.32435e-07
0.00173171
2.39859e-07
0.00173175
1.227e-07
0.00173173
7.0326e-09
0.00173165
-1.14871e-07
0.00173151
-2.21551e-07
0.00173129
-3.09094e-07
0.00173101
-3.85156e-07
0.00173069
-4.54914e-07
0.00173037
-5.45276e-07
0.00173006
-6.39932e-07
0.00172975
-7.57581e-07
0.00172945
-8.84789e-07
0.00172915
-1.03136e-06
0.00172882
-1.16762e-06
0.00172847
-1.26584e-06
0.00172808
-1.35342e-06
0.00172767
-1.4231e-06
0.00172723
-1.49291e-06
0.00172679
-1.5692e-06
0.00172635
-1.6994e-06
0.00172593
-1.83429e-06
0.0017255
-2.13694e-06
0.00172513
-2.52034e-06
0.0017247
-3.83326e-06
0.00172458
-5.45059e-06
-1.2288e-05
0.00172332
0.001711
-7.93889e-07
0.00171671
-1.65031e-06
0.00172236
-1.79148e-06
0.0017282
-1.81869e-06
0.00173416
-1.86717e-06
0.00173993
-1.86831e-06
0.00174539
-1.81113e-06
0.00175056
-1.78034e-06
0.00175543
-1.79988e-06
0.00176004
-1.7537e-06
0.00176439
-1.73645e-06
0.00176854
-1.70102e-06
0.0017725
-1.67675e-06
0.00177632
-1.68749e-06
0.00178004
-1.66789e-06
0.00178366
-1.6702e-06
0.00178721
-1.64801e-06
0.00179071
-1.63135e-06
0.00179415
-1.61793e-06
0.00179754
-1.57979e-06
0.00180088
-1.56225e-06
0.00180417
-1.55524e-06
0.00180743
-1.56313e-06
0.00181065
-1.55525e-06
0.00181383
-1.55754e-06
0.00181699
-1.56397e-06
0.00182013
-1.5526e-06
0.00182325
-1.56294e-06
0.00182635
-1.56585e-06
0.00182943
-1.54406e-06
0.00183249
-1.54695e-06
0.00183553
-1.55068e-06
0.00183857
-1.54345e-06
0.00184158
-1.54373e-06
0.00184458
-1.53114e-06
0.00184756
-1.53114e-06
0.00185052
-1.52558e-06
0.00185347
-1.51977e-06
0.0018564
-1.52891e-06
0.00185932
-1.5161e-06
0.00186221
-1.50806e-06
0.00186509
-1.49468e-06
0.00186796
-1.49646e-06
0.0018708
-1.49764e-06
0.00187363
-1.48628e-06
0.00187644
-1.49445e-06
0.00187924
-1.47637e-06
0.00188201
-1.48918e-06
0.00188477
-1.48331e-06
0.00188751
-1.46678e-06
0.00189023
-1.48906e-06
0.00189293
-1.47345e-06
0.00189561
-1.4751e-06
0.00189827
-1.46333e-06
0.0019009
-1.45389e-06
0.0019035
-1.45177e-06
0.00190608
-1.44206e-06
0.00190864
-1.44724e-06
0.00191116
-1.43682e-06
0.00191364
-1.43034e-06
0.00191611
-1.4399e-06
0.00191852
-1.43385e-06
0.0019209
-1.43068e-06
0.00192323
-1.43214e-06
0.00192551
-1.41873e-06
0.00192774
-1.40184e-06
0.00192991
-1.39447e-06
0.00193203
-1.39764e-06
0.00193408
-1.39603e-06
0.00193606
-1.39049e-06
0.00193798
-1.38627e-06
0.00193979
-1.35226e-06
0.00194152
-1.32409e-06
0.00194317
-1.31885e-06
0.00194474
-1.33173e-06
0.00194625
-1.38631e-06
0.00194765
-1.39353e-06
0.00194893
-1.39336e-06
0.00195007
-1.35966e-06
0.00195105
-1.28485e-06
0.00195187
-1.20936e-06
0.00195257
-1.15433e-06
0.00195315
-1.13111e-06
0.00195367
-1.15599e-06
0.0019541
-1.18804e-06
0.00195443
-1.21e-06
0.00195462
-1.22784e-06
0.00195465
-1.19465e-06
0.00195455
-1.16553e-06
0.00195432
-1.12703e-06
0.00195397
-1.0682e-06
0.00195349
-1.01566e-06
0.00195291
-9.85324e-07
0.00195222
-1.01536e-06
0.00195147
-1.08412e-06
0.00195065
-1.31258e-06
0.00194981
-1.67662e-06
0.00194882
-2.84424e-06
0.00194791
-4.54484e-06
-1.02428e-05
0.00194587
0.00171104
-4.14934e-06
0.00171675
-7.36575e-06
0.00172241
-7.44305e-06
0.00172826
-7.674e-06
0.00173422
-7.82926e-06
0.00173999
-7.63994e-06
0.00174545
-7.27157e-06
0.00175062
-6.94134e-06
0.00175549
-6.67575e-06
0.0017601
-6.35846e-06
0.00176445
-6.08812e-06
0.0017686
-5.8504e-06
0.00177256
-5.64408e-06
0.00177639
-5.50911e-06
0.0017801
-5.38229e-06
0.00178372
-5.29331e-06
0.00178728
-5.20175e-06
0.00179077
-5.12573e-06
0.00179421
-5.05894e-06
0.0017976
-4.96983e-06
0.00180094
-4.90225e-06
0.00180424
-4.84864e-06
0.00180749
-4.8179e-06
0.00181071
-4.77695e-06
0.0018139
-4.74412e-06
0.00181706
-4.72344e-06
0.0018202
-4.68914e-06
0.00182331
-4.68137e-06
0.00182641
-4.66262e-06
0.00182949
-4.62566e-06
0.00183256
-4.60984e-06
0.0018356
-4.59517e-06
0.00183863
-4.57447e-06
0.00184164
-4.55694e-06
0.00184464
-4.52755e-06
0.00184762
-4.51281e-06
0.00185058
-4.48728e-06
0.00185353
-4.46381e-06
0.00185646
-4.45865e-06
0.00185937
-4.42657e-06
0.00186226
-4.40094e-06
0.00186514
-4.36997e-06
0.00186799
-4.35437e-06
0.00187083
-4.33462e-06
0.00187365
-4.30928e-06
0.00187646
-4.29569e-06
0.00187924
-4.26208e-06
0.001882
-4.25276e-06
0.00188475
-4.22554e-06
0.00188747
-4.19395e-06
0.00189017
-4.18802e-06
0.00189285
-4.14638e-06
0.0018955
-4.13272e-06
0.00189813
-4.08715e-06
0.00190072
-4.05062e-06
0.0019033
-4.02445e-06
0.00190583
-3.97255e-06
0.00190833
-3.94938e-06
0.00191079
-3.90177e-06
0.00191322
-3.85325e-06
0.0019156
-3.82304e-06
0.00191793
-3.76178e-06
0.00192021
-3.71599e-06
0.00192243
-3.6509e-06
0.00192459
-3.57753e-06
0.0019267
-3.51187e-06
0.00192873
-3.42042e-06
0.00193069
-3.35669e-06
0.00193257
-3.27824e-06
0.00193436
-3.17935e-06
0.00193607
-3.09507e-06
0.00193768
-2.96667e-06
0.00193921
-2.85291e-06
0.00194064
-2.74936e-06
0.00194197
-2.66355e-06
0.00194319
-2.60113e-06
0.00194428
-2.49102e-06
0.00194525
-2.36421e-06
0.0019461
-2.20593e-06
0.00194683
-2.01602e-06
0.00194744
-1.82225e-06
0.00194794
-1.65131e-06
0.00194834
-1.52903e-06
0.00194864
-1.45489e-06
0.00194885
-1.39921e-06
0.00194895
-1.30974e-06
0.00194893
-1.20375e-06
0.00194881
-1.07462e-06
0.00194858
-9.40111e-07
0.00194825
-8.01559e-07
0.00194784
-6.50942e-07
0.00194733
-5.09283e-07
0.00194674
-3.94521e-07
0.00194606
-3.34017e-07
0.0019453
-3.24658e-07
0.00194445
-4.60871e-07
0.00194353
-7.62641e-07
0.00194245
-1.75608e-06
0.00194128
-3.37873e-06
-8.09561e-06
0.00193913
0.0015456
-7.3733e-06
0.00155077
-1.25269e-05
0.00155589
-1.25676e-05
0.00156122
-1.30039e-05
0.00156661
-1.322e-05
0.00157183
-1.28569e-05
0.00157676
-1.22047e-05
0.00158142
-1.16031e-05
0.00158583
-1.10825e-05
0.00158999
-1.05163e-05
0.00159392
-1.00189e-05
0.00159766
-9.59682e-06
0.00160125
-9.22709e-06
0.0016047
-8.96134e-06
0.00160805
-8.73609e-06
0.00161133
-8.56662e-06
0.00161454
-8.41176e-06
0.00161769
-8.28102e-06
0.0016208
-8.16795e-06
0.00162386
-8.03018e-06
0.00162688
-7.91744e-06
0.00162985
-7.82084e-06
0.00163279
-7.75474e-06
0.00163569
-7.68213e-06
0.00163856
-7.61775e-06
0.00164141
-7.56971e-06
0.00164423
-7.51118e-06
0.00164704
-7.48975e-06
0.00164982
-7.44453e-06
0.00165259
-7.39334e-06
0.00165534
-7.35655e-06
0.00165806
-7.32212e-06
0.00166078
-7.28509e-06
0.00166346
-7.24528e-06
0.00166613
-7.1979e-06
0.00166878
-7.1586e-06
0.0016714
-7.11092e-06
0.001674
-7.0619e-06
0.00167658
-7.03353e-06
0.00167912
-6.97075e-06
0.00168163
-6.91197e-06
0.00168412
-6.85614e-06
0.00168656
-6.7999e-06
0.00168897
-6.74214e-06
0.00169134
-6.68038e-06
0.00169366
-6.61641e-06
0.00169595
-6.54444e-06
0.00169816
-6.46902e-06
0.00170033
-6.39457e-06
0.00170243
-6.29663e-06
0.00170446
-6.21583e-06
0.00170642
-6.10496e-06
0.00170829
-6.00211e-06
0.00171008
-5.88104e-06
0.00171177
-5.74239e-06
0.00171337
-5.61828e-06
0.00171487
-5.47266e-06
0.00171624
-5.32467e-06
0.00171752
-5.17602e-06
0.00171867
-5.00697e-06
0.0017197
-4.84681e-06
0.0017206
-4.6705e-06
0.00172138
-4.48825e-06
0.00172202
-4.29813e-06
0.00172256
-4.11418e-06
0.00172298
-3.93571e-06
0.00172332
-3.75379e-06
0.00172355
-3.5901e-06
0.00172369
-3.41358e-06
0.00172373
-3.22728e-06
0.0017237
-3.05872e-06
0.0017236
-2.86944e-06
0.00172344
-2.69349e-06
0.00172322
-2.53027e-06
0.00172295
-2.38854e-06
0.00172261
-2.26785e-06
0.00172224
-2.11269e-06
0.00172182
-1.94703e-06
0.00172137
-1.76146e-06
0.00172092
-1.55846e-06
0.00172045
-1.35939e-06
0.00171999
-1.19017e-06
0.00171953
-1.06875e-06
0.00171907
-9.88571e-07
0.00171859
-9.22187e-07
0.0017181
-8.23837e-07
0.00171761
-7.08717e-07
0.00171711
-5.78049e-07
0.00171662
-4.4592e-07
0.00171613
-3.13038e-07
0.00171565
-1.71828e-07
0.00171518
-3.78633e-08
0.00171471
7.06603e-08
0.00171424
1.37155e-07
0.00171376
1.53528e-07
0.00171325
4.90042e-08
0.00171271
-2.21392e-07
0.00171204
-1.0847e-06
0.00171124
-2.57411e-06
-6.52247e-06
0.00170966
0.00139628
-1.05769e-05
0.00140093
-1.71747e-05
0.0014056
-1.72321e-05
0.00141046
-1.78711e-05
0.00141534
-1.80972e-05
0.00142006
-1.75736e-05
0.00142451
-1.66603e-05
0.00142873
-1.58169e-05
0.00143271
-1.50627e-05
0.00143646
-1.42719e-05
0.00144001
-1.35678e-05
0.00144339
-1.29788e-05
0.00144663
-1.2461e-05
0.00144974
-1.20764e-05
0.00145277
-1.17617e-05
0.00145572
-1.15169e-05
0.00145861
-1.13054e-05
0.00146145
-1.11178e-05
0.00146424
-1.09641e-05
0.00146699
-1.07762e-05
0.00146969
-1.0618e-05
0.00147235
-1.04781e-05
0.00147497
-1.03755e-05
0.00147755
-1.02669e-05
0.0014801
-1.01679e-05
0.00148262
-1.00867e-05
0.00148511
-9.99629e-06
0.00148757
-9.95206e-06
0.00148999
-9.86792e-06
0.00149239