/*--------------------------------*- C++ -*----------------------------------*\
| =========                 |                                                 |
| \\      /  F ield         | OpenFOAM: The Open Source CFD Toolbox           |
|  \\    /   O peration     | Version:  v2012                                 |
|   \\  /    A nd           | Website:  www.openfoam.com                      |
|    \\/     M anipulation  |                                                 |
\*---------------------------------------------------------------------------*/
FoamFile
{
    version     2.0;
    format      ascii;
    class       volScalarField;
    location    "0.013";
    object      k.air;
}
// * * * * * * * * * * * * * * * * * * * * * * * * * * * * * * * * * * * * * //

dimensions      [0 2 -2 0 0 0 0];


internalField   nonuniform List<scalar> 
5600
(
0.604503
0.849189
0.954736
0.968661
0.940078
0.894921
0.85655
0.834335
0.824183
0.819759
0.818016
0.817516
0.817422
0.817402
0.817394
0.817394
0.817397
0.817397
0.817397
0.817397
0.817397
0.817397
0.817397
0.817397
0.817397
0.817398
0.817398
0.817398
0.817398
0.817398
0.817398
0.817398
0.817398
0.817398
0.817398
0.817398
0.817398
0.817398
0.817398
0.817398
0.817398
0.817398
0.817398
0.817398
0.817398
0.817398
0.817398
0.817398
0.817398
0.817398
0.817398
0.817398
0.817398
0.817398
0.817398
0.817398
0.817398
0.817398
0.817398
0.817398
0.817398
0.817398
0.817398
0.817398
0.817398
0.817398
0.817398
0.817398
0.817398
0.817398
0.817398
0.817398
0.817398
0.817398
0.817399
0.817399
0.817399
0.817399
0.817399
0.817399
0.817399
0.817399
0.817399
0.817399
0.817399
0.817399
0.817397
0.817405
0.817375
0.817484
0.817124
0.818242
0.815118
0.823277
0.804551
0.845112
0.767746
0.904296
0.695754
0.913585
0.372115
0.314036
0.290483
0.280431
0.276508
0.280004
0.284946
0.287568
0.288917
0.289981
0.290568
0.290904
0.291094
0.291184
0.291227
0.291246
0.291254
0.291257
0.291258
0.291259
0.291259
0.291259
0.291259
0.291259
0.291259
0.291259
0.291259
0.291259
0.291259
0.291259
0.291259
0.291259
0.291259
0.291259
0.291259
0.291259
0.291259
0.291259
0.291259
0.291259
0.291259
0.291259
0.291259
0.291259
0.291259
0.291259
0.291259
0.291259
0.291259
0.291259
0.291259
0.291259
0.291259
0.291259
0.291259
0.291259
0.291259
0.291259
0.291259
0.291259
0.291259
0.291259
0.291259
0.291259
0.291259
0.291259
0.291259
0.291259
0.291259
0.291259
0.291259
0.291259
0.291259
0.291259
0.291259
0.291259
0.291259
0.291259
0.291259
0.291259
0.291259
0.291259
0.291259
0.291258
0.291262
0.291247
0.291301
0.291121
0.291678
0.290083
0.294286
0.284185
0.306043
0.264185
0.333268
0.239179
0.335627
0.28215
0.236073
0.375486
0.369456
0.28101
0.228494
0.194024
0.169022
0.151791
0.139971
0.132252
0.127881
0.125752
0.12483
0.124485
0.124372
0.12434
0.124333
0.124332
0.124332
0.124333
0.124333
0.124333
0.124333
0.124333
0.124333
0.124333
0.124333
0.124333
0.124333
0.124333
0.124333
0.124333
0.124333
0.124333
0.124333
0.124333
0.124333
0.124333
0.124333
0.124333
0.124333
0.124333
0.124333
0.124333
0.124333
0.124333
0.124333
0.124333
0.124333
0.124333
0.124333
0.124333
0.124333
0.124333
0.124333
0.124333
0.124333
0.124333
0.124333
0.124333
0.124333
0.124333
0.124333
0.124333
0.124333
0.124333
0.124333
0.124333
0.124333
0.124333
0.124333
0.124333
0.124333
0.124333
0.124333
0.124333
0.124333
0.124333
0.124333
0.124333
0.124333
0.124333
0.124333
0.124333
0.124333
0.124333
0.124334
0.124331
0.124341
0.124307
0.124411
0.124113
0.124907
0.122961
0.127304
0.118577
0.134301
0.109383
0.144495
0.10016
0.150262
0.0951833
0.370187
0.280408
0.224484
0.186304
0.157984
0.136742
0.121699
0.11209
0.106656
0.103928
0.102703
0.102205
0.102021
0.101957
0.101937
0.101931
0.10193
0.101929
0.101929
0.101929
0.101929
0.101929
0.101929
0.101929
0.101929
0.101929
0.101929
0.101929
0.101929
0.101929
0.101929
0.101929
0.101929
0.101929
0.101929
0.101929
0.101929
0.101929
0.101929
0.101929
0.101929
0.101929
0.101929
0.101929
0.101929
0.101929
0.101929
0.101929
0.101929
0.101929
0.101929
0.101929
0.101929
0.101929
0.101929
0.101929
0.101929
0.101929
0.101929
0.101929
0.101929
0.101929
0.101929
0.101929
0.101929
0.101929
0.101929
0.101929
0.101929
0.101929
0.101929
0.101929
0.101929
0.101929
0.101929
0.101929
0.101929
0.101929
0.101929
0.101929
0.101929
0.101929
0.101929
0.101929
0.10193
0.101927
0.101936
0.101907
0.101995
0.101745
0.102397
0.100866
0.104044
0.098365
0.106735
0.0975889
0.102788
0.107765
0.0913362
0.109264
0.370283
0.280745
0.224661
0.186201
0.157716
0.136237
0.12094
0.111135
0.105569
0.102764
0.101497
0.100978
0.100784
0.100717
0.100695
0.100688
0.100686
0.100686
0.100686
0.100686
0.100686
0.100686
0.100686
0.100686
0.100686
0.100686
0.100686
0.100686
0.100686
0.100686
0.100686
0.100686
0.100686
0.100686
0.100686
0.100686
0.100686
0.100686
0.100686
0.100686
0.100686
0.100686
0.100686
0.100686
0.100686
0.100686
0.100686
0.100686
0.100686
0.100686
0.100686
0.100686
0.100686
0.100686
0.100686
0.100686
0.100686
0.100686
0.100686
0.100686
0.100686
0.100686
0.100686
0.100686
0.100686
0.100686
0.100686
0.100686
0.100686
0.100686
0.100686
0.100686
0.100686
0.100686
0.100686
0.100686
0.100686
0.100686
0.100686
0.100686
0.100686
0.100686
0.100686
0.100686
0.100685
0.100687
0.100681
0.100702
0.100639
0.10081
0.100384
0.101339
0.0994526
0.102637
0.098311
0.102464
0.101227
0.0969681
0.106107
0.0985447
0.370288
0.280815
0.224776
0.186355
0.157936
0.136518
0.121257
0.111466
0.105903
0.1031
0.101834
0.101316
0.101122
0.101055
0.101033
0.101027
0.101025
0.101024
0.101024
0.101024
0.101024
0.101024
0.101024
0.101024
0.101024
0.101024
0.101024
0.101024
0.101024
0.101024
0.101024
0.101024
0.101024
0.101024
0.101024
0.101024
0.101024
0.101024
0.101024
0.101024
0.101024
0.101024
0.101024
0.101024
0.101024
0.101024
0.101024
0.101024
0.101024
0.101024
0.101024
0.101024
0.101024
0.101024
0.101024
0.101024
0.101024
0.101024
0.101024
0.101024
0.101024
0.101024
0.101024
0.101024
0.101024
0.101024
0.101024
0.101024
0.101024
0.101024
0.101024
0.101024
0.101024
0.101024
0.101024
0.101024
0.101024
0.101024
0.101024
0.101024
0.101024
0.101024
0.101024
0.101024
0.101024
0.101024
0.101025
0.101019
0.101044
0.100956
0.101232
0.100474
0.102277
0.0986345
0.104665
0.0970689
0.103111
0.102655
0.0979902
0.0991645
0.370288
0.280817
0.224797
0.186401
0.158011
0.136621
0.121381
0.111606
0.106053
0.103255
0.101993
0.101477
0.101284
0.101217
0.101196
0.101189
0.101187
0.101187
0.101187
0.101187
0.101187
0.101187
0.101187
0.101187
0.101187
0.101187
0.101187
0.101187
0.101187
0.101187
0.101187
0.101187
0.101187
0.101187
0.101187
0.101187
0.101187
0.101187
0.101187
0.101187
0.101187
0.101187
0.101187
0.101187
0.101187
0.101187
0.101187
0.101187
0.101187
0.101187
0.101187
0.101187
0.101187
0.101187
0.101187
0.101187
0.101187
0.101187
0.101187
0.101187
0.101187
0.101187
0.101187
0.101187
0.101187
0.101187
0.101187
0.101187
0.101187
0.101187
0.101187
0.101187
0.101187
0.101187
0.101187
0.101187
0.101187
0.101187
0.101187
0.101187
0.101187
0.101187
0.101187
0.101187
0.101187
0.101188
0.101184
0.101194
0.101165
0.101246
0.101038
0.101522
0.100515
0.102334
0.0996604
0.102432
0.10159
0.0982451
0.10514
0.100849
0.370286
0.280806
0.224792
0.186407
0.158025
0.136641
0.121409
0.11164
0.106095
0.103302
0.102043
0.101529
0.101336
0.10127
0.101248
0.101242
0.10124
0.101239
0.101239
0.101239
0.101239
0.101239
0.101239
0.101239
0.101239
0.101239
0.101239
0.101239
0.101239
0.101239
0.101239
0.101239
0.101239
0.101239
0.101239
0.101239
0.101239
0.101239
0.101239
0.101239
0.101239
0.101239
0.101239
0.101239
0.101239
0.101239
0.101239
0.101239
0.101239
0.101239
0.101239
0.101239
0.101239
0.101239
0.101239
0.101239
0.101239
0.101239
0.101239
0.101239
0.101239
0.101239
0.101239
0.101239
0.101239
0.101239
0.101239
0.101239
0.101239
0.101239
0.101239
0.101239
0.101239
0.101239
0.101239
0.101239
0.101239
0.101239
0.101239
0.101239
0.101239
0.101239
0.101239
0.101239
0.101239
0.101239
0.101239
0.10124
0.101241
0.101229
0.101282
0.101104
0.101576
0.100586
0.102123
0.100838
0.0996433
0.10599
0.095664
0.101724
0.370285
0.280797
0.224784
0.186403
0.158023
0.136639
0.121409
0.111644
0.106103
0.103315
0.102058
0.101545
0.101353
0.101286
0.101265
0.101259
0.101257
0.101256
0.101256
0.101256
0.101256
0.101256
0.101256
0.101256
0.101256
0.101256
0.101256
0.101256
0.101256
0.101256
0.101256
0.101256
0.101256
0.101256
0.101256
0.101256
0.101256
0.101256
0.101256
0.101256
0.101256
0.101256
0.101256
0.101256
0.101256
0.101256
0.101256
0.101256
0.101256
0.101256
0.101256
0.101256
0.101256
0.101256
0.101256
0.101256
0.101256
0.101256
0.101256
0.101256
0.101256
0.101256
0.101256
0.101256
0.101256
0.101256
0.101256
0.101256
0.101256
0.101256
0.101256
0.101256
0.101256
0.101256
0.101256
0.101256
0.101256
0.101256
0.101256
0.101256
0.101256
0.101256
0.101256
0.101256
0.101256
0.101256
0.101256
0.101257
0.101254
0.10126
0.101254
0.101246
0.101313
0.101066
0.101771
0.100041
0.103718
0.0974089
0.104612
0.103621
0.370285
0.280792
0.22478
0.186401
0.158021
0.136636
0.121405
0.111641
0.106103
0.103317
0.102062
0.101549
0.101358
0.101291
0.10127
0.101263
0.101262
0.101261
0.101261
0.101261
0.101261
0.101261
0.101261
0.101261
0.101261
0.101261
0.101261
0.101261
0.101261
0.101261
0.101261
0.101261
0.101261
0.101261
0.101261
0.101261
0.101261
0.101261
0.101261
0.101261
0.101261
0.101261
0.101261
0.101261
0.101261
0.101261
0.101261
0.101261
0.101261
0.101261
0.101261
0.101261
0.101261
0.101261
0.101261
0.101261
0.101261
0.101261
0.101261
0.101261
0.101261
0.101261
0.101261
0.101261
0.101261
0.101261
0.101261
0.101261
0.101261
0.101261
0.101261
0.101261
0.101261
0.101261
0.101261
0.101261
0.101261
0.101261
0.101261
0.101261
0.101261
0.101261
0.101261
0.101261
0.101261
0.101261
0.101261
0.101261
0.101262
0.101257
0.101275
0.10122
0.101353
0.101102
0.101421
0.10137
0.100374
0.103212
0.0995748
0.0987568
0.370285
0.280793
0.224782
0.186403
0.158024
0.136639
0.121407
0.111643
0.106104
0.103317
0.102062
0.101549
0.101358
0.101291
0.10127
0.101264
0.101262
0.101261
0.101261
0.101261
0.101261
0.101261
0.101261
0.101261
0.101261
0.101261
0.101261
0.101261
0.101261
0.101261
0.101261
0.101261
0.101261
0.101261
0.101261
0.101261
0.101261
0.101261
0.101261
0.101261
0.101261
0.101261
0.101261
0.101261
0.101261
0.101261
0.101261
0.101261
0.101261
0.101261
0.101261
0.101261
0.101261
0.101261
0.101261
0.101261
0.101261
0.101261
0.101261
0.101261
0.101261
0.101261
0.101261
0.101261
0.101261
0.101261
0.101261
0.101261
0.101261
0.101261
0.101261
0.101261
0.101261
0.101261
0.101261
0.101261
0.101261
0.101261
0.101261
0.101261
0.101261
0.101261
0.101261
0.101261
0.101261
0.101261
0.101261
0.101261
0.101263
0.101255
0.101277
0.101219
0.101354
0.101087
0.101528
0.100942
0.101536
0.101124
0.101087
0.102557
0.370286
0.280801
0.224791
0.18641
0.158031
0.136647
0.121414
0.111648
0.106105
0.103316
0.102059
0.101545
0.101353
0.101287
0.101265
0.101259
0.101257
0.101257
0.101256
0.101256
0.101256
0.101256
0.101256
0.101256
0.101256
0.101256
0.101256
0.101256
0.101256
0.101256
0.101256
0.101256
0.101256
0.101256
0.101256
0.101256
0.101256
0.101256
0.101256
0.101256
0.101256
0.101256
0.101256
0.101256
0.101256
0.101256
0.101256
0.101256
0.101256
0.101256
0.101256
0.101256
0.101256
0.101256
0.101256
0.101256
0.101256
0.101256
0.101256
0.101256
0.101256
0.101256
0.101256
0.101256
0.101256
0.101256
0.101256
0.101256
0.101256
0.101256
0.101256
0.101256
0.101256
0.101256
0.101256
0.101256
0.101256
0.101256
0.101256
0.101256
0.101256
0.101256
0.101256
0.101256
0.101256
0.101256
0.101257
0.101256
0.101258
0.101251
0.101272
0.101219
0.101334
0.101125
0.101425
0.10114
0.101166
0.101619
0.100911
0.100822
0.370287
0.280814
0.224804
0.186419
0.158037
0.136652
0.121417
0.111646
0.106098
0.103304
0.102044
0.101529
0.101337
0.10127
0.101249
0.101242
0.10124
0.10124
0.10124
0.10124
0.10124
0.10124
0.10124
0.10124
0.10124
0.10124
0.10124
0.10124
0.10124
0.10124
0.10124
0.10124
0.10124
0.10124
0.10124
0.10124
0.10124
0.10124
0.10124
0.10124
0.10124
0.10124
0.10124
0.10124
0.10124
0.10124
0.10124
0.10124
0.10124
0.10124
0.10124
0.10124
0.10124
0.10124
0.10124
0.10124
0.10124
0.10124
0.10124
0.10124
0.10124
0.10124
0.10124
0.10124
0.10124
0.10124
0.10124
0.10124
0.10124
0.10124
0.10124
0.10124
0.10124
0.10124
0.10124
0.10124
0.10124
0.10124
0.10124
0.10124
0.10124
0.10124
0.10124
0.10124
0.10124
0.10124
0.10124
0.101239
0.101241
0.101234
0.101254
0.101207
0.101305
0.101132
0.10137
0.101162
0.101141
0.101553
0.100903
0.101205
0.370289
0.280828
0.224812
0.186417
0.158027
0.136635
0.121393
0.111613
0.106056
0.103257
0.101994
0.101477
0.101284
0.101217
0.101196
0.101189
0.101187
0.101187
0.101187
0.101187
0.101187
0.101187
0.101187
0.101187
0.101187
0.101187
0.101187
0.101187
0.101187
0.101187
0.101187
0.101187
0.101187
0.101187
0.101187
0.101187
0.101187
0.101187
0.101187
0.101187
0.101187
0.101187
0.101187
0.101187
0.101187
0.101187
0.101187
0.101187
0.101187
0.101187
0.101187
0.101187
0.101187
0.101187
0.101187
0.101187
0.101187
0.101187
0.101187
0.101187
0.101187
0.101187
0.101187
0.101187
0.101187
0.101187
0.101187
0.101187
0.101187
0.101187
0.101187
0.101187
0.101187
0.101187
0.101187
0.101187
0.101187
0.101187
0.101187
0.101187
0.101187
0.101187
0.101187
0.101187
0.101187
0.101187
0.101187
0.101186
0.101188
0.101182
0.101199
0.101159
0.101242
0.101099
0.101286
0.101147
0.101057
0.101504
0.100881
0.101025
0.370291
0.280829
0.224794
0.186374
0.157955
0.136535
0.121271
0.111475
0.105909
0.103103
0.101836
0.101318
0.101124
0.101056
0.101035
0.101028
0.101026
0.101026
0.101026
0.101026
0.101026
0.101026
0.101026
0.101026
0.101026
0.101026
0.101026
0.101026
0.101026
0.101026
0.101026
0.101026
0.101026
0.101026
0.101026
0.101026
0.101026
0.101026
0.101026
0.101026
0.101026
0.101026
0.101026
0.101026
0.101026
0.101026
0.101026
0.101026
0.101026
0.101026
0.101026
0.101026
0.101026
0.101026
0.101026
0.101026
0.101026
0.101026
0.101026
0.101026
0.101026
0.101026
0.101026
0.101026
0.101026
0.101026
0.101026
0.101026
0.101026
0.101026
0.101026
0.101026
0.101026
0.101026
0.101026
0.101026
0.101026
0.101026
0.101026
0.101026
0.101026
0.101026
0.101026
0.101026
0.101026
0.101026
0.101026
0.101025
0.101027
0.101022
0.101036
0.101002
0.101072
0.100954
0.101103
0.101008
0.100884
0.101337
0.100721
0.100868
0.370286
0.280758
0.224679
0.186227
0.157746
0.136273
0.120981
0.111178
0.105612
0.102808
0.101541
0.101023
0.100829
0.100762
0.10074
0.100734
0.100732
0.100731
0.100731
0.100731
0.100731
0.100731
0.100731
0.100731
0.100731
0.100731
0.100731
0.100731
0.100731
0.100731
0.100731
0.100731
0.100731
0.100731
0.100731
0.100731
0.100731
0.100731
0.100731
0.100731
0.100731
0.100731
0.100731
0.100731
0.100731
0.100731
0.100731
0.100731
0.100731
0.100731
0.100731
0.100731
0.100731
0.100731
0.100731
0.100731
0.100731
0.100731
0.100731
0.100731
0.100731
0.100731
0.100731
0.100731
0.100731
0.100731
0.100731
0.100731
0.100731
0.100731
0.100731
0.100731
0.100731
0.100731
0.100731
0.100731
0.100731
0.100731
0.100731
0.100731
0.100731
0.100731
0.100731
0.100731
0.100731
0.100731
0.100731
0.100731
0.100732
0.100728
0.100739
0.100712
0.100768
0.100674
0.100792
0.100724
0.100596
0.101051
0.100425
0.100692
0.370194
0.280405
0.224512
0.186408
0.158165
0.13705
0.122114
0.112571
0.107174
0.104467
0.10325
0.102756
0.102572
0.102509
0.102489
0.102483
0.102482
0.102481
0.102481
0.102481
0.102481
0.102481
0.102481
0.102481
0.102481
0.102481
0.102481
0.102481
0.102481
0.102481
0.102481
0.102481
0.102481
0.102481
0.102481
0.102481
0.102481
0.102481
0.102481
0.102481
0.102481
0.102481
0.102481
0.102481
0.102481
0.102481
0.102481
0.102481
0.102481
0.102481
0.102481
0.102481
0.102481
0.102481
0.102481
0.102481
0.102481
0.102481
0.102481
0.102481
0.102481
0.102481
0.102481
0.102481
0.102481
0.102481
0.102481
0.102481
0.102481
0.102481
0.102481
0.102481
0.102481
0.102481
0.102481
0.102481
0.102481
0.102481
0.102481
0.102481
0.102481
0.102481
0.102481
0.102481
0.102481
0.102481
0.102481
0.102481
0.102482
0.102479
0.102486
0.102469
0.102508
0.102438
0.10254
0.102479
0.10239
0.10294
0.102271
0.103285
0.369458
0.280983
0.228802
0.19498
0.170677
0.154442
0.143451
0.136237
0.132119
0.130107
0.129234
0.128907
0.128799
0.128768
0.128761
0.12876
0.12876
0.12876
0.12876
0.12876
0.12876
0.12876
0.12876
0.12876
0.12876
0.12876
0.12876
0.12876
0.12876
0.12876
0.12876
0.12876
0.12876
0.12876
0.12876
0.12876
0.12876
0.12876
0.12876
0.12876
0.12876
0.12876
0.12876
0.12876
0.12876
0.12876
0.12876
0.12876
0.12876
0.12876
0.12876
0.12876
0.12876
0.12876
0.12876
0.12876
0.12876
0.12876
0.12876
0.12876
0.12876
0.12876
0.12876
0.12876
0.12876
0.12876
0.12876
0.12876
0.12876
0.12876
0.12876
0.12876
0.12876
0.12876
0.12876
0.12876
0.12876
0.12876
0.12876
0.12876
0.12876
0.12876
0.12876
0.12876
0.12876
0.12876
0.12876
0.12876
0.128761
0.128759
0.128765
0.128748
0.128797
0.1287
0.128892
0.128743
0.128851
0.129897
0.129187
0.133534
0.37211
0.314827
0.293568
0.286652
0.286102
0.293539
0.302464
0.307978
0.310567
0.312073
0.312851
0.31326
0.31347
0.313565
0.313608
0.313626
0.313633
0.313635
0.313636
0.313636
0.313636
0.313636
0.313636
0.313636
0.313636
0.313636
0.313636
0.313636
0.313636
0.313636
0.313636
0.313636
0.313636
0.313636
0.313636
0.313636
0.313636
0.313636
0.313636
0.313636
0.313636
0.313636
0.313636
0.313636
0.313636
0.313636
0.313636
0.313636
0.313636
0.313637
0.313637
0.313637
0.313637
0.313637
0.313637
0.313637
0.313637
0.313637
0.313637
0.313637
0.313637
0.313637
0.313637
0.313637
0.313637
0.313637
0.313637
0.313637
0.313637
0.313637
0.313637
0.313637
0.313637
0.313637
0.313637
0.313637
0.313637
0.313637
0.313637
0.313637
0.313637
0.313637
0.313637
0.313637
0.313637
0.313637
0.313637
0.313636
0.31364
0.313629
0.313659
0.313585
0.313767
0.31341
0.3141
0.313332
0.314274
0.315927
0.315009
0.326351
0.604632
0.848808
0.950975
0.960292
0.927537
0.8798
0.84053
0.818292
0.808339
0.804026
0.802307
0.801809
0.801716
0.801697
0.801689
0.80169
0.801693
0.801693
0.801693
0.801693
0.801693
0.801693
0.801693
0.801693
0.801693
0.801693
0.801693
0.801693
0.801693
0.801693
0.801694
0.801694
0.801694
0.801694
0.801694
0.801694
0.801694
0.801694
0.801694
0.801694
0.801694
0.801694
0.801694
0.801694
0.801694
0.801694
0.801694
0.801694
0.801694
0.801694
0.801694
0.801694
0.801694
0.801694
0.801694
0.801694
0.801694
0.801694
0.801694
0.801694
0.801694
0.801694
0.801694
0.801694
0.801694
0.801694
0.801694
0.801694
0.801694
0.801694
0.801694
0.801694
0.801694
0.801694
0.801694
0.801694
0.801694
0.801694
0.801694
0.801695
0.801695
0.801695
0.801695
0.801695
0.801695
0.801695
0.801695
0.801695
0.801694
0.801694
0.801693
0.801689
0.801689
0.80164
0.801648
0.801304
0.801094
0.79929
0.795882
0.786511
1.13395
0.216445
0.11888
0.125903
0.122239
0.115579
0.108817
0.104579
0.102651
0.101882
0.101589
0.101477
0.101428
0.101405
0.101393
0.101387
0.101385
0.101383
0.101382
0.101382
0.101382
0.101382
0.101382
0.101382
0.101382
0.101382
0.101382
0.101382
0.101382
0.101382
0.101382
0.101382
0.101382
0.101382
0.101382
0.101382
0.101382
0.101382
0.101382
0.101382
0.101382
0.101382
0.101382
0.101382
0.101382
0.101382
0.101382
0.101382
0.101382
0.101382
0.101382
0.101382
0.101382
0.101382
0.101382
0.101382
0.101382
0.101382
0.101382
0.101382
0.101382
0.101382
0.101382
0.101382
0.101382
0.101382
0.101382
0.101382
0.101382
0.101382
0.101382
0.101382
0.101382
0.101382
0.101382
0.101382
0.101382
0.101382
0.101382
0.101382
0.101382
0.101382
0.101382
0.101382
0.101382
0.101382
0.101382
0.101382
0.101382
0.101382
0.101382
0.101382
0.101381
0.101381
0.101381
0.10138
0.101378
0.101376
0.101371
0.10136
0.147074
0.0553063
0.122242
0.128025
0.123523
0.116054
0.108819
0.104453
0.1025
0.101748
0.101479
0.101385
0.101352
0.10134
0.101335
0.101333
0.101332
0.101331
0.101331
0.101331
0.101331
0.101331
0.101331
0.101331
0.101331
0.101331
0.101331
0.101331
0.101331
0.101331
0.101331
0.101331
0.101331
0.101331
0.101331
0.101331
0.101331
0.101331
0.101331
0.101331
0.101331
0.101331
0.101331
0.101331
0.101331
0.101331
0.101331
0.101331
0.101331
0.101331
0.101331
0.101331
0.101331
0.101331
0.101331
0.101331
0.101331
0.101331
0.101331
0.101331
0.101331
0.101331
0.101331
0.101331
0.101331
0.101331
0.101331
0.101331
0.101331
0.101331
0.101331
0.101331
0.101331
0.101331
0.101331
0.101331
0.101331
0.101331
0.101331
0.101331
0.101331
0.101331
0.101331
0.101331
0.101331
0.101331
0.101331
0.101331
0.101331
0.101331
0.101331
0.101331
0.101331
0.10133
0.10133
0.10133
0.10133
0.101329
0.101326
0.101329
0.101735
0.14299
0.120774
0.11944
0.117722
0.113874
0.108338
0.104357
0.102442
0.101702
0.101447
0.101363
0.101334
0.101325
0.101323
0.101322
0.101322
0.101322
0.101322
0.101321
0.101321
0.101321
0.101321
0.101321
0.101322
0.101322
0.101321
0.101321
0.101322
0.101322
0.101321
0.101321
0.101322
0.101321
0.101321
0.101322
0.101322
0.101321
0.101321
0.101322
0.101321
0.101322
0.101322
0.101321
0.101322
0.101322
0.101321
0.101322
0.101322
0.101322
0.101322
0.101321
0.101321
0.101322
0.101321
0.101322
0.101321
0.101321
0.101322
0.101321
0.101322
0.101322
0.101321
0.101321
0.101321
0.101322
0.101322
0.101322
0.101322
0.101321
0.101321
0.101321
0.101322
0.101322
0.101322
0.101322
0.101321
0.101322
0.101321
0.101322
0.101321
0.101322
0.101321
0.101321
0.101321
0.101321
0.101321
0.101322
0.101322
0.101322
0.101322
0.101322
0.101322
0.101322
0.101322
0.101322
0.101323
0.101325
0.101325
0.101339
0.107129
0.0845232
0.115784
0.130248
0.123026
0.114448
0.108106
0.104225
0.102388
0.101677
0.101436
0.10136
0.101336
0.101329
0.101328
0.101327
0.101327
0.101327
0.101327
0.101328
0.101328
0.101328
0.101328
0.101328
0.101328
0.101328
0.101328
0.101328
0.101328
0.101328
0.101328
0.101328
0.101328
0.101328
0.101328
0.101328
0.101328
0.101328
0.101328
0.101328
0.101328
0.101328
0.101328
0.101328
0.101328
0.101328
0.101328
0.101328
0.101328
0.101328
0.101328
0.101328
0.101328
0.101328
0.101328
0.101328
0.101328
0.101328
0.101328
0.101328
0.101328
0.101328
0.101328
0.101328
0.101328
0.101328
0.101328
0.101328
0.101328
0.101328
0.101328
0.101328
0.101328
0.101328
0.101328
0.101328
0.101328
0.101328
0.101328
0.101328
0.101328
0.101328
0.101328
0.101328
0.101328
0.101328
0.101328
0.101328
0.101328
0.101328
0.101328
0.101328
0.101328
0.101328
0.101328
0.101328
0.10133
0.101332
0.101334
0.10135
0.0955354
0.122651
0.111929
0.116567
0.118092
0.113135
0.10773
0.104097
0.102317
0.101632
0.101408
0.101343
0.101324
0.101319
0.101318
0.101318
0.101318
0.101318
0.101319
0.101319
0.101319
0.101319
0.101319
0.101319
0.101319
0.101319
0.101319
0.101319
0.101319
0.101319
0.101319
0.101319
0.101319
0.101319
0.101319
0.101319
0.101319
0.101319
0.101319
0.101319
0.101319
0.101319
0.101319
0.101319
0.101319
0.101319
0.101319
0.101319
0.101319
0.101319
0.101319
0.101319
0.101319
0.101319
0.101319
0.101319
0.101319
0.101319
0.101319
0.101319
0.101319
0.101319
0.101319
0.101319
0.101319
0.101319
0.101319
0.101319
0.101319
0.101319
0.101319
0.101319
0.101319
0.101319
0.101319
0.101319
0.101319
0.101319
0.101319
0.101319
0.101319
0.101319
0.101319
0.101319
0.101319
0.101319
0.101319
0.101319
0.101319
0.101319
0.101319
0.101319
0.101319
0.101319
0.10132
0.10132
0.101321
0.101323
0.101325
0.101338
0.111934
0.0970709
0.104794
0.120088
0.121172
0.113648
0.107498
0.10411
0.102429
0.101699
0.101428
0.10134
0.101314
0.101307
0.101306
0.101305
0.101305
0.101306
0.101306
0.101306
0.101306
0.101306
0.101306
0.101306
0.101306
0.101306
0.101306
0.101306
0.101306
0.101306
0.101306
0.101306
0.101306
0.101306
0.101306
0.101306
0.101306
0.101306
0.101306
0.101306
0.101306
0.101306
0.101306
0.101306
0.101306
0.101306
0.101306
0.101306
0.101306
0.101306
0.101306
0.101306
0.101306
0.101306
0.101306
0.101306
0.101306
0.101306
0.101306
0.101306
0.101306
0.101306
0.101306
0.101306
0.101306
0.101306
0.101306
0.101306
0.101306
0.101306
0.101306
0.101306
0.101306
0.101306
0.101306
0.101306
0.101306
0.101306
0.101306
0.101306
0.101306
0.101306
0.101306
0.101306
0.101306
0.101306
0.101306
0.101306
0.101306
0.101306
0.101306
0.101306
0.101306
0.101306
0.101306
0.101306
0.101308
0.101309
0.10131
0.101321
0.0969796
0.111544
0.114227
0.117232
0.121461
0.115545
0.107447
0.103297
0.101889
0.101476
0.101353
0.101314
0.101302
0.101298
0.101296
0.101296
0.101296
0.101296
0.101296
0.101296
0.101296
0.101296
0.101296
0.101296
0.101296
0.101296
0.101296
0.101296
0.101296
0.101296
0.101297
0.101297
0.101297
0.101297
0.101296
0.101296
0.101296
0.101296
0.101297
0.101297
0.101297
0.101297
0.101297
0.101297
0.101297
0.101297
0.101297
0.101296
0.101297
0.101297
0.101296
0.101297
0.101297
0.101297
0.101297
0.101296
0.101297
0.101297
0.101296
0.101297
0.101297
0.101297
0.101296
0.101297
0.101296
0.101297
0.101297
0.101297
0.101297
0.101297
0.101297
0.101296
0.101296
0.101297
0.101297
0.101297
0.101296
0.101297
0.101296
0.101297
0.101297
0.101297
0.101297
0.101297
0.101297
0.101297
0.101297
0.101297
0.101297
0.101297
0.101297
0.101297
0.101297
0.101297
0.101297
0.101297
0.101298
0.101299
0.1013
0.101309
0.107203
0.104181
0.107273
0.10856
0.113586
0.116136
0.111375
0.105915
0.102947
0.1018
0.101433
0.101328
0.1013
0.101293
0.101291
0.101291
0.101291
0.101291
0.101291
0.101291
0.101291
0.101291
0.101291
0.101291
0.101291
0.101291
0.101291
0.101291
0.101291
0.101291
0.101291
0.101291
0.101291
0.101291
0.101291
0.101291
0.101291
0.101291
0.101291
0.101291
0.101291
0.101291
0.101291
0.101291
0.101291
0.101291
0.101291
0.101291
0.101291
0.101291
0.101291
0.101291
0.101291
0.101291
0.101291
0.101291
0.101291
0.101291
0.101291
0.101291
0.101291
0.101291
0.101291
0.101291
0.101291
0.101291
0.101291
0.101291
0.101291
0.101291
0.101291
0.101291
0.101291
0.101291
0.101291
0.101291
0.101291
0.101291
0.101291
0.101291
0.101291
0.101291
0.101291
0.101291
0.101291
0.101291
0.101291
0.101291
0.101291
0.101291
0.101291
0.101291
0.101291
0.101291
0.101291
0.101291
0.101292
0.101293
0.101293
0.101301
0.0920316
0.106293
0.118957
0.11323
0.101247
0.0987488
0.100763
0.101727
0.101685
0.101481
0.101361
0.101311
0.101294
0.101289
0.101287
0.101287
0.101287
0.101287
0.101287
0.101287
0.101287
0.101287
0.101287
0.101287
0.101287
0.101287
0.101287
0.101287
0.101287
0.101287
0.101287
0.101287
0.101287
0.101287
0.101287
0.101287
0.101287
0.101287
0.101287
0.101287
0.101287
0.101287
0.101287
0.101287
0.101287
0.101287
0.101287
0.101287
0.101287
0.101287
0.101287
0.101287
0.101287
0.101287
0.101287
0.101287
0.101287
0.101287
0.101287
0.101287
0.101287
0.101287
0.101287
0.101287
0.101287
0.101287
0.101287
0.101287
0.101287
0.101287
0.101287
0.101287
0.101287
0.101287
0.101287
0.101287
0.101287
0.101287
0.101287
0.101287
0.101287
0.101287
0.101287
0.101287
0.101287
0.101287
0.101287
0.101287
0.101287
0.101287
0.101287
0.101287
0.101287
0.101287
0.101287
0.101287
0.101287
0.101288
0.101288
0.101295
0.110722
0.0983018
0.0932885
0.117487
0.129452
0.121659
0.111107
0.105068
0.102564
0.101683
0.101402
0.101317
0.101292
0.101285
0.101283
0.101283
0.101283
0.101283
0.101283
0.101283
0.101283
0.101283
0.101283
0.101283
0.101283
0.101283
0.101283
0.101283
0.101283
0.101283
0.101283
0.101283
0.101283
0.101283
0.101283
0.101283
0.101283
0.101283
0.101283
0.101283
0.101283
0.101283
0.101283
0.101283
0.101283
0.101283
0.101283
0.101283
0.101283
0.101283
0.101283
0.101283
0.101283
0.101283
0.101283
0.101283
0.101283
0.101283
0.101283
0.101283
0.101283
0.101283
0.101283
0.101283
0.101283
0.101283
0.101283
0.101283
0.101283
0.101283
0.101283
0.101283
0.101283
0.101283
0.101283
0.101283
0.101283
0.101283
0.101283
0.101283
0.101283
0.101283
0.101283
0.101283
0.101283
0.101283
0.101283
0.101283
0.101283
0.101283
0.101283
0.101283
0.101283
0.101283
0.101283
0.101283
0.101283
0.101283
0.101283
0.101288
0.098003
0.105267
0.112077
0.106276
0.104095
0.105343
0.104838
0.103307
0.102168
0.10161
0.10139
0.101314
0.101289
0.101282
0.101279
0.101279
0.101278
0.101278
0.101278
0.101278
0.101278
0.101278
0.101278
0.101278
0.101278
0.101278
0.101278
0.101278
0.101278
0.101278
0.101278
0.101278
0.101278
0.101278
0.101278
0.101278
0.101278
0.101278
0.101278
0.101278
0.101278
0.101278
0.101278
0.101278
0.101278
0.101278
0.101278
0.101278
0.101278
0.101278
0.101278
0.101278
0.101278
0.101278
0.101278
0.101278
0.101278
0.101278
0.101278
0.101278
0.101278
0.101278
0.101278
0.101278
0.101278
0.101278
0.101278
0.101278
0.101278
0.101278
0.101278
0.101278
0.101278
0.101278
0.101278
0.101278
0.101278
0.101278
0.101278
0.101278
0.101278
0.101278
0.101278
0.101278
0.101278
0.101278
0.101278
0.101278
0.101278
0.101278
0.101278
0.101278
0.101278
0.101278
0.101278
0.101278
0.101278
0.101278
0.101278
0.101281
0.103118
0.101011
0.10271
0.111444
0.114195
0.110817
0.106517
0.103645
0.102209
0.101607
0.101384
0.101307
0.101282
0.101274
0.101271
0.10127
0.10127
0.10127
0.10127
0.10127
0.10127
0.10127
0.10127
0.10127
0.10127
0.10127
0.10127
0.10127
0.10127
0.10127
0.10127
0.10127
0.10127
0.10127
0.10127
0.10127
0.10127
0.10127
0.10127
0.10127
0.10127
0.10127
0.10127
0.10127
0.10127
0.10127
0.10127
0.10127
0.10127
0.10127
0.10127
0.10127
0.10127
0.10127
0.10127
0.10127
0.10127
0.10127
0.10127
0.10127
0.10127
0.10127
0.10127
0.10127
0.10127
0.10127
0.10127
0.10127
0.10127
0.10127
0.10127
0.10127
0.10127
0.10127
0.10127
0.10127
0.10127
0.10127
0.10127
0.10127
0.10127
0.10127
0.10127
0.10127
0.10127
0.10127
0.10127
0.10127
0.10127
0.10127
0.10127
0.10127
0.10127
0.10127
0.10127
0.10127
0.10127
0.101269
0.101269
0.10127
0.101747
0.102042
0.104598
0.108691
0.110608
0.10893
0.105809
0.103394
0.102111
0.101561
0.101354
0.101283
0.10126
0.101252
0.10125
0.101249
0.101249
0.101249
0.101249
0.101249
0.101249
0.101249
0.101249
0.101249
0.101249
0.101249
0.101249
0.101249
0.101249
0.101249
0.101249
0.101249
0.101249
0.101249
0.101249
0.101249
0.101249
0.101249
0.101249
0.101249
0.101249
0.101249
0.101249
0.101249
0.101249
0.101249
0.101249
0.101249
0.101249
0.101249
0.101249
0.101249
0.101249
0.101249
0.101249
0.101249
0.101249
0.101249
0.101249
0.101249
0.101249
0.101249
0.101249
0.101249
0.101249
0.101249
0.101249
0.101249
0.101249