/*--------------------------------*- C++ -*----------------------------------*\
| =========                 |                                                 |
| \\      /  F ield         | OpenFOAM: The Open Source CFD Toolbox           |
|  \\    /   O peration     | Version:  v2012                                 |
|   \\  /    A nd           | Website:  www.openfoam.com                      |
|    \\/     M anipulation  |                                                 |
\*---------------------------------------------------------------------------*/
FoamFile
{
    version     2.0;
    format      ascii;
    class       volScalarField;
    location    "0.007";
    object      k.air;
}
// * * * * * * * * * * * * * * * * * * * * * * * * * * * * * * * * * * * * * //

dimensions      [0 2 -2 0 0 0 0];


internalField   nonuniform List<scalar> 
5600
(
0.565681
1.4506
2.46444
3.10462
3.36891
3.3831
3.29942
3.22005
3.17203
3.14526
3.13113
3.12499
3.1228
3.12199
3.12168
3.12157
3.12155
3.12154
3.12154
3.12154
3.12154
3.12154
3.12154
3.12154
3.12154
3.12154
3.12154
3.12154
3.12154
3.12154
3.12154
3.12154
3.12154
3.12154
3.12154
3.12154
3.12154
3.12154
3.12154
3.12154
3.12154
3.12154
3.12154
3.12154
3.12154
3.12154
3.12154
3.12154
3.12154
3.12154
3.12154
3.12154
3.12154
3.12154
3.12154
3.12154
3.12154
3.12154
3.12154
3.12154
3.12154
3.12154
3.12154
3.12154
3.12154
3.12154
3.12154
3.12154
3.12154
3.12154
3.12154
3.12154
3.12154
3.12154
3.12154
3.12154
3.12154
3.12154
3.12154
3.12154
3.12154
3.12154
3.12154
3.12154
3.12154
3.12155
3.1215
3.12168
3.1211
3.12284
3.11799
3.13059
3.10043
3.1669
3.0337
3.27523
2.87783
3.44526
2.77719
2.97784
0.401847
0.372171
0.401593
0.463713
0.529703
0.592475
0.63683
0.657042
0.66386
0.667121
0.668524
0.668915
0.669135
0.669311
0.669428
0.669491
0.669526
0.669542
0.66955
0.669553
0.669554
0.669554
0.669554
0.669554
0.669554
0.669555
0.669555
0.669555
0.669555
0.669555
0.669555
0.669555
0.669555
0.669555
0.669555
0.669555
0.669555
0.669555
0.669555
0.669555
0.669555
0.669555
0.669555
0.669555
0.669555
0.669555
0.669555
0.669555
0.669555
0.669555
0.669555
0.669555
0.669555
0.669555
0.669555
0.669555
0.669555
0.669555
0.669555
0.669555
0.669555
0.669555
0.669555
0.669555
0.669555
0.669555
0.669555
0.669555
0.669555
0.669555
0.669555
0.669555
0.669555
0.669555
0.669555
0.669555
0.669555
0.669555
0.669555
0.669555
0.669555
0.669554
0.669558
0.669546
0.669584
0.669464
0.669827
0.66879
0.671571
0.664598
0.680835
0.64592
0.714789
0.591375
0.79133
0.508486
0.854217
0.518063
0.721855
0.752865
0.40607
0.344039
0.301667
0.273321
0.253766
0.239448
0.226821
0.21548
0.207085
0.201958
0.199154
0.197782
0.197197
0.196975
0.1969
0.196877
0.196871
0.19687
0.196871
0.196871
0.196871
0.196871
0.196871
0.196871
0.196871
0.196871
0.196871
0.196871
0.196871
0.196871
0.196871
0.196871
0.196871
0.196871
0.196871
0.196871
0.196871
0.196871
0.196871
0.196871
0.196871
0.196871
0.196871
0.196871
0.196871
0.196871
0.196871
0.196871
0.196871
0.196871
0.196871
0.196871
0.196871
0.196871
0.196871
0.196871
0.196871
0.196871
0.196871
0.196871
0.196871
0.196871
0.196871
0.196871
0.196871
0.196871
0.196871
0.196871
0.196871
0.196871
0.196871
0.196871
0.196871
0.196871
0.196871
0.196871
0.196871
0.196871
0.196871
0.196871
0.196871
0.196871
0.196871
0.196872
0.196869
0.196875
0.196864
0.196869
0.196937
0.19654
0.198053
0.193416
0.205444
0.178804
0.228923
0.150805
0.248086
0.156225
0.216569
0.19196
0.406449
0.344351
0.298492
0.263016
0.234348
0.211019
0.192749
0.179581
0.171064
0.16613
0.163541
0.162301
0.161756
0.161534
0.16145
0.16142
0.16141
0.161407
0.161406
0.161406
0.161406
0.161405
0.161405
0.161405
0.161405
0.161405
0.161405
0.161405
0.161405
0.161405
0.161405
0.161405
0.161405
0.161405
0.161405
0.161405
0.161405
0.161405
0.161405
0.161405
0.161405
0.161405
0.161405
0.161405
0.161405
0.161405
0.161405
0.161405
0.161405
0.161405
0.161405
0.161405
0.161405
0.161405
0.161405
0.161405
0.161405
0.161405
0.161405
0.161405
0.161405
0.161405
0.161405
0.161405
0.161405
0.161405
0.161405
0.161405
0.161405
0.161405
0.161405
0.161405
0.161405
0.161405
0.161405
0.161405
0.161405
0.161405
0.161405
0.161405
0.161406
0.161405
0.161406
0.161403
0.161412
0.161386
0.16146
0.161264
0.161741
0.160697
0.16269
0.159567
0.162965
0.162667
0.153054
0.180571
0.134704
0.18017
0.169045
0.122463
0.406452
0.344504
0.298614
0.262829
0.233599
0.209681
0.191125
0.177965
0.169559
0.164724
0.1622
0.160997
0.160468
0.160252
0.16017
0.160141
0.160131
0.160127
0.160127
0.160126
0.160126
0.160126
0.160126
0.160126
0.160126
0.160126
0.160126
0.160126
0.160126
0.160126
0.160126
0.160126
0.160126
0.160126
0.160126
0.160126
0.160126
0.160126
0.160126
0.160126
0.160126
0.160126
0.160126
0.160126
0.160126
0.160126
0.160126
0.160126
0.160126
0.160126
0.160126
0.160126
0.160126
0.160126
0.160126
0.160126
0.160126
0.160126
0.160126
0.160126
0.160126
0.160126
0.160126
0.160126
0.160126
0.160126
0.160126
0.160126
0.160126
0.160126
0.160126
0.160126
0.160126
0.160126
0.160126
0.160126
0.160126
0.160126
0.160126
0.160126
0.160126
0.160126
0.160125
0.160128
0.160119
0.160148
0.160066
0.160282
0.159761
0.160892
0.158747
0.162089
0.158509
0.158666
0.169585
0.137867
0.193342
0.129166
0.169173
0.177004
0.406451
0.344521
0.298656
0.262892
0.233667
0.209748
0.191201
0.178059
0.16967
0.164845
0.162329
0.16113
0.160603
0.160387
0.160305
0.160276
0.160266
0.160262
0.160262
0.160261
0.160261
0.160261
0.160261
0.160261
0.160261
0.160261
0.160261
0.160261
0.160261
0.160261
0.160261
0.160261
0.160261
0.160261
0.160261
0.160261
0.160261
0.160261
0.160261
0.160261
0.160261
0.160261
0.160261
0.160261
0.160261
0.160261
0.160261
0.160261
0.160261
0.160261
0.160261
0.160261
0.160261
0.160261
0.160261
0.160261
0.160261
0.160261
0.160261
0.160261
0.160261
0.160261
0.160261
0.160261
0.160261
0.160261
0.160261
0.160261
0.160261
0.160261
0.160261
0.160261
0.160261
0.160261
0.160261
0.160261
0.160261
0.160261
0.160261
0.160261
0.160261
0.160261
0.160261
0.16026
0.160264
0.16025
0.160296
0.160158
0.16054
0.159576
0.161761
0.157413
0.164736
0.155105
0.162931
0.165137
0.146092
0.175264
0.16359
0.132637
0.406451
0.344519
0.298662
0.262909
0.233693
0.209779
0.191236
0.178098
0.169713
0.164891
0.162377
0.161179
0.160652
0.160437
0.160354
0.160325
0.160315
0.160311
0.16031
0.16031
0.16031
0.16031
0.16031
0.16031
0.16031
0.16031
0.16031
0.16031
0.16031
0.16031
0.16031
0.16031
0.16031
0.16031
0.16031
0.16031
0.16031
0.16031
0.16031
0.16031
0.16031
0.16031
0.16031
0.16031
0.16031
0.16031
0.16031
0.16031
0.16031
0.16031
0.16031
0.16031
0.16031
0.16031
0.16031
0.16031
0.16031
0.16031
0.16031
0.16031
0.16031
0.16031
0.16031
0.16031
0.16031
0.16031
0.16031
0.16031
0.16031
0.16031
0.16031
0.16031
0.16031
0.16031
0.16031
0.16031
0.16031
0.16031
0.16031
0.16031
0.16031
0.16031
0.16031
0.160311
0.160307
0.16032
0.16028
0.16039
0.160108
0.160777
0.159334
0.162105
0.157537
0.163613
0.158075
0.159427
0.163945
0.161502
0.142279
0.196095
0.406451
0.344514
0.298659
0.262911
0.233697
0.20978
0.191234
0.178096
0.169714
0.164895
0.162384
0.161188
0.160661
0.160446
0.160364
0.160334
0.160324
0.160321
0.16032
0.16032
0.160319
0.160319
0.160319
0.160319
0.160319
0.160319
0.160319
0.160319
0.160319
0.160319
0.160319
0.160319
0.160319
0.160319
0.160319
0.160319
0.160319
0.160319
0.160319
0.160319
0.160319
0.160319
0.160319
0.160319
0.160319
0.160319
0.160319
0.160319
0.160319
0.160319
0.160319
0.160319
0.160319
0.160319
0.160319
0.160319
0.160319
0.160319
0.160319
0.160319
0.160319
0.160319
0.160319
0.160319
0.160319
0.160319
0.160319
0.160319
0.160319
0.160319
0.160319
0.160319
0.160319
0.160319
0.160319
0.160319
0.160319
0.160319
0.160319
0.160319
0.160319
0.160319
0.160319
0.160319
0.16032
0.160317
0.160327
0.160293
0.160401
0.160095
0.160869
0.159151
0.162413
0.157374
0.163062
0.159928
0.157419
0.161599
0.171977
0.135117
0.406451
0.34451
0.298655
0.262909
0.233695
0.209774
0.191223
0.178085
0.169704
0.164889
0.162381
0.161186
0.16066
0.160445
0.160363
0.160333
0.160323
0.16032
0.160319
0.160319
0.160319
0.160319
0.160319
0.160319
0.160319
0.160319
0.160319
0.160319
0.160319
0.160319
0.160319
0.160319
0.160319
0.160319
0.160319
0.160319
0.160319
0.160319
0.160319
0.160319
0.160319
0.160319
0.160319
0.160319
0.160319
0.160319
0.160319
0.160319
0.160319
0.160319
0.160319
0.160319
0.160319
0.160319
0.160319
0.160319
0.160319
0.160319
0.160319
0.160319
0.160319
0.160319
0.160319
0.160319
0.160319
0.160319
0.160319
0.160319
0.160319
0.160319
0.160319
0.160319
0.160319
0.160319
0.160319
0.160319
0.160319
0.160319
0.160319
0.160319
0.160319
0.160319
0.160319
0.160319
0.160318
0.16032
0.160315
0.160326
0.160304
0.160342
0.160297
0.160283
0.160582
0.159423
0.162581
0.155897
0.16649
0.156495
0.15409
0.177603
0.406451
0.344507
0.298653
0.262909
0.233695
0.20977
0.191216
0.178076
0.169696
0.164882
0.162375
0.161181
0.160656
0.160441
0.160359
0.160329
0.160319
0.160316
0.160315
0.160315
0.160314
0.160314
0.160314
0.160314
0.160314
0.160314
0.160314
0.160314
0.160314
0.160314
0.160314
0.160314
0.160314
0.160314
0.160314
0.160314
0.160314
0.160314
0.160314
0.160314
0.160314
0.160314
0.160314
0.160314
0.160314
0.160314
0.160314
0.160314
0.160314
0.160314
0.160314
0.160314
0.160314
0.160314
0.160314
0.160314
0.160314
0.160314
0.160314
0.160314
0.160314
0.160314
0.160314
0.160314
0.160314
0.160314
0.160314
0.160314
0.160314
0.160314
0.160314
0.160314
0.160314
0.160314
0.160314
0.160314
0.160314
0.160314
0.160314
0.160314
0.160314
0.160314
0.160314
0.160314
0.160314
0.160314
0.160316
0.160309
0.160331
0.160269
0.160424
0.160092
0.160664
0.159991
0.160069
0.162096
0.15645
0.164146
0.163095
0.146318
0.406451
0.344507
0.298654
0.26291
0.233696
0.209771
0.191217
0.178077
0.169697
0.164883
0.162376
0.161181
0.160656
0.160441
0.160359
0.160329
0.160319
0.160316
0.160315
0.160315
0.160314
0.160314
0.160314
0.160314
0.160314
0.160314
0.160314
0.160314
0.160314
0.160314
0.160314
0.160314
0.160314
0.160314
0.160314
0.160314
0.160314
0.160314
0.160314
0.160314
0.160314
0.160314
0.160314
0.160314
0.160314
0.160314
0.160314
0.160314
0.160314
0.160314
0.160314
0.160314
0.160314
0.160314
0.160314
0.160314
0.160314
0.160314
0.160314
0.160314
0.160314
0.160314
0.160314
0.160314
0.160314
0.160314
0.160314
0.160314
0.160314
0.160314
0.160314
0.160314
0.160314
0.160314
0.160314
0.160314
0.160314
0.160314
0.160314
0.160314
0.160314
0.160314
0.160314
0.160314
0.160315
0.160314
0.160316
0.160309
0.160331
0.160271
0.160418
0.160093
0.160733
0.159628
0.161268
0.159247
0.161118
0.160525
0.157676
0.16665
0.406451
0.344511
0.298658
0.262913
0.233699
0.209778
0.191227
0.178088
0.169706
0.16489
0.162382
0.161186
0.16066
0.160445
0.160363
0.160333
0.160323
0.16032
0.160319
0.160319
0.160319
0.160319
0.160319
0.160319
0.160319
0.160319
0.160319
0.160319
0.160319
0.160319
0.160319
0.160319
0.160319
0.160319
0.160319
0.160319
0.160319
0.160319
0.160319
0.160319
0.160319
0.160319
0.160319
0.160319
0.160319
0.160319
0.160319
0.160319
0.160319
0.160319
0.160319
0.160319
0.160319
0.160319
0.160319
0.160319
0.160319
0.160319
0.160319
0.160319
0.160319
0.160319
0.160319
0.160319
0.160319
0.160319
0.160319
0.160319
0.160319
0.160319
0.160319
0.160319
0.160319
0.160319
0.160319
0.160319
0.160319
0.160319
0.160319
0.160319
0.160319
0.160319
0.160319
0.160319
0.160319
0.160318
0.160321
0.160313
0.160335
0.160279
0.160408
0.160141
0.160616
0.159925
0.160642
0.160397
0.159554
0.16137
0.160603
0.156809
0.406451
0.344517
0.298663
0.262916
0.233704
0.209787
0.19124
0.178101
0.169717
0.164897
0.162386
0.161188
0.160662
0.160446
0.160364
0.160334
0.160324
0.160321
0.16032
0.160319
0.160319
0.160319
0.160319
0.160319
0.160319
0.160319
0.160319
0.160319
0.160319
0.160319
0.160319
0.160319
0.160319
0.160319
0.160319
0.160319
0.160319
0.160319
0.160319
0.160319
0.160319
0.160319
0.160319
0.160319
0.160319
0.160319
0.160319
0.160319
0.160319
0.160319
0.160319
0.160319
0.160319
0.160319
0.160319
0.160319
0.160319
0.160319
0.160319
0.160319
0.160319
0.160319
0.160319
0.160319
0.160319
0.160319
0.160319
0.160319
0.160319
0.160319
0.160319
0.160319
0.160319
0.160319
0.160319
0.160319
0.160319
0.160319
0.160319
0.160319
0.160319
0.160319
0.160319
0.160319
0.16032
0.160319
0.160321
0.160314
0.160334
0.160285
0.160396
0.160169
0.160571
0.159986
0.160603
0.16035
0.159721
0.161337
0.159613
0.159944
0.406452
0.344523
0.298668
0.262917
0.233703
0.209789
0.191244
0.178104
0.169717
0.164893
0.162379
0.161179
0.160652
0.160437
0.160354
0.160325
0.160315
0.160311
0.16031
0.16031
0.16031
0.16031
0.16031
0.16031
0.16031
0.16031
0.16031
0.16031
0.16031
0.16031
0.16031
0.16031
0.16031
0.16031
0.16031
0.16031
0.16031
0.16031
0.16031
0.16031
0.16031
0.16031
0.16031
0.16031
0.16031
0.16031
0.16031
0.16031
0.16031
0.16031
0.16031
0.16031
0.16031
0.16031
0.16031
0.16031
0.16031
0.16031
0.16031
0.16031
0.16031
0.16031
0.16031
0.16031
0.16031
0.16031
0.16031
0.16031
0.16031
0.16031
0.16031
0.16031
0.16031
0.16031
0.16031
0.16031
0.16031
0.16031
0.16031
0.16031
0.16031
0.16031
0.16031
0.16031
0.16031
0.160309
0.160312
0.160305
0.160322
0.160279
0.160377
0.160182
0.160518
0.160049
0.16049
0.16046
0.159616
0.161303
0.159949
0.158942
0.406452
0.344526
0.298664
0.262901
0.233678
0.20976
0.191211
0.178067
0.169675
0.164849
0.162331
0.161131
0.160603
0.160388
0.160305
0.160276
0.160266
0.160263
0.160262
0.160261
0.160261
0.160261
0.160261
0.160261
0.160261
0.160261
0.160261
0.160261
0.160261
0.160261
0.160261
0.160261
0.160261
0.160261
0.160261
0.160261
0.160261
0.160261
0.160261
0.160261
0.160261
0.160261
0.160261
0.160261
0.160261
0.160261
0.160261
0.160261
0.160261
0.160261
0.160261
0.160261
0.160261
0.160261
0.160261
0.160261
0.160261
0.160261
0.160261
0.160261
0.160261
0.160261
0.160261
0.160261
0.160261
0.160261
0.160261
0.160261
0.160261
0.160261
0.160261
0.160261
0.160261
0.160261
0.160261
0.160261
0.160261
0.160261
0.160261
0.160261
0.160261
0.160261
0.160261
0.160261
0.160261
0.160261
0.160263
0.160257
0.160273
0.160234
0.160321
0.160147
0.160443
0.160043
0.160384
0.160477
0.159501
0.161319
0.159826
0.158909
0.406453
0.34451
0.298621
0.262841
0.233616
0.209703
0.191149
0.177987
0.169578
0.16474
0.162215
0.161011
0.160482
0.160266
0.160184
0.160154
0.160144
0.160141
0.16014
0.16014
0.16014
0.16014
0.16014
0.16014
0.16014
0.16014
0.16014
0.16014
0.16014
0.16014
0.16014
0.16014
0.16014
0.16014
0.16014
0.16014
0.16014
0.16014
0.16014
0.16014
0.16014
0.16014
0.16014
0.16014
0.16014
0.16014
0.16014
0.16014
0.16014
0.16014
0.16014
0.16014
0.16014
0.16014
0.16014
0.16014
0.16014
0.16014
0.16014
0.16014
0.16014
0.16014
0.16014
0.16014
0.16014
0.16014
0.16014
0.16014
0.16014
0.16014
0.16014
0.16014
0.16014
0.16014
0.16014
0.16014
0.16014
0.16014
0.16014
0.16014
0.16014
0.16014
0.16014
0.16014
0.16014
0.16014
0.160141
0.160136
0.160151
0.160114
0.160196
0.160034
0.160308
0.159942
0.160231
0.160413
0.159269
0.161405
0.159503
0.158743
0.406452
0.344355
0.298492
0.263057
0.234456
0.211206
0.192995
0.179851
0.171341
0.166409
0.16382
0.162579
0.162033
0.16181
0.161726
0.161695
0.161685
0.161682
0.161681
0.161681
0.161681
0.161681
0.161681
0.161681
0.161681
0.161681
0.161681
0.161681
0.161681
0.161681
0.161681
0.161681
0.161681
0.161681
0.161681
0.161681
0.161681
0.161681
0.161681
0.161681
0.161681
0.161681
0.161681
0.161681
0.161681
0.161681
0.161681
0.161681
0.161681
0.161681
0.161681
0.161681
0.161681
0.161681
0.161681
0.161681
0.161681
0.161681
0.161681
0.161681
0.161681
0.161681
0.161681
0.161681
0.161681
0.161681
0.161681
0.161681
0.161681
0.161681
0.161681
0.161681
0.161681
0.161681
0.161681
0.161681
0.161681
0.161681
0.161681
0.161681
0.161681
0.161681
0.161681
0.161681
0.161681
0.16168
0.161682
0.161677
0.161691
0.161654
0.161739
0.161566
0.161872
0.161443
0.161829
0.161966
0.160646
0.163673
0.160382
0.161714
0.406074
0.344022
0.301763
0.27399
0.255163
0.24171
0.229852
0.218976
0.210826
0.205847
0.203123
0.201779
0.2012
0.200977
0.200899
0.200874
0.200868
0.200867
0.200867
0.200867
0.200867
0.200867
0.200867
0.200867
0.200867
0.200867
0.200867
0.200867
0.200867
0.200867
0.200867
0.200867
0.200867
0.200867
0.200867
0.200867
0.200867
0.200867
0.200867
0.200867
0.200867
0.200867
0.200867
0.200867
0.200867
0.200867
0.200867
0.200867
0.200867
0.200867
0.200867
0.200867
0.200867
0.200867
0.200867
0.200867
0.200867
0.200867
0.200867
0.200867
0.200867
0.200867
0.200867
0.200867
0.200867
0.200867
0.200867
0.200867
0.200867
0.200867
0.200867
0.200867
0.200867
0.200867
0.200867
0.200867
0.200867
0.200867
0.200867
0.200867
0.200867
0.200867
0.200867
0.200867
0.200867
0.200866
0.200869
0.200861
0.200884
0.200824
0.200968
0.200657
0.201262
0.200288
0.201579
0.200774
0.200217
0.205238
0.199587
0.212241
0.401712
0.372635
0.404749
0.470943
0.541472
0.60956
0.659317
0.683721
0.693272
0.698178
0.700539
0.701474
0.701943
0.702227
0.702385
0.702461
0.702499
0.702515
0.702522
0.702525
0.702526
0.702526
0.702527
0.702527
0.702527
0.702527
0.702527
0.702527
0.702527
0.702527
0.702527
0.702527
0.702527
0.702527
0.702527
0.702527
0.702527
0.702527
0.702527
0.702527
0.702527
0.702527
0.702527
0.702527
0.702527
0.702527
0.702527
0.702527
0.702527
0.702527
0.702527
0.702527
0.702527
0.702527
0.702527
0.702527
0.702527
0.702527
0.702527
0.702527
0.702527
0.702527
0.702527
0.702527
0.702527
0.702527
0.702527
0.702527
0.702527
0.702527
0.702527
0.702527
0.702527
0.702527
0.702527
0.702527
0.702527
0.702527
0.702527
0.702527
0.702527
0.702527
0.702527
0.702527
0.702528
0.702525
0.702533
0.702511
0.702574
0.702408
0.702819
0.701901
0.703795
0.700461
0.705754
0.700005
0.705367
0.711287
0.706397
0.74909
0.56358
1.45185
2.46415
3.09605
3.35015
3.35606
3.26771
3.18648
3.13797
3.11117
3.097
3.09073
3.08843
3.08756
3.08721
3.08709
3.08706
3.08705
3.08705
3.08705
3.08705
3.08705
3.08705
3.08705
3.08705
3.08705
3.08705
3.08705
3.08705
3.08705
3.08705
3.08705
3.08705
3.08705
3.08705
3.08705
3.08705
3.08705
3.08705
3.08705
3.08705
3.08705
3.08705
3.08705
3.08705
3.08705
3.08705
3.08705
3.08705
3.08705
3.08705
3.08705
3.08705
3.08705
3.08705
3.08705
3.08705
3.08705
3.08705
3.08705
3.08705
3.08705
3.08705
3.08705
3.08705
3.08705
3.08705
3.08705
3.08705
3.08705
3.08705
3.08705
3.08705
3.08705
3.08705
3.08705
3.08705
3.08705
3.08705
3.08705
3.08705
3.08705
3.08705
3.08705
3.08705
3.08705
3.08705
3.08705
3.08705
3.08705
3.08704
3.08704
3.08702
3.08692
3.08693
3.08595
3.08565
3.08011
3.07105
3.04558
5.7739
1.10292
0.244335
0.214566
0.21289
0.199188
0.182648
0.171052
0.165241
0.162682
0.161604
0.161141
0.160898
0.160761
0.160686
0.160646
0.160624
0.160613
0.160608
0.160605
0.160603
0.160602
0.160602
0.160602
0.160602
0.160602
0.160602
0.160602
0.160602
0.160602
0.160601
0.160602
0.160602
0.160601
0.160602
0.160602
0.160602
0.160602
0.160602
0.160602
0.160602
0.160602
0.160602
0.160602
0.160602
0.160602
0.160602
0.160602
0.160602
0.160602
0.160602
0.160601
0.160602
0.160602
0.160602
0.160602
0.160602
0.160601
0.160602
0.160602
0.160602
0.160602
0.160602
0.160602
0.160601
0.160602
0.160602
0.160602
0.160602
0.160602
0.160602
0.160601
0.160602
0.160602
0.160602
0.160602
0.160602
0.160602
0.160601
0.160602
0.160602
0.160602
0.160602
0.160602
0.160601
0.160601
0.160601
0.160602
0.160602
0.160602
0.160602
0.160601
0.160601
0.160601
0.160601
0.1606
0.160599
0.160596
0.160595
0.160581
0.442457
0.340513
0.167208
0.207816
0.20077
0.193516
0.181287
0.170701
0.164924
0.16235
0.161229
0.160742
0.160545
0.160464
0.16043
0.160415
0.160408
0.160405
0.160403
0.160403
0.160402
0.160402
0.160402
0.160402
0.160402
0.160402
0.160402
0.160402
0.160402
0.160402
0.160402
0.160402
0.160402
0.160402
0.160402
0.160402
0.160402
0.160402
0.160402
0.160402
0.160402
0.160402
0.160402
0.160402
0.160402
0.160402
0.160402
0.160402
0.160402
0.160402
0.160402
0.160402
0.160402
0.160402
0.160402
0.160402
0.160402
0.160402
0.160402
0.160402
0.160402
0.160402
0.160402
0.160402
0.160402
0.160402
0.160402
0.160402
0.160402
0.160402
0.160402
0.160402
0.160402
0.160402
0.160402
0.160402
0.160402
0.160402
0.160402
0.160402
0.160402
0.160402
0.160402
0.160402
0.160402
0.160402
0.160402
0.160402
0.160402
0.160402
0.160402
0.160402
0.160402
0.160402
0.160402
0.160401
0.160401
0.160401
0.160401
0.160399
0.109998
0.28992
0.223584
0.222106
0.208787
0.191341
0.17886
0.169796
0.164585
0.1622
0.161194
0.160745
0.160553
0.160475
0.160442
0.160429
0.160423
0.160421
0.160419
0.160419
0.160418
0.160418
0.160418
0.160418
0.160418
0.160418
0.160418
0.160418
0.160418
0.160418
0.160418
0.160418
0.160418
0.160418
0.160418
0.160418
0.160418
0.160418
0.160418
0.160418
0.160418
0.160418
0.160418
0.160418
0.160418
0.160418
0.160418
0.160418
0.160418
0.160418
0.160418
0.160418
0.160418
0.160418
0.160418
0.160418
0.160418
0.160418
0.160418
0.160418
0.160418
0.160418
0.160418
0.160418
0.160418
0.160418
0.160418
0.160418
0.160418
0.160418
0.160418
0.160418
0.160418
0.160418
0.160418
0.160418
0.160418
0.160418
0.160418
0.160418
0.160418
0.160418
0.160418
0.160418
0.160418
0.160418
0.160418
0.160418
0.160418
0.160418
0.160418
0.160418
0.160418
0.160418
0.160419
0.160419
0.16042
0.160421
0.160422
0.160428
0.216536
0.0829434
0.165651
0.233749
0.232034
0.202795
0.181173
0.16985
0.164454
0.162096
0.161127
0.160716
0.16054
0.160469
0.16044
0.160428
0.160423
0.16042
0.16042
0.160419
0.160419
0.160419
0.160419
0.160419
0.160419
0.160419
0.160419
0.160419
0.160419
0.160419
0.160419
0.160419
0.160419
0.160419
0.160419
0.160419
0.160419
0.160419
0.160419
0.160419
0.160419
0.160419
0.160419
0.160419
0.160419
0.160419
0.160419
0.160419
0.160419
0.160419
0.160419
0.160419
0.160419
0.160419
0.160419
0.160419
0.160419
0.160419
0.160419
0.160419
0.160419
0.160419
0.160419
0.160419
0.160419
0.160419
0.160419
0.160419
0.160419
0.160419
0.160419
0.160419
0.160419
0.160419
0.160419
0.160419
0.160419
0.160419
0.160419
0.160419
0.160419
0.160419
0.160419
0.160419
0.160419
0.160419
0.160419
0.160419
0.160419
0.160419
0.160419
0.160419
0.160419
0.160419
0.160419
0.160419
0.16042
0.160421
0.160423
0.160429
0.131787
0.224836
0.201265
0.189684
0.203117
0.195253
0.17933
0.168846
0.163783
0.161687
0.160896
0.160594
0.160469
0.160418
0.160397
0.160388
0.160385
0.160383
0.160382
0.160382
0.160382
0.160382
0.160382
0.160382
0.160382
0.160382
0.160382
0.160382
0.160382
0.160382
0.160382
0.160382
0.160382
0.160382
0.160382
0.160382
0.160382
0.160382
0.160382
0.160382
0.160382
0.160382
0.160382
0.160382
0.160382
0.160382
0.160382
0.160382
0.160382
0.160382
0.160382
0.160382
0.160382
0.160382
0.160382
0.160382
0.160382
0.160382
0.160382
0.160382
0.160382
0.160382
0.160382
0.160382
0.160382
0.160382
0.160382
0.160382
0.160382
0.160382
0.160382
0.160382
0.160382
0.160382
0.160382
0.160382
0.160382
0.160382
0.160382
0.160382
0.160382
0.160382
0.160382
0.160382
0.160382
0.160382
0.160382
0.160382
0.160382
0.160382
0.160382
0.160382
0.160382
0.160382
0.160382
0.160382
0.160383
0.160383
0.160385
0.160389
0.193035
0.145121
0.186528
0.22313
0.227389
0.208351
0.184616
0.170675
0.164537
0.162012
0.160997
0.160601
0.160446
0.160387
0.160365
0.160357
0.160354
0.160352
0.160352
0.160352
0.160351
0.160351
0.160351
0.160351
0.160351
0.160351
0.160351
0.160351
0.160351
0.160351
0.160351
0.160351
0.160351
0.160351
0.160351
0.160351
0.160351
0.160351
0.160351
0.160351
0.160351
0.160351
0.160351
0.160351
0.160351
0.160351
0.160351
0.160351
0.160351
0.160351
0.160351
0.160351
0.160351
0.160351
0.160351
0.160351
0.160351
0.160351
0.160351
0.160351
0.160351
0.160351
0.160351
0.160351
0.160351
0.160351
0.160351
0.160351
0.160351
0.160351
0.160351
0.160351
0.160351
0.160351
0.160351
0.160351
0.160351
0.160351
0.160351
0.160351
0.160351
0.160351
0.160351
0.160351
0.160351
0.160351
0.160351
0.160351
0.160351
0.160351
0.160351
0.160351
0.160351
0.160351
0.160352
0.160352
0.160352
0.160353
0.160354
0.160357
0.130053
0.187796
0.182007
0.148536
0.166861
0.186994
0.180711
0.169214
0.163254
0.16122
0.160631
0.160453
0.160385
0.160356
0.160343
0.160338
0.160336
0.160335
0.160334
0.160334
0.160334
0.160334
0.160334
0.160334
0.160334
0.160334
0.160334
0.160334
0.160334
0.160334
0.160334
0.160334
0.160334
0.160334
0.160334
0.160334
0.160334
0.160334
0.160334
0.160334
0.160334
0.160334
0.160334
0.160334
0.160334
0.160334
0.160334
0.160334
0.160334
0.160334
0.160334
0.160334
0.160334
0.160334
0.160334
0.160334
0.160334
0.160334
0.160334
0.160334
0.160334
0.160334
0.160334
0.160334
0.160334
0.160334
0.160334
0.160334
0.160334
0.160334
0.160334
0.160334
0.160334
0.160334
0.160334
0.160334
0.160334
0.160334
0.160334
0.160334
0.160334
0.160334
0.160334
0.160334
0.160334
0.160334
0.160334
0.160334
0.160334
0.160334
0.160334
0.160334
0.160334
0.160334
0.160334
0.160334
0.160334
0.160335
0.160336
0.160338
0.170386
0.180422
0.181618
0.17919
0.164542
0.17075
0.175729
0.171272
0.165592
0.162361
0.161026
0.160556
0.160401
0.16035
0.160333
0.160327
0.160325
0.160325
0.160324
0.160324
0.160324
0.160324
0.160324
0.160324
0.160324
0.160324
0.160324
0.160324
0.160324
0.160324
0.160324
0.160324
0.160324
0.160324
0.160324
0.160324
0.160324
0.160324
0.160324
0.160324
0.160324
0.160324
0.160324
0.160324
0.160324
0.160324
0.160324
0.160324
0.160324
0.160324
0.160324
0.160324
0.160324
0.160324
0.160324
0.160324
0.160324
0.160324
0.160324
0.160324
0.160324
0.160324
0.160324
0.160324
0.160324
0.160324
0.160324
0.160324
0.160324
0.160324
0.160324
0.160324
0.160324
0.160324
0.160324
0.160324
0.160324
0.160324
0.160324
0.160324
0.160324
0.160324
0.160324
0.160324
0.160324
0.160324
0.160324
0.160324
0.160324
0.160324
0.160324
0.160324
0.160324
0.160324
0.160324
0.160324
0.160324
0.160325
0.160325
0.160327
0.159369
0.13039
0.178785
0.23708
0.228414
0.190118
0.168777
0.162665
0.161255
0.160776
0.160536
0.160414
0.160358
0.160334
0.160324
0.16032
0.160319
0.160318
0.160318
0.160318
0.160318
0.160318
0.160318
0.160318
0.160318
0.160318
0.160318
0.160318
0.160318
0.160318
0.160318
0.160318
0.160318
0.160318
0.160318
0.160318
0.160318
0.160318
0.160318
0.160318
0.160318
0.160318
0.160318
0.160318
0.160318
0.160318
0.160318
0.160318
0.160318
0.160318
0.160318
0.160318
0.160318
0.160318
0.160318
0.160318
0.160318
0.160318
0.160318
0.160318
0.160318
0.160318
0.160318
0.160318
0.160318
0.160318
0.160318
0.160318
0.160318
0.160318
0.160318
0.160318
0.160318
0.160318
0.160318
0.160318
0.160318
0.160318
0.160318
0.160318
0.160318
0.160318
0.160318
0.160318
0.160318
0.160318
0.160318
0.160318
0.160318
0.160318
0.160318
0.160318
0.160318
0.160318
0.160318
0.160318
0.160318
0.160318
0.160318
0.16032
0.169706
0.191193
0.143848
0.140755
0.187325
0.204415
0.190505
0.174375
0.1656
0.162075
0.160866
0.160482
0.160365
0.160329
0.160318
0.160314
0.160313
0.160312
0.160312
0.160312
0.160312
0.160312
0.160312
0.160312
0.160312
0.160312
0.160312
0.160312
0.160312
0.160312
0.160312
0.160312
0.160312
0.160312
0.160312
0.160312
0.160312
0.160312
0.160312
0.160312
0.160312
0.160312
0.160312
0.160312
0.160312
0.160312
0.160312
0.160312
0.160312
0.160312
0.160312
0.160312
0.160312
0.160312
0.160312
0.160312
0.160312
0.160312
0.160312
0.160312
0.160312
0.160312
0.160312
0.160312
0.160312
0.160312
0.160312
0.160312
0.160312
0.160312
0.160312
0.160312
0.160312
0.160312
0.160312
0.160312
0.160312
0.160312
0.160312
0.160312
0.160312
0.160312
0.160312
0.160312
0.160312
0.160312
0.160312
0.160312
0.160312
0.160312
0.160312
0.160312
0.160312
0.160312
0.160312
0.160312
0.160312
0.160312
0.160313
0.160313
0.155982
0.151286
0.190221
0.19552
0.176027
0.16865
0.167551
0.165328
0.162901
0.161406
0.160718
0.160451
0.160356
0.160324
0.160314
0.160311
0.16031
0.16031
0.16031
0.16031
0.16031
0.16031
0.16031
0.16031
0.16031
0.16031
0.16031
0.16031
0.16031
0.16031
0.16031
0.16031
0.16031
0.16031
0.16031
0.16031
0.16031
0.16031
0.16031
0.16031
0.16031
0.16031
0.16031
0.16031
0.16031
0.16031
0.16031
0.16031
0.16031
0.16031
0.16031
0.16031
0.16031
0.16031
0.16031
0.16031
0.16031
0.16031
0.16031
0.16031
0.16031
0.16031
0.16031
0.16031
0.16031
0.16031
0.16031
0.16031
0.16031
0.16031
0.16031
0.16031
0.16031
0.16031
0.16031
0.16031
0.16031
0.16031
0.16031
0.16031
0.16031
0.16031
0.16031
0.16031
0.16031
0.16031
0.16031
0.16031
0.16031
0.16031
0.16031
0.16031
0.16031
0.16031
0.16031
0.16031
0.16031
0.16031
0.16031
0.160309
0.1651
0.165804
0.155736
0.174463
0.192627
0.189247
0.177475
0.168408
0.163627
0.161548
0.160743
0.160454
0.160355
0.160323
0.160313
0.16031
0.160309
0.160309
0.160309
0.160309
0.160309
0.160309
0.160309
0.160309
0.160309
0.160309
0.160309
0.160309
0.160309
0.160309
0.160309
0.160309
0.160309
0.160309
0.160309
0.160309
0.160309
0.160309
0.160309
0.160309
0.160309
0.160309
0.160309
0.160309
0.160309
0.160309
0.160309
0.160309
0.160309
0.160309
0.160309
0.160309
0.160309
0.160309
0.160309
0.160309
0.160309
0.160309
0.160309
0.160309
0.160309
0.160309
0.160309
0.160309
0.160309
0.160309
0.160309
0.160309
0.160309
0.160309
0.160309
0.160309
0.160309
0.160309
0.160309
0.160309
0.160309
0.160309
0.160309
0.160309
0.160309
0.160309
0.160309
0.160309
0.160309
0.160309
0.160309
0.160309
0.160309
0.160309
0.160309
0.160309
0.160309
0.160309
0.160309
0.160308
0.160308
0.160308
0.160308
0.160307
0.16162
0.161051
0.168361
0.177788
0.182695
0.180353
0.173378
0.16696
0.163156
0.161395
0.16069
0.160432
0.160343
0.160314
0.160305
0.160303
0.160302
0.160302
0.160302
0.160302
0.160302
0.160302
0.160302
0.160302
0.160302
0.160302
0.160302
0.160302
0.160302
0.160302
0.160302
0.160302
0.160302
0.160302
0.160302
0.160302
0.160302
0.160302
0.160302
0.160302
0.160302
0.160302
0.160302
0.160302
0.160302
0.160302
0.160302
0.160302
0.160302
0.160302
0.160302
0.160302
0.160302
0.160302
0.160302
0.160302
0.160302
0.160302
0.160302
0.160302
0.160302
0.160302
0.160302
0.160302
0.160302
0.160302
0.160302
0.160302
0.160302
0.160302
0.160302
0.160302
0.160302
0.160302
0.160302
0.160302
0.160302
0.160302
0.160302
0.160302
0.160302
0.160302
0.160302
0.160302
0.160302
0.160302
0.160302
0.160302
0.160302
0.160302
0.160302
0.160302
0.160302
0.160302
0.160302
0.160302
0.160302
0.160301
0.160302
0.1603
0.162822
0.161711
0.163052
0.176526