/*--------------------------------*- C++ -*----------------------------------*\
| =========                 |                                                 |
| \\      /  F ield         | OpenFOAM: The Open Source CFD Toolbox           |
|  \\    /   O peration     | Version:  v2012                                 |
|   \\  /    A nd           | Website:  www.openfoam.com                      |
|    \\/     M anipulation  |                                                 |
\*---------------------------------------------------------------------------*/
FoamFile
{
    version     2.0;
    format      ascii;
    class       volVectorField;
    location    "0.007";
    object      U.air;
}
// * * * * * * * * * * * * * * * * * * * * * * * * * * * * * * * * * * * * * //

dimensions      [0 1 -1 0 0 0 0];


internalField   nonuniform List<vector> 
1900
(
(39.9931 2.35033e-05 0)
(39.9872 0.00124639 0)
(39.9757 0.00189217 0)
(39.9601 0.00262867 0)
(39.9328 0.00374887 0)
(39.9109 0.00756441 0)
(39.8121 0.0149554 0)
(39.7893 0.0413438 0)
(39.182 0.077364 0)
(39.8044 0.363016 0)
(39.9883 0.00199112 0)
(39.9953 0.00478034 0)
(39.9975 0.00645379 0)
(39.996 0.00928917 0)
(39.9891 0.0132054 0)
(39.9749 0.0258531 0)
(39.9341 0.0405501 0)
(39.8616 0.113979 0)
(39.6666 0.222588 0)
(39.5552 0.884529 0)
(39.9881 0.00201457 0)
(39.995 0.00318483 0)
(39.9973 0.00443593 0)
(39.9964 0.00756046 0)
(39.9918 0.013909 0)
(39.981 0.0293664 0)
(39.9554 0.0598504 0)
(39.9053 0.144135 0)
(39.8527 0.339391 0)
(39.831 0.831227 0)
(39.988 0.00297776 0)
(39.9946 0.00338937 0)
(39.9977 0.00480664 0)
(39.9981 0.00881302 0)
(39.9962 0.0172237 0)
(39.991 0.0359147 0)
(39.9803 0.0747198 0)
(39.9626 0.164918 0)
(39.9813 0.360691 0)
(40.064 0.716464 0)
(40.0019 0.000388316 0)
(40.011 0.00169864 0)
(40.0151 0.00356396 0)
(40.0169 0.00788815 0)
(40.0181 0.016974 0)
(40.0192 0.0365212 0)
(40.0226 0.0774355 0)
(40.0333 0.162532 0)
(40.0953 0.33355 0)
(40.2388 0.588239 0)
(39.9881 -0.00126872 0)
(39.9946 -0.000106497 0)
(39.9994 0.00220575 0)
(40.0026 0.00692981 0)
(40.0068 0.0163366 0)
(40.0141 0.0353665 0)
(40.0299 0.0738353 0)
(40.0633 0.148158 0)
(40.1537 0.286555 0)
(40.3293 0.47207 0)
(39.9883 -0.000490325 0)
(39.9948 -0.000591295 0)
(40.0005 0.000575862 0)
(40.0064 0.00423656 0)
(40.016 0.012228 0)
(40.0322 0.0286028 0)
(40.0609 0.0613266 0)
(40.1134 0.12174 0)
(40.2233 0.227182 0)
(40.414 0.358977 0)
(39.9881 0.000231225 0)
(39.9951 -0.00126332 0)
(40.0015 -0.00124396 0)
(40.0074 0.00125467 0)
(40.0166 0.00728894 0)
(40.0337 0.0198179 0)
(40.067 0.0444698 0)
(40.1296 0.0886632 0)
(40.2505 0.162005 0)
(40.4476 0.249807 0)
(40.0021 -0.0013335 0)
(40.012 -0.00449189 0)
(40.0197 -0.00474022 0)
(40.0268 -0.00263024 0)
(40.0378 0.00170728 0)
(40.0579 0.0101352 0)
(40.0962 0.0257064 0)
(40.1656 0.0527577 0)
(40.292 0.0956416 0)
(40.4876 0.146513 0)
(39.9912 -0.00296568 0)
(39.9848 -0.00532862 0)
(39.9759 -0.00639469 0)
(39.9653 -0.00667714 0)
(39.9583 -0.00525297 0)
(39.9623 -0.00356509 0)
(39.9852 0.00104401 0)
(40.0397 0.00983904 0)
(40.1532 0.0234833 0)
(40.3263 0.0405872 0)
(34.2516 2.2474 0)
(34.5658 1.23318 0)
(37.5527 -1.65229 0)
(39.5976 -6.56887 0)
(37.2407 -9.51968 0)
(32.5055 -8.9101 0)
(29.004 -6.57117 0)
(27.2504 -4.30357 0)
(26.4919 -2.67062 0)
(26.1677 -1.65811 0)
(25.9958 -1.06442 0)
(25.8734 -0.734529 0)
(25.7737 -0.573796 0)
(25.6918 -0.507493 0)
(25.6329 -0.480122 0)
(25.6019 -0.448813 0)
(25.5964 -0.390869 0)
(25.595 -0.306338 0)
(25.5755 -0.20818 0)
(25.5359 -0.110961 0)
(25.4868 -0.0308373 0)
(25.4294 0.0232119 0)
(25.3616 0.0491111 0)
(25.2909 0.052847 0)
(25.2275 0.0446704 0)
(25.1765 0.0329209 0)
(25.1385 0.022102 0)
(25.1115 0.0137034 0)
(25.0932 0.00781507 0)
(25.0812 0.00400593 0)
(25.0736 0.0016988 0)
(25.0689 0.00047456 0)
(25.0661 -9.97229e-05 0)
(25.0645 -0.000492998 0)
(25.0635 -0.000758838 0)
(25.063 -0.000917012 0)
(25.0627 -0.00101072 0)
(25.0626 -0.00106279 0)
(25.0625 -0.00108997 0)
(25.0625 -0.00110381 0)
(25.0625 -0.00110959 0)
(25.0624 -0.00111232 0)
(25.0624 -0.00111317 0)
(25.0624 -0.00111331 0)
(25.0624 -0.00111323 0)
(25.0624 -0.00111306 0)
(25.0624 -0.00111287 0)
(25.0624 -0.00111258 0)
(25.0624 -0.00111234 0)
(25.0624 -0.00111207 0)
(25.0624 -0.00111184 0)
(25.0624 -0.00111169 0)
(25.0624 -0.00111165 0)
(25.0624 -0.00111169 0)
(25.0624 -0.00111183 0)
(25.0624 -0.00111192 0)
(25.0624 -0.00111195 0)
(25.0624 -0.00111193 0)
(25.0624 -0.00111195 0)
(25.0624 -0.00111201 0)
(25.0624 -0.00111207 0)
(25.0624 -0.00111206 0)
(25.0624 -0.00111201 0)
(25.0624 -0.00111194 0)
(25.0624 -0.00111194 0)
(25.0624 -0.001112 0)
(25.0624 -0.00111207 0)
(25.0624 -0.00111214 0)
(25.0624 -0.00111218 0)
(25.0624 -0.0011122 0)
(25.0624 -0.0011122 0)
(25.0624 -0.00111218 0)
(25.0624 -0.00111214 0)
(25.0624 -0.00111209 0)
(25.0624 -0.00111201 0)
(25.0624 -0.00111192 0)
(25.0624 -0.00111184 0)
(25.0624 -0.00111179 0)
(25.0624 -0.00111179 0)
(25.0624 -0.00111184 0)
(25.0624 -0.00111192 0)
(25.0624 -0.001112 0)
(25.0624 -0.00111209 0)
(25.0624 -0.00111221 0)
(25.0624 -0.00111241 0)
(25.0624 -0.00111274 0)
(25.0624 -0.00111329 0)
(25.0624 -0.00111425 0)
(25.0624 -0.00111602 0)
(25.0624 -0.00111945 0)
(25.0624 -0.00112624 0)
(25.0624 -0.00113947 0)
(25.0624 -0.0011653 0)
(25.0625 -0.00121469 0)
(25.0625 -0.00131023 0)
(25.0626 -0.00149381 0)
(25.0627 -0.00183402 0)
(25.0629 -0.00256248 0)
(25.0631 -0.00347496 0)
(25.0641 -0.00731801 0)
(40.2613 2.9583 0)
(42.3133 2.06383 0)
(44.011 -1.25338 0)
(42.845 -5.96881 0)
(38.4555 -8.4538 0)
(33.0389 -7.70165 0)
(29.5579 -5.7822 0)
(27.7285 -3.89072 0)
(26.8308 -2.47321 0)
(26.3868 -1.56019 0)
(26.1354 -1.00851 0)
(25.9674 -0.696733 0)
(25.8452 -0.54544 0)
(25.7502 -0.485701 0)
(25.6754 -0.46398 0)
(25.6211 -0.438352 0)
(25.584 -0.383441 0)
(25.5512 -0.297391 0)
(25.5103 -0.195339 0)
(25.4641 -0.0969669 0)
(25.4186 -0.0158843 0)
(25.372 0.0399339 0)
(25.3184 0.0670943 0)
(25.2603 0.0699723 0)
(25.207 0.0591445 0)
(25.1638 0.0440554 0)
(25.1313 0.0301761 0)
(25.1079 0.0192987 0)
(25.0917 0.0115324 0)
(25.0809 0.0063562 0)
(25.0738 0.00307735 0)
(25.0694 0.00105681 0)
(25.0666 -0.000200206 0)
(25.0649 -0.000944451 0)
(25.064 -0.00116586 0)
(25.0634 -0.00119655 0)
(25.0631 -0.00117101 0)
(25.0629 -0.00113361 0)
(25.0628 -0.00110032 0)
(25.0628 -0.00107573 0)
(25.0627 -0.00105868 0)
(25.0627 -0.00104794 0)
(25.0627 -0.00104128 0)
(25.0627 -0.0010374 0)
(25.0627 -0.00103511 0)
(25.0627 -0.00103371 0)
(25.0627 -0.00103294 0)
(25.0627 -0.00103247 0)
(25.0627 -0.00103209 0)
(25.0627 -0.00103177 0)
(25.0627 -0.00103153 0)
(25.0627 -0.0010314 0)
(25.0627 -0.00103135 0)
(25.0627 -0.00103139 0)
(25.0627 -0.00103152 0)
(25.0627 -0.00103171 0)
(25.0627 -0.00103187 0)
(25.0627 -0.00103195 0)
(25.0627 -0.00103201 0)
(25.0627 -0.00103205 0)
(25.0627 -0.00103204 0)
(25.0627 -0.00103192 0)
(25.0627 -0.00103174 0)
(25.0627 -0.00103158 0)
(25.0627 -0.00103149 0)
(25.0627 -0.00103149 0)
(25.0627 -0.0010315 0)
(25.0627 -0.00103151 0)
(25.0627 -0.00103151 0)
(25.0627 -0.00103152 0)
(25.0627 -0.00103152 0)
(25.0627 -0.00103147 0)
(25.0627 -0.00103139 0)
(25.0627 -0.00103134 0)
(25.0627 -0.00103136 0)
(25.0627 -0.00103148 0)
(25.0627 -0.00103165 0)
(25.0627 -0.00103179 0)
(25.0627 -0.00103189 0)
(25.0627 -0.00103195 0)
(25.0627 -0.00103195 0)
(25.0627 -0.00103192 0)
(25.0627 -0.00103187 0)
(25.0627 -0.00103182 0)
(25.0627 -0.00103184 0)
(25.0627 -0.00103203 0)
(25.0627 -0.00103254 0)
(25.0627 -0.00103355 0)
(25.0627 -0.00103545 0)
(25.0627 -0.00103908 0)
(25.0627 -0.00104615 0)
(25.0627 -0.00105984 0)
(25.0627 -0.0010864 0)
(25.0627 -0.00113715 0)
(25.0627 -0.0012354 0)
(25.0627 -0.00142546 0)
(25.0628 -0.00177792 0)
(25.0628 -0.00253459 0)
(25.0629 -0.00348073 0)
(25.0632 -0.00739686 0)
(40.7627 2.29475 0)
(42.7814 1.34932 0)
(43.9163 -1.7089 0)
(42.3539 -5.37478 0)
(38.233 -7.11171 0)
(33.3301 -6.55608 0)
(30.0342 -5.0451 0)
(28.183 -3.48728 0)
(27.1698 -2.26127 0)
(26.6174 -1.44377 0)
(26.2896 -0.938315 0)
(26.0723 -0.649857 0)
(25.9175 -0.510619 0)
(25.7964 -0.458533 0)
(25.6961 -0.443471 0)
(25.6121 -0.422931 0)
(25.5394 -0.370843 0)
(25.4726 -0.28486 0)
(25.4109 -0.181756 0)
(25.3615 -0.0838779 0)
(25.3243 -0.00339367 0)
(25.2933 0.0529303 0)
(25.26 0.0821885 0)
(25.2194 0.0857899 0)
(25.1788 0.0727639 0)
(25.1453 0.0548595 0)
(25.1198 0.0383461 0)
(25.1011 0.0253 0)
(25.0878 0.0158894 0)
(25.0787 0.00955753 0)
(25.0726 0.00554657 0)
(25.0687 0.00314846 0)
(25.0663 0.00183181 0)
(25.0648 0.00121314 0)
(25.064 0.000814337 0)
(25.0634 0.000474844 0)
(25.0631 0.000268005 0)
(25.0629 0.000152241 0)
(25.0628 9.06179e-05 0)
(25.0628 5.95152e-05 0)
(25.0627 4.43257e-05 0)
(25.0627 3.74661e-05 0)
(25.0627 3.44372e-05 0)
(25.0627 3.31492e-05 0)
(25.0627 3.28668e-05 0)
(25.0627 3.2878e-05 0)
(25.0627 3.2867e-05 0)
(25.0627 3.30286e-05 0)
(25.0627 3.3358e-05 0)
(25.0627 3.36418e-05 0)
(25.0627 3.3862e-05 0)
(25.0627 3.39965e-05 0)
(25.0627 3.40723e-05 0)
(25.0627 3.40615e-05 0)
(25.0627 3.39894e-05 0)
(25.0627 3.3886e-05 0)
(25.0627 3.38309e-05 0)
(25.0627 3.384e-05 0)
(25.0627 3.38697e-05 0)
(25.0627 3.38675e-05 0)
(25.0627 3.38364e-05 0)
(25.0627 3.38162e-05 0)
(25.0627 3.38049e-05 0)
(25.0627 3.37538e-05 0)
(25.0627 3.3642e-05 0)
(25.0627 3.3504e-05 0)
(25.0627 3.33954e-05 0)
(25.0627 3.33326e-05 0)
(25.0627 3.33046e-05 0)
(25.0627 3.32971e-05 0)
(25.0627 3.32773e-05 0)
(25.0627 3.32757e-05 0)
(25.0627 3.33193e-05 0)
(25.0627 3.3417e-05 0)
(25.0627 3.35652e-05 0)
(25.0627 3.37494e-05 0)
(25.0627 3.39412e-05 0)
(25.0627 3.41009e-05 0)
(25.0627 3.41879e-05 0)
(25.0627 3.41651e-05 0)
(25.0627 3.40177e-05 0)
(25.0627 3.38173e-05 0)
(25.0627 3.36102e-05 0)
(25.0627 3.3371e-05 0)
(25.0627 3.3058e-05 0)
(25.0627 3.26055e-05 0)
(25.0627 3.19186e-05 0)
(25.0627 3.07922e-05 0)
(25.0627 2.87611e-05 0)
(25.0627 2.48493e-05 0)
(25.0627 1.70883e-05 0)
(25.0627 1.8405e-06 0)
(25.0627 -2.80421e-05 0)
(25.0627 -8.5304e-05 0)
(25.0627 -0.000195418 0)
(25.0627 -0.0004057 0)
(25.0626 -0.000788226 0)
(25.0626 -0.00159072 0)
(25.0625 -0.0025792 0)
(25.0622 -0.00659753 0)
(40.8328 1.56286 0)
(42.4148 0.812922 0)
(43.2113 -1.50626 0)
(41.7194 -4.3044 0)
(38.0616 -5.83045 0)
(33.651 -5.53854 0)
(30.4726 -4.34485 0)
(28.5887 -3.0582 0)
(27.4746 -2.01056 0)
(26.826 -1.29505 0)
(26.4307 -0.8453 0)
(26.1711 -0.587057 0)
(25.9865 -0.463517 0)
(25.838 -0.420401 0)
(25.7099 -0.410848 0)
(25.593 -0.393397 0)
(25.4827 -0.343713 0)
(25.3803 -0.261259 0)
(25.2969 -0.165576 0)
(25.2393 -0.0750107 0)
(25.205 0.00116762 0)
(25.1856 0.0560284 0)
(25.1722 0.0855572 0)
(25.1556 0.0922108 0)
(25.1348 0.0797546 0)
(25.1153 0.0603193 0)
(25.1002 0.042367 0)
(25.0889 0.0279762 0)
(25.0805 0.0173886 0)
(25.0745 0.0100409 0)
(25.0704 0.00515323 0)
(25.0677 0.00199757 0)
(25.0658 9.50169e-06 0)
(25.0645 -0.00123844 0)
(25.0637 -0.00192454 0)
(25.0633 -0.00220191 0)
(25.063 -0.00228167 0)
(25.0629 -0.00230485 0)
(25.0628 -0.00230745 0)
(25.0628 -0.00230346 0)
(25.0627 -0.00229862 0)
(25.0627 -0.0022945 0)
(25.0627 -0.0022916 0)
(25.0627 -0.00228978 0)
(25.0627 -0.00228857 0)
(25.0627 -0.00228778 0)
(25.0627 -0.00228739 0)
(25.0627 -0.00228717 0)
(25.0627 -0.00228688 0)
(25.0627 -0.00228662 0)
(25.0627 -0.00228647 0)
(25.0627 -0.00228637 0)
(25.0627 -0.0022863 0)
(25.0627 -0.00228629 0)
(25.0627 -0.00228638 0)
(25.0627 -0.00228653 0)
(25.0627 -0.00228667 0)
(25.0627 -0.00228673 0)
(25.0627 -0.00228673 0)
(25.0627 -0.00228672 0)
(25.0627 -0.0022867 0)
(25.0627 -0.00228665 0)
(25.0627 -0.00228654 0)
(25.0627 -0.00228644 0)
(25.0627 -0.00228641 0)
(25.0627 -0.00228645 0)
(25.0627 -0.00228649 0)
(25.0627 -0.00228652 0)
(25.0627 -0.00228653 0)
(25.0627 -0.00228654 0)
(25.0627 -0.00228656 0)
(25.0627 -0.00228656 0)
(25.0627 -0.00228652 0)
(25.0627 -0.00228648 0)
(25.0627 -0.00228647 0)
(25.0627 -0.0022865 0)
(25.0627 -0.00228653 0)
(25.0627 -0.00228655 0)
(25.0627 -0.00228654 0)
(25.0627 -0.00228655 0)
(25.0627 -0.00228658 0)
(25.0627 -0.00228662 0)
(25.0627 -0.00228664 0)
(25.0627 -0.00228668 0)
(25.0627 -0.00228678 0)
(25.0627 -0.00228702 0)
(25.0627 -0.00228751 0)
(25.0627 -0.00228842 0)
(25.0627 -0.00229009 0)
(25.0627 -0.00229323 0)
(25.0627 -0.00229934 0)
(25.0627 -0.00231121 0)
(25.0627 -0.00233439 0)
(25.0627 -0.00237892 0)
(25.0626 -0.0024657 0)
(25.0625 -0.00263445 0)
(25.0624 -0.00295201 0)
(25.0622 -0.00364389 0)
(25.062 -0.00452321 0)
(25.061 -0.00826801 0)
(40.863 1.12026 0)
(42.0423 0.601462 0)
(42.5566 -1.22046 0)
(41.1565 -3.51101 0)
(37.891 -4.80471 0)
(33.8968 -4.60974 0)
(30.8098 -3.64999 0)
(28.914 -2.60942 0)
(27.7298 -1.73995 0)
(27.0067 -1.13204 0)
(26.5573 -0.744332 0)
(26.2628 -0.520333 0)
(26.0525 -0.413708 0)
(25.8798 -0.378436 0)
(25.7253 -0.372235 0)
(25.5765 -0.355807 0)
(25.431 -0.306588 0)
(25.2992 -0.227028 0)
(25.1973 -0.13632 0)
(25.1324 -0.0524867 0)
(25.1001 0.01654 0)
(25.0886 0.0669234 0)
(25.0861 0.0932207 0)
(25.0859 0.0974832 0)
(25.0847 0.0855686 0)
(25.082 0.0656287 0)
(25.0785 0.0467636 0)
(25.075 0.0318474 0)
(25.0718 0.0209673 0)
(25.0691 0.013515 0)
(25.067 0.00868113 0)
(25.0655 0.00569554 0)
(25.0645 0.0039443 0)
(25.0638 0.00296304 0)
(25.0635 0.00239789 0)
(25.0632 0.00206569 0)
(25.063 0.00181258 0)
(25.0629 0.00165987 0)
(25.0628 0.00157557 0)
(25.0628 0.00153116 0)
(25.0628 0.00150845 0)
(25.0627 0.00149728 0)
(25.0627 0.00149197 0)
(25.0627 0.00148945 0)
(25.0627 0.00148834 0)
(25.0627 0.00148794 0)
(25.0627 0.00148775 0)
(25.0627 0.00148772 0)
(25.0627 0.00148792 0)
(25.0627 0.00148814 0)
(25.0627 0.00148825 0)
(25.0627 0.00148832 0)
(25.0627 0.0014884 0)
(25.0627 0.00148842 0)
(25.0627 0.00148839 0)
(25.0627 0.00148836 0)
(25.0627 0.00148835 0)
(25.0627 0.00148839 0)
(25.0627 0.00148843 0)
(25.0627 0.00148844 0)
(25.0627 0.00148841 0)
(25.0627 0.00148834 0)
(25.0627 0.00148826 0)
(25.0627 0.00148814 0)
(25.0627 0.00148799 0)
(25.0627 0.00148784 0)
(25.0627 0.00148774 0)
(25.0627 0.00148769 0)
(25.0627 0.00148767 0)
(25.0627 0.00148764 0)
(25.0627 0.0014876 0)
(25.0627 0.00148756 0)
(25.0627 0.00148759 0)
(25.0627 0.00148769 0)
(25.0627 0.00148789 0)
(25.0627 0.00148815 0)
(25.0627 0.00148842 0)
(25.0627 0.00148864 0)
(25.0627 0.00148877 0)
(25.0627 0.00148875 0)
(25.0627 0.00148858 0)
(25.0627 0.00148833 0)
(25.0627 0.00148806 0)
(25.0627 0.00148777 0)
(25.0627 0.00148742 0)
(25.0627 0.00148696 0)
(25.0627 0.00148631 0)
(25.0627 0.00148528 0)
(25.0627 0.00148347 0)
(25.0627 0.00147997 0)
(25.0627 0.00147298 0)
(25.0627 0.00145919 0)
(25.0627 0.00143192 0)
(25.0627 0.00137972 0)
(25.0626 0.00127821 0)
(25.0625 0.00108522 0)
(25.0624 0.000728818 0)
(25.062 -2.00321e-05 0)
(25.0617 -0.000937982 0)
(25.0602 -0.00483976 0)
(40.8538 0.805097 0)
(41.7292 0.403428 0)
(42.0208 -1.02451 0)
(40.7049 -2.80561 0)
(37.755 -3.82071 0)
(34.0934 -3.6971 0)
(31.0838 -2.9614 0)
(29.1859 -2.15032 0)
(27.9513 -1.45084 0)
(27.1674 -0.949674 0)
(26.6705 -0.626704 0)
(26.3422 -0.440498 0)
(26.1043 -0.354485 0)
(25.9067 -0.330651 0)
(25.7237 -0.329875 0)
(25.541 -0.316168 0)
(25.3616 -0.272009 0)
(25.2045 -0.202949 0)
(25.0872 -0.126131 0)
(25.0158 -0.0549661 0)
(24.985 0.00744729 0)
(24.9812 0.0554448 0)
(24.9884 0.0825665 0)
(25.0035 0.0897485 0)
(25.0237 0.0786408 0)
(25.0408 0.060219 0)
(25.0517 0.0426791 0)
(25.058 0.0282563 0)
(25.0613 0.0173977 0)
(25.0629 0.0096873 0)
(25.0636 0.00444791 0)
(25.0637 0.00101705 0)
(25.0637 -0.00113259 0)
(25.0634 -0.00241301 0)
(25.0631 -0.00316321 0)
(25.0629 -0.00360595 0)
(25.0628 -0.00382023 0)
(25.0628 -0.00391365 0)
(25.0627 -0.00395768 0)
(25.0627 -0.00397746 0)
(25.0627 -0.00398605 0)
(25.0627 -0.00398948 0)
(25.0627 -0.0039906 0)
(25.0627 -0.00399085 0)
(25.0627 -0.00399085 0)
(25.0627 -0.0039907 0)
(25.0627 -0.00399058 0)
(25.0627 -0.00399047 0)
(25.0627 -0.00399027 0)
(25.0627 -0.00399007 0)
(25.0627 -0.00398996 0)
(25.0627 -0.00398989 0)
(25.0627 -0.00398981 0)
(25.0627 -0.00398979 0)
(25.0627 -0.00398985 0)
(25.0627 -0.00398993 0)
(25.0627 -0.00398998 0)
(25.0627 -0.00398999 0)
(25.0627 -0.00398996 0)
(25.0627 -0.00398994 0)
(25.0627 -0.00398994 0)
(25.0627 -0.00398994 0)
(25.0627 -0.00398995 0)
(25.0627 -0.00398996 0)
(25.0627 -0.00399002 0)
(25.0627 -0.00399011 0)
(25.0627 -0.00399018 0)
(25.0627 -0.00399022 0)
(25.0627 -0.00399024 0)
(25.0627 -0.00399025 0)
(25.0627 -0.00399027 0)
(25.0627 -0.00399029 0)
(25.0627 -0.00399027 0)
(25.0627 -0.00399022 0)
(25.0627 -0.00399013 0)
(25.0627 -0.00399002 0)
(25.0627 -0.0039899 0)
(25.0627 -0.00398979 0)
(25.0627 -0.00398974 0)
(25.0627 -0.00398975 0)
(25.0627 -0.00398981 0)
(25.0627 -0.00398993 0)
(25.0627 -0.00399006 0)
(25.0627 -0.00399022 0)
(25.0627 -0.00399042 0)
(25.0627 -0.00399072 0)
(25.0627 -0.00399118 0)
(25.0627 -0.00399194 0)
(25.0627 -0.00399331 0)
(25.0627 -0.00399594 0)
(25.0627 -0.0040011 0)
(25.0627 -0.00401121 0)
(25.0627 -0.00403105 0)
(25.0626 -0.00406896 0)
(25.0625 -0.00414253 0)
(25.0624 -0.00428253 0)
(25.0622 -0.00454605 0)
(25.0616 -0.0051118 0)
(25.0611 -0.00584289 0)
(25.0588 -0.0091714 0)
(40.8596 0.557437 0)
(41.515 0.248018 0)
(41.6386 -0.806214 0)
(40.3784 -2.12971 0)
(37.6576 -2.90927 0)
(34.2508 -2.84741 0)
(31.3 -2.3056 0)
(29.3969 -1.69531 0)
(28.1214 -1.15317 0)
(27.2842 -0.754403 0)
(26.7451 -0.494118 0)
(26.3865 -0.343544 0)
(26.1243 -0.274428 0)
(25.9021 -0.255396 0)
(25.6877 -0.253054 0)
(25.4698 -0.237383 0)
(25.2599 -0.195736 0)
(25.0826 -0.134759 0)
(24.956 -0.0700565 0)
(24.884 -0.0134862 0)
(24.8567 0.0336173 0)
(24.8606 0.0711823 0)
(24.8861 0.0920698 0)
(24.9245 0.092045 0)
(24.9655 0.0783312 0)
(24.9987 0.0608357 0)
(25.0224 0.0447584 0)
(25.0383 0.0318004 0)
(25.0484 0.0221563 0)
(25.0546 0.0153952 0)
(25.0582 0.0108756 0)
(25.0602 0.00795281 0)
(25.0614 0.00611011 0)
(25.0621 0.00490576 0)
(25.0625 0.00421567 0)
(25.0627 0.00386905 0)
(25.0628 0.00369755 0)
(25.0628 0.00358919 0)
(25.0628 0.00352875 0)
(25.0627 0.00349673 0)
(25.0627 0.00348002 0)
(25.0627 0.0034714 0)
(25.0627 0.00346706 0)
(25.0627 0.00346486 0)
(25.0627 0.00346369 0)
(25.0627 0.00346312 0)
(25.0627 0.00346287 0)
(25.0627 0.00346272 0)
(25.0627 0.00346272 0)
(25.0627 0.0034628 0)
(25.0627 0.00346282 0)
(25.0627 0.00346282 0)
(25.0627 0.00346287 0)
(25.0627 0.00346291 0)
(25.0627 0.00346291 0)
(25.0627 0.0034629 0)
(25.0627 0.0034629 0)
(25.0627 0.00346293 0)
(25.0627 0.00346296 0)
(25.0627 0.00346297 0)
(25.0627 0.00346295 0)
(25.0627 0.00346291 0)
(25.0627 0.00346285 0)
(25.0627 0.00346278 0)
(25.0627 0.00346269 0)
(25.0627 0.00346261 0)
(25.0627 0.00346255 0)
(25.0627 0.00346252 0)
(25.0627 0.00346251 0)
(25.0627 0.00346247 0)
(25.0627 0.00346243 0)
(25.0627 0.00346239 0)
(25.0627 0.00346239 0)
(25.0627 0.00346246 0)
(25.0627 0.00346259 0)
(25.0627 0.00346277 0)
(25.0627 0.00346294 0)
(25.0627 0.00346307 0)
(25.0627 0.00346315 0)
(25.0627 0.00346315 0)
(25.0627 0.00346307 0)
(25.0627 0.00346294 0)
(25.0627 0.00346277 0)
(25.0627 0.00346257 0)
(25.0627 0.00346233 0)
(25.0627 0.00346203 0)
(25.0627 0.00346161 0)
(25.0627 0.00346098 0)
(25.0627 0.00345988 0)
(25.0627 0.00345774 0)
(25.0627 0.00345345 0)
(25.0627 0.003445 0)
(25.0627 0.00342799 0)
(25.0626 0.00339581 0)
(25.0626 0.00332989 0)
(25.0624 0.00320737 0)
(25.0622 0.0029556 0)
(25.0615 0.00242908 0)
(25.061 0.00176525 0)
(25.0582 -0.00157476 0)
(40.8397 0.362455 0)
(41.3465 0.141513 0)
(41.3519 -0.582438 0)
(40.1317 -1.50353 0)
(37.574 -2.05985 0)
(34.3489 -2.0307 0)
(31.4274 -1.65839 0)
(29.5073 -1.23923 0)
(28.194 -0.860248 0)
(27.3097 -0.575511 0)
(26.738 -0.389771 0)
(26.3585 -0.285039 0)
(26.0785 -0.240388 0)
(25.8376 -0.230988 0)
(25.6004 -0.230148 0)
(25.3587 -0.215848 0)
(25.1296 -0.181056 0)
(24.9395 -0.132891 0)
(24.8056 -0.0831526 0)
(24.7304 -0.038468 0)
(24.705 0.00355084 0)
(24.722 0.0401572 0)
(24.7708 0.0594657 0)
(24.8358 0.0616009 0)
(24.8994 0.052618 0)
(24.9511 0.0396881 0)
(24.9895 0.0272563 0)
(25.0165 0.0169296 0)
(25.0345 0.00906507 0)
(25.0461 0.00345476 0)
(25.0533 -0.000329401 0)
(25.0576 -0.00273836 0)
(25.0599 -0.00411837 0)
(25.0612 -0.00482179 0)
(25.0619 -0.00531241 0)
(25.0623 -0.0056671 0)
(25.0625 -0.00592044 0)
(25.0626 -0.00606836 0)
(25.0626 -0.00615032 0)
(25.0627 -0.00619459 0)
(25.0627 -0.00621785 0)
(25.0627 -0.00622969 0)
(25.0627 -0.00623541 0)
(25.0627 -0.0062381 0)
(25.0627 -0.00623942 0)
(25.0627 -0.00624001 0)
(25.0627 -0.00624017 0)
(25.0627 -0.00624016 0)
(25.0627 -0.00624004 0)
(25.0627 -0.00623987 0)
(25.0627 -0.00623977 0)
(25.0627 -0.0062397 0)
(25.0627 -0.00623963 0)
(25.0627 -0.0062396 0)
(25.0627 -0.00623962 0)
(25.0627 -0.00623963 0)
(25.0627 -0.0062396 0)
(25.0627 -0.00623954 0)
(25.0627 -0.00623949 0)
(25.0627 -0.00623949 0)
(25.0627 -0.00623953 0)
(25.0627 -0.0062396 0)
(25.0627 -0.0062397 0)
(25.0627 -0.00623984 0)
(25.0627 -0.00624001 0)
(25.0627 -0.00624016 0)
(25.0627 -0.00624025 0)
(25.0627 -0.00624029 0)
(25.0627 -0.0062403 0)
(25.0627 -0.00624032 0)
(25.0627 -0.00624036 0)
(25.0627 -0.0062404 0)
(25.0627 -0.00624037 0)
(25.0627 -0.00624024 0)
(25.0627 -0.00624003 0)
(25.0627 -0.00623979 0)
(25.0627 -0.00623954 0)
(25.0627 -0.00623935 0)
(25.0627 -0.00623927 0)
(25.0627 -0.00623929 0)
(25.0627 -0.00623941 0)
(25.0627 -0.00623961 0)
(25.0627 -0.00623986 0)
(25.0627 -0.00624015 0)
(25.0627 -0.00624046 0)
(25.0627 -0.00624081 0)
(25.0627 -0.00624122 0)
(25.0627 -0.00624182 0)
(25.0627 -0.00624287 0)
(25.0627 -0.00624495 0)
(25.0627 -0.00624921 0)
(25.0627 -0.00625766 0)
(25.0626 -0.00627448 0)
(25.0626 -0.00630613 0)
(25.0625 -0.00636781 0)
(25.0623 -0.00647908 0)
(25.062 -0.00668745 0)
(25.0611 -0.00712005 0)
(25.0605 -0.00762964 0)
(25.0565 -0.0102291 0)
(40.8423 0.204613 0)
(41.2519 0.0752175 0)
(41.1718 -0.355098 0)
(39.9525 -0.889642 0)
(37.464 -1.20275 0)
(34.3162 -1.16919 0)
(31.3868 -0.937243 0)
(29.4299 -0.685549 0)
(28.0745 -0.458372 0)
(27.1543 -0.285424 0)
(26.5644 -0.17168 0)
(26.1725 -0.10887 0)
(25.8736 -0.0853204 0)
(25.6061 -0.0835821 0)
(25.3413 -0.0845988 0)
(25.0816 -0.0751021 0)
(24.8516 -0.0527935 0)
(24.6761 -0.0237359 0)
(24.5671 0.00411756 0)
(24.52 0.0260914 0)
(24.5191 0.0467062 0)
(24.5668 0.0620833 0)
(24.6497 0.0665368 0)
(24.7451 0.0615194 0)
(24.832 0.051638 0)
(24.9025 0.041033 0)
(24.9552 0.0316752 0)
(24.9925 0.0241602 0)
(25.0178 0.0184811 0)
(25.0344 0.0143534 0)
(25.0448 0.0114147 0)
(25.0513 0.00933698 0)
(25.0553 0.00772258 0)
(25.0575 0.00669051 0)
(25.0588 0.00620742 0)
(25.0595 0.00600096 0)
(25.0599 0.00594953 0)
(25.0601 0.00595572 0)
(25.0602 0.00596703 0)
(25.0602 0.00597529 0)
(25.0602 0.00598017 0)
(25.0602 0.00598267 0)
(25.0602 0.00598382 0)
(25.0602 0.00598437 0)
(25.0602 0.0059845 0)
(25.0602 0.00598449 0)
(25.0602 0.00598449 0)
(25.0602 0.0059844 0)
(25.0602 0.00598428 0)
(25.0602 0.00598422 0)
(25.0602 0.00598417 0)
(25.0602 0.00598413 0)
(25.0602 0.00598413 0)
(25.0602 0.00598415 0)
(25.0602 0.00598414 0)
(25.0602 0.0059841 0)
(25.0602 0.00598406 0)
(25.0602 0.00598406 0)
(25.0602 0.00598406 0)
(25.0602 0.00598407 0)
(25.0602 0.00598408 0)
(25.0602 0.00598412 0)
(25.0602 0.00598417 0)
(25.0602 0.00598423 0)
(25.0602 0.00598429 0)
(25.0602 0.00598433 0)
(25.0602 0.00598434 0)
(25.0602 0.00598435 0)
(25.0602 0.00598434 0)
(25.0602 0.00598433 0)
(25.0602 0.00598432 0)
(25.0602 0.00598432 0)
(25.0602 0.00598431 0)
(25.0602 0.00598429 0)
(25.0602 0.00598424 0)
(25.0602 0.00598417 0)
(25.0602 0.0059841 0)
(25.0602 0.00598404 0)
(25.0602 0.00598402 0)
(25.0602 0.00598403 0)
(25.0602 0.00598407 0)
(25.0602 0.00598414 0)
(25.0602 0.00598422 0)
(25.0602 0.00598428 0)
(25.0602 0.00598431 0)
(25.0602 0.00598431 0)
(25.0602 0.00598428 0)
(25.0602 0.0059842 0)
(25.0602 0.00598405 0)
(25.0602 0.00598377 0)
(25.0602 0.00598324 0)
(25.0602 0.00598235 0)
(25.0602 0.00598036 0)
(25.0601 0.00597722 0)
(25.06 0.00596637 0)
(25.0598 0.0059523 0)
(25.0596 0.00588101 0)
(25.0586 0.00576568 0)
(25.058 0.00554337 0)
(25.0536 0.00372281 0)
(40.6672 0.0576797 0)
(41.005 -0.00200019 0)
(40.8393 -0.121836 0)
(39.6013 -0.318413 0)
(37.1229 -0.458072 0)
(33.986 -0.481644 0)
(31.0376 -0.425317 0)
(29.0492 -0.347905 0)
(27.6458 -0.268244 0)
(26.6733 -0.200944 0)
(26.0517 -0.153306 0)
(25.6429 -0.125329 0)
(25.322 -0.113766 0)
(25.0144 -0.111582 0)
(24.6978 -0.109412 0)
(24.3903 -0.100787 0)
(24.1305 -0.0853447 0)
(23.9464 -0.0666706 0)
(23.8448 -0.0488609 0)
(23.8117 -0.0352251 0)
(23.8362 -0.0204242 0)
(23.9255 -0.00747564 0)
(24.052 -0.000212601 0)
(24.1808 0.00134833 0)
(24.2922 -0.00020992 0)
(24.3806 -0.00274322 0)
(24.4457 -0.00520074 0)
(24.4914 -0.00711959 0)
(24.5222 -0.00837175 0)
(24.5422 -0.00899465 0)
(24.5548 -0.00909058 0)
(24.5625 -0.00881102 0)
(24.567 -0.00856863 0)
(24.5697 -0.00848016 0)
(24.5712 -0.00851226 0)
(24.5721 -0.00860626 0)
(24.5725 -0.00872922 0)
(24.5728 -0.00885117 0)
(24.5729 -0.00893104 0)
(24.573 -0.00897643 0)
(24.573 -0.00900092 0)
(24.573 -0.00901374 0)
(24.5731 -0.00902019 0)
(24.5731 -0.00902331 0)
(24.5731 -0.00902487 0)
(24.5731 -0.00902556 0)
(24.5731 -0.00902576 0)
(24.5731 -0.00902582 0)
(24.5731 -0.00902577 0)
(24.5731 -0.00902564 0)
(24.5731 -0.00902555 0)
(24.5731 -0.0090255 0)
(24.5731 -0.00902546 0)
(24.5731 -0.00902544 0)
(24.5731 -0.00902542 0)
(24.5731 -0.00902537 0)
(24.5731 -0.00902529 0)
(24.5731 -0.00902523 0)
(24.5731 -0.00902522 0)
(24.5731 -0.00902523 0)
(24.5731 -0.00902528 0)
(24.5731 -0.00902538 0)
(24.5731 -0.00902554 0)
(24.5731 -0.00902571 0)
(24.5731 -0.00902587 0)
(24.5731 -0.00902599 0)
(24.5731 -0.00902606 0)
(24.5731 -0.0090261 0)
(24.5731 -0.00902612 0)
(24.5731 -0.00902615 0)
(24.5731 -0.00902619 0)
(24.5731 -0.0090262 0)
(24.5731 -0.00902614 0)
(24.5731 -0.009026 0)
(24.5731 -0.00902579 0)
(24.5731 -0.00902554 0)
(24.5731 -0.00902527 0)
(24.5731 -0.00902508 0)
(24.5731 -0.00902503 0)
(24.5731 -0.00902508 0)
(24.5731 -0.00902521 0)
(24.5731 -0.00902542 0)
(24.5731 -0.00902569 0)
(24.5731 -0.00902598 0)
(24.5731 -0.00902626 0)
(24.5731 -0.00902653 0)
(24.5731 -0.00902678 0)
(24.5731 -0.00902711 0)
(24.573 -0.00902773 0)
(24.573 -0.00902903 0)
(24.573 -0.00903181 0)
(24.573 -0.00903741 0)
(24.573 -0.00904883 0)
(24.5729 -0.00906977 0)
(24.5728 -0.00911187 0)
(24.5726 -0.00918431 0)
(24.5723 -0.00931682 0)
(24.571 -0.0096125 0)
(24.5707 -0.00982507 0)
(24.5643 -0.0113755 0)
(3.36359 4.26465 0)
(2.89615 6.73177 0)
(-0.0631505 8.72384 0)
(-2.7414 9.06719 0)
(-5.22433 8.5039 0)
(-8.10276 6.68302 0)
(-10.2408 4.26751 0)
(-11.1726 2.70619 0)
(14.4193 2.74397 0)
(15.0168 4.07803 0)
(8.05023 4.95249 0)
(2.10711 5.25758 0)
(-6.14138 5.16303 0)
(-12.89 4.47497 0)
(-19.5136 2.95112 0)
(-23.3164 1.3006 0)
(19.3172 -0.663096 0)
(14.4177 1.56672 0)
(7.60034 1.18559 0)
(-0.625064 1.24693 0)
(-7.35341 1.40182 0)
(-14.6182 1.25645 0)
(-23.0131 0.926657 0)
(-29.7232 0.232223 0)
(30.5006 -6.87456 0)
(21.2622 -5.04738 0)
(12.0452 -3.7947 0)
(3.33844 -3.0511 0)
(-5.34306 -2.07196 0)
(-13.7384 -1.36883 0)
(-22.1587 -0.894112 0)
(-30.3068 -0.345214 0)
(32.4675 -10.0072 0)
(26.5329 -9.77858 0)
(19.2712 -8.86875 0)
(11.2354 -7.59313 0)
(2.77398 -6.15097 0)
(-5.98702 -4.66526 0)
(-15.0741 -2.93946 0)
(-21.6868 -1.20436 0)
(30.6541 -9.55219 0)
(26.8734 -9.62601 0)
(21.6353 -9.26149 0)
(15.3866 -8.42759 0)
(8.42949 -7.18855 0)
(1.03985 -5.60914 0)
(-6.38179 -3.64316 0)
(-13.1777 -1.31267 0)
(28.2312 -7.19167 0)
(26.4924 -7.47943 0)
(23.4377 -7.39853 0)
(19.2559 -6.86371 0)
(14.218 -5.9183 0)
(8.60912 -4.628 0)
(2.84162 -2.97542 0)
(-2.83724 -1.02447 0)
(26.7557 -4.61166 0)
(25.9971 -4.79031 0)
(24.5021 -4.79083 0)
(22.0023 -4.51322 0)
(18.5137 -3.91975 0)
(14.2494 -3.06331 0)
(9.53849 -1.98187 0)
(4.89065 -0.669735 0)
(26.1898 -2.81237 0)
(25.8324 -2.87909 0)
(25.1191 -2.87405 0)
(23.6422 -2.73597 0)
(21.2123 -2.39046 0)
(17.9172 -1.86423 0)
(14.0283 -1.19067 0)
(9.99575 -0.378773 0)
(25.9981 -1.72069 0)
(25.8317 -1.74643 0)
(25.4785 -1.74017 0)
(24.5565 -1.67059 0)
(22.7831 -1.47735 0)
(20.1143 -1.17044 0)
(16.7859 -0.747282 0)
(13.0892 -0.236294 0)
(25.9035 -1.0972 0)
(25.8294 -1.11244 0)
(25.6435 -1.11304 0)
(25.0268 -1.07955 0)
(23.6483 -0.977384 0)
(21.4097 -0.790853 0)
(18.4781 -0.504119 0)
(14.9589 -0.171464 0)
(25.8185 -0.758976 0)
(25.787 -0.774089 0)
(25.685 -0.781623 0)
(25.2474 -0.774093 0)
(24.1426 -0.716822 0)
(22.2786 -0.585573 0)
(19.6418 -0.373189 0)
(16.277 -0.145939 0)
(25.7334 -0.595121 0)
(25.7218 -0.610188 0)
(25.6677 -0.622216 0)
(25.3491 -0.627913 0)
(24.4992 -0.578559 0)
(22.9682 -0.475425 0)
(20.5277 -0.304825 0)
(17.3506 -0.139105 0)
(25.6585 -0.523736 0)
(25.6579 -0.535705 0)
(25.6395 -0.546124 0)
(25.4386 -0.543386 0)
(24.8298 -0.494987 0)
(23.5471 -0.408037 0)
(21.2364 -0.267055 0)
(18.3045 -0.137921 0)
(25.6107 -0.488094 0)
(25.6211 -0.495198 0)
(25.6465 -0.491068 0)
(25.5653 -0.479668 0)
(25.1457 -0.426674 0)
(24.0149 -0.357161 0)
(21.822 -0.244605 0)
(19.1914 -0.135144 0)
(25.5991 -0.447737 0)
(25.6315 -0.447522 0)
(25.7156 -0.43139 0)
(25.7325 -0.409847 0)
(25.4176 -0.359084 0)
(24.3613 -0.313496 0)
(22.3188 -0.227776 0)
(20.0242 -0.127137 0)
(25.6221 -0.385546 0)
(25.6872 -0.380006 0)
(25.8295 -0.356694 0)
(25.8977 -0.333958 0)
(25.6114 -0.295805 0)
(24.5871 -0.274472 0)
(22.7493 -0.211072 0)
(20.7952 -0.114249 0)
(25.6534 -0.303396 0)
(25.7562 -0.296777 0)
(25.9361 -0.277401 0)
(26.0126 -0.262388 0)
(25.7146 -0.242159 0)
(24.7127 -0.240021 0)
(23.1296 -0.1921 0)
(21.4928 -0.0989915 0)
(25.6665 -0.211144 0)
(25.8026 -0.209233 0)
(25.9979 -0.200047 0)
(26.0604 -0.198433 0)
(25.7376 -0.195525 0)
(24.7707 -0.212249 0)
(23.4714 -0.169644 0)
(22.1083 -0.0838732 0)
(25.6535 -0.119834 0)
(25.8116 -0.12402 0)
(25.9989 -0.125658 0)
(26.0245 -0.140238 0)
(25.6702 -0.1571 0)
(24.7942 -0.188605 0)
(23.781 -0.144593 0)
(22.6371 -0.0702991 0)
(25.6177 -0.0437028 0)
(25.7763 -0.0536026 0)
(25.9254 -0.0682484 0)
(25.8982 -0.0999302 0)
(25.5335 -0.131266 0)
(24.8081 -0.163471 0)
(24.0599 -0.119728 0)
(23.0795 -0.0584406 0)
(25.5566 0.00745406 0)
(25.694 -0.0102546 0)
(25.7883 -0.0355319 0)
(25.7166 -0.0760316 0)
(25.3875 -0.110995 0)
(24.8293 -0.13604 0)
(24.3035 -0.0947637 0)
(23.4372 -0.0477124 0)
(25.4727 0.0308155 0)
(25.5758 0.0080322 0)
(25.621 -0.0216059 0)
(25.5358 -0.0613484 0)
(25.2691 -0.0915537 0)
(24.8623 -0.108116 0)